<?xml version="1.0"?>
<VTKFile type="UnstructuredGrid" version="0.1" byte_order="LittleEndian" compressor="vtkZLibDataCompressor">
<UnstructuredGrid>
<Piece NumberOfPoints="960" NumberOfCells="120">
<Points>
<DataArray type="Float32" NumberOfComponents="3" format="ascii">
-4.000000e+02 -6.000000e+03 -4.000000e+02
0.000000e+00 -6.000000e+03 -4.000000e+02
-4.000250e+02 -5.600220e+03 -4.001300e+02
-1.842780e-02 -5.600210e+03 -4.001500e+02
-4.000000e+02 -6.000000e+03 0.000000e+00
0.000000e+00 -6.000000e+03 0.000000e+00
-3.999990e+02 -5.600000e+03 -1.193390e-01
-9.917620e-04 -5.600000e+03 -1.358470e-01
0.000000e+00 -6.000000e+03 -4.000000e+02
4.000000e+02 -6.000000e+03 -4.000000e+02
-1.842780e-02 -5.600210e+03 -4.001500e+02
3.999880e+02 -5.600210e+03 -4.001580e+02
0.000000e+00 -6.000000e+03 0.000000e+00
4.000000e+02 -6.000000e+03 0.000000e+00
-9.917620e-04 -5.600000e+03 -1.358470e-01
3.999970e+02 -5.600000e+03 -1.488250e-01
-4.000250e+02 -5.600220e+03 -4.001300e+02
-1.842780e-02 -5.600210e+03 -4.001500e+02
-4.000330e+02 -5.200310e+03 -4.004010e+02
-2.326790e-02 -5.200310e+03 -4.004320e+02
-3.999990e+02 -5.600000e+03 -1.193390e-01
-9.917620e-04 -5.600000e+03 -1.358470e-01
-3.999990e+02 -5.200010e+03 -4.013390e-01
-2.575730e-03 -5.200010e+03 -4.301590e-01
-1.842780e-02 -5.600210e+03 -4.001500e+02
3.999880e+02 -5.600210e+03 -4.001580e+02
-2.326790e-02 -5.200310e+03 -4.004320e+02
3.999860e+02 -5.200310e+03 -4.004400e+02
-9.917620e-04 -5.600000e+03 -1.358470e-01
3.999970e+02 -5.600000e+03 -1.488250e-01
-2.575730e-03 -5.200010e+03 -4.301590e-01
3.999940e+02 -5.200010e+03 -4.499780e-01
-4.000330e+02 -5.200310e+03 -4.004010e+02
-2.326790e-02 -5.200310e+03 -4.004320e+02
-4.000190e+02 -4.800410e+03 -4.007260e+02
-1.143320e-02 -4.800410e+03 -4.007500e+02
-3.999990e+02 -5.200010e+03 -4.013390e-01
-2.575730e-03 -5.200010e+03 -4.301590e-01
-3.999990e+02 -4.800010e+03 -7.560720e-01
-3.612260e-03 -4.800010e+03 -7.786270e-01
-2.326790e-02 -5.200310e+03 -4.004320e+02
3.999860e+02 -5.200310e+03 -4.004400e+02
-1.143320e-02 -4.800410e+03 -4.007500e+02
3.999960e+02 -4.800400e+03 -4.007510e+02
-2.575730e-03 -5.200010e+03 -4.301590e-01
3.999940e+02 -5.200010e+03 -4.499780e-01
-3.612260e-03 -4.800010e+03 -7.786270e-01
3.999920e+02 -4.800010e+03 -7.959920e-01
-4.000190e+02 -4.800410e+03 -4.007260e+02
-1.143320e-02 -4.800410e+03 -4.007500e+02
-4.000090e+02 -4.400580e+03 -4.012690e+02
-4.597300e-03 -4.400580e+03 -4.012850e+02
-3.999990e+02 -4.800010e+03 -7.560720e-01
-3.612260e-03 -4.800010e+03 -7.786270e-01
-3.999980e+02 -4.400000e+03 -1.311860e+00
-3.347860e-03 -4.400000e+03 -1.323970e+00
-1.143320e-02 -4.800410e+03 -4.007500e+02
3.999960e+02 -4.800400e+03 -4.007510e+02
-4.597300e-03 -4.400580e+03 -4.012850e+02
4.000000e+02 -4.400570e+03 -4.012830e+02
-3.612260e-03 -4.800010e+03 -7.786270e-01
3.999920e+02 -4.800010e+03 -7.959920e-01
-3.347860e-03 -4.400000e+03 -1.323970e+00
3.999910e+02 -4.400000e+03 -1.337760e+00
-4.000090e+02 -4.400580e+03 -4.012690e+02
-4.597300e-03 -4.400580e+03 -4.012850e+02
-4.000240e+02 -4.000770e+03 -4.020110e+02
-2.418920e-02 -4.000770e+03 -4.020440e+02
-3.999980e+02 -4.400000e+03 -1.311860e+00
-3.347860e-03 -4.400000e+03 -1.323970e+00
-3.999970e+02 -4.000000e+03 -2.045500e+00
-1.747090e-03 -3.999990e+03 -2.071020e+00
-4.597300e-03 -4.400580e+03 -4.012850e+02
4.000000e+02 -4.400570e+03 -4.012830e+02
-2.418920e-02 -4.000770e+03 -4.020440e+02
3.999760e+02 -4.000760e+03 -4.020640e+02
-3.347860e-03 -4.400000e+03 -1.323970e+00
3.999910e+02 -4.400000e+03 -1.337760e+00
-1.747090e-03 -3.999990e+03 -2.071020e+00
3.999940e+02 -3.999990e+03 -2.101450e+00
-4.000240e+02 -4.000770e+03 -4.020110e+02
-2.418920e-02 -4.000770e+03 -4.020440e+02
-4.000460e+02 -3.600940e+03 -4.028980e+02
-4.663350e-02 -3.600930e+03 -4.029530e+02
-3.999970e+02 -4.000000e+03 -2.045500e+00
-1.747090e-03 -3.999990e+03 -2.071020e+00
-3.999980e+02 -3.600000e+03 -2.909440e+00
-1.290420e-03 -3.600000e+03 -2.958720e+00
-2.418920e-02 -4.000770e+03 -4.020440e+02
3.999760e+02 -4.000760e+03 -4.020640e+02
-4.663350e-02 -3.600930e+03 -4.029530e+02
3.999530e+02 -3.600940e+03 -4.029990e+02
-1.747090e-03 -3.999990e+03 -2.071020e+00
3.999940e+02 -3.999990e+03 -2.101450e+00
-1.290420e-03 -3.600000e+03 -2.958720e+00
3.999960e+02 -3.600000e+03 -3.012570e+00
-4.000460e+02 -3.600940e+03 -4.028980e+02
-4.663350e-02 -3.600930e+03 -4.029530e+02
-4.000470e+02 -3.201010e+03 -4.039400e+02
-4.311150e-02 -3.201010e+03 -4.039850e+02
-3.999980e+02 -3.600000e+03 -2.909440e+00
-1.290420e-03 -3.600000e+03 -2.958720e+00
-4.000000e+02 -3.200010e+03 -3.944250e+00
-2.556420e-03 -3.200010e+03 -3.989940e+00
-4.663350e-02 -3.600930e+03 -4.029530e+02
3.999530e+02 -3.600940e+03 -4.029990e+02
-4.311150e-02 -3.201010e+03 -4.039850e+02
3.999610e+02 -3.201010e+03 -4.040230e+02
-1.290420e-03 -3.600000e+03 -2.958720e+00
3.999960e+02 -3.600000e+03 -3.012570e+00
-2.556420e-03 -3.200010e+03 -3.989940e+00
3.999950e+02 -3.200010e+03 -4.038260e+00
-4.000470e+02 -3.201010e+03 -4.039400e+02
-4.311150e-02 -3.201010e+03 -4.039850e+02
-4.000320e+02 -2.800950e+03 -4.049450e+02
-2.206730e-02 -2.800950e+03 -4.049660e+02
-4.000000e+02 -3.200010e+03 -3.944250e+00
-2.556420e-03 -3.200010e+03 -3.989940e+00
-4.000000e+02 -2.800020e+03 -4.971700e+00
-1.876600e-03 -2.800010e+03 -4.992390e+00
-4.311150e-02 -3.201010e+03 -4.039850e+02
3.999610e+02 -3.201010e+03 -4.040230e+02
-2.206730e-02 -2.800950e+03 -4.049660e+02
3.999870e+02 -2.800960e+03 -4.049730e+02
-2.556420e-03 -3.200010e+03 -3.989940e+00
3.999950e+02 -3.200010e+03 -4.038260e+00
-1.876600e-03 -2.800010e+03 -4.992390e+00
3.999960e+02 -2.800010e+03 -5.007780e+00
-4.000320e+02 -2.800950e+03 -4.049450e+02
-2.206730e-02 -2.800950e+03 -4.049660e+02
-4.000060e+02 -2.400850e+03 -4.058290e+02
3.596510e-03 -2.400870e+03 -4.058300e+02
-4.000000e+02 -2.800020e+03 -4.971700e+00
-1.876600e-03 -2.800010e+03 -4.992390e+00
-4.000010e+02 -2.400010e+03 -5.883210e+00
-2.183330e-03 -2.400010e+03 -5.883540e+00
-2.206730e-02 -2.800950e+03 -4.049660e+02
3.999870e+02 -2.800960e+03 -4.049730e+02
3.596510e-03 -2.400870e+03 -4.058300e+02
4.000130e+02 -2.400870e+03 -4.058150e+02
-1.876600e-03 -2.800010e+03 -4.992390e+00
3.999960e+02 -2.800010e+03 -5.007780e+00
-2.183330e-03 -2.400010e+03 -5.883540e+00
3.999970e+02 -2.400010e+03 -5.874860e+00
-4.000060e+02 -2.400850e+03 -4.058290e+02
3.596510e-03 -2.400870e+03 -4.058300e+02
-3.999890e+02 -2.000780e+03 -4.066630e+02
1.300820e-02 -2.000790e+03 -4.066550e+02
-4.000010e+02 -2.400010e+03 -5.883210e+00
-2.183330e-03 -2.400010e+03 -5.883540e+00
-4.000010e+02 -2.000000e+03 -6.725900e+00
-7.558360e-04 -2.000000e+03 -6.717280e+00
3.596510e-03 -2.400870e+03 -4.058300e+02
4.000130e+02 -2.400870e+03 -4.058150e+02
1.300820e-02 -2.000790e+03 -4.066550e+02
4.000150e+02 -2.000790e+03 -4.066380e+02
-2.183330e-03 -2.400010e+03 -5.883540e+00
3.999970e+02 -2.400010e+03 -5.874860e+00
-7.558360e-04 -2.000000e+03 -6.717280e+00
3.999990e+02 -2.000000e+03 -6.701750e+00
-3.999890e+02 -2.000780e+03 -4.066630e+02
1.300820e-02 -2.000790e+03 -4.066550e+02
-3.999880e+02 -1.600750e+03 -4.073930e+02
6.582030e-03 -1.600760e+03 -4.073780e+02
-4.000010e+02 -2.000000e+03 -6.725900e+00
-7.558360e-04 -2.000000e+03 -6.717280e+00
-4.000000e+02 -1.599990e+03 -7.428530e+00
4.336700e-04 -1.599990e+03 -7.412080e+00
1.300820e-02 -2.000790e+03 -4.066550e+02
4.000150e+02 -2.000790e+03 -4.066380e+02
6.582030e-03 -1.600760e+03 -4.073780e+02
4.000010e+02 -1.600760e+03 -4.073640e+02
-7.558360e-04 -2.000000e+03 -6.717280e+00
3.999990e+02 -2.000000e+03 -6.701750e+00
4.336700e-04 -1.599990e+03 -7.412080e+00
4.000010e+02 -1.599990e+03 -7.397530e+00
-3.999880e+02 -1.600750e+03 -4.073930e+02
6.582030e-03 -1.600760e+03 -4.073780e+02
-3.999900e+02 -1.200840e+03 -4.081370e+02
1.934710e-03 -1.200850e+03 -4.081180e+02
-4.000000e+02 -1.599990e+03 -7.428530e+00
4.336700e-04 -1.599990e+03 -7.412080e+00
-3.999990e+02 -1.200000e+03 -8.136050e+00
1.113590e-03 -1.200000e+03 -8.116420e+00
6.582030e-03 -1.600760e+03 -4.073780e+02
4.000010e+02 -1.600760e+03 -4.073640e+02
1.934710e-03 -1.200850e+03 -4.081180e+02
3.999930e+02 -1.200850e+03 -4.081140e+02
4.336700e-04 -1.599990e+03 -7.412080e+00
4.000010e+02 -1.599990e+03 -7.397530e+00
1.113590e-03 -1.200000e+03 -8.116420e+00
4.000020e+02 -1.200000e+03 -8.108960e+00
-3.999900e+02 -1.200840e+03 -4.081370e+02
1.934710e-03 -1.200850e+03 -4.081180e+02
-3.999910e+02 -8.009370e+02 -4.090460e+02
3.429820e-03 -8.009500e+02 -4.090310e+02
-3.999990e+02 -1.200000e+03 -8.136050e+00
1.113590e-03 -1.200000e+03 -8.116420e+00
-4.000010e+02 -8.000160e+02 -9.043620e+00
5.430340e-04 -8.000150e+02 -9.032200e+00
1.934710e-03 -1.200850e+03 -4.081180e+02
3.999930e+02 -1.200850e+03 -4.081140e+02
3.429820e-03 -8.009500e+02 -4.090310e+02
3.999980e+02 -8.009600e+02 -4.090310e+02
1.113590e-03 -1.200000e+03 -8.116420e+00
4.000020e+02 -1.200000e+03 -8.108960e+00
5.430340e-04 -8.000150e+02 -9.032200e+00
4.000020e+02 -8.000150e+02 -9.028660e+00
-3.999910e+02 -8.009370e+02 -4.090460e+02
3.429820e-03 -8.009500e+02 -4.090310e+02
-3.999970e+02 -4.009660e+02 -4.099870e+02
5.137050e-03 -4.009780e+02 -4.099830e+02
-4.000010e+02 -8.000160e+02 -9.043620e+00
5.430340e-04 -8.000150e+02 -9.032200e+00
-4.000040e+02 -4.000250e+02 -1.002110e+01
-9.151870e-04 -4.000230e+02 -1.002400e+01
3.429820e-03 -8.009500e+02 -4.090310e+02
3.999980e+02 -8.009600e+02 -4.090310e+02
5.137050e-03 -4.009780e+02 -4.099830e+02
4.000080e+02 -4.009860e+02 -4.099750e+02
5.430340e-04 -8.000150e+02 -9.032200e+00
4.000020e+02 -8.000150e+02 -9.028660e+00
-9.151870e-04 -4.000230e+02 -1.002400e+01
4.000020e+02 -4.000220e+02 -1.001260e+01
-3.999970e+02 -4.009660e+02 -4.099870e+02
5.137050e-03 -4.009780e+02 -4.099830e+02
-4.000030e+02 -9.724750e-01 -4.109630e+02
3.011160e-03 -9.743820e-01 -4.109640e+02
-4.000040e+02 -4.000250e+02 -1.002110e+01
-9.151870e-04 -4.000230e+02 -1.002400e+01
-4.000040e+02 -1.527750e-02 -1.102110e+01
-1.083960e-03 -1.388230e-02 -1.103120e+01
5.137050e-03 -4.009780e+02 -4.099830e+02
4.000080e+02 -4.009860e+02 -4.099750e+02
[...]
<PointData>
<DataArray type="Float32" Name="V1" format="ascii">
0.000000e+00
0.000000e+00
8.000130e-03
-1.036900e-02
0.000000e+00
0.000000e+00
-1.385580e-04
1.558610e-03
0.000000e+00
0.000000e+00
-1.036900e-02
-2.869310e-02
0.000000e+00
0.000000e+00
1.558610e-03
3.306890e-03
8.000130e-03
-1.036900e-02
2.271920e-02
-3.661680e-03
-1.385580e-04
1.558610e-03
-2.643490e-03
3.223080e-05
-1.036900e-02
-2.869310e-02
-3.661680e-03
-2.993380e-02
1.558610e-03
3.306890e-03
3.223080e-05
2.755980e-03
2.271920e-02
-3.661680e-03
7.588110e-03
8.332630e-03
-2.643490e-03
3.223080e-05
1.719050e-03
2.581560e-03
-3.661680e-03
-2.993380e-02
8.332630e-03
8.939250e-03
3.223080e-05
2.755980e-03
2.581560e-03
3.345960e-03
7.588110e-03
8.332630e-03
-9.652830e-04
1.610030e-02
1.719050e-03
2.581560e-03
2.002660e-03
7.156570e-04
8.332630e-03
8.939250e-03
1.610030e-02
3.300790e-02
2.581560e-03
3.345960e-03
7.156570e-04
-7.033740e-04
-9.652830e-04
1.610030e-02
-2.340870e-02
5.084300e-03
2.002660e-03
7.156570e-04
7.379310e-03
4.186090e-03
1.610030e-02
3.300790e-02
5.084300e-03
3.356500e-02
7.156570e-04
-7.033740e-04
4.186090e-03
9.726940e-04
-2.340870e-02
5.084300e-03
-7.339490e-03
-4.250130e-03
7.379310e-03
4.186090e-03
5.748300e-03
2.267990e-03
5.084300e-03
3.356500e-02
-4.250130e-03
-1.240600e-03
4.186090e-03
9.726940e-04
2.267990e-03
-1.245480e-03
-7.339490e-03
-4.250130e-03
5.893240e-03
-9.370750e-03
5.748300e-03
2.267990e-03
3.121420e-03
1.256310e-03
-4.250130e-03
-1.240600e-03
-9.370750e-03
-2.470740e-02
2.267990e-03
-1.245480e-03
1.256310e-03
-7.296220e-04
5.893240e-03
-9.370750e-03
4.527090e-03
-5.903200e-03
3.121420e-03
1.256310e-03
9.656370e-04
-5.341080e-04
-9.370750e-03
-2.470740e-02
-5.903200e-03
-1.644610e-02
1.256310e-03
-7.296220e-04
-5.341080e-04
-2.159200e-03
4.527090e-03
-5.903200e-03
-4.324300e-03
-1.004230e-03
9.656370e-04
-5.341080e-04
2.249930e-03
1.511040e-04
-5.903200e-03
-1.644610e-02
-1.004230e-03
2.165640e-03
-5.341080e-04
-2.159200e-03
1.511040e-04
-2.048130e-03
-4.324300e-03
-1.004230e-03
-2.371090e-02
-1.308210e-03
2.249930e-03
1.511040e-04
1.370430e-03
1.381040e-04
-1.004230e-03
2.165640e-03
-1.308210e-03
2.105070e-02
1.511040e-04
-2.048130e-03
1.381040e-04
-1.114430e-03
-2.371090e-02
-1.308210e-03
-2.010980e-02
-3.820590e-03
1.370430e-03
1.381040e-04
-7.640390e-04
-1.345120e-04
-1.308210e-03
2.105070e-02
-3.820590e-03
1.240720e-02
1.381040e-04
-1.114430e-03
-1.345120e-04
4.398420e-04
-2.010980e-02
-3.820590e-03
-5.590820e-04
-1.597360e-03
-7.640390e-04
-1.345120e-04
-3.296380e-04
1.120680e-03
-3.820590e-03
1.240720e-02
-1.597360e-03
-2.841420e-03
-1.345120e-04
4.398420e-04
1.120680e-03
2.408440e-03
-5.590820e-04
-1.597360e-03
1.788480e-02
1.275800e-03
-3.296380e-04
1.120680e-03
2.277070e-03
1.642670e-03
-1.597360e-03
-2.841420e-03
1.275800e-03
-1.544870e-02
1.120680e-03
2.408440e-03
1.642670e-03
8.928800e-04
1.788480e-02
1.275800e-03
2.033810e-02
9.557150e-03
2.277070e-03
1.642670e-03
1.959360e-03
-1.079220e-03
1.275800e-03
-1.544870e-02
9.557150e-03
-1.219380e-03
1.642670e-03
8.928800e-04
-1.079220e-03
-4.153850e-03
2.033810e-02
9.557150e-03
9.382810e-03
1.724490e-02
1.959360e-03
-1.079220e-03
1.089300e-04
-3.923380e-03
9.557150e-03
-1.219380e-03
1.724490e-02
2.509550e-02
-1.079220e-03
-4.153850e-03
-3.923380e-03
-7.968670e-03
9.382810e-03
1.724490e-02
3.810690e-04
1.512780e-02
1.089300e-04
-3.923380e-03
6.260580e-06
-3.197410e-03
1.724490e-02
2.509550e-02
1.512780e-02
2.982280e-02
-3.923380e-03
-7.968670e-03
-3.197410e-03
-6.477330e-03
3.810690e-04
1.512780e-02
-6.777720e-03
1.238140e-03
6.260580e-06
-3.197410e-03
5.918450e-04
-1.726640e-04
1.512780e-02
2.982280e-02
1.238140e-03
9.172150e-03
-3.197410e-03
-6.477330e-03
-1.726640e-04
-1.001500e-03
-6.777720e-03
1.238140e-03
-1.402010e-02
-1.720780e-02
5.918450e-04
-1.726640e-04
-1.031430e-03
-1.559110e-03
1.238140e-03
9.172150e-03
-1.720780e-02
-2.043810e-02
-1.726640e-04
-1.001500e-03
-1.559110e-03
-2.086120e-03
-1.402010e-02
-1.720780e-02
-1.065110e-02
-2.296150e-02
-1.031430e-03
-1.559110e-03
-2.893880e-04
-1.678570e-03
-1.720780e-02
-2.043810e-02
-2.296150e-02
-3.518280e-02
-1.559110e-03
-2.086120e-03
-1.678570e-03
-3.015990e-03
-1.065110e-02
-2.296150e-02
-2.242140e-03
-9.216790e-03
-2.893880e-04
-1.678570e-03
-5.698030e-04
-1.452020e-03
-2.296150e-02
-3.518280e-02
-9.216790e-03
-1.615170e-02
-1.678570e-03
-3.015990e-03
-1.452020e-03
-2.330690e-03
-2.242140e-03
-9.216790e-03
-9.390710e-04
7.456850e-04
-5.698030e-04
-1.452020e-03
-4.398120e-04
7.231360e-04
-9.216790e-03
-1.615170e-02
7.456850e-04
2.403020e-03
-1.452020e-03
-2.330690e-03
7.231360e-04
1.841730e-03
-9.390710e-04
7.456850e-04
-4.403650e-03
3.869500e-03
-4.398120e-04
7.231360e-04
2.288480e-04
2.150700e-03
7.456850e-04
2.403020e-03
3.869500e-03
1.214250e-02
7.231360e-04
1.841730e-03
2.150700e-03
4.065410e-03
-4.403650e-03
3.869500e-03
8.685650e-05
3.370380e-03
2.288480e-04
2.150700e-03
1.434240e-03
2.400520e-03
3.869500e-03
1.214250e-02
3.370380e-03
6.747740e-03
2.150700e-03
4.065410e-03
2.400520e-03
3.467370e-03
8.685650e-05
3.370380e-03
-1.098330e-02
-1.277960e-02
1.434240e-03
2.400520e-03
2.492810e-03
2.024880e-03
3.370380e-03
6.747740e-03
-1.277960e-02
-1.448330e-02
2.400520e-03
3.467370e-03
2.024880e-03
1.646450e-03
-1.098330e-02
-1.277960e-02
-2.448840e-02
-2.508910e-02
2.492810e-03
2.024880e-03
3.115590e-03
1.858610e-03
-1.277960e-02
-1.448330e-02
-2.508910e-02
-2.568030e-02
2.024880e-03
1.646450e-03
1.858610e-03
6.276330e-04
-2.448840e-02
-2.508910e-02
-2.583460e-03
-5.549000e-03
3.115590e-03
1.858610e-03
-1.937840e-03
-1.486530e-03
-2.508910e-02
-2.568030e-02
-5.549000e-03
-8.501200e-03
1.858610e-03
6.276330e-04
-1.486530e-03
-1.010080e-03
-2.583460e-03
-5.549000e-03
5.229620e-03
9.394390e-03
-1.937840e-03
-1.486530e-03
-5.767620e-03
-2.092440e-03
-5.549000e-03
-8.501200e-03
9.394390e-03
1.370580e-02
-1.486530e-03
-1.010080e-03
-2.092440e-03
1.636930e-03
5.229620e-03
9.394390e-03
1.103730e-02
1.014000e-02
-5.767620e-03
-2.092440e-03
-4.967410e-03
1.805430e-04
9.394390e-03
1.370580e-02
1.014000e-02
9.358580e-03
-2.092440e-03
1.636930e-03
1.805430e-04
5.456840e-03
1.103730e-02
1.014000e-02
2.296450e-02
1.706100e-02
-4.967410e-03
1.805430e-04
-4.192440e-03
9.852760e-04
1.014000e-02
9.358580e-03
1.706100e-02
1.127890e-02
1.805430e-04
5.456840e-03
9.852760e-04
6.293720e-03
2.296450e-02
1.706100e-02
3.391080e-02
2.002820e-02
-4.192440e-03
9.852760e-04
-2.403580e-03
2.019440e-03
1.706100e-02
1.127890e-02
2.002820e-02
6.285270e-03
9.852760e-04
6.293720e-03
2.019440e-03
6.519010e-03
0.000000e+00
0.000000e+00
-1.385580e-04
1.558610e-03
0.000000e+00
0.000000e+00
-7.531480e-03
7.179220e-03
0.000000e+00
0.000000e+00
1.558610e-03
3.306890e-03
0.000000e+00
0.000000e+00
7.179220e-03
2.192830e-02
-1.385580e-04
1.558610e-03
-2.643490e-03
3.223080e-05
-7.531480e-03
7.179220e-03
-1.756300e-02
3.136660e-03
1.558610e-03
3.306890e-03
3.223080e-05
2.755980e-03
7.179220e-03
2.192830e-02
3.136660e-03
2.380910e-02
-2.643490e-03
3.223080e-05
1.719050e-03
2.581560e-03
-1.756300e-02
3.136660e-03
-1.030490e-02
-1.267930e-02
3.223080e-05
2.755980e-03
2.581560e-03
3.345960e-03
3.136660e-03
2.380910e-02
-1.267930e-02
-1.511360e-02
1.719050e-03
2.581560e-03
2.002660e-03
7.156570e-04
-1.030490e-02
-1.267930e-02
-3.635450e-03
-1.775730e-02
2.581560e-03
3.345960e-03
7.156570e-04
-7.033740e-04
-1.267930e-02
-1.511360e-02
-1.775730e-02
-3.198170e-02
2.002660e-03
7.156570e-04
7.379310e-03
4.186090e-03
-3.635450e-03
-1.775730e-02
8.402950e-03
-1.345410e-02
7.156570e-04
-7.033740e-04
4.186090e-03
9.726940e-04
-1.775730e-02
-3.198170e-02
-1.345410e-02
-3.529370e-02
7.379310e-03
4.186090e-03
5.748300e-03
2.267990e-03
8.402950e-03
-1.345410e-02
-3.906570e-03
1.002830e-04
4.186090e-03
9.726940e-04
2.267990e-03
-1.245480e-03
-1.345410e-02
-3.529370e-02
1.002830e-04
4.125570e-03
5.748300e-03
2.267990e-03
3.121420e-03
1.256310e-03
-3.906570e-03
1.002830e-04
-1.267090e-02
6.540320e-03
2.267990e-03
-1.245480e-03
1.256310e-03
-7.296220e-04
1.002830e-04
4.125570e-03
6.540320e-03
2.557850e-02
3.121420e-03
1.256310e-03
9.656370e-04
-5.341080e-04
-1.267090e-02
6.540320e-03
-6.244160e-03
7.255320e-03
1.256310e-03
-7.296220e-04
-5.341080e-04
-2.159200e-03
6.540320e-03
2.557850e-02
7.255320e-03
2.058930e-02
9.656370e-04
-5.341080e-04
2.249930e-03
1.511040e-04
-6.244160e-03
7.255320e-03
5.399670e-05
1.220430e-03
-5.341080e-04
-2.159200e-03
1.511040e-04
-2.048130e-03
7.255320e-03
2.058930e-02
1.220430e-03
2.343000e-03
2.249930e-03
1.511040e-04
1.370430e-03
1.381040e-04
5.399670e-05
1.220430e-03
2.071910e-02
9.773490e-04
1.511040e-04
-2.048130e-03
1.381040e-04
-1.114430e-03
1.220430e-03
2.343000e-03
9.773490e-04
-1.876740e-02
1.370430e-03
1.381040e-04
-7.640390e-04
-1.345120e-04
2.071910e-02
9.773490e-04
2.143470e-02
3.992930e-03
1.381040e-04
-1.114430e-03
-1.345120e-04
4.398420e-04
9.773490e-04
-1.876740e-02
3.992930e-03
-1.349340e-02
-7.640390e-04
-1.345120e-04
-3.296380e-04
1.120680e-03
2.143470e-02
3.992930e-03
1.358000e-03
-2.014590e-04
-1.345120e-04
4.398420e-04
1.120680e-03
2.408440e-03
3.992930e-03
-1.349340e-02
-2.014590e-04
-1.875180e-03
-3.296380e-04
1.120680e-03
2.277070e-03
1.642670e-03
1.358000e-03
-2.014590e-04
-2.308280e-02
-4.967880e-03
1.120680e-03
2.408440e-03
1.642670e-03
8.928800e-04
-2.014590e-04
-1.875180e-03
-4.967880e-03
1.302580e-02
2.277070e-03
1.642670e-03
1.959360e-03
-1.079220e-03
-2.308280e-02
-4.967880e-03
-2.385400e-02
-7.013330e-03
1.642670e-03
8.928800e-04
-1.079220e-03
-4.153850e-03
-4.967880e-03
1.302580e-02
-7.013330e-03
9.772150e-03
1.959360e-03
-1.079220e-03
1.089300e-04
-3.923380e-03
-2.385400e-02
-7.013330e-03
-9.807300e-03
-9.522460e-03
-1.079220e-03
-4.153850e-03
-3.923380e-03
-7.968670e-03
-7.013330e-03
9.772150e-03
-9.522460e-03
-9.248400e-03
1.089300e-04
-3.923380e-03
6.260580e-06
-3.197410e-03
-9.807300e-03
-9.522460e-03
-9.717530e-04
-9.015410e-03
-3.923380e-03
-7.968670e-03
-3.197410e-03
-6.477330e-03
-9.522460e-03
-9.248400e-03
-9.015410e-03
-1.711680e-02
6.260580e-06
-3.197410e-03
5.918450e-04
-1.726640e-04
-9.717530e-04
-9.015410e-03
6.061780e-03
-3.497020e-04
-3.197410e-03
-6.477330e-03
-1.726640e-04
-1.001500e-03
-9.015410e-03
-1.711680e-02
-3.497020e-04
-6.794130e-03
5.918450e-04
-1.726640e-04
-1.031430e-03
-1.559110e-03
6.061780e-03
-3.497020e-04
1.575290e-02
1.982810e-02
-1.726640e-04
-1.001500e-03
-1.559110e-03
-2.086120e-03
-3.497020e-04
-6.794130e-03
1.982810e-02
2.398320e-02
-1.031430e-03
-1.559110e-03
-2.893880e-04
-1.678570e-03
1.575290e-02
1.982810e-02
1.232510e-02
2.712760e-02
-1.559110e-03
-2.086120e-03
-1.678570e-03
-3.015990e-03
1.982810e-02
2.398320e-02
2.712760e-02
4.194550e-02
-2.893880e-04
-1.678570e-03
-5.698030e-04
-1.452020e-03
1.232510e-02
2.712760e-02
3.312610e-03
1.227970e-02
-1.678570e-03
-3.015990e-03
-1.452020e-03
-2.330690e-03
2.712760e-02
4.194550e-02
1.227970e-02
2.124010e-02
-5.698030e-04
-1.452020e-03
-4.398120e-04
7.231360e-04
3.312610e-03
1.227970e-02
6.205020e-04
-3.106380e-03
-1.452020e-03
-2.330690e-03
7.231360e-04
1.841730e-03
1.227970e-02
2.124010e-02
-3.106380e-03
-6.891420e-03
-4.398120e-04
7.231360e-04
2.288480e-04
2.150700e-03
6.205020e-04
-3.106380e-03
4.001250e-03
-8.129130e-03
7.231360e-04
1.841730e-03
2.150700e-03
4.065410e-03
-3.106380e-03
-6.891420e-03
-8.129130e-03
-2.025730e-02
2.288480e-04
2.150700e-03
1.434240e-03
2.400520e-03
4.001250e-03
-8.129130e-03
-2.501580e-03
-8.235070e-03
2.150700e-03
4.065410e-03
2.400520e-03
3.467370e-03
-8.129130e-03
-2.025730e-02
-8.235070e-03
-1.383650e-02
1.434240e-03
2.400520e-03
2.492810e-03
2.024880e-03
-2.501580e-03
-8.235070e-03
6.607520e-03
9.006790e-03
2.400520e-03
3.467370e-03
2.024880e-03
1.646450e-03
-8.235070e-03
-1.383650e-02
9.006790e-03
1.151180e-02
2.492810e-03
2.024880e-03
3.115590e-03
1.858610e-03
6.607520e-03
9.006790e-03
1.804560e-02
2.128350e-02
2.024880e-03
1.646450e-03
1.858610e-03
6.276330e-04
9.006790e-03
1.151180e-02
2.128350e-02
2.458590e-02
3.115590e-03
1.858610e-03
-1.937840e-03
-1.486530e-03
1.804560e-02
2.128350e-02
6.075590e-03
8.399700e-03
1.858610e-03
6.276330e-04
-1.486530e-03
-1.010080e-03
2.128350e-02
2.458590e-02
8.399700e-03
1.075900e-02
-1.937840e-03
-1.486530e-03
-5.767620e-03
-2.092440e-03
6.075590e-03
8.399700e-03
6.092680e-03
-5.586010e-03
-1.486530e-03
-1.010080e-03
-2.092440e-03
1.636930e-03
8.399700e-03
1.075900e-02
-5.586010e-03
-1.730920e-02
-5.767620e-03
-2.092440e-03
-4.967410e-03
1.805430e-04
6.092680e-03
-5.586010e-03
-6.156110e-04
-1.043820e-02
-2.092440e-03
1.636930e-03
1.805430e-04
5.456840e-03
-5.586010e-03
-1.730920e-02
-1.043820e-02
-2.009850e-02
-4.967410e-03
1.805430e-04
-4.192440e-03
9.852760e-04
-6.156110e-04
-1.043820e-02
-1.390740e-02
-1.861840e-02
1.805430e-04
5.456840e-03
9.852760e-04
6.293720e-03
-1.043820e-02
-2.009850e-02
-1.861840e-02
-2.314490e-02
-4.192440e-03
9.852760e-04
-2.403580e-03
2.019440e-03
-1.390740e-02
-1.861840e-02
-2.986330e-02
-2.499870e-02
9.852760e-04
6.293720e-03
2.019440e-03
6.519010e-03
-1.861840e-02
-2.314490e-02
-2.499870e-02
-2.007870e-02
</DataArray>
<DataArray type="Float32" Name="V2" format="ascii">
0.000000e+00
0.000000e+00
-2.300880e-02
-3.285240e-02
0.000000e+00
0.000000e+00
1.011510e-02
9.206890e-03
0.000000e+00
0.000000e+00
-3.285240e-02
-2.518870e-02
0.000000e+00
0.000000e+00
9.206890e-03
7.615860e-03
-2.300880e-02
-3.285240e-02
-4.292160e-02
-3.973740e-02
1.011510e-02
9.206890e-03
2.350040e-02
2.265660e-02
-3.285240e-02
-2.518870e-02
-3.973740e-02
-4.381590e-02
9.206890e-03
7.615860e-03
2.265660e-02
2.265910e-02
-4.292160e-02
-3.973740e-02
-1.294660e-02
2.909350e-03
2.350040e-02
2.265660e-02
1.985900e-02
1.904900e-02
-3.973740e-02
-4.381590e-02
2.909350e-03
-7.673320e-03
2.265660e-02
2.265910e-02
1.904900e-02
2.083000e-02
-1.294660e-02
2.909350e-03
3.725270e-02
5.109200e-02
1.985900e-02
1.904900e-02
-4.563740e-03
-5.981340e-03
2.909350e-03
-7.673320e-03
5.109200e-02
4.695630e-02
1.904900e-02
2.083000e-02
-5.981340e-03
-5.592200e-03
3.725270e-02
5.109200e-02
6.209050e-02
5.857070e-02
-4.563740e-03
-5.981340e-03
-2.180740e-02
-2.281020e-02
5.109200e-02
4.695630e-02
5.857070e-02
6.141570e-02
-5.981340e-03
-5.592200e-03
-2.281020e-02
-2.357020e-02
6.209050e-02
5.857070e-02
2.152680e-02
5.365570e-03
-2.180740e-02
-2.281020e-02
-8.431210e-03
-7.288250e-03
5.857070e-02
6.141570e-02
5.365570e-03
9.937550e-03
-2.281020e-02
-2.357020e-02
-7.288250e-03
-9.494840e-03
2.152680e-02
5.365570e-03
-3.525760e-02
-3.603240e-02
-8.431210e-03
-7.288250e-03
1.561650e-02
1.630640e-02
5.365570e-03
9.937550e-03
-3.603240e-02
-4.030440e-02
-7.288250e-03
-9.494840e-03
1.630640e-02
1.521920e-02
-3.525760e-02
-3.603240e-02
-3.557870e-02
-2.789440e-02
1.561650e-02
1.630640e-02
2.961940e-02
2.860810e-02
-3.603240e-02
-4.030440e-02
-2.789440e-02
-3.297870e-02
1.630640e-02
1.521920e-02
2.860810e-02
2.913570e-02
-3.557870e-02
-2.789440e-02
-9.787510e-04
6.664350e-03
2.961940e-02
2.860810e-02
1.197800e-02
1.042500e-02
-2.789440e-02
-3.297870e-02
6.664350e-03
-2.132960e-03
2.860810e-02
2.913570e-02
1.042500e-02
1.051680e-02
-9.787510e-04
6.664350e-03
5.249730e-02
5.448230e-02
1.197800e-02
1.042500e-02
-2.508090e-02
-2.627080e-02
6.664350e-03
-2.132960e-03
5.448230e-02
4.561240e-02
1.042500e-02
1.051680e-02
-2.627080e-02
-2.530270e-02
5.249730e-02
5.448230e-02
4.956240e-02
3.887060e-02
-2.508090e-02
-2.627080e-02
-3.603820e-02
-3.584210e-02
5.448230e-02
4.561240e-02
3.887060e-02
4.170070e-02
-2.627080e-02
-2.530270e-02
-3.584210e-02
-3.475990e-02
4.956240e-02
3.887060e-02
-2.085920e-02
-3.215180e-02
-3.603820e-02
-3.584210e-02
-1.216530e-02
-1.256970e-02
3.887060e-02
4.170070e-02
-3.215180e-02
-2.813290e-02
-3.584210e-02
-3.475990e-02
-1.256970e-02
-1.342880e-02
-2.085920e-02
-3.215180e-02
-6.595680e-02
-7.291490e-02
-1.216530e-02
-1.256970e-02
2.317200e-02
2.222970e-02
-3.215180e-02
-2.813290e-02
-7.291490e-02
-7.939940e-02
-1.256970e-02
-1.342880e-02
2.222970e-02
2.108730e-02
-6.595680e-02
-7.291490e-02
-6.281680e-02
-6.951420e-02
2.317200e-02
2.222970e-02
3.140220e-02
3.280970e-02
-7.291490e-02
-7.939940e-02
-6.951420e-02
-9.059910e-02
2.222970e-02
2.108730e-02
3.280970e-02
3.391790e-02
-6.281680e-02
-6.951420e-02
-3.532090e-03
-1.021050e-02
3.140220e-02
3.280970e-02
1.851620e-03
4.173140e-03
-6.951420e-02
-9.059910e-02
-1.021050e-02
-3.273950e-02
3.280970e-02
3.391790e-02
4.173140e-03
7.692940e-03
-3.532090e-03
-1.021050e-02
7.361790e-02
6.507120e-02
1.851620e-03
4.173140e-03
-3.037650e-02
-2.993190e-02
-1.021050e-02
-3.273950e-02
6.507120e-02
5.686010e-02
4.173140e-03
7.692940e-03
-2.993190e-02
-3.060650e-02
7.361790e-02
6.507120e-02
6.632520e-02
5.836850e-02
-3.037650e-02
-2.993190e-02
-3.471340e-02
-3.449600e-02
6.507120e-02
5.686010e-02
5.836850e-02
6.299540e-02
-2.993190e-02
-3.060650e-02
-3.449600e-02
-3.699630e-02
6.632520e-02
5.836850e-02
-2.037280e-02
-2.653340e-02
-3.471340e-02
-3.449600e-02
-4.522710e-03
-5.400920e-03
5.836850e-02
6.299540e-02
-2.653340e-02
-1.980540e-02
-3.449600e-02
-3.699630e-02
-5.400920e-03
-6.651750e-03
-2.037280e-02
-2.653340e-02
-4.853330e-02
-5.473440e-02
-4.522710e-03
-5.400920e-03
2.522320e-02
2.249460e-02
-2.653340e-02
-1.980540e-02
-5.473440e-02
-5.296280e-02
-5.400920e-03
-6.651750e-03
2.249460e-02
2.014350e-02
-4.853330e-02
-5.473440e-02
-2.459530e-02
-2.379660e-02
2.522320e-02
2.249460e-02
2.542650e-02
2.328390e-02
-5.473440e-02
-5.296280e-02
-2.379660e-02
-1.840640e-02
2.249460e-02
2.014350e-02
2.328390e-02
2.073170e-02
-2.459530e-02
-2.379660e-02
-7.531520e-03
-1.128370e-03
2.542650e-02
2.328390e-02
6.980350e-03
5.912850e-03
-2.379660e-02
-1.840640e-02
-1.128370e-03
5.529890e-03
2.328390e-02
2.073170e-02
5.912850e-03
4.761530e-03
-7.531520e-03
-1.128370e-03
4.382140e-02
3.553350e-02
6.980350e-03
5.912850e-03
-1.445940e-02
-1.361240e-02
-1.128370e-03
5.529890e-03
3.553350e-02
2.797360e-02
5.912850e-03
4.761530e-03
-1.361240e-02
-1.093220e-02
4.382140e-02
3.553350e-02
2.804280e-02
2.266650e-02
-1.445940e-02
-1.361240e-02
-1.142620e-02
-1.092940e-02
3.553350e-02
2.797360e-02
2.266650e-02
1.243850e-02
-1.361240e-02
-1.093220e-02
-1.092940e-02
-8.636670e-03
2.804280e-02
2.266650e-02
-2.765660e-02
-1.692990e-02
-1.142620e-02
-1.092940e-02
6.725990e-03
6.794260e-03
2.266650e-02
1.243850e-02
-1.692990e-02
-2.048410e-02
-1.092940e-02
-8.636670e-03
6.794260e-03
8.399330e-03
-2.765660e-02
-1.692990e-02
-8.351180e-03
-7.117520e-03
6.725990e-03
6.794260e-03
1.195950e-02
1.223780e-02
-1.692990e-02
-2.048410e-02
-7.117520e-03
-8.927090e-03
6.794260e-03
8.399330e-03
1.223780e-02
1.354280e-02
-8.351180e-03
-7.117520e-03
9.178240e-03
9.147990e-03
1.195950e-02
1.223780e-02
6.561170e-03
5.809930e-03
-7.117520e-03
-8.927090e-03
9.147990e-03
1.108850e-02
1.223780e-02
1.354280e-02
5.809930e-03
3.734480e-03
9.178240e-03
9.147990e-03
-6.074070e-03
3.981730e-03
6.561170e-03
5.809930e-03
3.155640e-03
2.325540e-03
9.147990e-03
1.108850e-02
3.981730e-03
1.434640e-02
5.809930e-03
3.734480e-03
2.325540e-03
4.629710e-04
-6.074070e-03
3.981730e-03
6.843860e-03
1.110900e-02
3.155640e-03
2.325540e-03
7.871130e-05
7.524430e-04
3.981730e-03
1.434640e-02
1.110900e-02
2.071170e-02
2.325540e-03
4.629710e-04
7.524430e-04
3.228130e-04
6.843860e-03
1.110900e-02
2.926480e-02
2.820070e-02
7.871130e-05
7.524430e-04
-7.975140e-04
-8.922440e-04
1.110900e-02
2.071170e-02
2.820070e-02
3.433490e-02
7.524430e-04
3.228130e-04
-8.922440e-04
-1.375300e-03
2.926480e-02
2.820070e-02
3.057010e-02
2.974110e-02
-7.975140e-04
-8.922440e-04
6.059990e-04
-5.985500e-04
2.820070e-02
3.433490e-02
2.974110e-02
3.748070e-02
-8.922440e-04
-1.375300e-03
-5.985500e-04
-4.620050e-04
0.000000e+00
0.000000e+00
1.011510e-02
9.206890e-03
0.000000e+00
0.000000e+00
2.024390e-03
1.382310e-02
0.000000e+00
0.000000e+00
9.206890e-03
7.615860e-03
0.000000e+00
0.000000e+00
1.382310e-02
9.106120e-03
1.011510e-02
9.206890e-03
2.350040e-02
2.265660e-02
2.024390e-03
1.382310e-02
-3.377020e-03
-4.020750e-03
9.206890e-03
7.615860e-03
2.265660e-02
2.265910e-02
1.382310e-02
9.106120e-03
-4.020750e-03
4.438830e-04
2.350040e-02
2.265660e-02
1.985900e-02
1.904900e-02
-3.377020e-03