<?xml version="1.0"?>
<VTKFile type="UnstructuredGrid" version="0.1" byte_order="LittleEndian" compressor="vtkZLibDataCompressor">
<UnstructuredGrid>
<Piece NumberOfPoints="960" NumberOfCells="120">
<Points>
<DataArray type="Float32" NumberOfComponents="3" format="ascii">
-4.000000e+02 -6.000000e+03 -4.000000e+02
0.000000e+00 -6.000000e+03 -4.000000e+02
-3.999770e+02 -5.600520e+03 -4.003570e+02
3.932870e-02 -5.600530e+03 -4.003240e+02
-4.000000e+02 -6.000000e+03 0.000000e+00
0.000000e+00 -6.000000e+03 0.000000e+00
-4.000030e+02 -5.600020e+03 -4.190440e-01
-2.331740e-03 -5.600020e+03 -3.886080e-01
0.000000e+00 -6.000000e+03 -4.000000e+02
4.000000e+02 -6.000000e+03 -4.000000e+02
3.932870e-02 -5.600530e+03 -4.003240e+02
4.000560e+02 -5.600550e+03 -4.002640e+02
0.000000e+00 -6.000000e+03 0.000000e+00
4.000000e+02 -6.000000e+03 0.000000e+00
-2.331740e-03 -5.600020e+03 -3.886080e-01
3.999980e+02 -5.600020e+03 -3.325880e-01
-3.999770e+02 -5.600520e+03 -4.003570e+02
3.932870e-02 -5.600530e+03 -4.003240e+02
-3.999910e+02 -5.201080e+03 -4.011610e+02
2.110160e-02 -5.201100e+03 -4.011520e+02
-4.000030e+02 -5.600020e+03 -4.190440e-01
-2.331740e-03 -5.600020e+03 -3.886080e-01
-4.000030e+02 -5.200000e+03 -1.264110e+00
-3.294650e-03 -5.200000e+03 -1.257570e+00
3.932870e-02 -5.600530e+03 -4.003240e+02
4.000560e+02 -5.600550e+03 -4.002640e+02
2.110160e-02 -5.201100e+03 -4.011520e+02
4.000330e+02 -5.201110e+03 -4.011180e+02
-2.331740e-03 -5.600020e+03 -3.886080e-01
3.999980e+02 -5.600020e+03 -3.325880e-01
-3.294650e-03 -5.200000e+03 -1.257570e+00
3.999960e+02 -5.200000e+03 -1.231700e+00
-3.999910e+02 -5.201080e+03 -4.011610e+02
2.110160e-02 -5.201100e+03 -4.011520e+02
-4.000370e+02 -4.801690e+03 -4.024840e+02
-4.066330e-02 -4.801690e+03 -4.025370e+02
-4.000030e+02 -5.200000e+03 -1.264110e+00
-3.294650e-03 -5.200000e+03 -1.257570e+00
-3.999980e+02 -4.799970e+03 -2.571020e+00
6.891960e-05 -4.799980e+03 -2.621610e+00
2.110160e-02 -5.201100e+03 -4.011520e+02
4.000330e+02 -5.201110e+03 -4.011180e+02
-4.066330e-02 -4.801690e+03 -4.025370e+02
3.999560e+02 -4.801690e+03 -4.025850e+02
-3.294650e-03 -5.200000e+03 -1.257570e+00
3.999960e+02 -5.200000e+03 -1.231700e+00
6.891960e-05 -4.799980e+03 -2.621610e+00
3.999980e+02 -4.799980e+03 -2.674000e+00
-4.000370e+02 -4.801690e+03 -4.024840e+02
-4.066330e-02 -4.801690e+03 -4.025370e+02
-4.000670e+02 -4.402300e+03 -4.044200e+02
-8.835080e-02 -4.402280e+03 -4.044970e+02
-3.999980e+02 -4.799970e+03 -2.571020e+00
6.891960e-05 -4.799980e+03 -2.621610e+00
-3.999980e+02 -4.399970e+03 -4.433000e+00
2.146600e-03 -4.399970e+03 -4.505530e+00
-4.066330e-02 -4.801690e+03 -4.025370e+02
3.999560e+02 -4.801690e+03 -4.025850e+02
-8.835080e-02 -4.402280e+03 -4.044970e+02
3.998900e+02 -4.402260e+03 -4.046000e+02
6.891960e-05 -4.799980e+03 -2.621610e+00
3.999980e+02 -4.799980e+03 -2.674000e+00
2.146600e-03 -4.399970e+03 -4.505530e+00
4.000020e+02 -4.399970e+03 -4.610660e+00
-4.000670e+02 -4.402300e+03 -4.044200e+02
-8.835080e-02 -4.402280e+03 -4.044970e+02
-4.000680e+02 -4.002800e+03 -4.070140e+02
-8.105690e-02 -4.002770e+03 -4.070830e+02
-3.999980e+02 -4.399970e+03 -4.433000e+00
2.146600e-03 -4.399970e+03 -4.505530e+00
-3.999970e+02 -3.999990e+03 -6.953610e+00
2.162010e-03 -3.999990e+03 -7.020360e+00
-8.835080e-02 -4.402280e+03 -4.044970e+02
3.998900e+02 -4.402260e+03 -4.046000e+02
-8.105690e-02 -4.002770e+03 -4.070830e+02
3.999060e+02 -4.002760e+03 -4.071660e+02
2.146600e-03 -4.399970e+03 -4.505530e+00
4.000020e+02 -4.399970e+03 -4.610660e+00
2.162010e-03 -3.999990e+03 -7.020360e+00
4.000020e+02 -3.999990e+03 -7.106130e+00
-4.000680e+02 -4.002800e+03 -4.070140e+02
-8.105690e-02 -4.002770e+03 -4.070830e+02
-4.000310e+02 -3.603140e+03 -4.100300e+02
-3.043790e-02 -3.603120e+03 -4.100730e+02
-3.999970e+02 -3.999990e+03 -6.953610e+00
2.162010e-03 -3.999990e+03 -7.020360e+00
-3.999990e+02 -3.600030e+03 -9.937540e+00
3.850480e-04 -3.600030e+03 -9.980820e+00
-8.105690e-02 -4.002770e+03 -4.070830e+02
3.999060e+02 -4.002760e+03 -4.071660e+02
-3.043790e-02 -3.603120e+03 -4.100730e+02
3.999710e+02 -3.603100e+03 -4.101040e+02
2.162010e-03 -3.999990e+03 -7.020360e+00
4.000020e+02 -3.999990e+03 -7.106130e+00
3.850480e-04 -3.600030e+03 -9.980820e+00
4.000000e+02 -3.600030e+03 -1.001610e+01
-4.000310e+02 -3.603140e+03 -4.100300e+02
-3.043790e-02 -3.603120e+03 -4.100730e+02
-4.000060e+02 -3.203490e+03 -4.132510e+02
-6.719250e-04 -3.203470e+03 -4.132630e+02
-3.999990e+02 -3.600030e+03 -9.937540e+00
3.850480e-04 -3.600030e+03 -9.980820e+00
-3.999990e+02 -3.200080e+03 -1.321400e+01
-7.433150e-04 -3.200070e+03 -1.322310e+01
-3.043790e-02 -3.603120e+03 -4.100730e+02
3.999710e+02 -3.603100e+03 -4.101040e+02
-6.719250e-04 -3.203470e+03 -4.132630e+02
4.000040e+02 -3.203460e+03 -4.132490e+02
3.850480e-04 -3.600030e+03 -9.980820e+00
4.000000e+02 -3.600030e+03 -1.001610e+01
-7.433150e-04 -3.200070e+03 -1.322310e+01
3.999970e+02 -3.200070e+03 -1.321530e+01
-4.000060e+02 -3.203490e+03 -4.132510e+02
-6.719250e-04 -3.203470e+03 -4.132630e+02
-3.999900e+02 -2.803950e+03 -4.168980e+02
1.522630e-02 -2.803950e+03 -4.168740e+02
-3.999990e+02 -3.200080e+03 -1.321400e+01
-7.433150e-04 -3.200070e+03 -1.322310e+01
-3.999970e+02 -2.800080e+03 -1.695110e+01
-1.518630e-03 -2.800080e+03 -1.692400e+01
-6.719250e-04 -3.203470e+03 -4.132630e+02
4.000040e+02 -3.203460e+03 -4.132490e+02
1.522630e-02 -2.803950e+03 -4.168740e+02
4.000200e+02 -2.803960e+03 -4.168250e+02
-7.433150e-04 -3.200070e+03 -1.322310e+01
3.999970e+02 -3.200070e+03 -1.321530e+01
-1.518630e-03 -2.800080e+03 -1.692400e+01
3.999940e+02 -2.800080e+03 -1.689120e+01
-3.999900e+02 -2.803950e+03 -4.168980e+02
1.522630e-02 -2.803950e+03 -4.168740e+02
-3.999180e+02 -2.404430e+03 -4.211300e+02
7.056280e-02 -2.404440e+03 -4.210460e+02
-3.999970e+02 -2.800080e+03 -1.695110e+01
-1.518630e-03 -2.800080e+03 -1.692400e+01
-3.999970e+02 -2.400070e+03 -2.120430e+01
-9.137110e-04 -2.400070e+03 -2.111460e+01
1.522630e-02 -2.803950e+03 -4.168740e+02
4.000200e+02 -2.803960e+03 -4.168250e+02
7.056280e-02 -2.404440e+03 -4.210460e+02
4.000590e+02 -2.404460e+03 -4.209770e+02
-1.518630e-03 -2.800080e+03 -1.692400e+01
3.999940e+02 -2.800080e+03 -1.689120e+01
-9.137110e-04 -2.400070e+03 -2.111460e+01
3.999950e+02 -2.400070e+03 -2.106050e+01
-3.999180e+02 -2.404430e+03 -4.211300e+02
7.056280e-02 -2.404440e+03 -4.210460e+02
-3.998270e+02 -2.004870e+03 -4.258110e+02
1.576360e-01 -2.004870e+03 -4.256460e+02
-3.999970e+02 -2.400070e+03 -2.120430e+01
-9.137110e-04 -2.400070e+03 -2.111460e+01
-3.999980e+02 -2.000080e+03 -2.583650e+01
-1.151790e-03 -2.000080e+03 -2.566870e+01
7.056280e-02 -2.404440e+03 -4.210460e+02
4.000590e+02 -2.404460e+03 -4.209770e+02
1.576360e-01 -2.004870e+03 -4.256460e+02
4.001430e+02 -2.004870e+03 -4.255110e+02
-9.137110e-04 -2.400070e+03 -2.111460e+01
3.999950e+02 -2.400070e+03 -2.106050e+01
-1.151790e-03 -2.000080e+03 -2.566870e+01
3.999960e+02 -2.000080e+03 -2.554250e+01
-3.998270e+02 -2.004870e+03 -4.258110e+02
1.576360e-01 -2.004870e+03 -4.256460e+02
-3.997690e+02 -1.605220e+03 -4.308770e+02
2.185350e-01 -1.605210e+03 -4.306450e+02
-3.999980e+02 -2.000080e+03 -2.583650e+01
-1.151790e-03 -2.000080e+03 -2.566870e+01
-3.999980e+02 -1.600120e+03 -3.083510e+01
5.882320e-04 -1.600120e+03 -3.060450e+01
1.576360e-01 -2.004870e+03 -4.256460e+02
4.001430e+02 -2.004870e+03 -4.255110e+02
2.185350e-01 -1.605210e+03 -4.306450e+02
4.002060e+02 -1.605210e+03 -4.304380e+02
-1.151790e-03 -2.000080e+03 -2.566870e+01
3.999960e+02 -2.000080e+03 -2.554250e+01
5.882320e-04 -1.600120e+03 -3.060450e+01
3.999990e+02 -1.600120e+03 -3.040480e+01
-3.997690e+02 -1.605220e+03 -4.308770e+02
2.185350e-01 -1.605210e+03 -4.306450e+02
-3.997970e+02 -1.205440e+03 -4.360920e+02
2.048360e-01 -1.205440e+03 -4.358920e+02
-3.999980e+02 -1.600120e+03 -3.083510e+01
5.882320e-04 -1.600120e+03 -3.060450e+01
-4.000000e+02 -1.200170e+03 -3.602950e+01
-1.870500e-03 -1.200170e+03 -3.583580e+01
2.185350e-01 -1.605210e+03 -4.306450e+02
4.002060e+02 -1.605210e+03 -4.304380e+02
2.048360e-01 -1.205440e+03 -4.358920e+02
4.002070e+02 -1.205440e+03 -4.356750e+02
5.882320e-04 -1.600120e+03 -3.060450e+01
3.999990e+02 -1.600120e+03 -3.040480e+01
-1.870500e-03 -1.200170e+03 -3.583580e+01
3.999960e+02 -1.200170e+03 -3.563430e+01
-3.997970e+02 -1.205440e+03 -4.360920e+02
2.048360e-01 -1.205440e+03 -4.358920e+02
-3.998970e+02 -8.056690e+02 -4.413200e+02
1.129730e-01 -8.056660e+02 -4.412330e+02
-4.000000e+02 -1.200170e+03 -3.602950e+01
-1.870500e-03 -1.200170e+03 -3.583580e+01
-4.000020e+02 -8.002180e+02 -4.127860e+01
-3.662110e-03 -8.002180e+02 -4.120140e+01
2.048360e-01 -1.205440e+03 -4.358920e+02
4.002070e+02 -1.205440e+03 -4.356750e+02
1.129730e-01 -8.056660e+02 -4.412330e+02
4.001230e+02 -8.056670e+02 -4.411130e+02
-1.870500e-03 -1.200170e+03 -3.583580e+01
3.999960e+02 -1.200170e+03 -3.563430e+01
-3.662110e-03 -8.002180e+02 -4.120140e+01
3.999940e+02 -8.002170e+02 -4.110210e+01
-3.998970e+02 -8.056690e+02 -4.413200e+02
1.129730e-01 -8.056660e+02 -4.412330e+02
-3.999980e+02 -4.059860e+02 -4.468050e+02
2.163160e-03 -4.059660e+02 -4.468150e+02
-4.000020e+02 -8.002180e+02 -4.127860e+01
-3.662110e-03 -8.002180e+02 -4.120140e+01
-4.000010e+02 -4.002650e+02 -4.681650e+01
-2.942870e-03 -4.002640e+02 -4.683520e+01
1.129730e-01 -8.056660e+02 -4.412330e+02
4.001230e+02 -8.056670e+02 -4.411130e+02
2.163160e-03 -4.059660e+02 -4.468150e+02
4.000020e+02 -4.059490e+02 -4.468130e+02
-3.662110e-03 -8.002180e+02 -4.120140e+01
3.999940e+02 -8.002170e+02 -4.110210e+01
-2.942870e-03 -4.002640e+02 -4.683520e+01
3.999950e+02 -4.002640e+02 -4.685360e+01
-3.999980e+02 -4.059860e+02 -4.468050e+02
2.163160e-03 -4.059660e+02 -4.468150e+02
-4.000380e+02 -6.267770e+00 -4.525980e+02
-5.315970e-02 -6.243740e+00 -4.526400e+02
-4.000010e+02 -4.002650e+02 -4.681650e+01
-2.942870e-03 -4.002640e+02 -4.683520e+01
-3.999980e+02 -2.952140e-01 -5.266730e+01
-1.953440e-03 -2.953900e-01 -5.271100e+01
2.163160e-03 -4.059660e+02 -4.468150e+02
4.000020e+02 -4.059490e+02 -4.468130e+02
[...]
<PointData>
<DataArray type="Float32" Name="V1" format="ascii">
0.000000e+00
0.000000e+00
-1.147530e-04
-1.248210e-02
0.000000e+00
0.000000e+00
5.547390e-05
1.693160e-03
0.000000e+00
0.000000e+00
-1.248210e-02
-2.500660e-02
0.000000e+00
0.000000e+00
1.693160e-03
2.742790e-03
-1.147530e-04
-1.248210e-02
3.777940e-03
-1.382750e-02
5.547390e-05
1.693160e-03
-2.224900e-03
4.286100e-04
-1.248210e-02
-2.500660e-02
-1.382750e-02
-3.152480e-02
1.693160e-03
2.742790e-03
4.286100e-04
2.652580e-03
3.777940e-03
-1.382750e-02
3.433730e-03
-6.751140e-03
-2.224900e-03
4.286100e-04
-5.827800e-03
-1.800760e-04
-1.382750e-02
-3.152480e-02
-6.751140e-03
-1.723240e-02
4.286100e-04
2.652580e-03
-1.800760e-04
5.237080e-03
3.433730e-03
-6.751140e-03
-2.197340e-03
4.699560e-03
-5.827800e-03
-1.800760e-04
-9.131510e-03
-4.200970e-03
-6.751140e-03
-1.723240e-02
4.699560e-03
1.103800e-02
-1.800760e-04
5.237080e-03
-4.200970e-03
3.718010e-04
-2.197340e-03
4.699560e-03
1.946900e-03
1.397210e-02
-9.131510e-03
-4.200970e-03
-1.275060e-02
-8.000020e-03
4.699560e-03
1.103800e-02
1.397210e-02
2.542910e-02
-4.200970e-03
3.718010e-04
-8.000020e-03
-3.580120e-03
1.946900e-03
1.397210e-02
2.530990e-02
2.677120e-02
-1.275060e-02
-8.000020e-03
-1.189580e-02
-9.403090e-03
1.397210e-02
2.542910e-02
2.677120e-02
2.812740e-02
-8.000020e-03
-3.580120e-03
-9.403090e-03
-7.121170e-03
2.530990e-02
2.677120e-02
5.917460e-02
4.010080e-02
-1.189580e-02
-9.403090e-03
-8.560930e-04
-1.407280e-03
2.677120e-02
2.812740e-02
4.010080e-02
2.070560e-02
-9.403090e-03
-7.121170e-03
-1.407280e-03
-2.270520e-03
5.917460e-02
4.010080e-02
6.932620e-02
4.704400e-02
-8.560930e-04
-1.407280e-03
1.565790e-03
-1.243790e-03
4.010080e-02
2.070560e-02
4.704400e-02
2.455080e-02
-1.407280e-03
-2.270520e-03
-1.243790e-03
-4.272060e-03
6.932620e-02
4.704400e-02
3.692520e-02
3.325250e-02
1.565790e-03
-1.243790e-03
6.472600e-03
-1.498460e-03
4.704400e-02
2.455080e-02
3.325250e-02
2.959280e-02
-1.243790e-03
-4.272060e-03
-1.498460e-03
-9.662340e-03
3.692520e-02
3.325250e-02
-9.810900e-03
7.294280e-03
6.472600e-03
-1.498460e-03
1.188620e-02
3.645460e-03
3.325250e-02
2.959280e-02
7.294280e-03
2.394130e-02
-1.498460e-03
-9.662340e-03
3.645460e-03
-5.158020e-03
-9.810900e-03
7.294280e-03
-3.784280e-02
-9.011590e-03
1.188620e-02
3.645460e-03
6.414940e-03
-7.157690e-04
7.294280e-03
2.394130e-02
-9.011590e-03
1.921330e-02
3.645460e-03
-5.158020e-03
-7.157690e-04
-8.173130e-03
-3.784280e-02
-9.011590e-03
-3.107640e-02
-8.409130e-03
6.414940e-03
-7.157690e-04
6.794360e-03
-1.429390e-03
-9.011590e-03
1.921330e-02
-8.409130e-03
1.402590e-02
-7.157690e-04
-8.173130e-03
-1.429390e-03
-9.766870e-03
-3.107640e-02
-8.409130e-03
-6.097120e-03
-1.584090e-03
6.794360e-03
-1.429390e-03
5.929840e-03
4.524310e-04
-8.409130e-03
1.402590e-02
-1.584090e-03
2.275410e-03
-1.429390e-03
-9.766870e-03
4.524310e-04
-5.491750e-03
-6.097120e-03
-1.584090e-03
-5.001060e-03
-1.663070e-02
5.929840e-03
4.524310e-04
7.516250e-03
2.331840e-03
-1.584090e-03
2.275410e-03
-1.663070e-02
-2.868400e-02
4.524310e-04
-5.491750e-03
2.331840e-03
-3.584290e-03
-5.001060e-03
-1.663070e-02
-3.814840e-02
-4.032460e-02
7.516250e-03
2.331840e-03
3.581540e-03
-2.017460e-03
-1.663070e-02
-2.868400e-02
-4.032460e-02
-4.256900e-02
2.331840e-03
-3.584290e-03
-2.017460e-03
-8.081960e-03
-3.814840e-02
-4.032460e-02
-4.550750e-02
-3.783060e-02
3.581540e-03
-2.017460e-03
-6.884880e-04
-1.797640e-03
-4.032460e-02
-4.256900e-02
-3.783060e-02
-3.025120e-02
-2.017460e-03
-8.081960e-03
-1.797640e-03
-2.868630e-03
-4.550750e-02
-3.783060e-02
-3.124050e-02
-1.338140e-02
-6.884880e-04
-1.797640e-03
1.675020e-03
3.477920e-03
-3.783060e-02
-3.025120e-02
-1.338140e-02
4.497680e-03
-1.797640e-03
-2.868630e-03
3.477920e-03
5.412700e-03
-3.124050e-02
-1.338140e-02
-1.949070e-02
-6.545500e-03
1.675020e-03
3.477920e-03
2.646620e-03
4.938660e-03
-1.338140e-02
4.497680e-03
-6.545500e-03
6.481930e-03
3.477920e-03
5.412700e-03
4.938660e-03
7.458460e-03
-1.949070e-02
-6.545500e-03
-1.270500e-02
-7.377370e-03
2.646620e-03
4.938660e-03
-1.154700e-03
3.407010e-03
-6.545500e-03
6.481930e-03
-7.377370e-03
-2.262160e-03
4.938660e-03
7.458460e-03
3.407010e-03
7.915650e-03
-1.270500e-02
-7.377370e-03
-6.024250e-03
-8.303980e-03
-1.154700e-03
3.407010e-03
-1.224790e-03
3.962470e-03
-7.377370e-03
-2.262160e-03
-8.303980e-03
-1.067310e-02
3.407010e-03
7.915650e-03
3.962470e-03
8.941980e-03
-6.024250e-03
-8.303980e-03
-2.944410e-03
-1.467460e-02
-1.224790e-03
3.962470e-03
-6.992170e-03
1.551150e-04
-8.303980e-03
-1.067310e-02
-1.467460e-02
-2.617670e-02
3.962470e-03
8.941980e-03
1.551150e-04
7.471260e-03
-2.944410e-03
-1.467460e-02
-1.033600e-02
-1.284090e-02
-6.992170e-03
1.551150e-04
-6.017240e-03
7.492050e-04
-1.467460e-02
-2.617670e-02
-1.284090e-02
-1.525480e-02
1.551150e-04
7.471260e-03
7.492050e-04
7.664330e-03
-1.033600e-02
-1.284090e-02
-1.163750e-02
3.950360e-03
-6.017240e-03
7.492050e-04
5.577320e-03
5.544280e-03
-1.284090e-02
-1.525480e-02
3.950360e-03
1.937790e-02
7.492050e-04
7.664330e-03
5.544280e-03
5.244840e-03
-1.163750e-02
3.950360e-03
-5.656520e-03
1.939150e-02
5.577320e-03
5.544280e-03
1.564060e-02
9.698170e-03
3.950360e-03
1.937790e-02
1.939150e-02
4.429500e-02
5.544280e-03
5.244840e-03
9.698170e-03
3.702840e-03
-5.656520e-03
1.939150e-02
1.822080e-02
2.574530e-02
1.564060e-02
9.698170e-03
1.040510e-02
4.445060e-03
1.939150e-02
4.429500e-02
2.574530e-02
3.334620e-02
9.698170e-03
3.702840e-03
4.445060e-03
-1.230070e-03
1.822080e-02
2.574530e-02
3.250380e-02
1.941770e-02
1.040510e-02
4.445060e-03
-2.266800e-03
-7.310390e-04
2.574530e-02
3.334620e-02
1.941770e-02
6.272890e-03
4.445060e-03
-1.230070e-03
-7.310390e-04
8.284160e-04
3.250380e-02
1.941770e-02
2.848100e-02
5.739260e-03
-2.266800e-03
-7.310390e-04
-1.118170e-02
-1.618690e-03
1.941770e-02
6.272890e-03
5.739260e-03
-1.695540e-02
-7.310390e-04
8.284160e-04
-1.618690e-03
7.942910e-03
2.848100e-02
5.739260e-03
2.393130e-03
-7.060720e-03
-1.118170e-02
-1.618690e-03
-1.049710e-02
-8.715600e-04
5.739260e-03
-1.695540e-02
-7.060720e-03
-1.625170e-02
-1.618690e-03
7.942910e-03
-8.715600e-04
8.893540e-03
2.393130e-03
-7.060720e-03
-1.058890e-02
-3.472250e-04
-1.049710e-02
-8.715600e-04
-7.535550e-03
-3.257740e-03
-7.060720e-03
-1.625170e-02
-3.472250e-04
1.025350e-02
-8.715600e-04
8.893540e-03
-3.257740e-03
1.508990e-03
-1.058890e-02
-3.472250e-04
-1.662110e-02
6.736260e-03
-7.535550e-03
-3.257740e-03
-8.617390e-03
-6.457160e-03
-3.472250e-04
1.025350e-02
6.736260e-03
3.052630e-02
-3.257740e-03
1.508990e-03
-6.457160e-03
-3.534180e-03
0.000000e+00
0.000000e+00
5.547390e-05
1.693160e-03
0.000000e+00
0.000000e+00
-1.340870e-03
9.300100e-03
0.000000e+00
0.000000e+00
1.693160e-03
2.742790e-03
0.000000e+00
0.000000e+00
9.300100e-03
1.925200e-02
5.547390e-05
1.693160e-03
-2.224900e-03
4.286100e-04
-1.340870e-03
9.300100e-03
1.622350e-03
1.302640e-02
1.693160e-03
2.742790e-03
4.286100e-04
2.652580e-03
9.300100e-03
1.925200e-02
1.302640e-02
2.405180e-02
-2.224900e-03
4.286100e-04
-5.827800e-03
-1.800760e-04
1.622350e-03
1.302640e-02
5.007250e-03
6.005810e-03
4.286100e-04
2.652580e-03
-1.800760e-04
5.237080e-03
1.302640e-02
2.405180e-02
6.005810e-03
6.759640e-03
-5.827800e-03
-1.800760e-04
-9.131510e-03
-4.200970e-03
5.007250e-03
6.005810e-03
2.118500e-02
5.518290e-03
-1.800760e-04
5.237080e-03
-4.200970e-03
3.718010e-04
6.005810e-03
6.759640e-03
5.518290e-03
-1.062580e-02
-9.131510e-03
-4.200970e-03
-1.275060e-02
-8.000020e-03
2.118500e-02
5.518290e-03
2.149840e-02
2.118150e-03
-4.200970e-03
3.718010e-04
-8.000020e-03
-3.580120e-03
5.518290e-03
-1.062580e-02
2.118150e-03
-1.776660e-02
-1.275060e-02
-8.000020e-03
-1.189580e-02
-9.403090e-03
2.149840e-02
2.118150e-03
-4.535380e-03
-9.478200e-03
-8.000020e-03
-3.580120e-03
-9.403090e-03
-7.121170e-03
2.118150e-03
-1.776660e-02
-9.478200e-03
-1.471080e-02
-1.189580e-02
-9.403090e-03
-8.560930e-04
-1.407280e-03
-4.535380e-03
-9.478200e-03
-5.652340e-02
-3.562100e-02
-9.403090e-03
-7.121170e-03
-1.407280e-03
-2.270520e-03
-9.478200e-03
-1.471080e-02
-3.562100e-02
-1.466280e-02
-8.560930e-04
-1.407280e-03
1.565790e-03
-1.243790e-03
-5.652340e-02
-3.562100e-02
-7.212600e-02
-4.399590e-02
-1.407280e-03
-2.270520e-03
-1.243790e-03
-4.272060e-03
-3.562100e-02
-1.466280e-02
-4.399590e-02
-1.584840e-02
1.565790e-03
-1.243790e-03
6.472600e-03
-1.498460e-03
-7.212600e-02
-4.399590e-02
-5.006380e-02
-3.043920e-02
-1.243790e-03
-4.272060e-03
-1.498460e-03
-9.662340e-03
-4.399590e-02
-1.584840e-02
-3.043920e-02
-1.115030e-02
6.472600e-03
-1.498460e-03
1.188620e-02
3.645460e-03
-5.006380e-02
-3.043920e-02
-1.180680e-02
-9.762520e-03
-1.498460e-03
-9.662340e-03
3.645460e-03
-5.158020e-03
-3.043920e-02
-1.115030e-02
-9.762520e-03
-8.661240e-03
1.188620e-02
3.645460e-03
6.414940e-03
-7.157690e-04
-1.180680e-02
-9.762520e-03
1.966080e-02
6.821250e-03
3.645460e-03
-5.158020e-03
-7.157690e-04
-8.173130e-03
-9.762520e-03
-8.661240e-03
6.821250e-03
-6.368140e-03
6.414940e-03
-7.157690e-04
6.794360e-03
-1.429390e-03
1.966080e-02
6.821250e-03
1.622600e-02
1.047950e-02
-7.157690e-04
-8.173130e-03
-1.429390e-03
-9.766870e-03
6.821250e-03
-6.368140e-03
1.047950e-02
4.760330e-03
6.794360e-03
-1.429390e-03
5.929840e-03
4.524310e-04
1.622600e-02
1.047950e-02
-3.337290e-03
3.545100e-03
-1.429390e-03
-9.766870e-03
4.524310e-04
-5.491750e-03
1.047950e-02
4.760330e-03
3.545100e-03
1.033610e-02
5.929840e-03
4.524310e-04
7.516250e-03
2.331840e-03
-3.337290e-03
3.545100e-03
-1.179970e-02
1.191500e-02
4.524310e-04
-5.491750e-03
2.331840e-03
-3.584290e-03
3.545100e-03
1.033610e-02
1.191500e-02
3.482000e-02
7.516250e-03
2.331840e-03
3.581540e-03
-2.017460e-03
-1.179970e-02
1.191500e-02
2.992800e-02
4.469220e-02
2.331840e-03
-3.584290e-03
-2.017460e-03
-8.081960e-03
1.191500e-02
3.482000e-02
4.469220e-02
5.875100e-02
3.581540e-03
-2.017460e-03
-6.884880e-04
-1.797640e-03
2.992800e-02
4.469220e-02
4.734850e-02
4.205540e-02
-2.017460e-03
-8.081960e-03
-1.797640e-03
-2.868630e-03
4.469220e-02
5.875100e-02
4.205540e-02
3.682460e-02
-6.884880e-04
-1.797640e-03
1.675020e-03
3.477920e-03
4.734850e-02
4.205540e-02
2.740460e-02
5.302930e-03
-1.797640e-03
-2.868630e-03
3.477920e-03
5.412700e-03
4.205540e-02
3.682460e-02
5.302930e-03
-1.683190e-02
1.675020e-03
3.477920e-03
2.646620e-03
4.938660e-03
2.740460e-02
5.302930e-03
1.518750e-02
-2.926980e-03
3.477920e-03
5.412700e-03
4.938660e-03
7.458460e-03
5.302930e-03
-1.683190e-02
-2.926980e-03
-2.087930e-02
2.646620e-03
4.938660e-03
-1.154700e-03
3.407010e-03
1.518750e-02
-2.926980e-03
1.472850e-02
9.157390e-05
4.938660e-03
7.458460e-03
3.407010e-03
7.915650e-03
-2.926980e-03
-2.087930e-02
9.157390e-05
-1.449750e-02
-1.154700e-03
3.407010e-03
-1.224790e-03
3.962470e-03
1.472850e-02
9.157390e-05
8.272460e-03
1.421120e-03
3.407010e-03
7.915650e-03
3.962470e-03
8.941980e-03
9.157390e-05
-1.449750e-02
1.421120e-03
-5.502300e-03
-1.224790e-03
3.962470e-03
-6.992170e-03
1.551150e-04
8.272460e-03
1.421120e-03
1.645200e-02
1.322850e-02
3.962470e-03
8.941980e-03
1.551150e-04
7.471260e-03
1.421120e-03
-5.502300e-03
1.322850e-02
1.039430e-02
-6.992170e-03
1.551150e-04
-6.017240e-03
7.492050e-04
1.645200e-02
1.322850e-02
2.267830e-02
1.091380e-02
1.551150e-04
7.471260e-03
7.492050e-04
7.664330e-03
1.322850e-02
1.039430e-02
1.091380e-02
-6.952470e-04
-6.017240e-03
7.492050e-04
5.577320e-03
5.544280e-03
2.267830e-02
1.091380e-02
1.122180e-03
-1.465580e-02
7.492050e-04
7.664330e-03
5.544280e-03
5.244840e-03
1.091380e-02
-6.952470e-04
-1.465580e-02
-3.100740e-02
5.577320e-03
5.544280e-03
1.564060e-02
9.698170e-03
1.122180e-03
-1.465580e-02
-2.464300e-02
-3.828500e-02
5.544280e-03
5.244840e-03
9.698170e-03
3.702840e-03
-1.465580e-02
-3.100740e-02
-3.828500e-02
-5.231800e-02
1.564060e-02
9.698170e-03
1.040510e-02
4.445060e-03
-2.464300e-02
-3.828500e-02
-3.950630e-02
-3.465860e-02
9.698170e-03
3.702840e-03
4.445060e-03
-1.230070e-03
-3.828500e-02
-5.231800e-02
-3.465860e-02
-2.959600e-02
1.040510e-02
4.445060e-03
-2.266800e-03
-7.310390e-04
-3.950630e-02
-3.465860e-02
-2.743590e-02
-1.761970e-02
4.445060e-03
-1.230070e-03
-7.310390e-04
8.284160e-04
-3.465860e-02
-2.959600e-02
-1.761970e-02
-7.452210e-03
-2.266800e-03
-7.310390e-04
-1.118170e-02
-1.618690e-03
-2.743590e-02
-1.761970e-02
-6.331590e-03
-1.915930e-03
-7.310390e-04
8.284160e-04
-1.618690e-03
7.942910e-03
-1.761970e-02
-7.452210e-03
-1.915930e-03
2.754720e-03
-1.118170e-02
-1.618690e-03
-1.049710e-02
-8.715600e-04
-6.331590e-03
-1.915930e-03
1.873260e-02
6.768610e-03
-1.618690e-03
7.942910e-03
-8.715600e-04
8.893540e-03
-1.915930e-03
2.754720e-03
6.768610e-03
-5.002290e-03
-1.049710e-02
-8.715600e-04
-7.535550e-03
-3.257740e-03
1.873260e-02
6.768610e-03
3.045880e-02
1.024320e-02
-8.715600e-04
8.893540e-03
-3.257740e-03
1.508990e-03
6.768610e-03
-5.002290e-03
1.024320e-02
-9.657530e-03
-7.535550e-03
-3.257740e-03
-8.617390e-03
-6.457160e-03
3.045880e-02
1.024320e-02
2.774230e-02
-9.344930e-04
-3.257740e-03
1.508990e-03
-6.457160e-03
-3.534180e-03
1.024320e-02
-9.657530e-03
-9.344930e-04
-2.903390e-02
</DataArray>
<DataArray type="Float32" Name="V2" format="ascii">
0.000000e+00
0.000000e+00
3.051720e-02
3.563250e-02
0.000000e+00
0.000000e+00
-1.691720e-02
-1.778410e-02
0.000000e+00
0.000000e+00
3.563250e-02
4.755300e-02
0.000000e+00
0.000000e+00
-1.778410e-02
-1.770520e-02
3.051720e-02
3.563250e-02
2.118800e-03
6.253170e-03
-1.691720e-02
-1.778410e-02
-1.675030e-02
-1.362540e-02
3.563250e-02
4.755300e-02
6.253170e-03
1.330550e-03
-1.778410e-02
-1.770520e-02
-1.362540e-02
-1.120760e-02
2.118800e-03
6.253170e-03
-4.064100e-02
-2.654560e-02
-1.675030e-02
-1.362540e-02
6.072220e-03
1.106320e-02
6.253170e-03
1.330550e-03
-2.654560e-02
-2.584100e-02
-1.362540e-02
-1.120760e-02
1.106320e-02
1.469770e-02
-4.064100e-02
-2.654560e-02
-3.539840e-02
-2.745040e-03
6.072220e-03
1.106320e-02
2.354230e-02
2.368350e-02
-2.654560e-02
-2.584100e-02
-2.745040e-03
1.549310e-02
1.106320e-02
1.469770e-02
2.368350e-02
1.944370e-02
-3.539840e-02
-2.745040e-03
-5.073440e-02
-3.259360e-03
2.354230e-02
2.368350e-02
-8.417690e-04
2.526060e-03
-2.745040e-03
1.549310e-02
-3.259360e-03
2.994990e-02
2.368350e-02
1.944370e-02
2.526060e-03
3.200040e-03
-5.073440e-02
-3.259360e-03
-4.650150e-02
-2.184680e-02
-8.417690e-04
2.526060e-03
-1.245200e-02
-1.578730e-02
-3.259360e-03
2.994990e-02
-2.184680e-02
1.355130e-02
2.526060e-03
3.200040e-03
-1.578730e-02
-1.583580e-02
-4.650150e-02
-2.184680e-02
9.522830e-04
-4.284710e-03
-1.245200e-02
-1.578730e-02
-9.769920e-03
-1.146090e-02
-2.184680e-02
1.355130e-02
-4.284710e-03
1.529450e-02
-1.578730e-02
-1.583580e-02
-1.146090e-02
-1.415350e-02
9.522830e-04
-4.284710e-03
-6.657570e-03
-1.802880e-02
-9.769920e-03
-1.146090e-02
-6.587450e-03
-3.942770e-03
-4.284710e-03
1.529450e-02
-1.802880e-02
-1.591090e-02
-1.146090e-02
-1.415350e-02
-3.942770e-03
-1.541920e-03
-6.657570e-03
-1.802880e-02
-1.493430e-02
-3.490500e-02
-6.587450e-03
-3.942770e-03
5.759780e-03
4.760610e-03
-1.802880e-02
-1.591090e-02
-3.490500e-02
-5.540730e-02
-3.942770e-03
-1.541920e-03
4.760610e-03
5.618340e-03
-1.493430e-02
-3.490500e-02
1.557180e-02
-2.298500e-02
5.759780e-03
4.760610e-03
4.501080e-03
6.526650e-03
-3.490500e-02
-5.540730e-02
-2.298500e-02
-7.367210e-02
4.760610e-03
5.618340e-03
6.526650e-03
5.690790e-03
1.557180e-02
-2.298500e-02
5.511100e-02
2.075510e-02
4.501080e-03
6.526650e-03
-8.295220e-03
-1.323000e-02
-2.298500e-02
-7.367210e-02
2.075510e-02
-3.041910e-02
6.526650e-03
5.690790e-03
-1.323000e-02
-1.236210e-02
5.511100e-02
2.075510e-02
9.580460e-02
8.885000e-02
-8.295220e-03
-1.323000e-02
-1.693230e-02
-1.733520e-02
2.075510e-02
-3.041910e-02
8.885000e-02
7.527730e-02
-1.323000e-02
-1.236210e-02
-1.733520e-02
-1.306720e-02
9.580460e-02
8.885000e-02
5.363830e-02
6.673530e-02
-1.693230e-02
-1.733520e-02
7.197040e-03
7.851370e-03
8.885000e-02
7.527730e-02
6.673530e-02
9.335530e-02
-1.733520e-02
-1.306720e-02
7.851370e-03
6.862430e-03
5.363830e-02
6.673530e-02
-5.118410e-02
-1.204760e-02
7.197040e-03
7.851370e-03
1.728260e-02
1.557980e-02
6.673530e-02
9.335530e-02
-1.204760e-02
2.883310e-02
7.851370e-03
6.862430e-03
1.557980e-02
1.661620e-02
-5.118410e-02
-1.204760e-02
-5.980930e-02
-1.027290e-02
1.728260e-02
1.557980e-02
-3.795230e-03
-4.562840e-04
-1.204760e-02
2.883310e-02
-1.027290e-02
3.334120e-02
1.557980e-02
1.661620e-02
-4.562840e-04
4.941410e-04
-5.980930e-02
-1.027290e-02
-4.579870e-02
-1.859440e-02
-3.795230e-03
-4.562840e-04
2.883130e-03
-1.611070e-04
-1.027290e-02
3.334120e-02
-1.859440e-02
7.646090e-03
-4.562840e-04
4.941410e-04
-1.611070e-04
-7.518770e-03
-4.579870e-02
-1.859440e-02
-6.059560e-02
-4.490370e-02
2.883130e-03
-1.611070e-04
1.201720e-02
6.611420e-03
-1.859440e-02
7.646090e-03
-4.490370e-02
-2.936820e-02
-1.611070e-04
-7.518770e-03
6.611420e-03
2.881600e-03
-6.059560e-02
-4.490370e-02
6.252940e-03
1.269480e-02
1.201720e-02
6.611420e-03
4.536320e-03
5.787010e-03
-4.490370e-02
-2.936820e-02
1.269480e-02
2.120190e-02
6.611420e-03
2.881600e-03
5.787010e-03
4.393590e-03
6.252940e-03
1.269480e-02
1.820060e-02
2.888130e-02
4.536320e-03
5.787010e-03
2.285410e-02
2.271480e-02
1.269480e-02
2.120190e-02
2.888130e-02
2.671050e-02
5.787010e-03
4.393590e-03
2.271480e-02
2.547590e-02
1.820060e-02
2.888130e-02
-1.816250e-02
-1.283890e-02
2.285410e-02
2.271480e-02
3.147980e-02
2.756220e-02
2.888130e-02
2.671050e-02
-1.283890e-02
-1.075100e-02
2.271480e-02
2.547590e-02
2.756220e-02
2.592960e-02
-1.816250e-02
-1.283890e-02
-3.104330e-02
-2.305940e-02
3.147980e-02
2.756220e-02
-3.295910e-03
5.055540e-04
-1.283890e-02
-1.075100e-02
-2.305940e-02
-1.296020e-02
2.756220e-02
2.592960e-02
5.055540e-04
-1.940830e-03
-3.104330e-02
-2.305940e-02
-4.617000e-02
-3.255050e-02
-3.295910e-03
5.055540e-04
-2.453920e-02
-2.028580e-02
-2.305940e-02
-1.296020e-02
-3.255050e-02
-4.032910e-02
5.055540e-04
-1.940830e-03
-2.028580e-02
-1.477630e-02
-4.617000e-02
-3.255050e-02
-3.015810e-02
-2.586780e-02
-2.453920e-02
-2.028580e-02
-7.409360e-03
-1.075850e-02
-3.255050e-02
-4.032910e-02
-2.586780e-02
-2.357450e-02
-2.028580e-02
-1.477630e-02
-1.075850e-02
-1.360860e-02
-3.015810e-02
-2.586780e-02
1.156360e-02
1.158100e-03
-7.409360e-03
-1.075850e-02
5.883140e-03
8.641470e-03
-2.586780e-02
-2.357450e-02
1.158100e-03
2.338550e-02
-1.075850e-02
-1.360860e-02
8.641470e-03
6.155140e-03
1.156360e-02
1.158100e-03
1.152840e-02
-9.960630e-03
5.883140e-03
8.641470e-03
1.740170e-02
1.898710e-02
1.158100e-03
2.338550e-02
-9.960630e-03
-1.119870e-02
8.641470e-03
6.155140e-03
1.898710e-02
1.911430e-02
1.152840e-02
-9.960630e-03
1.844470e-03
-1.537160e-02
1.740170e-02
1.898710e-02
1.633570e-02
1.593960e-02
-9.960630e-03
-1.119870e-02
-1.537160e-02
-4.830540e-02
1.898710e-02
1.911430e-02
1.593960e-02
1.587030e-02
1.844470e-03
-1.537160e-02
6.040600e-03
8.916080e-03
1.633570e-02
1.593960e-02
9.382420e-04
1.603340e-03
-1.537160e-02
-4.830540e-02
8.916080e-03
-1.808740e-02
1.593960e-02
1.587030e-02
1.603340e-03
3.758940e-03
6.040600e-03
8.916080e-03
-3.667350e-02
-2.249870e-02
9.382420e-04
1.603340e-03
-8.786240e-03
-1.180240e-02
8.916080e-03
-1.808740e-02
-2.249870e-02
-3.378500e-02
1.603340e-03
3.758940e-03
-1.180240e-02
-8.867190e-03
-3.667350e-02
-2.249870e-02
-7.375870e-02
-6.698910e-02
-8.786240e-03
-1.180240e-02
8.135910e-03
4.908470e-03
-2.249870e-02
-3.378500e-02
-6.698910e-02
-7.319040e-02
-1.180240e-02
-8.867190e-03
4.908470e-03
4.442400e-03
-7.375870e-02
-6.698910e-02
-6.544140e-02
-7.711560e-02
8.135910e-03
4.908470e-03
2.361770e-02
2.185560e-02
-6.698910e-02
-7.319040e-02
-7.711560e-02
-9.025220e-02
4.908470e-03
4.442400e-03
2.185560e-02
1.819590e-02
0.000000e+00
0.000000e+00
-1.691720e-02
-1.778410e-02
0.000000e+00
0.000000e+00
8.004790e-03
1.034380e-03
0.000000e+00
0.000000e+00
-1.778410e-02
-1.770520e-02
0.000000e+00
0.000000e+00
1.034380e-03
-1.423620e-02
-1.691720e-02
-1.778410e-02
-1.675030e-02
-1.362540e-02
8.004790e-03
1.034380e-03
3.480810e-02
2.213510e-02
-1.778410e-02
-1.770520e-02
-1.362540e-02
-1.120760e-02
1.034380e-03
-1.423620e-02
2.213510e-02