<?xml version="1.0"?>
<VTKFile type="UnstructuredGrid" version="0.1" byte_order="LittleEndian" compressor="vtkZLibDataCompressor">
<UnstructuredGrid>
<Piece NumberOfPoints="960" NumberOfCells="120">
<Points>
<DataArray type="Float32" NumberOfComponents="3" format="ascii">
-4.000000e+02 -6.000000e+03 -4.000000e+02
0.000000e+00 -6.000000e+03 -4.000000e+02
-4.000000e+02 -5.600070e+03 -4.000400e+02
-3.583420e-06 -5.600070e+03 -4.000410e+02
-4.000000e+02 -6.000000e+03 0.000000e+00
0.000000e+00 -6.000000e+03 0.000000e+00
-4.000000e+02 -5.600000e+03 -4.251280e-02
-3.220160e-07 -5.600000e+03 -4.270000e-02
0.000000e+00 -6.000000e+03 -4.000000e+02
4.000000e+02 -6.000000e+03 -4.000000e+02
-3.583420e-06 -5.600070e+03 -4.000410e+02
4.000000e+02 -5.600070e+03 -4.000400e+02
0.000000e+00 -6.000000e+03 0.000000e+00
4.000000e+02 -6.000000e+03 0.000000e+00
-3.220160e-07 -5.600000e+03 -4.270000e-02
4.000000e+02 -5.600000e+03 -4.252070e-02
-4.000000e+02 -5.600070e+03 -4.000400e+02
-3.583420e-06 -5.600070e+03 -4.000410e+02
-4.000000e+02 -5.200120e+03 -4.001510e+02
-8.716850e-06 -5.200120e+03 -4.001520e+02
-4.000000e+02 -5.600000e+03 -4.251280e-02
-3.220160e-07 -5.600000e+03 -4.270000e-02
-4.000000e+02 -5.200000e+03 -1.568030e-01
2.102530e-07 -5.200000e+03 -1.570630e-01
-3.583420e-06 -5.600070e+03 -4.000410e+02
4.000000e+02 -5.600070e+03 -4.000400e+02
-8.716850e-06 -5.200120e+03 -4.001520e+02
4.000000e+02 -5.200120e+03 -4.001510e+02
-3.220160e-07 -5.600000e+03 -4.270000e-02
4.000000e+02 -5.600000e+03 -4.252070e-02
2.102530e-07 -5.200000e+03 -1.570630e-01
4.000000e+02 -5.200000e+03 -1.568250e-01
-4.000000e+02 -5.200120e+03 -4.001510e+02
-8.716850e-06 -5.200120e+03 -4.001520e+02
-4.000000e+02 -4.800140e+03 -4.003060e+02
-1.258070e-05 -4.800140e+03 -4.003070e+02
-4.000000e+02 -5.200000e+03 -1.568030e-01
2.102530e-07 -5.200000e+03 -1.570630e-01
-4.000000e+02 -4.800000e+03 -3.138050e-01
1.226410e-08 -4.800000e+03 -3.139390e-01
-8.716850e-06 -5.200120e+03 -4.001520e+02
4.000000e+02 -5.200120e+03 -4.001510e+02
-1.258070e-05 -4.800140e+03 -4.003070e+02
4.000000e+02 -4.800140e+03 -4.003060e+02
2.102530e-07 -5.200000e+03 -1.570630e-01
4.000000e+02 -5.200000e+03 -1.568250e-01
1.226410e-08 -4.800000e+03 -3.139390e-01
4.000000e+02 -4.800000e+03 -3.138370e-01
-4.000000e+02 -4.800140e+03 -4.003060e+02
-1.258070e-05 -4.800140e+03 -4.003070e+02
-3.999990e+02 -4.400140e+03 -4.004530e+02
-8.244990e-06 -4.400140e+03 -4.004530e+02
-4.000000e+02 -4.800000e+03 -3.138050e-01
1.226410e-08 -4.800000e+03 -3.139390e-01
-4.000000e+02 -4.400000e+03 -4.589490e-01
-1.383010e-06 -4.400000e+03 -4.584610e-01
-1.258070e-05 -4.800140e+03 -4.003070e+02
4.000000e+02 -4.800140e+03 -4.003060e+02
-8.244990e-06 -4.400140e+03 -4.004530e+02
3.999990e+02 -4.400140e+03 -4.004530e+02
1.226410e-08 -4.800000e+03 -3.139390e-01
4.000000e+02 -4.800000e+03 -3.138370e-01
-1.383010e-06 -4.400000e+03 -4.584610e-01
4.000000e+02 -4.400000e+03 -4.589730e-01
-3.999990e+02 -4.400140e+03 -4.004530e+02
-8.244990e-06 -4.400140e+03 -4.004530e+02
-3.999990e+02 -4.000130e+03 -4.005760e+02
6.448520e-07 -4.000130e+03 -4.005760e+02
-4.000000e+02 -4.400000e+03 -4.589490e-01
-1.383010e-06 -4.400000e+03 -4.584610e-01
-4.000000e+02 -4.000000e+03 -5.775540e-01
-1.759040e-07 -4.000000e+03 -5.773290e-01
-8.244990e-06 -4.400140e+03 -4.004530e+02
3.999990e+02 -4.400140e+03 -4.004530e+02
6.448520e-07 -4.000130e+03 -4.005760e+02
3.999990e+02 -4.000130e+03 -4.005760e+02
-1.383010e-06 -4.400000e+03 -4.584610e-01
4.000000e+02 -4.400000e+03 -4.589730e-01
-1.759040e-07 -4.000000e+03 -5.773290e-01
4.000000e+02 -4.000000e+03 -5.775570e-01
-3.999990e+02 -4.000130e+03 -4.005760e+02
6.448520e-07 -4.000130e+03 -4.005760e+02
-3.999990e+02 -3.600140e+03 -4.007050e+02
6.711970e-06 -3.600140e+03 -4.007050e+02
-4.000000e+02 -4.000000e+03 -5.775540e-01
-1.759040e-07 -4.000000e+03 -5.773290e-01
-4.000000e+02 -3.600000e+03 -7.019160e-01
-5.870650e-07 -3.600000e+03 -7.017170e-01
6.448520e-07 -4.000130e+03 -4.005760e+02
3.999990e+02 -4.000130e+03 -4.005760e+02
6.711970e-06 -3.600140e+03 -4.007050e+02
4.000000e+02 -3.600140e+03 -4.007050e+02
-1.759040e-07 -4.000000e+03 -5.773290e-01
4.000000e+02 -4.000000e+03 -5.775570e-01
-5.870650e-07 -3.600000e+03 -7.017170e-01
4.000000e+02 -3.600000e+03 -7.019030e-01
-3.999990e+02 -3.600140e+03 -4.007050e+02
6.711970e-06 -3.600140e+03 -4.007050e+02
-4.000000e+02 -3.200140e+03 -4.008510e+02
4.149110e-06 -3.200140e+03 -4.008500e+02
-4.000000e+02 -3.600000e+03 -7.019160e-01
-5.870650e-07 -3.600000e+03 -7.017170e-01
-4.000000e+02 -3.200000e+03 -8.494200e-01
4.329310e-07 -3.200000e+03 -8.492370e-01
6.711970e-06 -3.600140e+03 -4.007050e+02
4.000000e+02 -3.600140e+03 -4.007050e+02
4.149110e-06 -3.200140e+03 -4.008500e+02
4.000000e+02 -3.200140e+03 -4.008510e+02
-5.870650e-07 -3.600000e+03 -7.017170e-01
4.000000e+02 -3.600000e+03 -7.019030e-01
4.329310e-07 -3.200000e+03 -8.492370e-01
4.000000e+02 -3.200000e+03 -8.494140e-01
-4.000000e+02 -3.200140e+03 -4.008510e+02
4.149110e-06 -3.200140e+03 -4.008500e+02
-4.000000e+02 -2.800130e+03 -4.009960e+02
2.686400e-07 -2.800130e+03 -4.009950e+02
-4.000000e+02 -3.200000e+03 -8.494200e-01
4.329310e-07 -3.200000e+03 -8.492370e-01
-4.000000e+02 -2.800000e+03 -9.999680e-01
1.449360e-06 -2.800000e+03 -1.000010e+00
4.149110e-06 -3.200140e+03 -4.008500e+02
4.000000e+02 -3.200140e+03 -4.008510e+02
2.686400e-07 -2.800130e+03 -4.009950e+02
4.000000e+02 -2.800130e+03 -4.009960e+02
4.329310e-07 -3.200000e+03 -8.492370e-01
4.000000e+02 -3.200000e+03 -8.494140e-01
1.449360e-06 -2.800000e+03 -1.000010e+00
4.000000e+02 -2.800000e+03 -9.999710e-01
-4.000000e+02 -2.800130e+03 -4.009960e+02
2.686400e-07 -2.800130e+03 -4.009950e+02
-4.000000e+02 -2.400130e+03 -4.011270e+02
3.532470e-06 -2.400130e+03 -4.011260e+02
-4.000000e+02 -2.800000e+03 -9.999680e-01
1.449360e-06 -2.800000e+03 -1.000010e+00
-4.000000e+02 -2.400000e+03 -1.131730e+00
1.182960e-06 -2.400000e+03 -1.131260e+00
2.686400e-07 -2.800130e+03 -4.009950e+02
4.000000e+02 -2.800130e+03 -4.009960e+02
3.532470e-06 -2.400130e+03 -4.011260e+02
4.000000e+02 -2.400130e+03 -4.011270e+02
1.449360e-06 -2.800000e+03 -1.000010e+00
4.000000e+02 -2.800000e+03 -9.999710e-01
1.182960e-06 -2.400000e+03 -1.131260e+00
4.000000e+02 -2.400000e+03 -1.131720e+00
-4.000000e+02 -2.400130e+03 -4.011270e+02
3.532470e-06 -2.400130e+03 -4.011260e+02
-4.000000e+02 -2.000130e+03 -4.012450e+02
1.107960e-05 -2.000130e+03 -4.012450e+02
-4.000000e+02 -2.400000e+03 -1.131730e+00
1.182960e-06 -2.400000e+03 -1.131260e+00
-4.000000e+02 -2.000000e+03 -1.245280e+00
2.390380e-07 -2.000000e+03 -1.244630e+00
3.532470e-06 -2.400130e+03 -4.011260e+02
4.000000e+02 -2.400130e+03 -4.011270e+02
1.107960e-05 -2.000130e+03 -4.012450e+02
4.000000e+02 -2.000130e+03 -4.012450e+02
1.182960e-06 -2.400000e+03 -1.131260e+00
4.000000e+02 -2.400000e+03 -1.131720e+00
2.390380e-07 -2.000000e+03 -1.244630e+00
4.000000e+02 -2.000000e+03 -1.245260e+00
-4.000000e+02 -2.000130e+03 -4.012450e+02
1.107960e-05 -2.000130e+03 -4.012450e+02
-4.000000e+02 -1.600140e+03 -4.013810e+02
1.560670e-05 -1.600140e+03 -4.013810e+02
-4.000000e+02 -2.000000e+03 -1.245280e+00
2.390380e-07 -2.000000e+03 -1.244630e+00
-4.000000e+02 -1.600000e+03 -1.377420e+00
1.232390e-06 -1.600000e+03 -1.376990e+00
1.107960e-05 -2.000130e+03 -4.012450e+02
4.000000e+02 -2.000130e+03 -4.012450e+02
1.560670e-05 -1.600140e+03 -4.013810e+02
4.000000e+02 -1.600140e+03 -4.013810e+02
2.390380e-07 -2.000000e+03 -1.244630e+00
4.000000e+02 -2.000000e+03 -1.245260e+00
1.232390e-06 -1.600000e+03 -1.376990e+00
4.000000e+02 -1.600000e+03 -1.377390e+00
-4.000000e+02 -1.600140e+03 -4.013810e+02
1.560670e-05 -1.600140e+03 -4.013810e+02
-4.000000e+02 -1.200140e+03 -4.015340e+02
2.022500e-05 -1.200140e+03 -4.015340e+02
-4.000000e+02 -1.600000e+03 -1.377420e+00
1.232390e-06 -1.600000e+03 -1.376990e+00
-4.000000e+02 -1.200000e+03 -1.530750e+00
-2.240210e-07 -1.200000e+03 -1.530600e+00
1.560670e-05 -1.600140e+03 -4.013810e+02
4.000000e+02 -1.600140e+03 -4.013810e+02
2.022500e-05 -1.200140e+03 -4.015340e+02
4.000000e+02 -1.200140e+03 -4.015340e+02
1.232390e-06 -1.600000e+03 -1.376990e+00
4.000000e+02 -1.600000e+03 -1.377390e+00
-2.240210e-07 -1.200000e+03 -1.530600e+00
4.000000e+02 -1.200000e+03 -1.530710e+00
-4.000000e+02 -1.200140e+03 -4.015340e+02
2.022500e-05 -1.200140e+03 -4.015340e+02
-4.000010e+02 -8.001320e+02 -4.016700e+02
2.276620e-05 -8.001320e+02 -4.016700e+02
-4.000000e+02 -1.200000e+03 -1.530750e+00
-2.240210e-07 -1.200000e+03 -1.530600e+00
-4.000000e+02 -8.000020e+02 -1.671820e+00
-2.486800e-06 -8.000020e+02 -1.672110e+00
2.022500e-05 -1.200140e+03 -4.015340e+02
4.000000e+02 -1.200140e+03 -4.015340e+02
2.276620e-05 -8.001320e+02 -4.016700e+02
4.000010e+02 -8.001320e+02 -4.016700e+02
-2.240210e-07 -1.200000e+03 -1.530600e+00
4.000000e+02 -1.200000e+03 -1.530710e+00
-2.486800e-06 -8.000020e+02 -1.672110e+00
4.000000e+02 -8.000020e+02 -1.671780e+00
-4.000010e+02 -8.001320e+02 -4.016700e+02
2.276620e-05 -8.001320e+02 -4.016700e+02
-4.000000e+02 -4.001310e+02 -4.017980e+02
1.993110e-05 -4.001310e+02 -4.017980e+02
-4.000000e+02 -8.000020e+02 -1.671820e+00
-2.486800e-06 -8.000020e+02 -1.672110e+00
-4.000000e+02 -4.000000e+02 -1.802960e+00
-6.983290e-07 -4.000000e+02 -1.803260e+00
2.276620e-05 -8.001320e+02 -4.016700e+02
4.000010e+02 -8.001320e+02 -4.016700e+02
1.993110e-05 -4.001310e+02 -4.017980e+02
4.000000e+02 -4.001310e+02 -4.017980e+02
-2.486800e-06 -8.000020e+02 -1.672110e+00
4.000000e+02 -8.000020e+02 -1.671780e+00
-6.983290e-07 -4.000000e+02 -1.803260e+00
4.000000e+02 -4.000000e+02 -1.802930e+00
-4.000000e+02 -4.001310e+02 -4.017980e+02
1.993110e-05 -4.001310e+02 -4.017980e+02
-4.000000e+02 -1.395230e-01 -4.019330e+02
9.549160e-06 -1.399480e-01 -4.019330e+02
-4.000000e+02 -4.000000e+02 -1.802960e+00
-6.983290e-07 -4.000000e+02 -1.803260e+00
-4.000000e+02 1.535440e-03 -1.934540e+00
-5.480450e-07 1.635900e-03 -1.934610e+00
1.993110e-05 -4.001310e+02 -4.017980e+02
4.000000e+02 -4.001310e+02 -4.017980e+02
[...]
<PointData>
<DataArray type="Float32" Name="V1" format="ascii">
0.000000e+00
0.000000e+00
-2.358720e-03
-4.655710e-06
0.000000e+00
0.000000e+00
5.480270e-04
-1.591370e-07
0.000000e+00
0.000000e+00
-4.655710e-06
2.349410e-03
0.000000e+00
0.000000e+00
-1.591370e-07
-5.483360e-04
-2.358720e-03
-4.655710e-06
-3.364480e-03
-2.679970e-06
5.480270e-04
-1.591370e-07
5.675010e-04
6.222060e-07
-4.655710e-06
2.349410e-03
-2.679970e-06
3.359130e-03
-1.591370e-07
-5.483360e-04
6.222060e-07
-5.662390e-04
-3.364480e-03
-2.679970e-06
-1.946690e-03
2.368440e-06
5.675010e-04
6.222060e-07
5.654790e-04
-7.367300e-07
-2.679970e-06
3.359130e-03
2.368440e-06
1.951450e-03
6.222060e-07
-5.662390e-04
-7.367300e-07
-5.669410e-04
-1.946690e-03
2.368440e-06
-8.644310e-04
-1.578280e-06
5.654790e-04
-7.367300e-07
6.051630e-04
1.770260e-06
2.368440e-06
1.951450e-03
-1.578280e-06
8.613040e-04
-7.367300e-07
-5.669410e-04
1.770260e-06
-6.016170e-04
-8.644310e-04
-1.578280e-06
7.323780e-04
1.145880e-06
6.051630e-04
1.770260e-06
2.440370e-04
-9.433560e-07
-1.578280e-06
8.613040e-04
1.145880e-06
-7.300590e-04
1.770260e-06
-6.016170e-04
-9.433560e-07
-2.459200e-04
7.323780e-04
1.145880e-06
3.493620e-04
3.677460e-06
2.440370e-04
-9.433560e-07
8.668530e-05
1.081680e-06
1.145880e-06
-7.300590e-04
3.677460e-06
-3.419860e-04
-9.433560e-07
-2.459200e-04
1.081680e-06
-8.451050e-05
3.493620e-04
3.677460e-06
-8.653270e-05
6.911190e-06
8.668530e-05
1.081680e-06
1.743470e-04
5.241100e-07
3.677460e-06
-3.419860e-04
6.911190e-06
1.003610e-04
1.081680e-06
-8.451050e-05
5.241100e-07
-1.732940e-04
-8.653270e-05
6.911190e-06
-1.571710e-04
4.414870e-06
1.743470e-04
5.241100e-07
1.374040e-04
3.021940e-07
6.911190e-06
1.003610e-04
4.414870e-06
1.659910e-04
5.241100e-07
-1.732940e-04
3.021940e-07
-1.368020e-04
-1.571710e-04
4.414870e-06
4.647860e-04
-2.738290e-06
1.374040e-04
3.021940e-07
1.931450e-05
2.903600e-08
4.414870e-06
1.659910e-04
-2.738290e-06
-4.702860e-04
3.021940e-07
-1.368020e-04
2.903600e-08
-1.926330e-05
4.647860e-04
-2.738290e-06
-3.397170e-05
-3.106850e-06
1.931450e-05
2.903600e-08
-6.212610e-05
-8.232690e-08
-2.738290e-06
-4.702860e-04
-3.106850e-06
2.772540e-05
2.903600e-08
-1.926330e-05
-8.232690e-08
6.194430e-05
-3.397170e-05
-3.106850e-06
-5.402490e-04
-8.569440e-07
-6.212610e-05
-8.232690e-08
-4.459890e-05
2.852780e-07
-3.106850e-06
2.772540e-05
-8.569440e-07
5.385030e-04
-8.232690e-08
6.194430e-05
2.852780e-07
4.514620e-05
-5.402490e-04
-8.569440e-07
-5.671560e-04
1.714460e-06
-4.459890e-05
2.852780e-07
-1.498380e-04
6.940000e-07
-8.569440e-07
5.385030e-04
1.714460e-06
5.705550e-04
2.852780e-07
4.514620e-05
6.940000e-07
1.512080e-04
-5.671560e-04
1.714460e-06
-1.111790e-04
8.433450e-06
-1.498380e-04
6.940000e-07
-4.684710e-04
-1.344350e-06
1.714460e-06
5.705550e-04
8.433450e-06
1.280350e-04
6.940000e-07
1.512080e-04
-1.344350e-06
4.657830e-04
-1.111790e-04
8.433450e-06
1.481610e-03
7.717590e-07
-4.684710e-04
-1.344350e-06
-6.692220e-04
-6.881010e-07
8.433450e-06
1.280350e-04
7.717590e-07
-1.480060e-03
-1.344350e-06
4.657830e-04
-6.881010e-07
6.678470e-04
1.481610e-03
7.717590e-07
1.799520e-03
-6.321710e-06
-6.692220e-04
-6.881010e-07
-3.806450e-04
-1.170180e-06
7.717590e-07
-1.480060e-03
-6.321710e-06
-1.812150e-03
-6.881010e-07
6.678470e-04
-1.170180e-06
3.783040e-04
1.799520e-03
-6.321710e-06
1.609050e-03
-5.077980e-06
-3.806450e-04
-1.170180e-06
8.535070e-05
-9.271330e-07
-6.321710e-06
-1.812150e-03
-5.077980e-06
-1.619190e-03
-1.170180e-06
3.783040e-04
-9.271330e-07
-8.719810e-05
1.609050e-03
-5.077980e-06
5.337600e-05
-1.087560e-06
8.535070e-05
-9.271330e-07
2.783100e-04
1.179650e-06
-5.077980e-06
-1.619190e-03
-1.087560e-06
-5.553960e-05
-9.271330e-07
-8.719810e-05
1.179650e-06
-2.759420e-04
5.337600e-05
-1.087560e-06
-1.082960e-03
-1.002340e-06
2.783100e-04
1.179650e-06
2.262090e-04
1.388720e-06
-1.087560e-06
-5.553960e-05
-1.002340e-06
1.080950e-03
1.179650e-06
-2.759420e-04
1.388720e-06
-2.234320e-04
-1.082960e-03
-1.002340e-06
-1.364190e-03
-4.499640e-06
2.262090e-04
1.388720e-06
2.955370e-04
-4.989410e-07
-1.002340e-06
1.080950e-03
-4.499640e-06
1.355170e-03
1.388720e-06
-2.234320e-04
-4.989410e-07
-2.965460e-04
-1.364190e-03
-4.499640e-06
-8.808480e-04
-8.796980e-06
2.955370e-04
-4.989410e-07
2.188750e-04
9.655660e-07
-4.499640e-06
1.355170e-03
-8.796980e-06
8.632460e-04
-4.989410e-07
-2.965460e-04
9.655660e-07
-2.169470e-04
-8.808480e-04
-8.796980e-06
1.088170e-04
-2.743110e-06
2.188750e-04
9.655660e-07
-1.752540e-04
5.292570e-07
-8.796980e-06
8.632460e-04
-2.743110e-06
-1.143030e-04
9.655660e-07
-2.169470e-04
5.292570e-07
1.763160e-04
1.088170e-04
-2.743110e-06
2.551080e-04
4.217760e-06
-1.752540e-04
5.292570e-07
-3.326730e-04
-1.392220e-08
-2.743110e-06
-1.143030e-04
4.217760e-06
-2.466720e-04
5.292570e-07
1.763160e-04
-1.392220e-08
3.326450e-04
2.551080e-04
4.217760e-06
-1.761650e-04
5.591440e-06
-3.326730e-04
-1.392220e-08
7.301340e-05
-9.391880e-08
4.217760e-06
-2.466720e-04
5.591440e-06
1.873610e-04
-1.392220e-08
3.326450e-04
-9.391880e-08
-7.320450e-05
-1.761650e-04
5.591440e-06
-9.981880e-04
6.072300e-06
7.301340e-05
-9.391880e-08
3.641690e-04
-1.109610e-06
5.591440e-06
1.873610e-04
6.072300e-06
1.010360e-03
-9.391880e-08
-7.320450e-05
-1.109610e-06
-3.663880e-04
-9.981880e-04
6.072300e-06
-3.893380e-04
7.492050e-06
3.641690e-04
-1.109610e-06
4.399780e-05
-4.574630e-07
6.072300e-06
1.010360e-03
7.492050e-06
4.043280e-04
-1.109610e-06
-3.663880e-04
-4.574630e-07
-4.492000e-05
-3.893380e-04
7.492050e-06
1.342270e-04
6.445030e-06
4.399780e-05
-4.574630e-07
-9.045850e-05
-1.080090e-06
7.492050e-06
4.043280e-04
6.445030e-06
-1.213430e-04
-4.574630e-07
-4.492000e-05
-1.080090e-06
8.829600e-05
1.342270e-04
6.445030e-06
8.651900e-04
-6.333790e-07
-9.045850e-05
-1.080090e-06
-4.502290e-05
1.319750e-06
6.445030e-06
-1.213430e-04
-6.333790e-07
-8.664530e-04
-1.080090e-06
8.829600e-05
1.319750e-06
4.767470e-05
8.651900e-04
-6.333790e-07
5.871860e-04
2.574660e-06
-4.502290e-05
1.319750e-06
-1.927160e-04
-5.671780e-07
-6.333790e-07
-8.664530e-04
2.574660e-06
-5.820360e-04
1.319750e-06
4.767470e-05
-5.671780e-07
1.915900e-04
5.871860e-04
2.574660e-06
1.907240e-04
3.815580e-06
-1.927160e-04
-5.671780e-07
-2.378360e-04
-7.032110e-07
2.574660e-06
-5.820360e-04
3.815580e-06
-1.830990e-04
-5.671780e-07
1.915900e-04
-7.032110e-07
2.364320e-04
1.907240e-04
3.815580e-06
3.296290e-04
7.432820e-07
-2.378360e-04
-7.032110e-07
-3.270610e-04
-5.689970e-07
3.815580e-06
-1.830990e-04
7.432820e-07
-3.281480e-04
-7.032110e-07
2.364320e-04
-5.689970e-07
3.259250e-04
0.000000e+00
0.000000e+00
5.480270e-04
-1.591370e-07
0.000000e+00
0.000000e+00
1.261580e-03
4.992330e-06
0.000000e+00
0.000000e+00
-1.591370e-07
-5.483360e-04
0.000000e+00
0.000000e+00
4.992330e-06
-1.251590e-03
5.480270e-04
-1.591370e-07
5.675010e-04
6.222060e-07
1.261580e-03
4.992330e-06
2.227920e-03
1.370790e-06
-1.591370e-07
-5.483360e-04
6.222060e-07
-5.662390e-04
4.992330e-06
-1.251590e-03
1.370790e-06
-2.225160e-03
5.675010e-04
6.222060e-07
5.654790e-04
-7.367300e-07
2.227920e-03
1.370790e-06
8.153880e-04
-8.785120e-07
6.222060e-07
-5.662390e-04
-7.367300e-07
-5.669410e-04
1.370790e-06
-2.225160e-03
-8.785120e-07
-8.171410e-04
5.654790e-04
-7.367300e-07
6.051630e-04
1.770260e-06
8.153880e-04
-8.785120e-07
-3.464360e-04
-2.005650e-06
-7.367300e-07
-5.669410e-04
1.770260e-06
-6.016170e-04
-8.785120e-07
-8.171410e-04
-2.005650e-06
3.424060e-04
6.051630e-04
1.770260e-06
2.440370e-04
-9.433560e-07
-3.464360e-04
-2.005650e-06
-1.218670e-03
7.201690e-07
1.770260e-06
-6.016170e-04
-9.433560e-07
-2.459200e-04
-2.005650e-06
3.424060e-04
7.201690e-07
1.220090e-03
2.440370e-04
-9.433560e-07
8.668530e-05
1.081680e-06
-1.218670e-03
7.201690e-07
-5.226730e-04
-5.751120e-06
-9.433560e-07
-2.459200e-04
1.081680e-06
-8.451050e-05
7.201690e-07
1.220090e-03
-5.751120e-06
5.111700e-04
8.668530e-05
1.081680e-06
1.743470e-04
5.241100e-07
-5.226730e-04
-5.751120e-06
-2.623570e-04
-7.889600e-06
1.081680e-06
-8.451050e-05
5.241100e-07
-1.732940e-04
-5.751120e-06
5.111700e-04
-7.889600e-06
2.465830e-04
1.743470e-04
5.241100e-07
1.374040e-04
3.021940e-07
-2.623570e-04
-7.889600e-06
-1.194830e-04
-5.027800e-06
5.241100e-07
-1.732940e-04
3.021940e-07
-1.368020e-04
-7.889600e-06
2.465830e-04
-5.027800e-06
1.094330e-04
1.374040e-04
3.021940e-07
1.931450e-05
2.903600e-08
-1.194830e-04
-5.027800e-06
-5.015020e-04
2.694060e-06
3.021940e-07
-1.368020e-04
2.903600e-08
-1.926330e-05
-5.027800e-06
1.094330e-04
2.694060e-06
5.069010e-04
1.931450e-05
2.903600e-08
-6.212610e-05
-8.232690e-08
-5.015020e-04
2.694060e-06
1.564630e-04
3.193210e-06
2.903600e-08
-1.926330e-05
-8.232690e-08
6.194430e-05
2.694060e-06
5.069010e-04
3.193210e-06
-1.500770e-04
-6.212610e-05
-8.232690e-08
-4.459890e-05
2.852780e-07
1.564630e-04
3.193210e-06
6.326900e-04
2.196030e-07
-8.232690e-08
6.194430e-05
2.852780e-07
4.514620e-05
3.193210e-06
-1.500770e-04
2.196030e-07
-6.322650e-04
-4.459890e-05
2.852780e-07
-1.498380e-04
6.940000e-07
6.326900e-04
2.196030e-07
8.643940e-04
-3.091240e-06
2.852780e-07
4.514620e-05
6.940000e-07
1.512080e-04
2.196030e-07
-6.322650e-04
-3.091240e-06
-8.705810e-04
-1.498380e-04
6.940000e-07
-4.684710e-04
-1.344350e-06
8.643940e-04
-3.091240e-06
1.047790e-03
-5.754510e-06
6.940000e-07
1.512080e-04
-1.344350e-06
4.657830e-04
-3.091240e-06
-8.705810e-04
-5.754510e-06
-1.059290e-03
-4.684710e-04
-1.344350e-06
-6.692220e-04
-6.881010e-07
1.047790e-03
-5.754510e-06
-1.434080e-04
6.270530e-07
-1.344350e-06
4.657830e-04
-6.881010e-07
6.678470e-04
-5.754510e-06
-1.059290e-03
6.270530e-07
1.446630e-04
-6.692220e-04
-6.881010e-07
-3.806450e-04
-1.170180e-06
-1.434080e-04
6.270530e-07
-1.035790e-03
8.797030e-06
-6.881010e-07
6.678470e-04
-1.170180e-06
3.783040e-04
6.270530e-07
1.446630e-04
8.797030e-06
1.053380e-03
-3.806450e-04
-1.170180e-06
8.535070e-05
-9.271330e-07
-1.035790e-03
8.797030e-06
-1.782020e-03
6.996220e-06
-1.170180e-06
3.783040e-04
-9.271330e-07
-8.719810e-05
8.797030e-06
1.053380e-03
6.996220e-06
1.796010e-03
8.535070e-05
-9.271330e-07
2.783100e-04
1.179650e-06
-1.782020e-03
6.996220e-06
-6.093320e-04
-1.332730e-06
-9.271330e-07
-8.719810e-05
1.179650e-06
-2.759420e-04
6.996220e-06
1.796010e-03
-1.332730e-06
6.066710e-04
2.783100e-04
1.179650e-06
2.262090e-04
1.388720e-06
-6.093320e-04
-1.332730e-06
6.302710e-04
-1.866180e-06
1.179650e-06
-2.759420e-04
1.388720e-06
-2.234320e-04
-1.332730e-06
6.066710e-04
-1.866180e-06
-6.339990e-04
2.262090e-04
1.388720e-06
2.955370e-04
-4.989410e-07
6.302710e-04
-1.866180e-06
7.733590e-04
5.354090e-06
1.388720e-06
-2.234320e-04
-4.989410e-07
-2.965460e-04
-1.866180e-06
-6.339990e-04
5.354090e-06
-7.626480e-04
2.955370e-04
-4.989410e-07
2.188750e-04
9.655660e-07
7.733590e-04
5.354090e-06
4.431240e-04
6.741340e-06
-4.989410e-07
-2.965460e-04
9.655660e-07
-2.169470e-04
5.354090e-06
-7.626480e-04
6.741340e-06
-4.296360e-04
2.188750e-04
9.655660e-07
-1.752540e-04
5.292570e-07
4.431240e-04
6.741340e-06
2.430880e-04
1.611050e-06
9.655660e-07
-2.169470e-04
5.292570e-07
1.763160e-04
6.741340e-06
-4.296360e-04
1.611050e-06
-2.398590e-04
-1.752540e-04
5.292570e-07
-3.326730e-04
-1.392220e-08
2.430880e-04
1.611050e-06
4.096420e-04
-4.151380e-06
5.292570e-07
1.763160e-04
-1.392220e-08
3.326450e-04
1.611050e-06
-2.398590e-04
-4.151380e-06
-4.179460e-04
-3.326730e-04
-1.392220e-08
7.301340e-05
-9.391880e-08
4.096420e-04
-4.151380e-06
2.957230e-05
-5.338280e-06
-1.392220e-08
3.326450e-04
-9.391880e-08
-7.320450e-05
-4.151380e-06
-4.179460e-04
-5.338280e-06
-4.026700e-05
7.301340e-05
-9.391880e-08
3.641690e-04
-1.109610e-06
2.957230e-05
-5.338280e-06
2.688920e-04
-3.689590e-06
-9.391880e-08
-7.320450e-05
-1.109610e-06
-3.663880e-04
-5.338280e-06
-4.026700e-05
-3.689590e-06
-2.762960e-04
3.641690e-04
-1.109610e-06
4.399780e-05
-4.574630e-07
2.688920e-04
-3.689590e-06
3.028200e-04
-6.399090e-06
-1.109610e-06
-3.663880e-04
-4.574630e-07
-4.492000e-05
-3.689590e-06
-2.762960e-04
-6.399090e-06
-3.156370e-04
4.399780e-05
-4.574630e-07
-9.045850e-05
-1.080090e-06
3.028200e-04
-6.399090e-06
4.667170e-05
-4.163380e-06
-4.574630e-07
-4.492000e-05
-1.080090e-06
8.829600e-05
-6.399090e-06
-3.156370e-04
-4.163380e-06
-5.499720e-05
-9.045850e-05
-1.080090e-06
-4.502290e-05
1.319750e-06
4.667170e-05
-4.163380e-06
-7.751430e-04
-2.074720e-06
-1.080090e-06
8.829600e-05
1.319750e-06
4.767470e-05
-4.163380e-06
-5.499720e-05
-2.074720e-06
7.710150e-04
-4.502290e-05
1.319750e-06
-1.927160e-04
-5.671780e-07
-7.751430e-04
-2.074720e-06
-2.033740e-04
-1.530160e-06
1.319750e-06
4.767470e-05
-5.671780e-07
1.915900e-04
-2.074720e-06
7.710150e-04
-1.530160e-06
2.003300e-04
-1.927160e-04
-5.671780e-07
-2.378360e-04
-7.032110e-07
-2.033740e-04
-1.530160e-06
2.875890e-04
-2.488060e-06
-5.671780e-07
1.915900e-04
-7.032110e-07
2.364320e-04
-1.530160e-06
2.003300e-04
-2.488060e-06
-2.925530e-04
-2.378360e-04
-7.032110e-07
-3.270610e-04
-5.689970e-07
2.875890e-04
-2.488060e-06
3.218170e-04
3.309100e-07
-7.032110e-07
2.364320e-04
-5.689970e-07
3.259250e-04
-2.488060e-06
-2.925530e-04
3.309100e-07
-3.211430e-04
</DataArray>
<DataArray type="Float32" Name="V2" format="ascii">
0.000000e+00
0.000000e+00
9.516300e-03
1.059900e-02
0.000000e+00
0.000000e+00
-5.736340e-03
-5.525300e-03
0.000000e+00
0.000000e+00
1.059900e-02
9.522220e-03
0.000000e+00
0.000000e+00
-5.525300e-03
-5.736570e-03
9.516300e-03
1.059900e-02
8.053730e-03
7.925580e-03
-5.736340e-03
-5.525300e-03
-1.074790e-03
-9.542540e-04
1.059900e-02
9.522220e-03
7.925580e-03
8.053810e-03
-5.525300e-03
-5.736570e-03
-9.542540e-04
-1.074690e-03
8.053730e-03
7.925580e-03
-4.372240e-03
-5.606780e-03
-1.074790e-03
-9.542540e-04
6.518300e-03
6.134020e-03
7.925580e-03
8.053810e-03
-5.606780e-03
-4.370710e-03
-9.542540e-04
-1.074690e-03
6.134020e-03
6.518080e-03
-4.372240e-03
-5.606780e-03
-1.155300e-02
-1.309890e-02
6.518300e-03
6.134020e-03
7.437290e-03
7.254530e-03
-5.606780e-03
-4.370710e-03
-1.309890e-02
-1.154670e-02
6.134020e-03
6.518080e-03
7.254530e-03
7.438880e-03
-1.155300e-02
-1.309890e-02
-6.475110e-03
-7.500410e-03
7.437290e-03
7.254530e-03
9.977970e-04
9.968170e-04
-1.309890e-02
-1.154670e-02
-7.500410e-03
-6.470400e-03
7.254530e-03
7.438880e-03
9.968170e-04
9.989850e-04
-6.475110e-03
-7.500410e-03
3.138310e-03
3.773930e-03
9.977970e-04
9.968170e-04
-4.506500e-03
-4.738220e-03
-7.500410e-03
-6.470400e-03
3.773930e-03
3.134550e-03
9.968170e-04
9.989850e-04
-4.738220e-03
-4.508550e-03
3.138310e-03
3.773930e-03
7.841750e-03
8.307300e-03
-4.506500e-03
-4.738220e-03
-2.671010e-03
-2.742880e-03
3.773930e-03
3.134550e-03
8.307300e-03
7.828990e-03
-4.738220e-03
-4.508550e-03
-2.742880e-03
-2.665350e-03
7.841750e-03
8.307300e-03
-3.460340e-05
-8.718910e-04
-2.671010e-03
-2.742880e-03
3.160610e-03
3.207130e-03
8.307300e-03
7.828990e-03
-8.718910e-04
-3.006490e-05
-2.742880e-03
-2.665350e-03
3.207130e-03
3.162960e-03
-3.460340e-05
-8.718910e-04
-9.811050e-03
-1.026360e-02
3.160610e-03
3.207130e-03
4.918330e-03
4.914650e-03
-8.718910e-04
-3.006490e-05
-1.026360e-02
-9.799740e-03
3.207130e-03
3.162960e-03
4.914650e-03
4.915750e-03
-9.811050e-03
-1.026360e-02
-8.584690e-03
-8.788180e-03
4.918330e-03
4.914650e-03
-6.497510e-05
8.888320e-06
-1.026360e-02
-9.799740e-03
-8.788180e-03
-8.584880e-03
4.914650e-03
4.915750e-03
8.888320e-06
-6.615150e-05
-8.584690e-03
-8.788180e-03
-9.242400e-04
-1.361470e-03
-6.497510e-05
8.888320e-06
-4.815380e-03
-4.633030e-03
-8.788180e-03
-8.584880e-03
-1.361470e-03
-9.251230e-04
8.888320e-06
-6.615150e-05
-4.633030e-03
-4.819560e-03
-9.242400e-04
-1.361470e-03
3.868070e-03
3.821230e-03
-4.815380e-03
-4.633030e-03
-2.892430e-03
-2.843680e-03
-1.361470e-03
-9.251230e-04
3.821230e-03
3.863870e-03
-4.633030e-03
-4.819560e-03
-2.843680e-03
-2.892030e-03
3.868070e-03
3.821230e-03
-1.899340e-03
-2.224180e-03
-2.892430e-03
-2.843680e-03
2.358750e-03
2.356720e-03
3.821230e-03
3.863870e-03
-2.224180e-03
-1.898250e-03
-2.843680e-03
-2.892030e-03
2.356720e-03
2.358990e-03
-1.899340e-03
-2.224180e-03
-6.596680e-03
-6.911890e-03
2.358750e-03
2.356720e-03
3.497990e-03
3.668600e-03
-2.224180e-03
-1.898250e-03
-6.911890e-03
-6.592700e-03
2.356720e-03
2.358990e-03
3.668600e-03
3.496700e-03
-6.596680e-03
-6.911890e-03
7.396530e-04
7.618570e-04
3.497990e-03
3.668600e-03
1.874710e-05
1.578210e-04
-6.911890e-03
-6.592700e-03
7.618570e-04
7.397510e-04
3.668600e-03
3.496700e-03
1.578210e-04
2.065090e-05
7.396530e-04
7.618570e-04
6.509460e-03
6.859840e-03
1.874710e-05
1.578210e-04
-2.432060e-03
-2.555200e-03
7.618570e-04
7.397510e-04
6.859840e-03
6.507660e-03
1.578210e-04
2.065090e-05
-2.555200e-03
-2.430090e-03
6.509460e-03
6.859840e-03
3.368770e-03
4.262930e-03
-2.432060e-03
-2.555200e-03
-2.091690e-03
-2.167470e-03
6.859840e-03
6.507660e-03
4.262930e-03
3.370230e-03
-2.555200e-03
-2.430090e-03
-2.167470e-03
-2.090790e-03
3.368770e-03
4.262930e-03
-3.482960e-03
-2.768940e-03
-2.091690e-03
-2.167470e-03
-4.800720e-04
-3.758320e-04
4.262930e-03
3.370230e-03
-2.768940e-03
-3.475730e-03
-2.167470e-03
-2.090790e-03
-3.758320e-04
-4.804500e-04
-3.482960e-03
-2.768940e-03
-4.930880e-03
-4.341110e-03
-4.800720e-04
-3.758320e-04
1.591120e-03
1.511760e-03
-2.768940e-03
-3.475730e-03
-4.341110e-03
-4.924690e-03
-3.758320e-04
-4.804500e-04
1.511760e-03
1.589040e-03
-4.930880e-03
-4.341110e-03
2.800570e-03
3.435750e-03
1.591120e-03
1.511760e-03
1.920490e-03
1.789610e-03
-4.341110e-03
-4.924690e-03
3.435750e-03
2.805800e-03
1.511760e-03
1.589040e-03
1.789610e-03
1.918050e-03
2.800570e-03
3.435750e-03
5.964930e-03
5.909120e-03
1.920490e-03
1.789610e-03
-6.383410e-04
-4.565930e-04
3.435750e-03
2.805800e-03
5.909120e-03
5.971160e-03
1.789610e-03
1.918050e-03
-4.565930e-04
-6.380360e-04
5.964930e-03
5.909120e-03
-1.145430e-03
-1.610220e-03
-6.383410e-04
-4.565930e-04
-3.674220e-03
-3.341510e-03
5.909120e-03
5.971160e-03
-1.610220e-03
-1.138660e-03
-4.565930e-04
-6.380360e-04
-3.341510e-03
-3.675940e-03
-1.145430e-03
-1.610220e-03
-4.834800e-03
-4.646470e-03
-3.674220e-03
-3.341510e-03
-2.626670e-03
-2.552070e-03
-1.610220e-03
-1.138660e-03
-4.646470e-03
-4.826770e-03
-3.341510e-03
-3.675940e-03
-2.552070e-03
-2.631020e-03
-4.834800e-03
-4.646470e-03
6.233290e-04
9.976670e-04
-2.626670e-03
-2.552070e-03
1.135030e-03
1.255020e-03
-4.646470e-03
-4.826770e-03
9.976670e-04
6.262370e-04
-2.552070e-03
-2.631020e-03
1.255020e-03
1.137620e-03
6.233290e-04
9.976670e-04
6.555160e-03
6.627400e-03
1.135030e-03
1.255020e-03
2.144480e-03
2.260450e-03
9.976670e-04
6.262370e-04
6.627400e-03
6.555020e-03
1.255020e-03
1.137620e-03
2.260450e-03
2.150880e-03
6.555160e-03
6.627400e-03
3.951950e-03
3.693910e-03
2.144480e-03
2.260450e-03
-5.311420e-04
-6.769210e-04
6.627400e-03
6.555020e-03
3.693910e-03
3.960850e-03
2.260450e-03
2.150880e-03
-6.769210e-04
-5.296600e-04
3.951950e-03
3.693910e-03
-4.273740e-03
-4.704380e-03
-5.311420e-04
-6.769210e-04
-2.863060e-03
-2.818830e-03
3.693910e-03
3.960850e-03
-4.704380e-03
-4.265980e-03
-6.769210e-04
-5.296600e-04
-2.818830e-03
-2.865030e-03
-4.273740e-03
-4.704380e-03
-2.586300e-03
-2.913260e-03
-2.863060e-03
-2.818830e-03
-1.461620e-03
-1.427030e-03
-4.704380e-03
-4.265980e-03
-2.913260e-03
-2.593690e-03
-2.818830e-03
-2.865030e-03
-1.427030e-03
-1.457670e-03
-2.586300e-03
-2.913260e-03
1.109720e-02
1.127910e-02
-1.461620e-03
-1.427030e-03
1.255700e-03
1.208610e-03
-2.913260e-03
-2.593690e-03
1.127910e-02
1.109270e-02
-1.427030e-03
-1.457670e-03
1.208610e-03
1.258370e-03
1.109720e-02
1.127910e-02
1.932300e-02
2.008580e-02
1.255700e-03
1.208610e-03
2.245070e-03
2.337620e-03
1.127910e-02
1.109270e-02
2.008580e-02
1.933030e-02
1.208610e-03
1.258370e-03
2.337620e-03
2.240440e-03
0.000000e+00
0.000000e+00
-5.736340e-03
-5.525300e-03
0.000000e+00
0.000000e+00
1.944040e-03
4.338650e-04
0.000000e+00
0.000000e+00
-5.525300e-03
-5.736570e-03
0.000000e+00
0.000000e+00
4.338650e-04
1.938470e-03
-5.736340e-03
-5.525300e-03
-1.074790e-03
-9.542540e-04
1.944040e-03
4.338650e-04
-5.926150e-03
-6.038190e-03
-5.525300e-03
-5.736570e-03
-9.542540e-04
-1.074690e-03
4.338650e-04
1.938470e-03