<?xml version="1.0"?>
<VTKFile type="UnstructuredGrid" version="0.1" byte_order="LittleEndian" compressor="vtkZLibDataCompressor">
<UnstructuredGrid>
<Piece NumberOfPoints="960" NumberOfCells="120">
<Points>
<DataArray type="Float32" NumberOfComponents="3" format="ascii">
-4.000000e+02 -6.000000e+03 -4.000000e+02
0.000000e+00 -6.000000e+03 -4.000000e+02
-4.000000e+02 -5.600050e+03 -4.000510e+02
-1.357580e-05 -5.600050e+03 -4.000510e+02
-4.000000e+02 -6.000000e+03 0.000000e+00
0.000000e+00 -6.000000e+03 0.000000e+00
-4.000000e+02 -5.600000e+03 -5.028790e-02
3.168690e-07 -5.600000e+03 -5.031010e-02
0.000000e+00 -6.000000e+03 -4.000000e+02
4.000000e+02 -6.000000e+03 -4.000000e+02
-1.357580e-05 -5.600050e+03 -4.000510e+02
4.000000e+02 -5.600050e+03 -4.000510e+02
0.000000e+00 -6.000000e+03 0.000000e+00
4.000000e+02 -6.000000e+03 0.000000e+00
3.168690e-07 -5.600000e+03 -5.031010e-02
4.000000e+02 -5.600000e+03 -5.031180e-02
-4.000000e+02 -5.600050e+03 -4.000510e+02
-1.357580e-05 -5.600050e+03 -4.000510e+02
-4.000000e+02 -5.200060e+03 -4.001250e+02
-1.730630e-05 -5.200060e+03 -4.001250e+02
-4.000000e+02 -5.600000e+03 -5.028790e-02
3.168690e-07 -5.600000e+03 -5.031010e-02
-4.000000e+02 -5.200000e+03 -1.225690e-01
-2.832160e-07 -5.200000e+03 -1.226760e-01
-1.357580e-05 -5.600050e+03 -4.000510e+02
4.000000e+02 -5.600050e+03 -4.000510e+02
-1.730630e-05 -5.200060e+03 -4.001250e+02
4.000000e+02 -5.200060e+03 -4.001250e+02
3.168690e-07 -5.600000e+03 -5.031010e-02
4.000000e+02 -5.600000e+03 -5.031180e-02
-2.832160e-07 -5.200000e+03 -1.226760e-01
4.000000e+02 -5.200000e+03 -1.226000e-01
-4.000000e+02 -5.200060e+03 -4.001250e+02
-1.730630e-05 -5.200060e+03 -4.001250e+02
-4.000000e+02 -4.800070e+03 -4.001920e+02
-1.124480e-05 -4.800070e+03 -4.001920e+02
-4.000000e+02 -5.200000e+03 -1.225690e-01
-2.832160e-07 -5.200000e+03 -1.226760e-01
-4.000000e+02 -4.800000e+03 -1.906720e-01
8.640270e-08 -4.800000e+03 -1.906440e-01
-1.730630e-05 -5.200060e+03 -4.001250e+02
4.000000e+02 -5.200060e+03 -4.001250e+02
-1.124480e-05 -4.800070e+03 -4.001920e+02
4.000000e+02 -4.800070e+03 -4.001920e+02
-2.832160e-07 -5.200000e+03 -1.226760e-01
4.000000e+02 -5.200000e+03 -1.226000e-01
8.640270e-08 -4.800000e+03 -1.906440e-01
4.000000e+02 -4.800000e+03 -1.906940e-01
-4.000000e+02 -4.800070e+03 -4.001920e+02
-1.124480e-05 -4.800070e+03 -4.001920e+02
-4.000000e+02 -4.400080e+03 -4.002600e+02
-1.418120e-06 -4.400080e+03 -4.002590e+02
-4.000000e+02 -4.800000e+03 -1.906720e-01
8.640270e-08 -4.800000e+03 -1.906440e-01
-4.000000e+02 -4.400000e+03 -2.602320e-01
3.541920e-07 -4.400000e+03 -2.601070e-01
-1.124480e-05 -4.800070e+03 -4.001920e+02
4.000000e+02 -4.800070e+03 -4.001920e+02
-1.418120e-06 -4.400080e+03 -4.002590e+02
4.000000e+02 -4.400080e+03 -4.002600e+02
8.640270e-08 -4.800000e+03 -1.906440e-01
4.000000e+02 -4.800000e+03 -1.906940e-01
3.541920e-07 -4.400000e+03 -2.601070e-01
4.000000e+02 -4.400000e+03 -2.602350e-01
-4.000000e+02 -4.400080e+03 -4.002600e+02
-1.418120e-06 -4.400080e+03 -4.002590e+02
-4.000000e+02 -4.000080e+03 -4.003420e+02
7.523470e-06 -4.000080e+03 -4.003420e+02
-4.000000e+02 -4.400000e+03 -2.602320e-01
3.541920e-07 -4.400000e+03 -2.601070e-01
-4.000000e+02 -4.000000e+03 -3.437130e-01
-7.453660e-07 -4.000000e+03 -3.436730e-01
-1.418120e-06 -4.400080e+03 -4.002590e+02
4.000000e+02 -4.400080e+03 -4.002600e+02
7.523470e-06 -4.000080e+03 -4.003420e+02
4.000000e+02 -4.000080e+03 -4.003420e+02
3.541920e-07 -4.400000e+03 -2.601070e-01
4.000000e+02 -4.400000e+03 -2.602350e-01
-7.453660e-07 -4.000000e+03 -3.436730e-01
4.000000e+02 -4.000000e+03 -3.436990e-01
-4.000000e+02 -4.000080e+03 -4.003420e+02
7.523470e-06 -4.000080e+03 -4.003420e+02
-4.000000e+02 -3.600080e+03 -4.004340e+02
1.084460e-05 -3.600080e+03 -4.004340e+02
-4.000000e+02 -4.000000e+03 -3.437130e-01
-7.453660e-07 -4.000000e+03 -3.436730e-01
-4.000000e+02 -3.600000e+03 -4.333980e-01
-7.663240e-08 -3.600000e+03 -4.334730e-01
7.523470e-06 -4.000080e+03 -4.003420e+02
4.000000e+02 -4.000080e+03 -4.003420e+02
1.084460e-05 -3.600080e+03 -4.004340e+02
4.000000e+02 -3.600080e+03 -4.004340e+02
-7.453660e-07 -4.000000e+03 -3.436730e-01
4.000000e+02 -4.000000e+03 -3.436990e-01
-7.663240e-08 -3.600000e+03 -4.334730e-01
4.000000e+02 -3.600000e+03 -4.333750e-01
-4.000000e+02 -3.600080e+03 -4.004340e+02
1.084460e-05 -3.600080e+03 -4.004340e+02
-4.000000e+02 -3.200070e+03 -4.005140e+02
1.102790e-05 -3.200070e+03 -4.005140e+02
-4.000000e+02 -3.600000e+03 -4.333980e-01
-7.663240e-08 -3.600000e+03 -4.334730e-01
-4.000000e+02 -3.200000e+03 -5.122130e-01
5.110490e-09 -3.200000e+03 -5.122320e-01
1.084460e-05 -3.600080e+03 -4.004340e+02
4.000000e+02 -3.600080e+03 -4.004340e+02
1.102790e-05 -3.200070e+03 -4.005140e+02
4.000000e+02 -3.200070e+03 -4.005140e+02
-7.663240e-08 -3.600000e+03 -4.334730e-01
4.000000e+02 -3.600000e+03 -4.333750e-01
5.110490e-09 -3.200000e+03 -5.122320e-01
4.000000e+02 -3.200000e+03 -5.121910e-01
-4.000000e+02 -3.200070e+03 -4.005140e+02
1.102790e-05 -3.200070e+03 -4.005140e+02
-4.000000e+02 -2.800070e+03 -4.005790e+02
9.521310e-06 -2.800070e+03 -4.005790e+02
-4.000000e+02 -3.200000e+03 -5.122130e-01
5.110490e-09 -3.200000e+03 -5.122320e-01
-4.000000e+02 -2.800000e+03 -5.793480e-01
-6.222620e-07 -2.800000e+03 -5.792520e-01
1.102790e-05 -3.200070e+03 -4.005140e+02
4.000000e+02 -3.200070e+03 -4.005140e+02
9.521310e-06 -2.800070e+03 -4.005790e+02
4.000000e+02 -2.800070e+03 -4.005790e+02
5.110490e-09 -3.200000e+03 -5.122320e-01
4.000000e+02 -3.200000e+03 -5.121910e-01
-6.222620e-07 -2.800000e+03 -5.792520e-01
4.000000e+02 -2.800000e+03 -5.793310e-01
-4.000000e+02 -2.800070e+03 -4.005790e+02
9.521310e-06 -2.800070e+03 -4.005790e+02
-4.000000e+02 -2.400080e+03 -4.006500e+02
6.109070e-06 -2.400080e+03 -4.006500e+02
-4.000000e+02 -2.800000e+03 -5.793480e-01
-6.222620e-07 -2.800000e+03 -5.792520e-01
-4.000000e+02 -2.400000e+03 -6.517960e-01
-7.817400e-07 -2.400000e+03 -6.517080e-01
9.521310e-06 -2.800070e+03 -4.005790e+02
4.000000e+02 -2.800070e+03 -4.005790e+02
6.109070e-06 -2.400080e+03 -4.006500e+02
4.000000e+02 -2.400080e+03 -4.006500e+02
-6.222620e-07 -2.800000e+03 -5.792520e-01
4.000000e+02 -2.800000e+03 -5.793310e-01
-7.817400e-07 -2.400000e+03 -6.517080e-01
4.000000e+02 -2.400000e+03 -6.517860e-01
-4.000000e+02 -2.400080e+03 -4.006500e+02
6.109070e-06 -2.400080e+03 -4.006500e+02
-4.000000e+02 -2.000080e+03 -4.007330e+02
-1.518380e-06 -2.000080e+03 -4.007330e+02
-4.000000e+02 -2.400000e+03 -6.517960e-01
-7.817400e-07 -2.400000e+03 -6.517080e-01
-4.000000e+02 -2.000000e+03 -7.329900e-01
2.644030e-07 -2.000000e+03 -7.329630e-01
6.109070e-06 -2.400080e+03 -4.006500e+02
4.000000e+02 -2.400080e+03 -4.006500e+02
-1.518380e-06 -2.000080e+03 -4.007330e+02
4.000000e+02 -2.000080e+03 -4.007330e+02
-7.817400e-07 -2.400000e+03 -6.517080e-01
4.000000e+02 -2.400000e+03 -6.517860e-01
2.644030e-07 -2.000000e+03 -7.329630e-01
4.000000e+02 -2.000000e+03 -7.329870e-01
-4.000000e+02 -2.000080e+03 -4.007330e+02
-1.518380e-06 -2.000080e+03 -4.007330e+02
-4.000000e+02 -1.600070e+03 -4.008060e+02
-6.436360e-06 -1.600070e+03 -4.008070e+02
-4.000000e+02 -2.000000e+03 -7.329900e-01
2.644030e-07 -2.000000e+03 -7.329630e-01
-4.000000e+02 -1.600000e+03 -8.052160e-01
-3.008230e-07 -1.600000e+03 -8.052680e-01
-1.518380e-06 -2.000080e+03 -4.007330e+02
4.000000e+02 -2.000080e+03 -4.007330e+02
-6.436360e-06 -1.600070e+03 -4.008070e+02
4.000000e+02 -1.600070e+03 -4.008060e+02
2.644030e-07 -2.000000e+03 -7.329630e-01
4.000000e+02 -2.000000e+03 -7.329870e-01
-3.008230e-07 -1.600000e+03 -8.052680e-01
4.000000e+02 -1.600000e+03 -8.052290e-01
-4.000000e+02 -1.600070e+03 -4.008060e+02
-6.436360e-06 -1.600070e+03 -4.008070e+02
-4.000000e+02 -1.200060e+03 -4.008640e+02
-1.184820e-05 -1.200060e+03 -4.008640e+02
-4.000000e+02 -1.600000e+03 -8.052160e-01
-3.008230e-07 -1.600000e+03 -8.052680e-01
-4.000000e+02 -1.200000e+03 -8.645170e-01
2.347090e-07 -1.200000e+03 -8.645030e-01
-6.436360e-06 -1.600070e+03 -4.008070e+02
4.000000e+02 -1.600070e+03 -4.008060e+02
-1.184820e-05 -1.200060e+03 -4.008640e+02
4.000000e+02 -1.200060e+03 -4.008640e+02
-3.008230e-07 -1.600000e+03 -8.052680e-01
4.000000e+02 -1.600000e+03 -8.052290e-01
2.347090e-07 -1.200000e+03 -8.645030e-01
4.000000e+02 -1.200000e+03 -8.645450e-01
-4.000000e+02 -1.200060e+03 -4.008640e+02
-1.184820e-05 -1.200060e+03 -4.008640e+02
-4.000000e+02 -8.000740e+02 -4.009310e+02
-1.626890e-05 -8.000740e+02 -4.009310e+02
-4.000000e+02 -1.200000e+03 -8.645170e-01
2.347090e-07 -1.200000e+03 -8.645030e-01
-4.000000e+02 -8.000000e+02 -9.313750e-01
3.207290e-07 -8.000000e+02 -9.313720e-01
-1.184820e-05 -1.200060e+03 -4.008640e+02
4.000000e+02 -1.200060e+03 -4.008640e+02
-1.626890e-05 -8.000740e+02 -4.009310e+02
4.000000e+02 -8.000740e+02 -4.009310e+02
2.347090e-07 -1.200000e+03 -8.645030e-01
4.000000e+02 -1.200000e+03 -8.645450e-01
3.207290e-07 -8.000000e+02 -9.313720e-01
4.000000e+02 -8.000000e+02 -9.314050e-01
-4.000000e+02 -8.000740e+02 -4.009310e+02
-1.626890e-05 -8.000740e+02 -4.009310e+02
-4.000000e+02 -4.000790e+02 -4.010150e+02
-1.284510e-05 -4.000790e+02 -4.010150e+02
-4.000000e+02 -8.000000e+02 -9.313750e-01
3.207290e-07 -8.000000e+02 -9.313720e-01
-4.000000e+02 -4.000000e+02 -1.013600e+00
1.695850e-07 -4.000000e+02 -1.013590e+00
-1.626890e-05 -8.000740e+02 -4.009310e+02
4.000000e+02 -8.000740e+02 -4.009310e+02
-1.284510e-05 -4.000790e+02 -4.010150e+02
4.000000e+02 -4.000790e+02 -4.010150e+02
3.207290e-07 -8.000000e+02 -9.313720e-01
4.000000e+02 -8.000000e+02 -9.314050e-01
1.695850e-07 -4.000000e+02 -1.013590e+00
4.000000e+02 -4.000000e+02 -1.013630e+00
-4.000000e+02 -4.000790e+02 -4.010150e+02
-1.284510e-05 -4.000790e+02 -4.010150e+02
-4.000000e+02 -7.250340e-02 -4.010950e+02
-6.493510e-06 -7.244700e-02 -4.010950e+02
-4.000000e+02 -4.000000e+02 -1.013600e+00
1.695850e-07 -4.000000e+02 -1.013590e+00
-4.000000e+02 -4.872130e-04 -1.094160e+00
1.450440e-07 -4.867860e-04 -1.094190e+00
-1.284510e-05 -4.000790e+02 -4.010150e+02
4.000000e+02 -4.000790e+02 -4.010150e+02
[...]
<PointData>
<DataArray type="Float32" Name="V1" format="ascii">
0.000000e+00
0.000000e+00
-6.546420e-05
2.778350e-06
0.000000e+00
0.000000e+00
2.508840e-05
-1.400330e-07
0.000000e+00
0.000000e+00
2.778350e-06
7.100490e-05
0.000000e+00
0.000000e+00
-1.400330e-07
-2.537780e-05
-6.546420e-05
2.778350e-06
6.773450e-05
5.435640e-06
2.508840e-05
-1.400330e-07
5.573750e-06
6.399130e-07
2.778350e-06
7.100490e-05
5.435640e-06
-5.688400e-05
-1.400330e-07
-2.537780e-05
6.399130e-07
-4.302870e-06
6.773450e-05
5.435640e-06
1.507330e-05
4.914530e-06
5.573750e-06
6.399130e-07
-6.572170e-06
-2.172220e-07
5.435640e-06
-5.688400e-05
4.914530e-06
-5.257150e-06
6.399130e-07
-4.302870e-06
-2.172220e-07
6.135650e-06
1.507330e-05
4.914530e-06
-1.168650e-04
-5.503220e-07
-6.572170e-06
-2.172220e-07
-1.595380e-05
-1.288910e-07
4.914530e-06
-5.257150e-06
-5.503220e-07
1.157610e-04
-2.172220e-07
6.135650e-06
-1.288910e-07
1.569630e-05
-1.168650e-04
-5.503220e-07
5.353310e-06
-4.160280e-06
-1.595380e-05
-1.288910e-07
-1.210640e-05
1.219910e-06
-5.503220e-07
1.157610e-04
-4.160280e-06
-1.367850e-05
-1.288910e-07
1.569630e-05
1.219910e-06
1.454020e-05
5.353310e-06
-4.160280e-06
2.252310e-05
-2.828600e-06
-1.210640e-05
1.219910e-06
3.213870e-05
1.452180e-07
-4.160280e-06
-1.367850e-05
-2.828600e-06
-2.818870e-05
1.219910e-06
1.454020e-05
1.452180e-07
-3.185920e-05
2.252310e-05
-2.828600e-06
6.571580e-05
1.519220e-06
3.213870e-05
1.452180e-07
3.208200e-05
-3.876910e-07
-2.828600e-06
-2.818870e-05
1.519220e-06
-6.268190e-05
1.452180e-07
-3.185920e-05
-3.876910e-07
-3.286250e-05
6.571580e-05
1.519220e-06
9.653950e-05
1.569880e-06
3.208200e-05
-3.876910e-07
-1.804150e-05
-6.866370e-08
1.519220e-06
-6.268190e-05
1.569880e-06
-9.339140e-05
-3.876910e-07
-3.286250e-05
-6.866370e-08
1.791050e-05
9.653950e-05
1.569880e-06
5.895240e-05
-9.317450e-10
-1.804150e-05
-6.866370e-08
-1.209610e-05
4.777250e-07
1.569880e-06
-9.339140e-05
-9.317450e-10
-5.894270e-05
-6.866370e-08
1.791050e-05
4.777250e-07
1.306170e-05
5.895240e-05
-9.317450e-10
-2.338880e-04
-2.808160e-06
-1.209610e-05
4.777250e-07
2.688690e-05
6.264080e-07
-9.317450e-10
-5.894270e-05
-2.808160e-06
2.282810e-04
4.777250e-07
1.306170e-05
6.264080e-07
-2.562870e-05
-2.338880e-04
-2.808160e-06
-9.667310e-05
-3.583950e-06
2.688690e-05
6.264080e-07
6.035640e-06
9.942570e-08
-2.808160e-06
2.282810e-04
-3.583950e-06
8.951340e-05
6.264080e-07
-2.562870e-05
9.942570e-08
-5.832380e-06
-9.667310e-05
-3.583950e-06
7.864640e-05
-1.477740e-06
6.035640e-06
9.942570e-08
-2.149760e-05
9.748630e-07
-3.583950e-06
8.951340e-05
-1.477740e-06
-8.159150e-05
9.942570e-08
-5.832380e-06
9.748630e-07
2.345300e-05
7.864640e-05
-1.477740e-06
2.900890e-05
-4.486320e-07
-2.149760e-05
9.748630e-07
1.761560e-05
8.792120e-07
-1.477740e-06
-8.159150e-05
-4.486320e-07
-2.990110e-05
9.748630e-07
2.345300e-05
8.792120e-07
-1.585550e-05
2.900890e-05
-4.486320e-07
5.672260e-05
-4.876110e-07
1.761560e-05
8.792120e-07
1.506910e-05
6.415520e-07
-4.486320e-07
-2.990110e-05
-4.876110e-07
-5.770050e-05
8.792120e-07
-1.585550e-05
6.415520e-07
-1.378760e-05
5.672260e-05
-4.876110e-07
2.157590e-05
1.693910e-06
1.506910e-05
6.415520e-07
9.847540e-06
-1.064330e-06
-4.876110e-07
-5.770050e-05
1.693910e-06
-1.819470e-05
6.415520e-07
-1.378760e-05
-1.064330e-06
-1.197650e-05
2.157590e-05
1.693910e-06
-1.796400e-05
2.734560e-06
9.847540e-06
-1.064330e-06
-2.982110e-05
-1.194990e-06
1.693910e-06
-1.819470e-05
2.734560e-06
2.341690e-05
-1.064330e-06
-1.197650e-05
-1.194990e-06
2.742700e-05
-1.796400e-05
2.734560e-06
8.841310e-06
4.282310e-06
-2.982110e-05
-1.194990e-06
7.480810e-06
9.292340e-07
2.734560e-06
2.341690e-05
4.282310e-06
-3.008440e-07
-1.194990e-06
2.742700e-05
9.292340e-07
-5.637600e-06
8.841310e-06
4.282310e-06
2.053400e-05
5.893020e-06
7.480810e-06
9.292340e-07
-7.924680e-06
-1.246710e-06
4.282310e-06
-3.008440e-07
5.893020e-06
-8.765850e-06
9.292340e-07
-5.637600e-06
-1.246710e-06
5.413980e-06
2.053400e-05
5.893020e-06
1.034670e-04
3.242130e-06
-7.924680e-06
-1.246710e-06
-8.391900e-05
-9.153660e-07
5.893020e-06
-8.765850e-06
3.242130e-06
-9.698100e-05
-1.246710e-06
5.413980e-06
-9.153660e-07
8.208740e-05
1.034670e-04
3.242130e-06
2.220240e-05
-1.242170e-06
-8.391900e-05
-9.153660e-07
-1.988700e-05
6.642500e-07
3.242130e-06
-9.698100e-05
-1.242170e-06
-2.467340e-05
-9.153660e-07
8.208740e-05
6.642500e-07
2.123020e-05
2.220240e-05
-1.242170e-06
-5.609760e-05
7.931940e-08
-1.988700e-05
6.642500e-07
3.018850e-05
-3.938960e-07
-1.242170e-06
-2.467340e-05
7.931940e-08
5.626780e-05
6.642500e-07
2.123020e-05
-3.938960e-07
-3.096320e-05
-5.609760e-05
7.931940e-08
-2.002520e-04
1.647340e-06
3.018850e-05
-3.938960e-07
1.308190e-05
-1.402520e-06
7.931940e-08
5.626780e-05
1.647340e-06
2.035480e-04
-3.938960e-07
-3.096320e-05
-1.402520e-06
-1.588710e-05
-2.002520e-04
1.647340e-06
-3.222460e-05
4.905720e-07
1.308190e-05
-1.402520e-06
2.142260e-05
3.953710e-07
1.647340e-06
2.035480e-04
4.905720e-07
3.319900e-05
-1.402520e-06
-1.588710e-05
3.953710e-07
-2.064040e-05
-3.222460e-05
4.905720e-07
2.076450e-04
-1.975370e-06
2.142260e-05
3.953710e-07
-2.057910e-05
5.597400e-07
4.905720e-07
3.319900e-05
-1.975370e-06
-2.116030e-04
3.953710e-07
-2.064040e-05
5.597400e-07
2.169010e-05
2.076450e-04
-1.975370e-06
5.999480e-06
6.134230e-08
-2.057910e-05
5.597400e-07
-3.242050e-05
-1.949870e-06
-1.975370e-06
-2.116030e-04
6.134230e-08
-5.882560e-06
5.597400e-07
2.169010e-05
-1.949870e-06
2.851650e-05
5.999480e-06
6.134230e-08
-7.760160e-05
-1.892290e-06
-3.242050e-05
-1.949870e-06
5.432930e-05
9.134240e-07
6.134230e-08
-5.882560e-06
-1.892290e-06
7.381380e-05
-1.949870e-06
2.851650e-05
9.134240e-07
-5.250030e-05
-7.760160e-05
-1.892290e-06
-1.231340e-04
6.393690e-07
5.432930e-05
9.134240e-07
2.269110e-05
-6.120430e-07
-1.892290e-06
7.381380e-05
6.393690e-07
1.244120e-04
9.134240e-07
-5.250030e-05
-6.120430e-07
-2.390910e-05
-1.231340e-04
6.393690e-07
2.778170e-05
-9.884110e-07
2.269110e-05
-6.120430e-07
-1.283960e-05
-4.419500e-08
6.393690e-07
1.244120e-04
-9.884110e-07
-2.975570e-05
-6.120430e-07
-2.390910e-05
-4.419500e-08
1.275660e-05
2.778170e-05
-9.884110e-07
2.497270e-05
-8.703820e-07
-1.283960e-05
-4.419500e-08
-2.987220e-06
-6.469270e-07
-9.884110e-07
-2.975570e-05
-8.703820e-07
-2.669460e-05
-4.419500e-08
1.275660e-05
-6.469270e-07
1.698680e-06
2.497270e-05
-8.703820e-07
3.866470e-05
-3.132740e-06
-2.987220e-06
-6.469270e-07
3.733400e-06
1.331160e-06
-8.703820e-07
-2.669460e-05
-3.132740e-06
-4.490030e-05
-6.469270e-07
1.698680e-06
1.331160e-06
-1.064710e-06
0.000000e+00
0.000000e+00
2.508840e-05
-1.400330e-07
0.000000e+00
0.000000e+00
1.517870e-05
-2.508170e-06
0.000000e+00
0.000000e+00
-1.400330e-07
-2.537780e-05
0.000000e+00
0.000000e+00
-2.508170e-06
-2.019680e-05
2.508840e-05
-1.400330e-07
5.573750e-06
6.399130e-07
1.517870e-05
-2.508170e-06
-7.870800e-05
-6.729770e-06
-1.400330e-07
-2.537780e-05
6.399130e-07
-4.302870e-06
-2.508170e-06
-2.019680e-05
-6.729770e-06
6.525190e-05
5.573750e-06
6.399130e-07
-6.572170e-06
-2.172220e-07
-7.870800e-05
-6.729770e-06
-1.526650e-06
-4.435930e-06
6.399130e-07
-4.302870e-06
-2.172220e-07
6.135650e-06
-6.729770e-06
6.525190e-05
-4.435930e-06
-7.336500e-06
-6.572170e-06
-2.172220e-07
-1.595380e-05
-1.288910e-07
-1.526650e-06
-4.435930e-06
1.482860e-04
8.120170e-07
-2.172220e-07
6.135650e-06
-1.288910e-07
1.569630e-05
-4.435930e-06
-7.336500e-06
8.120170e-07
-1.466570e-04
-1.595380e-05
-1.288910e-07
-1.210640e-05
1.219910e-06
1.482860e-04
8.120170e-07
1.900540e-05
1.657050e-06
-1.288910e-07
1.569630e-05
1.219910e-06
1.454020e-05
8.120170e-07
-1.466570e-04
1.657050e-06
-1.569860e-05
-1.210640e-05
1.219910e-06
3.213870e-05
1.452180e-07
1.900540e-05
1.657050e-06
-8.684910e-05
2.517210e-06
1.219910e-06
1.454020e-05
1.452180e-07
-3.185920e-05
1.657050e-06
-1.569860e-05
2.517210e-06
9.186960e-05
3.213870e-05
1.452180e-07
3.208200e-05
-3.876910e-07
-8.684910e-05
2.517210e-06
-1.301720e-04
-7.314000e-07
1.452180e-07
-3.185920e-05
-3.876910e-07
-3.286250e-05
2.517210e-06
9.186960e-05
-7.314000e-07
1.287030e-04
3.208200e-05
-3.876910e-07
-1.804150e-05
-6.866370e-08
-1.301720e-04
-7.314000e-07
-6.013990e-05
-1.392800e-06
-3.876910e-07
-3.286250e-05
-6.866370e-08
1.791050e-05
-7.314000e-07
1.287030e-04
-1.392800e-06
5.735920e-05
-1.804150e-05
-6.866370e-08
-1.209610e-05
4.777250e-07
-6.013990e-05
-1.392800e-06
-3.448040e-05
-8.981220e-07
-6.866370e-08
1.791050e-05
4.777250e-07
1.306170e-05
-1.392800e-06
5.735920e-05
-8.981220e-07
3.269270e-05
-1.209610e-05
4.777250e-07
2.688690e-05
6.264080e-07
-3.448040e-05
-8.981220e-07
1.798110e-04
1.564380e-06
4.777250e-07
1.306170e-05
6.264080e-07
-2.562870e-05
-8.981220e-07
3.269270e-05
1.564380e-06
-1.766800e-04
2.688690e-05
6.264080e-07
6.035640e-06
9.942570e-08
1.798110e-04
1.564380e-06
8.458690e-05
3.370130e-06
6.264080e-07
-2.562870e-05
9.942570e-08
-5.832380e-06
1.564380e-06
-1.766800e-04
3.370130e-06
-7.784750e-05
6.035640e-06
9.942570e-08
-2.149760e-05
9.748630e-07
8.458690e-05
3.370130e-06
-3.526190e-05
-4.898510e-07
9.942570e-08
-5.832380e-06
9.748630e-07
2.345300e-05
3.370130e-06
-7.784750e-05
-4.898510e-07
3.428320e-05
-2.149760e-05
9.748630e-07
1.761560e-05
8.792120e-07
-3.526190e-05
-4.898510e-07
-6.441620e-05
-1.309880e-06
9.748630e-07
2.345300e-05
8.792120e-07
-1.585550e-05
-4.898510e-07
3.428320e-05
-1.309880e-06
6.179500e-05
1.761560e-05
8.792120e-07
1.506910e-05
6.415520e-07
-6.441620e-05
-1.309880e-06
-8.681150e-05
-7.820600e-07
8.792120e-07
-1.585550e-05
6.415520e-07
-1.378760e-05
-1.309880e-06
6.179500e-05
-7.820600e-07
8.524660e-05
1.506910e-05
6.415520e-07
9.847540e-06
-1.064330e-06
-8.681150e-05
-7.820600e-07
-4.127330e-05
4.222950e-07
6.415520e-07
-1.378760e-05
-1.064330e-06
-1.197650e-05
-7.820600e-07
8.524660e-05
4.222950e-07
4.212410e-05
9.847540e-06
-1.064330e-06
-2.982110e-05
-1.194990e-06
-4.127330e-05
4.222950e-07
7.727860e-05
-3.905030e-07
-1.064330e-06
-1.197650e-05
-1.194990e-06
2.742700e-05
4.222950e-07
4.212410e-05
-3.905030e-07
-7.805200e-05
-2.982110e-05
-1.194990e-06
7.480810e-06
9.292340e-07
7.727860e-05
-3.905030e-07
-2.354600e-05
-6.168950e-06
-1.194990e-06
2.742700e-05
9.292340e-07
-5.637600e-06
-3.905030e-07
-7.805200e-05
-6.168950e-06
1.120120e-05
7.480810e-06
9.292340e-07
-7.924680e-06
-1.246710e-06
-2.354600e-05
-6.168950e-06
-4.685670e-06
-3.395570e-06
9.292340e-07
-5.637600e-06
-1.246710e-06
5.413980e-06
-6.168950e-06
1.120120e-05
-3.395570e-06
-2.121140e-06
-7.924680e-06
-1.246710e-06
-8.391900e-05
-9.153660e-07
-4.685670e-06
-3.395570e-06
6.432790e-05
-1.381880e-06
-1.246710e-06
5.413980e-06
-9.153660e-07
8.208740e-05
-3.395570e-06
-2.121140e-06
-1.381880e-06
-6.709440e-05
-8.391900e-05
-9.153660e-07
-1.988700e-05
6.642500e-07
6.432790e-05
-1.381880e-06
1.767830e-05
-5.425240e-08
-9.153660e-07
8.208740e-05
6.642500e-07
2.123020e-05
-1.381880e-06
-6.709440e-05
-5.425240e-08
-1.777030e-05
-1.988700e-05
6.642500e-07
3.018850e-05
-3.938960e-07
1.767830e-05
-5.425240e-08
-4.369550e-06
7.420650e-07
6.642500e-07
2.123020e-05
-3.938960e-07
-3.096320e-05
-5.425240e-08
-1.777030e-05
7.420650e-07
5.868480e-06
3.018850e-05
-3.938960e-07
1.308190e-05
-1.402520e-06
-4.369550e-06
7.420650e-07
1.738530e-04
1.167300e-06
-3.938960e-07
-3.096320e-05
-1.402520e-06
-1.588710e-05
7.420650e-07
5.868480e-06
1.167300e-06
-1.715220e-04
1.308190e-05
-1.402520e-06
2.142260e-05
3.953710e-07
1.738530e-04
1.167300e-06
-1.037880e-05
-1.319290e-06
-1.402520e-06
-1.588710e-05
3.953710e-07
-2.064040e-05
1.167300e-06
-1.715220e-04
-1.319290e-06
7.728840e-06
2.142260e-05
3.953710e-07
-2.057910e-05
5.597400e-07
-1.037880e-05
-1.319290e-06
-1.662860e-04
8.155490e-07
3.953710e-07
-2.064040e-05
5.597400e-07
2.169010e-05
-1.319290e-06
7.728840e-06
8.155490e-07
1.679080e-04
-2.057910e-05
5.597400e-07
-3.242050e-05
-1.949870e-06
-1.662860e-04
8.155490e-07
5.834640e-05
3.851890e-06
5.597400e-07
2.169010e-05
-1.949870e-06
2.851650e-05
8.155490e-07
1.679080e-04
3.851890e-06
-5.064530e-05
-3.242050e-05
-1.949870e-06
5.432930e-05
9.134240e-07
5.834640e-05
3.851890e-06
-3.118560e-05
9.922820e-08
-1.949870e-06
2.851650e-05
9.134240e-07
-5.250030e-05
3.851890e-06
-5.064530e-05
9.922820e-08
3.139180e-05
5.432930e-05
9.134240e-07
2.269110e-05
-6.120430e-07
-3.118560e-05
9.922820e-08
7.825480e-05
6.164340e-07
9.134240e-07
-5.250030e-05
-6.120430e-07
-2.390910e-05
9.922820e-08
3.139180e-05
6.164340e-07
-7.700850e-05
2.269110e-05
-6.120430e-07
-1.283960e-05
-4.419500e-08
7.825480e-05
6.164340e-07
-2.587810e-06
1.073440e-06
-6.120430e-07
-2.390910e-05
-4.419500e-08
1.275660e-05
6.164340e-07
-7.700850e-05
1.073440e-06
4.741790e-06
-1.283960e-05
-4.419500e-08
-2.987220e-06
-6.469270e-07
-2.587810e-06
1.073440e-06
-1.858820e-05
2.122940e-06
-4.419500e-08
1.275660e-05
-6.469270e-07
1.698680e-06
1.073440e-06
4.741790e-06
2.122940e-06
2.282580e-05
-2.987220e-06
-6.469270e-07
3.733400e-06
1.331160e-06
-1.858820e-05
2.122940e-06
-4.655410e-05
4.463930e-07
-6.469270e-07
1.698680e-06
1.331160e-06
-1.064710e-06
2.122940e-06
2.282580e-05
4.463930e-07
4.743080e-05
</DataArray>
<DataArray type="Float32" Name="V2" format="ascii">
0.000000e+00
0.000000e+00
-1.335850e-05
9.446940e-05
0.000000e+00
0.000000e+00
-3.522310e-04
-3.802950e-04
0.000000e+00
0.000000e+00
9.446940e-05
-1.527340e-05
0.000000e+00
0.000000e+00
-3.802950e-04
-3.549210e-04
-1.335850e-05
9.446940e-05
-2.084420e-03
-1.954860e-03
-3.522310e-04
-3.802950e-04
-5.542150e-05
-2.750120e-05
9.446940e-05
-1.527340e-05
-1.954860e-03
-2.087600e-03
-3.802950e-04
-3.549210e-04
-2.750120e-05
-5.447600e-05
-2.084420e-03
-1.954860e-03
-5.391320e-04
-3.524200e-04
-5.542150e-05
-2.750120e-05
4.023050e-04
4.002560e-04
-1.954860e-03
-2.087600e-03
-3.524200e-04
-5.346730e-04
-2.750120e-05
-5.447600e-05
4.002560e-04
4.021950e-04
-5.391320e-04
-3.524200e-04
1.526530e-03
1.630770e-03
4.023050e-04
4.002560e-04
-1.022260e-04
-1.234090e-04
-3.524200e-04
-5.346730e-04
1.630770e-03
1.532120e-03
4.002560e-04
4.021950e-04
-1.234090e-04
-1.070130e-04
1.526530e-03
1.630770e-03
1.237930e-04
3.472460e-05
-1.022260e-04
-1.234090e-04
-3.871950e-04
-3.785750e-04
1.630770e-03
1.532120e-03
3.472460e-05
1.285920e-04
-1.234090e-04
-1.070130e-04
-3.785750e-04
-3.899590e-04
1.237930e-04
3.472460e-05
-2.643380e-03
-2.708500e-03
-3.871950e-04
-3.785750e-04
2.419610e-04
2.129110e-04
3.472460e-05
1.285920e-04
-2.708500e-03
-2.642040e-03
-3.785750e-04
-3.899590e-04
2.129110e-04
2.402160e-04
-2.643380e-03
-2.708500e-03
-7.862220e-04
-8.049430e-04
2.419610e-04
2.129110e-04
2.232670e-04
1.987670e-04
-2.708500e-03
-2.642040e-03
-8.049430e-04
-7.902350e-04
2.129110e-04
2.402160e-04
1.987670e-04
2.220090e-04
-7.862220e-04
-8.049430e-04
2.671480e-03
2.738380e-03
2.232670e-04
1.987670e-04
-1.439020e-04
-1.591030e-04
-8.049430e-04
-7.902350e-04
2.738380e-03
2.675000e-03
1.987670e-04
2.220090e-04
-1.591030e-04
-1.456000e-04
2.671480e-03
2.738380e-03
1.594390e-03
1.702830e-03
-1.439020e-04
-1.591030e-04
1.379590e-04
1.320840e-04
2.738380e-03
2.675000e-03
1.702830e-03
1.593420e-03
-1.591030e-04
-1.456000e-04
1.320840e-04
1.371150e-04
1.594390e-03
1.702830e-03
-1.447640e-03
-1.406230e-03
1.379590e-04
1.320840e-04
2.331920e-04
2.282430e-04
1.702830e-03
1.593420e-03
-1.406230e-03
-1.453020e-03
1.320840e-04
1.371150e-04
2.282430e-04
2.334950e-04
-1.447640e-03
-1.406230e-03
-1.342100e-03
-1.438330e-03
2.331920e-04
2.282430e-04
7.752380e-05
8.813390e-05
-1.406230e-03
-1.453020e-03
-1.438330e-03
-1.343800e-03
2.282430e-04
2.334950e-04
8.813390e-05
7.852760e-05
-1.342100e-03
-1.438330e-03
1.847870e-03
1.810960e-03
7.752380e-05
8.813390e-05
-1.093690e-05
-5.306620e-06
-1.438330e-03
-1.343800e-03
1.810960e-03
1.849680e-03
8.813390e-05
7.852760e-05
-5.306620e-06
-8.910130e-06
1.847870e-03
1.810960e-03
1.944140e-03
2.066830e-03
-1.093690e-05
-5.306620e-06
-1.838110e-04
-2.323820e-04
1.810960e-03
1.849680e-03
2.066830e-03
1.948380e-03
-5.306620e-06
-8.910130e-06
-2.323820e-04
-1.855650e-04
1.944140e-03
2.066830e-03
-1.671290e-03
-1.614820e-03
-1.838110e-04
-2.323820e-04
-3.404320e-05
-8.480040e-05
2.066830e-03
1.948380e-03
-1.614820e-03
-1.671560e-03
-2.323820e-04
-1.855650e-04
-8.480040e-05
-3.578790e-05
-1.671290e-03
-1.614820e-03
-1.985060e-03
-2.009390e-03
-3.404320e-05
-8.480040e-05
2.072730e-04
1.864510e-04
-1.614820e-03
-1.671560e-03
-2.009390e-03
-1.985340e-03
-8.480040e-05
-3.578790e-05
1.864510e-04
2.082750e-04
-1.985060e-03
-2.009390e-03
1.109720e-03
1.091240e-03
2.072730e-04
1.864510e-04
-2.383840e-05
-3.313170e-05
-2.009390e-03
-1.985340e-03
1.091240e-03
1.113000e-03
1.864510e-04
2.082750e-04
-3.313170e-05
-2.480430e-05
1.109720e-03
1.091240e-03
2.069000e-03
2.058940e-03
-2.383840e-05
-3.313170e-05
-3.134400e-04
-3.509290e-04
1.091240e-03
1.113000e-03
2.058940e-03
2.068320e-03
-3.313170e-05
-2.480430e-05
-3.509290e-04
-3.145910e-04
2.069000e-03
2.058940e-03
-8.762990e-04
-9.096700e-04
-3.134400e-04
-3.509290e-04
2.817300e-05
5.807610e-05
2.058940e-03
2.068320e-03
-9.096700e-04
-8.825790e-04
-3.509290e-04
-3.145910e-04
5.807610e-05
2.915970e-05
-8.762990e-04
-9.096700e-04
-2.633960e-03
-2.576820e-03
2.817300e-05
5.807610e-05
4.376120e-04
4.590390e-04
-9.096700e-04
-8.825790e-04
-2.576820e-03
-2.635690e-03
5.807610e-05
2.915970e-05
4.590390e-04
4.369790e-04
-2.633960e-03
-2.576820e-03
8.755380e-04
9.695020e-04
4.376120e-04
4.590390e-04
-3.479620e-04
-3.576360e-04
-2.576820e-03
-2.635690e-03
9.695020e-04
8.755380e-04
4.590390e-04
4.369790e-04
-3.576360e-04
-3.472090e-04
8.755380e-04
9.695020e-04
2.696620e-03
2.771710e-03
-3.479620e-04
-3.576360e-04
-8.084050e-04
-7.505170e-04
9.695020e-04
8.755380e-04
2.771710e-03
2.692570e-03
-3.576360e-04
-3.472090e-04
-7.505170e-04
-8.046620e-04
2.696620e-03
2.771710e-03
-8.517870e-04
-7.991990e-04
-8.084050e-04
-7.505170e-04
4.120810e-04
4.238210e-04
2.771710e-03
2.692570e-03
-7.991990e-04
-8.524480e-04
-7.505170e-04
-8.046620e-04
4.238210e-04
4.111670e-04
-8.517870e-04
-7.991990e-04
-2.147440e-03
-2.096810e-03
4.120810e-04
4.238210e-04
8.936780e-04
8.862230e-04
-7.991990e-04
-8.524480e-04
-2.096810e-03
-2.147250e-03
4.238210e-04
4.111670e-04
8.862230e-04
8.926490e-04
-2.147440e-03
-2.096810e-03
1.130790e-03
1.189330e-03
8.936780e-04
8.862230e-04
-2.566680e-04
-1.921760e-04
-2.096810e-03
-2.147250e-03
1.189330e-03
1.128330e-03
8.862230e-04
8.926490e-04
-1.921760e-04
-2.543760e-04
1.130790e-03
1.189330e-03
3.103700e-03
3.015740e-03
-2.566680e-04
-1.921760e-04
-7.753480e-04
-7.441670e-04
1.189330e-03
1.128330e-03
3.015740e-03
3.102580e-03
-1.921760e-04
-2.543760e-04
-7.441670e-04
-7.741680e-04
3.103700e-03
3.015740e-03
-3.400150e-05
-8.527140e-05
-7.753480e-04
-7.441670e-04
7.495450e-05
8.158170e-05
3.015740e-03
3.102580e-03
-8.527140e-05
-3.580590e-05
-7.441670e-04
-7.741680e-04
8.158170e-05
7.497340e-05
-3.400150e-05
-8.527140e-05
-3.275470e-03
-3.224020e-03
7.495450e-05
8.158170e-05
5.478010e-04
5.567710e-04
-8.527140e-05
-3.580590e-05
-3.224020e-03
-3.281760e-03
8.158170e-05
7.497340e-05
5.567710e-04
5.519520e-04
-3.275470e-03
-3.224020e-03
-1.537110e-03
-1.499380e-03
5.478010e-04
5.567710e-04
-5.518400e-05
-8.048310e-05
-3.224020e-03
-3.281760e-03
-1.499380e-03
-1.538120e-03
5.567710e-04
5.519520e-04
-8.048310e-05
-5.248900e-05
-1.537110e-03
-1.499380e-03
8.277410e-04
8.739120e-04
-5.518400e-05
-8.048310e-05
-2.673270e-04
-2.705360e-04
-1.499380e-03
-1.538120e-03
8.739120e-04
8.304790e-04
-8.048310e-05
-5.248900e-05
-2.705360e-04
-2.691290e-04
8.277410e-04
8.739120e-04
1.235840e-03
1.275760e-03
-2.673270e-04
-2.705360e-04
-4.233220e-05
-2.243340e-05
8.739120e-04
8.304790e-04
1.275760e-03
1.235250e-03
-2.705360e-04
-2.691290e-04
-2.243340e-05
-4.209860e-05
0.000000e+00
0.000000e+00
-3.522310e-04
-3.802950e-04
0.000000e+00
0.000000e+00
7.129040e-04
6.617460e-04
0.000000e+00
0.000000e+00
-3.802950e-04
-3.549210e-04
0.000000e+00
0.000000e+00
6.617460e-04
7.201980e-04
-3.522310e-04
-3.802950e-04
-5.542150e-05
-2.750120e-05
7.129040e-04
6.617460e-04
2.193070e-03
2.007710e-03
-3.802950e-04
-3.549210e-04
-2.750120e-05
-5.447600e-05
6.617460e-04
7.201980e-04
2.007710e-03