<?xml version="1.0"?>
<VTKFile type="UnstructuredGrid" version="0.1" byte_order="LittleEndian" compressor="vtkZLibDataCompressor">
<UnstructuredGrid>
<Piece NumberOfPoints="960" NumberOfCells="120">
<Points>
<DataArray type="Float32" NumberOfComponents="3" format="ascii">
-4.000000e+02 -6.000000e+03 -4.000000e+02
0.000000e+00 -6.000000e+03 -4.000000e+02
-4.000660e+02 -5.600380e+03 -4.001070e+02
-6.831450e-02 -5.600390e+03 -4.001700e+02
-4.000000e+02 -6.000000e+03 0.000000e+00
0.000000e+00 -6.000000e+03 0.000000e+00
-4.000030e+02 -5.600000e+03 -7.511400e-02
-8.307850e-04 -5.600000e+03 -1.430840e-01
0.000000e+00 -6.000000e+03 -4.000000e+02
4.000000e+02 -6.000000e+03 -4.000000e+02
-6.831450e-02 -5.600390e+03 -4.001700e+02
3.999300e+02 -5.600390e+03 -4.002410e+02
0.000000e+00 -6.000000e+03 0.000000e+00
4.000000e+02 -6.000000e+03 0.000000e+00
-8.307850e-04 -5.600000e+03 -1.430840e-01
4.000010e+02 -5.600000e+03 -2.115950e-01
-4.000660e+02 -5.600380e+03 -4.001070e+02
-6.831450e-02 -5.600390e+03 -4.001700e+02
-4.000900e+02 -5.200590e+03 -4.006650e+02
-9.094740e-02 -5.200600e+03 -4.007500e+02
-4.000030e+02 -5.600000e+03 -7.511400e-02
-8.307850e-04 -5.600000e+03 -1.430840e-01
-4.000030e+02 -5.200010e+03 -6.337220e-01
-1.595520e-04 -5.200010e+03 -7.242680e-01
-6.831450e-02 -5.600390e+03 -4.001700e+02
3.999300e+02 -5.600390e+03 -4.002410e+02
-9.094740e-02 -5.200600e+03 -4.007500e+02
3.999080e+02 -5.200610e+03 -4.008450e+02
-8.307850e-04 -5.600000e+03 -1.430840e-01
4.000010e+02 -5.600000e+03 -2.115950e-01
-1.595520e-04 -5.200010e+03 -7.242680e-01
4.000030e+02 -5.200010e+03 -8.150130e-01
-4.000900e+02 -5.200590e+03 -4.006650e+02
-9.094740e-02 -5.200600e+03 -4.007500e+02
-4.000650e+02 -4.800640e+03 -4.013190e+02
-6.731010e-02 -4.800650e+03 -4.013870e+02
-4.000030e+02 -5.200010e+03 -6.337220e-01
-1.595520e-04 -5.200010e+03 -7.242680e-01
-4.000020e+02 -4.800020e+03 -1.328200e+00
-1.009840e-04 -4.800010e+03 -1.399210e+00
-9.094740e-02 -5.200600e+03 -4.007500e+02
3.999080e+02 -5.200610e+03 -4.008450e+02
-6.731010e-02 -4.800650e+03 -4.013870e+02
3.999300e+02 -4.800660e+03 -4.014650e+02
-1.595520e-04 -5.200010e+03 -7.242680e-01
4.000030e+02 -5.200010e+03 -8.150130e-01
-1.009840e-04 -4.800010e+03 -1.399210e+00
4.000020e+02 -4.800010e+03 -1.473410e+00
-4.000650e+02 -4.800640e+03 -4.013190e+02
-6.731010e-02 -4.800650e+03 -4.013870e+02
-4.000360e+02 -4.400700e+03 -4.020070e+02
-3.761150e-02 -4.400700e+03 -4.020520e+02
-4.000020e+02 -4.800020e+03 -1.328200e+00
-1.009840e-04 -4.800010e+03 -1.399210e+00
-4.000010e+02 -4.400010e+03 -2.046390e+00
-8.172830e-04 -4.400010e+03 -2.091040e+00
-6.731010e-02 -4.800650e+03 -4.013870e+02
3.999300e+02 -4.800660e+03 -4.014650e+02
-3.761150e-02 -4.400700e+03 -4.020520e+02
3.999600e+02 -4.400700e+03 -4.021030e+02
-1.009840e-04 -4.800010e+03 -1.399210e+00
4.000020e+02 -4.800010e+03 -1.473410e+00
-8.172830e-04 -4.400010e+03 -2.091040e+00
4.000000e+02 -4.400010e+03 -2.139660e+00
-4.000360e+02 -4.400700e+03 -4.020070e+02
-3.761150e-02 -4.400700e+03 -4.020520e+02
-4.000200e+02 -4.000860e+03 -4.027560e+02
-2.149710e-02 -4.000850e+03 -4.027820e+02
-4.000010e+02 -4.400010e+03 -2.046390e+00
-8.172830e-04 -4.400010e+03 -2.091040e+00
-4.000010e+02 -4.000000e+03 -2.810870e+00
-6.872370e-04 -4.000000e+03 -2.835780e+00
-3.761150e-02 -4.400700e+03 -4.020520e+02
3.999600e+02 -4.400700e+03 -4.021030e+02
-2.149710e-02 -4.000850e+03 -4.027820e+02
3.999770e+02 -4.000840e+03 -4.028140e+02
-8.172830e-04 -4.400010e+03 -2.091040e+00
4.000000e+02 -4.400010e+03 -2.139660e+00
-6.872370e-04 -4.000000e+03 -2.835780e+00
4.000000e+02 -4.000000e+03 -2.865420e+00
-4.000200e+02 -4.000860e+03 -4.027560e+02
-2.149710e-02 -4.000850e+03 -4.027820e+02
-3.999980e+02 -3.601090e+03 -4.037220e+02
4.511490e-03 -3.601080e+03 -4.037240e+02
-4.000010e+02 -4.000000e+03 -2.810870e+00
-6.872370e-04 -4.000000e+03 -2.835780e+00
-4.000010e+02 -3.599990e+03 -3.753420e+00
1.491570e-04 -3.599990e+03 -3.757130e+00
-2.149710e-02 -4.000850e+03 -4.027820e+02
3.999770e+02 -4.000840e+03 -4.028140e+02
4.511490e-03 -3.601080e+03 -4.037240e+02
4.000070e+02 -3.601060e+03 -4.037210e+02
-6.872370e-04 -4.000000e+03 -2.835780e+00
4.000000e+02 -4.000000e+03 -2.865420e+00
1.491570e-04 -3.599990e+03 -3.757130e+00
4.000020e+02 -3.599990e+03 -3.750330e+00
-3.999980e+02 -3.601090e+03 -4.037220e+02
4.511490e-03 -3.601080e+03 -4.037240e+02
-3.999490e+02 -3.201240e+03 -4.050000e+02
5.226650e-02 -3.201230e+03 -4.049490e+02
-4.000010e+02 -3.599990e+03 -3.753420e+00
1.491570e-04 -3.599990e+03 -3.757130e+00
-4.000020e+02 -3.200000e+03 -4.991340e+00
1.062970e-03 -3.200000e+03 -4.944740e+00
4.511490e-03 -3.601080e+03 -4.037240e+02
4.000070e+02 -3.601060e+03 -4.037210e+02
5.226650e-02 -3.201230e+03 -4.049490e+02
4.000530e+02 -3.201220e+03 -4.049020e+02
1.491570e-04 -3.599990e+03 -3.757130e+00
4.000020e+02 -3.599990e+03 -3.750330e+00
1.062970e-03 -3.200000e+03 -4.944740e+00
4.000040e+02 -3.200000e+03 -4.888780e+00
-3.999490e+02 -3.201240e+03 -4.050000e+02
5.226650e-02 -3.201230e+03 -4.049490e+02
-3.999020e+02 -2.801240e+03 -4.063130e+02
9.549660e-02 -2.801230e+03 -4.062120e+02
-4.000020e+02 -3.200000e+03 -4.991340e+00
1.062970e-03 -3.200000e+03 -4.944740e+00
-4.000020e+02 -2.800020e+03 -6.317420e+00
1.318470e-03 -2.800020e+03 -6.219970e+00
5.226650e-02 -3.201230e+03 -4.049490e+02
4.000530e+02 -3.201220e+03 -4.049020e+02
9.549660e-02 -2.801230e+03 -4.062120e+02
4.000930e+02 -2.801230e+03 -4.061270e+02
1.062970e-03 -3.200000e+03 -4.944740e+00
4.000040e+02 -3.200000e+03 -4.888780e+00
1.318470e-03 -2.800020e+03 -6.219970e+00
4.000050e+02 -2.800020e+03 -6.122700e+00
-3.999020e+02 -2.801240e+03 -4.063130e+02
9.549660e-02 -2.801230e+03 -4.062120e+02
-3.998920e+02 -2.401210e+03 -4.074690e+02
1.029500e-01 -2.401210e+03 -4.073600e+02
-4.000020e+02 -2.800020e+03 -6.317420e+00
1.318470e-03 -2.800020e+03 -6.219970e+00
-3.999980e+02 -2.400040e+03 -7.553460e+00
3.070740e-03 -2.400040e+03 -7.438720e+00
9.549660e-02 -2.801230e+03 -4.062120e+02
4.000930e+02 -2.801230e+03 -4.061270e+02
1.029500e-01 -2.401210e+03 -4.073600e+02
4.000980e+02 -2.401210e+03 -4.072630e+02
1.318470e-03 -2.800020e+03 -6.219970e+00
4.000050e+02 -2.800020e+03 -6.122700e+00
3.070740e-03 -2.400040e+03 -7.438720e+00
4.000040e+02 -2.400030e+03 -7.330950e+00
-3.998920e+02 -2.401210e+03 -4.074690e+02
1.029500e-01 -2.401210e+03 -4.073600e+02
-3.999270e+02 -2.001260e+03 -4.086610e+02
7.465730e-02 -2.001260e+03 -4.085860e+02
-3.999980e+02 -2.400040e+03 -7.553460e+00
3.070740e-03 -2.400040e+03 -7.438720e+00
-3.999930e+02 -2.000020e+03 -8.818610e+00
3.920050e-03 -2.000020e+03 -8.726630e+00
1.029500e-01 -2.401210e+03 -4.073600e+02
4.000980e+02 -2.401210e+03 -4.072630e+02
7.465730e-02 -2.001260e+03 -4.085860e+02
4.000760e+02 -2.001260e+03 -4.084980e+02
3.070740e-03 -2.400040e+03 -7.438720e+00
4.000040e+02 -2.400030e+03 -7.330950e+00
3.920050e-03 -2.000020e+03 -8.726630e+00
4.000010e+02 -2.000020e+03 -8.634820e+00
-3.999270e+02 -2.001260e+03 -4.086610e+02
7.465730e-02 -2.001260e+03 -4.085860e+02
-3.999660e+02 -1.601320e+03 -4.099770e+02
4.262560e-02 -1.601330e+03 -4.099390e+02
-3.999930e+02 -2.000020e+03 -8.818610e+00
3.920050e-03 -2.000020e+03 -8.726630e+00
-3.999920e+02 -1.599990e+03 -1.011390e+01
2.445750e-03 -1.599990e+03 -1.005710e+01
7.465730e-02 -2.001260e+03 -4.085860e+02
4.000760e+02 -2.001260e+03 -4.084980e+02
4.262560e-02 -1.601330e+03 -4.099390e+02
4.000510e+02 -1.601340e+03 -4.098750e+02
3.920050e-03 -2.000020e+03 -8.726630e+00
4.000010e+02 -2.000020e+03 -8.634820e+00
2.445750e-03 -1.599990e+03 -1.005710e+01
3.999970e+02 -1.599990e+03 -9.995640e+00
-3.999660e+02 -1.601320e+03 -4.099770e+02
4.262560e-02 -1.601330e+03 -4.099390e+02
-3.999860e+02 -1.201380e+03 -4.113590e+02
2.668580e-02 -1.201390e+03 -4.113490e+02
-3.999920e+02 -1.599990e+03 -1.011390e+01
2.445750e-03 -1.599990e+03 -1.005710e+01
-3.999940e+02 -1.199980e+03 -1.139880e+01
1.473730e-03 -1.199980e+03 -1.137820e+01
4.262560e-02 -1.601330e+03 -4.099390e+02
4.000510e+02 -1.601340e+03 -4.098750e+02
2.668580e-02 -1.201390e+03 -4.113490e+02
4.000390e+02 -1.201400e+03 -4.113070e+02
2.445750e-03 -1.599990e+03 -1.005710e+01
3.999970e+02 -1.599990e+03 -9.995640e+00
1.473730e-03 -1.199980e+03 -1.137820e+01
3.999970e+02 -1.199990e+03 -1.134310e+01
-3.999860e+02 -1.201380e+03 -4.113590e+02
2.668580e-02 -1.201390e+03 -4.113490e+02
-3.999980e+02 -8.013780e+02 -4.127780e+02
1.223760e-02 -8.013740e+02 -4.127930e+02
-3.999940e+02 -1.199980e+03 -1.139880e+01
1.473730e-03 -1.199980e+03 -1.137820e+01
-3.999970e+02 -8.000110e+02 -1.275240e+01
-1.758910e-04 -8.000120e+02 -1.276500e+01
2.668580e-02 -1.201390e+03 -4.113490e+02
4.000390e+02 -1.201400e+03 -4.113070e+02
1.223760e-02 -8.013740e+02 -4.127930e+02
4.000220e+02 -8.013710e+02 -4.127800e+02
1.473730e-03 -1.199980e+03 -1.137820e+01
3.999970e+02 -1.199990e+03 -1.134310e+01
-1.758910e-04 -8.000120e+02 -1.276500e+01
3.999970e+02 -8.000130e+02 -1.276030e+01
-3.999980e+02 -8.013780e+02 -4.127780e+02
1.223760e-02 -8.013740e+02 -4.127930e+02
-4.000280e+02 -4.013080e+02 -4.140060e+02
-2.195960e-02 -4.012910e+02 -4.140460e+02
-3.999970e+02 -8.000110e+02 -1.275240e+01
-1.758910e-04 -8.000120e+02 -1.276500e+01
-3.999990e+02 -4.000410e+02 -1.399690e+01
-8.704670e-05 -4.000400e+02 -1.403610e+01
1.223760e-02 -8.013740e+02 -4.127930e+02
4.000220e+02 -8.013710e+02 -4.127800e+02
-2.195960e-02 -4.012910e+02 -4.140460e+02
3.999840e+02 -4.012790e+02 -4.140750e+02
-1.758910e-04 -8.000120e+02 -1.276500e+01
3.999970e+02 -8.000130e+02 -1.276030e+01
-8.704670e-05 -4.000400e+02 -1.403610e+01
3.999980e+02 -4.000390e+02 -1.406940e+01
-4.000280e+02 -4.013080e+02 -4.140060e+02
-2.195960e-02 -4.012910e+02 -4.140460e+02
-4.000670e+02 -1.297790e+00 -4.151610e+02
-6.612310e-02 -1.286530e+00 -4.152290e+02
-3.999990e+02 -4.000410e+02 -1.399690e+01
-8.704670e-05 -4.000400e+02 -1.403610e+01
-3.999980e+02 -4.141920e-02 -1.522030e+01
5.841090e-04 -4.061830e-02 -1.528420e+01
-2.195960e-02 -4.012910e+02 -4.140460e+02
3.999840e+02 -4.012790e+02 -4.140750e+02
[...]
<PointData>
<DataArray type="Float32" Name="V1" format="ascii">
0.000000e+00
0.000000e+00
-1.921290e-02
-5.586730e-03
0.000000e+00
0.000000e+00
7.671550e-04
-4.844790e-04
0.000000e+00
0.000000e+00
-5.586730e-03
8.105880e-03
0.000000e+00
0.000000e+00
-4.844790e-04
-1.729990e-03
-1.921290e-02
-5.586730e-03
-1.703200e-02
-6.556760e-03
7.671550e-04
-4.844790e-04
-5.580790e-05
-9.786780e-04
-5.586730e-03
8.105880e-03
-6.556760e-03
3.966540e-03
-4.844790e-04
-1.729990e-03
-9.786780e-04
-1.892500e-03
-1.703200e-02
-6.556760e-03
-3.450140e-04
-8.575070e-03
-5.580790e-05
-9.786780e-04
-1.954210e-03
-1.640680e-03
-6.556760e-03
3.966540e-03
-8.575070e-03
-1.675430e-02
-9.786780e-04
-1.892500e-03
-1.640680e-03
-1.218160e-03
-3.450140e-04
-8.575070e-03
9.861130e-03
-5.122550e-03
-1.954210e-03
-1.640680e-03
-3.355280e-03
-3.009660e-03
-8.575070e-03
-1.675430e-02
-5.122550e-03
-2.000350e-02
-1.640680e-03
-1.218160e-03
-3.009660e-03
-2.526280e-03
9.861130e-03
-5.122550e-03
1.722290e-02
5.379550e-03
-3.355280e-03
-3.009660e-03
-6.652750e-03
-6.964880e-03
-5.122550e-03
-2.000350e-02
5.379550e-03
-6.307550e-03
-3.009660e-03
-2.526280e-03
-6.964880e-03
-7.206260e-03
1.722290e-02
5.379550e-03
-5.231530e-03
5.489940e-05
-6.652750e-03
-6.964880e-03
-5.034400e-03
-6.579810e-03
5.379550e-03
-6.307550e-03
5.489940e-05
5.467300e-03
-6.964880e-03
-7.206260e-03
-6.579810e-03
-8.007870e-03
-5.231530e-03
5.489940e-05
-1.977390e-02
-5.925830e-03
-5.034400e-03
-6.579810e-03
-1.638820e-03
-4.406390e-03
5.489940e-05
5.467300e-03
-5.925830e-03
8.019230e-03
-6.579810e-03
-8.007870e-03
-4.406390e-03
-7.058590e-03
-1.977390e-02
-5.925830e-03
2.194730e-03
1.402720e-02
-1.638820e-03
-4.406390e-03
2.123030e-03
-1.258450e-03
-5.925830e-03
8.019230e-03
1.402720e-02
2.599490e-02
-4.406390e-03
-7.058590e-03
-1.258450e-03
-4.493600e-03
2.194730e-03
1.402720e-02
3.635850e-02
2.510810e-02
2.123030e-03
-1.258450e-03
1.930480e-03
-1.107830e-04
1.402720e-02
2.599490e-02
2.510810e-02
1.395240e-02
-1.258450e-03
-4.493600e-03
-1.107830e-04
-1.969670e-03
3.635850e-02
2.510810e-02
2.997920e-02
6.041270e-03
1.930480e-03
-1.107830e-04
-2.109020e-03
-1.542530e-03
2.510810e-02
1.395240e-02
6.041270e-03
-1.774010e-02
-1.107830e-04
-1.969670e-03
-1.542530e-03
-9.004380e-04
2.997920e-02
6.041270e-03
4.476160e-03
-5.833260e-03
-2.109020e-03
-1.542530e-03
-8.691830e-03
-4.079890e-03
6.041270e-03
-1.774010e-02
-5.833260e-03
-1.599400e-02
-1.542530e-03
-9.004380e-04
-4.079890e-03
6.694510e-04
4.476160e-03
-5.833260e-03
-1.792650e-02
-1.689530e-02
-8.691830e-03
-4.079890e-03
-9.951860e-03
-3.610700e-03
-5.833260e-03
-1.599400e-02
-1.689530e-02
-1.583330e-02
-4.079890e-03
6.694510e-04
-3.610700e-03
2.866400e-03
-1.792650e-02
-1.689530e-02
-3.512520e-02
-2.708510e-02
-9.951860e-03
-3.610700e-03
-4.923440e-03
-8.094430e-04
-1.689530e-02
-1.583330e-02
-2.708510e-02
-1.902250e-02
-3.610700e-03
2.866400e-03
-8.094430e-04
3.353610e-03
-3.512520e-02
-2.708510e-02
-9.068860e-03
-1.447540e-02
-4.923440e-03
-8.094430e-04
-1.553130e-03
3.144380e-04
-2.708510e-02
-1.902250e-02
-1.447540e-02
-1.987020e-02
-8.094430e-04
3.353610e-03
3.144380e-04
2.193200e-03
-9.068860e-03
-1.447540e-02
1.018850e-02
-5.418690e-03
-1.553130e-03
3.144380e-04
3.675150e-04
1.577130e-03
-1.447540e-02
-1.987020e-02
-5.418690e-03
-2.098670e-02
3.144380e-04
2.193200e-03
1.577130e-03
2.824790e-03
1.018850e-02
-5.418690e-03
1.867610e-02
-5.342030e-04
3.675150e-04
1.577130e-03
-2.174710e-03
8.712270e-04
-5.418690e-03
-2.098670e-02
-5.342030e-04
-1.959290e-02
1.577130e-03
2.824790e-03
8.712270e-04
4.044010e-03
1.867610e-02
-5.342030e-04
1.680490e-02
1.208380e-02
-2.174710e-03
8.712270e-04
-2.720990e-03
3.044990e-03
-5.342030e-04
-1.959290e-02
1.208380e-02
7.451740e-03
8.712270e-04
4.044010e-03
3.044990e-03
8.904850e-03
1.680490e-02
1.208380e-02
1.189250e-02
2.130300e-02
-2.720990e-03
3.044990e-03
-3.793460e-03
5.061040e-04
1.208380e-02
7.451740e-03
2.130300e-02
3.082300e-02
3.044990e-03
8.904850e-03
5.061040e-04
4.865990e-03
1.189250e-02
2.130300e-02
-5.997450e-03
7.351430e-04
-3.793460e-03
5.061040e-04
3.957910e-04
2.194160e-03
2.130300e-02
3.082300e-02
7.351430e-04
7.530930e-03
5.061040e-04
4.865990e-03
2.194160e-03
4.011480e-03
-5.997450e-03
7.351430e-04
-5.208600e-03
-8.925790e-03
3.957910e-04
2.194160e-03
3.618640e-03
3.033910e-03
7.351430e-04
7.530930e-03
-8.925790e-03
-1.276420e-02
2.194160e-03
4.011480e-03
3.033910e-03
2.440410e-03
-5.208600e-03
-8.925790e-03
2.346610e-02
8.353500e-03
3.618640e-03
3.033910e-03
9.072460e-03
6.173970e-03
-8.925790e-03
-1.276420e-02
8.353500e-03
-6.773260e-03
3.033910e-03
2.440410e-03
6.173970e-03
3.341210e-03
2.346610e-02
8.353500e-03
2.309650e-02
1.011330e-02
9.072460e-03
6.173970e-03
6.714360e-03
3.799610e-03
8.353500e-03
-6.773260e-03
1.011330e-02
-2.815570e-03
6.173970e-03
3.341210e-03
3.799610e-03
8.884700e-04
2.309650e-02
1.011330e-02
-2.648540e-02
-1.279810e-02
6.714360e-03
3.799610e-03
4.631380e-03
-8.790310e-05
1.011330e-02
-2.815570e-03
-1.279810e-02
8.272740e-04
3.799610e-03
8.884700e-04
-8.790310e-05
-4.918100e-03
-2.648540e-02
-1.279810e-02
-6.280280e-02
-3.042960e-02
4.631380e-03
-8.790310e-05
7.337990e-03
2.056220e-04
-1.279810e-02
8.272740e-04
-3.042960e-02
1.850160e-03
-8.790310e-05
-4.918100e-03
2.056220e-04
-7.054100e-03
-6.280280e-02
-3.042960e-02
-5.401650e-02
-3.189730e-02
7.337990e-03
2.056220e-04
7.080310e-03
-2.167550e-04
-3.042960e-02
1.850160e-03
-3.189730e-02
-9.906370e-03
2.056220e-04
-7.054100e-03
-2.167550e-04
-7.566140e-03
-5.401650e-02
-3.189730e-02
-1.400120e-02
-1.908270e-02
7.080310e-03
-2.167550e-04
5.849670e-03
1.202610e-03
-3.189730e-02
-9.906370e-03
-1.908270e-02
-2.443530e-02
-2.167550e-04
-7.566140e-03
1.202610e-03
-3.586980e-03
-1.400120e-02
-1.908270e-02
2.319300e-02
1.088640e-03
5.849670e-03
1.202610e-03
8.083250e-04
1.591310e-03
-1.908270e-02
-2.443530e-02
1.088640e-03
-2.110110e-02
1.202610e-03
-3.586980e-03
1.591310e-03
2.211410e-03
2.319300e-02
1.088640e-03
2.758650e-02
1.705520e-02
8.083250e-04
1.591310e-03
-4.368790e-03
-1.341700e-03
1.088640e-03
-2.110110e-02
1.705520e-02
6.377560e-03
1.591310e-03
2.211410e-03
-1.341700e-03
1.535850e-03
2.758650e-02
1.705520e-02
1.775170e-02
2.511650e-02
-4.368790e-03
-1.341700e-03
-4.845200e-03
-3.844180e-03
1.705520e-02
6.377560e-03
2.511650e-02
3.228730e-02
-1.341700e-03
1.535850e-03
-3.844180e-03
-2.988780e-03
1.775170e-02
2.511650e-02
8.701940e-03
3.185560e-02
-4.845200e-03
-3.844180e-03
-4.746360e-03
-5.993300e-03
2.511650e-02
3.228730e-02
3.185560e-02
5.489400e-02
-3.844180e-03
-2.988780e-03
-5.993300e-03
-7.303770e-03
0.000000e+00
0.000000e+00
7.671550e-04
-4.844790e-04
0.000000e+00
0.000000e+00
1.749770e-02
6.320760e-03
0.000000e+00
0.000000e+00
-4.844790e-04
-1.729990e-03
0.000000e+00
0.000000e+00
6.320760e-03
-4.831340e-03
7.671550e-04
-4.844790e-04
-5.580790e-05
-9.786780e-04
1.749770e-02
6.320760e-03
1.714110e-02
8.460410e-03
-4.844790e-04
-1.729990e-03
-9.786780e-04
-1.892500e-03
6.320760e-03
-4.831340e-03
8.460410e-03
-2.173530e-04
-5.580790e-05
-9.786780e-04
-1.954210e-03
-1.640680e-03
1.714110e-02
8.460410e-03
3.714920e-03
1.153980e-02
-9.786780e-04
-1.892500e-03
-1.640680e-03
-1.218160e-03
8.460410e-03
-2.173530e-04
1.153980e-02
1.954200e-02
-1.954210e-03
-1.640680e-03
-3.355280e-03
-3.009660e-03
3.714920e-03
1.153980e-02
-2.838350e-03
1.095010e-02
-1.640680e-03
-1.218160e-03
-3.009660e-03
-2.526280e-03
1.153980e-02
1.954200e-02
1.095010e-02
2.487090e-02
-3.355280e-03
-3.009660e-03
-6.652750e-03
-6.964880e-03
-2.838350e-03
1.095010e-02
-3.295200e-03
8.762960e-03
-3.009660e-03
-2.526280e-03
-6.964880e-03
-7.206260e-03
1.095010e-02
2.487090e-02
8.762960e-03
2.074660e-02
-6.652750e-03
-6.964880e-03
-5.034400e-03
-6.579810e-03
-3.295200e-03
8.762960e-03
1.520330e-02
1.278580e-02
-6.964880e-03
-7.206260e-03
-6.579810e-03
-8.007870e-03
8.762960e-03
2.074660e-02
1.278580e-02
1.050570e-02
-5.034400e-03
-6.579810e-03
-1.638820e-03
-4.406390e-03
1.520330e-02
1.278580e-02
2.310080e-02
1.453440e-02
-6.579810e-03
-8.007870e-03
-4.406390e-03
-7.058590e-03
1.278580e-02
1.050570e-02
1.453440e-02
6.154370e-03
-1.638820e-03
-4.406390e-03
2.123030e-03
-1.258450e-03
2.310080e-02
1.453440e-02
-5.890130e-03
-1.110960e-02
-4.406390e-03
-7.058590e-03
-1.258450e-03
-4.493600e-03
1.453440e-02
6.154370e-03
-1.110960e-02
-1.615060e-02
2.123030e-03
-1.258450e-03
1.930480e-03
-1.107830e-04
-5.890130e-03
-1.110960e-02
-4.034590e-02
-2.521210e-02
-1.258450e-03
-4.493600e-03
-1.107830e-04
-1.969670e-03
-1.110960e-02
-1.615060e-02
-2.521210e-02
-9.842230e-03
1.930480e-03
-1.107830e-04
-2.109020e-03
-1.542530e-03
-4.034590e-02
-2.521210e-02
-2.565600e-02
-3.304470e-03
-1.107830e-04
-1.969670e-03
-1.542530e-03
-9.004380e-04
-2.521210e-02
-9.842230e-03
-3.304470e-03
1.901520e-02
-2.109020e-03
-1.542530e-03
-8.691830e-03
-4.079890e-03
-2.565600e-02
-3.304470e-03
1.291040e-02
1.363540e-02
-1.542530e-03
-9.004380e-04
-4.079890e-03
6.694510e-04
-3.304470e-03
1.901520e-02
1.363540e-02
1.440690e-02
-8.691830e-03
-4.079890e-03
-9.951860e-03
-3.610700e-03
1.291040e-02
1.363540e-02
3.821350e-02
2.422510e-02
-4.079890e-03
6.694510e-04
-3.610700e-03
2.866400e-03
1.363540e-02
1.440690e-02
2.422510e-02
1.047320e-02
-9.951860e-03
-3.610700e-03
-4.923440e-03
-8.094430e-04
3.821350e-02
2.422510e-02
4.451460e-02
2.860200e-02
-3.610700e-03
2.866400e-03
-8.094430e-04
3.353610e-03
2.422510e-02
1.047320e-02
2.860200e-02
1.276060e-02
-4.923440e-03
-8.094430e-04
-1.553130e-03
3.144380e-04
4.451460e-02
2.860200e-02
1.285640e-02
1.424940e-02
-8.094430e-04
3.353610e-03
3.144380e-04
2.193200e-03
2.860200e-02
1.276060e-02
1.424940e-02
1.562780e-02
-1.553130e-03
3.144380e-04
3.675150e-04
1.577130e-03
1.285640e-02
1.424940e-02
-1.133710e-02
1.764490e-03
3.144380e-04
2.193200e-03
1.577130e-03
2.824790e-03
1.424940e-02
1.562780e-02
1.764490e-03
1.488570e-02
3.675150e-04
1.577130e-03
-2.174710e-03
8.712270e-04
-1.133710e-02
1.764490e-03
-1.411100e-02
-1.316330e-03
1.577130e-03
2.824790e-03
8.712270e-04
4.044010e-03
1.764490e-03
1.488570e-02
-1.316330e-03
1.155250e-02
-2.174710e-03
8.712270e-04
-2.720990e-03
3.044990e-03
-1.411100e-02
-1.316330e-03
-1.145240e-02
-1.822730e-02
8.712270e-04
4.044010e-03
3.044990e-03
8.904850e-03
-1.316330e-03
1.155250e-02
-1.822730e-02
-2.495720e-02
-2.720990e-03
3.044990e-03
-3.793460e-03
5.061040e-04
-1.145240e-02
-1.822730e-02
-4.449180e-03
-2.237670e-02
3.044990e-03
8.904850e-03
5.061040e-04
4.865990e-03
-1.822730e-02
-2.495720e-02
-2.237670e-02
-4.033590e-02
-3.793460e-03
5.061040e-04
3.957910e-04
2.194160e-03
-4.449180e-03
-2.237670e-02
5.561280e-03
-4.773500e-03
5.061040e-04
4.865990e-03
2.194160e-03
4.011480e-03
-2.237670e-02
-4.033590e-02
-4.773500e-03
-1.512910e-02
3.957910e-04
2.194160e-03
3.618640e-03
3.033910e-03
5.561280e-03
-4.773500e-03
-2.873180e-03
2.372220e-03
2.194160e-03
4.011480e-03
3.033910e-03
2.440410e-03
-4.773500e-03
-1.512910e-02
2.372220e-03
7.699350e-03
3.618640e-03
3.033910e-03
9.072460e-03
6.173970e-03
-2.873180e-03
2.372220e-03
-4.071970e-02
-2.030280e-02
3.033910e-03
2.440410e-03
6.173970e-03
3.341210e-03
2.372220e-03
7.699350e-03
-2.030280e-02
2.594520e-04
9.072460e-03
6.173970e-03
6.714360e-03
3.799610e-03
-4.071970e-02
-2.030280e-02
-3.656020e-02
-1.762630e-02
6.173970e-03
3.341210e-03
3.799610e-03
8.884700e-04
-2.030280e-02
2.594520e-04
-1.762630e-02
1.284030e-03
6.714360e-03
3.799610e-03
4.631380e-03
-8.790310e-05
-3.656020e-02
-1.762630e-02
1.672790e-02
1.300460e-02
3.799610e-03
8.884700e-04
-8.790310e-05
-4.918100e-03
-1.762630e-02
1.284030e-03
1.300460e-02
9.115100e-03
4.631380e-03
-8.790310e-05
7.337990e-03
2.056220e-04
1.672790e-02
1.300460e-02
4.847300e-02
3.028380e-02
-8.790310e-05
-4.918100e-03
2.056220e-04
-7.054100e-03
1.300460e-02
9.115100e-03
3.028380e-02
1.190030e-02
7.337990e-03
2.056220e-04
7.080310e-03
-2.167550e-04
4.847300e-02
3.028380e-02
3.889140e-02
3.174310e-02
2.056220e-04
-7.054100e-03
-2.167550e-04
-7.566140e-03
3.028380e-02
1.190030e-02
3.174310e-02
2.457230e-02
7.080310e-03
-2.167550e-04
5.849670e-03
1.202610e-03
3.889140e-02
3.174310e-02
2.885980e-03
1.735400e-02
-2.167550e-04
-7.566140e-03
1.202610e-03
-3.586980e-03
3.174310e-02
2.457230e-02
1.735400e-02
3.181200e-02
5.849670e-03
1.202610e-03
8.083250e-04
1.591310e-03
2.885980e-03
1.735400e-02
-2.462540e-02
-4.142790e-03
1.202610e-03
-3.586980e-03
1.591310e-03
2.211410e-03
1.735400e-02
3.181200e-02
-4.142790e-03
1.609540e-02
8.083250e-04
1.591310e-03
-4.368790e-03
-1.341700e-03
-2.462540e-02
-4.142790e-03
-1.882160e-02
-1.413960e-02
1.591310e-03
2.211410e-03
-1.341700e-03
1.535850e-03
-4.142790e-03
1.609540e-02
-1.413960e-02
-9.619790e-03
-4.368790e-03
-1.341700e-03
-4.845200e-03
-3.844180e-03
-1.882160e-02
-1.413960e-02
-8.347490e-03
-1.684900e-02
-1.341700e-03
1.535850e-03
-3.844180e-03
-2.988780e-03
-1.413960e-02
-9.619790e-03
-1.684900e-02
-2.548950e-02
-4.845200e-03
-3.844180e-03
-4.746360e-03
-5.993300e-03
-8.347490e-03
-1.684900e-02
5.069110e-04
-2.099630e-02
-3.844180e-03
-2.988780e-03
-5.993300e-03
-7.303770e-03
-1.684900e-02
-2.548950e-02
-2.099630e-02
-4.259840e-02
</DataArray>
<DataArray type="Float32" Name="V2" format="ascii">
0.000000e+00
0.000000e+00
4.137750e-02
3.817960e-02
0.000000e+00
0.000000e+00
-1.047430e-02
-9.726660e-03
0.000000e+00
0.000000e+00
3.817960e-02
2.079310e-02
0.000000e+00
0.000000e+00
-9.726660e-03
-9.820270e-03
4.137750e-02
3.817960e-02
3.488290e-02
3.141150e-02
-1.047430e-02
-9.726660e-03
-4.149380e-03
-3.378450e-03
3.817960e-02
2.079310e-02
3.141150e-02
2.583450e-02
-9.726660e-03
-9.820270e-03
-3.378450e-03
-4.804070e-03
3.488290e-02
3.141150e-02
-1.210140e-02
-9.486410e-03
-4.149380e-03
-3.378450e-03
2.066650e-03
2.266460e-03
3.141150e-02
2.583450e-02
-9.486410e-03
-1.195000e-02
-3.378450e-03
-4.804070e-03
2.266460e-03
5.076680e-03
-1.210140e-02
-9.486410e-03
-5.715560e-03
-1.185580e-02
2.066650e-03
2.266460e-03
-4.287720e-03
-4.361690e-05
-9.486410e-03
-1.195000e-02
-1.185580e-02
-3.045830e-02
2.266460e-03
5.076680e-03
-4.361690e-05
6.740900e-03
-5.715560e-03
-1.185580e-02
2.793460e-02
1.876030e-02
-4.287720e-03
-4.361690e-05
-9.266240e-03
-4.553720e-03
-1.185580e-02
-3.045830e-02
1.876030e-02
-5.518490e-03
-4.361690e-05
6.740900e-03
-4.553720e-03
-1.358500e-03
2.793460e-02
1.876030e-02
2.552230e-02
3.329160e-02
-9.266240e-03
-4.553720e-03
-1.079860e-02
-7.740550e-03
1.876030e-02
-5.518490e-03
3.329160e-02
3.536680e-02
-4.553720e-03
-1.358500e-03
-7.740550e-03
-6.145250e-03
2.552230e-02
3.329160e-02
1.648360e-03
8.495740e-03
-1.079860e-02
-7.740550e-03
-1.087280e-02
-1.074990e-02
3.329160e-02
3.536680e-02
8.495740e-03
2.433720e-02
-7.740550e-03
-6.145250e-03
-1.074990e-02
-1.057100e-02
1.648360e-03
8.495740e-03
-2.881140e-02
-3.829930e-02
-1.087280e-02
-1.074990e-02
-2.127840e-03
-3.603120e-03
8.495740e-03
2.433720e-02
-3.829930e-02
-2.080200e-02
-1.074990e-02
-1.057100e-02
-3.603120e-03
-5.231390e-03
-2.881140e-02
-3.829930e-02
-3.419460e-02
-3.263250e-02
-2.127840e-03
-3.603120e-03
9.804550e-04
5.454880e-04
-3.829930e-02
-2.080200e-02
-3.263250e-02
-5.423340e-03
-3.603120e-03
-5.231390e-03
5.454880e-04
-6.626430e-06
-3.419460e-02
-3.263250e-02
2.133480e-02
3.285520e-02
9.804550e-04
5.454880e-04
-6.272700e-03
-5.078840e-03
-3.263250e-02
-5.423340e-03
3.285520e-02
4.154640e-02
5.454880e-04
-6.626430e-06
-5.078840e-03
-6.745230e-03
2.133480e-02
3.285520e-02
4.754670e-02
5.111140e-02
-6.272700e-03
-5.078840e-03
-2.275060e-03
-6.794230e-04
3.285520e-02
4.154640e-02
5.111140e-02
4.286120e-02
-5.078840e-03
-6.745230e-03
-6.794230e-04
-3.733060e-03
4.754670e-02
5.111140e-02
-1.667150e-03
3.863090e-03
-2.275060e-03
-6.794230e-04
1.331680e-02
1.217840e-02
5.111140e-02
4.286120e-02
3.863090e-03
-1.508420e-03
-6.794230e-04
-3.733060e-03
1.217840e-02
1.198260e-02
-1.667150e-03
3.863090e-03
-4.404150e-02
-4.034370e-02
1.331680e-02
1.217840e-02
1.823500e-02
1.685760e-02
3.863090e-03
-1.508420e-03
-4.034370e-02
-3.430490e-02
1.217840e-02
1.198260e-02
1.685760e-02
1.642150e-02
-4.404150e-02
-4.034370e-02
-5.393210e-02
-5.296440e-02
1.823500e-02
1.685760e-02
1.318320e-02
1.107750e-02
-4.034370e-02
-3.430490e-02
-5.296440e-02
-3.194320e-02
1.685760e-02
1.642150e-02
1.107750e-02
7.547670e-03
-5.393210e-02
-5.296440e-02
-4.223160e-02
-3.676100e-02
1.318320e-02
1.107750e-02
7.870570e-03
4.926400e-03
-5.296440e-02
-3.194320e-02
-3.676100e-02
-8.690660e-03
1.107750e-02
7.547670e-03
4.926400e-03
3.427450e-03
-4.223160e-02
-3.676100e-02
-1.281490e-02
-8.453940e-03
7.870570e-03
4.926400e-03
-2.317240e-03
-6.246750e-04
-3.676100e-02
-8.690660e-03
-8.453940e-03
2.234120e-03
4.926400e-03
3.427450e-03
-6.246750e-04
3.805080e-04
-1.281490e-02
-8.453940e-03
-1.730740e-03
4.304410e-03
-2.317240e-03
-6.246750e-04
-8.969460e-03
-7.543810e-03
-8.453940e-03
2.234120e-03
4.304410e-03
-8.240510e-03
-6.246750e-04
3.805080e-04
-7.543810e-03
-4.056410e-03
-1.730740e-03
4.304410e-03
-1.920830e-02
-1.179980e-02
-8.969460e-03
-7.543810e-03
-6.139860e-03
-5.489630e-03
4.304410e-03
-8.240510e-03
-1.179980e-02
-1.456580e-02
-7.543810e-03
-4.056410e-03
-5.489630e-03
-1.280450e-03
-1.920830e-02
-1.179980e-02
4.361680e-03
-3.696960e-03
-6.139860e-03
-5.489630e-03
-1.985240e-04
1.858030e-03
-1.179980e-02
-1.456580e-02
-3.696960e-03
-6.518890e-03
-5.489630e-03
-1.280450e-03
1.858030e-03
1.694760e-03
4.361680e-03
-3.696960e-03
5.568740e-02
2.230450e-02
-1.985240e-04
1.858030e-03
6.744220e-04
1.617690e-03
-3.696960e-03
-6.518890e-03
2.230450e-02
-4.279450e-03
1.858030e-03
1.694760e-03
1.617690e-03
3.199960e-03
5.568740e-02
2.230450e-02
3.723990e-02
7.628000e-03
6.744220e-04
1.617690e-03
2.030560e-03
1.765450e-03
2.230450e-02
-4.279450e-03
7.628000e-03
-1.794950e-02
1.617690e-03
3.199960e-03
1.765450e-03
2.911160e-03
3.723990e-02
7.628000e-03
-5.458610e-03
4.926490e-03
2.030560e-03
1.765450e-03
1.252940e-03
8.390160e-04
7.628000e-03
-1.794950e-02
4.926490e-03
-3.577970e-03
1.765450e-03
2.911160e-03
8.390160e-04
-3.610680e-04
-5.458610e-03
4.926490e-03
-2.246580e-02
6.219260e-03
1.252940e-03
8.390160e-04
9.973530e-04
1.785900e-03
4.926490e-03
-3.577970e-03
6.219260e-03
2.411220e-03
8.390160e-04
-3.610680e-04
1.785900e-03
1.871410e-03
-2.246580e-02
6.219260e-03
-2.453640e-02
-1.227870e-02
9.973530e-04
1.785900e-03
5.971420e-03
7.442170e-03
6.219260e-03
2.411220e-03
-1.227870e-02
-1.636680e-02
1.785900e-03
1.871410e-03
7.442170e-03
7.889410e-03
-2.453640e-02
-1.227870e-02
4.198100e-04
-3.267870e-03
5.971420e-03
7.442170e-03
2.663720e-03
2.941630e-03
-1.227870e-02
-1.636680e-02
-3.267870e-03
-5.357080e-03
7.442170e-03
7.889410e-03
2.941630e-03
5.095050e-03
4.198100e-04
-3.267870e-03
4.446320e-02
3.361000e-02
2.663720e-03
2.941630e-03
-9.255000e-03
-9.495310e-03
-3.267870e-03
-5.357080e-03
3.361000e-02
2.400330e-02
2.941630e-03
5.095050e-03
-9.495310e-03
-8.499700e-03
4.446320e-02
3.361000e-02
2.964470e-02
1.889930e-02
-9.255000e-03
-9.495310e-03
-8.689610e-03
-7.046170e-03
3.361000e-02
2.400330e-02
1.889930e-02
9.093650e-03
-9.495310e-03
-8.499700e-03
-7.046170e-03
-7.143160e-03
2.964470e-02
1.889930e-02
-4.247870e-02
-4.857930e-02
-8.689610e-03
-7.046170e-03
4.033860e-03
4.464960e-03
1.889930e-02
9.093650e-03
-4.857930e-02
-4.934120e-02
-7.046170e-03
-7.143160e-03
4.464960e-03
4.444750e-03
-4.247870e-02
-4.857930e-02
-4.898160e-02
-4.871670e-02
4.033860e-03
4.464960e-03
1.435870e-03
-9.073930e-05
-4.857930e-02
-4.934120e-02
-4.871670e-02
-5.531190e-02
4.464960e-03
4.444750e-03
-9.073930e-05
-1.967200e-03
-4.898160e-02
-4.871670e-02
-2.151620e-02
-1.746210e-02
1.435870e-03
-9.073930e-05
-7.513040e-03
-8.214590e-03
-4.871670e-02
-5.531190e-02
-1.746210e-02
-3.096980e-02
-9.073930e-05
-1.967200e-03
-8.214590e-03
-9.401460e-03
0.000000e+00
0.000000e+00
-1.047430e-02
-9.726660e-03
0.000000e+00
0.000000e+00
-1.950980e-02
-1.812840e-02
0.000000e+00
0.000000e+00
-9.726660e-03
-9.820270e-03
0.000000e+00
0.000000e+00
-1.812840e-02
-2.739700e-03
-1.047430e-02
-9.726660e-03
-4.149380e-03
-3.378450e-03
-1.950980e-02
-1.812840e-02
-2.717790e-02
-2.426320e-02
-9.726660e-03
-9.820270e-03
-3.378450e-03
-4.804070e-03
-1.812840e-02