<?xml version="1.0"?>
<VTKFile type="UnstructuredGrid" version="0.1" byte_order="LittleEndian" compressor="vtkZLibDataCompressor">
<UnstructuredGrid>
<Piece NumberOfPoints="960" NumberOfCells="120">
<Points>
<DataArray type="Float32" NumberOfComponents="3" format="ascii">
-4.000000e+02 -6.000000e+03 -4.000000e+02
0.000000e+00 -6.000000e+03 -4.000000e+02
-3.999800e+02 -5.600600e+03 -4.004010e+02
2.039310e-02 -5.600600e+03 -4.004080e+02
-4.000000e+02 -6.000000e+03 0.000000e+00
0.000000e+00 -6.000000e+03 0.000000e+00
-3.999960e+02 -5.600000e+03 -4.077830e-01
3.675300e-03 -5.600000e+03 -4.139660e-01
0.000000e+00 -6.000000e+03 -4.000000e+02
4.000000e+02 -6.000000e+03 -4.000000e+02
2.039310e-02 -5.600600e+03 -4.004080e+02
4.000220e+02 -5.600620e+03 -4.004200e+02
0.000000e+00 -6.000000e+03 0.000000e+00
4.000000e+02 -6.000000e+03 0.000000e+00
3.675300e-03 -5.600000e+03 -4.139660e-01
4.000040e+02 -5.600000e+03 -4.208460e-01
-3.999800e+02 -5.600600e+03 -4.004010e+02
2.039310e-02 -5.600600e+03 -4.004080e+02
-3.999690e+02 -5.201220e+03 -4.014190e+02
3.530000e-02 -5.201230e+03 -4.014010e+02
-3.999960e+02 -5.600000e+03 -4.077830e-01
3.675300e-03 -5.600000e+03 -4.139660e-01
-3.999940e+02 -5.200000e+03 -1.420130e+00
6.258880e-03 -5.200000e+03 -1.395570e+00
2.039310e-02 -5.600600e+03 -4.004080e+02
4.000220e+02 -5.600620e+03 -4.004200e+02
3.530000e-02 -5.201230e+03 -4.014010e+02
4.000400e+02 -5.201220e+03 -4.013820e+02
3.675300e-03 -5.600000e+03 -4.139660e-01
4.000040e+02 -5.600000e+03 -4.208460e-01
6.258880e-03 -5.200000e+03 -1.395570e+00
4.000060e+02 -5.200000e+03 -1.365090e+00
-3.999690e+02 -5.201220e+03 -4.014190e+02
3.530000e-02 -5.201230e+03 -4.014010e+02
-3.999850e+02 -4.801890e+03 -4.030690e+02
2.232080e-02 -4.801910e+03 -4.030380e+02
-3.999940e+02 -5.200000e+03 -1.420130e+00
6.258880e-03 -5.200000e+03 -1.395570e+00
-3.999940e+02 -4.800010e+03 -3.086900e+00
7.120520e-03 -4.800010e+03 -3.044560e+00
3.530000e-02 -5.201230e+03 -4.014010e+02
4.000400e+02 -5.201220e+03 -4.013820e+02
2.232080e-02 -4.801910e+03 -4.030380e+02
4.000300e+02 -4.801920e+03 -4.029930e+02
6.258880e-03 -5.200000e+03 -1.395570e+00
4.000060e+02 -5.200000e+03 -1.365090e+00
7.120520e-03 -4.800010e+03 -3.044560e+00
4.000080e+02 -4.800010e+03 -2.981380e+00
-3.999850e+02 -4.801890e+03 -4.030690e+02
2.232080e-02 -4.801910e+03 -4.030380e+02
-4.000220e+02 -4.402580e+03 -4.053140e+02
-1.248030e-02 -4.402620e+03 -4.053310e+02
-3.999940e+02 -4.800010e+03 -3.086900e+00
7.120520e-03 -4.800010e+03 -3.044560e+00
-3.999990e+02 -4.400010e+03 -5.346640e+00
3.752730e-03 -4.400010e+03 -5.361490e+00
2.232080e-02 -4.801910e+03 -4.030380e+02
4.000300e+02 -4.801920e+03 -4.029930e+02
-1.248030e-02 -4.402620e+03 -4.053310e+02
3.999970e+02 -4.402650e+03 -4.053290e+02
7.120520e-03 -4.800010e+03 -3.044560e+00
4.000080e+02 -4.800010e+03 -2.981380e+00
3.752730e-03 -4.400010e+03 -5.361490e+00
4.000070e+02 -4.400020e+03 -5.343920e+00
-4.000220e+02 -4.402580e+03 -4.053140e+02
-1.248030e-02 -4.402620e+03 -4.053310e+02
-4.000650e+02 -4.003260e+03 -4.082520e+02
-6.691400e-02 -4.003280e+03 -4.083310e+02
-3.999990e+02 -4.400010e+03 -5.346640e+00
3.752730e-03 -4.400010e+03 -5.361490e+00
-4.000020e+02 -4.000010e+03 -8.268600e+00
8.546820e-04 -4.000010e+03 -8.350020e+00
-1.248030e-02 -4.402620e+03 -4.053310e+02
3.999970e+02 -4.402650e+03 -4.053290e+02
-6.691400e-02 -4.003280e+03 -4.083310e+02
3.999310e+02 -4.003300e+03 -4.084070e+02
3.752730e-03 -4.400010e+03 -5.361490e+00
4.000070e+02 -4.400020e+03 -5.343920e+00
8.546820e-04 -4.000010e+03 -8.350020e+00
4.000040e+02 -4.000010e+03 -8.416430e+00
-4.000650e+02 -4.003260e+03 -4.082520e+02
-6.691400e-02 -4.003280e+03 -4.083310e+02
-4.000960e+02 -3.603760e+03 -4.118440e+02
-1.095800e-01 -3.603760e+03 -4.119530e+02
-4.000020e+02 -4.000010e+03 -8.268600e+00
8.546820e-04 -4.000010e+03 -8.350020e+00
-3.999980e+02 -3.600030e+03 -1.184240e+01
2.791130e-03 -3.600030e+03 -1.194800e+01
-6.691400e-02 -4.003280e+03 -4.083310e+02
3.999310e+02 -4.003300e+03 -4.084070e+02
-1.095800e-01 -3.603760e+03 -4.119530e+02
3.998770e+02 -3.603770e+03 -4.120720e+02
8.546820e-04 -4.000010e+03 -8.350020e+00
4.000040e+02 -4.000010e+03 -8.416430e+00
2.791130e-03 -3.600030e+03 -1.194800e+01
4.000040e+02 -3.600030e+03 -1.206130e+01
-4.000960e+02 -3.603760e+03 -4.118440e+02
-1.095800e-01 -3.603760e+03 -4.119530e+02
-4.000900e+02 -3.204150e+03 -4.157260e+02
-1.043250e-01 -3.204150e+03 -4.158290e+02
-3.999980e+02 -3.600030e+03 -1.184240e+01
2.791130e-03 -3.600030e+03 -1.194800e+01
-3.999950e+02 -3.200060e+03 -1.573590e+01
3.054200e-03 -3.200060e+03 -1.582950e+01
-1.095800e-01 -3.603760e+03 -4.119530e+02
3.998770e+02 -3.603770e+03 -4.120720e+02
-1.043250e-01 -3.204150e+03 -4.158290e+02
3.998820e+02 -3.204160e+03 -4.159440e+02
2.791130e-03 -3.600030e+03 -1.194800e+01
4.000040e+02 -3.600030e+03 -1.206130e+01
3.054200e-03 -3.200060e+03 -1.582950e+01
4.000020e+02 -3.200060e+03 -1.593900e+01
-4.000900e+02 -3.204150e+03 -4.157260e+02
-1.043250e-01 -3.204150e+03 -4.158290e+02
-4.000630e+02 -2.804650e+03 -4.200230e+02
-6.230690e-02 -2.804630e+03 -4.201090e+02
-3.999950e+02 -3.200060e+03 -1.573590e+01
3.054200e-03 -3.200060e+03 -1.582950e+01
-3.999970e+02 -2.800080e+03 -2.005060e+01
3.978210e-04 -2.800080e+03 -2.012880e+01
-1.043250e-01 -3.204150e+03 -4.158290e+02
3.998820e+02 -3.204160e+03 -4.159440e+02
-6.230690e-02 -2.804630e+03 -4.201090e+02
3.999380e+02 -2.804640e+03 -4.201850e+02
3.054200e-03 -3.200060e+03 -1.582950e+01
4.000020e+02 -3.200060e+03 -1.593900e+01
3.978210e-04 -2.800080e+03 -2.012880e+01
3.999980e+02 -2.800090e+03 -2.020670e+01
-4.000630e+02 -2.804650e+03 -4.200230e+02
-6.230690e-02 -2.804630e+03 -4.201090e+02
-4.000480e+02 -2.405160e+03 -4.248910e+02
-3.234970e-02 -2.405120e+03 -4.249560e+02
-3.999970e+02 -2.800080e+03 -2.005060e+01
3.978210e-04 -2.800080e+03 -2.012880e+01
-4.000010e+02 -2.400110e+03 -2.492790e+01
-3.598260e-03 -2.400110e+03 -2.499350e+01
-6.230690e-02 -2.804630e+03 -4.201090e+02
3.999380e+02 -2.804640e+03 -4.201850e+02
-3.234970e-02 -2.405120e+03 -4.249560e+02
3.999830e+02 -2.405110e+03 -4.249980e+02
3.978210e-04 -2.800080e+03 -2.012880e+01
3.999980e+02 -2.800090e+03 -2.020670e+01
-3.598260e-03 -2.400110e+03 -2.499350e+01
3.999940e+02 -2.400110e+03 -2.504710e+01
-4.000480e+02 -2.405160e+03 -4.248910e+02
-3.234970e-02 -2.405120e+03 -4.249560e+02
-4.000390e+02 -2.005630e+03 -4.301420e+02
-2.162040e-02 -2.005600e+03 -4.301660e+02
-4.000010e+02 -2.400110e+03 -2.492790e+01
-3.598260e-03 -2.400110e+03 -2.499350e+01
-4.000060e+02 -2.000140e+03 -3.017740e+01
-6.137300e-03 -2.000140e+03 -3.021030e+01
-3.234970e-02 -2.405120e+03 -4.249560e+02
3.999830e+02 -2.405110e+03 -4.249980e+02
-2.162040e-02 -2.005600e+03 -4.301660e+02
3.999960e+02 -2.005560e+03 -4.301770e+02
-3.598260e-03 -2.400110e+03 -2.499350e+01
3.999940e+02 -2.400110e+03 -2.504710e+01
-6.137300e-03 -2.000140e+03 -3.021030e+01
3.999940e+02 -2.000140e+03 -3.023130e+01
-4.000390e+02 -2.005630e+03 -4.301420e+02
-2.162040e-02 -2.005600e+03 -4.301660e+02
-3.999960e+02 -1.606150e+03 -4.358770e+02
8.983150e-04 -1.606140e+03 -4.358430e+02
-4.000060e+02 -2.000140e+03 -3.017740e+01
-6.137300e-03 -2.000140e+03 -3.021030e+01
-4.000080e+02 -1.600170e+03 -3.590630e+01
-4.994640e-03 -1.600170e+03 -3.589140e+01
-2.162040e-02 -2.005600e+03 -4.301660e+02
3.999960e+02 -2.005560e+03 -4.301770e+02
8.983150e-04 -1.606140e+03 -4.358430e+02
3.999980e+02 -1.606120e+03 -4.358250e+02
-6.137300e-03 -2.000140e+03 -3.021030e+01
3.999940e+02 -2.000140e+03 -3.023130e+01
-4.994640e-03 -1.600170e+03 -3.589140e+01
3.999990e+02 -1.600170e+03 -3.587990e+01
-3.999960e+02 -1.606150e+03 -4.358770e+02
8.983150e-04 -1.606140e+03 -4.358430e+02
-3.999490e+02 -1.206670e+03 -4.422020e+02
2.793710e-02 -1.206680e+03 -4.421390e+02
-4.000080e+02 -1.600170e+03 -3.590630e+01
-4.994640e-03 -1.600170e+03 -3.589140e+01
-4.000080e+02 -1.200210e+03 -4.221520e+01
-2.084040e-03 -1.200210e+03 -4.217390e+01
8.983150e-04 -1.606140e+03 -4.358430e+02
3.999980e+02 -1.606120e+03 -4.358250e+02
2.793710e-02 -1.206680e+03 -4.421390e+02
4.000040e+02 -1.206670e+03 -4.421180e+02
-4.994640e-03 -1.600170e+03 -3.589140e+01
3.999990e+02 -1.600170e+03 -3.587990e+01
-2.084040e-03 -1.200210e+03 -4.217390e+01
4.000040e+02 -1.200210e+03 -4.215450e+01
-3.999490e+02 -1.206670e+03 -4.422020e+02
2.793710e-02 -1.206680e+03 -4.421390e+02
-3.999600e+02 -8.071400e+02 -4.489320e+02
1.932400e-02 -8.071410e+02 -4.488810e+02
-4.000080e+02 -1.200210e+03 -4.221520e+01
-2.084040e-03 -1.200210e+03 -4.217390e+01
-4.000060e+02 -8.002740e+02 -4.892350e+01
-1.201720e-03 -8.002720e+02 -4.888750e+01
2.793710e-02 -1.206680e+03 -4.421390e+02
4.000040e+02 -1.206670e+03 -4.421180e+02
1.932400e-02 -8.071410e+02 -4.488810e+02
3.999990e+02 -8.071500e+02 -4.488620e+02
-2.084040e-03 -1.200210e+03 -4.217390e+01
4.000040e+02 -1.200210e+03 -4.215450e+01
-1.201720e-03 -8.002720e+02 -4.888750e+01
4.000030e+02 -8.002680e+02 -4.886530e+01
-3.999600e+02 -8.071400e+02 -4.489320e+02
1.932400e-02 -8.071410e+02 -4.488810e+02
-4.000140e+02 -4.075440e+02 -4.560030e+02
-1.253720e-02 -4.075640e+02 -4.559880e+02
-4.000060e+02 -8.002740e+02 -4.892350e+01
-1.201720e-03 -8.002720e+02 -4.888750e+01
-4.000060e+02 -4.003440e+02 -5.597120e+01
-3.632090e-03 -4.003420e+02 -5.597150e+01
1.932400e-02 -8.071410e+02 -4.488810e+02
3.999990e+02 -8.071500e+02 -4.488620e+02
-1.253720e-02 -4.075640e+02 -4.559880e+02
3.999890e+02 -4.075960e+02 -4.559680e+02
-1.201720e-03 -8.002720e+02 -4.888750e+01
4.000030e+02 -8.002680e+02 -4.886530e+01
-3.632090e-03 -4.003420e+02 -5.597150e+01
3.999990e+02 -4.003400e+02 -5.595500e+01
-4.000140e+02 -4.075440e+02 -4.560030e+02
-1.253720e-02 -4.075640e+02 -4.559880e+02
-4.000480e+02 -7.915650e+00 -4.633220e+02
-3.519750e-02 -7.955480e+00 -4.633610e+02
-4.000060e+02 -4.003440e+02 -5.597120e+01
-3.632090e-03 -4.003420e+02 -5.597150e+01
-4.000110e+02 -4.238980e-01 -6.328600e+01
-8.157690e-03 -4.228350e-01 -6.334860e+01
-1.253720e-02 -4.075640e+02 -4.559880e+02
3.999890e+02 -4.075960e+02 -4.559680e+02
[...]
<PointData>
<DataArray type="Float32" Name="V1" format="ascii">
0.000000e+00
0.000000e+00
-8.932440e-03
-1.231660e-02
0.000000e+00
0.000000e+00
6.399930e-03
3.938820e-04
0.000000e+00
0.000000e+00
-1.231660e-02
-1.576300e-02
0.000000e+00
0.000000e+00
3.938820e-04
-6.021750e-03
-8.932440e-03
-1.231660e-02
-3.355690e-02
-3.792960e-02
6.399930e-03
3.938820e-04
9.983040e-03
-1.398530e-03
-1.231660e-02
-1.576300e-02
-3.792960e-02
-4.220780e-02
3.938820e-04
-6.021750e-03
-1.398530e-03
-1.281880e-02
-3.355690e-02
-3.792960e-02
-3.915010e-02
-3.909460e-02
9.983040e-03
-1.398530e-03
7.925270e-03
-1.073900e-03
-3.792960e-02
-4.220780e-02
-3.909460e-02
-3.888860e-02
-1.398530e-03
-1.281880e-02
-1.073900e-03
-9.865720e-03
-3.915010e-02
-3.909460e-02
-2.576960e-02
-1.830320e-02
7.925270e-03
-1.073900e-03
4.277600e-03
6.688060e-05
-3.909460e-02
-3.888860e-02
-1.830320e-02
-1.105300e-02
-1.073900e-03
-9.865720e-03
6.688060e-05
-4.199820e-03
-2.576960e-02
-1.830320e-02
3.215900e-03
8.686950e-03
4.277600e-03
6.688060e-05
2.987530e-03
-1.625480e-03
-1.830320e-02
-1.105300e-02
8.686950e-03
1.423860e-02
6.688060e-05
-4.199820e-03
-1.625480e-03
-6.139310e-03
3.215900e-03
8.686950e-03
2.508790e-02
2.004230e-02
2.987530e-03
-1.625480e-03
5.423750e-03
-1.248760e-03
8.686950e-03
1.423860e-02
2.004230e-02
1.519270e-02
-1.625480e-03
-6.139310e-03
-1.248760e-03
-7.950560e-03
2.508790e-02
2.004230e-02
3.114750e-02
1.136210e-02
5.423750e-03
-1.248760e-03
7.286430e-03
-7.056020e-04
2.004230e-02
1.519270e-02
1.136210e-02
-8.314510e-03
-1.248760e-03
-7.950560e-03
-7.056020e-04
-8.646060e-03
3.114750e-02
1.136210e-02
2.125790e-02
5.290020e-03
7.286430e-03
-7.056020e-04
2.422920e-03
-2.192820e-03
1.136210e-02
-8.314510e-03
5.290020e-03
-1.056320e-02
-7.056020e-04
-8.646060e-03
-2.192820e-03
-6.402310e-03
2.125790e-02
5.290020e-03
1.406910e-02
6.288440e-03
2.422920e-03
-2.192820e-03
-2.324880e-03
-2.260550e-03
5.290020e-03
-1.056320e-02
6.288440e-03
-1.197910e-03
-2.192820e-03
-6.402310e-03
-2.260550e-03
-2.102620e-03
1.406910e-02
6.288440e-03
-1.434740e-02
-3.590480e-03
-2.324880e-03
-2.260550e-03
3.848900e-04
-1.573400e-03
6.288440e-03
-1.197910e-03
-3.590480e-03
7.037890e-03
-2.260550e-03
-2.102620e-03
-1.573400e-03
-3.764800e-03
-1.434740e-02
-3.590480e-03
-2.169750e-02
-1.442190e-02
3.848900e-04
-1.573400e-03
4.524320e-03
7.517130e-04
-3.590480e-03
7.037890e-03
-1.442190e-02
-7.528520e-03
-1.573400e-03
-3.764800e-03
7.517130e-04
-3.256380e-03
-2.169750e-02
-1.442190e-02
-2.174360e-02
-2.245310e-02
4.524320e-03
7.517130e-04
6.319030e-03
2.230940e-03
-1.442190e-02
-7.528520e-03
-2.245310e-02
-2.314290e-02
7.517130e-04
-3.256380e-03
2.230940e-03
-1.499580e-03
-2.174360e-02
-2.245310e-02
-2.001150e-03
-1.288070e-02
6.319030e-03
2.230940e-03
1.133500e-03
-2.287790e-03
-2.245310e-02
-2.314290e-02
-1.288070e-02
-2.390680e-02
2.230940e-03
-1.499580e-03
-2.287790e-03
-5.788310e-03
-2.001150e-03
-1.288070e-02
8.840130e-03
-3.922080e-04
1.133500e-03
-2.287790e-03
-7.197260e-03
-6.359450e-03
-1.288070e-02
-2.390680e-02
-3.922080e-04
-1.006540e-02
-2.287790e-03
-5.788310e-03
-6.359450e-03
-6.075340e-03
8.840130e-03
-3.922080e-04
8.434570e-03
8.434980e-03
-7.197260e-03
-6.359450e-03
-9.203790e-03
-6.313890e-03
-3.922080e-04
-1.006540e-02
8.434980e-03
8.758140e-03
-6.359450e-03
-6.075340e-03
-6.313890e-03
-3.251490e-03
8.434570e-03
8.434980e-03
1.723850e-02
2.330090e-02
-9.203790e-03
-6.313890e-03
-5.033620e-03
-4.609190e-03
8.434980e-03
8.758140e-03
2.330090e-02
2.964980e-02
-6.313890e-03
-3.251490e-03
-4.609190e-03
-3.734610e-03
1.723850e-02
2.330090e-02
1.386590e-02
2.126290e-02
-5.033620e-03
-4.609190e-03
-2.929270e-03
-3.976690e-03
2.330090e-02
2.964980e-02
2.126290e-02
2.900920e-02
-4.609190e-03
-3.734610e-03
-3.976690e-03
-4.508820e-03
1.386590e-02
2.126290e-02
-6.258240e-03
-5.676180e-03
-2.929270e-03
-3.976690e-03
-3.200390e-03
-5.310280e-03
2.126290e-02
2.900920e-02
-5.676180e-03
-4.793250e-03
-3.976690e-03
-4.508820e-03
-5.310280e-03
-7.097810e-03
-6.258240e-03
-5.676180e-03
6.345790e-04
-9.216810e-03
-3.200390e-03
-5.310280e-03
-4.499090e-04
-3.572110e-03
-5.676180e-03
-4.793250e-03
-9.216810e-03
-1.885160e-02
-5.310280e-03
-7.097810e-03
-3.572110e-03
-6.494930e-03
6.345790e-04
-9.216810e-03
2.525710e-02
1.225500e-02
-4.499090e-04
-3.572110e-03
-5.437180e-04
-1.365560e-03
-9.216810e-03
-1.885160e-02
1.225500e-02
-2.566090e-04
-3.572110e-03
-6.494930e-03
-1.365560e-03
-1.901010e-03
2.525710e-02
1.225500e-02
3.564070e-02
2.891530e-02
-5.437180e-04
-1.365560e-03
-5.380790e-04
-2.459380e-03
1.225500e-02
-2.566090e-04
2.891530e-02
2.246610e-02
-1.365560e-03
-1.901010e-03
-2.459380e-03
-3.880030e-03
3.564070e-02
2.891530e-02
1.900250e-02
3.283110e-02
-5.380790e-04
-2.459380e-03
4.346400e-03
-3.244210e-04
2.891530e-02
2.246610e-02
3.283110e-02
4.700770e-02
-2.459380e-03
-3.880030e-03
-3.244210e-04
-4.666230e-03
1.900250e-02
3.283110e-02
3.944670e-02
3.744910e-02
4.346400e-03
-3.244210e-04
3.561400e-03
-1.171560e-03
3.283110e-02
4.700770e-02
3.744910e-02
3.515930e-02
-3.244210e-04
-4.666230e-03
-1.171560e-03
-6.360120e-03
3.944670e-02
3.744910e-02
3.961310e-02
2.746230e-02
3.561400e-03
-1.171560e-03
-1.563390e-03
-2.724410e-03
3.744910e-02
3.515930e-02
2.746230e-02
1.464820e-02
-1.171560e-03
-6.360120e-03
-2.724410e-03
-4.462560e-03
3.961310e-02
2.746230e-02
3.456920e-02
1.204010e-02
-1.563390e-03
-2.724410e-03
-4.787120e-03
-3.403490e-03
2.746230e-02
1.464820e-02
1.204010e-02
-1.102910e-02
-2.724410e-03
-4.462560e-03
-3.403490e-03
-2.305620e-03
3.456920e-02
1.204010e-02
1.415700e-02
-4.567820e-03
-4.787120e-03
-3.403490e-03
-7.528100e-03
-4.838570e-03
1.204010e-02
-1.102910e-02
-4.567820e-03
-2.327820e-02
-3.403490e-03
-2.305620e-03
-4.838570e-03
-2.167090e-03
1.415700e-02
-4.567820e-03
-2.179590e-02
-3.559490e-02
-7.528100e-03
-4.838570e-03
-6.428470e-03
-2.770090e-03
-4.567820e-03
-2.327820e-02
-3.559490e-02
-4.971550e-02
-4.838570e-03
-2.167090e-03
-2.770090e-03
5.771260e-04
-2.179590e-02
-3.559490e-02
-1.041960e-02
-3.204930e-02
-6.428470e-03
-2.770090e-03
-8.496890e-03
-4.404750e-03
-3.559490e-02
-4.971550e-02
-3.204930e-02
-5.354110e-02
-2.770090e-03
5.771260e-04
-4.404750e-03
-3.042330e-04
-1.041960e-02
-3.204930e-02
1.652020e-02
-7.786840e-03
-8.496890e-03
-4.404750e-03
-1.164200e-02
-3.256770e-03
-3.204930e-02
-5.354110e-02
-7.786840e-03
-3.160020e-02
-4.404750e-03
-3.042330e-04
-3.256770e-03
5.501170e-03
1.652020e-02
-7.786840e-03
3.511230e-02
-7.739000e-03
-1.164200e-02
-3.256770e-03
-2.033980e-02
-8.622020e-03
-7.786840e-03
-3.160020e-02
-7.739000e-03
-5.063280e-02
-3.256770e-03
5.501170e-03
-8.622020e-03
3.076100e-03
0.000000e+00
0.000000e+00
6.399930e-03
3.938820e-04
0.000000e+00
0.000000e+00
-6.538820e-03
1.076210e-02
0.000000e+00
0.000000e+00
3.938820e-04
-6.021750e-03
0.000000e+00
0.000000e+00
1.076210e-02
2.728660e-02
6.399930e-03
3.938820e-04
9.983040e-03
-1.398530e-03
-6.538820e-03
1.076210e-02
1.452780e-02
3.898190e-02
3.938820e-04
-6.021750e-03
-1.398530e-03
-1.281880e-02
1.076210e-02
2.728660e-02
3.898190e-02
6.334000e-02
9.983040e-03
-1.398530e-03
7.925270e-03
-1.073900e-03
1.452780e-02
3.898190e-02
2.460880e-02
4.235980e-02
-1.398530e-03
-1.281880e-02
-1.073900e-03
-9.865720e-03
3.898190e-02
6.334000e-02
4.235980e-02
6.044360e-02
7.925270e-03
-1.073900e-03
4.277600e-03
6.688060e-05
2.460880e-02
4.235980e-02
1.711660e-02
1.848160e-02
-1.073900e-03
-9.865720e-03
6.688060e-05
-4.199820e-03
4.235980e-02
6.044360e-02
1.848160e-02
2.008570e-02
4.277600e-03
6.688060e-05
2.987530e-03
-1.625480e-03
1.711660e-02
1.848160e-02
-8.500680e-03
-4.090190e-03
6.688060e-05
-4.199820e-03
-1.625480e-03
-6.139310e-03
1.848160e-02
2.008570e-02
-4.090190e-03
4.845760e-04
2.987530e-03
-1.625480e-03
5.423750e-03
-1.248760e-03
-8.500680e-03
-4.090190e-03
-3.890450e-02
-1.900620e-02
-1.625480e-03
-6.139310e-03
-1.248760e-03
-7.950560e-03
-4.090190e-03
4.845760e-04
-1.900620e-02
6.466500e-04
5.423750e-03
-1.248760e-03
7.286430e-03
-7.056020e-04
-3.890450e-02
-1.900620e-02
-4.410730e-02
-8.849300e-03
-1.248760e-03
-7.950560e-03
-7.056020e-04
-8.646060e-03
-1.900620e-02
6.466500e-04
-8.849300e-03
2.642350e-02
7.286430e-03
-7.056020e-04
2.422920e-03
-2.192820e-03
-4.410730e-02
-8.849300e-03
-2.654800e-02
-1.778720e-03
-7.056020e-04
-8.646060e-03
-2.192820e-03
-6.402310e-03
-8.849300e-03
2.642350e-02
-1.778720e-03
2.365760e-02
2.422920e-03
-2.192820e-03
-2.324880e-03
-2.260550e-03
-2.654800e-02
-1.778720e-03
-7.513620e-03
-1.200630e-03
-2.192820e-03
-6.402310e-03
-2.260550e-03
-2.102620e-03
-1.778720e-03
2.365760e-02
-1.200630e-03
4.963450e-03
-2.324880e-03
-2.260550e-03
3.848900e-04
-1.573400e-03
-7.513620e-03
-1.200630e-03
9.984720e-03
5.127560e-03
-2.260550e-03
-2.102620e-03
-1.573400e-03
-3.764800e-03
-1.200630e-03
4.963450e-03
5.127560e-03
-2.384370e-04
3.848900e-04
-1.573400e-03
4.524320e-03
7.517130e-04
9.984720e-03
5.127560e-03
1.211730e-02
1.318930e-02
-1.573400e-03
-3.764800e-03
7.517130e-04
-3.256380e-03
5.127560e-03
-2.384370e-04
1.318930e-02
1.415170e-02
4.524320e-03
7.517130e-04
6.319030e-03
2.230940e-03
1.211730e-02
1.318930e-02
1.107800e-02
1.911750e-02
7.517130e-04
-3.256380e-03
2.230940e-03
-1.499580e-03
1.318930e-02
1.415170e-02
1.911750e-02
2.773420e-02
6.319030e-03
2.230940e-03
1.133500e-03
-2.287790e-03
1.107800e-02
1.911750e-02
-2.383200e-03
1.663110e-02
2.230940e-03
-1.499580e-03
-2.287790e-03
-5.788310e-03
1.911750e-02
2.773420e-02
1.663110e-02
3.561020e-02
1.133500e-03
-2.287790e-03
-7.197260e-03
-6.359450e-03
-2.383200e-03
1.663110e-02
5.181210e-03
1.393090e-02
-2.287790e-03
-5.788310e-03
-6.359450e-03
-6.075340e-03
1.663110e-02
3.561020e-02
1.393090e-02
2.201950e-02
-7.197260e-03
-6.359450e-03
-9.203790e-03
-6.313890e-03
5.181210e-03
1.393090e-02
8.980030e-03
4.977870e-03
-6.359450e-03
-6.075340e-03
-6.313890e-03
-3.251490e-03
1.393090e-02
2.201950e-02
4.977870e-03
9.351850e-04
-9.203790e-03
-6.313890e-03
-5.033620e-03
-4.609190e-03
8.980030e-03
4.977870e-03
-9.027870e-03
-1.826270e-02
-6.313890e-03
-3.251490e-03
-4.609190e-03
-3.734610e-03
4.977870e-03
9.351850e-04
-1.826270e-02
-2.700200e-02
-5.033620e-03
-4.609190e-03
-2.929270e-03
-3.976690e-03
-9.027870e-03
-1.826270e-02
-5.177470e-03
-1.163560e-02
-4.609190e-03
-3.734610e-03
-3.976690e-03
-4.508820e-03
-1.826270e-02
-2.700200e-02
-1.163560e-02
-1.746840e-02
-2.929270e-03
-3.976690e-03
-3.200390e-03
-5.310280e-03
-5.177470e-03
-1.163560e-02
1.344280e-02
1.641630e-02
-3.976690e-03
-4.508820e-03
-5.310280e-03
-7.097810e-03
-1.163560e-02
-1.746840e-02
1.641630e-02
1.994310e-02
-3.200390e-03
-5.310280e-03
-4.499090e-04
-3.572110e-03
1.344280e-02
1.641630e-02
-2.925140e-04
1.604390e-02
-5.310280e-03
-7.097810e-03
-3.572110e-03
-6.494930e-03
1.641630e-02
1.994310e-02
1.604390e-02
3.262660e-02
-4.499090e-04
-3.572110e-03
-5.437180e-04
-1.365560e-03
-2.925140e-04
1.604390e-02
-2.316460e-02
-6.993500e-03
-3.572110e-03
-6.494930e-03
-1.365560e-03
-1.901010e-03
1.604390e-02
3.262660e-02
-6.993500e-03
9.397140e-03
-5.437180e-04
-1.365560e-03
-5.380790e-04
-2.459380e-03
-2.316460e-02
-6.993500e-03
-3.610720e-02
-2.613180e-02
-1.365560e-03
-1.901010e-03
-2.459380e-03
-3.880030e-03
-6.993500e-03
9.397140e-03
-2.613180e-02
-1.560230e-02
-5.380790e-04
-2.459380e-03
4.346400e-03
-3.244210e-04
-3.610720e-02
-2.613180e-02
-2.841680e-02
-3.349950e-02
-2.459380e-03
-3.880030e-03
-3.244210e-04
-4.666230e-03
-2.613180e-02
-1.560230e-02
-3.349950e-02
-3.840160e-02
4.346400e-03
-3.244210e-04
3.561400e-03
-1.171560e-03
-2.841680e-02
-3.349950e-02
-4.191830e-02
-3.218880e-02
-3.244210e-04
-4.666230e-03
-1.171560e-03
-6.360120e-03
-3.349950e-02
-3.840160e-02
-3.218880e-02
-2.317210e-02
3.561400e-03
-1.171560e-03
-1.563390e-03
-2.724410e-03
-4.191830e-02
-3.218880e-02
-3.909880e-02
-2.272450e-02
-1.171560e-03
-6.360120e-03
-2.724410e-03
-4.462560e-03
-3.218880e-02
-2.317210e-02
-2.272450e-02
-6.862730e-03
-1.563390e-03
-2.724410e-03
-4.787120e-03
-3.403490e-03
-3.909880e-02
-2.272450e-02
-2.553270e-02
-4.733650e-03
-2.724410e-03
-4.462560e-03
-3.403490e-03
-2.305620e-03
-2.272450e-02
-6.862730e-03
-4.733650e-03
1.611030e-02
-4.787120e-03
-3.403490e-03
-7.528100e-03
-4.838570e-03
-2.553270e-02
-4.733650e-03
9.257720e-04
1.468370e-02
-3.403490e-03
-2.305620e-03
-4.838570e-03
-2.167090e-03
-4.733650e-03
1.611030e-02
1.468370e-02
2.842730e-02
-7.528100e-03
-4.838570e-03
-6.428470e-03
-2.770090e-03
9.257720e-04
1.468370e-02
3.103530e-02
3.973170e-02
-4.838570e-03
-2.167090e-03
-2.770090e-03
5.771260e-04
1.468370e-02
2.842730e-02
3.973170e-02
4.803780e-02
-6.428470e-03
-2.770090e-03
-8.496890e-03
-4.404750e-03
3.103530e-02
3.973170e-02
3.012240e-02
4.117340e-02
-2.770090e-03
5.771260e-04
-4.404750e-03
-3.042330e-04
3.973170e-02
4.803780e-02
4.117340e-02
5.201880e-02
-8.496890e-03
-4.404750e-03
-1.164200e-02
-3.256770e-03
3.012240e-02
4.117340e-02
1.069780e-02
1.563460e-02
-4.404750e-03
-3.042330e-04
-3.256770e-03
5.501170e-03
4.117340e-02
5.201880e-02
1.563460e-02
2.099950e-02
-1.164200e-02
-3.256770e-03
-2.033980e-02
-8.622020e-03
1.069780e-02
1.563460e-02
2.277560e-03
2.177630e-02
-3.256770e-03
5.501170e-03
-8.622020e-03
3.076100e-03
1.563460e-02
2.099950e-02
2.177630e-02
4.141390e-02
</DataArray>
<DataArray type="Float32" Name="V2" format="ascii">
0.000000e+00
0.000000e+00
5.819360e-02
5.996770e-02
0.000000e+00
0.000000e+00
-2.503200e-02
-2.484520e-02
0.000000e+00
0.000000e+00
5.996770e-02
7.628550e-02
0.000000e+00
0.000000e+00
-2.484520e-02
-2.607250e-02
5.819360e-02
5.996770e-02
4.473140e-02
4.525120e-02
-2.503200e-02
-2.484520e-02
-8.407860e-03
-6.575880e-03
5.996770e-02
7.628550e-02
4.525120e-02
6.134190e-02
-2.484520e-02
-2.607250e-02
-6.575880e-03
-5.219640e-03
4.473140e-02
4.525120e-02
-3.013780e-02
-3.493900e-02
-8.407860e-03
-6.575880e-03
2.615200e-02
2.648370e-02
4.525120e-02
6.134190e-02
-3.493900e-02
-3.822820e-02
-6.575880e-03
-5.219640e-03
2.648370e-02
2.108360e-02
-3.013780e-02
-3.493900e-02
-8.307380e-02
-7.997960e-02
2.615200e-02
2.648370e-02
4.024690e-02
3.768210e-02
-3.493900e-02
-3.822820e-02
-7.997960e-02
-9.359500e-02
2.648370e-02
2.108360e-02
3.768210e-02
3.489320e-02
-8.307380e-02
-7.997960e-02
-5.554040e-02
-5.506630e-02
4.024690e-02
3.768210e-02
1.578290e-02
1.709510e-02
-7.997960e-02
-9.359500e-02
-5.506630e-02
-7.608430e-02
3.768210e-02
3.489320e-02
1.709510e-02
1.944440e-02
-5.554040e-02
-5.506630e-02
4.601480e-02
3.360860e-02
1.578290e-02
1.709510e-02
-8.996080e-03
-5.316160e-03
-5.506630e-02
-7.608430e-02
3.360860e-02
1.783370e-02
1.709510e-02
1.944440e-02
-5.316160e-03
-3.405790e-03
4.601480e-02
3.360860e-02
1.010420e-01
8.662730e-02
-8.996080e-03
-5.316160e-03
-2.613170e-03
-4.174940e-03
3.360860e-02
1.783370e-02
8.662730e-02
6.681860e-02
-5.316160e-03
-3.405790e-03
-4.174940e-03
-4.474540e-03
1.010420e-01
8.662730e-02
4.803730e-02
3.572890e-02
-2.613170e-03
-4.174940e-03
5.616490e-03
7.139710e-03
8.662730e-02
6.681860e-02
3.572890e-02
4.637720e-04
-4.174940e-03
-4.474540e-03
7.139710e-03
4.708740e-03
4.803730e-02
3.572890e-02
-3.757100e-03
-9.140340e-04
5.616490e-03
7.139710e-03
2.400090e-02
2.449200e-02
3.572890e-02
4.637720e-04
-9.140340e-04
-3.491660e-02
7.139710e-03
4.708740e-03
2.449200e-02
2.546610e-02
-3.757100e-03
-9.140340e-04
-4.321660e-02
-3.264700e-02
2.400090e-02
2.449200e-02
3.625510e-02
3.074040e-02
-9.140340e-04
-3.491660e-02
-3.264700e-02
-4.189020e-02
2.449200e-02
2.546610e-02
3.074040e-02
2.968140e-02
-4.321660e-02
-3.264700e-02
-4.636250e-02
-3.815900e-02
3.625510e-02
3.074040e-02
1.053840e-02
9.582270e-03
-3.264700e-02
-4.189020e-02
-3.815900e-02
-1.462210e-02
3.074040e-02
2.968140e-02
9.582270e-03
7.771120e-03
-4.636250e-02
-3.815900e-02
4.473330e-02
4.549930e-02
1.053840e-02
9.582270e-03
-1.547540e-02
-1.578130e-02
-3.815900e-02
-1.462210e-02
4.549930e-02
5.806010e-02
9.582270e-03
7.771120e-03
-1.578130e-02
-1.475130e-02
4.473330e-02
4.549930e-02
5.391980e-02
3.833640e-02
-1.547540e-02
-1.578130e-02
-1.200350e-02
-1.059920e-02
4.549930e-02
5.806010e-02
3.833640e-02
2.991520e-02
-1.578130e-02
-1.475130e-02
-1.059920e-02
-1.330780e-02
5.391980e-02
3.833640e-02
-1.194220e-02
-1.834130e-02
-1.200350e-02
-1.059920e-02
-1.022010e-02
-6.695630e-03
3.833640e-02
2.991520e-02
-1.834130e-02
-2.870700e-02
-1.059920e-02
-1.330780e-02
-6.695630e-03
-1.192320e-02
-1.194220e-02
-1.834130e-02
-4.958920e-03
-7.216260e-03
-1.022010e-02
-6.695630e-03
-6.803810e-03
-7.446980e-03
-1.834130e-02
-2.870700e-02
-7.216260e-03
-1.396510e-02
-6.695630e-03
-1.192320e-02
-7.446980e-03
-9.179670e-03
-4.958920e-03
-7.216260e-03
-2.132140e-02
-3.721710e-02
-6.803810e-03
-7.446980e-03
2.215830e-02
2.048230e-02
-7.216260e-03
-1.396510e-02
-3.721710e-02
-3.839280e-02
-7.446980e-03
-9.179670e-03
2.048230e-02
1.775760e-02
-2.132140e-02
-3.721710e-02
-4.522000e-02
-4.400620e-02
2.215830e-02
2.048230e-02
2.828020e-02
2.616670e-02
-3.721710e-02
-3.839280e-02
-4.400620e-02
-2.820960e-02
2.048230e-02
1.775760e-02
2.616670e-02
2.053790e-02
-4.522000e-02
-4.400620e-02
-8.906080e-03
2.661610e-02
2.828020e-02
2.616670e-02
4.250770e-03
2.574460e-03
-4.400620e-02
-2.820960e-02
2.661610e-02
6.263630e-02
2.616670e-02
2.053790e-02
2.574460e-03
1.066190e-03
-8.906080e-03
2.661610e-02
-1.210590e-02
3.042420e-02
4.250770e-03
2.574460e-03
-6.809780e-03
-8.051960e-03
2.661610e-02
6.263630e-02
3.042420e-02
6.401700e-02
2.574460e-03
1.066190e-03
-8.051960e-03
-7.662000e-03
-1.210590e-02
3.042420e-02
-2.678710e-02
-5.094800e-04
-6.809780e-03
-8.051960e-03
-2.078700e-02
-2.078910e-02
3.042420e-02
6.401700e-02
-5.094800e-04
1.512160e-02
-8.051960e-03
-7.662000e-03
-2.078910e-02
-2.065700e-02
-2.678710e-02
-5.094800e-04
4.974890e-02
5.733200e-02
-2.078700e-02
-2.078910e-02
-3.610000e-02
-3.438630e-02
-5.094800e-04
1.512160e-02
5.733200e-02
4.346280e-02
-2.078910e-02
-2.065700e-02
-3.438630e-02
-3.250600e-02
4.974890e-02
5.733200e-02
8.200520e-02
4.629270e-02
-3.610000e-02
-3.438630e-02
-1.993250e-02
-1.386880e-02
5.733200e-02
4.346280e-02
4.629270e-02
2.458520e-04
-3.438630e-02
-3.250600e-02
-1.386880e-02
-1.139110e-02
8.200520e-02
4.629270e-02
2.627950e-02
-3.196470e-02
-1.993250e-02
-1.386880e-02
2.742460e-02
3.330210e-02
4.629270e-02
2.458520e-04
-3.196470e-02
-7.923090e-02
-1.386880e-02
-1.139110e-02
3.330210e-02
3.574310e-02
2.627950e-02
-3.196470e-02
5.379460e-02
4.394750e-03
2.742460e-02
3.330210e-02
3.548310e-02
3.598580e-02
-3.196470e-02
-7.923090e-02
4.394750e-03
-2.384390e-02
3.330210e-02
3.574310e-02
3.598580e-02
3.695340e-02
5.379460e-02
4.394750e-03
8.254280e-02
4.970530e-02
3.548310e-02
3.598580e-02
-2.920600e-03
-2.830530e-03
4.394750e-03
-2.384390e-02
4.970530e-02
4.387980e-02
3.598580e-02
3.695340e-02
-2.830530e-03
-4.438370e-03
8.254280e-02
4.970530e-02
4.021430e-02
3.097330e-02
-2.920600e-03
-2.830530e-03
-2.487430e-02
-2.607680e-02
4.970530e-02
4.387980e-02
3.097330e-02
2.932250e-02
-2.830530e-03
-4.438370e-03
-2.607680e-02
-2.996630e-02
4.021430e-02
3.097330e-02
1.027950e-03
2.387980e-03
-2.487430e-02
-2.607680e-02
-3.842990e-02
-3.743020e-02
3.097330e-02
2.932250e-02
2.387980e-03
-5.482550e-03
-2.607680e-02
-2.996630e-02
-3.743020e-02
-3.998560e-02
1.027950e-03
2.387980e-03
-3.770050e-03
-1.200480e-02
-3.842990e-02
-3.743020e-02
-2.170140e-02
-2.136630e-02
2.387980e-03
-5.482550e-03
-1.200480e-02
-3.489210e-02
-3.743020e-02
-3.998560e-02
-2.136630e-02
-2.321200e-02
-3.770050e-03
-1.200480e-02
1.243420e-02
1.084610e-02
-2.170140e-02
-2.136630e-02
2.311690e-02
2.347590e-02
-1.200480e-02
-3.489210e-02
1.084610e-02
7.471420e-03
-2.136630e-02
-2.321200e-02
2.347590e-02
2.141110e-02
1.243420e-02
1.084610e-02
2.275030e-02
3.026870e-02
2.311690e-02
2.347590e-02
3.946200e-02
4.232010e-02
1.084610e-02
7.471420e-03
3.026870e-02
5.767900e-02
2.347590e-02
2.141110e-02
4.232010e-02
4.525200e-02
0.000000e+00
0.000000e+00
-2.503200e-02
-2.484520e-02
0.000000e+00
0.000000e+00
2.782280e-03
-1.423270e-03
0.000000e+00
0.000000e+00
-2.484520e-02
-2.607250e-02
0.000000e+00
0.000000e+00
-1.423270e-03
-2.156870e-02
-2.503200e-02
-2.484520e-02
-8.407860e-03
-6.575880e-03
2.782280e-03
-1.423270e-03
-3.420240e-02