MercuryDPM 0.14 name SingleSphere revision 5159 repository https://svn.mercurydpm.org/SourceCode/Branches/SCouplingTest
dataFile    fileType ONE_FILE saveCount 549 counter 1003 lastSavedTimeStep 549869
fStatFile   fileType ONE_FILE saveCount 549 counter 1003 lastSavedTimeStep 549869
eneFile     fileType ONE_FILE saveCount 549 counter 1003 lastSavedTimeStep 549869
restartFile fileType ONE_FILE saveCount 549 counter 1003 lastSavedTimeStep 549869
statFile    fileType ONE_FILE saveCount 549 counter 0
interactionFile fileType NO_FILE saveCount 0 counter 0
xMin -500 xMax 500 yMin -5000 yMax 5000 zMin -500 zMax 5000
timeStep 0.090930880724823 time 50000.0724529279 ntimeSteps 549869 timeMax 50000
systemDimensions 3 particleDimensions 3 gravity 0 0 -0.00981 writeVTK 1 MULTIPLE_FILES NO_FILE 1003 1003 0 random  0 1103515245 12345 1073741824 607 273 784607267
Species 1
LinearViscoelasticSpecies id 0 density 20000 stiffness 20000000000 dissipation 185190105.022123
Walls 992
TriangleWall id 0 indSpecies 0 position -200.005174379734 -5933.26877585702 -399.975167955038 orientation 1 0 0 0 velocity 0 0 0 angularVelocity 0 0 0 force 0 0 0 torque 0 0 0 vertexInLabFrame  -0.0103487594673481 133.46244828595 0.0496640899247041 -199.994825620266 -66.7312241429754 -0.0248320449622952 200.005174379734 -66.7312241429754 -0.0248320449622952
TriangleWall id 1 indSpecies 0 position -66.685208230405 -5799.80569356407 -399.925753889493 orientation 1 0 0 0 velocity 0 0 0 angularVelocity 0 0 0 force 0 0 0 torque 0 0 0 vertexInLabFrame  -133.330314908796 -0.000634007004009618 0.000250024380136438 66.685208230405 -200.194306435929 -0.0742461105068628 66.645106678391 200.194940442934 0.0739960861266695
TriangleWall id 2 indSpecies 0 position -200.025871898668 -5666.34387928513 -399.875839775188 orientation 1 0 0 0 velocity 0 0 0 angularVelocity 0 0 0 force 0 0 0 torque 0 0 0 vertexInLabFrame  0.0103487594673481 -133.462448285949 -0.0496640899247041 199.985770346654 66.7331261639893 0.024081971821829 -199.996119106122 66.7293221219634 0.0255821181028182
TriangleWall id 3 indSpecies 0 position -333.345838047997 -5799.80696157808 -399.925253840733 orientation 1 0 0 0 velocity 0 0 0 angularVelocity 0 0 0 force 0 0 0 torque 0 0 0 vertexInLabFrame  133.330314908796 0.000634007004919113 -0.000250024380136438 -66.676152956793 200.192404414917 0.0749961836473858 -66.654161952003 -200.19303842192 -0.0747461592671357
TriangleWall id 4 indSpecies 0 position 199.991790331923 -5933.26800261615 -399.978579489916 orientation 1 0 0 0 velocity 0 0 0 angularVelocity 0 0 0 force 0 0 0 torque 0 0 0 vertexInLabFrame  -0.0164193361532057 133.463994767708 0.0428410201685097 -199.991790331923 -66.7319973838539 -0.0214205100842264 200.008209668077 -66.7319973838539 -0.0214205100842264
TriangleWall id 5 indSpecies 0 position 333.305652176955 -5799.80309537369 -399.942311515123 orientation 1 0 0 0 velocity 0 0 0 angularVelocity 0 0 0 force 0 0 0 torque 0 0 0 vertexInLabFrame  -133.330281181185 -0.000912474753022252 0.00657304537600112 66.6943478230451 -200.196904626315 -0.0576884848767349 66.6359333581398 200.197817101068 0.0511154395007907
TriangleWall id 6 indSpecies 0 position 199.958951659617 -5666.34001308073 -399.892897449579 orientation 1 0 0 0 velocity 0 0 0 angularVelocity 0 0 0 force 0 0 0 torque 0 0 0 vertexInLabFrame  0.0164193361532057 -133.463994767708 -0.0428410201685665 199.982633875478 66.734734808113 0.00170137395622305 -199.999053211631 66.7292599595939 0.0411396462122298
TriangleWall id 7 indSpecies 0 position 66.6450898145854 -5799.80492032319 -399.929165424371 orientation 1 0 0 0 velocity 0 0 0 angularVelocity 0 0 0 force 0 0 0 torque 0 0 0 vertexInLabFrame  133.330281181185 0.000912474753931747 -0.00657304537605796 -66.6851913665994 200.194167202056 0.0774076210047383 -66.6450898145854 -200.195079676808 -0.070834575628794
TriangleWall id 8 indSpecies 0 position -200.03792171382 -5532.86515356279 -399.737891334931 orientation 1 0 0 0 velocity 0 0 0 angularVelocity 0 0 0 force 0 0 0 torque 0 0 0 vertexInLabFrame  -0.013750870836077 133.495003158712 0.226232790589961 -199.98406929097 -66.7494036003682 -0.112366322154458 199.997820161806 -66.7455995583423 -0.113866468435447
TriangleWall id 9 indSpecies 0 position -66.7252201468892 -5399.3698832333 -399.519574673534 orientation 1 0 0 0 velocity 0 0 0 angularVelocity 0 0 0 force 0 0 0 torque 0 0 0 vertexInLabFrame  -133.326452437767 -0.000267170786173665 0.00791612919289264 66.6851185948752 -200.240869887841 -0.332183129832515 66.6413338428917 200.241137058626 0.324267000639679
TriangleWall id 10 indSpecies 0 position -200.065423455492 -5265.87514724537 -399.285425753751 orientation 1 0 0 0 velocity 0 0 0 angularVelocity 0 0 0 force 0 0 0 torque 0 0 0 vertexInLabFrame  0.0137508708361054 -133.495003158713 -0.226232790590018 199.981537151495 66.746401070699 0.0901180808567688 -199.995288022331 66.7486020880142 0.136114709733135
TriangleWall id 11 indSpecies 0 position -333.378125022423 -5399.37041757487 -399.503742415148 orientation 1 0 0 0 velocity 0 0 0 angularVelocity 0 0 0 force 0 0 0 torque 0 0 0 vertexInLabFrame  133.326452437767 0.000267170784354676 -0.00791612919294948 -66.6825864554 200.243872417512 0.354431371130204 -66.6438659823669 -200.244139588296 -0.346515241937368
TriangleWall id 12 indSpecies 0 position 199.943032352052 -5532.86326310772 -399.766600495073 orientation 1 0 0 0 velocity 0 0 0 angularVelocity 0 0 0 force 0 0 0 torque 0 0 0 vertexInLabFrame  -0.0154192789768501 133.489505178318 0.209752888842047 -199.983133904066 -66.7474900134175 -0.0851573082930486 199.998553183043 -66.7420151648985 -0.124595580549055
TriangleWall id 13 indSpecies 0 position 333.254017740462 -5399.37643011707 -399.579057518299 orientation 1 0 0 0 velocity 0 0 0 angularVelocity 0 0 0 force 0 0 0 torque 0 0 0 vertexInLabFrame  -133.326404667387 0.00267218766475708 0.0222099120673533 66.6875677946324 -200.228848155552 -0.312138557323749 66.6388368727548 200.226175967885 0.289928645256396
TriangleWall id 14 indSpecies 0 position 199.912193794098 -5265.88425275108 -399.347094717389 orientation 1 0 0 0 velocity 0 0 0 angularVelocity 0 0 0 force 0 0 0 torque 0 0 0 vertexInLabFrame  0.0154192789768501 -133.489505178318 -0.209752888842047 199.980660819119 66.7339986019024 0.0579658443469953 -199.996080098096 66.7555065764136 0.151787044495052
TriangleWall id 15 indSpecies 0 position 66.6012084056878 -5399.37108574174 -399.534637694164 orientation 1 0 0 0 velocity 0 0 0 angularVelocity 0 0 0 force 0 0 0 torque 0 0 0 vertexInLabFrame  133.326404667387 -0.00267218766475708 -0.0222099120673533 -66.6850947096854 200.242339567067 0.339330021269745 -66.6413099577018 -200.2396673794 -0.317120109202449
TriangleWall id 16 indSpecies 0 position -200.081054051425 -5132.38427448286 -398.97555837847 orientation 1 0 0 0 velocity 0 0 0 angularVelocity 0 0 0 force 0 0 0 torque 0 0 0 vertexInLabFrame  -0.0175103210291923 133.486742366313 0.393501959971843 -199.979657426398 -66.7422706744992 -0.173752665547681 199.997167747427 -66.7444716918144 -0.219749294424048
TriangleWall id 17 indSpecies 0 position -66.7692053478211 -4998.89703860682 -398.611191097095 orientation 1 0 0 0 velocity 0 0 0 angularVelocity 0 0 0 force 0 0 0 torque 0 0 0 vertexInLabFrame  -133.329359024633 -0.000493509717671259 0.0291346785964492 66.6853190438235 -200.231707567845 -0.584116575799442 66.6440399808095 200.232201077562 0.554981897203049
TriangleWall id 18 indSpecies 0 position -200.116074693483 -4865.41078975023 -398.188554458527 orientation 1 0 0 0 velocity 0 0 0 angularVelocity 0 0 0 force 0 0 0 torque 0 0 0 vertexInLabFrame  0.0175103210291923 -133.486742366313 -0.393501959971843 199.990909326472 66.7459522209665 0.132345258634757 -200.008419647501 66.7407901453471 0.261156701337143
TriangleWall id 19 indSpecies 0 position -333.427923397087 -4998.89802562626 -398.552921739902 orientation 1 0 0 0 velocity 0 0 0 angularVelocity 0 0 0 force 0 0 0 torque 0 0 0 vertexInLabFrame  133.329359024633 0.000493509717671259 -0.0291346785965061 -66.6965709438971 200.228026021377 0.62552398271248 -66.6327880807359 -200.228519531094 -0.59638930411603
TriangleWall id 20 indSpecies 0 position 199.899482192315 -5132.39569765422 -399.056663786654 orientation 1 0 0 0 velocity 0 0 0 angularVelocity 0 0 0 force 0 0 0 torque 0 0 0 vertexInLabFrame  -0.0100039245905066 133.48760501541 0.371108972628349 -199.983368496312 -66.7330485204493 -0.138643886240175 199.993372420903 -66.7545564949605 -0.232465086388231
TriangleWall id 21 indSpecies 0 position 333.218814336543 -4998.91562649671 -398.725419065781 orientation 1 0 0 0 velocity 0 0 0 angularVelocity 0 0 0 force 0 0 0 torque 0 0 0 vertexInLabFrame  -133.329336068819 0.00753385789539607 0.039864251755148 66.674040276674 -200.234627652475 -0.563709807261432 66.655295792145 200.22709379458 0.523845555506284
TriangleWall id 22 indSpecies 0 position 199.879474343134 -4865.4204876234 -398.314445841397 orientation 1 0 0 0 velocity 0 0 0 angularVelocity 0 0 0 force 0 0 0 torque 0 0 0 vertexInLabFrame  0.0100039245904782 -133.487605015411 -0.371108972628349 199.994635785555 66.7319549212734 0.112872331122787 -200.004639710145 66.7556500941364 0.258236641505619
TriangleWall id 23 indSpecies 0 position 66.560142198905 -4998.90055878091 -398.645690562271 orientation 1 0 0 0 velocity 0 0 0 angularVelocity 0 0 0 force 0 0 0 torque 0 0 0 vertexInLabFrame  133.329336068819 -0.00753385789630556 -0.039864251755148 -66.6853075659165 200.235721251651 0.58948136237882 -66.6440285029025 -200.228187393755 -0.549617110623672
TriangleWall id 24 indSpecies 0 position -200.129846206026 -4731.93074029055 -397.745567572231 orientation 1 0 0 0 velocity 0 0 0 angularVelocity 0 0 0 force 0 0 0 torque 0 0 0 vertexInLabFrame  -0.0100327040557033 133.473356553042 0.492471812620067 -199.994648134959 -66.7392593143313 -0.181830184958812 200.004680839014 -66.7340972387119 -0.310641627661198
TriangleWall id 25 indSpecies 0 position -66.8029097834194 -4598.45429699464 -397.303140942181 orientation 1 0 0 0 velocity 0 0 0 angularVelocity 0 0 0 force 0 0 0 torque 0 0 0 vertexInLabFrame  -133.336969126662 -0.00308674286861788 0.0500451825704999 66.6777444164079 -200.210540534623 -0.753068257710765 66.6592247102541 200.213627277491 0.703023075140152
TriangleWall id 26 indSpecies 0 position -200.149911614137 -4464.98402718447 -396.760623946991 orientation 1 0 0 0 velocity 0 0 0 angularVelocity 0 0 0 force 0 0 0 torque 0 0 0 vertexInLabFrame  0.0100327040557602 -133.473356553042 -0.49247181262001 200.006226540972 66.7433574673178 0.160506079949641 -200.016259245028 66.7299990857246 0.331965732670426
TriangleWall id 27 indSpecies 0 position -333.476848036744 -4598.46047048038 -397.20305057704 orientation 1 0 0 0 velocity 0 0 0 angularVelocity 0 0 0 force 0 0 0 torque 0 0 0 vertexInLabFrame  133.336969126662 0.00308674286861788 -0.0500451825704431 -66.6893228224213 200.206442381635 0.774392362719993 -66.6476463042407 -200.209529124505 -0.724347180149323
TriangleWall id 28 indSpecies 0 position 199.873291938504 -4731.93741980361 -397.88596962281 orientation 1 0 0 0 velocity 0 0 0 angularVelocity 0 0 0 force 0 0 0 torque 0 0 0 vertexInLabFrame  -0.00236088466758133 133.478530624173 0.485843464545553 -199.998457305516 -66.727417725655 -0.170239577081418 200.000818190184 -66.7511128985179 -0.315603887464249
TriangleWall id 29 indSpecies 0 position 333.207835236454 -4598.46297955025 -397.448101241464 orientation 1 0 0 0 velocity 0 0 0 angularVelocity 0 0 0 force 0 0 0 torque 0 0 0 vertexInLabFrame  -133.336904182617 0.00409037081863062 0.0479750831989918 66.6662748922342 -200.225553151872 -0.75347226881081 66.6706292903826 200.221462781053 0.705497185611648
TriangleWall id 30 indSpecies 0 position 199.868570169169 -4464.98035855526 -396.914282693719 orientation 1 0 0 0 velocity 0 0 0 angularVelocity 0 0 0 force 0 0 0 torque 0 0 0 vertexInLabFrame  0.00236088466758133 -133.478530624174 -0.485843464545553 200.009894357667 66.7388417860602 0.171678637867103 -200.012255242335 66.7396888381127 0.314164826678393
TriangleWall id 31 indSpecies 0 position 66.53402687122 -4598.45479880862 -397.352151075066 orientation 1 0 0 0 velocity 0 0 0 angularVelocity 0 0 0 force 0 0 0 torque 0 0 0 vertexInLabFrame  133.336904182617 -0.00409037081954011 -0.0479750831989918 -66.6777119443853 200.214129091467 0.752033208024955 -66.6591922382316 -200.210038720647 -0.704058124825963
TriangleWall id 32 indSpecies 0 position -200.148384409794 -4331.51326315053 -396.1988231559 orientation 1 0 0 0 velocity 0 0 0 angularVelocity 0 0 0 force 0 0 0 torque 0 0 0 vertexInLabFrame  0.0130871127412604 133.468171514831 0.631129769560744 -200.01778644937 -66.740764948212 -0.229835058420008 200.004699336629 -66.7274065666188 -0.401294711140793
TriangleWall id 33 indSpecies 0 position -66.7950612092957 -4198.04033767091 -395.615745460058 orientation 1 0 0 0 velocity 0 0 0 angularVelocity 0 0 0 force 0 0 0 torque 0 0 0 vertexInLabFrame  -133.340236087758 -0.00475396478941548 0.0480520737183951 66.6513761361304 -200.200332046239 -0.984372406983141 66.6888599516272 200.205086011029 0.936320333264803
TriangleWall id 34 indSpecies 0 position -200.122210184312 -4064.57692012087 -394.936563616779 orientation 1 0 0 0 velocity 0 0 0 angularVelocity 0 0 0 force 0 0 0 torque 0 0 0 vertexInLabFrame  -0.0130871127412604 -133.46817151483 -0.631129769560744 200.016008926643 66.741668460988 0.257138489985664 -200.002921813902 66.7265030538442 0.373991279575137
TriangleWall id 35 indSpecies 0 position -333.475533384811 -4198.04984560049 -395.519641312621 orientation 1 0 0 0 velocity 0 0 0 angularVelocity 0 0 0 force 0 0 0 torque 0 0 0 vertexInLabFrame  133.340236087757 0.00475396478941548 -0.0480520737183951 -66.6495986134035 200.199428533464 0.957068975417485 -66.6906374743542 -200.204182498253 -0.909016901699147
TriangleWall id 36 indSpecies 0 position 199.873352511217 -4331.50517179651 -396.347324723196 orientation 1 0 0 0 velocity 0 0 0 angularVelocity 0 0 0 force 0 0 0 torque 0 0 0 vertexInLabFrame  0.011925568763246 133.471842893324 0.648072476500943 -200.017037584382 -66.7354979206357 -0.252793143844883 200.005112015619 -66.7363449726881 -0.395279332656173
TriangleWall id 37 indSpecies 0 position 333.225425576912 -4198.03024104631 -395.738906079881 orientation 1 0 0 0 velocity 0 0 0 angularVelocity 0 0 0 force 0 0 0 torque 0 0 0 vertexInLabFrame  -133.340147496932 -0.00308785688321223 0.0396538331854686 66.6530389499245 -200.211275722895 -1.00369797597165 66.6871085470071 200.214363579778 0.964044142786236
TriangleWall id 38 indSpecies 0 position 199.897203648744 -4064.56148600987 -395.051179770194 orientation 1 0 0 0 velocity 0 0 0 angularVelocity 0 0 0 force 0 0 0 torque 0 0 0 vertexInLabFrame  -0.0119255687631892 -133.471842893323 -0.648072476500943 200.015330475175 66.7456085433382 0.276317833099824 -200.003404906412 66.7262343499851 0.371754643401175
TriangleWall id 39 indSpecies 0 position 66.5451305830489 -4198.03641676007 -395.65959841351 orientation 1 0 0 0 velocity 0 0 0 angularVelocity 0 0 0 force 0 0 0 torque 0 0 0 vertexInLabFrame  133.340147496932 0.00308785688412172 -0.0396538331854117 -66.6513318407174 200.201165100193 0.980173286716706 -66.6888156562142 -200.204252957075 -0.940519453531238
TriangleWall id 40 indSpecies 0 position -200.101779861647 -3931.11503244934 -394.230023508095 orientation 1 0 0 0 velocity 0 0 0 angularVelocity 0 0 0 force 0 0 0 torque 0 0 0 vertexInLabFrame  0.0277735325895208 133.455603828226 0.781950447806764 -200.023352136568 -66.7353846176852 -0.332548829108646 199.995578603978 -66.7202192105415 -0.449401618698118
TriangleWall id 41 indSpecies 0 position -66.7390899031588 -3797.65358534067 -393.471472875366 orientation 1 0 0 0 velocity 0 0 0 angularVelocity 0 0 0 force 0 0 0 torque 0 0 0 vertexInLabFrame  -133.334916425898 -0.00584328044487847 0.0233998150776529 66.6328886454903 -200.181666319212 -1.20795225142723 66.7020277804079 200.187509599658 1.18455243634946
TriangleWall id 42 indSpecies 0 position -200.046232796468 -3664.20382479289 -392.666122612481 orientation 1 0 0 0 velocity 0 0 0 angularVelocity 0 0 0 force 0 0 0 torque 0 0 0 vertexInLabFrame  -0.0277735325895492 -133.455603828227 -0.781950447806707 200.009170673717 66.7377490518766 0.379202173465103 -199.981397141127 66.7178547763497 0.402748274341604
TriangleWall id 43 indSpecies 0 position -333.408922754955 -3797.66527190156 -393.42467324521 orientation 1 0 0 0 velocity 0 0 0 angularVelocity 0 0 0 force 0 0 0 torque 0 0 0 vertexInLabFrame  133.334916425898 0.00584328044442373 -0.0233998150776529 -66.6187071826394 200.179301885021 1.16129890707066 -66.7162092432589 -200.185145165467 -1.13789909199306
TriangleWall id 44 indSpecies 0 position 199.912347900879 -3931.09635141919 -394.324900481807 orientation 1 0 0 0 velocity 0 0 0 angularVelocity 0 0 0 force 0 0 0 torque 0 0 0 vertexInLabFrame  0.0183629355083212 133.458426288036 0.804486100274005 -200.018549158548 -66.7389002406949 -0.354524644986384 200.00018622304 -66.7195260473418 -0.449961455287735
TriangleWall id 45 indSpecies 0 position 333.265605854119 -3797.62943275162 -393.545242113951 orientation 1 0 0 0 velocity 0 0 0 angularVelocity 0 0 0 force 0 0 0 torque 0 0 0 vertexInLabFrame  -133.334895017732 -0.00849237953070769 0.0248277324186006 66.6469282697996 -200.186444714909 -1.22961982314314 66.687966747932 200.194937094439 1.20479209072448
TriangleWall id 46 indSpecies 0 position 199.949073771896 -3664.17949884311 -392.715928281259 orientation 1 0 0 0 velocity 0 0 0 angularVelocity 0 0 0 force 0 0 0 torque 0 0 0 vertexInLabFrame  -0.0183629355083497 -133.458426288036 -0.804486100274005 200.004498830155 66.7450031859335 0.375478258031876 -199.986135894647 66.7134231021032 0.429007842242299
TriangleWall id 47 indSpecies 0 position 66.5958158186561 -3797.64641751068 -393.495586649114 orientation 1 0 0 0 velocity 0 0 0 angularVelocity 0 0 0 force 0 0 0 torque 0 0 0 vertexInLabFrame  133.334895017732 0.00849237953070769 -0.0248277324186574 -66.632877941407 200.18034176967 1.20866621009765 -66.7020170763246 -200.1888341492 -1.18383847767905
TriangleWall id 48 indSpecies 0 position -200.023974081252 -3530.75590033283 -391.815063142692 orientation 1 0 0 0 velocity 0 0 0 angularVelocity 0 0 0 force 0 0 0 torque 0 0 0 vertexInLabFrame  0.0167438978414225 133.440245091897 0.920168491772529 -200.003655856343 -66.7300696837115 -0.448311195447957 199.986911958501 -66.7101754081846 -0.471857296324458
TriangleWall id 49 indSpecies 0 position -66.6804958894696 -3397.30678348054 -390.889721556724 orientation 1 0 0 0 velocity 0 0 0 angularVelocity 0 0 0 force 0 0 0 torque 0 0 0 vertexInLabFrame  -133.326734293941 -0.00887176038986581 -0.00517309419495859 66.6434337667187 -200.159292260471 -1.39719888229195 66.6833005272224 200.16816402086 1.40237197648679
TriangleWall id 50 indSpecies 0 position -199.990486285569 -3263.87541014903 -389.974726159147 orientation 1 0 0 0 velocity 0 0 0 angularVelocity 0 0 0 force 0 0 0 torque 0 0 0 vertexInLabFrame  -0.0167438978414793 -133.440245091896 -0.920168491772472 199.993290923322 66.7367906893537 0.487376578909277 -199.976547025481 66.7034544025419 0.432791912863252
TriangleWall id 51 indSpecies 0 position -333.333964477352 -3397.32452700132 -390.900067745114 orientation 1 0 0 0 velocity 0 0 0 angularVelocity 0 0 0 force 0 0 0 torque 0 0 0 vertexInLabFrame  133.326734293941 0.00887176039032056 0.00517309419495859 -66.633068833698 200.152571254829 1.35813349883068 -66.693665460243 -200.161443015218 -1.36330659302553
TriangleWall id 52 indSpecies 0 position 199.963163482191 -3530.72849341755 -391.843124009558 orientation 1 0 0 0 velocity 0 0 0 angularVelocity 0 0 0 force 0 0 0 torque 0 0 0 vertexInLabFrame  0.00981648508167154 133.443584563083 0.941122443126744 -200.000225604942 -66.737582323457 -0.443796429458132 199.99040911986 -66.7060022396267 -0.497326013668555
TriangleWall id 53 indSpecies 0 position 333.299719107121 -3397.27328302389 -390.911912604301 orientation 1 0 0 0 velocity 0 0 0 angularVelocity 0 0 0 force 0 0 0 torque 0 0 0 vertexInLabFrame  -133.326739139848 -0.0116258305833981 0.00991103786964231 66.6538534949308 -200.161212633293 -1.42853741892566 66.672885644917 200.172838463876 1.41862638105601
TriangleWall id 54 indSpecies 0 position 199.982796452354 -3263.84132429139 -389.960879123305 orientation 1 0 0 0 velocity 0 0 0 angularVelocity 0 0 0 force 0 0 0 torque 0 0 0 vertexInLabFrame  -0.00981648508167154 -133.443584563084 -0.941122443126687 199.989808299683 66.7408797313756 0.467592900059685 -199.979991814602 66.7027048317082 0.473529543067173
TriangleWall id 55 indSpecies 0 position 66.6462408274249 -3397.29653468505 -390.892090528562 orientation 1 0 0 0 velocity 0 0 0 angularVelocity 0 0 0 force 0 0 0 torque 0 0 0 vertexInLabFrame  133.326739139848 0.0116258305829433 -0.00991103786964231 -66.6434361896721 200.157915225375 1.40474094832422 -66.6833029501758 -200.169541055957 -1.39482991045452
TriangleWall id 56 indSpecies 0 position -199.981517228876 -3130.4508689658 -389.000930344039 orientation 1 0 0 0 velocity 0 0 0 angularVelocity 0 0 0 force 0 0 0 torque 0 0 0 vertexInLabFrame  0.00119421554487076 133.408837274564 1.02742313844323 -199.985516082174 -66.7210867806875 -0.541003902244711 199.984321866629 -66.6877504938757 -0.486419236198685
TriangleWall id 57 indSpecies 0 position -66.655646149386 -2997.03405978515 -387.949745377124 orientation 1 0 0 0 velocity 0 0 0 angularVelocity 0 0 0 force 0 0 0 torque 0 0 0 vertexInLabFrame  -133.324676863945 -0.00797190609227982 -0.0237618284712653 66.6584507871388 -200.104559674532 -1.53760420311318 66.6662260768063 200.112531580624 1.56136603158461
TriangleWall id 58 indSpecies 0 position -199.979128797786 -2863.63319441668 -386.946084067152 orientation 1 0 0 0 velocity 0 0 0 angularVelocity 0 0 0 force 0 0 0 torque 0 0 0 vertexInLabFrame  -0.00119421554489918 -133.408837274564 -1.02742313844328 199.989708725207 66.711666212153 0.557704721612595 -199.988514509662 66.6971710624107 0.469718416830574
TriangleWall id 59 indSpecies 0 position -333.304999877276 -2997.05000359733 -387.997269034067 orientation 1 0 0 0 velocity 0 0 0 angularVelocity 0 0 0 force 0 0 0 torque 0 0 0 vertexInLabFrame  133.324676863945 0.00797190609227982 0.0237618284713221 -66.6626434301717 200.113980243067 1.52090338374518 -66.6620334337734 -200.121952149159 -1.54466521221661
TriangleWall id 60 indSpecies 0 position 199.989713214528 -3130.41920257487 -388.969541799141 orientation 1 0 0 0 velocity 0 0 0 angularVelocity 0 0 0 force 0 0 0 torque 0 0 0 vertexInLabFrame  0.00401703926465302 133.400658869946 1.04155220520062 -199.986908576775 -66.7194168848064 -0.517807781096565 199.98289153751 -66.681241985139 -0.523744424104052
TriangleWall id 61 indSpecies 0 position 333.318422234596 -2997.01085695348 -387.921406347975 orientation 1 0 0 0 velocity 0 0 0 angularVelocity 0 0 0 force 0 0 0 torque 0 0 0 vertexInLabFrame  -133.324691980804 -0.00768675144945519 -0.00658324596548709 66.6541825174417 -200.089587606535 -1.57187987527016 66.670509463362 200.097274357985 1.5784631212357
TriangleWall id 62 indSpecies 0 position 199.997747293057 -2863.61788483498 -386.88643738874 orientation 1 0 0 0 velocity 0 0 0 angularVelocity 0 0 0 force 0 0 0 torque 0 0 0 vertexInLabFrame  -0.0040170392646246 -133.400658869946 -1.04155220520056 199.991184404901 66.7043022394882 0.543494162000627 -199.987167365636 66.696356630458 0.498058043200047
TriangleWall id 63 indSpecies 0 position 66.6690382729885 -2997.02623045638 -387.934572839906 orientation 1 0 0 0 velocity 0 0 0 angularVelocity 0 0 0 force 0 0 0 torque 0 0 0 vertexInLabFrame  133.324691980804 0.00768675144900044 0.00658324596560078 -66.6584583455681 200.104702251853 1.54619349436621 -66.6662336352356 -200.112389003304 -1.55277674033158
TriangleWall id 64 indSpecies 0 position -199.974198754735 -2730.23703217131 -385.90248295159 orientation 1 0 0 0 velocity 0 0 0 angularVelocity 0 0 0 force 0 0 0 torque 0 0 0 vertexInLabFrame  0.00866587055779178 133.383487216176 1.05977909268188 -199.993444552713 -66.6989911829587 -0.57388269873195 199.984778682155 -66.6844960332164 -0.485896393949929
TriangleWall id 65 indSpecies 0 position -66.6355071265593 -2596.85547825607 -384.814430259604 orientation 1 0 0 0 velocity 0 0 0 angularVelocity 0 0 0 force 0 0 0 torque 0 0 0 vertexInLabFrame  -133.330025757618 0.00193330093679833 -0.0282735993042706 66.6460870539797 -200.066049948455 -1.57394908593608 66.6839387036381 200.064116647518 1.60222268524041
TriangleWall id 66 indSpecies 0 position -199.956867013619 -2463.47005773895 -383.782924766226 orientation 1 0 0 0 velocity 0 0 0 angularVelocity 0 0 0 force 0 0 0 torque 0 0 0 vertexInLabFrame  -0.0086658705578202 -133.383487216176 -1.05977909268188 200.005298590698 66.6786961304056 0.570717191862798 -199.99663272014 66.7047910857691 0.489061900819081
TriangleWall id 67 indSpecies 0 position -333.295558641795 -2596.85161165419 -384.870977458212 orientation 1 0 0 0 velocity 0 0 0 angularVelocity 0 0 0 force 0 0 0 torque 0 0 0 vertexInLabFrame  133.330025757618 -0.00193330093679833 0.0282735993042706 -66.6579410919647 200.086345001008 1.57711459280523 -66.6720846656531 -200.084411700071 -1.60538819210956
TriangleWall id 68 indSpecies 0 position 200.008047246654 -2730.23280639253 -385.832875182352 orientation 1 0 0 0 velocity 0 0 0 angularVelocity 0 0 0 force 0 0 0 torque 0 0 0 vertexInLabFrame  0.016582867928804 133.369498014953 1.06557220757497 -199.997467319233 -66.6887218119919 -0.555504163187777 199.980884451304 -66.6807762029616 -0.510068044387197
TriangleWall id 69 indSpecies 0 position 333.354713022804 -2596.86788402494 -384.745309317994 orientation 1 0 0 0 velocity 0 0 0 angularVelocity 0 0 0 force 0 0 0 torque 0 0 0 vertexInLabFrame  -133.330082908222 0.00457564736052518 -0.0219936567830814 66.6342186751538 -200.045698570554 -1.59763390874525 66.695864233068 200.041122923193 1.61962756552816
TriangleWall id 70 indSpecies 0 position 200.041212982511 -2463.49381036262 -383.701730767202 orientation 1 0 0 0 velocity 0 0 0 angularVelocity 0 0 0 force 0 0 0 torque 0 0 0 vertexInLabFrame  -0.016582867928804 -133.369498014954 -1.06557220757497 200.009364273361 66.6670492608787 0.57604901473627 -199.992781405432 66.7024487540748 0.48952319283876
TriangleWall id 71 indSpecies 0 position 66.6945472063605 -2596.85873273022 -384.78929663156 orientation 1 0 0 0 velocity 0 0 0 angularVelocity 0 0 0 force 0 0 0 torque 0 0 0 vertexInLabFrame  133.330082908222 -0.00457564736143468 0.0219936567829677 -66.6461156292817 200.067371121667 1.5770890571967 -66.6839672789402 -200.062795474306 -1.59908271397978
TriangleWall id 72 indSpecies 0 position -199.950201898781 -2330.08250649278 -382.709544744575 orientation 1 0 0 0 velocity 0 0 0 angularVelocity 0 0 0 force 0 0 0 torque 0 0 0 vertexInLabFrame  0.00466435911889107 133.391615276167 1.08698095062073 -200.003297834979 -66.6827601604018 -0.584318120832222 199.99863347586 -66.7088551157653 -0.502662829788505
TriangleWall id 73 indSpecies 0 position -66.6083529449356 -2196.69990164331 -381.601351109055 orientation 1 0 0 0 velocity 0 0 0 angularVelocity 0 0 0 force 0 0 0 torque 0 0 0 vertexInLabFrame  -133.337184594726 0.00901042669056551 -0.0212126848990124 66.6567845220144 -200.091459965242 -1.61085646530825 66.680400072712 200.082449538551 1.63206915020726
TriangleWall id 74 indSpecies 0 position -199.940873180543 -2063.29927594045 -380.535582843333 orientation 1 0 0 0 velocity 0 0 0 angularVelocity 0 0 0 force 0 0 0 torque 0 0 0 vertexInLabFrame  -0.00466435911894791 -133.391615276167 -1.08698095062067 200.01292030832 66.681823835693 0.566300884485599 -200.008255949201 66.7097914404746 0.520680066135071
TriangleWall id 75 indSpecies 0 position -333.282722134388 -2196.68188078993 -381.643776478853 orientation 1 0 0 0 velocity 0 0 0 angularVelocity 0 0 0 force 0 0 0 torque 0 0 0 vertexInLabFrame  133.337184594726 -0.00901042669102026 0.0212126848991261 -66.6664069953553 200.092396289951 1.62887370165487 -66.6707775993711 -200.08338586326 -1.65008638655382
TriangleWall id 76 indSpecies 0 position 200.055033855893 -2330.11269454145 -382.628607178128 orientation 1 0 0 0 velocity 0 0 0 angularVelocity 0 0 0 force 0 0 0 torque 0 0 0 vertexInLabFrame  0.011058878834092 133.392733627392 1.0806749705734 -200.006602278814 -66.6786670670976 -0.583600396235454 199.99554339998 -66.7140665602938 -0.497074574337944
TriangleWall id 77 indSpecies 0 position 333.403328322926 -2196.73033028566 -381.51939050152 orientation 1 0 0 0 velocity 0 0 0 angularVelocity 0 0 0 force 0 0 0 torque 0 0 0 vertexInLabFrame  -133.337235588199 0.0103693716046109 -0.0285417060341047 66.6472489329462 -200.096430816081 -1.60629125094545 66.6899866552531 200.086061444476 1.63483295697949
TriangleWall id 78 indSpecies 0 position 200.077151613561 -2063.32722728667 -380.467257236981 orientation 1 0 0 0 velocity 0 0 0 angularVelocity 0 0 0 force 0 0 0 torque 0 0 0 vertexInLabFrame  -0.011058878834092 -133.392733627392 -1.08067497057345 200.016163364618 66.6829584454797 0.582699692440144 -200.005104485784 66.7097751819113 0.497975278133197
TriangleWall id 79 indSpecies 0 position 66.7288571465273 -2196.70959154245 -381.576473913588 orientation 1 0 0 0 velocity 0 0 0 angularVelocity 0 0 0 force 0 0 0 torque 0 0 0 vertexInLabFrame  133.337235588199 -0.0103693716046109 0.0285417060340478 -66.6568100187508 200.092139437699 1.6071919547407 -66.6804255694485 -200.081770066094 -1.6357336607748
TriangleWall id 80 indSpecies 0 position -199.947637730342 -1929.9066084826 -379.400775793446 orientation 1 0 0 0 velocity 0 0 0 angularVelocity 0 0 0 force 0 0 0 torque 0 0 0 vertexInLabFrame  -0.0181934587173771 133.393719639532 1.18263314915311 -200.001491399401 -66.6828760173748 -0.614126983751817 200.019684858119 -66.7108436221565 -0.568506165401288