<?xml version="1.0"?>
<VTKFile type="UnstructuredGrid" version="0.1" byte_order="LittleEndian" compressor="vtkZLibDataCompressor">
<UnstructuredGrid>
<Piece NumberOfPoints="960" NumberOfCells="120">
<Points>
<DataArray type="Float32" NumberOfComponents="3" format="ascii">
-4.000000e+02 -6.000000e+03 -4.000000e+02
0.000000e+00 -6.000000e+03 -4.000000e+02
-3.999350e+02 -5.600240e+03 -4.000770e+02
7.310490e-02 -5.600250e+03 -3.999970e+02
-4.000000e+02 -6.000000e+03 0.000000e+00
0.000000e+00 -6.000000e+03 0.000000e+00
-4.000000e+02 -5.600020e+03 -9.621370e-02
-1.231640e-04 -5.600020e+03 -1.379930e-02
0.000000e+00 -6.000000e+03 -4.000000e+02
4.000000e+02 -6.000000e+03 -4.000000e+02
7.310490e-02 -5.600250e+03 -3.999970e+02
4.000820e+02 -5.600250e+03 -3.999040e+02
0.000000e+00 -6.000000e+03 0.000000e+00
4.000000e+02 -6.000000e+03 0.000000e+00
-1.231640e-04 -5.600020e+03 -1.379930e-02
4.000000e+02 -5.600020e+03 7.882480e-02
-3.999350e+02 -5.600240e+03 -4.000770e+02
7.310490e-02 -5.600250e+03 -3.999970e+02
-3.998630e+02 -5.200540e+03 -4.005210e+02
1.459370e-01 -5.200550e+03 -4.003900e+02
-4.000000e+02 -5.600020e+03 -9.621370e-02
-1.231640e-04 -5.600020e+03 -1.379930e-02
-3.999960e+02 -5.200020e+03 -5.931870e-01
3.364780e-03 -5.200020e+03 -4.532650e-01
7.310490e-02 -5.600250e+03 -3.999970e+02
4.000820e+02 -5.600250e+03 -3.999040e+02
1.459370e-01 -5.200550e+03 -4.003900e+02
4.001550e+02 -5.200550e+03 -4.002390e+02
-1.231640e-04 -5.600020e+03 -1.379930e-02
4.000000e+02 -5.600020e+03 7.882480e-02
3.364780e-03 -5.200020e+03 -4.532650e-01
4.000030e+02 -5.200020e+03 -2.962220e-01
-3.998630e+02 -5.200540e+03 -4.005210e+02
1.459370e-01 -5.200550e+03 -4.003900e+02
-3.998070e+02 -4.800810e+03 -4.012490e+02
1.950690e-01 -4.800800e+03 -4.010780e+02
-3.999960e+02 -5.200020e+03 -5.931870e-01
3.364780e-03 -5.200020e+03 -4.532650e-01
-3.999960e+02 -4.800010e+03 -1.372020e+00
4.279970e-03 -4.800010e+03 -1.189520e+00
1.459370e-01 -5.200550e+03 -4.003900e+02
4.001550e+02 -5.200550e+03 -4.002390e+02
1.950690e-01 -4.800800e+03 -4.010780e+02
4.001970e+02 -4.800790e+03 -4.008980e+02
3.364780e-03 -5.200020e+03 -4.532650e-01
4.000030e+02 -5.200020e+03 -2.962220e-01
4.279970e-03 -4.800010e+03 -1.189520e+00
4.000050e+02 -4.800010e+03 -9.975680e-01
-3.998070e+02 -4.800810e+03 -4.012490e+02
1.950690e-01 -4.800800e+03 -4.010780e+02
-3.997990e+02 -4.401060e+03 -4.022040e+02
1.930030e-01 -4.401050e+03 -4.019980e+02
-3.999960e+02 -4.800010e+03 -1.372020e+00
4.279970e-03 -4.800010e+03 -1.189520e+00
-3.999950e+02 -4.399990e+03 -2.338240e+00
4.910650e-03 -4.399990e+03 -2.121760e+00
1.950690e-01 -4.800800e+03 -4.010780e+02
4.001970e+02 -4.800790e+03 -4.008980e+02
1.930030e-01 -4.401050e+03 -4.019980e+02
4.001850e+02 -4.401040e+03 -4.018070e+02
4.279970e-03 -4.800010e+03 -1.189520e+00
4.000050e+02 -4.800010e+03 -9.975680e-01
4.910650e-03 -4.399990e+03 -2.121760e+00
4.000050e+02 -4.399990e+03 -1.916600e+00
-3.997990e+02 -4.401060e+03 -4.022040e+02
1.930030e-01 -4.401050e+03 -4.019980e+02
-3.998250e+02 -4.001280e+03 -4.034150e+02
1.661240e-01 -4.001290e+03 -4.032310e+02
-3.999950e+02 -4.399990e+03 -2.338240e+00
4.910650e-03 -4.399990e+03 -2.121760e+00
-3.999940e+02 -3.999980e+03 -3.504310e+00
4.762080e-03 -3.999980e+03 -3.308540e+00
1.930030e-01 -4.401050e+03 -4.019980e+02
4.001850e+02 -4.401040e+03 -4.018070e+02
1.661240e-01 -4.001290e+03 -4.032310e+02
4.001570e+02 -4.001310e+03 -4.030610e+02
4.910650e-03 -4.399990e+03 -2.121760e+00
4.000050e+02 -4.399990e+03 -1.916600e+00
4.762080e-03 -3.999980e+03 -3.308540e+00
4.000030e+02 -3.999980e+03 -3.131590e+00
-3.998250e+02 -4.001280e+03 -4.034150e+02
1.661240e-01 -4.001290e+03 -4.032310e+02
-3.998790e+02 -3.601420e+03 -4.048290e+02
1.253000e-01 -3.601440e+03 -4.047260e+02
-3.999940e+02 -3.999980e+03 -3.504310e+00
4.762080e-03 -3.999980e+03 -3.308540e+00
-3.999940e+02 -3.599990e+03 -4.861610e+00
4.729700e-03 -3.599990e+03 -4.744580e+00
1.661240e-01 -4.001290e+03 -4.032310e+02
4.001570e+02 -4.001310e+03 -4.030610e+02
1.253000e-01 -3.601440e+03 -4.047260e+02
4.001300e+02 -3.601470e+03 -4.046130e+02
4.762080e-03 -3.999980e+03 -3.308540e+00
4.000030e+02 -3.999980e+03 -3.131590e+00
4.729700e-03 -3.599990e+03 -4.744580e+00
4.000030e+02 -3.599990e+03 -4.624340e+00
-3.998790e+02 -3.601420e+03 -4.048290e+02
1.253000e-01 -3.601440e+03 -4.047260e+02
-3.999360e+02 -3.201470e+03 -4.063210e+02
7.182520e-02 -3.201480e+03 -4.062740e+02
-3.999940e+02 -3.599990e+03 -4.861610e+00
4.729700e-03 -3.599990e+03 -4.744580e+00
-3.999980e+02 -3.200020e+03 -6.341470e+00
3.682780e-03 -3.200020e+03 -6.290150e+00
1.253000e-01 -3.601440e+03 -4.047260e+02
4.001300e+02 -3.601470e+03 -4.046130e+02
7.182520e-02 -3.201480e+03 -4.062740e+02
4.000790e+02 -3.201490e+03 -4.062160e+02
4.729700e-03 -3.599990e+03 -4.744580e+00
4.000030e+02 -3.599990e+03 -4.624340e+00
3.682780e-03 -3.200020e+03 -6.290150e+00
4.000050e+02 -3.200020e+03 -6.221850e+00
-3.999360e+02 -3.201470e+03 -4.063210e+02
7.182520e-02 -3.201480e+03 -4.062740e+02
-3.999780e+02 -2.801460e+03 -4.077480e+02
2.551520e-02 -2.801470e+03 -4.077280e+02
-3.999980e+02 -3.200020e+03 -6.341470e+00
3.682780e-03 -3.200020e+03 -6.290150e+00
-4.000010e+02 -2.800040e+03 -7.823020e+00
3.941460e-03 -2.800040e+03 -7.805010e+00
7.182520e-02 -3.201480e+03 -4.062740e+02
4.000790e+02 -3.201490e+03 -4.062160e+02
2.551520e-02 -2.801470e+03 -4.077280e+02
4.000290e+02 -2.801460e+03 -4.077150e+02
3.682780e-03 -3.200020e+03 -6.290150e+00
4.000050e+02 -3.200020e+03 -6.221850e+00
3.941460e-03 -2.800040e+03 -7.805010e+00
4.000090e+02 -2.800030e+03 -7.773550e+00
-3.999780e+02 -2.801460e+03 -4.077480e+02
2.551520e-02 -2.801470e+03 -4.077280e+02
-3.999890e+02 -2.401470e+03 -4.091040e+02
-2.960970e-03 -2.401470e+03 -4.090940e+02
-4.000010e+02 -2.800040e+03 -7.823020e+00
3.941460e-03 -2.800040e+03 -7.805010e+00
-4.000020e+02 -2.400030e+03 -9.247400e+00
3.092120e-03 -2.400030e+03 -9.240150e+00
2.551520e-02 -2.801470e+03 -4.077280e+02
4.000290e+02 -2.801460e+03 -4.077150e+02
-2.960970e-03 -2.401470e+03 -4.090940e+02
3.999840e+02 -2.401460e+03 -4.091220e+02
3.941460e-03 -2.800040e+03 -7.805010e+00
4.000090e+02 -2.800030e+03 -7.773550e+00
3.092120e-03 -2.400030e+03 -9.240150e+00
4.000090e+02 -2.400030e+03 -9.249100e+00
-3.999890e+02 -2.401470e+03 -4.091040e+02
-2.960970e-03 -2.401470e+03 -4.090940e+02
-4.000080e+02 -2.001550e+03 -4.105200e+02
-1.830440e-02 -2.001550e+03 -4.105280e+02
-4.000020e+02 -2.400030e+03 -9.247400e+00
3.092120e-03 -2.400030e+03 -9.240150e+00
-4.000000e+02 -2.000010e+03 -1.068980e+01
2.463770e-03 -2.000010e+03 -1.069640e+01
-2.960970e-03 -2.401470e+03 -4.090940e+02
3.999840e+02 -2.401460e+03 -4.091220e+02
-1.830440e-02 -2.001550e+03 -4.105280e+02
3.999710e+02 -2.001550e+03 -4.105640e+02
3.092120e-03 -2.400030e+03 -9.240150e+00
4.000090e+02 -2.400030e+03 -9.249100e+00
2.463770e-03 -2.000010e+03 -1.069640e+01
4.000050e+02 -2.000010e+03 -1.071800e+01
-4.000080e+02 -2.001550e+03 -4.105200e+02
-1.830440e-02 -2.001550e+03 -4.105280e+02
-4.000060e+02 -1.601680e+03 -4.121890e+02
-7.494180e-03 -1.601670e+03 -4.121960e+02
-4.000000e+02 -2.000010e+03 -1.068980e+01
2.463770e-03 -2.000010e+03 -1.069640e+01
-3.999960e+02 -1.600000e+03 -1.232500e+01
3.115820e-03 -1.600000e+03 -1.232190e+01
-1.830440e-02 -2.001550e+03 -4.105280e+02
3.999710e+02 -2.001550e+03 -4.105640e+02
-7.494180e-03 -1.601670e+03 -4.121960e+02
3.999920e+02 -1.601670e+03 -4.122050e+02
2.463770e-03 -2.000010e+03 -1.069640e+01
4.000050e+02 -2.000010e+03 -1.071800e+01
3.115820e-03 -1.600000e+03 -1.232190e+01
4.000030e+02 -1.600000e+03 -1.232480e+01
-4.000060e+02 -1.601680e+03 -4.121890e+02
-7.494180e-03 -1.601670e+03 -4.121960e+02
-3.999840e+02 -1.201720e+03 -4.140330e+02
2.675830e-02 -1.201720e+03 -4.140110e+02
-3.999960e+02 -1.600000e+03 -1.232500e+01
3.115820e-03 -1.600000e+03 -1.232190e+01
-3.999950e+02 -1.200000e+03 -1.410150e+01
2.799100e-03 -1.200000e+03 -1.406990e+01
-7.494180e-03 -1.601670e+03 -4.121960e+02
3.999920e+02 -1.601670e+03 -4.122050e+02
2.675830e-02 -1.201720e+03 -4.140110e+02
4.000380e+02 -1.201720e+03 -4.139640e+02
3.115820e-03 -1.600000e+03 -1.232190e+01
4.000030e+02 -1.600000e+03 -1.232480e+01
2.799100e-03 -1.200000e+03 -1.406990e+01
4.000010e+02 -1.200000e+03 -1.402280e+01
-3.999840e+02 -1.201720e+03 -4.140330e+02
2.675830e-02 -1.201720e+03 -4.140110e+02
-3.999620e+02 -8.016840e+02 -4.157720e+02
5.031540e-02 -8.016880e+02 -4.157200e+02
-3.999950e+02 -1.200000e+03 -1.410150e+01
2.799100e-03 -1.200000e+03 -1.406990e+01
-3.999990e+02 -8.000220e+02 -1.579620e+01
-9.325170e-04 -8.000230e+02 -1.574290e+01
2.675830e-02 -1.201720e+03 -4.140110e+02
4.000380e+02 -1.201720e+03 -4.139640e+02
5.031540e-02 -8.016880e+02 -4.157200e+02
4.000630e+02 -8.016960e+02 -4.156420e+02
2.799100e-03 -1.200000e+03 -1.406990e+01
4.000010e+02 -1.200000e+03 -1.402280e+01
-9.325170e-04 -8.000230e+02 -1.574290e+01
3.999970e+02 -8.000230e+02 -1.567320e+01
-3.999620e+02 -8.016840e+02 -4.157720e+02
5.031540e-02 -8.016880e+02 -4.157200e+02
-3.999510e+02 -4.016850e+02 -4.173970e+02
5.079670e-02 -4.016930e+02 -4.173400e+02
-3.999990e+02 -8.000220e+02 -1.579620e+01
-9.325170e-04 -8.000230e+02 -1.574290e+01
-4.000000e+02 -4.000390e+02 -1.744070e+01
-1.154700e-03 -4.000380e+02 -1.738410e+01
5.031540e-02 -8.016880e+02 -4.157200e+02
4.000630e+02 -8.016960e+02 -4.156420e+02
5.079670e-02 -4.016930e+02 -4.173400e+02
4.000530e+02 -4.017030e+02 -4.172830e+02
-9.325170e-04 -8.000230e+02 -1.574290e+01
3.999970e+02 -8.000230e+02 -1.567320e+01
-1.154700e-03 -4.000380e+02 -1.738410e+01
3.999980e+02 -4.000360e+02 -1.732920e+01
-3.999510e+02 -4.016850e+02 -4.173970e+02
5.079670e-02 -4.016930e+02 -4.173400e+02
-3.999410e+02 -1.744190e+00 -4.190710e+02
5.406370e-02 -1.747270e+00 -4.190120e+02
-4.000000e+02 -4.000390e+02 -1.744070e+01
-1.154700e-03 -4.000380e+02 -1.738410e+01
-4.000000e+02 -3.608590e-02 -1.913920e+01
2.596940e-04 -3.463080e-02 -1.907840e+01
5.079670e-02 -4.016930e+02 -4.173400e+02
4.000530e+02 -4.017030e+02 -4.172830e+02
5.406370e-02 -1.747270e+00 -4.190120e+02
[...]
<PointData>
<DataArray type="Float32" Name="V1" format="ascii">
0.000000e+00
0.000000e+00
-1.850230e-02
-3.977720e-03
0.000000e+00
0.000000e+00
-5.006510e-03
-2.276340e-03
0.000000e+00
0.000000e+00
-3.977720e-03
1.028930e-02
0.000000e+00
0.000000e+00
-2.276340e-03
2.235000e-04
-1.850230e-02
-3.977720e-03
-8.986300e-03
1.458120e-03
-5.006510e-03
-2.276340e-03
-1.164480e-02
-6.747640e-03
-3.977720e-03
1.028930e-02
1.458120e-03
1.181590e-02
-2.276340e-03
2.235000e-04
-6.747640e-03
-1.916620e-03
-8.986300e-03
1.458120e-03
1.460520e-02
1.104410e-02
-1.164480e-02
-6.747640e-03
-1.106090e-02
-5.966500e-03
1.458120e-03
1.181590e-02
1.104410e-02
7.561610e-03
-6.747640e-03
-1.916620e-03
-5.966500e-03
-8.602380e-04
1.460520e-02
1.104410e-02
4.106270e-02
1.759090e-02
-1.106090e-02
-5.966500e-03
-3.805590e-03
3.599130e-05
1.104410e-02
7.561610e-03
1.759090e-02
-5.810540e-03
-5.966500e-03
-8.602380e-04
3.599130e-05
3.820530e-03
4.106270e-02
1.759090e-02
4.316290e-02
1.547820e-02
-3.805590e-03
3.599130e-05
-1.990250e-03
1.937060e-03
1.759090e-02
-5.810540e-03
1.547820e-02
-1.246170e-02
3.599130e-05
3.820530e-03
1.937060e-03
5.685110e-03
4.316290e-02
1.547820e-02
1.917620e-02
9.589360e-03
-1.990250e-03
1.937060e-03
-2.285040e-03
1.661670e-03
1.547820e-02
-1.246170e-02
9.589360e-03
-2.167980e-04
1.937060e-03
5.685110e-03
1.661670e-03
5.424690e-03
1.917620e-02
9.589360e-03
-5.871070e-03
6.444680e-03
-2.285040e-03
1.661670e-03
-4.537490e-03
-2.163320e-04
9.589360e-03
-2.167980e-04
6.444680e-03
1.866250e-02
1.661670e-03
5.424690e-03
-2.163320e-04
3.953260e-03
-5.871070e-03
6.444680e-03
-1.968530e-02
-5.293980e-03
-4.537490e-03
-2.163320e-04
-3.620940e-03
-9.273880e-04
6.444680e-03
1.866250e-02
-5.293980e-03
8.943240e-03
-2.163320e-04
3.953260e-03
-9.273880e-04
1.665200e-03
-1.968530e-02
-5.293980e-03
-2.194240e-02
-2.270620e-02
-3.620940e-03
-9.273880e-04
1.097060e-03
-5.134080e-04
-5.293980e-03
8.943240e-03
-2.270620e-02
-2.367600e-02
-9.273880e-04
1.665200e-03
-5.134080e-04
-2.242030e-03
-2.194240e-02
-2.270620e-02
-1.220770e-02
-1.782230e-02
1.097060e-03
-5.134080e-04
5.216330e-03
1.304630e-04
-2.270620e-02
-2.367600e-02
-1.782230e-02
-2.374750e-02
-5.134080e-04
-2.242030e-03
1.304630e-04
-5.209240e-03
-1.220770e-02
-1.782230e-02
1.209490e-02
8.441860e-03
5.216330e-03
1.304630e-04
4.807690e-03
-1.035170e-03
-1.782230e-02
-2.374750e-02
8.441860e-03
4.645280e-03
1.304630e-04
-5.209240e-03
-1.035170e-03
-7.092060e-03
1.209490e-02
8.441860e-03
4.318570e-03
1.250710e-02
4.807690e-03
-1.035170e-03
1.867460e-03
-1.686940e-03
8.441860e-03
4.645280e-03
1.250710e-02
2.077230e-02
-1.035170e-03
-7.092060e-03
-1.686940e-03
-5.251980e-03
4.318570e-03
1.250710e-02
-1.792820e-02
-3.253170e-03
1.867460e-03
-1.686940e-03
-1.814430e-03
-1.326560e-03
1.250710e-02
2.077230e-02
-3.253170e-03
1.142850e-02
-1.686940e-03
-5.251980e-03
-1.326560e-03
-8.452510e-04
-1.792820e-02
-3.253170e-03
-2.104400e-02
-7.073510e-03
-1.814430e-03
-1.326560e-03
-7.543920e-04
2.136290e-03
-3.253170e-03
1.142850e-02
-7.073510e-03
6.564870e-03
-1.326560e-03
-8.452510e-04
2.136290e-03
4.815480e-03
-2.104400e-02
-7.073510e-03
6.738140e-03
6.318080e-03
-7.543920e-04
2.136290e-03
-2.463780e-03
1.295420e-03
-7.073510e-03
6.564870e-03
6.318080e-03
5.647350e-03
2.136290e-03
4.815480e-03
1.295420e-03
4.897250e-03
6.738140e-03
6.318080e-03
2.841090e-02
1.725980e-02
-2.463780e-03
1.295420e-03
-6.478320e-03
-4.625930e-04
6.318080e-03
5.647350e-03
1.725980e-02
6.193930e-03
1.295420e-03
4.897250e-03
-4.625930e-04
5.556130e-03
2.841090e-02
1.725980e-02
3.140240e-02
1.266060e-02
-6.478320e-03
-4.625930e-04
-8.675390e-03
-4.231360e-04
1.725980e-02
6.193930e-03
1.266060e-02
-5.960170e-03
-4.625930e-04
5.556130e-03
-4.231360e-04
7.806270e-03
3.140240e-02
1.266060e-02
6.228810e-03
2.797140e-03
-8.675390e-03
-4.231360e-04
-1.106450e-02
-3.162300e-03
1.266060e-02
-5.960170e-03
2.797140e-03
-6.895350e-04
-4.231360e-04
7.806270e-03
-3.162300e-03
4.687690e-03
6.228810e-03
2.797140e-03
-5.725880e-03
1.767970e-03
-1.106450e-02
-3.162300e-03
-7.016380e-03
-2.356160e-03
2.797140e-03
-6.895350e-04
1.767970e-03
9.084500e-03
-3.162300e-03
4.687690e-03
-2.356160e-03
2.176200e-03
-5.725880e-03
1.767970e-03
-1.396770e-02
-8.462650e-03
-7.016380e-03
-2.356160e-03
-1.845500e-03
4.439800e-04
1.767970e-03
9.084500e-03
-8.462650e-03
-3.014450e-03
-2.356160e-03
2.176200e-03
4.439800e-04
2.747770e-03
-1.396770e-02
-8.462650e-03
-1.912400e-02
-2.496000e-02
-1.845500e-03
4.439800e-04
-2.900910e-03
-4.632320e-04
-8.462650e-03
-3.014450e-03
-2.496000e-02
-3.063530e-02
4.439800e-04
2.747770e-03
-4.632320e-04
2.109630e-03
-1.912400e-02
-2.496000e-02
-2.253340e-03
-1.784590e-02
-2.900910e-03
-4.632320e-04
-2.838830e-03
-8.157200e-04
-2.496000e-02
-3.063530e-02
-1.784590e-02
-3.345090e-02
-4.632320e-04
2.109630e-03
-8.157200e-04
1.204600e-03
-2.253340e-03
-1.784590e-02
6.319720e-03
-6.422760e-04
-2.838830e-03
-8.157200e-04
1.079190e-03
1.598540e-03
-1.784590e-02
-3.345090e-02
-6.422760e-04
-7.648300e-03
-8.157200e-04
1.204600e-03
1.598540e-03
2.111380e-03
6.319720e-03
-6.422760e-04
5.032370e-03
1.213860e-02
1.079190e-03
1.598540e-03
1.781630e-04
-9.816460e-04
-6.422760e-04
-7.648300e-03
1.213860e-02
1.917380e-02
1.598540e-03
2.111380e-03
-9.816460e-04
-2.135350e-03
5.032370e-03
1.213860e-02
1.181490e-02
2.162910e-02
1.781630e-04
-9.816460e-04
2.232290e-03
-2.297090e-04
1.213860e-02
1.917380e-02
2.162910e-02
3.154030e-02
-9.816460e-04
-2.135350e-03
-2.297090e-04
-2.565670e-03
1.181490e-02
2.162910e-02
2.898780e-02
2.505510e-02
2.232290e-03
-2.297090e-04
4.373490e-03
-7.324740e-05
2.162910e-02
3.154030e-02
2.505510e-02
2.132360e-02
-2.297090e-04
-2.565670e-03
-7.324740e-05
-4.341710e-03
2.898780e-02
2.505510e-02
2.727010e-02
1.485510e-02
4.373490e-03
-7.324740e-05
5.354550e-03
1.015640e-03
2.505510e-02
2.132360e-02
1.485510e-02
2.441990e-03
-7.324740e-05
-4.341710e-03
1.015640e-03
-3.289910e-03
2.727010e-02
1.485510e-02
1.769770e-02
9.917640e-03
5.354550e-03
1.015640e-03
1.319570e-03
-1.239110e-03
1.485510e-02
2.441990e-03
9.917640e-03
2.089720e-03
1.015640e-03
-3.289910e-03
-1.239110e-03
-3.748750e-03
1.769770e-02
9.917640e-03
7.952860e-03
2.814600e-04
1.319570e-03
-1.239110e-03
2.021900e-03
-2.398690e-04
9.917640e-03
2.089720e-03
2.814600e-04
-7.236740e-03
-1.239110e-03
-3.748750e-03
-2.398690e-04
-2.411300e-03
7.952860e-03
2.814600e-04
-1.675950e-02
-1.342020e-02
2.021900e-03
-2.398690e-04
5.862460e-03
3.716290e-03
2.814600e-04
-7.236740e-03
-1.342020e-02
-9.907800e-03
-2.398690e-04
-2.411300e-03
3.716290e-03
1.689760e-03
0.000000e+00
0.000000e+00
-5.006510e-03
-2.276340e-03
0.000000e+00
0.000000e+00
2.838890e-02
8.932870e-03
0.000000e+00
0.000000e+00
-2.276340e-03
2.235000e-04
0.000000e+00
0.000000e+00
8.932870e-03
-1.071680e-02
-5.006510e-03
-2.276340e-03
-1.164480e-02
-6.747640e-03
2.838890e-02
8.932870e-03
3.272690e-02
1.285740e-02
-2.276340e-03
2.235000e-04
-6.747640e-03
-1.916620e-03
8.932870e-03
-1.071680e-02
1.285740e-02
-7.059950e-03
-1.164480e-02
-6.747640e-03
-1.106090e-02
-5.966500e-03
3.272690e-02
1.285740e-02
7.637710e-03
9.081740e-04
-6.747640e-03
-1.916620e-03
-5.966500e-03
-8.602380e-04
1.285740e-02
-7.059950e-03
9.081740e-04
-5.867450e-03
-1.106090e-02
-5.966500e-03
-3.805590e-03
3.599130e-05
7.637710e-03
9.081740e-04
-3.395970e-02
-1.799330e-02
-5.966500e-03
-8.602380e-04
3.599130e-05
3.820530e-03
9.081740e-04
-5.867450e-03
-1.799330e-02
-2.212110e-03
-3.805590e-03
3.599130e-05
-1.990250e-03
1.937060e-03
-3.395970e-02
-1.799330e-02
-3.855990e-02
-1.875320e-02
3.599130e-05
3.820530e-03
1.937060e-03
5.685110e-03
-1.799330e-02
-2.212110e-03
-1.875320e-02
9.062100e-04
-1.990250e-03
1.937060e-03
-2.285040e-03
1.661670e-03
-3.855990e-02
-1.875320e-02
-1.434390e-02
-1.241400e-02
1.937060e-03
5.685110e-03
1.661670e-03
5.424690e-03
-1.875320e-02
9.062100e-04
-1.241400e-02
-1.063220e-02
-2.285040e-03
1.661670e-03
-4.537490e-03
-2.163320e-04
-1.434390e-02
-1.241400e-02
1.500970e-02
-5.577150e-03
1.661670e-03
5.424690e-03
-2.163320e-04
3.953260e-03
-1.241400e-02
-1.063220e-02
-5.577150e-03
-2.632850e-02
-4.537490e-03
-2.163320e-04
-3.620940e-03
-9.273880e-04
1.500970e-02
-5.577150e-03
2.661850e-02
7.217940e-03
-2.163320e-04
3.953260e-03
-9.273880e-04
1.665200e-03
-5.577150e-03
-2.632850e-02
7.217940e-03
-1.228700e-02
-3.620940e-03
-9.273880e-04
1.097060e-03
-5.134080e-04
2.661850e-02
7.217940e-03
1.963980e-02
2.373620e-02
-9.273880e-04
1.665200e-03
-5.134080e-04
-2.242030e-03
7.217940e-03
-1.228700e-02
2.373620e-02
2.776800e-02
1.097060e-03
-5.134080e-04
5.216330e-03
1.304630e-04
1.963980e-02
2.373620e-02
8.878970e-04
1.658530e-02
-5.134080e-04
-2.242030e-03
1.304630e-04
-5.209240e-03
2.373620e-02
2.776800e-02
1.658530e-02
3.208260e-02
5.216330e-03
1.304630e-04
4.807690e-03
-1.035170e-03
8.878970e-04
1.658530e-02
-2.183560e-02
-6.118310e-03
1.304630e-04
-5.209240e-03
-1.035170e-03
-7.092060e-03
1.658530e-02
3.208260e-02
-6.118310e-03
9.354150e-03
4.807690e-03
-1.035170e-03
1.867460e-03
-1.686940e-03
-2.183560e-02
-6.118310e-03
-7.357660e-03
-8.272300e-03
-1.035170e-03
-7.092060e-03
-1.686940e-03
-5.251980e-03
-6.118310e-03
9.354150e-03
-8.272300e-03
-9.295830e-03
1.867460e-03
-1.686940e-03
-1.814430e-03
-1.326560e-03
-7.357660e-03
-8.272300e-03
1.974970e-02
4.361660e-03
-1.686940e-03
-5.251980e-03
-1.326560e-03
-8.452510e-04
-8.272300e-03
-9.295830e-03
4.361660e-03
-1.105470e-02
-1.814430e-03
-1.326560e-03
-7.543920e-04
2.136290e-03
1.974970e-02
4.361660e-03
2.322320e-02
3.934830e-03
-1.326560e-03
-8.452510e-04
2.136290e-03
4.815480e-03
4.361660e-03
-1.105470e-02
3.934830e-03
-1.548400e-02
-7.543920e-04
2.136290e-03
-2.463780e-03
1.295420e-03
2.322320e-02
3.934830e-03
-1.507710e-03
-8.616700e-03
2.136290e-03
4.815480e-03
1.295420e-03
4.897250e-03
3.934830e-03
-1.548400e-02
-8.616700e-03
-1.580340e-02
-2.463780e-03
1.295420e-03
-6.478320e-03
-4.625930e-04
-1.507710e-03
-8.616700e-03
-1.608260e-02
-1.697200e-02
1.295420e-03
4.897250e-03
-4.625930e-04
5.556130e-03
-8.616700e-03
-1.580340e-02
-1.697200e-02
-1.794600e-02
-6.478320e-03
-4.625930e-04
-8.675390e-03
-4.231360e-04
-1.608260e-02
-1.697200e-02
-1.364560e-02
-1.109190e-02
-4.625930e-04
5.556130e-03
-4.231360e-04
7.806270e-03
-1.697200e-02
-1.794600e-02
-1.109190e-02
-8.655880e-03
-8.675390e-03
-4.231360e-04
-1.106450e-02
-3.162300e-03
-1.364560e-02
-1.109190e-02
1.500070e-02
2.985710e-03
-4.231360e-04
7.806270e-03
-3.162300e-03
4.687690e-03
-1.109190e-02
-8.655880e-03
2.985710e-03
-9.077890e-03
-1.106450e-02
-3.162300e-03
-7.016380e-03
-2.356160e-03
1.500070e-02
2.985710e-03
1.980970e-02
3.684080e-03
-3.162300e-03
4.687690e-03
-2.356160e-03
2.176200e-03
2.985710e-03
-9.077890e-03
3.684080e-03
-1.253700e-02
-7.016380e-03
-2.356160e-03
-1.845500e-03
4.439800e-04
1.980970e-02
3.684080e-03
1.822300e-02
8.114200e-03
-2.356160e-03
2.176200e-03
4.439800e-04
2.747770e-03
3.684080e-03
-1.253700e-02
8.114200e-03
-1.954670e-03
-1.845500e-03
4.439800e-04
-2.900910e-03
-4.632320e-04
1.822300e-02
8.114200e-03
2.507210e-02
2.531790e-02
4.439800e-04
2.747770e-03
-4.632320e-04
2.109630e-03
8.114200e-03
-1.954670e-03
2.531790e-02
2.563600e-02
-2.900910e-03
-4.632320e-04
-2.838830e-03
-8.157200e-04
2.507210e-02
2.531790e-02
8.121430e-03
2.005590e-02
-4.632320e-04
2.109630e-03
-8.157200e-04
1.204600e-03
2.531790e-02
2.563600e-02
2.005590e-02
3.202090e-02
-2.838830e-03
-8.157200e-04
1.079190e-03
1.598540e-03
8.121430e-03
2.005590e-02
-9.054400e-03
-2.679990e-03
-8.157200e-04
1.204600e-03
1.598540e-03
2.111380e-03
2.005590e-02
3.202090e-02
-2.679990e-03
3.721760e-03
1.079190e-03
1.598540e-03
1.781630e-04
-9.816460e-04
-9.054400e-03
-2.679990e-03
-5.540190e-03
-1.073760e-02
1.598540e-03
2.111380e-03
-9.816460e-04
-2.135350e-03
-2.679990e-03
3.721760e-03
-1.073760e-02
-1.590850e-02
1.781630e-04
-9.816460e-04
2.232290e-03
-2.297090e-04
-5.540190e-03
-1.073760e-02
-1.528620e-02
-2.040580e-02
-9.816460e-04
-2.135350e-03
-2.297090e-04
-2.565670e-03
-1.073760e-02
-1.590850e-02
-2.040580e-02
-2.545760e-02
2.232290e-03
-2.297090e-04
4.373490e-03
-7.324740e-05
-1.528620e-02
-2.040580e-02
-3.785830e-02
-2.558710e-02
-2.297090e-04
-2.565670e-03
-7.324740e-05
-4.341710e-03
-2.040580e-02
-2.545760e-02
-2.558710e-02
-1.320110e-02
4.373490e-03
-7.324740e-05
5.354550e-03
1.015640e-03
-3.785830e-02
-2.558710e-02
-3.819310e-02
-1.759960e-02
-7.324740e-05
-4.341710e-03
1.015640e-03
-3.289910e-03
-2.558710e-02
-1.320110e-02
-1.759960e-02
3.077690e-03
5.354550e-03
1.015640e-03
1.319570e-03
-1.239110e-03
-3.819310e-02
-1.759960e-02
-1.960430e-02
-6.639840e-03
1.015640e-03
-3.289910e-03
-1.239110e-03
-3.748750e-03
-1.759960e-02
3.077690e-03
-6.639840e-03
6.462070e-03
1.319570e-03
-1.239110e-03
2.021900e-03
-2.398690e-04
-1.960430e-02
-6.639840e-03
-1.303480e-02
-7.532640e-04
-1.239110e-03
-3.748750e-03
-2.398690e-04
-2.411300e-03
-6.639840e-03
6.462070e-03
-7.532640e-04
1.154250e-02
2.021900e-03
-2.398690e-04
5.862460e-03
3.716290e-03
-1.303480e-02
-7.532640e-04
6.300040e-03
6.673010e-03
-2.398690e-04
-2.411300e-03
3.716290e-03
1.689760e-03
-7.532640e-04
1.154250e-02
6.673010e-03
7.032970e-03
</DataArray>
<DataArray type="Float32" Name="V2" format="ascii">
0.000000e+00
0.000000e+00
-2.569110e-02
-3.942710e-02
0.000000e+00
0.000000e+00
5.371230e-04
1.813210e-03
0.000000e+00
0.000000e+00
-3.942710e-02
-6.136370e-02
0.000000e+00
0.000000e+00
1.813210e-03
3.984980e-03
-2.569110e-02
-3.942710e-02
-8.849040e-03
-2.270600e-02
5.371230e-04
1.813210e-03
-6.623150e-03
-6.852760e-03
-3.942710e-02
-6.136370e-02
-2.270600e-02
-3.412570e-02
1.813210e-03
3.984980e-03
-6.852760e-03
-7.933660e-03
-8.849040e-03
-2.270600e-02
2.701240e-02
1.996790e-02
-6.623150e-03
-6.852760e-03
-5.301310e-03
-1.039150e-02
-2.270600e-02
-3.412570e-02
1.996790e-02
3.229460e-02
-6.852760e-03
-7.933660e-03
-1.039150e-02
-1.504170e-02
2.701240e-02
1.996790e-02
2.704400e-02
2.862280e-02
-5.301310e-03
-1.039150e-02
1.302680e-03
-5.486690e-04
1.996790e-02
3.229460e-02
2.862280e-02
5.165600e-02
-1.039150e-02
-1.504170e-02
-5.486690e-04
-1.560410e-03
2.704400e-02
2.862280e-02
3.762330e-03
1.629830e-02
1.302680e-03
-5.486690e-04
1.445780e-02
1.408680e-02
2.862280e-02
5.165600e-02
1.629830e-02
2.247020e-02
-5.486690e-04
-1.560410e-03
1.408680e-02
1.467060e-02
3.762330e-03
1.629830e-02
-4.736240e-02
-2.923090e-02
1.445780e-02
1.408680e-02
1.617310e-02
1.689860e-02
1.629830e-02
2.247020e-02
-2.923090e-02
-3.108480e-02
1.408680e-02
1.467060e-02
1.689860e-02
1.735010e-02
-4.736240e-02
-2.923090e-02
-4.423500e-02
-3.681100e-02
1.617310e-02
1.689860e-02
-5.308790e-03
-4.283520e-03
-2.923090e-02
-3.108480e-02
-3.681100e-02
-2.920690e-02
1.689860e-02
1.735010e-02
-4.283520e-03
-5.132460e-03
-4.423500e-02
-3.681100e-02
3.546860e-02
3.277940e-02
-5.308790e-03
-4.283520e-03
-2.236760e-02
-2.348220e-02
-3.681100e-02
-2.920690e-02
3.277940e-02
5.663140e-02
-4.283520e-03
-5.132460e-03
-2.348220e-02
-2.265420e-02
3.546860e-02
3.277940e-02
3.517670e-02
4.141820e-02
-2.236760e-02
-2.348220e-02
7.333010e-04
-9.782330e-05
3.277940e-02
5.663140e-02
4.141820e-02
6.629020e-02
-2.348220e-02
-2.265420e-02
-9.782330e-05
1.403760e-03
3.517670e-02
4.141820e-02
-2.486630e-03
4.813690e-03
7.333010e-04
-9.782330e-05
3.258400e-02
3.352900e-02
4.141820e-02
6.629020e-02
4.813690e-03
9.433420e-03
-9.782330e-05
1.403760e-03
3.352900e-02
3.461470e-02
-2.486630e-03
4.813690e-03
-9.864970e-03
6.751850e-03
3.258400e-02
3.352900e-02
2.208530e-02
2.547260e-02
4.813690e-03
9.433420e-03
6.751850e-03
2.098840e-03
3.352900e-02
3.461470e-02
2.547260e-02
2.865190e-02
-9.864970e-03
6.751850e-03
-5.410080e-02
-3.048130e-02
2.208530e-02
2.547260e-02
-5.551740e-03
-3.890090e-03
6.751850e-03
2.098840e-03
-3.048130e-02
-3.819330e-02
2.547260e-02
2.865190e-02
-3.890090e-03
-4.356610e-03
-5.410080e-02
-3.048130e-02
-5.044430e-02
-3.771100e-02
-5.551740e-03
-3.890090e-03
-1.892340e-02
-2.020350e-02
-3.048130e-02
-3.819330e-02
-3.771100e-02
-3.681740e-02
-3.890090e-03
-4.356610e-03
-2.020350e-02
-2.336940e-02
-5.044430e-02
-3.771100e-02
5.760150e-04
2.882570e-03
-1.892340e-02
-2.020350e-02
-2.266000e-02
-2.705730e-02
-3.771100e-02
-3.681740e-02
2.882570e-03
1.203730e-02
-2.020350e-02
-2.336940e-02
-2.705730e-02
-3.166510e-02
5.760150e-04
2.882570e-03
-1.727330e-02
-1.613060e-02
-2.266000e-02
-2.705730e-02
-1.235360e-02
-1.306990e-02
2.882570e-03
1.203730e-02
-1.613060e-02
-3.574750e-03
-2.705730e-02
-3.166510e-02
-1.306990e-02
-1.684900e-02
-1.727330e-02
-1.613060e-02
-1.894440e-02
-2.260830e-02
-1.235360e-02
-1.306990e-02
1.624620e-02
2.015790e-02
-1.613060e-02
-3.574750e-03
-2.260830e-02
-9.017110e-03
-1.306990e-02
-1.684900e-02
2.015790e-02
2.120720e-02
-1.894440e-02
-2.260830e-02
3.487180e-02
2.898410e-02
1.624620e-02
2.015790e-02
2.346020e-02
2.595000e-02
-2.260830e-02
-9.017110e-03
2.898410e-02
2.867170e-02
2.015790e-02
2.120720e-02
2.595000e-02
2.933340e-02
3.487180e-02
2.898410e-02
5.200350e-02
4.454960e-02
2.346020e-02
2.595000e-02
-9.588780e-03
-7.988400e-03
2.898410e-02
2.867170e-02
4.454960e-02
2.388350e-02
2.595000e-02
2.933340e-02
-7.988400e-03
-5.146570e-03
5.200350e-02
4.454960e-02
4.042290e-02
2.949450e-02
-9.588780e-03
-7.988400e-03
-2.475880e-02
-2.843840e-02
4.454960e-02
2.388350e-02
2.949450e-02
6.121720e-03
-7.988400e-03
-5.146570e-03
-2.843840e-02
-3.091820e-02
4.042290e-02
2.949450e-02
1.048480e-03
-1.009130e-02
-2.475880e-02
-2.843840e-02
-8.276750e-03
-9.357760e-03
2.949450e-02
6.121720e-03
-1.009130e-02
-2.180100e-02
-2.843840e-02
-3.091820e-02
-9.357760e-03
-1.138210e-02
1.048480e-03
-1.009130e-02
-2.901920e-02
-4.718590e-02
-8.276750e-03
-9.357760e-03
7.412790e-03
8.588030e-03
-1.009130e-02
-2.180100e-02
-4.718590e-02
-5.696410e-02
-9.357760e-03
-1.138210e-02
8.588030e-03
8.792230e-03
-2.901920e-02
-4.718590e-02
5.957210e-03
-1.217580e-02
7.412790e-03
8.588030e-03
1.200940e-02
1.210170e-02
-4.718590e-02
-5.696410e-02
-1.217580e-02
-1.539280e-02
8.588030e-03
8.792230e-03
1.210170e-02
1.122250e-02
5.957210e-03
-1.217580e-02
-2.224860e-02
-5.404180e-03
1.200940e-02
1.210170e-02
4.516610e-03
5.920010e-03
-1.217580e-02
-1.539280e-02
-5.404180e-03
1.504560e-02
1.210170e-02
1.122250e-02
5.920010e-03
5.496200e-03
-2.224860e-02
-5.404180e-03
-5.492150e-02
-2.239810e-02
4.516610e-03
5.920010e-03
-1.364080e-02
-1.352990e-02
-5.404180e-03
1.504560e-02
-2.239810e-02
-9.190660e-03
5.920010e-03
5.496200e-03
-1.352990e-02
-1.524150e-02
-5.492150e-02
-2.239810e-02
-1.078030e-02
-4.348300e-03
-1.364080e-02
-1.352990e-02
-1.792110e-02
-1.557700e-02
-2.239810e-02
-9.190660e-03
-4.348300e-03
-7.196200e-04
-1.352990e-02
-1.524150e-02
-1.557700e-02
-1.443960e-02
-1.078030e-02
-4.348300e-03
-3.554280e-03
-1.040320e-02
-1.792110e-02
-1.557700e-02
5.983790e-03
6.111120e-03
-4.348300e-03
-7.196200e-04
-1.040320e-02
-4.789460e-03
-1.557700e-02
-1.443960e-02
6.111120e-03
5.365680e-03
-3.554280e-03
-1.040320e-02
1.435650e-02
1.228170e-02
5.983790e-03
6.111120e-03
1.758600e-02
1.836670e-02
-1.040320e-02
-4.789460e-03
1.228170e-02
1.804030e-02
6.111120e-03
5.365680e-03
1.836670e-02
1.778270e-02
1.435650e-02
1.228170e-02
6.745740e-02
5.877310e-02
1.758600e-02
1.836670e-02
4.874120e-03
6.480010e-03
1.228170e-02
1.804030e-02
5.877310e-02
6.127530e-02
1.836670e-02
1.778270e-02
6.480010e-03
1.046180e-02
6.745740e-02
5.877310e-02
6.777960e-02
7.050290e-02
4.874120e-03
6.480010e-03
-9.093670e-03
-9.848060e-03
5.877310e-02
6.127530e-02
7.050290e-02
6.992620e-02
6.480010e-03
1.046180e-02
-9.848060e-03
-8.670480e-03
6.777960e-02
7.050290e-02
5.605260e-02
7.336200e-02
-9.093670e-03
-9.848060e-03
-1.677040e-02
-1.563910e-02
7.050290e-02
6.992620e-02
7.336200e-02
7.251970e-02
-9.848060e-03
-8.670480e-03
-1.563910e-02
-1.627480e-02
0.000000e+00
0.000000e+00
5.371230e-04
1.813210e-03
0.000000e+00
0.000000e+00
2.023060e-02
3.295910e-02
0.000000e+00
0.000000e+00
1.813210e-03
3.984980e-03
0.000000e+00
0.000000e+00
3.295910e-02
5.114820e-02
5.371230e-04
1.813210e-03
-6.623150e-03
-6.852760e-03
2.023060e-02
3.295910e-02
2.380820e-02
3.711920e-02
1.813210e-03
3.984980e-03
-6.852760e-03
-7.933660e-03
3.295910e-02
5.114820e-02