<?xml version="1.0"?>
<VTKFile type="UnstructuredGrid" version="0.1" byte_order="LittleEndian" compressor="vtkZLibDataCompressor">
<UnstructuredGrid>
<Piece NumberOfPoints="960" NumberOfCells="120">
<Points>
<DataArray type="Float32" NumberOfComponents="3" format="ascii">
-4.000000e+02 -6.000000e+03 -4.000000e+02
0.000000e+00 -6.000000e+03 -4.000000e+02
-3.999890e+02 -5.600090e+03 -4.000650e+02
1.292000e-02 -5.600090e+03 -4.000550e+02
-4.000000e+02 -6.000000e+03 0.000000e+00
0.000000e+00 -6.000000e+03 0.000000e+00
-3.999990e+02 -5.600000e+03 -6.572880e-02
4.735200e-04 -5.600000e+03 -5.267000e-02
0.000000e+00 -6.000000e+03 -4.000000e+02
4.000000e+02 -6.000000e+03 -4.000000e+02
1.292000e-02 -5.600090e+03 -4.000550e+02
4.000150e+02 -5.600090e+03 -4.000390e+02
0.000000e+00 -6.000000e+03 0.000000e+00
4.000000e+02 -6.000000e+03 0.000000e+00
4.735200e-04 -5.600000e+03 -5.267000e-02
4.000000e+02 -5.600000e+03 -3.809290e-02
-3.999890e+02 -5.600090e+03 -4.000650e+02
1.292000e-02 -5.600090e+03 -4.000550e+02
-3.999790e+02 -5.200210e+03 -4.002480e+02
2.236090e-02 -5.200210e+03 -4.002270e+02
-3.999990e+02 -5.600000e+03 -6.572880e-02
4.735200e-04 -5.600000e+03 -5.267000e-02
-3.999990e+02 -5.200000e+03 -2.421900e-01
3.433990e-04 -5.200000e+03 -2.181710e-01
1.292000e-02 -5.600090e+03 -4.000550e+02
4.000150e+02 -5.600090e+03 -4.000390e+02
2.236090e-02 -5.200210e+03 -4.002270e+02
4.000240e+02 -5.200210e+03 -4.002000e+02
4.735200e-04 -5.600000e+03 -5.267000e-02
4.000000e+02 -5.600000e+03 -3.809290e-02
3.433990e-04 -5.200000e+03 -2.181710e-01
4.000000e+02 -5.200000e+03 -1.918500e-01
-3.999790e+02 -5.200210e+03 -4.002480e+02
2.236090e-02 -5.200210e+03 -4.002270e+02
-3.999790e+02 -4.800310e+03 -4.005690e+02
2.146350e-02 -4.800310e+03 -4.005460e+02
-3.999990e+02 -5.200000e+03 -2.421900e-01
3.433990e-04 -5.200000e+03 -2.181710e-01
-4.000000e+02 -4.799990e+03 -5.436600e-01
8.430920e-06 -4.799990e+03 -5.200880e-01
2.236090e-02 -5.200210e+03 -4.002270e+02
4.000240e+02 -5.200210e+03 -4.002000e+02
2.146350e-02 -4.800310e+03 -4.005460e+02
4.000220e+02 -4.800310e+03 -4.005210e+02
3.433990e-04 -5.200000e+03 -2.181710e-01
4.000000e+02 -5.200000e+03 -1.918500e-01
8.430920e-06 -4.799990e+03 -5.200880e-01
4.000000e+02 -4.799990e+03 -4.946680e-01
-3.999790e+02 -4.800310e+03 -4.005690e+02
2.146350e-02 -4.800310e+03 -4.005460e+02
-3.999910e+02 -4.400340e+03 -4.009150e+02
7.366380e-03 -4.400340e+03 -4.009020e+02
-4.000000e+02 -4.799990e+03 -5.436600e-01
8.430920e-06 -4.799990e+03 -5.200880e-01
-4.000010e+02 -4.399990e+03 -8.657850e-01
-5.245760e-04 -4.399990e+03 -8.545190e-01
2.146350e-02 -4.800310e+03 -4.005460e+02
4.000220e+02 -4.800310e+03 -4.005210e+02
7.366380e-03 -4.400340e+03 -4.009020e+02
4.000060e+02 -4.400340e+03 -4.008910e+02
8.430920e-06 -4.799990e+03 -5.200880e-01
4.000000e+02 -4.799990e+03 -4.946680e-01
-5.245760e-04 -4.399990e+03 -8.545190e-01
4.000000e+02 -4.399990e+03 -8.444780e-01
-3.999910e+02 -4.400340e+03 -4.009150e+02
7.366380e-03 -4.400340e+03 -4.009020e+02
-4.000060e+02 -4.000340e+03 -4.012380e+02
-9.597890e-03 -4.000340e+03 -4.012420e+02
-4.000010e+02 -4.399990e+03 -8.657850e-01
-5.245760e-04 -4.399990e+03 -8.545190e-01
-4.000000e+02 -4.000000e+03 -1.170480e+00
-5.634520e-05 -4.000000e+03 -1.175030e+00
7.366380e-03 -4.400340e+03 -4.009020e+02
4.000060e+02 -4.400340e+03 -4.008910e+02
-9.597890e-03 -4.000340e+03 -4.012420e+02
3.999870e+02 -4.000340e+03 -4.012520e+02
-5.245760e-04 -4.399990e+03 -8.545190e-01
4.000000e+02 -4.399990e+03 -8.444780e-01
-5.634520e-05 -4.000000e+03 -1.175030e+00
4.000000e+02 -3.999990e+03 -1.185080e+00
-4.000060e+02 -4.000340e+03 -4.012380e+02
-9.597890e-03 -4.000340e+03 -4.012420e+02
-4.000160e+02 -3.600310e+03 -4.015590e+02
-1.881450e-02 -3.600310e+03 -4.015750e+02
-4.000000e+02 -4.000000e+03 -1.170480e+00
-5.634520e-05 -4.000000e+03 -1.175030e+00
-3.999990e+02 -3.600010e+03 -1.492250e+00
5.769410e-04 -3.600000e+03 -1.505370e+00
-9.597890e-03 -4.000340e+03 -4.012420e+02
3.999870e+02 -4.000340e+03 -4.012520e+02
-1.881450e-02 -3.600310e+03 -4.015750e+02
3.999780e+02 -3.600310e+03 -4.015950e+02
-5.634520e-05 -4.000000e+03 -1.175030e+00
4.000000e+02 -3.999990e+03 -1.185080e+00
5.769410e-04 -3.600000e+03 -1.505370e+00
4.000000e+02 -3.600000e+03 -1.525030e+00
-4.000160e+02 -3.600310e+03 -4.015590e+02
-1.881450e-02 -3.600310e+03 -4.015750e+02
-4.000180e+02 -3.200290e+03 -4.018330e+02
-1.940890e-02 -3.200280e+03 -4.018480e+02
-3.999990e+02 -3.600010e+03 -1.492250e+00
5.769410e-04 -3.600000e+03 -1.505370e+00
-3.999980e+02 -3.200010e+03 -1.793850e+00
8.124130e-04 -3.200010e+03 -1.805270e+00
-1.881450e-02 -3.600310e+03 -4.015750e+02
3.999780e+02 -3.600310e+03 -4.015950e+02
-1.940890e-02 -3.200280e+03 -4.018480e+02
3.999790e+02 -3.200280e+03 -4.018660e+02
5.769410e-04 -3.600000e+03 -1.505370e+00
4.000000e+02 -3.600000e+03 -1.525030e+00
8.124130e-04 -3.200010e+03 -1.805270e+00
4.000000e+02 -3.200010e+03 -1.823130e+00
-4.000180e+02 -3.200290e+03 -4.018330e+02
-1.940890e-02 -3.200280e+03 -4.018480e+02
-4.000130e+02 -2.800310e+03 -4.021060e+02
-1.248380e-02 -2.800310e+03 -4.021200e+02
-3.999980e+02 -3.200010e+03 -1.793850e+00
8.124130e-04 -3.200010e+03 -1.805270e+00
-3.999990e+02 -2.800010e+03 -2.107520e+00
6.707950e-04 -2.800010e+03 -2.117800e+00
-1.940890e-02 -3.200280e+03 -4.018480e+02
3.999790e+02 -3.200280e+03 -4.018660e+02
-1.248380e-02 -2.800310e+03 -4.021200e+02
3.999880e+02 -2.800310e+03 -4.021300e+02
8.124130e-04 -3.200010e+03 -1.805270e+00
4.000000e+02 -3.200010e+03 -1.823130e+00
6.707950e-04 -2.800010e+03 -2.117800e+00
4.000000e+02 -2.800010e+03 -2.127610e+00
-4.000130e+02 -2.800310e+03 -4.021060e+02
-1.248380e-02 -2.800310e+03 -4.021200e+02
-4.000050e+02 -2.400340e+03 -4.024600e+02
-1.796580e-03 -2.400340e+03 -4.024650e+02
-3.999990e+02 -2.800010e+03 -2.107520e+00
6.707950e-04 -2.800010e+03 -2.117800e+00
-3.999990e+02 -2.400000e+03 -2.469320e+00
5.847910e-04 -2.400000e+03 -2.472560e+00
-1.248380e-02 -2.800310e+03 -4.021200e+02
3.999880e+02 -2.800310e+03 -4.021300e+02
-1.796580e-03 -2.400340e+03 -4.024650e+02
4.000010e+02 -2.400340e+03 -4.024630e+02
6.707950e-04 -2.800010e+03 -2.117800e+00
4.000000e+02 -2.800010e+03 -2.127610e+00
5.847910e-04 -2.400000e+03 -2.472560e+00
4.000000e+02 -2.400000e+03 -2.470520e+00
-4.000050e+02 -2.400340e+03 -4.024600e+02
-1.796580e-03 -2.400340e+03 -4.024650e+02
-3.999900e+02 -2.000340e+03 -4.028320e+02
1.206450e-02 -2.000340e+03 -4.028190e+02
-3.999990e+02 -2.400000e+03 -2.469320e+00
5.847910e-04 -2.400000e+03 -2.472560e+00
-4.000000e+02 -1.999990e+03 -2.813380e+00
2.518480e-04 -1.999990e+03 -2.800060e+00
-1.796580e-03 -2.400340e+03 -4.024650e+02
4.000010e+02 -2.400340e+03 -4.024630e+02
1.206450e-02 -2.000340e+03 -4.028190e+02
4.000140e+02 -2.000340e+03 -4.028010e+02
5.847910e-04 -2.400000e+03 -2.472560e+00
4.000000e+02 -2.400000e+03 -2.470520e+00
2.518480e-04 -1.999990e+03 -2.800060e+00
4.000000e+02 -1.999990e+03 -2.782890e+00
-3.999900e+02 -2.000340e+03 -4.028320e+02
1.206450e-02 -2.000340e+03 -4.028190e+02
-3.999760e+02 -1.600310e+03 -4.031700e+02
2.124700e-02 -1.600320e+03 -4.031440e+02
-4.000000e+02 -1.999990e+03 -2.813380e+00
2.518480e-04 -1.999990e+03 -2.800060e+00
-4.000000e+02 -1.600000e+03 -3.125600e+00
1.935410e-04 -1.600000e+03 -3.100410e+00
1.206450e-02 -2.000340e+03 -4.028190e+02
4.000140e+02 -2.000340e+03 -4.028010e+02
2.124700e-02 -1.600320e+03 -4.031440e+02
4.000180e+02 -1.600320e+03 -4.031230e+02
2.518480e-04 -1.999990e+03 -2.800060e+00
4.000000e+02 -1.999990e+03 -2.782890e+00
1.935410e-04 -1.600000e+03 -3.100410e+00
4.000010e+02 -1.600000e+03 -3.078440e+00
-3.999760e+02 -1.600310e+03 -4.031700e+02
2.124700e-02 -1.600320e+03 -4.031440e+02
-3.999800e+02 -1.200270e+03 -4.034450e+02
1.455260e-02 -1.200280e+03 -4.034250e+02
-4.000000e+02 -1.600000e+03 -3.125600e+00
1.935410e-04 -1.600000e+03 -3.100410e+00
-4.000010e+02 -1.200010e+03 -3.406030e+00
1.031580e-04 -1.200010e+03 -3.386550e+00
2.124700e-02 -1.600320e+03 -4.031440e+02
4.000180e+02 -1.600320e+03 -4.031230e+02
1.455260e-02 -1.200280e+03 -4.034250e+02
4.000090e+02 -1.200280e+03 -4.034140e+02
1.935410e-04 -1.600000e+03 -3.100410e+00
4.000010e+02 -1.600000e+03 -3.078440e+00
1.031580e-04 -1.200010e+03 -3.386550e+00
4.000010e+02 -1.200010e+03 -3.374170e+00
-3.999800e+02 -1.200270e+03 -4.034450e+02
1.455260e-02 -1.200280e+03 -4.034250e+02
-3.999970e+02 -8.002720e+02 -4.036660e+02
-5.343160e-04 -8.002730e+02 -4.036610e+02
-4.000010e+02 -1.200010e+03 -3.406030e+00
1.031580e-04 -1.200010e+03 -3.386550e+00
-4.000020e+02 -8.000170e+02 -3.663340e+00
-4.449440e-04 -8.000180e+02 -3.660940e+00
1.455260e-02 -1.200280e+03 -4.034250e+02
4.000090e+02 -1.200280e+03 -4.034140e+02
-5.343160e-04 -8.002730e+02 -4.036610e+02
3.999960e+02 -8.002760e+02 -4.036640e+02
1.031580e-04 -1.200010e+03 -3.386550e+00
4.000010e+02 -1.200010e+03 -3.374170e+00
-4.449440e-04 -8.000180e+02 -3.660940e+00
4.000010e+02 -8.000180e+02 -3.661980e+00
-3.999970e+02 -8.002720e+02 -4.036660e+02
-5.343160e-04 -8.002730e+02 -4.036610e+02
-4.000100e+02 -4.003120e+02 -4.039580e+02
-8.288070e-03 -4.003130e+02 -4.039640e+02
-4.000020e+02 -8.000170e+02 -3.663340e+00
-4.449440e-04 -8.000180e+02 -3.660940e+00
-4.000020e+02 -4.000060e+02 -3.986780e+00
-7.849010e-04 -4.000070e+02 -3.997030e+00
-5.343160e-04 -8.002730e+02 -4.036610e+02
3.999960e+02 -8.002760e+02 -4.036640e+02
-8.288070e-03 -4.003130e+02 -4.039640e+02
3.999930e+02 -4.003180e+02 -4.039710e+02
-4.449440e-04 -8.000180e+02 -3.660940e+00
4.000010e+02 -8.000180e+02 -3.661980e+00
-7.849010e-04 -4.000070e+02 -3.997030e+00
4.000000e+02 -4.000070e+02 -4.003820e+00
-4.000100e+02 -4.003120e+02 -4.039580e+02
-8.288070e-03 -4.003130e+02 -4.039640e+02
-4.000130e+02 -3.329170e-01 -4.043120e+02
-6.533580e-03 -3.327100e-01 -4.043220e+02
-4.000020e+02 -4.000060e+02 -3.986780e+00
-7.849010e-04 -4.000070e+02 -3.997030e+00
-4.000010e+02 1.051500e-02 -4.328720e+00
-8.276020e-04 1.035060e-02 -4.341860e+00
-8.288070e-03 -4.003130e+02 -4.039640e+02
3.999930e+02 -4.003180e+02 -4.039710e+02
[...]
<PointData>
<DataArray type="Float32" Name="V1" format="ascii">
0.000000e+00
0.000000e+00
-2.121030e-02
-8.463860e-03
0.000000e+00
0.000000e+00
1.435750e-04
4.403930e-04
0.000000e+00
0.000000e+00
-8.463860e-03
4.292330e-03
0.000000e+00
0.000000e+00
4.403930e-04
7.431370e-04
-2.121030e-02
-8.463860e-03
-1.862450e-02
-5.678480e-03
1.435750e-04
4.403930e-04
-2.632640e-04
-6.037770e-05
-8.463860e-03
4.292330e-03
-5.678480e-03
7.272290e-03
4.403930e-04
7.431370e-04
-6.037770e-05
1.449130e-04
-1.862450e-02
-5.678480e-03
-1.067780e-03
-1.145950e-03
-2.632640e-04
-6.037770e-05
2.439340e-04
-2.025440e-04
-5.678480e-03
7.272290e-03
-1.145950e-03
-1.216400e-03
-6.037770e-05
1.449130e-04
-2.025440e-04
-6.425060e-04
-1.067780e-03
-1.145950e-03
8.444500e-03
-2.500550e-03
2.439340e-04
-2.025440e-04
1.337500e-03
6.978240e-04
-1.145950e-03
-1.216400e-03
-2.500550e-03
-1.343800e-02
-2.025440e-04
-6.425060e-04
6.978240e-04
6.795290e-05
8.444500e-03
-2.500550e-03
6.992400e-03
-3.866550e-03
1.337500e-03
6.978240e-04
9.756110e-04
2.237740e-04
-2.500550e-03
-1.343800e-02
-3.866550e-03
-1.471230e-02
6.978240e-04
6.795290e-05
2.237740e-04
-5.135310e-04
6.992400e-03
-3.866550e-03
-8.986900e-03
-4.832720e-03
9.756110e-04
2.237740e-04
2.398870e-04
-5.624570e-04
-3.866550e-03
-1.471230e-02
-4.832720e-03
-6.541410e-04
2.237740e-04
-5.135310e-04
-5.624570e-04
-1.338520e-03
-8.986900e-03
-4.832720e-03
-1.464520e-02
-2.624020e-04
2.398870e-04
-5.624570e-04
-9.054040e-04
-9.263240e-04
-4.832720e-03
-6.541410e-04
-2.624020e-04
1.414960e-02
-5.624570e-04
-1.338520e-03
-9.263240e-04
-9.192680e-04
-1.464520e-02
-2.624020e-04
1.387780e-04
8.887080e-03
-9.054040e-04
-9.263240e-04
-1.148080e-03
-3.259740e-04
-2.624020e-04
1.414960e-02
8.887080e-03
1.765800e-02
-9.263240e-04
-9.192680e-04
-3.259740e-04
5.157210e-04
1.387780e-04
8.887080e-03
1.817500e-02
1.018590e-02
-1.148080e-03
-3.259740e-04
5.110240e-04
5.993390e-04
8.887080e-03
1.765800e-02
1.018590e-02
2.216750e-03
-3.259740e-04
5.157210e-04
5.993390e-04
7.065410e-04
1.817500e-02
1.018590e-02
2.063200e-02
5.977500e-03
5.110240e-04
5.993390e-04
1.801200e-03
1.110180e-03
1.018590e-02
2.216750e-03
5.977500e-03
-8.654240e-03
5.993390e-04
7.065410e-04
1.110180e-03
4.409060e-04
2.063200e-02
5.977500e-03
6.967150e-03
1.500030e-03
1.801200e-03
1.110180e-03
1.570700e-03
5.240240e-04
5.977500e-03
-8.654240e-03
1.500030e-03
-3.941490e-03
1.110180e-03
4.409060e-04
5.240240e-04
-4.962960e-04
6.967150e-03
1.500030e-03
-1.744940e-02
-5.270810e-03
1.570700e-03
5.240240e-04
2.053790e-03
4.929460e-04
1.500030e-03
-3.941490e-03
-5.270810e-03
6.932970e-03
5.240240e-04
-4.962960e-04
4.929460e-04
-1.042040e-03
-1.744940e-02
-5.270810e-03
-2.194300e-02
-5.232790e-03
2.053790e-03
4.929460e-04
1.335530e-04
-5.557850e-04
-5.270810e-03
6.932970e-03
-5.232790e-03
1.149680e-02
4.929460e-04
-1.042040e-03
-5.557850e-04
-1.226580e-03
-2.194300e-02
-5.232790e-03
-7.518160e-03
-1.500740e-03
1.335530e-04
-5.557850e-04
-1.149620e-03
-2.124940e-04
-5.232790e-03
1.149680e-02
-1.500740e-03
4.531270e-03
-5.557850e-04
-1.226580e-03
-2.124940e-04
7.397250e-04
-7.518160e-03
-1.500740e-03
1.001390e-02
-2.337990e-03
-1.149620e-03
-2.124940e-04
-1.740520e-03
7.869030e-05
-1.500740e-03
4.531270e-03
-2.337990e-03
-1.468320e-02
-2.124940e-04
7.397250e-04
7.869030e-05
1.900480e-03
1.001390e-02
-2.337990e-03
1.245190e-02
-3.835800e-03
-1.740520e-03
7.869030e-05
-1.056760e-03
5.739760e-04
-2.337990e-03
-1.468320e-02
-3.835800e-03
-2.011980e-02
7.869030e-05
1.900480e-03
5.739760e-04
2.205870e-03
1.245190e-02
-3.835800e-03
3.718540e-03
-1.223230e-03
-1.056760e-03
5.739760e-04
-1.230090e-03
-4.733240e-04
-3.835800e-03
-2.011980e-02
-1.223230e-03
-6.170540e-03
5.739760e-04
2.205870e-03
-4.733240e-04
2.781690e-04
3.718540e-03
-1.223230e-03
-1.288800e-02
-1.231040e-03
-1.230090e-03
-4.733240e-04
-4.172270e-04
-7.247480e-04
-1.223230e-03
-6.170540e-03
-1.231040e-03
1.042910e-02
-4.733240e-04
2.781690e-04
-7.247480e-04
-1.031950e-03
-1.288800e-02
-1.231040e-03
-1.103820e-02
2.590320e-03
-4.172270e-04
-7.247480e-04
-8.379930e-05
-4.246700e-04
-1.231040e-03
1.042910e-02
2.590320e-03
1.622430e-02
-7.247480e-04
-1.031950e-03
-4.246700e-04
-7.626480e-04
-1.103820e-02
2.590320e-03
7.480440e-03
8.278630e-03
-8.379930e-05
-4.246700e-04
-4.924680e-04
-1.651420e-04
2.590320e-03
1.622430e-02
8.278630e-03
9.071080e-03
-4.246700e-04
-7.626480e-04
-1.651420e-04
1.573070e-04
7.480440e-03
8.278630e-03
1.954860e-02
7.258350e-03
-4.924680e-04
-1.651420e-04
-9.549330e-04
1.188240e-04
8.278630e-03
9.071080e-03
7.258350e-03
-5.034370e-03
-1.651420e-04
1.573070e-04
1.188240e-04
1.187470e-03
1.954860e-02
7.258350e-03
1.501020e-02
8.329690e-04
-9.549330e-04
1.188240e-04
-1.473380e-03
1.311400e-04
7.258350e-03
-5.034370e-03
8.329690e-04
-1.335130e-02
1.188240e-04
1.187470e-03
1.311400e-04
1.725450e-03
1.501020e-02
8.329690e-04
-1.195390e-02
-9.450670e-03
-1.473380e-03
1.311400e-04
2.450470e-04
5.425440e-04
8.329690e-04
-1.335130e-02
-9.450670e-03
-6.964370e-03
1.311400e-04
1.725450e-03
5.425440e-04
8.219410e-04
-1.195390e-02
-9.450670e-03
-2.789920e-02
-1.334900e-02
2.450470e-04
5.425440e-04
2.606420e-03
9.379010e-04
-9.450670e-03
-6.964370e-03
-1.334900e-02
1.175740e-03
5.425440e-04
8.219410e-04
9.379010e-04
-7.554970e-04
-2.789920e-02
-1.334900e-02
-1.680910e-02
-5.240890e-03
2.606420e-03
9.379010e-04
2.782420e-03
8.520700e-04
-1.334900e-02
1.175740e-03
-5.240890e-03
6.307580e-03
9.379010e-04
-7.554970e-04
8.520700e-04
-1.100360e-03
-1.680910e-02
-5.240890e-03
9.040270e-03
4.862730e-03
2.782420e-03
8.520700e-04
3.548940e-04
-7.133520e-04
-5.240890e-03
6.307580e-03
4.862730e-03
6.687220e-04
8.520700e-04
-1.100360e-03
-7.133520e-04
-1.803260e-03
9.040270e-03
4.862730e-03
1.783260e-02
3.032650e-03
3.548940e-04
-7.133520e-04
4.823600e-04
6.835350e-04
4.862730e-03
6.687220e-04
3.032650e-03
-1.178890e-02
-7.133520e-04
-1.803260e-03
6.835350e-04
8.595870e-04
1.783260e-02
3.032650e-03
1.002400e-02
-2.215850e-04
4.823600e-04
6.835350e-04
-8.499330e-04
-1.650400e-04
3.032650e-03
-1.178890e-02
-2.215850e-04
-1.049040e-02
6.835350e-04
8.595870e-04
-1.650400e-04
4.916430e-04
1.002400e-02
-2.215850e-04
-3.423480e-03
2.130900e-03
-8.499330e-04
-1.650400e-04
-1.882900e-04
-3.703260e-04
-2.215850e-04
-1.049040e-02
2.130900e-03
7.662960e-03
-1.650400e-04
4.916430e-04
-3.703260e-04
-5.799590e-04
-3.423480e-03
2.130900e-03
-1.290750e-02
3.594600e-03
-1.882900e-04
-3.703260e-04
8.386500e-04
1.412890e-04
2.130900e-03
7.662960e-03
3.594600e-03
2.008260e-02
-3.703260e-04
-5.799590e-04
1.412890e-04
-5.720650e-04
0.000000e+00
0.000000e+00
1.435750e-04
4.403930e-04
0.000000e+00
0.000000e+00
2.097090e-02
7.675720e-03
0.000000e+00
0.000000e+00
4.403930e-04
7.431370e-04
0.000000e+00
0.000000e+00
7.675720e-03
-5.614090e-03
1.435750e-04
4.403930e-04
-2.632640e-04
-6.037770e-05
2.097090e-02
7.675720e-03
1.909570e-02
5.797860e-03
4.403930e-04
7.431370e-04
-6.037770e-05
1.449130e-04
7.675720e-03
-5.614090e-03
5.797860e-03
-7.499060e-03
-2.632640e-04
-6.037770e-05
2.439340e-04
-2.025440e-04
1.909570e-02
5.797860e-03
4.953580e-04
1.532080e-03
-6.037770e-05
1.449130e-04
-2.025440e-04
-6.425060e-04
5.797860e-03
-7.499060e-03
1.532080e-03
2.573600e-03
2.439340e-04
-2.025440e-04
1.337500e-03
6.978240e-04
4.953580e-04
1.532080e-03
-1.113400e-02
1.054840e-03
-2.025440e-04
-6.425060e-04
6.978240e-04
6.795290e-05
1.532080e-03
2.573600e-03
1.054840e-03
1.325300e-02
1.337500e-03
6.978240e-04
9.756110e-04
2.237740e-04
-1.113400e-02
1.054840e-03
-8.878820e-03
3.389690e-03
6.978240e-04
6.795290e-05
2.237740e-04
-5.135310e-04
1.054840e-03
1.325300e-02
3.389690e-03
1.566980e-02
9.756110e-04
2.237740e-04
2.398870e-04
-5.624570e-04
-8.878820e-03
3.389690e-03
8.596850e-03
5.996140e-03
2.237740e-04
-5.135310e-04
-5.624570e-04
-1.338520e-03
3.389690e-03
1.566980e-02
5.996140e-03
3.421230e-03
2.398870e-04
-5.624570e-04
-9.054040e-04
-9.263240e-04
8.596850e-03
5.996140e-03
1.641510e-02
2.085550e-03
-5.624570e-04
-1.338520e-03
-9.263240e-04
-9.192680e-04
5.996140e-03
3.421230e-03
2.085550e-03
-1.221860e-02
-9.054040e-04
-9.263240e-04
-1.148080e-03
-3.259740e-04
1.641510e-02
2.085550e-03
2.080040e-03
-8.273850e-03
-9.263240e-04
-9.192680e-04
-3.259740e-04
5.157210e-04
2.085550e-03
-1.221860e-02
-8.273850e-03
-1.860880e-02
-1.148080e-03
-3.259740e-04
5.110240e-04
5.993390e-04
2.080040e-03
-8.273850e-03
-1.921950e-02
-1.144450e-02
-3.259740e-04
5.157210e-04
5.993390e-04
7.065410e-04
-8.273850e-03
-1.860880e-02
-1.144450e-02
-3.651320e-03
5.110240e-04
5.993390e-04
1.801200e-03
1.110180e-03
-1.921950e-02
-1.144450e-02
-2.407620e-02
-8.162370e-03
5.993390e-04
7.065410e-04
1.110180e-03
4.409060e-04
-1.144450e-02
-3.651320e-03
-8.162370e-03
7.769690e-03
1.801200e-03
1.110180e-03
1.570700e-03
5.240240e-04
-2.407620e-02
-8.162370e-03
-1.006270e-02
-2.594750e-03
1.110180e-03
4.409060e-04
5.240240e-04
-4.962960e-04
-8.162370e-03
7.769690e-03
-2.594750e-03
4.897950e-03
1.570700e-03
5.240240e-04
2.053790e-03
4.929460e-04
-1.006270e-02
-2.594750e-03
1.328570e-02
4.244190e-03
5.240240e-04
-4.962960e-04
4.929460e-04
-1.042040e-03
-2.594750e-03
4.897950e-03
4.244190e-03
-4.767900e-03
2.053790e-03
4.929460e-04
1.335530e-04
-5.557850e-04
1.328570e-02
4.244190e-03
2.163440e-02
6.325310e-03
4.929460e-04
-1.042040e-03
-5.557850e-04
-1.226580e-03
4.244190e-03
-4.767900e-03
6.325310e-03
-8.964150e-03
1.335530e-04
-5.557850e-04
-1.149620e-03
-2.124940e-04
2.163440e-02
6.325310e-03
9.841240e-03
1.925800e-03
-5.557850e-04
-1.226580e-03
-2.124940e-04
7.397250e-04
6.325310e-03
-8.964150e-03
1.925800e-03
-5.971420e-03
-1.149620e-03
-2.124940e-04
-1.740520e-03
7.869030e-05
9.841240e-03
1.925800e-03
-6.421240e-03
2.214110e-03
-2.124940e-04
7.397250e-04
7.869030e-05
1.900480e-03
1.925800e-03
-5.971420e-03
2.214110e-03
1.085510e-02
-1.740520e-03
7.869030e-05
-1.056760e-03
5.739760e-04
-6.421240e-03
2.214110e-03
-1.027420e-02
2.649000e-03
7.869030e-05
1.900480e-03
5.739760e-04
2.205870e-03
2.214110e-03
1.085510e-02
2.649000e-03
1.557210e-02
-1.056760e-03
5.739760e-04
-1.230090e-03
-4.733240e-04
-1.027420e-02
2.649000e-03
-1.286590e-03
2.183160e-03
5.739760e-04
2.205870e-03
-4.733240e-04
2.781690e-04
2.649000e-03
1.557210e-02
2.183160e-03
5.646940e-03
-1.230090e-03
-4.733240e-04
-4.172270e-04
-7.247480e-04
-1.286590e-03
2.183160e-03
1.360040e-02
2.653300e-03
-4.733240e-04
2.781690e-04
-7.247480e-04
-1.031950e-03
2.183160e-03
5.646940e-03
2.653300e-03
-8.289950e-03
-4.172270e-04
-7.247480e-04
-8.379930e-05
-4.246700e-04
1.360040e-02
2.653300e-03
1.121330e-02
-1.733850e-03
-7.247480e-04
-1.031950e-03
-4.246700e-04
-7.626480e-04
2.653300e-03
-8.289950e-03
-1.733850e-03
-1.467250e-02
-8.379930e-05
-4.246700e-04
-4.924680e-04
-1.651420e-04
1.121330e-02
-1.733850e-03
-6.408680e-03
-7.896920e-03
-4.246700e-04
-7.626480e-04
-1.651420e-04
1.573070e-04
-1.733850e-03
-1.467250e-02
-7.896920e-03
-9.384560e-03
-4.924680e-04
-1.651420e-04
-9.549330e-04
1.188240e-04
-6.408680e-03
-7.896920e-03
-1.757670e-02
-7.530740e-03
-1.651420e-04
1.573070e-04
1.188240e-04
1.187470e-03
-7.896920e-03
-9.384560e-03
-7.530740e-03
2.511940e-03
-9.549330e-04
1.188240e-04
-1.473380e-03
1.311400e-04
-1.757670e-02
-7.530740e-03
-1.211200e-02
-1.108690e-03
1.188240e-04
1.187470e-03
1.311400e-04
1.725450e-03
-7.530740e-03
2.511940e-03
-1.108690e-03
9.881970e-03
-1.473380e-03
1.311400e-04
2.450470e-04
5.425440e-04
-1.211200e-02
-1.108690e-03
1.140860e-02
8.401420e-03
1.311400e-04
1.725450e-03
5.425440e-04
8.219410e-04
-1.108690e-03
9.881970e-03
8.401420e-03
5.376500e-03
2.450470e-04
5.425440e-04
2.606420e-03
9.379010e-04
1.140860e-02
8.401420e-03
2.258080e-02
1.147200e-02
5.425440e-04
8.219410e-04
9.379010e-04
-7.554970e-04
8.401420e-03
5.376500e-03
1.147200e-02
3.423980e-04
2.606420e-03
9.379010e-04
2.782420e-03
8.520700e-04
2.258080e-02
1.147200e-02
1.130360e-02
3.611760e-03
9.379010e-04
-7.554970e-04
8.520700e-04
-1.100360e-03
1.147200e-02
3.423980e-04
3.611760e-03
-4.099230e-03
2.782420e-03
8.520700e-04
3.548940e-04
-7.133520e-04
1.130360e-02
3.611760e-03
-9.724130e-03
-3.435070e-03
8.520700e-04
-1.100360e-03
-7.133520e-04
-1.803260e-03
3.611760e-03
-4.099230e-03
-3.435070e-03
2.832220e-03
3.548940e-04
-7.133520e-04
4.823600e-04
6.835350e-04
-9.724130e-03
-3.435070e-03
-1.880450e-02
-4.396340e-03
-7.133520e-04
-1.803260e-03
6.835350e-04
8.595870e-04
-3.435070e-03
2.832220e-03
-4.396340e-03
9.989760e-03
4.823600e-04
6.835350e-04
-8.499330e-04
-1.650400e-04
-1.880450e-02
-4.396340e-03
-8.374100e-03
5.796340e-04
6.835350e-04
8.595870e-04
-1.650400e-04
4.916430e-04
-4.396340e-03
9.989760e-03
5.796340e-04
9.508830e-03
-8.499330e-04
-1.650400e-04
-1.882900e-04
-3.703260e-04
-8.374100e-03
5.796340e-04
3.724790e-03
-1.316000e-03
-1.650400e-04
4.916430e-04
-3.703260e-04
-5.799590e-04
5.796340e-04
9.508830e-03
-1.316000e-03
-6.384910e-03
-1.882900e-04
-3.703260e-04
8.386500e-04
1.412890e-04
3.724790e-03
-1.316000e-03
1.120890e-02
-3.928960e-03
-3.703260e-04
-5.799590e-04
1.412890e-04
-5.720650e-04
-1.316000e-03
-6.384910e-03
-3.928960e-03
-1.907900e-02
</DataArray>
<DataArray type="Float32" Name="V2" format="ascii">
0.000000e+00
0.000000e+00
-2.173200e-02
-2.303010e-02
0.000000e+00
0.000000e+00
2.115080e-03
2.112190e-03
0.000000e+00
0.000000e+00
-2.303010e-02
-2.966740e-02
0.000000e+00
0.000000e+00
2.112190e-03
1.770830e-03
-2.173200e-02
-2.303010e-02
7.318230e-03
-1.836270e-04
2.115080e-03
2.112190e-03
-4.875540e-03
-3.744340e-03
-2.303010e-02
-2.966740e-02
-1.836270e-04
-3.050420e-03
2.112190e-03
1.770830e-03
-3.744340e-03
-2.936970e-03
7.318230e-03
-1.836270e-04
3.199590e-02
2.802940e-02
-4.875540e-03
-3.744340e-03
-7.928690e-03
-7.496050e-03
-1.836270e-04
-3.050420e-03
2.802940e-02
3.152640e-02
-3.744340e-03
-2.936970e-03
-7.496050e-03
-7.335710e-03
3.199590e-02
2.802940e-02
1.926410e-02
1.882680e-02
-7.928690e-03
-7.496050e-03
-3.081110e-03
-3.361690e-03
2.802940e-02
3.152640e-02
1.882680e-02
2.450980e-02
-7.496050e-03
-7.335710e-03
-3.361690e-03
-4.071730e-03
1.926410e-02
1.882680e-02
9.279050e-03
1.435850e-02
-3.081110e-03
-3.361690e-03
3.696570e-03
3.356890e-03
1.882680e-02
2.450980e-02
1.435850e-02
1.776460e-02
-3.361690e-03
-4.071730e-03
3.356890e-03
3.472780e-03
9.279050e-03
1.435850e-02
-8.709190e-03
-2.977230e-03
3.696570e-03
3.356890e-03
6.101180e-03
5.229990e-03
1.435850e-02
1.776460e-02
-2.977230e-03
-3.952630e-03
3.356890e-03
3.472780e-03
5.229990e-03
4.938880e-03
-8.709190e-03
-2.977230e-03
-2.045190e-02
-2.727450e-02
6.101180e-03
5.229990e-03
1.251000e-03
1.021930e-03
-2.977230e-03
-3.952630e-03
-2.727450e-02
-3.161120e-02
5.229990e-03
4.938880e-03
1.021930e-03
3.049240e-04
-2.045190e-02
-2.727450e-02
9.804180e-04
-9.774120e-03
1.251000e-03
1.021930e-03
-5.864670e-03
-6.173450e-03
-2.727450e-02
-3.161120e-02
-9.774120e-03
-7.079070e-03
1.021930e-03
3.049240e-04
-6.173450e-03
-5.381380e-03
9.804180e-04
-9.774120e-03
1.620850e-02
1.558080e-02
-5.864670e-03
-6.173450e-03
-6.777540e-03
-7.590320e-03
-9.774120e-03
-7.079070e-03
1.558080e-02
2.457810e-02
-6.173450e-03
-5.381380e-03
-7.590320e-03
-5.941260e-03
1.620850e-02
1.558080e-02
1.932680e-02
2.532200e-02
-6.777540e-03
-7.590320e-03
2.652720e-03
2.406450e-03
1.558080e-02
2.457810e-02
2.532200e-02
2.739110e-02
-7.590320e-03
-5.941260e-03
2.406450e-03
2.700960e-03
1.932680e-02
2.532200e-02
1.267430e-02
2.206200e-02
2.652720e-03
2.406450e-03
1.376550e-02
1.274530e-02
2.532200e-02
2.739110e-02
2.206200e-02
1.774130e-02
2.406450e-03
2.700960e-03
1.274530e-02
1.238670e-02
1.267430e-02
2.206200e-02
-2.350490e-02
-1.563080e-02
1.376550e-02
1.274530e-02
8.541120e-03
7.823640e-03
2.206200e-02
1.774130e-02
-1.563080e-02
-1.777110e-02
1.274530e-02
1.238670e-02
7.823640e-03
7.142000e-03
-2.350490e-02
-1.563080e-02
-2.746220e-02
-2.967130e-02
8.541120e-03
7.823640e-03
-1.005890e-02
-9.886110e-03
-1.563080e-02
-1.777110e-02
-2.967130e-02
-2.854140e-02
7.823640e-03
7.142000e-03
-9.886110e-03
-1.089490e-02
-2.746220e-02
-2.967130e-02
-1.506090e-04
-5.421120e-03
-1.005890e-02
-9.886110e-03
-1.657220e-02
-1.664190e-02
-2.967130e-02
-2.854140e-02
-5.421120e-03
-1.381590e-03
-9.886110e-03
-1.089490e-02
-1.664190e-02
-1.644150e-02
-1.506090e-04
-5.421120e-03
-1.332810e-03
-1.530710e-03
-1.657220e-02
-1.664190e-02
-2.580390e-03
-2.711480e-03
-5.421120e-03
-1.381590e-03
-1.530710e-03
3.198050e-03
-1.664190e-02
-1.644150e-02
-2.711480e-03
-2.343620e-03
-1.332810e-03
-1.530710e-03
3.799370e-04
5.097380e-03
-2.580390e-03
-2.711480e-03
1.500720e-02
1.534510e-02
-1.530710e-03
3.198050e-03
5.097380e-03
4.638580e-03
-2.711480e-03
-2.343620e-03
1.534510e-02
1.484920e-02
3.799370e-04
5.097380e-03
-6.154600e-03
3.425710e-03
1.500720e-02
1.534510e-02
1.514770e-02
1.642370e-02
5.097380e-03
4.638580e-03
3.425710e-03
7.122600e-04
1.534510e-02
1.484920e-02
1.642370e-02
1.656590e-02
-6.154600e-03
3.425710e-03
-2.496230e-02
-2.168460e-02
1.514770e-02
1.642370e-02
-1.041640e-03
-6.124780e-04
3.425710e-03
7.122600e-04
-2.168460e-02
-2.201170e-02
1.642370e-02
1.656590e-02
-6.124780e-04
-1.093980e-03
-2.496230e-02
-2.168460e-02
-3.749160e-03
-1.290660e-02
-1.041640e-03
-6.124780e-04
-1.627140e-02
-1.655930e-02
-2.168460e-02
-2.201170e-02
-1.290660e-02
-1.457970e-02
-6.124780e-04
-1.093980e-03
-1.655930e-02
-1.723750e-02
-3.749160e-03
-1.290660e-02
8.367240e-03
7.697630e-04
-1.627140e-02
-1.655930e-02
-1.279430e-02
-1.273610e-02
-1.290660e-02
-1.457970e-02
7.697630e-04
-2.511620e-04
-1.655930e-02
-1.723750e-02
-1.273610e-02
-1.184730e-02
8.367240e-03
7.697630e-04
-7.266910e-03
-6.887980e-03
-1.279430e-02
-1.273610e-02
6.158050e-03
6.873660e-03
7.697630e-04
-2.511620e-04
-6.887980e-03
-1.615320e-03
-1.273610e-02
-1.184730e-02
6.873660e-03
6.986150e-03
-7.266910e-03
-6.887980e-03
1.810880e-03
8.942490e-03
6.158050e-03
6.873660e-03
1.737330e-02
1.824220e-02
-6.887980e-03
-1.615320e-03
8.942490e-03
1.189290e-02
6.873660e-03
6.986150e-03
1.824220e-02
1.842380e-02
1.810880e-03
8.942490e-03
4.589970e-03
1.537130e-02
1.737330e-02
1.824220e-02
6.675370e-03
5.744050e-03
8.942490e-03
1.189290e-02
1.537130e-02
1.233580e-02
1.824220e-02
1.842380e-02
5.744050e-03
6.822810e-03
4.589970e-03
1.537130e-02
2.581770e-03
6.172350e-03
6.675370e-03
5.744050e-03
-1.467850e-02
-1.550190e-02
1.537130e-02
1.233580e-02
6.172350e-03
3.930700e-03
5.744050e-03
6.822810e-03
-1.550190e-02
-1.509210e-02
2.581770e-03
6.172350e-03
8.891970e-03
3.891170e-03
-1.467850e-02
-1.550190e-02
-1.646370e-02
-1.685550e-02
6.172350e-03
3.930700e-03
3.891170e-03
4.808280e-03
-1.550190e-02
-1.509210e-02
-1.685550e-02
-1.712110e-02
8.891970e-03
3.891170e-03
-1.689480e-02
-2.078190e-02
-1.646370e-02
-1.685550e-02
3.862350e-03
3.440260e-03
3.891170e-03
4.808280e-03
-2.078190e-02
-1.734140e-02
-1.685550e-02
-1.712110e-02
3.440260e-03
3.030500e-03
-1.689480e-02
-2.078190e-02
-2.646360e-02
-2.377360e-02
3.862350e-03
3.440260e-03
1.891290e-02
1.912580e-02
-2.078190e-02
-1.734140e-02
-2.377360e-02
-2.006930e-02
3.440260e-03
3.030500e-03
1.912580e-02
1.862990e-02
-2.646360e-02
-2.377360e-02
1.341500e-02
1.894460e-02
1.891290e-02
1.912580e-02
1.134590e-02
1.171000e-02
-2.377360e-02
-2.006930e-02
1.894460e-02
1.865280e-02
1.912580e-02
1.862990e-02
1.171000e-02
1.205730e-02
1.341500e-02
1.894460e-02
3.316090e-02
3.942950e-02
1.134590e-02
1.171000e-02
-1.251870e-02
-1.201840e-02
1.894460e-02
1.865280e-02
3.942950e-02
3.417690e-02
1.171000e-02
1.205730e-02
-1.201840e-02
-1.131430e-02
3.316090e-02
3.942950e-02
2.789410e-02
3.553660e-02
-1.251870e-02
-1.201840e-02
-2.535000e-02
-2.499110e-02
3.942950e-02
3.417690e-02
3.553660e-02
2.880740e-02
-1.201840e-02
-1.131430e-02
-2.499110e-02
-2.505610e-02
0.000000e+00
0.000000e+00
2.115080e-03
2.112190e-03
0.000000e+00
0.000000e+00
1.800590e-02
1.930240e-02
0.000000e+00
0.000000e+00
2.112190e-03
1.770830e-03
0.000000e+00
0.000000e+00
1.930240e-02
2.658230e-02
2.115080e-03
2.112190e-03
-4.875540e-03
-3.744340e-03
1.800590e-02
1.930240e-02
2.947400e-03
8.032470e-03
2.112190e-03
1.770830e-03
-3.744340e-03
-2.936970e-03
1.930240e-02
2.658230e-02
8.032470e-03
9.166750e-03
-4.875540e-03
-3.744340e-03
-7.928690e-03