<?xml version="1.0"?>
<VTKFile type="UnstructuredGrid" version="0.1" byte_order="LittleEndian" compressor="vtkZLibDataCompressor">
<UnstructuredGrid>
<Piece NumberOfPoints="960" NumberOfCells="120">
<Points>
<DataArray type="Float32" NumberOfComponents="3" format="ascii">
-4.000000e+02 -6.000000e+03 -4.000000e+02
0.000000e+00 -6.000000e+03 -4.000000e+02
-4.000210e+02 -5.600120e+03 -4.000960e+02
-2.781500e-02 -5.600120e+03 -4.001220e+02
-4.000000e+02 -6.000000e+03 0.000000e+00
0.000000e+00 -6.000000e+03 0.000000e+00
-4.000010e+02 -5.600000e+03 -9.609570e-02
-1.106560e-03 -5.600000e+03 -1.233160e-01
0.000000e+00 -6.000000e+03 -4.000000e+02
4.000000e+02 -6.000000e+03 -4.000000e+02
-2.781500e-02 -5.600120e+03 -4.001220e+02
3.999650e+02 -5.600110e+03 -4.001600e+02
0.000000e+00 -6.000000e+03 0.000000e+00
4.000000e+02 -6.000000e+03 0.000000e+00
-1.106560e-03 -5.600000e+03 -1.233160e-01
3.999990e+02 -5.600000e+03 -1.627540e-01
-4.000210e+02 -5.600120e+03 -4.000960e+02
-2.781500e-02 -5.600120e+03 -4.001220e+02
-4.000390e+02 -5.200250e+03 -4.003020e+02
-4.855410e-02 -5.200240e+03 -4.003390e+02
-4.000010e+02 -5.600000e+03 -9.609570e-02
-1.106560e-03 -5.600000e+03 -1.233160e-01
-4.000020e+02 -5.199990e+03 -2.879540e-01
-1.287480e-03 -5.199990e+03 -3.286150e-01
-2.781500e-02 -5.600120e+03 -4.001220e+02
3.999650e+02 -5.600110e+03 -4.001600e+02
-4.855410e-02 -5.200240e+03 -4.003390e+02
3.999420e+02 -5.200230e+03 -4.003940e+02
-1.106560e-03 -5.600000e+03 -1.233160e-01
3.999990e+02 -5.600000e+03 -1.627540e-01
-1.287480e-03 -5.199990e+03 -3.286150e-01
3.999990e+02 -5.199990e+03 -3.844200e-01
-4.000390e+02 -5.200250e+03 -4.003020e+02
-4.855410e-02 -5.200240e+03 -4.003390e+02
-4.000530e+02 -4.800360e+03 -4.006500e+02
-5.435470e-02 -4.800350e+03 -4.006970e+02
-4.000020e+02 -5.199990e+03 -2.879540e-01
-1.287480e-03 -5.199990e+03 -3.286150e-01
-4.000010e+02 -4.800000e+03 -6.183410e-01
-1.166890e-03 -4.800000e+03 -6.697040e-01
-4.855410e-02 -5.200240e+03 -4.003390e+02
3.999420e+02 -5.200230e+03 -4.003940e+02
-5.435470e-02 -4.800350e+03 -4.006970e+02
3.999440e+02 -4.800350e+03 -4.007470e+02
-1.287480e-03 -5.199990e+03 -3.286150e-01
3.999990e+02 -5.199990e+03 -3.844200e-01
-1.166890e-03 -4.800000e+03 -6.697040e-01
3.999990e+02 -4.800000e+03 -7.221980e-01
-4.000530e+02 -4.800360e+03 -4.006500e+02
-5.435470e-02 -4.800350e+03 -4.006970e+02
-4.000550e+02 -4.400420e+03 -4.010110e+02
-4.990840e-02 -4.400420e+03 -4.010600e+02
-4.000010e+02 -4.800000e+03 -6.183410e-01
-1.166890e-03 -4.800000e+03 -6.697040e-01
-4.000010e+02 -4.400000e+03 -9.801850e-01
-1.465330e-03 -4.400000e+03 -1.032560e+00
-5.435470e-02 -4.800350e+03 -4.006970e+02
3.999440e+02 -4.800350e+03 -4.007470e+02
-4.990840e-02 -4.400420e+03 -4.010600e+02
3.999550e+02 -4.400420e+03 -4.011000e+02
-1.166890e-03 -4.800000e+03 -6.697040e-01
3.999990e+02 -4.800000e+03 -7.221980e-01
-1.465330e-03 -4.400000e+03 -1.032560e+00
3.999980e+02 -4.400000e+03 -1.076830e+00
-4.000550e+02 -4.400420e+03 -4.010110e+02
-4.990840e-02 -4.400420e+03 -4.010600e+02
-4.000400e+02 -4.000470e+03 -4.014210e+02
-3.458390e-02 -4.000470e+03 -4.014580e+02
-4.000010e+02 -4.400000e+03 -9.801850e-01
-1.465330e-03 -4.400000e+03 -1.032560e+00
-4.000000e+02 -4.000000e+03 -1.401240e+00
-4.874580e-04 -4.000000e+03 -1.437590e+00
-4.990840e-02 -4.400420e+03 -4.010600e+02
3.999550e+02 -4.400420e+03 -4.011000e+02
-3.458390e-02 -4.000470e+03 -4.014580e+02
3.999710e+02 -4.000470e+03 -4.014860e+02
-1.465330e-03 -4.400000e+03 -1.032560e+00
3.999980e+02 -4.400000e+03 -1.076830e+00
-4.874580e-04 -4.000000e+03 -1.437590e+00
3.999990e+02 -4.000000e+03 -1.469360e+00
-4.000400e+02 -4.000470e+03 -4.014210e+02
-3.458390e-02 -4.000470e+03 -4.014580e+02
-4.000060e+02 -3.600450e+03 -4.019400e+02
-9.208630e-03 -3.600450e+03 -4.019480e+02
-4.000000e+02 -4.000000e+03 -1.401240e+00
-4.874580e-04 -4.000000e+03 -1.437590e+00
-3.999990e+02 -3.600000e+03 -1.930170e+00
3.367800e-04 -3.600000e+03 -1.935850e+00
-3.458390e-02 -4.000470e+03 -4.014580e+02
3.999710e+02 -4.000470e+03 -4.014860e+02
-9.208630e-03 -3.600450e+03 -4.019480e+02
3.999870e+02 -3.600450e+03 -4.019610e+02
-4.874580e-04 -4.000000e+03 -1.437590e+00
3.999990e+02 -4.000000e+03 -1.469360e+00
3.367800e-04 -3.600000e+03 -1.935850e+00
4.000000e+02 -3.600000e+03 -1.950080e+00
-4.000060e+02 -3.600450e+03 -4.019400e+02
-9.208630e-03 -3.600450e+03 -4.019480e+02
-3.999760e+02 -3.200410e+03 -4.024180e+02
1.412020e-02 -3.200420e+03 -4.023950e+02
-3.999990e+02 -3.600000e+03 -1.930170e+00
3.367800e-04 -3.600000e+03 -1.935850e+00
-4.000000e+02 -3.200000e+03 -2.403450e+00
4.735720e-04 -3.200000e+03 -2.381700e+00
-9.208630e-03 -3.600450e+03 -4.019480e+02
3.999870e+02 -3.600450e+03 -4.019610e+02
1.412020e-02 -3.200420e+03 -4.023950e+02
4.000040e+02 -3.200420e+03 -4.023890e+02
3.367800e-04 -3.600000e+03 -1.935850e+00
4.000000e+02 -3.600000e+03 -1.950080e+00
4.735720e-04 -3.200000e+03 -2.381700e+00
4.000010e+02 -3.199990e+03 -2.374340e+00
-3.999760e+02 -3.200410e+03 -4.024180e+02
1.412020e-02 -3.200420e+03 -4.023950e+02
-3.999660e+02 -2.800440e+03 -4.028920e+02
2.773540e-02 -2.800440e+03 -4.028580e+02
-4.000000e+02 -3.200000e+03 -2.403450e+00
4.735720e-04 -3.200000e+03 -2.381700e+00
-4.000010e+02 -2.800000e+03 -2.859000e+00
7.107520e-04 -2.800000e+03 -2.826100e+00
1.412020e-02 -3.200420e+03 -4.023950e+02
4.000040e+02 -3.200420e+03 -4.023890e+02
2.773540e-02 -2.800440e+03 -4.028580e+02
4.000210e+02 -2.800450e+03 -4.028370e+02
4.735720e-04 -3.200000e+03 -2.381700e+00
4.000010e+02 -3.199990e+03 -2.374340e+00
7.107520e-04 -2.800000e+03 -2.826100e+00
4.000020e+02 -2.800000e+03 -2.800540e+00
-3.999660e+02 -2.800440e+03 -4.028920e+02
2.773540e-02 -2.800440e+03 -4.028580e+02
-3.999680e+02 -2.400470e+03 -4.033930e+02
3.535560e-02 -2.400470e+03 -4.033590e+02
-4.000010e+02 -2.800000e+03 -2.859000e+00
7.107520e-04 -2.800000e+03 -2.826100e+00
-4.000010e+02 -2.400000e+03 -3.357400e+00
3.806020e-04 -2.400000e+03 -3.323450e+00
2.773540e-02 -2.800440e+03 -4.028580e+02
4.000210e+02 -2.800450e+03 -4.028370e+02
3.535560e-02 -2.400470e+03 -4.033590e+02
4.000390e+02 -2.400470e+03 -4.033230e+02
7.107520e-04 -2.800000e+03 -2.826100e+00
4.000020e+02 -2.800000e+03 -2.800540e+00
3.806020e-04 -2.400000e+03 -3.323450e+00
4.000020e+02 -2.400000e+03 -3.283790e+00
-3.999680e+02 -2.400470e+03 -4.033930e+02
3.535560e-02 -2.400470e+03 -4.033590e+02
-3.999710e+02 -2.000480e+03 -4.038160e+02
3.994520e-02 -2.000480e+03 -4.037860e+02
-4.000010e+02 -2.400000e+03 -3.357400e+00
3.806020e-04 -2.400000e+03 -3.323450e+00
-4.000000e+02 -2.000010e+03 -3.798710e+00
2.245980e-04 -2.000010e+03 -3.767000e+00
3.535560e-02 -2.400470e+03 -4.033590e+02
4.000390e+02 -2.400470e+03 -4.033230e+02
3.994520e-02 -2.000480e+03 -4.037860e+02
4.000500e+02 -2.000480e+03 -4.037400e+02
3.806020e-04 -2.400000e+03 -3.323450e+00
4.000020e+02 -2.400000e+03 -3.283790e+00
2.245980e-04 -2.000010e+03 -3.767000e+00
4.000000e+02 -2.000010e+03 -3.721080e+00
-3.999710e+02 -2.000480e+03 -4.038160e+02
3.994520e-02 -2.000480e+03 -4.037860e+02
-3.999720e+02 -1.600470e+03 -4.042460e+02
3.252050e-02 -1.600470e+03 -4.042230e+02
-4.000000e+02 -2.000010e+03 -3.798710e+00
2.245980e-04 -2.000010e+03 -3.767000e+00
-3.999980e+02 -1.600010e+03 -4.253240e+00
9.145570e-04 -1.600010e+03 -4.224800e+00
3.994520e-02 -2.000480e+03 -4.037860e+02
4.000500e+02 -2.000480e+03 -4.037400e+02
3.252050e-02 -1.600470e+03 -4.042230e+02
4.000370e+02 -1.600460e+03 -4.041910e+02
2.245980e-04 -2.000010e+03 -3.767000e+00
4.000000e+02 -2.000010e+03 -3.721080e+00
9.145570e-04 -1.600010e+03 -4.224800e+00
4.000000e+02 -1.600010e+03 -4.192890e+00
-3.999720e+02 -1.600470e+03 -4.042460e+02
3.252050e-02 -1.600470e+03 -4.042230e+02
-3.999850e+02 -1.200410e+03 -4.046800e+02
9.207650e-03 -1.200410e+03 -4.046700e+02
-3.999980e+02 -1.600010e+03 -4.253240e+00
9.145570e-04 -1.600010e+03 -4.224800e+00
-3.999970e+02 -1.200000e+03 -4.690400e+00
1.295950e-03 -1.200000e+03 -4.675250e+00
3.252050e-02 -1.600470e+03 -4.042230e+02
4.000370e+02 -1.600460e+03 -4.041910e+02
9.207650e-03 -1.200410e+03 -4.046700e+02
4.000040e+02 -1.200410e+03 -4.046680e+02
9.145570e-04 -1.600010e+03 -4.224800e+00
4.000000e+02 -1.600010e+03 -4.192890e+00
1.295950e-03 -1.200000e+03 -4.675250e+00
4.000000e+02 -1.200000e+03 -4.672630e+00
-3.999850e+02 -1.200410e+03 -4.046800e+02
9.207650e-03 -1.200410e+03 -4.046700e+02
-4.000050e+02 -8.003890e+02 -4.050580e+02
-1.557260e-02 -8.003930e+02 -4.050700e+02
-3.999970e+02 -1.200000e+03 -4.690400e+00
1.295950e-03 -1.200000e+03 -4.675250e+00
-3.999990e+02 -7.999970e+02 -5.045970e+00
6.022080e-04 -7.999980e+02 -5.056080e+00
9.207650e-03 -1.200410e+03 -4.046700e+02
4.000040e+02 -1.200410e+03 -4.046680e+02
-1.557260e-02 -8.003930e+02 -4.050700e+02
3.999740e+02 -8.003970e+02 -4.050990e+02
1.295950e-03 -1.200000e+03 -4.675250e+00
4.000000e+02 -1.200000e+03 -4.672630e+00
6.022080e-04 -7.999980e+02 -5.056080e+00
4.000000e+02 -7.999980e+02 -5.084180e+00
-4.000050e+02 -8.003890e+02 -4.050580e+02
-1.557260e-02 -8.003930e+02 -4.050700e+02
-4.000230e+02 -4.004260e+02 -4.055230e+02
-2.607610e-02 -4.004230e+02 -4.055500e+02
-3.999990e+02 -7.999970e+02 -5.045970e+00
6.022080e-04 -7.999980e+02 -5.056080e+00
-4.000000e+02 -4.000040e+02 -5.496950e+00
3.209060e-04 -4.000040e+02 -5.525470e+00
-1.557260e-02 -8.003930e+02 -4.050700e+02
3.999740e+02 -8.003970e+02 -4.050990e+02
-2.607610e-02 -4.004230e+02 -4.055500e+02
3.999710e+02 -4.004270e+02 -4.055860e+02
6.022080e-04 -7.999980e+02 -5.056080e+00
4.000000e+02 -7.999980e+02 -5.084180e+00
3.209060e-04 -4.000040e+02 -5.525470e+00
4.000010e+02 -4.000040e+02 -5.559240e+00
-4.000230e+02 -4.004260e+02 -4.055230e+02
-2.607610e-02 -4.004230e+02 -4.055500e+02
-4.000230e+02 -4.399330e-01 -4.059980e+02
-1.642710e-02 -4.365750e-01 -4.060150e+02
-4.000000e+02 -4.000040e+02 -5.496950e+00
3.209060e-04 -4.000040e+02 -5.525470e+00
-4.000020e+02 -1.115250e-02 -5.983720e+00
-3.294960e-04 -1.119040e-02 -6.004640e+00
-2.607610e-02 -4.004230e+02 -4.055500e+02
3.999710e+02 -4.004270e+02 -4.055860e+02
[...]
<PointData>
<DataArray type="Float32" Name="V1" format="ascii">
0.000000e+00
0.000000e+00
1.529150e-02
8.386260e-03
0.000000e+00
0.000000e+00
3.895250e-04
6.244060e-04
0.000000e+00
0.000000e+00
8.386260e-03
1.495940e-03
0.000000e+00
0.000000e+00
6.244060e-04
8.554330e-04
1.529150e-02
8.386260e-03
1.982080e-02
1.115190e-02
3.895250e-04
6.244060e-04
-8.618060e-04
1.706430e-04
8.386260e-03
1.495940e-03
1.115190e-02
2.485390e-03
6.244060e-04
8.554330e-04
1.706430e-04
1.196190e-03
1.982080e-02
1.115190e-02
1.070080e-02
6.895300e-03
-8.618060e-04
1.706430e-04
-2.640540e-03
-3.735970e-04
1.115190e-02
2.485390e-03
6.895300e-03
3.071790e-03
1.706430e-04
1.196190e-03
-3.735970e-04
1.877320e-03
1.070080e-02
6.895300e-03
-1.408280e-03
3.729460e-03
-2.640540e-03
-3.735970e-04
-3.229890e-03
-8.650720e-04
6.895300e-03
3.071790e-03
3.729460e-03
8.839260e-03
-3.735970e-04
1.877320e-03
-8.650720e-04
1.476630e-03
-1.408280e-03
3.729460e-03
-4.912790e-03
-2.143760e-03
-3.229890e-03
-8.650720e-04
-2.172850e-03
-6.630560e-04
3.729460e-03
8.839260e-03
-2.143760e-03
5.823900e-04
-8.650720e-04
1.476630e-03
-6.630560e-04
8.138900e-04
-4.912790e-03
-2.143760e-03
-8.803180e-03
-1.018220e-02
-2.172850e-03
-6.630560e-04
-2.840550e-04
4.758620e-05
-2.143760e-03
5.823900e-04
-1.018220e-02
-1.160780e-02
-6.630560e-04
8.138900e-04
4.758620e-05
3.421030e-04
-8.803180e-03
-1.018220e-02
-8.910530e-04
-9.663090e-03
-2.840550e-04
4.758620e-05
-1.648970e-03
-1.111770e-03
-1.018220e-02
-1.160780e-02
-9.663090e-03
-1.846020e-02
4.758620e-05
3.421030e-04
-1.111770e-03
-6.098780e-04
-8.910530e-04
-9.663090e-03
6.046810e-03
-3.446340e-03
-1.648970e-03
-1.111770e-03
-3.169030e-03
-9.478070e-04
-9.663090e-03
-1.846020e-02
-3.446340e-03
-1.296940e-02
-1.111770e-03
-6.098780e-04
-9.478070e-04
1.234260e-03
6.046810e-03
-3.446340e-03
6.989490e-03
3.216670e-03
-3.169030e-03
-9.478070e-04
-4.751750e-03
-1.733650e-03
-3.446340e-03
-1.296940e-02
3.216670e-03
-5.970650e-04
-9.478070e-04
1.234260e-03
-1.733650e-03
1.238850e-03
6.989490e-03
3.216670e-03
-1.593430e-03
6.345280e-03
-4.751750e-03
-1.733650e-03
-2.332950e-03
-1.786820e-03
3.216670e-03
-5.970650e-04
6.345280e-03
1.422990e-02
-1.733650e-03
1.238850e-03
-1.786820e-03
-1.286850e-03
-1.593430e-03
6.345280e-03
-6.435560e-03
2.806680e-03
-2.332950e-03
-1.786820e-03
2.432390e-03
-8.239370e-04
6.345280e-03
1.422990e-02
2.806680e-03
1.200260e-02
-1.786820e-03
-1.286850e-03
-8.239370e-04
-4.121630e-03
-6.435560e-03
2.806680e-03
-9.353010e-03
-3.938880e-03
2.432390e-03
-8.239370e-04
4.762650e-03
1.078440e-05
2.806680e-03
1.200260e-02
-3.938880e-03
1.433160e-03
-8.239370e-04
-4.121630e-03
1.078440e-05
-4.778150e-03
-9.353010e-03
-3.938880e-03
-4.500700e-03
-6.825810e-03
4.762650e-03
1.078440e-05
5.109420e-03
1.065870e-03
-3.938880e-03
1.433160e-03
-6.825810e-03
-9.190890e-03
1.078440e-05
-4.778150e-03
1.065870e-03
-3.019720e-03
-4.500700e-03
-6.825810e-03
-4.448030e-03
-6.043280e-03
5.109420e-03
1.065870e-03
2.542190e-03
7.438830e-04
-6.825810e-03
-9.190890e-03
-6.043280e-03
-7.684460e-03
1.065870e-03
-3.019720e-03
7.438830e-04
-1.109660e-03
-4.448030e-03
-6.043280e-03
-5.265520e-03
-1.872940e-03
2.542190e-03
7.438830e-04
3.875170e-04
9.777270e-04
-6.043280e-03
-7.684460e-03
-1.872940e-03
1.489010e-03
7.438830e-04
-1.109660e-03
9.777270e-04
1.529770e-03
-5.265520e-03
-1.872940e-03
-2.564670e-04
6.082620e-03
3.875170e-04
9.777270e-04
-1.182390e-03
6.126800e-04
-1.872940e-03
1.489010e-03
6.082620e-03
1.240580e-02
9.777270e-04
1.529770e-03
6.126800e-04
2.387810e-03
-2.564670e-04
6.082620e-03
5.432600e-03
8.649240e-03
-1.182390e-03
6.126800e-04
-1.365720e-03
2.027720e-04
6.082620e-03
1.240580e-02
8.649240e-03
1.184260e-02
6.126800e-04
2.387810e-03
2.027720e-04
1.757360e-03
5.432600e-03
8.649240e-03
9.630180e-03
6.572790e-03
-1.365720e-03
2.027720e-04
-7.431010e-04
3.025600e-04
8.649240e-03
1.184260e-02
6.572790e-03
3.495340e-03
2.027720e-04
1.757360e-03
3.025600e-04
1.332270e-03
9.630180e-03
6.572790e-03
8.694430e-03
2.751190e-03
-7.431010e-04
3.025600e-04
-1.986220e-03
-6.727520e-04
6.572790e-03
3.495340e-03
2.751190e-03
-3.218570e-03
3.025600e-04
1.332270e-03
-6.727520e-04
6.158100e-04
8.694430e-03
2.751190e-03
2.016310e-03
-1.138940e-03
-1.986220e-03
-6.727520e-04
-2.542700e-03
-4.516720e-04
2.751190e-03
-3.218570e-03
-1.138940e-03
-4.307140e-03
-6.727520e-04
6.158100e-04
-4.516720e-04
1.619710e-03
2.016310e-03
-1.138940e-03
-6.817010e-03
-3.663350e-03
-2.542700e-03
-4.516720e-04
-3.350800e-03
-1.103260e-03
-1.138940e-03
-4.307140e-03
-3.663350e-03
-4.987360e-04
-4.516720e-04
1.619710e-03
-1.103260e-03
1.146790e-03
-6.817010e-03
-3.663350e-03
-1.302390e-02
-8.541450e-03
-3.350800e-03
-1.103260e-03
-4.771130e-03
-2.429180e-03
-3.663350e-03
-4.987360e-04
-8.541450e-03
-4.043620e-03
-1.103260e-03
1.146790e-03
-2.429180e-03
-7.210320e-05
-1.302390e-02
-8.541450e-03
-6.275960e-03
-7.868570e-03
-4.771130e-03
-2.429180e-03
-2.517640e-03
-5.880440e-04
-8.541450e-03
-4.043620e-03
-7.868570e-03
-9.448700e-03
-2.429180e-03
-7.210320e-05
-5.880440e-04
1.358150e-03
-6.275960e-03
-7.868570e-03
3.814910e-03
1.905210e-04
-2.517640e-03
-5.880440e-04
-3.953370e-04
4.046720e-04
-7.868570e-03
-9.448700e-03
1.905210e-04
-3.425850e-03
-5.880440e-04
1.358150e-03
4.046720e-04
1.210440e-03
3.814910e-03
1.905210e-04
6.337420e-03
9.180730e-04
-3.953370e-04
4.046720e-04
1.740520e-03
1.222320e-03
1.905210e-04
-3.425850e-03
9.180730e-04
-4.487460e-03
4.046720e-04
1.210440e-03
1.222320e-03
7.091320e-04
6.337420e-03
9.180730e-04
2.153920e-03
1.484290e-03
1.740520e-03
1.222320e-03
1.033150e-03
6.871050e-05
9.180730e-04
-4.487460e-03
1.484290e-03
8.196510e-04
1.222320e-03
7.091320e-04
6.871050e-05
-8.906200e-04
2.153920e-03
1.484290e-03
5.632360e-04
4.260780e-03
1.033150e-03
6.871050e-05
7.468170e-04
2.711870e-04
1.484290e-03
8.196510e-04
4.260780e-03
7.964140e-03
6.871050e-05
-8.906200e-04
2.711870e-04
-2.089870e-04
5.632360e-04
4.260780e-03
3.034210e-03
4.905910e-03
7.468170e-04
2.711870e-04
1.821820e-03
8.963400e-04
4.260780e-03
7.964140e-03
4.905910e-03
6.787160e-03
2.711870e-04
-2.089870e-04
8.963400e-04
-2.909990e-05
3.034210e-03
4.905910e-03
5.480960e-03
2.057260e-03
1.821820e-03
8.963400e-04
3.527260e-03
1.395860e-03
4.905910e-03
6.787160e-03
2.057260e-03
-1.345160e-03
8.963400e-04
-2.909990e-05
1.395860e-03
-7.185440e-04
5.480960e-03
2.057260e-03
3.137380e-03
-4.302310e-03
3.527260e-03
1.395860e-03
5.127020e-03
2.300980e-03
2.057260e-03
-1.345160e-03
-4.302310e-03
-1.172740e-02
1.395860e-03
-7.185440e-04
2.300980e-03
-5.026750e-04
0.000000e+00
0.000000e+00
3.895250e-04
6.244060e-04
0.000000e+00
0.000000e+00
-1.595910e-02
-9.590790e-03
0.000000e+00
0.000000e+00
6.244060e-04
8.554330e-04
0.000000e+00
0.000000e+00
-9.590790e-03
-3.237400e-03
3.895250e-04
6.244060e-04
-8.618060e-04
1.706430e-04
-1.595910e-02
-9.590790e-03
-1.802070e-02
-1.142980e-02
6.244060e-04
8.554330e-04
1.706430e-04
1.196190e-03
-9.590790e-03
-3.237400e-03
-1.142980e-02
-4.852710e-03
-8.618060e-04
1.706430e-04
-2.640540e-03
-3.735970e-04
-1.802070e-02
-1.142980e-02
-5.399610e-03
-6.166680e-03
1.706430e-04
1.196190e-03
-3.735970e-04
1.877320e-03
-1.142980e-02
-4.852710e-03
-6.166680e-03
-6.953670e-03
-2.640540e-03
-3.735970e-04
-3.229890e-03
-8.650720e-04
-5.399610e-03
-6.166680e-03
7.872010e-03
-1.957480e-03
-3.735970e-04
1.877320e-03
-8.650720e-04
1.476630e-03
-6.166680e-03
-6.953670e-03
-1.957480e-03
-1.180000e-02
-3.229890e-03
-8.650720e-04
-2.172850e-03
-6.630560e-04
7.872010e-03
-1.957480e-03
8.993280e-03
3.331290e-03
-8.650720e-04
1.476630e-03
-6.630560e-04
8.138900e-04
-1.957480e-03
-1.180000e-02
3.331290e-03
-2.353260e-03
-2.172850e-03
-6.630560e-04
-2.840550e-04
4.758620e-05
8.993280e-03
3.331290e-03
9.504370e-03
1.029460e-02
-6.630560e-04
8.138900e-04
4.758620e-05
3.421030e-04
3.331290e-03
-2.353260e-03
1.029460e-02
1.105740e-02
-2.840550e-04
4.758620e-05
-1.648970e-03
-1.111770e-03
9.504370e-03
1.029460e-02
4.256370e-03
1.190760e-02
4.758620e-05
3.421030e-04
-1.111770e-03
-6.098780e-04
1.029460e-02
1.105740e-02
1.190760e-02
1.951650e-02
-1.648970e-03
-1.111770e-03
-3.169030e-03
-9.478070e-04
4.256370e-03
1.190760e-02
1.886520e-04
5.305410e-03
-1.111770e-03
-6.098780e-04
-9.478070e-04
1.234260e-03
1.190760e-02
1.951650e-02
5.305410e-03
1.037330e-02
-3.169030e-03
-9.478070e-04
-4.751750e-03
-1.733650e-03
1.886520e-04
5.305410e-03
2.592740e-03
4.044150e-04
-9.478070e-04
1.234260e-03
-1.733650e-03
1.238850e-03
5.305410e-03
1.037330e-02
4.044150e-04
-1.830210e-03
-4.751750e-03
-1.733650e-03
-2.332950e-03
-1.786820e-03
2.592740e-03
4.044150e-04
6.007080e-03
-2.871950e-03
-1.733650e-03
1.238850e-03
-1.786820e-03
-1.286850e-03
4.044150e-04
-1.830210e-03
-2.871950e-03
-1.179140e-02
-2.332950e-03
-1.786820e-03
2.432390e-03
-8.239370e-04
6.007080e-03
-2.871950e-03
1.655570e-03
-9.390450e-04
-1.786820e-03
-1.286850e-03
-8.239370e-04
-4.121630e-03
-2.871950e-03
-1.179140e-02
-9.390450e-04
-3.568330e-03
2.432390e-03
-8.239370e-04
4.762650e-03
1.078440e-05
1.655570e-03
-9.390450e-04
-3.764740e-04
3.766570e-03
-8.239370e-04
-4.121630e-03
1.078440e-05
-4.778150e-03
-9.390450e-04
-3.568330e-03
3.766570e-03
7.878800e-03
4.762650e-03
1.078440e-05
5.109420e-03
1.065870e-03
-3.764740e-04
3.766570e-03
-5.587660e-03
4.821250e-03
1.078440e-05
-4.778150e-03
1.065870e-03
-3.019720e-03
3.766570e-03
7.878800e-03
4.821250e-03
1.518720e-02
5.109420e-03
1.065870e-03
2.542190e-03
7.438830e-04
-5.587660e-03
4.821250e-03
-6.136060e-04
4.706770e-03
1.065870e-03
-3.019720e-03
7.438830e-04
-1.109660e-03
4.821250e-03
1.518720e-02
4.706770e-03
9.965390e-03
2.542190e-03
7.438830e-04
3.875170e-04
9.777270e-04
-6.136060e-04
4.706770e-03
4.310500e-03
-1.533770e-04
7.438830e-04
-1.109660e-03
9.777270e-04
1.529770e-03
4.706770e-03
9.965390e-03
-1.533770e-04
-4.658340e-03
3.875170e-04
9.777270e-04
-1.182390e-03
6.126800e-04
4.310500e-03
-1.533770e-04
2.655590e-03
-7.136420e-03
9.777270e-04
1.529770e-03
6.126800e-04
2.387810e-03
-1.533770e-04
-4.658340e-03
-7.136420e-03
-1.694740e-02
-1.182390e-03
6.126800e-04
-1.365720e-03
2.027720e-04
2.655590e-03
-7.136420e-03
-3.009440e-03
-9.289090e-03
6.126800e-04
2.387810e-03
2.027720e-04
1.757360e-03
-7.136420e-03
-1.694740e-02
-9.289090e-03
-1.557610e-02
-1.365720e-03
2.027720e-04
-7.431010e-04
3.025600e-04
-3.009440e-03
-9.289090e-03
-7.889620e-03
-7.006100e-03
2.027720e-04
1.757360e-03
3.025600e-04
1.332270e-03
-9.289090e-03
-1.557610e-02
-7.006100e-03
-6.133340e-03
-7.431010e-04
3.025600e-04
-1.986220e-03
-6.727520e-04
-7.889620e-03
-7.006100e-03
-4.661840e-03
-1.368310e-03
3.025600e-04
1.332270e-03
-6.727520e-04
6.158100e-04
-7.006100e-03
-6.133340e-03
-1.368310e-03
1.898440e-03
-1.986220e-03
-6.727520e-04
-2.542700e-03
-4.516720e-04
-4.661840e-03
-1.368310e-03
2.898750e-03
2.039350e-03
-6.727520e-04
6.158100e-04
-4.516720e-04
1.619710e-03
-1.368310e-03
1.898440e-03
2.039350e-03
1.158460e-03
-2.542700e-03
-4.516720e-04
-3.350800e-03
-1.103260e-03
2.898750e-03
2.039350e-03
1.355050e-02
5.910040e-03
-4.516720e-04
1.619710e-03
-1.103260e-03
1.146790e-03
2.039350e-03
1.158460e-03
5.910040e-03
-1.727590e-03
-3.350800e-03
-1.103260e-03
-4.771130e-03
-2.429180e-03
1.355050e-02
5.910040e-03
2.252340e-02
1.330750e-02
-1.103260e-03
1.146790e-03
-2.429180e-03
-7.210320e-05
5.910040e-03
-1.727590e-03
1.330750e-02
4.110360e-03
-4.771130e-03
-2.429180e-03
-2.517640e-03
-5.880440e-04
2.252340e-02
1.330750e-02
1.138370e-02
9.084100e-03
-2.429180e-03
-7.210320e-05
-5.880440e-04
1.358150e-03
1.330750e-02
4.110360e-03
9.084100e-03
6.807000e-03
-2.517640e-03
-5.880440e-04
-3.953370e-04
4.046720e-04
1.138370e-02
9.084100e-03
-3.049020e-03
-1.101320e-03
-5.880440e-04
1.358150e-03
4.046720e-04
1.210440e-03
9.084100e-03
6.807000e-03
-1.101320e-03
8.523760e-04
-3.953370e-04
4.046720e-04
1.740520e-03
1.222320e-03
-3.049020e-03
-1.101320e-03
-9.653550e-03
-3.256000e-03
4.046720e-04
1.210440e-03
1.222320e-03
7.091320e-04
-1.101320e-03
8.523760e-04
-3.256000e-03
3.143650e-03
1.740520e-03
1.222320e-03
1.033150e-03
6.871050e-05
-9.653550e-03
-3.256000e-03
-4.411380e-03
-1.716680e-03
1.222320e-03
7.091320e-04
6.871050e-05
-8.906200e-04
-3.256000e-03
3.143650e-03
-1.716680e-03
9.939400e-04
1.033150e-03
6.871050e-05
7.468170e-04
2.711870e-04
-4.411380e-03
-1.716680e-03
-2.019980e-03
-4.779440e-03
6.871050e-05
-8.906200e-04
2.711870e-04
-2.089870e-04
-1.716680e-03
9.939400e-04
-4.779440e-03
-7.540160e-03
7.468170e-04
2.711870e-04
1.821820e-03
8.963400e-04
-2.019980e-03
-4.779440e-03
-6.687360e-03
-6.762110e-03
2.711870e-04
-2.089870e-04
8.963400e-04
-2.909990e-05
-4.779440e-03
-7.540160e-03
-6.762110e-03
-6.836140e-03
1.821820e-03
8.963400e-04
3.527260e-03
1.395860e-03
-6.687360e-03
-6.762110e-03
-1.229610e-02
-4.688930e-03
8.963400e-04
-2.909990e-05
1.395860e-03
-7.185440e-04
-6.762110e-03
-6.836140e-03
-4.688930e-03
2.939390e-03
3.527260e-03
1.395860e-03
5.127020e-03
2.300980e-03
-1.229610e-02
-4.688930e-03
-1.362040e-02
-5.500260e-04
1.395860e-03
-7.185440e-04
2.300980e-03
-5.026750e-04
-4.688930e-03
2.939390e-03
-5.500260e-04
1.255060e-02
</DataArray>
<DataArray type="Float32" Name="V2" format="ascii">
0.000000e+00
0.000000e+00
-2.206940e-03
-4.962680e-03
0.000000e+00
0.000000e+00
-5.286320e-03
-5.161850e-03
0.000000e+00
0.000000e+00
-4.962680e-03
-7.749370e-03
0.000000e+00
0.000000e+00
-5.161850e-03
-4.259580e-03
-2.206940e-03
-4.962680e-03
3.489510e-03
3.761880e-03
-5.286320e-03
-5.161850e-03
8.024240e-04
8.036200e-04
-4.962680e-03
-7.749370e-03
3.761880e-03
5.492320e-04
-5.161850e-03
-4.259580e-03
8.036200e-04
1.107330e-03
3.489510e-03
3.761880e-03
8.405410e-03
8.294250e-03
8.024240e-04
8.036200e-04
6.570970e-03
6.515770e-03
3.761880e-03
5.492320e-04
8.294250e-03
5.310380e-03
8.036200e-04
1.107330e-03
6.515770e-03
6.563560e-03
8.405410e-03
8.294250e-03
1.056000e-02
6.107110e-03
6.570970e-03
6.515770e-03
2.248710e-03
2.478140e-03
8.294250e-03
5.310380e-03
6.107110e-03
7.326460e-03
6.515770e-03
6.563560e-03
2.478140e-03
1.611670e-03
1.056000e-02
6.107110e-03
1.407210e-02
1.284970e-02
2.248710e-03
2.478140e-03
-8.045580e-03
-7.874400e-03
6.107110e-03
7.326460e-03
1.284970e-02
2.308940e-02
2.478140e-03
1.611670e-03
-7.874400e-03
-8.925790e-03
1.407210e-02
1.284970e-02
-1.636530e-04
3.668340e-03
-8.045580e-03
-7.874400e-03
-1.056300e-02
-1.091830e-02
1.284970e-02
2.308940e-02
3.668340e-03
1.230870e-02
-7.874400e-03
-8.925790e-03
-1.091830e-02
-1.066610e-02
-1.636530e-04
3.668340e-03
-1.865060e-02
-1.760270e-02
-1.056300e-02
-1.091830e-02
2.071430e-03
1.815530e-03
3.668340e-03
1.230870e-02
-1.760270e-02
-1.671110e-02
-1.091830e-02
-1.066610e-02
1.815530e-03
1.794310e-03
-1.865060e-02
-1.760270e-02
-1.454730e-02
-1.533170e-02
2.071430e-03
1.815530e-03
1.575720e-02
1.554020e-02
-1.760270e-02
-1.671110e-02
-1.533170e-02
-1.756360e-02
1.815530e-03
1.794310e-03
1.554020e-02
1.423970e-02
-1.454730e-02
-1.533170e-02
-1.382180e-03
-1.925120e-03
1.575720e-02
1.554020e-02
1.368010e-02
1.338280e-02
-1.533170e-02
-1.756360e-02
-1.925120e-03
-5.471930e-03
1.554020e-02
1.423970e-02
1.338280e-02
1.262650e-02
-1.382180e-03
-1.925120e-03
1.177820e-02
1.040560e-02
1.368010e-02
1.338280e-02
-1.258150e-03
-1.718330e-03
-1.925120e-03
-5.471930e-03
1.040560e-02
8.218110e-03
1.338280e-02
1.262650e-02
-1.718330e-03
-9.537320e-04
1.177820e-02
1.040560e-02
2.150910e-02
2.033540e-02
-1.258150e-03
-1.718330e-03
-1.703670e-02
-1.746080e-02
1.040560e-02
8.218110e-03
2.033540e-02
2.311870e-02
-1.718330e-03
-9.537320e-04
-1.746080e-02
-1.704630e-02
2.150910e-02
2.033540e-02
8.048690e-03
4.729230e-03
-1.703670e-02
-1.746080e-02
-1.149430e-02
-1.158620e-02
2.033540e-02
2.311870e-02
4.729230e-03
7.149920e-03
-1.746080e-02
-1.704630e-02
-1.158620e-02
-1.090590e-02
8.048690e-03
4.729230e-03
-9.804960e-03
-1.482690e-02
-1.149430e-02
-1.158620e-02
9.373890e-03
9.561950e-03
4.729230e-03
7.149920e-03
-1.482690e-02
-1.657200e-02
-1.158620e-02
-1.090590e-02
9.561950e-03
1.037880e-02
-9.804960e-03
-1.482690e-02
-1.540260e-02
-1.721050e-02
9.373890e-03
9.561950e-03
1.663790e-02
1.706050e-02
-1.482690e-02
-1.657200e-02
-1.721050e-02
-2.057830e-02
9.561950e-03
1.037880e-02
1.706050e-02
1.769700e-02
-1.540260e-02
-1.721050e-02
-1.085340e-02
-1.258800e-02
1.663790e-02
1.706050e-02
6.061920e-03
5.880920e-03
-1.721050e-02
-2.057830e-02
-1.258800e-02
-1.774910e-02
1.706050e-02
1.769700e-02
5.880920e-03
6.931920e-03
-1.085340e-02
-1.258800e-02
2.763350e-03
-1.708860e-03
6.061920e-03
5.880920e-03
-1.062070e-02
-1.103230e-02
-1.258800e-02
-1.774910e-02
-1.708860e-03
-6.354610e-03
5.880920e-03
6.931920e-03
-1.103230e-02
-1.063980e-02
2.763350e-03
-1.708860e-03
1.374790e-02
8.778510e-03
-1.062070e-02
-1.103230e-02
-1.380660e-02
-1.399320e-02
-1.708860e-03
-6.354610e-03
8.778510e-03
7.330340e-03
-1.103230e-02
-1.063980e-02
-1.399320e-02
-1.514890e-02
1.374790e-02
8.778510e-03
5.510840e-03
2.744020e-03
-1.380660e-02
-1.399320e-02
3.783570e-03
4.159840e-03
8.778510e-03
7.330340e-03
2.744020e-03
1.697380e-03
-1.399320e-02
-1.514890e-02
4.159840e-03
3.069320e-03
5.510840e-03
2.744020e-03
-2.208090e-02
-2.081220e-02
3.783570e-03
4.159840e-03
2.152480e-02
2.212120e-02
2.744020e-03
1.697380e-03
-2.081220e-02
-2.209350e-02
4.159840e-03
3.069320e-03
2.212120e-02
2.118200e-02
-2.208090e-02
-2.081220e-02
-2.801660e-02
-2.648520e-02
2.152480e-02
2.212120e-02
1.661320e-02
1.635850e-02
-2.081220e-02
-2.209350e-02
-2.648520e-02
-2.813440e-02
2.212120e-02
2.118200e-02
1.635850e-02
1.530620e-02
-2.801660e-02
-2.648520e-02
8.692150e-04
-1.159250e-03
1.661320e-02
1.635850e-02
-9.664230e-03
-9.290390e-03
-2.648520e-02
-2.813440e-02
-1.159250e-03
-1.947270e-03
1.635850e-02
1.530620e-02
-9.290390e-03
-8.660830e-03
8.692150e-04
-1.159250e-03
2.411800e-02
2.042340e-02
-9.664230e-03
-9.290390e-03
-2.265790e-02
-2.295440e-02
-1.159250e-03
-1.947270e-03
2.042340e-02
1.965730e-02
-9.290390e-03
-8.660830e-03
-2.295440e-02
-2.244060e-02
2.411800e-02
2.042340e-02
8.837840e-03
5.964410e-03
-2.265790e-02
-2.295440e-02
-5.894470e-03
-6.786750e-03
2.042340e-02
1.965730e-02
5.964410e-03
1.600640e-03
-2.295440e-02
-2.244060e-02
-6.786750e-03
-7.170510e-03
8.837840e-03
5.964410e-03
-2.553350e-02
-2.723960e-02
-5.894470e-03
-6.786750e-03
1.821620e-02
1.922280e-02
5.964410e-03
1.600640e-03
-2.723960e-02
-3.038720e-02
-6.786750e-03
-7.170510e-03
1.922280e-02
2.000120e-02
-2.553350e-02
-2.723960e-02
-2.567420e-02
-2.761410e-02
1.821620e-02
1.922280e-02
1.966420e-02
2.019470e-02
-2.723960e-02
-3.038720e-02
-2.761410e-02
-2.779580e-02
1.922280e-02
2.000120e-02
2.019470e-02
2.119470e-02
-2.567420e-02
-2.761410e-02
1.048480e-02
7.222620e-03
1.966420e-02
2.019470e-02
-5.351990e-03
-5.610560e-03
-2.761410e-02
-2.779580e-02
7.222620e-03
2.903000e-03
2.019470e-02
2.119470e-02
-5.610560e-03
-5.971270e-03
1.048480e-02
7.222620e-03
4.056780e-02
3.253730e-02
-5.351990e-03
-5.610560e-03
-2.317320e-02
-2.344830e-02
7.222620e-03
2.903000e-03
3.253730e-02
2.529240e-02
-5.610560e-03
-5.971270e-03
-2.344830e-02
-2.439270e-02
4.056780e-02
3.253730e-02
2.895590e-02
1.713130e-02
-2.317320e-02
-2.344830e-02
-1.325800e-02
-1.268930e-02
3.253730e-02
2.529240e-02
1.713130e-02
1.263940e-02
-2.344830e-02
-2.439270e-02
-1.268930e-02
-1.233020e-02
2.895590e-02
1.713130e-02
-2.103750e-02
-2.352050e-02
-1.325800e-02
-1.268930e-02
1.282170e-02
1.343510e-02
1.713130e-02
1.263940e-02
-2.352050e-02
-2.215010e-02
-1.268930e-02
-1.233020e-02
1.343510e-02
1.380920e-02
-2.103750e-02
-2.352050e-02
-5.064860e-02
-4.400440e-02
1.282170e-02
1.343510e-02
2.782670e-02
2.710170e-02
-2.352050e-02
-2.215010e-02
-4.400440e-02
-3.897480e-02
1.343510e-02
1.380920e-02
2.710170e-02
2.636110e-02
0.000000e+00
0.000000e+00
-5.286320e-03
-5.161850e-03
0.000000e+00
0.000000e+00
1.220500e-02
1.468360e-02
0.000000e+00
0.000000e+00
-5.161850e-03
-4.259580e-03
0.000000e+00
0.000000e+00
1.468360e-02
1.546780e-02
-5.286320e-03
-5.161850e-03
8.024240e-04
8.036200e-04
1.220500e-02
1.468360e-02
-5.145110e-03
-5.346640e-03
-5.161850e-03
-4.259580e-03
8.036200e-04
1.107330e-03
1.468360e-02
1.546780e-02
-5.346640e-03
-2.558170e-03
8.024240e-04
8.036200e-04