<?xml version="1.0"?>
<VTKFile type="UnstructuredGrid" version="0.1" byte_order="LittleEndian" compressor="vtkZLibDataCompressor">
<UnstructuredGrid>
<Piece NumberOfPoints="960" NumberOfCells="120">
<Points>
<DataArray type="Float32" NumberOfComponents="3" format="ascii">
-4.000000e+02 -6.000000e+03 -4.000000e+02
0.000000e+00 -6.000000e+03 -4.000000e+02
-4.000110e+02 -5.600530e+03 -4.001610e+02
7.451120e-03 -5.600530e+03 -4.001840e+02
-4.000000e+02 -6.000000e+03 0.000000e+00
0.000000e+00 -6.000000e+03 0.000000e+00
-4.000010e+02 -5.600000e+03 -1.695720e-01
9.878530e-04 -5.600000e+03 -1.971850e-01
0.000000e+00 -6.000000e+03 -4.000000e+02
4.000000e+02 -6.000000e+03 -4.000000e+02
7.451120e-03 -5.600530e+03 -4.001840e+02
4.000250e+02 -5.600520e+03 -4.001800e+02
0.000000e+00 -6.000000e+03 0.000000e+00
4.000000e+02 -6.000000e+03 0.000000e+00
9.878530e-04 -5.600000e+03 -1.971850e-01
4.000030e+02 -5.600000e+03 -1.873420e-01
-4.000110e+02 -5.600530e+03 -4.001610e+02
7.451120e-03 -5.600530e+03 -4.001840e+02
-4.000240e+02 -5.201080e+03 -4.009470e+02
-3.457910e-03 -5.201060e+03 -4.009690e+02
-4.000010e+02 -5.600000e+03 -1.695720e-01
9.878530e-04 -5.600000e+03 -1.971850e-01
-4.000020e+02 -5.199990e+03 -9.527450e-01
1.638810e-03 -5.199990e+03 -9.803210e-01
7.451120e-03 -5.600530e+03 -4.001840e+02
4.000250e+02 -5.600520e+03 -4.001800e+02
-3.457910e-03 -5.201060e+03 -4.009690e+02
4.000170e+02 -5.201040e+03 -4.009600e+02
9.878530e-04 -5.600000e+03 -1.971850e-01
4.000030e+02 -5.600000e+03 -1.873420e-01
1.638810e-03 -5.199990e+03 -9.803210e-01
4.000050e+02 -5.199990e+03 -9.635290e-01
-4.000240e+02 -5.201080e+03 -4.009470e+02
-3.457910e-03 -5.201060e+03 -4.009690e+02
-4.000160e+02 -4.801530e+03 -4.022390e+02
-1.098770e-02 -4.801530e+03 -4.022440e+02
-4.000020e+02 -5.199990e+03 -9.527450e-01
1.638810e-03 -5.199990e+03 -9.803210e-01
-3.999960e+02 -4.799990e+03 -2.225840e+00
4.850020e-03 -4.799990e+03 -2.225560e+00
-3.457910e-03 -5.201060e+03 -4.009690e+02
4.000170e+02 -5.201040e+03 -4.009600e+02
-1.098770e-02 -4.801530e+03 -4.022440e+02
3.999930e+02 -4.801510e+03 -4.022450e+02
1.638810e-03 -5.199990e+03 -9.803210e-01
4.000050e+02 -5.199990e+03 -9.635290e-01
4.850020e-03 -4.799990e+03 -2.225560e+00
4.000060e+02 -4.799980e+03 -2.215440e+00
-4.000160e+02 -4.801530e+03 -4.022390e+02
-1.098770e-02 -4.801530e+03 -4.022440e+02
-3.999840e+02 -4.401980e+03 -4.039870e+02
-6.319910e-03 -4.401990e+03 -4.039860e+02
-3.999960e+02 -4.799990e+03 -2.225840e+00
4.850020e-03 -4.799990e+03 -2.225560e+00
-3.999910e+02 -4.400000e+03 -3.938250e+00
5.936650e-03 -4.400000e+03 -3.922300e+00
-1.098770e-02 -4.801530e+03 -4.022440e+02
3.999930e+02 -4.801510e+03 -4.022450e+02
-6.319910e-03 -4.401990e+03 -4.039860e+02
3.999710e+02 -4.401980e+03 -4.040160e+02
4.850020e-03 -4.799990e+03 -2.225560e+00
4.000060e+02 -4.799980e+03 -2.215440e+00
5.936650e-03 -4.400000e+03 -3.922300e+00
4.000030e+02 -4.400000e+03 -3.947940e+00
-3.999840e+02 -4.401980e+03 -4.039870e+02
-6.319910e-03 -4.401990e+03 -4.039860e+02
-4.000030e+02 -4.002520e+03 -4.062110e+02
-2.844180e-02 -4.002500e+03 -4.062330e+02
-3.999910e+02 -4.400000e+03 -3.938250e+00
5.936650e-03 -4.400000e+03 -3.922300e+00
-3.999930e+02 -4.000030e+03 -6.163040e+00
4.061840e-03 -4.000030e+03 -6.172410e+00
-6.319910e-03 -4.401990e+03 -4.039860e+02
3.999710e+02 -4.401980e+03 -4.040160e+02
-2.844180e-02 -4.002500e+03 -4.062330e+02
3.999460e+02 -4.002490e+03 -4.062890e+02
5.936650e-03 -4.400000e+03 -3.922300e+00
4.000030e+02 -4.400000e+03 -3.947940e+00
4.061840e-03 -4.000030e+03 -6.172410e+00
4.000010e+02 -4.000030e+03 -6.229520e+00
-4.000030e+02 -4.002520e+03 -4.062110e+02
-2.844180e-02 -4.002500e+03 -4.062330e+02
-4.000800e+02 -3.603070e+03 -4.089670e+02
-8.891660e-02 -3.603060e+03 -4.090380e+02
-3.999930e+02 -4.000030e+03 -6.163040e+00
4.061840e-03 -4.000030e+03 -6.172410e+00
-4.000000e+02 -3.600040e+03 -8.975080e+00
5.862860e-04 -3.600050e+03 -9.048830e+00
-2.844180e-02 -4.002500e+03 -4.062330e+02
3.999460e+02 -4.002490e+03 -4.062890e+02
-8.891660e-02 -3.603060e+03 -4.090380e+02
3.999020e+02 -3.603060e+03 -4.091260e+02
4.061840e-03 -4.000030e+03 -6.172410e+00
4.000010e+02 -4.000030e+03 -6.229520e+00
5.862860e-04 -3.600050e+03 -9.048830e+00
4.000010e+02 -3.600050e+03 -9.136750e+00
-4.000800e+02 -3.603070e+03 -4.089670e+02
-8.891660e-02 -3.603060e+03 -4.090380e+02
-4.001640e+02 -3.203520e+03 -4.122490e+02
-1.482340e-01 -3.203540e+03 -4.124100e+02
-4.000000e+02 -3.600040e+03 -8.975080e+00
5.862860e-04 -3.600050e+03 -9.048830e+00
-4.000030e+02 -3.200040e+03 -1.229680e+01
1.300210e-05 -3.200040e+03 -1.246980e+01
-8.891660e-02 -3.603060e+03 -4.090380e+02
3.999020e+02 -3.603060e+03 -4.091260e+02
-1.482340e-01 -3.203540e+03 -4.124100e+02
3.998680e+02 -3.203560e+03 -4.125510e+02
5.862860e-04 -3.600050e+03 -9.048830e+00
4.000010e+02 -3.600050e+03 -9.136750e+00
1.300210e-05 -3.200040e+03 -1.246980e+01
4.000040e+02 -3.200050e+03 -1.260770e+01
-4.001640e+02 -3.203520e+03 -4.122490e+02
-1.482340e-01 -3.203540e+03 -4.124100e+02
-4.001760e+02 -2.803890e+03 -4.159380e+02
-1.608300e-01 -2.803900e+03 -4.161410e+02
-4.000030e+02 -3.200040e+03 -1.229680e+01
1.300210e-05 -3.200040e+03 -1.246980e+01
-3.999990e+02 -2.800040e+03 -1.596620e+01
1.941260e-03 -2.800040e+03 -1.617550e+01
-1.482340e-01 -3.203540e+03 -4.124100e+02
3.998680e+02 -3.203560e+03 -4.125510e+02
-1.608300e-01 -2.803900e+03 -4.161410e+02
3.998540e+02 -2.803900e+03 -4.163160e+02
1.300210e-05 -3.200040e+03 -1.246980e+01
4.000040e+02 -3.200050e+03 -1.260770e+01
1.941260e-03 -2.800040e+03 -1.617550e+01
4.000030e+02 -2.800040e+03 -1.635410e+01
-4.001760e+02 -2.803890e+03 -4.159380e+02
-1.608300e-01 -2.803900e+03 -4.161410e+02
-4.001200e+02 -2.404240e+03 -4.200250e+02
-1.185050e-01 -2.404220e+03 -4.201690e+02
-3.999990e+02 -2.800040e+03 -1.596620e+01
1.941260e-03 -2.800040e+03 -1.617550e+01
-3.999920e+02 -2.400060e+03 -2.001250e+01
4.082480e-03 -2.400060e+03 -2.014960e+01
-1.608300e-01 -2.803900e+03 -4.161410e+02
3.998540e+02 -2.803900e+03 -4.163160e+02
-1.185050e-01 -2.404220e+03 -4.201690e+02
3.998830e+02 -2.404200e+03 -4.202980e+02
1.941260e-03 -2.800040e+03 -1.617550e+01
4.000030e+02 -2.800040e+03 -1.635410e+01
4.082480e-03 -2.400060e+03 -2.014960e+01
4.000000e+02 -2.400060e+03 -2.028780e+01
-4.001200e+02 -2.404240e+03 -4.200250e+02
-1.185050e-01 -2.404220e+03 -4.201690e+02
-4.000550e+02 -2.004540e+03 -4.244910e+02
-6.342840e-02 -2.004520e+03 -4.245460e+02
-3.999920e+02 -2.400060e+03 -2.001250e+01
4.082480e-03 -2.400060e+03 -2.014960e+01
-3.999900e+02 -2.000110e+03 -2.447990e+01
3.523620e-03 -2.000110e+03 -2.451930e+01
-1.185050e-01 -2.404220e+03 -4.201690e+02
3.998830e+02 -2.404200e+03 -4.202980e+02
-6.342840e-02 -2.004520e+03 -4.245460e+02
3.999280e+02 -2.004500e+03 -4.245980e+02
4.082480e-03 -2.400060e+03 -2.014960e+01
4.000000e+02 -2.400060e+03 -2.028780e+01
3.523620e-03 -2.000110e+03 -2.451930e+01
3.999970e+02 -2.000110e+03 -2.458470e+01
-4.000550e+02 -2.004540e+03 -4.244910e+02
-6.342840e-02 -2.004520e+03 -4.245460e+02
-4.000390e+02 -1.604750e+03 -4.291040e+02
-3.927210e-02 -1.604740e+03 -4.291390e+02
-3.999900e+02 -2.000110e+03 -2.447990e+01
3.523620e-03 -2.000110e+03 -2.451930e+01
-3.999920e+02 -1.600140e+03 -2.912300e+01
1.366760e-03 -1.600140e+03 -2.914970e+01
-6.342840e-02 -2.004520e+03 -4.245460e+02
3.999280e+02 -2.004500e+03 -4.245980e+02
-3.927210e-02 -1.604740e+03 -4.291390e+02
3.999600e+02 -1.604750e+03 -4.291670e+02
3.523620e-03 -2.000110e+03 -2.451930e+01
3.999970e+02 -2.000110e+03 -2.458470e+01
1.366760e-03 -1.600140e+03 -2.914970e+01
3.999950e+02 -1.600140e+03 -2.919160e+01
-4.000390e+02 -1.604750e+03 -4.291040e+02
-3.927210e-02 -1.604740e+03 -4.291390e+02
-4.000590e+02 -1.204990e+03 -4.337820e+02
-4.437750e-02 -1.204980e+03 -4.338470e+02
-3.999920e+02 -1.600140e+03 -2.912300e+01
1.366760e-03 -1.600140e+03 -2.914970e+01
-3.999950e+02 -1.200160e+03 -3.383560e+01
2.774820e-04 -1.200160e+03 -3.389810e+01
-3.927210e-02 -1.604740e+03 -4.291390e+02
3.999600e+02 -1.604750e+03 -4.291670e+02
-4.437750e-02 -1.204980e+03 -4.338470e+02
3.999700e+02 -1.204990e+03 -4.338890e+02
1.366760e-03 -1.600140e+03 -2.914970e+01
3.999950e+02 -1.600140e+03 -2.919160e+01
2.774820e-04 -1.200160e+03 -3.389810e+01
3.999960e+02 -1.200160e+03 -3.395290e+01
-4.000590e+02 -1.204990e+03 -4.337820e+02
-4.437750e-02 -1.204980e+03 -4.338470e+02
-4.000580e+02 -8.053100e+02 -4.387340e+02
-3.587710e-02 -8.053120e+02 -4.387910e+02
-3.999950e+02 -1.200160e+03 -3.383560e+01
2.774820e-04 -1.200160e+03 -3.389810e+01
-3.999970e+02 -8.001780e+02 -3.881270e+01
3.509580e-04 -8.001810e+02 -3.887130e+01
-4.437750e-02 -1.204980e+03 -4.338470e+02
3.999700e+02 -1.204990e+03 -4.338890e+02
-3.587710e-02 -8.053120e+02 -4.387910e+02
3.999860e+02 -8.053170e+02 -4.388090e+02
2.774820e-04 -1.200160e+03 -3.389810e+01
3.999960e+02 -1.200160e+03 -3.395290e+01
3.509580e-04 -8.001810e+02 -3.887130e+01
3.999970e+02 -8.001830e+02 -3.890630e+01
-4.000580e+02 -8.053100e+02 -4.387340e+02
-3.587710e-02 -8.053120e+02 -4.387910e+02
-4.000070e+02 -4.056640e+02 -4.441030e+02
1.290650e-02 -4.056840e+02 -4.441070e+02
-3.999970e+02 -8.001780e+02 -3.881270e+01
3.509580e-04 -8.001810e+02 -3.887130e+01
-3.999940e+02 -4.001940e+02 -4.417130e+01
3.553470e-03 -4.001970e+02 -4.417820e+01
-3.587710e-02 -8.053120e+02 -4.387910e+02
3.999860e+02 -8.053170e+02 -4.388090e+02
1.290650e-02 -4.056840e+02 -4.441070e+02
4.000320e+02 -4.056970e+02 -4.440780e+02
3.509580e-04 -8.001810e+02 -3.887130e+01
3.999970e+02 -8.001830e+02 -3.890630e+01
3.553470e-03 -4.001970e+02 -4.417820e+01
4.000010e+02 -4.001980e+02 -4.416360e+01
-4.000070e+02 -4.056640e+02 -4.441030e+02
1.290650e-02 -4.056840e+02 -4.441070e+02
-3.999240e+02 -5.898040e+00 -4.498400e+02
7.807850e-02 -5.927270e+00 -4.497820e+02
-3.999940e+02 -4.001940e+02 -4.417130e+01
3.553470e-03 -4.001970e+02 -4.417820e+01
-3.999950e+02 -2.319870e-01 -4.984050e+01
4.226790e-03 -2.315440e-01 -4.978720e+01
1.290650e-02 -4.056840e+02 -4.441070e+02
4.000320e+02 -4.056970e+02 -4.440780e+02
[...]
<PointData>
<DataArray type="Float32" Name="V1" format="ascii">
0.000000e+00
0.000000e+00
2.163410e-02
2.841880e-02
0.000000e+00
0.000000e+00
-5.377040e-04
1.534490e-03
0.000000e+00
0.000000e+00
2.841880e-02
3.481070e-02
0.000000e+00
0.000000e+00
1.534490e-03
3.455350e-03
2.163410e-02
2.841880e-02
5.369130e-02
6.020770e-02
-5.377040e-04
1.534490e-03
-2.353300e-03
5.376490e-04
2.841880e-02
3.481070e-02
6.020770e-02
6.665240e-02
1.534490e-03
3.455350e-03
5.376490e-04
3.722200e-03
5.369130e-02
6.020770e-02
7.573170e-02
6.972540e-02
-2.353300e-03
5.376490e-04
-2.178230e-03
1.046360e-03
6.020770e-02
6.665240e-02
6.972540e-02
6.395620e-02
5.376490e-04
3.722200e-03
1.046360e-03
4.375180e-03
7.573170e-02
6.972540e-02
7.600190e-02
5.736790e-02
-2.178230e-03
1.046360e-03
-3.337630e-03
-2.750030e-04
6.972540e-02
6.395620e-02
5.736790e-02
3.896080e-02
1.046360e-03
4.375180e-03
-2.750030e-04
2.708060e-03
7.600190e-02
5.736790e-02
5.695710e-02
3.544390e-02
-3.337630e-03
-2.750030e-04
-5.460680e-03
-3.421410e-03
5.736790e-02
3.896080e-02
3.544390e-02
1.420920e-02
-2.750030e-04
2.708060e-03
-3.421410e-03
-1.184660e-03
5.695710e-02
3.544390e-02
1.138850e-02
-4.018400e-04
-5.460680e-03
-3.421410e-03
-3.730330e-03
-7.204960e-04
3.544390e-02
1.420920e-02
-4.018400e-04
-1.165640e-02
-3.421410e-03
-1.184660e-03
-7.204960e-04
2.707780e-03
1.138850e-02
-4.018400e-04
-1.728780e-02
-2.439960e-02
-3.730330e-03
-7.204960e-04
-4.534010e-03
-1.925200e-03
-4.018400e-04
-1.165640e-02
-2.439960e-02
-3.168950e-02
-7.204960e-04
2.707780e-03
-1.925200e-03
6.598820e-04
-1.728780e-02
-2.439960e-02
-2.146020e-02
-1.710070e-02
-4.534010e-03
-1.925200e-03
7.337610e-04
2.581930e-03
-2.439960e-02
-3.168950e-02
-1.710070e-02
-1.297800e-02
-1.925200e-03
6.598820e-04
2.581930e-03
4.539320e-03
-2.146020e-02
-1.710070e-02
-1.691680e-02
-1.366350e-02
7.337610e-04
2.581930e-03
4.674740e-03
7.532920e-03
-1.710070e-02
-1.297800e-02
-1.366350e-02
-1.013410e-02
2.581930e-03
4.539320e-03
7.532920e-03
1.075490e-02
-1.691680e-02
-1.366350e-02
-1.054780e-02
-1.334270e-02
4.674740e-03
7.532920e-03
9.336410e-04
4.051340e-03
-1.366350e-02
-1.013410e-02
-1.334270e-02
-1.621610e-02
7.532920e-03
1.075490e-02
4.051340e-03
7.038450e-03
-1.054780e-02
-1.334270e-02
7.942290e-03
-8.504820e-03
9.336410e-04
4.051340e-03
-3.841240e-03
3.066280e-04
-1.334270e-02
-1.621610e-02
-8.504820e-03
-2.469220e-02
4.051340e-03
7.038450e-03
3.066280e-04
4.495310e-03
7.942290e-03
-8.504820e-03
-1.206410e-02
-2.294600e-02
-3.841240e-03
3.066280e-04
-3.163710e-03
1.842120e-04
-8.504820e-03
-2.469220e-02
-2.294600e-02
-3.317200e-02
3.066280e-04
4.495310e-03
1.842120e-04
3.715520e-03
-1.206410e-02
-2.294600e-02
-4.637400e-02
-3.908510e-02
-3.163710e-03
1.842120e-04
-1.280320e-03
3.086380e-03
-2.294600e-02
-3.317200e-02
-3.908510e-02
-3.150460e-02
1.842120e-04
3.715520e-03
3.086380e-03
7.692480e-03
-4.637400e-02
-3.908510e-02
-1.900720e-02
-1.382180e-02
-1.280320e-03
3.086380e-03
-5.157240e-03
4.339110e-03
-3.908510e-02
-3.150460e-02
-1.382180e-02
-8.760920e-03
3.086380e-03
7.692480e-03
4.339110e-03
1.417910e-02
-1.900720e-02
-1.382180e-02
4.797170e-03
8.647200e-03
-5.157240e-03
4.339110e-03
-1.338770e-02
-7.297600e-04
-1.382180e-02
-8.760920e-03
8.647200e-03
1.287060e-02
4.339110e-03
1.417910e-02
-7.297600e-04
1.253600e-02
4.797170e-03
8.647200e-03
9.475000e-03
2.908040e-03
-1.338770e-02
-7.297600e-04
-1.092640e-02
-2.330750e-03
8.647200e-03
1.287060e-02
2.908040e-03
-3.039230e-03
-7.297600e-04
1.253600e-02
-2.330750e-03
6.836840e-03
9.475000e-03
2.908040e-03
2.184300e-03
2.877310e-03
-1.092640e-02
-2.330750e-03
-3.204320e-03
-1.018730e-03
2.908040e-03
-3.039230e-03
2.877310e-03
3.952950e-03
-2.330750e-03
6.836840e-03
-1.018730e-03
1.176770e-03
2.184300e-03
2.877310e-03
7.112870e-03
1.353510e-02
-3.204320e-03
-1.018730e-03
3.698540e-03
8.042900e-04
2.877310e-03
3.952950e-03
1.353510e-02
2.024120e-02
-1.018730e-03
1.176770e-03
8.042900e-04
-1.880120e-03
7.112870e-03
1.353510e-02
-1.471680e-02
6.235850e-03
3.698540e-03
8.042900e-04
5.831060e-03
1.265010e-03
1.353510e-02
2.024120e-02
6.235850e-03
2.709680e-02
8.042900e-04
-1.880120e-03
1.265010e-03
-3.106190e-03
-1.471680e-02
6.235850e-03
-4.267360e-02
-1.979880e-02
5.831060e-03
1.265010e-03
4.522530e-03
1.089250e-03
6.235850e-03
2.709680e-02
-1.979880e-02
2.748220e-03
1.265010e-03
-3.106190e-03
1.089250e-03
-2.589640e-03
-4.267360e-02
-1.979880e-02
-4.438940e-02
-2.480370e-02
4.522530e-03
1.089250e-03
6.723840e-03
3.456660e-05
-1.979880e-02
2.748220e-03
-2.480370e-02
-5.383460e-03
1.089250e-03
-2.589640e-03
3.456660e-05
-6.818110e-03
-4.438940e-02
-2.480370e-02
-2.035840e-02
-7.429250e-03
6.723840e-03
3.456660e-05
1.012050e-02
7.240190e-04
-2.480370e-02
-5.383460e-03
-7.429250e-03
5.602980e-03
3.456660e-05
-6.818110e-03
7.240190e-04
-8.473680e-03
-2.035840e-02
-7.429250e-03
-9.985280e-03
-3.724800e-03
1.012050e-02
7.240190e-04
8.430750e-03
2.397240e-04
-7.429250e-03
5.602980e-03
-3.724800e-03
2.519720e-03
7.240190e-04
-8.473680e-03
2.397240e-04
-8.079670e-03
-9.985280e-03
-3.724800e-03
-7.697040e-03
-6.788500e-03
8.430750e-03
2.397240e-04
9.548820e-03
3.947890e-03
-3.724800e-03
2.519720e-03
-6.788500e-03
-6.150080e-03
2.397240e-04
-8.079670e-03
3.947890e-03
-1.932500e-03
-7.697040e-03
-6.788500e-03
3.901910e-03
4.949630e-03
9.548820e-03
3.947890e-03
3.777920e-03
3.595940e-03
-6.788500e-03
-6.150080e-03
4.949630e-03
6.310320e-03
3.947890e-03
-1.932500e-03
3.595940e-03
3.615940e-03
3.901910e-03
4.949630e-03
-2.576420e-04
5.422080e-03
3.777920e-03
3.595940e-03
2.191450e-03
3.087100e-03
4.949630e-03
6.310320e-03
5.422080e-03
1.118580e-02
3.595940e-03
3.615940e-03
3.087100e-03
3.849620e-03
-2.576420e-04
5.422080e-03
-5.350000e-03
3.274080e-03
2.191450e-03
3.087100e-03
7.880890e-04
1.264730e-03
5.422080e-03
1.118580e-02
3.274080e-03
1.125730e-02
3.087100e-03
3.849620e-03
1.264730e-03
1.485390e-03
-5.350000e-03
3.274080e-03
6.653880e-03
8.257770e-03
7.880890e-04
1.264730e-03
1.332310e-03
3.599030e-03
3.274080e-03
1.125730e-02
8.257770e-03
9.691450e-03
1.264730e-03
1.485390e-03
3.599030e-03
5.915800e-03
6.653880e-03
8.257770e-03
1.139310e-02
4.899650e-03
1.332310e-03
3.599030e-03
3.739030e-04
3.975870e-03
8.257770e-03
9.691450e-03
4.899650e-03
-1.698840e-03
3.599030e-03
5.915800e-03
3.975870e-03
7.275180e-03
1.139310e-02
4.899650e-03
8.521620e-03
6.494840e-04
3.739030e-04
3.975870e-03
1.839560e-03
5.286060e-03
4.899650e-03
-1.698840e-03
6.494840e-04
-7.672080e-03
3.975870e-03
7.275180e-03
5.286060e-03
8.118860e-03
0.000000e+00
0.000000e+00
-5.377040e-04
1.534490e-03
0.000000e+00
0.000000e+00
-1.549130e-02
-2.792180e-02
0.000000e+00
0.000000e+00
1.534490e-03
3.455350e-03
0.000000e+00
0.000000e+00
-2.792180e-02
-4.034670e-02
-5.377040e-04
1.534490e-03
-2.353300e-03
5.376490e-04
-1.549130e-02
-2.792180e-02
-5.083580e-02
-6.385910e-02
1.534490e-03
3.455350e-03
5.376490e-04
3.722200e-03
-2.792180e-02
-4.034670e-02
-6.385910e-02
-7.636630e-02
-2.353300e-03
5.376490e-04
-2.178230e-03
1.046360e-03
-5.083580e-02
-6.385910e-02
-6.677310e-02
-6.851090e-02
5.376490e-04
3.722200e-03
1.046360e-03
4.375180e-03
-6.385910e-02
-7.636630e-02
-6.851090e-02
-7.041940e-02
-2.178230e-03
1.046360e-03
-3.337630e-03
-2.750030e-04
-6.677310e-02
-6.851090e-02
-6.915210e-02
-5.613710e-02
1.046360e-03
4.375180e-03
-2.750030e-04
2.708060e-03
-6.851090e-02
-7.041940e-02
-5.613710e-02
-4.329480e-02
-3.337630e-03
-2.750030e-04
-5.460680e-03
-3.421410e-03
-6.915210e-02
-5.613710e-02
-4.781070e-02
-3.129090e-02
-2.750030e-04
2.708060e-03
-3.421410e-03
-1.184660e-03
-5.613710e-02
-4.329480e-02
-3.129090e-02
-1.454640e-02
-5.460680e-03
-3.421410e-03
-3.730330e-03
-7.204960e-04
-4.781070e-02
-3.129090e-02
-7.865510e-04
3.669790e-03
-3.421410e-03
-1.184660e-03
-7.204960e-04
2.707780e-03
-3.129090e-02
-1.454640e-02
3.669790e-03
8.581090e-03
-3.730330e-03
-7.204960e-04
-4.534010e-03
-1.925200e-03
-7.865510e-04
3.669790e-03
2.504850e-02
2.629380e-02
-7.204960e-04
2.707780e-03
-1.925200e-03
6.598820e-04
3.669790e-03
8.581090e-03
2.629380e-02
2.766710e-02
-4.534010e-03
-1.925200e-03
7.337610e-04
2.581930e-03
2.504850e-02
2.629380e-02
2.232620e-02
1.333550e-02
-1.925200e-03
6.598820e-04
2.581930e-03
4.539320e-03
2.629380e-02
2.766710e-02
1.333550e-02
4.583380e-03
7.337610e-04
2.581930e-03
4.674740e-03
7.532920e-03
2.232620e-02
1.333550e-02
5.674460e-03
-2.918520e-03
2.581930e-03
4.539320e-03
7.532920e-03
1.075490e-02
1.333550e-02
4.583380e-03
-2.918520e-03
-1.127810e-02
4.674740e-03
7.532920e-03
9.336410e-04
4.051340e-03
5.674460e-03
-2.918520e-03
8.901330e-03
4.314650e-03
7.532920e-03
1.075490e-02
4.051340e-03
7.038450e-03
-2.918520e-03
-1.127810e-02
4.314650e-03
-3.788020e-04
9.336410e-04
4.051340e-03
-3.841240e-03
3.066280e-04
8.901330e-03
4.314650e-03
1.933800e-04
8.718760e-03
4.051340e-03
7.038450e-03
3.066280e-04
4.495310e-03
4.314650e-03
-3.788020e-04
8.718760e-03
1.729330e-02
-3.841240e-03
3.066280e-04
-3.163710e-03
1.842120e-04
1.933800e-04
8.718760e-03
1.836220e-02
2.112470e-02
3.066280e-04
4.495310e-03
1.842120e-04
3.715520e-03
8.718760e-03
1.729330e-02
2.112470e-02
2.382390e-02
-3.163710e-03
1.842120e-04
-1.280320e-03
3.086380e-03
1.836220e-02
2.112470e-02
4.860560e-02
3.164910e-02
1.842120e-04
3.715520e-03
3.086380e-03
7.692480e-03
2.112470e-02
2.382390e-02
3.164910e-02
1.482120e-02
-1.280320e-03
3.086380e-03
-5.157240e-03
4.339110e-03
4.860560e-02
3.164910e-02
3.161930e-02
7.082470e-03
3.086380e-03
7.692480e-03
4.339110e-03
1.417910e-02
3.164910e-02
1.482120e-02
7.082470e-03
-1.696280e-02
-5.157240e-03
4.339110e-03
-1.338770e-02
-7.297600e-04
3.161930e-02
7.082470e-03
2.039030e-02
-9.438280e-03
4.339110e-03
1.417910e-02
-7.297600e-04
1.253600e-02
7.082470e-03
-1.696280e-02
-9.438280e-03
-3.860430e-02
-1.338770e-02
-7.297600e-04
-1.092640e-02
-2.330750e-03
2.039030e-02
-9.438280e-03
1.241730e-02
1.790840e-03
-7.297600e-04
1.253600e-02
-2.330750e-03
6.836840e-03
-9.438280e-03
-3.860430e-02
1.790840e-03
-8.306600e-03
-1.092640e-02
-2.330750e-03
-3.204320e-03
-1.018730e-03
1.241730e-02
1.790840e-03
3.894300e-03
-1.774100e-03
-2.330750e-03
6.836840e-03
-1.018730e-03
1.176770e-03
1.790840e-03
-8.306600e-03
-1.774100e-03
-7.511240e-03
-3.204320e-03
-1.018730e-03
3.698540e-03
8.042900e-04
3.894300e-03
-1.774100e-03
-1.450250e-02
-1.533310e-02
-1.018730e-03
1.176770e-03
8.042900e-04
-1.880120e-03
-1.774100e-03
-7.511240e-03
-1.533310e-02
-1.575360e-02
3.698540e-03
8.042900e-04
5.831060e-03
1.265010e-03
-1.450250e-02
-1.533310e-02
6.671890e-03
-6.124070e-03
8.042900e-04
-1.880120e-03
1.265010e-03
-3.106190e-03
-1.533310e-02
-1.575360e-02
-6.124070e-03
-1.848370e-02
5.831060e-03
1.265010e-03
4.522530e-03
1.089250e-03
6.671890e-03
-6.124070e-03
3.160380e-02
1.631130e-02
1.265010e-03
-3.106190e-03
1.089250e-03
-2.589640e-03
-6.124070e-03
-1.848370e-02
1.631130e-02
5.950350e-04
4.522530e-03
1.089250e-03
6.723840e-03
3.456660e-05
3.160380e-02
1.631130e-02
3.014340e-02
2.432510e-02
1.089250e-03
-2.589640e-03
3.456660e-05
-6.818110e-03
1.631130e-02
5.950350e-04
2.432510e-02
1.816080e-02
6.723840e-03
3.456660e-05
1.012050e-02
7.240190e-04
3.014340e-02
2.432510e-02
2.408000e-03
7.695340e-03
3.456660e-05
-6.818110e-03
7.240190e-04
-8.473680e-03
2.432510e-02
1.816080e-02
7.695340e-03
1.328300e-02
1.012050e-02
7.240190e-04
8.430750e-03
2.397240e-04
2.408000e-03
7.695340e-03
-9.324900e-03
1.862190e-03
7.240190e-04
-8.473680e-03
2.397240e-04
-8.079670e-03
7.695340e-03
1.328300e-02
1.862190e-03
1.302800e-02
8.430750e-03
2.397240e-04
9.548820e-03
3.947890e-03
-9.324900e-03
1.862190e-03
-9.393690e-03
7.995370e-04
2.397240e-04
-8.079670e-03
3.947890e-03
-1.932500e-03
1.862190e-03
1.302800e-02
7.995370e-04
1.092470e-02
9.548820e-03
3.947890e-03
3.777920e-03
3.595940e-03
-9.393690e-03
7.995370e-04
-1.174890e-02
-1.248300e-02
3.947890e-03
-1.932500e-03
3.595940e-03
3.615940e-03
7.995370e-04
1.092470e-02
-1.248300e-02
-1.319220e-02
3.777920e-03
3.595940e-03
2.191450e-03
3.087100e-03
-1.174890e-02
-1.248300e-02
-4.402030e-03
-1.172590e-02
3.595940e-03
3.615940e-03
3.087100e-03
3.849620e-03
-1.248300e-02
-1.319220e-02
-1.172590e-02
-1.953400e-02
2.191450e-03
3.087100e-03
7.880890e-04
1.264730e-03
-4.402030e-03
-1.172590e-02
1.679540e-03
-6.426690e-03
3.087100e-03
3.849620e-03
1.264730e-03
1.485390e-03
-1.172590e-02
-1.953400e-02
-6.426690e-03
-1.455670e-02
7.880890e-04
1.264730e-03
1.332310e-03
3.599030e-03
1.679540e-03
-6.426690e-03
-7.271710e-03
-1.386940e-02
1.264730e-03
1.485390e-03
3.599030e-03
5.915800e-03
-6.426690e-03
-1.455670e-02
-1.386940e-02
-2.021470e-02
1.332310e-03
3.599030e-03
3.739030e-04
3.975870e-03
-7.271710e-03
-1.386940e-02
-1.292600e-02
-1.207790e-02
3.599030e-03
5.915800e-03
3.975870e-03
7.275180e-03
-1.386940e-02
-2.021470e-02
-1.207790e-02
-1.166520e-02
3.739030e-04
3.975870e-03
1.839560e-03
5.286060e-03
-1.292600e-02
-1.207790e-02
-1.574960e-02
-1.431850e-02
3.975870e-03
7.275180e-03
5.286060e-03
8.118860e-03
-1.207790e-02
-1.166520e-02
-1.431850e-02
-1.352830e-02
</DataArray>
<DataArray type="Float32" Name="V2" format="ascii">
0.000000e+00
0.000000e+00
6.483080e-02
2.864180e-02
0.000000e+00
0.000000e+00
-6.879640e-03
-7.496210e-03
0.000000e+00
0.000000e+00
2.864180e-02
2.485040e-03
0.000000e+00
0.000000e+00
-7.496210e-03
-6.562380e-03
6.483080e-02
2.864180e-02
3.894030e-02
2.947770e-03
-6.879640e-03
-7.496210e-03
1.342420e-02
1.117280e-02
2.864180e-02
2.485040e-03
2.947770e-03
-2.003920e-02
-7.496210e-03
-6.562380e-03
1.117280e-02
1.278960e-02
3.894030e-02
2.947770e-03
1.579010e-02
-1.622800e-02
1.342420e-02
1.117280e-02
4.617240e-02
3.778400e-02
2.947770e-03
-2.003920e-02
-1.622800e-02
-3.634270e-02
1.117280e-02
1.278960e-02
3.778400e-02
3.898270e-02
1.579010e-02
-1.622800e-02
4.251470e-02
2.515950e-03
4.617240e-02
3.778400e-02
3.897410e-02
3.080720e-02
-1.622800e-02
-3.634270e-02
2.515950e-03
-2.717170e-02
3.778400e-02
3.898270e-02
3.080720e-02
3.140550e-02
4.251470e-02
2.515950e-03
3.205710e-02
1.129870e-02
3.897410e-02
3.080720e-02
-2.224450e-03
-3.739550e-03
2.515950e-03
-2.717170e-02
1.129870e-02
-5.929120e-03
3.080720e-02
3.140550e-02
-3.739550e-03
-7.828880e-03
3.205710e-02
1.129870e-02
3.782460e-02
4.477310e-02
-2.224450e-03
-3.739550e-03
-2.349270e-02
-2.127970e-02
1.129870e-02
-5.929120e-03
4.477310e-02
5.966380e-02
-3.739550e-03
-7.828880e-03
-2.127970e-02
-2.373400e-02
3.782460e-02
4.477310e-02
4.025040e-02
4.543650e-02
-2.349270e-02
-2.127970e-02
-1.133910e-02
-9.379630e-03
4.477310e-02
5.966380e-02
4.543650e-02
5.532010e-02
-2.127970e-02
-2.373400e-02
-9.379630e-03
-7.455580e-03
4.025040e-02
4.543650e-02
-2.743820e-02
-3.392980e-02
-1.133910e-02
-9.379630e-03
3.584690e-03
7.406790e-03
4.543650e-02
5.532010e-02
-3.392980e-02
-3.462380e-02
-9.379630e-03
-7.455580e-03
7.406790e-03
1.145730e-02
-2.743820e-02
-3.392980e-02
-4.238360e-02
-3.386820e-02
3.584690e-03
7.406790e-03
7.350460e-03
1.051970e-02
-3.392980e-02
-3.462380e-02
-3.386820e-02
-2.832410e-02
7.406790e-03
1.145730e-02
1.051970e-02
1.507980e-02
-4.238360e-02
-3.386820e-02
-3.607960e-02
-3.261150e-02
7.350460e-03
1.051970e-02
1.163240e-02
1.213920e-02
-3.386820e-02
-2.832410e-02
-3.261150e-02
-3.025550e-02
1.051970e-02
1.507980e-02
1.213920e-02
1.328350e-02
-3.607960e-02
-3.261150e-02
-2.899150e-02
-3.064770e-02
1.163240e-02
1.213920e-02
-1.830040e-04
1.640240e-03
-3.261150e-02
-3.025550e-02
-3.064770e-02
-2.144390e-02
1.213920e-02
1.328350e-02
1.640240e-03
1.929000e-03
-2.899150e-02
-3.064770e-02
3.798120e-02
6.273010e-02
-1.830040e-04
1.640240e-03
-1.490400e-02
-1.413500e-02
-3.064770e-02
-2.144390e-02
6.273010e-02
7.723980e-02
1.640240e-03
1.929000e-03
-1.413500e-02
-9.797300e-03
3.798120e-02
6.273010e-02
5.352360e-02
6.294420e-02
-1.490400e-02
-1.413500e-02
-3.530380e-03
-7.556700e-04
6.273010e-02
7.723980e-02
6.294420e-02
5.442540e-02
-1.413500e-02
-9.797300e-03
-7.556700e-04
-2.573400e-04
5.352360e-02
6.294420e-02
6.640870e-03
-1.080570e-02
-3.530380e-03
-7.556700e-04
9.828950e-03
9.432370e-03
6.294420e-02
5.442540e-02
-1.080570e-02
-4.089020e-02
-7.556700e-04
-2.573400e-04
9.432370e-03
5.568560e-03
6.640870e-03
-1.080570e-02
-5.233080e-03
-1.387050e-02
9.828950e-03
9.432370e-03
-6.716250e-04
-4.268160e-03
-1.080570e-02
-4.089020e-02
-1.387050e-02
-3.475440e-02
9.432370e-03
5.568560e-03
-4.268160e-03
-5.727800e-03
-5.233080e-03
-1.387050e-02
-3.663390e-02
-3.752160e-02
-6.716250e-04
-4.268160e-03
-9.154870e-03
-7.550130e-03
-1.387050e-02
-3.475440e-02
-3.752160e-02
-5.639420e-02
-4.268160e-03
-5.727800e-03
-7.550130e-03
-5.743690e-03
-3.663390e-02
-3.752160e-02
-6.356840e-02
-7.489310e-02
-9.154870e-03
-7.550130e-03
-5.079280e-03
-4.498640e-03
-3.752160e-02
-5.639420e-02
-7.489310e-02
-9.960890e-02
-7.550130e-03
-5.743690e-03
-4.498640e-03
-3.627810e-03
-6.356840e-02
-7.489310e-02
-7.623610e-03
-2.111630e-02
-5.079280e-03
-4.498640e-03
1.132820e-03
-2.169460e-03
-7.489310e-02
-9.960890e-02
-2.111630e-02
-2.763320e-02
-4.498640e-03
-3.627810e-03
-2.169460e-03
3.896560e-04
-7.623610e-03
-2.111630e-02
2.915490e-02
2.603200e-02
1.132820e-03
-2.169460e-03
3.801050e-03
2.835710e-03
-2.111630e-02
-2.763320e-02
2.603200e-02
3.460440e-02
-2.169460e-03
3.896560e-04
2.835710e-03
5.825980e-04
2.915490e-02
2.603200e-02
3.481480e-02
2.130180e-02
3.801050e-03
2.835710e-03
-3.414840e-03
-1.302230e-03
2.603200e-02
3.460440e-02
2.130180e-02
3.131810e-02
2.835710e-03
5.825980e-04
-1.302230e-03
-1.086060e-03
3.481480e-02
2.130180e-02
3.727780e-02
5.904510e-03
-3.414840e-03
-1.302230e-03
-1.657370e-02
-1.412410e-02
2.130180e-02
3.131810e-02
5.904510e-03
-5.986670e-05
-1.302230e-03
-1.086060e-03
-1.412410e-02
-8.854770e-03
3.727780e-02
5.904510e-03
-4.030270e-03
-2.365200e-02
-1.657370e-02
-1.412410e-02
-2.564410e-02
-2.274350e-02
5.904510e-03
-5.986670e-05
-2.365200e-02
-3.962440e-02
-1.412410e-02
-8.854770e-03
-2.274350e-02
-2.251830e-02
-4.030270e-03
-2.365200e-02
-1.481550e-02
-8.458540e-03
-2.564410e-02
-2.274350e-02
-1.710600e-02
-1.845070e-02
-2.365200e-02
-3.962440e-02
-8.458540e-03
-2.080740e-02
-2.274350e-02
-2.251830e-02
-1.845070e-02
-1.853780e-02
-1.481550e-02
-8.458540e-03
4.437530e-02
5.840390e-02
-1.710600e-02
-1.845070e-02
-4.071500e-03
-8.480160e-03
-8.458540e-03
-2.080740e-02
5.840390e-02
5.461550e-02
-1.845070e-02
-1.853780e-02
-8.480160e-03
-9.536570e-03
4.437530e-02
5.840390e-02
6.680910e-02
8.773160e-02
-4.071500e-03
-8.480160e-03
1.788790e-03
-1.806800e-03
5.840390e-02
5.461550e-02
8.773160e-02
1.129230e-01
-8.480160e-03
-9.536570e-03
-1.806800e-03
-5.332980e-03
6.680910e-02
8.773160e-02
2.309900e-02
4.363500e-02
1.788790e-03
-1.806800e-03
1.657260e-02
1.049960e-02
8.773160e-02
1.129230e-01
4.363500e-02
8.901830e-02
-1.806800e-03
-5.332980e-03
1.049960e-02
6.041820e-03
2.309900e-02
4.363500e-02
2.972330e-03
-2.221440e-03
1.657260e-02
1.049960e-02
7.164610e-03
5.667790e-03
4.363500e-02
8.901830e-02
-2.221440e-03
1.988580e-02
1.049960e-02
6.041820e-03
5.667790e-03
4.792650e-03
2.972330e-03
-2.221440e-03
-1.042280e-03
-1.471190e-02
7.164610e-03
5.667790e-03
-1.120650e-02
-8.380980e-03
-2.221440e-03
1.988580e-02
-1.471190e-02
-2.078720e-02
5.667790e-03
4.792650e-03
-8.380980e-03
-5.483940e-03
-1.042280e-03
-1.471190e-02
-2.832480e-02
-3.773330e-02
-1.120650e-02
-8.380980e-03
-3.483500e-03
-3.747430e-03
-1.471190e-02
-2.078720e-02
-3.773330e-02
-4.011170e-02
-8.380980e-03
-5.483940e-03
-3.747430e-03
-4.705570e-03
-2.832480e-02
-3.773330e-02
-4.442120e-02
-5.654300e-02
-3.483500e-03
-3.747430e-03
2.171100e-03
9.237730e-04
-3.773330e-02
-4.011170e-02
-5.654300e-02
-4.790780e-02
-3.747430e-03
-4.705570e-03
9.237730e-04
-2.467450e-03
0.000000e+00
0.000000e+00
-6.879640e-03
-7.496210e-03
0.000000e+00
0.000000e+00
-4.562880e-02
-1.196910e-02
0.000000e+00
0.000000e+00
-7.496210e-03
-6.562380e-03
0.000000e+00
0.000000e+00
-1.196910e-02
1.045830e-02
-6.879640e-03
-7.496210e-03
1.342420e-02
1.117280e-02
-4.562880e-02
-1.196910e-02
-6.703690e-02
-2.433890e-02
-7.496210e-03
-6.562380e-03
1.117280e-02
1.278960e-02
-1.196910e-02
1.045830e-02
-2.433890e-02
2.328210e-03
1.342420e-02
1.117280e-02
4.617240e-02
3.778400e-02
-6.703690e-02