<?xml version="1.0"?>
<VTKFile type="UnstructuredGrid" version="0.1" byte_order="LittleEndian" compressor="vtkZLibDataCompressor">
<UnstructuredGrid>
<Piece NumberOfPoints="960" NumberOfCells="120">
<Points>
<DataArray type="Float32" NumberOfComponents="3" format="ascii">
-4.000000e+02 -6.000000e+03 -4.000000e+02
0.000000e+00 -6.000000e+03 -4.000000e+02
-3.999450e+02 -5.600500e+03 -4.002870e+02
6.030900e-02 -5.600480e+03 -4.002180e+02
-4.000000e+02 -6.000000e+03 0.000000e+00
0.000000e+00 -6.000000e+03 0.000000e+00
-4.000030e+02 -5.600010e+03 -3.060640e-01
-2.174770e-03 -5.600010e+03 -2.432820e-01
0.000000e+00 -6.000000e+03 -4.000000e+02
4.000000e+02 -6.000000e+03 -4.000000e+02
6.030900e-02 -5.600480e+03 -4.002180e+02
4.000650e+02 -5.600460e+03 -4.001430e+02
0.000000e+00 -6.000000e+03 0.000000e+00
4.000000e+02 -6.000000e+03 0.000000e+00
-2.174770e-03 -5.600010e+03 -2.432820e-01
3.999990e+02 -5.600010e+03 -1.679690e-01
-3.999450e+02 -5.600500e+03 -4.002870e+02
6.030900e-02 -5.600480e+03 -4.002180e+02
-3.999100e+02 -5.200870e+03 -4.009870e+02
9.137260e-02 -5.200850e+03 -4.008810e+02
-4.000030e+02 -5.600010e+03 -3.060640e-01
-2.174770e-03 -5.600010e+03 -2.432820e-01
-4.000070e+02 -5.200020e+03 -1.048150e+00
-3.501940e-03 -5.200020e+03 -9.533930e-01
6.030900e-02 -5.600480e+03 -4.002180e+02
4.000650e+02 -5.600460e+03 -4.001430e+02
9.137260e-02 -5.200850e+03 -4.008810e+02
4.000930e+02 -5.200830e+03 -4.007820e+02
-2.174770e-03 -5.600010e+03 -2.432820e-01
3.999990e+02 -5.600010e+03 -1.679690e-01
-3.501940e-03 -5.200020e+03 -9.533930e-01
4.000000e+02 -5.200020e+03 -8.519270e-01
-3.999100e+02 -5.200870e+03 -4.009870e+02
9.137260e-02 -5.200850e+03 -4.008810e+02
-3.998940e+02 -4.801110e+03 -4.019780e+02
9.908970e-02 -4.801080e+03 -4.018700e+02
-4.000070e+02 -5.200020e+03 -1.048150e+00
-3.501940e-03 -5.200020e+03 -9.533930e-01
-4.000090e+02 -4.800000e+03 -2.053650e+00
-3.769790e-03 -4.800000e+03 -1.964380e+00
9.137260e-02 -5.200850e+03 -4.008810e+02
4.000930e+02 -5.200830e+03 -4.007820e+02
9.908970e-02 -4.801080e+03 -4.018700e+02
4.000920e+02 -4.801060e+03 -4.017890e+02
-3.501940e-03 -5.200020e+03 -9.533930e-01
4.000000e+02 -5.200020e+03 -8.519270e-01
-3.769790e-03 -4.800000e+03 -1.964380e+00
4.000010e+02 -4.800000e+03 -1.880980e+00
-3.998940e+02 -4.801110e+03 -4.019780e+02
9.908970e-02 -4.801080e+03 -4.018700e+02
-3.998960e+02 -4.401260e+03 -4.032040e+02
9.103050e-02 -4.401240e+03 -4.030950e+02
-4.000090e+02 -4.800000e+03 -2.053650e+00
-3.769790e-03 -4.800000e+03 -1.964380e+00
-4.000080e+02 -4.399980e+03 -3.243980e+00
-2.317710e-03 -4.399980e+03 -3.154490e+00
9.908970e-02 -4.801080e+03 -4.018700e+02
4.000920e+02 -4.801060e+03 -4.017890e+02
9.103050e-02 -4.401240e+03 -4.030950e+02
4.000780e+02 -4.401210e+03 -4.030230e+02
-3.769790e-03 -4.800000e+03 -1.964380e+00
4.000010e+02 -4.800000e+03 -1.880980e+00
-2.317710e-03 -4.399980e+03 -3.154490e+00
4.000040e+02 -4.399980e+03 -3.076650e+00
-3.998960e+02 -4.401260e+03 -4.032040e+02
9.103050e-02 -4.401240e+03 -4.030950e+02
-3.998840e+02 -4.001430e+03 -4.045820e+02
1.080660e-01 -4.001420e+03 -4.044550e+02
-4.000080e+02 -4.399980e+03 -3.243980e+00
-2.317710e-03 -4.399980e+03 -3.154490e+00
-4.000070e+02 -3.999990e+03 -4.584690e+00
-2.180420e-03 -3.999990e+03 -4.474810e+00
9.103050e-02 -4.401240e+03 -4.030950e+02
4.000780e+02 -4.401210e+03 -4.030230e+02
1.080660e-01 -4.001420e+03 -4.044550e+02
4.001010e+02 -4.001420e+03 -4.043460e+02
-2.317710e-03 -4.399980e+03 -3.154490e+00
4.000040e+02 -4.399980e+03 -3.076650e+00
-2.180420e-03 -3.999990e+03 -4.474810e+00
4.000030e+02 -3.999990e+03 -4.362260e+00
-3.998840e+02 -4.001430e+03 -4.045820e+02
1.080660e-01 -4.001420e+03 -4.044550e+02
-3.998450e+02 -3.601660e+03 -4.061790e+02
1.597870e-01 -3.601670e+03 -4.060180e+02
-4.000070e+02 -3.999990e+03 -4.584690e+00
-2.180420e-03 -3.999990e+03 -4.474810e+00
-4.000060e+02 -3.600010e+03 -6.168660e+00
-1.487440e-03 -3.600010e+03 -6.024460e+00
1.080660e-01 -4.001420e+03 -4.044550e+02
4.001010e+02 -4.001420e+03 -4.043460e+02
1.597870e-01 -3.601670e+03 -4.060180e+02
4.001640e+02 -3.601690e+03 -4.058590e+02
-2.180420e-03 -3.999990e+03 -4.474810e+00
4.000030e+02 -3.999990e+03 -4.362260e+00
-1.487440e-03 -3.600010e+03 -6.024460e+00
4.000030e+02 -3.600010e+03 -5.862250e+00
-3.998450e+02 -3.601660e+03 -4.061790e+02
1.597870e-01 -3.601670e+03 -4.060180e+02
-3.998090e+02 -3.201840e+03 -4.080010e+02
1.959250e-01 -3.201860e+03 -4.078260e+02
-4.000060e+02 -3.600010e+03 -6.168660e+00
-1.487440e-03 -3.600010e+03 -6.024460e+00
-4.000030e+02 -3.200020e+03 -8.019350e+00
4.265960e-04 -3.200020e+03 -7.851020e+00
1.597870e-01 -3.601670e+03 -4.060180e+02
4.001640e+02 -3.601690e+03 -4.058590e+02
1.959250e-01 -3.201860e+03 -4.078260e+02
4.002010e+02 -3.201880e+03 -4.076480e+02
-1.487440e-03 -3.600010e+03 -6.024460e+00
4.000030e+02 -3.600010e+03 -5.862250e+00
4.265960e-04 -3.200020e+03 -7.851020e+00
4.000040e+02 -3.200020e+03 -7.666200e+00
-3.998090e+02 -3.201840e+03 -4.080010e+02
1.959250e-01 -3.201860e+03 -4.078260e+02
-3.998330e+02 -2.801930e+03 -4.098200e+02
1.737060e-01 -2.801940e+03 -4.096680e+02
-4.000030e+02 -3.200020e+03 -8.019350e+00
4.265960e-04 -3.200020e+03 -7.851020e+00
-4.000000e+02 -2.800020e+03 -9.863680e+00
1.114840e-03 -2.800020e+03 -9.709980e+00
1.959250e-01 -3.201860e+03 -4.078260e+02
4.002010e+02 -3.201880e+03 -4.076480e+02
1.737060e-01 -2.801940e+03 -4.096680e+02
4.001800e+02 -2.801950e+03 -4.095130e+02
4.265960e-04 -3.200020e+03 -7.851020e+00
4.000040e+02 -3.200020e+03 -7.666200e+00
1.114840e-03 -2.800020e+03 -9.709980e+00
4.000020e+02 -2.800020e+03 -9.546970e+00
-3.998330e+02 -2.801930e+03 -4.098200e+02
1.737060e-01 -2.801940e+03 -4.096680e+02
-3.998890e+02 -2.402070e+03 -4.116620e+02
1.143980e-01 -2.402080e+03 -4.115630e+02
-4.000000e+02 -2.800020e+03 -9.863680e+00
1.114840e-03 -2.800020e+03 -9.709980e+00
-3.999960e+02 -2.400020e+03 -1.168980e+01
2.706490e-03 -2.400020e+03 -1.157940e+01
1.737060e-01 -2.801940e+03 -4.096680e+02
4.001800e+02 -2.801950e+03 -4.095130e+02
1.143980e-01 -2.402080e+03 -4.115630e+02
4.001180e+02 -2.402080e+03 -4.114660e+02
1.114840e-03 -2.800020e+03 -9.709980e+00
4.000020e+02 -2.800020e+03 -9.546970e+00
2.706490e-03 -2.400020e+03 -1.157940e+01
4.000010e+02 -2.400020e+03 -1.147330e+01
-3.998890e+02 -2.402070e+03 -4.116620e+02
1.143980e-01 -2.402080e+03 -4.115630e+02
-3.999370e+02 -2.002280e+03 -4.137810e+02
6.325420e-02 -2.002280e+03 -4.137250e+02
-3.999960e+02 -2.400020e+03 -1.168980e+01
2.706490e-03 -2.400020e+03 -1.157940e+01
-3.999970e+02 -2.000030e+03 -1.379210e+01
9.269860e-04 -2.000030e+03 -1.372410e+01
1.143980e-01 -2.402080e+03 -4.115630e+02
4.001180e+02 -2.402080e+03 -4.114660e+02
6.325420e-02 -2.002280e+03 -4.137250e+02
4.000630e+02 -2.002260e+03 -4.136680e+02
2.706490e-03 -2.400020e+03 -1.157940e+01
4.000010e+02 -2.400020e+03 -1.147330e+01
9.269860e-04 -2.000030e+03 -1.372410e+01
3.999990e+02 -2.000030e+03 -1.366070e+01
-3.999370e+02 -2.002280e+03 -4.137810e+02
6.325420e-02 -2.002280e+03 -4.137250e+02
-3.999720e+02 -1.602420e+03 -4.160870e+02
2.930420e-02 -1.602410e+03 -4.160470e+02
-3.999970e+02 -2.000030e+03 -1.379210e+01
9.269860e-04 -2.000030e+03 -1.372410e+01
-3.999970e+02 -1.600040e+03 -1.610870e+01
1.290050e-03 -1.600050e+03 -1.606050e+01
6.325420e-02 -2.002280e+03 -4.137250e+02
4.000630e+02 -2.002260e+03 -4.136680e+02
2.930420e-02 -1.602410e+03 -4.160470e+02
4.000310e+02 -1.602390e+03 -4.159970e+02
9.269860e-04 -2.000030e+03 -1.372410e+01
3.999990e+02 -2.000030e+03 -1.366070e+01
1.290050e-03 -1.600050e+03 -1.606050e+01
4.000000e+02 -1.600050e+03 -1.600450e+01
-3.999720e+02 -1.602420e+03 -4.160870e+02
2.930420e-02 -1.602410e+03 -4.160470e+02
-4.000030e+02 -1.202510e+03 -4.184540e+02
1.010070e-02 -1.202510e+03 -4.184290e+02
-3.999970e+02 -1.600040e+03 -1.610870e+01
1.290050e-03 -1.600050e+03 -1.606050e+01
-4.000000e+02 -1.200050e+03 -1.850390e+01
5.413590e-04 -1.200060e+03 -1.848050e+01
2.930420e-02 -1.602410e+03 -4.160470e+02
4.000310e+02 -1.602390e+03 -4.159970e+02
1.010070e-02 -1.202510e+03 -4.184290e+02
4.000230e+02 -1.202500e+03 -4.183770e+02
1.290050e-03 -1.600050e+03 -1.606050e+01
4.000000e+02 -1.600050e+03 -1.600450e+01
5.413590e-04 -1.200060e+03 -1.848050e+01
4.000010e+02 -1.200060e+03 -1.842650e+01
-4.000030e+02 -1.202510e+03 -4.184540e+02
1.010070e-02 -1.202510e+03 -4.184290e+02
-4.000210e+02 -8.025500e+02 -4.209270e+02
-3.922130e-03 -8.025610e+02 -4.209280e+02
-4.000000e+02 -1.200050e+03 -1.850390e+01
5.413590e-04 -1.200060e+03 -1.848050e+01
-4.000020e+02 -8.000480e+02 -2.099820e+01
6.512810e-05 -8.000470e+02 -2.100370e+01
1.010070e-02 -1.202510e+03 -4.184290e+02
4.000230e+02 -1.202500e+03 -4.183770e+02
-3.922130e-03 -8.025610e+02 -4.209280e+02
4.000130e+02 -8.025610e+02 -4.209020e+02
5.413590e-04 -1.200060e+03 -1.848050e+01
4.000010e+02 -1.200060e+03 -1.842650e+01
6.512810e-05 -8.000470e+02 -2.100370e+01
4.000020e+02 -8.000450e+02 -2.097420e+01
-4.000210e+02 -8.025500e+02 -4.209270e+02
-3.922130e-03 -8.025610e+02 -4.209280e+02
-4.000140e+02 -4.025430e+02 -4.234120e+02
-1.537480e-02 -4.025530e+02 -4.234170e+02
-4.000020e+02 -8.000480e+02 -2.099820e+01
6.512810e-05 -8.000470e+02 -2.100370e+01
-4.000000e+02 -4.000460e+02 -2.346850e+01
2.491110e-03 -4.000450e+02 -2.347180e+01
-3.922130e-03 -8.025610e+02 -4.209280e+02
4.000130e+02 -8.025610e+02 -4.209020e+02
-1.537480e-02 -4.025530e+02 -4.234170e+02
3.999830e+02 -4.025510e+02 -4.234270e+02
6.512810e-05 -8.000470e+02 -2.100370e+01
4.000020e+02 -8.000450e+02 -2.097420e+01
2.491110e-03 -4.000450e+02 -2.347180e+01
4.000050e+02 -4.000420e+02 -2.346960e+01
-4.000140e+02 -4.025430e+02 -4.234120e+02
-1.537480e-02 -4.025530e+02 -4.234170e+02
-4.000100e+02 -2.539760e+00 -4.259060e+02
-2.636830e-02 -2.549080e+00 -4.259150e+02
-4.000000e+02 -4.000460e+02 -2.346850e+01
2.491110e-03 -4.000450e+02 -2.347180e+01
-3.999970e+02 -5.621360e-02 -2.593220e+01
5.168570e-03 -5.672110e-02 -2.593330e+01
-1.537480e-02 -4.025530e+02 -4.234170e+02
3.999830e+02 -4.025510e+02 -4.234270e+02
-2.636830e-02 -2.549080e+00 -4.259150e+02
[...]
<PointData>
<DataArray type="Float32" Name="V1" format="ascii">
0.000000e+00
0.000000e+00
-5.227220e-02
-4.980280e-02
0.000000e+00
0.000000e+00
1.679630e-03
3.623760e-03
0.000000e+00
0.000000e+00
-4.980280e-02
-4.726580e-02
0.000000e+00
0.000000e+00
3.623760e-03
5.594530e-03
-5.227220e-02
-4.980280e-02
-5.866830e-02
-5.287940e-02
1.679630e-03
3.623760e-03
2.549240e-03
4.297340e-03
-4.980280e-02
-4.726580e-02
-5.287940e-02
-4.711690e-02
3.623760e-03
5.594530e-03
4.297340e-03
5.941760e-03
-5.866830e-02
-5.287940e-02
-1.081360e-02
-1.093390e-02
2.549240e-03
4.297340e-03
2.871110e-03
4.150790e-03
-5.287940e-02
-4.711690e-02
-1.093390e-02
-1.108250e-02
4.297340e-03
5.941760e-03
4.150790e-03
5.295880e-03
-1.081360e-02
-1.093390e-02
1.016660e-03
5.286350e-03
2.871110e-03
4.150790e-03
4.219050e-03
4.173570e-03
-1.093390e-02
-1.108250e-02
5.286350e-03
9.364710e-03
4.150790e-03
5.295880e-03
4.173570e-03
3.863790e-03
1.016660e-03
5.286350e-03
-8.552050e-03
-8.790640e-03
4.219050e-03
4.173570e-03
5.005450e-03
2.462640e-03
5.286350e-03
9.364710e-03
-8.790640e-03
-9.186830e-03
4.173570e-03
3.863790e-03
2.462640e-03
-1.979090e-04
-8.552050e-03
-8.790640e-03
-1.068310e-02
-1.303890e-02
5.005450e-03
2.462640e-03
6.466770e-03
6.043050e-03
-8.790640e-03
-9.186830e-03
-1.303890e-02
-1.547880e-02
2.462640e-03
-1.979090e-04
6.043050e-03
5.585650e-03
-1.068310e-02
-1.303890e-02
2.417180e-02
1.421230e-02
6.466770e-03
6.043050e-03
-2.494250e-04
4.226260e-03
-1.303890e-02
-1.547880e-02
1.421230e-02
4.044290e-03
6.043050e-03
5.585650e-03
4.226260e-03
8.505250e-03
2.417180e-02
1.421230e-02
5.132850e-02
3.690760e-02
-2.494250e-04
4.226260e-03
-4.793740e-03
3.273890e-03
1.421230e-02
4.044290e-03
3.690760e-02
2.236570e-02
4.226260e-03
8.505250e-03
3.273890e-03
1.114250e-02
5.132850e-02
3.690760e-02
4.469550e-02
3.362760e-02
-4.793740e-03
3.273890e-03
-1.043730e-02
-1.245850e-03
3.690760e-02
2.236570e-02
3.362760e-02
2.249090e-02
3.273890e-03
1.114250e-02
-1.245850e-03
7.906410e-03
4.469550e-02
3.362760e-02
2.037330e-02
1.048200e-02
-1.043730e-02
-1.245850e-03
-8.038460e-03
-2.170440e-03
3.362760e-02
2.249090e-02
1.048200e-02
5.359360e-04
-1.245850e-03
7.906410e-03
-2.170440e-03
3.707950e-03
2.037330e-02
1.048200e-02
-4.775730e-03
-1.180330e-02
-8.038460e-03
-2.170440e-03
-1.484030e-03
-9.582000e-04
1.048200e-02
5.359360e-04
-1.180330e-02
-1.890680e-02
-2.170440e-03
3.707950e-03
-9.582000e-04
-5.094110e-04
-4.775730e-03
-1.180330e-02
-1.246080e-02
-1.795240e-02
-1.484030e-03
-9.582000e-04
2.691090e-03
1.440790e-04
-1.180330e-02
-1.890680e-02
-1.795240e-02
-2.353720e-02
-9.582000e-04
-5.094110e-04
1.440790e-04
-2.566820e-03
-1.246080e-02
-1.795240e-02
8.013210e-03
2.351900e-03
2.691090e-03
1.440790e-04
-3.972370e-03
-3.403330e-03
-1.795240e-02
-2.353720e-02
2.351900e-03
-3.559700e-03
1.440790e-04
-2.566820e-03
-3.403330e-03
-3.005620e-03
8.013210e-03
2.351900e-03
1.513510e-02
8.358460e-03
-3.972370e-03
-3.403330e-03
-8.318610e-03
-5.507260e-03
2.351900e-03
-3.559700e-03
8.358460e-03
1.568430e-03
-3.403330e-03
-3.005620e-03
-5.507260e-03
-2.659670e-03
1.513510e-02
8.358460e-03
-9.525280e-03
-1.120550e-02
-8.318610e-03
-5.507260e-03
-3.230870e-03
-4.347010e-03
8.358460e-03
1.568430e-03
-1.120550e-02
-1.297100e-02
-5.507260e-03
-2.659670e-03
-4.347010e-03
-5.493410e-03
-9.525280e-03
-1.120550e-02
-2.507090e-02
-2.556590e-02
-3.230870e-03
-4.347010e-03
2.978560e-03
-1.315770e-03
-1.120550e-02
-1.297100e-02
-2.556590e-02
-2.607370e-02
-4.347010e-03
-5.493410e-03
-1.315770e-03
-5.726210e-03
-2.507090e-02
-2.556590e-02
-7.689060e-03
-7.946970e-03
2.978560e-03
-1.315770e-03
2.660930e-03
-2.461170e-03
-2.556590e-02
-2.607370e-02
-7.946970e-03
-8.090950e-03
-1.315770e-03
-5.726210e-03
-2.461170e-03
-7.629850e-03
-7.689060e-03
-7.946970e-03
2.439110e-02
1.636270e-02
2.660930e-03
-2.461170e-03
-3.106400e-04
-3.120240e-03
-7.946970e-03
-8.090950e-03
1.636270e-02
8.454040e-03
-2.461170e-03
-7.629850e-03
-3.120240e-03
-5.950670e-03
2.439110e-02
1.636270e-02
2.052590e-02
2.231540e-02
-3.106400e-04
-3.120240e-03
1.253580e-03
8.378970e-04
1.636270e-02
8.454040e-03
2.231540e-02
2.413430e-02
-3.120240e-03
-5.950670e-03
8.378970e-04
5.615570e-04
2.052590e-02
2.231540e-02
-3.383800e-03
1.513280e-03
1.253580e-03
8.378970e-04
4.467900e-04
-4.640500e-04
2.231540e-02
2.413430e-02
1.513280e-03
6.384360e-03
8.378970e-04
5.615570e-04
-4.640500e-04
-1.365120e-03
-3.383800e-03
1.513280e-03
-3.165300e-02
-1.834510e-02
4.467900e-04
-4.640500e-04
-5.291970e-03
-4.584080e-03
1.513280e-03
6.384360e-03
-1.834510e-02
-5.165660e-03
-4.640500e-04
-1.365120e-03
-4.584080e-03
-4.043280e-03
-3.165300e-02
-1.834510e-02
-1.386260e-02
-1.065350e-02
-5.291970e-03
-4.584080e-03
-8.481540e-03
-3.407050e-03
-1.834510e-02
-5.165660e-03
-1.065350e-02
-7.447830e-03
-4.584080e-03
-4.043280e-03
-3.407050e-03
1.637330e-03
-1.386260e-02
-1.065350e-02
-5.101020e-03
-5.723150e-03
-8.481540e-03
-3.407050e-03
-5.053490e-03
2.297650e-04
-1.065350e-02
-7.447830e-03
-5.723150e-03
-6.167550e-03
-3.407050e-03
1.637330e-03
2.297650e-04
5.600990e-03
-5.101020e-03
-5.723150e-03
2.079160e-03
-3.760520e-03
-5.053490e-03
2.297650e-04
-3.932280e-03
1.690390e-03
-5.723150e-03
-6.167550e-03
-3.760520e-03
-9.456380e-03
2.297650e-04
5.600990e-03
1.690390e-03
7.343520e-03
2.079160e-03
-3.760520e-03
3.853940e-03
4.112860e-03
-3.932280e-03
1.690390e-03
-1.423580e-03
2.910360e-03
-3.760520e-03
-9.456380e-03
4.112860e-03
4.361960e-03
1.690390e-03
7.343520e-03
2.910360e-03
7.288770e-03
3.853940e-03
4.112860e-03
-5.598370e-03
-5.236930e-03
-1.423580e-03
2.910360e-03
1.234400e-03
2.102300e-03
4.112860e-03
4.361960e-03
-5.236930e-03
-4.739780e-03
2.910360e-03
7.288770e-03
2.102300e-03
3.053970e-03
-5.598370e-03
-5.236930e-03
-2.767850e-02
-1.608870e-02
1.234400e-03
2.102300e-03
5.933700e-03
4.039260e-03
-5.236930e-03
-4.739780e-03
-1.608870e-02
-4.425090e-03
2.102300e-03
3.053970e-03
4.039260e-03
2.310990e-03
-2.767850e-02
-1.608870e-02
-2.645210e-02
-9.955660e-03
5.933700e-03
4.039260e-03
7.731340e-03
3.951170e-03
-1.608870e-02
-4.425090e-03
-9.955660e-03
6.659730e-03
4.039260e-03
2.310990e-03
3.951170e-03
4.199360e-04
-2.645210e-02
-9.955660e-03
-4.515230e-03
-1.728090e-03
7.731340e-03
3.951170e-03
5.505130e-03
3.974500e-03
-9.955660e-03
6.659730e-03
-1.728090e-03
1.389780e-03
3.951170e-03
4.199360e-04
3.974500e-03
2.603050e-03
-4.515230e-03
-1.728090e-03
2.196130e-02
1.033060e-02
5.505130e-03
3.974500e-03
1.026950e-03
9.595060e-04
-1.728090e-03
1.389780e-03
1.033060e-02
-9.275150e-04
3.974500e-03
2.603050e-03
9.595060e-04
1.023970e-03
0.000000e+00
0.000000e+00
1.679630e-03
3.623760e-03
0.000000e+00
0.000000e+00
4.833930e-02
4.185760e-02
0.000000e+00
0.000000e+00
3.623760e-03
5.594530e-03
0.000000e+00
0.000000e+00
4.185760e-02
3.545650e-02
1.679630e-03
3.623760e-03
2.549240e-03
4.297340e-03
4.833930e-02
4.185760e-02
5.125060e-02
4.224740e-02
3.623760e-03
5.594530e-03
4.297340e-03
5.941760e-03
4.185760e-02
3.545650e-02
4.224740e-02
3.324770e-02
2.549240e-03
4.297340e-03
2.871110e-03
4.150790e-03
5.125060e-02
4.224740e-02
6.257460e-03
3.806700e-03
4.297340e-03
5.941760e-03
4.150790e-03
5.295880e-03
4.224740e-02
3.324770e-02
3.806700e-03
1.104140e-03
2.871110e-03
4.150790e-03
4.219050e-03
4.173570e-03
6.257460e-03
3.806700e-03
-1.023780e-02
-1.325680e-02
4.150790e-03
5.295880e-03
4.173570e-03
3.863790e-03
3.806700e-03
1.104140e-03
-1.325680e-02
-1.668830e-02
4.219050e-03
4.173570e-03
5.005450e-03
2.462640e-03
-1.023780e-02
-1.325680e-02
-1.201980e-03
3.534870e-03
4.173570e-03
3.863790e-03
2.462640e-03
-1.979090e-04
-1.325680e-02
-1.668830e-02
3.534870e-03
8.152830e-03
5.005450e-03
2.462640e-03
6.466770e-03
6.043050e-03
-1.201980e-03
3.534870e-03
-1.540290e-03
1.472530e-03
2.462640e-03
-1.979090e-04
6.043050e-03
5.585650e-03
3.534870e-03
8.152830e-03
1.472530e-03
4.527980e-03
6.466770e-03
6.043050e-03
-2.494250e-04
4.226260e-03
-1.540290e-03
1.472530e-03
-2.474560e-02
-2.342780e-02
6.043050e-03
5.585650e-03
4.226260e-03
8.505250e-03
1.472530e-03
4.527980e-03
-2.342780e-02
-2.221360e-02
-2.494250e-04
4.226260e-03
-4.793740e-03
3.273890e-03
-2.474560e-02
-2.342780e-02
-4.081690e-02
-4.229180e-02
4.226260e-03
8.505250e-03
3.273890e-03
1.114250e-02
-2.342780e-02
-2.221360e-02
-4.229180e-02
-4.399240e-02
-4.793740e-03
3.273890e-03
-1.043730e-02
-1.245850e-03
-4.081690e-02
-4.229180e-02
-2.369130e-02
-3.020740e-02
3.273890e-03
1.114250e-02
-1.245850e-03
7.906410e-03
-4.229180e-02
-4.399240e-02
-3.020740e-02
-3.683820e-02
-1.043730e-02
-1.245850e-03
-8.038460e-03
-2.170440e-03
-2.369130e-02
-3.020740e-02
-4.246290e-03
-6.618140e-03
-1.245850e-03
7.906410e-03
-2.170440e-03
3.707950e-03
-3.020740e-02
-3.683820e-02
-6.618140e-03
-9.040460e-03
-8.038460e-03
-2.170440e-03
-1.484030e-03
-9.582000e-04
-4.246290e-03
-6.618140e-03
7.310190e-03
1.405290e-02
-2.170440e-03
3.707950e-03
-9.582000e-04
-5.094110e-04
-6.618140e-03
-9.040460e-03
1.405290e-02
2.065320e-02
-1.484030e-03
-9.582000e-04
2.691090e-03
1.440790e-04
7.310190e-03
1.405290e-02
5.944110e-03
1.606990e-02
-9.582000e-04
-5.094110e-04
1.440790e-04
-2.566820e-03
1.405290e-02
2.065320e-02
1.606990e-02
2.594340e-02
2.691090e-03
1.440790e-04
-3.972370e-03
-3.403330e-03
5.944110e-03
1.606990e-02
1.665840e-03
6.141280e-03
1.440790e-04
-2.566820e-03
-3.403330e-03
-3.005620e-03
1.606990e-02
2.594340e-02
6.141280e-03
1.060060e-02
-3.972370e-03
-3.403330e-03
-8.318610e-03
-5.507260e-03
1.665840e-03
6.141280e-03
1.880400e-03
3.377460e-03
-3.403330e-03
-3.005620e-03
-5.507260e-03
-2.659670e-03
6.141280e-03
1.060060e-02
3.377460e-03
4.968930e-03
-8.318610e-03
-5.507260e-03
-3.230870e-03
-4.347010e-03
1.880400e-03
3.377460e-03
1.476640e-02
1.893740e-02
-5.507260e-03
-2.659670e-03
-4.347010e-03
-5.493410e-03
3.377460e-03
4.968930e-03
1.893740e-02
2.315590e-02
-3.230870e-03
-4.347010e-03
2.978560e-03
-1.315770e-03
1.476640e-02
1.893740e-02
1.887940e-02
2.842340e-02
-4.347010e-03
-5.493410e-03
-1.315770e-03
-5.726210e-03
1.893740e-02
2.315590e-02
2.842340e-02
3.780760e-02
2.978560e-03
-1.315770e-03
2.660930e-03
-2.461170e-03
1.887940e-02
2.842340e-02
2.529770e-03
1.258520e-02
-1.315770e-03
-5.726210e-03
-2.461170e-03
-7.629850e-03
2.842340e-02
3.780760e-02
1.258520e-02
2.244060e-02
2.660930e-03
-2.461170e-03
-3.106400e-04
-3.120240e-03
2.529770e-03
1.258520e-02
-2.484210e-02
-1.096070e-02
-2.461170e-03
-7.629850e-03
-3.120240e-03
-5.950670e-03
1.258520e-02
2.244060e-02
-1.096070e-02
2.883250e-03
-3.106400e-04
-3.120240e-03
1.253580e-03
8.378970e-04
-2.484210e-02
-1.096070e-02
-2.121490e-02
-2.274530e-02
-3.120240e-03
-5.950670e-03
8.378970e-04
5.615570e-04
-1.096070e-02
2.883250e-03
-2.274530e-02
-2.397080e-02
1.253580e-03
8.378970e-04
4.467900e-04
-4.640500e-04
-2.121490e-02
-2.274530e-02
1.915850e-03
-1.072880e-03
8.378970e-04
5.615570e-04
-4.640500e-04
-1.365120e-03
-2.274530e-02
-2.397080e-02
-1.072880e-03
-3.999900e-03
4.467900e-04
-4.640500e-04
-5.291970e-03
-4.584080e-03
1.915850e-03
-1.072880e-03
4.090990e-02
2.665510e-02
-4.640500e-04
-1.365120e-03
-4.584080e-03
-4.043280e-03
-1.072880e-03
-3.999900e-03
2.665510e-02
1.225880e-02
-5.291970e-03
-4.584080e-03
-8.481540e-03
-3.407050e-03
4.090990e-02
2.665510e-02
3.068300e-02
1.756240e-02
-4.584080e-03
-4.043280e-03
-3.407050e-03
1.637330e-03
2.665510e-02
1.225880e-02
1.756240e-02
4.468360e-03
-8.481540e-03
-3.407050e-03
-5.053490e-03
2.297650e-04
3.068300e-02
1.756240e-02
1.595960e-02
5.908850e-03
-3.407050e-03
1.637330e-03
2.297650e-04
5.600990e-03
1.756240e-02
4.468360e-03
5.908850e-03
-4.123050e-03
-5.053490e-03
2.297650e-04
-3.932280e-03
1.690390e-03
1.595960e-02
5.908850e-03
6.000930e-03
2.735510e-04
2.297650e-04
5.600990e-03
1.690390e-03
7.343520e-03
5.908850e-03
-4.123050e-03
2.735510e-04
-5.500870e-03
-3.932280e-03
1.690390e-03
-1.423580e-03
2.910360e-03
6.000930e-03
2.735510e-04
-1.402760e-03
-1.045890e-02
1.690390e-03
7.343520e-03
2.910360e-03
7.288770e-03
2.735510e-04
-5.500870e-03
-1.045890e-02
-1.942380e-02
-1.423580e-03
2.910360e-03
1.234400e-03
2.102300e-03
-1.402760e-03
-1.045890e-02
3.213480e-03
8.394230e-04
2.910360e-03
7.288770e-03
2.102300e-03
3.053970e-03
-1.045890e-02
-1.942380e-02
8.394230e-04
-1.477780e-03
1.234400e-03
2.102300e-03
5.933700e-03
4.039260e-03
3.213480e-03
8.394230e-04
1.712950e-02
8.517780e-03
2.102300e-03
3.053970e-03
4.039260e-03
2.310990e-03
8.394230e-04
-1.477780e-03
8.517780e-03
3.294040e-04
5.933700e-03
4.039260e-03
7.731340e-03
3.951170e-03
1.712950e-02
8.517780e-03
1.182430e-02
2.319670e-03
4.039260e-03
2.310990e-03
3.951170e-03
4.199360e-04
8.517780e-03
3.294040e-04
2.319670e-03
-6.740180e-03
7.731340e-03
3.951170e-03
5.505130e-03
3.974500e-03
1.182430e-02
2.319670e-03
-5.785130e-03
-6.166900e-03
3.951170e-03
4.199360e-04
3.974500e-03
2.603050e-03
2.319670e-03
-6.740180e-03
-6.166900e-03
-6.503220e-03
5.505130e-03
3.974500e-03
1.026950e-03
9.595060e-04
-5.785130e-03
-6.166900e-03
-2.497980e-02
-1.334280e-02
3.974500e-03
2.603050e-03
9.595060e-04
1.023970e-03
-6.166900e-03
-6.503220e-03
-1.334280e-02
-1.765990e-03
</DataArray>
<DataArray type="Float32" Name="V2" format="ascii">
0.000000e+00
0.000000e+00
6.427060e-03
1.271730e-02
0.000000e+00
0.000000e+00
-1.742460e-02
-1.332810e-02
0.000000e+00
0.000000e+00
1.271730e-02
1.162980e-02
0.000000e+00
0.000000e+00
-1.332810e-02
-1.088500e-02
6.427060e-03
1.271730e-02
1.046100e-02
9.079740e-03
-1.742460e-02
-1.332810e-02
-2.205450e-02
-2.040380e-02
1.271730e-02
1.162980e-02
9.079740e-03
1.189310e-02
-1.332810e-02
-1.088500e-02
-2.040380e-02
-1.974800e-02
1.046100e-02
9.079740e-03
8.585960e-03
-5.963580e-03
-2.205450e-02
-2.040380e-02
3.757330e-03
2.737010e-03
9.079740e-03
1.189310e-02
-5.963580e-03
-1.317630e-03
-2.040380e-02
-1.974800e-02
2.737010e-03
-1.359220e-03
8.585960e-03
-5.963580e-03
-1.267950e-02
-2.115720e-02
3.757330e-03
2.737010e-03
2.164760e-02
2.129260e-02
-5.963580e-03
-1.317630e-03
-2.115720e-02
-1.383410e-02
2.737010e-03
-1.359220e-03
2.129260e-02
2.005600e-02
-1.267950e-02
-2.115720e-02
-1.086580e-02
-1.722510e-02
2.164760e-02
2.129260e-02
1.094650e-02
1.061640e-02
-2.115720e-02
-1.383410e-02
-1.722510e-02
-2.595620e-02
2.129260e-02
2.005600e-02
1.061640e-02
1.011220e-02
-1.086580e-02
-1.722510e-02
-1.627970e-02
-2.804130e-02
1.094650e-02
1.061640e-02
2.098900e-04
2.146790e-03
-1.722510e-02
-2.595620e-02
-2.804130e-02
-4.801510e-02
1.061640e-02
1.011220e-02
2.146790e-03
4.635430e-03
-1.627970e-02
-2.804130e-02
-2.527920e-02
-4.334850e-02
2.098900e-04
2.146790e-03
-8.437230e-03
-6.037470e-03
-2.804130e-02
-4.801510e-02
-4.334850e-02
-5.701290e-02
2.146790e-03
4.635430e-03
-6.037470e-03
-1.566630e-03
-2.527920e-02
-4.334850e-02
-1.827210e-02
-3.046810e-02
-8.437230e-03
-6.037470e-03
-1.359960e-02
-1.107910e-02
-4.334850e-02
-5.701290e-02
-3.046810e-02
-2.683670e-02
-6.037470e-03
-1.566630e-03
-1.107910e-02
-9.895410e-03
-1.827210e-02
-3.046810e-02
-1.720020e-02
-1.339240e-02
-1.359960e-02
-1.107910e-02
-6.289130e-03
-4.348600e-03
-3.046810e-02
-2.683670e-02
-1.339240e-02
8.375460e-04
-1.107910e-02
-9.895410e-03
-4.348600e-03
-6.045530e-03
-1.720020e-02
-1.339240e-02
-1.912480e-02
-1.148830e-02
-6.289130e-03
-4.348600e-03
1.490140e-02
1.366850e-02
-1.339240e-02
8.375460e-04
-1.148830e-02
4.698750e-03
-4.348600e-03
-6.045530e-03
1.366850e-02
8.763260e-03
-1.912480e-02
-1.148830e-02
-2.320980e-02
-6.548890e-03
1.490140e-02
1.366850e-02
3.338910e-02
3.104870e-02
-1.148830e-02
4.698750e-03
-6.548890e-03
1.449780e-02
1.366850e-02
8.763260e-03
3.104870e-02
2.890230e-02
-2.320980e-02
-6.548890e-03
-3.173820e-02
-1.327530e-02
3.338910e-02
3.104870e-02
3.358630e-02
3.242660e-02
-6.548890e-03
1.449780e-02
-1.327530e-02
-7.302910e-03
3.104870e-02
2.890230e-02
3.242660e-02
3.125930e-02
-3.173820e-02
-1.327530e-02
-3.502710e-02
-2.687880e-02
3.358630e-02
3.242660e-02
2.044800e-02
2.280510e-02
-1.327530e-02
-7.302910e-03
-2.687880e-02
-3.379790e-02
3.242660e-02
3.125930e-02
2.280510e-02
2.225720e-02
-3.502710e-02
-2.687880e-02
1.435760e-03
1.086810e-02
2.044800e-02
2.280510e-02
-3.206110e-03
-4.382640e-03
-2.687880e-02
-3.379790e-02
1.086810e-02
-1.377620e-03
2.280510e-02
2.225720e-02
-4.382640e-03
-2.651280e-03
1.435760e-03
1.086810e-02
2.992220e-02
4.359070e-02
-3.206110e-03
-4.382640e-03
-2.487940e-02
-2.761950e-02
1.086810e-02
-1.377620e-03
4.359070e-02
3.537740e-02
-4.382640e-03
-2.651280e-03
-2.761950e-02
-2.720780e-02
2.992220e-02
4.359070e-02
2.629230e-02
3.318910e-02
-2.487940e-02
-2.761950e-02
-1.813230e-02
-1.854830e-02
4.359070e-02
3.537740e-02
3.318910e-02
3.233360e-02
-2.761950e-02
-2.720780e-02
-1.854830e-02
-2.042760e-02
2.629230e-02
3.318910e-02
-1.338940e-02
-8.839460e-03
-1.813230e-02
-1.854830e-02
8.356890e-03
5.427310e-03
3.318910e-02
3.233360e-02
-8.839460e-03
-2.536500e-03
-1.854830e-02
-2.042760e-02
5.427310e-03
4.168220e-03
-1.338940e-02
-8.839460e-03
-7.666100e-02
-6.590340e-02
8.356890e-03
5.427310e-03
2.557670e-02
2.621790e-02
-8.839460e-03
-2.536500e-03
-6.590340e-02
-5.823050e-02
5.427310e-03
4.168220e-03
2.621790e-02
2.604370e-02
-7.666100e-02
-6.590340e-02
-3.775800e-02
-2.550630e-02
2.557670e-02
2.621790e-02
1.655170e-02
1.728450e-02
-6.590340e-02
-5.823050e-02
-2.550630e-02
-2.567720e-02
2.621790e-02
2.604370e-02
1.728450e-02
1.747800e-02
-3.775800e-02
-2.550630e-02
6.110000e-02
6.459560e-02
1.655170e-02
1.728450e-02
-1.403600e-02
-1.483260e-02
-2.550630e-02
-2.567720e-02
6.459560e-02
6.088850e-02
1.728450e-02
1.747800e-02
-1.483260e-02
-1.414100e-02
6.110000e-02
6.459560e-02
6.078520e-02
5.513390e-02
-1.403600e-02
-1.483260e-02
-3.080980e-02
-2.781340e-02
6.459560e-02
6.088850e-02
5.513390e-02
4.707000e-02
-1.483260e-02
-1.414100e-02
-2.781340e-02
-2.842770e-02
6.078520e-02
5.513390e-02
-5.459320e-03
-8.988110e-03
-3.080980e-02
-2.781340e-02
-1.738920e-02
-1.296130e-02
5.513390e-02
4.707000e-02
-8.988110e-03
-1.423790e-02
-2.781340e-02
-2.842770e-02
-1.296130e-02
-9.444040e-03
-5.459320e-03
-8.988110e-03
-3.232340e-02
-3.662780e-02
-1.738920e-02
-1.296130e-02
1.119500e-02
1.593620e-02
-8.988110e-03
-1.423790e-02
-3.662780e-02
-3.186650e-02
-1.296130e-02
-9.444040e-03
1.593620e-02
2.156590e-02
-3.232340e-02
-3.662780e-02
-1.356250e-02
-3.808350e-02
1.119500e-02
1.593620e-02
1.911640e-02
2.075270e-02
-3.662780e-02
-3.186650e-02
-3.808350e-02
-5.072530e-02
1.593620e-02
2.156590e-02
2.075270e-02
1.885100e-02
-1.356250e-02
-3.808350e-02
-2.871400e-02
-5.261860e-02
1.911640e-02
2.075270e-02
5.526130e-03
4.423650e-03
-3.808350e-02
-5.072530e-02
-5.261860e-02
-5.901230e-02
2.075270e-02
1.885100e-02
4.423650e-03
9.670920e-04
-2.871400e-02
-5.261860e-02
-2.751860e-02
-3.044500e-02
5.526130e-03
4.423650e-03
-8.104760e-03
-1.292770e-02
-5.261860e-02
-5.901230e-02
-3.044500e-02
-2.528310e-02
4.423650e-03
9.670920e-04
-1.292770e-02
-2.084580e-02
-2.751860e-02
-3.044500e-02
1.018740e-02
2.351430e-02
-8.104760e-03
-1.292770e-02
-2.896290e-02
-3.376580e-02
-3.044500e-02
-2.528310e-02
2.351430e-02
1.793880e-02
-1.292770e-02
-2.084580e-02
-3.376580e-02
-3.842460e-02
1.018740e-02
2.351430e-02
1.664570e-02
2.135330e-02
-2.896290e-02
-3.376580e-02
-2.532830e-02
-2.661660e-02
2.351430e-02
1.793880e-02
2.135330e-02
2.044110e-02
-3.376580e-02
-3.842460e-02
-2.661660e-02
-2.605150e-02
1.664570e-02
2.135330e-02
-2.784230e-02
-3.731780e-02
-2.532830e-02
-2.661660e-02
2.518110e-02
2.424690e-02
2.135330e-02
2.044110e-02
-3.731780e-02
-3.248340e-02
-2.661660e-02
-2.605150e-02
2.424690e-02
2.284000e-02
-2.784230e-02
-3.731780e-02
-6.241090e-02
-7.769920e-02
2.518110e-02
2.424690e-02
5.907420e-02
5.675330e-02
-3.731780e-02
-3.248340e-02
-7.769920e-02
-7.687720e-02
2.424690e-02
2.284000e-02
5.675330e-02
5.444550e-02
0.000000e+00
0.000000e+00
-1.742460e-02
-1.332810e-02
0.000000e+00
0.000000e+00
3.146680e-02
1.615340e-02
0.000000e+00
0.000000e+00
-1.332810e-02
-1.088500e-02
0.000000e+00
0.000000e+00
1.615340e-02
1.214170e-02
-1.742460e-02
-1.332810e-02
-2.205450e-02
-2.040380e-02
3.146680e-02
1.615340e-02
2.999270e-02
2.970240e-02
-1.332810e-02
-1.088500e-02
-2.040380e-02
-1.974800e-02
1.615340e-02
1.214170e-02
2.970240e-02
2.804490e-02
-2.205450e-02