<?xml version="1.0"?>
<!-- time 31899.6-->
<VTKFile type="UnstructuredGrid" version="0.1" byte_order="LittleEndian">
<UnstructuredGrid>
<Piece NumberOfPoints="2" NumberOfCells="0">
<Points>
  <DataArray type="Float32" Name="Position" NumberOfComponents="3" format="ascii">
	169.299 1521.28 439.768
	-176.669 1509.4 439.616
  </DataArray>
</Points>
<PointData  Vectors="vector">
  <DataArray type="Float32" Name="Velocity" NumberOfComponents="3" format="ascii">
 -0.00368311 0.775164 -0.107708
 0.00257183 0.776056 -0.0109589
  </DataArray>
  <DataArray type="Float32" Name="Radius" format="ascii">
	100
	100
  </DataArray>
  <DataArray type="Float32" Name="speciesType" format="ascii">
	0
	0
  </DataArray>
</PointData>
<Cells>
  <DataArray type="Int32" Name="connectivity" format="ascii">
  </DataArray>
  <DataArray type="Int32" Name="offsets" format="ascii">
  </DataArray>
  <DataArray type="UInt8"  Name="types" format="ascii">
  </DataArray>
</Cells>
</Piece>
</UnstructuredGrid>
</VTKFile>
