<?xml version="1.0"?>
<VTKFile type="UnstructuredGrid" version="0.1" byte_order="LittleEndian" compressor="vtkZLibDataCompressor">
<UnstructuredGrid>
<Piece NumberOfPoints="960" NumberOfCells="120">
<Points>
<DataArray type="Float32" NumberOfComponents="3" format="ascii">
-4.000000e+02 -6.000000e+03 -4.000000e+02
0.000000e+00 -6.000000e+03 -4.000000e+02
-4.000000e+02 -5.600110e+03 -4.000310e+02
-6.584940e-03 -5.600110e+03 -4.000320e+02
-4.000000e+02 -6.000000e+03 0.000000e+00
0.000000e+00 -6.000000e+03 0.000000e+00
-4.000000e+02 -5.600000e+03 -5.055750e-02
-2.503650e-04 -5.600000e+03 -5.203950e-02
0.000000e+00 -6.000000e+03 -4.000000e+02
4.000000e+02 -6.000000e+03 -4.000000e+02
-6.584940e-03 -5.600110e+03 -4.000320e+02
3.999870e+02 -5.600110e+03 -4.000430e+02
0.000000e+00 -6.000000e+03 0.000000e+00
4.000000e+02 -6.000000e+03 0.000000e+00
-2.503650e-04 -5.600000e+03 -5.203950e-02
4.000000e+02 -5.600000e+03 -6.397280e-02
-4.000000e+02 -5.600110e+03 -4.000310e+02
-6.584940e-03 -5.600110e+03 -4.000320e+02
-4.000010e+02 -5.200200e+03 -4.001950e+02
-8.760220e-03 -5.200200e+03 -4.001960e+02
-4.000000e+02 -5.600000e+03 -5.055750e-02
-2.503650e-04 -5.600000e+03 -5.203950e-02
-4.000000e+02 -5.200000e+03 -2.273570e-01
-9.234120e-05 -5.200000e+03 -2.286710e-01
-6.584940e-03 -5.600110e+03 -4.000320e+02
3.999870e+02 -5.600110e+03 -4.000430e+02
-8.760220e-03 -5.200200e+03 -4.001960e+02
3.999840e+02 -5.200200e+03 -4.002080e+02
-2.503650e-04 -5.600000e+03 -5.203950e-02
4.000000e+02 -5.600000e+03 -6.397280e-02
-9.234120e-05 -5.200000e+03 -2.286710e-01
4.000000e+02 -5.200000e+03 -2.414300e-01
-4.000010e+02 -5.200200e+03 -4.001950e+02
-8.760220e-03 -5.200200e+03 -4.001960e+02
-4.000100e+02 -4.800260e+03 -4.004570e+02
-8.973740e-03 -4.800260e+03 -4.004620e+02
-4.000000e+02 -5.200000e+03 -2.273570e-01
-9.234120e-05 -5.200000e+03 -2.286710e-01
-4.000010e+02 -4.799990e+03 -4.762560e-01
-3.641050e-04 -4.799990e+03 -4.827200e-01
-8.760220e-03 -5.200200e+03 -4.001960e+02
3.999840e+02 -5.200200e+03 -4.002080e+02
-8.973740e-03 -4.800260e+03 -4.004620e+02
3.999920e+02 -4.800260e+03 -4.004660e+02
-9.234120e-05 -5.200000e+03 -2.286710e-01
4.000000e+02 -5.200000e+03 -2.414300e-01
-3.641050e-04 -4.799990e+03 -4.827200e-01
4.000000e+02 -4.799990e+03 -4.866510e-01
-4.000100e+02 -4.800260e+03 -4.004570e+02
-8.973740e-03 -4.800260e+03 -4.004620e+02
-4.000160e+02 -4.400280e+03 -4.007770e+02
-8.315420e-03 -4.400280e+03 -4.007890e+02
-4.000010e+02 -4.799990e+03 -4.762560e-01
-3.641050e-04 -4.799990e+03 -4.827200e-01
-4.000010e+02 -4.399990e+03 -7.657720e-01
-6.059040e-04 -4.399990e+03 -7.797650e-01
-8.973740e-03 -4.800260e+03 -4.004620e+02
3.999920e+02 -4.800260e+03 -4.004660e+02
-8.315420e-03 -4.400280e+03 -4.007890e+02
4.000000e+02 -4.400290e+03 -4.007880e+02
-3.641050e-04 -4.799990e+03 -4.827200e-01
4.000000e+02 -4.799990e+03 -4.866510e-01
-6.059040e-04 -4.399990e+03 -7.797650e-01
4.000000e+02 -4.399990e+03 -7.801750e-01
-4.000160e+02 -4.400280e+03 -4.007770e+02
-8.315420e-03 -4.400280e+03 -4.007890e+02
-4.000110e+02 -4.000280e+03 -4.010900e+02
-3.573610e-03 -4.000280e+03 -4.010990e+02
-4.000010e+02 -4.399990e+03 -7.657720e-01
-6.059040e-04 -4.399990e+03 -7.797650e-01
-4.000000e+02 -4.000010e+03 -1.074550e+00
-3.536300e-04 -4.000010e+03 -1.085350e+00
-8.315420e-03 -4.400280e+03 -4.007890e+02
4.000000e+02 -4.400290e+03 -4.007880e+02
-3.573610e-03 -4.000280e+03 -4.010990e+02
4.000040e+02 -4.000280e+03 -4.010970e+02
-6.059040e-04 -4.399990e+03 -7.797650e-01
4.000000e+02 -4.399990e+03 -7.801750e-01
-3.536300e-04 -4.000010e+03 -1.085350e+00
3.999990e+02 -4.000010e+03 -1.084500e+00
-4.000110e+02 -4.000280e+03 -4.010900e+02
-3.573610e-03 -4.000280e+03 -4.010990e+02
-3.999940e+02 -3.600270e+03 -4.013620e+02
4.514770e-03 -3.600270e+03 -4.013540e+02
-4.000000e+02 -4.000010e+03 -1.074550e+00
-3.536300e-04 -4.000010e+03 -1.085350e+00
-4.000000e+02 -3.600010e+03 -1.376210e+00
-4.990640e-05 -3.600010e+03 -1.368800e+00
-3.573610e-03 -4.000280e+03 -4.010990e+02
4.000040e+02 -4.000280e+03 -4.010970e+02
4.514770e-03 -3.600270e+03 -4.013540e+02
4.000030e+02 -3.600260e+03 -4.013490e+02
-3.536300e-04 -4.000010e+03 -1.085350e+00
3.999990e+02 -4.000010e+03 -1.084500e+00
-4.990640e-05 -3.600010e+03 -1.368800e+00
4.000000e+02 -3.600010e+03 -1.364510e+00
-3.999940e+02 -3.600270e+03 -4.013620e+02
4.514770e-03 -3.600270e+03 -4.013540e+02
-3.999820e+02 -3.200280e+03 -4.016230e+02
8.194610e-03 -3.200280e+03 -4.016030e+02
-4.000000e+02 -3.600010e+03 -1.376210e+00
-4.990640e-05 -3.600010e+03 -1.368800e+00
-4.000010e+02 -3.200000e+03 -1.659600e+00
-4.883660e-04 -3.200000e+03 -1.640440e+00
4.514770e-03 -3.600270e+03 -4.013540e+02
4.000030e+02 -3.600260e+03 -4.013490e+02
8.194610e-03 -3.200280e+03 -4.016030e+02
3.999990e+02 -3.200280e+03 -4.015990e+02
-4.990640e-05 -3.600010e+03 -1.368800e+00
4.000000e+02 -3.600010e+03 -1.364510e+00
-4.883660e-04 -3.200000e+03 -1.640440e+00
4.000000e+02 -3.200000e+03 -1.636300e+00
-3.999820e+02 -3.200280e+03 -4.016230e+02
8.194610e-03 -3.200280e+03 -4.016030e+02
-3.999920e+02 -2.800320e+03 -4.019170e+02
6.490350e-04 -2.800310e+03 -4.019050e+02
-4.000010e+02 -3.200000e+03 -1.659600e+00
-4.883660e-04 -3.200000e+03 -1.640440e+00
-4.000010e+02 -2.799990e+03 -1.942370e+00
6.121300e-05 -2.799990e+03 -1.931900e+00
8.194610e-03 -3.200280e+03 -4.016030e+02
3.999990e+02 -3.200280e+03 -4.015990e+02
6.490350e-04 -2.800310e+03 -4.019050e+02
3.999930e+02 -2.800320e+03 -4.019080e+02
-4.883660e-04 -3.200000e+03 -1.640440e+00
4.000000e+02 -3.200000e+03 -1.636300e+00
6.121300e-05 -2.799990e+03 -1.931900e+00
4.000010e+02 -2.799990e+03 -1.933500e+00
-3.999920e+02 -2.800320e+03 -4.019170e+02
6.490350e-04 -2.800310e+03 -4.019050e+02
-4.000090e+02 -2.400330e+03 -4.022740e+02
-7.729640e-03 -2.400330e+03 -4.022800e+02
-4.000010e+02 -2.799990e+03 -1.942370e+00
6.121300e-05 -2.799990e+03 -1.931900e+00
-4.000000e+02 -2.399990e+03 -2.264030e+00
4.534720e-04 -2.399990e+03 -2.270140e+00
6.490350e-04 -2.800310e+03 -4.019050e+02
3.999930e+02 -2.800320e+03 -4.019080e+02
-7.729640e-03 -2.400330e+03 -4.022800e+02
3.999930e+02 -2.400340e+03 -4.022860e+02
6.121300e-05 -2.799990e+03 -1.931900e+00
4.000010e+02 -2.799990e+03 -1.933500e+00
4.534720e-04 -2.399990e+03 -2.270140e+00
4.000010e+02 -2.399990e+03 -2.274770e+00
-4.000090e+02 -2.400330e+03 -4.022740e+02
-7.729640e-03 -2.400330e+03 -4.022800e+02
-4.000150e+02 -2.000290e+03 -4.026150e+02
-7.004390e-03 -2.000300e+03 -4.026280e+02
-4.000000e+02 -2.399990e+03 -2.264030e+00
4.534720e-04 -2.399990e+03 -2.270140e+00
-3.999990e+02 -2.000000e+03 -2.594460e+00
5.270630e-04 -2.000000e+03 -2.605990e+00
-7.729640e-03 -2.400330e+03 -4.022800e+02
3.999930e+02 -2.400340e+03 -4.022860e+02
-7.004390e-03 -2.000300e+03 -4.026280e+02
4.000010e+02 -2.000300e+03 -4.026290e+02
4.534720e-04 -2.399990e+03 -2.270140e+00
4.000010e+02 -2.399990e+03 -2.274770e+00
5.270630e-04 -2.000000e+03 -2.605990e+00
4.000000e+02 -2.000000e+03 -2.606260e+00
-4.000150e+02 -2.000290e+03 -4.026150e+02
-7.004390e-03 -2.000300e+03 -4.026280e+02
-4.000080e+02 -1.600260e+03 -4.028680e+02
-1.465430e-03 -1.600270e+03 -4.028750e+02
-3.999990e+02 -2.000000e+03 -2.594460e+00
5.270630e-04 -2.000000e+03 -2.605990e+00
-3.999990e+02 -1.600010e+03 -2.876640e+00
5.235670e-04 -1.600010e+03 -2.881760e+00
-7.004390e-03 -2.000300e+03 -4.026280e+02
4.000010e+02 -2.000300e+03 -4.026290e+02
-1.465430e-03 -1.600270e+03 -4.028750e+02
4.000050e+02 -1.600270e+03 -4.028710e+02
5.270630e-04 -2.000000e+03 -2.605990e+00
4.000000e+02 -2.000000e+03 -2.606260e+00
5.235670e-04 -1.600010e+03 -2.881760e+00
4.000000e+02 -1.600010e+03 -2.877740e+00
-4.000080e+02 -1.600260e+03 -4.028680e+02
-1.465430e-03 -1.600270e+03 -4.028750e+02
-3.999960e+02 -1.200280e+03 -4.031090e+02
3.084780e-04 -1.200290e+03 -4.031040e+02
-3.999990e+02 -1.600010e+03 -2.876640e+00
5.235670e-04 -1.600010e+03 -2.881760e+00
-4.000000e+02 -1.200000e+03 -3.143930e+00
2.531180e-04 -1.200000e+03 -3.139450e+00
-1.465430e-03 -1.600270e+03 -4.028750e+02
4.000050e+02 -1.600270e+03 -4.028710e+02
3.084780e-04 -1.200290e+03 -4.031040e+02
3.999960e+02 -1.200280e+03 -4.031070e+02
5.235670e-04 -1.600010e+03 -2.881760e+00
4.000000e+02 -1.600010e+03 -2.877740e+00
2.531180e-04 -1.200000e+03 -3.139450e+00
4.000000e+02 -1.200000e+03 -3.141500e+00
-3.999960e+02 -1.200280e+03 -4.031090e+02
3.084780e-04 -1.200290e+03 -4.031040e+02
-3.999910e+02 -8.003220e+02 -4.034190e+02
-1.805960e-04 -8.003260e+02 -4.034090e+02
-4.000000e+02 -1.200000e+03 -3.143930e+00
2.531180e-04 -1.200000e+03 -3.139450e+00
-4.000010e+02 -7.999900e+02 -3.442470e+00
-4.578240e-04 -7.999900e+02 -3.434530e+00
3.084780e-04 -1.200290e+03 -4.031040e+02
3.999960e+02 -1.200280e+03 -4.031070e+02
-1.805960e-04 -8.003260e+02 -4.034090e+02
3.999910e+02 -8.003270e+02 -4.034160e+02
2.531180e-04 -1.200000e+03 -3.139450e+00
4.000000e+02 -1.200000e+03 -3.141500e+00
-4.578240e-04 -7.999900e+02 -3.434530e+00
4.000000e+02 -7.999900e+02 -3.441180e+00
-3.999910e+02 -8.003220e+02 -4.034190e+02
-1.805960e-04 -8.003260e+02 -4.034090e+02
-3.999930e+02 -4.003350e+02 -4.037880e+02
1.679370e-03 -4.003370e+02 -4.037800e+02
-4.000010e+02 -7.999900e+02 -3.442470e+00
-4.578240e-04 -7.999900e+02 -3.434530e+00
-4.000000e+02 -3.999890e+02 -3.778620e+00
3.644230e-04 -3.999890e+02 -3.770640e+00
-1.805960e-04 -8.003260e+02 -4.034090e+02
3.999910e+02 -8.003270e+02 -4.034160e+02
1.679370e-03 -4.003370e+02 -4.037800e+02
3.999960e+02 -4.003420e+02 -4.037810e+02
-4.578240e-04 -7.999900e+02 -3.434530e+00
4.000000e+02 -7.999900e+02 -3.441180e+00
3.644230e-04 -3.999890e+02 -3.770640e+00
4.000010e+02 -3.999890e+02 -3.769670e+00
-3.999930e+02 -4.003350e+02 -4.037880e+02
1.679370e-03 -4.003370e+02 -4.037800e+02
-3.999980e+02 -3.086960e-01 -4.041290e+02
6.922160e-03 -3.102350e-01 -4.041270e+02
-4.000000e+02 -3.999890e+02 -3.778620e+00
3.644230e-04 -3.999890e+02 -3.770640e+00
-4.000000e+02 -1.148750e-03 -4.100650e+00
4.235180e-04 -8.826720e-04 -4.097530e+00
1.679370e-03 -4.003370e+02 -4.037800e+02
3.999960e+02 -4.003420e+02 -4.037810e+02
[...]
<PointData>
<DataArray type="Float32" Name="V1" format="ascii">
0.000000e+00
0.000000e+00
6.911550e-03
2.532140e-06
0.000000e+00
0.000000e+00
1.237570e-03
4.434480e-04
0.000000e+00
0.000000e+00
2.532140e-06
-6.908190e-03
0.000000e+00
0.000000e+00
4.434480e-04
-3.476440e-04
6.911550e-03
2.532140e-06
2.089670e-03
-6.043110e-03
1.237570e-03
4.434480e-04
1.878200e-04
2.800070e-04
2.532140e-06
-6.908190e-03
-6.043110e-03
-1.418370e-02
4.434480e-04
-3.476440e-04
2.800070e-04
3.654170e-04
2.089670e-03
-6.043110e-03
-8.291630e-03
-9.248110e-03
1.878200e-04
2.800070e-04
-2.473780e-03
-6.262250e-04
-6.043110e-03
-1.418370e-02
-9.248110e-03
-1.021200e-02
2.800070e-04
3.654170e-04
-6.262250e-04
1.210660e-03
-8.291630e-03
-9.248110e-03
-1.059100e-02
-3.865450e-03
-2.473780e-03
-6.262250e-04
-2.780570e-03
-6.563670e-04
-9.248110e-03
-1.021200e-02
-3.865450e-03
2.849270e-03
-6.262250e-04
1.210660e-03
-6.563670e-04
1.458250e-03
-1.059100e-02
-3.865450e-03
-6.175570e-04
4.051940e-03
-2.780570e-03
-6.563670e-04
-1.348250e-03
-7.763280e-04
-3.865450e-03
2.849270e-03
4.051940e-03
8.717130e-03
-6.563670e-04
1.458250e-03
-7.763280e-04
-2.074820e-04
-6.175570e-04
4.051940e-03
9.655140e-03
7.333950e-03
-1.348250e-03
-7.763280e-04
9.186230e-04
2.631290e-05
4.051940e-03
8.717130e-03
7.333950e-03
5.011500e-03
-7.763280e-04
-2.074820e-04
2.631290e-05
-8.650190e-04
9.655140e-03
7.333950e-03
1.654520e-02
7.204240e-03
9.186230e-04
2.631290e-05
1.610790e-03
7.868500e-04
7.333950e-03
5.011500e-03
7.204240e-03
-2.144900e-03
2.631290e-05
-8.650190e-04
7.868500e-04
-4.321880e-05
1.654520e-02
7.204240e-03
9.838210e-03
4.343250e-03
1.610790e-03
7.868500e-04
9.077550e-04
5.777900e-04
7.204240e-03
-2.144900e-03
4.343250e-03
-1.166830e-03
7.868500e-04
-4.321880e-05
5.777900e-04
2.311160e-04
9.838210e-03
4.343250e-03
-1.713300e-03
1.624670e-03
9.077550e-04
5.777900e-04
-7.223480e-04
-5.119080e-04
4.343250e-03
-1.166830e-03
1.624670e-03
4.945990e-03
5.777900e-04
2.311160e-04
-5.119080e-04
-3.200490e-04
-1.713300e-03
1.624670e-03
-9.307700e-03
4.230130e-04
-7.223480e-04
-5.119080e-04
-9.699780e-04
-6.345550e-04
1.624670e-03
4.945990e-03
4.230130e-04
1.013810e-02
-5.119080e-04
-3.200490e-04
-6.345550e-04
-3.139800e-04
-9.307700e-03
4.230130e-04
-5.028680e-03
-1.139990e-03
-9.699780e-04
-6.345550e-04
-4.892300e-04
-2.423910e-05
4.230130e-04
1.013810e-02
-1.139990e-03
2.731180e-03
-6.345550e-04
-3.139800e-04
-2.423910e-05
4.275010e-04
-5.028680e-03
-1.139990e-03
3.122020e-03
-2.728850e-03
-4.892300e-04
-2.423910e-05
-4.988410e-04
1.855110e-04
-1.139990e-03
2.731180e-03
-2.728850e-03
-8.594280e-03
-2.423910e-05
4.275010e-04
1.855110e-04
8.548980e-04
3.122020e-03
-2.728850e-03
4.347340e-03
-4.774210e-03
-4.988410e-04
1.855110e-04
5.142020e-04
4.383870e-04
-2.728850e-03
-8.594280e-03
-4.774210e-03
-1.390750e-02
1.855110e-04
8.548980e-04
4.383870e-04
3.523800e-04
4.347340e-03
-4.774210e-03
-5.065050e-03
-8.265450e-03
5.142020e-04
4.383870e-04
1.682120e-03
6.499960e-04
-4.774210e-03
-1.390750e-02
-8.265450e-03
-1.147060e-02
4.383870e-04
3.523800e-04
6.499960e-04
-3.826750e-04
-5.065050e-03
-8.265450e-03
-1.431470e-02
-6.934730e-03
1.682120e-03
6.499960e-04
1.199280e-03
-2.730330e-05
-8.265450e-03
-1.147060e-02
-6.934730e-03
4.450680e-04
6.499960e-04
-3.826750e-04
-2.730330e-05
-1.251270e-03
-1.431470e-02
-6.934730e-03
-5.627690e-03
1.692530e-03
1.199280e-03
-2.730330e-05
-6.478110e-04
-1.105570e-03
-6.934730e-03
4.450680e-04
1.692530e-03
9.003950e-03
-2.730330e-05
-1.251270e-03
-1.105570e-03
-1.569010e-03
-5.627690e-03
1.692530e-03
8.846420e-03
9.171780e-03
-6.478110e-04
-1.105570e-03
-6.304080e-04
-4.446980e-04
1.692530e-03
9.003950e-03
9.171780e-03
9.491750e-03
-1.105570e-03
-1.569010e-03
-4.446980e-04
-2.625180e-04
8.846420e-03
9.171780e-03
1.943410e-02
9.855110e-03
-6.304080e-04
-4.446980e-04
7.504590e-05
3.101500e-04
9.171780e-03
9.491750e-03
9.855110e-03
2.800130e-04
-4.446980e-04
-2.625180e-04
3.101500e-04
5.508500e-04
1.943410e-02
9.855110e-03
1.045880e-02
2.886180e-03
7.504590e-05
3.101500e-04
1.078450e-03
7.248840e-04
9.855110e-03
2.800130e-04
2.886180e-03
-4.675090e-03
3.101500e-04
5.508500e-04
7.248840e-04
3.852800e-04
1.045880e-02
2.886180e-03
-3.403400e-03
-3.098370e-03
1.078450e-03
7.248840e-04
2.027510e-03
1.131320e-03
2.886180e-03
-4.675090e-03
-3.098370e-03
-2.783180e-03
7.248840e-04
3.852800e-04
1.131320e-03
2.456460e-04
-3.403400e-03
-3.098370e-03
-1.261920e-02
-4.003410e-03
2.027510e-03
1.131320e-03
3.468020e-04
3.114300e-04
-3.098370e-03
-2.783180e-03
-4.003410e-03
4.618370e-03
1.131320e-03
2.456460e-04
3.114300e-04
2.851720e-04
-1.261920e-02
-4.003410e-03
-1.364290e-02
-5.946230e-03
3.468020e-04
3.114300e-04
-3.425830e-04
6.098240e-04
-4.003410e-03
4.618370e-03
-5.946230e-03
1.758810e-03
3.114300e-04
2.851720e-04
6.098240e-04
1.572280e-03
-1.364290e-02
-5.946230e-03
-3.185130e-03
-3.733180e-03
-3.425830e-04
6.098240e-04
-6.028330e-04
6.291760e-04
-5.946230e-03
1.758810e-03
-3.733180e-03
-4.267950e-03
6.098240e-04
1.572280e-03
6.291760e-04
1.874280e-03
-3.185130e-03
-3.733180e-03
7.508200e-03
-1.074320e-03
-6.028330e-04
6.291760e-04
8.316380e-05
9.027910e-04
-3.733180e-03
-4.267950e-03
-1.074320e-03
-9.641200e-03
6.291760e-04
1.874280e-03
9.027910e-04
1.738840e-03
7.508200e-03
-1.074320e-03
5.197580e-03
-1.692480e-03
8.316380e-05
9.027910e-04
5.732270e-04
4.861990e-04
-1.074320e-03
-9.641200e-03
-1.692480e-03
-8.571790e-03
9.027910e-04
1.738840e-03
4.861990e-04
4.115500e-04
5.197580e-03
-1.692480e-03
-1.273350e-03
1.018940e-04
5.732270e-04
4.861990e-04
3.429350e-04
3.049150e-04
-1.692480e-03
-8.571790e-03
1.018940e-04
1.491710e-03
4.861990e-04
4.115500e-04
3.049150e-04
2.829840e-04
-1.273350e-03
1.018940e-04
-3.991030e-03
5.087940e-03
3.429350e-04
3.049150e-04
-4.042480e-04
-3.040080e-04
1.018940e-04
1.491710e-03
5.087940e-03
1.418780e-02
3.049150e-04
2.829840e-04
-3.040080e-04
-1.826930e-04
-3.991030e-03
5.087940e-03
-2.508930e-03
5.005230e-03
-4.042480e-04
-3.040080e-04
-9.456880e-04
-1.374340e-03
5.087940e-03
1.418780e-02
5.005230e-03
1.253320e-02
-3.040080e-04
-1.826930e-04
-1.374340e-03
-1.786130e-03
-2.508930e-03
5.005230e-03
9.494920e-04
-1.970430e-04
-9.456880e-04
-1.374340e-03
-1.935140e-04
-6.336160e-04
5.005230e-03
1.253320e-02
-1.970430e-04
-1.326740e-03
-1.374340e-03
-1.786130e-03
-6.336160e-04
-1.058230e-03
9.494920e-04
-1.970430e-04
4.665000e-03
-2.330710e-03
-1.935140e-04
-6.336160e-04
-8.560580e-04
-1.548230e-03
-1.970430e-04
-1.326740e-03
-2.330710e-03
-9.312200e-03
-6.336160e-04
-1.058230e-03
-1.548230e-03
-2.225110e-03
0.000000e+00
0.000000e+00
1.237570e-03
4.434480e-04
0.000000e+00
0.000000e+00
-9.439910e-03
-9.349760e-04
0.000000e+00
0.000000e+00
4.434480e-04
-3.476440e-04
0.000000e+00
0.000000e+00
-9.349760e-04
7.573990e-03
1.237570e-03
4.434480e-04
1.878200e-04
2.800070e-04
-9.439910e-03
-9.349760e-04
-2.451240e-03
5.536490e-03
4.434480e-04
-3.476440e-04
2.800070e-04
3.654170e-04
-9.349760e-04
7.573990e-03
5.536490e-03
1.351720e-02
1.878200e-04
2.800070e-04
-2.473780e-03
-6.262250e-04
-2.451240e-03
5.536490e-03
1.316410e-02
1.043930e-02
2.800070e-04
3.654170e-04
-6.262250e-04
1.210660e-03
5.536490e-03
1.351720e-02
1.043930e-02
7.703720e-03
-2.473780e-03
-6.262250e-04
-2.780570e-03
-6.563670e-04
1.316410e-02
1.043930e-02
1.620720e-02
5.249740e-03
-6.262250e-04
1.210660e-03
-6.563670e-04
1.458250e-03
1.043930e-02
7.703720e-03
5.249740e-03
-5.716510e-03
-2.780570e-03
-6.563670e-04
-1.348250e-03
-7.763280e-04
1.620720e-02
5.249740e-03
3.256280e-03
-2.539630e-03
-6.563670e-04
1.458250e-03
-7.763280e-04
-2.074820e-04
5.249740e-03
-5.716510e-03
-2.539630e-03
-8.337810e-03
-1.348250e-03
-7.763280e-04
9.186230e-04
2.631290e-05
3.256280e-03
-2.539630e-03
-1.150570e-02
-7.403920e-03
-7.763280e-04
-2.074820e-04
2.631290e-05
-8.650190e-04
-2.539630e-03
-8.337810e-03
-7.403920e-03
-3.299860e-03
9.186230e-04
2.631290e-05
1.610790e-03
7.868500e-04
-1.150570e-02
-7.403920e-03
-1.969460e-02
-8.686690e-03
2.631290e-05
-8.650190e-04
7.868500e-04
-4.321880e-05
-7.403920e-03
-3.299860e-03
-8.686690e-03
2.316400e-03
1.610790e-03
7.868500e-04
9.077550e-04
5.777900e-04
-1.969460e-02
-8.686690e-03
-1.174740e-02
-5.565450e-03
7.868500e-04
-4.321880e-05
5.777900e-04
2.311160e-04
-8.686690e-03
2.316400e-03
-5.565450e-03
5.967030e-04
9.077550e-04
5.777900e-04
-7.223480e-04
-5.119080e-04
-1.174740e-02
-5.565450e-03
3.176780e-03
-5.307970e-04
5.777900e-04
2.311160e-04
-5.119080e-04
-3.200490e-04
-5.565450e-03
5.967030e-04
-5.307970e-04
-4.260480e-03
-7.223480e-04
-5.119080e-04
-9.699780e-04
-6.345550e-04
3.176780e-03
-5.307970e-04
1.123520e-02
8.315150e-04
-5.119080e-04
-3.200490e-04
-6.345550e-04
-3.139800e-04
-5.307970e-04
-4.260480e-03
8.315150e-04
-9.587870e-03
-9.699780e-04
-6.345550e-04
-4.892300e-04
-2.423910e-05
1.123520e-02
8.315150e-04
5.967580e-03
1.189030e-03
-6.345550e-04
-3.139800e-04
-2.423910e-05
4.275010e-04
8.315150e-04
-9.587870e-03
1.189030e-03
-3.602120e-03
-4.892300e-04
-2.423910e-05
-4.988410e-04
1.855110e-04
5.967580e-03
1.189030e-03
-2.122100e-03
2.384310e-03
-2.423910e-05
4.275010e-04
1.855110e-04
8.548980e-04
1.189030e-03
-3.602120e-03
2.384310e-03
6.873340e-03
-4.988410e-04
1.855110e-04
5.142020e-04
4.383870e-04
-2.122100e-03
2.384310e-03
-5.391760e-03
3.899210e-03
1.855110e-04
8.548980e-04
4.383870e-04
3.523800e-04
2.384310e-03
6.873340e-03
3.899210e-03
1.317760e-02
5.142020e-04
4.383870e-04
1.682120e-03
6.499960e-04
-5.391760e-03
3.899210e-03
1.775210e-03
7.040970e-03
4.383870e-04
3.523800e-04
6.499960e-04
-3.826750e-04
3.899210e-03
1.317760e-02
7.040970e-03
1.230490e-02
1.682120e-03
6.499960e-04
1.199280e-03
-2.730330e-05
1.775210e-03
7.040970e-03
1.188240e-02
6.943140e-03
6.499960e-04
-3.826750e-04
-2.730330e-05
-1.251270e-03
7.040970e-03
1.230490e-02
6.943140e-03
2.003460e-03
1.199280e-03
-2.730330e-05
-6.478110e-04
-1.105570e-03
1.188240e-02
6.943140e-03
6.874510e-03
4.779040e-04
-2.730330e-05
-1.251270e-03
-1.105570e-03
-1.569010e-03
6.943140e-03
2.003460e-03
4.779040e-04
-5.923930e-03
-6.478110e-04
-1.105570e-03
-6.304080e-04
-4.446980e-04
6.874510e-03
4.779040e-04
-7.568290e-03
-8.263780e-03
-1.105570e-03
-1.569010e-03
-4.446980e-04
-2.625180e-04
4.779040e-04
-5.923930e-03
-8.263780e-03
-8.962650e-03
-6.304080e-04
-4.446980e-04
7.504590e-05
3.101500e-04
-7.568290e-03
-8.263780e-03
-1.956890e-02
-1.046570e-02
-4.446980e-04
-2.625180e-04
3.101500e-04
5.508500e-04
-8.263780e-03
-8.962650e-03
-1.046570e-02
-1.356060e-03
7.504590e-05
3.101500e-04
1.078450e-03
7.248840e-04
-1.956890e-02
-1.046570e-02
-1.262100e-02
-4.367800e-03
3.101500e-04
5.508500e-04
7.248840e-04
3.852800e-04
-1.046570e-02
-1.356060e-03
-4.367800e-03
3.896580e-03
1.078450e-03
7.248840e-04
2.027510e-03
1.131320e-03
-1.262100e-02
-4.367800e-03
-6.354690e-04
8.273560e-04
7.248840e-04
3.852800e-04
1.131320e-03
2.456460e-04
-4.367800e-03
3.896580e-03
8.273560e-04
2.297150e-03
2.027510e-03
1.131320e-03
3.468020e-04
3.114300e-04
-6.354690e-04
8.273560e-04
1.196460e-02
3.425120e-03
1.131320e-03
2.456460e-04
3.114300e-04
2.851720e-04
8.273560e-04
2.297150e-03
3.425120e-03
-5.105490e-03
3.468020e-04
3.114300e-04
-3.425830e-04
6.098240e-04
1.196460e-02
3.425120e-03
1.428490e-02
4.641840e-03
3.114300e-04
2.851720e-04
6.098240e-04
1.572280e-03
3.425120e-03
-5.105490e-03
4.641840e-03
-4.992230e-03
-3.425830e-04
6.098240e-04
-6.028330e-04
6.291760e-04
1.428490e-02
4.641840e-03
4.453070e-03
2.533850e-03
6.098240e-04
1.572280e-03
6.291760e-04
1.874280e-03
4.641840e-03
-4.992230e-03
2.533850e-03
6.267560e-04
-6.028330e-04
6.291760e-04
8.316380e-05
9.027910e-04
4.453070e-03
2.533850e-03
-7.727630e-03
-8.359930e-04
6.291760e-04
1.874280e-03
9.027910e-04
1.738840e-03
2.533850e-03
6.267560e-04
-8.359930e-04
6.071710e-03
8.316380e-05
9.027910e-04
5.732270e-04
4.861990e-04
-7.727630e-03
-8.359930e-04
-6.247440e-03
8.044950e-04
9.027910e-04
1.738840e-03
4.861990e-04
4.115500e-04
-8.359930e-04
6.071710e-03
8.044950e-04
7.867330e-03
5.732270e-04
4.861990e-04
3.429350e-04
3.049150e-04
-6.247440e-03
8.044950e-04
5.733730e-04
-7.365770e-04
4.861990e-04
4.115500e-04
3.049150e-04
2.829840e-04
8.044950e-04
7.867330e-03
-7.365770e-04
-2.031900e-03
3.429350e-04
3.049150e-04
-4.042480e-04
-3.040080e-04
5.733730e-04
-7.365770e-04
4.811130e-03
-4.513850e-03
3.049150e-04
2.829840e-04
-3.040080e-04
-1.826930e-04
-7.365770e-04
-2.031900e-03
-4.513850e-03
-1.381860e-02
-4.042480e-04
-3.040080e-04
-9.456880e-04
-1.374340e-03
4.811130e-03
-4.513850e-03
4.440310e-03
-2.260250e-03
-3.040080e-04
-1.826930e-04
-1.374340e-03
-1.786130e-03
-4.513850e-03
-1.381860e-02
-2.260250e-03
-8.945640e-03
-9.456880e-04
-1.374340e-03
-1.935140e-04
-6.336160e-04
4.440310e-03
-2.260250e-03
-6.480400e-04
1.369330e-03
-1.374340e-03
-1.786130e-03
-6.336160e-04
-1.058230e-03
-2.260250e-03
-8.945640e-03
1.369330e-03
3.400280e-03
-1.935140e-04
-6.336160e-04
-8.560580e-04
-1.548230e-03
-6.480400e-04
1.369330e-03
-2.806260e-03
5.524420e-03
-6.336160e-04
-1.058230e-03
-1.548230e-03
-2.225110e-03
1.369330e-03
3.400280e-03
5.524420e-03
1.387200e-02
</DataArray>
<DataArray type="Float32" Name="V2" format="ascii">
0.000000e+00
0.000000e+00
3.411800e-02
3.469910e-02
0.000000e+00
0.000000e+00
-1.035330e-02
-1.046950e-02
0.000000e+00
0.000000e+00
3.469910e-02
3.712720e-02
0.000000e+00
0.000000e+00
-1.046950e-02
-1.021050e-02
3.411800e-02
3.469910e-02
9.955410e-03
1.546380e-02
-1.035330e-02
-1.046950e-02
-4.035610e-03
-3.936000e-03
3.469910e-02
3.712720e-02
1.546380e-02
1.712540e-02
-1.046950e-02
-1.021050e-02
-3.936000e-03
-3.896230e-03
9.955410e-03
1.546380e-02
-2.699480e-02
-2.350680e-02
-4.035610e-03
-3.936000e-03
1.257070e-02
1.200890e-02
1.546380e-02
1.712540e-02
-2.350680e-02
-2.652190e-02
-3.936000e-03
-3.896230e-03
1.200890e-02
1.135800e-02
-2.699480e-02
-2.350680e-02
-2.604950e-02
-2.774990e-02
1.257070e-02
1.200890e-02
1.857700e-02
1.885260e-02
-2.350680e-02
-2.652190e-02
-2.774990e-02
-3.271930e-02
1.200890e-02
1.135800e-02
1.885260e-02
1.965230e-02
-2.604950e-02
-2.774990e-02
-1.674570e-02
-1.968440e-02
1.857700e-02
1.885260e-02
6.016960e-03
7.122740e-03
-2.774990e-02
-3.271930e-02
-1.968440e-02
-2.108490e-02
1.885260e-02
1.965230e-02
7.122740e-03
8.644320e-03
-1.674570e-02
-1.968440e-02
1.065640e-02
6.549430e-03
6.016960e-03
7.122740e-03
-1.052060e-02
-1.023600e-02
-1.968440e-02
-2.108490e-02
6.549430e-03
8.439050e-03
7.122740e-03
8.644320e-03
-1.023600e-02
-1.059630e-02
1.065640e-02
6.549430e-03
3.425630e-02
3.114540e-02
-1.052060e-02
-1.023600e-02
-1.402930e-02
-1.428980e-02
6.549430e-03
8.439050e-03
3.114540e-02
2.971280e-02
-1.023600e-02
-1.059630e-02
-1.428980e-02
-1.457110e-02
3.425630e-02
3.114540e-02
6.974210e-03
7.916030e-03
-1.402930e-02
-1.428980e-02
-2.781390e-03
-2.962490e-03
3.114540e-02
2.971280e-02
7.916030e-03
4.501640e-03
-1.428980e-02
-1.457110e-02
-2.962490e-03
-2.723790e-03
6.974210e-03
7.916030e-03
-2.032040e-02
-1.898370e-02
-2.781390e-03
-2.962490e-03
9.396290e-03
9.520590e-03
7.916030e-03
4.501640e-03
-1.898370e-02
-2.409860e-02
-2.962490e-03
-2.723790e-03
9.520590e-03
9.320930e-03
-2.032040e-02
-1.898370e-02
-2.618770e-02
-2.953930e-02
9.396290e-03
9.520590e-03
1.164790e-02
1.187670e-02
-1.898370e-02
-2.409860e-02
-2.953930e-02
-3.531470e-02
9.520590e-03
9.320930e-03
1.187670e-02
1.238410e-02
-2.618770e-02
-2.953930e-02
-2.154310e-02
-2.845070e-02
1.164790e-02
1.187670e-02
3.121520e-03
3.203280e-03
-2.953930e-02
-3.531470e-02
-2.845070e-02
-2.809850e-02
1.187670e-02
1.238410e-02
3.203280e-03
3.980650e-03
-2.154310e-02
-2.845070e-02
1.604980e-02
1.225510e-02
3.121520e-03
3.203280e-03
-9.815000e-03
-1.011700e-02
-2.845070e-02
-2.809850e-02
1.225510e-02
1.478930e-02
3.203280e-03
3.980650e-03
-1.011700e-02
-9.325380e-03
1.604980e-02
1.225510e-02
3.172840e-02
3.467620e-02
-9.815000e-03
-1.011700e-02
-1.256010e-02
-1.290760e-02
1.225510e-02
1.478930e-02
3.467620e-02
3.767880e-02
-1.011700e-02
-9.325380e-03
-1.290760e-02
-1.259420e-02
3.172840e-02
3.467620e-02
4.439430e-04
6.598790e-03
-1.256010e-02
-1.290760e-02
-2.122270e-04
2.168240e-05
3.467620e-02
3.767880e-02
6.598790e-03
9.981800e-03
-1.290760e-02
-1.259420e-02
2.168240e-05
9.799480e-05
4.439430e-04
6.598790e-03
-1.746260e-02
-1.609610e-02
-2.122270e-04
2.168240e-05
1.065640e-02
1.115340e-02
6.598790e-03
9.981800e-03
-1.609610e-02
-1.495360e-02
2.168240e-05
9.799480e-05
1.115340e-02
1.159480e-02
-1.746260e-02
-1.609610e-02
-2.831450e-02
-3.105720e-02
1.065640e-02
1.115340e-02
9.156790e-03
9.090480e-03
-1.609610e-02
-1.495360e-02
-3.105720e-02
-3.235120e-02
1.115340e-02
1.159480e-02
9.090480e-03
9.026160e-03
-2.831450e-02
-3.105720e-02
-2.551600e-02
-2.878930e-02
9.156790e-03
9.090480e-03
-1.906970e-03
-1.581430e-03
-3.105720e-02
-3.235120e-02
-2.878930e-02
-2.804570e-02
9.090480e-03
9.026160e-03
-1.581430e-03
-1.975670e-03
-2.551600e-02
-2.878930e-02
1.244520e-02
1.430010e-02
-1.906970e-03
-1.581430e-03
-1.256030e-02
-1.151790e-02
-2.878930e-02
-2.804570e-02
1.430010e-02
1.913840e-02
-1.581430e-03
-1.975670e-03
-1.151790e-02
-1.172760e-02
1.244520e-02
1.430010e-02
2.713090e-02
3.524370e-02
-1.256030e-02
-1.151790e-02
-9.829040e-03
-9.620180e-03
1.430010e-02
1.913840e-02
3.524370e-02
3.576990e-02
-1.151790e-02
-1.172760e-02
-9.620180e-03
-9.248800e-03
2.713090e-02
3.524370e-02
1.277390e-02
1.768690e-02
-9.829040e-03
-9.620180e-03
3.020580e-03
2.972890e-03
3.524370e-02
3.576990e-02
1.768690e-02
1.367410e-02
-9.620180e-03
-9.248800e-03
2.972890e-03
2.968110e-03
1.277390e-02
1.768690e-02
-8.044520e-03
-4.554510e-03
3.020580e-03
2.972890e-03
1.334260e-02
1.287320e-02
1.768690e-02
1.367410e-02
-4.554510e-03
-6.413700e-03
2.972890e-03
2.968110e-03
1.287320e-02
1.246190e-02
-8.044520e-03
-4.554510e-03
-3.371150e-02
-3.085780e-02
1.334260e-02
1.287320e-02
1.122100e-02
1.012530e-02
-4.554510e-03
-6.413700e-03
-3.085780e-02
-2.832770e-02
1.287320e-02
1.246190e-02
1.012530e-02
1.047120e-02
-3.371150e-02
-3.085780e-02
-1.339500e-02
-1.493210e-02
1.122100e-02
1.012530e-02
-5.062430e-03
-5.139040e-03
-3.085780e-02
-2.832770e-02
-1.493210e-02
-1.001770e-02
1.012530e-02
1.047120e-02
-5.139040e-03
-4.849670e-03
-1.339500e-02
-1.493210e-02
2.604490e-02
2.731940e-02
-5.062430e-03
-5.139040e-03
-1.691060e-02
-1.681650e-02
-1.493210e-02
-1.001770e-02
2.731940e-02
3.032160e-02
-5.139040e-03
-4.849670e-03
-1.681650e-02
-1.640440e-02
2.604490e-02
2.731940e-02
2.512220e-02
2.965800e-02
-1.691060e-02
-1.681650e-02
-9.321030e-03
-9.898100e-03
2.731940e-02
3.032160e-02
2.965800e-02
2.968410e-02
-1.681650e-02
-1.640440e-02
-9.898100e-03
-9.887980e-03
2.512220e-02
2.965800e-02
9.863660e-03
1.094600e-02
-9.321030e-03
-9.898100e-03
8.015830e-03
7.913350e-03
2.965800e-02
2.968410e-02
1.094600e-02
8.244350e-03
-9.898100e-03
-9.887980e-03
7.913350e-03
7.178410e-03
9.863660e-03
1.094600e-02
-1.887770e-02
-2.016280e-02
8.015830e-03
7.913350e-03
1.733600e-02
1.762900e-02
1.094600e-02
8.244350e-03
-2.016280e-02
-2.178340e-02
7.913350e-03
7.178410e-03
1.762900e-02
1.775080e-02
-1.887770e-02
-2.016280e-02
-3.482190e-02
-3.724970e-02
1.733600e-02
1.762900e-02
9.180300e-03
9.030750e-03
-2.016280e-02
-2.178340e-02
-3.724970e-02
-3.453500e-02
1.762900e-02
1.775080e-02
9.030750e-03
8.370950e-03
-3.482190e-02
-3.724970e-02
6.064950e-03
3.735950e-03
9.180300e-03
9.030750e-03
-9.917050e-03
-1.004390e-02
-3.724970e-02
-3.453500e-02
3.735950e-03
7.385700e-03
9.030750e-03
8.370950e-03
-1.004390e-02
-1.061310e-02
6.064950e-03
3.735950e-03
3.971410e-02
3.856860e-02
-9.917050e-03
-1.004390e-02
-1.990460e-02
-1.969780e-02
3.735950e-03
7.385700e-03
3.856860e-02
4.147430e-02
-1.004390e-02
-1.061310e-02
-1.969780e-02
-1.857790e-02
0.000000e+00
0.000000e+00
-1.035330e-02
-1.046950e-02
0.000000e+00
0.000000e+00
-1.392740e-02
-1.439190e-02
0.000000e+00
0.000000e+00
-1.046950e-02
-1.021050e-02
0.000000e+00
0.000000e+00
-1.439190e-02
-1.742590e-02
-1.035330e-02
-1.046950e-02
-4.035610e-03
-3.936000e-03
-1.392740e-02
-1.439190e-02
-2.470980e-03
-8.010710e-03
-1.046950e-02
-1.021050e-02
-3.936000e-03
-3.896230e-03
-1.439190e-02
-1.742590e-02
-8.010710e-03
-9.684460e-03
-4.035610e-03
-3.936000e-03