<?xml version="1.0"?>
<VTKFile type="UnstructuredGrid" version="0.1" byte_order="LittleEndian" compressor="vtkZLibDataCompressor">
<UnstructuredGrid>
<Piece NumberOfPoints="960" NumberOfCells="120">
<Points>
<DataArray type="Float32" NumberOfComponents="3" format="ascii">
-4.000000e+02 -6.000000e+03 -4.000000e+02
0.000000e+00 -6.000000e+03 -4.000000e+02
-3.999700e+02 -5.600080e+03 -4.000770e+02
2.178220e-02 -5.600080e+03 -4.000480e+02
-4.000000e+02 -6.000000e+03 0.000000e+00
0.000000e+00 -6.000000e+03 0.000000e+00
-4.000000e+02 -5.600010e+03 -1.134040e-01
4.402890e-05 -5.600010e+03 -8.383380e-02
0.000000e+00 -6.000000e+03 -4.000000e+02
4.000000e+02 -6.000000e+03 -4.000000e+02
2.178220e-02 -5.600080e+03 -4.000480e+02
4.000140e+02 -5.600080e+03 -4.000330e+02
0.000000e+00 -6.000000e+03 0.000000e+00
4.000000e+02 -6.000000e+03 0.000000e+00
4.402890e-05 -5.600010e+03 -8.383380e-02
4.000000e+02 -5.600010e+03 -6.974190e-02
-3.999700e+02 -5.600080e+03 -4.000770e+02
2.178220e-02 -5.600080e+03 -4.000480e+02
-3.999680e+02 -5.200190e+03 -4.002150e+02
2.389380e-02 -5.200180e+03 -4.001850e+02
-4.000000e+02 -5.600010e+03 -1.134040e-01
4.402890e-05 -5.600010e+03 -8.383380e-02
-4.000000e+02 -5.200000e+03 -2.869890e-01
-1.327540e-04 -5.200000e+03 -2.564700e-01
2.178220e-02 -5.600080e+03 -4.000480e+02
4.000140e+02 -5.600080e+03 -4.000330e+02
2.389380e-02 -5.200180e+03 -4.001850e+02
4.000160e+02 -5.200180e+03 -4.001670e+02
4.402890e-05 -5.600010e+03 -8.383380e-02
4.000000e+02 -5.600010e+03 -6.974190e-02
-1.327540e-04 -5.200000e+03 -2.564700e-01
4.000000e+02 -5.200000e+03 -2.394020e-01
-3.999680e+02 -5.200190e+03 -4.002150e+02
2.389380e-02 -5.200180e+03 -4.001850e+02
-3.999960e+02 -4.800290e+03 -4.004780e+02
5.760830e-03 -4.800280e+03 -4.004720e+02
-4.000000e+02 -5.200000e+03 -2.869890e-01
-1.327540e-04 -5.200000e+03 -2.564700e-01
-3.999990e+02 -4.799980e+03 -5.304980e-01
6.432320e-04 -4.799980e+03 -5.219430e-01
2.389380e-02 -5.200180e+03 -4.001850e+02
4.000160e+02 -5.200180e+03 -4.001670e+02
5.760830e-03 -4.800280e+03 -4.004720e+02
4.000070e+02 -4.800280e+03 -4.004610e+02
-1.327540e-04 -5.200000e+03 -2.564700e-01
4.000000e+02 -5.200000e+03 -2.394020e-01
6.432320e-04 -4.799980e+03 -5.219430e-01
4.000000e+02 -4.799980e+03 -5.101700e-01
-3.999960e+02 -4.800290e+03 -4.004780e+02
5.760830e-03 -4.800280e+03 -4.004720e+02
-4.000240e+02 -4.400350e+03 -4.008260e+02
-1.327470e-02 -4.400340e+03 -4.008430e+02
-3.999990e+02 -4.799980e+03 -5.304980e-01
6.432320e-04 -4.799980e+03 -5.219430e-01
-3.999980e+02 -4.399980e+03 -8.192400e-01
1.624270e-03 -4.399980e+03 -8.320770e-01
5.760830e-03 -4.800280e+03 -4.004720e+02
4.000070e+02 -4.800280e+03 -4.004610e+02
-1.327470e-02 -4.400340e+03 -4.008430e+02
3.999970e+02 -4.400340e+03 -4.008430e+02
6.432320e-04 -4.799980e+03 -5.219430e-01
4.000000e+02 -4.799980e+03 -5.101700e-01
1.624270e-03 -4.399980e+03 -8.320770e-01
4.000010e+02 -4.399980e+03 -8.276980e-01
-4.000240e+02 -4.400350e+03 -4.008260e+02
-1.327470e-02 -4.400340e+03 -4.008430e+02
-4.000310e+02 -4.000360e+03 -4.012040e+02
-2.088940e-02 -4.000370e+03 -4.012290e+02
-3.999980e+02 -4.399980e+03 -8.192400e-01
1.624270e-03 -4.399980e+03 -8.320770e-01
-3.999980e+02 -4.000000e+03 -1.164760e+00
1.516070e-03 -4.000000e+03 -1.184900e+00
-1.327470e-02 -4.400340e+03 -4.008430e+02
3.999970e+02 -4.400340e+03 -4.008430e+02
-2.088940e-02 -4.000370e+03 -4.012290e+02
3.999900e+02 -4.000370e+03 -4.012360e+02
1.624270e-03 -4.399980e+03 -8.320770e-01
4.000010e+02 -4.399980e+03 -8.276980e-01
1.516070e-03 -4.000000e+03 -1.184900e+00
4.000010e+02 -4.000000e+03 -1.188810e+00
-4.000310e+02 -4.000360e+03 -4.012040e+02
-2.088940e-02 -4.000370e+03 -4.012290e+02
-4.000210e+02 -3.600340e+03 -4.015710e+02
-2.145150e-02 -3.600350e+03 -4.015900e+02
-3.999980e+02 -4.000000e+03 -1.164760e+00
1.516070e-03 -4.000000e+03 -1.184900e+00
-3.999980e+02 -3.600020e+03 -1.553750e+00
1.064710e-03 -3.600020e+03 -1.567870e+00
-2.088940e-02 -4.000370e+03 -4.012290e+02
3.999900e+02 -4.000370e+03 -4.012360e+02
-2.145150e-02 -3.600350e+03 -4.015900e+02
3.999790e+02 -3.600350e+03 -4.016050e+02
1.516070e-03 -4.000000e+03 -1.184900e+00
4.000010e+02 -4.000000e+03 -1.188810e+00
1.064710e-03 -3.600020e+03 -1.567870e+00
4.000000e+02 -3.600020e+03 -1.581380e+00
-4.000210e+02 -3.600340e+03 -4.015710e+02
-2.145150e-02 -3.600350e+03 -4.015900e+02
-4.000100e+02 -3.200330e+03 -4.018880e+02
-1.764070e-02 -3.200340e+03 -4.018980e+02
-3.999980e+02 -3.600020e+03 -1.553750e+00
1.064710e-03 -3.600020e+03 -1.567870e+00
-3.999990e+02 -3.200010e+03 -1.916610e+00
5.564340e-04 -3.200010e+03 -1.924440e+00
-2.145150e-02 -3.600350e+03 -4.015900e+02
3.999790e+02 -3.600350e+03 -4.016050e+02
-1.764070e-02 -3.200340e+03 -4.018980e+02
3.999750e+02 -3.200340e+03 -4.019180e+02
1.064710e-03 -3.600020e+03 -1.567870e+00
4.000000e+02 -3.600020e+03 -1.581380e+00
5.564340e-04 -3.200010e+03 -1.924440e+00
4.000000e+02 -3.200010e+03 -1.944040e+00
-4.000100e+02 -3.200330e+03 -4.018880e+02
-1.764070e-02 -3.200340e+03 -4.018980e+02
-4.000060e+02 -2.800360e+03 -4.022430e+02
-9.910370e-03 -2.800360e+03 -4.022490e+02
-3.999990e+02 -3.200010e+03 -1.916610e+00
5.564340e-04 -3.200010e+03 -1.924440e+00
-3.999990e+02 -2.800000e+03 -2.284100e+00
-2.134770e-04 -2.800000e+03 -2.290000e+00
-1.764070e-02 -3.200340e+03 -4.018980e+02
3.999750e+02 -3.200340e+03 -4.019180e+02
-9.910370e-03 -2.800360e+03 -4.022490e+02
3.999860e+02 -2.800360e+03 -4.022630e+02
5.564340e-04 -3.200010e+03 -1.924440e+00
4.000000e+02 -3.200010e+03 -1.944040e+00
-2.134770e-04 -2.800000e+03 -2.290000e+00
3.999990e+02 -2.800000e+03 -2.306010e+00
-4.000060e+02 -2.800360e+03 -4.022430e+02
-9.910370e-03 -2.800360e+03 -4.022490e+02
-4.000080e+02 -2.400370e+03 -4.026480e+02
-1.874100e-03 -2.400370e+03 -4.026570e+02
-3.999990e+02 -2.800000e+03 -2.284100e+00
-2.134770e-04 -2.800000e+03 -2.290000e+00
-4.000000e+02 -2.399990e+03 -2.660210e+00
-7.145860e-04 -2.399990e+03 -2.667420e+00
-9.910370e-03 -2.800360e+03 -4.022490e+02
3.999860e+02 -2.800360e+03 -4.022630e+02
-1.874100e-03 -2.400370e+03 -4.026570e+02
4.000040e+02 -2.400380e+03 -4.026550e+02
-2.134770e-04 -2.800000e+03 -2.290000e+00
3.999990e+02 -2.800000e+03 -2.306010e+00
-7.145860e-04 -2.399990e+03 -2.667420e+00
3.999990e+02 -2.399990e+03 -2.667440e+00
-4.000080e+02 -2.400370e+03 -4.026480e+02
-1.874100e-03 -2.400370e+03 -4.026570e+02
-4.000070e+02 -2.000370e+03 -4.030290e+02
3.984630e-03 -2.000370e+03 -4.030320e+02
-4.000000e+02 -2.399990e+03 -2.660210e+00
-7.145860e-04 -2.399990e+03 -2.667420e+00
-4.000000e+02 -1.999990e+03 -3.004400e+00
-3.041120e-04 -1.999990e+03 -3.007010e+00
-1.874100e-03 -2.400370e+03 -4.026570e+02
4.000040e+02 -2.400380e+03 -4.026550e+02
3.984630e-03 -2.000370e+03 -4.030320e+02
4.000150e+02 -2.000380e+03 -4.030160e+02
-7.145860e-04 -2.399990e+03 -2.667420e+00
3.999990e+02 -2.399990e+03 -2.667440e+00
-3.041120e-04 -1.999990e+03 -3.007010e+00
4.000000e+02 -1.999990e+03 -2.992320e+00
-4.000070e+02 -2.000370e+03 -4.030290e+02
3.984630e-03 -2.000370e+03 -4.030320e+02
-3.999940e+02 -1.600360e+03 -4.034080e+02
1.223460e-02 -1.600370e+03 -4.033960e+02
-4.000000e+02 -1.999990e+03 -3.004400e+00
-3.041120e-04 -1.999990e+03 -3.007010e+00
-4.000000e+02 -1.600010e+03 -3.377770e+00
-2.411550e-04 -1.600010e+03 -3.367940e+00
3.984630e-03 -2.000370e+03 -4.030320e+02
4.000150e+02 -2.000380e+03 -4.030160e+02
1.223460e-02 -1.600370e+03 -4.033960e+02
4.000180e+02 -1.600370e+03 -4.033740e+02
-3.041120e-04 -1.999990e+03 -3.007010e+00
4.000000e+02 -1.999990e+03 -2.992320e+00
-2.411550e-04 -1.600010e+03 -3.367940e+00
4.000000e+02 -1.600010e+03 -3.347470e+00
-3.999940e+02 -1.600360e+03 -4.034080e+02
1.223460e-02 -1.600370e+03 -4.033960e+02
-3.999740e+02 -1.200330e+03 -4.037690e+02
2.054910e-02 -1.200340e+03 -4.037420e+02
-4.000000e+02 -1.600010e+03 -3.377770e+00
-2.411550e-04 -1.600010e+03 -3.367940e+00
-4.000000e+02 -1.200010e+03 -3.771200e+00
-1.189240e-04 -1.200010e+03 -3.746130e+00
1.223460e-02 -1.600370e+03 -4.033960e+02
4.000180e+02 -1.600370e+03 -4.033740e+02
2.054910e-02 -1.200340e+03 -4.037420e+02
4.000160e+02 -1.200340e+03 -4.037240e+02
-2.411550e-04 -1.600010e+03 -3.367940e+00
4.000000e+02 -1.600010e+03 -3.347470e+00
-1.189240e-04 -1.200010e+03 -3.746130e+00
4.000000e+02 -1.200010e+03 -3.728640e+00
-3.999740e+02 -1.200330e+03 -4.037690e+02
2.054910e-02 -1.200340e+03 -4.037420e+02
-3.999680e+02 -8.003150e+02 -4.040760e+02
2.078450e-02 -8.003150e+02 -4.040470e+02
-4.000000e+02 -1.200010e+03 -3.771200e+00
-1.189240e-04 -1.200010e+03 -3.746130e+00
-4.000000e+02 -8.000060e+02 -4.110140e+00
-1.110920e-04 -8.000070e+02 -4.080730e+00
2.054910e-02 -1.200340e+03 -4.037420e+02
4.000160e+02 -1.200340e+03 -4.037240e+02
2.078450e-02 -8.003150e+02 -4.040470e+02
4.000090e+02 -8.003170e+02 -4.040340e+02
-1.189240e-04 -1.200010e+03 -3.746130e+00
4.000000e+02 -1.200010e+03 -3.728640e+00
-1.110920e-04 -8.000070e+02 -4.080730e+00
4.000000e+02 -8.000060e+02 -4.068210e+00
-3.999680e+02 -8.003150e+02 -4.040760e+02
2.078450e-02 -8.003150e+02 -4.040470e+02
-3.999810e+02 -4.003320e+02 -4.043970e+02
1.392360e-02 -4.003280e+02 -4.043790e+02
-4.000000e+02 -8.000060e+02 -4.110140e+00
-1.110920e-04 -8.000070e+02 -4.080730e+00
-4.000010e+02 -3.999930e+02 -4.423920e+00
-6.608420e-04 -3.999940e+02 -4.407610e+00
2.078450e-02 -8.003150e+02 -4.040470e+02
4.000090e+02 -8.003170e+02 -4.040340e+02
1.392360e-02 -4.003280e+02 -4.043790e+02
4.000080e+02 -4.003340e+02 -4.043700e+02
-1.110920e-04 -8.000070e+02 -4.080730e+00
4.000000e+02 -8.000060e+02 -4.068210e+00
-6.608420e-04 -3.999940e+02 -4.407610e+00
4.000000e+02 -3.999930e+02 -4.398600e+00
-3.999810e+02 -4.003320e+02 -4.043970e+02
1.392360e-02 -4.003280e+02 -4.043790e+02
-4.000010e+02 -3.601730e-01 -4.047380e+02
3.625860e-03 -3.573440e-01 -4.047370e+02
-4.000010e+02 -3.999930e+02 -4.423920e+00
-6.608420e-04 -3.999940e+02 -4.407610e+00
-4.000020e+02 8.055030e-03 -4.732300e+00
-7.509950e-04 8.481050e-03 -4.735740e+00
1.392360e-02 -4.003280e+02 -4.043790e+02
4.000080e+02 -4.003340e+02 -4.043700e+02
[...]
<PointData>
<DataArray type="Float32" Name="V1" format="ascii">
0.000000e+00
0.000000e+00
1.294340e-02
6.696450e-03
0.000000e+00
0.000000e+00
1.210760e-03
1.180610e-03
0.000000e+00
0.000000e+00
6.696450e-03
4.434440e-04
0.000000e+00
0.000000e+00
1.180610e-03
1.155960e-03
1.294340e-02
6.696450e-03
1.201500e-02
4.676100e-03
1.210760e-03
1.180610e-03
6.660760e-04
1.437480e-03
6.696450e-03
4.434440e-04
4.676100e-03
-2.666840e-03
1.180610e-03
1.155960e-03
1.437480e-03
2.206560e-03
1.201500e-02
4.676100e-03
2.308610e-04
-1.805080e-03
6.660760e-04
1.437480e-03
-5.374800e-04
1.123570e-03
4.676100e-03
-2.666840e-03
-1.805080e-03
-3.844130e-03
1.437480e-03
2.206560e-03
1.123570e-03
2.779110e-03
2.308610e-04
-1.805080e-03
-9.922830e-03
-7.638770e-03
-5.374800e-04
1.123570e-03
-1.246870e-03
6.736600e-04
-1.805080e-03
-3.844130e-03
-7.638770e-03
-5.351540e-03
1.123570e-03
2.779110e-03
6.736600e-04
2.594830e-03
-9.922830e-03
-7.638770e-03
-1.374150e-02
-9.364610e-03
-1.246870e-03
6.736600e-04
4.303530e-04
5.301880e-04
-7.638770e-03
-5.351540e-03
-9.364610e-03
-5.001820e-03
6.736600e-04
2.594830e-03
5.301880e-04
6.146170e-04
-1.374150e-02
-9.364610e-03
-5.260280e-03
-6.745680e-03
4.303530e-04
5.301880e-04
2.629740e-03
1.115720e-03
-9.364610e-03
-5.001820e-03
-6.745680e-03
-8.247250e-03
5.301880e-04
6.146170e-04
1.115720e-03
-4.151900e-04
-5.260280e-03
-6.745680e-03
5.385240e-03
-3.896900e-03
2.629740e-03
1.115720e-03
1.291610e-03
8.414470e-04
-6.745680e-03
-8.247250e-03
-3.896900e-03
-1.319990e-02
1.115720e-03
-4.151900e-04
8.414470e-04
3.764980e-04
5.385240e-03
-3.896900e-03
6.641550e-03
2.087570e-04
1.291610e-03
8.414470e-04
-5.860550e-04
5.856580e-04
-3.896900e-03
-1.319990e-02
2.087570e-04
-6.248850e-03
8.414470e-04
3.764980e-04
5.856580e-04
1.736990e-03
6.641550e-03
2.087570e-04
3.681270e-03
6.636060e-03
-5.860550e-04
5.856580e-04
-2.306760e-03
-1.050100e-03
2.087570e-04
-6.248850e-03
6.636060e-03
9.568350e-03
5.856580e-04
1.736990e-03
-1.050100e-03
1.856640e-04
3.681270e-03
6.636060e-03
4.227790e-04
9.268250e-03
-2.306760e-03
-1.050100e-03
-2.681960e-03
-2.099690e-03
6.636060e-03
9.568350e-03
9.268250e-03
1.809390e-02
-1.050100e-03
1.856640e-04
-2.099690e-03
-1.535220e-03
4.227790e-04
9.268250e-03
3.076190e-03
7.738630e-03
-2.681960e-03
-2.099690e-03
-2.572110e-05
-4.533940e-04
9.268250e-03
1.809390e-02
7.738630e-03
1.239010e-02
-2.099690e-03
-1.535220e-03
-4.533940e-04
-8.934950e-04
3.076190e-03
7.738630e-03
1.235470e-02
5.603370e-03
-2.572110e-05
-4.533940e-04
1.789000e-03
6.222920e-04
7.738630e-03
1.239010e-02
5.603370e-03
-1.154860e-03
-4.533940e-04
-8.934950e-04
6.222920e-04
-5.523010e-04
1.235470e-02
5.603370e-03
8.888120e-03
7.659180e-04
1.789000e-03
6.222920e-04
1.956560e-03
1.144680e-03
5.603370e-03
-1.154860e-03
7.659180e-04
-7.360920e-03
6.222920e-04
-5.523010e-04
1.144680e-03
3.303570e-04
8.888120e-03
7.659180e-04
-4.122240e-03
-7.052080e-03
1.956560e-03
1.144680e-03
1.479930e-03
1.326020e-03
7.659180e-04
-7.360920e-03
-7.052080e-03
-9.996110e-03
1.144680e-03
3.303570e-04
1.326020e-03
1.161920e-03
-4.122240e-03
-7.052080e-03
-2.195540e-02
-1.229340e-02
1.479930e-03
1.326020e-03
-4.281080e-04
2.360620e-04
-7.052080e-03
-9.996110e-03
-1.229340e-02
-2.647900e-03
1.326020e-03
1.161920e-03
2.360620e-04
8.850140e-04
-2.195540e-02
-1.229340e-02
-1.875470e-02
-9.092810e-03
-4.281080e-04
2.360620e-04
-1.016520e-03
-4.447200e-04
-1.229340e-02
-2.647900e-03
-9.092810e-03
5.586440e-04
2.360620e-04
8.850140e-04
-4.447200e-04
1.143510e-04
-1.875470e-02
-9.092810e-03
-1.562450e-03
1.674770e-03
-1.016520e-03
-4.447200e-04
-6.398810e-05
-3.546440e-04
-9.092810e-03
5.586440e-04
1.674770e-03
4.907940e-03
-4.447200e-04
1.143510e-04
-3.546440e-04
-6.503330e-04
-1.562450e-03
1.674770e-03
1.887670e-02
9.593470e-03
-6.398810e-05
-3.546440e-04
9.816710e-04
6.884460e-04
1.674770e-03
4.907940e-03
9.593470e-03
3.177980e-04
-3.546440e-04
-6.503330e-04
6.884460e-04
4.048450e-04
1.887670e-02
9.593470e-03
2.129370e-02
1.116690e-02
9.816710e-04
6.884460e-04
-2.167900e-04
9.423550e-05
9.593470e-03
3.177980e-04
1.116690e-02
1.048690e-03
6.884460e-04
4.048450e-04
9.423550e-05
4.156360e-04
2.129370e-02
1.116690e-02
5.484460e-03
4.684690e-03
-2.167900e-04
9.423550e-05
-3.688110e-04
4.970140e-04
1.116690e-02
1.048690e-03
4.684690e-03
3.896800e-03
9.423550e-05
4.156360e-04
4.970140e-04
1.376040e-03
5.484460e-03
4.684690e-03
-7.392210e-03
-1.018850e-04
-3.688110e-04
4.970140e-04
-1.981240e-03
-7.508910e-04
4.684690e-03
3.896800e-03
-1.018850e-04
7.201220e-03
4.970140e-04
1.376040e-03
-7.508910e-04
4.948980e-04
-7.392210e-03
-1.018850e-04
-5.169810e-03
4.451440e-04
-1.981240e-03
-7.508910e-04
-2.739310e-03
-1.548020e-03
-1.018850e-04
7.201220e-03
4.451440e-04
6.080810e-03
-7.508910e-04
4.948980e-04
-1.548020e-03
-3.360750e-04
-5.169810e-03
4.451440e-04
-3.483820e-04
-1.608570e-03
-2.739310e-03
-1.548020e-03
-2.700590e-04
-6.694660e-04
4.451440e-04
6.080810e-03
-1.608570e-03
-2.847540e-03
-1.548020e-03
-3.360750e-04
-6.694660e-04
-1.051290e-03
-3.483820e-04
-1.608570e-03
1.238430e-03
-7.727970e-03
-2.700590e-04
-6.694660e-04
1.876600e-03
4.446470e-04
-1.608570e-03
-2.847540e-03
-7.727970e-03
-1.666580e-02
-6.694660e-04
-1.051290e-03
4.446470e-04
-9.651100e-04
1.238430e-03
-7.727970e-03
-1.751580e-03
-7.537080e-03
1.876600e-03
4.446470e-04
2.479410e-03
1.510650e-03
-7.727970e-03
-1.666580e-02
-7.537080e-03
-1.329160e-02
4.446470e-04
-9.651100e-04
1.510650e-03
5.694200e-04
-1.751580e-03
-7.537080e-03
-4.608050e-03
-1.663830e-03
2.479410e-03
1.510650e-03
6.225490e-04
6.007610e-04
-7.537080e-03
-1.329160e-02
-1.663830e-03
1.308850e-03
1.510650e-03
5.694200e-04
6.007610e-04
6.071830e-04
-4.608050e-03
-1.663830e-03
-1.057800e-02
-1.650550e-03
6.225490e-04
6.007610e-04
-1.298110e-03
-4.725230e-05
-1.663830e-03
1.308850e-03
-1.650550e-03
7.311870e-03
6.007610e-04
6.071830e-04
-4.725230e-05
1.237280e-03
-1.057800e-02
-1.650550e-03
-9.053660e-03
-2.351240e-03
-1.298110e-03
-4.725230e-05
-8.262880e-04
2.228060e-05
-1.650550e-03
7.311870e-03
-2.351240e-03
4.392900e-03
-4.725230e-05
1.237280e-03
2.228060e-05
9.096040e-04
-9.053660e-03
-2.351240e-03
7.782060e-03
2.944860e-03
-8.262880e-04
2.228060e-05
2.048310e-03
9.816130e-04
-2.351240e-03
4.392900e-03
2.944860e-03
-1.863890e-03
2.228060e-05
9.096040e-04
9.816130e-04
-5.567120e-05
7.782060e-03
2.944860e-03
2.134480e-02
9.021770e-03
2.048310e-03
9.816130e-04
1.968440e-03
-1.151960e-04
2.944860e-03
-1.863890e-03
9.021770e-03
-3.269680e-03
9.816130e-04
-5.567120e-05
-1.151960e-04
-2.178670e-03
0.000000e+00
0.000000e+00
1.210760e-03
1.180610e-03
0.000000e+00
0.000000e+00
-1.522430e-02
-8.943480e-03
0.000000e+00
0.000000e+00
1.180610e-03
1.155960e-03
0.000000e+00
0.000000e+00
-8.943480e-03
-2.654050e-03
1.210760e-03
1.180610e-03
6.660760e-04
1.437480e-03
-1.522430e-02
-8.943480e-03
-1.350680e-02
-7.744350e-03
1.180610e-03
1.155960e-03
1.437480e-03
2.206560e-03
-8.943480e-03
-2.654050e-03
-7.744350e-03
-1.981200e-03
6.660760e-04
1.437480e-03
-5.374800e-04
1.123570e-03
-1.350680e-02
-7.744350e-03
1.075520e-03
-2.411440e-04
1.437480e-03
2.206560e-03
1.123570e-03
2.779110e-03
-7.744350e-03
-1.981200e-03
-2.411440e-04
-1.564680e-03
-5.374800e-04
1.123570e-03
-1.246870e-03
6.736600e-04
1.075520e-03
-2.411440e-04
1.233250e-02
6.230200e-03
1.123570e-03
2.779110e-03
6.736600e-04
2.594830e-03
-2.411440e-04
-1.564680e-03
6.230200e-03
1.263970e-04
-1.246870e-03
6.736600e-04
4.303530e-04
5.301880e-04
1.233250e-02
6.230200e-03
1.286910e-02
8.305190e-03
6.736600e-04
2.594830e-03
5.301880e-04
6.146170e-04
6.230200e-03
1.263970e-04
8.305190e-03
3.723640e-03
4.303530e-04
5.301880e-04
2.629740e-03
1.115720e-03
1.286910e-02
8.305190e-03
-5.251590e-05
4.499200e-03
5.301880e-04
6.146170e-04
1.115720e-03
-4.151900e-04
8.305190e-03
3.723640e-03
4.499200e-03
9.035760e-03
2.629740e-03
1.115720e-03
1.291610e-03
8.414470e-04
-5.251590e-05
4.499200e-03
-8.031800e-03
2.191220e-03
1.115720e-03
-4.151900e-04
8.414470e-04
3.764980e-04
4.499200e-03
9.035760e-03
2.191220e-03
1.240100e-02
1.291610e-03
8.414470e-04
-5.860550e-04
5.856580e-04
-8.031800e-03
2.191220e-03
-5.270660e-03
-1.221290e-03
8.414470e-04
3.764980e-04
5.856580e-04
1.736990e-03
2.191220e-03
1.240100e-02
-1.221290e-03
2.807610e-03
-5.860550e-04
5.856580e-04
-2.306760e-03
-1.050100e-03
-5.270660e-03
-1.221290e-03
8.168160e-04
-4.578990e-03
5.856580e-04
1.736990e-03
-1.050100e-03
1.856640e-04
-1.221290e-03
2.807610e-03
-4.578990e-03
-1.000210e-02
-2.306760e-03
-1.050100e-03
-2.681960e-03
-2.099690e-03
8.168160e-04
-4.578990e-03
4.969990e-03
-4.968580e-03
-1.050100e-03
1.856640e-04
-2.099690e-03
-1.535220e-03
-4.578990e-03
-1.000210e-02
-4.968580e-03
-1.492560e-02
-2.681960e-03
-2.099690e-03
-2.572110e-05
-4.533940e-04
4.969990e-03
-4.968580e-03
-3.188800e-03
-6.976950e-03
-2.099690e-03
-1.535220e-03
-4.533940e-04
-8.934950e-04
-4.968580e-03
-1.492560e-02
-6.976950e-03
-1.077490e-02
-2.572110e-05
-4.533940e-04
1.789000e-03
6.222920e-04
-3.188800e-03
-6.976950e-03
-1.585600e-02
-6.766500e-03
-4.533940e-04
-8.934950e-04
6.222920e-04
-5.523010e-04
-6.976950e-03
-1.077490e-02
-6.766500e-03
2.317070e-03
1.789000e-03
6.222920e-04
1.956560e-03
1.144680e-03
-1.585600e-02
-6.766500e-03
-1.271960e-02
-2.983680e-03
6.222920e-04
-5.523010e-04
1.144680e-03
3.303570e-04
-6.766500e-03
2.317070e-03
-2.983680e-03
6.751290e-03
1.956560e-03
1.144680e-03
1.479930e-03
1.326020e-03
-1.271960e-02
-2.983680e-03
1.099570e-03
4.336460e-03
1.144680e-03
3.303570e-04
1.326020e-03
1.161920e-03
-2.983680e-03
6.751290e-03
4.336460e-03
7.563040e-03
1.479930e-03
1.326020e-03
-4.281080e-04
2.360620e-04
1.099570e-03
4.336460e-03
2.288110e-02
1.195540e-02
1.326020e-03
1.161920e-03
2.360620e-04
8.850140e-04
4.336460e-03
7.563040e-03
1.195540e-02
1.015150e-03
-4.281080e-04
2.360620e-04
-1.016520e-03
-4.447200e-04
2.288110e-02
1.195540e-02
2.061580e-02
9.892710e-03
2.360620e-04
8.850140e-04
-4.447200e-04
1.143510e-04
1.195540e-02
1.015150e-03
9.892710e-03
-8.412910e-04
-1.016520e-03
-4.447200e-04
-6.398810e-05
-3.546440e-04
2.061580e-02
9.892710e-03
1.770360e-03
-9.034010e-04
-4.447200e-04
1.143510e-04
-3.546440e-04
-6.503330e-04
9.892710e-03
-8.412910e-04
-9.034010e-04
-3.580420e-03
-6.398810e-05
-3.546440e-04
9.816710e-04
6.884460e-04
1.770360e-03
-9.034010e-04
-2.088690e-02
-1.106750e-02
-3.546440e-04
-6.503330e-04
6.884460e-04
4.048450e-04
-9.034010e-04
-3.580420e-03
-1.106750e-02
-1.235580e-03
9.816710e-04
6.884460e-04
-2.167900e-04
9.423550e-05
-2.088690e-02
-1.106750e-02
-2.086210e-02
-1.138710e-02
6.884460e-04
4.048450e-04
9.423550e-05
4.156360e-04
-1.106750e-02
-1.235580e-03
-1.138710e-02
-1.899760e-03
-2.167900e-04
9.423550e-05
-3.688110e-04
4.970140e-04
-2.086210e-02
-1.138710e-02
-4.659540e-03
-5.615660e-03
9.423550e-05
4.156360e-04
4.970140e-04
1.376040e-03
-1.138710e-02
-1.899760e-03
-5.615660e-03
-6.557140e-03
-3.688110e-04
4.970140e-04
-1.981240e-03
-7.508910e-04
-4.659540e-03
-5.615660e-03
1.122980e-02
1.514120e-03
4.970140e-04
1.376040e-03
-7.508910e-04
4.948980e-04
-5.615660e-03
-6.557140e-03
1.514120e-03
-8.183850e-03
-1.981240e-03
-7.508910e-04
-2.739310e-03
-1.548020e-03
1.122980e-02
1.514120e-03
1.077460e-02
2.732740e-03
-7.508910e-04
4.948980e-04
-1.548020e-03
-3.360750e-04
1.514120e-03
-8.183850e-03
2.732740e-03
-5.286220e-03
-2.739310e-03
-1.548020e-03
-2.700590e-04
-6.694660e-04
1.077460e-02
2.732740e-03
8.467770e-04
2.815600e-03
-1.548020e-03
-3.360750e-04
-6.694660e-04
-1.051290e-03
2.732740e-03
-5.286220e-03
2.815600e-03
4.803420e-03
-2.700590e-04
-6.694660e-04
1.876600e-03
4.446470e-04
8.467770e-04
2.815600e-03
-4.913250e-03
6.849400e-03
-6.694660e-04
-1.051290e-03
4.446470e-04
-9.651100e-04
2.815600e-03
4.803420e-03
6.849400e-03
1.863370e-02
1.876600e-03
4.446470e-04
2.479410e-03
1.510650e-03
-4.913250e-03
6.849400e-03
-3.178520e-03
4.495970e-03
4.446470e-04
-9.651100e-04
1.510650e-03
5.694200e-04
6.849400e-03
1.863370e-02
4.495970e-03
1.219960e-02
2.479410e-03
1.510650e-03
6.225490e-04
6.007610e-04
-3.178520e-03
4.495970e-03
3.383020e-03
4.606820e-04
1.510650e-03
5.694200e-04
6.007610e-04
6.071830e-04
4.495970e-03
1.219960e-02
4.606820e-04
-2.430270e-03
6.225490e-04
6.007610e-04
-1.298110e-03
-4.725230e-05
3.383020e-03
4.606820e-04
1.321890e-02
1.753160e-03
6.007610e-04
6.071830e-04
-4.725230e-05
1.237280e-03
4.606820e-04
-2.430270e-03
1.753160e-03
-9.676030e-03
-1.298110e-03
-4.725230e-05
-8.262880e-04
2.228060e-05
1.321890e-02
1.753160e-03
1.068090e-02
2.195350e-03
-4.725230e-05
1.237280e-03
2.228060e-05
9.096040e-04
1.753160e-03
-9.676030e-03
2.195350e-03
-6.251770e-03
-8.262880e-04
2.228060e-05
2.048310e-03
9.816130e-04
1.068090e-02
2.195350e-03
-1.171500e-02
-4.842400e-03
2.228060e-05
9.096040e-04
9.816130e-04
-5.567120e-05
2.195350e-03
-6.251770e-03
-4.842400e-03
2.062680e-03
2.048310e-03
9.816130e-04
1.968440e-03
-1.151960e-04
-1.171500e-02
-4.842400e-03
-2.543810e-02
-8.966720e-03
9.816130e-04
-5.567120e-05
-1.151960e-04
-2.178670e-03
-4.842400e-03
2.062680e-03
-8.966720e-03
7.524010e-03
</DataArray>
<DataArray type="Float32" Name="V2" format="ascii">
0.000000e+00
0.000000e+00
-3.863050e-02
-3.911820e-02
0.000000e+00
0.000000e+00
-6.492870e-03
-5.686840e-03
0.000000e+00
0.000000e+00
-3.911820e-02
-3.624870e-02
0.000000e+00
0.000000e+00
-5.686840e-03
-5.652070e-03
-3.863050e-02
-3.911820e-02
-3.806170e-02
-3.434360e-02
-6.492870e-03
-5.686840e-03
9.492310e-04
8.113130e-04
-3.911820e-02
-3.624870e-02
-3.434360e-02
-3.207130e-02
-5.686840e-03
-5.652070e-03
8.113130e-04
1.254120e-03
-3.806170e-02
-3.434360e-02
-5.454070e-03
-2.227730e-03
9.492310e-04
8.113130e-04
1.356410e-02
1.366910e-02
-3.434360e-02
-3.207130e-02
-2.227730e-03
-7.703330e-04
8.113130e-04
1.254120e-03
1.366910e-02
1.411670e-02
-5.454070e-03
-2.227730e-03
7.083870e-03
8.541600e-03
1.356410e-02
1.366910e-02
1.572500e-02
1.591810e-02
-2.227730e-03
-7.703330e-04
8.541600e-03
8.624200e-03
1.366910e-02
1.411670e-02
1.591810e-02
1.616940e-02
7.083870e-03
8.541600e-03
2.554920e-02
2.553360e-02
1.572500e-02
1.591810e-02
3.054220e-03
2.329250e-03
8.541600e-03
8.624200e-03
2.553360e-02
2.533410e-02
1.591810e-02
1.616940e-02
2.329250e-03
3.185350e-03
2.554920e-02
2.553360e-02
3.161630e-03
2.285770e-03
3.054220e-03
2.329250e-03
-1.155420e-02
-1.143110e-02
2.553360e-02
2.533410e-02
2.285770e-03
5.036860e-03
2.329250e-03
3.185350e-03
-1.143110e-02
-1.120540e-02
3.161630e-03
2.285770e-03
-3.732950e-02
-3.466780e-02
-1.155420e-02
-1.143110e-02
-1.155840e-02
-1.173410e-02
2.285770e-03
5.036860e-03
-3.466780e-02
-3.238640e-02
-1.143110e-02
-1.120540e-02
-1.173410e-02
-1.303940e-02
-3.732950e-02
-3.466780e-02
-1.412400e-02
-9.873240e-03
-1.155840e-02
-1.173410e-02
1.922630e-03
5.989570e-04
-3.466780e-02
-3.238640e-02
-9.873240e-03
-1.252600e-02
-1.173410e-02
-1.303940e-02
5.989570e-04
-6.681570e-04
-1.412400e-02
-9.873240e-03
5.620020e-03
8.492470e-03
1.922630e-03
5.989570e-04
1.177080e-02
1.162010e-02
-9.873240e-03
-1.252600e-02
8.492470e-03
6.255190e-03
5.989570e-04
-6.681570e-04
1.162010e-02
1.068500e-02
5.620020e-03
8.492470e-03
2.185320e-02
2.177850e-02
1.177080e-02
1.162010e-02
8.504830e-03
8.803130e-03
8.492470e-03
6.255190e-03
2.177850e-02
2.587660e-02
1.162010e-02
1.068500e-02
8.803130e-03
7.651030e-03
2.185320e-02
2.177850e-02
4.209430e-02
3.765960e-02
8.504830e-03
8.803130e-03
-4.041300e-03
-4.365980e-03
2.177850e-02
2.587660e-02
3.765960e-02
4.445940e-02
8.803130e-03
7.651030e-03
-4.365980e-03
-4.728870e-03
4.209430e-02
3.765960e-02
-3.828950e-03
-7.329030e-03
-4.041300e-03
-4.365980e-03
-1.580760e-02
-1.455970e-02
3.765960e-02
4.445940e-02
-7.329030e-03
-5.062870e-03
-4.365980e-03
-4.728870e-03
-1.455970e-02
-1.330120e-02
-3.828950e-03
-7.329030e-03
-3.743520e-02
-3.622290e-02
-1.580760e-02
-1.455970e-02
-1.099960e-02
-1.066190e-02
-7.329030e-03
-5.062870e-03
-3.622290e-02
-3.671880e-02
-1.455970e-02
-1.330120e-02
-1.066190e-02
-8.995820e-03
-3.743520e-02
-3.622290e-02
-1.285190e-02
-8.439750e-03
-1.099960e-02
-1.066190e-02
6.458480e-03
4.986320e-03
-3.622290e-02
-3.671880e-02
-8.439750e-03
-8.503670e-03
-1.066190e-02
-8.995820e-03
4.986320e-03
5.028940e-03
-1.285190e-02
-8.439750e-03
1.123530e-02
1.209900e-02
6.458480e-03
4.986320e-03
1.251890e-02
1.283150e-02
-8.439750e-03
-8.503670e-03
1.209900e-02
1.241550e-02
4.986320e-03
5.028940e-03
1.283150e-02
1.199680e-02
1.123530e-02
1.209900e-02
4.610130e-02
4.388150e-02
1.251890e-02
1.283150e-02
2.934370e-03
3.559010e-03
1.209900e-02
1.241550e-02
4.388150e-02
4.924240e-02
1.283150e-02
1.199680e-02
3.559010e-03
3.483910e-03
4.610130e-02
4.388150e-02
3.892550e-02
3.856530e-02
2.934370e-03
3.559010e-03
-7.807010e-03
-8.146460e-03
4.388150e-02
4.924240e-02
3.856530e-02
4.925660e-02
3.559010e-03
3.483910e-03
-8.146460e-03
-8.267740e-03
3.892550e-02
3.856530e-02
-3.133540e-02
-3.184760e-02
-7.807010e-03
-8.146460e-03
-7.885260e-03
-7.105680e-03
3.856530e-02
4.925660e-02
-3.184760e-02
-2.860910e-02
-8.146460e-03
-8.267740e-03
-7.105680e-03
-7.470660e-03
-3.133540e-02
-3.184760e-02
-4.766300e-02
-4.713920e-02
-7.885260e-03
-7.105680e-03
2.644230e-03
3.574250e-03
-3.184760e-02
-2.860910e-02
-4.713920e-02
-5.357980e-02
-7.105680e-03
-7.470660e-03
3.574250e-03
3.097140e-03
-4.766300e-02
-4.713920e-02
-2.181150e-02
-1.870880e-02
2.644230e-03
3.574250e-03
1.046550e-02
9.325140e-03
-4.713920e-02
-5.357980e-02
-1.870880e-02
-2.053130e-02
3.574250e-03
3.097140e-03
9.325140e-03
8.046930e-03
-2.181150e-02
-1.870880e-02
6.819750e-03
8.913920e-03
1.046550e-02
9.325140e-03
2.103420e-03
2.056630e-03
-1.870880e-02
-2.053130e-02
8.913920e-03
1.135180e-02
9.325140e-03
8.046930e-03
2.056630e-03
1.737980e-03
6.819750e-03
8.913920e-03
5.000400e-02
5.072850e-02
2.103420e-03
2.056630e-03
-8.327850e-03
-7.549520e-03
8.913920e-03
1.135180e-02
5.072850e-02
5.126640e-02
2.056630e-03
1.737980e-03
-7.549520e-03
-6.005520e-03
5.000400e-02
5.072850e-02
2.569380e-02
2.690830e-02
-8.327850e-03
-7.549520e-03
-7.873980e-03
-8.158110e-03
5.072850e-02
5.126640e-02
2.690830e-02
2.773080e-02
-7.549520e-03
-6.005520e-03
-8.158110e-03
-7.183850e-03
2.569380e-02
2.690830e-02
-2.943550e-02
-3.117290e-02
-7.873980e-03
-8.158110e-03
-2.916990e-03
-1.727810e-03
2.690830e-02
2.773080e-02
-3.117290e-02
-3.451200e-02
-8.158110e-03
-7.183850e-03
-1.727810e-03
-1.874540e-03
-2.943550e-02
-3.117290e-02
-3.268920e-02
-3.683660e-02
-2.916990e-03
-1.727810e-03
3.685870e-03
4.011090e-03
-3.117290e-02
-3.451200e-02
-3.683660e-02
-4.648470e-02
-1.727810e-03
-1.874540e-03
4.011090e-03
4.325830e-03
-3.268920e-02
-3.683660e-02
-3.272950e-02
-3.199160e-02
3.685870e-03
4.011090e-03
5.378620e-03
4.839520e-03
-3.683660e-02
-4.648470e-02
-3.199160e-02
-3.667010e-02
4.011090e-03
4.325830e-03
4.839520e-03
5.290740e-03
-3.272950e-02
-3.199160e-02
-7.457330e-03
-9.253380e-05
5.378620e-03
4.839520e-03
2.597160e-03
1.982150e-03
-3.199160e-02
-3.667010e-02
-9.253380e-05
5.591630e-03
4.839520e-03
5.290740e-03
1.982150e-03
9.798340e-04
-7.457330e-03
-9.253380e-05
3.651180e-02
4.015590e-02
2.597160e-03
1.982150e-03
1.894510e-03
1.416640e-03
-9.253380e-05
5.591630e-03
4.015590e-02
4.959470e-02
1.982150e-03
9.798340e-04
1.416640e-03
7.579140e-04
3.651180e-02
4.015590e-02
2.243590e-03
-1.714660e-03
1.894510e-03
1.416640e-03
3.126990e-03
3.093270e-03
4.015590e-02
4.959470e-02
-1.714660e-03
5.485650e-03
1.416640e-03
7.579140e-04
3.093270e-03
3.260580e-03
2.243590e-03
-1.714660e-03
-4.208670e-02
-4.792030e-02
3.126990e-03
3.093270e-03
5.095410e-03
4.562530e-03
-1.714660e-03
5.485650e-03
-4.792030e-02
-4.206490e-02
3.093270e-03
3.260580e-03
4.562530e-03
4.131820e-03
0.000000e+00
0.000000e+00
-6.492870e-03
-5.686840e-03
0.000000e+00
0.000000e+00
5.126710e-02
5.006070e-02
0.000000e+00
0.000000e+00
-5.686840e-03
-5.652070e-03
0.000000e+00
0.000000e+00
5.006070e-02
4.716860e-02
-6.492870e-03
-5.686840e-03
9.492310e-04
8.113130e-04
5.126710e-02
5.006070e-02
3.581530e-02
3.217210e-02
-5.686840e-03
-5.652070e-03
8.113130e-04
1.254120e-03
5.006070e-02
4.716860e-02
3.217210e-02
2.888810e-02
9.492310e-04
8.113130e-04
1.356410e-02
1.366910e-02
3.581530e-02
3.217210e-02
-2.236820e-02