<?xml version="1.0"?>
<VTKFile type="UnstructuredGrid" version="0.1" byte_order="LittleEndian" compressor="vtkZLibDataCompressor">
<UnstructuredGrid>
<Piece NumberOfPoints="960" NumberOfCells="120">
<Points>
<DataArray type="Float32" NumberOfComponents="3" format="ascii">
-4.000000e+02 -6.000000e+03 -4.000000e+02
0.000000e+00 -6.000000e+03 -4.000000e+02
-3.999720e+02 -5.600340e+03 -4.001380e+02
2.440150e-02 -5.600340e+03 -4.001020e+02
-4.000000e+02 -6.000000e+03 0.000000e+00
0.000000e+00 -6.000000e+03 0.000000e+00
-3.999990e+02 -5.600020e+03 -1.862330e-01
-6.360390e-04 -5.600020e+03 -1.503560e-01
0.000000e+00 -6.000000e+03 -4.000000e+02
4.000000e+02 -6.000000e+03 -4.000000e+02
2.440150e-02 -5.600340e+03 -4.001020e+02
4.000210e+02 -5.600320e+03 -4.000730e+02
0.000000e+00 -6.000000e+03 0.000000e+00
4.000000e+02 -6.000000e+03 0.000000e+00
-6.360390e-04 -5.600020e+03 -1.503560e-01
3.999970e+02 -5.600020e+03 -1.271310e-01
-3.999720e+02 -5.600340e+03 -4.001380e+02
2.440150e-02 -5.600340e+03 -4.001020e+02
-3.999540e+02 -5.200690e+03 -4.005870e+02
4.200440e-02 -5.200690e+03 -4.005260e+02
-3.999990e+02 -5.600020e+03 -1.862330e-01
-6.360390e-04 -5.600020e+03 -1.503560e-01
-3.999990e+02 -5.200010e+03 -6.866910e-01
-6.111430e-04 -5.200010e+03 -6.275910e-01
2.440150e-02 -5.600340e+03 -4.001020e+02
4.000210e+02 -5.600320e+03 -4.000730e+02
4.200440e-02 -5.200690e+03 -4.005260e+02
4.000380e+02 -5.200680e+03 -4.004670e+02
-6.360390e-04 -5.600020e+03 -1.503560e-01
3.999970e+02 -5.600020e+03 -1.271310e-01
-6.111430e-04 -5.200010e+03 -6.275910e-01
3.999980e+02 -5.200010e+03 -5.757990e-01
-3.999540e+02 -5.200690e+03 -4.005870e+02
4.200440e-02 -5.200690e+03 -4.005260e+02
-3.999210e+02 -4.801060e+03 -4.014500e+02
7.570260e-02 -4.801060e+03 -4.013690e+02
-3.999990e+02 -5.200010e+03 -6.866910e-01
-6.111430e-04 -5.200010e+03 -6.275910e-01
-4.000030e+02 -4.799990e+03 -1.548360e+00
-8.447900e-04 -4.799990e+03 -1.472090e+00
4.200440e-02 -5.200690e+03 -4.005260e+02
4.000380e+02 -5.200680e+03 -4.004670e+02
7.570260e-02 -4.801060e+03 -4.013690e+02
4.000720e+02 -4.801050e+03 -4.012880e+02
-6.111430e-04 -5.200010e+03 -6.275910e-01
3.999980e+02 -5.200010e+03 -5.757990e-01
-8.447900e-04 -4.799990e+03 -1.472090e+00
4.000010e+02 -4.799980e+03 -1.389760e+00
-3.999210e+02 -4.801060e+03 -4.014500e+02
7.570260e-02 -4.801060e+03 -4.013690e+02
-3.998920e+02 -4.401400e+03 -4.027670e+02
1.074930e-01 -4.401390e+03 -4.026570e+02
-4.000030e+02 -4.799990e+03 -1.548360e+00
-8.447900e-04 -4.799990e+03 -1.472090e+00
-4.000060e+02 -4.399980e+03 -2.799270e+00
-1.330060e-03 -4.399980e+03 -2.696500e+00
7.570260e-02 -4.801060e+03 -4.013690e+02
4.000720e+02 -4.801050e+03 -4.012880e+02
1.074930e-01 -4.401390e+03 -4.026570e+02
4.001070e+02 -4.401380e+03 -4.025480e+02
-8.447900e-04 -4.799990e+03 -1.472090e+00
4.000010e+02 -4.799980e+03 -1.389760e+00
-1.330060e-03 -4.399980e+03 -2.696500e+00
4.000030e+02 -4.399970e+03 -2.578430e+00
-3.998920e+02 -4.401400e+03 -4.027670e+02
1.074930e-01 -4.401390e+03 -4.026570e+02
-3.998840e+02 -4.001680e+03 -4.043550e+02
1.126850e-01 -4.001680e+03 -4.042310e+02
-4.000060e+02 -4.399980e+03 -2.799270e+00
-1.330060e-03 -4.399980e+03 -2.696500e+00
-4.000040e+02 -4.000000e+03 -4.340780e+00
4.903730e-04 -3.999990e+03 -4.217480e+00
1.074930e-01 -4.401390e+03 -4.026570e+02
4.001070e+02 -4.401380e+03 -4.025480e+02
1.126850e-01 -4.001680e+03 -4.042310e+02
4.001090e+02 -4.001680e+03 -4.041240e+02
-1.330060e-03 -4.399980e+03 -2.696500e+00
4.000030e+02 -4.399970e+03 -2.578430e+00
4.903730e-04 -3.999990e+03 -4.217480e+00
4.000050e+02 -3.999990e+03 -4.093220e+00
-3.998840e+02 -4.001680e+03 -4.043550e+02
1.126850e-01 -4.001680e+03 -4.042310e+02
-3.998780e+02 -3.602000e+03 -4.061500e+02
1.120110e-01 -3.602000e+03 -4.060440e+02
-4.000040e+02 -4.000000e+03 -4.340780e+00
4.903730e-04 -3.999990e+03 -4.217480e+00
-3.999960e+02 -3.600020e+03 -6.135090e+00
6.336770e-03 -3.600010e+03 -6.014460e+00
1.126850e-01 -4.001680e+03 -4.042310e+02
4.001090e+02 -4.001680e+03 -4.041240e+02
1.120110e-01 -3.602000e+03 -4.060440e+02
4.001020e+02 -3.602010e+03 -4.059610e+02
4.903730e-04 -3.999990e+03 -4.217480e+00
4.000050e+02 -3.999990e+03 -4.093220e+00
6.336770e-03 -3.600010e+03 -6.014460e+00
4.000090e+02 -3.600010e+03 -5.911590e+00
-3.998780e+02 -3.602000e+03 -4.061500e+02
1.120110e-01 -3.602000e+03 -4.060440e+02
-3.998750e+02 -3.202360e+03 -4.083270e+02
1.148480e-01 -3.202350e+03 -4.082180e+02
-3.999960e+02 -3.600020e+03 -6.135090e+00
6.336770e-03 -3.600010e+03 -6.014460e+00
-3.999910e+02 -3.200020e+03 -8.354930e+00
8.348630e-03 -3.200020e+03 -8.222660e+00
1.120110e-01 -3.602000e+03 -4.060440e+02
4.001020e+02 -3.602010e+03 -4.059610e+02
1.148480e-01 -3.202350e+03 -4.082180e+02
4.001040e+02 -3.202340e+03 -4.081260e+02
6.336770e-03 -3.600010e+03 -6.014460e+00
4.000090e+02 -3.600010e+03 -5.911590e+00
8.348630e-03 -3.200020e+03 -8.222660e+00
4.000080e+02 -3.200020e+03 -8.111700e+00
-3.998750e+02 -3.202360e+03 -4.083270e+02
1.148480e-01 -3.202350e+03 -4.082180e+02
-3.999080e+02 -2.802630e+03 -4.108340e+02
9.860440e-02 -2.802620e+03 -4.107270e+02
-3.999910e+02 -3.200020e+03 -8.354930e+00
8.348630e-03 -3.200020e+03 -8.222660e+00
-3.999910e+02 -2.800020e+03 -1.088870e+01
7.411880e-03 -2.800020e+03 -1.076090e+01
1.148480e-01 -3.202350e+03 -4.082180e+02
4.001040e+02 -3.202340e+03 -4.081260e+02
9.860440e-02 -2.802620e+03 -4.107270e+02
4.001050e+02 -2.802610e+03 -4.106080e+02
8.348630e-03 -3.200020e+03 -8.222660e+00
4.000080e+02 -3.200020e+03 -8.111700e+00
7.411880e-03 -2.800020e+03 -1.076090e+01
4.000060e+02 -2.800020e+03 -1.062530e+01
-3.999080e+02 -2.802630e+03 -4.108340e+02
9.860440e-02 -2.802620e+03 -4.107270e+02
-3.999740e+02 -2.402760e+03 -4.134890e+02
4.259550e-02 -2.402780e+03 -4.134490e+02
-3.999910e+02 -2.800020e+03 -1.088870e+01
7.411880e-03 -2.800020e+03 -1.076090e+01
-3.999960e+02 -2.400010e+03 -1.350210e+01
3.989220e-03 -2.400010e+03 -1.345390e+01
9.860440e-02 -2.802620e+03 -4.107270e+02
4.001050e+02 -2.802610e+03 -4.106080e+02
4.259550e-02 -2.402780e+03 -4.134490e+02
4.000590e+02 -2.402780e+03 -4.133790e+02
7.411880e-03 -2.800020e+03 -1.076090e+01
4.000060e+02 -2.800020e+03 -1.062530e+01
3.989220e-03 -2.400010e+03 -1.345390e+01
4.000040e+02 -2.400010e+03 -1.337500e+01
-3.999740e+02 -2.402760e+03 -4.134890e+02
4.259550e-02 -2.402780e+03 -4.134490e+02
-4.000740e+02 -2.002830e+03 -4.161830e+02
-6.285240e-02 -2.002840e+03 -4.162590e+02
-3.999960e+02 -2.400010e+03 -1.350210e+01
3.989220e-03 -2.400010e+03 -1.345390e+01
-4.000010e+02 -2.000020e+03 -1.614280e+01
1.558790e-03 -2.000020e+03 -1.621750e+01
4.259550e-02 -2.402780e+03 -4.134490e+02
4.000590e+02 -2.402780e+03 -4.133790e+02
-6.285240e-02 -2.002840e+03 -4.162590e+02
3.999490e+02 -2.002840e+03 -4.163160e+02
3.989220e-03 -2.400010e+03 -1.345390e+01
4.000040e+02 -2.400010e+03 -1.337500e+01
1.558790e-03 -2.000020e+03 -1.621750e+01
4.000040e+02 -2.000020e+03 -1.626480e+01
-4.000740e+02 -2.002830e+03 -4.161830e+02
-6.285240e-02 -2.002840e+03 -4.162590e+02
-4.001300e+02 -1.602840e+03 -4.189020e+02
-1.366960e-01 -1.602840e+03 -4.190260e+02
-4.000010e+02 -2.000020e+03 -1.614280e+01
1.558790e-03 -2.000020e+03 -1.621750e+01
-4.000040e+02 -1.600050e+03 -1.885450e+01
-2.884090e-04 -1.600050e+03 -1.898630e+01
-6.285240e-02 -2.002840e+03 -4.162590e+02
3.999490e+02 -2.002840e+03 -4.163160e+02
-1.366960e-01 -1.602840e+03 -4.190260e+02
3.998560e+02 -1.602840e+03 -4.191700e+02
1.558790e-03 -2.000020e+03 -1.621750e+01
4.000040e+02 -2.000020e+03 -1.626480e+01
-2.884090e-04 -1.600050e+03 -1.898630e+01
4.000040e+02 -1.600050e+03 -1.912080e+01
-4.001300e+02 -1.602840e+03 -4.189020e+02
-1.366960e-01 -1.602840e+03 -4.190260e+02
-4.000930e+02 -1.202820e+03 -4.216620e+02
-1.109430e-01 -1.202820e+03 -4.217610e+02
-4.000040e+02 -1.600050e+03 -1.885450e+01
-2.884090e-04 -1.600050e+03 -1.898630e+01
-4.000050e+02 -1.200070e+03 -2.164740e+01
9.587760e-05 -1.200070e+03 -2.175390e+01
-1.366960e-01 -1.602840e+03 -4.190260e+02
3.998560e+02 -1.602840e+03 -4.191700e+02
-1.109430e-01 -1.202820e+03 -4.217610e+02
3.998710e+02 -1.202830e+03 -4.218970e+02
-2.884090e-04 -1.600050e+03 -1.898630e+01
4.000040e+02 -1.600050e+03 -1.912080e+01
9.587760e-05 -1.200070e+03 -2.175390e+01
4.000050e+02 -1.200070e+03 -2.188140e+01
-4.000930e+02 -1.202820e+03 -4.216620e+02
-1.109430e-01 -1.202820e+03 -4.217610e+02
-4.000390e+02 -8.028380e+02 -4.244630e+02
-4.954120e-02 -8.028280e+02 -4.245180e+02
-4.000050e+02 -1.200070e+03 -2.164740e+01
9.587760e-05 -1.200070e+03 -2.175390e+01
-4.000020e+02 -8.000670e+02 -2.446650e+01
1.262660e-04 -8.000690e+02 -2.452640e+01
-1.109430e-01 -1.202820e+03 -4.217610e+02
3.998710e+02 -1.202830e+03 -4.218970e+02
-4.954120e-02 -8.028280e+02 -4.245180e+02
3.999400e+02 -8.028320e+02 -4.245960e+02
9.587760e-05 -1.200070e+03 -2.175390e+01
4.000050e+02 -1.200070e+03 -2.188140e+01
1.262660e-04 -8.000690e+02 -2.452640e+01
4.000020e+02 -8.000710e+02 -2.460270e+01
-4.000390e+02 -8.028380e+02 -4.244630e+02
-4.954120e-02 -8.028280e+02 -4.245180e+02
-4.000450e+02 -4.028940e+02 -4.272650e+02
-3.834190e-02 -4.028770e+02 -4.273050e+02
-4.000020e+02 -8.000670e+02 -2.446650e+01
1.262660e-04 -8.000690e+02 -2.452640e+01
-4.000020e+02 -4.000730e+02 -2.725710e+01
-1.979250e-03 -4.000740e+02 -2.730230e+01
-4.954120e-02 -8.028280e+02 -4.245180e+02
3.999400e+02 -8.028320e+02 -4.245960e+02
-3.834190e-02 -4.028770e+02 -4.273050e+02
3.999690e+02 -4.028710e+02 -4.273400e+02
1.262660e-04 -8.000690e+02 -2.452640e+01
4.000020e+02 -8.000710e+02 -2.460270e+01
-1.979250e-03 -4.000740e+02 -2.730230e+01
3.999980e+02 -4.000760e+02 -2.734350e+01
-4.000450e+02 -4.028940e+02 -4.272650e+02
-3.834190e-02 -4.028770e+02 -4.273050e+02
-4.000690e+02 -2.985810e+00 -4.301070e+02
-5.229410e-02 -2.981320e+00 -4.301610e+02
-4.000020e+02 -4.000730e+02 -2.725710e+01
-1.979250e-03 -4.000740e+02 -2.730230e+01
-4.000020e+02 -8.823370e-02 -3.009310e+01
-1.277600e-03 -8.825130e-02 -3.015180e+01
-3.834190e-02 -4.028770e+02 -4.273050e+02
3.999690e+02 -4.028710e+02 -4.273400e+02
[...]
<PointData>
<DataArray type="Float32" Name="V1" format="ascii">
0.000000e+00
0.000000e+00
-1.907410e-02
-1.976340e-02
0.000000e+00
0.000000e+00
-3.320890e-03
-4.179620e-04
0.000000e+00
0.000000e+00
-1.976340e-02
-2.088540e-02
0.000000e+00
0.000000e+00
-4.179620e-04
2.274350e-03
-1.907410e-02
-1.976340e-02
-1.319110e-02
-1.106060e-02
-3.320890e-03
-4.179620e-04
-4.575520e-03
-2.902620e-03
-1.976340e-02
-2.088540e-02
-1.106060e-02
-9.288190e-03
-4.179620e-04
2.274350e-03
-2.902620e-03
-1.472740e-03
-1.319110e-02
-1.106060e-02
-4.923050e-03
-5.881660e-03
-4.575520e-03
-2.902620e-03
1.237890e-04
-1.265410e-04
-1.106060e-02
-9.288190e-03
-5.881660e-03
-6.770930e-03
-2.902620e-03
-1.472740e-03
-1.265410e-04
-4.268890e-04
-4.923050e-03
-5.881660e-03
1.349150e-02
1.041200e-02
1.237890e-04
-1.265410e-04
-4.336650e-03
-3.736310e-03
-5.881660e-03
-6.770930e-03
1.041200e-02
7.452060e-03
-1.265410e-04
-4.268890e-04
-3.736310e-03
-3.136690e-03
1.349150e-02
1.041200e-02
2.115320e-02
1.071280e-02
-4.336650e-03
-3.736310e-03
-2.812910e-03
-2.077190e-04
1.041200e-02
7.452060e-03
1.071280e-02
4.166990e-05
-3.736310e-03
-3.136690e-03
-2.077190e-04
2.146130e-03
2.115320e-02
1.071280e-02
-2.941820e-03
-1.878960e-02
-2.812910e-03
-2.077190e-04
-5.541000e-03
-1.327950e-03
1.071280e-02
4.166990e-05
-1.878960e-02
-3.505840e-02
-2.077190e-04
2.146130e-03
-1.327950e-03
2.532710e-03
-2.941820e-03
-1.878960e-02
-3.995330e-02
-4.633640e-02
-5.541000e-03
-1.327950e-03
-3.257490e-03
2.767970e-04
-1.878960e-02
-3.505840e-02
-4.633640e-02
-5.276890e-02
-1.327950e-03
2.532710e-03
2.767970e-04
3.857590e-03
-3.995330e-02
-4.633640e-02
-2.169620e-02
-2.261310e-02
-3.257490e-03
2.767970e-04
-6.884870e-04
-7.913360e-04
-4.633640e-02
-5.276890e-02
-2.261310e-02
-2.334800e-02
2.767970e-04
3.857590e-03
-7.913360e-04
-7.707940e-04
-2.169620e-02
-2.261310e-02
-1.940580e-03
5.468590e-03
-6.884870e-04
-7.913360e-04
8.465220e-04
1.960210e-03
-2.261310e-02
-2.334800e-02
5.468590e-03
1.282880e-02
-7.913360e-04
-7.707940e-04
1.960210e-03
2.911780e-03
-1.940580e-03
5.468590e-03
6.838760e-03
1.525560e-03
8.465220e-04
1.960210e-03
-2.419540e-03
3.296100e-03
5.468590e-03
1.282880e-02
1.525560e-03
-3.860770e-03
1.960210e-03
2.911780e-03
3.296100e-03
8.951880e-03
6.838760e-03
1.525560e-03
-9.950010e-03
-1.732460e-02
-2.419540e-03
3.296100e-03
-3.763420e-03
2.117470e-03
1.525560e-03
-3.860770e-03
-1.732460e-02
-2.469660e-02
3.296100e-03
8.951880e-03
2.117470e-03
7.982690e-03
-9.950010e-03
-1.732460e-02
-1.340430e-02
-2.059260e-02
-3.763420e-03
2.117470e-03
-6.951470e-03
-6.971920e-05
-1.732460e-02
-2.469660e-02
-2.059260e-02
-2.778710e-02
2.117470e-03
7.982690e-03
-6.971920e-05
6.783790e-03
-1.340430e-02
-2.059260e-02
-1.883640e-03
-6.854560e-03
-6.951470e-03
-6.971920e-05
-6.565950e-03
1.582480e-04
-2.059260e-02
-2.778710e-02
-6.854560e-03
-1.195200e-02
-6.971920e-05
6.783790e-03
1.582480e-04
6.948430e-03
-1.883640e-03
-6.854560e-03
3.128540e-04
8.522150e-03
-6.565950e-03
1.582480e-04
-3.961210e-03
2.352660e-03
-6.854560e-03
-1.195200e-02
8.522150e-03
1.658780e-02
1.582480e-04
6.948430e-03
2.352660e-03
8.693680e-03
3.128540e-04
8.522150e-03
2.706540e-03
8.828900e-03
-3.961210e-03
2.352660e-03
-5.181410e-05
7.624270e-03
8.522150e-03
1.658780e-02
8.828900e-03
1.478110e-02
2.352660e-03
8.693680e-03
7.624270e-03
1.516920e-02
2.706540e-03
8.828900e-03
-1.300080e-02
-8.962310e-03
-5.181410e-05
7.624270e-03
1.810220e-03
7.584440e-03
8.828900e-03
1.478110e-02
-8.962310e-03
-4.788240e-03
7.624270e-03
1.516920e-02
7.584440e-03
1.340630e-02
-1.300080e-02
-8.962310e-03
1.111030e-02
-8.574980e-03
1.810220e-03
7.584440e-03
-3.364440e-04
3.963420e-03
-8.962310e-03
-4.788240e-03
-8.574980e-03
-2.780790e-02
7.584440e-03
1.340630e-02
3.963420e-03
8.576190e-03
1.111030e-02
-8.574980e-03
5.500280e-02
2.517950e-02
-3.364440e-04
3.963420e-03
-2.721380e-03
1.207120e-03
-8.574980e-03
-2.780790e-02
2.517950e-02
-4.511990e-03
3.963420e-03
8.576190e-03
1.207120e-03
5.164460e-03
5.500280e-02
2.517950e-02
5.909210e-02
3.975440e-02
-2.721380e-03
1.207120e-03
-2.859940e-03
-1.570850e-03
2.517950e-02
-4.511990e-03
3.975440e-02
2.006280e-02
1.207120e-03
5.164460e-03
-1.570850e-03
-5.275140e-04
5.909210e-02
3.975440e-02
1.094160e-02
2.057820e-02
-2.859940e-03
-1.570850e-03
2.766480e-04
-9.578620e-04
3.975440e-02
2.006280e-02
2.057820e-02
3.010970e-02
-1.570850e-03
-5.275140e-04
-9.578620e-04
-2.191060e-03
1.094160e-02
2.057820e-02
-7.167400e-03
5.407480e-03
2.766480e-04
-9.578620e-04
2.362100e-03
-4.096390e-05
2.057820e-02
3.010970e-02
5.407480e-03
1.797020e-02
-9.578620e-04
-2.191060e-03
-4.096390e-05
-2.426240e-03
-7.167400e-03
5.407480e-03
-1.892000e-02
-1.012770e-02
2.362100e-03
-4.096390e-05
4.475310e-03
9.029390e-04
5.407480e-03
1.797020e-02
-1.012770e-02
-1.366580e-03
-4.096390e-05
-2.426240e-03
9.029390e-04
-2.701910e-03
-1.892000e-02
-1.012770e-02
-2.368310e-02
-3.009320e-02
4.475310e-03
9.029390e-04
4.603730e-03
-6.691460e-04
-1.012770e-02
-1.366580e-03
-3.009320e-02
-3.636590e-02
9.029390e-04
-2.701910e-03
-6.691460e-04
-5.836320e-03
-2.368310e-02
-3.009320e-02
-2.767120e-02
-3.387130e-02
4.603730e-03
-6.691460e-04
1.021750e-02
1.309070e-03
-3.009320e-02
-3.636590e-02
-3.387130e-02
-3.977230e-02
-6.691460e-04
-5.836320e-03
1.309070e-03
-7.547030e-03
-2.767120e-02
-3.387130e-02
5.517310e-03
-6.008080e-03
1.021750e-02
1.309070e-03
7.966560e-03
-1.190590e-03
-3.387130e-02
-3.977230e-02
-6.008080e-03
-1.758660e-02
1.309070e-03
-7.547030e-03
-1.190590e-03
-1.040450e-02
5.517310e-03
-6.008080e-03
1.064090e-02
1.243990e-02
7.966560e-03
-1.190590e-03
1.124710e-03
-3.715620e-03
-6.008080e-03
-1.758660e-02
1.243990e-02
1.427240e-02
-1.190590e-03
-1.040450e-02
-3.715620e-03
-8.391890e-03
1.064090e-02
1.243990e-02
-1.451590e-03
1.238560e-02
1.124710e-03
-3.715620e-03
-1.407010e-03
-5.377440e-03
1.243990e-02
1.427240e-02
1.238560e-02
2.618560e-02
-3.715620e-03
-8.391890e-03
-5.377440e-03
-9.264780e-03
-1.451590e-03
1.238560e-02
1.298840e-02
2.130810e-02
-1.407010e-03
-5.377440e-03
2.741750e-03
-1.700650e-03
1.238560e-02
2.618560e-02
2.130810e-02
2.933760e-02
-5.377440e-03
-9.264780e-03
-1.700650e-03
-6.374310e-03
1.298840e-02
2.130810e-02
1.540800e-02
1.449360e-02
2.741750e-03
-1.700650e-03
4.751640e-03
-1.378220e-03
2.130810e-02
2.933760e-02
1.449360e-02
1.358590e-02
-1.700650e-03
-6.374310e-03
-1.378220e-03
-7.496030e-03
1.540800e-02
1.449360e-02
6.140450e-03
-1.290560e-02
4.751640e-03
-1.378220e-03
3.514600e-03
-2.085030e-03
1.449360e-02
1.358590e-02
-1.290560e-02
-3.133790e-02
-1.378220e-03
-7.496030e-03
-2.085030e-03
-7.373360e-03
0.000000e+00
0.000000e+00
-3.320890e-03
-4.179620e-04
0.000000e+00
0.000000e+00
2.735550e-02
2.251250e-02
0.000000e+00
0.000000e+00
-4.179620e-04
2.274350e-03
0.000000e+00
0.000000e+00
2.251250e-02
1.757130e-02
-3.320890e-03
-4.179620e-04
-4.575520e-03
-2.902620e-03
2.735550e-02
2.251250e-02
2.129550e-02
1.623720e-02
-4.179620e-04
2.274350e-03
-2.902620e-03
-1.472740e-03
2.251250e-02
1.757130e-02
1.623720e-02
1.091030e-02
-4.575520e-03
-2.902620e-03
1.237890e-04
-1.265410e-04
2.129550e-02
1.623720e-02
4.093640e-03
5.413990e-03
-2.902620e-03
-1.472740e-03
-1.265410e-04
-4.268890e-04
1.623720e-02
1.091030e-02
5.413990e-03
6.626080e-03
1.237890e-04
-1.265410e-04
-4.336650e-03
-3.736310e-03
4.093640e-03
5.413990e-03
-3.291140e-03
-1.989030e-03
-1.265410e-04
-4.268890e-04
-3.736310e-03
-3.136690e-03
5.413990e-03
6.626080e-03
-1.989030e-03
-6.679520e-04
-4.336650e-03
-3.736310e-03
-2.812910e-03
-2.077190e-04
-3.291140e-03
-1.989030e-03
-1.563570e-02
-9.358410e-03
-3.736310e-03
-3.136690e-03
-2.077190e-04
2.146130e-03
-1.989030e-03
-6.679520e-04
-9.358410e-03
-3.295630e-03
-2.812910e-03
-2.077190e-04
-5.541000e-03
-1.327950e-03
-1.563570e-02
-9.358410e-03
1.324340e-02
2.094560e-02
-2.077190e-04
2.146130e-03
-1.327950e-03
2.532710e-03
-9.358410e-03
-3.295630e-03
2.094560e-02
2.836560e-02
-5.541000e-03
-1.327950e-03
-3.257490e-03
2.767970e-04
1.324340e-02
2.094560e-02
4.515120e-02
4.481700e-02
-1.327950e-03
2.532710e-03
2.767970e-04
3.857590e-03
2.094560e-02
2.836560e-02
4.481700e-02
4.456810e-02
-3.257490e-03
2.767970e-04
-6.884870e-04
-7.913360e-04
4.515120e-02
4.481700e-02
2.281420e-02
2.360290e-02
2.767970e-04
3.857590e-03
-7.913360e-04
-7.707940e-04
4.481700e-02
4.456810e-02
2.360290e-02
2.437700e-02
-6.884870e-04
-7.913360e-04
8.465220e-04
1.960210e-03
2.281420e-02
2.360290e-02
2.882980e-04
-9.405950e-03
-7.913360e-04
-7.707940e-04
1.960210e-03
2.911780e-03
2.360290e-02
2.437700e-02
-9.405950e-03
-1.928100e-02
8.465220e-04
1.960210e-03
-2.419540e-03
3.296100e-03
2.882980e-04
-9.405950e-03
-3.241850e-04
-5.746060e-03
1.960210e-03
2.911780e-03
3.296100e-03
8.951880e-03
-9.405950e-03
-1.928100e-02
-5.746060e-03
-1.117800e-02
-2.419540e-03
3.296100e-03
-3.763420e-03
2.117470e-03
-3.241850e-04
-5.746060e-03
1.720850e-02
1.192340e-02
3.296100e-03
8.951880e-03
2.117470e-03
7.982690e-03
-5.746060e-03
-1.117800e-02
1.192340e-02
6.558510e-03
-3.763420e-03
2.117470e-03
-6.951470e-03
-6.971920e-05
1.720850e-02
1.192340e-02
2.532910e-02
1.953530e-02
2.117470e-03
7.982690e-03
-6.971920e-05
6.783790e-03
1.192340e-02
6.558510e-03
1.953530e-02
1.366240e-02
-6.951470e-03
-6.971920e-05
-6.565950e-03
1.582480e-04
2.532910e-02
1.953530e-02
1.608470e-02
7.275350e-03
-6.971920e-05
6.783790e-03
1.582480e-04
6.948430e-03
1.953530e-02
1.366240e-02
7.275350e-03
-1.288290e-03
-6.565950e-03
1.582480e-04
-3.961210e-03
2.352660e-03
1.608470e-02
7.275350e-03
5.470970e-03
-1.505630e-02
1.582480e-04
6.948430e-03
2.352660e-03
8.693680e-03
7.275350e-03
-1.288290e-03
-1.505630e-02
-3.540820e-02
-3.961210e-03
2.352660e-03
-5.181410e-05
7.624270e-03
5.470970e-03
-1.505630e-02
-1.651070e-03
-2.264520e-02
2.352660e-03
8.693680e-03
7.624270e-03
1.516920e-02
-1.505630e-02
-3.540820e-02
-2.264520e-02
-4.370310e-02
-5.181410e-05
7.624270e-03
1.810220e-03
7.584440e-03
-1.651070e-03
-2.264520e-02
1.099370e-02
-4.870820e-03
7.624270e-03
1.516920e-02
7.584440e-03
1.340630e-02
-2.264520e-02
-4.370310e-02
-4.870820e-03
-2.080520e-02
1.810220e-03
7.584440e-03
-3.364440e-04
3.963420e-03
1.099370e-02
-4.870820e-03
-1.202570e-02
-1.373210e-03
7.584440e-03
1.340630e-02
3.963420e-03
8.576190e-03
-4.870820e-03
-2.080520e-02
-1.373210e-03
9.352490e-03
-3.364440e-04
3.963420e-03
-2.721380e-03
1.207120e-03
-1.202570e-02
-1.373210e-03
-4.814550e-02
-2.663800e-02
3.963420e-03
8.576190e-03
1.207120e-03
5.164460e-03
-1.373210e-03
9.352490e-03
-2.663800e-02
-5.259480e-03
-2.721380e-03
1.207120e-03
-2.859940e-03
-1.570850e-03
-4.814550e-02
-2.663800e-02
-5.335250e-02
-3.579710e-02
1.207120e-03
5.164460e-03
-1.570850e-03
-5.275140e-04
-2.663800e-02
-5.259480e-03
-3.579710e-02
-1.830320e-02
-2.859940e-03
-1.570850e-03
2.766480e-04
-9.578620e-04
-5.335250e-02
-3.579710e-02
-1.204240e-02
-1.976400e-02
-1.570850e-03
-5.275140e-04
-9.578620e-04
-2.191060e-03
-3.579710e-02
-1.830320e-02
-1.976400e-02
-2.737530e-02
2.766480e-04
-9.578620e-04
2.362100e-03
-4.096390e-05
-1.204240e-02
-1.976400e-02
3.619020e-03
-4.139670e-03
-9.578620e-04
-2.191060e-03
-4.096390e-05
-2.426240e-03
-1.976400e-02
-2.737530e-02
-4.139670e-03
-1.177370e-02
2.362100e-03
-4.096390e-05
4.475310e-03
9.029390e-04
3.619020e-03
-4.139670e-03
8.481840e-03
6.964930e-03
-4.096390e-05
-2.426240e-03
9.029390e-04
-2.701910e-03
-4.139670e-03
-1.177370e-02
6.964930e-03
5.363180e-03
4.475310e-03
9.029390e-04
4.603730e-03
-6.691460e-04
8.481840e-03
6.964930e-03
1.586170e-02
3.251580e-02
9.029390e-04
-2.701910e-03
-6.691460e-04
-5.836320e-03
6.964930e-03
5.363180e-03
3.251580e-02
4.907900e-02
4.603730e-03
-6.691460e-04
1.021750e-02
1.309070e-03
1.586170e-02
3.251580e-02
7.606380e-03
3.206160e-02
-6.691460e-04
-5.836320e-03
1.309070e-03
-7.547030e-03
3.251580e-02
4.907900e-02
3.206160e-02
5.636500e-02
1.021750e-02
1.309070e-03
7.966560e-03
-1.190590e-03
7.606380e-03
3.206160e-02
-2.316370e-02
6.025370e-03
1.309070e-03
-7.547030e-03
-1.190590e-03
-1.040450e-02
3.206160e-02
5.636500e-02
6.025370e-03
3.520570e-02
7.966560e-03
-1.190590e-03
1.124710e-03
-3.715620e-03
-2.316370e-02
6.025370e-03
-1.174900e-02
-3.614020e-03
-1.190590e-03
-1.040450e-02
-3.715620e-03
-8.391890e-03
6.025370e-03
3.520570e-02
-3.614020e-03
4.812270e-03
1.124710e-03
-3.715620e-03
-1.407010e-03
-5.377440e-03
-1.174900e-02
-3.614020e-03
3.319120e-03
-2.938620e-03
-3.715620e-03
-8.391890e-03
-5.377440e-03
-9.264780e-03
-3.614020e-03
4.812270e-03
-2.938620e-03
-8.965810e-03
-1.407010e-03
-5.377440e-03
2.741750e-03
-1.700650e-03
3.319120e-03
-2.938620e-03
-2.031310e-02
-1.878670e-02
-5.377440e-03
-9.264780e-03
-1.700650e-03
-6.374310e-03
-2.938620e-03
-8.965810e-03
-1.878670e-02
-1.747300e-02
2.741750e-03
-1.700650e-03
4.751640e-03
-1.378220e-03
-2.031310e-02
-1.878670e-02
-2.192190e-02
-8.598070e-03
-1.700650e-03
-6.374310e-03
-1.378220e-03
-7.496030e-03
-1.878670e-02
-1.747300e-02
-8.598070e-03
4.772230e-03
4.751640e-03
-1.378220e-03
3.514600e-03
-2.085030e-03
-2.192190e-02
-8.598070e-03
-1.587750e-02
1.355770e-02
-1.378220e-03
-7.496030e-03
-2.085030e-03
-7.373360e-03
-8.598070e-03
4.772230e-03
1.355770e-02
4.303630e-02
</DataArray>
<DataArray type="Float32" Name="V2" format="ascii">
0.000000e+00
0.000000e+00
5.445690e-02
2.253860e-02
0.000000e+00
0.000000e+00
2.550400e-02
2.520000e-02
0.000000e+00
0.000000e+00
2.253860e-02
-9.211010e-03
0.000000e+00
0.000000e+00
2.520000e-02
2.106040e-02
5.445690e-02
2.253860e-02
-9.094610e-03
-2.715570e-02
2.550400e-02
2.520000e-02
2.878550e-02
2.826890e-02
2.253860e-02
-9.211010e-03
-2.715570e-02
-5.861230e-02
2.520000e-02
2.106040e-02
2.826890e-02
2.739320e-02
-9.094610e-03
-2.715570e-02
-4.605390e-02
-5.683610e-02
2.878550e-02
2.826890e-02
-2.333210e-03
-4.106620e-03
-2.715570e-02
-5.861230e-02
-5.683610e-02
-8.451650e-02
2.826890e-02
2.739320e-02
-4.106620e-03
-4.379120e-03
-4.605390e-02
-5.683610e-02
7.781860e-03
-1.732930e-02
-2.333210e-03
-4.106620e-03
-3.361970e-02
-3.474280e-02
-5.683610e-02
-8.451650e-02
-1.732930e-02
-5.257890e-02
-4.106620e-03
-4.379120e-03
-3.474280e-02
-3.113120e-02
7.781860e-03
-1.732930e-02
1.272660e-02
4.494390e-03
-3.361970e-02
-3.474280e-02
-2.965990e-02
-3.055340e-02
-1.732930e-02
-5.257890e-02
4.494390e-03
-2.524520e-03
-3.474280e-02
-3.113120e-02
-3.055340e-02
-2.660350e-02
1.272660e-02
4.494390e-03
4.849910e-03
3.025650e-02
-2.965990e-02
-3.055340e-02
-9.047770e-03
-6.969710e-03
4.494390e-03
-2.524520e-03
3.025650e-02
7.366170e-02
-3.055340e-02
-2.660350e-02
-6.969710e-03
-7.245050e-03
4.849910e-03
3.025650e-02
2.929310e-02
5.477560e-02
-9.047770e-03
-6.969710e-03
8.296000e-03
7.367510e-03
3.025650e-02
7.366170e-02
5.477560e-02
9.089890e-02
-6.969710e-03
-7.245050e-03
7.367510e-03
3.546480e-03
2.929310e-02
5.477560e-02
2.802940e-02
3.414400e-02
8.296000e-03
7.367510e-03
1.718540e-02
1.421000e-02
5.477560e-02
9.089890e-02
3.414400e-02
4.045770e-02
7.367510e-03
3.546480e-03
1.421000e-02
8.586360e-03
2.802940e-02
3.414400e-02
2.201850e-02
2.112920e-02
1.718540e-02
1.421000e-02
-7.062880e-03
-3.438480e-03
3.414400e-02
4.045770e-02
2.112920e-02
2.234890e-02
1.421000e-02
8.586360e-03
-3.438480e-03
-6.919560e-03
2.201850e-02
2.112920e-02
4.527950e-03
5.234030e-03
-7.062880e-03
-3.438480e-03
-3.623670e-02
-3.322260e-02
2.112920e-02
2.234890e-02
5.234030e-03
-5.396770e-03
-3.438480e-03
-6.919560e-03
-3.322260e-02
-3.119080e-02
4.527950e-03
5.234030e-03
-3.935850e-02
-4.244560e-02
-3.623670e-02
-3.322260e-02
-2.972200e-02
-2.711180e-02
5.234030e-03
-5.396770e-03
-4.244560e-02
-6.049100e-02
-3.322260e-02
-3.119080e-02
-2.711180e-02
-2.254160e-02
-3.935850e-02
-4.244560e-02
-4.323190e-02
-4.372640e-02
-2.972200e-02
-2.711180e-02
-2.444330e-03
2.846570e-03
-4.244560e-02
-6.049100e-02
-4.372640e-02
-4.001810e-02
-2.711180e-02
-2.254160e-02
2.846570e-03
3.555420e-03
-4.323190e-02
-4.372640e-02
-3.039650e-02
-1.167860e-02
-2.444330e-03
2.846570e-03
1.910470e-02
2.192030e-02
-4.372640e-02
-4.001810e-02
-1.167860e-02
6.689510e-03
2.846570e-03
3.555420e-03
2.192030e-02
2.268240e-02
-3.039650e-02
-1.167860e-02
-5.075370e-03
1.234840e-02
1.910470e-02
2.192030e-02
2.505360e-02
2.462510e-02
-1.167860e-02
6.689510e-03
1.234840e-02
2.594970e-02
2.192030e-02
2.268240e-02
2.462510e-02
2.138760e-02
-5.075370e-03
1.234840e-02
3.855330e-02
3.590050e-02
2.505360e-02
2.462510e-02
1.163910e-02
9.930530e-03
1.234840e-02
2.594970e-02
3.590050e-02
5.190450e-02
2.462510e-02
2.138760e-02
9.930530e-03
9.576240e-03
3.855330e-02
3.590050e-02
1.112300e-02
-2.424880e-03
1.163910e-02
9.930530e-03
-8.074320e-03
-9.954700e-03
3.590050e-02
5.190450e-02
-2.424880e-03
1.756580e-02
9.930530e-03
9.576240e-03
-9.954700e-03
-5.822520e-03
1.112300e-02
-2.424880e-03
4.507410e-03
-3.357610e-02
-8.074320e-03
-9.954700e-03
-1.254430e-02
-1.150830e-02
-2.424880e-03
1.756580e-02
-3.357610e-02
-5.208800e-02
-9.954700e-03
-5.822520e-03
-1.150830e-02
-1.251630e-02
4.507410e-03
-3.357610e-02
5.108210e-02
1.123580e-02
-1.254430e-02
-1.150830e-02
-6.538830e-03
-4.171950e-03
-3.357610e-02
-5.208800e-02
1.123580e-02
-3.802550e-02
-1.150830e-02
-1.251630e-02
-4.171950e-03
-4.318030e-03
5.108210e-02
1.123580e-02
3.323010e-02
8.041390e-03
-6.538830e-03
-4.171950e-03
-1.000700e-02
-1.067050e-02
1.123580e-02
-3.802550e-02
8.041390e-03
-4.214000e-02
-4.171950e-03
-4.318030e-03
-1.067050e-02
-1.290580e-02
3.323010e-02
8.041390e-03
1.095790e-02
-1.154050e-02
-1.000700e-02
-1.067050e-02
-9.316260e-03
-9.643490e-03
8.041390e-03
-4.214000e-02
-1.154050e-02
-4.007530e-02
-1.067050e-02
-1.290580e-02
-9.643490e-03
-1.441540e-02
1.095790e-02
-1.154050e-02
-8.149350e-04
-5.341570e-03
-9.316260e-03
-9.643490e-03
1.142010e-02
1.116320e-02
-1.154050e-02
-4.007530e-02
-5.341570e-03
-3.307180e-03
-9.643490e-03
-1.441540e-02
1.116320e-02
9.307490e-03
-8.149350e-04
-5.341570e-03
-7.710590e-02
-4.384610e-02
1.142010e-02
1.116320e-02
4.774450e-03
5.597480e-03
-5.341570e-03
-3.307180e-03
-4.384610e-02
-1.724090e-02
1.116320e-02
9.307490e-03
5.597480e-03
5.153060e-03
-7.710590e-02
-4.384610e-02
-4.996640e-02
-2.265240e-02
4.774450e-03
5.597480e-03
-1.350880e-02
-1.317300e-02
-4.384610e-02
-1.724090e-02
-2.265240e-02
-5.276560e-03
5.597480e-03
5.153060e-03
-1.317300e-02
-1.315480e-02
-4.996640e-02
-2.265240e-02
7.928030e-02
7.053070e-02
-1.350880e-02
-1.317300e-02
-1.104500e-02
-1.380380e-02
-2.265240e-02
-5.276560e-03
7.053070e-02
5.458220e-02
-1.317300e-02
-1.315480e-02
-1.380380e-02
-1.319260e-02
7.928030e-02
7.053070e-02
1.067860e-01
9.091430e-02
-1.104500e-02
-1.380380e-02
-3.433920e-03
-3.328070e-03
7.053070e-02
5.458220e-02
9.091430e-02
6.647230e-02
-1.380380e-02
-1.319260e-02
-3.328070e-03
-3.174090e-03
1.067860e-01
9.091430e-02
4.789170e-02
5.632030e-02
-3.433920e-03
-3.328070e-03
7.928130e-03
6.515020e-03
9.091430e-02
6.647230e-02
5.632030e-02
4.830830e-02
-3.328070e-03
-3.174090e-03
6.515020e-03
5.682850e-03
4.789170e-02
5.632030e-02
1.783120e-02
1.189520e-02
7.928130e-03
6.515020e-03
1.313340e-02
1.668140e-02
5.632030e-02
4.830830e-02
1.189520e-02
1.490760e-03
6.515020e-03
5.682850e-03
1.668140e-02
1.665070e-02
1.783120e-02
1.189520e-02
-9.855510e-03
-2.827970e-02
1.313340e-02
1.668140e-02
1.460660e-02
1.653220e-02
1.189520e-02
1.490760e-03
-2.827970e-02
-4.555860e-02
1.668140e-02
1.665070e-02
1.653220e-02
1.458370e-02
-9.855510e-03
-2.827970e-02
8.667290e-03
6.631590e-03
1.460660e-02
1.653220e-02
-8.099810e-03
-1.146310e-02
-2.827970e-02
-4.555860e-02
6.631590e-03
1.263990e-02
1.653220e-02
1.458370e-02
-1.146310e-02
-1.522950e-02
8.667290e-03
6.631590e-03
4.392610e-02
5.167370e-02
-8.099810e-03
-1.146310e-02
-3.264570e-02
-3.086230e-02
6.631590e-03
1.263990e-02
5.167370e-02
8.342660e-02
-1.146310e-02
-1.522950e-02
-3.086230e-02
-3.196260e-02
0.000000e+00
0.000000e+00
2.550400e-02
2.520000e-02
0.000000e+00
0.000000e+00
-1.000390e-01
-7.551250e-02
0.000000e+00
0.000000e+00
2.520000e-02
2.106040e-02
0.000000e+00
0.000000e+00
-7.551250e-02
-4.480380e-02
2.550400e-02
2.520000e-02
2.878550e-02
2.826890e-02
-1.000390e-01
-7.551250e-02
-4.771950e-02
-2.923550e-02
2.520000e-02
2.106040e-02
2.826890e-02
2.739320e-02
-7.551250e-02