<?xml version="1.0"?>
<VTKFile type="UnstructuredGrid" version="0.1" byte_order="LittleEndian" compressor="vtkZLibDataCompressor">
<UnstructuredGrid>
<Piece NumberOfPoints="960" NumberOfCells="120">
<Points>
<DataArray type="Float32" NumberOfComponents="3" format="ascii">
-4.000000e+02 -6.000000e+03 -4.000000e+02
0.000000e+00 -6.000000e+03 -4.000000e+02
-4.000000e+02 -5.600030e+03 -4.000290e+02
-1.668670e-10 -5.600030e+03 -4.000290e+02
-4.000000e+02 -6.000000e+03 0.000000e+00
0.000000e+00 -6.000000e+03 0.000000e+00
-4.000000e+02 -5.600000e+03 -3.061460e-02
6.757350e-11 -5.600000e+03 -3.096930e-02
0.000000e+00 -6.000000e+03 -4.000000e+02
4.000000e+02 -6.000000e+03 -4.000000e+02
-1.668670e-10 -5.600030e+03 -4.000290e+02
4.000000e+02 -5.600030e+03 -4.000290e+02
0.000000e+00 -6.000000e+03 0.000000e+00
4.000000e+02 -6.000000e+03 0.000000e+00
6.757350e-11 -5.600000e+03 -3.096930e-02
4.000000e+02 -5.600000e+03 -3.061460e-02
-4.000000e+02 -5.600030e+03 -4.000290e+02
-1.668670e-10 -5.600030e+03 -4.000290e+02
-4.000000e+02 -5.200040e+03 -4.000690e+02
3.650640e-10 -5.200040e+03 -4.000690e+02
-4.000000e+02 -5.600000e+03 -3.061460e-02
6.757350e-11 -5.600000e+03 -3.096930e-02
-4.000000e+02 -5.200000e+03 -6.919980e-02
6.931630e-11 -5.200000e+03 -6.953240e-02
-1.668670e-10 -5.600030e+03 -4.000290e+02
4.000000e+02 -5.600030e+03 -4.000290e+02
3.650640e-10 -5.200040e+03 -4.000690e+02
4.000000e+02 -5.200040e+03 -4.000690e+02
6.757350e-11 -5.600000e+03 -3.096930e-02
4.000000e+02 -5.600000e+03 -3.061460e-02
6.931630e-11 -5.200000e+03 -6.953240e-02
4.000000e+02 -5.200000e+03 -6.919980e-02
-4.000000e+02 -5.200040e+03 -4.000690e+02
3.650640e-10 -5.200040e+03 -4.000690e+02
-4.000000e+02 -4.800040e+03 -4.001070e+02
4.607860e-11 -4.800040e+03 -4.001070e+02
-4.000000e+02 -5.200000e+03 -6.919980e-02
6.931630e-11 -5.200000e+03 -6.953240e-02
-4.000000e+02 -4.800000e+03 -1.070340e-01
3.157860e-10 -4.800000e+03 -1.071220e-01
3.650640e-10 -5.200040e+03 -4.000690e+02
4.000000e+02 -5.200040e+03 -4.000690e+02
4.607860e-11 -4.800040e+03 -4.001070e+02
4.000000e+02 -4.800040e+03 -4.001070e+02
6.931630e-11 -5.200000e+03 -6.953240e-02
4.000000e+02 -5.200000e+03 -6.919980e-02
3.157860e-10 -4.800000e+03 -1.071220e-01
4.000000e+02 -4.800000e+03 -1.070340e-01
-4.000000e+02 -4.800040e+03 -4.001070e+02
4.607860e-11 -4.800040e+03 -4.001070e+02
-4.000000e+02 -4.400040e+03 -4.001440e+02
3.541910e-10 -4.400040e+03 -4.001440e+02
-4.000000e+02 -4.800000e+03 -1.070340e-01
3.157860e-10 -4.800000e+03 -1.071220e-01
-4.000000e+02 -4.400000e+03 -1.444890e-01
2.818740e-10 -4.400000e+03 -1.446200e-01
4.607860e-11 -4.800040e+03 -4.001070e+02
4.000000e+02 -4.800040e+03 -4.001070e+02
3.541910e-10 -4.400040e+03 -4.001440e+02
4.000000e+02 -4.400040e+03 -4.001440e+02
3.157860e-10 -4.800000e+03 -1.071220e-01
4.000000e+02 -4.800000e+03 -1.070340e-01
2.818740e-10 -4.400000e+03 -1.446200e-01
4.000000e+02 -4.400000e+03 -1.444890e-01
-4.000000e+02 -4.400040e+03 -4.001440e+02
3.541910e-10 -4.400040e+03 -4.001440e+02
-4.000000e+02 -4.000040e+03 -4.001820e+02
5.144670e-10 -4.000040e+03 -4.001820e+02
-4.000000e+02 -4.400000e+03 -1.444890e-01
2.818740e-10 -4.400000e+03 -1.446200e-01
-4.000000e+02 -4.000000e+03 -1.819010e-01
5.198850e-10 -4.000000e+03 -1.820230e-01
3.541910e-10 -4.400040e+03 -4.001440e+02
4.000000e+02 -4.400040e+03 -4.001440e+02
5.144670e-10 -4.000040e+03 -4.001820e+02
4.000000e+02 -4.000040e+03 -4.001820e+02
2.818740e-10 -4.400000e+03 -1.446200e-01
4.000000e+02 -4.400000e+03 -1.444890e-01
5.198850e-10 -4.000000e+03 -1.820230e-01
4.000000e+02 -4.000000e+03 -1.819010e-01
-4.000000e+02 -4.000040e+03 -4.001820e+02
5.144670e-10 -4.000040e+03 -4.001820e+02
-4.000000e+02 -3.600040e+03 -4.002230e+02
5.366490e-10 -3.600040e+03 -4.002230e+02
-4.000000e+02 -4.000000e+03 -1.819010e-01
5.198850e-10 -4.000000e+03 -1.820230e-01
-4.000000e+02 -3.600000e+03 -2.224580e-01
5.502380e-10 -3.600000e+03 -2.223840e-01
5.144670e-10 -4.000040e+03 -4.001820e+02
4.000000e+02 -4.000040e+03 -4.001820e+02
5.366490e-10 -3.600040e+03 -4.002230e+02
4.000000e+02 -3.600040e+03 -4.002230e+02
5.198850e-10 -4.000000e+03 -1.820230e-01
4.000000e+02 -4.000000e+03 -1.819010e-01
5.502380e-10 -3.600000e+03 -2.223840e-01
4.000000e+02 -3.600000e+03 -2.224580e-01
-4.000000e+02 -3.600040e+03 -4.002230e+02
5.366490e-10 -3.600040e+03 -4.002230e+02
-4.000000e+02 -3.200050e+03 -4.002680e+02
4.412260e-10 -3.200050e+03 -4.002670e+02
-4.000000e+02 -3.600000e+03 -2.224580e-01
5.502380e-10 -3.600000e+03 -2.223840e-01
-4.000000e+02 -3.200000e+03 -2.678030e-01
1.183670e-10 -3.200000e+03 -2.676020e-01
5.366490e-10 -3.600040e+03 -4.002230e+02
4.000000e+02 -3.600040e+03 -4.002230e+02
4.412260e-10 -3.200050e+03 -4.002670e+02
4.000000e+02 -3.200050e+03 -4.002680e+02
5.502380e-10 -3.600000e+03 -2.223840e-01
4.000000e+02 -3.600000e+03 -2.224580e-01
1.183670e-10 -3.200000e+03 -2.676020e-01
4.000000e+02 -3.200000e+03 -2.678030e-01
-4.000000e+02 -3.200050e+03 -4.002680e+02
4.412260e-10 -3.200050e+03 -4.002670e+02
-4.000000e+02 -2.800050e+03 -4.003150e+02
-2.490070e-10 -2.800050e+03 -4.003150e+02
-4.000000e+02 -3.200000e+03 -2.678030e-01
1.183670e-10 -3.200000e+03 -2.676020e-01
-4.000000e+02 -2.800000e+03 -3.155760e-01
-1.417300e-11 -2.800000e+03 -3.155290e-01
4.412260e-10 -3.200050e+03 -4.002670e+02
4.000000e+02 -3.200050e+03 -4.002680e+02
-2.490070e-10 -2.800050e+03 -4.003150e+02
4.000000e+02 -2.800050e+03 -4.003150e+02
1.183670e-10 -3.200000e+03 -2.676020e-01
4.000000e+02 -3.200000e+03 -2.678030e-01
-1.417300e-11 -2.800000e+03 -3.155290e-01
4.000000e+02 -2.800000e+03 -3.155760e-01
-4.000000e+02 -2.800050e+03 -4.003150e+02
-2.490070e-10 -2.800050e+03 -4.003150e+02
-4.000000e+02 -2.400050e+03 -4.003630e+02
-4.251740e-10 -2.400050e+03 -4.003630e+02
-4.000000e+02 -2.800000e+03 -3.155760e-01
-1.417300e-11 -2.800000e+03 -3.155290e-01
-4.000000e+02 -2.400000e+03 -3.628260e-01
-4.060260e-10 -2.400000e+03 -3.629030e-01
-2.490070e-10 -2.800050e+03 -4.003150e+02
4.000000e+02 -2.800050e+03 -4.003150e+02
-4.251740e-10 -2.400050e+03 -4.003630e+02
4.000000e+02 -2.400050e+03 -4.003630e+02
-1.417300e-11 -2.800000e+03 -3.155290e-01
4.000000e+02 -2.800000e+03 -3.155760e-01
-4.060260e-10 -2.400000e+03 -3.629030e-01
4.000000e+02 -2.400000e+03 -3.628260e-01
-4.000000e+02 -2.400050e+03 -4.003630e+02
-4.251740e-10 -2.400050e+03 -4.003630e+02
-4.000000e+02 -2.000040e+03 -4.004090e+02
-4.712560e-10 -2.000040e+03 -4.004090e+02
-4.000000e+02 -2.400000e+03 -3.628260e-01
-4.060260e-10 -2.400000e+03 -3.629030e-01
-4.000000e+02 -2.000000e+03 -4.082760e-01
-7.126480e-10 -2.000000e+03 -4.083510e-01
-4.251740e-10 -2.400050e+03 -4.003630e+02
4.000000e+02 -2.400050e+03 -4.003630e+02
-4.712560e-10 -2.000040e+03 -4.004090e+02
4.000000e+02 -2.000040e+03 -4.004090e+02
-4.060260e-10 -2.400000e+03 -3.629030e-01
4.000000e+02 -2.400000e+03 -3.628260e-01
-7.126480e-10 -2.000000e+03 -4.083510e-01
4.000000e+02 -2.000000e+03 -4.082760e-01
-4.000000e+02 -2.000040e+03 -4.004090e+02
-4.712560e-10 -2.000040e+03 -4.004090e+02
-4.000000e+02 -1.600040e+03 -4.004500e+02
-8.254010e-10 -1.600040e+03 -4.004500e+02
-4.000000e+02 -2.000000e+03 -4.082760e-01
-7.126480e-10 -2.000000e+03 -4.083510e-01
-4.000000e+02 -1.600000e+03 -4.505340e-01
-9.477890e-10 -1.600000e+03 -4.505910e-01
-4.712560e-10 -2.000040e+03 -4.004090e+02
4.000000e+02 -2.000040e+03 -4.004090e+02
-8.254010e-10 -1.600040e+03 -4.004500e+02
4.000000e+02 -1.600040e+03 -4.004500e+02
-7.126480e-10 -2.000000e+03 -4.083510e-01
4.000000e+02 -2.000000e+03 -4.082760e-01
-9.477890e-10 -1.600000e+03 -4.505910e-01
4.000000e+02 -1.600000e+03 -4.505340e-01
-4.000000e+02 -1.600040e+03 -4.004500e+02
-8.254010e-10 -1.600040e+03 -4.004500e+02
-4.000000e+02 -1.200040e+03 -4.004930e+02
-8.640940e-10 -1.200040e+03 -4.004930e+02
-4.000000e+02 -1.600000e+03 -4.505340e-01
-9.477890e-10 -1.600000e+03 -4.505910e-01
-4.000000e+02 -1.200000e+03 -4.928880e-01
-1.151210e-09 -1.200000e+03 -4.928880e-01
-8.254010e-10 -1.600040e+03 -4.004500e+02
4.000000e+02 -1.600040e+03 -4.004500e+02
-8.640940e-10 -1.200040e+03 -4.004930e+02
4.000000e+02 -1.200040e+03 -4.004930e+02
-9.477890e-10 -1.600000e+03 -4.505910e-01
4.000000e+02 -1.600000e+03 -4.505340e-01
-1.151210e-09 -1.200000e+03 -4.928880e-01
4.000000e+02 -1.200000e+03 -4.928880e-01
-4.000000e+02 -1.200040e+03 -4.004930e+02
-8.640940e-10 -1.200040e+03 -4.004930e+02
-4.000000e+02 -8.000420e+02 -4.005370e+02
-1.005840e-09 -8.000420e+02 -4.005370e+02
-4.000000e+02 -1.200000e+03 -4.928880e-01
-1.151210e-09 -1.200000e+03 -4.928880e-01
-4.000000e+02 -8.000000e+02 -5.366520e-01
-7.523000e-10 -8.000000e+02 -5.364710e-01
-8.640940e-10 -1.200040e+03 -4.004930e+02
4.000000e+02 -1.200040e+03 -4.004930e+02
-1.005840e-09 -8.000420e+02 -4.005370e+02
4.000000e+02 -8.000420e+02 -4.005370e+02
-1.151210e-09 -1.200000e+03 -4.928880e-01
4.000000e+02 -1.200000e+03 -4.928880e-01
-7.523000e-10 -8.000000e+02 -5.364710e-01
4.000000e+02 -8.000000e+02 -5.366520e-01
-4.000000e+02 -8.000420e+02 -4.005370e+02
-1.005840e-09 -8.000420e+02 -4.005370e+02
-4.000000e+02 -4.000410e+02 -4.005790e+02
-6.842380e-10 -4.000410e+02 -4.005790e+02
-4.000000e+02 -8.000000e+02 -5.366520e-01
-7.523000e-10 -8.000000e+02 -5.364710e-01
-4.000000e+02 -4.000000e+02 -5.786320e-01
-9.144090e-10 -4.000000e+02 -5.785770e-01
-1.005840e-09 -8.000420e+02 -4.005370e+02
4.000000e+02 -8.000420e+02 -4.005370e+02
-6.842380e-10 -4.000410e+02 -4.005790e+02
4.000000e+02 -4.000410e+02 -4.005790e+02
-7.523000e-10 -8.000000e+02 -5.364710e-01
4.000000e+02 -8.000000e+02 -5.366520e-01
-9.144090e-10 -4.000000e+02 -5.785770e-01
4.000000e+02 -4.000000e+02 -5.786320e-01
-4.000000e+02 -4.000410e+02 -4.005790e+02
-6.842380e-10 -4.000410e+02 -4.005790e+02
-4.000000e+02 -4.046630e-02 -4.006190e+02
-6.945990e-10 -4.045170e-02 -4.006190e+02
-4.000000e+02 -4.000000e+02 -5.786320e-01
-9.144090e-10 -4.000000e+02 -5.785770e-01
-4.000000e+02 -7.733200e-05 -6.197220e-01
-6.170900e-10 -7.118150e-05 -6.197950e-01
-6.842380e-10 -4.000410e+02 -4.005790e+02
4.000000e+02 -4.000410e+02 -4.005790e+02
[...]
<PointData>
<DataArray type="Float32" Name="V1" format="ascii">
0.000000e+00
0.000000e+00
1.382590e-04
1.863980e-10
0.000000e+00
0.000000e+00
3.379810e-05
-4.212890e-10
0.000000e+00
0.000000e+00
1.863980e-10
-1.382590e-04
0.000000e+00
0.000000e+00
-4.212890e-10
-3.379880e-05
1.382590e-04
1.863980e-10
1.003790e-04
3.245730e-10
3.379810e-05
-4.212890e-10
2.733270e-08
3.926770e-10
1.863980e-10
-1.382590e-04
3.245730e-10
-1.003780e-04
-4.212890e-10
-3.379880e-05
3.926770e-10
-2.660310e-08
1.003790e-04
3.245730e-10
5.936720e-05
-4.415910e-10
2.733270e-08
3.926770e-10
-2.766080e-05
-1.902350e-10
3.245730e-10
-1.003780e-04
-4.415910e-10
-5.936790e-05
3.926770e-10
-2.660310e-08
-1.902350e-10
2.766050e-05
5.936720e-05
-4.415910e-10
-1.260050e-04
-6.815550e-11
-2.766080e-05
-1.902350e-10
1.820050e-05
-1.482630e-10
-4.415910e-10
-5.936790e-05
-6.815550e-11
1.260050e-04
-1.902350e-10
2.766050e-05
-1.482630e-10
-1.820100e-05
-1.260050e-04
-6.815550e-11
-1.441260e-04
1.045020e-10
1.820050e-05
-1.482630e-10
9.031250e-06
5.608720e-10
-6.815550e-11
1.260050e-04
1.045020e-10
1.441270e-04
-1.482630e-10
-1.820100e-05
5.608720e-10
-9.030180e-06
-1.441260e-04
1.045020e-10
7.275020e-05
-8.294260e-11
9.031250e-06
5.608720e-10
-3.006870e-05
-3.211630e-10
1.045020e-10
1.441270e-04
-8.294260e-11
-7.275030e-05
5.608720e-10
-9.030180e-06
-3.211630e-10
3.006830e-05
7.275020e-05
-8.294260e-11
-6.718300e-06
-1.963160e-11
-3.006870e-05
-3.211630e-10
2.009650e-05
6.730820e-11
-8.294260e-11
-7.275030e-05
-1.963160e-11
6.718360e-06
-3.211630e-10
3.006830e-05
6.730820e-11
-2.009630e-05
-6.718300e-06
-1.963160e-11
4.783240e-05
3.171170e-11
2.009650e-05
6.730820e-11
2.651450e-05
2.505870e-10
-1.963160e-11
6.718360e-06
3.171170e-11
-4.783260e-05
6.730820e-11
-2.009630e-05
2.505870e-10
-2.651410e-05
4.783240e-05
3.171170e-11
7.547570e-05
-2.177520e-11
2.651450e-05
2.505870e-10
-2.679990e-06
-9.387360e-11
3.171170e-11
-4.783260e-05
-2.177520e-11
-7.547600e-05
2.505870e-10
-2.651410e-05
-9.387360e-11
2.679770e-06
7.547570e-05
-2.177520e-11
1.346820e-04
-2.880540e-10
-2.679990e-06
-9.387360e-11
-2.919490e-05
1.555890e-12
-2.177520e-11
-7.547600e-05
-2.880540e-10
-1.346820e-04
-9.387360e-11
2.679770e-06
1.555890e-12
2.919490e-05
1.346820e-04
-2.880540e-10
2.695080e-05
-1.906650e-10
-2.919490e-05
1.555890e-12
-4.683100e-06
-3.070180e-11
-2.880540e-10
-1.346820e-04
-1.906650e-10
-2.695130e-05
1.555890e-12
2.919490e-05
-3.070180e-11
4.683170e-06
2.695080e-05
-1.906650e-10
-6.725330e-05
-7.610920e-11
-4.683100e-06
-3.070180e-11
1.816030e-05
1.447780e-11
-1.906650e-10
-2.695130e-05
-7.610920e-11
6.725350e-05
-3.070180e-11
4.683170e-06
1.447780e-11
-1.816050e-05
-6.725330e-05
-7.610920e-11
6.266700e-05
4.666920e-12
1.816030e-05
1.447780e-11
1.982640e-05
2.178700e-10
-7.610920e-11
6.725350e-05
4.666920e-12
-6.266710e-05
1.447780e-11
-1.816050e-05
2.178700e-10
-1.982580e-05
6.266700e-05
4.666920e-12
-2.610170e-05
3.772120e-10
1.982640e-05
2.178700e-10
6.304430e-05
2.483600e-10
4.666920e-12
-6.266710e-05
3.772120e-10
2.610220e-05
2.178700e-10
-1.982580e-05
2.483600e-10
-6.304400e-05
-2.610170e-05
3.772120e-10
-6.258990e-05
7.691170e-11
6.304430e-05
2.483600e-10
2.353350e-05
-1.413260e-10
3.772120e-10
2.610220e-05
7.691170e-11
6.258990e-05
2.483600e-10
-6.304400e-05
-1.413260e-10
-2.353370e-05
-6.258990e-05
7.691170e-11
-9.453650e-05
-1.078050e-10
2.353350e-05
-1.413260e-10
-3.634580e-05
-2.992260e-10
7.691170e-11
6.258990e-05
-1.078050e-10
9.453610e-05
-1.413260e-10
-2.353370e-05
-2.992260e-10
3.634520e-05
-9.453650e-05
-1.078050e-10
-1.269860e-04
1.372540e-10
-3.634580e-05
-2.992260e-10
-3.027880e-05
-9.894900e-12
-1.078050e-10
9.453610e-05
1.372540e-10
1.269870e-04
-2.992260e-10
3.634520e-05
-9.894900e-12
3.027850e-05
-1.269860e-04
1.372540e-10
1.289810e-05
-1.106000e-10
-3.027880e-05
-9.894900e-12
-1.799950e-05
3.397860e-10
1.372540e-10
1.269870e-04
-1.106000e-10
-1.289810e-05
-9.894900e-12
3.027850e-05
3.397860e-10
1.800010e-05
1.289810e-05
-1.106000e-10
7.274250e-05
-3.651980e-10
-1.799950e-05
3.397860e-10
3.638470e-05
-1.489710e-10
-1.106000e-10
-1.289810e-05
-3.651980e-10
-7.274310e-05
3.397860e-10
1.800010e-05
-1.489710e-10
-3.638500e-05
7.274250e-05
-3.651980e-10
-1.096840e-04
1.188580e-10
3.638470e-05
-1.489710e-10
5.871140e-05
-1.014750e-10
-3.651980e-10
-7.274310e-05
1.188580e-10
1.096840e-04
-1.489710e-10
-3.638500e-05
-1.014750e-10
-5.871160e-05
-1.096840e-04
1.188580e-10
1.594500e-05
1.681640e-10
5.871140e-05
-1.014750e-10
-4.060250e-05
1.008420e-10
1.188580e-10
1.096840e-04
1.681640e-10
-1.594470e-05
-1.014750e-10
-5.871160e-05
1.008420e-10
4.060280e-05
1.594500e-05
1.681640e-10
8.580000e-05
-5.560550e-11
-4.060250e-05
1.008420e-10
-2.223930e-05
-2.057820e-10
1.681640e-10
-1.594470e-05
-5.560550e-11
-8.580030e-05
1.008420e-10
4.060280e-05
-2.057820e-10
2.223870e-05
8.580000e-05
-5.560550e-11
-8.987380e-05
-6.199420e-11
-2.223930e-05
-2.057820e-10
9.210930e-06
-4.044720e-11
-5.560550e-11
-8.580030e-05
-6.199420e-11
8.987350e-05
-2.057820e-10
2.223870e-05
-4.044720e-11
-9.211030e-06
-8.987380e-05
-6.199420e-11
4.742130e-05
4.510800e-10
9.210930e-06
-4.044720e-11
-1.549920e-05
1.537310e-10
-6.199420e-11
8.987350e-05
4.510800e-10
-4.742050e-05
-4.044720e-11
-9.211030e-06
1.537310e-10
1.549960e-05
4.742130e-05
4.510800e-10
6.158380e-05
-3.425830e-10
-1.549920e-05
1.537310e-10
-2.044990e-05
2.731770e-10
4.510800e-10
-4.742050e-05
-3.425830e-10
-6.158430e-05
1.537310e-10
1.549960e-05
2.731770e-10
2.045040e-05
6.158380e-05
-3.425830e-10
9.434630e-05
-1.143640e-10
-2.044990e-05
2.731770e-10
-1.662750e-05
1.046050e-10
-3.425830e-10
-6.158430e-05
-1.143640e-10
-9.434660e-05
2.731770e-10
2.045040e-05
1.046050e-10
1.662760e-05
9.434630e-05
-1.143640e-10
-1.927310e-04
1.868740e-10
-1.662750e-05
1.046050e-10
1.299570e-05
-2.109510e-11
-1.143640e-10
-9.434660e-05
1.868740e-10
1.927320e-04
1.046050e-10
1.662760e-05
-2.109510e-11
-1.299590e-05
-1.927310e-04
1.868740e-10
-9.208260e-05
2.493670e-10
1.299570e-05
-2.109510e-11
3.795890e-05
-3.508940e-10
1.868740e-10
1.927320e-04
2.493670e-10
9.208310e-05
-2.109510e-11
-1.299590e-05
-3.508940e-10
-3.795940e-05
-9.208260e-05
2.493670e-10
-2.765230e-05
-1.932190e-10
3.795890e-05
-3.508940e-10
-2.327130e-06
-3.201340e-11
2.493670e-10
9.208310e-05
-1.932190e-10
2.765220e-05
-3.508940e-10
-3.795940e-05
-3.201340e-11
2.327080e-06
-2.765230e-05
-1.932190e-10
8.249710e-05
1.785170e-10
-2.327130e-06
-3.201340e-11
-4.930460e-05
-2.638310e-11
-1.932190e-10
2.765220e-05
1.785170e-10
-8.249640e-05
-3.201340e-11
2.327080e-06
-2.638310e-11
4.930430e-05
0.000000e+00
0.000000e+00
3.379810e-05
-4.212890e-10
0.000000e+00
0.000000e+00
-2.061360e-04
4.589210e-11
0.000000e+00
0.000000e+00
-4.212890e-10
-3.379880e-05
0.000000e+00
0.000000e+00
4.589210e-11
2.061360e-04
3.379810e-05
-4.212890e-10
2.733270e-08
3.926770e-10
-2.061360e-04
4.589210e-11
-1.001960e-04
4.582160e-11
-4.212890e-10
-3.379880e-05
3.926770e-10
-2.660310e-08
4.589210e-11
2.061360e-04
4.582160e-11
1.001960e-04
2.733270e-08
3.926770e-10
-2.766080e-05
-1.902350e-10
-1.001960e-04
4.582160e-11
-4.136730e-06
-6.422940e-12
3.926770e-10
-2.660310e-08
-1.902350e-10
2.766050e-05
4.582160e-11
1.001960e-04
-6.422940e-12
4.136750e-06
-2.766080e-05
-1.902350e-10
1.820050e-05
-1.482630e-10
-4.136730e-06
-6.422940e-12
8.939730e-05
-5.221690e-11
-1.902350e-10
2.766050e-05
-1.482630e-10
-1.820100e-05
-6.422940e-12
4.136750e-06
-5.221690e-11
-8.939740e-05
1.820050e-05
-1.482630e-10
9.031250e-06
5.608720e-10
8.939730e-05
-5.221690e-11
1.263330e-04
-2.433280e-10
-1.482630e-10
-1.820100e-05
5.608720e-10
-9.030180e-06
-5.221690e-11
-8.939740e-05
-2.433280e-10
-1.263340e-04
9.031250e-06
5.608720e-10
-3.006870e-05
-3.211630e-10
1.263330e-04
-2.433280e-10
-1.265810e-05
-1.499860e-10
5.608720e-10
-9.030180e-06
-3.211630e-10
3.006830e-05
-2.433280e-10
-1.263340e-04
-1.499860e-10
1.265780e-05
-3.006870e-05
-3.211630e-10
2.009650e-05
6.730820e-11
-1.265810e-05
-1.499860e-10
-3.363970e-05
2.376370e-11
-3.211630e-10
3.006830e-05
6.730820e-11
-2.009630e-05
-1.499860e-10
1.265780e-05
2.376370e-11
3.363990e-05
2.009650e-05
6.730820e-11
2.651450e-05
2.505870e-10
-3.363970e-05
2.376370e-11
-1.007030e-04
2.749350e-11
6.730820e-11
-2.009630e-05
2.505870e-10
-2.651410e-05
2.376370e-11
3.363990e-05
2.749350e-11
1.007030e-04
2.651450e-05
2.505870e-10
-2.679990e-06
-9.387360e-11
-1.007030e-04
2.749350e-11
-7.000220e-05
3.285960e-10
2.505870e-10
-2.651410e-05
-9.387360e-11
2.679770e-06
2.749350e-11
1.007030e-04
3.285960e-10
7.000260e-05
-2.679990e-06
-9.387360e-11
-2.919490e-05
1.555890e-12
-7.000220e-05
3.285960e-10
-7.640790e-05
-3.656050e-11
-9.387360e-11
2.679770e-06
1.555890e-12
2.919490e-05
3.285960e-10
7.000260e-05
-3.656050e-11
7.640800e-05
-2.919490e-05
1.555890e-12
-4.683100e-06
-3.070180e-11
-7.640790e-05
-3.656050e-11
-1.749990e-05
-2.472660e-10
1.555890e-12
2.919490e-05
-3.070180e-11
4.683170e-06
-3.656050e-11
7.640800e-05
-2.472660e-10
1.749950e-05
-4.683100e-06
-3.070180e-11
1.816030e-05
1.447780e-11
-1.749990e-05
-2.472660e-10
3.084480e-05
6.038250e-11
-3.070180e-11
4.683170e-06
1.447780e-11
-1.816050e-05
-2.472660e-10
1.749950e-05
6.038250e-11
-3.084460e-05
1.816030e-05
1.447780e-11
1.982640e-05
2.178700e-10
3.084480e-05
6.038250e-11
-1.024160e-04
-3.442260e-10
1.447780e-11
-1.816050e-05
2.178700e-10
-1.982580e-05
6.038250e-11
-3.084460e-05
-3.442260e-10
1.024160e-04
1.982640e-05
2.178700e-10
6.304430e-05
2.483600e-10
-1.024160e-04
-3.442260e-10
-9.983040e-05
3.514250e-10
2.178700e-10
-1.982580e-05
2.483600e-10
-6.304400e-05
-3.442260e-10
1.024160e-04
3.514250e-10
9.983090e-05
6.304430e-05
2.483600e-10
2.353350e-05
-1.413260e-10
-9.983040e-05
3.514250e-10
1.571670e-05
2.650470e-11
2.483600e-10
-6.304400e-05
-1.413260e-10
-2.353370e-05
3.514250e-10
9.983090e-05
2.650470e-11
-1.571670e-05
2.353350e-05
-1.413260e-10
-3.634580e-05
-2.992260e-10
1.571670e-05
2.650470e-11
1.668990e-04
1.556100e-10
-1.413260e-10
-2.353370e-05
-2.992260e-10
3.634520e-05
2.650470e-11
-1.571670e-05
1.556100e-10
-1.668990e-04
-3.634580e-05
-2.992260e-10
-3.027880e-05
-9.894900e-12
1.668990e-04
1.556100e-10
1.876990e-04
2.401040e-11
-2.992260e-10
3.634520e-05
-9.894900e-12
3.027850e-05
1.556100e-10
-1.668990e-04
2.401040e-11
-1.876990e-04
-3.027880e-05
-9.894900e-12
-1.799950e-05
3.397860e-10
1.876990e-04
2.401040e-11
2.320380e-05
5.813470e-11
-9.894900e-12
3.027850e-05
3.397860e-10
1.800010e-05
2.401040e-11
-1.876990e-04
5.813470e-11
-2.320330e-05
-1.799950e-05
3.397860e-10
3.638470e-05
-1.489710e-10
2.320380e-05
5.813470e-11
-1.457560e-04
2.067620e-11
3.397860e-10
1.800010e-05
-1.489710e-10
-3.638500e-05
5.813470e-11
-2.320330e-05
2.067620e-11
1.457560e-04
3.638470e-05
-1.489710e-10
5.871140e-05
-1.014750e-10
-1.457560e-04
2.067620e-11
-7.477720e-06
1.732700e-10
-1.489710e-10
-3.638500e-05
-1.014750e-10
-5.871160e-05
2.067620e-11
1.457560e-04
1.732700e-10
7.477770e-06
5.871140e-05
-1.014750e-10
-4.060250e-05
1.008420e-10
-7.477720e-06
1.732700e-10
6.522560e-05
1.601160e-10
-1.014750e-10
-5.871160e-05
1.008420e-10
4.060280e-05
1.732700e-10
7.477770e-06
1.601160e-10
-6.522540e-05
-4.060250e-05
1.008420e-10
-2.223930e-05
-2.057820e-10
6.522560e-05
1.601160e-10
-4.145200e-05
-1.527120e-10
1.008420e-10
4.060280e-05
-2.057820e-10
2.223870e-05
1.601160e-10
-6.522540e-05
-1.527120e-10
4.145200e-05
-2.223930e-05
-2.057820e-10
9.210930e-06
-4.044720e-11
-4.145200e-05
-1.527120e-10
7.169140e-05
1.566280e-10
-2.057820e-10
2.223870e-05
-4.044720e-11
-9.211030e-06
-1.527120e-10
4.145200e-05
1.566280e-10
-7.169130e-05
9.210930e-06
-4.044720e-11
-1.549920e-05
1.537310e-10
7.169140e-05
1.566280e-10
-1.653240e-05
-1.948040e-11
-4.044720e-11
-9.211030e-06
1.537310e-10
1.549960e-05
1.566280e-10
-7.169130e-05
-1.948040e-11
1.653230e-05
-1.549920e-05
1.537310e-10
-2.044990e-05
2.731770e-10
-1.653240e-05
-1.948040e-11
-2.094400e-05
-1.475050e-10
1.537310e-10
1.549960e-05
2.731770e-10
2.045040e-05
-1.948040e-11
1.653230e-05
-1.475050e-10
2.094390e-05
-2.044990e-05
2.731770e-10
-1.662750e-05
1.046050e-10
-2.094400e-05
-1.475050e-10
-6.081540e-05
-2.140970e-10
2.731770e-10
2.045040e-05
1.046050e-10
1.662760e-05
-1.475050e-10
2.094390e-05
-2.140970e-10
6.081500e-05
-1.662750e-05
1.046050e-10
1.299570e-05
-2.109510e-11
-6.081540e-05
-2.140970e-10
1.666240e-04
2.069990e-10
1.046050e-10
1.662760e-05
-2.109510e-11
-1.299590e-05
-2.140970e-10
6.081500e-05
2.069990e-10
-1.666240e-04
1.299570e-05
-2.109510e-11
3.795890e-05
-3.508940e-10
1.666240e-04
2.069990e-10
1.612810e-05
-9.771000e-11
-2.109510e-11
-1.299590e-05
-3.508940e-10
-3.795940e-05
2.069990e-10
-1.666240e-04
-9.771000e-11
-1.612830e-05
3.795890e-05
-3.508940e-10
-2.327130e-06
-3.201340e-11
1.612810e-05
-9.771000e-11
3.234590e-05
-5.471290e-11
-3.508940e-10
-3.795940e-05
-3.201340e-11
2.327080e-06
-9.771000e-11
-1.612830e-05
-5.471290e-11
-3.234610e-05
-2.327130e-06
-3.201340e-11
-4.930460e-05
-2.638310e-11
3.234590e-05
-5.471290e-11
1.619010e-05
2.048350e-10
-3.201340e-11
2.327080e-06
-2.638310e-11
4.930430e-05
-5.471290e-11
-3.234610e-05
2.048350e-10
-1.618950e-05
</DataArray>
<DataArray type="Float32" Name="V2" format="ascii">
0.000000e+00
0.000000e+00
-2.773510e-04
-2.840830e-04
0.000000e+00
0.000000e+00
2.327350e-04
1.820850e-04
0.000000e+00
0.000000e+00
-2.840830e-04
-2.773520e-04
0.000000e+00
0.000000e+00
1.820850e-04
2.327350e-04
-2.773510e-04
-2.840830e-04
9.469060e-04
8.612550e-04
2.327350e-04
1.820850e-04
-1.019290e-04
-1.255040e-04
-2.840830e-04
-2.773520e-04
8.612550e-04
9.469060e-04
1.820850e-04
2.327350e-04
-1.255040e-04
-1.019290e-04
9.469060e-04
8.612550e-04
8.982850e-04
8.463910e-04
-1.019290e-04
-1.255040e-04
-3.836950e-04
-3.472620e-04
8.612550e-04
9.469060e-04
8.463910e-04
8.982840e-04
-1.255040e-04
-1.019290e-04
-3.472620e-04
-3.836950e-04
8.982850e-04
8.463910e-04
-1.037870e-03
-9.406140e-04
-3.836950e-04
-3.472620e-04
-3.439190e-04
-3.577460e-04
8.463910e-04
8.982840e-04
-9.406140e-04
-1.037870e-03
-3.472620e-04
-3.836950e-04
-3.577460e-04
-3.439190e-04
-1.037870e-03
-9.406140e-04
-1.970000e-03
-1.992780e-03
-3.439190e-04
-3.577460e-04
8.042130e-05
5.536500e-05
-9.406140e-04
-1.037870e-03
-1.992780e-03
-1.969990e-03
-3.577460e-04
-3.439190e-04
5.536500e-05
8.042200e-05
-1.970000e-03
-1.992780e-03
-1.039240e-03
-9.572320e-04
8.042130e-05
5.536500e-05
1.873350e-04
1.709410e-04
-1.992780e-03
-1.969990e-03
-9.572320e-04
-1.039240e-03
5.536500e-05
8.042200e-05
1.709410e-04
1.873360e-04
-1.039240e-03
-9.572320e-04
8.236960e-04
1.068390e-03
1.873350e-04
1.709410e-04
-1.783290e-04
-2.093110e-04
-9.572320e-04
-1.039240e-03
1.068390e-03
8.236980e-04
1.709410e-04
1.873360e-04
-2.093110e-04
-1.783290e-04
8.236960e-04
1.068390e-03
1.062050e-03
1.162060e-03
-1.783290e-04
-2.093110e-04
-1.585820e-04
-1.779770e-04
1.068390e-03
8.236980e-04
1.162060e-03
1.062050e-03
-2.093110e-04
-1.783290e-04
-1.779770e-04
-1.585810e-04
1.062050e-03
1.162060e-03
-7.682590e-04
-6.572620e-04
-1.585820e-04
-1.779770e-04
2.243120e-04
2.028290e-04
1.162060e-03
1.062050e-03
-6.572620e-04
-7.682590e-04
-1.779770e-04
-1.585810e-04
2.028290e-04
2.243120e-04
-7.682590e-04
-6.572620e-04
-7.154660e-04
-5.540270e-04
2.243120e-04
2.028290e-04
1.246820e-04
1.069890e-04
-6.572620e-04
-7.682590e-04
-5.540270e-04
-7.154650e-04
2.028290e-04
2.243120e-04
1.069890e-04
1.246820e-04
-7.154660e-04
-5.540270e-04
1.083330e-03
1.126680e-03
1.246820e-04
1.069890e-04
5.361690e-05
5.020130e-05
-5.540270e-04
-7.154650e-04
1.126680e-03
1.083330e-03
1.069890e-04
1.246820e-04
5.020130e-05
5.361700e-05
1.083330e-03
1.126680e-03
7.129490e-04
6.454130e-04
5.361690e-05
5.020130e-05
1.265230e-04
1.855840e-04
1.126680e-03
1.083330e-03
6.454130e-04
7.129480e-04
5.020130e-05
5.361700e-05
1.855840e-04
1.265240e-04
7.129490e-04
6.454130e-04
-1.349460e-03
-1.391540e-03
1.265230e-04
1.855840e-04
-1.820780e-04
-1.705820e-04
6.454130e-04
7.129480e-04
-1.391540e-03
-1.349460e-03
1.855840e-04
1.265240e-04
-1.705820e-04
-1.820770e-04
-1.349460e-03
-1.391540e-03
-1.746260e-03
-1.758870e-03
-1.820780e-04
-1.705820e-04
-1.243170e-04
-1.451770e-04
-1.391540e-03
-1.349460e-03
-1.758870e-03
-1.746250e-03
-1.705820e-04
-1.820770e-04
-1.451770e-04
-1.243160e-04
-1.746260e-03
-1.758870e-03
-1.142320e-04
-1.430300e-04
-1.243170e-04
-1.451770e-04
2.570910e-04
3.061220e-04
-1.758870e-03
-1.746250e-03
-1.430300e-04
-1.142320e-04
-1.451770e-04
-1.243160e-04
3.061220e-04
2.570910e-04
-1.142320e-04
-1.430300e-04
5.493470e-04
5.439330e-04
2.570910e-04
3.061220e-04
4.410840e-05
4.791670e-05
-1.430300e-04
-1.142320e-04
5.439330e-04
5.493470e-04
3.061220e-04
2.570910e-04
4.791670e-05
4.410910e-05
5.493470e-04
5.439330e-04
-6.659410e-04
-6.775750e-04
4.410840e-05
4.791670e-05
-3.586050e-04
-3.438330e-04
5.439330e-04
5.493470e-04
-6.775750e-04
-6.659410e-04
4.791670e-05
4.410910e-05
-3.438330e-04
-3.586050e-04
-6.659410e-04
-6.775750e-04
-1.080650e-03
-1.140890e-03
-3.586050e-04
-3.438330e-04
-5.109830e-06
1.138480e-05
-6.775750e-04
-6.659410e-04
-1.140890e-03
-1.080650e-03
-3.438330e-04
-3.586050e-04
1.138480e-05
-5.110130e-06
-1.080650e-03
-1.140890e-03
-4.106790e-04
-3.695330e-04
-5.109830e-06
1.138480e-05
2.242650e-04
2.049690e-04
-1.140890e-03
-1.080650e-03
-3.695330e-04
-4.106780e-04
1.138480e-05
-5.110130e-06
2.049690e-04
2.242640e-04
-4.106790e-04
-3.695330e-04
1.143160e-04
1.814150e-04
2.242650e-04
2.049690e-04
-3.213630e-04
-2.948450e-04
-3.695330e-04
-4.106780e-04
1.814150e-04
1.143170e-04
2.049690e-04
2.242640e-04
-2.948450e-04
-3.213620e-04
1.143160e-04
1.814150e-04
-3.289920e-04
-3.070370e-04
-3.213630e-04
-2.948450e-04
-9.784170e-05
-1.369150e-04
1.814150e-04
1.143170e-04
-3.070370e-04
-3.289920e-04
-2.948450e-04
-3.213620e-04
-1.369150e-04
-9.784230e-05
-3.289920e-04
-3.070370e-04
-2.474370e-04
-2.679840e-04
-9.784170e-05
-1.369150e-04
4.472410e-04
3.742600e-04
-3.070370e-04
-3.289920e-04
-2.679840e-04
-2.474390e-04
-1.369150e-04
-9.784230e-05
3.742600e-04
4.472420e-04
-2.474370e-04
-2.679840e-04
1.559710e-03
1.442610e-03
4.472410e-04
3.742600e-04
1.010550e-04
7.356190e-05
-2.679840e-04
-2.474390e-04
1.442610e-03
1.559710e-03
3.742600e-04
4.472420e-04
7.356190e-05
1.010550e-04
1.559710e-03
1.442610e-03
2.207000e-03
2.180910e-03
1.010550e-04
7.356190e-05
-2.449250e-04
-2.506840e-04
1.442610e-03
1.559710e-03
2.180910e-03
2.207000e-03
7.356190e-05
1.010550e-04
-2.506840e-04
-2.449240e-04
2.207000e-03
2.180910e-03
6.632040e-04
5.748750e-04
-2.449250e-04
-2.506840e-04
-1.473420e-04
-1.213880e-04
2.180910e-03
2.207000e-03
5.748750e-04
6.632030e-04
-2.506840e-04
-2.449240e-04
-1.213880e-04
-1.473430e-04
6.632040e-04
5.748750e-04
-8.615710e-04
-9.540740e-04
-1.473420e-04
-1.213880e-04
1.690690e-04
1.792660e-04
5.748750e-04
6.632030e-04
-9.540740e-04
-8.615720e-04
-1.213880e-04
-1.473430e-04
1.792660e-04
1.690690e-04
-8.615710e-04
-9.540740e-04
-7.367350e-04
-7.289750e-04
1.690690e-04
1.792660e-04
1.125040e-04
9.760610e-05
-9.540740e-04
-8.615720e-04
-7.289750e-04
-7.367350e-04
1.792660e-04
1.690690e-04
9.760610e-05
1.125040e-04
-7.367350e-04
-7.289750e-04
1.052830e-04
4.677210e-05
1.125040e-04
9.760610e-05
-2.159840e-04
-2.294110e-04
-7.289750e-04
-7.367350e-04
4.677210e-05
1.052820e-04
9.760610e-05
1.125040e-04
-2.294110e-04
-2.159850e-04
1.052830e-04
4.677210e-05
4.541600e-05
4.137880e-05
-2.159840e-04
-2.294110e-04
1.114570e-04
1.063860e-04
4.677210e-05
1.052820e-04
4.137880e-05
4.541600e-05
-2.294110e-04
-2.159850e-04
1.063860e-04
1.114570e-04
4.541600e-05
4.137880e-05
-3.387950e-04
-2.930860e-04
1.114570e-04
1.063860e-04
4.857440e-04
4.841580e-04
4.137880e-05
4.541600e-05
-2.930860e-04
-3.387940e-04
1.063860e-04
1.114570e-04
4.841580e-04
4.857450e-04
0.000000e+00
0.000000e+00
2.327350e-04
1.820850e-04
0.000000e+00
0.000000e+00
-1.863400e-04
-7.847010e-05
0.000000e+00
0.000000e+00
1.820850e-04
2.327350e-04
0.000000e+00
0.000000e+00
-7.847010e-05
-1.863390e-04
2.327350e-04
1.820850e-04
-1.019290e-04
-1.255040e-04
-1.863400e-04
-7.847010e-05
-7.374200e-04
-6.042010e-04
1.820850e-04
2.327350e-04
-1.255040e-04
-1.019290e-04
-7.847010e-05
-1.863390e-04
-6.042010e-04