MercuryDPM 0.14 name oneDimChain revision 6406 repository https://svn.mercurydpm.org/SourceCode/Branches/OomphlibCouplingExplicit
dataFile    fileType ONE_FILE saveCount 124 counter 102 lastSavedTimeStep 12443
fStatFile   fileType ONE_FILE saveCount 124 counter 102 lastSavedTimeStep 12443
eneFile     fileType ONE_FILE saveCount 124 counter 102 lastSavedTimeStep 12443
restartFile fileType ONE_FILE saveCount 124 counter 102 lastSavedTimeStep 12443
statFile    fileType ONE_FILE saveCount 124 counter 0
interactionFile fileType NO_FILE saveCount 0 counter 0
xMin -500 xMax 500 yMin -5000 yMax 5000 zMin -500 zMax 500
timeStep 0.00803718916976729 time 100.006744839431 ntimeSteps 12443 timeMax 100
systemDimensions 3 particleDimensions 3 gravity 0 0 -0 writeVTK 1 MULTIPLE_FILES NO_FILE 102 102 0 0 random  0 1103515245 12345 1073741824 607 273 784607267
Species 1
LinearViscoelasticReversibleAdhesiveSpecies id 0 density 2500 stiffness 10000000000 dissipation -0 adhesionForceMax 0 adhesionStiffness 10000000000
Walls 0
Boundaries 0
Particles 7680
BaseParticle id 0 indSpecies 0 position -349.999866336454 2049.72336544422 -350.000051760374 orientation 1 0 0 0 velocity 0.000464864441592341 0.0266089951386362 0.000513030823168688 angularVelocity 0 0 0 force -455373.221986654 -43938385.3951291 345255.189437152 torque 0 0 0 radius 50 invMass 7.63943726841098e-10
BaseParticle id 1 indSpecies 0 position -349.999934704094 2049.70619861999 -249.999965144694 orientation 1 0 0 0 velocity 0.00051609756927561 0.0250084272719715 0.000243785824687176 angularVelocity 0 0 0 force 276370.299429031 -29691790.4514688 -1423848.15221685 torque 0 0 0 radius 50 invMass 7.63943726841098e-10
BaseParticle id 2 indSpecies 0 position -350.000361898105 2049.70227599855 -150.000140663877 orientation 1 0 0 0 velocity 0.000273955895540672 0.0229809576806693 4.65252256038899e-05 angularVelocity 0 0 0 force 276094.692396232 -68895035.044408 1406479.28666169 torque 0 0 0 radius 50 invMass 7.63943726841098e-10
BaseParticle id 3 indSpecies 0 position -349.999977407738 2049.70650172734 -50.0000938249284 orientation 1 0 0 0 velocity 0.000318476344733351 0.0264087456315624 -0.000120994494368125 angularVelocity 0 0 0 force -84645.2744197569 18290627.2300518 -294487.781358287 torque 0 0 0 radius 50 invMass 7.63943726841098e-10
BaseParticle id 4 indSpecies 0 position -350.000146634301 2049.70860030168 50.0001391678741 orientation 1 0 0 0 velocity 0.000302794220628606 0.0313379163830289 -4.69785729408301e-05 angularVelocity 0 0 0 force 241513.866876897 11272825.2605794 -956652.041743114 torque 0 0 0 radius 50 invMass 7.63943726841098e-10
BaseParticle id 5 indSpecies 0 position -350.00035397818 2049.70177377926 150.00001866136 orientation 1 0 0 0 velocity 0.000280148519147175 0.0228610674543718 -0.000179440322285526 angularVelocity 0 0 0 force 237720.388676328 -67266969.4995643 614039.911097473 torque 0 0 0 radius 50 invMass 7.63943726841098e-10
BaseParticle id 6 indSpecies 0 position -350.000007521846 2049.70549679621 249.999929565479 orientation 1 0 0 0 velocity 0.000488493580008147 0.0248587015543316 5.5619670397775e-05 angularVelocity 0 0 0 force 256773.699406346 -26571977.6379275 619431.940056207 torque 0 0 0 radius 50 invMass 7.63943726841098e-10
BaseParticle id 7 indSpecies 0 position -350.000058679451 2049.72366261289 350.000105207514 orientation 1 0 0 0 velocity 0.000478767059649117 0.0253245196224427 -0.000511228467042745 angularVelocity 0 0 0 force 257047.296918257 -42712763.4240524 -282951.291104783 torque 0 0 0 radius 50 invMass 7.63943726841098e-10
BaseParticle id 8 indSpecies 0 position -249.999941171446 2049.70544484112 -350.000333770908 orientation 1 0 0 0 velocity 0.000139593340885179 0.0248479492571473 0.000456991704398016 angularVelocity 0 0 0 force -528974.248376488 -27856848.0278404 343272.356822535 torque 0 0 0 radius 50 invMass 7.63943726841098e-10
BaseParticle id 9 indSpecies 0 position -249.999913249177 2049.70880436826 -249.9997622549 orientation 1 0 0 0 velocity 0.000410558949414743 0.0532995752883979 0.000116292170630348 angularVelocity 0 0 0 force -911055.994070236 49821245.4027762 -884131.554175633 torque 0 0 0 radius 50 invMass 7.63943726841098e-10
BaseParticle id 10 indSpecies 0 position -249.999894882391 2049.73957022587 -149.999889153646 orientation 1 0 0 0 velocity -8.04706228901299e-05 0.0465912999082048 3.73239755387126e-05 angularVelocity 0 0 0 force -161256.528426613 -46118290.180405 230573.036280638 torque 0 0 0 radius 50 invMass 7.63943726841098e-10
BaseParticle id 11 indSpecies 0 position -250.00001697851 2049.67874750412 -49.9999714867717 orientation 1 0 0 0 velocity -5.21924443787533e-05 0.0208023935483895 0.000159811504786726 angularVelocity 0 0 0 force 234627.17612328 48611526.8249226 110270.753637165 torque 0 0 0 radius 50 invMass 7.63943726841098e-10
BaseParticle id 12 indSpecies 0 position -249.999940693057 2049.67854689507 50.0000059859913 orientation 1 0 0 0 velocity 6.84858381590527e-05 0.0210240846811412 -3.70336082605378e-05 angularVelocity 0 0 0 force -510407.58759727 49648859.0495101 -108107.035346692 torque 0 0 0 radius 50 invMass 7.63943726841098e-10
BaseParticle id 13 indSpecies 0 position -249.999963674396 2049.73926423215 149.999928718418 orientation 1 0 0 0 velocity -0.000163818176765751 0.0460282187612709 -0.000218666436719673 angularVelocity 0 0 0 force 16599.1054087017 -48018075.3686846 120598.239946758 torque 0 0 0 radius 50 invMass 7.63943726841098e-10
BaseParticle id 14 indSpecies 0 position -249.999939112569 2049.70840547985 249.999846598819 orientation 1 0 0 0 velocity 0.000494499606736336 0.052088941651416 -1.13694202291504e-05 angularVelocity 0 0 0 force 251607.934647615 64648959.1323121 496923.631194081 torque 0 0 0 radius 50 invMass 7.63943726841098e-10
BaseParticle id 15 indSpecies 0 position -249.999944011846 2049.70529714651 350.000116595193 orientation 1 0 0 0 velocity 3.11389390554875e-05 0.0247608167780861 -0.000503569563778479 angularVelocity 0 0 0 force -154196.826094196 -26143211.8921579 -282070.230555173 torque 0 0 0 radius 50 invMass 7.63943726841098e-10
BaseParticle id 16 indSpecies 0 position -150.000093862538 2049.70183142332 -350.000195505099 orientation 1 0 0 0 velocity 0.000253373090979454 0.0234730190414953 0.000322195531212557 angularVelocity 0 0 0 force 1253771.67621852 -66473129.5104361 289115.813031726 torque 0 0 0 radius 50 invMass 7.63943726841098e-10
BaseParticle id 17 indSpecies 0 position -150.000036273304 2049.73990215525 -250.000030474772 orientation 1 0 0 0 velocity -2.37629088504105e-05 0.0471471409250905 0.000101169208854168 angularVelocity 0 0 0 force 905000.568796404 -42781214.017128 284759.950807766 torque 0 0 0 radius 50 invMass 7.63943726841098e-10
BaseParticle id 18 indSpecies 0 position -149.999943142378 2049.70838533216 -150.000023031031 orientation 1 0 0 0 velocity -0.000104178056902286 0.0271438207317887 -0.000157833814526681 angularVelocity 0 0 0 force 85283.8593988517 9135310.43768977 -598346.247961532 torque 0 0 0 radius 50 invMass 7.63943726841098e-10
BaseParticle id 19 indSpecies 0 position -150.000061249967 2049.71172800001 -50.0000704867417 orientation 1 0 0 0 velocity 4.20846432287337e-05 0.0289826299223461 -9.87692521365431e-05 angularVelocity 0 0 0 force 32217.713386279 -25729117.2617928 315573.856765631 torque 0 0 0 radius 50 invMass 7.63943726841098e-10
BaseParticle id 20 indSpecies 0 position -150.000020609832 2049.71136551012 49.9999248227521 orientation 1 0 0 0 velocity -7.71563352994434e-05 0.028348922846896 -1.54293555516951e-05 angularVelocity 0 0 0 force 656974.46810231 -17251574.6315803 137511.173484796 torque 0 0 0 radius 50 invMass 7.63943726841098e-10
BaseParticle id 21 indSpecies 0 position -149.999990296546 2049.70833340952 149.999933747132 orientation 1 0 0 0 velocity -0.000112263301865033 0.026615461890058 0.000108630764062916 angularVelocity 0 0 0 force -498492.787351918 1446877.44463239 -31526.9584398812 torque 0 0 0 radius 50 invMass 7.63943726841098e-10
BaseParticle id 22 indSpecies 0 position -149.999930550205 2049.73923188376 249.999915396063 orientation 1 0 0 0 velocity -0.000181733618529231 0.0498161000519597 -1.62814458519535e-05 angularVelocity 0 0 0 force -276757.797479686 -26587075.617876 -106012.759888259 torque 0 0 0 radius 50 invMass 7.63943726841098e-10
BaseParticle id 23 indSpecies 0 position -149.99998414327 2049.70124179702 350.000495678017 orientation 1 0 0 0 velocity -9.2348754062138e-05 0.0231330496052068 -0.000273790772421403 angularVelocity 0 0 0 force -308414.019293234 -62526816.3409199 -245061.882063407 torque 0 0 0 radius 50 invMass 7.63943726841098e-10
BaseParticle id 24 indSpecies 0 position -50.0000684930383 2049.70691643008 -349.999972382337 orientation 1 0 0 0 velocity -8.31543433303531e-05 0.0272364005779729 0.000352048991813173 angularVelocity 0 0 0 force -221552.130903476 17638916.6462515 66159.4782816444 torque 0 0 0 radius 50 invMass 7.63943726841098e-10
BaseParticle id 25 indSpecies 0 position -50.0000528603681 2049.67844795565 -249.999999154551 orientation 1 0 0 0 velocity -0.000135863490597876 0.0206363371911228 -2.74168107859867e-05 angularVelocity 0 0 0 force -230550.91723716 49359644.6846366 511866.475809791 torque 0 0 0 radius 50 invMass 7.63943726841098e-10
BaseParticle id 26 indSpecies 0 position -49.9999647541398 2049.71176467873 -149.999999074966 orientation 1 0 0 0 velocity -0.000154964531691725 0.0289706981885277 -0.000137626513340523 angularVelocity 0 0 0 force -252935.471389526 -26193493.9575833 -827270.817837858 torque 0 0 0 radius 50 invMass 7.63943726841098e-10
BaseParticle id 27 indSpecies 0 position -50.0000848683443 2049.7020347083 -50.0000701193316 orientation 1 0 0 0 velocity -0.000104474104368049 0.0260755964936737 -1.68322790259961e-05 angularVelocity 0 0 0 force -147103.429944437 12071664.0268853 597258.224046682 torque 0 0 0 radius 50 invMass 7.63943726841098e-10
BaseParticle id 28 indSpecies 0 position -50.0000152088616 2049.70217721051 50.0000054687526 orientation 1 0 0 0 velocity -7.45636783587174e-05 0.0262466461626029 9.70742846217995e-05 angularVelocity 0 0 0 force -72061.9733263537 9113182.44952523 -64022.4528923919 torque 0 0 0 radius 50 invMass 7.63943726841098e-10
BaseParticle id 29 indSpecies 0 position -50.0000530935751 2049.71136134009 149.999989900099 orientation 1 0 0 0 velocity 4.95649548087349e-05 0.0283643077967089 -2.05353250590583e-05 angularVelocity 0 0 0 force 517544.517329555 -17056988.5745123 -415608.485752097 torque 0 0 0 radius 50 invMass 7.63943726841098e-10
BaseParticle id 30 indSpecies 0 position -49.999935044595 2049.67907518333 249.999917797196 orientation 1 0 0 0 velocity -8.23195390499801e-05 0.020132748621852 6.44508560448434e-05 angularVelocity 0 0 0 force -358804.63712547 47284615.0861006 427271.083426461 torque 0 0 0 radius 50 invMass 7.63943726841098e-10
BaseParticle id 31 indSpecies 0 position -50.0000278515515 2049.70596047547 350.000077624945 orientation 1 0 0 0 velocity 0.000153364514191209 0.0248062138939239 -0.000340191876098978 angularVelocity 0 0 0 force 215141.545151206 22590078.8396742 -248714.106762951 torque 0 0 0 radius 50 invMass 7.63943726841098e-10
BaseParticle id 32 indSpecies 0 position 50.0001262388261 2049.70365901527 -350.000203358013 orientation 1 0 0 0 velocity 5.13952431488571e-05 0.0211727696810958 0.000300912258377524 angularVelocity 0 0 0 force -488527.682404473 38575001.1514593 333575.10413063 torque 0 0 0 radius 50 invMass 7.63943726841098e-10
BaseParticle id 33 indSpecies 0 position 50.0000096089111 2049.679530581 -250.000095946006 orientation 1 0 0 0 velocity -0.000109356149256652 0.0218149572664686 -7.60470981499138e-05 angularVelocity 0 0 0 force -261916.277524934 50140978.8711684 52510.1541530862 torque 0 0 0 radius 50 invMass 7.63943726841098e-10
BaseParticle id 34 indSpecies 0 position 49.9999996351255 2049.71177750687 -150.000128443521 orientation 1 0 0 0 velocity 0.000156255942136489 0.0287012394829235 -9.8941534876223e-05 angularVelocity 0 0 0 force 517694.210823124 -25536305.4811258 122175.9834576 torque 0 0 0 radius 50 invMass 7.63943726841098e-10
BaseParticle id 35 indSpecies 0 position 49.9998875257211 2049.70194791521 -50.0000887145322 orientation 1 0 0 0 velocity -4.4795175708104e-05 0.0262795120712874 -5.09497539955786e-05 angularVelocity 0 0 0 force 429438.187915107 11171996.7255856 -132219.379875044 torque 0 0 0 radius 50 invMass 7.63943726841098e-10
BaseParticle id 36 indSpecies 0 position 50.0001002179708 2049.70198447608 50.0000294217861 orientation 1 0 0 0 velocity 0.000201642134403288 0.0260500330666717 3.80534322801203e-05 angularVelocity 0 0 0 force -300376.773644471 11688647.4370806 107257.481083823 torque 0 0 0 radius 50 invMass 7.63943726841098e-10
BaseParticle id 37 indSpecies 0 position 49.9999433007635 2049.71158799094 150.000070131725 orientation 1 0 0 0 velocity 0.000225373344364465 0.0285772063308595 0.000246429670714354 angularVelocity 0 0 0 force -19959.3924391583 -18490448.2008339 -462448.034359482 torque 0 0 0 radius 50 invMass 7.63943726841098e-10
BaseParticle id 38 indSpecies 0 position 50.0000519927006 2049.67940906605 250.000005989529 orientation 1 0 0 0 velocity -0.000101519603139356 0.0190547220272921 -9.64044855093202e-05 angularVelocity 0 0 0 force -152041.196153594 40581002.3579266 314483.661311257 torque 0 0 0 radius 50 invMass 7.63943726841098e-10
BaseParticle id 39 indSpecies 0 position 50.0000062455154 2049.70576240225 350.000358913633 orientation 1 0 0 0 velocity -0.000172011036158063 0.0255256036772117 -0.000277589207300456 angularVelocity 0 0 0 force -600085.911449363 23895327.5552218 -281865.885941731 torque 0 0 0 radius 50 invMass 7.63943726841098e-10
BaseParticle id 40 indSpecies 0 position 150.000049732264 2049.70144563025 -350.000592615017 orientation 1 0 0 0 velocity -0.000213574959411054 0.0224730683144218 0.000230777727730633 angularVelocity 0 0 0 force -204747.876861483 -67741474.4111172 338157.379369966 torque 0 0 0 radius 50 invMass 7.63943726841098e-10
BaseParticle id 41 indSpecies 0 position 149.999936497509 2049.74020676482 -249.999903174694 orientation 1 0 0 0 velocity -0.000133019161903383 0.0491456375811676 -0.000152520792852579 angularVelocity 0 0 0 force 408331.170179182 -33754834.9638053 -543470.367675893 torque 0 0 0 radius 50 invMass 7.63943726841098e-10
BaseParticle id 42 indSpecies 0 position 150.000025040381 2049.70874312008 -149.999995885474 orientation 1 0 0 0 velocity 7.63398610696786e-05 0.0271772276724547 -0.000109077803732803 angularVelocity 0 0 0 force -1013637.93725874 10229019.4684452 718070.544982177 torque 0 0 0 radius 50 invMass 7.63943726841098e-10
BaseParticle id 43 indSpecies 0 position 150.000046058616 2049.71174079199 -49.9999882563597 orientation 1 0 0 0 velocity 7.72569597874114e-05 0.0287022542593771 1.16636280929573e-05 angularVelocity 0 0 0 force -415559.136035589 -25050400.0502354 -962299.122188608 torque 0 0 0 radius 50 invMass 7.63943726841098e-10
BaseParticle id 44 indSpecies 0 position 150.000055834484 2049.71162979736 49.9999296451384 orientation 1 0 0 0 velocity -3.91087133365107e-05 0.0285751662768602 0.000142001270874737 angularVelocity 0 0 0 force -138814.015857369 -19069074.7914647 936689.715030867 torque 0 0 0 radius 50 invMass 7.63943726841098e-10
BaseParticle id 45 indSpecies 0 position 149.999923438077 2049.70838939924 150.000014839061 orientation 1 0 0 0 velocity 5.30327176626276e-05 0.0272405913777471 9.95543380741822e-05 angularVelocity 0 0 0 force 354716.515655167 3730783.60635944 -251497.35793568 torque 0 0 0 radius 50 invMass 7.63943726841098e-10
BaseParticle id 46 indSpecies 0 position 149.999976607259 2049.73937246904 249.999971405397 orientation 1 0 0 0 velocity -0.000112949889759395 0.0494513175946383 1.20073815726312e-05 angularVelocity 0 0 0 force -160573.375902749 -30035297.0875382 103812.854413257 torque 0 0 0 radius 50 invMass 7.63943726841098e-10
BaseParticle id 47 indSpecies 0 position 149.999917728247 2049.70098143681 350.000512374456 orientation 1 0 0 0 velocity 3.75223735282444e-05 0.0235663429735665 -0.00024790404756862 angularVelocity 0 0 0 force 900633.808482144 -60220929.1165663 -285946.109640519 torque 0 0 0 radius 50 invMass 7.63943726841098e-10
BaseParticle id 48 indSpecies 0 position 249.999920165511 2049.70523240024 -350.000302601956 orientation 1 0 0 0 velocity -5.54446657753403e-05 0.0260086661174588 0.000472828544313757 angularVelocity 0 0 0 force 784974.085469308 -27830795.635454 349643.390260753 torque 0 0 0 radius 50 invMass 7.63943726841098e-10
BaseParticle id 49 indSpecies 0 position 249.999884609987 2049.70869979148 -249.999874931498 orientation 1 0 0 0 velocity -1.78059864782725e-05 0.0507542408349411 3.14862951512801e-05 angularVelocity 0 0 0 force 160602.295919635 71349592.994603 -75927.5626817932 torque 0 0 0 radius 50 invMass 7.63943726841098e-10
BaseParticle id 50 indSpecies 0 position 249.999900776812 2049.73953083223 -149.999921624383 orientation 1 0 0 0 velocity 0.00013924292614166 0.0488475436156982 -5.00180998047919e-05 angularVelocity 0 0 0 force 886681.494459845 -31889038.176834 -596003.820458943 torque 0 0 0 radius 50 invMass 7.63943726841098e-10
BaseParticle id 51 indSpecies 0 position 249.99998194624 2049.67957737709 -50.0000102614074 orientation 1 0 0 0 velocity 5.32874793807424e-05 0.0211657597210809 0.000167220494229646 angularVelocity 0 0 0 force 287739.371640409 48067777.5453299 441687.406700303 torque 0 0 0 radius 50 invMass 7.63943726841098e-10
BaseParticle id 52 indSpecies 0 position 249.999977623142 2049.67971371142 50.0000315891036 orientation 1 0 0 0 velocity -1.46756049875476e-05 0.0195005056037127 9.54685399056122e-05 angularVelocity 0 0 0 force 452156.981741856 42371277.5568999 234232.046275266 torque 0 0 0 radius 50 invMass 7.63943726841098e-10
BaseParticle id 53 indSpecies 0 position 249.999958739293 2049.73958246097 150.000088952879 orientation 1 0 0 0 velocity -5.7874968482468e-05 0.0493231735655608 -0.000256879060029223 angularVelocity 0 0 0 force -281003.313233185 -34185879.5050819 -1387929.48438927 torque 0 0 0 radius 50 invMass 7.63943726841098e-10
BaseParticle id 54 indSpecies 0 position 249.999865015591 2049.71024480735 249.999917983118 orientation 1 0 0 0 velocity -7.11187691371394e-07 0.0517682754662412 -1.25357030369607e-05 angularVelocity 0 0 0 force 768982.906808207 35605919.8287033 1357756.18268792 torque 0 0 0 radius 50 invMass 7.63943726841098e-10
BaseParticle id 55 indSpecies 0 position 249.999885920756 2049.70552939517 350.000034040092 orientation 1 0 0 0 velocity 1.99798958804636e-05 0.0256379835460257 -0.000509260816547048 angularVelocity 0 0 0 force 19086.4652633652 -29949551.7768728 -314443.390954712 torque 0 0 0 radius 50 invMass 7.63943726841098e-10
BaseParticle id 56 indSpecies 0 position 349.999897620314 2049.72382623381 -349.99979478166 orientation 1 0 0 0 velocity -0.000522041311324262 0.0265406042297678 0.000520176817288748 angularVelocity 0 0 0 force -107721.284258704 -58874659.1786582 -565348.650892662 torque 0 0 0 radius 50 invMass 7.63943726841098e-10
BaseParticle id 57 indSpecies 0 position 350.000130040643 2049.70518251733 -249.999888165729 orientation 1 0 0 0 velocity -0.000472379559957933 0.0260112695857385 2.51874864118981e-05 angularVelocity 0 0 0 force -314692.374553728 -28126520.7002413 599551.960511403 torque 0 0 0 radius 50 invMass 7.63943726841098e-10
BaseParticle id 58 indSpecies 0 position 350.000270469045 2049.70204511664 -149.999953583727 orientation 1 0 0 0 velocity -0.000306981935805733 0.0222683326937446 -7.49094473153531e-07 angularVelocity 0 0 0 force -312788.855136122 -69455884.8730825 -166808.660201839 torque 0 0 0 radius 50 invMass 7.63943726841098e-10
BaseParticle id 59 indSpecies 0 position 350.0002536082 2049.70517053491 -50.0000053739966 orientation 1 0 0 0 velocity -0.000289677097637161 0.0243758699088889 -8.10392601076551e-05 angularVelocity 0 0 0 force -310209.708997239 25364787.1426757 -235620.110552402 torque 0 0 0 radius 50 invMass 7.63943726841098e-10
BaseParticle id 60 indSpecies 0 position 350.000011182022 2049.70533406903 49.9999449716037 orientation 1 0 0 0 velocity -0.000351906702798661 0.0245967458890101 -5.43958835035052e-05 angularVelocity 0 0 0 force -287686.687865806 26223286.4073081 254882.923044722 torque 0 0 0 radius 50 invMass 7.63943726841098e-10
BaseParticle id 61 indSpecies 0 position 350.000556116321 2049.70120872508 149.999898164231 orientation 1 0 0 0 velocity -0.000257847177573326 0.0236182277855717 7.54500811264787e-05 angularVelocity 0 0 0 force -284678.816751375 -61482632.9980519 -172099.154310415 torque 0 0 0 radius 50 invMass 7.63943726841098e-10
BaseParticle id 62 indSpecies 0 position 349.999962561294 2049.70553530898 249.999806776821 orientation 1 0 0 0 velocity -0.000530640345999084 0.0256450288459819 -2.91339247698575e-05 angularVelocity 0 0 0 force -310789.679793838 -29961939.967883 609859.70735023 torque 0 0 0 radius 50 invMass 7.63943726841098e-10
BaseParticle id 63 indSpecies 0 position 350.000249374573 2049.72326414939 349.999955426272 orientation 1 0 0 0 velocity -0.000483945954606921 0.0268669627976805 -0.000517677237047582 angularVelocity 0 0 0 force -311151.810874198 -38879989.234871 -315695.256480127 torque 0 0 0 radius 50 invMass 7.63943726841098e-10
BaseParticle id 64 indSpecies 0 position -350.000651559888 2149.71204909121 -350.000626116812 orientation 1 0 0 0 velocity 0.000361726016132669 -0.00622864764879887 0.000389007950037126 angularVelocity 0 0 0 force 256912.399557591 29443624.7330231 321938.455291804 torque 0 0 0 radius 50 invMass 7.63943726841098e-10
BaseParticle id 65 indSpecies 0 position -350.000279662957 2149.69626852302 -249.999906489789 orientation 1 0 0 0 velocity 0.00044307779348845 0.0418297452436631 4.38663990214588e-05 angularVelocity 0 0 0 force 260885.630826254 10035347.9173428 -1066462.24581178 torque 0 0 0 radius 50 invMass 7.63943726841098e-10
BaseParticle id 66 indSpecies 0 position -350.00016812414 2149.68826769829 -150.000045441662 orientation 1 0 0 0 velocity 0.000276642691926444 0.0406875504629127 -3.60263616385156e-05 angularVelocity 0 0 0 force 262408.733738172 100555498.366392 1047016.29519612 torque 0 0 0 radius 50 invMass 7.63943726841098e-10
BaseParticle id 67 indSpecies 0 position -349.999997441889 2149.70100349802 -50.0000077227629 orientation 1 0 0 0 velocity 0.000315859547625594 0.0327230066594879 -4.04520780091259e-05 angularVelocity 0 0 0 force 257996.300235283 -72598645.7831188 -293913.176483254 torque 0 0 0 radius 50 invMass 7.63943726841098e-10
BaseParticle id 68 indSpecies 0 position -350.000016283087 2149.70241651268 50.0000747795861 orientation 1 0 0 0 velocity 0.000323197458134535 0.0297894612437157 4.69592266984326e-05 angularVelocity 0 0 0 force 226961.563113956 -70894448.8972996 -183946.689283629 torque 0 0 0 radius 50 invMass 7.63943726841098e-10
BaseParticle id 69 indSpecies 0 position -350.000077653537 2149.68792414117 150.00003058458 orientation 1 0 0 0 velocity 0.00030832055251775 0.0394416552406226 0.000233415014391312 angularVelocity 0 0 0 force 225832.862893972 106273340.49638 210447.0840565 torque 0 0 0 radius 50 invMass 7.63943726841098e-10
BaseParticle id 70 indSpecies 0 position -350.000336263156 2149.6958634218 249.999978761769 orientation 1 0 0 0 velocity 0.000416271355186582 0.0419300420838545 -0.000217363210004687 angularVelocity 0 0 0 force 242323.712244041 6050010.54103455 253713.63463822 torque 0 0 0 radius 50 invMass 7.63943726841098e-10
BaseParticle id 71 indSpecies 0 position -350.00025549654 2149.71245784125 350.000446638592 orientation 1 0 0 0 velocity 0.000413148198542704 -0.00650891546883912 -0.000418077788524896 angularVelocity 0 0 0 force 240325.454337614 25142413.7448771 -263147.052622156 torque 0 0 0 radius 50 invMass 7.63943726841098e-10
BaseParticle id 72 indSpecies 0 position -249.999990074703 2149.6956937154 -350.000136453162 orientation 1 0 0 0 velocity 0.000240827441368955 0.0417917306547337 0.000480535432223372 angularVelocity 0 0 0 force -523191.477775414 8581618.59667225 325947.577080381 torque 0 0 0 radius 50 invMass 7.63943726841098e-10
BaseParticle id 73 indSpecies 0 position -250.000098153163 2149.70664036694 -249.999990828699 orientation 1 0 0 0 velocity 0.000162943245336096 0.0043418438663233 7.63065936043017e-06 angularVelocity 0 0 0 force 261041.790624667 -48866187.2417564 -710729.859956275 torque 0 0 0 radius 50 invMass 7.63943726841098e-10
BaseParticle id 74 indSpecies 0 position -250.000040010438 2149.72778228673 -150.000096748852 orientation 1 0 0 0 velocity -7.47522750613785e-05 0.00539538756482173 0.000157221106966246 angularVelocity 0 0 0 force -440818.582585542 82467470.888073 213637.938888067 torque 0 0 0 radius 50 invMass 7.63943726841098e-10
BaseParticle id 75 indSpecies 0 position -249.999969260375 2149.67620769407 -50.0001580083556 orientation 1 0 0 0 velocity -9.13328786958223e-05 0.0580994678102033 4.66999626410575e-05 angularVelocity 0 0 0 force -335015.033940401 95264604.6403487 175256.713302171 torque 0 0 0 radius 50 invMass 7.63943726841098e-10
BaseParticle id 76 indSpecies 0 position -249.999981659791 2149.67610834747 50.0000440366732 orientation 1 0 0 0 velocity -2.49986075283258e-05 0.057718881940055 0.000107187155622894 angularVelocity 0 0 0 force -624889.028565525 94270026.085557 -506990.347645658 torque 0 0 0 radius 50 invMass 7.63943726841098e-10
BaseParticle id 77 indSpecies 0 position -250.000070177923 2149.7272905581 149.999954420879 orientation 1 0 0 0 velocity -5.6456833732791e-05 0.00503751211510092 -0.000239586089317979 angularVelocity 0 0 0 force 5534.54818794427 89054681.3679697 1036594.22671377 torque 0 0 0 radius 50 invMass 7.63943726841098e-10
BaseParticle id 78 indSpecies 0 position -249.999902333711 2149.7076817717 249.999949909566 orientation 1 0 0 0 velocity 0.000187357818701001 0.00637033485967028 -0.000114815064447222 angularVelocity 0 0 0 force -1330596.71268212 -71850938.2910995 -241528.904160903 torque 0 0 0 radius 50 invMass 7.63943726841098e-10
BaseParticle id 79 indSpecies 0 position -250.000099186633 2149.69570571705 350.000378252014 orientation 1 0 0 0 velocity 5.87646940342739e-05 0.0419138094691753 -0.000444252202827646 angularVelocity 0 0 0 force 237775.862515473 5545117.47866958 -265854.745163847 torque 0 0 0 radius 50 invMass 7.63943726841098e-10
BaseParticle id 80 indSpecies 0 position -150.000068281826 2149.68804699058 -350.000118182827 orientation 1 0 0 0 velocity -0.000222637085933259 0.0388731649399289 0.00031787106745375 angularVelocity 0 0 0 force 513116.128002361 102153764.81376 274386.074542203 torque 0 0 0 radius 50 invMass 7.63943726841098e-10
BaseParticle id 81 indSpecies 0 position -150.000071344617 2149.72842750827 -250.000027259417 orientation 1 0 0 0 velocity 0.000162952080111932 0.00540146516552168 -6.19073026157407e-05 angularVelocity 0 0 0 force -269274.22193866 77180417.0113057 -746745.603705201 torque 0 0 0 radius 50 invMass 7.63943726841098e-10
BaseParticle id 82 indSpecies 0 position -150.000113659888 2149.70183475518 -150.000132830916 orientation 1 0 0 0 velocity 3.19622106013655e-05 0.0523863706560492 -4.6373473598498e-06 angularVelocity 0 0 0 force 573571.388567411 136567441.863945 619626.140648909 torque 0 0 0 radius 50 invMass 7.63943726841098e-10
BaseParticle id 83 indSpecies 0 position -150.00003168711 2149.70177280747 -50.0001608769922 orientation 1 0 0 0 velocity 8.22042945866531e-05 0.029893675533717 -5.67597551601676e-05 angularVelocity 0 0 0 force 37038.3337883468 55867122.6852141 170373.970385693 torque 0 0 0 radius 50 invMass 7.63943726841098e-10
BaseParticle id 84 indSpecies 0 position -150.00007004694 2149.70224321029 50.0000344804826 orientation 1 0 0 0 velocity -8.33397221578299e-06 0.0300582576454134 8.19459808734558e-05 angularVelocity 0 0 0 force 762683.509125762 45861314.7868384 89639.9872866376 torque 0 0 0 radius 50 invMass 7.63943726841098e-10
BaseParticle id 85 indSpecies 0 position -150.000095612825 2149.70103795818 150.000086897297 orientation 1 0 0 0 velocity -0.000129299617781951 0.0534058908887645 9.50723867779949e-05 angularVelocity 0 0 0 force -436826.762777859 143787902.92755 -752598.046841816 torque 0 0 0 radius 50 invMass 7.63943726841098e-10
BaseParticle id 86 indSpecies 0 position -150.000062061297 2149.7293547193 249.999997551 orientation 1 0 0 0 velocity 0.000123734258386202 0.00555183492137987 -0.000102550830184362 angularVelocity 0 0 0 force 1245852.61715106 44932862.811381 621200.980873898 torque 0 0 0 radius 50 invMass 7.63943726841098e-10
BaseParticle id 87 indSpecies 0 position -150.000062717052 2149.6878584384 350.000273771244 orientation 1 0 0 0 velocity 0.000172404832543355 0.0389071412185878 -0.000297719837874118 angularVelocity 0 0 0 force -533040.764547675 100635143.43881 -232296.033892147 torque 0 0 0 radius 50 invMass 7.63943726841098e-10
BaseParticle id 88 indSpecies 0 position -49.9999916874815 2149.70134924021 -350.00033150053 orientation 1 0 0 0 velocity -4.85661779391548e-05 0.0317267905887289 0.00027761122690554 angularVelocity 0 0 0 force -223271.158709291 -72387431.9693998 276069.184802595 torque 0 0 0 radius 50 invMass 7.63943726841098e-10
BaseParticle id 89 indSpecies 0 position -50.0000037604072 2149.67597464096 -249.999949301363 orientation 1 0 0 0 velocity -8.02599640712494e-05 0.0581685028956267 -6.77261353970772e-05 angularVelocity 0 0 0 force -233437.995474026 94686841.6019421 183851.902321563 torque 0 0 0 radius 50 invMass 7.63943726841098e-10
BaseParticle id 90 indSpecies 0 position -50.0000591324921 2149.70176733261 -149.99996156327 orientation 1 0 0 0 velocity -8.014478344377e-05 0.0299573716203634 -9.46525975823365e-05 angularVelocity 0 0 0 force -113019.564280685 56236073.79162 -30724.6723170064 torque 0 0 0 radius 50 invMass 7.63943726841098e-10