<?xml version="1.0"?>
<!-- time 68.2679-->
<VTKFile type="UnstructuredGrid" version="0.1" byte_order="LittleEndian">
<UnstructuredGrid>
<Piece NumberOfPoints="7680" NumberOfCells="0">
<Points>
  <DataArray type="Float32" Name="Position" NumberOfComponents="3" format="ascii">
	-350 2049.56 -350
	-350 2049.62 -250
	-350 2049.6 -150
	-350 2049.58 -50
	-350 2049.58 50
	-350 2049.6 150
	-350 2049.62 250
	-350 2049.56 350
	-250 2049.62 -350
	-250 2049.62 -250
	-250 2049.63 -150
	-250 2049.62 -50
	-250 2049.62 50
	-250 2049.63 150
	-250 2049.62 250
	-250 2049.62 350
	-150 2049.6 -350
	-150 2049.63 -250
	-150 2049.64 -150
	-150 2049.61 -50
	-150 2049.61 50
	-150 2049.64 150
	-150 2049.63 250
	-150 2049.6 350
	-50 2049.58 -350
	-50 2049.62 -250
	-50 2049.61 -150
	-50 2049.59 -50
	-50 2049.59 50
	-50 2049.61 150
	-50 2049.62 250
	-50 2049.58 350
	50 2049.58 -350
	50 2049.62 -250
	50 2049.61 -150
	50 2049.59 -50
	50 2049.59 50
	50 2049.61 150
	50 2049.62 250
	50 2049.58 350
	150 2049.6 -350
	150 2049.63 -250
	150 2049.64 -150
	150 2049.61 -50
	150 2049.61 50
	150 2049.64 150
	150 2049.63 250
	150 2049.6 350
	250 2049.62 -350
	250 2049.62 -250
	250 2049.63 -150
	250 2049.62 -50
	250 2049.62 50
	250 2049.63 150
	250 2049.62 250
	250 2049.62 350
	350 2049.56 -350
	350 2049.62 -250
	350 2049.6 -150
	350 2049.58 -50
	350 2049.58 50
	350 2049.6 150
	350 2049.62 250
	350 2049.56 350
	-350 2149.65 -350
	-350 2149.66 -250
	-350 2149.66 -150
	-350 2149.65 -50
	-350 2149.65 50
	-350 2149.66 150
	-350 2149.66 250
	-350 2149.65 350
	-250 2149.66 -350
	-250 2149.65 -250
	-250 2149.66 -150
	-250 2149.64 -50
	-250 2149.64 50
	-250 2149.66 150
	-250 2149.65 250
	-250 2149.66 350
	-150 2149.66 -350
	-150 2149.66 -250
	-150 2149.65 -150
	-150 2149.65 -50
	-150 2149.65 50
	-150 2149.65 150
	-150 2149.66 250
	-150 2149.66 350
	-50 2149.65 -350
	-50 2149.64 -250
	-50 2149.65 -150
	-50 2149.63 -50
	-50 2149.63 50
	-50 2149.65 150
	-50 2149.64 250
	-50 2149.65 350
	50 2149.65 -350
	50 2149.64 -250
	50 2149.65 -150
	50 2149.63 -50
	50 2149.63 50
	50 2149.65 150
	50 2149.64 250
	50 2149.65 350
	150 2149.66 -350
	150 2149.66 -250
	150 2149.65 -150
	150 2149.65 -50
	150 2149.65 50
	150 2149.65 150
	150 2149.66 250
	150 2149.66 350
	250 2149.66 -350
	250 2149.65 -250
	250 2149.66 -150
	250 2149.64 -50
	250 2149.64 50
	250 2149.66 150
	250 2149.65 250
	250 2149.66 350
	350 2149.65 -350
	350 2149.66 -250
	350 2149.66 -150
	350 2149.65 -50
	350 2149.65 50
	350 2149.66 150
	350 2149.66 250
	350 2149.65 350
	-350 2249.65 -350
	-350 2249.66 -250
	-350 2249.66 -150
	-350 2249.66 -50
	-350 2249.66 50
	-350 2249.66 150
	-350 2249.66 250
	-350 2249.65 350
	-250 2249.66 -350
	-250 2249.65 -250
	-250 2249.66 -150
	-250 2249.65 -50
	-250 2249.65 50
	-250 2249.66 150
	-250 2249.65 250
	-250 2249.66 350
	-150 2249.66 -350
	-150 2249.66 -250
	-150 2249.66 -150
	-150 2249.66 -50
	-150 2249.66 50
	-150 2249.66 150
	-150 2249.66 250
	-150 2249.66 350
	-50 2249.66 -350
	-50 2249.65 -250
	-50 2249.66 -150
	-50 2249.66 -50
	-50 2249.66 50
	-50 2249.66 150
	-50 2249.65 250
	-50 2249.66 350
	50 2249.66 -350
	50 2249.65 -250
	50 2249.66 -150
	50 2249.66 -50
	50 2249.66 50
	50 2249.66 150
	50 2249.65 250
	50 2249.66 350
	150 2249.66 -350
	150 2249.66 -250
	150 2249.66 -150
	150 2249.66 -50
	150 2249.66 50
	150 2249.66 150
	150 2249.66 250
	150 2249.66 350
	250 2249.66 -350
	250 2249.65 -250
	250 2249.66 -150
	250 2249.65 -50
	250 2249.65 50
	250 2249.66 150
	250 2249.65 250
	250 2249.66 350
	350 2249.65 -350
	350 2249.66 -250
	350 2249.66 -150
	350 2249.66 -50
	350 2249.66 50
	350 2249.66 150
	350 2249.66 250
	350 2249.65 350
	-350 2349.65 -350
	-350 2349.67 -250
	-350 2349.67 -150
	-350 2349.66 -50
	-350 2349.66 50
	-350 2349.67 150
	-350 2349.67 250
	-350 2349.65 350
	-250 2349.67 -350
	-250 2349.66 -250
	-250 2349.66 -150
	-250 2349.66 -50
	-250 2349.66 50
	-250 2349.66 150
	-250 2349.66 250
	-250 2349.67 350
	-150 2349.67 -350
	-150 2349.66 -250
	-150 2349.66 -150
	-150 2349.66 -50
	-150 2349.66 50
	-150 2349.66 150
	-150 2349.66 250
	-150 2349.67 350
	-50 2349.66 -350
	-50 2349.66 -250
	-50 2349.66 -150
	-50 2349.66 -50
	-50 2349.66 50
	-50 2349.66 150
	-50 2349.66 250
	-50 2349.66 350
	50 2349.66 -350
	50 2349.66 -250
	50 2349.66 -150
	50 2349.66 -50
	50 2349.66 50
	50 2349.66 150
	50 2349.66 250
	50 2349.66 350
	150 2349.67 -350
	150 2349.66 -250
	150 2349.66 -150
	150 2349.66 -50
	150 2349.66 50
	150 2349.66 150
	150 2349.66 250
	150 2349.67 350
	250 2349.67 -350
	250 2349.66 -250
	250 2349.66 -150
	250 2349.66 -50
	250 2349.66 50
	250 2349.66 150
	250 2349.66 250
	250 2349.67 350
	350 2349.65 -350
	350 2349.67 -250
	350 2349.67 -150
	350 2349.66 -50
	350 2349.66 50
	350 2349.67 150
	350 2349.67 250
	350 2349.65 350
	-350 2449.66 -350
	-350 2449.67 -250
	-350 2449.67 -150
	-350 2449.66 -50
	-350 2449.66 50
	-350 2449.67 150
	-350 2449.67 250
	-350 2449.66 350
	-250 2449.67 -350
	-250 2449.66 -250
	-250 2449.66 -150
	-250 2449.66 -50
	-250 2449.66 50
	-250 2449.66 150
	-250 2449.66 250
	-250 2449.67 350
	-150 2449.67 -350
	-150 2449.66 -250
	-150 2449.66 -150
	-150 2449.66 -50
	-150 2449.66 50
	-150 2449.66 150
	-150 2449.66 250
	-150 2449.67 350
	-50 2449.66 -350
	-50 2449.66 -250
	-50 2449.66 -150
	-50 2449.66 -50
	-50 2449.66 50
	-50 2449.66 150
	-50 2449.66 250
	-50 2449.66 350
	50 2449.66 -350
	50 2449.66 -250
	50 2449.66 -150
	50 2449.66 -50
	50 2449.66 50
	50 2449.66 150
	50 2449.66 250
	50 2449.66 350
	150 2449.67 -350
	150 2449.66 -250
	150 2449.66 -150
	150 2449.66 -50
	150 2449.66 50
	150 2449.66 150
	150 2449.66 250
	150 2449.67 350
	250 2449.67 -350
	250 2449.66 -250
	250 2449.66 -150
	250 2449.66 -50
	250 2449.66 50
	250 2449.66 150
	250 2449.66 250
	250 2449.67 350
	350 2449.66 -350
	350 2449.67 -250
	350 2449.67 -150
	350 2449.66 -50
	350 2449.66 50
	350 2449.67 150
	350 2449.67 250
	350 2449.66 350
	-350 2549.66 -350
	-350 2549.67 -250
	-350 2549.67 -150
	-350 2549.66 -50
	-350 2549.66 50
	-350 2549.67 150
	-350 2549.67 250
	-350 2549.66 350
	-250 2549.67 -350
	-250 2549.66 -250
	-250 2549.66 -150
	-250 2549.66 -50
	-250 2549.66 50
	-250 2549.66 150
	-250 2549.66 250
	-250 2549.67 350
	-150 2549.67 -350
	-150 2549.66 -250
	-150 2549.66 -150
	-150 2549.66 -50
	-150 2549.66 50
	-150 2549.66 150
	-150 2549.66 250
	-150 2549.67 350
	-50 2549.66 -350
	-50 2549.66 -250
	-50 2549.66 -150
	-50 2549.67 -50
	-50 2549.67 50
	-50 2549.66 150
	-50 2549.66 250
	-50 2549.66 350
	50 2549.66 -350
	50 2549.66 -250
	50 2549.66 -150
	50 2549.67 -50
	50 2549.67 50
	50 2549.66 150
	50 2549.66 250
	50 2549.66 350
	150 2549.67 -350
	150 2549.66 -250
	150 2549.66 -150
	150 2549.66 -50
	150 2549.66 50
	150 2549.66 150
	150 2549.66 250
	150 2549.67 350
	250 2549.67 -350
	250 2549.66 -250
	250 2549.66 -150
	250 2549.66 -50
	250 2549.66 50
	250 2549.66 150
	250 2549.66 250
	250 2549.67 350
	350 2549.66 -350
	350 2549.67 -250
	350 2549.67 -150
	350 2549.66 -50
	350 2549.66 50
	350 2549.67 150
	350 2549.67 250
	350 2549.66 350
	-350 2649.66 -350
	-350 2649.67 -250
	-350 2649.67 -150
	-350 2649.66 -50
	-350 2649.66 50
	-350 2649.67 150
	-350 2649.67 250
	-350 2649.66 350
	-250 2649.67 -350
	-250 2649.66 -250
	-250 2649.66 -150
	-250 2649.66 -50
	-250 2649.66 50
	-250 2649.66 150
	-250 2649.66 250
	-250 2649.67 350
	-150 2649.67 -350
	-150 2649.66 -250
	-150 2649.66 -150
	-150 2649.66 -50
	-150 2649.66 50
	-150 2649.66 150
	-150 2649.66 250
	-150 2649.67 350
	-50 2649.66 -350
	-50 2649.66 -250
	-50 2649.66 -150
	-50 2649.67 -50
	-50 2649.67 50
	-50 2649.66 150
	-50 2649.66 250
	-50 2649.66 350
	50 2649.66 -350
	50 2649.66 -250
	50 2649.66 -150
	50 2649.67 -50
	50 2649.67 50
	50 2649.66 150
	50 2649.66 250
	50 2649.66 350
	150 2649.67 -350
	150 2649.66 -250
	150 2649.66 -150
	150 2649.66 -50
	150 2649.66 50
	150 2649.66 150
	150 2649.66 250
	150 2649.67 350
	250 2649.67 -350
	250 2649.66 -250
	250 2649.66 -150
	250 2649.66 -50
	250 2649.66 50
	250 2649.66 150
	250 2649.66 250
	250 2649.67 350
	350 2649.66 -350
	350 2649.67 -250
	350 2649.67 -150
	350 2649.66 -50
	350 2649.66 50
	350 2649.67 150
	350 2649.67 250
	350 2649.66 350
	-350 2749.66 -350
	-350 2749.67 -250
	-350 2749.66 -150
	-350 2749.66 -50
	-350 2749.66 50
	-350 2749.66 150
	-350 2749.67 250
	-350 2749.66 350
	-250 2749.67 -350
	-250 2749.66 -250
	-250 2749.66 -150
	-250 2749.66 -50
	-250 2749.66 50
	-250 2749.66 150
	-250 2749.66 250
	-250 2749.67 350
	-150 2749.66 -350
	-150 2749.66 -250
	-150 2749.66 -150
	-150 2749.66 -50
	-150 2749.66 50
	-150 2749.66 150
	-150 2749.66 250
	-150 2749.66 350
	-50 2749.66 -350
	-50 2749.66 -250
	-50 2749.66 -150
	-50 2749.67 -50
	-50 2749.67 50
	-50 2749.66 150
	-50 2749.66 250
	-50 2749.66 350
	50 2749.66 -350
	50 2749.66 -250
	50 2749.66 -150
	50 2749.67 -50
	50 2749.67 50
	50 2749.66 150
	50 2749.66 250
	50 2749.66 350
	150 2749.66 -350
	150 2749.66 -250
	150 2749.66 -150
	150 2749.66 -50
	150 2749.66 50
	150 2749.66 150
	150 2749.66 250
	150 2749.66 350
	250 2749.67 -350
	250 2749.66 -250
	250 2749.66 -150
	250 2749.66 -50
	250 2749.66 50
	250 2749.66 150
	250 2749.66 250
	250 2749.67 350
	350 2749.66 -350
	350 2749.67 -250
	350 2749.66 -150
	350 2749.66 -50
	350 2749.66 50
	350 2749.66 150
	350 2749.67 250
	350 2749.66 350
	-350 2849.66 -350
	-350 2849.67 -250
	-350 2849.67 -150
	-350 2849.67 -50
	-350 2849.67 50
	-350 2849.67 150
	-350 2849.67 250
	-350 2849.66 350
	-250 2849.67 -350
	-250 2849.66 -250
	-250 2849.66 -150
	-250 2849.66 -50
	-250 2849.66 50
	-250 2849.66 150
	-250 2849.66 250
	-250 2849.67 350
	-150 2849.67 -350
	-150 2849.66 -250
	-150 2849.66 -150
	-150 2849.66 -50
	-150 2849.66 50
	-150 2849.66 150
	-150 2849.66 250
	-150 2849.67 350
	-50 2849.67 -350
	-50 2849.66 -250
	-50 2849.66 -150
	-50 2849.66 -50
	-50 2849.66 50
	-50 2849.66 150
	-50 2849.66 250
	-50 2849.67 350
	50 2849.67 -350
	50 2849.66 -250
	50 2849.66 -150
	50 2849.66 -50
	50 2849.66 50
	50 2849.66 150
	50 2849.66 250
	50 2849.67 350
	150 2849.67 -350
	150 2849.66 -250
	150 2849.66 -150
[...]
<PointData  Vectors="vector">
  <DataArray type="Float32" Name="Velocity" NumberOfComponents="3" format="ascii">
 2.44488e-05 0.00193749 2.46071e-05
 2.35646e-05 0.00423296 2.07183e-05
 1.08183e-05 0.00364331 -1.25542e-05
 9.38628e-06 0.00257115 -3.68739e-06
 9.48589e-06 0.00257115 4.33888e-06
 1.11767e-05 0.0036433 1.21472e-05
 2.40505e-05 0.00423297 -2.11021e-05
 2.46709e-05 0.0019375 -2.45046e-05
 2.11301e-05 0.00423296 2.35361e-05
 1.4846e-05 -0.0108061 1.4715e-05
 -3.6379e-06 -0.0088206 -6.81371e-06
 3.64681e-06 0.00450151 4.15917e-06
 2.87926e-06 0.0045015 -5.186e-06
 -3.46825e-06 -0.00882057 7.86053e-06
 1.46226e-05 -0.0108061 -1.44381e-05
 1.92752e-05 0.00423297 -2.38692e-05
 -1.2098e-05 0.00364326 1.08359e-05
 -6.5774e-06 -0.00882049 -4.2704e-06
 -3.39041e-06 -0.00777164 -3.11924e-06
 -1.0454e-05 0.00452921 6.73918e-06
 -6.09832e-06 0.00452922 -6.05744e-06
 -3.17732e-06 -0.00777162 2.8979e-06
 -7.88636e-06 -0.00882054 3.73631e-06
 -1.0733e-05 0.00364331 -1.07451e-05
 -4.06555e-06 0.0025711 9.5729e-06
 4.24134e-06 0.00450146 3.88386e-06
 6.36903e-06 0.00452921 -1.12375e-05
 1.98549e-06 0.00363433 3.45302e-06
 -7.01003e-06 0.00363434 -3.2249e-06
 6.08353e-06 0.00452922 1.0524e-05
 5.33293e-06 0.00450151 -3.53318e-06
 -7.78713e-06 0.00257116 -9.41533e-06
 3.75308e-06 0.0025711 1.00696e-05
 -5.63204e-06 0.00450146 9.41641e-07
 -6.17315e-06 0.00452921 -1.21163e-05
 -2.65033e-06 0.00363433 -2.9392e-06
 -1.83122e-06 0.00363434 4.82509e-06
 -6.25473e-06 0.00452922 1.06153e-05
 -4.37425e-06 0.00450152 -2.03854e-06
 7.45115e-06 0.00257116 -9.30375e-06
 1.24686e-05 0.00364326 1.09777e-05
 8.14144e-06 -0.00882049 -3.61266e-06
 3.09403e-06 -0.00777164 -3.13042e-06
 1.12329e-05 0.00452921 5.76872e-06
 1.46981e-05 0.00452922 -6.72001e-06
 2.76953e-06 -0.00777162 3.52699e-06
 6.97795e-06 -0.00882055 4.1021e-06
 1.12207e-05 0.00364332 -1.0855e-05
 -2.12408e-05 0.00423294 2.38115e-05
 -1.46497e-05 -0.0108061 1.3947e-05
 3.85889e-06 -0.00882065 -6.9893e-06
 -3.59603e-06 0.00450151 5.272e-06
 -1.08663e-06 0.0045015 -4.43781e-06
 3.62627e-06 -0.0088206 7.34515e-06
 -1.5013e-05 -0.0108061 -1.54427e-05
 -1.94267e-05 0.00423295 -2.35295e-05
 -2.44246e-05 0.00193747 2.45689e-05
 -2.39621e-05 0.00423294 2.19406e-05
 -1.09085e-05 0.0036433 -1.15956e-05
 -9.52014e-06 0.00257115 -4.19473e-06
 -1.10184e-05 0.00257114 3.06035e-06
 -1.07377e-05 0.0036433 1.21341e-05
 -2.3734e-05 0.00423295 -2.15402e-05
 -2.46956e-05 0.00193749 -2.43984e-05
 1.54603e-05 -0.00159383 1.56621e-05
 1.95742e-05 -6.20048e-05 2.73309e-05
 6.53028e-06 -0.000602426 -1.06579e-05
 1.79697e-06 0.000509916 3.66753e-06
 1.89691e-06 0.000509919 -3.26823e-06
 6.73994e-06 -0.000602437 1.01929e-05
 1.9965e-05 -6.19691e-05 -2.73158e-05
 1.56201e-05 -0.00159386 -1.56461e-05
 2.70594e-05 -6.20056e-05 1.97448e-05
 5.20155e-06 0.00173103 5.17757e-06
 -5.08244e-06 0.00249631 1.41924e-06
 6.68796e-06 -0.00414246 4.26833e-06
 7.20207e-06 -0.00414245 -4.4461e-06
 -5.54559e-06 0.00249613 -1.52919e-06
 5.7682e-06 0.00173104 -5.1288e-06
 2.74641e-05 -6.19811e-05 -1.95405e-05
 -1.07239e-05 -0.000602372 6.62664e-06
 1.65621e-06 0.0024961 -5.43253e-06
 -8.36546e-06 0.0059147 -5.55926e-06
 -7.42967e-06 -0.00262555 1.109e-06
 -1.14468e-05 -0.00262552 -5.27627e-06
 -9.43193e-06 0.00591473 9.88164e-06
 1.59723e-06 0.00249575 5.14824e-06
 -9.42938e-06 -0.000602425 -6.4811e-06
 4.62064e-06 0.000509893 1.98556e-06
 4.23628e-06 -0.00414246 7.23805e-06
 4.05613e-06 -0.00262555 -8.29338e-06
 4.55503e-06 -0.00211457 5.68656e-06
 8.08018e-06 -0.00211457 -6.16705e-06
 6.14651e-06 -0.00262552 8.37943e-06
 3.77445e-06 -0.00414248 -6.83994e-06
 3.74733e-06 0.000509909 -1.96885e-06
 -3.94189e-06 0.000509895 1.85036e-06
 -4.28187e-06 -0.00414246 6.52914e-06
 -4.73388e-06 -0.00262555 -1.14447e-05
 -7.14439e-06 -0.00211457 7.98651e-06
 -4.39457e-06 -0.00211457 -5.32e-06
 -4.14288e-06 -0.00262552 8.61986e-06
 -4.24194e-06 -0.00414247 -6.36241e-06
 -4.567e-06 0.000509912 -1.8074e-06
 1.03504e-05 -0.00060237 6.97487e-06
 -1.72837e-06 0.00249604 -5.38565e-06
 8.70317e-06 0.00591471 -8.26353e-06
 1.00121e-05 -0.00262555 4.63846e-06
 6.77107e-06 -0.00262552 -1.23687e-06
 8.20915e-06 0.00591474 5.83711e-06
 -1.52608e-06 0.00249571 4.16569e-06
 1.02899e-05 -0.000602426 -6.67476e-06
 -2.73842e-05 -6.19914e-05 1.95563e-05
 -5.13092e-06 0.00173102 5.52117e-06
 5.55414e-06 0.00249675 1.67271e-06
 -6.65333e-06 -0.00414247 4.07198e-06
 -6.26625e-06 -0.00414246 -4.45145e-06
 4.9411e-06 0.00249645 -1.8489e-06
 -5.59724e-06 0.00173102 -5.08884e-06
 -2.74313e-05 -6.19901e-05 -1.94561e-05
 -1.5468e-05 -0.00159388 1.55579e-05
 -1.95539e-05 -6.19992e-05 2.74445e-05
 -6.63278e-06 -0.000602422 -9.97365e-06
 -1.79553e-06 0.000509913 2.61563e-06
 -1.82473e-06 0.000509916 -2.9506e-06
 -6.89819e-06 -0.000602438 1.01323e-05
 -1.97627e-05 -6.19664e-05 -2.75785e-05
 -1.57169e-05 -0.0015939 -1.52712e-05
 4.89965e-05 0.00140345 4.93214e-05
 4.72321e-05 -0.000133868 4.1147e-05
 3.22752e-05 0.00145189 -2.38629e-05
 3.21091e-05 0.000372386 -1.53686e-05
 3.22502e-05 0.000372411 1.46969e-05
 3.23077e-05 0.00145187 2.387e-05
 4.71902e-05 -0.000133864 -4.06949e-05
 4.92765e-05 0.00140342 -4.91139e-05
 4.10265e-05 -0.000133869 4.73551e-05
 3.77153e-05 -0.00353087 2.60079e-05
 3.48488e-05 0.00141468 1.88562e-05
 1.21584e-05 -0.00510151 -9.82232e-06
 1.18751e-05 -0.00510145 1.32419e-05
 3.67404e-05 0.00141492 -1.43568e-05
 2.94666e-05 -0.00353109 -3.39337e-05
 4.09059e-05 -0.00013387 -4.73528e-05
 -2.42289e-05 0.00145189 3.21897e-05
 5.9294e-06 0.00141515 4.06037e-05
 9.99152e-06 0.0070437 2.92673e-06
 2.70937e-05 -0.00427103 -1.51323e-05
 2.75714e-05 -0.00427101 1.51689e-05
 8.75452e-06 0.00704371 -8.79993e-06
 1.63155e-05 0.00141539 -3.46199e-05
 -2.35747e-05 0.00145193 -3.23609e-05
 -1.39537e-05 0.000372468 3.19321e-05
 -9.52135e-06 -0.00510149 1.14906e-05
 -1.62199e-05 -0.00427103 2.73183e-05
 1.583e-05 0.00194612 1.64201e-05
 1.55937e-05 0.00194611 -1.52818e-05
 -1.56718e-05 -0.004271 -2.69886e-05
 -1.07293e-05 -0.00510165 -1.26999e-05
 -1.47026e-05 0.000372392 -3.22148e-05
 1.43692e-05 0.000372481 3.12504e-05
 9.9285e-06 -0.00510154 1.28496e-05
 1.55121e-05 -0.00427105 2.64266e-05
 -1.63647e-05 0.00194612 1.48182e-05
 -1.59764e-05 0.0019461 -1.44869e-05
 1.50969e-05 -0.004271 -2.62574e-05
 1.07707e-05 -0.00510161 -1.3469e-05
 1.45571e-05 0.000372394 -3.11453e-05
 2.3831e-05 0.00145189 3.48867e-05
 -1.5519e-05 0.00141524 3.58375e-05
 -3.86426e-06 0.00704372 1.03787e-05
 -2.73645e-05 -0.00427103 -5.93379e-06
 -2.73416e-05 -0.004271 5.68726e-06
 -5.55071e-06 0.00704371 -9.14033e-06
 -1.81436e-05 0.0014154 -3.70587e-05
 2.36829e-05 0.00145193 -3.46725e-05
 -4.08933e-05 -0.00013388 4.71027e-05
 -2.84975e-05 -0.0035309 3.1677e-05
 -4.02641e-05 0.00141434 1.54917e-05
 -1.14511e-05 -0.00510156 -1.29812e-05
 -1.19182e-05 -0.00510149 1.19833e-05
 -3.88339e-05 0.00141468 -1.53984e-05
 -2.75434e-05 -0.00353114 -3.07572e-05
 -4.08389e-05 -0.000133891 -4.71128e-05
 -4.91684e-05 0.00140347 4.89899e-05
 -4.72887e-05 -0.000133886 4.09815e-05
 -3.22482e-05 0.00145192 -2.38037e-05
 -3.19792e-05 0.000372337 -1.51138e-05
 -3.20362e-05 0.000372354 1.51321e-05
 -3.28244e-05 0.0014519 2.36252e-05
 -4.73422e-05 -0.000133874 -4.08736e-05
 -4.93222e-05 0.00140342 -4.89327e-05
 4.3424e-05 -0.00244695 4.33857e-05
 3.71803e-05 -6.12042e-05 4.22297e-05
 3.95238e-05 -0.00172218 -1.92945e-06
 3.47009e-05 0.000348919 2.16267e-06
 3.47021e-05 0.000348856 -4.28234e-06
 3.91827e-05 -0.00172224 2.16818e-06
 3.68582e-05 -6.14581e-05 -3.99691e-05
 4.36016e-05 -0.00244696 -4.37695e-05
 4.11574e-05 -6.12775e-05 3.66493e-05
 4.87467e-05 -0.00336768 4.79838e-05
 4.91377e-05 0.00784518 -1.51173e-05
 1.74109e-05 -0.00156572 -1.75935e-05
 1.77175e-05 -0.00156573 1.73474e-05
 4.93419e-05 0.0078452 1.49207e-05
 4.80593e-05 -0.00336783 -4.74917e-05
 4.18905e-05 -6.14659e-05 -3.67031e-05
 -3.58833e-06 -0.00172206 3.89061e-05
 -1.68118e-05 0.00784515 4.81783e-05
 -6.99643e-06 -0.00211993 -4.88156e-06
 2.88455e-05 0.000846193 -1.6792e-05
 2.85948e-05 0.00084615 1.6578e-05
 -7.12912e-06 -0.00211996 6.66951e-06
 -1.57614e-05 0.00784522 -4.9187e-05
 -4.25619e-06 -0.00172227 -3.9495e-05
 4.89456e-06 0.000348911 3.43728e-05
 -1.43622e-05 -0.00156585 2.40376e-05
 -1.55248e-05 0.000846189 2.42662e-05
 -1.22144e-05 -0.00756377 -1.19508e-05
 -1.17105e-05 -0.00756377 1.03215e-05
 -1.61114e-05 0.000846173 -2.94663e-05
 -1.59364e-05 -0.00156569 -1.68204e-05
 4.94111e-06 0.000348907 -3.47857e-05
 -4.98214e-06 0.000348885 3.39081e-05
 1.37579e-05 -0.00156584 2.03742e-05
 1.58157e-05 0.000846196 2.67843e-05
 1.41526e-05 -0.00756376 -1.44161e-05
 1.34881e-05 -0.00756376 1.45502e-05
 1.62842e-05 0.000846177 -2.62465e-05
 1.5835e-05 -0.00156574 -2.09801e-05
 -5.43718e-06 0.000348909 -3.39894e-05
 3.41128e-06 -0.00172204 3.8845e-05
 1.75546e-05 0.00784516 4.83732e-05
 5.23366e-06 -0.00211998 -5.97108e-06
 -2.34932e-05 0.000846196 -1.75095e-05
 -2.33416e-05 0.000846163 1.74153e-05
 5.36577e-06 -0.00211996 6.0909e-06
 1.56636e-05 0.00784522 -4.8393e-05
 4.40024e-06 -0.0017223 -3.88665e-05
 -4.08262e-05 -6.15852e-05 3.69795e-05
 -4.92969e-05 -0.00336762 4.80632e-05
 -4.8166e-05 0.00784518 -1.63912e-05
 -2.52593e-05 -0.00156568 -1.3326e-05
 -2.51813e-05 -0.0015657 1.33583e-05
 -4.81479e-05 0.00784519 1.65733e-05
 -4.80684e-05 -0.0033678 -4.83501e-05
 -4.15275e-05 -6.15427e-05 -3.69021e-05
 -4.35081e-05 -0.00244698 4.33521e-05
 -3.67863e-05 -6.16496e-05 4.07196e-05
 -3.89961e-05 -0.00172219 -4.39687e-06
 -3.41143e-05 0.000348949 5.48841e-06
 -3.42527e-05 0.000348882 -5.29088e-06
 -3.87696e-05 -0.00172227 5.50786e-06
 -3.66638e-05 -6.15581e-05 -4.23001e-05
 -4.36263e-05 -0.00244701 -4.3075e-05
 2.99099e-05 -0.00669154 3.01341e-05
 2.98968e-05 -0.00247864 3.31272e-05
 2.46844e-05 -0.00469978 6.1005e-06
 2.25277e-05 -0.00680551 5.29316e-07
 2.23522e-05 -0.00680548 -5.02114e-07
 2.47087e-05 -0.00469993 -2.88376e-06
 2.91673e-05 -0.00247822 -3.62974e-05
 3.00721e-05 -0.00669154 -3.01801e-05
 3.60289e-05 -0.00247854 2.96825e-05
 2.83854e-05 0.00452327 2.68077e-05
 6.4905e-06 -0.00100378 1.44924e-05
 5.05242e-06 -0.00485049 1.79612e-06
 4.76662e-06 -0.00485041 -1.88527e-06
 6.23138e-06 -0.00100374 -1.01409e-05
 3.13845e-05 0.00452394 -3.10675e-05
 3.47981e-05 -0.00247819 -2.96578e-05
 2.86953e-06 -0.00470072 2.48901e-05
 1.27777e-05 -0.0010036 4.90348e-06
 3.7364e-05 -0.000662723 3.9116e-05
 3.68789e-05 7.04061e-05 -8.33976e-06
 3.69824e-05 7.0413e-05 7.75473e-06
 3.75837e-05 -0.000662608 -3.72406e-05
 1.00985e-05 -0.00100377 -6.34227e-06
 4.55512e-06 -0.00469992 -2.47572e-05
 6.86816e-07 -0.00680531 2.24829e-05
 1.59259e-06 -0.0048503 3.79561e-06
 -8.4941e-06 7.03972e-05 3.75437e-05
 -1.48116e-06 -0.00288727 -8.55426e-07
 -8.28911e-07 -0.00288736 1.08657e-06
 -8.2408e-06 7.04247e-05 -3.63272e-05
 2.17671e-06 -0.00485076 -5.27346e-06
 6.56423e-07 -0.00680527 -2.24684e-05
 -6.29918e-07 -0.00680544 2.26324e-05
 -2.04606e-06 -0.00485047 4.39997e-06
 8.42524e-06 7.04318e-05 3.73439e-05
 1.11213e-06 -0.00288731 4.13233e-07
 5.59114e-07 -0.00288737 -4.32793e-07
 7.94718e-06 7.04708e-05 -3.71733e-05
 -1.9434e-06 -0.0048507 -4.60513e-06
 -6.96605e-07 -0.00680527 -2.25859e-05
 -3.77002e-06 -0.00469916 2.42112e-05
 -9.64576e-06 -0.00100368 7.33244e-06
 -3.79605e-05 -0.000662637 3.62958e-05
 -3.73881e-05 7.04277e-05 -8.62254e-06
 -3.69098e-05 7.04502e-05 8.86073e-06
 -3.78774e-05 -0.000662585 -3.70134e-05
 -1.34207e-05 -0.00100378 -6.76417e-06
 -4.83855e-06 -0.00469999 -2.43068e-05
 -3.51519e-05 -0.0024782 3.0066e-05
 -3.14262e-05 0.00452311 2.70785e-05
 -5.78348e-06 -0.00100378 1.39608e-05
 -4.04242e-06 -0.00485059 1.75795e-06
 -4.57841e-06 -0.00485049 -2.19429e-06
 -5.87978e-06 -0.00100374 -1.04588e-05
 -2.78156e-05 0.00452402 -3.07409e-05
 -3.46261e-05 -0.00247804 -2.94455e-05
 -2.99367e-05 -0.00669165 2.97959e-05
 -2.95277e-05 -0.00247808 3.59411e-05
 -2.47239e-05 -0.0046999 3.1031e-06
 -2.26556e-05 -0.00680555 5.83493e-07
 -2.23395e-05 -0.00680551 -5.00334e-07
 -2.44679e-05 -0.00469997 -3.60535e-06
 -2.96669e-05 -0.00247805 -3.5302e-05
 -2.99408e-05 -0.00669157 -2.99916e-05
 2.83322e-05 0.00638983 2.81859e-05
 2.81982e-05 -0.00355397 6.86437e-06
 3.13981e-05 0.00183097 3.24886e-05
 2.5591e-05 0.00430373 -8.59249e-06
 2.5545e-05 0.00430378 9.04474e-06
 3.17271e-05 0.00183124 -3.1289e-05
 2.83078e-05 -0.00355423 -8.14966e-06
 2.82502e-05 0.00638963 -2.85274e-05
 6.58503e-06 -0.00355398 2.69364e-05
 4.92935e-06 0.00493922 1.48215e-05
 1.80137e-05 0.00245387 2.2858e-05
 3.46141e-06 0.00111742 4.67681e-06
 3.25527e-06 0.00111741 -6.24141e-06
 1.63944e-05 0.00245382 -3.19371e-05
 9.09796e-06 0.00493889 -2.84248e-06
 6.89282e-06 -0.00355419 -2.82478e-05
 3.28167e-05 0.00183082 3.18279e-05
 3.12252e-05 0.00245395 1.6527e-05
 8.38843e-06 0.000171422 8.24256e-06
 3.31899e-05 -0.00226547 1.1705e-05
 3.42251e-05 -0.0022655 -1.15846e-05
 8.13971e-06 0.00017125 -8.0478e-06
 2.83516e-05 0.00245368 -1.71093e-05
 3.22657e-05 0.00183106 -3.1577e-05
 -8.67736e-06 0.00430377 2.52343e-05
 5.07846e-06 0.00111752 3.36407e-06
 9.82778e-06 -0.00226547 3.41467e-05
 -1.71786e-06 0.00232229 -2.86872e-06
 -2.91369e-06 0.00232232 2.06218e-06
 1.26012e-05 -0.00226551 -3.28506e-05
 3.66811e-06 0.0011173 -3.28388e-06
 -8.58269e-06 0.00430352 -2.58201e-05
 8.53862e-06 0.00430378 2.57489e-05
 -5.14642e-06 0.0011175 3.50485e-06
 -1.02674e-05 -0.00226553 3.22378e-05
 1.93766e-06 0.0023223 -8.81861e-07
 2.70991e-06 0.00232232 2.22766e-06
 -1.3482e-05 -0.00226551 -3.40336e-05
 -3.59467e-06 0.00111733 -3.32886e-06
 8.49691e-06 0.00430352 -2.54822e-05
 -3.26347e-05 0.00183017 3.19289e-05
 -3.05867e-05 0.00245385 1.59453e-05
 -8.07745e-06 0.000171296 8.02339e-06
 -3.32605e-05 -0.00226553 1.31831e-05
 -3.37909e-05 -0.00226551 -1.30469e-05
 -7.80938e-06 0.000171215 -8.11467e-06
 -2.8114e-05 0.00245366 -1.59799e-05
 -3.22865e-05 0.00183116 -3.1946e-05
 -6.49729e-06 -0.00355404 2.84087e-05
 -5.34642e-06 0.00493933 5.09689e-06
 -1.75641e-05 0.00245402 3.09267e-05
 -3.4357e-06 0.00111741 5.02282e-06
 -3.57062e-06 0.00111735 -5.50005e-06
 -1.57616e-05 0.00245391 -3.07457e-05
 -9.52187e-06 0.00493877 -4.71854e-06
 -6.87782e-06 -0.0035541 -2.8469e-05
 -2.84544e-05 0.0063899 2.82761e-05
 -2.83431e-05 -0.003554 6.96157e-06
 -3.1718e-05 0.00183111 3.24009e-05
 -2.57633e-05 0.00430371 -9.01674e-06
 -2.54567e-05 0.00430373 8.86801e-06
 -3.18049e-05 0.00183128 -3.25292e-05
 -2.82118e-05 -0.00355423 -6.47412e-06
 -2.81756e-05 0.00638979 -2.84644e-05
 -6.39429e-05 -0.00324133 -6.75659e-05
 -7.89363e-05 -0.00287028 -4.8265e-05
 -3.9068e-05 0.00136427 -2.43828e-05
 -5.17472e-05 0.00215475 2.27184e-05
 -5.22028e-05 0.00215462 -2.31797e-05
 -3.87652e-05 0.00136416 2.5646e-05
 -8.15784e-05 -0.00287027 4.81683e-05
 -6.7837e-05 -0.00324149 6.68902e-05
 -4.88932e-05 -0.00287026 -7.99029e-05
 -3.2644e-05 -0.00123475 -3.32544e-05
 -7.55328e-08 0.000678044 -2.89108e-06
 -1.72025e-05 -0.00260328 3.95079e-06
 -1.63711e-05 -0.00260347 1.31066e-06
 -1.64064e-09 0.000677965 1.54084e-06
 -3.13516e-05 -0.00123495 2.58617e-05
 -4.82485e-05 -0.00287028 8.34151e-05
 -2.84784e-05 0.00136451 -3.90864e-05
 -2.46452e-06 0.000677621 -9.80809e-07
 -4.5e-06 -0.00460573 -3.43332e-06
 -2.31075e-05 0.00334221 -3.24777e-05
 -2.14921e-05 0.0033422 3.21282e-05
 -4.70169e-06 -0.00460587 3.76358e-06
 -4.74587e-07 0.000677602 7.95791e-07
 -2.52199e-05 0.00136395 3.92714e-05
 2.318e-05 0.00215482 -5.24599e-05
 3.43418e-06 -0.00260336 -1.67552e-05
 -3.16524e-05 0.00334223 -2.05114e-05
 1.38154e-05 0.00367398 1.13311e-05
 1.21279e-05 0.00367394 -1.41607e-05
 -3.26452e-05 0.00334217 2.46479e-05
 -1.22513e-07 -0.00260245 1.7662e-05
 2.39224e-05 0.00215582 5.02286e-05
 -2.46011e-05 0.00215453 -5.10143e-05
 5.01156e-07 -0.00260328 -1.73599e-05
 3.19053e-05 0.00334223 -2.32174e-05
 -1.17121e-05 0.0036739 1.40545e-05
 -1.46251e-05 0.00367391 -1.4174e-05
 3.14377e-05 0.00334215 2.33664e-05
 -1.78673e-07 -0.0026026 1.77932e-05
 -2.32565e-05 0.00215582 5.05554e-05
 3.18267e-05 0.00136434 -3.87257e-05
 9.46315e-07 0.000677259 -1.07999e-06
 4.2977e-06 -0.00460579 -3.37377e-06
 2.02295e-05 0.00334224 -3.31413e-05
 2.39094e-05 0.0033422 3.19211e-05
 5.95962e-06 -0.00460583 3.73586e-06
 1.3442e-06 0.000677761 1.47502e-06
 2.39747e-05 0.00136392 3.91943e-05
 4.74149e-05 -0.00287023 -7.96335e-05
 2.72438e-05 -0.00123463 -3.24421e-05
 3.28247e-07 0.000677796 -2.70725e-06
 1.78232e-05 -0.00260296 4.3264e-06
 1.80619e-05 -0.00260314 -3.78667e-07
 -7.3167e-07 0.000677727 1.90008e-06
 3.15311e-05 -0.00123479 2.59352e-05
 4.89583e-05 -0.00287025 8.30366e-05
 6.35348e-05 -0.00324127 -6.85803e-05
 8.19616e-05 -0.00287022 -4.7844e-05
 3.8785e-05 0.00136415 -2.14251e-05
 5.1921e-05 0.00215476 2.03672e-05
 5.05878e-05 0.00215477 -2.17003e-05
 3.94428e-05 0.00136412 2.27693e-05
 8.08038e-05 -0.00287024 4.75539e-05
 6.76803e-05 -0.00324137 6.88954e-05
 -5.06798e-05 -0.00184882 -5.03319e-05
 -6.3266e-05 0.00404668 -4.2983e-05
 -5.39233e-05 0.000848062 -1.5725e-05
 -4.94793e-05 0.00188621 -1.06363e-05
 -4.97757e-05 0.00188631 1.23533e-05
 -5.34525e-05 0.000848174 1.44746e-05
 -6.68388e-05 0.00404654 4.16672e-05
 -5.04678e-05 -0.00184839 5.12051e-05
 -4.33724e-05 0.00404663 -6.70868e-05
 -6.13053e-05 -0.00255969 -5.61392e-05
 -2.54683e-05 -0.00325655 -3.61078e-05
 -1.45695e-05 -0.000508595 -1.71348e-05
 -1.31069e-05 -0.000508743 1.73168e-05
 -2.55535e-05 -0.00325649 3.00798e-05
 -6.22713e-05 -0.00255951 5.67817e-05
 -4.17342e-05 0.00404649 7.23119e-05
 -1.65741e-05 0.000848061 -5.41636e-05
 -3.58813e-05 -0.0032563 -2.60907e-05
 3.3926e-06 -0.00358035 3.63339e-06
 -4.25086e-06 0.000228362 1.49886e-05
 -4.32016e-06 0.000228306 -1.46539e-05
 3.28434e-06 -0.00358014 -4.27814e-06
 -2.87236e-05 -0.00325629 2.67784e-05
 -1.6313e-05 0.000848446 5.37698e-05
 -1.10177e-05 0.00188615 -4.96892e-05
 -1.68983e-05 -0.000508857 -1.37492e-05
 1.50962e-05 0.000228359 -3.75554e-06
 -5.38985e-06 0.00136544 -6.53914e-06
 -6.16995e-06 0.00136545 6.3496e-06
 1.50636e-05 0.000228317 4.33381e-06
 -1.81847e-05 -0.000507977 1.34381e-05
 -9.63881e-06 0.00188557 4.95968e-05
 1.13899e-05 0.00188627 -4.94653e-05
 1.71193e-05 -0.000508438 -1.42771e-05
 -1.49016e-05 0.000228327 -2.17919e-06
 5.56511e-06 0.00136548 -7.54633e-06
 6.71462e-06 0.00136547 6.76811e-06
 -1.55242e-05 0.0002283 3.88021e-06
 1.79108e-05 -0.000508166 1.31387e-05
 9.73723e-06 0.00188557 4.96839e-05
 1.66283e-05 0.000847774 -5.31508e-05
 2.99054e-05 -0.00325602 -2.59575e-05
 -4.01721e-06 -0.00358025 2.18292e-06
 5.83192e-06 0.00022832 1.62914e-05
 3.28319e-06 0.000228279 -1.65345e-05
 -3.29551e-06 -0.00358018 -2.54527e-06
 3.41725e-05 -0.00325643 2.6885e-05
 1.58984e-05 0.000848489 5.28339e-05
 4.32984e-05 0.00404643 -6.61511e-05
 5.44322e-05 -0.00255983 -5.80262e-05
 2.62277e-05 -0.0032564 -3.56595e-05
 1.25467e-05 -0.000508016 -1.68732e-05
 1.37252e-05 -0.000508331 1.70938e-05
 2.6024e-05 -0.00325633 3.04229e-05
 5.42957e-05 -0.00255968 5.6483e-05
 4.15979e-05 0.00404635 7.27372e-05
 5.03604e-05 -0.00184869 -4.99835e-05
 7.5925e-05 0.00404633 -4.33398e-05
 5.36108e-05 0.000848233 -1.61335e-05
 4.97609e-05 0.00188618 -1.05605e-05
 4.96464e-05 0.00188619 1.22521e-05
 5.34496e-05 0.000848264 1.44636e-05
 6.96192e-05 0.00404644 4.2e-05
 5.08984e-05 -0.00184859 5.13301e-05
 -5.70983e-05 0.00159647 -5.6818e-05
 -4.71027e-05 0.000677045 -1.73791e-05
 -3.86274e-05 -0.00237293 -8.82297e-06
 -4.11856e-05 -0.00264438 -3.23773e-06
 -3.99244e-05 -0.00264421 -3.2029e-06
 -3.80765e-05 -0.00237291 1.3233e-05
 -4.88348e-05 0.000677217 1.83953e-05
 -5.76572e-05 0.0015963 5.78115e-05
 -1.73767e-05 0.000677073 -4.71268e-05
 -4.56294e-05 0.00166168 -4.50956e-05
 -6.25681e-06 -0.00177923 -1.54084e-05
 -7.5706e-06 0.000499239 2.73078e-05
 -9.32727e-06 0.000499016 -2.60465e-05
 -6.71711e-06 -0.00177891 1.42674e-05
 -4.24681e-05 0.00166124 4.49968e-05
 -1.83086e-05 0.000677227 4.70854e-05
 -9.08741e-06 -0.00237277 -3.85857e-05
 -1.48938e-05 -0.00177824 -6.19303e-06
 1.0902e-05 -0.00397708 1.09052e-05
 1.44178e-05 -0.00328665 -2.87519e-05