<?xml version="1.0"?>
<VTKFile type="UnstructuredGrid" version="0.1" byte_order="LittleEndian" compressor="vtkZLibDataCompressor">
<UnstructuredGrid>
<Piece NumberOfPoints="960" NumberOfCells="120">
<Points>
<DataArray type="Float32" NumberOfComponents="3" format="ascii">
-4.000000e+02 -6.000000e+03 -4.000000e+02
0.000000e+00 -6.000000e+03 -4.000000e+02
-4.000000e+02 -5.600000e+03 -4.000000e+02
-4.384660e-11 -5.600000e+03 -4.000000e+02
-4.000000e+02 -6.000000e+03 0.000000e+00
0.000000e+00 -6.000000e+03 0.000000e+00
-4.000000e+02 -5.600000e+03 -3.014220e-10
7.156080e-10 -5.600000e+03 1.329830e-09
0.000000e+00 -6.000000e+03 -4.000000e+02
4.000000e+02 -6.000000e+03 -4.000000e+02
-4.384660e-11 -5.600000e+03 -4.000000e+02
4.000000e+02 -5.600000e+03 -4.000000e+02
0.000000e+00 -6.000000e+03 0.000000e+00
4.000000e+02 -6.000000e+03 0.000000e+00
7.156080e-10 -5.600000e+03 1.329830e-09
4.000000e+02 -5.600000e+03 1.484300e-09
-4.000000e+02 -5.600000e+03 -4.000000e+02
-4.384660e-11 -5.600000e+03 -4.000000e+02
-4.000000e+02 -5.200000e+03 -4.000000e+02
1.382240e-10 -5.200000e+03 -4.000000e+02
-4.000000e+02 -5.600000e+03 -3.014220e-10
7.156080e-10 -5.600000e+03 1.329830e-09
-4.000000e+02 -5.200000e+03 1.423850e-09
-4.131270e-10 -5.200000e+03 -9.479030e-11
-4.384660e-11 -5.600000e+03 -4.000000e+02
4.000000e+02 -5.600000e+03 -4.000000e+02
1.382240e-10 -5.200000e+03 -4.000000e+02
4.000000e+02 -5.200000e+03 -4.000000e+02
7.156080e-10 -5.600000e+03 1.329830e-09
4.000000e+02 -5.600000e+03 1.484300e-09
-4.131270e-10 -5.200000e+03 -9.479030e-11
4.000000e+02 -5.200000e+03 4.348580e-10
-4.000000e+02 -5.200000e+03 -4.000000e+02
1.382240e-10 -5.200000e+03 -4.000000e+02
-4.000000e+02 -4.800000e+03 -4.000000e+02
2.430820e-09 -4.800000e+03 -4.000000e+02
-4.000000e+02 -5.200000e+03 1.423850e-09
-4.131270e-10 -5.200000e+03 -9.479030e-11
-4.000000e+02 -4.800000e+03 -1.966730e-10
6.223880e-10 -4.800000e+03 1.540790e-10
1.382240e-10 -5.200000e+03 -4.000000e+02
4.000000e+02 -5.200000e+03 -4.000000e+02
2.430820e-09 -4.800000e+03 -4.000000e+02
4.000000e+02 -4.800000e+03 -4.000000e+02
-4.131270e-10 -5.200000e+03 -9.479030e-11
4.000000e+02 -5.200000e+03 4.348580e-10
6.223880e-10 -4.800000e+03 1.540790e-10
4.000000e+02 -4.800000e+03 -8.201450e-10
-4.000000e+02 -4.800000e+03 -4.000000e+02
2.430820e-09 -4.800000e+03 -4.000000e+02
-4.000000e+02 -4.400000e+03 -4.000000e+02
-8.081830e-10 -4.400000e+03 -4.000000e+02
-4.000000e+02 -4.800000e+03 -1.966730e-10
6.223880e-10 -4.800000e+03 1.540790e-10
-4.000000e+02 -4.400000e+03 -2.721370e-09
5.839410e-12 -4.400000e+03 -3.757280e-09
2.430820e-09 -4.800000e+03 -4.000000e+02
4.000000e+02 -4.800000e+03 -4.000000e+02
-8.081830e-10 -4.400000e+03 -4.000000e+02
4.000000e+02 -4.400000e+03 -4.000000e+02
6.223880e-10 -4.800000e+03 1.540790e-10
4.000000e+02 -4.800000e+03 -8.201450e-10
5.839410e-12 -4.400000e+03 -3.757280e-09
4.000000e+02 -4.400000e+03 -5.395330e-09
-4.000000e+02 -4.400000e+03 -4.000000e+02
-8.081830e-10 -4.400000e+03 -4.000000e+02
-4.000000e+02 -4.000000e+03 -4.000000e+02
6.937900e-10 -4.000000e+03 -4.000000e+02
-4.000000e+02 -4.400000e+03 -2.721370e-09
5.839410e-12 -4.400000e+03 -3.757280e-09
-4.000000e+02 -4.000000e+03 -9.031740e-10
-8.028800e-10 -4.000000e+03 -5.484430e-09
-8.081830e-10 -4.400000e+03 -4.000000e+02
4.000000e+02 -4.400000e+03 -4.000000e+02
6.937900e-10 -4.000000e+03 -4.000000e+02
4.000000e+02 -4.000000e+03 -4.000000e+02
5.839410e-12 -4.400000e+03 -3.757280e-09
4.000000e+02 -4.400000e+03 -5.395330e-09
-8.028800e-10 -4.000000e+03 -5.484430e-09
4.000000e+02 -4.000000e+03 -2.489910e-09
-4.000000e+02 -4.000000e+03 -4.000000e+02
6.937900e-10 -4.000000e+03 -4.000000e+02
-4.000000e+02 -3.600000e+03 -4.000000e+02
2.381940e-09 -3.600000e+03 -4.000000e+02
-4.000000e+02 -4.000000e+03 -9.031740e-10
-8.028800e-10 -4.000000e+03 -5.484430e-09
-4.000000e+02 -3.600000e+03 8.338450e-09
2.630570e-09 -3.600000e+03 1.330130e-08
6.937900e-10 -4.000000e+03 -4.000000e+02
4.000000e+02 -4.000000e+03 -4.000000e+02
2.381940e-09 -3.600000e+03 -4.000000e+02
4.000000e+02 -3.600000e+03 -4.000000e+02
-8.028800e-10 -4.000000e+03 -5.484430e-09
4.000000e+02 -4.000000e+03 -2.489910e-09
2.630570e-09 -3.600000e+03 1.330130e-08
4.000000e+02 -3.600000e+03 9.631300e-09
-4.000000e+02 -3.600000e+03 -4.000000e+02
2.381940e-09 -3.600000e+03 -4.000000e+02
-4.000000e+02 -3.200010e+03 -4.000000e+02
-3.860380e-09 -3.200010e+03 -4.000000e+02
-4.000000e+02 -3.600000e+03 8.338450e-09
2.630570e-09 -3.600000e+03 1.330130e-08
-4.000000e+02 -3.200010e+03 -8.518970e-09
-2.021770e-09 -3.200010e+03 -1.495930e-08
2.381940e-09 -3.600000e+03 -4.000000e+02
4.000000e+02 -3.600000e+03 -4.000000e+02
-3.860380e-09 -3.200010e+03 -4.000000e+02
4.000000e+02 -3.200010e+03 -4.000000e+02
2.630570e-09 -3.600000e+03 1.330130e-08
4.000000e+02 -3.600000e+03 9.631300e-09
-2.021770e-09 -3.200010e+03 -1.495930e-08
4.000000e+02 -3.200010e+03 -1.365590e-08
-4.000000e+02 -3.200010e+03 -4.000000e+02
-3.860380e-09 -3.200010e+03 -4.000000e+02
-4.000000e+02 -2.800010e+03 -4.000000e+02
7.292820e-09 -2.800010e+03 -4.000000e+02
-4.000000e+02 -3.200010e+03 -8.518970e-09
-2.021770e-09 -3.200010e+03 -1.495930e-08
-4.000000e+02 -2.800010e+03 -3.230360e-08
3.225330e-10 -2.800010e+03 -2.852390e-08
-3.860380e-09 -3.200010e+03 -4.000000e+02
4.000000e+02 -3.200010e+03 -4.000000e+02
7.292820e-09 -2.800010e+03 -4.000000e+02
4.000000e+02 -2.800010e+03 -4.000000e+02
-2.021770e-09 -3.200010e+03 -1.495930e-08
4.000000e+02 -3.200010e+03 -1.365590e-08
3.225330e-10 -2.800010e+03 -2.852390e-08
4.000000e+02 -2.800010e+03 -3.056940e-08
-4.000000e+02 -2.800010e+03 -4.000000e+02
7.292820e-09 -2.800010e+03 -4.000000e+02
-4.000000e+02 -2.400010e+03 -4.000000e+02
-5.996130e-09 -2.400010e+03 -4.000000e+02
-4.000000e+02 -2.800010e+03 -3.230360e-08
3.225330e-10 -2.800010e+03 -2.852390e-08
-4.000000e+02 -2.400010e+03 7.157410e-08
5.767200e-09 -2.400010e+03 6.827080e-08
7.292820e-09 -2.800010e+03 -4.000000e+02
4.000000e+02 -2.800010e+03 -4.000000e+02
-5.996130e-09 -2.400010e+03 -4.000000e+02
4.000000e+02 -2.400010e+03 -4.000000e+02
3.225330e-10 -2.800010e+03 -2.852390e-08
4.000000e+02 -2.800010e+03 -3.056940e-08
5.767200e-09 -2.400010e+03 6.827080e-08
4.000000e+02 -2.400010e+03 6.584190e-08
-4.000000e+02 -2.400010e+03 -4.000000e+02
-5.996130e-09 -2.400010e+03 -4.000000e+02
-4.000000e+02 -2.000020e+03 -4.000000e+02
-6.855240e-09 -2.000020e+03 -4.000000e+02
-4.000000e+02 -2.400010e+03 7.157410e-08
5.767200e-09 -2.400010e+03 6.827080e-08
-4.000000e+02 -2.000020e+03 1.165170e-10
-1.648010e-08 -2.000020e+03 -1.811920e-08
-5.996130e-09 -2.400010e+03 -4.000000e+02
4.000000e+02 -2.400010e+03 -4.000000e+02
-6.855240e-09 -2.000020e+03 -4.000000e+02
4.000000e+02 -2.000020e+03 -4.000000e+02
5.767200e-09 -2.400010e+03 6.827080e-08
4.000000e+02 -2.400010e+03 6.584190e-08
-1.648010e-08 -2.000020e+03 -1.811920e-08
4.000000e+02 -2.000020e+03 9.833660e-10
-4.000000e+02 -2.000020e+03 -4.000000e+02
-6.855240e-09 -2.000020e+03 -4.000000e+02
-4.000000e+02 -1.600030e+03 -4.000000e+02
2.737630e-08 -1.600030e+03 -4.000000e+02
-4.000000e+02 -2.000020e+03 1.165170e-10
-1.648010e-08 -2.000020e+03 -1.811920e-08
-4.000000e+02 -1.600030e+03 -1.696600e-07
2.840150e-08 -1.600030e+03 -1.167030e-07
-6.855240e-09 -2.000020e+03 -4.000000e+02
4.000000e+02 -2.000020e+03 -4.000000e+02
2.737630e-08 -1.600030e+03 -4.000000e+02
4.000000e+02 -1.600030e+03 -4.000000e+02
-1.648010e-08 -2.000020e+03 -1.811920e-08
4.000000e+02 -2.000020e+03 9.833660e-10
2.840150e-08 -1.600030e+03 -1.167030e-07
4.000000e+02 -1.600030e+03 -1.702250e-07
-4.000000e+02 -1.600030e+03 -4.000000e+02
2.737630e-08 -1.600030e+03 -4.000000e+02
-4.000000e+02 -1.200050e+03 -4.000000e+02
-2.695220e-08 -1.200050e+03 -4.000000e+02
-4.000000e+02 -1.600030e+03 -1.696600e-07
2.840150e-08 -1.600030e+03 -1.167030e-07
-4.000000e+02 -1.200050e+03 1.552140e-07
-2.473040e-09 -1.200050e+03 9.122480e-08
2.737630e-08 -1.600030e+03 -4.000000e+02
4.000000e+02 -1.600030e+03 -4.000000e+02
-2.695220e-08 -1.200050e+03 -4.000000e+02
4.000000e+02 -1.200050e+03 -4.000000e+02
2.840150e-08 -1.600030e+03 -1.167030e-07
4.000000e+02 -1.600030e+03 -1.702250e-07
-2.473040e-09 -1.200050e+03 9.122480e-08
4.000000e+02 -1.200050e+03 1.550250e-07
-4.000000e+02 -1.200050e+03 -4.000000e+02
-2.695220e-08 -1.200050e+03 -4.000000e+02
-4.000000e+02 -8.000870e+02 -4.000000e+02
-3.566200e-08 -8.000870e+02 -4.000000e+02
-4.000000e+02 -1.200050e+03 1.552140e-07
-2.473040e-09 -1.200050e+03 9.122480e-08
-4.000000e+02 -8.000870e+02 1.250280e-07
-9.775100e-08 -8.000870e+02 1.312040e-07
-2.695220e-08 -1.200050e+03 -4.000000e+02
4.000000e+02 -1.200050e+03 -4.000000e+02
-3.566200e-08 -8.000870e+02 -4.000000e+02
4.000000e+02 -8.000870e+02 -4.000000e+02
-2.473040e-09 -1.200050e+03 9.122480e-08
4.000000e+02 -1.200050e+03 1.550250e-07
-9.775100e-08 -8.000870e+02 1.312040e-07
4.000000e+02 -8.000870e+02 1.263130e-07
-4.000000e+02 -8.000870e+02 -4.000000e+02
-3.566200e-08 -8.000870e+02 -4.000000e+02
-4.000000e+02 -4.001400e+02 -4.000000e+02
3.245830e-08 -4.001400e+02 -4.000000e+02
-4.000000e+02 -8.000870e+02 1.250280e-07
-9.775100e-08 -8.000870e+02 1.312040e-07
-4.000000e+02 -4.001400e+02 -1.757160e-07
1.126880e-07 -4.001400e+02 -1.218950e-07
-3.566200e-08 -8.000870e+02 -4.000000e+02
4.000000e+02 -8.000870e+02 -4.000000e+02
3.245830e-08 -4.001400e+02 -4.000000e+02
4.000000e+02 -4.001400e+02 -4.000000e+02
-9.775100e-08 -8.000870e+02 1.312040e-07
4.000000e+02 -8.000870e+02 1.263130e-07
1.126880e-07 -4.001400e+02 -1.218950e-07
4.000000e+02 -4.001400e+02 -2.350540e-07
-4.000000e+02 -4.001400e+02 -4.000000e+02
3.245830e-08 -4.001400e+02 -4.000000e+02
-4.000000e+02 -2.048220e-01 -4.000000e+02
1.010880e-07 -2.048380e-01 -4.000000e+02
-4.000000e+02 -4.001400e+02 -1.757160e-07
1.126880e-07 -4.001400e+02 -1.218950e-07
-4.000000e+02 -2.048380e-01 -4.535490e-08
6.487730e-08 -2.048620e-01 -6.138740e-08
3.245830e-08 -4.001400e+02 -4.000000e+02
4.000000e+02 -4.001400e+02 -4.000000e+02
1.010880e-07 -2.048380e-01 -4.000000e+02
[...]
<PointData>
<DataArray type="Float32" Name="V1" format="ascii">
0.000000e+00
0.000000e+00
-1.382030e-05
-1.636380e-09
0.000000e+00
0.000000e+00
-1.544730e-05
-1.761970e-10
0.000000e+00
0.000000e+00
-1.636380e-09
1.381760e-05
0.000000e+00
0.000000e+00
-1.761970e-10
1.544600e-05
-1.382030e-05
-1.636380e-09
1.373870e-05
1.344770e-09
-1.544730e-05
-1.761970e-10
1.842820e-05
1.725050e-09
-1.636380e-09
1.381760e-05
1.344770e-09
-1.373700e-05
-1.761970e-10
1.544600e-05
1.725050e-09
-1.842380e-05
1.373870e-05
1.344770e-09
-4.269330e-06
7.870130e-10
1.842820e-05
1.725050e-09
-1.027150e-05
-1.826290e-09
1.344770e-09
-1.373700e-05
7.870130e-10
4.270900e-06
1.725050e-09
-1.842380e-05
-1.826290e-09
1.026810e-05
-4.269330e-06
7.870130e-10
-9.055870e-06
-4.764070e-09
-1.027150e-05
-1.826290e-09
-1.701800e-06
6.978640e-10
7.870130e-10
4.270900e-06
-4.764070e-09
9.047200e-06
-1.826290e-09
1.026810e-05
6.978640e-10
1.703050e-06
-9.055870e-06
-4.764070e-09
1.566040e-05
8.390180e-09
-1.701800e-06
6.978640e-10
1.061480e-05
5.126520e-10
-4.764070e-09
9.047200e-06
8.390180e-09
-1.564570e-05
6.978640e-10
1.703050e-06
5.126520e-10
-1.061380e-05
1.566040e-05
8.390180e-09
-1.261450e-05
-5.355470e-09
1.061480e-05
5.126520e-10
-1.894850e-05
2.289810e-09
8.390180e-09
-1.564570e-05
-5.355470e-09
1.260460e-05
5.126520e-10
-1.061380e-05
2.289810e-09
1.895380e-05
-1.261450e-05
-5.355470e-09
8.711110e-07
1.561410e-09
-1.894850e-05
2.289810e-09
1.950520e-05
-7.321410e-09
-5.355470e-09
1.260460e-05
1.561410e-09
-8.680630e-07
2.289810e-09
1.895380e-05
-7.321410e-09
-1.951810e-05
8.711110e-07
1.561410e-09
9.670340e-06
7.004370e-09
1.950520e-05
-7.321410e-09
-4.269960e-06
8.585070e-09
1.561410e-09
-8.680630e-07
7.004370e-09
-9.657050e-06
-7.321410e-09
-1.951810e-05
8.585070e-09
4.281850e-06
9.670340e-06
7.004370e-09
-8.549730e-06
-1.622070e-08
-4.269960e-06
8.585070e-09
-1.503440e-05
-6.290580e-09
7.004370e-09
-9.657050e-06
-1.622070e-08
8.520730e-06
8.585070e-09
4.281850e-06
-6.290580e-09
1.502820e-05
-8.549730e-06
-1.622070e-08
-2.584160e-06
2.384360e-08
-1.503440e-05
-6.290580e-09
1.228030e-05
-1.003480e-08
-1.622070e-08
8.520730e-06
2.384360e-08
2.626780e-06
-6.290580e-09
1.502820e-05
-1.003480e-08
-1.229800e-05
-2.584160e-06
2.384360e-08
-5.784040e-06
-8.089690e-09
1.228030e-05
-1.003480e-08
9.261110e-06
5.137870e-08
2.384360e-08
2.626780e-06
-8.089690e-09
5.774330e-06
-1.003480e-08
-1.229800e-05
5.137870e-08
-9.186170e-06
-5.784040e-06
-8.089690e-09
2.383520e-05
-2.483710e-08
9.261110e-06
5.137870e-08
-2.634910e-05
-9.915230e-08
-8.089690e-09
5.774330e-06
-2.483710e-08
-2.388520e-05
5.137870e-08
-9.186170e-06
-9.915230e-08
2.621170e-05
2.383520e-05
-2.483710e-08
-1.005350e-05
1.057190e-08
-2.634910e-05
-9.915230e-08
1.786480e-05
5.114480e-08
-2.483710e-08
-2.388520e-05
1.057190e-08
1.007210e-05
-9.915230e-08
2.621170e-05
5.114480e-08
-1.782110e-05
-1.005350e-05
1.057190e-08
-7.605540e-06
4.116640e-08
1.786480e-05
5.114480e-08
4.253790e-06
1.276360e-07
1.057190e-08
1.007210e-05
4.116640e-08
7.684230e-06
5.114480e-08
-1.782110e-05
1.276360e-07
-4.054160e-06
-7.605540e-06
4.116640e-08
1.568290e-05
4.295820e-09
4.253790e-06
1.276360e-07
-2.872120e-05
-2.307350e-07
4.116640e-08
7.684230e-06
4.295820e-09
-1.562430e-05
1.276360e-07
-4.054160e-06
-2.307350e-07
2.852700e-05
1.568290e-05
4.295820e-09
1.550060e-05
-1.911680e-07
-2.872120e-05
-2.307350e-07
3.133060e-05
1.596660e-07
4.295820e-09
-1.562430e-05
-1.911680e-07
-1.597250e-05
-2.307350e-07
2.852700e-05
1.596660e-07
-3.139070e-05
1.550060e-05
-1.911680e-07
2.650850e-06
5.253790e-07
3.133060e-05
1.596660e-07
-3.160380e-05
-2.433250e-07
-1.911680e-07
-1.597250e-05
5.253790e-07
-1.573670e-06
1.596660e-07
-3.139070e-05
-2.433250e-07
3.139350e-05
2.650850e-06
5.253790e-07
-1.591270e-05
-4.839780e-07
-3.160380e-05
-2.433250e-07
-4.521810e-06
5.241500e-07
5.253790e-07
-1.573670e-06
-4.839780e-07
1.468560e-05
-2.433250e-07
3.139350e-05
5.241500e-07
4.871510e-06
-1.591270e-05
-4.839780e-07
7.219040e-05
-1.946650e-07
-4.521810e-06
5.241500e-07
1.961380e-04
5.328660e-08
-4.839780e-07
1.468560e-05
-1.946650e-07
-7.139340e-05
5.241500e-07
4.871510e-06
5.328660e-08
-1.932730e-04
7.219040e-05
-1.946650e-07
-7.228280e-05
8.282850e-07
1.961380e-04
5.328660e-08
-8.417030e-05
1.952920e-06
-1.946650e-07
-7.139340e-05
8.282850e-07
7.195500e-05
5.328660e-08
-1.932730e-04
1.952920e-06
7.978840e-05
-7.228280e-05
8.282850e-07
-9.536870e-05
5.666970e-07
-8.417030e-05
1.952920e-06
-9.326110e-05
-2.755620e-07
8.282850e-07
7.195500e-05
5.666970e-07
9.021690e-05
1.952920e-06
7.978840e-05
-2.755620e-07
9.257620e-05
-9.536870e-05
5.666970e-07
4.372120e-05
-2.337780e-07
-9.326110e-05
-2.755620e-07
1.568280e-05
-3.179930e-07
5.666970e-07
9.021690e-05
-2.337780e-07
-4.428130e-05
-2.755620e-07
9.257620e-05
-3.179930e-07
-1.624770e-05
4.372120e-05
-2.337780e-07
1.478750e-05
8.331330e-07
1.568280e-05
-3.179930e-07
2.424510e-05
-1.675880e-07
-2.337780e-07
-4.428130e-05
8.331330e-07
-1.224880e-05
-3.179930e-07
-1.624770e-05
-1.675880e-07
-2.455820e-05
1.478750e-05
8.331330e-07
-1.977810e-05
-2.782450e-07
2.424510e-05
-1.675880e-07
-1.123480e-05
-2.543250e-08
8.331330e-07
-1.224880e-05
-2.782450e-07
1.961600e-05
-1.675880e-07
-2.455820e-05
-2.543250e-08
1.044570e-05
-1.977810e-05
-2.782450e-07
1.260490e-05
2.271150e-08
-1.123480e-05
-2.543250e-08
4.795230e-07
4.028790e-07
-2.782450e-07
1.961600e-05
2.271150e-08
-1.226400e-05
-2.543250e-08
1.044570e-05
4.028790e-07
3.206510e-07
1.260490e-05
2.271150e-08
6.766920e-06
2.540190e-07
4.795230e-07
4.028790e-07
1.409440e-05
1.166650e-07
2.271150e-08
-1.226400e-05
2.540190e-07
-6.275230e-06
4.028790e-07
3.206510e-07
1.166650e-07
-1.389500e-05
6.766920e-06
2.540190e-07
-1.084350e-05
-4.926320e-07
1.409440e-05
1.166650e-07
-3.157100e-06
-2.130240e-07
2.540190e-07
-6.275230e-06
-4.926320e-07
9.782660e-06
1.166650e-07
-1.389500e-05
-2.130240e-07
2.688370e-06
-1.084350e-05
-4.926320e-07
-3.754960e-06
3.610130e-08
-3.157100e-06
-2.130240e-07
-1.050970e-05
3.282410e-08
-4.926320e-07
9.782660e-06
3.610130e-08
3.841510e-06
-2.130240e-07
2.688370e-06
3.282410e-08
1.058630e-05
-3.754960e-06
3.610130e-08
7.829390e-07
6.356340e-08
-1.050970e-05
3.282410e-08
8.560280e-07
-8.268990e-08
3.610130e-08
3.841510e-06
6.356340e-08
-6.535720e-07
3.282410e-08
1.058630e-05
-8.268990e-08
-1.019300e-06
7.829390e-07
6.356340e-08
-2.446260e-06
8.813750e-08
8.560280e-07
-8.268990e-08
6.955170e-06
1.344220e-07
6.356340e-08
-6.535720e-07
8.813750e-08
2.622550e-06
-8.268990e-08
-1.019300e-06
1.344220e-07
-6.686690e-06
0.000000e+00
0.000000e+00
-1.544730e-05
-1.761970e-10
0.000000e+00
0.000000e+00
-1.382060e-05
-2.656390e-10
0.000000e+00
0.000000e+00
-1.761970e-10
1.544600e-05
0.000000e+00
0.000000e+00
-2.656390e-10
1.381970e-05
-1.544730e-05
-1.761970e-10
1.842820e-05
1.725050e-09
-1.382060e-05
-2.656390e-10
1.373990e-05
1.581550e-09
-1.761970e-10
1.544600e-05
1.725050e-09
-1.842380e-05
-2.656390e-10
1.381970e-05
1.581550e-09
-1.373820e-05
1.842820e-05
1.725050e-09
-1.027150e-05
-1.826290e-09
1.373990e-05
1.581550e-09
-4.270100e-06
1.923730e-09
1.725050e-09
-1.842380e-05
-1.826290e-09
1.026810e-05
1.581550e-09
-1.373820e-05
1.923730e-09
4.272580e-06
-1.027150e-05
-1.826290e-09
-1.701800e-06
6.978640e-10
-4.270100e-06
1.923730e-09
-9.063920e-06
-6.916710e-09
-1.826290e-09
1.026810e-05
6.978640e-10
1.703050e-06
1.923730e-09
4.272580e-06
-6.916710e-09
9.052100e-06
-1.701800e-06
6.978640e-10
1.061480e-05
5.126520e-10
-9.063920e-06
-6.916710e-09
1.567120e-05
7.450820e-09
6.978640e-10
1.703050e-06
5.126520e-10
-1.061380e-05
-6.916710e-09
9.052100e-06
7.450820e-09
-1.565840e-05
1.061480e-05
5.126520e-10
-1.894850e-05
2.289810e-09
1.567120e-05
7.450820e-09
-1.262800e-05
-7.097970e-09
5.126520e-10
-1.061380e-05
2.289810e-09
1.895380e-05
7.450820e-09
-1.565840e-05
-7.097970e-09
1.261460e-05
-1.894850e-05
2.289810e-09
1.950520e-05
-7.321410e-09
-1.262800e-05
-7.097970e-09
8.585100e-07
1.488080e-09
2.289810e-09
1.895380e-05
-7.321410e-09
-1.951810e-05
-7.097970e-09
1.261460e-05
1.488080e-09
-8.522100e-07
1.950520e-05
-7.321410e-09
-4.269960e-06
8.585070e-09
8.585100e-07
1.488080e-09
9.726340e-06
1.107190e-08
-7.321410e-09
-1.951810e-05
8.585070e-09
4.281850e-06
1.488080e-09
-8.522100e-07
1.107190e-08
-9.708960e-06
-4.269960e-06
8.585070e-09
-1.503440e-05
-6.290580e-09
9.726340e-06
1.107190e-08
-8.634100e-06
-3.133560e-08
8.585070e-09
4.281850e-06
-6.290580e-09
1.502820e-05
1.107190e-08
-9.708960e-06
-3.133560e-08
8.577720e-06
-1.503440e-05
-6.290580e-09
1.228030e-05
-1.003480e-08
-8.634100e-06
-3.133560e-08
-2.536060e-06
4.013320e-08
-6.290580e-09
1.502820e-05
-1.003480e-08
-1.229800e-05
-3.133560e-08
8.577720e-06
4.013320e-08
2.617180e-06
1.228030e-05
-1.003480e-08
9.261110e-06
5.137870e-08
-2.536060e-06
4.013320e-08
-5.735800e-06
-1.223480e-08
-1.003480e-08
-1.229800e-05
5.137870e-08
-9.186170e-06
4.013320e-08
2.617180e-06
-1.223480e-08
5.684440e-06
9.261110e-06
5.137870e-08
-2.634910e-05
-9.915230e-08
-5.735800e-06
-1.223480e-08
2.371900e-05
-3.543840e-08
5.137870e-08
-9.186170e-06
-9.915230e-08
2.621170e-05
-1.223480e-08
5.684440e-06
-3.543840e-08
-2.372930e-05
-2.634910e-05
-9.915230e-08
1.786480e-05
5.114480e-08
2.371900e-05
-3.543840e-08
-1.007110e-05
-1.260810e-08
-9.915230e-08
2.621170e-05
5.114480e-08
-1.782110e-05
-3.543840e-08
-2.372930e-05
-1.260810e-08
9.978120e-06
1.786480e-05
5.114480e-08
4.253790e-06
1.276360e-07
-1.007110e-05
-1.260810e-08
-7.228760e-06
1.444970e-07
5.114480e-08
-1.782110e-05
1.276360e-07
-4.054160e-06
-1.260810e-08
9.978120e-06
1.444970e-07
7.530610e-06
4.253790e-06
1.276360e-07
-2.872120e-05
-2.307350e-07
-7.228760e-06
1.444970e-07
1.544750e-05
-4.653430e-08
1.276360e-07
-4.054160e-06
-2.307350e-07
2.852700e-05
1.444970e-07
7.530610e-06
-4.653430e-08
-1.544900e-05
-2.872120e-05
-2.307350e-07
3.133060e-05
1.596660e-07
1.544750e-05
-4.653430e-08
1.456140e-05
-5.462260e-07
-2.307350e-07
2.852700e-05
1.596660e-07
-3.139070e-05
-4.653430e-08
-1.544900e-05
-5.462260e-07
-1.579250e-05
3.133060e-05
1.596660e-07
-3.160380e-05
-2.433250e-07
1.456140e-05
-5.462260e-07
4.832010e-06
1.053120e-06
1.596660e-07
-3.139070e-05
-2.433250e-07
3.139350e-05
-5.462260e-07
-1.579250e-05
1.053120e-06
-2.623120e-06
-3.160380e-05
-2.433250e-07
-4.521810e-06
5.241500e-07
4.832010e-06
1.053120e-06
-1.935460e-05
-1.463060e-07
-2.433250e-07
3.139350e-05
5.241500e-07
4.871510e-06
1.053120e-06
-2.623120e-06
-1.463060e-07
1.890230e-05
-4.521810e-06
5.241500e-07
1.961380e-04
5.328660e-08
-1.935460e-05
-1.463060e-07
7.668910e-05
-6.363340e-07
5.241500e-07
4.871510e-06
5.328660e-08
-1.932730e-04
-1.463060e-07
1.890230e-05
-6.363340e-07
-7.743700e-05
1.961380e-04
5.328660e-08
-8.417030e-05
1.952920e-06
7.668910e-05
-6.363340e-07
-7.793090e-05
2.439490e-06
5.328660e-08
-1.932730e-04
1.952920e-06
7.978840e-05
-6.363340e-07
-7.743700e-05
2.439490e-06
7.327890e-05
-8.417030e-05
1.952920e-06
-9.326110e-05
-2.755620e-07
-7.793090e-05
2.439490e-06
-9.140210e-05
9.038210e-07
1.952920e-06
7.978840e-05
-2.755620e-07
9.257620e-05
2.439490e-06
7.327890e-05
9.038210e-07
8.976100e-05
-9.326110e-05
-2.755620e-07
1.568280e-05
-3.179930e-07
-9.140210e-05
9.038210e-07
4.512540e-05
-3.607500e-08
-2.755620e-07
9.257620e-05
-3.179930e-07
-1.624770e-05
9.038210e-07
8.976100e-05
-3.607500e-08
-4.512840e-05
1.568280e-05
-3.179930e-07
2.424510e-05
-1.675880e-07
4.512540e-05
-3.607500e-08
1.045180e-05
-7.609550e-07
-3.179930e-07
-1.624770e-05
-1.675880e-07
-2.455820e-05
-3.607500e-08
-4.512840e-05
-7.609550e-07
-1.193120e-05
2.424510e-05
-1.675880e-07
-1.123480e-05
-2.543250e-08
1.045180e-05
-7.609550e-07
-1.770620e-05
9.201870e-07
-1.675880e-07
-2.455820e-05
-2.543250e-08
1.044570e-05
-7.609550e-07
-1.193120e-05
9.201870e-07
1.744790e-05
-1.123480e-05
-2.543250e-08
4.795230e-07
4.028790e-07
-1.770620e-05
9.201870e-07
1.530370e-05
5.362850e-07
-2.543250e-08
1.044570e-05
4.028790e-07
3.206510e-07
9.201870e-07
1.744790e-05
5.362850e-07
-1.469960e-05
4.795230e-07
4.028790e-07
1.409440e-05
1.166650e-07
1.530370e-05
5.362850e-07
5.014230e-06
-5.116990e-07
4.028790e-07
3.206510e-07
1.166650e-07
-1.389500e-05
5.362850e-07
-1.469960e-05
-5.116990e-07
-5.695360e-06
1.409440e-05
1.166650e-07
-3.157100e-06
-2.130240e-07
5.014230e-06
-5.116990e-07
-1.042850e-05
5.242620e-07
1.166650e-07
-1.389500e-05
-2.130240e-07
2.688370e-06
-5.116990e-07
-5.695360e-06
5.242620e-07
1.152700e-05
-3.157100e-06
-2.130240e-07
-1.050970e-05
3.282410e-08
-1.042850e-05
5.242620e-07
-4.252770e-06
-9.551610e-08
-2.130240e-07
2.688370e-06
3.282410e-08
1.058630e-05
5.242620e-07
1.152700e-05
-9.551610e-08
4.066840e-06
-1.050970e-05
3.282410e-08
8.560280e-07
-8.268990e-08
-4.252770e-06
-9.551610e-08
5.861240e-07
-3.254640e-07
3.282410e-08
1.058630e-05
-8.268990e-08
-1.019300e-06
-9.551610e-08
4.066840e-06
-3.254640e-07
-1.235170e-06
8.560280e-07
-8.268990e-08
6.955170e-06
1.344220e-07
5.861240e-07
-3.254640e-07
-2.094400e-06
2.582340e-07
-8.268990e-08
-1.019300e-06
1.344220e-07
-6.686690e-06
-3.254640e-07
-1.235170e-06
2.582340e-07
2.611050e-06
</DataArray>
<DataArray type="Float32" Name="V2" format="ascii">
0.000000e+00
0.000000e+00
-5.247910e-05
-9.629110e-05
0.000000e+00
0.000000e+00
-9.628560e-05
-1.460360e-04
0.000000e+00
0.000000e+00
-9.629110e-05
-5.247810e-05
0.000000e+00
0.000000e+00
-1.460360e-04
-9.628660e-05
-5.247910e-05
-9.629110e-05
3.852400e-05
7.851760e-05
-9.628560e-05
-1.460360e-04
7.852160e-05
1.245930e-04
-9.629110e-05
-5.247810e-05
7.851760e-05
3.852880e-05
-1.460360e-04
-9.628660e-05
1.245930e-04
7.852230e-05
3.852400e-05
7.851760e-05
-3.402260e-04
-3.440290e-04
7.852160e-05
1.245930e-04
-3.440500e-04
-3.445480e-04
7.851760e-05
3.852880e-05
-3.440290e-04
-3.402330e-04
1.245930e-04
7.852230e-05
-3.445480e-04
-3.440530e-04
-3.402260e-04
-3.440290e-04
6.676260e-04
6.214830e-04
-3.440500e-04
-3.445480e-04
6.215060e-04
5.568150e-04
-3.440290e-04
-3.402330e-04
6.214830e-04
6.676280e-04
-3.445480e-04
-3.440530e-04
5.568150e-04
6.215050e-04
6.676260e-04
6.214830e-04
1.447370e-04
1.976330e-04
6.215060e-04
5.568150e-04
1.976250e-04
2.647790e-04
6.214830e-04
6.676280e-04
1.976330e-04
1.447560e-04
5.568150e-04
6.215050e-04
2.647790e-04
1.976430e-04
1.447370e-04
1.976330e-04
6.578020e-04
6.274410e-04
1.976250e-04
2.647790e-04
6.273890e-04
6.060020e-04
1.976330e-04
1.447560e-04
6.274410e-04
6.577900e-04
2.647790e-04
1.976430e-04
6.060020e-04
6.273460e-04
6.578020e-04
6.274410e-04
8.464150e-04
8.511390e-04
6.273890e-04
6.060020e-04
8.512440e-04
8.403840e-04
6.274410e-04
6.577900e-04
8.511390e-04
8.464220e-04
6.060020e-04
6.273460e-04
8.403840e-04
8.512650e-04
8.464150e-04
8.511390e-04
2.114990e-03
2.142670e-03
8.512440e-04
8.403840e-04
2.142650e-03
2.157410e-03
8.511390e-04
8.464220e-04
2.142670e-03
2.115020e-03
8.403840e-04
8.512650e-04
2.157410e-03
2.142680e-03
2.114990e-03
2.142670e-03
3.161510e-03
3.090300e-03
2.142650e-03
2.157410e-03
3.090130e-03
3.062880e-03
2.142670e-03
2.115020e-03
3.090300e-03
3.161470e-03
2.157410e-03
2.142680e-03
3.062880e-03
3.090060e-03
3.161510e-03
3.090300e-03
5.101570e-03
5.194160e-03
3.090130e-03
3.062880e-03
5.194380e-03
5.255150e-03
3.090300e-03
3.161470e-03
5.194160e-03
5.101590e-03
3.062880e-03
3.090060e-03
5.255150e-03
5.194410e-03
5.101570e-03
5.194160e-03
1.135650e-02
1.132100e-02
5.194380e-03
5.255150e-03
1.132110e-02
1.127530e-02
5.194160e-03
5.101590e-03
1.132100e-02
1.135650e-02
5.255150e-03
5.194410e-03
1.127530e-02
1.132120e-02
1.135650e-02
1.132100e-02
1.788140e-02
1.787820e-02
1.132110e-02
1.127530e-02
1.787780e-02
1.787260e-02
1.132100e-02
1.135650e-02
1.787820e-02
1.788140e-02
1.127530e-02
1.132120e-02
1.787260e-02
1.787760e-02
1.788140e-02
1.787820e-02
2.861990e-02
2.869230e-02
1.787780e-02
1.787260e-02
2.869210e-02
2.877160e-02
1.787820e-02
1.788140e-02
2.869230e-02
2.861990e-02
1.787260e-02
1.787760e-02
2.877160e-02
2.869240e-02
2.861990e-02
2.869230e-02
4.172420e-02
4.163660e-02
2.869210e-02
2.877160e-02
4.163750e-02
4.156230e-02
2.869230e-02
2.861990e-02
4.163660e-02
4.172410e-02
2.877160e-02
2.869240e-02
4.156230e-02
4.163750e-02
4.172420e-02
4.163660e-02
4.985850e-02
4.993140e-02
4.163750e-02
4.156230e-02
4.993050e-02
4.988810e-02
4.163660e-02
4.172410e-02
4.993140e-02
4.985860e-02
4.156230e-02
4.163750e-02
4.988810e-02
4.992940e-02
4.985850e-02
4.993140e-02
4.474530e-02
4.470950e-02
4.993050e-02
4.988810e-02
4.470930e-02
4.479740e-02
4.993140e-02
4.985860e-02
4.470950e-02
4.474500e-02
4.988810e-02
4.992940e-02
4.479740e-02
4.471090e-02
4.474530e-02
4.470950e-02
2.548360e-02
2.538360e-02
4.470930e-02
4.479740e-02
2.538640e-02
2.521990e-02
4.470950e-02
4.474500e-02
2.538360e-02
2.548480e-02
4.479740e-02
4.471090e-02
2.521990e-02
2.538660e-02
2.548360e-02
2.538360e-02
-3.537140e-03
-3.516350e-03
2.538640e-02
2.521990e-02
-3.511120e-03
-3.524930e-03
2.538360e-02
2.548480e-02
-3.516350e-03
-3.541360e-03
2.521990e-02
2.538660e-02
-3.524930e-03
-3.513410e-03
-3.537140e-03
-3.516350e-03
-2.619490e-02
-2.619970e-02
-3.511120e-03
-3.524930e-03
-2.622970e-02
-2.586320e-02
-3.516350e-03
-3.541360e-03
-2.619970e-02
-2.618750e-02
-3.524930e-03
-3.513410e-03
-2.586320e-02
-2.622430e-02
-2.619490e-02
-2.619970e-02
-2.000100e-02
-1.984090e-02
-2.622970e-02
-2.586320e-02
-1.983460e-02
-1.990290e-02
-2.619970e-02
-2.618750e-02
-1.984090e-02
-2.002490e-02
-2.586320e-02
-2.622430e-02
-1.990290e-02
-1.983620e-02
-2.000100e-02
-1.984090e-02
4.283310e-03
3.835890e-03
-1.983460e-02
-1.990290e-02
3.838230e-03
3.647740e-03
-1.984090e-02
-2.002490e-02
3.835890e-03
4.308210e-03
-1.990290e-02
-1.983620e-02
3.647740e-03
3.849730e-03
4.283310e-03
3.835890e-03
1.753710e-02
1.755970e-02
3.838230e-03
3.647740e-03
1.758260e-02
1.753390e-02
3.835890e-03
4.308210e-03
1.755970e-02
1.748570e-02
3.647740e-03
3.849730e-03
1.753390e-02
1.755560e-02
1.753710e-02
1.755970e-02
1.097440e-03
1.229580e-03
1.758260e-02
1.753390e-02
1.194700e-03
1.310490e-03
1.755970e-02
1.748570e-02
1.229580e-03
1.153990e-03
1.753390e-02
1.755560e-02
1.310490e-03
1.208010e-03
1.097440e-03
1.229580e-03
-8.870420e-03
-8.818180e-03
1.194700e-03
1.310490e-03
-8.807830e-03
-8.754720e-03
1.229580e-03
1.153990e-03
-8.818180e-03
-8.882560e-03
1.310490e-03
1.208010e-03
-8.754720e-03
-8.807490e-03
-8.870420e-03
-8.818180e-03
8.959270e-05
-7.735340e-06
-8.807830e-03
-8.754720e-03
1.320470e-05
-8.366700e-05
-8.818180e-03
-8.882560e-03
-7.735340e-06
6.459210e-05
-8.754720e-03
-8.807490e-03
-8.366700e-05
4.704200e-06
8.959270e-05
-7.735340e-06
3.407860e-03
3.490030e-03
1.320470e-05
-8.366700e-05
3.474660e-03
3.514560e-03
-7.735340e-06
6.459210e-05
3.490030e-03
3.430100e-03
-8.366700e-05
4.704200e-06
3.514560e-03
3.490910e-03
3.407860e-03
3.490030e-03
-9.445200e-05
-6.772200e-05
3.474660e-03
3.514560e-03
-7.036630e-05
-1.089370e-04
3.490030e-03
3.430100e-03
-6.772200e-05
-9.355340e-05
3.514560e-03
3.490910e-03
-1.089370e-04
-8.181160e-05
-9.445200e-05
-6.772200e-05
-3.016830e-04
-3.131510e-04
-7.036630e-05
-1.089370e-04
-3.151040e-04
-3.154200e-04
-6.772200e-05
-9.355340e-05
-3.131510e-04
-3.055390e-04
-1.089370e-04
-8.181160e-05
-3.154200e-04
-3.119330e-04
-3.016830e-04
-3.131510e-04
1.376650e-04
1.543230e-04
-3.151040e-04
-3.154200e-04
1.538080e-04
9.317180e-05
-3.131510e-04
-3.055390e-04
1.543230e-04
1.385940e-04
-3.154200e-04
-3.119330e-04
9.317180e-05
1.539280e-04
1.376650e-04
1.543230e-04
-7.209250e-05
-5.737950e-05
1.538080e-04
9.317180e-05
-5.710630e-05
-8.683420e-06
1.543230e-04
1.385940e-04
-5.737950e-05
-7.274010e-05
9.317180e-05
1.539280e-04
-8.683420e-06
-5.811130e-05
0.000000e+00
0.000000e+00
-9.628560e-05
-1.460360e-04
0.000000e+00
0.000000e+00
-5.247680e-05
-9.628380e-05
0.000000e+00
0.000000e+00
-1.460360e-04
-9.628660e-05
0.000000e+00
0.000000e+00
-9.628380e-05
-5.247760e-05
-9.628560e-05
-1.460360e-04
7.852160e-05
1.245930e-04
-5.247680e-05
-9.628380e-05
3.853410e-05
7.852430e-05
-1.460360e-04
-9.628660e-05
1.245930e-04
7.852230e-05
-9.628380e-05
-5.247760e-05
7.852430e-05
3.853430e-05
7.852160e-05
1.245930e-04
-3.440500e-04
-3.445480e-04
3.853410e-05
7.852430e-05
-3.402530e-04
-3.440420e-04