<?xml version="1.0"?>
<!-- time 85.7086-->
<VTKFile type="UnstructuredGrid" version="0.1" byte_order="LittleEndian">
<UnstructuredGrid>
<Piece NumberOfPoints="7680" NumberOfCells="0">
<Points>
  <DataArray type="Float32" Name="Position" NumberOfComponents="3" format="ascii">
	-350 2049.63 -350
	-350 2049.64 -250
	-350 2049.63 -150
	-350 2049.65 -50
	-350 2049.65 50
	-350 2049.63 150
	-350 2049.64 250
	-350 2049.63 350
	-250 2049.64 -350
	-250 2049.51 -250
	-250 2049.56 -150
	-250 2049.62 -50
	-250 2049.62 50
	-250 2049.56 150
	-250 2049.51 250
	-250 2049.64 350
	-150 2049.63 -350
	-150 2049.56 -250
	-150 2049.57 -150
	-150 2049.66 -50
	-150 2049.66 50
	-150 2049.57 150
	-150 2049.56 250
	-150 2049.63 350
	-50 2049.65 -350
	-50 2049.62 -250
	-50 2049.66 -150
	-50 2049.62 -50
	-50 2049.62 50
	-50 2049.66 150
	-50 2049.62 250
	-50 2049.65 350
	50 2049.65 -350
	50 2049.62 -250
	50 2049.66 -150
	50 2049.62 -50
	50 2049.62 50
	50 2049.66 150
	50 2049.62 250
	50 2049.65 350
	150 2049.63 -350
	150 2049.56 -250
	150 2049.57 -150
	150 2049.66 -50
	150 2049.66 50
	150 2049.57 150
	150 2049.56 250
	150 2049.63 350
	250 2049.64 -350
	250 2049.51 -250
	250 2049.56 -150
	250 2049.62 -50
	250 2049.62 50
	250 2049.56 150
	250 2049.51 250
	250 2049.64 350
	350 2049.63 -350
	350 2049.64 -250
	350 2049.63 -150
	350 2049.65 -50
	350 2049.65 50
	350 2049.63 150
	350 2049.64 250
	350 2049.63 350
	-350 2149.66 -350
	-350 2149.65 -250
	-350 2149.64 -150
	-350 2149.66 -50
	-350 2149.66 50
	-350 2149.64 150
	-350 2149.65 250
	-350 2149.66 350
	-250 2149.65 -350
	-250 2149.64 -250
	-250 2149.61 -150
	-250 2149.65 -50
	-250 2149.65 50
	-250 2149.61 150
	-250 2149.64 250
	-250 2149.65 350
	-150 2149.64 -350
	-150 2149.61 -250
	-150 2149.59 -150
	-150 2149.66 -50
	-150 2149.66 50
	-150 2149.59 150
	-150 2149.61 250
	-150 2149.64 350
	-50 2149.66 -350
	-50 2149.65 -250
	-50 2149.66 -150
	-50 2149.64 -50
	-50 2149.64 50
	-50 2149.66 150
	-50 2149.65 250
	-50 2149.66 350
	50 2149.66 -350
	50 2149.65 -250
	50 2149.66 -150
	50.0001 2149.64 -50
	50 2149.64 50
	50 2149.66 150
	50 2149.65 250
	50 2149.66 350
	150 2149.64 -350
	150 2149.61 -250
	150 2149.59 -150
	150 2149.66 -50
	150 2149.66 50
	150 2149.59 150
	150 2149.61 250
	150 2149.64 350
	250 2149.65 -350
	250 2149.64 -250
	250 2149.61 -150
	250 2149.65 -50
	250 2149.65 50
	250 2149.61 150
	250 2149.64 250
	250 2149.65 350
	350 2149.66 -350
	350 2149.65 -250
	350 2149.64 -150
	350 2149.66 -50
	350 2149.66 50
	350 2149.64 150
	350 2149.65 250
	350 2149.66 350
	-350 2249.66 -350
	-350 2249.65 -250
	-350 2249.65 -150
	-350 2249.66 -50
	-350 2249.66 50
	-350 2249.65 150
	-350 2249.65 250
	-350 2249.66 350
	-250 2249.65 -350
	-250 2249.64 -250
	-250 2249.63 -150
	-250 2249.65 -50
	-250 2249.65 50.0001
	-250 2249.63 150
	-250 2249.64 250
	-250 2249.65 350
	-150 2249.65 -350
	-150 2249.63 -250
	-150 2249.63 -150
	-150 2249.66 -50
	-150 2249.66 50
	-150 2249.63 150
	-150 2249.63 250
	-150 2249.65 350
	-50 2249.66 -350
	-50.0001 2249.65 -250
	-50 2249.66 -150
	-50 2249.64 -50
	-50 2249.64 50
	-50 2249.66 150
	-50 2249.65 250
	-50 2249.66 350
	50 2249.66 -350
	50 2249.65 -250
	50 2249.66 -150
	50 2249.64 -50
	50 2249.64 50
	50 2249.66 150
	50 2249.65 250
	50 2249.66 350
	150 2249.65 -350
	150 2249.63 -250
	150 2249.63 -150
	150 2249.66 -50
	150 2249.66 50
	150 2249.63 150
	150 2249.63 250
	150 2249.65 350
	250 2249.65 -350
	250 2249.64 -250
	250 2249.63 -150
	250 2249.65 -50
	250 2249.65 50
	250 2249.63 150
	250 2249.64 250
	250 2249.65 350
	350 2249.66 -350
	350 2249.65 -250
	350 2249.65 -150
	350 2249.66 -50
	350 2249.66 50
	350 2249.65 150
	350 2249.65 250
	350 2249.66 350
	-350 2349.65 -350
	-350 2349.65 -250
	-350 2349.65 -150
	-350 2349.65 -50
	-350 2349.65 50
	-350 2349.65 150
	-350 2349.65 250
	-350 2349.65 350
	-250 2349.65 -350
	-250 2349.64 -250
	-250 2349.63 -150
	-250 2349.65 -50
	-250 2349.65 50
	-250 2349.63 150
	-250 2349.64 250
	-250 2349.65 350
	-150 2349.65 -350
	-150 2349.63 -250
	-150 2349.63 -150
	-150 2349.66 -50
	-150 2349.66 50.0001
	-150 2349.63 150
	-150 2349.63 250
	-150 2349.65 350
	-50 2349.65 -350
	-50 2349.65 -250
	-50.0001 2349.66 -150
	-50 2349.64 -50
	-50 2349.65 50
	-50.0001 2349.66 150
	-50 2349.65 250
	-50 2349.65 350
	50 2349.65 -350
	50 2349.65 -250
	50 2349.66 -150
	50 2349.65 -50
	50 2349.65 50
	50 2349.66 150
	50 2349.65 250
	50 2349.65 350
	150 2349.65 -350
	150 2349.63 -250
	150 2349.63 -150
	150 2349.66 -50
	150 2349.66 50
	150 2349.63 150
	150 2349.63 250
	150 2349.65 350
	250 2349.65 -350
	250 2349.64 -250
	250 2349.63 -150
	250 2349.65 -50
	250 2349.65 50
	250 2349.63 150
	250 2349.64 250
	250 2349.65 350
	350 2349.65 -350
	350 2349.65 -250
	350 2349.65 -150
	350 2349.65 -50
	350 2349.65 50
	350 2349.65 150
	350 2349.65 250
	350 2349.65 350
	-350 2449.65 -350
	-350 2449.65 -250
	-350 2449.65 -150
	-350 2449.65 -50
	-350 2449.65 50
	-350 2449.65 150
	-350 2449.65 250
	-350 2449.65 350
	-250 2449.65 -350
	-250 2449.64 -250
	-250 2449.64 -150
	-250 2449.65 -50
	-250 2449.65 50
	-250 2449.64 150
	-250 2449.64 250
	-250 2449.65 350
	-150 2449.65 -350
	-150 2449.64 -250
	-150 2449.63 -150
	-150 2449.66 -50
	-150 2449.66 50
	-150 2449.63 150
	-150 2449.64 250
	-150 2449.65 350
	-50 2449.65 -350
	-50 2449.66 -250
	-50 2449.66 -150
	-50 2449.65 -50
	-50 2449.65 50
	-50 2449.66 150
	-50 2449.65 250
	-50 2449.65 350
	50 2449.65 -350
	50 2449.65 -250
	50 2449.66 -150
	50 2449.65 -50
	50 2449.65 50
	50 2449.66 150
	50 2449.65 250
	50 2449.65 350
	150 2449.65 -350
	150 2449.64 -250
	150 2449.63 -150
	150 2449.66 -50
	150 2449.66 50
	150 2449.63 150
	150 2449.64 250
	150 2449.65 350
	250 2449.65 -350
	250 2449.64 -250
	250 2449.64 -150
	250 2449.65 -50
	250 2449.65 50
	250 2449.64 150
	250 2449.64 250
	250 2449.65 350
	350 2449.65 -350
	350 2449.65 -250
	350 2449.65 -150
	350 2449.65 -50
	350 2449.65 50
	350 2449.65 150
	350 2449.65 250
	350 2449.65 350
	-350 2549.65 -350
	-350 2549.66 -250
	-350 2549.66 -150
	-350 2549.66 -50
	-350 2549.66 50
	-350 2549.66 150
	-350 2549.66 250
	-350 2549.65 350
	-250 2549.66 -350
	-250 2549.64 -250
	-250 2549.64 -150
	-250 2549.65 -50
	-250 2549.65 50
	-250 2549.64 150
	-250 2549.64 250
	-250 2549.66 350
	-150 2549.66 -350
	-150 2549.64 -250
	-150 2549.64 -150
	-150 2549.66 -50
	-150 2549.66 50
	-150 2549.64 150
	-150 2549.64 250
	-150 2549.66 350
	-50 2549.66 -350
	-50 2549.65 -250
	-50 2549.66 -150
	-50 2549.65 -50
	-50 2549.65 50
	-50 2549.66 150
	-50 2549.65 250
	-50 2549.66 350
	50 2549.66 -350
	50 2549.65 -250
	50 2549.66 -150
	50 2549.65 -50
	50 2549.65 50
	50 2549.66 150
	50 2549.65 250
	50 2549.66 350
	150 2549.66 -350
	150 2549.64 -250
	150 2549.64 -150
	150 2549.66 -50
	150 2549.66 50
	150 2549.64 150
	150 2549.64 250
	150 2549.66 350
	250 2549.66 -350
	250 2549.64 -250
	250 2549.64 -150
	250 2549.65 -50
	250 2549.65 50
	250 2549.64 150
	250 2549.64 250
	250 2549.66 350
	350 2549.65 -350
	350 2549.66 -250
	350 2549.66 -150
	350 2549.66 -50
	350 2549.66 50
	350 2549.66 150
	350 2549.66 250
	350 2549.65 350
	-350 2649.66 -350
	-350 2649.66 -250
	-350 2649.65 -150
	-350 2649.66 -49.9999
	-350 2649.66 50.0001
	-350 2649.65 150
	-350 2649.66 250
	-350 2649.66 350
	-250 2649.66 -350
	-250 2649.65 -250
	-250 2649.65 -150
	-250 2649.66 -50.0001
	-250 2649.66 50
	-250 2649.65 150
	-250 2649.65 250
	-250 2649.66 350
	-150 2649.65 -350
	-150 2649.65 -250
	-150 2649.64 -150
	-150 2649.66 -50
	-150 2649.66 50
	-150 2649.64 150
	-150 2649.65 250
	-150 2649.65 350
	-50 2649.66 -350
	-50 2649.66 -250
	-50 2649.66 -150
	-50 2649.65 -50
	-50 2649.65 50
	-50 2649.66 150
	-50.0001 2649.66 250
	-50 2649.66 350
	50 2649.66 -350
	50.0001 2649.66 -250
	50 2649.66 -150
	50 2649.65 -50
	50 2649.65 50
	50 2649.66 150
	50.0001 2649.66 250
	50 2649.66 350
	150 2649.65 -350
	150 2649.65 -250
	150 2649.64 -150
	150 2649.66 -50
	150 2649.66 50
	150 2649.64 150
	150 2649.65 250
	150 2649.65 350
	250 2649.66 -350
	250 2649.65 -250
	250 2649.65 -150
	250 2649.66 -50.0001
	250 2649.66 50.0001
	250 2649.65 150
	250 2649.65 250
	250 2649.66 350
	350 2649.66 -350
	350 2649.66 -250
	350 2649.65 -150
	350 2649.66 -49.9999
	350 2649.66 50.0001
	350 2649.65 150
	350 2649.66 250
	350 2649.66 350
	-350 2749.65 -350
	-350 2749.66 -250
	-350 2749.66 -150
	-350 2749.66 -50
	-350 2749.66 50
	-350 2749.66 150
	-350 2749.66 250
	-350 2749.65 350
	-250 2749.66 -350
	-250 2749.65 -250
	-250 2749.65 -150
	-250 2749.66 -50
	-250 2749.66 50
	-250 2749.65 150
	-250 2749.65 250
	-250 2749.66 350
	-150 2749.66 -350
	-150 2749.65 -250
	-150 2749.64 -150
	-150 2749.66 -50
	-150 2749.66 50
	-150 2749.64 150
	-150 2749.65 250
	-150 2749.66 350
	-50 2749.66 -350
	-50 2749.66 -250
	-50 2749.66 -150
	-50 2749.66 -50
	-50 2749.66 50
	-50 2749.66 150
	-50 2749.66 250
	-50 2749.66 350
	49.9999 2749.66 -350
	50 2749.66 -250
	50 2749.66 -150
	50 2749.66 -50
	50 2749.66 50
	50 2749.66 150
	50 2749.66 250
	50 2749.66 350
	150 2749.66 -350
	150 2749.65 -250
	150 2749.64 -150
	150 2749.66 -50
	150 2749.66 50.0001
	150 2749.64 150
	150 2749.65 250
	150 2749.66 350
	250 2749.66 -350
	250 2749.65 -250
	250 2749.65 -150
	250 2749.66 -50
	250 2749.66 50
	250 2749.65 150
	250 2749.65 250
	250 2749.66 350
	350 2749.65 -350
	350 2749.66 -250
	350 2749.66 -150
	350 2749.66 -50
	350 2749.66 50
	350 2749.66 150
	350 2749.66 250
	350 2749.65 350
	-350 2849.65 -350
	-350 2849.66 -250
	-350 2849.66 -150
	-350 2849.66 -50
	-350 2849.66 50
	-350 2849.66 150
	-350 2849.66 250
	-350 2849.65 350
	-250 2849.66 -350
	-250 2849.65 -250
	-250 2849.65 -150
	-250 2849.66 -50
	-250 2849.66 50
	-250 2849.65 150
	-250 2849.65 250
	-250 2849.66 350
	-150 2849.66 -350
	-150 2849.65 -250
	-150 2849.64 -150
	-150 2849.66 -50
	-150 2849.66 50
	-150 2849.64 150
	-150 2849.65 250
	-150 2849.66 350
	-50 2849.66 -350
	-50 2849.66 -250
	-50 2849.66 -150
	-50 2849.66 -50
	-50 2849.66 50
	-50 2849.66 150
	-50 2849.66 250
	-50.0001 2849.66 350
	50 2849.66 -350
	50 2849.66 -250
	50 2849.66 -150
	50 2849.66 -50
	50 2849.66 50
[...]
<PointData  Vectors="vector">
  <DataArray type="Float32" Name="Velocity" NumberOfComponents="3" format="ascii">
 2.35067e-05 0.0115653 2.92501e-05
 2.80977e-05 0.0100156 -4.9081e-05
 4.26979e-05 0.00521211 1.24827e-05
 5.50071e-05 0.0129671 4.46572e-05
 6.37426e-05 0.012967 -3.411e-05
 4.53604e-05 0.0052386 -2.75957e-05
 3.19297e-05 0.010004 5.16714e-05
 2.02633e-05 0.0115541 -2.75867e-05
 -3.85964e-05 0.0100162 2.73521e-05
 -4.17085e-05 0.0135003 -3.71624e-05
 -3.67144e-05 0.01605 -7.92504e-05
 -5.18771e-06 0.0119714 1.70223e-05
 -5.7459e-05 0.011976 1.52427e-06
 -2.12924e-07 0.0160524 5.2805e-05
 -6.42644e-05 0.013492 4.63847e-05
 -3.60306e-05 0.0100435 -2.8957e-05
 1.03963e-05 0.00524795 5.39376e-05
 -5.77563e-05 0.0160534 -1.1239e-05
 5.81051e-05 0.0141409 -4.65715e-05
 -5.04438e-05 0.0128661 2.72539e-05
 -3.16539e-05 0.0128849 1.68138e-05
 1.23275e-05 0.0141615 -1.21851e-05
 -1.84377e-05 0.0160637 1.35875e-05
 -7.03058e-05 0.00522955 -4.01161e-05
 2.58586e-05 0.0129652 3.53359e-05
 2.91276e-06 0.0119781 -5.64986e-05
 -1.60508e-05 0.0128636 -2.13017e-05
 -2.75265e-06 0.0126691 -1.11974e-05
 2.23213e-05 0.0126812 4.51177e-05
 -2.02561e-05 0.0128797 1.3611e-05
 7.78495e-06 0.0119967 5.08494e-05
 4.79675e-05 0.0129748 -5.45079e-05
 4.71898e-06 0.0129679 3.56392e-05
 3.85946e-06 0.0119746 -2.71824e-05
 -2.08826e-05 0.0128354 1.51343e-05
 -6.87461e-06 0.0126691 -1.48392e-05
 3.4538e-05 0.01268 -7.49875e-06
 -2.34118e-05 0.0128776 9.95065e-06
 -1.60228e-05 0.0119971 4.75676e-05
 6.56176e-06 0.012974 -5.7773e-05
 -3.03556e-05 0.00524895 4.40099e-05
 3.29906e-05 0.0160525 1.29346e-05
 2.97828e-06 0.0141369 6.76783e-06
 3.28489e-05 0.0129608 -2.98937e-05
 -1.86499e-05 0.0128811 -1.68171e-05
 1.96958e-05 0.0141593 -1.61071e-06
 2.30956e-05 0.0160623 4.71889e-05
 3.57843e-05 0.00522683 -6.17287e-05
 3.65228e-05 0.00999963 2.92815e-05
 6.79852e-05 0.0134945 -5.77506e-05
 1.17884e-05 0.0160462 -3.8845e-05
 1.76317e-05 0.0120002 -9.79692e-06
 2.74159e-05 0.0119777 -1.95328e-05
 2.22786e-05 0.0160571 9.73768e-05
 6.46734e-05 0.0134975 3.27633e-05
 3.2439e-05 0.0100527 -3.41249e-05
 -3.2281e-05 0.011563 3.00449e-05
 -3.6605e-05 0.0100002 -3.52976e-05
 -4.13866e-05 0.00520216 1.18071e-05
 -3.96988e-05 0.0129599 1.23203e-05
 -4.01415e-05 0.0129686 1.17789e-05
 -5.57006e-05 0.00524689 -3.9067e-05
 -2.93021e-05 0.0100086 2.69277e-05
 -3.72319e-05 0.011562 -1.9163e-05
 4.76106e-05 -0.00123029 3.18404e-05
 3.79447e-05 0.0122729 -1.84896e-05
 5.20874e-05 0.01557 1.96954e-05
 3.74358e-05 -0.00351465 4.8524e-06
 4.09265e-05 -0.00349936 -3.88246e-06
 5.18389e-05 0.0155722 -3.99913e-05
 4.31738e-05 0.0122817 3.73001e-05
 3.00334e-05 -0.00122019 -3.16324e-05
 3.17676e-05 0.0122729 4.03301e-05
 -9.83424e-06 0.0154935 3.67484e-05
 -1.67033e-05 0.0135707 -1.8812e-05
 -4.1457e-05 0.0169395 -3.73659e-06
 -2.52865e-05 0.0170277 -1.39215e-06
 -4.14241e-07 0.0135727 -3.2129e-05
 4.39294e-05 0.0154844 1.08199e-05
 2.93464e-06 0.0122661 -3.2123e-05
 -5.04001e-05 0.0155584 5.33937e-05
 2.79121e-05 0.0135747 -1.10024e-05
 6.56262e-05 0.0114687 3.95062e-05
 -6.01649e-05 -0.00310875 2.04735e-05
 -4.59118e-05 -0.00313451 -4.42916e-07
 -4.47232e-05 0.0114886 -2.7951e-05
 -2.2156e-05 0.0135835 -4.05022e-05
 -1.13061e-06 0.0155783 -3.20626e-05
 4.40661e-06 -0.00340996 4.9261e-05
 -1.10905e-05 0.0170187 -5.56994e-05
 -1.48937e-05 -0.00310966 1.15873e-05
 7.56619e-05 0.0110086 2.55007e-05
 2.54022e-05 0.0109527 -4.95583e-05
 6.20696e-05 -0.00314669 4.69102e-05
 1.13655e-06 0.0170509 -4.49346e-05
 1.99814e-06 -0.00334725 1.82658e-05
 3.43786e-06 -0.0033992 4.72099e-05
 1.79047e-05 0.0170018 -5.5753e-05
 -4.54441e-05 -0.003151 -4.40106e-05
 -1.11521e-05 0.0109721 6.49661e-05
 -2.9697e-05 0.0109534 -6.62801e-05
 1.74726e-05 -0.00315476 6.26712e-05
 1.45646e-05 0.01707 3.19379e-05
 -2.35138e-06 -0.00335386 -3.98389e-05
 -3.80539e-05 0.0155528 1.12962e-05
 -3.69788e-05 0.0135738 2.1593e-05
 -2.92491e-05 0.0114649 -2.86204e-06
 5.10135e-06 -0.0030873 2.2994e-05
 3.81141e-05 -0.00315257 5.06542e-05
 1.24295e-05 0.0114865 -1.96363e-05
 -2.70397e-05 0.0135819 -4.59715e-05
 -2.62699e-05 0.0155806 -3.72263e-05
 3.17161e-05 0.0122763 3.83237e-05
 1.12127e-05 0.0154874 3.14697e-05
 3.82558e-05 0.0135673 -1.02415e-05
 5.78286e-05 0.0170722 -9.16015e-06
 4.87055e-05 0.0169793 -3.82769e-05
 -6.53324e-05 0.0135775 1.14796e-05
 -1.65018e-05 0.0154894 8.26583e-06
 2.31267e-05 0.0122714 -3.24734e-05
 -3.0689e-05 -0.00125339 5.23116e-05
 -3.72999e-05 0.0122762 3.68832e-05
 -4.91633e-05 0.0155788 -5.08131e-05
 -6.27624e-05 -0.00345916 3.35102e-06
 -5.21289e-05 -0.00340064 2.19796e-06
 -3.32178e-05 0.0155704 -5.53019e-05
 -3.76298e-05 0.0122642 4.78315e-05
 -2.88653e-05 -0.00124176 -3.70772e-05
 6.52154e-05 0.0111585 6.38131e-05
 4.30336e-05 -0.00277965 -4.30602e-06
 1.02561e-05 -0.00373546 -1.8466e-05
 1.00863e-05 0.00323699 5.14722e-05
 9.9068e-06 0.00312691 -5.14675e-06
 9.61209e-06 -0.00368872 -5.1186e-05
 5.72902e-05 -0.00277528 2.88476e-05
 6.63449e-05 0.0112624 -6.64596e-05
 -3.44288e-05 -0.00277951 5.46786e-05
 -2.38455e-05 -0.012276 3.87648e-05
 -2.37484e-05 -0.00283617 -1.38188e-05
 6.88576e-06 -0.00645487 -2.45622e-05
 1.54788e-05 -0.00651025 7.32541e-06
 1.43893e-05 -0.0027327 -2.22431e-05
 -2.34071e-05 -0.0122902 -1.44848e-05
 2.1306e-06 -0.00276547 -2.70846e-05
 2.14241e-05 -0.00369465 -2.57125e-05
 3.7818e-05 -0.00270245 2.93451e-05
 9.33137e-06 -0.00296359 4.49895e-06
 -1.549e-05 0.0143981 6.31683e-06
 -2.60008e-05 0.0144573 -2.84186e-06
 7.65097e-06 -0.00296438 1.59459e-05
 2.25474e-05 -0.00257514 -1.77841e-05
 1.12512e-05 -0.00363462 -1.04282e-05
 4.34207e-05 0.00272924 8.09597e-06
 -2.59835e-05 -0.0065231 -2.69346e-05
 5.66087e-06 0.0143858 6.91651e-06
 1.08007e-05 -0.00103606 2.29216e-05
 1.43515e-05 -0.00101968 -3.21949e-05
 -1.3116e-05 0.014449 1.53631e-05
 -2.15596e-07 -0.00651691 1.29154e-05
 1.39716e-05 0.00238516 -7.80297e-06
 5.09322e-07 0.00263501 6.90167e-06
 4.04466e-05 -0.00649762 1.09327e-06
 7.75098e-06 0.0145065 2.09146e-05
 -2.65206e-05 -0.00103593 -1.54362e-05
 -2.83185e-06 -0.00102136 1.12569e-05
 -1.20007e-05 0.0144573 -2.65039e-05
 -3.57408e-05 -0.00653085 3.95396e-06
 -3.52265e-05 0.00240153 -3.42672e-06
 3.2809e-05 -0.00372967 9.63348e-06
 -5.71172e-05 -0.00261771 2.42113e-06
 -2.00471e-06 -0.00300687 -2.60608e-05
 -6.95816e-07 0.0142429 9.71041e-06
 -9.23994e-06 0.014484 -4.99043e-06
 -3.79906e-06 -0.0029644 3.14932e-05
 -7.09205e-06 -0.00257101 -9.3899e-06
 -1.54008e-05 -0.00363105 -1.41155e-05
 -5.8342e-05 -0.00276729 6.34681e-05
 3.74809e-05 -0.0122576 -3.0452e-05
 -3.00781e-05 -0.00285183 3.52479e-05
 2.43619e-05 -0.00660381 -2.06755e-05
 1.08245e-05 -0.0064665 3.23416e-05
 -2.94839e-05 -0.00271368 -5.2669e-05
 4.17311e-05 -0.0122904 -1.78475e-05
 2.38325e-05 -0.00279433 -1.07708e-05
 -7.12971e-05 0.0111015 6.41365e-05
 -5.24795e-05 -0.00276755 -3.51441e-05
 2.39655e-05 -0.003643 1.81655e-05
 -8.2009e-06 0.00303557 4.00593e-05
 -1.12955e-05 0.00282955 -5.95086e-06
 2.79421e-05 -0.00366325 -5.23926e-05
 -5.5475e-05 -0.00275825 3.49439e-05
 -6.72783e-05 0.0111413 -6.51838e-05
 4.22639e-05 0.00429048 5.07317e-05
 3.48856e-05 -0.00276005 -1.59161e-05
 2.55504e-05 -0.00176333 3.8804e-07
 1.18795e-06 0.00549588 -2.25979e-05
 -1.0841e-05 0.00532734 -6.79233e-06
 7.57575e-06 -0.00181678 1.66427e-05
 3.66728e-05 -0.00272419 1.65252e-05
 4.66376e-05 0.00418852 -4.02994e-05
 -1.76619e-05 -0.00275932 3.30136e-05
 -1.97474e-05 -0.00337526 6.28023e-06
 8.80406e-06 -0.0113245 2.0522e-05
 1.41231e-05 -0.00284612 -1.98566e-05
 3.80059e-05 -0.00282782 -3.37036e-05
 2.94755e-05 -0.0113886 -7.06683e-06
 -3.65627e-05 -0.00333445 2.95223e-05
 1.42701e-05 -0.00283096 -3.00356e-05
 -8.85878e-06 -0.00178528 2.64698e-05
 4.76298e-05 -0.0114229 3.62359e-08
 -4.71292e-05 -0.00878563 -4.31198e-05
 2.56576e-05 -0.00427746 1.35147e-05
 -2.18725e-05 -0.00431779 -4.21876e-06
 -4.77297e-05 -0.00892455 5.11158e-05
 4.43186e-05 -0.0114715 -1.85829e-05
 -3.58095e-05 -0.00180927 -2.59354e-05
 -2.01137e-05 0.00528672 6.15344e-06
 -2.10718e-05 -0.00281389 1.54088e-05
 1.10784e-05 -0.00427917 -2.79265e-05
 -1.75391e-05 0.00122061 -1.78452e-05
 -2.00375e-05 0.00126825 1.42376e-05
 9.55081e-06 -0.00424595 3.14029e-06
 3.2503e-06 -0.00287333 -1.56537e-05
 -1.29459e-05 0.00534774 2.17745e-05
 5.1946e-06 0.00527059 1.38027e-05
 -4.11837e-05 -0.00282028 -1.9219e-05
 -1.07208e-05 -0.00432995 7.04078e-06
 -1.28022e-05 0.00124704 2.20264e-05
 2.03586e-05 0.00126621 -1.55618e-05
 -1.32865e-05 -0.00424867 2.29517e-05
 6.94236e-06 -0.00286422 -1.76847e-05
 9.0189e-06 0.00534017 -1.45108e-05
 1.99157e-05 -0.00173776 1.38657e-06
 2.30992e-05 -0.011509 2.73813e-05
 3.97768e-05 -0.00861714 -5.66499e-05
 2.63351e-05 -0.00425566 1.05156e-05
 2.15182e-05 -0.00431417 -1.05819e-05
 4.15191e-05 -0.00886196 5.59262e-05
 3.35351e-05 -0.0114889 -2.99855e-05
 7.24823e-06 -0.0018152 7.87506e-07
 2.47666e-05 -0.00265623 2.89403e-05
 1.01102e-05 -0.00335722 -3.25657e-05
 -1.82798e-08 -0.0112344 2.7788e-05
 -1.87533e-05 -0.00282351 1.76708e-05
 -1.59842e-05 -0.00283318 -1.77232e-05
 4.63804e-07 -0.0113827 -2.97386e-05
 -4.9867e-05 -0.00332129 3.45627e-05
 1.37552e-05 -0.00266051 -3.01951e-05
 -4.60919e-05 0.00434939 4.27035e-05
 -3.42992e-05 -0.00265455 -1.68226e-05
 -2.61994e-05 -0.00183843 1.21631e-05
 -1.70299e-05 0.00519809 -1.45798e-05
 -1.00214e-05 0.00526484 6.33365e-06
 -2.6379e-05 -0.00182645 3.07249e-05
 -3.85941e-05 -0.00269798 -1.59473e-05
 -4.24956e-05 0.00430584 -4.58316e-05
 4.63757e-05 0.00564475 4.53015e-05
 4.43737e-05 -0.00142616 1.67356e-05
 1.87692e-05 -0.00439196 4.39943e-05
 1.00989e-05 0.00107169 -3.97214e-05
 8.4177e-06 0.00128663 -1.85762e-05
 1.49607e-05 -0.00438413 1.15656e-07
 3.94213e-05 -0.00134835 -6.39589e-06
 5.25987e-05 0.00562624 -4.24636e-05
 1.45613e-05 -0.00142652 4.64175e-05
 6.29131e-05 -0.00373829 4.04577e-05
 2.63332e-05 0.00206749 -1.42051e-05
 5.43035e-05 -0.000806371 -1.50075e-05
 4.77709e-05 -0.000787382 1.29539e-05
 2.5463e-05 0.00202391 3.52152e-05
 1.75714e-05 -0.00380203 -6.53663e-05
 -1.16756e-05 -0.00135834 -4.1467e-05
 8.75582e-07 -0.00439491 1.85436e-05
 -3.78855e-05 0.00202135 3.88659e-05
 1.88077e-05 0.00153319 2.26142e-05
 7.58936e-06 -0.00116831 -2.08398e-05
 7.22557e-06 -0.0011885 1.65465e-05
 1.90194e-05 0.0016058 -2.58942e-05
 2.21698e-05 0.00187816 -4.61478e-05
 -1.83236e-06 -0.00435811 -4.71604e-06
 4.92919e-05 0.00160915 7.96483e-06
 -3.3647e-05 -0.000730654 5.01898e-05
 6.99983e-07 -0.00116209 8.29807e-06
 -2.36155e-05 0.000237055 -2.20324e-05
 -2.36405e-05 0.000221244 2.00504e-05
 -2.58569e-06 -0.00116352 -9.89686e-06
 -4.1997e-05 -0.000828586 -4.71481e-05
 3.44666e-05 0.00181985 -8.44176e-06
 -5.29573e-05 0.0017085 9.87465e-06
 3.5538e-05 -0.000770576 4.15092e-05
 -1.25043e-06 -0.00119323 2.16939e-05
 2.02205e-05 0.000224342 2.3531e-05
 2.10702e-05 0.000222028 -2.28001e-05
 6.62581e-06 -0.00116575 -4.22714e-05
 3.95702e-05 -0.000804272 -1.9883e-05
 1.02091e-05 0.00180871 -1.22093e-05
 2.88503e-06 -0.00435799 1.53062e-05
 3.71606e-05 0.00193435 2.06932e-05
 -2.37007e-05 0.00148249 -3.0357e-05
 -7.83085e-06 -0.0012307 1.17096e-05
 -1.0027e-05 -0.00118601 3.14879e-05
 -1.82267e-05 0.00156587 -2.37507e-05
 1.55508e-05 0.00188506 -1.42676e-05
 -2.81225e-05 -0.00436422 -1.13434e-05
 -1.46056e-05 -0.00150202 4.7721e-05
 -6.42264e-05 -0.00375563 5.55477e-05
 -2.49875e-05 0.00202808 -1.81547e-05
 -4.90647e-05 -0.000831868 -4.13466e-05
 -4.50678e-05 -0.000820678 3.95274e-05
 -2.65201e-05 0.00201525 -1.3557e-05
 -4.9084e-05 -0.00380858 -3.1518e-05
 -1.43057e-05 -0.00149004 -3.90707e-05
 -4.67908e-05 0.00567163 4.97563e-05
 -4.45638e-05 -0.00150502 1.99853e-05
 -1.37548e-05 -0.00437801 -2.01443e-05
 -1.07322e-05 0.00142424 5.95239e-05
 -4.45527e-06 0.001534 -5.26921e-05
 -1.74509e-05 -0.00438261 1.36507e-05
 -4.32693e-05 -0.00136506 -2.99536e-05
 -4.14384e-05 0.0056683 -4.0981e-05
 2.22918e-05 -0.00140969 2.69504e-05
 3.32894e-05 0.00165709 4.81043e-05
 3.75989e-05 4.89097e-05 -1.25007e-05
 1.59587e-05 -0.00036754 1.87162e-05
 7.66677e-06 -0.000376558 2.62259e-05
 3.96944e-05 -2.16161e-05 -4.84133e-05
 4.46291e-05 0.00117825 -1.32522e-05
 1.23736e-05 -0.001414 -4.66875e-05
 2.05584e-05 0.00165584 4.41331e-05
 6.31509e-05 0.00290015 6.63264e-05
 3.40875e-05 -0.00279874 8.29129e-06
 4.26816e-05 0.00130601 -1.21629e-05
 9.73571e-06 0.00130186 -4.47005e-05
 2.59885e-05 -0.00287764 -2.1535e-05
 5.65018e-05 0.00290907 2.03343e-05
 2.72296e-05 0.00174764 -6.153e-05
 3.0254e-05 -5.69696e-05 2.14437e-05
 -5.97757e-06 -0.00291078 4.05866e-05
 -6.79649e-06 -0.000395974 1.75835e-06
 -3.31653e-05 -0.000352708 1.4104e-05
 2.01006e-05 -0.000331944 -1.17671e-05
 9.54104e-06 -0.000400198 -2.00831e-06
 -2.57886e-05 -0.00291106 -2.75587e-05
 3.31174e-05 -6.13151e-05 -3.74909e-05
 -1.79821e-05 -0.000346951 2.78274e-06
 1.4988e-05 0.00130681 -2.78649e-05
 -4.56907e-07 -0.000339398 1.97624e-05
 7.83204e-06 -0.00262786 1.79459e-05
 -7.97908e-06 -0.00260362 2.70711e-05
 1.10577e-05 -0.000368122 1.67044e-05
 1.31413e-05 0.00132925 -3.39585e-05
 1.05546e-05 -0.000352436 -2.3349e-05
 5.90426e-06 -0.000342497 2.19121e-05
 -1.53869e-05 0.00131419 4.09387e-05
 -2.26573e-07 -0.000409671 -8.35066e-06
 1.8901e-05 -0.00260236 -2.79807e-05
 6.36892e-06 -0.00260653 -1.22532e-05
 -1.00308e-05 -0.000369368 -3.34838e-05
 -4.39854e-06 0.00132659 2.22237e-05
 1.71891e-06 -0.000355794 -3.41741e-06
 -2.25228e-05 -6.96037e-05 3.61883e-05
 1.18683e-05 -0.00287776 5.43855e-07
 -1.76087e-05 -0.000377987 1.7208e-05
 -1.95285e-05 -3.61379e-05 2.35713e-05
 8.2185e-07 -0.000350805 3.27531e-06
 -1.28525e-05 -0.000398848 -2.74252e-05
 1.58648e-05 -0.00291346 -1.68332e-05
 -5.01577e-05 -5.85963e-05 -3.69444e-05
 -3.24968e-05 0.00167638 4.76034e-05
 -5.99174e-05 0.00288952 2.81251e-05
 -1.55523e-05 -0.00279726 4.07887e-05
 -2.29902e-05 0.00127339 -1.56108e-05
 -3.38203e-05 0.00129819 -1.64278e-05
 -2.87853e-05 -0.00289401 7.62292e-06
 -5.53417e-05 0.00290739 -4.59399e-05
 -1.06562e-05 0.00175472 -4.68698e-05
 -6.3049e-06 -0.0014168 2.49435e-05
 -4.22901e-05 0.00168064 1.77113e-05
 -3.01863e-05 -3.44915e-05 4.42123e-05
 -8.79264e-06 -0.000347602 1.38653e-05
 -1.71776e-06 -0.000353816 -3.15246e-06
 -3.34428e-05 -5.14111e-05 -4.57816e-05
 -4.46689e-05 0.0011208 -1.66656e-07
 -2.42484e-05 -0.0014452 -5.23387e-05
 -1.93256e-05 -0.00561396 -2.18956e-05
 -6.26817e-05 -0.00463753 -5.61946e-05
 -4.0851e-05 -0.00420266 1.274e-05
 -8.71169e-05 0.00021385 -6.88916e-05
 -7.74932e-05 0.000195003 2.51875e-05
 -5.01315e-05 -0.00413993 7.76421e-05
 6.98507e-06 -0.00425911 -1.96506e-05
 -7.11252e-05 -0.0054233 5.1325e-05
 -5.57757e-05 -0.00463778 -0.000110799
 -6.75437e-05 -0.00280613 -8.38041e-06
 -5.66554e-06 -0.003609 -5.76445e-05
 -6.28487e-05 -0.00575865 6.75733e-06
 -1.71765e-05 -0.00572729 4.51202e-06
 1.33292e-05 -0.00358295 4.3585e-05
 -0.000118862 -0.00278729 0.000123369
 2.13308e-05 -0.00473864 -1.15515e-06
 2.59383e-05 -0.00410999 -4.72049e-05
 -6.06759e-05 -0.00358648 2.02743e-06
 2.5136e-05 -0.00402632 2.1529e-05
 7.59329e-06 0.000573784 -5.9085e-05
 -5.87528e-05 0.000556348 6.37982e-05
 -3.09801e-06 -0.00405735 -2.82784e-05
 -7.28887e-05 -0.00367683 -6.16416e-07
 6.08939e-06 -0.00409974 4.8707e-05
 -8.0444e-05 0.000186459 -8.03527e-05
 1.79e-05 -0.00573038 3.98186e-06
 -6.85764e-05 0.000560768 -3.49738e-05
 5.29699e-05 -0.00461901 2.9735e-05
 4.90855e-05 -0.00459254 -2.34092e-05
 -2.57936e-05 0.000561132 -3.19464e-05
 -2.24003e-05 -0.00576263 5.40639e-05
 -8.02961e-05 -1.25761e-05 8.38306e-05
 4.20166e-05 0.000127766 -7.54368e-05
 2.54338e-05 -0.00574556 -2.21677e-05
 5.55202e-05 0.000667625 -4.62704e-05
 -9.68943e-06 -0.00461448 4.94866e-05
 1.60308e-07 -0.00459185 -2.01287e-05
 -1.11153e-05 0.000559445 1.0557e-05
 1.12503e-05 -0.00574398 1.94847e-05
 6.69405e-05 -1.03785e-05 8.5565e-05
 3.0176e-05 -0.00409698 -3.90398e-05
 2.18244e-05 -0.00361859 -1.30796e-05
 -3.76505e-06 -0.003833 -1.22224e-05
 -1.88222e-05 0.000225215 -1.00921e-06
 -1.43351e-05 0.000567138 -2.20558e-05
 4.88455e-05 -0.00404435 4.75015e-05
 4.62595e-05 -0.00366383 -8.66488e-06
 -1.36726e-05 -0.00411139 4.97381e-05
 -9.90314e-06 -0.00468731 -7.13131e-06
 0.000128694 -0.00281092 -0.000109771
 -1.02511e-05 -0.00363665 -5.7944e-05
 4.33546e-05 -0.00581235 -1.51044e-05
 3.27013e-05 -0.00578449 2.71428e-05
 -4.15103e-06 -0.00363051 3.98608e-05
 8.99861e-05 -0.0027868 0.000113994
 -1.27427e-05 -0.00474346 9.22292e-06
 6.65458e-05 -0.00567529 -1.72387e-05
 -3.72691e-06 -0.00467986 -5.75378e-05
 4.96622e-05 -0.00413305 1.86612e-05
 7.57896e-05 0.000190423 -6.72507e-05
 8.69571e-05 0.000188789 2.29474e-05
 3.32906e-05 -0.00411783 5.2755e-05
 5.80181e-05 -0.00421612 -1.4907e-05
 8.18302e-05 -0.00551133 6.28507e-05
 1.56847e-06 -0.00626846 1.02159e-05
 -0.00013082 -0.00279471 -4.09276e-05
 -0.000122765 -0.00341417 1.22718e-05
 -0.000125111 0.00136469 1.25291e-05
 -0.000126202 0.00136461 5.53901e-05
 -0.000122828 -0.003418 -3.23941e-05
 -0.000155415 -0.00256793 -2.34722e-05
 -2.63867e-06 -0.00651062 6.46305e-06
 -2.29986e-05 -0.00279306 -0.000113232
 4.01815e-06 -0.00332938 2.54103e-05
 -5.19492e-06 -0.000589921 -2.50074e-05
 7.95664e-06 -0.00253369 -1.91765e-05
 8.24886e-06 -0.0025652 -3.19725e-05
 -5.20082e-06 -0.000498715 -5.9511e-06
 3.1086e-05 -0.00331846 6.9537e-05
 -2.13313e-05 -0.00278689 0.000100524
 -1.27271e-05 -0.00341327 -0.000132548
 3.19213e-05 -0.000655435 -6.91481e-06
 4.67944e-06 -0.00179633 -1.0243e-05
 -8.05791e-06 -0.00388926 2.13187e-06
 -1.35471e-05 -0.00386838 1.02045e-05
 -4.48588e-06 -0.00174609 1.26683e-05
 -4.57508e-06 -0.000687477 1.61734e-06
 2.71257e-05 -0.00343484 0.000123876
 -4.12454e-05 0.00136756 -0.000119383
 -1.13862e-05 -0.00259773 8.57671e-06
 6.85439e-06 -0.0038849 1.66626e-06
 1.79479e-05 -0.00896171 -1.06755e-05
 -3.3087e-06 -0.00889637 -1.53353e-05
 5.67874e-07 -0.00389247 4.7244e-06
 -1.12443e-05 -0.00242789 1.49529e-05
 4.96288e-05 0.00155309 0.00011632
 3.08247e-05 0.00143894 -0.000113585
 -7.33997e-05 -0.00255764 1.13082e-05
 -1.35118e-05 -0.00382838 -3.74201e-06
 -1.37978e-05 -0.00895315 1.25024e-05
 -1.18444e-06 -0.00889435 -2.59964e-05
 9.0401e-06 -0.00389285 -7.4829e-06
 2.69876e-05 -0.0024612 -6.44619e-06
 -2.12787e-05 0.00154634 0.000134382
 8.19894e-06 -0.00341441 -0.000134036
 4.17372e-05 -0.00066261 -3.39436e-06
 7.06423e-06 -0.00202827 -4.81117e-06
 1.61302e-06 -0.0040062 1.09916e-05
 1.30772e-05 -0.00386591 -3.2314e-06
 -5.04953e-08 -0.00176009 1.73159e-05
 -4.15782e-05 -0.000636006 4.04699e-06
 -4.50137e-05 -0.00342965 0.000114116
 2.23648e-05 -0.0027653 -0.0001297
 5.24806e-05 -0.00327631 3.89613e-05
 1.23017e-07 -0.000509227 -2.38929e-05
 -4.63994e-06 -0.00242318 -6.23076e-06
 5.72221e-06 -0.00248433 -2.94956e-05
 8.41815e-06 -0.00046904 6.79103e-06
 7.36575e-05 -0.00332957 4.22893e-05
 1.46205e-05 -0.00278958 0.000101421
 1.33083e-05 -0.00617702 1.38828e-05
 8.47802e-05 -0.00276917 -4.43584e-05
 0.000123798 -0.00342466 1.51706e-05
 0.000125206 0.00141443 -2.58417e-06
 0.000118295 0.00137758 6.3798e-05
 0.000115613 -0.00342301 -3.44578e-05
 7.97136e-05 -0.00255564 -1.82183e-05
 -2.52689e-06 -0.00639593 6.84446e-06
 -0.000130489 -0.00401939 -0.000120129
 -3.93332e-05 -0.00225048 -5.18858e-05
 -6.21802e-05 -0.00498651 2.27485e-05
 -9.90408e-05 -0.000916104 1.87741e-05
 -9.46531e-05 -0.000898382 -7.96234e-06
 -7.55567e-05 -0.00500285 5.52009e-05
 -6.33391e-05 -0.00228956 1.90249e-07
 -9.4044e-05 -0.00397122 8.20348e-05
 -3.66103e-05 -0.0022529 -4.09857e-05
 -2.19113e-05 -0.003101 -3.66925e-05
 -1.83969e-05 -0.000212336 3.01483e-05
 -3.26867e-05 -0.00464982 1.71429e-06
 -5.14699e-05 -0.00462276 1.22852e-05
 1.48857e-05 -0.000542267 -2.18767e-05
 -3.91425e-05 -0.00314135 1.32489e-05
 1.40561e-05 -0.00223337 4.11197e-05
 5.16582e-06 -0.00498424 -6.44782e-05
 2.48867e-05 -0.000453253 -2.72191e-05
 -4.24446e-05 -0.0087112 -5.10222e-05
 1.50923e-06 -0.00304825 1.9424e-05
 6.30412e-06 -0.00317969 1.6782e-05
 -3.91462e-05 -0.00871073 4.16626e-05
 6.01199e-05 -0.0010347 -1.17168e-05