<?xml version="1.0"?>
<VTKFile type="UnstructuredGrid" version="0.1" byte_order="LittleEndian" compressor="vtkZLibDataCompressor">
<UnstructuredGrid>
<Piece NumberOfPoints="960" NumberOfCells="120">
<Points>
<DataArray type="Float32" NumberOfComponents="3" format="ascii">
-4.000000e+02 -6.000000e+03 -4.000000e+02
0.000000e+00 -6.000000e+03 -4.000000e+02
-4.000000e+02 -5.600000e+03 -4.000000e+02
1.710930e-11 -5.600000e+03 -4.000000e+02
-4.000000e+02 -6.000000e+03 0.000000e+00
0.000000e+00 -6.000000e+03 0.000000e+00
-4.000000e+02 -5.600000e+03 -2.118510e-11
2.211070e-10 -5.600000e+03 -1.004310e-10
0.000000e+00 -6.000000e+03 -4.000000e+02
4.000000e+02 -6.000000e+03 -4.000000e+02
1.710930e-11 -5.600000e+03 -4.000000e+02
4.000000e+02 -5.600000e+03 -4.000000e+02
0.000000e+00 -6.000000e+03 0.000000e+00
4.000000e+02 -6.000000e+03 0.000000e+00
2.211070e-10 -5.600000e+03 -1.004310e-10
4.000000e+02 -5.600000e+03 -1.166750e-10
-4.000000e+02 -5.600000e+03 -4.000000e+02
1.710930e-11 -5.600000e+03 -4.000000e+02
-4.000000e+02 -5.200000e+03 -4.000000e+02
-1.182620e-10 -5.200000e+03 -4.000000e+02
-4.000000e+02 -5.600000e+03 -2.118510e-11
2.211070e-10 -5.600000e+03 -1.004310e-10
-4.000000e+02 -5.200000e+03 2.273900e-10
1.491210e-10 -5.200000e+03 2.322140e-10
1.710930e-11 -5.600000e+03 -4.000000e+02
4.000000e+02 -5.600000e+03 -4.000000e+02
-1.182620e-10 -5.200000e+03 -4.000000e+02
4.000000e+02 -5.200000e+03 -4.000000e+02
2.211070e-10 -5.600000e+03 -1.004310e-10
4.000000e+02 -5.600000e+03 -1.166750e-10
1.491210e-10 -5.200000e+03 2.322140e-10
4.000000e+02 -5.200000e+03 -3.871070e-12
-4.000000e+02 -5.200000e+03 -4.000000e+02
-1.182620e-10 -5.200000e+03 -4.000000e+02
-4.000000e+02 -4.800000e+03 -4.000000e+02
3.494700e-11 -4.800000e+03 -4.000000e+02
-4.000000e+02 -5.200000e+03 2.273900e-10
1.491210e-10 -5.200000e+03 2.322140e-10
-4.000000e+02 -4.800000e+03 1.010560e-10
-1.638840e-10 -4.800000e+03 3.537290e-10
-1.182620e-10 -5.200000e+03 -4.000000e+02
4.000000e+02 -5.200000e+03 -4.000000e+02
3.494700e-11 -4.800000e+03 -4.000000e+02
4.000000e+02 -4.800000e+03 -4.000000e+02
1.491210e-10 -5.200000e+03 2.322140e-10
4.000000e+02 -5.200000e+03 -3.871070e-12
-1.638840e-10 -4.800000e+03 3.537290e-10
4.000000e+02 -4.800000e+03 -1.584900e-10
-4.000000e+02 -4.800000e+03 -4.000000e+02
3.494700e-11 -4.800000e+03 -4.000000e+02
-4.000000e+02 -4.400000e+03 -4.000000e+02
1.353350e-10 -4.400000e+03 -4.000000e+02
-4.000000e+02 -4.800000e+03 1.010560e-10
-1.638840e-10 -4.800000e+03 3.537290e-10
-4.000000e+02 -4.400000e+03 7.826340e-10
1.361060e-10 -4.400000e+03 3.731250e-10
3.494700e-11 -4.800000e+03 -4.000000e+02
4.000000e+02 -4.800000e+03 -4.000000e+02
1.353350e-10 -4.400000e+03 -4.000000e+02
4.000000e+02 -4.400000e+03 -4.000000e+02
-1.638840e-10 -4.800000e+03 3.537290e-10
4.000000e+02 -4.800000e+03 -1.584900e-10
1.361060e-10 -4.400000e+03 3.731250e-10
4.000000e+02 -4.400000e+03 -7.335380e-11
-4.000000e+02 -4.400000e+03 -4.000000e+02
1.353350e-10 -4.400000e+03 -4.000000e+02
-4.000000e+02 -4.000000e+03 -4.000000e+02
4.230540e-10 -4.000000e+03 -4.000000e+02
-4.000000e+02 -4.400000e+03 7.826340e-10
1.361060e-10 -4.400000e+03 3.731250e-10
-4.000000e+02 -4.000000e+03 3.436290e-10
5.751880e-10 -4.000000e+03 -5.104770e-13
1.353350e-10 -4.400000e+03 -4.000000e+02
4.000000e+02 -4.400000e+03 -4.000000e+02
4.230540e-10 -4.000000e+03 -4.000000e+02
4.000000e+02 -4.000000e+03 -4.000000e+02
1.361060e-10 -4.400000e+03 3.731250e-10
4.000000e+02 -4.400000e+03 -7.335380e-11
5.751880e-10 -4.000000e+03 -5.104770e-13
4.000000e+02 -4.000000e+03 -1.779760e-10
-4.000000e+02 -4.000000e+03 -4.000000e+02
4.230540e-10 -4.000000e+03 -4.000000e+02
-4.000000e+02 -3.600000e+03 -4.000000e+02
1.711540e-10 -3.600000e+03 -4.000000e+02
-4.000000e+02 -4.000000e+03 3.436290e-10
5.751880e-10 -4.000000e+03 -5.104770e-13
-4.000000e+02 -3.600000e+03 7.723750e-11
2.981680e-10 -3.600000e+03 3.157890e-10
4.230540e-10 -4.000000e+03 -4.000000e+02
4.000000e+02 -4.000000e+03 -4.000000e+02
1.711540e-10 -3.600000e+03 -4.000000e+02
4.000000e+02 -3.600000e+03 -4.000000e+02
5.751880e-10 -4.000000e+03 -5.104770e-13
4.000000e+02 -4.000000e+03 -1.779760e-10
2.981680e-10 -3.600000e+03 3.157890e-10
4.000000e+02 -3.600000e+03 3.690490e-10
-4.000000e+02 -3.600000e+03 -4.000000e+02
1.711540e-10 -3.600000e+03 -4.000000e+02
-4.000000e+02 -3.200000e+03 -4.000000e+02
4.589570e-10 -3.200000e+03 -4.000000e+02
-4.000000e+02 -3.600000e+03 7.723750e-11
2.981680e-10 -3.600000e+03 3.157890e-10
-4.000000e+02 -3.200000e+03 -1.720790e-11
4.565430e-10 -3.200000e+03 -1.109460e-10
1.711540e-10 -3.600000e+03 -4.000000e+02
4.000000e+02 -3.600000e+03 -4.000000e+02
4.589570e-10 -3.200000e+03 -4.000000e+02
4.000000e+02 -3.200000e+03 -4.000000e+02
2.981680e-10 -3.600000e+03 3.157890e-10
4.000000e+02 -3.600000e+03 3.690490e-10
4.565430e-10 -3.200000e+03 -1.109460e-10
4.000000e+02 -3.200000e+03 2.114330e-10
-4.000000e+02 -3.200000e+03 -4.000000e+02
4.589570e-10 -3.200000e+03 -4.000000e+02
-4.000000e+02 -2.800000e+03 -4.000000e+02
7.231310e-10 -2.800000e+03 -4.000000e+02
-4.000000e+02 -3.200000e+03 -1.720790e-11
4.565430e-10 -3.200000e+03 -1.109460e-10
-4.000000e+02 -2.800000e+03 -2.714100e-10
4.489220e-10 -2.800000e+03 6.258720e-11
4.589570e-10 -3.200000e+03 -4.000000e+02
4.000000e+02 -3.200000e+03 -4.000000e+02
7.231310e-10 -2.800000e+03 -4.000000e+02
4.000000e+02 -2.800000e+03 -4.000000e+02
4.565430e-10 -3.200000e+03 -1.109460e-10
4.000000e+02 -3.200000e+03 2.114330e-10
4.489220e-10 -2.800000e+03 6.258720e-11
4.000000e+02 -2.800000e+03 1.014810e-10
-4.000000e+02 -2.800000e+03 -4.000000e+02
7.231310e-10 -2.800000e+03 -4.000000e+02
-4.000000e+02 -2.400000e+03 -4.000000e+02
4.767690e-10 -2.400000e+03 -4.000000e+02
-4.000000e+02 -2.800000e+03 -2.714100e-10
4.489220e-10 -2.800000e+03 6.258720e-11
-4.000000e+02 -2.400000e+03 -8.452200e-11
1.535870e-10 -2.400000e+03 -8.219470e-11
7.231310e-10 -2.800000e+03 -4.000000e+02
4.000000e+02 -2.800000e+03 -4.000000e+02
4.767690e-10 -2.400000e+03 -4.000000e+02
4.000000e+02 -2.400000e+03 -4.000000e+02
4.489220e-10 -2.800000e+03 6.258720e-11
4.000000e+02 -2.800000e+03 1.014810e-10
1.535870e-10 -2.400000e+03 -8.219470e-11
4.000000e+02 -2.400000e+03 4.382620e-10
-4.000000e+02 -2.400000e+03 -4.000000e+02
4.767690e-10 -2.400000e+03 -4.000000e+02
-4.000000e+02 -1.999990e+03 -4.000000e+02
1.091200e-10 -1.999990e+03 -4.000000e+02
-4.000000e+02 -2.400000e+03 -8.452200e-11
1.535870e-10 -2.400000e+03 -8.219470e-11
-4.000000e+02 -1.999990e+03 -5.039760e-10
-3.227070e-11 -1.999990e+03 -3.210930e-10
4.767690e-10 -2.400000e+03 -4.000000e+02
4.000000e+02 -2.400000e+03 -4.000000e+02
1.091200e-10 -1.999990e+03 -4.000000e+02
4.000000e+02 -1.999990e+03 -4.000000e+02
1.535870e-10 -2.400000e+03 -8.219470e-11
4.000000e+02 -2.400000e+03 4.382620e-10
-3.227070e-11 -1.999990e+03 -3.210930e-10
4.000000e+02 -1.999990e+03 -4.024760e-10
-4.000000e+02 -1.999990e+03 -4.000000e+02
1.091200e-10 -1.999990e+03 -4.000000e+02
-4.000000e+02 -1.600000e+03 -4.000000e+02
1.360500e-10 -1.600000e+03 -4.000000e+02
-4.000000e+02 -1.999990e+03 -5.039760e-10
-3.227070e-11 -1.999990e+03 -3.210930e-10
-4.000000e+02 -1.600000e+03 -3.793700e-10
6.510000e-11 -1.600000e+03 -2.218460e-10
1.091200e-10 -1.999990e+03 -4.000000e+02
4.000000e+02 -1.999990e+03 -4.000000e+02
1.360500e-10 -1.600000e+03 -4.000000e+02
4.000000e+02 -1.600000e+03 -4.000000e+02
-3.227070e-11 -1.999990e+03 -3.210930e-10
4.000000e+02 -1.999990e+03 -4.024760e-10
6.510000e-11 -1.600000e+03 -2.218460e-10
4.000000e+02 -1.600000e+03 -4.335360e-10
-4.000000e+02 -1.600000e+03 -4.000000e+02
1.360500e-10 -1.600000e+03 -4.000000e+02
-4.000000e+02 -1.200060e+03 -4.000000e+02
3.366840e-11 -1.200060e+03 -4.000000e+02
-4.000000e+02 -1.600000e+03 -3.793700e-10
6.510000e-11 -1.600000e+03 -2.218460e-10
-4.000000e+02 -1.200060e+03 -1.677590e-12
1.626000e-10 -1.200060e+03 2.270960e-10
1.360500e-10 -1.600000e+03 -4.000000e+02
4.000000e+02 -1.600000e+03 -4.000000e+02
3.366840e-11 -1.200060e+03 -4.000000e+02
4.000000e+02 -1.200060e+03 -4.000000e+02
6.510000e-11 -1.600000e+03 -2.218460e-10
4.000000e+02 -1.600000e+03 -4.335360e-10
1.626000e-10 -1.200060e+03 2.270960e-10
4.000000e+02 -1.200060e+03 -4.610720e-11
-4.000000e+02 -1.200060e+03 -4.000000e+02
3.366840e-11 -1.200060e+03 -4.000000e+02
-4.000000e+02 -8.001330e+02 -4.000000e+02
-6.781600e-11 -8.001330e+02 -4.000000e+02
-4.000000e+02 -1.200060e+03 -1.677590e-12
1.626000e-10 -1.200060e+03 2.270960e-10
-4.000000e+02 -8.001330e+02 2.014530e-10
1.949950e-10 -8.001330e+02 2.381200e-10
3.366840e-11 -1.200060e+03 -4.000000e+02
4.000000e+02 -1.200060e+03 -4.000000e+02
-6.781600e-11 -8.001330e+02 -4.000000e+02
4.000000e+02 -8.001330e+02 -4.000000e+02
1.626000e-10 -1.200060e+03 2.270960e-10
4.000000e+02 -1.200060e+03 -4.610720e-11
1.949950e-10 -8.001330e+02 2.381200e-10
4.000000e+02 -8.001330e+02 1.860350e-10
-4.000000e+02 -8.001330e+02 -4.000000e+02
-6.781600e-11 -8.001330e+02 -4.000000e+02
-4.000000e+02 -4.002000e+02 -4.000000e+02
1.764000e-10 -4.002000e+02 -4.000000e+02
-4.000000e+02 -8.001330e+02 2.014530e-10
1.949950e-10 -8.001330e+02 2.381200e-10
-4.000000e+02 -4.002000e+02 -4.435870e-11
-8.574520e-11 -4.002000e+02 2.299420e-10
-6.781600e-11 -8.001330e+02 -4.000000e+02
4.000000e+02 -8.001330e+02 -4.000000e+02
1.764000e-10 -4.002000e+02 -4.000000e+02
4.000000e+02 -4.002000e+02 -4.000000e+02
1.949950e-10 -8.001330e+02 2.381200e-10
4.000000e+02 -8.001330e+02 1.860350e-10
-8.574520e-11 -4.002000e+02 2.299420e-10
4.000000e+02 -4.002000e+02 3.204160e-10
-4.000000e+02 -4.002000e+02 -4.000000e+02
1.764000e-10 -4.002000e+02 -4.000000e+02
-4.000000e+02 -2.482360e-01 -4.000000e+02
-2.851280e-10 -2.482350e-01 -4.000000e+02
-4.000000e+02 -4.002000e+02 -4.435870e-11
-8.574520e-11 -4.002000e+02 2.299420e-10
-4.000000e+02 -2.482350e-01 1.570730e-10
-3.700900e-10 -2.482340e-01 2.084740e-10
1.764000e-10 -4.002000e+02 -4.000000e+02
4.000000e+02 -4.002000e+02 -4.000000e+02
-2.851280e-10 -2.482350e-01 -4.000000e+02
4.000000e+02 -2.482360e-01 -4.000000e+02
[...]
<PointData>
<DataArray type="Float32" Name="V1" format="ascii">
0.000000e+00
0.000000e+00
0.000000e+00
-3.814440e-10
0.000000e+00
0.000000e+00
3.770700e-10
-1.151900e-10
0.000000e+00
0.000000e+00
-3.814440e-10
0.000000e+00
0.000000e+00
0.000000e+00
-1.151900e-10
0.000000e+00
0.000000e+00
-3.814440e-10
0.000000e+00
1.530440e-10
3.770700e-10
-1.151900e-10
-1.869640e-09
-4.572750e-10
-3.814440e-10
0.000000e+00
1.530440e-10
0.000000e+00
-1.151900e-10
0.000000e+00
-4.572750e-10
0.000000e+00
0.000000e+00
1.530440e-10
0.000000e+00
-3.345960e-10
-1.869640e-09
-4.572750e-10
1.445440e-09
1.559540e-11
1.530440e-10
0.000000e+00
-3.345960e-10
-4.713380e-10
-4.572750e-10
0.000000e+00
1.559540e-11
-6.755840e-10
0.000000e+00
-3.345960e-10
-1.853930e-09
-2.679640e-11
1.445440e-09
1.559540e-11
0.000000e+00
2.237420e-10
-3.345960e-10
-4.713380e-10
-2.679640e-11
0.000000e+00
1.559540e-11
-6.755840e-10
2.237420e-10
1.995330e-09
-1.853930e-09
-2.679640e-11
1.775370e-09
-4.533690e-10
0.000000e+00
2.237420e-10
4.713380e-10
1.651570e-10
-2.679640e-11
0.000000e+00
-4.533690e-10
-1.414010e-09
2.237420e-10
1.995330e-09
1.651570e-10
-1.382590e-09
1.775370e-09
-4.533690e-10
1.728240e-09
2.875180e-10
4.713380e-10
1.651570e-10
-8.326970e-10
-3.149600e-10
-4.533690e-10
-1.414010e-09
2.875180e-10
-2.985140e-10
1.651570e-10
-1.382590e-09
-3.149600e-10
6.284500e-10
1.728240e-09
2.875180e-10
1.458000e-08
-7.330700e-11
-8.326970e-10
-3.149600e-10
1.633970e-08
-1.850500e-10
2.875180e-10
-2.985140e-10
-7.330700e-11
-1.445440e-08
-3.149600e-10
6.284500e-10
-1.850500e-10
-1.704670e-08
1.458000e-08
-7.330700e-11
-6.592440e-08
4.350860e-10
1.633970e-08
-1.850500e-10
-6.562590e-08
-2.656440e-10
-7.330700e-11
-1.445440e-08
4.350860e-10
6.636430e-08
-1.850500e-10
-1.704670e-08
-2.656440e-10
6.513890e-08
-6.592440e-08
4.350860e-10
1.110470e-07
2.826360e-10
-6.562590e-08
-2.656440e-10
1.070880e-07
5.354330e-10
4.350860e-10
6.636430e-08
2.826360e-10
-1.106070e-07
-2.656440e-10
6.513890e-08
5.354330e-10
-1.060670e-07
1.110470e-07
2.826360e-10
3.106120e-08
2.816700e-10
1.070880e-07
5.354330e-10
4.223190e-08
-3.063270e-10
2.826360e-10
-1.106070e-07
2.816700e-10
-3.071550e-08
5.354330e-10
-1.060670e-07
-3.063270e-10
-4.198050e-08
3.106120e-08
2.816700e-10
-6.064070e-07
1.718980e-10
4.223190e-08
-3.063270e-10
-6.253390e-07
-4.046990e-10
2.816700e-10
-3.071550e-08
1.718980e-10
6.070510e-07
-3.063270e-10
-4.198050e-08
-4.046990e-10
6.249780e-07
-6.064070e-07
1.718980e-10
1.367840e-06
-1.658540e-11
-6.253390e-07
-4.046990e-10
1.379840e-06
-9.869760e-12
1.718980e-10
6.070510e-07
-1.658540e-11
-1.367900e-06
-4.046990e-10
6.249780e-07
-9.869760e-12
-1.379650e-06
1.367840e-06
-1.658540e-11
-1.015370e-06
2.603800e-10
1.379840e-06
-9.869760e-12
-9.914120e-07
-3.198500e-11
-1.658540e-11
-1.367900e-06
2.603800e-10
1.015530e-06
-9.869760e-12
-1.379650e-06
-3.198500e-11
9.911600e-07
-1.015370e-06
2.603800e-10
-1.560940e-06
2.036070e-10
-9.914120e-07
-3.198500e-11
-1.646900e-06
2.470400e-10
2.603800e-10
1.015530e-06
2.036070e-10
1.561560e-06
-3.198500e-11
9.911600e-07
2.470400e-10
1.647230e-06
-1.560940e-06
2.036070e-10
4.299640e-06
-8.554880e-11
-1.646900e-06
2.470400e-10
4.417360e-06
-4.633910e-12
2.036070e-10
1.561560e-06
-8.554880e-11
-4.299070e-06
2.470400e-10
1.647230e-06
-4.633910e-12
-4.417940e-06
4.299640e-06
-8.554880e-11
-1.220030e-06
4.043070e-11
4.417360e-06
-4.633910e-12
-1.316670e-06
1.761170e-10
-8.554880e-11
-4.299070e-06
4.043070e-11
1.219570e-06
-4.633910e-12
-4.417940e-06
1.761170e-10
1.316820e-06
-1.220030e-06
4.043070e-11
-3.222820e-06
1.433240e-10
-1.316670e-06
1.761170e-10
-3.157210e-06
-7.529450e-11
4.043070e-11
1.219570e-06
1.433240e-10
3.223100e-06
1.761170e-10
1.316820e-06
-7.529450e-11
3.157050e-06
-3.222820e-06
1.433240e-10
8.147070e-07
-7.091490e-12
-3.157210e-06
-7.529450e-11
1.069260e-06
7.451910e-11
1.433240e-10
3.223100e-06
-7.091490e-12
-8.144870e-07
-7.529450e-11
3.157050e-06
7.451910e-11
-1.069120e-06
8.147070e-07
-7.091490e-12
3.823040e-06
2.049970e-10
1.069260e-06
7.451910e-11
3.680240e-06
2.712450e-10
-7.091490e-12
-8.144870e-07
2.049970e-10
-3.823600e-06
7.451910e-11
-1.069120e-06
2.712450e-10
-3.680160e-06
3.823040e-06
2.049970e-10
5.534870e-06
-9.183670e-10
3.680240e-06
2.712450e-10
5.642160e-06
1.390530e-10
2.049970e-10
-3.823600e-06
-9.183670e-10
-5.533080e-06
2.712450e-10
-3.680160e-06
1.390530e-10
-5.642400e-06
5.534870e-06
-9.183670e-10
3.292830e-06
2.307770e-12
5.642160e-06
1.390530e-10
3.220230e-06
3.530310e-11
-9.183670e-10
-5.533080e-06
2.307770e-12
-3.292870e-06
1.390530e-10
-5.642400e-06
3.530310e-11
-3.220240e-06
3.292830e-06
2.307770e-12
-1.403450e-06
3.653020e-11
3.220230e-06
3.530310e-11
-1.501710e-06
8.091890e-11
2.307770e-12
-3.292870e-06
3.653020e-11
1.403600e-06
3.530310e-11
-3.220240e-06
8.091890e-11
1.502060e-06
-1.403450e-06
3.653020e-11
-3.545370e-06
3.794490e-11
-1.501710e-06
8.091890e-11
-4.031290e-06
8.527070e-11
3.653020e-11
1.403600e-06
3.794490e-11
3.545390e-06
8.091890e-11
1.502060e-06
8.527070e-11
4.031410e-06
-3.545370e-06
3.794490e-11
1.261060e-06
4.276130e-11
-4.031290e-06
8.527070e-11
1.901450e-06
5.677940e-11
3.794490e-11
3.545390e-06
4.276130e-11
-1.261300e-06
8.527070e-11
4.031410e-06
5.677940e-11
-1.901690e-06
1.261060e-06
4.276130e-11
2.307790e-06
3.545930e-11
1.901450e-06
5.677940e-11
2.678080e-06
-1.187350e-11
4.276130e-11
-1.261300e-06
3.545930e-11
-2.307920e-06
5.677940e-11
-1.901690e-06
-1.187350e-11
-2.678140e-06
2.307790e-06
3.545930e-11
-7.282910e-06
-4.436260e-11
2.678080e-06
-1.187350e-11
-7.579740e-06
-3.294270e-11
3.545930e-11
-2.307920e-06
-4.436260e-11
7.282800e-06
-1.187350e-11
-2.678140e-06
-3.294270e-11
7.579580e-06
-7.282910e-06
-4.436260e-11
-5.632480e-07
-1.236580e-11
-7.579740e-06
-3.294270e-11
-8.556820e-07
-3.179280e-11
-4.436260e-11
7.282800e-06
-1.236580e-11
5.632330e-07
-3.294270e-11
7.579580e-06
-3.179280e-11
8.555720e-07
-5.632480e-07
-1.236580e-11
1.894540e-06
2.763600e-11
-8.556820e-07
-3.179280e-11
1.898630e-06
6.472820e-12
-1.236580e-11
5.632330e-07
2.763600e-11
-1.894420e-06
-3.179280e-11
8.555720e-07
6.472820e-12
-1.898580e-06
1.894540e-06
2.763600e-11
-1.656640e-06
1.452560e-11
1.898630e-06
6.472820e-12
-1.561200e-06
-9.978530e-14
2.763600e-11
-1.894420e-06
1.452560e-11
1.656720e-06
6.472820e-12
-1.898580e-06
-9.978530e-14
1.561200e-06
-1.656640e-06
1.452560e-11
2.815550e-06
-4.154970e-12
-1.561200e-06
-9.978530e-14
2.701900e-06
-6.684060e-13
1.452560e-11
1.656720e-06
-4.154970e-12
-2.815380e-06
-9.978530e-14
1.561200e-06
-6.684060e-13
-2.701790e-06
0.000000e+00
0.000000e+00
3.770700e-10
-1.151900e-10
0.000000e+00
0.000000e+00
0.000000e+00
8.218780e-10
0.000000e+00
0.000000e+00
-1.151900e-10
0.000000e+00
0.000000e+00
0.000000e+00
8.218780e-10
6.127390e-10
3.770700e-10
-1.151900e-10
-1.869640e-09
-4.572750e-10
0.000000e+00
8.218780e-10
5.498940e-10
-5.216130e-10
-1.151900e-10
0.000000e+00
-4.572750e-10
0.000000e+00
8.218780e-10
6.127390e-10
-5.216130e-10
0.000000e+00
-1.869640e-09
-4.572750e-10
1.445440e-09
1.559540e-11
5.498940e-10
-5.216130e-10
5.184710e-10
-5.413310e-10
-4.572750e-10
0.000000e+00
1.559540e-11
-6.755840e-10
-5.216130e-10
0.000000e+00
-5.413310e-10
0.000000e+00
1.445440e-09
1.559540e-11
0.000000e+00
2.237420e-10
5.184710e-10
-5.413310e-10
-1.461150e-09
6.555170e-11
1.559540e-11
-6.755840e-10
2.237420e-10
1.995330e-09
-5.413310e-10
0.000000e+00
6.555170e-11
3.456480e-10
0.000000e+00
2.237420e-10
4.713380e-10
1.651570e-10
-1.461150e-09
6.555170e-11
1.681100e-09
7.854560e-10
2.237420e-10
1.995330e-09
1.651570e-10
-1.382590e-09
6.555170e-11
3.456480e-10
7.854560e-10
0.000000e+00
4.713380e-10
1.651570e-10
-8.326970e-10
-3.149600e-10
1.681100e-09
7.854560e-10
2.136730e-09
1.970850e-10
1.651570e-10
-1.382590e-09
-3.149600e-10
6.284500e-10
7.854560e-10
0.000000e+00
1.970850e-10
-8.326970e-10
-8.326970e-10
-3.149600e-10
1.633970e-08
-1.850500e-10
2.136730e-09
1.970850e-10
1.432870e-08
-1.954560e-10
-3.149600e-10
6.284500e-10
-1.850500e-10
-1.704670e-08
1.970850e-10
-8.326970e-10
-1.954560e-10
-1.432870e-08
1.633970e-08
-1.850500e-10
-6.562590e-08
-2.656440e-10
1.432870e-08
-1.954560e-10
-6.661570e-08
-5.672960e-10
-1.850500e-10
-1.704670e-08
-2.656440e-10
6.513890e-08
-1.954560e-10
-1.432870e-08
-5.672960e-10
6.528030e-08
-6.562590e-08
-2.656440e-10
1.070880e-07
5.354330e-10
-6.661570e-08
-5.672960e-10
1.106540e-07
-4.605300e-10
-2.656440e-10
6.513890e-08
5.354330e-10
-1.060670e-07
-5.672960e-10
6.528030e-08
-4.605300e-10
-1.110940e-07
1.070880e-07
5.354330e-10
4.223190e-08
-3.063270e-10
1.106540e-07
-4.605300e-10
3.022850e-08
3.037380e-10
5.354330e-10
-1.060670e-07
-3.063270e-10
-4.198050e-08
-4.605300e-10
-1.110940e-07
3.037380e-10
-2.983570e-08
4.223190e-08
-3.063270e-10
-6.253390e-07
-4.046990e-10
3.022850e-08
3.037380e-10
-6.063290e-07
-6.067110e-11
-3.063270e-10
-4.198050e-08
-4.046990e-10
6.249780e-07
3.037380e-10
-2.983570e-08
-6.067110e-11
6.072240e-07
-6.253390e-07
-4.046990e-10
1.379840e-06
-9.869760e-12
-6.063290e-07
-6.067110e-11
1.367590e-06
2.628860e-10
-4.046990e-10
6.249780e-07
-9.869760e-12
-1.379650e-06
-6.067110e-11
6.072240e-07
2.628860e-10
-1.367980e-06
1.379840e-06
-9.869760e-12
-9.914120e-07
-3.198500e-11
1.367590e-06
2.628860e-10
-1.015510e-06
1.893580e-10
-9.869760e-12
-1.379650e-06
-3.198500e-11
9.911600e-07
2.628860e-10
-1.367980e-06
1.893580e-10
1.015120e-06
-9.914120e-07
-3.198500e-11
-1.646900e-06
2.470400e-10
-1.015510e-06
1.893580e-10
-1.560940e-06
-3.043020e-10
-3.198500e-11
9.911600e-07
2.470400e-10
1.647230e-06
1.893580e-10
1.015120e-06
-3.043020e-10
1.561290e-06
-1.646900e-06
2.470400e-10
4.417360e-06
-4.633910e-12
-1.560940e-06
-3.043020e-10
4.299400e-06
-6.221980e-11
2.470400e-10
1.647230e-06
-4.633910e-12
-4.417940e-06
-3.043020e-10
1.561290e-06
-6.221980e-11
-4.298960e-06
4.417360e-06
-4.633910e-12
-1.316670e-06
1.761170e-10
4.299400e-06
-6.221980e-11
-1.220040e-06
-4.998850e-11
-4.633910e-12
-4.417940e-06
1.761170e-10
1.316820e-06
-6.221980e-11
-4.298960e-06
-4.998850e-11
1.219600e-06
-1.316670e-06
1.761170e-10
-3.157210e-06
-7.529450e-11
-1.220040e-06
-4.998850e-11
-3.223350e-06
5.887150e-11
1.761170e-10
1.316820e-06
-7.529450e-11
3.157050e-06
-4.998850e-11
1.219600e-06
5.887150e-11
3.223200e-06
-3.157210e-06
-7.529450e-11
1.069260e-06
7.451910e-11
-3.223350e-06
5.887150e-11
8.149900e-07
-1.871710e-10
-7.529450e-11
3.157050e-06
7.451910e-11
-1.069120e-06
5.887150e-11
3.223200e-06
-1.871710e-10
-8.147230e-07
1.069260e-06
7.451910e-11
3.680240e-06
2.712450e-10
8.149900e-07
-1.871710e-10
3.823160e-06
3.707240e-10
7.451910e-11
-1.069120e-06
2.712450e-10
-3.680160e-06
-1.871710e-10
-8.147230e-07
3.707240e-10
-3.823270e-06
3.680240e-06
2.712450e-10
5.642160e-06
1.390530e-10
3.823160e-06
3.707240e-10
5.535300e-06
-6.205780e-10
2.712450e-10
-3.680160e-06
1.390530e-10
-5.642400e-06
3.707240e-10
-3.823270e-06
-6.205780e-10
-5.533240e-06
5.642160e-06
1.390530e-10
3.220230e-06
3.530310e-11
5.535300e-06
-6.205780e-10
3.291850e-06
4.039770e-10
1.390530e-10
-5.642400e-06
3.530310e-11
-3.220240e-06
-6.205780e-10
-5.533240e-06
4.039770e-10
-3.292450e-06
3.220230e-06
3.530310e-11
-1.501710e-06
8.091890e-11
3.291850e-06
4.039770e-10
-1.402940e-06
1.921980e-10
3.530310e-11
-3.220240e-06
8.091890e-11
1.502060e-06
4.039770e-10
-3.292450e-06
1.921980e-10
1.403140e-06
-1.501710e-06
8.091890e-11
-4.031290e-06
8.527070e-11
-1.402940e-06
1.921980e-10
-3.545210e-06
1.236260e-10
8.091890e-11
1.502060e-06
8.527070e-11
4.031410e-06
1.921980e-10
1.403140e-06
1.236260e-10
3.545370e-06
-4.031290e-06
8.527070e-11
1.901450e-06
5.677940e-11
-3.545210e-06
1.236260e-10
1.261060e-06
8.395540e-12
8.527070e-11
4.031410e-06
5.677940e-11
-1.901690e-06
1.236260e-10
3.545370e-06
8.395540e-12
-1.261170e-06
1.901450e-06
5.677940e-11
2.678080e-06
-1.187350e-11
1.261060e-06
8.395540e-12
2.308140e-06
1.802030e-11
5.677940e-11
-1.901690e-06
-1.187350e-11
-2.678140e-06
8.395540e-12
-1.261170e-06
1.802030e-11
-2.308280e-06
2.678080e-06
-1.187350e-11
-7.579740e-06
-3.294270e-11
2.308140e-06
1.802030e-11
-7.283090e-06
-5.047780e-11
-1.187350e-11
-2.678140e-06
-3.294270e-11
7.579580e-06
1.802030e-11
-2.308280e-06
-5.047780e-11
7.282910e-06
-7.579740e-06
-3.294270e-11
-8.556820e-07
-3.179280e-11
-7.283090e-06
-5.047780e-11
-5.633580e-07
-4.426730e-11
-3.294270e-11
7.579580e-06
-3.179280e-11
8.555720e-07
-5.047780e-11
7.282910e-06
-4.426730e-11
5.632800e-07
-8.556820e-07
-3.179280e-11
1.898630e-06
6.472820e-12
-5.633580e-07
-4.426730e-11
1.894460e-06
1.959330e-12
-3.179280e-11
8.555720e-07
6.472820e-12
-1.898580e-06
-4.426730e-11
5.632800e-07
1.959330e-12
-1.894450e-06
1.898630e-06
6.472820e-12
-1.561200e-06
-9.978530e-14
1.894460e-06
1.959330e-12
-1.656690e-06
-2.441820e-12
6.472820e-12
-1.898580e-06
-9.978530e-14
1.561200e-06
1.959330e-12
-1.894450e-06
-2.441820e-12
1.656700e-06
-1.561200e-06
-9.978530e-14
2.701900e-06
-6.684060e-13
-1.656690e-06
-2.441820e-12
2.815500e-06
-3.692910e-11
-9.978530e-14
1.561200e-06
-6.684060e-13
-2.701790e-06
-2.441820e-12
1.656700e-06
-3.692910e-11
-2.815390e-06
</DataArray>
<DataArray type="Float32" Name="V2" format="ascii">
0.000000e+00
0.000000e+00
-1.208410e-05
-1.208310e-05
0.000000e+00
0.000000e+00
-1.208130e-05
-1.208360e-05
0.000000e+00
0.000000e+00
-1.208310e-05
-1.208430e-05
0.000000e+00
0.000000e+00
-1.208360e-05
-1.208030e-05
-1.208410e-05
-1.208310e-05
3.935980e-05
3.936260e-05
-1.208130e-05
-1.208360e-05
3.936440e-05
3.936130e-05
-1.208310e-05
-1.208430e-05
3.936260e-05
3.936540e-05
-1.208360e-05
-1.208030e-05
3.936130e-05
3.936440e-05
3.935980e-05
3.936260e-05
-3.013040e-05
-3.012540e-05
3.936440e-05
3.936130e-05
-3.013020e-05
-3.012640e-05
3.936260e-05
3.936540e-05
-3.012540e-05
-3.013090e-05
3.936130e-05
3.936440e-05
-3.012640e-05
-3.012740e-05
-3.013040e-05
-3.012540e-05
-1.387880e-04
-1.387890e-04
-3.013020e-05
-3.012640e-05
-1.387910e-04
-1.387980e-04
-3.012540e-05
-3.013090e-05
-1.387890e-04
-1.387880e-04
-3.012640e-05
-3.012740e-05
-1.387980e-04
-1.387910e-04
-1.387880e-04
-1.387890e-04
3.412340e-04
3.412360e-04
-1.387910e-04
-1.387980e-04
3.412340e-04
3.412450e-04
-1.387890e-04
-1.387880e-04
3.412360e-04
3.412330e-04
-1.387980e-04
-1.387910e-04
3.412450e-04
3.412380e-04
3.412340e-04
3.412360e-04
2.779180e-04
2.779170e-04
3.412340e-04
3.412450e-04
2.779140e-04
2.779080e-04
3.412360e-04
3.412330e-04
2.779170e-04
2.779170e-04
3.412450e-04
3.412380e-04
2.779080e-04
2.779170e-04
2.779180e-04
2.779170e-04
-1.843500e-03
-1.843510e-03
2.779140e-04
2.779080e-04
-1.843510e-03
-1.843520e-03
2.779170e-04
2.779170e-04
-1.843510e-03
-1.843500e-03
2.779080e-04
2.779170e-04
-1.843520e-03
-1.843510e-03
-1.843500e-03
-1.843510e-03
-2.660550e-04
-2.660090e-04
-1.843510e-03
-1.843520e-03
-2.660070e-04
-2.659530e-04
-1.843510e-03
-1.843500e-03
-2.660090e-04
-2.660550e-04
-1.843520e-03
-1.843510e-03
-2.659530e-04
-2.660060e-04
-2.660550e-04
-2.660090e-04
7.986180e-03
7.986090e-03
-2.660070e-04
-2.659530e-04
7.986090e-03
7.985990e-03
-2.660090e-04
-2.660550e-04
7.986090e-03
7.986180e-03
-2.659530e-04
-2.660060e-04
7.985990e-03
7.986090e-03
7.986180e-03
7.986090e-03
3.148290e-03
3.148340e-03
7.986090e-03
7.985990e-03
3.148350e-03
3.148400e-03
7.986090e-03
7.986180e-03
3.148340e-03
3.148290e-03
7.985990e-03
7.986090e-03
3.148400e-03
3.148340e-03
3.148290e-03
3.148340e-03
-2.577180e-02
-2.577180e-02
3.148350e-03
3.148400e-03
-2.577180e-02
-2.577170e-02
3.148340e-03
3.148290e-03
-2.577180e-02
-2.577180e-02
3.148400e-03
3.148340e-03
-2.577170e-02
-2.577180e-02
-2.577180e-02
-2.577180e-02
-4.988840e-02
-4.988830e-02
-2.577180e-02
-2.577170e-02
-4.988830e-02
-4.988820e-02
-2.577180e-02
-2.577180e-02
-4.988830e-02
-4.988840e-02
-2.577170e-02
-2.577180e-02
-4.988820e-02
-4.988830e-02
-4.988840e-02
-4.988830e-02
-5.113430e-02
-5.113520e-02
-4.988830e-02
-4.988820e-02
-5.113520e-02
-5.113590e-02
-4.988830e-02
-4.988840e-02
-5.113520e-02
-5.113430e-02
-4.988820e-02
-4.988830e-02
-5.113590e-02
-5.113520e-02
-5.113430e-02
-5.113520e-02
-4.081510e-02
-4.081410e-02
-5.113520e-02
-5.113590e-02
-4.081410e-02
-4.081320e-02
-5.113520e-02
-5.113430e-02
-4.081410e-02
-4.081510e-02
-5.113590e-02
-5.113520e-02
-4.081320e-02
-4.081410e-02
-4.081510e-02
-4.081410e-02
-2.550540e-02
-2.550380e-02
-4.081410e-02
-4.081320e-02
-2.550380e-02
-2.550220e-02
-4.081410e-02
-4.081510e-02
-2.550380e-02
-2.550540e-02
-4.081320e-02
-4.081410e-02
-2.550220e-02
-2.550380e-02
-2.550540e-02
-2.550380e-02
-1.261370e-02
-1.262020e-02
-2.550380e-02
-2.550220e-02
-1.262020e-02
-1.262630e-02
-2.550380e-02
-2.550540e-02
-1.262020e-02
-1.261370e-02
-2.550220e-02
-2.550380e-02
-1.262630e-02
-1.262020e-02
-1.261370e-02
-1.262020e-02
-6.845940e-03
-6.847000e-03
-1.262020e-02
-1.262630e-02
-6.847000e-03
-6.848130e-03
-1.262020e-02
-1.261370e-02
-6.847000e-03
-6.845940e-03
-1.262630e-02
-1.262020e-02
-6.848130e-03
-6.847000e-03
-6.845940e-03
-6.847000e-03
-3.522010e-03
-3.522790e-03
-6.847000e-03
-6.848130e-03
-3.522790e-03
-3.523700e-03
-6.847000e-03
-6.845940e-03
-3.522790e-03
-3.522010e-03
-6.848130e-03
-6.847000e-03
-3.523700e-03
-3.522790e-03
-3.522010e-03
-3.522790e-03
-2.204580e-03
-2.205570e-03
-3.522790e-03
-3.523700e-03
-2.205570e-03
-2.206520e-03
-3.522790e-03
-3.522010e-03
-2.205570e-03
-2.204580e-03
-3.523700e-03
-3.522790e-03
-2.206520e-03
-2.205570e-03
-2.204580e-03
-2.205570e-03
-1.476880e-03
-1.477460e-03
-2.205570e-03
-2.206520e-03
-1.477460e-03
-1.478910e-03
-2.205570e-03
-2.204580e-03
-1.477460e-03
-1.476890e-03
-2.206520e-03
-2.205570e-03
-1.478910e-03
-1.477460e-03
-1.476880e-03
-1.477460e-03
-3.292340e-04
-3.299170e-04
-1.477460e-03
-1.478910e-03
-3.299160e-04
-3.290880e-04
-1.477460e-03
-1.476890e-03
-3.299170e-04
-3.292340e-04
-1.478910e-03
-1.477460e-03
-3.290880e-04
-3.299160e-04
-3.292340e-04
-3.299170e-04
7.868200e-05
8.611070e-05
-3.299160e-04
-3.290880e-04
8.611190e-05
9.175260e-05
-3.299170e-04
-3.292340e-04
8.611070e-05
7.868120e-05
-3.290880e-04
-3.299160e-04
9.175260e-05
8.611100e-05
7.868200e-05
8.611070e-05
1.354180e-03
1.341760e-03
8.611190e-05
9.175260e-05
1.341760e-03
1.322270e-03
8.611070e-05
7.868120e-05
1.341760e-03
1.354190e-03
9.175260e-05
8.611100e-05
1.322270e-03
1.341760e-03
1.354180e-03
1.341760e-03
1.871570e-03
1.863740e-03
1.341760e-03
1.322270e-03
1.863740e-03
1.854480e-03
1.341760e-03
1.354190e-03
1.863740e-03
1.871570e-03
1.322270e-03
1.341760e-03
1.854480e-03
1.863740e-03
1.871570e-03
1.863740e-03
2.022110e-03
2.025600e-03
1.863740e-03
1.854480e-03
2.025600e-03
2.077020e-03
1.863740e-03
1.871570e-03
2.025600e-03
2.022100e-03
1.854480e-03
1.863740e-03
2.077020e-03
2.025600e-03
2.022110e-03
2.025600e-03
-7.855920e-04
-7.921240e-04
2.025600e-03
2.077020e-03
-7.921250e-04
-8.009830e-04
2.025600e-03
2.022100e-03
-7.921240e-04
-7.855920e-04
2.077020e-03
2.025600e-03
-8.009830e-04
-7.921240e-04
-7.855920e-04
-7.921240e-04
-1.877970e-03
-1.878270e-03
-7.921250e-04
-8.009830e-04
-1.878270e-03
-1.898700e-03
-7.921240e-04
-7.855920e-04
-1.878270e-03
-1.877970e-03
-8.009830e-04
-7.921240e-04
-1.898700e-03
-1.878270e-03
-1.877970e-03
-1.878270e-03
-9.413080e-04
-9.183600e-04
-1.878270e-03
-1.898700e-03
-9.183600e-04
-8.527000e-04
-1.878270e-03
-1.877970e-03
-9.183600e-04
-9.413080e-04
-1.898700e-03
-1.878270e-03
-8.527000e-04
-9.183600e-04
-9.413080e-04
-9.183600e-04
-4.212360e-04
-4.264950e-04
-9.183600e-04
-8.527000e-04
-4.264950e-04
-4.995600e-04
-9.183600e-04
-9.413080e-04
-4.264950e-04
-4.212360e-04
-8.527000e-04
-9.183600e-04
-4.995600e-04
-4.264950e-04
-4.212360e-04
-4.264950e-04
-1.604320e-03
-1.651710e-03
-4.264950e-04
-4.995600e-04
-1.651710e-03
-1.669930e-03
-4.264950e-04
-4.212360e-04
-1.651710e-03
-1.604320e-03
-4.995600e-04
-4.264950e-04
-1.669930e-03
-1.651710e-03
0.000000e+00
0.000000e+00
-1.208130e-05
-1.208360e-05
0.000000e+00
0.000000e+00
-1.208410e-05
-1.208210e-05
0.000000e+00
0.000000e+00
-1.208360e-05
-1.208030e-05
0.000000e+00
0.000000e+00
-1.208210e-05
-1.208590e-05
-1.208130e-05
-1.208360e-05
3.936440e-05
3.936130e-05
-1.208410e-05
-1.208210e-05
3.936310e-05
3.936340e-05
-1.208360e-05
-1.208030e-05
3.936130e-05
3.936440e-05