<?xml version="1.0"?>
<!-- time 17.7461-->
<VTKFile type="UnstructuredGrid" version="0.1" byte_order="LittleEndian">
<UnstructuredGrid>
<Piece NumberOfPoints="3240" NumberOfCells="0">
<Points>
  <DataArray type="Float32" Name="Position" NumberOfComponents="3" format="ascii">
	-333.333 2066.67 -333.333
	-333.333 2066.67 -200
	-333.333 2066.67 -66.6667
	-333.333 2066.67 66.6667
	-333.333 2066.67 200
	-333.333 2066.67 333.333
	-200 2066.67 -333.333
	-200 2066.67 -200
	-200 2066.67 -66.6667
	-200 2066.67 66.6667
	-200 2066.67 200
	-200 2066.67 333.333
	-66.6667 2066.67 -333.333
	-66.6667 2066.67 -200
	-66.6667 2066.67 -66.6667
	-66.6667 2066.67 66.6667
	-66.6667 2066.67 200
	-66.6667 2066.67 333.333
	66.6667 2066.67 -333.333
	66.6667 2066.67 -200
	66.6667 2066.67 -66.6667
	66.6667 2066.67 66.6667
	66.6667 2066.67 200
	66.6667 2066.67 333.333
	200 2066.67 -333.333
	200 2066.67 -200
	200 2066.67 -66.6667
	200 2066.67 66.6667
	200 2066.67 200
	200 2066.67 333.333
	333.333 2066.67 -333.333
	333.333 2066.67 -200
	333.333 2066.67 -66.6667
	333.333 2066.67 66.6667
	333.333 2066.67 200
	333.333 2066.67 333.333
	-333.333 2200 -333.333
	-333.333 2200 -200
	-333.333 2200 -66.6667
	-333.333 2200 66.6667
	-333.333 2200 200
	-333.333 2200 333.333
	-200 2200 -333.333
	-200 2200 -200
	-200 2200 -66.6667
	-200 2200 66.6667
	-200 2200 200
	-200 2200 333.333
	-66.6667 2200 -333.333
	-66.6667 2200 -200
	-66.6667 2200 -66.6667
	-66.6667 2200 66.6667
	-66.6667 2200 200
	-66.6667 2200 333.333
	66.6667 2200 -333.333
	66.6667 2200 -200
	66.6667 2200 -66.6667
	66.6667 2200 66.6667
	66.6667 2200 200
	66.6667 2200 333.333
	200 2200 -333.333
	200 2200 -200
	200 2200 -66.6667
	200 2200 66.6667
	200 2200 200
	200 2200 333.333
	333.333 2200 -333.333
	333.333 2200 -200
	333.333 2200 -66.6667
	333.333 2200 66.6667
	333.333 2200 200
	333.333 2200 333.333
	-333.333 2333.33 -333.333
	-333.333 2333.33 -200
	-333.333 2333.33 -66.6667
	-333.333 2333.33 66.6667
	-333.333 2333.33 200
	-333.333 2333.33 333.333
	-200 2333.33 -333.333
	-200 2333.33 -200
	-200 2333.33 -66.6667
	-200 2333.33 66.6667
	-200 2333.33 200
	-200 2333.33 333.333
	-66.6667 2333.33 -333.333
	-66.6667 2333.33 -200
	-66.6667 2333.33 -66.6667
	-66.6667 2333.33 66.6667
	-66.6667 2333.33 200
	-66.6667 2333.33 333.333
	66.6667 2333.33 -333.333
	66.6667 2333.33 -200
	66.6667 2333.33 -66.6667
	66.6667 2333.33 66.6667
	66.6667 2333.33 200
	66.6667 2333.33 333.333
	200 2333.33 -333.333
	200 2333.33 -200
	200 2333.33 -66.6667
	200 2333.33 66.6667
	200 2333.33 200
	200 2333.33 333.333
	333.333 2333.33 -333.333
	333.333 2333.33 -200
	333.333 2333.33 -66.6667
	333.333 2333.33 66.6667
	333.333 2333.33 200
	333.333 2333.33 333.333
	-333.333 2466.67 -333.333
	-333.333 2466.67 -200
	-333.333 2466.67 -66.6667
	-333.333 2466.67 66.6667
	-333.333 2466.67 200
	-333.333 2466.67 333.333
	-200 2466.67 -333.333
	-200 2466.67 -200
	-200 2466.67 -66.6667
	-200 2466.67 66.6667
	-200 2466.67 200
	-200 2466.67 333.333
	-66.6667 2466.67 -333.333
	-66.6667 2466.67 -200
	-66.6667 2466.67 -66.6667
	-66.6667 2466.67 66.6667
	-66.6667 2466.67 200
	-66.6667 2466.67 333.333
	66.6667 2466.67 -333.333
	66.6667 2466.67 -200
	66.6667 2466.67 -66.6667
	66.6667 2466.67 66.6667
	66.6667 2466.67 200
	66.6667 2466.67 333.333
	200 2466.67 -333.333
	200 2466.67 -200
	200 2466.67 -66.6667
	200 2466.67 66.6667
	200 2466.67 200
	200 2466.67 333.333
	333.333 2466.67 -333.333
	333.333 2466.67 -200
	333.333 2466.67 -66.6667
	333.333 2466.67 66.6667
	333.333 2466.67 200
	333.333 2466.67 333.333
	-333.333 2600 -333.333
	-333.333 2600 -200
	-333.333 2600 -66.6667
	-333.333 2600 66.6667
	-333.333 2600 200
	-333.333 2600 333.333
	-200 2600 -333.333
	-200 2600 -200
	-200 2600 -66.6667
	-200 2600 66.6667
	-200 2600 200
	-200 2600 333.333
	-66.6667 2600 -333.333
	-66.6667 2600 -200
	-66.6667 2600 -66.6667
	-66.6667 2600 66.6667
	-66.6667 2600 200
	-66.6667 2600 333.333
	66.6667 2600 -333.333
	66.6667 2600 -200
	66.6667 2600 -66.6667
	66.6667 2600 66.6667
	66.6667 2600 200
	66.6667 2600 333.333
	200 2600 -333.333
	200 2600 -200
	200 2600 -66.6667
	200 2600 66.6667
	200 2600 200
	200 2600 333.333
	333.333 2600 -333.333
	333.333 2600 -200
	333.333 2600 -66.6667
	333.333 2600 66.6667
	333.333 2600 200
	333.333 2600 333.333
	-333.333 2733.33 -333.333
	-333.333 2733.33 -200
	-333.333 2733.33 -66.6667
	-333.333 2733.33 66.6667
	-333.333 2733.33 200
	-333.333 2733.33 333.333
	-200 2733.33 -333.333
	-200 2733.33 -200
	-200 2733.33 -66.6667
	-200 2733.33 66.6667
	-200 2733.33 200
	-200 2733.33 333.333
	-66.6667 2733.33 -333.333
	-66.6667 2733.33 -200
	-66.6667 2733.33 -66.6667
	-66.6667 2733.33 66.6667
	-66.6667 2733.33 200
	-66.6667 2733.33 333.333
	66.6667 2733.33 -333.333
	66.6667 2733.33 -200
	66.6667 2733.33 -66.6667
	66.6667 2733.33 66.6667
	66.6667 2733.33 200
	66.6667 2733.33 333.333
	200 2733.33 -333.333
	200 2733.33 -200
	200 2733.33 -66.6667
	200 2733.33 66.6667
	200 2733.33 200
	200 2733.33 333.333
	333.333 2733.33 -333.333
	333.333 2733.33 -200
	333.333 2733.33 -66.6667
	333.333 2733.33 66.6667
	333.333 2733.33 200
	333.333 2733.33 333.333
	-333.333 2866.67 -333.333
	-333.333 2866.67 -200
	-333.333 2866.67 -66.6667
	-333.333 2866.67 66.6667
	-333.333 2866.67 200
	-333.333 2866.67 333.333
	-200 2866.67 -333.333
	-200 2866.67 -200
	-200 2866.67 -66.6667
	-200 2866.67 66.6667
	-200 2866.67 200
	-200 2866.67 333.333
	-66.6667 2866.67 -333.333
	-66.6667 2866.67 -200
	-66.6667 2866.67 -66.6667
	-66.6667 2866.67 66.6667
	-66.6667 2866.67 200
	-66.6667 2866.67 333.333
	66.6667 2866.67 -333.333
	66.6667 2866.67 -200
	66.6667 2866.67 -66.6667
	66.6667 2866.67 66.6667
	66.6667 2866.67 200
	66.6667 2866.67 333.333
	200 2866.67 -333.333
	200 2866.67 -200
	200 2866.67 -66.6667
	200 2866.67 66.6667
	200 2866.67 200
	200 2866.67 333.333
	333.333 2866.67 -333.333
	333.333 2866.67 -200
	333.333 2866.67 -66.6667
	333.333 2866.67 66.6667
	333.333 2866.67 200
	333.333 2866.67 333.333
	-333.333 3000 -333.333
	-333.333 3000 -200
	-333.333 3000 -66.6667
	-333.333 3000 66.6667
	-333.333 3000 200
	-333.333 3000 333.333
	-200 3000 -333.333
	-200 3000 -200
	-200 3000 -66.6667
	-200 3000 66.6667
	-200 3000 200
	-200 3000 333.333
	-66.6667 3000 -333.333
	-66.6667 3000 -200
	-66.6667 3000 -66.6667
	-66.6667 3000 66.6667
	-66.6667 3000 200
	-66.6667 3000 333.333
	66.6667 3000 -333.333
	66.6667 3000 -200
	66.6667 3000 -66.6667
	66.6667 3000 66.6667
	66.6667 3000 200
	66.6667 3000 333.333
	200 3000 -333.333
	200 3000 -200
	200 3000 -66.6667
	200 3000 66.6667
	200 3000 200
	200 3000 333.333
	333.333 3000 -333.333
	333.333 3000 -200
	333.333 3000 -66.6667
	333.333 3000 66.6667
	333.333 3000 200
	333.333 3000 333.333
	-333.333 3133.33 -333.333
	-333.333 3133.33 -200
	-333.333 3133.33 -66.6667
	-333.333 3133.33 66.6667
	-333.333 3133.33 200
	-333.333 3133.33 333.333
	-200 3133.33 -333.333
	-200 3133.33 -200
	-200 3133.33 -66.6667
	-200 3133.33 66.6667
	-200 3133.33 200
	-200 3133.33 333.333
	-66.6667 3133.33 -333.333
	-66.6667 3133.33 -200
	-66.6667 3133.33 -66.6667
	-66.6667 3133.33 66.6667
	-66.6667 3133.33 200
	-66.6667 3133.33 333.333
	66.6667 3133.33 -333.333
	66.6667 3133.33 -200
	66.6667 3133.33 -66.6667
	66.6667 3133.33 66.6667
	66.6667 3133.33 200
	66.6667 3133.33 333.333
	200 3133.33 -333.333
	200 3133.33 -200
	200 3133.33 -66.6667
	200 3133.33 66.6667
	200 3133.33 200
	200 3133.33 333.333
	333.333 3133.33 -333.333
	333.333 3133.33 -200
	333.333 3133.33 -66.6667
	333.333 3133.33 66.6667
	333.333 3133.33 200
	333.333 3133.33 333.333
	-333.333 3266.67 -333.333
	-333.333 3266.67 -200
	-333.333 3266.67 -66.6667
	-333.333 3266.67 66.6667
	-333.333 3266.67 200
	-333.333 3266.67 333.333
	-200 3266.67 -333.333
	-200 3266.67 -200
	-200 3266.67 -66.6667
	-200 3266.67 66.6667
	-200 3266.67 200
	-200 3266.67 333.333
	-66.6667 3266.67 -333.333
	-66.6667 3266.67 -200
	-66.6667 3266.67 -66.6667
	-66.6667 3266.67 66.6667
	-66.6667 3266.67 200
	-66.6667 3266.67 333.333
	66.6667 3266.67 -333.333
	66.6667 3266.67 -200
	66.6667 3266.67 -66.6667
	66.6667 3266.67 66.6667
	66.6667 3266.67 200
	66.6667 3266.67 333.333
	200 3266.67 -333.333
	200 3266.67 -200
	200 3266.67 -66.6667
	200 3266.67 66.6667
	200 3266.67 200
	200 3266.67 333.333
	333.333 3266.67 -333.333
	333.333 3266.67 -200
	333.333 3266.67 -66.6667
	333.333 3266.67 66.6667
	333.333 3266.67 200
	333.333 3266.67 333.333
	-333.333 3400 -333.333
	-333.333 3400 -200
	-333.333 3400 -66.6667
	-333.333 3400 66.6667
	-333.333 3400 200
	-333.333 3400 333.333
	-200 3400 -333.333
	-200 3400 -200
	-200 3400 -66.6667
	-200 3400 66.6667
	-200 3400 200
	-200 3400 333.333
	-66.6667 3400 -333.333
	-66.6667 3400 -200
	-66.6667 3400 -66.6667
	-66.6667 3400 66.6667
	-66.6667 3400 200
	-66.6667 3400 333.333
	66.6667 3400 -333.333
	66.6667 3400 -200
	66.6667 3400 -66.6667
	66.6667 3400 66.6667
	66.6667 3400 200
	66.6667 3400 333.333
	200 3400 -333.333
	200 3400 -200
	200 3400 -66.6667
	200 3400 66.6667
	200 3400 200
	200 3400 333.333
	333.333 3400 -333.333
	333.333 3400 -200
	333.333 3400 -66.6667
	333.333 3400 66.6667
	333.333 3400 200
	333.333 3400 333.333
	-333.333 3533.33 -333.333
	-333.333 3533.33 -200
	-333.333 3533.33 -66.6667
	-333.333 3533.33 66.6667
	-333.333 3533.33 200
	-333.333 3533.33 333.333
	-200 3533.33 -333.333
	-200 3533.33 -200
	-200 3533.33 -66.6667
	-200 3533.33 66.6667
	-200 3533.33 200
	-200 3533.33 333.333
	-66.6667 3533.33 -333.333
	-66.6667 3533.33 -200
	-66.6667 3533.33 -66.6667
	-66.6667 3533.33 66.6667
	-66.6667 3533.33 200
	-66.6667 3533.33 333.333
	66.6667 3533.33 -333.333
	66.6667 3533.33 -200
	66.6667 3533.33 -66.6667
	66.6667 3533.33 66.6667
	66.6667 3533.33 200
	66.6667 3533.33 333.333
	200 3533.33 -333.333
	200 3533.33 -200
	200 3533.33 -66.6667
	200 3533.33 66.6667
	200 3533.33 200
	200 3533.33 333.333
	333.333 3533.33 -333.333
	333.333 3533.33 -200
	333.333 3533.33 -66.6667
	333.333 3533.33 66.6667
	333.333 3533.33 200
	333.333 3533.33 333.333
	-333.333 3666.67 -333.333
	-333.333 3666.67 -200
[...]
<PointData  Vectors="vector">
  <DataArray type="Float32" Name="Velocity" NumberOfComponents="3" format="ascii">
 6.09434e-15 7.14586e-12 6.09434e-15
 5.97278e-15 7.14681e-12 -1.49075e-14
 5.85122e-15 7.14777e-12 6.32232e-14
 5.85122e-15 7.14777e-12 -1.17283e-13
 5.97278e-15 7.14681e-12 1.48841e-14
 6.09434e-15 7.14586e-12 4.79181e-14
 -1.49075e-14 7.14681e-12 5.97278e-15
 -1.44747e-14 7.84584e-12 -1.44747e-14
 -1.40418e-14 7.14879e-12 -3.09866e-14
 -1.40418e-14 7.14879e-12 -2.30563e-14
 -1.44747e-14 7.84584e-12 1.44524e-14
 -1.49075e-14 7.14681e-12 4.80255e-14
 6.32232e-14 7.14777e-12 5.85122e-15
 -3.09866e-14 7.14879e-12 -1.40418e-14
 6.07257e-14 7.13497e-12 6.07257e-14
 6.07257e-14 7.13497e-12 -1.14752e-13
 -3.09866e-14 7.14879e-12 1.40207e-14
 6.32232e-14 7.14777e-12 4.81328e-14
 -1.17283e-13 7.14777e-12 5.85122e-15
 -2.30563e-14 7.14879e-12 -1.40418e-14
 -1.14752e-13 7.13497e-12 6.07257e-14
 -1.14752e-13 7.13497e-12 -1.14752e-13
 -2.30563e-14 7.14879e-12 1.40207e-14
 -1.17283e-13 7.14777e-12 4.81328e-14
 1.48841e-14 7.14681e-12 5.97278e-15
 1.44524e-14 7.84584e-12 -1.44747e-14
 1.40207e-14 7.14879e-12 -3.09866e-14
 1.40207e-14 7.14879e-12 -2.30563e-14
 1.44524e-14 7.84584e-12 1.44524e-14
 1.48841e-14 7.14681e-12 4.80255e-14
 4.79181e-14 7.14586e-12 6.09434e-15
 4.80255e-14 7.14681e-12 -1.49075e-14
 4.81328e-14 7.14777e-12 6.32232e-14
 4.81328e-14 7.14777e-12 -1.17283e-13
 4.80255e-14 7.14681e-12 1.48841e-14
 4.79181e-14 7.14586e-12 4.79181e-14
 5.51541e-15 -1.72472e-11 5.51541e-15
 5.40254e-15 -1.7249e-11 -1.39041e-14
 5.28968e-15 -1.72509e-11 -2.94411e-14
 5.28968e-15 -1.72509e-11 -5.0883e-14
 5.40254e-15 -1.7249e-11 1.39609e-14
 5.51541e-15 -1.72472e-11 7.49223e-14
 -1.39041e-14 -1.7249e-11 5.40254e-15
 0 -1.79683e-11 0
 -1.313e-14 -1.72526e-11 -3.24366e-14
 -1.313e-14 -1.72526e-11 -4.77922e-14
 0 -1.79683e-11 -2.59309e-28
 -1.39041e-14 -1.7249e-11 7.49333e-14
 -2.94411e-14 -1.72509e-11 5.28968e-15
 -3.24366e-14 -1.72526e-11 -1.313e-14
 -2.76803e-14 -1.72256e-11 -2.76803e-14
 -2.76803e-14 -1.72256e-11 -5.24532e-14
 -3.24366e-14 -1.72526e-11 1.31802e-14
 -2.94411e-14 -1.72509e-11 7.49442e-14
 -5.0883e-14 -1.72509e-11 5.28968e-15
 -4.77922e-14 -1.72526e-11 -1.313e-14
 -5.24532e-14 -1.72256e-11 -2.76803e-14
 -5.24532e-14 -1.72256e-11 -5.24532e-14
 -4.77922e-14 -1.72526e-11 1.31802e-14
 -5.0883e-14 -1.72509e-11 7.49442e-14
 1.39609e-14 -1.7249e-11 5.40254e-15
 0 -1.79683e-11 0
 1.31802e-14 -1.72526e-11 -3.24366e-14
 1.31802e-14 -1.72526e-11 -4.77922e-14
 0 -1.79683e-11 -2.59309e-28
 1.39609e-14 -1.7249e-11 7.49333e-14
 7.49223e-14 -1.72472e-11 5.51541e-15
 7.49333e-14 -1.7249e-11 -1.39041e-14
 7.49442e-14 -1.72509e-11 -2.94411e-14
 7.49442e-14 -1.72509e-11 -5.0883e-14
 7.49333e-14 -1.7249e-11 1.39609e-14
 7.49223e-14 -1.72472e-11 7.49223e-14
 5.08543e-15 8.45079e-12 5.08543e-15
 4.89962e-15 8.15342e-12 -1.30193e-14
 4.87139e-15 8.42971e-12 6.08542e-14
 4.87139e-15 8.42971e-12 -1.51284e-13
 4.89962e-15 8.15342e-12 1.31468e-14
 5.08543e-15 8.45079e-12 8.49738e-14
 -1.30193e-14 8.15342e-12 4.89962e-15
 -1.26668e-14 8.79468e-12 -1.26668e-14
 -1.23262e-14 8.1449e-12 -2.64224e-14
 -1.23262e-14 8.1449e-12 -7.65067e-14
 -1.26668e-14 8.79468e-12 1.27877e-14
 -1.30193e-14 8.15342e-12 9.82691e-14
 6.08542e-14 8.42971e-12 4.87139e-15
 -2.64224e-14 8.1449e-12 -1.23262e-14
 5.85279e-14 8.3962e-12 5.85279e-14
 5.85279e-14 8.3962e-12 -1.492e-13
 -2.64224e-14 8.1449e-12 1.24392e-14
 6.08542e-14 8.42971e-12 8.54563e-14
 -1.51284e-13 8.42971e-12 4.87139e-15
 -7.65067e-14 8.1449e-12 -1.23262e-14
 -1.492e-13 8.3962e-12 5.85279e-14
 -1.492e-13 8.3962e-12 -1.492e-13
 -7.65067e-14 8.1449e-12 1.24392e-14
 -1.51284e-13 8.42971e-12 8.54563e-14
 1.31468e-14 8.15342e-12 4.89962e-15
 1.27877e-14 8.79468e-12 -1.26668e-14
 1.24392e-14 8.1449e-12 -2.64224e-14
 1.24392e-14 8.1449e-12 -7.65067e-14
 1.27877e-14 8.79468e-12 1.27877e-14
 1.31468e-14 8.15342e-12 9.82691e-14
 8.49738e-14 8.45079e-12 5.08543e-15
 9.82691e-14 8.15342e-12 -1.30193e-14
 8.54563e-14 8.42971e-12 6.08542e-14
 8.54563e-14 8.42971e-12 -1.51284e-13
 9.82691e-14 8.15342e-12 1.31468e-14
 8.49738e-14 8.45079e-12 8.49738e-14
 6.101e-15 -4.33346e-12 6.101e-15
 6.07791e-15 -4.06309e-12 -1.47638e-14
 5.91279e-15 -4.30978e-12 6.03548e-14
 5.91279e-15 -4.30978e-12 -1.05119e-13
 6.07791e-15 -4.06309e-12 1.46093e-14
 6.101e-15 -4.33346e-12 3.89176e-14
 -1.47638e-14 -4.06309e-12 6.07791e-15
 -1.43565e-14 -4.04587e-12 -1.43565e-14
 -1.39386e-14 -4.05057e-12 -3.08144e-14
 -1.39386e-14 -4.05057e-12 -2.64155e-15
 -1.43565e-14 -4.04587e-12 1.42095e-14
 -1.47638e-14 -4.06309e-12 2.70859e-14
 6.03548e-14 -4.30978e-12 5.91279e-15
 -3.08144e-14 -4.05057e-12 -1.39386e-14
 5.80228e-14 -4.2872e-12 5.80228e-14
 5.80228e-14 -4.2872e-12 -1.02484e-13
 -3.08144e-14 -4.05057e-12 1.38001e-14
 6.03548e-14 -4.30978e-12 3.87864e-14
 -1.05119e-13 -4.30978e-12 5.91279e-15
 -2.64155e-15 -4.05057e-12 -1.39386e-14
 -1.02484e-13 -4.2872e-12 5.80228e-14
 -1.02484e-13 -4.2872e-12 -1.02484e-13
 -2.64155e-15 -4.05057e-12 1.38001e-14
 -1.05119e-13 -4.30978e-12 3.87864e-14
 1.46093e-14 -4.06309e-12 6.07791e-15
 1.42095e-14 -4.04587e-12 -1.43565e-14
 1.38001e-14 -4.05057e-12 -3.08144e-14
 1.38001e-14 -4.05057e-12 -2.64155e-15
 1.42095e-14 -4.04587e-12 1.42095e-14
 1.46093e-14 -4.06309e-12 2.70859e-14
 3.89176e-14 -4.33346e-12 6.101e-15
 2.70859e-14 -4.06309e-12 -1.47638e-14
 3.87864e-14 -4.30978e-12 6.03548e-14
 3.87864e-14 -4.30978e-12 -1.05119e-13
 2.70859e-14 -4.06309e-12 1.46093e-14
 3.89176e-14 -4.33346e-12 3.89176e-14
 4.95848e-15 9.94399e-12 4.95848e-15
 4.88303e-15 9.93718e-12 -1.31286e-14
 4.80757e-15 9.93036e-12 -2.73941e-14
 4.80757e-15 9.93036e-12 -8.25396e-14
 4.88303e-15 9.93718e-12 1.31732e-14
 4.95848e-15 9.94399e-12 1.05065e-13
 -1.31286e-14 9.93718e-12 4.88303e-15
 0 0 0
 -1.24254e-14 9.92411e-12 -3.0437e-14
 -1.24254e-14 9.92411e-12 -7.94444e-14
 0 0 -6.19908e-28
 -1.31286e-14 9.93718e-12 1.05083e-13
 -2.73941e-14 9.93036e-12 4.80757e-15
 -3.0437e-14 9.92411e-12 -1.24254e-14
 -2.58492e-14 9.91786e-12 -2.58492e-14
 -2.58492e-14 9.91786e-12 -8.39798e-14
 -3.0437e-14 9.92411e-12 1.24653e-14
 -2.73941e-14 9.93036e-12 1.05101e-13
 -8.25396e-14 9.93036e-12 4.80757e-15
 -7.94444e-14 9.92411e-12 -1.24254e-14
 -8.39798e-14 9.91786e-12 -2.58492e-14
 -8.39798e-14 9.91786e-12 -8.39798e-14
 -7.94444e-14 9.92411e-12 1.24653e-14
 -8.25396e-14 9.93036e-12 1.05101e-13
 1.31732e-14 9.93718e-12 4.88303e-15
 0 0 0
 1.24653e-14 9.92411e-12 -3.0437e-14
 1.24653e-14 9.92411e-12 -7.94444e-14
 0 0 -6.19908e-28
 1.31732e-14 9.93718e-12 1.05083e-13
 1.05065e-13 9.94399e-12 4.95848e-15
 1.05083e-13 9.93718e-12 -1.31286e-14
 1.05101e-13 9.93036e-12 -2.73941e-14
 1.05101e-13 9.93036e-12 -8.25396e-14
 1.05083e-13 9.93718e-12 1.31732e-14
 1.05065e-13 9.94399e-12 1.05065e-13
 4.12185e-15 -6.53403e-12 4.12185e-15
 3.96119e-15 -4.52501e-12 -1.18689e-14
 4.0006e-15 -6.47356e-12 6.08516e-14
 4.0006e-15 -6.47356e-12 -2.11934e-13
 3.96119e-15 -4.52501e-12 1.20672e-14
 4.12185e-15 -6.53403e-12 1.46483e-13
 -1.18689e-14 -4.52501e-12 3.96119e-15
 -1.15559e-14 -4.45766e-12 -1.15559e-14
 -1.12598e-14 -4.5576e-12 -2.33971e-14
 -1.12598e-14 -4.5576e-12 -1.45185e-13
 -1.15559e-14 -4.45766e-12 1.17444e-14
 -1.18689e-14 -4.52501e-12 1.64995e-13
 6.08516e-14 -6.47356e-12 4.0006e-15
 -2.33971e-14 -4.5576e-12 -1.12598e-14
 5.84285e-14 -6.41891e-12 5.84285e-14
 5.84285e-14 -6.41891e-12 -2.09952e-13
 -2.33971e-14 -4.5576e-12 1.14372e-14
 6.08516e-14 -6.47356e-12 1.4708e-13
 -2.11934e-13 -6.47356e-12 4.0006e-15
 -1.45185e-13 -4.5576e-12 -1.12598e-14
 -2.09952e-13 -6.41891e-12 5.84285e-14
 -2.09952e-13 -6.41891e-12 -2.09952e-13
 -1.45185e-13 -4.5576e-12 1.14372e-14
 -2.11934e-13 -6.47356e-12 1.4708e-13
 1.20672e-14 -4.52501e-12 3.96119e-15
 1.17444e-14 -4.45766e-12 -1.15559e-14
 1.14372e-14 -4.5576e-12 -2.33971e-14
 1.14372e-14 -4.5576e-12 -1.45185e-13
 1.17444e-14 -4.45766e-12 1.17444e-14
 1.20672e-14 -4.52501e-12 1.64995e-13
 1.46483e-13 -6.53403e-12 4.12185e-15
 1.64995e-13 -4.52501e-12 -1.18689e-14
 1.4708e-13 -6.47356e-12 6.08516e-14
 1.4708e-13 -6.47356e-12 -2.11934e-13
 1.64995e-13 -4.52501e-12 1.20672e-14
 1.46483e-13 -6.53403e-12 1.46483e-13
 5.44025e-15 1.36969e-12 5.44025e-15
 5.50418e-15 -3.85735e-13 -1.45883e-14
 5.3934e-15 1.31498e-12 6.05667e-14
 5.3934e-15 1.31498e-12 -1.28259e-13
 5.50418e-15 -3.85735e-13 1.43888e-14
 5.44025e-15 1.36969e-12 6.26163e-14
 -1.45883e-14 -3.85735e-13 5.50418e-15
 -1.42031e-14 -4.45305e-13 -1.42031e-14
 -1.38032e-14 -3.58787e-13 -2.99666e-14
 -1.38032e-14 -3.58787e-13 -2.2408e-14
 -1.42031e-14 -4.45305e-13 1.40123e-14
 -1.45883e-14 -3.85735e-13 4.64911e-14
 6.05667e-14 1.31498e-12 5.3934e-15
 -2.99666e-14 -3.58787e-13 -1.38032e-14
 5.80594e-14 1.26613e-12 5.80594e-14
 5.80594e-14 1.26613e-12 -1.25296e-13
 -2.99666e-14 -3.58787e-13 1.36222e-14
 6.05667e-14 1.31498e-12 6.21783e-14
 -1.28259e-13 1.31498e-12 5.3934e-15
 -2.2408e-14 -3.58787e-13 -1.38032e-14
 -1.25296e-13 1.26613e-12 5.80594e-14
 -1.25296e-13 1.26613e-12 -1.25296e-13
 -2.2408e-14 -3.58787e-13 1.36222e-14
 -1.28259e-13 1.31498e-12 6.21783e-14
 1.43888e-14 -3.85735e-13 5.50418e-15
 1.40123e-14 -4.45305e-13 -1.42031e-14
 1.36222e-14 -3.58787e-13 -2.99666e-14
 1.36222e-14 -3.58787e-13 -2.2408e-14
 1.40123e-14 -4.45305e-13 1.40123e-14
 1.43888e-14 -3.85735e-13 4.64911e-14
 6.26163e-14 1.36969e-12 5.44025e-15
 4.64911e-14 -3.85735e-13 -1.45883e-14
 6.21783e-14 1.31498e-12 6.05667e-14
 6.21783e-14 1.31498e-12 -1.28259e-13
 4.64911e-14 -3.85735e-13 1.43888e-14
 6.26163e-14 1.36969e-12 6.26163e-14
 4.21248e-15 3.22189e-12 4.21248e-15
 4.18994e-15 3.21929e-12 -1.22699e-14
 4.1674e-15 3.21669e-12 -2.50327e-14
 4.1674e-15 3.21669e-12 -1.36497e-13
 4.18994e-15 3.21929e-12 1.22969e-14
 4.21248e-15 3.22189e-12 1.57372e-13
 -1.22699e-14 3.21929e-12 4.18994e-15
 0 0 0
 -1.16346e-14 3.21423e-12 -2.80945e-14
 -1.16346e-14 3.21423e-12 -1.33424e-13
 0 0 0
 -1.22699e-14 3.21929e-12 1.5738e-13
 -2.50327e-14 3.21669e-12 4.1674e-15
 -2.80945e-14 3.21423e-12 -1.16346e-14
 -2.37284e-14 3.21177e-12 -2.37284e-14
 -2.37284e-14 3.21177e-12 -1.37778e-13
 -2.80945e-14 3.21423e-12 1.16593e-14
 -2.50327e-14 3.21669e-12 1.57388e-13
 -1.36497e-13 3.21669e-12 4.1674e-15
 -1.33424e-13 3.21423e-12 -1.16346e-14
 -1.37778e-13 3.21177e-12 -2.37284e-14
 -1.37778e-13 3.21177e-12 -1.37778e-13
 -1.33424e-13 3.21423e-12 1.16593e-14
 -1.36497e-13 3.21669e-12 1.57388e-13
 1.22969e-14 3.21929e-12 4.18994e-15
 -6.19908e-28 0 0
 1.16593e-14 3.21423e-12 -2.80945e-14
 1.16593e-14 3.21423e-12 -1.33424e-13
 -6.19908e-28 0 0
 1.22969e-14 3.21929e-12 1.5738e-13
 1.57372e-13 3.22189e-12 4.21248e-15
 1.5738e-13 3.21929e-12 -1.22699e-14
 1.57388e-13 3.21669e-12 -2.50327e-14
 1.57388e-13 3.21669e-12 -1.36497e-13
 1.5738e-13 3.21929e-12 1.22969e-14
 1.57372e-13 3.22189e-12 1.57372e-13
 3.26793e-15 -4.54502e-12 3.26793e-15
 3.1855e-15 -2.48931e-12 -1.05014e-14
 3.22869e-15 -4.47936e-12 6.08267e-14
 3.22869e-15 -4.47936e-12 -2.8861e-13
 3.1855e-15 -2.48931e-12 1.07011e-14
 3.26793e-15 -4.54502e-12 2.24073e-13
 -1.05014e-14 -2.48931e-12 3.1855e-15
 -1.02323e-14 -2.41852e-12 -1.02323e-14
 -9.98041e-15 -2.51876e-12 -2.01237e-14
 -9.98041e-15 -2.51876e-12 -2.2457e-13
 -1.02323e-14 -2.41852e-12 1.04237e-14
 -1.05014e-14 -2.48931e-12 2.41888e-13
 6.08267e-14 -4.47936e-12 3.22869e-15
 -2.01237e-14 -2.51876e-12 -9.98041e-15
 5.83082e-14 -4.42043e-12 5.83082e-14
 5.83082e-14 -4.42043e-12 -2.86624e-13
 -2.01237e-14 -2.51876e-12 1.0162e-14
 6.08267e-14 -4.47936e-12 2.24681e-13
 -2.8861e-13 -4.47936e-12 3.22869e-15
 -2.2457e-13 -2.51876e-12 -9.98041e-15
 -2.86624e-13 -4.42043e-12 5.83082e-14
 -2.86624e-13 -4.42043e-12 -2.86624e-13
 -2.2457e-13 -2.51876e-12 1.0162e-14
 -2.8861e-13 -4.47936e-12 2.24681e-13
 1.07011e-14 -2.48931e-12 3.1855e-15
 1.04237e-14 -2.41852e-12 -1.02323e-14
 1.0162e-14 -2.51876e-12 -2.01237e-14
 1.0162e-14 -2.51876e-12 -2.2457e-13
 1.04237e-14 -2.41852e-12 1.04237e-14
 1.07011e-14 -2.48931e-12 2.41888e-13
 2.24073e-13 -4.54502e-12 3.26793e-15
 2.41888e-13 -2.48931e-12 -1.05014e-14
 2.24681e-13 -4.47936e-12 6.08267e-14
 2.24681e-13 -4.47936e-12 -2.8861e-13
 2.41888e-13 -2.48931e-12 1.07011e-14
 2.24073e-13 -4.54502e-12 2.24073e-13
 4.01229e-15 2.40573e-12 4.01229e-15
 4.10931e-15 5.89872e-13 -1.35865e-14
 4.09548e-15 2.34403e-12 6.11525e-14
 4.09548e-15 2.34403e-12 -1.87274e-13
 4.10931e-15 5.89872e-13 1.33997e-14
 4.01229e-15 2.40573e-12 1.22478e-13
 -1.35865e-14 5.89872e-13 4.10931e-15
 -1.32551e-14 5.256e-13 -1.32551e-14
 -1.29086e-14 6.12246e-13 -2.6793e-14
 -1.29086e-14 6.12246e-13 -8.43955e-14
 -1.32551e-14 5.256e-13 1.30751e-14
 -1.35865e-14 5.89872e-13 1.06722e-13
 6.11525e-14 2.34403e-12 4.09548e-15
 -2.6793e-14 6.12246e-13 -1.29086e-14
 5.84533e-14 2.28857e-12 5.84533e-14
 5.84533e-14 2.28857e-12 -1.84083e-13
 -2.6793e-14 6.12246e-13 1.27365e-14
 6.11525e-14 2.34403e-12 1.21869e-13
 -1.87274e-13 2.34403e-12 4.09548e-15
 -8.43955e-14 6.12246e-13 -1.29086e-14
 -1.84083e-13 2.28857e-12 5.84533e-14
 -1.84083e-13 2.28857e-12 -1.84083e-13
 -8.43955e-14 6.12246e-13 1.27365e-14
 -1.87274e-13 2.34403e-12 1.21869e-13
 1.33997e-14 5.89872e-13 4.10931e-15
 1.30751e-14 5.256e-13 -1.32551e-14
 1.27365e-14 6.12246e-13 -2.6793e-14
 1.27365e-14 6.12246e-13 -8.43955e-14
 1.30751e-14 5.256e-13 1.30751e-14
 1.33997e-14 5.89872e-13 1.06722e-13
 1.22478e-13 2.40573e-12 4.01229e-15
 1.06722e-13 5.89872e-13 -1.35865e-14
 1.21869e-13 2.34403e-12 6.11525e-14
 1.21869e-13 2.34403e-12 -1.87274e-13
 1.06722e-13 5.89872e-13 1.33997e-14
 1.22478e-13 2.40573e-12 1.22478e-13
 3.22567e-15 2.66715e-12 3.22567e-15
 3.25462e-15 2.66636e-12 -1.11539e-14
 3.28357e-15 2.66557e-12 -2.19475e-14
 3.28357e-15 2.66557e-12 -2.07255e-13
 3.25462e-15 2.66636e-12 1.11633e-14
 3.22567e-15 2.66715e-12 2.25996e-13
 -1.11539e-14 2.66636e-12 3.25462e-15
 0 0 0
 -1.06072e-14 2.66478e-12 -2.50157e-14
 -1.06072e-14 2.66478e-12 -2.04194e-13
 0 0 0
 -1.11539e-14 2.66636e-12 2.25974e-13
 -2.19475e-14 2.66557e-12 3.28357e-15
 -2.50157e-14 2.66478e-12 -1.06072e-14
 -2.09222e-14 2.664e-12 -2.09222e-14
 -2.09222e-14 2.664e-12 -2.08296e-13
 -2.50157e-14 2.66478e-12 1.06164e-14
 -2.19475e-14 2.66557e-12 2.25953e-13
 -2.07255e-13 2.66557e-12 3.28357e-15
 -2.04194e-13 2.66478e-12 -1.06072e-14
 -2.08296e-13 2.664e-12 -2.09222e-14
 -2.08296e-13 2.664e-12 -2.08296e-13
 -2.04194e-13 2.66478e-12 1.06164e-14
 -2.07255e-13 2.66557e-12 2.25953e-13
 1.11633e-14 2.66636e-12 3.25462e-15
 0 0 0
 1.06164e-14 2.66478e-12 -2.50157e-14
 1.06164e-14 2.66478e-12 -2.04194e-13
 0 0 0
 1.11633e-14 2.66636e-12 2.25974e-13
 2.25996e-13 2.66715e-12 3.22567e-15
 2.25974e-13 2.66636e-12 -1.11539e-14
 2.25953e-13 2.66557e-12 -2.19475e-14
 2.25953e-13 2.66557e-12 -2.07255e-13
 2.25974e-13 2.66636e-12 1.11633e-14
 2.25996e-13 2.66715e-12 2.25996e-13
 2.56214e-15 -5.0969e-12 2.56214e-15
 2.57593e-15 -3.13924e-12 -9.22789e-15
 2.60334e-15 -5.02735e-12 6.04948e-14
 2.60334e-15 -5.02735e-12 -3.69021e-13
 2.57593e-15 -3.13924e-12 9.3927e-15
 2.56214e-15 -5.0969e-12 3.05596e-13
 -9.22789e-15 -3.13924e-12 2.57593e-15
 -8.99931e-15 -3.0682e-12 -8.99931e-15
 -8.78517e-15 -3.15976e-12 -1.71965e-14
 -8.78517e-15 -3.15976e-12 -3.05418e-13
 -8.99931e-15 -3.0682e-12 9.15868e-15
 -9.22789e-15 -3.13924e-12 3.20355e-13
 6.04948e-14 -5.02735e-12 2.60334e-15
 -1.71965e-14 -3.15976e-12 -8.78517e-15
 5.78961e-14 -4.96469e-12 5.78961e-14
 5.78961e-14 -4.96469e-12 -3.66935e-13
 -1.71965e-14 -3.15976e-12 8.93796e-15
 6.04948e-14 -5.02735e-12 3.06102e-13
 -3.69021e-13 -5.02735e-12 2.60334e-15
 -3.05418e-13 -3.15976e-12 -8.78517e-15
 -3.66935e-13 -4.96469e-12 5.78961e-14
 -3.66935e-13 -4.96469e-12 -3.66935e-13
 -3.05418e-13 -3.15976e-12 8.93796e-15
 -3.69021e-13 -5.02735e-12 3.06102e-13
 9.3927e-15 -3.13924e-12 2.57593e-15
 9.15868e-15 -3.0682e-12 -8.99931e-15
 8.93796e-15 -3.15976e-12 -1.71965e-14
 8.93796e-15 -3.15976e-12 -3.05418e-13
 9.15868e-15 -3.0682e-12 9.15868e-15
 9.3927e-15 -3.13924e-12 3.20355e-13
 3.05596e-13 -5.0969e-12 2.56214e-15
 3.20355e-13 -3.13924e-12 -9.22789e-15
 3.06102e-13 -5.02735e-12 6.04948e-14
 3.06102e-13 -5.02735e-12 -3.69021e-13
 3.20355e-13 -3.13924e-12 9.3927e-15
 3.05596e-13 -5.0969e-12 3.05596e-13
 2.38644e-15 3.58948e-12 2.38644e-15
 2.46681e-15 1.82356e-12 -1.19891e-14
 2.5349e-15 3.52382e-12 6.16612e-14
 2.5349e-15 3.52382e-12 -2.73824e-13
 2.46681e-15 1.82356e-12 1.18419e-14
 2.38644e-15 3.58948e-12 2.10111e-13
 -1.19891e-14 1.82356e-12 2.46681e-15
 -1.1725e-14 1.75809e-12 -1.1725e-14
 -1.1448e-14 1.83917e-12 -2.22685e-14
 -1.1448e-14 1.83917e-12 -1.77202e-13
 -1.1725e-14 1.75809e-12 1.15823e-14
 -1.19891e-14 1.82356e-12 1.9672e-13
 6.16612e-14 3.52382e-12 2.5349e-15
 -2.22685e-14 1.83917e-12 -1.1448e-14
 5.88397e-14 3.46455e-12 5.88397e-14
 5.88397e-14 3.46455e-12 -2.70551e-13
 -2.22685e-14 1.83917e-12 1.13108e-14
 6.16612e-14 3.52382e-12 2.09478e-13
 -2.73824e-13 3.52382e-12 2.5349e-15
 -1.77202e-13 1.83917e-12 -1.1448e-14
 -2.70551e-13 3.46455e-12 5.88397e-14
 -2.70551e-13 3.46455e-12 -2.70551e-13
 -1.77202e-13 1.83917e-12 1.13108e-14
 -2.73824e-13 3.52382e-12 2.09478e-13
 1.18419e-14 1.82356e-12 2.46681e-15
 1.15823e-14 1.75809e-12 -1.1725e-14
 1.13108e-14 1.83917e-12 -2.22685e-14
 1.13108e-14 1.83917e-12 -1.77202e-13
 1.15823e-14 1.75809e-12 1.15823e-14
 1.18419e-14 1.82356e-12 1.9672e-13
 2.10111e-13 3.58948e-12 2.38644e-15
 1.9672e-13 1.82356e-12 -1.19891e-14
 2.09478e-13 3.52382e-12 6.16612e-14
 2.09478e-13 3.52382e-12 -2.73824e-13
 1.9672e-13 1.82356e-12 1.18419e-14
 2.10111e-13 3.58948e-12 2.10111e-13
 2.08158e-15 2.07926e-12 2.08158e-15
 2.14066e-15 2.07843e-12 -9.86111e-15
 2.19974e-15 2.0776e-12 -1.83729e-14
 2.19974e-15 2.0776e-12 -2.89413e-13
 2.14066e-15 2.07843e-12 9.85866e-15
 2.08158e-15 2.07926e-12 3.05699e-13
 -9.86111e-15 2.07843e-12 2.14066e-15
 0 0 0
 -9.41565e-15 2.07683e-12 -2.14174e-14
 -9.41565e-15 2.07683e-12 -2.8638e-13
 0 0 0
 -9.86111e-15 2.07843e-12 3.05652e-13
 -1.83729e-14 2.0776e-12 2.19974e-15
 -2.14174e-14 2.07683e-12 -9.41565e-15
 -1.76092e-14 2.07606e-12 -1.76092e-14
 -1.76092e-14 2.07606e-12 -2.90199e-13
 -2.14174e-14 2.07683e-12 9.41403e-15
 -1.83729e-14 2.0776e-12 3.05605e-13
 -2.89413e-13 2.0776e-12 2.19974e-15
 -2.8638e-13 2.07683e-12 -9.41565e-15
 -2.90199e-13 2.07606e-12 -1.76092e-14
 -2.90199e-13 2.07606e-12 -2.90199e-13
 -2.8638e-13 2.07683e-12 9.41403e-15
 -2.89413e-13 2.0776e-12 3.05605e-13
 9.85866e-15 2.07843e-12 2.14066e-15
 -6.19908e-28 0 0
 9.41403e-15 2.07683e-12 -2.14174e-14
 9.41403e-15 2.07683e-12 -2.8638e-13
 -6.19908e-28 0 0
 9.85866e-15 2.07843e-12 3.05652e-13
 3.05699e-13 2.07926e-12 2.08158e-15
 3.05652e-13 2.07843e-12 -9.86111e-15
 3.05605e-13 2.0776e-12 -1.83729e-14
 3.05605e-13 2.0776e-12 -2.89413e-13
 3.05652e-13 2.07843e-12 9.85866e-15
 3.05699e-13 2.07926e-12 3.05699e-13
 1.79053e-15 -5.13878e-12 1.79053e-15
 1.86903e-15 -3.84994e-12 -8.09876e-15
 1.8848e-15 -5.09505e-12 6.0116e-14
 1.8848e-15 -5.09505e-12 -4.46895e-13
 1.86903e-15 -3.84994e-12 8.21618e-15
 1.79053e-15 -5.13878e-12 3.84695e-13
 -8.09876e-15 -3.84994e-12 1.86903e-15
 -7.9104e-15 -3.80431e-12 -7.9104e-15
 -7.73256e-15 -3.8658e-12 -1.44527e-14
 -7.73256e-15 -3.8658e-12 -3.83043e-13
 -7.9104e-15 -3.80431e-12 8.02485e-15
 -8.09876e-15 -3.84994e-12 3.95853e-13
 6.0116e-14 -5.09505e-12 1.8848e-15
 -1.44527e-14 -3.8658e-12 -7.73256e-15
 5.7461e-14 -5.05576e-12 5.7461e-14
 5.7461e-14 -5.05576e-12 -4.4466e-13
 -1.44527e-14 -3.8658e-12 7.84323e-15
 6.0116e-14 -5.09505e-12 3.85052e-13
 -4.46895e-13 -5.09505e-12 1.8848e-15
 -3.83043e-13 -3.8658e-12 -7.73256e-15
 -4.4466e-13 -5.05576e-12 5.7461e-14
 -4.4466e-13 -5.05576e-12 -4.4466e-13
 -3.83043e-13 -3.8658e-12 7.84323e-15
 -4.46895e-13 -5.09505e-12 3.85052e-13
 8.21618e-15 -3.84994e-12 1.86903e-15
 8.02485e-15 -3.80431e-12 -7.9104e-15
 7.84323e-15 -3.8658e-12 -1.44527e-14
 7.84323e-15 -3.8658e-12 -3.83043e-13
 8.02485e-15 -3.80431e-12 8.02485e-15
 8.21618e-15 -3.84994e-12 3.95853e-13
 3.84695e-13 -5.13878e-12 1.79053e-15
 3.95853e-13 -3.84994e-12 -8.09876e-15
 3.85052e-13 -5.09505e-12 6.0116e-14