<?xml version="1.0"?>
<!-- time 56.196-->
<VTKFile type="UnstructuredGrid" version="0.1" byte_order="LittleEndian">
<UnstructuredGrid>
<Piece NumberOfPoints="3240" NumberOfCells="0">
<Points>
  <DataArray type="Float32" Name="Position" NumberOfComponents="3" format="ascii">
	-333.333 2066.41 -333.333
	-333.333 2066.41 -200
	-333.333 2066.41 -66.6667
	-333.333 2066.41 66.6667
	-333.333 2066.41 200
	-333.333 2066.41 333.333
	-200 2066.41 -333.333
	-200 2065.59 -200
	-200 2066.41 -66.6667
	-200 2066.41 66.6667
	-200 2065.59 200
	-200 2066.41 333.333
	-66.6667 2066.41 -333.333
	-66.6667 2066.41 -200
	-66.6667 2066.41 -66.6667
	-66.6667 2066.41 66.6667
	-66.6667 2066.41 200
	-66.6667 2066.41 333.333
	66.6667 2066.41 -333.333
	66.6667 2066.41 -200
	66.6667 2066.41 -66.6667
	66.6667 2066.41 66.6667
	66.6667 2066.41 200
	66.6667 2066.41 333.333
	200 2066.41 -333.333
	200 2065.59 -200
	200 2066.41 -66.6667
	200 2066.41 66.6667
	200 2065.59 200
	200 2066.41 333.333
	333.333 2066.41 -333.333
	333.333 2066.41 -200
	333.333 2066.41 -66.6667
	333.333 2066.41 66.6667
	333.333 2066.41 200
	333.333 2066.41 333.333
	-333.333 2199.74 -333.333
	-333.333 2199.74 -200
	-333.333 2199.74 -66.6667
	-333.333 2199.74 66.6667
	-333.333 2199.74 200
	-333.333 2199.74 333.333
	-200 2199.74 -333.333
	-200 2199.13 -200
	-200 2199.74 -66.6667
	-200 2199.74 66.6667
	-200 2199.13 200
	-200 2199.74 333.333
	-66.6667 2199.74 -333.333
	-66.6667 2199.74 -200
	-66.6667 2199.74 -66.6667
	-66.6667 2199.74 66.6667
	-66.6667 2199.74 200
	-66.6667 2199.74 333.333
	66.6667 2199.74 -333.333
	66.6667 2199.74 -200
	66.6667 2199.74 -66.6667
	66.6667 2199.74 66.6667
	66.6667 2199.74 200
	66.6667 2199.74 333.333
	200 2199.74 -333.333
	200 2199.13 -200
	200 2199.74 -66.6667
	200 2199.74 66.6667
	200 2199.13 200
	200 2199.74 333.333
	333.333 2199.74 -333.333
	333.333 2199.74 -200
	333.333 2199.74 -66.6667
	333.333 2199.74 66.6667
	333.333 2199.74 200
	333.333 2199.74 333.333
	-333.333 2333.08 -333.333
	-333.333 2333.07 -200
	-333.333 2333.07 -66.6667
	-333.333 2333.07 66.6667
	-333.333 2333.07 200
	-333.333 2333.08 333.333
	-200 2333.07 -333.333
	-200 2332.75 -200
	-200 2333.07 -66.6667
	-200 2333.07 66.6667
	-200 2332.75 200
	-200 2333.07 333.333
	-66.6667 2333.07 -333.333
	-66.6667 2333.07 -200
	-66.6667 2333.07 -66.6667
	-66.6667 2333.07 66.6667
	-66.6667 2333.07 200
	-66.6667 2333.07 333.333
	66.6667 2333.07 -333.333
	66.6667 2333.07 -200
	66.6667 2333.07 -66.6667
	66.6667 2333.07 66.6667
	66.6667 2333.07 200
	66.6667 2333.07 333.333
	200 2333.07 -333.333
	200 2332.75 -200
	200 2333.07 -66.6667
	200 2333.07 66.6667
	200 2332.75 200
	200 2333.07 333.333
	333.333 2333.08 -333.333
	333.333 2333.07 -200
	333.333 2333.07 -66.6667
	333.333 2333.07 66.6667
	333.333 2333.07 200
	333.333 2333.08 333.333
	-333.333 2466.4 -333.333
	-333.333 2466.4 -200
	-333.333 2466.4 -66.6667
	-333.333 2466.4 66.6667
	-333.333 2466.4 200
	-333.333 2466.4 333.333
	-200 2466.4 -333.333
	-200 2466.08 -200
	-200 2466.4 -66.6667
	-200 2466.4 66.6667
	-200 2466.08 200
	-200 2466.4 333.333
	-66.6667 2466.4 -333.333
	-66.6667 2466.4 -200
	-66.6667 2466.4 -66.6667
	-66.6667 2466.4 66.6667
	-66.6667 2466.4 200
	-66.6667 2466.4 333.333
	66.6667 2466.4 -333.333
	66.6667 2466.4 -200
	66.6667 2466.4 -66.6667
	66.6667 2466.4 66.6667
	66.6667 2466.4 200
	66.6667 2466.4 333.333
	200 2466.4 -333.333
	200 2466.09 -200
	200 2466.4 -66.6667
	200 2466.4 66.6667
	200 2466.08 200
	200 2466.4 333.333
	333.333 2466.4 -333.333
	333.333 2466.4 -200
	333.333 2466.4 -66.6667
	333.333 2466.4 66.6667
	333.333 2466.4 200
	333.333 2466.4 333.333
	-333.333 2599.73 -333.333
	-333.333 2599.73 -200
	-333.333 2599.73 -66.6667
	-333.333 2599.73 66.6667
	-333.333 2599.73 200
	-333.333 2599.73 333.333
	-200 2599.73 -333.333
	-200 2599.43 -200
	-200 2599.73 -66.6667
	-200 2599.73 66.6667
	-200 2599.44 200
	-200 2599.73 333.333
	-66.6667 2599.73 -333.333
	-66.6667 2599.73 -200
	-66.6667 2599.73 -66.6667
	-66.6667 2599.73 66.6667
	-66.6667 2599.73 200
	-66.6667 2599.73 333.333
	66.6667 2599.73 -333.333
	66.6667 2599.73 -200
	66.6667 2599.73 -66.6667
	66.6667 2599.73 66.6667
	66.6667 2599.73 200
	66.6667 2599.73 333.333
	200 2599.73 -333.333
	200 2599.43 -200
	200 2599.73 -66.6667
	200 2599.73 66.6667
	200 2599.43 200
	200 2599.73 333.333
	333.333 2599.73 -333.333
	333.333 2599.73 -200
	333.333 2599.73 -66.6667
	333.333 2599.73 66.6667
	333.333 2599.73 200
	333.333 2599.73 333.333
	-333.333 2733.06 -333.333
	-333.333 2733.06 -200
	-333.333 2733.06 -66.6667
	-333.333 2733.06 66.6667
	-333.333 2733.06 200
	-333.333 2733.06 333.333
	-200 2733.06 -333.333
	-200 2732.77 -200
	-200 2733.06 -66.6667
	-200 2733.06 66.6667
	-200 2732.77 200
	-200 2733.06 333.333
	-66.6667 2733.06 -333.333
	-66.6667 2733.06 -200
	-66.6667 2733.06 -66.6667
	-66.6667 2733.06 66.6667
	-66.6667 2733.06 200
	-66.6667 2733.06 333.333
	66.6667 2733.06 -333.333
	66.6667 2733.06 -200
	66.6667 2733.06 -66.6667
	66.6667 2733.06 66.6667
	66.6667 2733.06 200
	66.6667 2733.06 333.333
	200 2733.06 -333.333
	200 2732.77 -200
	200 2733.06 -66.6667
	200 2733.06 66.6667
	200 2732.77 200
	200 2733.06 333.333
	333.333 2733.06 -333.333
	333.333 2733.06 -200
	333.333 2733.06 -66.6667
	333.333 2733.06 66.6667
	333.333 2733.06 200
	333.333 2733.06 333.333
	-333.333 2866.39 -333.333
	-333.333 2866.39 -200
	-333.333 2866.39 -66.6667
	-333.333 2866.39 66.6667
	-333.333 2866.39 200
	-333.333 2866.39 333.333
	-200 2866.39 -333.333
	-200 2866.12 -200
	-200 2866.39 -66.6667
	-200 2866.39 66.6667
	-200 2866.12 200
	-200 2866.39 333.333
	-66.6667 2866.39 -333.333
	-66.6667 2866.39 -200
	-66.6667 2866.39 -66.6667
	-66.6667 2866.39 66.6667
	-66.6667 2866.39 200
	-66.6667 2866.39 333.333
	66.6667 2866.39 -333.333
	66.6667 2866.39 -200
	66.6667 2866.39 -66.6667
	66.6667 2866.39 66.6667
	66.6667 2866.39 200
	66.6667 2866.39 333.333
	200 2866.39 -333.333
	200 2866.12 -200
	200 2866.39 -66.6667
	200 2866.39 66.6667
	200 2866.12 200
	200 2866.39 333.333
	333.333 2866.39 -333.333
	333.333 2866.39 -200
	333.333 2866.39 -66.6667
	333.333 2866.39 66.6667
	333.333 2866.39 200
	333.333 2866.39 333.333
	-333.333 2999.72 -333.333
	-333.333 2999.72 -200
	-333.333 2999.72 -66.6667
	-333.333 2999.72 66.6667
	-333.333 2999.72 200
	-333.333 2999.72 333.333
	-200 2999.72 -333.333
	-200 2999.47 -200
	-200 2999.72 -66.6667
	-200 2999.72 66.6667
	-200 2999.47 200
	-200 2999.72 333.333
	-66.6667 2999.72 -333.333
	-66.6667 2999.72 -200
	-66.6667 2999.72 -66.6667
	-66.6667 2999.72 66.6667
	-66.6667 2999.72 200
	-66.6667 2999.72 333.333
	66.6667 2999.72 -333.333
	66.6667 2999.72 -200
	66.6667 2999.72 -66.6667
	66.6667 2999.72 66.6667
	66.6667 2999.72 200
	66.6667 2999.72 333.333
	200 2999.72 -333.333
	200 2999.47 -200
	200 2999.72 -66.6667
	200 2999.72 66.6667
	200 2999.47 200
	200 2999.72 333.333
	333.333 2999.72 -333.333
	333.333 2999.72 -200
	333.333 2999.72 -66.6667
	333.333 2999.72 66.6667
	333.333 2999.72 200
	333.333 2999.72 333.333
	-333.333 3133.06 -333.333
	-333.333 3133.05 -200
	-333.333 3133.06 -66.6667
	-333.333 3133.06 66.6667
	-333.333 3133.05 200
	-333.333 3133.06 333.333
	-200 3133.05 -333.333
	-200 3132.81 -200
	-200 3133.05 -66.6667
	-200 3133.05 66.6667
	-200 3132.81 200
	-200 3133.05 333.333
	-66.6667 3133.06 -333.333
	-66.6667 3133.05 -200
	-66.6667 3133.06 -66.6667
	-66.6667 3133.06 66.6667
	-66.6667 3133.05 200
	-66.6667 3133.06 333.333
	66.6667 3133.06 -333.333
	66.6667 3133.05 -200
	66.6667 3133.06 -66.6667
	66.6667 3133.06 66.6667
	66.6667 3133.05 200
	66.6667 3133.06 333.333
	200 3133.05 -333.333
	200 3132.81 -200
	200 3133.05 -66.6667
	200 3133.05 66.6667
	200 3132.81 200
	200 3133.05 333.333
	333.333 3133.06 -333.333
	333.333 3133.05 -200
	333.333 3133.06 -66.6667
	333.333 3133.06 66.6667
	333.333 3133.05 200
	333.333 3133.06 333.333
	-333.333 3266.39 -333.333
	-333.333 3266.38 -200
	-333.333 3266.39 -66.6667
	-333.333 3266.39 66.6667
	-333.333 3266.38 200
	-333.333 3266.39 333.333
	-200 3266.38 -333.333
	-200 3266.15 -200
	-200 3266.38 -66.6667
	-200 3266.38 66.6667
	-200 3266.15 200
	-200 3266.38 333.333
	-66.6667 3266.39 -333.333
	-66.6667 3266.38 -200
	-66.6667 3266.39 -66.6667
	-66.6667 3266.39 66.6667
	-66.6667 3266.38 200
	-66.6667 3266.39 333.333
	66.6667 3266.39 -333.333
	66.6667 3266.38 -200
	66.6667 3266.39 -66.6667
	66.6667 3266.39 66.6667
	66.6667 3266.38 200
	66.6667 3266.39 333.333
	200 3266.38 -333.333
	200 3266.15 -200
	200 3266.38 -66.6667
	200 3266.38 66.6667
	200 3266.15 200
	200 3266.38 333.333
	333.333 3266.39 -333.333
	333.333 3266.38 -200
	333.333 3266.39 -66.6667
	333.333 3266.39 66.6667
	333.333 3266.38 200
	333.333 3266.39 333.333
	-333.333 3399.72 -333.333
	-333.333 3399.71 -200
	-333.333 3399.72 -66.6667
	-333.333 3399.72 66.6667
	-333.333 3399.71 200
	-333.333 3399.72 333.333
	-200 3399.71 -333.333
	-200 3399.49 -200
	-200 3399.71 -66.6667
	-200 3399.71 66.6667
	-200 3399.49 200
	-200 3399.71 333.333
	-66.6667 3399.72 -333.333
	-66.6667 3399.71 -200
	-66.6667 3399.72 -66.6667
	-66.6667 3399.72 66.6667
	-66.6667 3399.71 200
	-66.6667 3399.72 333.333
	66.6667 3399.72 -333.333
	66.6667 3399.71 -200
	66.6667 3399.72 -66.6667
	66.6667 3399.72 66.6667
	66.6667 3399.71 200
	66.6667 3399.72 333.333
	200 3399.71 -333.333
	200 3399.49 -200
	200 3399.71 -66.6667
	200 3399.71 66.6667
	200 3399.49 200
	200 3399.71 333.333
	333.333 3399.72 -333.333
	333.333 3399.71 -200
	333.333 3399.72 -66.6667
	333.333 3399.72 66.6667
	333.333 3399.71 200
	333.333 3399.72 333.333
	-333.333 3533.05 -333.333
	-333.333 3533.05 -200
	-333.333 3533.05 -66.6667
	-333.333 3533.05 66.6667
	-333.333 3533.05 200
	-333.333 3533.05 333.333
	-200 3533.05 -333.333
	-200 3532.84 -200
	-200 3533.05 -66.6667
	-200 3533.05 66.6667
	-200 3532.84 200
	-200 3533.05 333.333
	-66.6667 3533.05 -333.333
	-66.6667 3533.05 -200
	-66.6667 3533.05 -66.6667
	-66.6667 3533.05 66.6667
	-66.6667 3533.05 200
	-66.6667 3533.05 333.333
	66.6667 3533.05 -333.333
	66.6667 3533.05 -200
	66.6667 3533.05 -66.6667
[...]
<PointData  Vectors="vector">
  <DataArray type="Float32" Name="Velocity" NumberOfComponents="3" format="ascii">
 2.85058e-06 -0.000918699 2.59706e-06
 8.65998e-06 2.28922e-05 -2.93578e-06
 2.20828e-06 -0.000957973 7.28478e-07
 2.31379e-06 -0.000948456 -5.68159e-07
 7.8285e-06 4.2305e-05 3.79476e-06
 1.68349e-06 -0.000914958 -2.0551e-06
 -3.11385e-06 3.01165e-05 8.75839e-06
 8.24491e-06 -0.0183704 8.29025e-06
 -3.76924e-06 -5.51768e-06 -7.11793e-07
 -3.76558e-06 2.11308e-05 6.51989e-07
 7.74717e-06 -0.0183454 -8.26889e-06
 -3.67178e-06 4.04243e-05 -8.59901e-06
 4.48254e-07 -0.000952923 2.14962e-06
 -6.07813e-07 1.46287e-06 -3.76222e-06
 3.766e-07 -0.000991241 -2.67261e-07
 6.40704e-07 -0.000977344 -3.76727e-07
 -8.84821e-07 1.90081e-05 3.55565e-06
 1.44427e-06 -0.000949911 -2.61243e-06
 2.38352e-07 -0.000979278 2.08801e-06
 7.79079e-07 -7.19694e-06 -4.1095e-06
 -6.53091e-07 -0.00101669 1.34503e-06
 -3.76135e-07 -0.000988352 -1.77242e-06
 3.66058e-07 3.40522e-07 3.78934e-06
 -2.73487e-06 -0.000956977 -2.48436e-06
 3.75963e-06 2.69688e-05 8.27085e-06
 -8.06849e-06 -0.0184333 7.76228e-06
 3.43508e-06 -8.52178e-06 -1.21669e-06
 2.97849e-06 9.61188e-06 3.58824e-07
 -8.44771e-06 -0.0183732 -8.61896e-06
 2.56108e-06 2.84354e-05 -9.13729e-06
 -2.18519e-06 -0.000941065 1.7673e-06
 -8.45457e-06 2.54574e-05 -4.40481e-06
 -2.48262e-06 -0.000979919 5.79737e-07
 -2.52925e-06 -0.000952376 -1.98903e-06
 -8.77306e-06 3.73979e-05 3.10943e-06
 -2.87545e-06 -0.000918171 -3.08676e-06
 -2.29664e-08 0.00100555 -1.78548e-07
 6.36552e-06 -0.000618736 -1.84615e-06
 4.79663e-08 0.00111675 -2.78405e-06
 -8.77387e-08 0.00112079 1.71543e-06
 6.60943e-06 -0.0005979 6.54842e-07
 6.60804e-07 0.00100202 -9.29265e-07
 -1.64706e-06 -0.000612546 6.21135e-06
 6.24894e-06 -0.00131418 6.17717e-06
 -1.23503e-06 -0.000511208 -1.94082e-06
 -1.18843e-06 -0.000478465 1.30884e-06
 5.5633e-06 -0.0012746 -6.01849e-06
 -7.38585e-07 -0.000598327 -6.9404e-06
 -2.4537e-06 0.00111721 5.33946e-08
 -1.59038e-06 -0.000505531 -1.34831e-06
 -1.26632e-06 0.00121447 -2.14145e-06
 -2.29471e-06 0.00120279 1.95187e-06
 -1.39628e-06 -0.000479404 1.08321e-06
 -2.31874e-06 0.00112352 -3.23895e-07
 2.01095e-06 0.00109414 -3.6175e-07
 1.57148e-06 -0.000515618 -1.76329e-06
 1.65971e-06 0.00117515 -2.07972e-06
 2.18539e-06 0.00121252 1.42395e-06
 1.7363e-06 -0.000504689 1.12797e-06
 3.09179e-06 0.00111987 -2.55588e-07
 1.13794e-06 -0.000626761 6.38489e-06
 -5.95455e-06 -0.00120154 5.61569e-06
 1.6261e-06 -0.000516619 -1.77563e-06
 1.24966e-06 -0.000498056 1.56366e-06
 -6.25331e-06 -0.00132923 -6.48237e-06
 1.7606e-06 -0.000615926 -6.5759e-06
 -4.39716e-07 0.000977089 3.77624e-07
 -6.42236e-06 -0.000627949 -1.26197e-06
 2.88827e-07 0.00109547 -2.12104e-06
 6.34428e-08 0.0011189 2.35709e-06
 -6.10892e-06 -0.000609377 1.52131e-06
 2.18644e-07 0.00100551 -1.54764e-07
 -6.9053e-06 -0.00118879 -7.66536e-06
 1.5517e-06 -0.00173217 -2.21803e-06
 -4.10444e-06 -0.00125519 -3.05885e-06
 -5.14917e-06 -0.00121549 4.90961e-07
 2.33722e-06 -0.00168221 -3.61525e-07
 -4.39565e-06 -0.00114863 5.10488e-06
 -1.7945e-06 -0.00173412 1.11012e-06
 5.13929e-06 -0.00630664 4.70171e-06
 -1.87724e-06 -0.00175134 -4.53196e-07
 -1.81506e-06 -0.00169757 -9.1088e-07
 6.09523e-06 -0.00790929 -6.02797e-06
 -1.09728e-07 -0.00168107 -2.38382e-06
 -2.51257e-06 -0.00125711 -5.55291e-06
 2.04001e-07 -0.0017542 -1.58216e-06
 -1.0258e-06 -0.00130339 -1.66551e-06
 -1.34038e-06 -0.00124389 1.48146e-06
 1.22744e-06 -0.00169668 1.43704e-06
 -1.91237e-07 -0.00121244 5.60061e-06
 1.03018e-06 -0.00123802 -5.39179e-06
 -4.65295e-07 -0.00173066 -2.54683e-06
 1.90677e-06 -0.00126284 -1.94241e-06
 1.69864e-06 -0.00130988 1.13708e-06
 2.67469e-07 -0.00175448 1.68388e-06
 3.03879e-06 -0.00125684 4.52932e-06
 3.10313e-07 -0.00171992 1.90696e-06
 -5.39098e-06 -0.00593346 5.43186e-06
 2.84105e-06 -0.00173005 3.91111e-07
 2.11849e-06 -0.00175678 4.69486e-09
 -4.64281e-06 -0.00629831 -5.04768e-06
 2.90891e-06 -0.00173607 -1.52167e-06
 5.46768e-06 -0.00117177 -5.68134e-06
 -1.80886e-06 -0.0017199 -8.24016e-08
 5.08815e-06 -0.00123588 -1.09455e-06
 5.06925e-06 -0.00125862 2.72234e-06
 -9.18575e-07 -0.00173816 1.64777e-06
 6.93414e-06 -0.00119168 7.35887e-06
 -1.23408e-05 0.00257447 -1.27942e-05
 2.12958e-06 -0.000705623 1.78128e-06
 -1.08679e-05 0.00238353 -1.92737e-06
 -1.14265e-05 0.0024015 -2.67587e-07
 2.82577e-06 -0.000734096 -3.83815e-06
 -1.04392e-05 0.00258406 1.06037e-05
 2.15366e-06 -0.00071648 1.55154e-06
 4.64487e-06 -0.0191297 4.06731e-06
 3.09785e-06 -0.000749022 -2.17418e-06
 2.89458e-06 -0.000789814 9.26561e-07
 5.31643e-06 -0.018111 -5.26314e-06
 3.99677e-06 -0.000732238 -2.71004e-06
 -3.62472e-07 0.00238822 -1.14926e-05
 -1.62337e-06 -0.000760407 2.50307e-06
 1.2088e-07 0.0022059 -1.98027e-08
 -1.10848e-07 0.00221556 -2.95099e-07
 -7.98501e-07 -0.000786948 -2.71121e-06
 -6.33364e-07 0.00240281 1.12096e-05
 -6.36649e-07 0.00242131 -1.1712e-05
 1.56948e-06 -0.000752247 2.17373e-06
 7.27823e-07 0.00223372 -1.32584e-06
 4.03319e-07 0.0022195 4.21388e-07
 2.00206e-06 -0.000745875 -3.05279e-06
 2.80773e-06 0.00239509 1.0811e-05
 -3.12573e-06 -0.000709397 2.15278e-06
 -4.68607e-06 -0.0195031 4.7333e-06
 -2.19705e-06 -0.000749614 -1.42229e-06
 -2.72411e-06 -0.000759682 1.42317e-06
 -4.12392e-06 -0.0191584 -4.70632e-06
 -1.85106e-06 -0.000696881 -2.08416e-06
 1.136e-05 0.0025986 -1.11481e-05
 -2.17e-06 -0.000707338 3.11723e-06
 1.17113e-05 0.00241743 -2.33119e-07
 1.16933e-05 0.00239607 1.23741e-06
 -1.64548e-06 -0.000710458 -2.09132e-06
 1.26165e-05 0.00257856 1.21127e-05
 -2.59287e-06 -0.000133493 -2.41841e-06
 5.34654e-06 0.00149705 -1.61591e-06
 -2.06713e-06 0.000120241 -1.06127e-06
 -2.47621e-06 7.70233e-05 3.23746e-07
 5.55158e-06 0.00146474 1.0012e-06
 -1.72898e-06 -0.000169657 1.66948e-06
 -2.72076e-06 0.00148888 5.56269e-06
 2.88054e-06 -0.0161625 2.34513e-06
 -1.80198e-06 0.00155278 -6.48804e-07
 -2.29378e-06 0.00150286 7.11784e-07
 3.4696e-06 -0.0160518 -3.46097e-06
 -9.35483e-07 0.00146338 -5.57611e-06
 -5.97486e-07 0.0001187 -1.89611e-06
 -1.24255e-06 0.00154534 -1.89051e-06
 -7.93355e-08 0.000328652 3.53003e-07
 -3.34389e-07 0.000292875 3.50631e-07
 -8.93608e-07 0.00150209 2.29799e-06
 -2.21412e-07 7.85341e-05 2.37107e-06
 -5.43251e-07 0.000108474 -2.31109e-06
 7.14173e-07 0.00155224 -2.06638e-06
 1.42681e-07 0.000328307 -1.25307e-07
 -5.23414e-07 0.000337234 -1.05566e-07
 6.55937e-07 0.00154521 1.62982e-06
 7.21941e-07 0.000129232 1.9569e-06
 1.6054e-06 0.00150168 5.68125e-06
 -2.89683e-06 -0.0162289 3.00475e-06
 1.87882e-06 0.00155285 -4.78068e-07
 1.52805e-06 0.00153861 7.89514e-07
 -2.39104e-06 -0.0161707 -2.96088e-06
 1.39272e-06 0.00149302 -5.37378e-06
 1.4784e-06 -0.000141424 -1.64953e-06
 -5.87356e-06 0.00150247 -1.3344e-06
 2.14239e-06 0.00010932 1.22765e-07
 1.70878e-06 0.000125274 8.67465e-07
 -5.72326e-06 0.00148633 2.18709e-06
 2.24759e-06 -0.000126061 2.55407e-06
 -7.82695e-07 0.00198341 -9.3613e-08
 5.99537e-06 0.00301271 -4.34362e-06
 -4.54975e-07 0.00182922 1.75826e-06
 -9.44747e-07 0.0018481 -1.35722e-06
 5.82373e-06 0.00301878 4.76458e-06
 -5.98533e-07 0.00201377 4.78635e-07
 -5.11982e-06 0.00301197 6.67155e-06
 6.08513e-06 -0.01411 6.82068e-06
 -4.74907e-06 0.00301701 4.71986e-07
 -5.2475e-06 0.00301964 3.01509e-07
 5.91001e-06 -0.0138872 -6.04425e-06
 -4.95147e-06 0.00301355 -5.90599e-06
 8.15997e-07 0.00182463 2.60915e-07
 -3.39587e-07 0.00301798 -3.99399e-06
 1.07135e-06 0.00172304 1.96653e-06
 6.73302e-07 0.00175634 -8.65267e-07
 -4.69331e-07 0.00301501 5.08065e-06
 1.21093e-06 0.00184314 7.94508e-07
 -2.05654e-06 0.00183306 -1.77339e-07
 -5.77268e-07 0.00302067 -4.45258e-06
 -1.68021e-06 0.0017406 1.57776e-06
 -2.20343e-06 0.00171975 -1.39982e-06
 -7.46327e-07 0.00300817 4.57299e-06
 -1.97182e-06 0.00182787 3.39174e-07
 3.86418e-06 0.00301769 6.49505e-06
 -6.98137e-06 -0.014123 6.6942e-06
 4.15416e-06 0.00301933 3.68142e-07
 3.66588e-06 0.00301559 1.06895e-07
 -7.10204e-06 -0.0141203 -6.21099e-06
 4.12866e-06 0.00299996 -6.00335e-06
 -4.66154e-07 0.0019983 1.23543e-07
 -6.87178e-06 0.00301695 -4.18539e-06
 -1.58746e-07 0.00183017 1.9972e-06
 -5.53798e-07 0.00182252 -1.0885e-06
 -6.98356e-06 0.00300707 5.02839e-06
 -1.72782e-07 0.00198723 7.33494e-07
 -1.69844e-06 0.00485542 -1.21848e-06
 1.86656e-06 0.00205254 -5.5188e-06
 -1.68979e-06 0.00487627 -2.36276e-07
 -1.52924e-06 0.00489321 5.18348e-07
 2.32324e-06 0.00201616 5.46797e-06
 -1.26238e-06 0.00484754 1.29132e-06
 -6.218e-06 0.00204838 2.53166e-06
 2.6009e-06 -0.0147064 2.92431e-06
 -5.6966e-06 0.00211367 -2.00182e-06
 -5.56251e-06 0.00206888 2.17684e-06
 3.00113e-06 -0.0147834 -2.74736e-06
 -6.02864e-06 0.00201656 -2.34242e-06
 -1.41258e-06 0.00488618 -1.08974e-06
 -2.13568e-06 0.00211073 -4.68786e-06
 -1.68815e-06 0.00490309 1.40173e-06
 -1.82822e-06 0.00488677 -1.08286e-06
 -1.59128e-06 0.00207122 4.95866e-06
 -1.54049e-06 0.00488516 1.41244e-06
 1.17906e-07 0.00488644 -1.02596e-06
 8.98186e-07 0.00208992 -4.87963e-06
 -2.81594e-07 0.00486604 -3.92717e-07
 8.29115e-07 0.00488507 1.87084e-06
 9.89446e-07 0.00211353 4.78086e-06
 1.05398e-06 0.00485698 1.73697e-06
 4.85616e-06 0.00203111 2.70431e-06
 -3.87554e-06 -0.0147175 3.22424e-06
 5.38778e-06 0.00209126 -1.69507e-06
 5.0417e-06 0.00210926 2.49842e-06
 -3.61814e-06 -0.0146741 -2.39201e-06
 5.53465e-06 0.00204922 -1.84298e-06
 3.43839e-07 0.00484671 -6.87799e-07
 -3.1717e-06 0.00203213 -4.50006e-06
 4.65378e-07 0.00487672 1.75782e-06
 7.33554e-07 0.00486458 -8.1793e-07
 -2.95431e-06 0.00204498 5.42366e-06
 7.41167e-07 0.00483344 1.62441e-06
 -1.0345e-06 0.00111173 -8.15979e-07
 3.46883e-06 0.00169949 -2.32543e-06
 -1.28857e-06 0.00136399 1.07341e-06
 -1.26853e-06 0.00137207 -9.09921e-07
 3.30228e-06 0.0016932 2.54321e-06
 -1.30576e-06 0.00109812 1.00871e-06
 -2.52185e-06 0.00169806 3.75169e-06
 1.84323e-06 -0.0133358 1.983e-06
 -2.64779e-06 0.00166476 -1.4712e-06
 -2.5884e-06 0.00165069 1.55115e-06
 2.28897e-06 -0.0133466 -1.93113e-06
 -2.51537e-06 0.00169687 -3.75607e-06
 9.28119e-07 0.00137783 -1.60298e-06
 -1.54485e-06 0.00166246 -2.27763e-06
 4.29662e-07 0.00159006 -5.09226e-07
 8.04868e-07 0.00159755 3.58785e-07
 -1.54844e-06 0.00165517 1.91099e-06
 2.25547e-07 0.00137675 1.31704e-06
 -1.11025e-06 0.0013734 -1.16911e-06
 1.15714e-06 0.00165465 -2.49799e-06
 -1.04648e-06 0.00158844 9.54354e-07
 -1.31108e-06 0.00161128 -1.11143e-06
 8.5565e-07 0.00167997 2.36852e-06
 -1.20691e-06 0.00139191 1.07507e-06
 2.36978e-06 0.0016894 3.60418e-06
 -2.91183e-06 -0.0133485 2.27676e-06
 2.0308e-06 0.00165616 -1.93618e-06
 2.1346e-06 0.00167362 1.59824e-06
 -2.80777e-06 -0.0133612 -1.59575e-06
 1.68391e-06 0.00171206 -3.87246e-06
 8.34961e-07 0.00111241 -1.67265e-06
 -3.92553e-06 0.00169053 -2.26989e-06
 6.28506e-07 0.00137074 -5.24016e-07
 7.54044e-07 0.00139114 -1.03408e-07
 -4.05517e-06 0.00170685 1.78289e-06
 3.79558e-07 0.00112238 1.15656e-06
 -9.01795e-07 -8.58342e-05 -9.02198e-07
 3.54587e-06 0.00248879 -1.90935e-06
 -1.38628e-06 -0.000190789 1.14649e-07
 -1.49566e-06 -0.000201485 1.59305e-07
 2.97549e-06 0.00252097 2.1807e-06
 -1.91069e-06 -7.47256e-05 1.13055e-06
 -1.94818e-06 0.00249958 3.45001e-06
 3.8803e-06 -0.011367 3.61288e-06
 -2.39798e-06 0.00242078 -3.25631e-07
 -2.51713e-06 0.00247395 1.06656e-07
 3.35954e-06 -0.0113344 -3.81952e-06
 -2.91906e-06 0.00251532 -3.64036e-06
 4.08358e-07 -0.000201025 -1.60701e-06
 6.63298e-09 0.00242898 -2.75215e-06
 -5.25055e-08 -0.000285414 -4.9822e-07
 -1.38216e-07 -0.000273477 -1.70834e-07
 -4.41813e-07 0.00246658 2.08963e-06
 -5.47515e-07 -0.000201427 8.87311e-07
 2.80913e-07 -0.00019557 -1.39371e-06
 2.70065e-07 0.00246399 -2.52366e-06
 -1.49052e-07 -0.000256362 -4.18049e-07
 -1.78947e-07 -0.00028157 -3.7617e-07
 -3.15186e-07 0.0024033 1.74699e-06
 -7.1273e-07 -0.000192577 6.09987e-07
 2.68911e-06 0.00252781 2.95852e-06
 -3.62058e-06 -0.0113913 3.11687e-06
 2.21359e-06 0.00245808 -8.32311e-07
 2.23555e-06 0.00241714 -4.043e-07
 -4.12555e-06 -0.011387 -4.34383e-06
 1.70894e-06 0.00247052 -4.17677e-06
 1.58384e-06 -7.6152e-05 -1.99451e-06
 -3.30761e-06 0.00252319 -3.22511e-06
 1.16366e-06 -0.000193383 -9.60454e-07
 1.16979e-06 -0.000194799 -7.23561e-07
 -3.75664e-06 0.00248511 1.55343e-06
 6.70088e-07 -8.46948e-05 3.12753e-07
 2.73672e-07 0.00350337 2.8528e-07
 2.4758e-06 0.000939359 -8.0875e-09
 -1.4122e-07 0.00323702 -2.23648e-07
 -2.66927e-07 0.00321408 1.94689e-07
 1.97784e-06 0.000924499 -4.58151e-08
 -5.60989e-07 0.00351356 -2.95842e-07
 -1.36596e-09 0.000945013 2.0669e-06
 2.97543e-06 -0.0117355 2.64277e-06
 -4.4231e-07 0.00107684 -6.80062e-07
 -6.11136e-07 0.00107826 3.10782e-07
 2.4789e-06 -0.0116668 -3.01634e-06
 -8.86609e-07 0.000929873 -2.4387e-06
 -1.09318e-06 0.00321752 -4.05686e-08
 -4.67699e-07 0.00108008 -3.16122e-07
 1.35284e-08 0.00297775 -2.26496e-07
 -2.26548e-07 0.00295302 -5.03341e-07
 -9.37359e-07 0.00108455 -3.73176e-07
 -6.19923e-07 0.00320645 -6.62999e-07
 1.46584e-06 0.00323239 -2.74704e-07
 4.89217e-07 0.00106817 -6.6747e-07
 -3.58855e-07 0.0029966 -1.51819e-06
 -3.25308e-07 0.00295995 7.05687e-07
 6.49794e-08 0.00109108 -4.1342e-07
 -6.0447e-07 0.00320085 -6.50406e-07
 3.32759e-07 0.00091905 1.77767e-06
 -2.9426e-06 -0.0117176 2.29429e-06
 1.96371e-07 0.00106728 -1.05138e-06
 9.28281e-08 0.00109185 -2.30105e-07
 -3.35349e-06 -0.0117218 -3.56961e-06
 -2.94348e-07 0.000954675 -3.04425e-06
 1.07771e-07 0.00351655 -5.61127e-07
 -2.43153e-06 0.000918796 -7.58742e-07
 -1.44686e-07 0.00323926 -1.08912e-06
 -2.54016e-07 0.00320806 -5.06843e-07
 -2.85645e-06 0.000953351 -8.25501e-07
 -6.36296e-07 0.0034947 -1.02834e-06
 -6.07869e-07 0.00522924 -7.2892e-07
 2.37485e-06 -0.00151647 -3.11043e-07
 -7.67918e-07 0.0050635 -4.1556e-07
 -7.59588e-07 0.00506174 9.55214e-07
 2.2795e-06 -0.00150617 8.5243e-07
 -9.05716e-07 0.00523006 1.28086e-06
 -4.02252e-07 -0.00151504 2.36407e-06
 2.2405e-06 -0.0139909 1.97125e-06
 -5.59501e-07 -0.00139814 1.09238e-07
 -5.44831e-07 -0.0013805 2.42486e-07
 1.72311e-06 -0.0140316 -2.23068e-06
 -6.89932e-07 -0.00149897 -2.00467e-06
 7.31148e-07 0.00506384 -9.63199e-07
 2.14721e-08 -0.00139716 -4.24273e-07
 4.71676e-07 0.00490968 -6.69915e-07
 5.06535e-07 0.00489525 8.90371e-07
 -9.78952e-08 -0.00137158 6.42271e-07
 3.60094e-07 0.00507647 1.18483e-06
 -2.41442e-07 0.00506041 -7.34236e-07
 3.1027e-07 -0.00140534 -3.94573e-07
 -2.8786e-07 0.00490243 -4.03708e-07
 -1.87833e-07 0.00491527 7.31876e-07
 2.73879e-07 -0.00137751 7.20038e-07
 -3.73154e-07 0.00507696 1.06531e-06
 9.20948e-07 -0.00153262 2.33602e-06
 -2.14626e-06 -0.0140018 1.6259e-06
 7.80684e-07 -0.00140257 5.39856e-08
 8.5312e-07 -0.00138113 1.70333e-07
 -2.53351e-06 -0.0140208 -2.85285e-06
 6.58991e-07 -0.00149652 -2.09851e-06
 1.14288e-06 0.00522567 -9.88771e-07
 -2.03404e-06 -0.00153064 -6.15491e-07
 9.87218e-07 0.00506114 -7.10405e-07
 1.08019e-06 0.0050638 7.26373e-07
 -2.0972e-06 -0.00150122 6.23647e-07
 8.90244e-07 0.0052336 9.93658e-07
 -1.28407e-06 0.00291492 -1.02645e-06
 1.62762e-06 -0.00065083 -1.63344e-06
 -1.27925e-06 0.00296404 1.19424e-07
 -1.11803e-06 0.00293548 1.01048e-06
 1.76419e-06 -0.000629813 2.49424e-06
 -1.15677e-06 0.0028861 2.04544e-06
 -1.97882e-06 -0.000654471 2.04003e-06
 2.79908e-06 -0.00820624 3.11521e-06
 -2.03751e-06 -0.000635529 2.76578e-08
 -1.75719e-06 -0.000612263 9.50667e-07
 2.9656e-06 -0.00825563 -2.13497e-06
 -1.78366e-06 -0.00064005 -1.05802e-06
 8.50228e-08 0.00296071 -9.82214e-07
 -2.26364e-07 -0.000636481 -1.6522e-06
 1.31806e-09 0.00299283 3.79059e-07
 1.50426e-07 0.00295398 6.16841e-07
 -8.2968e-08 -0.000627017 2.56262e-06
 5.30191e-08 0.00293041 1.97273e-06
 8.10972e-07 0.0029539 -8.24953e-07
 8.20521e-07 -0.00061295 -1.37352e-06
 7.99399e-07 0.00297732 4.48259e-07
 8.68312e-07 0.00299302 7.63866e-07
 1.03434e-06 -0.000655103 2.82251e-06
 9.19779e-07 0.00296727 2.14153e-06
 2.35086e-06 -0.00061425 2.13669e-06
 -2.17729e-06 -0.00822861 3.21171e-06
 2.45688e-06 -0.000615886 1.07561e-07
 2.72274e-06 -0.000654098 1.21876e-06
 -2.00631e-06 -0.00819131 -1.89893e-06
 2.65547e-06 -0.000667832 -8.37994e-07
 1.95663e-06 0.00290692 -8.24764e-07
 -9.78652e-07 -0.000617932 -1.41413e-06
 1.92991e-06 0.00295347 6.42714e-07
 2.0972e-06 0.00296456 5.59273e-07
 -8.00276e-07 -0.000664815 2.77012e-06
 2.0899e-06 0.00291858 2.10263e-06
 -9.97715e-07 0.00274515 -9.75472e-07
 1.01886e-06 0.00344642 -3.22697e-07
 -9.19934e-07 0.0028595 4.79864e-07
 -9.00552e-07 0.00284686 3.49501e-07
 1.1347e-06 0.00346838 1.02461e-06
 -8.38658e-07 0.00275867 1.73816e-06
 -1.94316e-07 0.00344789 1.0532e-06
 1.36864e-06 -0.00861077 1.43052e-06
 -3.82317e-08 0.00342858 5.77276e-07
 -1.27569e-07 0.00345084 2.54044e-07
 1.49527e-06 -0.00856627 -5.84607e-07
 7.41237e-08 0.0034683 -2.00336e-07
 3.37662e-07 0.00283989 -8.47364e-07
 7.56702e-07 0.00343223 -1.34185e-07
 4.18462e-07 0.00291291 5.04656e-07
 5.63255e-07 0.00290425 4.67387e-07
 8.37889e-07 0.00344906 1.01504e-06
 4.41266e-07 0.00283227 1.76974e-06
 3.17014e-07 0.00282914 -7.55806e-07
 5.42105e-08 0.00342972 -3.76091e-08
 5.0406e-07 0.00289876 4.24153e-07
 2.75379e-07 0.00292579 5.61153e-07
 1.63929e-07 0.0034537 9.72723e-07
 5.95532e-07 0.00286495 1.71507e-06
 9.86911e-07 0.00345696 1.12336e-06
 -5.58486e-07 -0.00858483 1.51804e-06
 9.11708e-07 0.00343067 7.01861e-07
 1.15e-06 0.00345054 3.1988e-07
 -4.97794e-07 -0.00855059 -4.84612e-07
 1.02148e-06 0.00347437 -8.21501e-08
 1.7058e-06 0.0027463 -7.23417e-07
 -2.07061e-07 0.00345782 7.85884e-08
 1.79402e-06 0.00283696 4.79468e-07
 1.81002e-06 0.00286131 6.78789e-07
 -1.38263e-07 0.00347067 9.83405e-07
 1.90112e-06 0.00276892 1.83848e-06
 -6.44001e-07 0.00193797 -4.63401e-07
 1.24414e-06 0.00277916 2.65011e-07
 -5.46751e-07 0.00195237 1.93913e-07
 -5.45538e-07 0.00196785 4.30589e-07
 1.3032e-06 0.00274359 3.65047e-07
 -5.54894e-07 0.00195905 1.10227e-06
 -2.81937e-07 0.00277992 1.43915e-06
 1.41171e-06 -0.0105005 1.37466e-06
 -2.33627e-07 0.00262348 3.2984e-07
 -2.61456e-07 0.00258463 3.55438e-07
 1.51318e-06 -0.0105802 -5.85257e-07
 -2.17223e-07 0.00275084 -7.40341e-07
 2.94419e-08 0.00195541 -4.06369e-07
 1.80473e-07 0.00262026 1.19327e-07
 9.63774e-08 0.00199975 3.93422e-07
 2.75827e-08 0.00204174 3.49807e-07
 2.48339e-07 0.00259623 6.3396e-07
 -4.10006e-08 0.00199131 1.16501e-06
 3.47228e-07 0.00195271 -4.39295e-07
 2.46828e-07 0.00262342 -1.62666e-08
 4.02717e-07 0.00201324 4.21557e-07
 4.62535e-07 0.00198202 3.03237e-07
 2.7603e-07 0.00259771 7.48646e-07
 6.37025e-07 0.00194684 1.1805e-06
 6.35041e-07 0.0027607 1.48137e-06
 -6.71818e-07 -0.0105179 1.46183e-06
 7.21369e-07 0.00262489 3.75283e-07
 7.23295e-07 0.0026025 4.08415e-07
 -6.17847e-07 -0.0106131 -5.1784e-07
 7.84638e-07 0.00275176 -6.81945e-07
 1.00235e-06 0.00193402 -4.27865e-07
 -8.13813e-07 0.00276327 3.52705e-08
 1.04031e-06 0.00195737 4.55452e-07
 1.01438e-06 0.00193173 3.8192e-07
 -7.7382e-07 0.00275632 8.15974e-07
 1.13031e-06 0.00191674 1.28367e-06
 -3.57485e-07 0.000205798 -1.52921e-07
 1.43393e-06 0.00308692 3.06197e-07
 -2.70467e-07 0.000400953 8.68189e-07
 -2.95867e-07 0.000449448 -3.5595e-07
 1.44148e-06 0.00305395 2.24399e-07
 -2.62957e-07 0.000230468 6.88661e-07
 3.251e-07 0.00308489 1.76244e-06
 1.57992e-06 -0.00877638 1.78883e-06
 2.95015e-07 0.00303417 2.66659e-08
 2.49131e-07 0.00299442 5.31871e-07
 1.59579e-06 -0.00874146 -1.222e-06
 7.09746e-07 0.0030537 -1.19159e-06
 5.57938e-07 0.000419188 -7.39379e-08
 -2.22575e-07 0.00303124 3.51717e-07
 6.72969e-07 0.000617906 8.98425e-07
 6.70176e-07 0.00065466 -3.15184e-07
 -2.20885e-07 0.00299424 2.6334e-07
 2.59293e-07 0.000456879 6.88585e-07
 -5.62676e-07 0.000415092 -9.29532e-08
 3.297e-07 0.00301937 3.37807e-07
 -5.03097e-07 0.000610493 9.13937e-07
 -5.25202e-07 0.000590107 -3.51023e-07
 3.4896e-07 0.00303742 2.02359e-07
 -3.10604e-07 0.000372745 6.4891e-07
 -1.90566e-07 0.00307129 1.78151e-06
 -1.46995e-06 -0.00878596 1.82884e-06
 -1.63021e-07 0.00301961 5.98942e-08
 -1.8485e-07 0.00303683 5.20999e-07
 -1.46092e-06 -0.00870917 -1.23689e-06
 -3.17005e-07 0.00308758 -1.18324e-06