<?xml version="1.0"?>
<!-- time 70.4915-->
<VTKFile type="UnstructuredGrid" version="0.1" byte_order="LittleEndian">
<UnstructuredGrid>
<Piece NumberOfPoints="3240" NumberOfCells="0">
<Points>
  <DataArray type="Float32" Name="Position" NumberOfComponents="3" format="ascii">
	-333.333 2066.36 -333.333
	-333.333 2066.35 -200
	-333.333 2066.36 -66.6667
	-333.333 2066.35 66.6667
	-333.333 2066.35 200
	-333.333 2066.36 333.333
	-200 2066.35 -333.333
	-200 2065.62 -200
	-200 2066.35 -66.6667
	-200 2066.35 66.6667
	-200 2065.62 200
	-200 2066.35 333.333
	-66.6667 2066.35 -333.333
	-66.6667 2066.35 -200
	-66.6667 2066.35 -66.6667
	-66.6667 2066.35 66.6667
	-66.6667 2066.35 200
	-66.6667 2066.35 333.333
	66.6667 2066.35 -333.333
	66.6667 2066.35 -200
	66.6667 2066.35 -66.6667
	66.6667 2066.35 66.6667
	66.6667 2066.35 200
	66.6667 2066.35 333.333
	200 2066.35 -333.333
	200 2065.62 -200
	200 2066.35 -66.6667
	200 2066.35 66.6667
	200 2065.62 200
	200 2066.35 333.333
	333.333 2066.36 -333.333
	333.333 2066.35 -200
	333.333 2066.35 -66.6667
	333.333 2066.35 66.6667
	333.333 2066.35 200
	333.333 2066.36 333.333
	-333.333 2199.69 -333.333
	-333.333 2199.69 -200
	-333.333 2199.69 -66.6667
	-333.333 2199.69 66.6667
	-333.333 2199.69 200
	-333.333 2199.69 333.333
	-200 2199.69 -333.333
	-200 2199.32 -200
	-200 2199.69 -66.6667
	-200 2199.69 66.6667
	-200 2199.32 200
	-200 2199.69 333.333
	-66.6667 2199.69 -333.333
	-66.6667 2199.69 -200
	-66.6667 2199.69 -66.6667
	-66.6667 2199.69 66.6667
	-66.6667 2199.69 200
	-66.6667 2199.69 333.333
	66.6667 2199.69 -333.333
	66.6667 2199.69 -200
	66.6667 2199.69 -66.6667
	66.6667 2199.69 66.6667
	66.6667 2199.69 200
	66.6667 2199.69 333.333
	200 2199.69 -333.333
	200 2199.32 -200
	200 2199.69 -66.6667
	200 2199.69 66.6667
	200 2199.32 200
	200 2199.69 333.333
	333.333 2199.69 -333.333
	333.333 2199.69 -200
	333.333 2199.69 -66.6667
	333.333 2199.69 66.6667
	333.333 2199.69 200
	333.333 2199.69 333.333
	-333.333 2333.02 -333.333
	-333.333 2333.02 -200
	-333.333 2333.02 -66.6667
	-333.333 2333.02 66.6667
	-333.333 2333.02 200
	-333.333 2333.02 333.333
	-200 2333.02 -333.333
	-200 2332.84 -200
	-200 2333.02 -66.6667
	-200 2333.02 66.6667
	-200 2332.84 200
	-200 2333.02 333.333
	-66.6667 2333.02 -333.333
	-66.6667 2333.02 -200
	-66.6667 2333.02 -66.6667
	-66.6667 2333.02 66.6667
	-66.6667 2333.02 200
	-66.6667 2333.02 333.333
	66.6667 2333.02 -333.333
	66.6667 2333.02 -200
	66.6667 2333.02 -66.6667
	66.6667 2333.02 66.6667
	66.6667 2333.02 200
	66.6667 2333.02 333.333
	200 2333.02 -333.333
	200 2332.84 -200
	200 2333.02 -66.6667
	200 2333.02 66.6667
	200 2332.85 200
	200 2333.02 333.333
	333.333 2333.02 -333.333
	333.333 2333.02 -200
	333.333 2333.02 -66.6667
	333.333 2333.02 66.6667
	333.333 2333.02 200
	333.333 2333.02 333.333
	-333.333 2466.36 -333.333
	-333.333 2466.36 -200
	-333.333 2466.36 -66.6667
	-333.333 2466.36 66.6667
	-333.333 2466.36 200
	-333.333 2466.36 333.333
	-200 2466.36 -333.333
	-200 2466.19 -200
	-200 2466.36 -66.6667
	-200 2466.36 66.6667
	-200 2466.19 200
	-200 2466.36 333.333
	-66.6667 2466.36 -333.333
	-66.6667 2466.36 -200
	-66.6667 2466.36 -66.6667
	-66.6667 2466.36 66.6667
	-66.6667 2466.36 200
	-66.6667 2466.36 333.333
	66.6667 2466.36 -333.333
	66.6667 2466.36 -200
	66.6667 2466.36 -66.6667
	66.6667 2466.36 66.6667
	66.6667 2466.36 200
	66.6667 2466.36 333.333
	200 2466.36 -333.333
	200 2466.19 -200
	200 2466.36 -66.6667
	200 2466.36 66.6667
	200 2466.19 200
	200 2466.36 333.333
	333.333 2466.36 -333.333
	333.333 2466.36 -200
	333.333 2466.36 -66.6667
	333.333 2466.36 66.6667
	333.333 2466.36 200
	333.333 2466.36 333.333
	-333.333 2599.69 -333.333
	-333.333 2599.69 -200
	-333.333 2599.69 -66.6667
	-333.333 2599.69 66.6667
	-333.333 2599.69 200
	-333.333 2599.69 333.333
	-200 2599.69 -333.333
	-200 2599.52 -200
	-200 2599.69 -66.6667
	-200 2599.69 66.6667
	-200 2599.52 200
	-200 2599.69 333.333
	-66.6667 2599.69 -333.333
	-66.6667 2599.69 -200
	-66.6667 2599.69 -66.6667
	-66.6667 2599.69 66.6667
	-66.6667 2599.69 200
	-66.6667 2599.69 333.333
	66.6667 2599.69 -333.333
	66.6667 2599.69 -200
	66.6667 2599.69 -66.6667
	66.6667 2599.69 66.6667
	66.6667 2599.69 200
	66.6667 2599.69 333.333
	200 2599.69 -333.333
	200 2599.52 -200
	200 2599.69 -66.6667
	200 2599.69 66.6667
	200 2599.52 200
	200 2599.69 333.333
	333.333 2599.69 -333.333
	333.333 2599.69 -200
	333.333 2599.69 -66.6667
	333.333 2599.69 66.6667
	333.333 2599.69 200
	333.333 2599.69 333.333
	-333.333 2733.02 -333.333
	-333.333 2733.02 -200
	-333.333 2733.02 -66.6667
	-333.333 2733.02 66.6667
	-333.333 2733.02 200
	-333.333 2733.02 333.333
	-200 2733.02 -333.333
	-200 2732.86 -200
	-200 2733.02 -66.6667
	-200 2733.02 66.6667
	-200 2732.86 200
	-200 2733.02 333.333
	-66.6667 2733.02 -333.333
	-66.6667 2733.02 -200
	-66.6667 2733.02 -66.6667
	-66.6667 2733.02 66.6667
	-66.6667 2733.02 200
	-66.6667 2733.02 333.333
	66.6667 2733.02 -333.333
	66.6667 2733.02 -200
	66.6667 2733.02 -66.6667
	66.6667 2733.02 66.6667
	66.6667 2733.02 200
	66.6667 2733.02 333.333
	200 2733.02 -333.333
	200 2732.86 -200
	200 2733.02 -66.6667
	200 2733.02 66.6667
	200 2732.86 200
	200 2733.02 333.333
	333.333 2733.02 -333.333
	333.333 2733.02 -200
	333.333 2733.02 -66.6667
	333.333 2733.02 66.6667
	333.333 2733.02 200
	333.333 2733.02 333.333
	-333.333 2866.36 -333.333
	-333.333 2866.35 -200
	-333.333 2866.36 -66.6667
	-333.333 2866.36 66.6667
	-333.333 2866.35 200
	-333.333 2866.36 333.333
	-200 2866.35 -333.333
	-200 2866.19 -200
	-200 2866.35 -66.6667
	-200 2866.35 66.6667
	-200 2866.19 200
	-200 2866.35 333.333
	-66.6667 2866.36 -333.333
	-66.6667 2866.35 -200
	-66.6667 2866.36 -66.6667
	-66.6667 2866.36 66.6667
	-66.6667 2866.35 200
	-66.6667 2866.36 333.333
	66.6667 2866.36 -333.333
	66.6667 2866.35 -200
	66.6667 2866.36 -66.6667
	66.6667 2866.36 66.6667
	66.6667 2866.35 200
	66.6667 2866.36 333.333
	200 2866.35 -333.333
	200 2866.19 -200
	200 2866.35 -66.6667
	200 2866.35 66.6667
	200 2866.19 200
	200 2866.35 333.333
	333.333 2866.36 -333.333
	333.333 2866.35 -200
	333.333 2866.36 -66.6667
	333.333 2866.36 66.6667
	333.333 2866.35 200
	333.333 2866.36 333.333
	-333.333 2999.69 -333.333
	-333.333 2999.69 -200
	-333.333 2999.69 -66.6667
	-333.333 2999.69 66.6667
	-333.333 2999.69 200
	-333.333 2999.69 333.333
	-200 2999.69 -333.333
	-200 2999.52 -200
	-200 2999.69 -66.6667
	-200 2999.69 66.6667
	-200 2999.52 200
	-200 2999.69 333.333
	-66.6667 2999.69 -333.333
	-66.6667 2999.69 -200
	-66.6667 2999.69 -66.6667
	-66.6667 2999.69 66.6667
	-66.6667 2999.69 200
	-66.6667 2999.69 333.333
	66.6667 2999.69 -333.333
	66.6667 2999.69 -200
	66.6667 2999.69 -66.6667
	66.6667 2999.69 66.6667
	66.6667 2999.69 200
	66.6667 2999.69 333.333
	200 2999.69 -333.333
	200 2999.52 -200
	200 2999.69 -66.6667
	200 2999.69 66.6667
	200 2999.52 200
	200 2999.69 333.333
	333.333 2999.69 -333.333
	333.333 2999.69 -200
	333.333 2999.69 -66.6667
	333.333 2999.69 66.6667
	333.333 2999.69 200
	333.333 2999.69 333.333
	-333.333 3133.02 -333.333
	-333.333 3133.02 -200
	-333.333 3133.02 -66.6667
	-333.333 3133.02 66.6667
	-333.333 3133.02 200
	-333.333 3133.02 333.333
	-200 3133.02 -333.333
	-200 3132.86 -200
	-200 3133.02 -66.6667
	-200 3133.02 66.6667
	-200 3132.86 200
	-200 3133.02 333.333
	-66.6667 3133.02 -333.333
	-66.6667 3133.02 -200
	-66.6667 3133.02 -66.6667
	-66.6667 3133.02 66.6667
	-66.6667 3133.02 200
	-66.6667 3133.02 333.333
	66.6667 3133.02 -333.333
	66.6667 3133.02 -200
	66.6667 3133.02 -66.6667
	66.6667 3133.02 66.6667
	66.6667 3133.02 200
	66.6667 3133.02 333.333
	200 3133.02 -333.333
	200 3132.86 -200
	200 3133.02 -66.6667
	200 3133.02 66.6667
	200 3132.86 200
	200 3133.02 333.333
	333.333 3133.02 -333.333
	333.333 3133.02 -200
	333.333 3133.02 -66.6667
	333.333 3133.02 66.6667
	333.333 3133.02 200
	333.333 3133.02 333.333
	-333.333 3266.35 -333.333
	-333.333 3266.35 -200
	-333.333 3266.35 -66.6667
	-333.333 3266.35 66.6667
	-333.333 3266.35 200
	-333.333 3266.35 333.333
	-200 3266.35 -333.333
	-200 3266.19 -200
	-200 3266.35 -66.6667
	-200 3266.35 66.6667
	-200 3266.19 200
	-200 3266.35 333.333
	-66.6667 3266.35 -333.333
	-66.6667 3266.35 -200
	-66.6667 3266.35 -66.6667
	-66.6667 3266.35 66.6667
	-66.6667 3266.35 200
	-66.6667 3266.35 333.333
	66.6667 3266.35 -333.333
	66.6667 3266.35 -200
	66.6667 3266.35 -66.6667
	66.6667 3266.35 66.6667
	66.6667 3266.35 200
	66.6667 3266.35 333.333
	200 3266.35 -333.333
	200 3266.19 -200
	200 3266.35 -66.6667
	200 3266.35 66.6667
	200 3266.19 200
	200 3266.35 333.333
	333.333 3266.35 -333.333
	333.333 3266.35 -200
	333.333 3266.35 -66.6667
	333.333 3266.35 66.6667
	333.333 3266.35 200
	333.333 3266.35 333.333
	-333.333 3399.69 -333.333
	-333.333 3399.69 -200
	-333.333 3399.69 -66.6667
	-333.333 3399.69 66.6667
	-333.333 3399.69 200
	-333.333 3399.69 333.333
	-200 3399.69 -333.333
	-200 3399.52 -200
	-200 3399.69 -66.6667
	-200 3399.69 66.6667
	-200 3399.52 200
	-200 3399.69 333.333
	-66.6667 3399.69 -333.333
	-66.6667 3399.69 -200
	-66.6667 3399.69 -66.6667
	-66.6667 3399.69 66.6667
	-66.6667 3399.69 200
	-66.6667 3399.69 333.333
	66.6667 3399.69 -333.333
	66.6667 3399.69 -200
	66.6667 3399.69 -66.6667
	66.6667 3399.69 66.6667
	66.6667 3399.69 200
	66.6667 3399.69 333.333
	200 3399.69 -333.333
	200 3399.52 -200
	200 3399.69 -66.6667
	200 3399.69 66.6667
	200 3399.52 200
	200 3399.69 333.333
	333.333 3399.69 -333.333
	333.333 3399.69 -200
	333.333 3399.69 -66.6667
	333.333 3399.69 66.6667
	333.333 3399.69 200
	333.333 3399.69 333.333
	-333.333 3533.02 -333.333
	-333.333 3533.02 -200
	-333.333 3533.02 -66.6667
	-333.333 3533.02 66.6667
	-333.333 3533.02 200
	-333.333 3533.02 333.333
	-200 3533.02 -333.333
	-200 3532.86 -200
	-200 3533.02 -66.6667
	-200 3533.02 66.6667
	-200 3532.86 200
	-200 3533.02 333.333
	-66.6667 3533.02 -333.333
	-66.6667 3533.02 -200
	-66.6667 3533.02 -66.6667
	-66.6667 3533.02 66.6667
	-66.6667 3533.02 200
	-66.6667 3533.02 333.333
	66.6667 3533.02 -333.333
	66.6667 3533.02 -200
[...]
<PointData  Vectors="vector">
  <DataArray type="Float32" Name="Velocity" NumberOfComponents="3" format="ascii">
 -1.44006e-05 0.000204202 -1.58119e-05
 -1.88194e-06 -0.00101647 -8.80612e-06
 -1.17574e-05 -3.77016e-05 -4.9976e-06
 -1.39381e-05 -0.000140119 1.82392e-06
 -1.91671e-06 -0.000904254 4.64233e-06
 -1.42932e-05 0.000140128 1.34517e-05
 -4.52435e-06 -0.0010933 -5.44265e-06
 3.00297e-06 -0.00127758 -1.49205e-07
 -5.75293e-06 -0.000576601 -2.75243e-06
 -3.15669e-06 -0.000785012 1.71936e-07
 2.81625e-06 -0.00131272 -2.80303e-06
 -3.48248e-06 -0.000938451 2.17754e-06
 -7.24229e-07 -5.91032e-05 -1.73571e-05
 -9.4429e-07 -0.000654412 -6.12658e-06
 -9.75467e-07 -5.61544e-05 -3.64388e-06
 -1.51678e-06 -0.000136284 6.66516e-07
 2.57012e-07 -0.000579964 5.5078e-06
 -1.31566e-06 -0.000186305 1.30651e-05
 3.00263e-06 -0.000115893 -1.47658e-05
 3.7149e-06 -0.00059662 -8.4202e-06
 4.87976e-06 -0.000106673 -3.86288e-06
 5.28564e-06 -4.21208e-05 1.19966e-06
 3.33289e-06 -0.000697799 5.49094e-06
 5.39567e-06 -4.347e-05 1.26399e-05
 6.81034e-06 -0.00108974 -4.4949e-06
 1.0887e-08 -0.00138579 6.33666e-07
 8.26332e-06 -0.00062176 -2.18587e-06
 6.95464e-06 -0.000675355 2.45647e-07
 9.78804e-07 -0.00118841 -2.76388e-06
 7.35595e-06 -0.00108256 2.18346e-06
 1.68227e-05 0.000174653 -1.51454e-05
 5.12347e-06 -0.00108716 -7.81632e-06
 1.64063e-05 -0.000103223 -2.41276e-06
 1.74802e-05 -1.57464e-05 7.1463e-07
 5.88122e-06 -0.00108158 6.88517e-06
 1.79219e-05 0.000207439 1.27269e-05
 -8.16533e-06 -0.00350527 -6.25687e-06
 -1.4056e-06 -0.00112585 -1.05742e-06
 -8.70122e-06 -0.0045801 9.42269e-07
 -7.635e-06 -0.0047755 6.00371e-07
 -1.45726e-06 -0.00111181 2.81711e-06
 -6.82242e-06 -0.00340182 7.48986e-06
 -5.27379e-07 -0.000971609 -4.95749e-07
 1.44027e-06 0.0118683 -1.72662e-06
 -1.2536e-06 -0.000829879 1.99021e-06
 -2.59374e-06 -0.000527481 -5.35076e-08
 1.45262e-06 0.0117685 -1.2211e-06
 -2.59319e-06 -0.00103653 1.76227e-06
 -3.10577e-06 -0.00459764 -6.17388e-06
 4.09149e-08 -0.000786145 -1.36395e-06
 -1.34228e-06 -0.00472424 8.66043e-07
 -1.02307e-06 -0.00478947 3.91651e-07
 -5.33542e-07 -0.000760317 2.89325e-06
 -1.96789e-06 -0.00465966 7.82455e-06
 7.02105e-07 -0.00451677 -6.63467e-06
 -2.26542e-06 -0.000867595 -1.27913e-06
 -6.63638e-07 -0.00445005 -5.25468e-07
 -6.25825e-07 -0.00477592 2.2542e-06
 -1.81902e-06 -0.000739306 1.26384e-06
 -4.20594e-07 -0.00467321 9.22061e-06
 5.81194e-07 -0.000930768 -1.71814e-07
 1.56211e-06 0.0119128 -9.28257e-07
 9.40126e-07 -0.000829673 2.09661e-06
 1.04582e-06 -0.000763811 -5.54779e-07
 2.44347e-06 0.011937 -1.27338e-06
 3.38368e-07 -0.000995846 1.5364e-06
 3.96743e-06 -0.0033592 -4.99418e-06
 -5.58501e-07 -0.000940714 -9.44483e-07
 5.61616e-06 -0.00458031 -4.85906e-07
 5.22998e-06 -0.00477522 1.70388e-06
 -8.55246e-07 -0.00108316 2.06201e-06
 4.20948e-06 -0.00364621 6.43666e-06
 -8.11674e-06 -0.0019982 -2.35289e-06
 -2.42132e-06 0.00081746 1.12154e-06
 -9.84087e-06 -0.0015992 3.8638e-06
 -9.23144e-06 -0.00139055 1.82347e-06
 -2.4067e-06 0.00125899 3.45528e-06
 -8.5097e-06 -0.00190785 8.99102e-06
 -2.87982e-06 0.000815212 2.3297e-06
 2.83382e-07 -0.00214159 5.61965e-06
 -3.90323e-06 0.00162262 4.47832e-06
 -4.26661e-06 0.00168792 1.10245e-06
 -8.67095e-08 -0.00245687 -1.97095e-07
 -3.48744e-06 0.000941489 2.96187e-06
 -2.52191e-06 -0.00152413 -5.12349e-06
 -1.6184e-06 0.0015753 1.33596e-06
 -3.53395e-06 -0.00174776 1.59393e-06
 -2.99388e-06 -0.00158189 3.60712e-06
 -2.28063e-06 0.00163089 3.59045e-06
 -2.76484e-06 -0.00139242 1.01378e-05
 -3.59705e-06 -0.00153254 -4.61316e-06
 -4.86941e-06 0.00148431 8.74779e-07
 -3.10979e-06 -0.00187395 3.11981e-06
 -3.9586e-06 -0.00177208 1.74773e-06
 -5.01516e-06 0.00166221 3.79011e-06
 -5.04134e-06 -0.00149956 9.83229e-06
 -3.30711e-06 0.00125349 2.03301e-06
 -6.73032e-06 -0.00221413 5.29382e-06
 -2.60813e-06 0.00156221 4.0342e-06
 -2.5629e-06 0.00168773 4.33278e-07
 -7.32552e-06 -0.00200659 -8.53782e-07
 -4.57044e-06 0.00125518 2.35806e-06
 2.1829e-06 -0.0021282 -4.16675e-06
 -3.95833e-06 0.00118198 1.76322e-06
 3.26603e-06 -0.0015068 2.92628e-06
 2.89965e-06 -0.00152062 1.00844e-06
 -5.12039e-06 0.00135289 1.95532e-06
 7.53696e-07 -0.00200938 7.90289e-06
 -2.56043e-07 0.00122194 9.02766e-08
 2.04557e-06 -0.000890915 5.75732e-07
 -2.94858e-06 0.000791938 5.95357e-07
 -3.23707e-06 0.000759661 1.09369e-06
 2.22999e-06 -0.00138513 3.76439e-06
 -8.85694e-07 0.00112991 6.54606e-07
 -3.13836e-06 -0.00103445 3.49909e-06
 2.55024e-06 -0.00225482 4.65835e-06
 -4.19246e-06 -0.00193886 1.54613e-06
 -4.59399e-06 -0.00202219 5.8999e-07
 2.0885e-06 -0.00279844 -2.59626e-06
 -1.83066e-06 -0.00123603 -1.50712e-06
 -8.12655e-07 0.000748437 -2.59361e-06
 -1.3529e-06 -0.00165194 -8.13068e-07
 -1.24823e-06 0.00165404 1.26467e-07
 -6.02629e-07 0.00154558 2.94875e-06
 -2.43139e-06 -0.00182082 3.24339e-06
 -2.42663e-06 0.00072035 3.17449e-06
 -1.63668e-06 0.000664518 -1.13103e-06
 -8.4968e-07 -0.00155682 -2.02759e-06
 -9.11999e-07 0.00163507 -6.27329e-07
 -1.38857e-06 0.001616 2.62138e-06
 -1.10406e-07 -0.00178315 3.77795e-06
 -7.08865e-07 0.000723202 3.3269e-06
 1.03351e-06 -0.00173721 3.80708e-06
 -4.77779e-06 -0.00233824 4.6498e-06
 1.58621e-06 -0.00161271 1.13438e-06
 1.67367e-06 -0.00188578 1.69818e-07
 -4.90834e-06 -0.00320497 -3.16048e-06
 -2.13948e-06 -0.00160256 -2.11389e-06
 -1.60896e-06 0.00119864 3.69063e-07
 -4.31907e-06 -0.00154336 -2.49587e-06
 1.15137e-07 0.000683566 -7.73898e-07
 3.98412e-07 0.000758538 2.80372e-06
 -5.32653e-06 -0.00154318 2.81733e-06
 -1.82578e-06 0.0013411 7.45939e-07
 4.53065e-06 0.000869448 5.28109e-06
 6.41122e-06 0.0007329 1.48269e-06
 2.54011e-06 -0.00163501 2.04486e-06
 2.91998e-06 -0.0017378 -1.43917e-06
 7.13965e-06 0.000808955 -3.71605e-07
 5.54543e-06 0.000924599 -4.56864e-06
 2.52564e-06 0.000850192 7.01409e-06
 1.60146e-06 -0.00315712 3.59442e-06
 1.28235e-06 0.000435025 -1.77161e-06
 1.57667e-06 0.00056216 2.77203e-06
 1.26221e-06 -0.00207346 -1.82427e-06
 2.95219e-06 0.000857454 -6.08858e-06
 1.43342e-07 -0.00167443 3.02451e-06
 8.06666e-07 0.000285994 4.44614e-07
 -6.05807e-07 -0.00136756 1.18684e-06
 -3.09151e-07 -0.00143772 -3.34704e-07
 6.2951e-07 0.000444991 8.37984e-07
 1.89932e-07 -0.00174127 -1.9091e-06
 -1.14088e-06 -0.00138174 2.89899e-06
 -1.89436e-06 0.000428542 3.62048e-07
 -5.69307e-07 -0.00096832 2.29515e-06
 -5.56352e-07 -0.00101479 -8.17472e-07
 -1.34712e-06 0.00048542 9.43908e-07
 -7.41591e-07 -0.00120302 -1.589e-06
 -3.51829e-06 0.000929353 7.23694e-06
 -3.57263e-06 -0.00295723 3.52314e-06
 -2.37204e-06 0.000466572 2.46403e-06
 -2.42318e-06 0.00052879 -1.24612e-06
 -3.71803e-06 -0.00207068 -2.2571e-06
 -3.73787e-06 0.000949749 -6.00259e-06
 -5.51415e-06 0.00101509 5.70195e-06
 -7.44071e-06 0.000896684 3.94533e-06
 -3.59792e-06 -0.00149881 1.47878e-06
 -3.7156e-06 -0.00121211 -5.88889e-07
 -8.07038e-06 0.000881973 -2.93782e-06
 -6.60752e-06 0.0010528 -4.55918e-06
 5.58869e-06 -0.00149039 6.44637e-06
 8.92184e-06 -0.00174342 5.47703e-06
 4.04275e-06 0.00112238 2.10019e-06
 4.67546e-06 0.00122288 -2.29812e-06
 1.00765e-05 -0.00154314 -6.49232e-06
 7.63847e-06 -0.00169971 -5.8598e-06
 4.78298e-06 -0.00174039 8.95904e-06
 7.23728e-06 -0.00143715 7.54946e-06
 3.10487e-06 -0.00198782 2.64922e-06
 3.20261e-06 -0.00208127 -2.61802e-06
 8.09985e-06 -0.0029591 -7.46951e-06
 6.05262e-06 -0.00163093 -8.81461e-06
 1.13834e-06 0.00109418 4.33318e-06
 1.37782e-06 -0.00222533 3.60705e-06
 8.88298e-07 0.000790314 1.87454e-06
 8.34877e-07 0.000819797 -1.3684e-06
 2.88541e-06 -0.00222412 -3.12542e-06
 2.0037e-06 0.00122462 -3.9495e-06
 -1.21528e-06 0.00111751 4.22847e-06
 -1.572e-06 -0.00217724 3.24674e-06
 -8.15201e-07 0.000627828 1.50317e-06
 -4.49626e-07 0.000653137 -3.78003e-07
 -2.19041e-06 -0.00234836 -2.73064e-06
 -8.89339e-07 0.000881441 -3.0095e-06
 -5.34296e-06 -0.00156335 9.04606e-06
 -7.36896e-06 -0.00384278 7.76513e-06
 -3.69467e-06 -0.00216253 2.90515e-06
 -2.99889e-06 -0.00220687 -1.91849e-06
 -7.36792e-06 -0.00408484 -6.81399e-06
 -5.07886e-06 -0.00161991 -8.11958e-06
 -5.57361e-06 -0.00148454 6.13283e-06
 -9.00098e-06 -0.00158638 5.81523e-06
 -3.79167e-06 0.00116018 1.95678e-06
 -4.08509e-06 0.000864718 -1.08052e-06
 -9.31717e-06 -0.00153103 -4.59668e-06
 -6.7295e-06 -0.00149215 -5.24443e-06
 3.14767e-06 -0.000938521 3.70995e-06
 6.21584e-06 -0.000524661 3.24691e-06
 1.03347e-06 -0.000156755 1.46842e-06
 1.15704e-06 -0.000148528 -2.28938e-07
 6.68713e-06 -0.000628788 -2.86181e-06
 4.52084e-06 -0.000725444 -3.14541e-06
 1.92153e-06 -0.000612787 7.55688e-06
 4.9363e-06 -0.00467835 6.16411e-06
 7.1745e-07 -0.000907254 2.78113e-06
 1.71143e-06 -0.000735398 -1.61618e-06
 5.2656e-06 -0.0030473 -5.11498e-06
 3.17426e-06 -0.000521778 -6.6382e-06
 3.40404e-07 -0.000164162 2.32613e-06
 1.67307e-06 -0.000644655 1.42407e-06
 1.36021e-06 4.46988e-05 6.61272e-09
 1.38787e-06 0.000119902 8.14025e-07
 1.92365e-06 -0.000521852 -9.44612e-08
 9.41949e-07 -0.000142702 -5.59031e-07
 -1.01131e-06 -0.000248569 2.24913e-06
 -2.50637e-06 -0.000871758 2.7939e-06
 -1.39925e-06 -6.19963e-06 1.26488e-06
 -6.68088e-07 4.33113e-05 9.345e-08
 -2.27136e-06 -0.000730456 -1.1659e-06
 -7.91215e-07 -0.000316713 -9.36605e-07
 -3.03447e-06 -0.000650365 7.58678e-06
 -5.69075e-06 -0.00210534 6.2033e-06
 -2.10797e-06 -0.000917673 2.86558e-06
 -2.57637e-06 -0.000826614 -1.28327e-06
 -5.4263e-06 -0.00298744 -4.55119e-06
 -3.1917e-06 -0.000767865 -5.86824e-06
 -3.87149e-06 -0.000935542 3.70914e-06
 -6.89804e-06 -0.000690473 3.17563e-06
 -1.51037e-06 -0.000217887 2.92248e-07
 -2.55606e-06 -0.000292757 1.57904e-06
 -6.65699e-06 -0.000796111 -1.29448e-06
 -3.93603e-06 -0.00108551 -2.00825e-06
 2.23735e-06 0.00101156 1.85825e-06
 3.60373e-06 0.00033733 -2.76404e-07
 7.15891e-07 0.00121051 1.33444e-07
 1.03735e-06 0.00133311 -1.61115e-06
 3.94973e-06 0.000380276 -2.44581e-06
 3.49805e-06 0.000620868 -1.35146e-06
 1.15478e-06 0.000550688 3.03308e-06
 4.12951e-06 -0.000611274 5.24374e-06
 8.24013e-07 0.000646145 1.19572e-07
 4.14499e-07 0.000724539 -1.09469e-06
 4.53464e-06 -0.00265333 -4.33352e-06
 2.16752e-06 0.000379693 -4.11162e-06
 3.86089e-07 0.00137076 4.77835e-07
 1.31328e-06 0.00074368 -8.46421e-08
 1.34241e-06 0.000627322 -7.31579e-07
 2.30049e-07 0.000725561 -9.27158e-07
 1.39752e-06 0.000755899 2.49574e-07
 1.28115e-06 0.00136697 -1.34548e-06
 6.43556e-07 0.0014064 6.6856e-08
 -1.14455e-08 0.000605152 -1.01816e-06
 6.34679e-07 0.000690862 6.56226e-07
 1.07286e-06 0.000791884 -1.41145e-06
 4.93703e-07 0.000796816 -1.10056e-07
 1.04155e-06 0.00144562 -3.51438e-07
 -1.75915e-10 0.000459608 3.18788e-06
 -4.93931e-06 -0.00141571 5.32994e-06
 9.05307e-07 0.000609053 3.89282e-07
 1.20684e-06 0.000749761 -8.36054e-07
 -4.69251e-06 -0.000907536 -3.85047e-06
 2.01478e-07 0.000642063 -3.51652e-06
 -1.103e-06 0.00115185 2.41712e-06
 -2.12118e-06 0.000478094 9.76271e-07
 6.90896e-08 0.00146986 1.08099e-07
 7.50108e-07 0.0013824 -5.34487e-08
 -1.86892e-06 0.000566293 -1.13027e-06
 -1.25081e-06 0.000739696 -2.37812e-06
 -2.6269e-07 -0.00121017 -1.89719e-06
 1.05766e-06 0.00104137 -2.8081e-06
 -1.05866e-06 0.000438936 -1.61942e-06
 -1.31898e-06 0.000370523 -4.66643e-07
 1.36223e-06 0.00118647 -5.97189e-07
 7.02942e-07 -0.000740677 -7.90808e-07
 -8.78937e-07 0.000967817 -9.38683e-07
 2.1209e-06 -0.0047064 -2.24301e-07
 -1.58999e-06 0.00150102 -2.00461e-06
 -5.21236e-07 0.00160097 -6.20038e-07
 2.29442e-06 -0.00558254 -2.36099e-06
 -1.25416e-06 0.00114252 -1.59849e-06
 6.80705e-07 0.000329292 -3.21058e-06
 7.39093e-07 0.00149843 -4.17614e-06
 1.27352e-06 9.6466e-05 -9.96393e-07
 3.4749e-08 0.00018938 -1.23386e-07
 7.79711e-07 0.00163138 5.0726e-07
 2.20537e-06 0.000329922 8.37516e-07
 1.31075e-06 0.000172358 -3.21612e-06
 2.09995e-06 0.00159615 -4.41615e-06
 2.9047e-06 -0.000316187 -1.39295e-06
 3.0334e-06 -7.04762e-05 -9.95001e-07
 2.80239e-06 0.0015521 2.04173e-06
 8.93309e-07 0.000289851 8.68367e-07
 4.03076e-06 0.00104235 -6.88271e-07
 7.60675e-07 -0.00430346 1.13289e-07
 3.57435e-06 0.00158816 -1.57093e-06
 3.69009e-06 0.00154176 -3.91001e-07
 1.25987e-06 -0.00422866 -2.03669e-06
 6.00441e-06 0.00111155 -1.1911e-06
 2.81428e-06 -0.00123225 -1.43947e-06
 1.85264e-06 0.00101675 -1.96239e-06
 4.20634e-06 0.000127809 -1.44423e-06
 4.49833e-06 0.000387358 3.49989e-07
 2.15023e-06 0.00113948 1.51521e-07
 3.03787e-06 -0.00120404 5.12638e-08
 -3.34425e-06 -0.00192421 -4.18153e-06
 -1.06503e-06 0.000608078 -4.71696e-06
 -3.57001e-06 -0.00160078 -2.97591e-07
 -3.89747e-06 -0.00168952 -2.07931e-06
 -4.82805e-07 0.000860361 4.00083e-06
 -3.64152e-06 -0.00182093 2.55614e-06
 -3.38439e-06 0.000721831 -1.39325e-06
 -2.9629e-07 -0.00460469 -1.02387e-06
 -9.39753e-07 0.00119885 -1.52726e-06
 -4.14758e-06 0.00136646 7.52027e-08
 5.71727e-08 -0.00318347 -4.62381e-07
 -3.13674e-06 0.000687655 -1.33772e-07
 9.87884e-07 -0.00166113 -4.97265e-06
 -3.14763e-07 0.00114161 -4.79848e-06
 -1.06447e-06 -0.00296122 -3.90726e-07
 1.29426e-06 -0.0028602 -1.36223e-06
 -2.24239e-07 0.00114146 3.62551e-06
 2.36822e-06 -0.00161122 3.55141e-06
 1.72714e-07 -0.00195149 -4.4218e-06
 1.6115e-06 0.00113692 -2.27182e-06
 2.79523e-06 -0.00327372 -2.34615e-06
 3.13561e-07 -0.00299628 9.01687e-07
 1.94413e-06 0.00131266 3.68055e-07
 1.28395e-06 -0.00177372 3.45587e-06
 4.3626e-06 0.000680437 -1.5983e-06
 1.46889e-06 -0.00456648 -1.15088e-06
 2.84973e-06 0.00120844 -1.65593e-06
 5.3397e-06 0.00141294 6.69877e-07
 1.56625e-06 -0.00465296 1.17944e-07
 4.06062e-06 0.00088109 5.11076e-07
 4.1922e-06 -0.00204482 -2.88163e-06
 2.12114e-06 0.000683388 -2.24719e-06
 4.23037e-06 -0.00202159 -1.19748e-06
 5.40561e-06 -0.00173815 7.11059e-07
 2.01072e-06 0.00100881 1.12543e-06
 4.76017e-06 -0.00180918 2.476e-06
 -1.59848e-07 0.000352798 -1.13318e-06
 1.18389e-06 0.00197659 -1.77448e-06
 1.7963e-07 -0.00143976 -2.24145e-06
 2.73326e-07 -0.00121761 9.31019e-07
 1.17789e-06 0.00176042 4.22768e-07
 -1.88533e-07 5.27871e-05 -3.40145e-07
 -2.00851e-06 0.00187206 1.42391e-07
 -1.7729e-07 -0.000196308 -8.47395e-07
 2.59813e-07 0.00045274 -1.17832e-06
 -1.18253e-06 -0.000441819 -2.57128e-07
 1.60455e-07 9.47831e-05 -5.23206e-07
 -2.6571e-06 0.00176981 -1.63121e-06
 9.75263e-07 -0.00136463 -8.38689e-07
 -4.56862e-07 0.000314782 -1.33077e-06
 4.77733e-07 -0.000847255 -1.21093e-06
 9.55263e-07 -0.000744505 -3.0739e-07
 1.05267e-07 -0.000458144 -3.02916e-07
 -4.42002e-07 -0.00132214 -7.79182e-07
 1.09662e-07 -0.00146337 -2.59051e-06
 1.72682e-06 0.000357706 -4.75907e-07
 9.92821e-07 -0.000611844 -1.10598e-06
 1.9174e-07 -0.000779673 -5.24473e-07
 1.18293e-06 -0.000101305 -1.28057e-06
 1.68455e-06 -0.00113134 1.01269e-06
 3.20463e-06 0.00178813 2.08597e-08
 1.16494e-06 -0.000452695 -9.41353e-07
 8.7821e-07 0.000442277 -2.15162e-06
 2.48237e-06 -2.63951e-05 7.32582e-07
 1.29479e-06 -0.000143063 4.98808e-08
 4.02177e-06 0.00158438 -1.52094e-06
 1.19867e-06 0.000522911 -1.18851e-06
 2.31497e-08 0.00193916 -1.7158e-06
 1.05696e-06 -0.00135937 -1.61107e-06
 9.162e-07 -0.00116721 3.93003e-07
 2.52557e-08 0.00160412 5.02023e-07
 1.36302e-06 0.000210898 -6.35792e-08
 6.29404e-07 -0.00302897 -1.12093e-06
 2.91685e-06 -0.00190691 1.18001e-07
 1.61554e-06 -0.000727381 -1.30302e-06
 1.18242e-06 -0.00115346 5.56225e-08
 2.48299e-06 -0.00185911 -1.37609e-06
 -6.97169e-07 -0.00280764 -1.48402e-07
 1.47057e-06 -0.00187458 1.28905e-06
 2.1337e-06 -0.00469073 4.71435e-07
 1.16746e-06 -0.000700936 -9.83296e-07
 2.13898e-06 -0.000136301 -4.74916e-07
 1.68254e-06 -0.00506148 -1.95299e-06
 -4.39845e-07 -0.00183759 -2.79686e-06
 -3.63803e-08 -0.000803772 6.28733e-07
 5.59429e-07 -0.000547983 -1.38368e-07
 9.53964e-07 9.32876e-05 -1.31707e-06
 4.65117e-08 -0.000269969 -3.99399e-07
 2.12538e-07 1.34774e-05 -1.99538e-06
 1.33243e-06 -0.000992148 -1.96998e-06
 1.29875e-06 -0.000191648 8.42252e-07
 6.88943e-07 -0.000517091 -2.03466e-07
 2.11306e-07 -6.91683e-05 -1.21218e-06
 1.0356e-06 5.32936e-05 -6.1565e-07
 7.3998e-07 -0.000338551 -1.64033e-06
 -6.27066e-08 -0.000963555 -2.71861e-06
 -2.9882e-07 -0.001939 1.29094e-06
 -9.25125e-07 -0.00437319 4.33842e-07
 1.9623e-07 -0.000645838 -1.06864e-06
 -1.42052e-07 -0.000430899 -6.75683e-07
 -7.54107e-07 -0.00526954 -2.20173e-06
 7.10309e-08 -0.00174187 -3.0742e-06
 6.45434e-07 -0.00271177 -1.21811e-06
 -1.74172e-06 -0.00203027 -6.77585e-08
 -5.52275e-07 -0.000295499 -1.57866e-06
 -1.02757e-06 -0.000994525 -1.13512e-07
 -1.57288e-06 -0.00166588 -1.60095e-06
 2.19705e-06 -0.00265469 -5.18435e-07
 1.52239e-06 -2.0652e-05 -1.65663e-07
 2.84826e-06 0.00133044 -1.29956e-06
 2.87086e-06 -0.000557748 -1.23059e-06
 2.6404e-06 -0.000280762 -2.21178e-07
 2.59379e-06 0.00117127 -1.62555e-07
 1.20961e-06 -0.000492335 -1.3851e-06
 8.50141e-07 0.00130163 1.1549e-06
 1.93053e-06 -0.00355537 3.3252e-07
 1.97066e-06 0.00012989 -9.13357e-07
 1.00668e-06 -1.76375e-06 -7.41122e-07
 1.75377e-06 -0.00316317 -1.99678e-06
 2.30837e-07 0.0012712 -2.82757e-06
 1.37227e-06 -0.000570533 4.97422e-07
 5.94761e-07 -0.000114187 3.74625e-07
 7.93707e-07 0.000106074 -1.65022e-07
 1.80704e-06 -0.000143177 -2.17084e-06
 5.3452e-07 -0.000127402 -1.14538e-06
 4.01124e-08 -0.000366086 -2.86325e-06
 -5.11978e-08 -0.000528071 9.4718e-07
 7.46879e-07 -0.000259672 -2.42003e-07
 3.95663e-07 0.000772001 -1.09784e-07
 -3.66306e-07 -6.60432e-05 -1.73281e-06
 5.6933e-07 -0.000230058 -1.83887e-06
 6.79899e-07 -0.00044638 -2.84167e-06
 4.79417e-07 0.00127679 1.0673e-06
 -5.95266e-07 -0.00429758 2.08313e-07
 -5.98255e-07 -0.000289084 -1.04751e-06
 -2.4843e-07 -0.000221841 -8.7068e-07
 -6.98714e-07 -0.00303247 -2.14854e-06
 7.99046e-07 0.00121379 -3.02788e-06
 -1.13615e-07 -0.000256845 -4.27632e-07
 -1.52116e-06 0.00127466 -1.40388e-06
 -1.53679e-06 -0.000504988 -4.76563e-07
 -1.29872e-06 -0.000400651 -1.57612e-06
 -1.58865e-06 0.00118699 -2.43016e-07
 -1.97946e-07 -0.000485378 -1.62213e-06
 -2.70274e-07 0.00038131 -1.13544e-07
 7.20648e-07 -0.000235033 -9.58994e-07
 7.59757e-07 -1.87039e-05 -1.51984e-07
 7.41418e-07 -0.000254708 1.90369e-07
 6.61505e-07 -9.82745e-05 1.00555e-06
 -6.58285e-07 0.000378722 1.60506e-07
 -6.114e-07 0.000107845 8.79288e-07
 1.77597e-06 -0.00499535 3.28395e-07
 2.2699e-07 0.000689597 -2.18931e-07
 2.66927e-07 0.000859975 2.88406e-07
 1.62439e-06 -0.0048597 -1.83485e-06
 -1.56455e-06 -9.26142e-05 -8.209e-07
 -6.91323e-07 7.82848e-05 9.18588e-07
 -4.71481e-07 0.000887068 3.87272e-07
 -2.2625e-07 -0.000477612 9.97511e-08
 -1.84961e-07 -0.00031507 -3.98751e-07
 -3.85218e-07 0.000989998 9.90586e-08
 -5.22293e-07 -0.000198034 -8.4849e-07
 1.8033e-07 -8.86403e-05 9.12146e-07
 3.84368e-08 0.000962409 -2.28869e-08
 -1.38231e-07 -0.00040343 4.55341e-07
 -2.1083e-07 -0.000245334 4.54148e-09
 2.92592e-08 0.00101091 -3.58142e-07
 2.47494e-07 -5.30678e-05 -8.91108e-07
 1.02293e-07 0.000235729 8.96981e-07
 -5.63683e-07 -0.00450532 2.2215e-07
 -5.92502e-07 0.000958803 -2.48307e-07
 -6.84785e-07 0.000936486 3.78961e-07
 -6.48508e-07 -0.00515859 -1.96415e-06
 1.11721e-06 0.000176446 -7.91361e-07
 -2.46623e-07 0.000244416 -8.53581e-08
 -1.1632e-06 0.000233983 -8.61493e-07
 -1.1346e-06 -6.26535e-05 -1.17599e-08
 -1.20062e-06 -0.000138691 2.77108e-07
 -1.08384e-06 -2.75237e-05 1.02275e-06
 3.19749e-07 0.000383966 2.79381e-07
 -2.01366e-06 2.45774e-06 -8.76004e-07
 -1.05062e-06 0.00147789 -2.50955e-07
 -9.84194e-07 -0.000499856 2.78705e-07
 -9.41001e-07 -0.000400486 1.03277e-06
 -9.45176e-07 0.00130433 1.62869e-06
 -1.92212e-06 -2.84596e-05 2.20961e-06
 -2.36272e-06 0.00127598 6.48775e-07
 -9.8002e-07 -0.00490712 7.40141e-07
 -1.1586e-06 0.00148863 3.61088e-07
 -1.28429e-06 0.000949275 1.14297e-06
 -7.93292e-07 -0.00460819 7.60912e-07
 -2.42357e-06 0.00129396 8.50344e-07
 -1.44611e-06 -0.000554618 7.78877e-07
 -1.38183e-06 0.00138544 4.50603e-07
 -8.98806e-07 -0.000832827 9.34839e-07
 -6.4194e-07 -0.00081128 7.47653e-07
 -1.11296e-06 0.000707979 1.25189e-06
 -1.51229e-06 -0.000404204 9.09304e-07
 -6.02235e-07 -0.000533998 7.79581e-07
 -5.30263e-07 0.00124279 4.14476e-07
 -9.61789e-07 -0.0010259 9.5489e-07
 -1.14331e-06 -0.000946612 8.26748e-07