<?xml version="1.0"?>
<VTKFile type="UnstructuredGrid" version="0.1" byte_order="LittleEndian" compressor="vtkZLibDataCompressor">
<UnstructuredGrid>
<Piece NumberOfPoints="960" NumberOfCells="120">
<Points>
<DataArray type="Float32" NumberOfComponents="3" format="ascii">
-4.000000e+02 -6.000000e+03 -4.000000e+02
0.000000e+00 -6.000000e+03 -4.000000e+02
-4.000000e+02 -5.600000e+03 -4.000000e+02
-1.417670e-06 -5.600000e+03 -4.000000e+02
-4.000000e+02 -6.000000e+03 0.000000e+00
0.000000e+00 -6.000000e+03 0.000000e+00
-4.000000e+02 -5.600000e+03 -9.847910e-07
-1.141970e-06 -5.600000e+03 -6.799880e-07
0.000000e+00 -6.000000e+03 -4.000000e+02
4.000000e+02 -6.000000e+03 -4.000000e+02
-1.417670e-06 -5.600000e+03 -4.000000e+02
4.000000e+02 -5.600000e+03 -4.000000e+02
0.000000e+00 -6.000000e+03 0.000000e+00
4.000000e+02 -6.000000e+03 0.000000e+00
-1.141970e-06 -5.600000e+03 -6.799880e-07
4.000000e+02 -5.600000e+03 -3.498920e-07
-4.000000e+02 -5.600000e+03 -4.000000e+02
-1.417670e-06 -5.600000e+03 -4.000000e+02
-4.000000e+02 -5.200000e+03 -4.000000e+02
9.133090e-07 -5.200000e+03 -4.000000e+02
-4.000000e+02 -5.600000e+03 -9.847910e-07
-1.141970e-06 -5.600000e+03 -6.799880e-07
-4.000000e+02 -5.200000e+03 1.130040e-06
1.174220e-06 -5.200000e+03 1.388320e-06
-1.417670e-06 -5.600000e+03 -4.000000e+02
4.000000e+02 -5.600000e+03 -4.000000e+02
9.133090e-07 -5.200000e+03 -4.000000e+02
4.000000e+02 -5.200000e+03 -4.000000e+02
-1.141970e-06 -5.600000e+03 -6.799880e-07
4.000000e+02 -5.600000e+03 -3.498920e-07
1.174220e-06 -5.200000e+03 1.388320e-06
4.000000e+02 -5.200000e+03 1.630760e-06
-4.000000e+02 -5.200000e+03 -4.000000e+02
9.133090e-07 -5.200000e+03 -4.000000e+02
-4.000000e+02 -4.800000e+03 -4.000000e+02
1.366570e-06 -4.800000e+03 -4.000000e+02
-4.000000e+02 -5.200000e+03 1.130040e-06
1.174220e-06 -5.200000e+03 1.388320e-06
-4.000000e+02 -4.800000e+03 -1.055710e-06
9.078250e-07 -4.800000e+03 -1.414940e-06
9.133090e-07 -5.200000e+03 -4.000000e+02
4.000000e+02 -5.200000e+03 -4.000000e+02
1.366570e-06 -4.800000e+03 -4.000000e+02
4.000000e+02 -4.800000e+03 -4.000000e+02
1.174220e-06 -5.200000e+03 1.388320e-06
4.000000e+02 -5.200000e+03 1.630760e-06
9.078250e-07 -4.800000e+03 -1.414940e-06
4.000000e+02 -4.800000e+03 -1.953790e-06
-4.000000e+02 -4.800000e+03 -4.000000e+02
1.366570e-06 -4.800000e+03 -4.000000e+02
-4.000000e+02 -4.400000e+03 -4.000000e+02
-6.540970e-06 -4.400000e+03 -4.000000e+02
-4.000000e+02 -4.800000e+03 -1.055710e-06
9.078250e-07 -4.800000e+03 -1.414940e-06
-4.000000e+02 -4.400000e+03 3.498800e-06
-6.531090e-06 -4.400000e+03 3.372270e-06
1.366570e-06 -4.800000e+03 -4.000000e+02
4.000000e+02 -4.800000e+03 -4.000000e+02
-6.540970e-06 -4.400000e+03 -4.000000e+02
4.000000e+02 -4.400000e+03 -4.000000e+02
9.078250e-07 -4.800000e+03 -1.414940e-06
4.000000e+02 -4.800000e+03 -1.953790e-06
-6.531090e-06 -4.400000e+03 3.372270e-06
4.000000e+02 -4.400000e+03 3.558190e-06
-4.000000e+02 -4.400000e+03 -4.000000e+02
-6.540970e-06 -4.400000e+03 -4.000000e+02
-4.000000e+02 -4.000000e+03 -4.000000e+02
1.368010e-06 -4.000000e+03 -4.000000e+02
-4.000000e+02 -4.400000e+03 3.498800e-06
-6.531090e-06 -4.400000e+03 3.372270e-06
-4.000000e+02 -4.000000e+03 1.136020e-06
1.922700e-06 -4.000000e+03 1.918900e-06
-6.540970e-06 -4.400000e+03 -4.000000e+02
4.000000e+02 -4.400000e+03 -4.000000e+02
1.368010e-06 -4.000000e+03 -4.000000e+02
4.000000e+02 -4.000000e+03 -4.000000e+02
-6.531090e-06 -4.400000e+03 3.372270e-06
4.000000e+02 -4.400000e+03 3.558190e-06
1.922700e-06 -4.000000e+03 1.918900e-06
4.000000e+02 -4.000000e+03 2.311740e-06
-4.000000e+02 -4.000000e+03 -4.000000e+02
1.368010e-06 -4.000000e+03 -4.000000e+02
-4.000000e+02 -3.600000e+03 -4.000000e+02
8.060760e-06 -3.600000e+03 -4.000000e+02
-4.000000e+02 -4.000000e+03 1.136020e-06
1.922700e-06 -4.000000e+03 1.918900e-06
-4.000000e+02 -3.600000e+03 -8.559170e-06
7.369310e-06 -3.600000e+03 -9.432380e-06
1.368010e-06 -4.000000e+03 -4.000000e+02
4.000000e+02 -4.000000e+03 -4.000000e+02
8.060760e-06 -3.600000e+03 -4.000000e+02
4.000000e+02 -3.600000e+03 -4.000000e+02
1.922700e-06 -4.000000e+03 1.918900e-06
4.000000e+02 -4.000000e+03 2.311740e-06
7.369310e-06 -3.600000e+03 -9.432380e-06
4.000000e+02 -3.600000e+03 -1.014740e-05
-4.000000e+02 -3.600000e+03 -4.000000e+02
8.060760e-06 -3.600000e+03 -4.000000e+02
-4.000000e+02 -3.200000e+03 -4.000000e+02
-5.246590e-06 -3.200000e+03 -4.000000e+02
-4.000000e+02 -3.600000e+03 -8.559170e-06
7.369310e-06 -3.600000e+03 -9.432380e-06
-4.000000e+02 -3.200000e+03 -4.357560e-08
-5.699800e-06 -3.200000e+03 -6.598890e-07
8.060760e-06 -3.600000e+03 -4.000000e+02
4.000000e+02 -3.600000e+03 -4.000000e+02
-5.246590e-06 -3.200000e+03 -4.000000e+02
4.000000e+02 -3.200000e+03 -4.000000e+02
7.369310e-06 -3.600000e+03 -9.432380e-06
4.000000e+02 -3.600000e+03 -1.014740e-05
-5.699800e-06 -3.200000e+03 -6.598890e-07
4.000000e+02 -3.200000e+03 -7.891310e-07
-4.000000e+02 -3.200000e+03 -4.000000e+02
-5.246590e-06 -3.200000e+03 -4.000000e+02
-4.000000e+02 -2.800010e+03 -4.000000e+02
-8.218030e-06 -2.800010e+03 -4.000000e+02
-4.000000e+02 -3.200000e+03 -4.357560e-08
-5.699800e-06 -3.200000e+03 -6.598890e-07
-4.000000e+02 -2.800010e+03 1.079090e-05
-6.803570e-06 -2.800010e+03 1.266920e-05
-5.246590e-06 -3.200000e+03 -4.000000e+02
4.000000e+02 -3.200000e+03 -4.000000e+02
-8.218030e-06 -2.800010e+03 -4.000000e+02
4.000000e+02 -2.800010e+03 -4.000000e+02
-5.699800e-06 -3.200000e+03 -6.598890e-07
4.000000e+02 -3.200000e+03 -7.891310e-07
-6.803570e-06 -2.800010e+03 1.266920e-05
4.000000e+02 -2.800010e+03 1.358880e-05
-4.000000e+02 -2.800010e+03 -4.000000e+02
-8.218030e-06 -2.800010e+03 -4.000000e+02
-4.000000e+02 -2.400010e+03 -4.000000e+02
5.760330e-06 -2.400010e+03 -4.000000e+02
-4.000000e+02 -2.800010e+03 1.079090e-05
-6.803570e-06 -2.800010e+03 1.266920e-05
-4.000000e+02 -2.400010e+03 1.326100e-07
6.704310e-06 -2.400010e+03 5.256210e-07
-8.218030e-06 -2.800010e+03 -4.000000e+02
4.000000e+02 -2.800010e+03 -4.000000e+02
5.760330e-06 -2.400010e+03 -4.000000e+02
4.000000e+02 -2.400010e+03 -4.000000e+02
-6.803570e-06 -2.800010e+03 1.266920e-05
4.000000e+02 -2.800010e+03 1.358880e-05
6.704310e-06 -2.400010e+03 5.256210e-07
4.000000e+02 -2.400010e+03 1.646620e-06
-4.000000e+02 -2.400010e+03 -4.000000e+02
5.760330e-06 -2.400010e+03 -4.000000e+02
-4.000000e+02 -2.000020e+03 -4.000000e+02
8.703480e-06 -2.000020e+03 -4.000000e+02
-4.000000e+02 -2.400010e+03 1.326100e-07
6.704310e-06 -2.400010e+03 5.256210e-07
-4.000000e+02 -2.000020e+03 -6.263130e-06
7.624160e-06 -2.000020e+03 -6.892160e-06
5.760330e-06 -2.400010e+03 -4.000000e+02
4.000000e+02 -2.400010e+03 -4.000000e+02
8.703480e-06 -2.000020e+03 -4.000000e+02
4.000000e+02 -2.000020e+03 -4.000000e+02
6.704310e-06 -2.400010e+03 5.256210e-07
4.000000e+02 -2.400010e+03 1.646620e-06
7.624160e-06 -2.000020e+03 -6.892160e-06
4.000000e+02 -2.000020e+03 -7.685620e-06
-4.000000e+02 -2.000020e+03 -4.000000e+02
8.703480e-06 -2.000020e+03 -4.000000e+02
-4.000000e+02 -1.600040e+03 -4.000000e+02
-2.400080e-07 -1.600040e+03 -4.000000e+02
-4.000000e+02 -2.000020e+03 -6.263130e-06
7.624160e-06 -2.000020e+03 -6.892160e-06
-4.000000e+02 -1.600040e+03 -3.926950e-06
4.424870e-07 -1.600040e+03 -3.467470e-06
8.703480e-06 -2.000020e+03 -4.000000e+02
4.000000e+02 -2.000020e+03 -4.000000e+02
-2.400080e-07 -1.600040e+03 -4.000000e+02
4.000000e+02 -1.600040e+03 -4.000000e+02
7.624160e-06 -2.000020e+03 -6.892160e-06
4.000000e+02 -2.000020e+03 -7.685620e-06
4.424870e-07 -1.600040e+03 -3.467470e-06
4.000000e+02 -1.600040e+03 -3.358320e-06
-4.000000e+02 -1.600040e+03 -4.000000e+02
-2.400080e-07 -1.600040e+03 -4.000000e+02
-4.000000e+02 -1.200060e+03 -4.000000e+02
3.863280e-06 -1.200060e+03 -4.000000e+02
-4.000000e+02 -1.600040e+03 -3.926950e-06
4.424870e-07 -1.600040e+03 -3.467470e-06
-4.000000e+02 -1.200060e+03 2.214740e-06
1.319040e-06 -1.200060e+03 -7.416620e-07
-2.400080e-07 -1.600040e+03 -4.000000e+02
4.000000e+02 -1.600040e+03 -4.000000e+02
3.863280e-06 -1.200060e+03 -4.000000e+02
4.000000e+02 -1.200060e+03 -4.000000e+02
4.424870e-07 -1.600040e+03 -3.467470e-06
4.000000e+02 -1.600040e+03 -3.358320e-06
1.319040e-06 -1.200060e+03 -7.416620e-07
4.000000e+02 -1.200060e+03 -2.423820e-06
-4.000000e+02 -1.200060e+03 -4.000000e+02
3.863280e-06 -1.200060e+03 -4.000000e+02
-4.000000e+02 -8.001030e+02 -4.000000e+02
1.266810e-06 -8.001030e+02 -4.000000e+02
-4.000000e+02 -1.200060e+03 2.214740e-06
1.319040e-06 -1.200060e+03 -7.416620e-07
-4.000000e+02 -8.001030e+02 5.884390e-06
-9.101910e-07 -8.001030e+02 4.220660e-06
3.863280e-06 -1.200060e+03 -4.000000e+02
4.000000e+02 -1.200060e+03 -4.000000e+02
1.266810e-06 -8.001030e+02 -4.000000e+02
4.000000e+02 -8.001030e+02 -4.000000e+02
1.319040e-06 -1.200060e+03 -7.416620e-07
4.000000e+02 -1.200060e+03 -2.423820e-06
-9.101910e-07 -8.001030e+02 4.220660e-06
4.000000e+02 -8.001030e+02 2.502360e-06
-4.000000e+02 -8.001030e+02 -4.000000e+02
1.266810e-06 -8.001030e+02 -4.000000e+02
-4.000000e+02 -4.001590e+02 -4.000000e+02
-1.224820e-05 -4.001580e+02 -4.000000e+02
-4.000000e+02 -8.001030e+02 5.884390e-06
-9.101910e-07 -8.001030e+02 4.220660e-06
-4.000000e+02 -4.001590e+02 1.060700e-06
-1.109170e-05 -4.001580e+02 1.325540e-06
1.266810e-06 -8.001030e+02 -4.000000e+02
4.000000e+02 -8.001030e+02 -4.000000e+02
-1.224820e-05 -4.001580e+02 -4.000000e+02
4.000000e+02 -4.001580e+02 -4.000000e+02
-9.101910e-07 -8.001030e+02 4.220660e-06
4.000000e+02 -8.001030e+02 2.502360e-06
-1.109170e-05 -4.001580e+02 1.325540e-06
4.000000e+02 -4.001580e+02 1.864350e-07
-4.000000e+02 -4.001590e+02 -4.000000e+02
-1.224820e-05 -4.001580e+02 -4.000000e+02
-4.000000e+02 -2.207220e-01 -4.000000e+02
-1.133730e-05 -2.207300e-01 -4.000000e+02
-4.000000e+02 -4.001590e+02 1.060700e-06
-1.109170e-05 -4.001580e+02 1.325540e-06
-4.000000e+02 -2.207580e-01 -5.688100e-06
-1.100640e-05 -2.207580e-01 -4.477470e-06
-1.224820e-05 -4.001580e+02 -4.000000e+02
4.000000e+02 -4.001580e+02 -4.000000e+02
-1.133730e-05 -2.207300e-01 -4.000000e+02
4.000000e+02 -2.207360e-01 -4.000000e+02
[...]
<PointData>
<DataArray type="Float32" Name="V1" format="ascii">
0.000000e+00
0.000000e+00
-7.360570e-07
2.486930e-06
0.000000e+00
0.000000e+00
4.513530e-07
3.279870e-06
0.000000e+00
0.000000e+00
2.486930e-06
5.711910e-06
0.000000e+00
0.000000e+00
3.279870e-06
6.109230e-06
-7.360570e-07
2.486930e-06
3.377420e-06
-1.384010e-07
4.513530e-07
3.279870e-06
1.391510e-06
-1.380340e-06
2.486930e-06
5.711910e-06
-1.384010e-07
-3.653950e-06
3.279870e-06
6.109230e-06
-1.380340e-06
-4.153870e-06
3.377420e-06
-1.384010e-07
-3.701890e-06
-4.608720e-06
1.391510e-06
-1.380340e-06
-1.977830e-06
-3.701320e-06
-1.384010e-07
-3.653950e-06
-4.608720e-06
-5.513350e-06
-1.380340e-06
-4.153870e-06
-3.701320e-06
-5.423180e-06
-3.701890e-06
-4.608720e-06
-8.419190e-07
4.143980e-07
-1.977830e-06
-3.701320e-06
-1.728950e-06
4.664750e-07
-4.608720e-06
-5.513350e-06
4.143980e-07
1.669460e-06
-3.701320e-06
-5.423180e-06
4.664750e-07
2.662440e-06
-8.419190e-07
4.143980e-07
2.832130e-06
7.307000e-06
-1.728950e-06
4.664750e-07
2.613250e-06
6.570860e-06
4.143980e-07
1.669460e-06
7.307000e-06
1.178270e-05
4.664750e-07
2.662440e-06
6.570860e-06
1.052750e-05
2.832130e-06
7.307000e-06
1.723950e-06
-2.246660e-06
2.613250e-06
6.570860e-06
2.212110e-06
-2.481700e-06
7.307000e-06
1.178270e-05
-2.246660e-06
-6.215140e-06
6.570860e-06
1.052750e-05
-2.481700e-06
-7.172390e-06
1.723950e-06
-2.246660e-06
-2.427420e-06
-1.005770e-05
2.212110e-06
-2.481700e-06
-3.901360e-06
-8.717640e-06
-2.246660e-06
-6.215140e-06
-1.005770e-05
-1.769280e-05
-2.481700e-06
-7.172390e-06
-8.717640e-06
-1.353660e-05
-2.427420e-06
-1.005770e-05
-9.655920e-06
5.472950e-06
-3.901360e-06
-8.717640e-06
-4.165010e-06
7.177490e-06
-1.005770e-05
-1.769280e-05
5.472950e-06
2.060550e-05
-8.717640e-06
-1.353660e-05
7.177490e-06
1.851860e-05
-9.655920e-06
5.472950e-06
1.963390e-05
8.992490e-06
-4.165010e-06
7.177490e-06
1.459190e-05
6.029620e-06
5.472950e-06
2.060550e-05
8.992490e-06
-1.644470e-06
7.177490e-06
1.851860e-05
6.029620e-06
-2.525220e-06
1.963390e-05
8.992490e-06
-3.173120e-06
-4.150770e-06
1.459190e-05
6.029620e-06
-3.612210e-06
-4.830590e-06
8.992490e-06
-1.644470e-06
-4.150770e-06
-5.142480e-06
6.029620e-06
-2.525220e-06
-4.830590e-06
-6.057870e-06
-3.173120e-06
-4.150770e-06
-1.313360e-05
-2.381950e-06
-3.612210e-06
-4.830590e-06
-1.440520e-05
-2.489410e-06
-4.150770e-06
-5.142480e-06
-2.381950e-06
8.384590e-06
-4.830590e-06
-6.057870e-06
-2.489410e-06
9.429250e-06
-1.313360e-05
-2.381950e-06
1.041300e-05
3.817720e-06
-1.440520e-05
-2.489410e-06
8.180100e-06
4.590410e-07
-2.381950e-06
8.384590e-06
3.817720e-06
-2.780740e-06
-2.489410e-06
9.429250e-06
4.590410e-07
-7.256790e-06
1.041300e-05
3.817720e-06
-3.048090e-06
-7.954650e-06
8.180100e-06
4.590410e-07
5.718130e-06
-3.407440e-06
3.817720e-06
-2.780740e-06
-7.954650e-06
-1.286340e-05
4.590410e-07
-7.256790e-06
-3.407440e-06
-1.253410e-05
-3.048090e-06
-7.954650e-06
-8.864200e-06
-3.745340e-06
5.718130e-06
-3.407440e-06
-9.708390e-06
-1.259130e-06
-7.954650e-06
-1.286340e-05
-3.745340e-06
1.369770e-06
-3.407440e-06
-1.253410e-05
-1.259130e-06
7.171480e-06
-8.864200e-06
-3.745340e-06
-7.681740e-06
-6.916560e-08
-9.708390e-06
-1.259130e-06
-3.472960e-06
1.489540e-06
-3.745340e-06
1.369770e-06
-6.916560e-08
7.527830e-06
-1.259130e-06
7.171480e-06
1.489540e-06
6.472410e-06
-7.681740e-06
-6.916560e-08
2.040270e-05
5.902420e-06
-3.472960e-06
1.489540e-06
9.852620e-06
5.122890e-06
-6.916560e-08
7.527830e-06
5.902420e-06
-8.527990e-06
1.489540e-06
6.472410e-06
5.122890e-06
4.007780e-07
2.040270e-05
5.902420e-06
-7.458200e-06
6.002110e-06
9.852620e-06
5.122890e-06
1.494450e-05
1.547230e-05
5.902420e-06
-8.527990e-06
6.002110e-06
1.939270e-05
5.122890e-06
4.007780e-07
1.547230e-05
1.596760e-05
-7.458200e-06
6.002110e-06
3.004370e-05
5.482380e-06
1.494450e-05
1.547230e-05
-7.271510e-06
-1.329770e-05
6.002110e-06
1.939270e-05
5.482380e-06
-1.909060e-05
1.547230e-05
1.596760e-05
-1.329770e-05
-1.927840e-05
3.004370e-05
5.482380e-06
-2.907770e-05
-2.311480e-05
-7.271510e-06
-1.329770e-05
-3.169880e-05
-1.967130e-05
5.482380e-06
-1.909060e-05
-2.311480e-05
-1.713590e-05
-1.329770e-05
-1.927840e-05
-1.967130e-05
-7.717270e-06
-2.907770e-05
-2.311480e-05
-3.866150e-05
-7.384390e-06
-3.169880e-05
-1.967130e-05
4.219620e-06
8.623060e-06
-2.311480e-05
-1.713590e-05
-7.384390e-06
2.405980e-05
-1.967130e-05
-7.717270e-06
8.623060e-06
1.311960e-05
-3.866150e-05
-7.384390e-06
-1.303880e-07
-2.913720e-06
4.219620e-06
8.623060e-06
1.989250e-05
6.862950e-06
-7.384390e-06
2.405980e-05
-2.913720e-06
-5.761660e-06
8.623060e-06
1.311960e-05
6.862950e-06
-6.125960e-06
-1.303880e-07
-2.913720e-06
1.126760e-05
-8.597530e-06
1.989250e-05
6.862950e-06
-1.179480e-05
-1.428420e-05
-2.913720e-06
-5.761660e-06
-8.597530e-06
-2.846060e-05
6.862950e-06
-6.125960e-06
-1.428420e-05
-1.682880e-05
1.126760e-05
-8.597530e-06
1.227550e-05
1.273290e-05
-1.179480e-05
-1.428420e-05
1.533920e-05
1.484520e-05
-8.597530e-06
-2.846060e-05
1.273290e-05
1.327500e-05
-1.428420e-05
-1.682880e-05
1.484520e-05
1.436520e-05
1.227550e-05
1.273290e-05
7.132330e-06
1.101060e-05
1.533920e-05
1.484520e-05
8.534290e-06
8.967260e-06
1.273290e-05
1.327500e-05
1.101060e-05
1.502020e-05
1.484520e-05
1.436520e-05
8.967260e-06
9.484330e-06
7.132330e-06
1.101060e-05
-1.407610e-05
-3.190910e-06
8.534290e-06
8.967260e-06
-1.009540e-05
-2.541780e-06
1.101060e-05
1.502020e-05
-3.190910e-06
7.691700e-06
8.967260e-06
9.484330e-06
-2.541780e-06
5.103280e-06
-1.407610e-05
-3.190910e-06
-8.335760e-07
-9.822470e-07
-1.009540e-05
-2.541780e-06
-6.492350e-06
-3.546570e-06
-3.190910e-06
7.691700e-06
-9.822470e-07
-1.184460e-06
-2.541780e-06
5.103280e-06
-3.546570e-06
-5.743880e-07
-8.335760e-07
-9.822470e-07
-4.529190e-06
-5.654060e-06
-6.492350e-06
-3.546570e-06
-4.737430e-06
-6.829950e-06
-9.822470e-07
-1.184460e-06
-5.654060e-06
-6.807070e-06
-3.546570e-06
-5.743880e-07
-6.829950e-06
-8.951820e-06
-4.529190e-06
-5.654060e-06
-7.846360e-07
-4.180130e-06
-4.737430e-06
-6.829950e-06
5.466940e-06
1.186120e-06
-5.654060e-06
-6.807070e-06
-4.180130e-06
-7.551350e-06
-6.829950e-06
-8.951820e-06
1.186120e-06
-3.103550e-06
-7.846360e-07
-4.180130e-06
5.654940e-06
1.810150e-06
5.466940e-06
1.186120e-06
6.745820e-06
3.416050e-06
-4.180130e-06
-7.551350e-06
1.810150e-06
-2.093510e-06
1.186120e-06
-3.103550e-06
3.416050e-06
1.188090e-07
5.654940e-06
1.810150e-06
9.396740e-06
3.131740e-06
6.745820e-06
3.416050e-06
1.916710e-06
-2.650410e-06
1.810150e-06
-2.093510e-06
3.131740e-06
-3.297970e-06
3.416050e-06
1.188090e-07
-2.650410e-06
-6.809510e-06
0.000000e+00
0.000000e+00
4.513530e-07
3.279870e-06
0.000000e+00
0.000000e+00
9.922760e-07
4.274140e-06
0.000000e+00
0.000000e+00
3.279870e-06
6.109230e-06
0.000000e+00
0.000000e+00
4.274140e-06
7.558750e-06
4.513530e-07
3.279870e-06
1.391510e-06
-1.380340e-06
9.922760e-07
4.274140e-06
7.696470e-07
-2.839190e-06
3.279870e-06
6.109230e-06
-1.380340e-06
-4.153870e-06
4.274140e-06
7.558750e-06
-2.839190e-06
-6.449010e-06
1.391510e-06
-1.380340e-06
-1.977830e-06
-3.701320e-06
7.696470e-07
-2.839190e-06
-1.825430e-06
-2.739600e-06
-1.380340e-06
-4.153870e-06
-3.701320e-06
-5.423180e-06
-2.839190e-06
-6.449010e-06
-2.739600e-06
-3.652080e-06
-1.977830e-06
-3.701320e-06
-1.728950e-06
4.664750e-07
-1.825430e-06
-2.739600e-06
-8.163100e-07
6.316360e-07
-3.701320e-06
-5.423180e-06
4.664750e-07
2.662440e-06
-2.739600e-06
-3.652080e-06
6.316360e-07
2.081130e-06
-1.728950e-06
4.664750e-07
2.613250e-06
6.570860e-06
-8.163100e-07
6.316360e-07
1.859360e-06
5.787150e-06
4.664750e-07
2.662440e-06
6.570860e-06
1.052750e-05
6.316360e-07
2.081130e-06
5.787150e-06
9.711600e-06
2.613250e-06
6.570860e-06
2.212110e-06
-2.481700e-06
1.859360e-06
5.787150e-06
4.748730e-07
-2.877670e-06
6.570860e-06
1.052750e-05
-2.481700e-06
-7.172390e-06
5.787150e-06
9.711600e-06
-2.877670e-06
-6.227770e-06
2.212110e-06
-2.481700e-06
-3.901360e-06
-8.717640e-06
4.748730e-07
-2.877670e-06
4.328140e-07
-7.131160e-06
-2.481700e-06
-7.172390e-06
-8.717640e-06
-1.353660e-05
-2.877670e-06
-6.227770e-06
-7.131160e-06
-1.469380e-05
-3.901360e-06
-8.717640e-06
-4.165010e-06
7.177490e-06
4.328140e-07
-7.131160e-06
-6.219330e-06
8.360620e-06
-8.717640e-06
-1.353660e-05
7.177490e-06
1.851860e-05
-7.131160e-06
-1.469380e-05
8.360620e-06
2.293270e-05
-4.165010e-06
7.177490e-06
1.459190e-05
6.029620e-06
-6.219330e-06
8.360620e-06
1.425300e-05
3.554100e-06
7.177490e-06
1.851860e-05
6.029620e-06
-2.525220e-06
8.360620e-06
2.293270e-05
3.554100e-06
-7.135640e-06
1.459190e-05
6.029620e-06
-3.612210e-06
-4.830590e-06
1.425300e-05
3.554100e-06
-4.880830e-06
-5.047030e-06
6.029620e-06
-2.525220e-06
-4.830590e-06
-6.057870e-06
3.554100e-06
-7.135640e-06
-5.047030e-06
-5.214550e-06
-3.612210e-06
-4.830590e-06
-1.440520e-05
-2.489410e-06
-4.880830e-06
-5.047030e-06
-1.624920e-05
-4.469250e-06
-4.830590e-06
-6.057870e-06
-2.489410e-06
9.429250e-06
-5.047030e-06
-5.214550e-06
-4.469250e-06
7.297500e-06
-1.440520e-05
-2.489410e-06
8.180100e-06
4.590410e-07
-1.624920e-05
-4.469250e-06
9.546130e-06
-1.850280e-07
-2.489410e-06
9.429250e-06
4.590410e-07
-7.256790e-06
-4.469250e-06
7.297500e-06
-1.850280e-07
-9.897710e-06
8.180100e-06
4.590410e-07
5.718130e-06
-3.407440e-06
9.546130e-06
-1.850280e-07
1.620910e-06
-1.588720e-06
4.590410e-07
-7.256790e-06
-3.407440e-06
-1.253410e-05
-1.850280e-07
-9.897710e-06
-1.588720e-06
-4.794350e-06
5.718130e-06
-3.407440e-06
-9.708390e-06
-1.259130e-06
1.620910e-06
-1.588720e-06
-7.335380e-06
-4.759610e-07
-3.407440e-06
-1.253410e-05
-1.259130e-06
7.171480e-06
-1.588720e-06
-4.794350e-06
-4.759610e-07
6.327520e-06
-9.708390e-06
-1.259130e-06
-3.472960e-06
1.489540e-06
-7.335380e-06
-4.759610e-07
8.750780e-06
7.744760e-06
-1.259130e-06
7.171480e-06
1.489540e-06
6.472410e-06
-4.759610e-07
6.327520e-06
7.744760e-06
6.848740e-06
-3.472960e-06
1.489540e-06
9.852620e-06
5.122890e-06
8.750780e-06
7.744760e-06
1.028550e-05
9.254850e-06
1.489540e-06
6.472410e-06
5.122890e-06
4.007780e-07
7.744760e-06
6.848740e-06
9.254850e-06
8.115330e-06
9.852620e-06
5.122890e-06
1.494450e-05
1.547230e-05
1.028550e-05
9.254850e-06
1.138020e-05
3.523730e-06
5.122890e-06
4.007780e-07
1.547230e-05
1.596760e-05
9.254850e-06
8.115330e-06
3.523730e-06
-4.334000e-06
1.494450e-05
1.547230e-05
-7.271510e-06
-1.329770e-05
1.138020e-05
3.523730e-06
1.148340e-05
9.584190e-06
1.547230e-05
1.596760e-05
-1.329770e-05
-1.927840e-05
3.523730e-06
-4.334000e-06
9.584190e-06
7.818470e-06
-7.271510e-06
-1.329770e-05
-3.169880e-05
-1.967130e-05
1.148340e-05
9.584190e-06
-6.338040e-05
-8.858950e-06
-1.329770e-05
-1.927840e-05
-1.967130e-05
-7.717270e-06
9.584190e-06
7.818470e-06
-8.858950e-06
4.560000e-05
-3.169880e-05
-1.967130e-05
4.219620e-06
8.623060e-06
-6.338040e-05
-8.858950e-06
1.368590e-05
-1.001090e-07
-1.967130e-05
-7.717270e-06
8.623060e-06
1.311960e-05
-8.858950e-06
4.560000e-05
-1.001090e-07
-1.395500e-05
4.219620e-06
8.623060e-06
1.989250e-05
6.862950e-06
1.368590e-05
-1.001090e-07
2.001130e-05
-1.021540e-06
8.623060e-06
1.311960e-05
6.862950e-06
-6.125960e-06
-1.001090e-07
-1.395500e-05
-1.021540e-06
-2.210320e-05
1.989250e-05
6.862950e-06
-1.179480e-05
-1.428420e-05
2.001130e-05
-1.021540e-06
-4.918220e-06
-7.027450e-06
6.862950e-06
-6.125960e-06
-1.428420e-05
-1.682880e-05
-1.021540e-06
-2.210320e-05
-7.027450e-06
-9.447150e-06
-1.179480e-05
-1.428420e-05
1.533920e-05
1.484520e-05
-4.918220e-06
-7.027450e-06
1.976140e-05
1.841610e-05
-1.428420e-05
-1.682880e-05
1.484520e-05
1.436520e-05
-7.027450e-06
-9.447150e-06
1.841610e-05
1.709790e-05
1.533920e-05
1.484520e-05
8.534290e-06
8.967260e-06
1.976140e-05
1.841610e-05
6.133830e-06
7.350730e-06
1.484520e-05
1.436520e-05
8.967260e-06
9.484330e-06
1.841610e-05
1.709790e-05
7.350730e-06
8.569200e-06
8.534290e-06
8.967260e-06
-1.009540e-05
-2.541780e-06
6.133830e-06
7.350730e-06
-1.005790e-05
-2.454700e-06
8.967260e-06
9.484330e-06
-2.541780e-06
5.103280e-06
7.350730e-06
8.569200e-06
-2.454700e-06
5.122610e-06
-1.009540e-05
-2.541780e-06
-6.492350e-06
-3.546570e-06
-1.005790e-05
-2.454700e-06
-9.958770e-06
-5.513170e-06
-2.541780e-06
5.103280e-06
-3.546570e-06
-5.743880e-07
-2.454700e-06
5.122610e-06
-5.513170e-06
-1.019820e-06
-6.492350e-06
-3.546570e-06
-4.737430e-06
-6.829950e-06
-9.958770e-06
-5.513170e-06
-4.986300e-06
-6.940210e-06
-3.546570e-06
-5.743880e-07
-6.829950e-06
-8.951820e-06
-5.513170e-06
-1.019820e-06
-6.940210e-06
-8.878130e-06
-4.737430e-06
-6.829950e-06
5.466940e-06
1.186120e-06
-4.986300e-06
-6.940210e-06
7.766940e-06
5.213800e-06
-6.829950e-06
-8.951820e-06
1.186120e-06
-3.103550e-06
-6.940210e-06
-8.878130e-06
5.213800e-06
2.645380e-06
5.466940e-06
1.186120e-06
6.745820e-06
3.416050e-06
7.766940e-06
5.213800e-06
3.850000e-06
3.831220e-06
1.186120e-06
-3.103550e-06
3.416050e-06
1.188090e-07
5.213800e-06
2.645380e-06
3.831220e-06
3.818760e-06
6.745820e-06
3.416050e-06
1.916710e-06
-2.650410e-06
3.850000e-06
3.831220e-06
2.002370e-06
-6.565980e-06
3.416050e-06
1.188090e-07
-2.650410e-06
-6.809510e-06
3.831220e-06
3.818760e-06
-6.565980e-06
-1.515290e-05
</DataArray>
<DataArray type="Float32" Name="V2" format="ascii">
0.000000e+00
0.000000e+00
-2.566660e-04
-2.476480e-04
0.000000e+00
0.000000e+00
-2.383530e-04
-2.318210e-04
0.000000e+00
0.000000e+00
-2.476480e-04
-2.587220e-04
0.000000e+00
0.000000e+00
-2.318210e-04
-2.448260e-04
-2.566660e-04
-2.476480e-04
-1.305270e-05
-1.704770e-05
-2.383530e-04
-2.318210e-04
-2.876170e-06
-4.354410e-06
-2.476480e-04
-2.587220e-04
-1.704770e-05
-3.400420e-05
-2.318210e-04
-2.448260e-04
-4.354410e-06
-1.734800e-05
-1.305270e-05
-1.704770e-05
-3.492650e-04
-3.621710e-04
-2.876170e-06
-4.354410e-06
-3.749580e-04
-3.893460e-04
-1.704770e-05
-3.400420e-05
-3.621710e-04
-3.374490e-04
-4.354410e-06
-1.734800e-05
-3.893460e-04
-3.672920e-04
-3.492650e-04
-3.621710e-04
3.106670e-04
3.339250e-04
-3.749580e-04
-3.893460e-04
3.083600e-04
3.315910e-04
-3.621710e-04
-3.374490e-04
3.339250e-04
3.427540e-04
-3.893460e-04
-3.672920e-04
3.315910e-04
3.383150e-04
3.106670e-04
3.339250e-04
4.424520e-04
4.370990e-04
3.083600e-04
3.315910e-04
4.665530e-04
4.605490e-04
3.339250e-04
3.427540e-04
4.370990e-04
4.082340e-04
3.315910e-04
3.383150e-04
4.605490e-04
4.371960e-04
4.424520e-04
4.370990e-04
9.516550e-04
9.318540e-04
4.665530e-04
4.605490e-04
9.409690e-04
9.240040e-04
4.370990e-04
4.082340e-04
9.318540e-04
9.420150e-04
4.605490e-04
4.371960e-04
9.240040e-04
9.292720e-04
9.516550e-04
9.318540e-04
1.578380e-03
1.598240e-03
9.409690e-04
9.240040e-04
1.580910e-03
1.602310e-03
9.318540e-04
9.420150e-04
1.598240e-03
1.592640e-03
9.240040e-04
9.292720e-04
1.602310e-03
1.604440e-03
1.578380e-03
1.598240e-03
2.639800e-03
2.654610e-03
1.580910e-03
1.602310e-03
2.639560e-03
2.649630e-03
1.598240e-03
1.592640e-03
2.654610e-03
2.667250e-03
1.602310e-03
1.604440e-03
2.649630e-03
2.654250e-03
2.639800e-03
2.654610e-03
4.706150e-03
4.674410e-03
2.639560e-03
2.649630e-03
4.678790e-03
4.644860e-03
2.654610e-03
2.667250e-03
4.674410e-03
4.697340e-03
2.649630e-03
2.654250e-03
4.644860e-03
4.658990e-03
4.706150e-03
4.674410e-03
7.785690e-03
7.785120e-03
4.678790e-03
4.644860e-03
7.815150e-03
7.807390e-03
4.674410e-03
4.697340e-03
7.785120e-03
7.753920e-03
4.644860e-03
4.658990e-03
7.807390e-03
7.790160e-03
7.785690e-03
7.785120e-03
1.397490e-02
1.398160e-02
7.815150e-03
7.807390e-03
1.399860e-02
1.401630e-02
7.785120e-03
7.753920e-03
1.398160e-02
1.396920e-02
7.807390e-03
7.790160e-03
1.401630e-02
1.399900e-02
1.397490e-02
1.398160e-02
2.306130e-02
2.305030e-02
1.399860e-02
1.401630e-02
2.304040e-02
2.304510e-02
1.398160e-02
1.396920e-02
2.305030e-02
2.304780e-02
1.401630e-02
1.399900e-02
2.304510e-02
2.303770e-02
2.306130e-02
2.305030e-02
3.274030e-02
3.277160e-02
2.304040e-02
2.304510e-02
3.273420e-02
3.275390e-02
2.305030e-02
2.304780e-02
3.277160e-02
3.280040e-02
2.304510e-02
2.303770e-02
3.275390e-02
3.279350e-02
3.274030e-02
3.277160e-02
4.202770e-02
4.200780e-02
3.273420e-02
3.275390e-02
4.198680e-02
4.197170e-02
3.277160e-02
3.280040e-02
4.200780e-02
4.198940e-02
3.275390e-02
3.279350e-02
4.197170e-02
4.197550e-02
4.202770e-02
4.200780e-02
4.440740e-02
4.440540e-02
4.198680e-02
4.197170e-02
4.438560e-02
4.438370e-02
4.200780e-02
4.198940e-02
4.440540e-02
4.444630e-02
4.197170e-02
4.197550e-02
4.438370e-02
4.440750e-02
4.440740e-02
4.440540e-02
3.319900e-02
3.320340e-02
4.438560e-02
4.438370e-02
3.323250e-02
3.321700e-02
4.440540e-02
4.444630e-02
3.320340e-02
3.318830e-02
4.438370e-02
4.440750e-02
3.321700e-02
3.321570e-02
3.319900e-02
3.320340e-02
1.225450e-02
1.221200e-02
3.323250e-02
3.321700e-02
1.221840e-02
1.223500e-02
3.320340e-02
3.318830e-02
1.221200e-02
1.218810e-02
3.321700e-02
3.321570e-02
1.223500e-02
1.219610e-02
1.225450e-02
1.221200e-02
-8.594760e-03
-8.474450e-03
1.221840e-02
1.223500e-02
-8.477020e-03
-8.464810e-03
1.221200e-02
1.218810e-02
-8.474450e-03
-8.454710e-03
1.223500e-02
1.219610e-02
-8.464810e-03
-8.412480e-03
-8.594760e-03
-8.474450e-03
-1.705280e-02
-1.718950e-02
-8.477020e-03
-8.464810e-03
-1.706690e-02
-1.722350e-02
-8.474450e-03
-8.454710e-03
-1.718950e-02
-1.718290e-02
-8.464810e-03
-8.412480e-03
-1.722350e-02
-1.730320e-02
-1.705280e-02
-1.718950e-02
-7.802370e-03
-7.933910e-03
-1.706690e-02
-1.722350e-02
-8.075730e-03
-7.935840e-03
-1.718950e-02
-1.718290e-02
-7.933910e-03
-7.839640e-03
-1.722350e-02
-1.730320e-02
-7.935840e-03
-7.907760e-03
-7.802370e-03
-7.933910e-03
6.063900e-03
5.837150e-03
-8.075730e-03
-7.935840e-03
6.004770e-03
5.944950e-03
-7.933910e-03
-7.839640e-03
5.837150e-03
5.868070e-03
-7.935840e-03
-7.907760e-03
5.944950e-03
5.962700e-03
6.063900e-03
5.837150e-03
8.085120e-03
7.957190e-03
6.004770e-03
5.944950e-03
7.937010e-03
7.983370e-03
5.837150e-03
5.868070e-03
7.957190e-03
8.011070e-03
5.944950e-03
5.962700e-03
7.983370e-03
8.039550e-03
8.085120e-03
7.957190e-03
-1.921360e-03
-1.694700e-03
7.937010e-03
7.983370e-03
-1.724500e-03
-1.691720e-03
7.957190e-03
8.011070e-03
-1.694700e-03
-1.781020e-03
7.983370e-03
8.039550e-03
-1.691720e-03
-1.729400e-03
-1.921360e-03
-1.694700e-03
-3.002550e-03
-2.913320e-03
-1.724500e-03
-1.691720e-03
-2.919040e-03
-2.921360e-03
-1.694700e-03
-1.781020e-03
-2.913320e-03
-2.914430e-03
-1.691720e-03
-1.729400e-03
-2.921360e-03
-2.944820e-03
-3.002550e-03
-2.913320e-03
5.159730e-04
4.185210e-04
-2.919040e-03
-2.921360e-03
4.512190e-04
4.451740e-04
-2.913320e-03
-2.914430e-03
4.185210e-04
4.003940e-04
-2.921360e-03
-2.944820e-03
4.451740e-04
4.474290e-04
5.159730e-04
4.185210e-04
8.970860e-04
8.148010e-04
4.512190e-04
4.451740e-04
8.500050e-04
7.744240e-04
4.185210e-04
4.003940e-04
8.148010e-04
8.928420e-04
4.451740e-04
4.474290e-04
7.744240e-04
8.057520e-04
8.970860e-04
8.148010e-04
4.237140e-06
2.504930e-05
8.500050e-04
7.744240e-04
1.167160e-05
9.547790e-06
8.148010e-04
8.928420e-04
2.504930e-05
-1.496210e-05
7.744240e-04
8.057520e-04
9.547790e-06
9.278190e-06
4.237140e-06
2.504930e-05
-3.916320e-04
-3.341950e-04
1.167160e-05
9.547790e-06
-3.732930e-04
-3.769030e-04
2.504930e-05
-1.496210e-05
-3.341950e-04
-3.155240e-04
9.547790e-06
9.278190e-06
-3.769030e-04
-3.640860e-04
-3.916320e-04
-3.341950e-04
-5.213310e-04
-5.458630e-04
-3.732930e-04
-3.769030e-04
-5.545940e-04
-5.216560e-04
-3.341950e-04
-3.155240e-04
-5.458630e-04
-4.827110e-04
-3.769030e-04
-3.640860e-04
-5.216560e-04
-4.793900e-04
-5.213310e-04
-5.458630e-04
-5.698720e-04
-5.699280e-04
-5.545940e-04
-5.216560e-04
-5.910290e-04
-5.133440e-04
-5.458630e-04
-4.827110e-04
-5.699280e-04
-6.514580e-04
-5.216560e-04
-4.793900e-04
-5.133440e-04
-6.004230e-04
0.000000e+00
0.000000e+00
-2.383530e-04
-2.318210e-04
0.000000e+00
0.000000e+00
-2.408080e-04
-2.358130e-04
0.000000e+00
0.000000e+00
-2.318210e-04
-2.448260e-04
0.000000e+00
0.000000e+00
-2.358130e-04
-2.510810e-04
-2.383530e-04
-2.318210e-04
-2.876170e-06
-4.354410e-06
-2.408080e-04
-2.358130e-04
-5.387580e-06
-3.004240e-06
-2.318210e-04
-2.448260e-04
-4.354410e-06
-1.734800e-05
-2.358130e-04
-2.510810e-04
-3.004240e-06
-1.391040e-05
-2.876170e-06
-4.354410e-06
-3.749580e-04