MercuryDPM 0.14 name oneDimChain revision 6406 repository https://svn.mercurydpm.org/SourceCode/Branches/OomphlibCouplingExplicit
dataFile    fileType ONE_FILE saveCount 92 counter 103 lastSavedTimeStep 9332
fStatFile   fileType ONE_FILE saveCount 92 counter 103 lastSavedTimeStep 9332
eneFile     fileType ONE_FILE saveCount 92 counter 103 lastSavedTimeStep 9332
restartFile fileType ONE_FILE saveCount 92 counter 103 lastSavedTimeStep 9332
statFile    fileType ONE_FILE saveCount 92 counter 0
interactionFile fileType NO_FILE saveCount 0 counter 0
xMin -500 xMax 500 yMin -5000 yMax 5000 zMin -500 zMax 500
timeStep 0.0107162522263564 time 100.004065776375 ntimeSteps 9332 timeMax 100
systemDimensions 3 particleDimensions 3 gravity 0 0 -0 writeVTK 1 MULTIPLE_FILES NO_FILE 103 103 0 0 random  0 1103515245 12345 1073741824 607 273 784607267
Species 1
LinearViscoelasticReversibleAdhesiveSpecies id 0 density 2500 stiffness 13333333333.3333 dissipation -0 adhesionForceMax 0 adhesionStiffness 13333333333.3333
Walls 0
Boundaries 0
Particles 3240
BaseParticle id 0 indSpecies 0 position -333.333524668681 2066.44586228279 -333.333539406842 orientation 1 0 0 0 velocity 8.10096891520229e-05 0.0250082870434288 5.62342741672006e-05 angularVelocity 0 0 0 force 533242.361685861 -184443789.014762 210712.072219843 torque 0 0 0 radius 66.6666666666667 invMass 3.22288759761088e-10
BaseParticle id 1 indSpecies 0 position -333.333159787412 2066.4364293254 -200.000164541782 orientation 1 0 0 0 velocity 1.61337363759384e-05 0.0172857410023796 -1.55405231180254e-05 angularVelocity 0 0 0 force 323184.5982495 62389293.4502363 132859.126850895 torque 0 0 0 radius 66.6666666666667 invMass 3.22288759761088e-10
BaseParticle id 2 indSpecies 0 position -333.333630177824 2066.4173181918 -66.6666336978463 orientation 1 0 0 0 velocity -9.2231540421481e-05 0.0288927426769993 5.47430521199875e-05 angularVelocity 0 0 0 force 112502.126243549 47389857.0935953 56244.6911331109 torque 0 0 0 radius 66.6666666666667 invMass 3.22288759761088e-10
BaseParticle id 3 indSpecies 0 position -333.33362250325 2066.44934956567 66.6668714942193 orientation 1 0 0 0 velocity -6.20434129258062e-05 0.0317989074707515 -5.96160425357695e-06 angularVelocity 0 0 0 force 91141.366168674 112054190.357198 8707.24075218212 torque 0 0 0 radius 66.6666666666667 invMass 3.22288759761088e-10
BaseParticle id 4 indSpecies 0 position -333.333226245246 2066.43404463818 200.000199068799 orientation 1 0 0 0 velocity -2.09667327828318e-05 0.0182248960670098 -2.1994963399248e-05 angularVelocity 0 0 0 force 44603.3567140638 -7683478.91333115 41945.8118864949 torque 0 0 0 radius 66.6666666666667 invMass 3.22288759761088e-10
BaseParticle id 5 indSpecies 0 position -333.333582213783 2066.43198215685 333.333559902084 orientation 1 0 0 0 velocity 3.05650119389156e-06 0.0233008276405063 1.34487598720171e-05 angularVelocity 0 0 0 force -371.992699746101 136363994.773569 -120977.526871887 torque 0 0 0 radius 66.6666666666667 invMass 3.22288759761088e-10
BaseParticle id 6 indSpecies 0 position -200.000147092396 2066.4357498893 -333.332957256928 orientation 1 0 0 0 velocity 4.87332305749726e-05 0.0154836535601484 2.54939252669229e-05 angularVelocity 0 0 0 force 342325.300783291 71248139.2284707 119795.67162965 torque 0 0 0 radius 66.6666666666667 invMass 3.22288759761088e-10
BaseParticle id 7 indSpecies 0 position -199.999621180829 2065.89538410369 -199.999463454614 orientation 1 0 0 0 velocity 3.43695997232922e-05 0.0364467735710586 3.2774158369579e-05 angularVelocity 0 0 0 force 259804.018480071 132142482.835629 86704.8462128401 torque 0 0 0 radius 66.6666666666667 invMass 3.22288759761088e-10
BaseParticle id 8 indSpecies 0 position -200.000223210237 2066.44687240059 -66.6667029159222 orientation 1 0 0 0 velocity -1.22424338033127e-05 0.0140009924205677 1.54397672200114e-05 angularVelocity 0 0 0 force 177084.461145442 -32126265.0214847 53573.0526496083 torque 0 0 0 radius 66.6666666666667 invMass 3.22288759761088e-10
BaseParticle id 9 indSpecies 0 position -200.000224270068 2066.41115435101 66.6666787298329 orientation 1 0 0 0 velocity 5.04988745230748e-06 0.0216500918861197 -1.44571071820836e-05 angularVelocity 0 0 0 force 194800.44668759 69042552.2902548 11856.9442965637 torque 0 0 0 radius 66.6666666666667 invMass 3.22288759761088e-10
BaseParticle id 10 indSpecies 0 position -199.999682683292 2065.87710563795 199.999527507679 orientation 1 0 0 0 velocity 3.37961849650104e-05 0.0267701622851191 -2.33694621033025e-05 angularVelocity 0 0 0 force 193003.16630292 141585610.509024 -38354.3375696045 torque 0 0 0 radius 66.6666666666667 invMass 3.22288759761088e-10
BaseParticle id 11 indSpecies 0 position -200.000128066096 2066.43934261489 333.333112441335 orientation 1 0 0 0 velocity 4.2637806692161e-05 0.015906622696555 -7.62357147897584e-06 angularVelocity 0 0 0 force 191000.088085423 -33899304.6744433 -88311.9152625669 torque 0 0 0 radius 66.6666666666667 invMass 3.22288759761088e-10
BaseParticle id 12 indSpecies 0 position -66.6666924848866 2066.42133112379 -333.333624931145 orientation 1 0 0 0 velocity 1.82215114433457e-05 0.0291860234704121 -0.000109672825614333 angularVelocity 0 0 0 force 56995.9936469101 56855880.3630653 24594.4324584277 torque 0 0 0 radius 66.6666666666667 invMass 3.22288759761088e-10
BaseParticle id 13 indSpecies 0 position -66.6667911245298 2066.43569310323 -200.00018571136 orientation 1 0 0 0 velocity 3.69875276798679e-05 0.0160767126638712 -2.89848079380821e-05 angularVelocity 0 0 0 force 196082.26525624 94721414.9770451 40266.1762040924 torque 0 0 0 radius 66.6666666666667 invMass 3.22288759761088e-10
BaseParticle id 14 indSpecies 0 position -66.666734937859 2066.43876395264 -66.666638635592 orientation 1 0 0 0 velocity 6.68532715515258e-05 0.0166116061987803 1.81903139065931e-05 angularVelocity 0 0 0 force 237929.034278047 -78044575.7318627 -263892.558510924 torque 0 0 0 radius 66.6666666666667 invMass 3.22288759761088e-10
BaseParticle id 15 indSpecies 0 position -66.666729782741 2066.45024702989 66.6666710204148 orientation 1 0 0 0 velocity 7.06279138106932e-05 0.0258223165114304 -2.06949661593936e-05 angularVelocity 0 0 0 force 280499.495888179 70868849.9857209 257832.523541875 torque 0 0 0 radius 66.6666666666667 invMass 3.22288759761088e-10
BaseParticle id 16 indSpecies 0 position -66.6667626147222 2066.42567886036 200.00019004408 orientation 1 0 0 0 velocity 7.53759771798661e-05 0.0252772017093749 1.10040477195721e-05 angularVelocity 0 0 0 force 340522.590269509 126649541.470992 -53641.3894515503 torque 0 0 0 radius 66.6666666666667 invMass 3.22288759761088e-10
BaseParticle id 17 indSpecies 0 position -66.6667611111109 2066.44472060783 333.333692493021 orientation 1 0 0 0 velocity 6.19562409507989e-05 0.0167387207740835 0.000107849728429433 angularVelocity 0 0 0 force 374921.605682507 29857329.142785 -57546.4568410713 torque 0 0 0 radius 66.6666666666667 invMass 3.22288759761088e-10
BaseParticle id 18 indSpecies 0 position 66.6666337003154 2066.42007704731 -333.333550551066 orientation 1 0 0 0 velocity 1.26702139979688e-05 0.0367141023468241 -6.36937612464348e-05 angularVelocity 0 0 0 force 257295.516173871 57429603.1338115 -67242.6740226189 torque 0 0 0 radius 66.6666666666667 invMass 3.22288759761088e-10
BaseParticle id 19 indSpecies 0 position 66.6667509006543 2066.42839449744 -200.000107653929 orientation 1 0 0 0 velocity 3.59579339741765e-05 0.0197151501992675 -2.25601806600944e-05 angularVelocity 0 0 0 force 141404.845239396 105483047.877214 -33908.8518971404 torque 0 0 0 radius 66.6666666666667 invMass 3.22288759761088e-10
BaseParticle id 20 indSpecies 0 position 66.6666171400115 2066.44606851177 -66.6666454068531 orientation 1 0 0 0 velocity 1.59758556577548e-05 0.0202359243453197 1.70328376627012e-05 angularVelocity 0 0 0 force 116467.662147206 40525927.757443 -1364.23103914484 torque 0 0 0 radius 66.6666666666667 invMass 3.22288759761088e-10
BaseParticle id 21 indSpecies 0 position 66.666698173368 2066.44591116661 66.6667479897325 orientation 1 0 0 0 velocity 3.64360254702494e-05 0.0183889309177481 -3.73957404808477e-06 angularVelocity 0 0 0 force -57374.3730157669 41732602.1736877 -149302.631569978 torque 0 0 0 radius 66.6666666666667 invMass 3.22288759761088e-10
BaseParticle id 22 indSpecies 0 position 66.6667286685456 2066.43882709165 200.000207304348 orientation 1 0 0 0 velocity 4.80547604944819e-05 0.0223076506666114 3.75056007645533e-05 angularVelocity 0 0 0 force 68855.9361965176 9515548.03147082 -124371.485878008 torque 0 0 0 radius 66.6666666666667 invMass 3.22288759761088e-10
BaseParticle id 23 indSpecies 0 position 66.6665985096292 2066.42431766049 333.333663834301 orientation 1 0 0 0 velocity 6.56301386274223e-05 0.0307497868698599 7.8960752337279e-05 angularVelocity 0 0 0 force 226907.256177172 31856026.9515068 -86301.0990773598 torque 0 0 0 radius 66.6666666666667 invMass 3.22288759761088e-10
BaseParticle id 24 indSpecies 0 position 200.000006285652 2066.43860088341 -333.333089380553 orientation 1 0 0 0 velocity 1.68382010414141e-05 0.0147996036937141 2.6670647810745e-05 angularVelocity 0 0 0 force -31934.1217714549 24317002.2935407 84219.022646476 torque 0 0 0 radius 66.6666666666667 invMass 3.22288759761088e-10
BaseParticle id 25 indSpecies 0 position 199.999519885364 2065.88979482715 -199.999513111427 orientation 1 0 0 0 velocity 3.4254572335067e-05 0.0576697705121482 4.42223412375392e-05 angularVelocity 0 0 0 force 76268.8752889061 110503180.698399 82041.0227089731 torque 0 0 0 radius 66.6666666666667 invMass 3.22288759761088e-10
BaseParticle id 26 indSpecies 0 position 200.000122752745 2066.44366680438 -66.6666360384205 orientation 1 0 0 0 velocity 0.000106312925590931 0.0178782894801725 2.38238632239354e-05 angularVelocity 0 0 0 force 183984.768838121 -142554837.128566 -62251.9609180634 torque 0 0 0 radius 66.6666666666667 invMass 3.22288759761088e-10
BaseParticle id 27 indSpecies 0 position 200.000155541214 2066.43289612817 66.6666861805213 orientation 1 0 0 0 velocity 0.000103343508886404 0.0195523797501097 3.20728730648997e-05 angularVelocity 0 0 0 force 21921.0450324436 89314065.828724 181860.082830729 torque 0 0 0 radius 66.6666666666667 invMass 3.22288759761088e-10
BaseParticle id 28 indSpecies 0 position 199.999595958487 2065.89059443209 199.999591163934 orientation 1 0 0 0 velocity 8.74414182773638e-05 0.0505517687219918 1.76656030349036e-05 angularVelocity 0 0 0 force 216577.182718731 33762735.5346662 39608.8922609346 torque 0 0 0 radius 66.6666666666667 invMass 3.22288759761088e-10
BaseParticle id 29 indSpecies 0 position 200.000010386475 2066.43027487377 333.33319443415 orientation 1 0 0 0 velocity 9.50288180558272e-05 0.0227607143436063 4.112908612431e-05 angularVelocity 0 0 0 force 411522.480302115 69021598.7960243 39989.0602419536 torque 0 0 0 radius 66.6666666666667 invMass 3.22288759761088e-10
BaseParticle id 30 indSpecies 0 position 333.333477450034 2066.45117909613 -333.333596923344 orientation 1 0 0 0 velocity -2.31255794255676e-05 0.0137436972455862 6.79174863468238e-05 angularVelocity 0 0 0 force -227106.490509665 -96407128.9208317 240560.562774291 torque 0 0 0 radius 66.6666666666667 invMass 3.22288759761088e-10
BaseParticle id 31 indSpecies 0 position 333.33299851942 2066.43083945279 -200.000027536029 orientation 1 0 0 0 velocity 4.78867130885466e-05 0.0256862497936013 8.03969102650405e-05 angularVelocity 0 0 0 force 11220.0270457661 74731416.6949054 198035.372596462 torque 0 0 0 radius 66.6666666666667 invMass 3.22288759761088e-10
BaseParticle id 32 indSpecies 0 position 333.333496659198 2066.42006095557 -66.6666777680795 orientation 1 0 0 0 velocity 0.000174067171082288 0.0340893586155515 7.32073134300678e-05 angularVelocity 0 0 0 force 242925.870042132 4666118.16373125 159498.89354258 torque 0 0 0 radius 66.6666666666667 invMass 3.22288759761088e-10
BaseParticle id 33 indSpecies 0 position 333.333583811607 2066.4306169137 66.6667694219702 orientation 1 0 0 0 velocity 0.000172340646760428 0.0178385457877103 4.99092721452928e-05 angularVelocity 0 0 0 force 131618.874694915 96174174.8800214 236419.10932582 torque 0 0 0 radius 66.6666666666667 invMass 3.22288759761088e-10
BaseParticle id 34 indSpecies 0 position 333.333082978368 2066.43241032622 200.000118247292 orientation 1 0 0 0 velocity 0.000139594401584351 0.0309100804089104 2.34180919469745e-05 angularVelocity 0 0 0 force 364933.465032188 55207763.8356594 203928.596390549 torque 0 0 0 radius 66.6666666666667 invMass 3.22288759761088e-10
BaseParticle id 35 indSpecies 0 position 333.333466587058 2066.44352363955 333.333558366144 orientation 1 0 0 0 velocity 0.00013009595097547 0.0283133709938301 3.05544659114771e-05 angularVelocity 0 0 0 force 603635.676089167 73141883.612229 167632.581827657 torque 0 0 0 radius 66.6666666666667 invMass 3.22288759761088e-10
BaseParticle id 36 indSpecies 0 position -333.333615951931 2199.75657518566 -333.333615786825 orientation 1 0 0 0 velocity 0.000126898914123125 0.0657824213102559 7.22464404605784e-05 angularVelocity 0 0 0 force 359828.640562605 -9147591.17006215 142729.608896641 torque 0 0 0 radius 66.6666666666667 invMass 3.22288759761088e-10
BaseParticle id 37 indSpecies 0 position -333.332963280875 2199.76467882642 -199.999938520263 orientation 1 0 0 0 velocity 5.01551090714602e-05 0.0263904080976575 1.683359698236e-05 angularVelocity 0 0 0 force 133896.957453351 -176183761.266702 119310.879770239 torque 0 0 0 radius 66.6666666666667 invMass 3.22288759761088e-10
BaseParticle id 38 indSpecies 0 position -333.333661485791 2199.74403557045 -66.6665655325266 orientation 1 0 0 0 velocity -7.50505400126906e-05 0.0195080479222966 1.15243024237858e-06 angularVelocity 0 0 0 force -93004.3224613832 128301442.551587 94752.9704297318 torque 0 0 0 radius 66.6666666666667 invMass 3.22288759761088e-10
BaseParticle id 39 indSpecies 0 position -333.333428454906 2199.78011684682 66.6667738856943 orientation 1 0 0 0 velocity -4.49634633367035e-05 0.0223041354687231 5.05806703386499e-05 angularVelocity 0 0 0 force -55715.8053402529 -174025788.468506 109839.511637477 torque 0 0 0 radius 66.6666666666667 invMass 3.22288759761088e-10
BaseParticle id 40 indSpecies 0 position -333.332982491886 2199.75639983455 200.000142736244 orientation 1 0 0 0 velocity -1.49644630808282e-05 0.0419148702522086 2.84890836149806e-05 angularVelocity 0 0 0 force -107426.260104247 -216794131.754143 68361.8682711357 torque 0 0 0 radius 66.6666666666667 invMass 3.22288759761088e-10
BaseParticle id 41 indSpecies 0 position -333.333611370497 2199.76513587297 333.333503121016 orientation 1 0 0 0 velocity -3.57921867086067e-05 0.0215179630449819 -2.53183069655562e-05 angularVelocity 0 0 0 force -159494.097706948 -48286723.3902539 27146.8139737474 torque 0 0 0 radius 66.6666666666667 invMass 3.22288759761088e-10
BaseParticle id 42 indSpecies 0 position -200.000058839939 2199.76468509325 -333.332795673414 orientation 1 0 0 0 velocity 5.64367706656433e-05 0.0269643756157272 8.85389426600626e-06 angularVelocity 0 0 0 force -137053.141437134 -174610076.483001 29927.7870382565 torque 0 0 0 radius 66.6666666666667 invMass 3.22288759761088e-10
BaseParticle id 43 indSpecies 0 position -199.999728762569 2199.22888611827 -199.999587666998 orientation 1 0 0 0 velocity 3.03744553556621e-05 0.0584790821225618 2.84746916985882e-05 angularVelocity 0 0 0 force 244042.236818287 124146352.569468 81418.6542213543 torque 0 0 0 radius 66.6666666666667 invMass 3.22288759761088e-10
BaseParticle id 44 indSpecies 0 position -200.000171824645 2199.76823713416 -66.6668228111749 orientation 1 0 0 0 velocity -5.45138532235302e-05 0.0418266079268175 -2.4274534712749e-06 angularVelocity 0 0 0 force -34928.0931256337 -173793651.812215 70172.8342200848 torque 0 0 0 radius 66.6666666666667 invMass 3.22288759761088e-10
BaseParticle id 45 indSpecies 0 position -200.000076295674 2199.73897296458 66.6668376488338 orientation 1 0 0 0 velocity -9.81075320533733e-06 0.00818712655396674 -6.45869928633362e-06 angularVelocity 0 0 0 force 30962.2173568548 -108875916.776694 25924.8093658154 torque 0 0 0 radius 66.6666666666667 invMass 3.22288759761088e-10
BaseParticle id 46 indSpecies 0 position -199.999799413906 2199.21450673672 199.999654751374 orientation 1 0 0 0 velocity 2.93878396235832e-05 0.05233388264165 -1.97078855481753e-05 angularVelocity 0 0 0 force 181596.874052635 133077181.399504 -35980.9516356406 torque 0 0 0 radius 66.6666666666667 invMass 3.22288759761088e-10
BaseParticle id 47 indSpecies 0 position -200.000141528886 2199.7601652079 333.332918374787 orientation 1 0 0 0 velocity -7.9274807213374e-07 0.0443419993314375 -1.25196408711445e-05 angularVelocity 0 0 0 force -22702.6265599448 -167411597.945102 38693.9063578863 torque 0 0 0 radius 66.6666666666667 invMass 3.22288759761088e-10
BaseParticle id 48 indSpecies 0 position -66.6667490529979 2199.7488452473 -333.333578058008 orientation 1 0 0 0 velocity 4.00469075848365e-05 0.0148585412047131 -0.000116738863863232 angularVelocity 0 0 0 force 270015.331438081 110878523.903303 -83602.1118514554 torque 0 0 0 radius 66.6666666666667 invMass 3.22288759761088e-10
BaseParticle id 49 indSpecies 0 position -66.6667414539596 2199.76632301465 -200.000216828826 orientation 1 0 0 0 velocity 1.79098338162027e-05 0.0292987536466643 -8.43182335422079e-05 angularVelocity 0 0 0 force -4107.32218447752 -222871018.525801 -18895.8583304841 torque 0 0 0 radius 66.6666666666667 invMass 3.22288759761088e-10
BaseParticle id 50 indSpecies 0 position -66.6666760852633 2199.75713486348 -66.6667401920906 orientation 1 0 0 0 velocity 1.51321786442721e-05 0.0511338567981611 -1.22223869382087e-05 angularVelocity 0 0 0 force 24299.0455836722 -154216708.522235 45739.7693655596 torque 0 0 0 radius 66.6666666666667 invMass 3.22288759761088e-10
BaseParticle id 51 indSpecies 0 position -66.6666587424298 2199.77847627104 66.6667753395483 orientation 1 0 0 0 velocity 4.24778320869074e-05 0.0330335134034896 -4.79435224455066e-05 angularVelocity 0 0 0 force 116533.75593832 -245921680.455444 -58082.2580120324 torque 0 0 0 radius 66.6666666666667 invMass 3.22288759761088e-10
BaseParticle id 52 indSpecies 0 position -66.6666861622611 2199.75805808938 200.000226563359 orientation 1 0 0 0 velocity 2.19711561284593e-05 0.0168296952937002 2.86211568983074e-05 angularVelocity 0 0 0 force 115922.349209016 -83526582.4494864 -3756.79898442926 torque 0 0 0 radius 66.6666666666667 invMass 3.22288759761088e-10
BaseParticle id 53 indSpecies 0 position -66.6667233263797 2199.77023326272 333.333644175725 orientation 1 0 0 0 velocity -6.83548690523754e-06 0.0414996625493143 5.12940745312437e-05 angularVelocity 0 0 0 force 98976.4167498873 -203157398.004223 50782.2255269143 torque 0 0 0 radius 66.6666666666667 invMass 3.22288759761088e-10
BaseParticle id 54 indSpecies 0 position 66.6666289402798 2199.74748715378 -333.333453523097 orientation 1 0 0 0 velocity 4.19217675090537e-05 0.00159793107002518 -9.25941937068293e-05 angularVelocity 0 0 0 force 76033.3010644905 113875322.301466 -127645.982293644 torque 0 0 0 radius 66.6666666666667 invMass 3.22288759761088e-10
BaseParticle id 55 indSpecies 0 position 66.6668584274616 2199.75964638017 -200.000081871838 orientation 1 0 0 0 velocity 2.53053728986489e-05 0.0188336045935885 -6.37249822840853e-05 angularVelocity 0 0 0 force 30620.7418128908 -95118026.0751574 -49351.8065800648 torque 0 0 0 radius 66.6666666666667 invMass 3.22288759761088e-10
BaseParticle id 56 indSpecies 0 position 66.666711367475 2199.77294168632 -66.6666858845379 orientation 1 0 0 0 velocity 6.19069287744559e-06 0.0256908889584321 -9.23736512100156e-06 angularVelocity 0 0 0 force -15488.9130162171 -194022740.42126 28909.3760928286 torque 0 0 0 radius 66.6666666666667 invMass 3.22288759761088e-10
BaseParticle id 57 indSpecies 0 position 66.6666839409693 2199.77246403207 66.6667377306254 orientation 1 0 0 0 velocity 3.03577923011015e-06 0.0360622963854302 -2.05660056358635e-05 angularVelocity 0 0 0 force -162517.424486286 -191764297.868383 -109674.108305955 torque 0 0 0 radius 66.6666666666667 invMass 3.22288759761088e-10
BaseParticle id 58 indSpecies 0 position 66.666734162038 2199.76302627852 200.000139315171 orientation 1 0 0 0 velocity 5.08687031152607e-06 0.0337041645552751 3.6062013366727e-05 angularVelocity 0 0 0 force -73687.5924140197 -195160359.090152 -31367.8608111661 torque 0 0 0 radius 66.6666666666667 invMass 3.22288759761088e-10
BaseParticle id 59 indSpecies 0 position 66.6666073603145 2199.7501192835 333.333498083818 orientation 1 0 0 0 velocity 5.38786840629143e-06 0.0107065904460683 6.29921846790191e-05 angularVelocity 0 0 0 force 31102.9465855599 129288584.645521 47134.4386079575 torque 0 0 0 radius 66.6666666666667 invMass 3.22288759761088e-10
BaseParticle id 60 indSpecies 0 position 200.000068807245 2199.76382459452 -333.332954074026 orientation 1 0 0 0 velocity -2.66145363227836e-05 0.0380461832504498 -1.27473261691087e-05 angularVelocity 0 0 0 force -119009.77321922 -214617085.005794 14973.8971472731 torque 0 0 0 radius 66.6666666666667 invMass 3.22288759761088e-10
BaseParticle id 61 indSpecies 0 position 199.999640315957 2199.2214013634 -199.999637788833 orientation 1 0 0 0 velocity 3.40499052749361e-05 0.0407623541245007 3.9235069434836e-05 angularVelocity 0 0 0 force 71954.9089875062 148602086.097285 76955.3651882961 torque 0 0 0 radius 66.6666666666667 invMass 3.22288759761088e-10
BaseParticle id 62 indSpecies 0 position 200.000188046083 2199.7569961678 -66.6668990133626 orientation 1 0 0 0 velocity 6.76767931473728e-05 0.0604611865774291 -1.31683958840379e-05 angularVelocity 0 0 0 force 46408.6555053963 -88588709.5607745 65549.3941995525 torque 0 0 0 radius 66.6666666666667 invMass 3.22288759761088e-10
BaseParticle id 63 indSpecies 0 position 200.000134072616 2199.76257617879 66.6669240521298 orientation 1 0 0 0 velocity 6.71497564441877e-05 0.0281690125903162 -1.03265416840758e-05 angularVelocity 0 0 0 force -77346.6487008417 -184622029.098226 27537.5102648731 torque 0 0 0 radius 66.6666666666667 invMass 3.22288759761088e-10
BaseParticle id 64 indSpecies 0 position 199.999715647755 2199.21642451456 199.999706812654 orientation 1 0 0 0 velocity 8.42610425017096e-05 0.0402989739436814 1.85296041197053e-05 angularVelocity 0 0 0 force 203312.165477114 225895414.525456 37104.0229545124 torque 0 0 0 radius 66.6666666666667 invMass 3.22288759761088e-10
BaseParticle id 65 indSpecies 0 position 200.000220685415 2199.75886313525 333.333011135006 orientation 1 0 0 0 velocity 1.44552331879936e-05 0.0207327396720328 -5.68723655168803e-06 angularVelocity 0 0 0 force 152445.866982132 -57521378.1486454 83082.1218585353 torque 0 0 0 radius 66.6666666666667 invMass 3.22288759761088e-10
BaseParticle id 66 indSpecies 0 position 333.33393702978 2199.7678539665 -333.33367501914 orientation 1 0 0 0 velocity -5.90290843440067e-05 0.0598626677794903 2.65796428005733e-05 angularVelocity 0 0 0 force -311956.248806517 -101774807.187052 156646.786836192 torque 0 0 0 radius 66.6666666666667 invMass 3.22288759761088e-10
BaseParticle id 67 indSpecies 0 position 333.332959932658 2199.75984024591 -200.000019225553 orientation 1 0 0 0 velocity -1.25256482101973e-05 0.0146076056544768 1.5235987187417e-05 angularVelocity 0 0 0 force -103502.740317096 5658223.13162219 92627.705519262 torque 0 0 0 radius 66.6666666666667 invMass 3.22288759761088e-10
BaseParticle id 68 indSpecies 0 position 333.333734061467 2199.74382402116 -66.6666897220996 orientation 1 0 0 0 velocity 0.000103263745448482 0.00957055243085619 1.10688390860952e-05 angularVelocity 0 0 0 force 107427.706080456 165673989.715358 142568.658974108 torque 0 0 0 radius 66.6666666666667 invMass 3.22288759761088e-10
BaseParticle id 69 indSpecies 0 position 333.3335128676 2199.76048473601 66.6666941391681 orientation 1 0 0 0 velocity 9.90229562900629e-05 0.028084882368065 -1.73735993501005e-05 angularVelocity 0 0 0 force 8571.44154797711 -177638516.012472 163950.103524374 torque 0 0 0 radius 66.6666666666667 invMass 3.22288759761088e-10
BaseParticle id 70 indSpecies 0 position 333.332990943947 2199.75967203452 200.000149502657 orientation 1 0 0 0 velocity 3.91523049453904e-05 0.0109816115275325 -4.36290565310237e-05 angularVelocity 0 0 0 force 148496.491974864 -23839123.5791411 141653.830282021 torque 0 0 0 radius 66.6666666666667 invMass 3.22288759761088e-10
BaseParticle id 71 indSpecies 0 position 333.333653938134 2199.77248889198 333.333633553557 orientation 1 0 0 0 velocity 2.00339621549898e-05 0.0285562067918993 -3.07084385446856e-05 angularVelocity 0 0 0 force 288644.828856164 -246052074.943358 119369.716764797 torque 0 0 0 radius 66.6666666666667 invMass 3.22288759761088e-10
BaseParticle id 72 indSpecies 0 position -333.333248761914 2333.06555168014 -333.333459916273 orientation 1 0 0 0 velocity 0.000198072044865314 0.0244700237134844 7.97766544358059e-05 angularVelocity 0 0 0 force 205990.977508556 275408234.423337 81664.8044475221 torque 0 0 0 radius 66.6666666666667 invMass 3.22288759761088e-10
BaseParticle id 73 indSpecies 0 position -333.332947235896 2333.07765015988 -200.000038491167 orientation 1 0 0 0 velocity 7.69915195989232e-05 0.0632442355443982 6.17283069419261e-05 angularVelocity 0 0 0 force -34328.2668581739 57548847.2706128 81290.5361120659 torque 0 0 0 radius 66.6666666666667 invMass 3.22288759761088e-10
BaseParticle id 74 indSpecies 0 position -333.333327997075 2333.09998027816 -66.6667089001496 orientation 1 0 0 0 velocity -5.58671206069029e-05 0.0366798268463036 1.20975825101552e-05 angularVelocity 0 0 0 force -273967.887759398 -290252075.826861 153084.306324763 torque 0 0 0 radius 66.6666666666667 invMass 3.22288759761088e-10
BaseParticle id 75 indSpecies 0 position -333.33353462384 2333.09533467249 66.6667390314454 orientation 1 0 0 0 velocity -5.39011950171447e-05 0.0526411512002149 5.28608600919437e-05 angularVelocity 0 0 0 force -193103.26832842 -52382763.8508329 135030.1560162 torque 0 0 0 radius 66.6666666666667 invMass 3.22288759761088e-10
BaseParticle id 76 indSpecies 0 position -333.332948310828 2333.06087804733 200.000165165219 orientation 1 0 0 0 velocity -1.35500380071309e-05 0.0500732685749623 7.12757403286362e-06 angularVelocity 0 0 0 force -242914.751172723 317629745.104349 149753.017058259 torque 0 0 0 radius 66.6666666666667 invMass 3.22288759761088e-10
BaseParticle id 77 indSpecies 0 position -333.333494257024 2333.09237211982 333.333615426315 orientation 1 0 0 0 velocity -2.43523944861289e-05 0.0631492917018368 -1.22563251307218e-05 angularVelocity 0 0 0 force -299688.186192518 -157820600.675629 155031.707853302 torque 0 0 0 radius 66.6666666666667 invMass 3.22288759761088e-10
BaseParticle id 78 indSpecies 0 position -199.99988928499 2333.07867616165 -333.332813591091 orientation 1 0 0 0 velocity 2.87781047644952e-05 0.0639308257780678 -9.23443458085223e-06 angularVelocity 0 0 0 force 7483.54343133554 65636514.977192 -50194.8795868597 torque 0 0 0 radius 66.6666666666667 invMass 3.22288759761088e-10
BaseParticle id 79 indSpecies 0 position -199.999457197091 2332.58712553821 -199.999229678936 orientation 1 0 0 0 velocity 4.9948429737435e-05 0.0192284338905306 7.15093860129865e-06 angularVelocity 0 0 0 force -107614.037576774 -77601286.1976132 17838.6160098516 torque 0 0 0 radius 66.6666666666667 invMass 3.22288759761088e-10
BaseParticle id 80 indSpecies 0 position -199.999992107186 2333.07504038346 -66.6667420615238 orientation 1 0 0 0 velocity -5.24936030972741e-05 0.0580876042749706 -1.75066224083377e-05 angularVelocity 0 0 0 force -221473.989006429 285440965.358993 85611.5877136985 torque 0 0 0 radius 66.6666666666667 invMass 3.22288759761088e-10
BaseParticle id 81 indSpecies 0 position -200.000042616026 2333.05634566912 66.6667589333879 orientation 1 0 0 0 velocity -4.04800366999858e-06 0.0688309248080715 -4.46839265939582e-05 angularVelocity 0 0 0 force -115118.844449025 151883712.872425 37815.6775665478 torque 0 0 0 radius 66.6666666666667 invMass 3.22288759761088e-10
BaseParticle id 82 indSpecies 0 position -199.999414461565 2332.59269654671 199.999322511516 orientation 1 0 0 0 velocity -9.2011031496223e-06 0.0180514758089709 1.73856307827603e-05 angularVelocity 0 0 0 force -163375.635155291 -59566692.132692 95070.82831902 torque 0 0 0 radius 66.6666666666667 invMass 3.22288759761088e-10
BaseParticle id 83 indSpecies 0 position -200.000037161889 2333.06724325799 333.332921638965 orientation 1 0 0 0 velocity -4.20422985334281e-05 0.0523178048725443 -1.30090524250606e-05 angularVelocity 0 0 0 force -211448.575975486 256038504.483842 151981.639595595 torque 0 0 0 radius 66.6666666666667 invMass 3.22288759761088e-10
BaseParticle id 84 indSpecies 0 position -66.6665555016317 2333.09462518584 -333.3335654365 orientation 1 0 0 0 velocity 9.15230709341969e-05 0.0525993700199259 -0.000154832433676895 angularVelocity 0 0 0 force -178942.248696303 -270399666.622106 -188420.963266638 torque 0 0 0 radius 66.6666666666667 invMass 3.22288759761088e-10
BaseParticle id 85 indSpecies 0 position -66.6665428038577 2333.07854054853 -200.000106183367 orientation 1 0 0 0 velocity 1.0785402036721e-05 0.0627079622659822 -0.000122716151364644 angularVelocity 0 0 0 force -180003.247248546 111417874.109264 -70953.5999095147 torque 0 0 0 radius 66.6666666666667 invMass 3.22288759761088e-10
BaseParticle id 86 indSpecies 0 position -66.6665780974817 2333.06304811211 -66.6666572135649 orientation 1 0 0 0 velocity -3.66202826882063e-05 0.0456447528022864 -3.52717923275549e-05 angularVelocity 0 0 0 force -159741.870784067 306900211.743547 33417.1384006047 torque 0 0 0 radius 66.6666666666667 invMass 3.22288759761088e-10
BaseParticle id 87 indSpecies 0 position -66.6666249738882 2333.0864674014 66.6667268171409 orientation 1 0 0 0 velocity 4.19305717593061e-06 0.0587428782372104 -5.21325803157012e-05 angularVelocity 0 0 0 force -56411.9057033045 133765561.263945 -63472.4788765382 torque 0 0 0 radius 66.6666666666667 invMass 3.22288759761088e-10