<?xml version="1.0"?>
<!-- time 81.3364-->
<VTKFile type="UnstructuredGrid" version="0.1" byte_order="LittleEndian">
<UnstructuredGrid>
<Piece NumberOfPoints="3240" NumberOfCells="0">
<Points>
  <DataArray type="Float32" Name="Position" NumberOfComponents="3" format="ascii">
	-333.333 2066.19 -333.333
	-333.333 2066.32 -200
	-333.333 2066.32 -66.6667
	-333.333 2066.32 66.6667
	-333.333 2066.32 200
	-333.333 2066.19 333.333
	-200 2066.32 -333.333
	-200 2066.33 -200
	-200 2066.25 -66.6667
	-200 2066.25 66.6667
	-200 2066.33 200
	-200 2066.32 333.333
	-66.6667 2066.32 -333.333
	-66.6667 2066.25 -200
	-66.6667 2066.12 -66.6667
	-66.6667 2066.12 66.6667
	-66.6667 2066.25 200
	-66.6667 2066.32 333.333
	66.6667 2066.32 -333.333
	66.6667 2066.25 -200
	66.6667 2066.12 -66.6667
	66.6667 2066.12 66.6667
	66.6667 2066.25 200
	66.6667 2066.32 333.333
	200 2066.32 -333.333
	200 2066.33 -200
	200 2066.25 -66.6667
	200 2066.25 66.6667
	200 2066.33 200
	200 2066.32 333.333
	333.333 2066.19 -333.333
	333.333 2066.32 -200
	333.333 2066.32 -66.6667
	333.333 2066.32 66.6667
	333.333 2066.32 200
	333.333 2066.19 333.333
	-333.333 2199.6 -333.333
	-333.334 2199.66 -200
	-333.333 2199.65 -66.6667
	-333.333 2199.65 66.6667
	-333.334 2199.66 200
	-333.333 2199.6 333.333
	-200 2199.66 -333.334
	-200 2199.67 -200
	-200 2199.62 -66.6668
	-200 2199.62 66.6668
	-200 2199.67 200
	-200 2199.66 333.334
	-66.6667 2199.65 -333.333
	-66.6668 2199.62 -200
	-66.6667 2199.56 -66.6667
	-66.6667 2199.56 66.6667
	-66.6668 2199.62 200
	-66.6667 2199.65 333.333
	66.6667 2199.65 -333.333
	66.6668 2199.62 -200
	66.6667 2199.56 -66.6667
	66.6667 2199.56 66.6667
	66.6668 2199.62 200
	66.6667 2199.65 333.333
	200 2199.66 -333.334
	200 2199.67 -200
	200 2199.62 -66.6668
	200 2199.62 66.6668
	200 2199.67 200
	200 2199.66 333.334
	333.333 2199.6 -333.333
	333.334 2199.66 -200
	333.333 2199.65 -66.6667
	333.333 2199.65 66.6667
	333.334 2199.66 200
	333.333 2199.6 333.333
	-333.334 2332.99 -333.334
	-333.334 2333 -200
	-333.334 2333 -66.6668
	-333.334 2333 66.6668
	-333.334 2333 200
	-333.334 2332.99 333.334
	-200 2333 -333.334
	-200 2333 -200
	-200 2332.96 -66.6668
	-200 2332.96 66.6668
	-200 2333 200
	-200 2333 333.334
	-66.6668 2333 -333.334
	-66.6668 2332.96 -200
	-66.6668 2332.92 -66.6668
	-66.6668 2332.92 66.6668
	-66.6668 2332.96 200
	-66.6668 2333 333.334
	66.6668 2333 -333.334
	66.6668 2332.96 -200
	66.6668 2332.92 -66.6668
	66.6668 2332.92 66.6668
	66.6668 2332.96 200
	66.6668 2333 333.334
	200 2333 -333.334
	200 2333 -200
	200 2332.96 -66.6668
	200 2332.96 66.6668
	200 2333 200
	200 2333 333.334
	333.334 2332.99 -333.334
	333.334 2333 -200
	333.334 2333 -66.6668
	333.334 2333 66.6668
	333.334 2333 200
	333.334 2332.99 333.334
	-333.334 2466.32 -333.334
	-333.334 2466.34 -200
	-333.334 2466.33 -66.6667
	-333.334 2466.33 66.6667
	-333.334 2466.34 200
	-333.334 2466.32 333.334
	-200 2466.34 -333.334
	-200 2466.33 -200
	-200 2466.32 -66.6667
	-200 2466.32 66.6667
	-200 2466.33 200
	-200 2466.34 333.334
	-66.6667 2466.33 -333.334
	-66.6667 2466.32 -200
	-66.6668 2466.27 -66.6668
	-66.6668 2466.27 66.6668
	-66.6667 2466.32 200
	-66.6667 2466.33 333.334
	66.6667 2466.33 -333.334
	66.6667 2466.32 -200
	66.6668 2466.27 -66.6668
	66.6668 2466.27 66.6668
	66.6667 2466.32 200
	66.6667 2466.33 333.334
	200 2466.34 -333.334
	200 2466.33 -200
	200 2466.32 -66.6667
	200 2466.32 66.6667
	200 2466.33 200
	200 2466.34 333.334
	333.334 2466.32 -333.334
	333.334 2466.34 -200
	333.334 2466.33 -66.6667
	333.334 2466.33 66.6667
	333.334 2466.34 200
	333.334 2466.32 333.334
	-333.333 2599.66 -333.333
	-333.333 2599.68 -200
	-333.334 2599.67 -66.6668
	-333.334 2599.67 66.6668
	-333.333 2599.68 200
	-333.333 2599.66 333.333
	-200 2599.68 -333.333
	-200 2599.66 -200
	-200 2599.65 -66.6668
	-200 2599.65 66.6668
	-200 2599.66 200
	-200 2599.68 333.333
	-66.6668 2599.67 -333.334
	-66.6668 2599.65 -200
	-66.6668 2599.63 -66.6668
	-66.6668 2599.63 66.6668
	-66.6668 2599.65 200
	-66.6668 2599.67 333.334
	66.6668 2599.67 -333.334
	66.6668 2599.65 -200
	66.6668 2599.63 -66.6668
	66.6668 2599.63 66.6668
	66.6668 2599.65 200
	66.6668 2599.67 333.334
	200 2599.68 -333.333
	200 2599.66 -200
	200 2599.65 -66.6668
	200 2599.65 66.6668
	200 2599.66 200
	200 2599.68 333.333
	333.333 2599.66 -333.333
	333.333 2599.68 -200
	333.334 2599.67 -66.6668
	333.334 2599.67 66.6668
	333.333 2599.68 200
	333.333 2599.66 333.333
	-333.334 2733.01 -333.334
	-333.334 2733.01 -200
	-333.334 2733.01 -66.6668
	-333.334 2733.01 66.6668
	-333.334 2733.01 200
	-333.334 2733.01 333.334
	-200 2733.01 -333.334
	-200 2733 -200
	-200 2732.99 -66.6668
	-200 2732.99 66.6668
	-200 2733 200
	-200 2733.01 333.334
	-66.6668 2733.01 -333.334
	-66.6668 2732.99 -200
	-66.6668 2732.97 -66.6668
	-66.6668 2732.97 66.6668
	-66.6668 2732.99 200
	-66.6668 2733.01 333.334
	66.6668 2733.01 -333.334
	66.6668 2732.99 -200
	66.6668 2732.97 -66.6668
	66.6668 2732.97 66.6668
	66.6668 2732.99 200
	66.6668 2733.01 333.334
	200 2733.01 -333.334
	200 2733 -200
	200 2732.99 -66.6668
	200 2732.99 66.6668
	200 2733 200
	200 2733.01 333.334
	333.334 2733.01 -333.334
	333.334 2733.01 -200
	333.334 2733.01 -66.6668
	333.334 2733.01 66.6668
	333.334 2733.01 200
	333.334 2733.01 333.334
	-333.333 2866.34 -333.333
	-333.333 2866.34 -200
	-333.333 2866.34 -66.6667
	-333.333 2866.34 66.6667
	-333.333 2866.34 200
	-333.333 2866.34 333.333
	-200 2866.34 -333.333
	-200 2866.34 -200
	-200 2866.32 -66.6667
	-200 2866.32 66.6667
	-200 2866.34 200
	-200 2866.34 333.333
	-66.6667 2866.34 -333.333
	-66.6667 2866.32 -200
	-66.6667 2866.3 -66.6667
	-66.6667 2866.3 66.6667
	-66.6667 2866.32 200
	-66.6667 2866.34 333.333
	66.6667 2866.34 -333.333
	66.6667 2866.32 -200
	66.6667 2866.3 -66.6667
	66.6667 2866.3 66.6667
	66.6667 2866.32 200
	66.6667 2866.34 333.333
	200 2866.34 -333.333
	200 2866.34 -200
	200 2866.32 -66.6667
	200 2866.32 66.6667
	200 2866.34 200
	200 2866.34 333.333
	333.333 2866.34 -333.333
	333.333 2866.34 -200
	333.333 2866.34 -66.6667
	333.333 2866.34 66.6667
	333.333 2866.34 200
	333.333 2866.34 333.333
	-333.334 2999.68 -333.334
	-333.334 2999.68 -200
	-333.334 2999.67 -66.6667
	-333.334 2999.67 66.6667
	-333.334 2999.68 200
	-333.334 2999.68 333.334
	-200 2999.68 -333.334
	-200 2999.67 -200
	-200 2999.66 -66.6667
	-200 2999.66 66.6667
	-200 2999.67 200
	-200 2999.68 333.334
	-66.6667 2999.67 -333.334
	-66.6667 2999.66 -200
	-66.6667 2999.64 -66.6667
	-66.6667 2999.64 66.6667
	-66.6667 2999.66 200
	-66.6667 2999.67 333.334
	66.6667 2999.67 -333.334
	66.6667 2999.66 -200
	66.6667 2999.64 -66.6667
	66.6667 2999.64 66.6667
	66.6667 2999.66 200
	66.6667 2999.67 333.334
	200 2999.68 -333.334
	200 2999.67 -200
	200 2999.66 -66.6667
	200 2999.66 66.6667
	200 2999.67 200
	200 2999.68 333.334
	333.334 2999.68 -333.334
	333.334 2999.68 -200
	333.334 2999.67 -66.6667
	333.334 2999.67 66.6667
	333.334 2999.68 200
	333.334 2999.68 333.334
	-333.333 3133.02 -333.333
	-333.333 3133.01 -200
	-333.333 3133 -66.6667
	-333.333 3133 66.6667
	-333.333 3133.01 200
	-333.333 3133.02 333.333
	-200 3133.01 -333.333
	-200 3133 -200
	-200 3132.99 -66.6667
	-200 3132.99 66.6667
	-200 3133 200
	-200 3133.01 333.333
	-66.6667 3133 -333.333
	-66.6667 3132.99 -200
	-66.6667 3132.97 -66.6667
	-66.6667 3132.97 66.6667
	-66.6667 3132.99 200
	-66.6667 3133 333.333
	66.6667 3133 -333.333
	66.6667 3132.99 -200
	66.6667 3132.97 -66.6667
	66.6667 3132.97 66.6667
	66.6667 3132.99 200
	66.6667 3133 333.333
	200 3133.01 -333.333
	200 3133 -200
	200 3132.99 -66.6667
	200 3132.99 66.6667
	200 3133 200
	200 3133.01 333.333
	333.333 3133.02 -333.333
	333.333 3133.01 -200
	333.333 3133 -66.6667
	333.333 3133 66.6667
	333.333 3133.01 200
	333.333 3133.02 333.333
	-333.333 3266.35 -333.333
	-333.334 3266.34 -200
	-333.334 3266.34 -66.6667
	-333.334 3266.34 66.6667
	-333.334 3266.34 200
	-333.333 3266.35 333.333
	-200 3266.34 -333.334
	-200 3266.33 -200
	-200 3266.32 -66.6667
	-200 3266.32 66.6667
	-200 3266.33 200
	-200 3266.34 333.334
	-66.6667 3266.34 -333.334
	-66.6667 3266.32 -200
	-66.6667 3266.31 -66.6667
	-66.6667 3266.31 66.6667
	-66.6667 3266.32 200
	-66.6667 3266.34 333.334
	66.6667 3266.34 -333.334
	66.6667 3266.32 -200
	66.6667 3266.31 -66.6667
	66.6667 3266.31 66.6667
	66.6667 3266.32 200
	66.6667 3266.34 333.334
	200 3266.34 -333.334
	200 3266.33 -200
	200 3266.32 -66.6667
	200 3266.32 66.6667
	200 3266.33 200
	200 3266.34 333.334
	333.333 3266.35 -333.333
	333.334 3266.34 -200
	333.334 3266.34 -66.6667
	333.334 3266.34 66.6667
	333.334 3266.34 200
	333.333 3266.35 333.333
	-333.333 3399.68 -333.333
	-333.333 3399.68 -200
	-333.333 3399.67 -66.6667
	-333.333 3399.67 66.6667
	-333.333 3399.68 200
	-333.333 3399.68 333.333
	-200 3399.68 -333.333
	-200 3399.66 -200
	-200 3399.66 -66.6667
	-200 3399.66 66.6667
	-200 3399.66 200
	-200 3399.68 333.333
	-66.6667 3399.67 -333.333
	-66.6667 3399.66 -200
	-66.6667 3399.65 -66.6667
	-66.6667 3399.65 66.6667
	-66.6667 3399.66 200
	-66.6667 3399.67 333.333
	66.6667 3399.67 -333.333
	66.6667 3399.66 -200
	66.6667 3399.65 -66.6667
	66.6667 3399.65 66.6667
	66.6667 3399.66 200
	66.6667 3399.67 333.333
	200 3399.68 -333.333
	200 3399.66 -200
	200 3399.66 -66.6667
	200 3399.66 66.6667
	200 3399.66 200
	200 3399.68 333.333
	333.333 3399.68 -333.333
	333.333 3399.68 -200
	333.333 3399.67 -66.6667
	333.333 3399.67 66.6667
	333.333 3399.68 200
	333.333 3399.68 333.333
	-333.333 3533.02 -333.333
	-333.333 3533.01 -200
	-333.334 3533.01 -66.6667
	-333.334 3533.01 66.6667
	-333.333 3533.01 200
	-333.333 3533.02 333.333
	-200 3533.01 -333.333
	-200 3533 -200
	-200 3532.99 -66.6667
	-200 3532.99 66.6667
	-200 3533 200
	-200 3533.01 333.333
	-66.6667 3533.01 -333.334
	-66.6667 3532.99 -200
	-66.6667 3532.98 -66.6667
	-66.6667 3532.98 66.6667
	-66.6667 3532.99 200
	-66.6667 3533.01 333.334
	66.6667 3533.01 -333.334
	66.6667 3532.99 -200
	66.6667 3532.98 -66.6667
	66.6667 3532.98 66.6667
	66.6667 3532.99 200
	66.6667 3533.01 333.334
	200 3533.01 -333.333
[...]
<PointData  Vectors="vector">
  <DataArray type="Float32" Name="Velocity" NumberOfComponents="3" format="ascii">
 -2.39582e-05 -0.000703373 -1.92716e-05
 -1.05083e-05 -0.0014986 -2.01011e-05
 -3.7124e-06 0.000884453 1.69103e-05
 -3.66557e-06 0.000884928 -1.67389e-05
 -1.05677e-05 -0.00150254 1.70179e-05
 -2.04877e-05 -0.000708979 2.19587e-05
 -1.48363e-05 -0.00150089 -1.04538e-05
 -1.04534e-05 -0.00628968 -1.15354e-05
 -8.9804e-06 0.00599286 1.3835e-05
 -8.92145e-06 0.00599151 -1.41275e-05
 -1.20975e-05 -0.0062915 1.17496e-05
 -1.82494e-05 -0.00150278 1.03032e-05
 1.67754e-05 0.000883645 -4.24144e-06
 1.32748e-05 0.00599449 -8.16352e-06
 2.71407e-06 0.00193652 2.32778e-06
 2.65668e-06 0.00193529 -2.59737e-06
 1.49279e-05 0.00599119 8.77232e-06
 1.66876e-05 0.00088442 3.66667e-06
 -1.71401e-05 0.000883919 -3.68812e-06
 -1.25457e-05 0.00599515 -8.70987e-06
 -2.53218e-06 0.00193728 2.37295e-06
 -2.47324e-06 0.00193617 -2.53906e-06
 -1.43842e-05 0.00599217 7.30247e-06
 -1.64958e-05 0.000883845 5.02002e-06
 2.00812e-05 -0.00149908 -1.0464e-05
 9.8225e-06 -0.00628877 -1.18947e-05
 8.97374e-06 0.00599489 1.40921e-05
 8.8256e-06 0.00599388 -1.45372e-05
 1.15618e-05 -0.00629001 1.21024e-05
 1.97441e-05 -0.00149984 1.04572e-05
 1.93159e-05 -0.000701067 -1.80809e-05
 1.06327e-05 -0.00149921 -2.13375e-05
 3.74673e-06 0.000883554 1.66789e-05
 3.77835e-06 0.000883085 -1.62392e-05
 1.07581e-05 -0.001502 1.82651e-05
 1.90069e-05 -0.000704827 2.04672e-05
 -2.00379e-05 0.00556604 -2.02594e-05
 -3.45632e-05 -0.00123116 -2.2501e-05
 1.20682e-05 -0.0019772 -2.46592e-05
 1.20077e-05 -0.00197974 2.48036e-05
 -3.5062e-05 -0.00120755 2.23293e-05
 -2.00042e-05 0.00556253 2.01215e-05
 -2.24927e-05 -0.00122673 -3.44992e-05
 9.69322e-06 0.00157538 9.41442e-06
 1.54379e-05 -0.000884751 -4.84982e-06
 1.53688e-05 -0.000885412 4.75084e-06
 9.57544e-06 0.00157922 -9.55805e-06
 -2.24779e-05 -0.00120793 3.45766e-05
 -2.49867e-05 -0.00197251 1.16624e-05
 -4.73397e-06 -0.000883898 1.53918e-05
 -1.55587e-05 -0.00325551 -8.34854e-06
 -1.70087e-05 -0.00325623 8.71458e-06
 -5.17567e-06 -0.000885574 -1.55576e-05
 -2.4786e-05 -0.00198013 -1.20298e-05
 2.49008e-05 -0.00197183 1.16617e-05
 4.74662e-06 -0.00088353 1.53909e-05
 1.56117e-05 -0.00325506 -8.42019e-06
 1.71232e-05 -0.00325574 8.75341e-06
 5.14408e-06 -0.0008851 -1.55477e-05
 2.48141e-05 -0.00197807 -1.20059e-05
 2.23963e-05 -0.00122573 -3.45632e-05
 -9.49448e-06 0.00157212 9.38931e-06
 -1.54011e-05 -0.000883702 -4.84828e-06
 -1.5404e-05 -0.000884268 4.88841e-06
 -9.39565e-06 0.0015748 -9.60241e-06
 2.25306e-05 -0.0012064 3.45703e-05
 2.03472e-05 0.00556766 -2.01129e-05
 3.44721e-05 -0.0012258 -2.2455e-05
 -1.20432e-05 -0.00197206 -2.48366e-05
 -1.19746e-05 -0.00197312 2.47375e-05
 3.50294e-05 -0.00122755 2.2394e-05
 2.00469e-05 0.0055651 2.01098e-05
 4.12869e-05 0.00176423 4.11177e-05
 4.95856e-05 -0.00452066 -6.6202e-06
 3.58055e-05 -0.00506079 -1.73929e-05
 3.5815e-05 -0.00506052 1.74183e-05
 4.96288e-05 -0.0045218 6.59429e-06
 4.13022e-05 0.00176351 -4.12116e-05
 -6.51363e-06 -0.00456884 4.94015e-05
 -1.58299e-05 -0.00509763 -1.58053e-05
 -1.36819e-05 0.00148706 -3.61924e-05
 -1.37959e-05 0.00148675 3.6255e-05
 -1.57657e-05 -0.00509975 1.57517e-05
 -6.45532e-06 -0.00452218 -4.95053e-05
 -1.74083e-05 -0.0050618 3.56144e-05
 -3.60617e-05 0.00148737 -1.37627e-05
 -1.38821e-05 0.00416677 -1.38322e-05
 -1.37983e-05 0.00416658 1.38682e-05
 -3.61773e-05 0.00148663 1.37217e-05
 -1.73131e-05 -0.00506067 -3.57018e-05
 1.73448e-05 -0.005062 3.56052e-05
 3.62312e-05 0.00148756 -1.3843e-05
 1.38178e-05 0.00416692 -1.38032e-05
 1.37477e-05 0.00416674 1.38499e-05
 3.61113e-05 0.00148682 1.37962e-05
 1.7226e-05 -0.00506093 -3.56945e-05
 6.51534e-06 -0.00456913 4.93871e-05
 1.56062e-05 -0.00509636 -1.57118e-05
 1.36902e-05 0.00148755 -3.60774e-05
 1.37775e-05 0.00148729 3.61033e-05
 1.57286e-05 -0.00509794 1.56951e-05
 6.47578e-06 -0.0045226 -4.94807e-05
 -4.12038e-05 0.00176492 4.1085e-05
 -4.95078e-05 -0.00456912 -6.54335e-06
 -3.57242e-05 -0.00506203 -1.73155e-05
 -3.57175e-05 -0.00506183 1.73631e-05
 -4.94905e-05 -0.00456894 6.51909e-06
 -4.11933e-05 0.001764 -4.11833e-05
 -3.05646e-05 -0.00225607 -2.99482e-05
 -9.91875e-06 0.00462257 -5.58826e-06
 5.95685e-06 0.0024898 4.52823e-06
 5.97698e-06 0.00249002 -6.64594e-06
 -1.02228e-05 0.0046033 7.12107e-06
 -3.02826e-05 -0.00225365 3.05224e-05
 -7.16236e-06 0.00464484 -9.86576e-06
 4.60671e-06 0.00124323 4.67224e-06
 -1.28676e-05 -0.00849492 -5.08775e-06
 -1.28322e-05 -0.00849426 4.30817e-06
 4.31433e-06 0.0012412 -4.31634e-06
 -6.98172e-06 0.00460313 1.02867e-05
 6.60729e-06 0.00248917 5.97208e-06
 -4.73635e-06 -0.00849587 -1.28553e-05
 -2.59995e-05 -0.00245766 -2.59016e-05
 -2.59571e-05 -0.00245709 2.59519e-05
 -4.24412e-06 -0.0084942 1.28824e-05
 6.40537e-06 0.00249 -6.05168e-06
 -4.5461e-06 0.00248907 5.98627e-06
 4.69184e-06 -0.0084962 -1.28383e-05
 2.60443e-05 -0.00245803 -2.58908e-05
 2.60056e-05 -0.00245754 2.59222e-05
 5.0686e-06 -0.00849472 1.28729e-05
 -4.68223e-06 0.00248972 -6.04967e-06
 5.59751e-06 0.00464427 -9.80991e-06
 -4.60712e-06 0.00124503 4.66428e-06
 1.28043e-05 -0.00849603 -5.14057e-06
 1.27664e-05 -0.00849556 4.28672e-06
 -4.71406e-06 0.00124319 -4.2729e-06
 5.6137e-06 0.00460199 1.02846e-05
 3.00075e-05 -0.00225688 -2.99753e-05
 9.90419e-06 0.00464433 -5.63208e-06
 -5.99189e-06 0.00248902 4.53562e-06
 -6.00698e-06 0.00248907 -6.63862e-06
 9.75632e-06 0.00464492 7.18223e-06
 2.98993e-05 -0.0022559 3.05438e-05
 -2.58152e-05 -0.0035872 -2.57658e-05
 -2.92544e-05 -7.70674e-06 8.54973e-06
 -2.26393e-05 0.00148871 1.73922e-05
 -2.26098e-05 0.00148928 -1.74881e-05
 -2.9023e-05 -9.09825e-06 -8.57786e-06
 -2.59819e-05 -0.00358309 2.5952e-05
 8.46919e-06 -7.38914e-05 -2.90542e-05
 8.12439e-06 -0.00159206 8.14788e-06
 -3.33572e-06 0.00385895 1.57002e-05
 -3.3315e-06 0.00387999 -1.576e-05
 8.07981e-06 -0.00159012 -8.11302e-06
 8.3776e-06 -9.17344e-06 2.91417e-05
 1.73606e-05 0.00148781 -2.25523e-05
 1.5776e-05 0.00385854 -3.14538e-06
 1.9423e-05 0.00516813 1.92466e-05
 1.94311e-05 0.00516887 -1.93704e-05
 1.56413e-05 0.00388008 3.23438e-06
 1.74389e-05 0.00148988 2.26521e-05
 -1.73742e-05 0.00148765 -2.2557e-05
 -1.56615e-05 0.00385823 -3.14791e-06
 -1.92128e-05 0.00516752 1.92501e-05
 -1.92074e-05 0.00516814 -1.9365e-05
 -1.56604e-05 0.00385905 3.23811e-06
 -1.73936e-05 0.00148938 2.26526e-05
 -8.51478e-06 -7.38646e-05 -2.90736e-05
 -8.12849e-06 -0.00159377 8.15163e-06
 3.13552e-06 0.00385816 1.57084e-05
 3.12856e-06 0.0038585 -1.57508e-05
 -8.10194e-06 -0.00159191 -8.10181e-06
 -8.40112e-06 -7.34816e-06 2.91464e-05
 2.57684e-05 -0.00359003 -2.5785e-05
 2.90468e-05 -7.38106e-05 8.54895e-06
 2.25406e-05 0.00148759 1.74091e-05
 2.25079e-05 0.00148781 -1.74615e-05
 2.89895e-05 -8.15183e-05 -8.52967e-06
 2.58903e-05 -0.00358694 2.59095e-05
 -1.92627e-07 -4.71133e-05 -1.63416e-07
 2.50866e-07 -0.00581338 2.10478e-05
 5.78023e-07 -0.000899297 -2.64433e-05
 5.96966e-07 -0.000898288 2.6596e-05
 2.79218e-07 -0.00580894 -2.11064e-05
 -2.4718e-07 -4.45628e-05 1.41732e-07
 2.11094e-05 -0.00571536 2.98273e-07
 2.02582e-05 -0.00391033 2.02902e-05
 1.82469e-05 -0.00348416 -2.45965e-05
 1.82506e-05 -0.00350195 2.46157e-05
 2.02835e-05 -0.00390935 -2.02467e-05
 2.11191e-05 -0.00580902 -2.86485e-07
 -2.64599e-05 -0.000900518 6.69488e-07
 -2.46653e-05 -0.00348499 1.82508e-05
 -2.60254e-05 -0.00121401 -2.5955e-05
 -2.60284e-05 -0.00121334 2.59736e-05
 -2.46555e-05 -0.00350187 -1.82225e-05
 -2.65023e-05 -0.00089907 -6.36501e-07
 2.63926e-05 -0.000900945 6.33276e-07
 2.45919e-05 -0.00348534 1.82612e-05
 2.59761e-05 -0.00121453 -2.60223e-05
 2.59739e-05 -0.00121395 2.60787e-05
 2.45811e-05 -0.00348394 -1.82075e-05
 2.65551e-05 -0.00089998 -6.55433e-07
 -2.107e-05 -0.0057166 3.54116e-07
 -2.02174e-05 -0.00391081 2.02385e-05
 -1.82445e-05 -0.00348525 -2.45863e-05
 -1.8252e-05 -0.00348483 2.46185e-05
 -2.02343e-05 -0.00391004 -2.02451e-05
 -2.10957e-05 -0.00581326 -2.80781e-07
 1.24704e-07 -4.88935e-05 -1.56596e-07
 -3.04794e-07 -0.00571651 2.10501e-05
 -6.07717e-07 -0.000900712 -2.64371e-05
 -6.07934e-07 -0.000900229 2.66026e-05
 -3.12606e-07 -0.0056982 -2.10994e-05
 1.18884e-07 -4.6943e-05 1.50934e-07
 5.42148e-06 0.00359918 5.45296e-06
 1.91208e-05 0.00355855 1.67124e-05
 2.79568e-06 0.000940481 -1.996e-05
 2.77755e-06 0.000939496 1.99276e-05
 1.91434e-05 0.00355966 -1.66556e-05
 5.4279e-06 0.00360106 -5.43475e-06
 1.66779e-05 0.00357021 1.91343e-05
 2.54918e-06 0.000243957 2.5873e-06
 1.53499e-05 -0.00160125 -2.136e-05
 1.5385e-05 -0.00160138 2.13878e-05
 2.49883e-06 0.000241894 -2.50614e-06
 1.68755e-05 0.00355994 -1.91948e-05
 -1.96011e-05 0.000941426 2.81742e-06
 -2.1363e-05 -0.00160103 1.53619e-05
 -2.21012e-05 0.000139972 -2.20476e-05
 -2.21012e-05 0.000140449 2.20576e-05
 -2.13761e-05 -0.00160126 -1.53259e-05
 -1.83563e-05 0.000940846 -2.80729e-06
 1.9577e-05 0.000941553 2.82069e-06
 2.13974e-05 -0.00160111 1.53642e-05
 2.20648e-05 0.000139568 -2.20429e-05
 2.20702e-05 0.000139967 2.20589e-05
 2.14052e-05 -0.00160099 -1.5326e-05
 1.82875e-05 0.000941813 -2.80603e-06
 -1.66549e-05 0.00356958 1.91442e-05
 -2.584e-06 0.000245387 2.59427e-06
 -1.5354e-05 -0.00160106 -2.13905e-05
 -1.53548e-05 -0.00160097 2.14194e-05
 -2.56805e-06 0.000244583 -2.54449e-06
 -1.68553e-05 0.00355908 -1.91392e-05
 -5.48596e-06 0.00359206 5.4664e-06
 -1.91762e-05 0.00356964 1.6722e-05
 -2.79782e-06 0.000941309 -1.99626e-05
 -2.8062e-06 0.000941224 1.99526e-05
 -1.91225e-05 0.00356207 -1.66536e-05
 -5.38969e-06 0.00359966 -5.42891e-06
 1.22789e-05 -0.00416692 1.22942e-05
 1.31475e-05 -0.00218638 -7.04921e-06
 1.63735e-06 0.000676058 2.64585e-06
 1.59184e-06 0.000674766 -2.63388e-06
 1.31626e-05 -0.00218563 7.0599e-06
 1.23015e-05 -0.00416687 -1.22893e-05
 -7.06781e-06 -0.00216957 1.3161e-05
 -7.71104e-06 -0.00127106 -7.66684e-06
 1.20057e-06 -0.000537526 -1.59514e-06
 1.25463e-06 -0.000536853 1.60897e-06
 -7.6728e-06 -0.00127043 7.67907e-06
 -7.05572e-06 -0.00218577 -1.31528e-05
 2.62117e-06 0.000679239 1.73518e-06
 -1.59243e-06 -0.000538616 1.1262e-06
 4.07434e-06 -0.00315471 4.17434e-06
 4.07846e-06 -0.00315554 -4.15513e-06
 -1.62535e-06 -0.000536927 -1.14813e-06
 2.63654e-06 0.000674736 -1.68783e-06
 -2.65629e-06 0.000679514 1.73703e-06
 1.59022e-06 -0.000538902 1.1325e-06
 -4.09901e-06 -0.00315294 4.17816e-06
 -4.09689e-06 -0.00315385 -4.15294e-06
 1.5797e-06 -0.000537661 -1.14295e-06
 -2.64884e-06 0.000675929 -1.6915e-06
 7.04911e-06 -0.0021703 1.31732e-05
 7.66598e-06 -0.00127124 -7.6577e-06
 -1.00208e-06 -0.000538811 -1.58659e-06
 -1.00517e-06 -0.000538435 1.61779e-06
 7.69644e-06 -0.00127095 7.68214e-06
 7.05061e-06 -0.0021865 -1.31513e-05
 -1.22827e-05 -0.00415532 1.23117e-05
 -1.31463e-05 -0.00217028 -7.03521e-06
 -1.84158e-06 0.00067931 2.66001e-06
 -1.8377e-06 0.000678922 -2.62284e-06
 -1.31435e-05 -0.00216953 7.06466e-06
 -1.22777e-05 -0.00416779 -1.22867e-05
 -1.39592e-06 -3.44763e-05 -1.37314e-06
 2.26115e-06 -0.00248094 -7.88175e-06
 -3.5559e-07 -0.000683985 1.05159e-05
 -3.16714e-07 -0.000681972 -1.04799e-05
 2.23735e-06 -0.00248426 7.86988e-06
 -1.37708e-06 -3.76887e-05 1.38902e-06
 -7.91619e-06 -0.00254801 2.11513e-06
 -1.06438e-05 0.000343755 -1.0397e-05
 -5.82134e-06 0.00515834 -1.19211e-05
 -5.83271e-06 0.00515747 1.18498e-05
 -1.0632e-05 0.000345676 1.07341e-05
 -7.86788e-06 -0.00248363 -2.33614e-06
 1.05079e-05 -0.000689342 -2.10899e-07
 -1.18057e-05 0.00515971 -5.84418e-06
 8.98171e-06 -0.00337141 8.89943e-06
 8.95961e-06 -0.00337054 -8.91567e-06
 -1.17271e-05 0.00515756 5.85051e-06
 1.04828e-05 -0.000683383 2.76416e-07
 -1.04676e-05 -0.000689889 -1.68825e-07
 1.17853e-05 0.00516016 -5.88503e-06
 -8.87575e-06 -0.00337279 8.88859e-06
 -8.89528e-06 -0.00337169 -8.94118e-06
 1.17275e-05 0.00515849 5.85202e-06
 -1.04858e-05 -0.000685127 3.25769e-07
 7.82701e-06 -0.00254672 2.12275e-06
 1.05541e-05 0.000342423 -1.03852e-05
 5.85552e-06 0.00516004 -1.19215e-05
 5.84914e-06 0.00515952 1.18591e-05
 1.06088e-05 0.000343695 1.07487e-05
 7.8576e-06 -0.00248048 -2.33602e-06
 1.37302e-06 -1.30375e-05 -1.35623e-06
 -2.21022e-06 -0.00254675 -7.8491e-06
 1.71195e-07 -0.000689239 1.05092e-05
 2.07078e-07 -0.000688486 -1.04797e-05
 -2.23172e-06 -0.00254791 7.88346e-06
 1.3804e-06 -3.49278e-05 1.39537e-06
 -9.00073e-06 0.00322483 -9.01258e-06
 4.31006e-06 -0.000220199 3.67411e-06
 1.86488e-06 -0.000583532 -1.47642e-05
 1.86609e-06 -0.000583596 1.48211e-05
 4.31457e-06 -0.000220283 -3.65136e-06
 -9.02954e-06 0.0032287 8.99925e-06
 3.65145e-06 -0.000224348 4.33758e-06
 -5.78365e-06 0.00085253 -5.71439e-06
 -8.05533e-06 -0.00553462 -4.55554e-07
 -8.05099e-06 -0.00553353 4.67233e-07
 -5.77127e-06 0.000851109 5.74723e-06
 3.66353e-06 -0.000220102 -4.31314e-06
 -1.47831e-05 -0.000582863 1.93501e-06
 -5.81678e-07 -0.00553631 -8.0484e-06
 -5.97055e-06 -0.00224315 -5.92239e-06
 -5.97078e-06 -0.00224281 5.97101e-06
 -6.57644e-07 -0.00553355 8.00324e-06
 -1.49645e-05 -0.000582674 -1.86304e-06
 1.47559e-05 -0.000582829 1.89413e-06
 5.52591e-07 -0.00553694 -8.02888e-06
 5.94548e-06 -0.00224417 -5.92521e-06
 5.94918e-06 -0.0022441 5.95636e-06
 6.36324e-07 -0.00553458 8.05254e-06
 1.49529e-05 -0.00058263 -1.86217e-06
 -3.68661e-06 -0.000224649 4.34736e-06
 5.75767e-06 0.000854709 -5.74247e-06
 8.03391e-06 -0.00553671 -4.24837e-07
 8.03351e-06 -0.00553595 4.63973e-07
 5.75845e-06 0.000853595 5.76644e-06
 -3.68353e-06 -0.000220147 -4.31064e-06
 8.97542e-06 0.00320263 -9.00965e-06
 -4.33328e-06 -0.000224889 3.68424e-06
 -1.88516e-06 -0.000583034 -1.46371e-05
 -1.88277e-06 -0.00058305 1.47161e-05
 -4.32882e-06 -0.000224756 -3.65354e-06
 9.01665e-06 0.00322596 9.01076e-06
 4.30448e-06 -0.00210392 4.66583e-06
 3.28292e-06 -0.000437083 6.23643e-06
 2.52553e-06 -0.00102192 -1.08412e-05
 2.5455e-06 -0.00102181 1.0876e-05
 3.27891e-06 -0.000434456 -6.68281e-06
 4.73319e-06 -0.00210113 -4.1531e-06
 6.53457e-06 -0.000387697 3.31713e-06
 6.86616e-06 0.00223192 6.90946e-06
 -4.63522e-06 -0.000391361 5.92261e-06
 -4.4903e-06 -0.00039155 -5.89783e-06
 6.87588e-06 0.00223378 -6.87102e-06
 6.10747e-06 -0.000434908 -3.28083e-06
 -1.08683e-05 -0.00102175 2.64366e-06
 5.90695e-06 -0.000391165 -3.89931e-06
 5.57392e-06 0.000164403 4.80188e-06
 5.41055e-06 0.000164458 -5.41983e-06
 5.90645e-06 -0.000391633 4.49457e-06
 -1.08469e-05 -0.00102117 -2.52114e-06
 1.08265e-05 -0.00102178 2.6052e-06
 -5.945e-06 -0.000391143 -4.26756e-06
 -5.44874e-06 0.000164312 5.21951e-06
 -5.62812e-06 0.000164493 -5.52909e-06
 -5.95295e-06 -0.000391577 4.60285e-06
 1.08206e-05 -0.00102132 -2.52676e-06
 -6.75982e-06 -0.000388358 3.32061e-06
 -6.89459e-06 0.0022299 6.90922e-06
 4.46646e-06 -0.000391287 5.9288e-06
 4.62228e-06 -0.000391409 -5.90302e-06
 -6.87759e-06 0.00223112 -6.86496e-06
 -7.0537e-06 -0.000437227 -3.27997e-06
 -4.13904e-06 -0.00210884 4.70134e-06
 -3.31387e-06 -0.000388188 6.20856e-06
 -2.57395e-06 -0.00102198 -1.08294e-05
 -2.54794e-06 -0.00102197 1.0866e-05
 -3.31778e-06 -0.000387433 -6.73934e-06
 -3.84831e-06 -0.00210645 -4.09104e-06
 1.60632e-06 -0.00291855 1.64875e-06
 -6.01369e-07 -0.000331785 3.40785e-06
 -1.45127e-06 0.00235106 4.8572e-06
 -1.45212e-06 0.00235118 -4.79983e-06
 -6.102e-07 -0.000331847 -3.38004e-06
 1.6099e-06 -0.00292034 -1.60233e-06
 3.37331e-06 -0.00034443 -5.75335e-07
 3.37724e-06 0.000104784 3.42917e-06
 1.92428e-06 -0.00090079 4.82803e-06
 1.92477e-06 -0.000901141 -4.79001e-06
 3.38705e-06 0.000100024 -3.37522e-06
 3.36469e-06 -0.000331953 6.09126e-07
 5.01677e-06 0.00235022 -1.39571e-06
 4.80199e-06 -0.000900306 1.96266e-06
 5.4307e-06 -0.0010163 5.46249e-06
 5.43053e-06 -0.00101736 -5.44649e-06
 4.7845e-06 -0.000901176 -1.92567e-06
 4.91981e-06 0.00235015 1.4638e-06
 -5.0556e-06 0.00235021 -1.39607e-06
 -4.83545e-06 -0.000900179 1.96217e-06
 -5.46783e-06 -0.00101547 5.46168e-06
 -5.46851e-06 -0.00101607 -5.4463e-06
 -4.82319e-06 -0.000900881 -1.92657e-06
 -4.95598e-06 0.00235008 1.46376e-06
 -3.40482e-06 -0.000344495 -5.68714e-07
 -3.42557e-06 0.00010647 3.41447e-06
 -1.9641e-06 -0.000900295 4.84274e-06
 -1.96387e-06 -0.00090051 -4.79944e-06
 -3.42759e-06 0.000103636 -3.37993e-06
 -3.4154e-06 -0.000332037 6.09199e-07
 -1.64761e-06 -0.00291609 1.64603e-06
 5.71315e-07 -0.000344511 3.40468e-06
 1.41543e-06 0.00235063 4.88819e-06
 1.41379e-06 0.00235068 -4.83555e-06
 5.69589e-07 -0.000344591 -3.38118e-06
 -1.64826e-06 -0.00291653 -1.60338e-06
 -3.09e-06 -0.00062819 -3.04929e-06
 1.52748e-06 -0.0022481 -3.25338e-06
 5.60006e-07 -0.00301842 1.15046e-05
 5.60193e-07 -0.00301842 -1.14627e-05
 1.52718e-06 -0.00224901 3.29694e-06
 -3.08772e-06 -0.000629394 3.09404e-06
 -3.29115e-06 -0.00222636 1.56686e-06
 -1.69567e-06 0.00374819 -1.66002e-06
 -1.60626e-06 0.0004228 1.03123e-05
 -1.60684e-06 0.000423036 -1.02657e-05
 -1.69573e-06 0.00375229 1.69438e-06
 -3.30589e-06 -0.00224901 -1.52588e-06
 1.14663e-05 -0.00301823 5.99055e-07
 1.02721e-05 0.000422688 -1.56358e-06
 1.02371e-05 -0.00119638 1.02671e-05
 1.02359e-05 -0.0011952 -1.02445e-05
 1.0268e-05 0.000423146 1.60051e-06
 1.14627e-05 -0.00301814 -5.44005e-07
 -1.14991e-05 -0.00301819 5.98532e-07
 -1.02851e-05 0.000422715 -1.56414e-06
 -1.02745e-05 -0.00119689 1.02642e-05
 -1.02767e-05 -0.00119637 -1.0247e-05
 -1.02923e-05 0.000423047 1.60049e-06
 -1.15173e-05 -0.00301817 -5.44228e-07
 3.25817e-06 -0.00222552 1.56301e-06
 1.6481e-06 0.00374655 -1.66204e-06
 1.55893e-06 0.000422772 1.03067e-05
 1.55759e-06 0.00042279 -1.02699e-05
 1.64581e-06 0.00374881 1.69325e-06
 3.24616e-06 -0.00224814 -1.52804e-06
 3.05582e-06 -0.000641191 -3.05414e-06
 -1.56961e-06 -0.00222547 -3.25902e-06
 -5.83311e-07 -0.00301837 1.14972e-05
 -5.84929e-07 -0.00301844 -1.14694e-05
 -1.57514e-06 -0.0022264 3.29315e-06
 3.07184e-06 -0.000627868 3.09268e-06
 -3.30028e-06 0.0002193 -3.27172e-06
 8.72194e-07 0.00125803 6.41612e-06
 -4.78891e-07 0.00229968 2.18865e-06
 -4.79335e-07 0.00230031 -2.16549e-06
 8.70633e-07 0.00125787 -6.38411e-06
 -3.30572e-06 0.000219037 3.30625e-06
 6.38985e-06 0.00123269 8.92275e-07
 7.9388e-06 0.00140851 7.96744e-06
 8.83958e-06 -0.000814593 1.78462e-06
 8.84661e-06 -0.00081459 -1.75334e-06
 7.93678e-06 0.00140913 -7.938e-06
 6.38492e-06 0.00125812 -8.70566e-07
 2.16372e-06 0.00229719 -4.53879e-07
 1.75919e-06 -0.000814791 8.93715e-06
 -6.53237e-07 -0.00283582 -7.05593e-07
 -6.59708e-07 -0.00283568 6.27269e-07
 1.75561e-06 -0.00081489 -8.8094e-06
 2.15963e-06 0.00229858 4.78783e-07
 -2.18767e-06 0.00229715 -4.5555e-07
 -1.77918e-06 -0.000815098 8.92824e-06
 6.09285e-07 -0.00283617 -6.98927e-07
 6.34938e-07 -0.0028356 6.29762e-07
 -1.78385e-06 -0.000815363 -8.81504e-06
 -2.19017e-06 0.00229806 4.77775e-07
 -6.40844e-06 0.00123278 8.93269e-07
 -7.96168e-06 0.00140848 7.95857e-06
 -8.84263e-06 -0.000815656 1.78055e-06
 -8.87405e-06 -0.000815681 -1.75768e-06
 -7.96612e-06 0.00140849 -7.94161e-06
 -6.41688e-06 0.00125823 -8.73396e-07
 3.28186e-06 0.000232888 -3.28029e-06
 -8.94966e-07 0.00123277 6.40882e-06
 4.5367e-07 0.00229793 2.18243e-06
 4.51206e-07 0.00229813 -2.16888e-06
 -9.01506e-07 0.00123284 -6.38903e-06
 3.27242e-06 0.000219107 3.30187e-06
 4.1202e-07 -0.00179403 4.17054e-07
 -2.42783e-06 -0.000733481 -9.70212e-07
 -1.44272e-06 -0.0031996 7.99359e-06
 -1.3975e-06 -0.00319991 -7.97117e-06
 -2.43608e-06 -0.000732538 9.86668e-07
 4.09264e-07 -0.00179423 -4.17238e-07
 -9.75469e-07 -0.000733403 -2.42501e-06
 -7.41541e-07 0.0025346 -7.26542e-07
 -5.55776e-07 0.00141664 6.30006e-06
 -6.02923e-07 0.00141677 -6.28454e-06
 -7.40836e-07 0.0025339 7.42969e-07
 -9.83114e-07 -0.000732513 2.42669e-06
 7.98256e-06 -0.00319849 -1.32558e-06
 6.28614e-06 0.00141655 -6.61527e-07
 6.60423e-06 -0.000430841 6.61603e-06
 6.60333e-06 -0.000431516 -6.60101e-06
 6.2861e-06 0.00141695 4.43718e-07
 7.97831e-06 -0.00319899 1.55507e-06
 -7.98694e-06 -0.00319859 -1.32684e-06
 -6.29274e-06 0.00141665 -6.52612e-07
 -6.61355e-06 -0.000429985 6.60584e-06
 -6.61459e-06 -0.000430759 -6.60308e-06
 -6.29829e-06 0.00141711 4.44576e-07
 -7.99526e-06 -0.00319873 1.55149e-06