<?xml version="1.0"?>
<!-- time 91.1953-->
<VTKFile type="UnstructuredGrid" version="0.1" byte_order="LittleEndian">
<UnstructuredGrid>
<Piece NumberOfPoints="3240" NumberOfCells="0">
<Points>
  <DataArray type="Float32" Name="Position" NumberOfComponents="3" format="ascii">
	-333.333 2066.21 -333.333
	-333.333 2066.3 -200
	-333.333 2066.3 -66.6668
	-333.333 2066.3 66.6668
	-333.333 2066.3 200
	-333.333 2066.21 333.333
	-200 2066.3 -333.333
	-200 2066.26 -200
	-200 2066.27 -66.6667
	-200 2066.27 66.6667
	-200 2066.26 200
	-200 2066.3 333.333
	-66.6668 2066.3 -333.333
	-66.6667 2066.27 -200
	-66.6667 2066.15 -66.6667
	-66.6667 2066.15 66.6667
	-66.6667 2066.27 200
	-66.6668 2066.3 333.333
	66.6668 2066.3 -333.333
	66.6667 2066.27 -200
	66.6667 2066.15 -66.6667
	66.6667 2066.15 66.6667
	66.6667 2066.27 200
	66.6668 2066.3 333.333
	200 2066.3 -333.333
	200 2066.26 -200
	200 2066.27 -66.6667
	200 2066.27 66.6667
	200 2066.26 200
	200 2066.3 333.333
	333.333 2066.21 -333.333
	333.333 2066.3 -200
	333.333 2066.3 -66.6668
	333.333 2066.3 66.6668
	333.333 2066.3 200
	333.333 2066.21 333.333
	-333.334 2199.66 -333.334
	-333.334 2199.64 -200
	-333.333 2199.64 -66.6668
	-333.333 2199.64 66.6668
	-333.334 2199.64 200
	-333.334 2199.66 333.334
	-200 2199.64 -333.334
	-200 2199.62 -200
	-200 2199.62 -66.6667
	-200 2199.62 66.6667
	-200 2199.62 200
	-200 2199.64 333.334
	-66.6668 2199.64 -333.333
	-66.6667 2199.62 -200
	-66.6667 2199.54 -66.6667
	-66.6667 2199.54 66.6667
	-66.6667 2199.62 200
	-66.6668 2199.64 333.333
	66.6668 2199.64 -333.333
	66.6667 2199.62 -200
	66.6667 2199.54 -66.6667
	66.6667 2199.54 66.6667
	66.6667 2199.62 200
	66.6668 2199.64 333.333
	200 2199.64 -333.334
	200 2199.62 -200
	200 2199.62 -66.6667
	200 2199.62 66.6667
	200 2199.62 200
	200 2199.64 333.334
	333.334 2199.66 -333.334
	333.334 2199.64 -200
	333.333 2199.64 -66.6668
	333.333 2199.64 66.6668
	333.334 2199.64 200
	333.334 2199.66 333.334
	-333.334 2332.99 -333.334
	-333.334 2332.99 -200
	-333.334 2332.98 -66.6667
	-333.334 2332.98 66.6667
	-333.334 2332.99 200
	-333.334 2332.99 333.334
	-200 2332.99 -333.334
	-200 2332.95 -200
	-200 2332.96 -66.6668
	-200 2332.96 66.6668
	-200 2332.95 200
	-200 2332.99 333.334
	-66.6667 2332.98 -333.334
	-66.6668 2332.96 -200
	-66.6668 2332.93 -66.6668
	-66.6668 2332.93 66.6668
	-66.6668 2332.96 200
	-66.6667 2332.98 333.334
	66.6667 2332.98 -333.334
	66.6668 2332.96 -200
	66.6668 2332.93 -66.6668
	66.6668 2332.93 66.6668
	66.6668 2332.96 200
	66.6667 2332.98 333.334
	200 2332.99 -333.334
	200 2332.95 -200
	200 2332.96 -66.6668
	200 2332.96 66.6668
	200 2332.95 200
	200 2332.99 333.334
	333.334 2332.99 -333.334
	333.334 2332.99 -200
	333.334 2332.98 -66.6667
	333.334 2332.98 66.6667
	333.334 2332.99 200
	333.334 2332.99 333.334
	-333.334 2466.32 -333.334
	-333.334 2466.32 -200
	-333.334 2466.32 -66.6667
	-333.334 2466.32 66.6667
	-333.334 2466.32 200
	-333.334 2466.32 333.334
	-200 2466.32 -333.334
	-200 2466.32 -200
	-200 2466.3 -66.6667
	-200 2466.3 66.6667
	-200 2466.32 200
	-200 2466.32 333.334
	-66.6667 2466.32 -333.334
	-66.6667 2466.3 -200
	-66.6668 2466.27 -66.6668
	-66.6668 2466.27 66.6668
	-66.6667 2466.3 200
	-66.6667 2466.32 333.334
	66.6667 2466.32 -333.334
	66.6667 2466.3 -200
	66.6668 2466.27 -66.6668
	66.6668 2466.27 66.6668
	66.6667 2466.3 200
	66.6667 2466.32 333.334
	200 2466.32 -333.334
	200 2466.32 -200
	200 2466.3 -66.6667
	200 2466.3 66.6667
	200 2466.32 200
	200 2466.32 333.334
	333.334 2466.32 -333.334
	333.334 2466.32 -200
	333.334 2466.32 -66.6667
	333.334 2466.32 66.6667
	333.334 2466.32 200
	333.334 2466.32 333.334
	-333.334 2599.66 -333.334
	-333.334 2599.65 -200
	-333.334 2599.66 -66.6667
	-333.334 2599.66 66.6667
	-333.334 2599.65 200
	-333.334 2599.66 333.334
	-200 2599.65 -333.334
	-200 2599.66 -200
	-200 2599.64 -66.6667
	-200 2599.64 66.6667
	-200 2599.66 200
	-200 2599.65 333.334
	-66.6667 2599.66 -333.334
	-66.6667 2599.64 -200
	-66.6667 2599.62 -66.6667
	-66.6667 2599.62 66.6667
	-66.6667 2599.64 200
	-66.6667 2599.66 333.334
	66.6667 2599.66 -333.334
	66.6667 2599.64 -200
	66.6667 2599.62 -66.6667
	66.6667 2599.62 66.6667
	66.6667 2599.64 200
	66.6667 2599.66 333.334
	200 2599.65 -333.334
	200 2599.66 -200
	200 2599.64 -66.6667
	200 2599.64 66.6667
	200 2599.66 200
	200 2599.65 333.334
	333.334 2599.66 -333.334
	333.334 2599.65 -200
	333.334 2599.66 -66.6667
	333.334 2599.66 66.6667
	333.334 2599.65 200
	333.334 2599.66 333.334
	-333.334 2732.99 -333.334
	-333.334 2733 -200
	-333.334 2733 -66.6667
	-333.334 2733 66.6667
	-333.334 2733 200
	-333.334 2732.99 333.334
	-200 2733 -333.334
	-200 2732.99 -200
	-200 2732.98 -66.6667
	-200 2732.98 66.6667
	-200 2732.99 200
	-200 2733 333.334
	-66.6667 2733 -333.334
	-66.6667 2732.98 -200
	-66.6667 2732.96 -66.6667
	-66.6667 2732.96 66.6667
	-66.6667 2732.98 200
	-66.6667 2733 333.334
	66.6667 2733 -333.334
	66.6667 2732.98 -200
	66.6667 2732.96 -66.6667
	66.6667 2732.96 66.6667
	66.6667 2732.98 200
	66.6667 2733 333.334
	200 2733 -333.334
	200 2732.99 -200
	200 2732.98 -66.6667
	200 2732.98 66.6667
	200 2732.99 200
	200 2733 333.334
	333.334 2732.99 -333.334
	333.334 2733 -200
	333.334 2733 -66.6667
	333.334 2733 66.6667
	333.334 2733 200
	333.334 2732.99 333.334
	-333.334 2866.34 -333.334
	-333.334 2866.34 -200
	-333.334 2866.34 -66.6667
	-333.334 2866.34 66.6667
	-333.334 2866.34 200
	-333.334 2866.34 333.334
	-200 2866.34 -333.334
	-200 2866.33 -200
	-200 2866.31 -66.6667
	-200 2866.31 66.6667
	-200 2866.33 200
	-200 2866.34 333.334
	-66.6667 2866.34 -333.334
	-66.6667 2866.31 -200
	-66.6667 2866.3 -66.6667
	-66.6667 2866.3 66.6667
	-66.6667 2866.31 200
	-66.6667 2866.34 333.334
	66.6667 2866.34 -333.334
	66.6667 2866.31 -200
	66.6667 2866.3 -66.6667
	66.6667 2866.3 66.6667
	66.6667 2866.31 200
	66.6667 2866.34 333.334
	200 2866.34 -333.334
	200 2866.33 -200
	200 2866.31 -66.6667
	200 2866.31 66.6667
	200 2866.33 200
	200 2866.34 333.334
	333.334 2866.34 -333.334
	333.334 2866.34 -200
	333.334 2866.34 -66.6667
	333.334 2866.34 66.6667
	333.334 2866.34 200
	333.334 2866.34 333.334
	-333.334 2999.68 -333.334
	-333.334 2999.68 -200
	-333.334 2999.67 -66.6667
	-333.334 2999.67 66.6667
	-333.334 2999.68 200
	-333.334 2999.68 333.334
	-200 2999.68 -333.334
	-200 2999.67 -200
	-200 2999.65 -66.6667
	-200 2999.65 66.6667
	-200 2999.67 200
	-200 2999.68 333.334
	-66.6667 2999.67 -333.334
	-66.6667 2999.65 -200
	-66.6667 2999.63 -66.6667
	-66.6667 2999.63 66.6667
	-66.6667 2999.65 200
	-66.6667 2999.67 333.334
	66.6667 2999.67 -333.334
	66.6667 2999.65 -200
	66.6667 2999.63 -66.6667
	66.6667 2999.63 66.6667
	66.6667 2999.65 200
	66.6667 2999.67 333.334
	200 2999.68 -333.334
	200 2999.67 -200
	200 2999.65 -66.6667
	200 2999.65 66.6667
	200 2999.67 200
	200 2999.68 333.334
	333.334 2999.68 -333.334
	333.334 2999.68 -200
	333.334 2999.67 -66.6667
	333.334 2999.67 66.6667
	333.334 2999.68 200
	333.334 2999.68 333.334
	-333.333 3133.01 -333.333
	-333.333 3133.01 -200
	-333.333 3133.01 -66.6668
	-333.333 3133.01 66.6668
	-333.333 3133.01 200
	-333.333 3133.01 333.333
	-200 3133.01 -333.333
	-200 3133.01 -200
	-200 3132.98 -66.6667
	-200 3132.98 66.6667
	-200 3133.01 200
	-200 3133.01 333.333
	-66.6668 3133.01 -333.333
	-66.6667 3132.98 -200
	-66.6667 3132.97 -66.6667
	-66.6667 3132.97 66.6667
	-66.6667 3132.98 200
	-66.6668 3133.01 333.333
	66.6668 3133.01 -333.333
	66.6667 3132.98 -200
	66.6667 3132.97 -66.6667
	66.6667 3132.97 66.6667
	66.6667 3132.98 200
	66.6668 3133.01 333.333
	200 3133.01 -333.333
	200 3133.01 -200
	200 3132.98 -66.6667
	200 3132.98 66.6667
	200 3133.01 200
	200 3133.01 333.333
	333.333 3133.01 -333.333
	333.333 3133.01 -200
	333.333 3133.01 -66.6668
	333.333 3133.01 66.6668
	333.333 3133.01 200
	333.333 3133.01 333.333
	-333.333 3266.35 -333.333
	-333.333 3266.34 -200
	-333.334 3266.34 -66.6667
	-333.334 3266.34 66.6667
	-333.333 3266.34 200
	-333.333 3266.35 333.333
	-200 3266.34 -333.333
	-200 3266.34 -200
	-200 3266.32 -66.6667
	-200 3266.32 66.6667
	-200 3266.34 200
	-200 3266.34 333.333
	-66.6667 3266.34 -333.334
	-66.6667 3266.32 -200
	-66.6667 3266.3 -66.6667
	-66.6667 3266.3 66.6667
	-66.6667 3266.32 200
	-66.6667 3266.34 333.334
	66.6667 3266.34 -333.334
	66.6667 3266.32 -200
	66.6667 3266.3 -66.6667
	66.6667 3266.3 66.6667
	66.6667 3266.32 200
	66.6667 3266.34 333.334
	200 3266.34 -333.333
	200 3266.34 -200
	200 3266.32 -66.6667
	200 3266.32 66.6667
	200 3266.34 200
	200 3266.34 333.333
	333.333 3266.35 -333.333
	333.333 3266.34 -200
	333.334 3266.34 -66.6667
	333.334 3266.34 66.6667
	333.333 3266.34 200
	333.333 3266.35 333.333
	-333.333 3399.68 -333.333
	-333.333 3399.68 -200
	-333.333 3399.67 -66.6667
	-333.333 3399.67 66.6667
	-333.333 3399.68 200
	-333.333 3399.68 333.333
	-200 3399.68 -333.333
	-200 3399.67 -200
	-200 3399.66 -66.6667
	-200 3399.66 66.6667
	-200 3399.67 200
	-200 3399.68 333.333
	-66.6667 3399.67 -333.333
	-66.6667 3399.66 -200
	-66.6667 3399.63 -66.6667
	-66.6667 3399.63 66.6667
	-66.6667 3399.66 200
	-66.6667 3399.67 333.333
	66.6667 3399.67 -333.333
	66.6667 3399.66 -200
	66.6667 3399.63 -66.6667
	66.6667 3399.63 66.6667
	66.6667 3399.66 200
	66.6667 3399.67 333.333
	200 3399.68 -333.333
	200 3399.67 -200
	200 3399.66 -66.6667
	200 3399.66 66.6667
	200 3399.67 200
	200 3399.68 333.333
	333.333 3399.68 -333.333
	333.333 3399.68 -200
	333.333 3399.67 -66.6667
	333.333 3399.67 66.6667
	333.333 3399.68 200
	333.333 3399.68 333.333
	-333.333 3533.01 -333.333
	-333.333 3533.01 -200
	-333.333 3533.01 -66.6667
	-333.333 3533.01 66.6667
	-333.333 3533.01 200
	-333.333 3533.01 333.333
	-200 3533.01 -333.333
	-200 3533 -200
	-200 3532.99 -66.6667
	-200 3532.99 66.6667
	-200 3533 200
	-200 3533.01 333.333
	-66.6667 3533.01 -333.334
	-66.6667 3532.99 -200
	-66.6667 3532.96 -66.6667
	-66.6667 3532.96 66.6667
	-66.6667 3532.99 200
	-66.6667 3533.01 333.334
	66.6667 3533.01 -333.334
	66.6667 3532.99 -200
	66.6667 3532.96 -66.6667
	66.6667 3532.96 66.6667
	66.6667 3532.99 200
[...]
<PointData  Vectors="vector">
  <DataArray type="Float32" Name="Velocity" NumberOfComponents="3" format="ascii">
 1.08151e-06 0.0281928 1.68162e-06
 -3.67372e-06 0.0220387 -2.39654e-05
 1.29418e-05 0.0242212 1.17631e-05
 1.28404e-05 0.0242238 -1.30826e-05
 -4.36984e-06 0.0220431 2.53069e-05
 1.51288e-06 0.0282031 -1.32646e-06
 -2.53862e-05 0.0222423 -3.98929e-06
 -1.81787e-05 0.0171192 -1.75161e-05
 -2.38921e-05 0.0190289 -4.83306e-06
 -2.42988e-05 0.0191167 4.92236e-06
 -1.46169e-05 0.0171316 1.78738e-05
 -2.47451e-05 0.0220432 3.95953e-06
 1.37421e-05 0.0242106 1.28356e-05
 -7.97208e-06 0.0190115 -2.41347e-05
 1.84058e-05 0.0284524 1.46302e-05
 1.55207e-05 0.0284549 -1.43812e-05
 -7.37451e-06 0.0191146 2.43805e-05
 1.2804e-05 0.0242224 -1.28844e-05
 -1.20184e-05 0.0242058 1.27806e-05
 3.70678e-06 0.0190002 -2.46578e-05
 -1.89159e-05 0.0284487 1.12418e-05
 -1.59073e-05 0.0284516 -1.08833e-05
 5.07319e-06 0.0190246 2.47715e-05
 -1.27343e-05 0.0242188 -1.27535e-05
 2.36818e-05 0.0222385 -4.36186e-06
 2.14396e-05 0.017103 -1.41337e-05
 2.36645e-05 0.0189989 -4.45151e-06
 2.4135e-05 0.0190082 5.34173e-06
 1.59446e-05 0.0171162 1.4093e-05
 2.44625e-05 0.0220685 4.08737e-06
 -2.06166e-06 0.0281736 1.5964e-06
 3.74445e-06 0.0222378 -2.29462e-05
 -1.30895e-05 0.0242056 1.07706e-05
 -1.31271e-05 0.0242095 -1.29639e-05
 4.55293e-06 0.0222353 2.52458e-05
 -2.02806e-06 0.0281888 -1.06849e-06
 -8.47665e-06 0.00987758 -7.44633e-06
 -8.05131e-06 0.00944616 -5.62929e-06
 -1.08333e-05 0.0118532 1.25148e-06
 -1.08684e-05 0.0118531 -1.07311e-06
 -8.7241e-06 0.00956845 5.43159e-06
 -8.4361e-06 0.0098434 8.40881e-06
 -5.45842e-06 0.00975164 -8.05984e-06
 8.26316e-06 0.000107263 8.15458e-06
 -2.46565e-05 0.0130875 -2.33336e-05
 -2.46227e-05 0.0130565 2.39773e-05
 7.83105e-06 3.98832e-05 -8.03926e-06
 -5.65654e-06 0.00956626 8.23856e-06
 1.16562e-06 0.0118495 -1.04956e-05
 -2.39295e-05 0.0130956 -2.41702e-05
 -9.881e-06 0.011997 -1.09137e-05
 -1.0176e-05 0.0119971 1.60413e-05
 -2.39555e-05 0.0130558 1.97582e-05
 1.22944e-06 0.0118521 1.07065e-05
 -1.30906e-06 0.0118473 -1.04612e-05
 2.3229e-05 0.0130998 -2.46093e-05
 9.8472e-06 0.0119961 -1.0277e-05
 9.67776e-06 0.0119966 1.59919e-05
 2.29966e-05 0.0130859 1.96074e-05
 -1.59709e-06 0.0118515 1.06958e-05
 4.96662e-06 0.0096863 -8.26205e-06
 -8.47542e-06 5.81121e-05 8.04268e-06
 2.39008e-05 0.0130993 -2.31926e-05
 2.41611e-05 0.0130943 2.38878e-05
 -7.70632e-06 -1.45048e-05 -7.89534e-06
 5.45276e-06 0.00956704 8.42061e-06
 7.86298e-06 0.00983392 -8.12423e-06
 7.73416e-06 0.00968542 -5.49615e-06
 1.04216e-05 0.011847 1.40229e-06
 1.06455e-05 0.0118487 -9.44692e-07
 8.38672e-06 0.00974694 5.8353e-06
 7.85679e-06 0.00990617 8.37862e-06
 8.30225e-08 0.0117059 5.8278e-07
 -1.83784e-05 0.00357962 7.26021e-06
 3.9777e-06 -0.00069348 6.60293e-05
 3.78087e-06 -0.000693883 -6.57842e-05
 -1.84747e-05 0.00361319 -6.80563e-06
 1.42245e-07 0.0119671 2.27984e-08
 6.88104e-06 0.00327881 -1.81854e-05
 5.48619e-06 0.00560168 5.63914e-06
 -9.7482e-06 -0.00333577 -5.8656e-05
 -9.62393e-06 -0.00332303 5.92648e-05
 5.36113e-06 0.00564677 -5.39526e-06
 6.75668e-06 0.00361653 1.85833e-05
 6.60118e-05 -0.000725595 4.09625e-06
 -5.94622e-05 -0.0033442 -9.0631e-06
 6.29915e-05 0.00317479 6.30077e-05
 6.29532e-05 0.00317333 -6.28247e-05
 -5.93942e-05 -0.00332276 9.73981e-06
 6.58787e-05 -0.000696864 -3.74303e-06
 -6.63089e-05 -0.000726116 3.98212e-06
 5.89822e-05 -0.00333102 -9.06418e-06
 -6.32572e-05 0.00317563 6.29715e-05
 -6.31425e-05 0.00317465 -6.27762e-05
 5.89767e-05 -0.00333541 9.7798e-06
 -6.62302e-05 -0.000696544 -3.69197e-06
 -7.36204e-06 0.00331116 -1.80448e-05
 -6.00329e-06 0.00564547 5.6627e-06
 8.94238e-06 -0.0033306 -5.88204e-05
 9.00285e-06 -0.00334362 5.90834e-05
 -5.66037e-06 0.00570044 -5.32241e-06
 -7.3068e-06 0.00361217 1.86608e-05
 -6.23967e-07 0.0116126 4.42735e-07
 1.80682e-05 0.00331225 6.96953e-06
 -4.21589e-06 -0.000725393 6.62363e-05
 -4.29227e-06 -0.000725018 -6.58001e-05
 1.78534e-05 0.00327915 -6.545e-06
 -6.02608e-07 0.0116699 -3.77865e-08
 -2.20291e-06 -0.000751189 -1.44743e-06
 1.6754e-05 -0.00646221 1.366e-05
 -4.72322e-06 -0.0108722 -4.74902e-06
 -4.77317e-06 -0.0108732 3.199e-06
 1.63133e-05 -0.00664382 -1.17079e-05
 -2.12119e-06 -0.00104484 2.22758e-06
 1.17414e-05 -0.0070053 1.69427e-05
 5.60581e-06 -0.00328396 6.06471e-06
 5.95117e-06 0.0038285 1.8358e-05
 6.02791e-06 0.0038108 -2.00996e-05
 3.77248e-06 -0.00326919 -3.82661e-06
 1.18014e-05 -0.0066474 -1.63275e-05
 -3.1848e-06 -0.0108873 -3.70814e-06
 1.83254e-05 0.00384164 4.5086e-06
 1.44964e-05 -0.00894804 1.5938e-05
 1.44814e-05 -0.00895109 -1.53754e-05
 2.02555e-05 0.00381109 -4.4237e-06
 -3.41521e-06 -0.0108716 4.1033e-06
 4.84555e-06 -0.0108727 -3.73347e-06
 -1.87914e-05 0.00383312 4.54638e-06
 -1.4797e-05 -0.00894595 1.58951e-05
 -1.47481e-05 -0.00894895 -1.53996e-05
 -1.83019e-05 0.00382924 -4.39914e-06
 4.73432e-06 -0.0108694 4.08922e-06
 -1.35881e-05 -0.00698157 1.6919e-05
 -5.85642e-06 -0.00327898 5.99163e-06
 -6.27053e-06 0.00383315 1.82515e-05
 -6.42006e-06 0.00384198 -2.02141e-05
 -6.01319e-06 -0.0032598 -3.67961e-06
 -1.35144e-05 -0.0066827 -1.62799e-05
 1.53757e-06 -0.000622011 -1.58762e-06
 -1.69043e-05 -0.00698159 1.35137e-05
 4.44111e-06 -0.0108704 -4.84031e-06
 4.48637e-06 -0.0108719 3.21381e-06
 -1.7016e-05 -0.0070362 -1.16164e-05
 1.48306e-06 -0.000764448 2.31604e-06
 -9.24489e-07 -0.00913636 -8.17435e-07
 -5.68244e-06 -0.0107371 -1.49499e-05
 7.64913e-08 -0.00774251 1.63997e-05
 6.65466e-08 -0.00773893 -1.61398e-05
 -5.55958e-06 -0.0107497 1.52433e-05
 -1.25427e-06 -0.00906885 1.13652e-06
 -1.51045e-05 -0.0103563 -5.42264e-06
 -1.2124e-05 -0.0122606 -1.32434e-05
 1.20145e-05 -0.00423407 2.09586e-05
 1.19918e-05 -0.00415854 -2.02817e-05
 -1.15426e-05 -0.0122684 1.31591e-05
 -1.52673e-05 -0.0107501 5.62579e-06
 1.7804e-05 -0.00774482 2.25656e-07
 1.95836e-05 -0.00420479 1.23735e-05
 -2.11321e-05 -0.0106372 -2.10694e-05
 -2.10919e-05 -0.0106431 2.12674e-05
 1.88284e-05 -0.00415753 -1.20591e-05
 1.92688e-05 -0.00772693 -3.522e-08
 -1.78433e-05 -0.00773589 1.95949e-07
 -2.06625e-05 -0.00420041 1.23478e-05
 2.12154e-05 -0.0106307 -2.1092e-05
 2.11733e-05 -0.010635 2.12706e-05
 -1.92542e-05 -0.00422991 -1.20582e-05
 -1.93868e-05 -0.00772769 -3.15926e-08
 1.49432e-05 -0.0103757 -5.51069e-06
 1.31458e-05 -0.0122507 -1.30993e-05
 -1.22839e-05 -0.00420081 2.0809e-05
 -1.22885e-05 -0.00420513 -2.01762e-05
 1.16455e-05 -0.012273 1.29392e-05
 1.50908e-05 -0.010789 5.63663e-06
 9.59079e-07 -0.00914324 -9.36616e-07
 5.52231e-06 -0.0103748 -1.51042e-05
 -1.6269e-07 -0.00773646 1.68042e-05
 -1.9293e-07 -0.00773721 -1.66116e-05
 5.47128e-06 -0.010299 1.53242e-05
 1.08871e-06 -0.00912279 1.09807e-06
 -9.5292e-06 -0.0104234 -9.49629e-06
 -8.4594e-06 -0.00397489 1.67284e-05
 -1.03482e-05 -0.00537545 -2.13436e-05
 -1.03004e-05 -0.00538075 2.15446e-05
 -8.55767e-06 -0.00391014 -1.63872e-05
 -9.73573e-06 -0.0104465 9.66139e-06
 1.66003e-05 -0.00390377 -8.43931e-06
 1.54254e-05 -0.00725495 1.55525e-05
 1.62303e-05 -0.00444512 -2.09415e-05
 1.61544e-05 -0.00448978 2.12113e-05
 1.54189e-05 -0.00726543 -1.54006e-05
 1.65123e-05 -0.00391119 8.64526e-06
 -2.14273e-05 -0.00532211 -1.02639e-05
 -2.08857e-05 -0.00445702 1.63977e-05
 -1.81737e-05 -0.00773044 -1.79427e-05
 -1.81699e-05 -0.00772835 1.81583e-05
 -2.09625e-05 -0.00449191 -1.62129e-05
 -2.14568e-05 -0.00538375 1.03926e-05
 2.15093e-05 -0.00534221 -1.03817e-05
 2.09203e-05 -0.00445801 1.63021e-05
 1.81433e-05 -0.00773569 -1.80778e-05
 1.81032e-05 -0.00773711 1.82836e-05
 2.09358e-05 -0.00444552 -1.61477e-05
 2.13294e-05 -0.00538122 1.04625e-05
 -1.65644e-05 -0.00388921 -8.45389e-06
 -1.53863e-05 -0.0072623 1.55547e-05
 -1.62044e-05 -0.0044579 -2.09432e-05
 -1.62193e-05 -0.00445703 2.10085e-05
 -1.54738e-05 -0.00725636 -1.54184e-05
 -1.64424e-05 -0.00385621 8.63196e-06
 9.67284e-06 -0.0104034 -9.6076e-06
 8.56898e-06 -0.00388979 1.66424e-05
 1.04579e-05 -0.00534477 -2.14155e-05
 1.04498e-05 -0.00534731 2.14769e-05
 8.57601e-06 -0.00391127 -1.64233e-05
 9.67903e-06 -0.0104311 9.65557e-06
 -1.38754e-05 -0.0104397 -1.38835e-05
 -6.59019e-06 -0.00309011 -4.08761e-06
 -1.23114e-05 -0.00498802 9.41244e-06
 -1.22892e-05 -0.00498959 -1.01139e-05
 -6.49137e-06 -0.00306855 5.08737e-06
 -1.38956e-05 -0.0104361 1.40629e-05
 -4.71025e-06 -0.00313559 -6.80816e-06
 1.16615e-05 -0.00591247 8.47458e-06
 1.5032e-05 -0.00501294 -1.58693e-05
 1.49813e-05 -0.00507289 1.86369e-05
 1.10821e-05 -0.00588652 -1.02377e-05
 -6.37534e-06 -0.00306893 6.19411e-06
 1.00252e-05 -0.00498111 -1.22291e-05
 -1.88139e-05 -0.00501361 1.50165e-05
 -1.56519e-05 -0.00339459 -1.56079e-05
 -1.56922e-05 -0.00338696 1.576e-05
 -1.83012e-05 -0.00507378 -1.49667e-05
 1.1339e-05 -0.00498885 1.23297e-05
 -1.02309e-05 -0.00498215 -1.22551e-05
 1.88199e-05 -0.00501519 1.49966e-05
 1.5744e-05 -0.003402 -1.56192e-05
 1.57675e-05 -0.0033998 1.57451e-05
 1.75364e-05 -0.00502009 -1.49755e-05
 -1.00624e-05 -0.00498863 1.23178e-05
 5.1607e-06 -0.00313228 -7.06445e-06
 -1.14715e-05 -0.00590162 1.1612e-05
 -1.49e-05 -0.00501667 -1.78217e-05
 -1.49065e-05 -0.00501746 1.83177e-05
 -1.07831e-05 -0.005886 -1.17966e-05
 5.20291e-06 -0.00307018 6.87942e-06
 1.40704e-05 -0.0104803 -1.40534e-05
 6.76438e-06 -0.00313292 -4.39536e-06
 1.23626e-05 -0.00498445 9.63175e-06
 1.23216e-05 -0.00498685 -1.01221e-05
 7.06427e-06 -0.00313991 4.98517e-06
 1.3832e-05 -0.0104438 1.40307e-05
 2.45936e-06 -0.00512615 2.32315e-06
 8.73904e-07 -0.00604661 1.88635e-05
 -1.42753e-06 -0.00345999 -3.95615e-06
 -1.43876e-06 -0.00344268 3.95321e-06
 8.40755e-07 -0.0060057 -1.89415e-05
 2.41678e-06 -0.00506894 -2.36458e-06
 1.90389e-05 -0.00598852 7.41288e-07
 1.96678e-05 -0.0010255 1.95109e-05
 1.85391e-05 -0.00438472 7.46653e-07
 1.85192e-05 -0.00438602 -7.72101e-07
 1.9644e-05 -0.00102238 -1.96077e-05
 1.89483e-05 -0.00600418 -8.04518e-07
 -3.85864e-06 -0.00355096 -1.5807e-06
 8.79471e-07 -0.00441122 1.83679e-05
 -1.23109e-06 -0.0019975 -1.50266e-06
 -1.24024e-06 -0.00200491 1.45519e-06
 8.00338e-07 -0.00438592 -1.84874e-05
 -3.87314e-06 -0.0034742 1.49316e-06
 4.06469e-06 -0.00358035 -1.60064e-06
 -6.65916e-07 -0.00441214 1.83498e-05
 1.38949e-06 -0.00197608 -1.51773e-06
 1.37373e-06 -0.0019745 1.44285e-06
 -7.18237e-07 -0.00438432 -1.84989e-05
 3.96892e-06 -0.00348564 1.48556e-06
 -1.8789e-05 -0.00600143 6.50524e-07
 -1.94471e-05 -0.00103073 1.94947e-05
 -1.83321e-05 -0.00441128 7.02815e-07
 -1.83451e-05 -0.00440999 -8.04819e-07
 -1.9491e-05 -0.00102848 -1.9639e-05
 -1.88374e-05 -0.00601127 -8.27083e-07
 -2.20832e-06 -0.00506087 2.23862e-06
 -6.73029e-07 -0.00600151 1.87872e-05
 1.60887e-06 -0.0035408 -4.00398e-06
 1.5936e-06 -0.00351971 3.88375e-06
 -6.76894e-07 -0.00598817 -1.89892e-05
 -2.27772e-06 -0.00508438 -2.402e-06
 -2.24446e-06 0.00386115 -2.56194e-06
 -5.13437e-06 5.31102e-05 1.70739e-06
 -8.68132e-07 -0.00355912 -8.20067e-06
 -8.33506e-07 -0.00357484 7.59899e-06
 -5.16102e-06 0.000134296 -1.60813e-06
 -2.25845e-06 0.00393474 2.2508e-06
 2.18991e-06 -6.38036e-05 -5.29688e-06
 -8.65125e-06 -0.00251362 -9.20513e-06
 3.10431e-06 0.0016247 3.91195e-06
 3.06951e-06 0.00162092 -4.06946e-06
 -8.67399e-06 -0.00250955 8.58249e-06
 1.75976e-06 0.000135777 5.2411e-06
 -8.04644e-06 -0.00350795 -1.10449e-06
 4.18804e-06 0.001651 2.78674e-06
 -7.02456e-06 -0.00204542 -7.362e-06
 -7.05721e-06 -0.00204083 7.05685e-06
 4.19179e-06 0.00162041 -3.07228e-06
 -7.72332e-06 -0.00356495 8.10046e-07
 7.73472e-06 -0.00347617 -1.15911e-06
 -3.90703e-06 0.00165241 2.80956e-06
 7.42818e-06 -0.00206866 -7.41297e-06
 7.39433e-06 -0.0020703 7.04503e-06
 -3.95316e-06 0.00162355 -3.06296e-06
 7.97423e-06 -0.0035563 8.32232e-07
 -1.183e-06 -5.47978e-05 -5.34088e-06
 9.03408e-06 -0.00251956 -9.24661e-06
 -2.84766e-06 0.00165231 3.88486e-06
 -2.83212e-06 0.00165044 -4.11981e-06
 8.95069e-06 -0.00250635 8.57456e-06
 -1.5321e-06 0.000108653 5.23415e-06
 2.55018e-06 0.00376601 -2.60901e-06
 5.40243e-06 -5.51684e-05 1.4855e-06
 1.07326e-06 -0.00350848 -8.0805e-06
 1.06146e-06 -0.00352672 7.61927e-06
 5.40075e-06 -5.53748e-05 -1.73517e-06
 2.51035e-06 0.00383235 2.23409e-06
 -1.75045e-05 0.000785771 -1.79413e-05
 7.14125e-06 0.00118048 -6.14114e-06
 4.37931e-06 0.00199325 -4.01195e-06
 4.37434e-06 0.00198499 3.61792e-06
 7.12842e-06 0.0010592 5.67301e-06
 -1.75509e-05 0.00066378 1.75293e-05
 -5.69693e-06 0.00115134 6.72113e-06
 -3.47911e-06 0.0018722 -3.83379e-06
 -5.91685e-06 0.00213367 -3.07862e-06
 -5.91828e-06 0.00212992 2.6637e-06
 -3.48289e-06 0.00187754 3.42294e-06
 -5.74901e-06 0.00105484 -7.16446e-06
 -3.63129e-06 0.00204613 4.00753e-06
 -2.72349e-06 0.0021383 -6.32972e-06
 -5.0141e-06 -0.00231242 -5.36595e-06
 -5.01994e-06 -0.00230808 4.98374e-06
 -2.73374e-06 0.00212985 5.83611e-06
 -3.62775e-06 0.00202071 -4.40713e-06
 3.98574e-06 0.00204841 3.95981e-06
 3.06997e-06 0.00214123 -6.31664e-06
 5.34905e-06 -0.00231133 -5.37495e-06
 5.34685e-06 -0.00230539 4.963e-06
 3.05563e-06 0.00213348 5.8795e-06
 3.97696e-06 0.0020316 -4.41251e-06
 6.07042e-06 0.00116458 6.71299e-06
 3.83432e-06 0.00187583 -3.87992e-06
 6.26089e-06 0.00214037 -3.10075e-06
 6.25403e-06 0.00213702 2.6786e-06
 3.81731e-06 0.00187434 3.42538e-06
 6.08126e-06 0.00107957 -7.17965e-06
 1.78842e-05 0.000846944 -1.79452e-05
 -6.77449e-06 0.00116502 -6.17117e-06
 -4.0269e-06 0.00203143 -4.04413e-06
 -4.03153e-06 0.002029 3.59017e-06
 -6.78966e-06 0.00115667 5.6649e-06
 1.78636e-05 0.000795579 1.75162e-05
 -9.82311e-06 0.00408087 -1.02879e-05
 4.97692e-06 0.00152286 5.19964e-06
 -7.13466e-06 -1.27844e-06 -8.47592e-06
 -7.13606e-06 -6.13874e-06 8.06361e-06
 4.97885e-06 0.00146875 -5.81616e-06
 -9.78164e-06 0.00402359 9.77719e-06
 5.71863e-06 0.00202323 4.52574e-06
 -5.13488e-06 0.00307483 -5.5791e-06
 -1.07061e-05 0.00036198 -7.85957e-06
 -1.07063e-05 0.000359156 7.36234e-06
 -5.09452e-06 0.00307138 5.08739e-06
 5.63122e-06 0.00145843 -5.04113e-06
 -7.9339e-06 0.000102747 -7.56399e-06
 -7.42889e-06 0.000360561 -1.11499e-05
 4.9909e-06 0.00058319 4.63905e-06
 4.99923e-06 0.000581665 -5.02621e-06
 -7.43723e-06 0.000359156 1.05311e-05
 -8.07794e-06 3.36366e-05 7.10245e-06
 8.32046e-06 0.000111059 -7.56701e-06
 7.76678e-06 0.000359904 -1.11247e-05
 -4.64743e-06 0.000592814 4.59985e-06
 -4.61698e-06 0.000586138 -5.04002e-06
 7.75435e-06 0.000361877 1.06045e-05
 8.60675e-06 4.36116e-05 7.07711e-06
 -5.39534e-06 0.00200716 4.54272e-06
 5.5074e-06 0.00307144 -5.5517e-06
 1.10659e-05 0.000359735 -7.84779e-06
 1.10462e-05 0.000360349 7.35343e-06
 5.5325e-06 0.00306773 5.08815e-06
 -5.43242e-06 0.00146723 -5.04161e-06
 1.01964e-05 0.00402137 -1.02525e-05
 -4.6084e-06 0.00200896 5.20794e-06
 7.5103e-06 6.57403e-05 -8.48442e-06
 7.51035e-06 5.89908e-05 8.11401e-06
 -4.60681e-06 0.00206913 -5.82164e-06
 1.02087e-05 0.0040338 9.76742e-06
 2.65369e-06 0.00448729 2.19422e-06
 3.47922e-07 0.00230547 -8.66164e-06
 -5.65929e-07 0.00212686 4.47707e-06
 -5.58492e-07 0.00213525 -5.0345e-06
 3.62228e-07 0.00232876 8.12056e-06
 2.69225e-06 0.00454543 -2.76094e-06
 -8.21685e-06 0.00183105 -1.16511e-07
 4.18926e-06 0.00151801 3.76225e-06
 2.70006e-06 -0.00197995 -5.58964e-06
 2.70909e-06 -0.00198112 5.0632e-06
 4.22296e-06 0.00152401 -4.28278e-06
 -8.1831e-06 0.00233759 -4.39288e-07
 4.92209e-06 0.0020699 -9.91515e-07
 -5.17747e-06 -0.00198285 2.26688e-06
 -6.2055e-06 0.0063841 -6.64885e-06
 -6.19764e-06 0.00637772 6.12271e-06
 -5.13174e-06 -0.00198126 -2.78238e-06
 4.95826e-06 0.00211436 4.92944e-07
 -4.58231e-06 0.00206357 -9.79241e-07
 5.52271e-06 -0.00198414 2.27757e-06
 6.55857e-06 0.00638426 -6.63957e-06
 6.56768e-06 0.00638357 6.13022e-06
 5.52158e-06 -0.00198008 -2.77698e-06
 -4.55827e-06 0.00210918 4.98006e-07
 8.55693e-06 0.00184804 -7.44379e-08
 -3.85379e-06 0.00151322 3.77872e-06
 -2.34451e-06 -0.00198484 -5.58005e-06
 -2.33524e-06 -0.00198393 5.10766e-06
 -3.8304e-06 0.00151974 -4.26993e-06
 8.59675e-06 0.0023387 -4.24816e-07
 -2.30942e-06 0.00452298 2.24549e-06
 1.32843e-08 0.00184638 -8.62178e-06
 9.32638e-07 0.00208875 4.51725e-06
 9.40209e-07 0.00209697 -5.00658e-06
 3.76284e-08 0.0017853 8.15156e-06
 -2.27016e-06 0.00451968 -2.74027e-06
 -2.44824e-06 -0.00137308 -2.83631e-06
 -2.69504e-06 0.000283838 -3.19223e-06
 1.23084e-06 0.00405174 -1.28864e-05
 1.24175e-06 0.00405467 1.23973e-05
 -2.72294e-06 0.000276768 2.69864e-06
 -2.4008e-06 -0.00137248 2.33044e-06
 -2.8097e-06 0.000352301 -3.17809e-06
 -9.72104e-06 0.00439266 -9.99428e-06
 -9.39972e-06 -0.000189316 2.31514e-06
 -9.40499e-06 -0.000177692 -2.81551e-06
 -9.65545e-06 0.00436673 9.4e-06
 -2.77848e-06 0.000277615 2.85538e-06
 -1.25042e-05 0.00399081 8.5992e-07
 2.68956e-06 -0.000190203 -9.97253e-06
 -2.60265e-06 -0.000102807 -2.76863e-06
 -2.57754e-06 -0.000100763 2.48966e-06
 2.73878e-06 -0.000177241 9.34432e-06
 -1.24793e-05 0.00401662 -1.30278e-06
 1.27803e-05 0.00398633 8.74059e-07
 -2.43736e-06 -0.000191353 -9.9851e-06
 2.74295e-06 -0.000104582 -2.73417e-06
 2.7486e-06 -0.000102785 2.52427e-06
 -2.41353e-06 -0.000188268 9.32709e-06
 1.28299e-05 0.00400596 -1.29468e-06
 3.08897e-06 0.000347076 -3.17756e-06
 9.71539e-06 0.00440193 -9.92812e-06
 9.8495e-06 -0.000190926 2.34937e-06
 9.86418e-06 -0.000189306 -2.79426e-06
 9.77903e-06 0.00437643 9.46782e-06
 3.12679e-06 0.000272877 2.83695e-06
 2.73362e-06 -0.00130088 -2.77875e-06
 3.31396e-06 0.000347372 -3.14124e-06
 -9.08056e-07 0.00401381 -1.28426e-05
 -8.97571e-07 0.0040117 1.24344e-05
 3.3113e-06 0.000355409 2.73374e-06
 2.80146e-06 -0.00136794 2.36424e-06
 -2.42049e-06 0.000973692 -2.65264e-06
 1.77724e-06 0.00337855 -3.64978e-06
 -1.29165e-05 -0.00381087 -2.66389e-06
 -1.29044e-05 -0.00381106 2.3479e-06
 1.80356e-06 0.00339464 3.31425e-06
 -2.38405e-06 0.000978973 2.32576e-06
 -3.40247e-06 0.00340288 1.54281e-06
 -1.06949e-05 -0.00119088 -1.09147e-05
 7.10052e-07 0.000156624 -1.75333e-06
 7.17691e-07 0.000142086 1.424e-06
 -1.06776e-05 -0.00118819 1.06381e-05
 -3.3701e-06 0.00339499 -1.86197e-06
 -2.3973e-06 -0.00380012 -1.31428e-05
 -1.51397e-06 0.000161098 4.86698e-07
 -1.9346e-06 0.00461727 -2.17323e-06
 -1.92592e-06 0.00461757 1.88196e-06
 -1.47713e-06 0.000141608 -7.74077e-07
 -2.41728e-06 -0.00380542 1.28542e-05
 2.56352e-06 -0.00379878 -1.31317e-05
 1.66772e-06 0.000159608 4.96424e-07
 2.11753e-06 0.00461675 -2.16344e-06
 2.12887e-06 0.00461721 1.89106e-06
 1.69136e-06 0.000154051 -7.68488e-07
 2.65493e-06 -0.00380138 1.28627e-05
 3.55895e-06 0.00340025 1.57768e-06
 1.08849e-05 -0.00119276 -1.08902e-05
 -5.20283e-07 0.000160247 -1.73142e-06
 -5.12459e-07 0.000162099 1.44585e-06
 1.09069e-05 -0.00118977 1.06629e-05
 3.60779e-06 0.00339363 -1.84042e-06
 2.5888e-06 0.00103111 -2.61004e-06
 -1.60257e-06 0.00340006 -3.59826e-06
 1.31033e-05 -0.00380243 -2.59366e-06
 1.31096e-05 -0.00380122 2.34706e-06
 -1.57913e-06 0.0033972 3.3433e-06
 2.62466e-06 0.000976348 2.35803e-06
 1.92187e-06 -0.000696927 1.84195e-06
 -9.77824e-07 -0.00241054 -1.40784e-07
 -2.591e-08 0.00114093 -8.6167e-06
 3.23798e-08 0.00114197 8.49148e-06
 -9.65362e-07 -0.00241643 7.97928e-09
 1.9502e-06 -0.000688772 -1.99161e-06
 -5.50535e-08 -0.00244529 -1.05928e-06
 1.33996e-07 -0.000562698 5.8779e-08
 3.47423e-07 0.00290452 -6.89691e-06
 3.01971e-07 0.00292184 6.77561e-06
 1.55028e-07 -0.000564237 -1.80703e-07
 -3.22651e-08 -0.00241762 9.22649e-07
 -8.53511e-06 0.00113939 -8.46071e-07
 -6.80483e-06 0.0028943 1.00878e-06
 -7.13855e-06 -0.00159511 -7.21385e-06
 -7.13182e-06 -0.00159578 7.10712e-06
 -6.79289e-06 0.00292235 -5.00222e-07
 -8.5194e-06 0.00114396 1.03226e-07
 8.58389e-06 0.00113877 -8.05806e-07
 6.86054e-06 0.00289502 9.90931e-07
 7.20246e-06 -0.00159279 -7.21222e-06
 7.20814e-06 -0.00159275 7.10747e-06
 6.88287e-06 0.0029069 -4.92338e-07
 8.6152e-06 0.00114169 1.06791e-07
 1.07329e-07 -0.00244427 -1.04236e-06
 -8.05309e-08 -0.000561918 7.58026e-08
 -3.02856e-07 0.00289496 -6.88151e-06
 -3.05816e-07 0.00289433 6.79284e-06
 -6.91757e-08 -0.000563811 -1.64348e-07
 1.32483e-07 -0.00241343 9.39187e-07
 -1.87973e-06 -0.000797703 1.86703e-06