<?xml version="1.0"?>
<VTKFile type="UnstructuredGrid" version="0.1" byte_order="LittleEndian" compressor="vtkZLibDataCompressor">
<UnstructuredGrid>
<Piece NumberOfPoints="960" NumberOfCells="120">
<Points>
<DataArray type="Float32" NumberOfComponents="3" format="ascii">
-4.000000e+02 -6.000000e+03 -4.000000e+02
0.000000e+00 -6.000000e+03 -4.000000e+02
-4.000000e+02 -5.600000e+03 -4.000000e+02
4.795060e-10 -5.600000e+03 -4.000000e+02
-4.000000e+02 -6.000000e+03 0.000000e+00
0.000000e+00 -6.000000e+03 0.000000e+00
-4.000000e+02 -5.600000e+03 1.623050e-11
3.053150e-10 -5.600000e+03 4.781680e-10
0.000000e+00 -6.000000e+03 -4.000000e+02
4.000000e+02 -6.000000e+03 -4.000000e+02
4.795060e-10 -5.600000e+03 -4.000000e+02
4.000000e+02 -5.600000e+03 -4.000000e+02
0.000000e+00 -6.000000e+03 0.000000e+00
4.000000e+02 -6.000000e+03 0.000000e+00
3.053150e-10 -5.600000e+03 4.781680e-10
4.000000e+02 -5.600000e+03 4.989050e-10
-4.000000e+02 -5.600000e+03 -4.000000e+02
4.795060e-10 -5.600000e+03 -4.000000e+02
-4.000000e+02 -5.200000e+03 -4.000000e+02
1.802290e-09 -5.200000e+03 -4.000000e+02
-4.000000e+02 -5.600000e+03 1.623050e-11
3.053150e-10 -5.600000e+03 4.781680e-10
-4.000000e+02 -5.200000e+03 -6.261480e-10
1.140070e-09 -5.200000e+03 3.047280e-10
4.795060e-10 -5.600000e+03 -4.000000e+02
4.000000e+02 -5.600000e+03 -4.000000e+02
1.802290e-09 -5.200000e+03 -4.000000e+02
4.000000e+02 -5.200000e+03 -4.000000e+02
3.053150e-10 -5.600000e+03 4.781680e-10
4.000000e+02 -5.600000e+03 4.989050e-10
1.140070e-09 -5.200000e+03 3.047280e-10
4.000000e+02 -5.200000e+03 8.053200e-11
-4.000000e+02 -5.200000e+03 -4.000000e+02
1.802290e-09 -5.200000e+03 -4.000000e+02
-4.000000e+02 -4.800010e+03 -4.000000e+02
1.914220e-09 -4.800010e+03 -4.000000e+02
-4.000000e+02 -5.200000e+03 -6.261480e-10
1.140070e-09 -5.200000e+03 3.047280e-10
-4.000000e+02 -4.800010e+03 -2.845310e-11
1.886680e-09 -4.800010e+03 3.029120e-11
1.802290e-09 -5.200000e+03 -4.000000e+02
4.000000e+02 -5.200000e+03 -4.000000e+02
1.914220e-09 -4.800010e+03 -4.000000e+02
4.000000e+02 -4.800010e+03 -4.000000e+02
1.140070e-09 -5.200000e+03 3.047280e-10
4.000000e+02 -5.200000e+03 8.053200e-11
1.886680e-09 -4.800010e+03 3.029120e-11
4.000000e+02 -4.800010e+03 6.488580e-10
-4.000000e+02 -4.800010e+03 -4.000000e+02
1.914220e-09 -4.800010e+03 -4.000000e+02
-4.000000e+02 -4.399990e+03 -4.000000e+02
1.354640e-09 -4.399990e+03 -4.000000e+02
-4.000000e+02 -4.800010e+03 -2.845310e-11
1.886680e-09 -4.800010e+03 3.029120e-11
-4.000000e+02 -4.399990e+03 1.469980e-10
1.695750e-09 -4.399990e+03 2.205370e-10
1.914220e-09 -4.800010e+03 -4.000000e+02
4.000000e+02 -4.800010e+03 -4.000000e+02
1.354640e-09 -4.399990e+03 -4.000000e+02
4.000000e+02 -4.399990e+03 -4.000000e+02
1.886680e-09 -4.800010e+03 3.029120e-11
4.000000e+02 -4.800010e+03 6.488580e-10
1.695750e-09 -4.399990e+03 2.205370e-10
4.000000e+02 -4.399990e+03 2.118210e-10
-4.000000e+02 -4.399990e+03 -4.000000e+02
1.354640e-09 -4.399990e+03 -4.000000e+02
-4.000000e+02 -3.999970e+03 -4.000000e+02
1.301370e-09 -3.999970e+03 -4.000000e+02
-4.000000e+02 -4.399990e+03 1.469980e-10
1.695750e-09 -4.399990e+03 2.205370e-10
-4.000000e+02 -3.999970e+03 3.366130e-10
1.413080e-09 -3.999970e+03 5.472360e-11
1.354640e-09 -4.399990e+03 -4.000000e+02
4.000000e+02 -4.399990e+03 -4.000000e+02
1.301370e-09 -3.999970e+03 -4.000000e+02
4.000000e+02 -3.999970e+03 -4.000000e+02
1.695750e-09 -4.399990e+03 2.205370e-10
4.000000e+02 -4.399990e+03 2.118210e-10
1.413080e-09 -3.999970e+03 5.472360e-11
4.000000e+02 -3.999970e+03 -1.141780e-10
-4.000000e+02 -3.999970e+03 -4.000000e+02
1.301370e-09 -3.999970e+03 -4.000000e+02
-4.000000e+02 -3.600000e+03 -4.000000e+02
1.986850e-10 -3.600000e+03 -4.000000e+02
-4.000000e+02 -3.999970e+03 3.366130e-10
1.413080e-09 -3.999970e+03 5.472360e-11
-4.000000e+02 -3.600000e+03 -6.682150e-11
2.217570e-10 -3.600000e+03 -1.733220e-10
1.301370e-09 -3.999970e+03 -4.000000e+02
4.000000e+02 -3.999970e+03 -4.000000e+02
1.986850e-10 -3.600000e+03 -4.000000e+02
4.000000e+02 -3.600000e+03 -4.000000e+02
1.413080e-09 -3.999970e+03 5.472360e-11
4.000000e+02 -3.999970e+03 -1.141780e-10
2.217570e-10 -3.600000e+03 -1.733220e-10
4.000000e+02 -3.600000e+03 -3.033170e-10
-4.000000e+02 -3.600000e+03 -4.000000e+02
1.986850e-10 -3.600000e+03 -4.000000e+02
-4.000000e+02 -3.200070e+03 -4.000000e+02
6.512570e-11 -3.200070e+03 -4.000000e+02
-4.000000e+02 -3.600000e+03 -6.682150e-11
2.217570e-10 -3.600000e+03 -1.733220e-10
-4.000000e+02 -3.200070e+03 -2.857730e-10
-2.024540e-10 -3.200070e+03 -3.209070e-10
1.986850e-10 -3.600000e+03 -4.000000e+02
4.000000e+02 -3.600000e+03 -4.000000e+02
6.512570e-11 -3.200070e+03 -4.000000e+02
4.000000e+02 -3.200070e+03 -4.000000e+02
2.217570e-10 -3.600000e+03 -1.733220e-10
4.000000e+02 -3.600000e+03 -3.033170e-10
-2.024540e-10 -3.200070e+03 -3.209070e-10
4.000000e+02 -3.200070e+03 -8.319180e-10
-4.000000e+02 -3.200070e+03 -4.000000e+02
6.512570e-11 -3.200070e+03 -4.000000e+02
-4.000000e+02 -2.800150e+03 -4.000000e+02
-2.577290e-10 -2.800150e+03 -4.000000e+02
-4.000000e+02 -3.200070e+03 -2.857730e-10
-2.024540e-10 -3.200070e+03 -3.209070e-10
-4.000000e+02 -2.800150e+03 -1.671330e-10
-6.847740e-10 -2.800150e+03 -8.858520e-10
6.512570e-11 -3.200070e+03 -4.000000e+02
4.000000e+02 -3.200070e+03 -4.000000e+02
-2.577290e-10 -2.800150e+03 -4.000000e+02
4.000000e+02 -2.800150e+03 -4.000000e+02
-2.024540e-10 -3.200070e+03 -3.209070e-10
4.000000e+02 -3.200070e+03 -8.319180e-10
-6.847740e-10 -2.800150e+03 -8.858520e-10
4.000000e+02 -2.800150e+03 -6.794690e-10
-4.000000e+02 -2.800150e+03 -4.000000e+02
-2.577290e-10 -2.800150e+03 -4.000000e+02
-4.000000e+02 -2.400210e+03 -4.000000e+02
-1.248300e-09 -2.400210e+03 -4.000000e+02
-4.000000e+02 -2.800150e+03 -1.671330e-10
-6.847740e-10 -2.800150e+03 -8.858520e-10
-4.000000e+02 -2.400210e+03 -4.512970e-10
-9.799350e-10 -2.400210e+03 -4.173480e-10
-2.577290e-10 -2.800150e+03 -4.000000e+02
4.000000e+02 -2.800150e+03 -4.000000e+02
-1.248300e-09 -2.400210e+03 -4.000000e+02
4.000000e+02 -2.400210e+03 -4.000000e+02
-6.847740e-10 -2.800150e+03 -8.858520e-10
4.000000e+02 -2.800150e+03 -6.794690e-10
-9.799350e-10 -2.400210e+03 -4.173480e-10
4.000000e+02 -2.400210e+03 -3.742590e-10
-4.000000e+02 -2.400210e+03 -4.000000e+02
-1.248300e-09 -2.400210e+03 -4.000000e+02
-4.000000e+02 -2.000240e+03 -4.000000e+02
-1.448430e-09 -2.000240e+03 -4.000000e+02
-4.000000e+02 -2.400210e+03 -4.512970e-10
-9.799350e-10 -2.400210e+03 -4.173480e-10
-4.000000e+02 -2.000240e+03 -1.774750e-10
-1.239050e-09 -2.000240e+03 -3.877330e-10
-1.248300e-09 -2.400210e+03 -4.000000e+02
4.000000e+02 -2.400210e+03 -4.000000e+02
-1.448430e-09 -2.000240e+03 -4.000000e+02
4.000000e+02 -2.000240e+03 -4.000000e+02
-9.799350e-10 -2.400210e+03 -4.173480e-10
4.000000e+02 -2.400210e+03 -3.742590e-10
-1.239050e-09 -2.000240e+03 -3.877330e-10
4.000000e+02 -2.000240e+03 -2.598620e-10
-4.000000e+02 -2.000240e+03 -4.000000e+02
-1.448430e-09 -2.000240e+03 -4.000000e+02
-4.000000e+02 -1.600260e+03 -4.000000e+02
-1.143540e-09 -1.600260e+03 -4.000000e+02
-4.000000e+02 -2.000240e+03 -1.774750e-10
-1.239050e-09 -2.000240e+03 -3.877330e-10
-4.000000e+02 -1.600260e+03 -9.842210e-11
-5.323100e-10 -1.600260e+03 -3.103250e-11
-1.448430e-09 -2.000240e+03 -4.000000e+02
4.000000e+02 -2.000240e+03 -4.000000e+02
-1.143540e-09 -1.600260e+03 -4.000000e+02
4.000000e+02 -1.600260e+03 -4.000000e+02
-1.239050e-09 -2.000240e+03 -3.877330e-10
4.000000e+02 -2.000240e+03 -2.598620e-10
-5.323100e-10 -1.600260e+03 -3.103250e-11
4.000000e+02 -1.600260e+03 -4.890090e-10
-4.000000e+02 -1.600260e+03 -4.000000e+02
-1.143540e-09 -1.600260e+03 -4.000000e+02
-4.000000e+02 -1.200260e+03 -4.000000e+02
-7.332040e-10 -1.200260e+03 -4.000000e+02
-4.000000e+02 -1.600260e+03 -9.842210e-11
-5.323100e-10 -1.600260e+03 -3.103250e-11
-4.000000e+02 -1.200260e+03 5.320990e-10
-1.688720e-11 -1.200260e+03 2.551960e-10
-1.143540e-09 -1.600260e+03 -4.000000e+02
4.000000e+02 -1.600260e+03 -4.000000e+02
-7.332040e-10 -1.200260e+03 -4.000000e+02
4.000000e+02 -1.200260e+03 -4.000000e+02
-5.323100e-10 -1.600260e+03 -3.103250e-11
4.000000e+02 -1.600260e+03 -4.890090e-10
-1.688720e-11 -1.200260e+03 2.551960e-10
4.000000e+02 -1.200260e+03 -2.529520e-10
-4.000000e+02 -1.200260e+03 -4.000000e+02
-7.332040e-10 -1.200260e+03 -4.000000e+02
-4.000000e+02 -8.002660e+02 -4.000000e+02
-7.856500e-11 -8.002660e+02 -4.000000e+02
-4.000000e+02 -1.200260e+03 5.320990e-10
-1.688720e-11 -1.200260e+03 2.551960e-10
-4.000000e+02 -8.002660e+02 6.645570e-10
3.808120e-10 -8.002660e+02 5.021630e-11
-7.332040e-10 -1.200260e+03 -4.000000e+02
4.000000e+02 -1.200260e+03 -4.000000e+02
-7.856500e-11 -8.002660e+02 -4.000000e+02
4.000000e+02 -8.002660e+02 -4.000000e+02
-1.688720e-11 -1.200260e+03 2.551960e-10
4.000000e+02 -1.200260e+03 -2.529520e-10
3.808120e-10 -8.002660e+02 5.021630e-11
4.000000e+02 -8.002660e+02 2.451910e-10
-4.000000e+02 -8.002660e+02 -4.000000e+02
-7.856500e-11 -8.002660e+02 -4.000000e+02
-4.000000e+02 -4.002690e+02 -4.000000e+02
3.464420e-10 -4.002690e+02 -4.000000e+02
-4.000000e+02 -8.002660e+02 6.645570e-10
3.808120e-10 -8.002660e+02 5.021630e-11
-4.000000e+02 -4.002690e+02 6.538250e-10
5.620600e-10 -4.002690e+02 4.538950e-10
-7.856500e-11 -8.002660e+02 -4.000000e+02
4.000000e+02 -8.002660e+02 -4.000000e+02
3.464420e-10 -4.002690e+02 -4.000000e+02
4.000000e+02 -4.002690e+02 -4.000000e+02
3.808120e-10 -8.002660e+02 5.021630e-11
4.000000e+02 -8.002660e+02 2.451910e-10
5.620600e-10 -4.002690e+02 4.538950e-10
4.000000e+02 -4.002690e+02 -2.263610e-10
-4.000000e+02 -4.002690e+02 -4.000000e+02
3.464420e-10 -4.002690e+02 -4.000000e+02
-4.000000e+02 -2.698140e-01 -4.000000e+02
8.126680e-10 -2.698320e-01 -4.000000e+02
-4.000000e+02 -4.002690e+02 6.538250e-10
5.620600e-10 -4.002690e+02 4.538950e-10
-4.000000e+02 -2.698320e-01 1.060600e-09
1.020110e-09 -2.698490e-01 3.373640e-10
3.464420e-10 -4.002690e+02 -4.000000e+02
4.000000e+02 -4.002690e+02 -4.000000e+02
8.126680e-10 -2.698320e-01 -4.000000e+02
4.000000e+02 -2.698140e-01 -4.000000e+02
[...]
<PointData>
<DataArray type="Float32" Name="V1" format="ascii">
0.000000e+00
0.000000e+00
-1.792030e-07
-8.521250e-12
0.000000e+00
0.000000e+00
-1.849210e-07
-7.115610e-10
0.000000e+00
0.000000e+00
-8.521250e-12
1.789040e-07
0.000000e+00
0.000000e+00
-7.115610e-10
1.835390e-07
-1.792030e-07
-8.521250e-12
-1.968620e-08
-9.474530e-10
-1.849210e-07
-7.115610e-10
-8.735460e-09
6.493250e-10
-8.521250e-12
1.789040e-07
-9.474530e-10
1.839790e-08
-7.115610e-10
1.835390e-07
6.493250e-10
1.013380e-08
-1.968620e-08
-9.474530e-10
7.477300e-07
4.729810e-10
-8.735460e-09
6.493250e-10
7.357890e-07
3.881080e-10
-9.474530e-10
1.839790e-08
4.729810e-10
-7.471490e-07
6.493250e-10
1.013380e-08
3.881080e-10
-7.351610e-07
7.477300e-07
4.729810e-10
-1.855010e-06
-5.289760e-10
7.357890e-07
3.881080e-10
-1.844300e-06
2.705600e-10
4.729810e-10
-7.471490e-07
-5.289760e-10
1.854680e-06
3.881080e-10
-7.351610e-07
2.705600e-10
1.845570e-06
-1.855010e-06
-5.289760e-10
2.281620e-06
-1.567270e-10
-1.844300e-06
2.705600e-10
2.290700e-06
-1.521700e-10
-5.289760e-10
1.854680e-06
-1.567270e-10
-2.281100e-06
2.705600e-10
1.845570e-06
-1.521700e-10
-2.290010e-06
2.281620e-06
-1.567270e-10
-1.529650e-07
4.130770e-10
2.290700e-06
-1.521700e-10
-2.121650e-07
-3.144620e-10
-1.567270e-10
-2.281100e-06
4.130770e-10
1.528080e-07
-1.521700e-10
-2.290010e-06
-3.144620e-10
2.113950e-07
-1.529650e-07
4.130770e-10
-5.382490e-06
3.886000e-10
-2.121650e-07
-3.144620e-10
-5.250010e-06
-2.795280e-10
4.130770e-10
1.528080e-07
3.886000e-10
5.382690e-06
-3.144620e-10
2.113950e-07
-2.795280e-10
5.248770e-06
-5.382490e-06
3.886000e-10
1.104800e-05
2.914190e-10
-5.250010e-06
-2.795280e-10
1.084080e-05
-5.597300e-10
3.886000e-10
5.382690e-06
2.914190e-10
-1.104760e-05
-2.795280e-10
5.248770e-06
-5.597300e-10
-1.084190e-05
1.104800e-05
2.914190e-10
-8.640280e-06
4.581400e-11
1.084080e-05
-5.597300e-10
-8.433160e-06
6.057210e-10
2.914190e-10
-1.104760e-05
4.581400e-11
8.639680e-06
-5.597300e-10
-1.084190e-05
6.057210e-10
8.433790e-06
-8.640280e-06
4.581400e-11
-7.640240e-06
2.623700e-10
-8.433160e-06
6.057210e-10
-7.694490e-06
-4.850650e-10
4.581400e-11
8.639680e-06
2.623700e-10
7.640700e-06
6.057210e-10
8.433790e-06
-4.850650e-10
7.693880e-06
-7.640240e-06
2.623700e-10
2.546330e-05
-2.158040e-10
-7.694490e-06
-4.850650e-10
2.518750e-05
-1.795020e-11
2.623700e-10
7.640700e-06
-2.158040e-10
-2.546370e-05
-4.850650e-10
7.693880e-06
-1.795020e-11
-2.518780e-05
2.546330e-05
-2.158040e-10
-1.460830e-05
-7.052200e-10
2.518750e-05
-1.795020e-11
-1.395280e-05
3.870640e-11
-2.158040e-10
-2.546370e-05
-7.052200e-10
1.460730e-05
-1.795020e-11
-2.518780e-05
3.870640e-11
1.395330e-05
-1.460830e-05
-7.052200e-10
-2.047510e-05
7.288370e-11
-1.395280e-05
3.870640e-11
-2.113540e-05
9.601740e-12
-7.052200e-10
1.460730e-05
7.288370e-11
2.047510e-05
3.870640e-11
1.395330e-05
9.601740e-12
2.113530e-05
-2.047510e-05
7.288370e-11
2.419890e-05
8.301640e-11
-2.113540e-05
9.601740e-12
2.401180e-05
2.516670e-10
7.288370e-11
2.047510e-05
8.301640e-11
-2.419870e-05
9.601740e-12
2.113530e-05
2.516670e-10
-2.401120e-05
2.419890e-05
8.301640e-11
1.873310e-05
2.361010e-10
2.401180e-05
2.516670e-10
1.954110e-05
2.958650e-11
8.301640e-11
-2.419870e-05
2.361010e-10
-1.873280e-05
2.516670e-10
-2.401120e-05
2.958650e-11
-1.954170e-05
1.873310e-05
2.361010e-10
-2.767460e-05
1.002790e-10
1.954110e-05
2.958650e-11
-2.684840e-05
4.235690e-12
2.361010e-10
-1.873280e-05
1.002790e-10
2.767500e-05
2.958650e-11
-1.954170e-05
4.235690e-12
2.684870e-05
-2.767460e-05
1.002790e-10
-7.555010e-06
-3.383660e-10
-2.684840e-05
4.235690e-12
-9.107550e-06
-2.469290e-10
1.002790e-10
2.767500e-05
-3.383660e-10
7.554300e-06
4.235690e-12
2.684870e-05
-2.469290e-10
9.107470e-06
-7.555010e-06
-3.383660e-10
6.133530e-06
4.446660e-11
-9.107550e-06
-2.469290e-10
6.656590e-06
1.467230e-10
-3.383660e-10
7.554300e-06
4.446660e-11
-6.133440e-06
-2.469290e-10
9.107470e-06
1.467230e-10
-6.656620e-06
6.133530e-06
4.446660e-11
4.921530e-06
5.400720e-10
6.656590e-06
1.467230e-10
8.907260e-06
2.589720e-10
4.446660e-11
-6.133440e-06
5.400720e-10
-4.921600e-06
1.467230e-10
-6.656620e-06
2.589720e-10
-8.907180e-06
4.921530e-06
5.400720e-10
1.612350e-05
1.481170e-10
8.907260e-06
2.589720e-10
1.505990e-05
1.303190e-10
5.400720e-10
-4.921600e-06
1.481170e-10
-1.612340e-05
2.589720e-10
-8.907180e-06
1.303190e-10
-1.505960e-05
1.612350e-05
1.481170e-10
3.878990e-05
4.868430e-12
1.505990e-05
1.303190e-10
3.724140e-05
-8.259880e-12
1.481170e-10
-1.612340e-05
4.868430e-12
-3.879020e-05
1.303190e-10
-1.505960e-05
-8.259880e-12
-3.724130e-05
3.878990e-05
4.868430e-12
-2.038830e-06
4.883280e-11
3.724140e-05
-8.259880e-12
1.212740e-06
9.067050e-11
4.868430e-12
-3.879020e-05
4.883280e-11
2.038680e-06
-8.259880e-12
-3.724130e-05
9.067050e-11
-1.212810e-06
-2.038830e-06
4.883280e-11
-3.414040e-05
-3.765390e-11
1.212740e-06
9.067050e-11
-3.518190e-05
5.360110e-11
4.883280e-11
2.038680e-06
-3.765390e-11
3.414040e-05
9.067050e-11
-1.212810e-06
5.360110e-11
3.518190e-05
-3.414040e-05
-3.765390e-11
8.702370e-06
-8.413350e-12
-3.518190e-05
5.360110e-11
7.833140e-06
7.837530e-11
-3.765390e-11
3.414040e-05
-8.413350e-12
-8.702120e-06
5.360110e-11
3.518190e-05
7.837530e-11
-7.833190e-06
8.702370e-06
-8.413350e-12
3.148980e-05
1.749820e-10
7.833140e-06
7.837530e-11
3.326810e-05
1.645840e-10
-8.413350e-12
-8.702120e-06
1.749820e-10
-3.148930e-05
7.837530e-11
-7.833190e-06
1.645840e-10
-3.326780e-05
3.148980e-05
1.749820e-10
-1.383170e-05
1.176960e-10
3.326810e-05
1.645840e-10
-1.472440e-05
1.112110e-10
1.749820e-10
-3.148930e-05
1.176960e-10
1.383190e-05
1.645840e-10
-3.326780e-05
1.112110e-10
1.472460e-05
-1.383170e-05
1.176960e-10
-2.560430e-05
-5.553290e-11
-1.472440e-05
1.112110e-10
-2.531410e-05
-6.302210e-11
1.176960e-10
1.383190e-05
-5.553290e-11
2.560420e-05
1.112110e-10
1.472460e-05
-6.302210e-11
2.531400e-05
-2.560430e-05
-5.553290e-11
-4.387820e-06
-7.578560e-11
-2.531410e-05
-6.302210e-11
-4.504130e-06
-5.859500e-11
-5.553290e-11
2.560420e-05
-7.578560e-11
4.387680e-06
-6.302210e-11
2.531400e-05
-5.859500e-11
4.504010e-06
-4.387820e-06
-7.578560e-11
2.370480e-06
-2.455920e-11
-4.504130e-06
-5.859500e-11
2.501260e-06
-1.621730e-11
-7.578560e-11
4.387680e-06
-2.455920e-11
-2.370560e-06
-5.859500e-11
4.504010e-06
-1.621730e-11
-2.501340e-06
2.370480e-06
-2.455920e-11
1.528390e-05
2.556600e-11
2.501260e-06
-1.621730e-11
1.498450e-05
2.033560e-11
-2.455920e-11
-2.370560e-06
2.556600e-11
-1.528380e-05
-1.621730e-11
-2.501340e-06
2.033560e-11
-1.498440e-05
0.000000e+00
0.000000e+00
-1.849210e-07
-7.115610e-10
0.000000e+00
0.000000e+00
-1.784800e-07
4.830420e-10
0.000000e+00
0.000000e+00
-7.115610e-10
1.835390e-07
0.000000e+00
0.000000e+00
4.830420e-10
1.790610e-07
-1.849210e-07
-7.115610e-10
-8.735460e-09
6.493250e-10
-1.784800e-07
4.830420e-10
-2.036180e-08
-4.658230e-10
-7.115610e-10
1.835390e-07
6.493250e-10
1.013380e-08
4.830420e-10
1.790610e-07
-4.658230e-10
1.866500e-08
-8.735460e-09
6.493250e-10
7.357890e-07
3.881080e-10
-2.036180e-08
-4.658230e-10
7.481700e-07
1.550950e-10
6.493250e-10
1.013380e-08
3.881080e-10
-7.351610e-07
-4.658230e-10
1.866500e-08
1.550950e-10
-7.476830e-07
7.357890e-07
3.881080e-10
-1.844300e-06
2.705600e-10
7.481700e-07
1.550950e-10
-1.855470e-06
1.034720e-10
3.881080e-10
-7.351610e-07
2.705600e-10
1.845570e-06
1.550950e-10
-7.476830e-07
1.034720e-10
1.855830e-06
-1.844300e-06
2.705600e-10
2.290700e-06
-1.521700e-10
-1.855470e-06
1.034720e-10
2.280630e-06
8.845890e-12
2.705600e-10
1.845570e-06
-1.521700e-10
-2.290010e-06
1.034720e-10
1.855830e-06
8.845890e-12
-2.279830e-06
2.290700e-06
-1.521700e-10
-2.121650e-07
-3.144620e-10
2.280630e-06
8.845890e-12
-1.532790e-07
1.680700e-10
-1.521700e-10
-2.290010e-06
-3.144620e-10
2.113950e-07
8.845890e-12
-2.279830e-06
1.680700e-10
1.533890e-07
-2.121650e-07
-3.144620e-10
-5.250010e-06
-2.795280e-10
-1.532790e-07
1.680700e-10
-5.381540e-06
7.165680e-10
-3.144620e-10
2.113950e-07
-2.795280e-10
5.248770e-06
1.680700e-10
1.533890e-07
7.165680e-10
5.382280e-06
-5.250010e-06
-2.795280e-10
1.084080e-05
-5.597300e-10
-5.381540e-06
7.165680e-10
1.104820e-05
1.729690e-11
-2.795280e-10
5.248770e-06
-5.597300e-10
-1.084190e-05
7.165680e-10
5.382280e-06
1.729690e-11
-1.104760e-05
1.084080e-05
-5.597300e-10
-8.433160e-06
6.057210e-10
1.104820e-05
1.729690e-11
-8.638970e-06
1.420680e-10
-5.597300e-10
-1.084190e-05
6.057210e-10
8.433790e-06
1.729690e-11
-1.104760e-05
1.420680e-10
8.639230e-06
-8.433160e-06
6.057210e-10
-7.694490e-06
-4.850650e-10
-8.638970e-06
1.420680e-10
-7.640260e-06
2.188350e-10
6.057210e-10
8.433790e-06
-4.850650e-10
7.693880e-06
1.420680e-10
8.639230e-06
2.188350e-10
7.640150e-06
-7.694490e-06
-4.850650e-10
2.518750e-05
-1.795020e-11
-7.640260e-06
2.188350e-10
2.546390e-05
7.527020e-11
-4.850650e-10
7.693880e-06
-1.795020e-11
-2.518780e-05
2.188350e-10
7.640150e-06
7.527020e-11
-2.546410e-05
2.518750e-05
-1.795020e-11
-1.395280e-05
3.870640e-11
2.546390e-05
7.527020e-11
-1.460650e-05
4.129930e-11
-1.795020e-11
-2.518780e-05
3.870640e-11
1.395330e-05
7.527020e-11
-2.546410e-05
4.129930e-11
1.460710e-05
-1.395280e-05
3.870640e-11
-2.113540e-05
9.601740e-12
-1.460650e-05
4.129930e-11
-2.047590e-05
2.103680e-10
3.870640e-11
1.395330e-05
9.601740e-12
2.113530e-05
4.129930e-11
1.460710e-05
2.103680e-10
2.047590e-05
-2.113540e-05
9.601740e-12
2.401180e-05
2.516670e-10
-2.047590e-05
2.103680e-10
2.419850e-05
2.626270e-10
9.601740e-12
2.113530e-05
2.516670e-10
-2.401120e-05
2.103680e-10
2.047590e-05
2.626270e-10
-2.419820e-05
2.401180e-05
2.516670e-10
1.954110e-05
2.958650e-11
2.419850e-05
2.626270e-10
1.873370e-05
6.099970e-10
2.516670e-10
-2.401120e-05
2.958650e-11
-1.954170e-05
2.626270e-10
-2.419820e-05
6.099970e-10
-1.873330e-05
1.954110e-05
2.958650e-11
-2.684840e-05
4.235690e-12
1.873370e-05
6.099970e-10
-2.767500e-05
4.059600e-10
2.958650e-11
-1.954170e-05
4.235690e-12
2.684870e-05
6.099970e-10
-1.873330e-05
4.059600e-10
2.767510e-05
-2.684840e-05
4.235690e-12
-9.107550e-06
-2.469290e-10
-2.767500e-05
4.059600e-10
-7.554820e-06
2.508840e-10
4.235690e-12
2.684870e-05
-2.469290e-10
9.107470e-06
4.059600e-10
2.767510e-05
2.508840e-10
7.554820e-06
-9.107550e-06
-2.469290e-10
6.656590e-06
1.467230e-10
-7.554820e-06
2.508840e-10
6.133280e-06
1.703820e-10
-2.469290e-10
9.107470e-06
1.467230e-10
-6.656620e-06
2.508840e-10
7.554820e-06
1.703820e-10
-6.134110e-06
6.656590e-06
1.467230e-10
8.907260e-06
2.589720e-10
6.133280e-06
1.703820e-10
4.921680e-06
7.503500e-11
1.467230e-10
-6.656620e-06
2.589720e-10
-8.907180e-06
1.703820e-10
-6.134110e-06
7.503500e-11
-4.921680e-06
8.907260e-06
2.589720e-10
1.505990e-05
1.303190e-10
4.921680e-06
7.503500e-11
1.612310e-05
-4.399770e-11
2.589720e-10
-8.907180e-06
1.303190e-10
-1.505960e-05
7.503500e-11
-4.921680e-06
-4.399770e-11
-1.612310e-05
1.505990e-05
1.303190e-10
3.724140e-05
-8.259880e-12
1.612310e-05
-4.399770e-11
3.878970e-05
-1.438670e-10
1.303190e-10
-1.505960e-05
-8.259880e-12
-3.724130e-05
-4.399770e-11
-1.612310e-05
-1.438670e-10
-3.878980e-05
3.724140e-05
-8.259880e-12
1.212740e-06
9.067050e-11
3.878970e-05
-1.438670e-10
-2.039210e-06
1.011090e-10
-8.259880e-12
-3.724130e-05
9.067050e-11
-1.212810e-06
-1.438670e-10
-3.878980e-05
1.011090e-10
2.039260e-06
1.212740e-06
9.067050e-11
-3.518190e-05
5.360110e-11
-2.039210e-06
1.011090e-10
-3.414050e-05
1.349180e-10
9.067050e-11
-1.212810e-06
5.360110e-11
3.518190e-05
1.011090e-10
2.039260e-06
1.349180e-10
3.414040e-05
-3.518190e-05
5.360110e-11
7.833140e-06
7.837530e-11
-3.414050e-05
1.349180e-10
8.702510e-06
2.033590e-10
5.360110e-11
3.518190e-05
7.837530e-11
-7.833190e-06
1.349180e-10
3.414040e-05
2.033590e-10
-8.702680e-06
7.833140e-06
7.837530e-11
3.326810e-05
1.645840e-10
8.702510e-06
2.033590e-10
3.148970e-05
1.794320e-10
7.837530e-11
-7.833190e-06
1.645840e-10
-3.326780e-05
2.033590e-10
-8.702680e-06
1.794320e-10
-3.148960e-05
3.326810e-05
1.645840e-10
-1.472440e-05
1.112110e-10
3.148970e-05
1.794320e-10
-1.383170e-05
1.013960e-10
1.645840e-10
-3.326780e-05
1.112110e-10
1.472460e-05
1.794320e-10
-3.148960e-05
1.013960e-10
1.383200e-05
-1.472440e-05
1.112110e-10
-2.531410e-05
-6.302210e-11
-1.383170e-05
1.013960e-10
-2.560430e-05
-7.866270e-11
1.112110e-10
1.472460e-05
-6.302210e-11
2.531400e-05
1.013960e-10
1.383200e-05
-7.866270e-11
2.560410e-05
-2.531410e-05
-6.302210e-11
-4.504130e-06
-5.859500e-11
-2.560430e-05
-7.866270e-11
-4.387840e-06
-5.342230e-11
-6.302210e-11
2.531400e-05
-5.859500e-11
4.504010e-06
-7.866270e-11
2.560410e-05
-5.342230e-11
4.387710e-06
-4.504130e-06
-5.859500e-11
2.501260e-06
-1.621730e-11
-4.387840e-06
-5.342230e-11
2.370530e-06
-5.393620e-12
-5.859500e-11
4.504010e-06
-1.621730e-11
-2.501340e-06
-5.342230e-11
4.387710e-06
-5.393620e-12
-2.370580e-06
2.501260e-06
-1.621730e-11
1.498450e-05
2.033560e-11
2.370530e-06
-5.393620e-12
1.528380e-05
1.876870e-11
-1.621730e-11
-2.501340e-06
2.033560e-11
-1.498440e-05
-5.393620e-12
-2.370580e-06
1.876870e-11
-1.528380e-05
</DataArray>
<DataArray type="Float32" Name="V2" format="ascii">
0.000000e+00
0.000000e+00
1.088230e-03
1.088380e-03
0.000000e+00
0.000000e+00
1.088370e-03
1.088520e-03
0.000000e+00
0.000000e+00
1.088380e-03
1.088230e-03
0.000000e+00
0.000000e+00
1.088520e-03
1.088370e-03
1.088230e-03
1.088380e-03
-4.988620e-03
-4.989020e-03
1.088370e-03
1.088520e-03
-4.989020e-03
-4.989420e-03
1.088380e-03
1.088230e-03
-4.989020e-03
-4.988620e-03
1.088520e-03
1.088370e-03
-4.989420e-03
-4.989020e-03
-4.988620e-03
-4.989020e-03
-4.565980e-04
-4.559860e-04
-4.989020e-03
-4.989420e-03
-4.559940e-04
-4.553660e-04
-4.989020e-03
-4.988620e-03
-4.559860e-04
-4.565980e-04
-4.989420e-03
-4.989020e-03
-4.553660e-04
-4.559910e-04
-4.565980e-04
-4.559860e-04
1.753580e-02
1.753580e-02
-4.559940e-04
-4.553660e-04
1.753580e-02
1.753580e-02
-4.559860e-04
-4.565980e-04
1.753580e-02
1.753580e-02
-4.553660e-04
-4.559910e-04
1.753580e-02
1.753580e-02
1.753580e-02
1.753580e-02
5.016130e-03
5.014330e-03
1.753580e-02
1.753580e-02
5.014330e-03
5.012650e-03
1.753580e-02
1.753580e-02
5.014330e-03
5.016130e-03
1.753580e-02
1.753580e-02
5.012650e-03
5.014330e-03
5.016130e-03
5.014330e-03
-3.874120e-02
-3.873790e-02
5.014330e-03
5.012650e-03
-3.873790e-02
-3.873470e-02
5.014330e-03
5.016130e-03
-3.873790e-02
-3.874120e-02
5.012650e-03
5.014330e-03
-3.873470e-02
-3.873790e-02
-3.874120e-02
-3.873790e-02
-5.906700e-02
-5.906740e-02
-3.873790e-02
-3.873470e-02
-5.906740e-02
-5.906760e-02
-3.873790e-02
-3.874120e-02
-5.906740e-02
-5.906700e-02
-3.873470e-02
-3.873790e-02
-5.906760e-02
-5.906740e-02
-5.906700e-02
-5.906740e-02
-4.989750e-02
-4.990610e-02
-5.906740e-02
-5.906760e-02
-4.990610e-02
-4.991480e-02
-5.906740e-02
-5.906700e-02
-4.990610e-02
-4.989750e-02
-5.906760e-02
-5.906740e-02
-4.991480e-02
-4.990610e-02
-4.989750e-02
-4.990610e-02
-3.021450e-02
-3.020180e-02
-4.990610e-02
-4.991480e-02
-3.020190e-02
-3.018950e-02
-4.990610e-02
-4.989750e-02
-3.020180e-02
-3.021450e-02
-4.991480e-02
-4.990610e-02
-3.018950e-02
-3.020190e-02
-3.021450e-02
-3.020180e-02
-1.358850e-02
-1.358300e-02
-3.020190e-02
-3.018950e-02
-1.358300e-02
-1.357690e-02
-3.020180e-02
-3.021450e-02
-1.358300e-02
-1.358850e-02
-3.018950e-02
-3.020190e-02
-1.357690e-02
-1.358300e-02
-1.358850e-02
-1.358300e-02
-6.655810e-03
-6.687320e-03
-1.358300e-02
-1.357690e-02
-6.687320e-03
-6.719300e-03
-1.358300e-02
-1.358850e-02
-6.687320e-03
-6.655810e-03
-1.357690e-02
-1.358300e-02
-6.719300e-03
-6.687320e-03
-6.655810e-03
-6.687320e-03
-2.909390e-03
-2.885750e-03
-6.687320e-03
-6.719300e-03
-2.885750e-03
-2.862260e-03
-6.687320e-03
-6.655810e-03
-2.885750e-03
-2.909390e-03
-6.719300e-03
-6.687320e-03
-2.862260e-03
-2.885750e-03
-2.909390e-03
-2.885750e-03
-2.414430e-03
-2.407730e-03
-2.885750e-03
-2.862260e-03
-2.407730e-03
-2.400870e-03
-2.885750e-03
-2.909390e-03
-2.407730e-03
-2.414430e-03
-2.862260e-03
-2.885750e-03
-2.400870e-03
-2.407730e-03
-2.414430e-03
-2.407730e-03
-1.019170e-03
-1.057020e-03
-2.407730e-03
-2.400870e-03
-1.057020e-03
-1.094010e-03
-2.407730e-03
-2.414430e-03
-1.057020e-03
-1.019170e-03
-2.400870e-03
-2.407730e-03
-1.094010e-03
-1.057020e-03
-1.019170e-03
-1.057020e-03
-9.049480e-04
-8.719460e-04
-1.057020e-03
-1.094010e-03
-8.719470e-04
-8.398260e-04
-1.057020e-03
-1.019170e-03
-8.719460e-04
-9.049480e-04
-1.094010e-03
-1.057020e-03
-8.398260e-04
-8.719480e-04
-9.049480e-04
-8.719460e-04
-5.851190e-04
-5.633390e-04
-8.719470e-04
-8.398260e-04
-5.633380e-04
-5.407330e-04
-8.719460e-04
-9.049480e-04
-5.633390e-04
-5.851210e-04
-8.398260e-04
-8.719480e-04
-5.407330e-04
-5.633380e-04
-5.851190e-04
-5.633390e-04
-5.184760e-04
-5.434730e-04
-5.633380e-04
-5.407330e-04
-5.434720e-04
-5.648280e-04
-5.633390e-04
-5.851210e-04
-5.434730e-04
-5.184760e-04
-5.407330e-04
-5.633380e-04
-5.648280e-04
-5.434730e-04
-5.184760e-04
-5.434730e-04
-4.574740e-04
-4.673450e-04
-5.434720e-04
-5.648280e-04
-4.673450e-04
-4.790890e-04
-5.434730e-04
-5.184760e-04
-4.673450e-04
-4.574740e-04
-5.648280e-04
-5.434730e-04
-4.790890e-04
-4.673450e-04
-4.574740e-04
-4.673450e-04
-3.148910e-04
-2.837180e-04
-4.673450e-04
-4.790890e-04
-2.837180e-04
-2.453080e-04
-4.673450e-04
-4.574740e-04
-2.837180e-04
-3.148910e-04
-4.790890e-04
-4.673450e-04
-2.453080e-04
-2.837180e-04
-3.148910e-04
-2.837180e-04
-8.003940e-05
-7.477560e-05
-2.837180e-04
-2.453080e-04
-7.477550e-05
-6.156020e-05
-2.837180e-04
-3.148910e-04
-7.477560e-05
-8.004030e-05
-2.453080e-04
-2.837180e-04
-6.156020e-05
-7.477580e-05
-8.003940e-05
-7.477560e-05
-9.611990e-05
-5.450910e-05
-7.477550e-05
-6.156020e-05
-5.450890e-05
-3.885680e-05
-7.477560e-05
-8.004030e-05
-5.450910e-05
-9.612120e-05
-6.156020e-05
-7.477580e-05
-3.885680e-05
-5.450960e-05
-9.611990e-05
-5.450910e-05
-2.405290e-04
-1.939710e-04
-5.450890e-05
-3.885680e-05
-1.939710e-04
-1.815750e-04
-5.450910e-05
-9.612120e-05
-1.939710e-04
-2.405290e-04
-3.885680e-05
-5.450960e-05
-1.815750e-04
-1.939710e-04
-2.405290e-04
-1.939710e-04
-7.029520e-05
-6.338280e-05
-1.939710e-04
-1.815750e-04
-6.338280e-05
-2.446050e-05
-1.939710e-04
-2.405290e-04
-6.338280e-05
-7.029440e-05
-1.815750e-04
-1.939710e-04
-2.446050e-05
-6.338260e-05
-7.029520e-05
-6.338280e-05
-1.510480e-04
-2.607120e-04
-6.338280e-05
-2.446050e-05
-2.607120e-04
-3.947120e-04
-6.338280e-05
-7.029440e-05
-2.607120e-04
-1.510490e-04
-2.446050e-05
-6.338260e-05
-3.947120e-04
-2.607130e-04
-1.510480e-04
-2.607120e-04
-3.981940e-04
-3.859470e-04
-2.607120e-04
-3.947120e-04
-3.859470e-04
-3.734270e-04
-2.607120e-04
-1.510490e-04
-3.859470e-04
-3.981930e-04
-3.947120e-04
-2.607130e-04
-3.734270e-04
-3.859470e-04
-3.981940e-04
-3.859470e-04
-7.449590e-04
-6.093980e-04
-3.859470e-04
-3.734270e-04
-6.093990e-04
-4.530370e-04
-3.859470e-04
-3.981930e-04
-6.093980e-04
-7.449580e-04
-3.734270e-04
-3.859470e-04
-4.530370e-04
-6.093970e-04
-7.449590e-04
-6.093980e-04
-5.744510e-04
-4.891300e-04
-6.093990e-04
-4.530370e-04
-4.891300e-04
-4.285350e-04
-6.093980e-04
-7.449580e-04
-4.891300e-04
-5.744500e-04
-4.530370e-04
-6.093970e-04
-4.285350e-04
-4.891300e-04
-5.744510e-04
-4.891300e-04
4.334410e-04
3.705870e-04
-4.891300e-04
-4.285350e-04
3.705870e-04
3.046740e-04
-4.891300e-04
-5.744500e-04
3.705870e-04
4.334390e-04
-4.285350e-04
-4.891300e-04
3.046740e-04
3.705860e-04
4.334410e-04
3.705870e-04
-4.861130e-04
-5.651110e-04
3.705870e-04
3.046740e-04
-5.651120e-04
-6.362310e-04
3.705870e-04
4.334390e-04
-5.651110e-04
-4.861130e-04
3.046740e-04
3.705860e-04
-6.362310e-04
-5.651110e-04
-4.861130e-04
-5.651110e-04
-1.310180e-03
-1.338880e-03
-5.651120e-04
-6.362310e-04
-1.338880e-03
-1.382540e-03
-5.651110e-04
-4.861130e-04
-1.338880e-03
-1.310180e-03
-6.362310e-04
-5.651110e-04
-1.382540e-03
-1.338880e-03
0.000000e+00
0.000000e+00
1.088370e-03
1.088520e-03
0.000000e+00
0.000000e+00
1.088230e-03
1.088370e-03
0.000000e+00
0.000000e+00
1.088520e-03
1.088370e-03
0.000000e+00
0.000000e+00
1.088370e-03
1.088230e-03
1.088370e-03
1.088520e-03
-4.989020e-03
-4.989420e-03
1.088230e-03
1.088370e-03
-4.988620e-03
-4.989020e-03
1.088520e-03