<?xml version="1.0"?>
<VTKFile type="UnstructuredGrid" version="0.1" byte_order="LittleEndian" compressor="vtkZLibDataCompressor">
<UnstructuredGrid>
<Piece NumberOfPoints="960" NumberOfCells="120">
<Points>
<DataArray type="Float32" NumberOfComponents="3" format="ascii">
-4.000000e+02 -6.000000e+03 -4.000000e+02
0.000000e+00 -6.000000e+03 -4.000000e+02
-4.000000e+02 -5.600000e+03 -4.000000e+02
-1.792030e-10 -5.600000e+03 -4.000000e+02
-4.000000e+02 -6.000000e+03 0.000000e+00
0.000000e+00 -6.000000e+03 0.000000e+00
-4.000000e+02 -5.600000e+03 -1.765850e-09
2.499450e-10 -5.600000e+03 -1.422620e-09
0.000000e+00 -6.000000e+03 -4.000000e+02
4.000000e+02 -6.000000e+03 -4.000000e+02
-1.792030e-10 -5.600000e+03 -4.000000e+02
4.000000e+02 -5.600000e+03 -4.000000e+02
0.000000e+00 -6.000000e+03 0.000000e+00
4.000000e+02 -6.000000e+03 0.000000e+00
2.499450e-10 -5.600000e+03 -1.422620e-09
4.000000e+02 -5.600000e+03 -5.934760e-10
-4.000000e+02 -5.600000e+03 -4.000000e+02
-1.792030e-10 -5.600000e+03 -4.000000e+02
-4.000000e+02 -5.200000e+03 -4.000000e+02
-6.477460e-10 -5.200000e+03 -4.000000e+02
-4.000000e+02 -5.600000e+03 -1.765850e-09
2.499450e-10 -5.600000e+03 -1.422620e-09
-4.000000e+02 -5.200000e+03 -1.427300e-09
-4.539030e-10 -5.200000e+03 -1.209560e-09
-1.792030e-10 -5.600000e+03 -4.000000e+02
4.000000e+02 -5.600000e+03 -4.000000e+02
-6.477460e-10 -5.200000e+03 -4.000000e+02
4.000000e+02 -5.200000e+03 -4.000000e+02
2.499450e-10 -5.600000e+03 -1.422620e-09
4.000000e+02 -5.600000e+03 -5.934760e-10
-4.539030e-10 -5.200000e+03 -1.209560e-09
4.000000e+02 -5.200000e+03 -2.950580e-10
-4.000000e+02 -5.200000e+03 -4.000000e+02
-6.477460e-10 -5.200000e+03 -4.000000e+02
-4.000000e+02 -4.800000e+03 -4.000000e+02
2.793600e-10 -4.800000e+03 -4.000000e+02
-4.000000e+02 -5.200000e+03 -1.427300e-09
-4.539030e-10 -5.200000e+03 -1.209560e-09
-4.000000e+02 -4.800000e+03 -1.596880e-09
3.307800e-10 -4.800000e+03 -1.220230e-09
-6.477460e-10 -5.200000e+03 -4.000000e+02
4.000000e+02 -5.200000e+03 -4.000000e+02
2.793600e-10 -4.800000e+03 -4.000000e+02
4.000000e+02 -4.800000e+03 -4.000000e+02
-4.539030e-10 -5.200000e+03 -1.209560e-09
4.000000e+02 -5.200000e+03 -2.950580e-10
3.307800e-10 -4.800000e+03 -1.220230e-09
4.000000e+02 -4.800000e+03 -1.171250e-09
-4.000000e+02 -4.800000e+03 -4.000000e+02
2.793600e-10 -4.800000e+03 -4.000000e+02
-4.000000e+02 -4.400000e+03 -4.000000e+02
3.377480e-09 -4.400000e+03 -4.000000e+02
-4.000000e+02 -4.800000e+03 -1.596880e-09
3.307800e-10 -4.800000e+03 -1.220230e-09
-4.000000e+02 -4.400000e+03 -3.766630e-09
2.981590e-09 -4.400000e+03 -4.047830e-09
2.793600e-10 -4.800000e+03 -4.000000e+02
4.000000e+02 -4.800000e+03 -4.000000e+02
3.377480e-09 -4.400000e+03 -4.000000e+02
4.000000e+02 -4.400000e+03 -4.000000e+02
3.307800e-10 -4.800000e+03 -1.220230e-09
4.000000e+02 -4.800000e+03 -1.171250e-09
2.981590e-09 -4.400000e+03 -4.047830e-09
4.000000e+02 -4.400000e+03 -4.199400e-09
-4.000000e+02 -4.400000e+03 -4.000000e+02
3.377480e-09 -4.400000e+03 -4.000000e+02
-4.000000e+02 -4.000000e+03 -4.000000e+02
-3.258980e-09 -4.000000e+03 -4.000000e+02
-4.000000e+02 -4.400000e+03 -3.766630e-09
2.981590e-09 -4.400000e+03 -4.047830e-09
-4.000000e+02 -4.000000e+03 1.571270e-09
-3.445620e-09 -4.000000e+03 1.963700e-09
3.377480e-09 -4.400000e+03 -4.000000e+02
4.000000e+02 -4.400000e+03 -4.000000e+02
-3.258980e-09 -4.000000e+03 -4.000000e+02
4.000000e+02 -4.000000e+03 -4.000000e+02
2.981590e-09 -4.400000e+03 -4.047830e-09
4.000000e+02 -4.400000e+03 -4.199400e-09
-3.445620e-09 -4.000000e+03 1.963700e-09
4.000000e+02 -4.000000e+03 9.272350e-10
-4.000000e+02 -4.000000e+03 -4.000000e+02
-3.258980e-09 -4.000000e+03 -4.000000e+02
-4.000000e+02 -3.600000e+03 -4.000000e+02
-2.995770e-09 -3.600000e+03 -4.000000e+02
-4.000000e+02 -4.000000e+03 1.571270e-09
-3.445620e-09 -4.000000e+03 1.963700e-09
-4.000000e+02 -3.600000e+03 2.474650e-09
-2.439530e-09 -3.600000e+03 2.944060e-09
-3.258980e-09 -4.000000e+03 -4.000000e+02
4.000000e+02 -4.000000e+03 -4.000000e+02
-2.995770e-09 -3.600000e+03 -4.000000e+02
4.000000e+02 -3.600000e+03 -4.000000e+02
-3.445620e-09 -4.000000e+03 1.963700e-09
4.000000e+02 -4.000000e+03 9.272350e-10
-2.439530e-09 -3.600000e+03 2.944060e-09
4.000000e+02 -3.600000e+03 2.988950e-09
-4.000000e+02 -3.600000e+03 -4.000000e+02
-2.995770e-09 -3.600000e+03 -4.000000e+02
-4.000000e+02 -3.200010e+03 -4.000000e+02
1.327760e-08 -3.200010e+03 -4.000000e+02
-4.000000e+02 -3.600000e+03 2.474650e-09
-2.439530e-09 -3.600000e+03 2.944060e-09
-4.000000e+02 -3.200010e+03 -1.239160e-08
1.222950e-08 -3.200010e+03 -1.415050e-08
-2.995770e-09 -3.600000e+03 -4.000000e+02
4.000000e+02 -3.600000e+03 -4.000000e+02
1.327760e-08 -3.200010e+03 -4.000000e+02
4.000000e+02 -3.200010e+03 -4.000000e+02
-2.439530e-09 -3.600000e+03 2.944060e-09
4.000000e+02 -3.600000e+03 2.988950e-09
1.222950e-08 -3.200010e+03 -1.415050e-08
4.000000e+02 -3.200010e+03 -1.487960e-08
-4.000000e+02 -3.200010e+03 -4.000000e+02
1.327760e-08 -3.200010e+03 -4.000000e+02
-4.000000e+02 -2.800010e+03 -4.000000e+02
-5.502110e-09 -2.800010e+03 -4.000000e+02
-4.000000e+02 -3.200010e+03 -1.239160e-08
1.222950e-08 -3.200010e+03 -1.415050e-08
-4.000000e+02 -2.800010e+03 -7.738580e-10
-3.861850e-09 -2.800010e+03 -6.139950e-10
1.327760e-08 -3.200010e+03 -4.000000e+02
4.000000e+02 -3.200010e+03 -4.000000e+02
-5.502110e-09 -2.800010e+03 -4.000000e+02
4.000000e+02 -2.800010e+03 -4.000000e+02
1.222950e-08 -3.200010e+03 -1.415050e-08
4.000000e+02 -3.200010e+03 -1.487960e-08
-3.861850e-09 -2.800010e+03 -6.139950e-10
4.000000e+02 -2.800010e+03 1.267220e-10
-4.000000e+02 -2.800010e+03 -4.000000e+02
-5.502110e-09 -2.800010e+03 -4.000000e+02
-4.000000e+02 -2.400010e+03 -4.000000e+02
-1.310580e-08 -2.400010e+03 -4.000000e+02
-4.000000e+02 -2.800010e+03 -7.738580e-10
-3.861850e-09 -2.800010e+03 -6.139950e-10
-4.000000e+02 -2.400010e+03 2.375740e-08
-1.176840e-08 -2.400010e+03 2.356020e-08
-5.502110e-09 -2.800010e+03 -4.000000e+02
4.000000e+02 -2.800010e+03 -4.000000e+02
-1.310580e-08 -2.400010e+03 -4.000000e+02
4.000000e+02 -2.400010e+03 -4.000000e+02
-3.861850e-09 -2.800010e+03 -6.139950e-10
4.000000e+02 -2.800010e+03 1.267220e-10
-1.176840e-08 -2.400010e+03 2.356020e-08
4.000000e+02 -2.400010e+03 2.457620e-08
-4.000000e+02 -2.400010e+03 -4.000000e+02
-1.310580e-08 -2.400010e+03 -4.000000e+02
-4.000000e+02 -2.000020e+03 -4.000000e+02
1.106800e-08 -2.000020e+03 -4.000000e+02
-4.000000e+02 -2.400010e+03 2.375740e-08
-1.176840e-08 -2.400010e+03 2.356020e-08
-4.000000e+02 -2.000020e+03 -7.512890e-09
6.259340e-09 -2.000020e+03 -1.207140e-08
-1.310580e-08 -2.400010e+03 -4.000000e+02
4.000000e+02 -2.400010e+03 -4.000000e+02
1.106800e-08 -2.000020e+03 -4.000000e+02
4.000000e+02 -2.000020e+03 -4.000000e+02
-1.176840e-08 -2.400010e+03 2.356020e-08
4.000000e+02 -2.400010e+03 2.457620e-08
6.259340e-09 -2.000020e+03 -1.207140e-08
4.000000e+02 -2.000020e+03 -1.683690e-08
-4.000000e+02 -2.000020e+03 -4.000000e+02
1.106800e-08 -2.000020e+03 -4.000000e+02
-4.000000e+02 -1.600020e+03 -4.000000e+02
-2.156080e-09 -1.600020e+03 -4.000000e+02
-4.000000e+02 -2.000020e+03 -7.512890e-09
6.259340e-09 -2.000020e+03 -1.207140e-08
-4.000000e+02 -1.600020e+03 -2.470720e-08
3.925200e-09 -1.600020e+03 -1.922470e-08
1.106800e-08 -2.000020e+03 -4.000000e+02
4.000000e+02 -2.000020e+03 -4.000000e+02
-2.156080e-09 -1.600020e+03 -4.000000e+02
4.000000e+02 -1.600020e+03 -4.000000e+02
6.259340e-09 -2.000020e+03 -1.207140e-08
4.000000e+02 -2.000020e+03 -1.683690e-08
3.925200e-09 -1.600020e+03 -1.922470e-08
4.000000e+02 -1.600020e+03 -1.420700e-08
-4.000000e+02 -1.600020e+03 -4.000000e+02
-2.156080e-09 -1.600020e+03 -4.000000e+02
-4.000000e+02 -1.200040e+03 -4.000000e+02
3.238350e-08 -1.200040e+03 -4.000000e+02
-4.000000e+02 -1.600020e+03 -2.470720e-08
3.925200e-09 -1.600020e+03 -1.922470e-08
-4.000000e+02 -1.200040e+03 -1.018010e-08
3.615970e-08 -1.200040e+03 -1.027130e-08
-2.156080e-09 -1.600020e+03 -4.000000e+02
4.000000e+02 -1.600020e+03 -4.000000e+02
3.238350e-08 -1.200040e+03 -4.000000e+02
4.000000e+02 -1.200040e+03 -4.000000e+02
3.925200e-09 -1.600020e+03 -1.922470e-08
4.000000e+02 -1.600020e+03 -1.420700e-08
3.615970e-08 -1.200040e+03 -1.027130e-08
4.000000e+02 -1.200040e+03 -9.950160e-09
-4.000000e+02 -1.200040e+03 -4.000000e+02
3.238350e-08 -1.200040e+03 -4.000000e+02
-4.000000e+02 -8.000580e+02 -4.000000e+02
5.948720e-08 -8.000580e+02 -4.000000e+02
-4.000000e+02 -1.200040e+03 -1.018010e-08
3.615970e-08 -1.200040e+03 -1.027130e-08
-4.000000e+02 -8.000580e+02 -2.568130e-08
4.614350e-08 -8.000580e+02 -3.873640e-08
3.238350e-08 -1.200040e+03 -4.000000e+02
4.000000e+02 -1.200040e+03 -4.000000e+02
5.948720e-08 -8.000580e+02 -4.000000e+02
4.000000e+02 -8.000580e+02 -4.000000e+02
3.615970e-08 -1.200040e+03 -1.027130e-08
4.000000e+02 -1.200040e+03 -9.950160e-09
4.614350e-08 -8.000580e+02 -3.873640e-08
4.000000e+02 -8.000580e+02 -4.859800e-08
-4.000000e+02 -8.000580e+02 -4.000000e+02
5.948720e-08 -8.000580e+02 -4.000000e+02
-4.000000e+02 -4.000970e+02 -4.000000e+02
-1.149660e-07 -4.000970e+02 -4.000000e+02
-4.000000e+02 -8.000580e+02 -2.568130e-08
4.614350e-08 -8.000580e+02 -3.873640e-08
-4.000000e+02 -4.000970e+02 8.914090e-08
-1.073240e-07 -4.000970e+02 9.559740e-08
5.948720e-08 -8.000580e+02 -4.000000e+02
4.000000e+02 -8.000580e+02 -4.000000e+02
-1.149660e-07 -4.000970e+02 -4.000000e+02
4.000000e+02 -4.000970e+02 -4.000000e+02
4.614350e-08 -8.000580e+02 -3.873640e-08
4.000000e+02 -8.000580e+02 -4.859800e-08
-1.073240e-07 -4.000970e+02 9.559740e-08
4.000000e+02 -4.000970e+02 9.895550e-08
-4.000000e+02 -4.000970e+02 -4.000000e+02
-1.149660e-07 -4.000970e+02 -4.000000e+02
-4.000000e+02 -1.501040e-01 -4.000000e+02
-2.337350e-07 -1.501000e-01 -4.000000e+02
-4.000000e+02 -4.000970e+02 8.914090e-08
-1.073240e-07 -4.000970e+02 9.559740e-08
-4.000000e+02 -1.500990e-01 1.851230e-07
-2.317930e-07 -1.500950e-01 1.826160e-07
-1.149660e-07 -4.000970e+02 -4.000000e+02
4.000000e+02 -4.000970e+02 -4.000000e+02
-2.337350e-07 -1.501000e-01 -4.000000e+02
[...]
<PointData>
<DataArray type="Float32" Name="V1" format="ascii">
0.000000e+00
0.000000e+00
-4.805250e-05
6.738920e-10
0.000000e+00
0.000000e+00
-4.946650e-05
1.260370e-10
0.000000e+00
0.000000e+00
6.738920e-10
4.805380e-05
0.000000e+00
0.000000e+00
1.260370e-10
4.946630e-05
-4.805250e-05
6.738920e-10
1.231060e-05
-5.969540e-10
-4.946650e-05
1.260370e-10
1.304500e-05
-1.347340e-09
6.738920e-10
4.805380e-05
-5.969540e-10
-1.231180e-05
1.260370e-10
4.946630e-05
-1.347340e-09
-1.304780e-05
1.231060e-05
-5.969540e-10
1.700080e-05
9.574710e-10
1.304500e-05
-1.347340e-09
1.767120e-05
1.374620e-09
-5.969540e-10
-1.231180e-05
9.574710e-10
-1.699850e-05
-1.347340e-09
-1.304780e-05
1.374620e-09
-1.766900e-05
1.700080e-05
9.574710e-10
-9.659960e-06
-7.456960e-10
1.767120e-05
1.374620e-09
-1.101910e-05
1.072270e-09
9.574710e-10
-1.699850e-05
-7.456960e-10
9.658750e-06
1.374620e-09
-1.766900e-05
1.072270e-09
1.102010e-05
-9.659960e-06
-7.456960e-10
-3.902190e-06
-5.143440e-09
-1.101910e-05
1.072270e-09
-4.265760e-06
-3.708490e-09
-7.456960e-10
9.658750e-06
-5.143440e-09
3.891940e-06
1.072270e-09
1.102010e-05
-3.708490e-09
4.258270e-06
-3.902190e-06
-5.143440e-09
-5.873400e-06
7.229060e-09
-4.265760e-06
-3.708490e-09
-4.688000e-06
6.658500e-09
-5.143440e-09
3.891940e-06
7.229060e-09
5.887760e-06
-3.708490e-09
4.258270e-06
6.658500e-09
4.701620e-06
-5.873400e-06
7.229060e-09
1.324460e-06
2.228750e-09
-4.688000e-06
6.658500e-09
2.517040e-06
7.814620e-10
7.229060e-09
5.887760e-06
2.228750e-09
-1.320000e-06
6.658500e-09
4.701620e-06
7.814620e-10
-2.515400e-06
1.324460e-06
2.228750e-09
1.859290e-05
-1.345540e-08
2.517040e-06
7.814620e-10
1.551880e-05
-1.100290e-08
2.228750e-09
-1.320000e-06
-1.345540e-08
-1.861860e-05
7.814620e-10
-2.515400e-06
-1.100290e-08
-1.553980e-05
1.859290e-05
-1.345540e-08
-4.985400e-06
9.181010e-09
1.551880e-05
-1.100290e-08
-4.573640e-06
5.874230e-09
-1.345540e-08
-1.861860e-05
9.181010e-09
5.001790e-06
-1.100290e-08
-1.553980e-05
5.874230e-09
4.584590e-06
-4.985400e-06
9.181010e-09
-2.491150e-05
-3.856900e-09
-4.573640e-06
5.874230e-09
-2.388870e-05
-4.366770e-09
9.181010e-09
5.001790e-06
-3.856900e-09
2.490540e-05
5.874230e-09
4.584590e-06
-4.366770e-09
2.388130e-05
-2.491150e-05
-3.856900e-09
1.109290e-05
1.235870e-08
-2.388870e-05
-4.366770e-09
1.133600e-05
2.062770e-08
-3.856900e-09
2.490540e-05
1.235870e-08
-1.107020e-05
-4.366770e-09
2.388130e-05
2.062770e-08
-1.129440e-05
1.109290e-05
1.235870e-08
1.860430e-05
2.684810e-08
1.133600e-05
2.062770e-08
1.781420e-05
1.057940e-08
1.235870e-08
-1.107020e-05
2.684810e-08
-1.855210e-05
2.062770e-08
-1.129440e-05
1.057940e-08
-1.779500e-05
1.860430e-05
2.684810e-08
-5.291220e-06
-2.588000e-08
1.781420e-05
1.057940e-08
-3.883480e-06
-2.672850e-08
2.684810e-08
-1.855210e-05
-2.588000e-08
5.241650e-06
1.057940e-08
-1.779500e-05
-2.672850e-08
3.834140e-06
-5.291220e-06
-2.588000e-08
-6.500370e-07
-1.078340e-07
-3.883480e-06
-2.672850e-08
-4.827130e-07
-9.158090e-08
-2.588000e-08
5.241650e-06
-1.078340e-07
4.346520e-07
-2.672850e-08
3.834140e-06
-9.158090e-08
2.995040e-07
-6.500370e-07
-1.078340e-07
-1.416720e-05
6.391460e-08
-4.827130e-07
-9.158090e-08
-1.485260e-05
5.217940e-08
-1.078340e-07
4.346520e-07
6.391460e-08
1.429550e-05
-9.158090e-08
2.995040e-07
5.217940e-08
1.495470e-05
-1.416720e-05
6.391460e-08
-9.439320e-08
1.878250e-07
-1.485260e-05
5.217940e-08
7.649650e-07
2.125200e-07
6.391460e-08
1.429550e-05
1.878250e-07
4.565380e-07
5.217940e-08
1.495470e-05
2.125200e-07
-3.467160e-07
-9.439320e-08
1.878250e-07
1.063570e-05
-1.618330e-07
7.649650e-07
2.125200e-07
9.273020e-06
-1.085490e-07
1.878250e-07
4.565380e-07
-1.618330e-07
-1.092910e-05
2.125200e-07
-3.467160e-07
-1.085490e-07
-9.469600e-06
1.063570e-05
-1.618330e-07
2.979660e-05
2.900480e-07
9.273020e-06
-1.085490e-07
3.001560e-05
1.024510e-07
-1.618330e-07
-1.092910e-05
2.900480e-07
-2.925200e-05
-1.085490e-07
-9.469600e-06
1.024510e-07
-2.983500e-05
2.979660e-05
2.900480e-07
4.028840e-05
3.789250e-09
3.001560e-05
1.024510e-07
4.263510e-05
-1.838590e-08
2.900480e-07
-2.925200e-05
3.789250e-09
-4.021790e-05
1.024510e-07
-2.983500e-05
-1.838590e-08
-4.263590e-05
4.028840e-05
3.789250e-09
1.910330e-05
4.392040e-07
4.263510e-05
-1.838590e-08
1.658090e-05
4.446900e-07
3.789250e-09
-4.021790e-05
4.392040e-07
-1.828480e-05
-1.838590e-08
-4.263590e-05
4.446900e-07
-1.572770e-05
1.910330e-05
4.392040e-07
-2.998780e-05
-3.035590e-07
1.658090e-05
4.446900e-07
-3.236800e-05
-3.051460e-07
4.392040e-07
-1.828480e-05
-3.035590e-07
2.936080e-05
4.446900e-07
-1.572770e-05
-3.051460e-07
3.174650e-05
-2.998780e-05
-3.035590e-07
-1.842070e-05
-7.710220e-07
-3.236800e-05
-3.051460e-07
-1.467880e-05
-7.517590e-07
-3.035590e-07
2.936080e-05
-7.710220e-07
1.689190e-05
-3.051460e-07
3.174650e-05
-7.517590e-07
1.318790e-05
-1.842070e-05
-7.710220e-07
1.834610e-05
2.487760e-07
-1.467880e-05
-7.517590e-07
1.908920e-05
2.771040e-07
-7.710220e-07
1.689190e-05
2.487760e-07
-1.783960e-05
-7.517590e-07
1.318790e-05
2.771040e-07
-1.852840e-05
1.834610e-05
2.487760e-07
-3.423480e-07
-8.282490e-09
1.908920e-05
2.771040e-07
-1.998160e-06
3.034920e-08
2.487760e-07
-1.783960e-05
-8.282490e-09
3.267000e-07
2.771040e-07
-1.852840e-05
3.034920e-08
2.061870e-06
-3.423480e-07
-8.282490e-09
-4.111780e-06
6.460480e-08
-1.998160e-06
3.034920e-08
-4.882730e-06
3.724150e-08
-8.282490e-09
3.267000e-07
6.460480e-08
4.241240e-06
3.034920e-08
2.061870e-06
3.724150e-08
4.958610e-06
-4.111780e-06
6.460480e-08
3.059030e-06
2.409680e-07
-4.882730e-06
3.724150e-08
4.280940e-06
2.296800e-07
6.460480e-08
4.241240e-06
2.409680e-07
-2.575970e-06
3.724150e-08
4.958610e-06
2.296800e-07
-3.820320e-06
3.059030e-06
2.409680e-07
6.167850e-06
-1.346860e-08
4.280940e-06
2.296800e-07
6.396410e-06
-1.470740e-08
2.409680e-07
-2.575970e-06
-1.346860e-08
-6.194290e-06
2.296800e-07
-3.820320e-06
-1.470740e-08
-6.425310e-06
6.167850e-06
-1.346860e-08
5.779860e-06
-9.560420e-08
6.396410e-06
-1.470740e-08
4.469820e-06
-9.542110e-08
-1.346860e-08
-6.194290e-06
-9.560420e-08
-5.971110e-06
-1.470740e-08
-6.425310e-06
-9.542110e-08
-4.660700e-06
5.779860e-06
-9.560420e-08
6.207230e-06
-2.860360e-08
4.469820e-06
-9.542110e-08
3.008270e-06
-2.666700e-08
-9.560420e-08
-5.971110e-06
-2.860360e-08
-6.264340e-06
-9.542110e-08
-4.660700e-06
-2.666700e-08
-3.061590e-06
6.207230e-06
-2.860360e-08
-3.329870e-05
4.472940e-08
3.008270e-06
-2.666700e-08
-2.430580e-05
4.404890e-08
-2.860360e-08
-6.264340e-06
4.472940e-08
3.338830e-05
-2.666700e-08
-3.061590e-06
4.404890e-08
2.439410e-05
0.000000e+00
0.000000e+00
-4.946650e-05
1.260370e-10
0.000000e+00
0.000000e+00
-4.805050e-05
5.612170e-10
0.000000e+00
0.000000e+00
1.260370e-10
4.946630e-05
0.000000e+00
0.000000e+00
5.612170e-10
4.805170e-05
-4.946650e-05
1.260370e-10
1.304500e-05
-1.347340e-09
-4.805050e-05
5.612170e-10
1.231000e-05
-8.490830e-10
1.260370e-10
4.946630e-05
-1.347340e-09
-1.304780e-05
5.612170e-10
4.805170e-05
-8.490830e-10
-1.231180e-05
1.304500e-05
-1.347340e-09
1.767120e-05
1.374620e-09
1.231000e-05
-8.490830e-10
1.700260e-05
2.031640e-09
-1.347340e-09
-1.304780e-05
1.374620e-09
-1.766900e-05
-8.490830e-10
-1.231180e-05
2.031640e-09
-1.699950e-05
1.767120e-05
1.374620e-09
-1.101910e-05
1.072270e-09
1.700260e-05
2.031640e-09
-9.658820e-06
-3.932820e-10
1.374620e-09
-1.766900e-05
1.072270e-09
1.102010e-05
2.031640e-09
-1.699950e-05
-3.932820e-10
9.658100e-06
-1.101910e-05
1.072270e-09
-4.265760e-06
-3.708490e-09
-9.658820e-06
-3.932820e-10
-3.902640e-06
-3.623940e-09
1.072270e-09
1.102010e-05
-3.708490e-09
4.258270e-06
-3.932820e-10
9.658100e-06
-3.623940e-09
3.894730e-06
-4.265760e-06
-3.708490e-09
-4.688000e-06
6.658500e-09
-3.902640e-06
-3.623940e-09
-5.876560e-06
5.059550e-09
-3.708490e-09
4.258270e-06
6.658500e-09
4.701620e-06
-3.623940e-09
3.894730e-06
5.059550e-09
5.886300e-06
-4.688000e-06
6.658500e-09
2.517040e-06
7.814620e-10
-5.876560e-06
5.059550e-09
1.326970e-06
1.090800e-09
6.658500e-09
4.701620e-06
7.814620e-10
-2.515400e-06
5.059550e-09
5.886300e-06
1.090800e-09
-1.325070e-06
2.517040e-06
7.814620e-10
1.551880e-05
-1.100290e-08
1.326970e-06
1.090800e-09
1.859330e-05
-8.933820e-09
7.814620e-10
-2.515400e-06
-1.100290e-08
-1.553980e-05
1.090800e-09
-1.325070e-06
-8.933820e-09
-1.861020e-05
1.551880e-05
-1.100290e-08
-4.573640e-06
5.874230e-09
1.859330e-05
-8.933820e-09
-4.991580e-06
6.044890e-10
-1.100290e-08
-1.553980e-05
5.874230e-09
4.584590e-06
-8.933820e-09
-1.861020e-05
6.044890e-10
4.990990e-06
-4.573640e-06
5.874230e-09
-2.388870e-05
-4.366770e-09
-4.991580e-06
6.044890e-10
-2.490050e-05
2.098320e-09
5.874230e-09
4.584590e-06
-4.366770e-09
2.388130e-05
6.044890e-10
4.990990e-06
2.098320e-09
2.490620e-05
-2.388870e-05
-4.366770e-09
1.133600e-05
2.062770e-08
-2.490050e-05
2.098320e-09
1.110090e-05
2.618470e-08
-4.366770e-09
2.388130e-05
2.062770e-08
-1.129440e-05
2.098320e-09
2.490620e-05
2.618470e-08
-1.105010e-05
1.133600e-05
2.062770e-08
1.781420e-05
1.057940e-08
1.110090e-05
2.618470e-08
1.857570e-05
-3.083990e-09
2.062770e-08
-1.129440e-05
1.057940e-08
-1.779500e-05
2.618470e-08
-1.105010e-05
-3.083990e-09
-1.858470e-05
1.781420e-05
1.057940e-08
-3.883480e-06
-2.672850e-08
1.857570e-05
-3.083990e-09
-5.285520e-06
-1.926200e-08
1.057940e-08
-1.779500e-05
-2.672850e-08
3.834140e-06
-3.083990e-09
-1.858470e-05
-1.926200e-08
5.249520e-06
-3.883480e-06
-2.672850e-08
-4.827130e-07
-9.158090e-08
-5.285520e-06
-1.926200e-08
-6.105240e-07
-8.772310e-08
-2.672850e-08
3.834140e-06
-9.158090e-08
2.995040e-07
-1.926200e-08
5.249520e-06
-8.772310e-08
4.342750e-07
-4.827130e-07
-9.158090e-08
-1.485260e-05
5.217940e-08
-6.105240e-07
-8.772310e-08
-1.423140e-05
5.242900e-08
-9.158090e-08
2.995040e-07
5.217940e-08
1.495470e-05
-8.772310e-08
4.342750e-07
5.242900e-08
1.433330e-05
-1.485260e-05
5.217940e-08
7.649650e-07
2.125200e-07
-1.423140e-05
5.242900e-08
4.386580e-08
2.486000e-07
5.217940e-08
1.495470e-05
2.125200e-07
-3.467160e-07
5.242900e-08
1.433330e-05
2.486000e-07
4.502690e-07
7.649650e-07
2.125200e-07
9.273020e-06
-1.085490e-07
4.386580e-08
2.486000e-07
1.052490e-05
-1.833690e-07
2.125200e-07
-3.467160e-07
-1.085490e-07
-9.469600e-06
2.486000e-07
4.502690e-07
-1.833690e-07
-1.087620e-05
9.273020e-06
-1.085490e-07
3.001560e-05
1.024510e-07
1.052490e-05
-1.833690e-07
2.956140e-05
1.256880e-07
-1.085490e-07
-9.469600e-06
1.024510e-07
-2.983500e-05
-1.833690e-07
-1.087620e-05
1.256880e-07
-2.932020e-05
3.001560e-05
1.024510e-07
4.263510e-05
-1.838590e-08
2.956140e-05
1.256880e-07
4.109660e-05
2.214020e-07
1.024510e-07
-2.983500e-05
-1.838590e-08
-4.263590e-05
1.256880e-07
-2.932020e-05
2.214020e-07
-4.064750e-05
4.263510e-05
-1.838590e-08
1.658090e-05
4.446900e-07
4.109660e-05
2.214020e-07
1.899900e-05
4.426660e-07
-1.838590e-08
-4.263590e-05
4.446900e-07
-1.572770e-05
2.214020e-07
-4.064750e-05
4.426660e-07
-1.818470e-05
1.658090e-05
4.446900e-07
-3.236800e-05
-3.051460e-07
1.899900e-05
4.426660e-07
-3.027960e-05
-3.971690e-07
4.446900e-07
-1.572770e-05
-3.051460e-07
3.174650e-05
4.426660e-07
-1.818470e-05
-3.971690e-07
2.946250e-05
-3.236800e-05
-3.051460e-07
-1.467880e-05
-7.517590e-07
-3.027960e-05
-3.971690e-07
-1.843850e-05
-7.866430e-07
-3.051460e-07
3.174650e-05
-7.517590e-07
1.318790e-05
-3.971690e-07
2.946250e-05
-7.866430e-07
1.687610e-05
-1.467880e-05
-7.517590e-07
1.908920e-05
2.771040e-07
-1.843850e-05
-7.866430e-07
1.835610e-05
3.034580e-07
-7.517590e-07
1.318790e-05
2.771040e-07
-1.852840e-05
-7.866430e-07
1.687610e-05
3.034580e-07
-1.774680e-05
1.908920e-05
2.771040e-07
-1.998160e-06
3.034920e-08
1.835610e-05
3.034580e-07
-2.285670e-07
8.269660e-08
2.771040e-07
-1.852840e-05
3.034920e-08
2.061870e-06
3.034580e-07
-1.774680e-05
8.269660e-08
3.949020e-07
-1.998160e-06
3.034920e-08
-4.882730e-06
3.724150e-08
-2.285670e-07
8.269660e-08
-4.197980e-06
1.156620e-09
3.034920e-08
2.061870e-06
3.724150e-08
4.958610e-06
8.269660e-08
3.949020e-07
1.156620e-09
4.200610e-06
-4.882730e-06
3.724150e-08
4.280940e-06
2.296800e-07
-4.197980e-06
1.156620e-09
3.048500e-06
2.238660e-07
3.724150e-08
4.958610e-06
2.296800e-07
-3.820320e-06
1.156620e-09
4.200610e-06
2.238660e-07
-2.599790e-06
4.280940e-06
2.296800e-07
6.396410e-06
-1.470740e-08
3.048500e-06
2.238660e-07
6.192170e-06
-1.119920e-08
2.296800e-07
-3.820320e-06
-1.470740e-08
-6.425310e-06
2.238660e-07
-2.599790e-06
-1.119920e-08
-6.214130e-06
6.396410e-06
-1.470740e-08
4.469820e-06
-9.542110e-08
6.192170e-06
-1.119920e-08
5.783780e-06
-9.297740e-08
-1.470740e-08
-6.425310e-06
-9.542110e-08
-4.660700e-06
-1.119920e-08
-6.214130e-06
-9.297740e-08
-5.969810e-06
4.469820e-06
-9.542110e-08
3.008270e-06
-2.666700e-08
5.783780e-06
-9.297740e-08
6.208810e-06
-2.311130e-08
-9.542110e-08
-4.660700e-06
-2.666700e-08
-3.061590e-06
-9.297740e-08
-5.969810e-06
-2.311130e-08
-6.254960e-06
3.008270e-06
-2.666700e-08
-2.430580e-05
4.404890e-08
6.208810e-06
-2.311130e-08
-3.330340e-05
4.272530e-08
-2.666700e-08
-3.061590e-06
4.404890e-08
2.439410e-05
-2.311130e-08
-6.254960e-06
4.272530e-08
3.338900e-05
</DataArray>
<DataArray type="Float32" Name="V2" format="ascii">
0.000000e+00
0.000000e+00
2.661560e-05
1.110920e-05
0.000000e+00
0.000000e+00
1.110740e-05
1.129700e-06
0.000000e+00
0.000000e+00
1.110920e-05
2.662040e-05
0.000000e+00
0.000000e+00
1.129700e-06
1.110900e-05
2.661560e-05
1.110920e-05
3.370590e-05
6.103890e-06
1.110740e-05
1.129700e-06
6.106520e-06
-2.403330e-05
1.110920e-05
2.662040e-05
6.103890e-06
3.370370e-05
1.129700e-06
1.110900e-05
-2.403330e-05
6.100870e-06
3.370590e-05
6.103890e-06
7.768620e-05
9.211410e-05
6.106520e-06
-2.403330e-05
9.211400e-05
1.058320e-04
6.103890e-06
3.370370e-05
9.211410e-05
7.768680e-05
-2.403330e-05
6.100870e-06
1.058320e-04
9.211370e-05
7.768620e-05
9.211410e-05
3.472110e-05
4.908070e-05
9.211400e-05
1.058320e-04
4.906790e-05
6.445710e-05
9.211410e-05
7.768680e-05
4.908070e-05
3.473560e-05
1.058320e-04
9.211370e-05
6.445710e-05
4.907920e-05
3.472110e-05
4.908070e-05
2.674520e-04
2.247890e-04
4.906790e-05
6.445710e-05
2.247890e-04
1.825560e-04
4.908070e-05
3.473560e-05
2.247890e-04
2.674550e-04
6.445710e-05
4.907920e-05
1.825560e-04
2.247850e-04
2.674520e-04
2.247890e-04
2.907420e-05
5.136020e-05
2.247890e-04
1.825560e-04
5.139980e-05
7.434550e-05
2.247890e-04
2.674550e-04
5.136020e-05
2.903520e-05
1.825560e-04
2.247850e-04
7.434550e-05
5.136250e-05
2.907420e-05
5.136020e-05
6.301830e-04
6.311390e-04
5.139980e-05
7.434550e-05
6.311060e-04
6.318010e-04
5.136020e-05
2.903520e-05
6.311390e-04
6.302270e-04
7.434550e-05
5.136250e-05
6.318010e-04
6.311400e-04
6.301830e-04
6.311390e-04
6.935630e-04
6.766100e-04
6.311060e-04
6.318010e-04
6.765730e-04
6.557360e-04
6.311390e-04
6.302270e-04
6.766100e-04
6.935960e-04
6.318010e-04
6.311400e-04
6.557360e-04
6.766020e-04
6.935630e-04
6.766100e-04
1.636550e-03
1.665760e-03
6.765730e-04
6.557360e-04
1.665890e-03
1.697560e-03
6.766100e-04
6.935960e-04
1.665760e-03
1.636410e-03
6.557360e-04
6.766020e-04
1.697560e-03
1.665750e-03
1.636550e-03
1.665760e-03
2.407350e-03
2.404820e-03
1.665890e-03
1.697560e-03
2.404660e-03
2.406320e-03
1.665760e-03
1.636410e-03
2.404820e-03
2.407540e-03
1.697560e-03
1.665750e-03
2.406320e-03
2.404850e-03
2.407350e-03
2.404820e-03
6.699360e-03
6.660630e-03
2.404660e-03
2.406320e-03
6.660560e-03
6.620320e-03
2.404820e-03
2.407540e-03
6.660630e-03
6.699470e-03
2.406320e-03
2.404850e-03
6.620320e-03
6.660670e-03
6.699360e-03
6.660630e-03
1.126870e-02
1.127070e-02
6.660560e-03
6.620320e-03
1.127120e-02
1.127210e-02
6.660630e-03
6.699470e-03
1.127070e-02
1.126800e-02
6.620320e-03
6.660670e-03
1.127210e-02
1.127050e-02
1.126870e-02
1.127070e-02
1.851040e-02
1.851470e-02
1.127120e-02
1.127210e-02
1.851410e-02
1.851800e-02
1.127070e-02
1.126800e-02
1.851470e-02
1.851110e-02
1.127210e-02
1.127050e-02
1.851800e-02
1.851480e-02
1.851040e-02
1.851470e-02
3.168360e-02
3.167780e-02
1.851410e-02
1.851800e-02
3.167770e-02
3.167280e-02
1.851470e-02
1.851110e-02
3.167780e-02
3.168380e-02
1.851800e-02
1.851480e-02
3.167280e-02
3.167800e-02
3.168360e-02
3.167780e-02
4.398260e-02
4.397240e-02
3.167770e-02
3.167280e-02
4.397300e-02
4.396030e-02
3.167780e-02
3.168380e-02
4.397240e-02
4.398140e-02
3.167280e-02
3.167800e-02
4.396030e-02
4.397200e-02
4.398260e-02
4.397240e-02
4.814250e-02
4.812680e-02
4.397300e-02
4.396030e-02
4.812680e-02
4.810960e-02
4.397240e-02
4.398140e-02
4.812680e-02
4.814280e-02
4.396030e-02
4.397200e-02
4.810960e-02
4.812690e-02
4.814250e-02
4.812680e-02
3.713940e-02
3.716290e-02
4.812680e-02
4.810960e-02
3.716290e-02
3.718560e-02
4.812680e-02
4.814280e-02
3.716290e-02
3.713940e-02
4.810960e-02
4.812690e-02
3.718560e-02
3.716290e-02
3.713940e-02
3.716290e-02
1.295440e-02
1.295780e-02
3.716290e-02
3.718560e-02
1.295510e-02
1.295790e-02
3.716290e-02
3.713940e-02
1.295780e-02
1.295770e-02
3.718560e-02
3.716290e-02
1.295790e-02
1.295850e-02
1.295440e-02
1.295780e-02
-1.593730e-02
-1.594050e-02
1.295510e-02
1.295790e-02
-1.593630e-02
-1.593770e-02
1.295780e-02
1.295770e-02
-1.594050e-02
-1.594080e-02
1.295790e-02
1.295850e-02
-1.593770e-02
-1.594070e-02
-1.593730e-02
-1.594050e-02
-2.603380e-02
-2.606500e-02
-1.593630e-02
-1.593770e-02
-2.606660e-02
-2.607780e-02
-1.594050e-02
-1.594080e-02
-2.606500e-02
-2.603340e-02
-1.593770e-02
-1.594070e-02
-2.607780e-02
-2.606490e-02
-2.603380e-02
-2.606500e-02
-5.347530e-03
-5.303100e-03
-2.606660e-02
-2.607780e-02
-5.314420e-03
-5.278060e-03
-2.606500e-02
-2.603340e-02
-5.303100e-03
-5.336470e-03
-2.607780e-02
-2.606490e-02
-5.278060e-03
-5.301940e-03
-5.347530e-03
-5.303100e-03
1.255010e-02
1.252210e-02
-5.314420e-03
-5.278060e-03
1.253010e-02
1.246710e-02
-5.303100e-03
-5.336470e-03
1.252210e-02
1.254160e-02
-5.278060e-03
-5.301940e-03
1.246710e-02
1.252070e-02
1.255010e-02
1.252210e-02
7.051830e-03
7.033150e-03
1.253010e-02
1.246710e-02
7.033250e-03
7.024170e-03
1.252210e-02
1.254160e-02
7.033150e-03
7.052320e-03
1.246710e-02
1.252070e-02
7.024170e-03
7.033340e-03
7.051830e-03
7.033150e-03
-4.945260e-03
-4.915540e-03
7.033250e-03
7.024170e-03
-4.915730e-03
-4.878940e-03
7.033150e-03
7.052320e-03
-4.915540e-03
-4.941320e-03
7.024170e-03
7.033340e-03
-4.878940e-03
-4.915570e-03
-4.945260e-03
-4.915540e-03
-3.147560e-03
-3.171710e-03
-4.915730e-03
-4.878940e-03
-3.168040e-03
-3.194520e-03
-4.915540e-03
-4.941320e-03
-3.171710e-03
-3.153150e-03
-4.878940e-03
-4.915570e-03
-3.194520e-03
-3.171870e-03
-3.147560e-03
-3.171710e-03
1.394360e-03
1.376780e-03
-3.168040e-03
-3.194520e-03
1.376700e-03
1.376050e-03
-3.171710e-03
-3.153150e-03
1.376780e-03
1.393630e-03
-3.194520e-03
-3.171870e-03
1.376050e-03
1.376800e-03
1.394360e-03
1.376780e-03
7.301280e-04
7.053170e-04
1.376700e-03
1.376050e-03
7.036540e-04
6.720410e-04
1.376780e-03
1.393630e-03
7.053170e-04
7.314900e-04
1.376050e-03
1.376800e-03
6.720410e-04
7.052450e-04
7.301280e-04
7.053170e-04
-5.998880e-05
-3.007590e-05
7.036540e-04
6.720410e-04
-3.004630e-05
-2.224210e-06
7.053170e-04
7.314900e-04
-3.007590e-05
-6.002970e-05
6.720410e-04
7.052450e-04
-2.224210e-06
-3.006100e-05
-5.998880e-05
-3.007590e-05
2.360160e-05
8.640210e-05
-3.004630e-05
-2.224210e-06
8.626410e-05
1.251950e-04
-3.007590e-05
-6.002970e-05
8.640210e-05
2.375180e-05
-2.224210e-06
-3.006100e-05
1.251950e-04
8.646020e-05
2.360160e-05
8.640210e-05
-7.414860e-05
-7.920730e-06
8.626410e-05
1.251950e-04
-7.899870e-06
1.720920e-05
8.640210e-05
2.375180e-05
-7.920730e-06
-7.417350e-05
1.251950e-04
8.646020e-05
1.720920e-05
-7.913700e-06
0.000000e+00
0.000000e+00
1.110740e-05
1.129700e-06
0.000000e+00
0.000000e+00
2.661520e-05
1.110530e-05
0.000000e+00
0.000000e+00
1.129700e-06
1.110900e-05
0.000000e+00
0.000000e+00
1.110530e-05
2.661270e-05
1.110740e-05
1.129700e-06
6.106520e-06
-2.403330e-05
2.661520e-05
1.110530e-05
3.371160e-05
6.111300e-06
1.129700e-06
1.110900e-05
-2.403330e-05
6.100870e-06
1.110530e-05
2.661270e-05
6.111300e-06
3.370890e-05
6.106520e-06
-2.403330e-05
9.211400e-05
1.058320e-04
3.371160e-05
6.111300e-06
7.768700e-05
9.211890e-05
-2.403330e-05
6.100870e-06
1.058320e-04
9.211370e-05
6.111300e-06