MercuryDPM 0.14 name oneDimChain revision 6406 repository https://svn.mercurydpm.org/SourceCode/Branches/OomphlibCouplingExplicit
dataFile    fileType ONE_FILE saveCount 92 counter 103 lastSavedTimeStep 9332
fStatFile   fileType ONE_FILE saveCount 92 counter 103 lastSavedTimeStep 9332
eneFile     fileType ONE_FILE saveCount 92 counter 103 lastSavedTimeStep 9332
restartFile fileType ONE_FILE saveCount 92 counter 103 lastSavedTimeStep 9332
statFile    fileType ONE_FILE saveCount 92 counter 0
interactionFile fileType NO_FILE saveCount 0 counter 0
xMin -500 xMax 500 yMin -5000 yMax 5000 zMin -500 zMax 500
timeStep 0.0107162522263564 time 100.004065776375 ntimeSteps 9332 timeMax 100
systemDimensions 3 particleDimensions 3 gravity 0 0 -0 writeVTK 1 MULTIPLE_FILES NO_FILE 103 103 0 0 random  0 1103515245 12345 1073741824 607 273 784607267
Species 1
LinearViscoelasticReversibleAdhesiveSpecies id 0 density 2500 stiffness 13333333333.3333 dissipation -0 adhesionForceMax 0 adhesionStiffness 13333333333.3333
Walls 0
Boundaries 0
Particles 3240
BaseParticle id 0 indSpecies 0 position -333.333559294361 2066.38440197347 -333.3335479508 orientation 1 0 0 0 velocity 4.72884189571373e-05 0.0104190749471267 3.00277115811806e-05 angularVelocity 0 0 0 force -130670.472937705 24621028.3302045 -131524.289927581 torque 0 0 0 radius 66.6666666666667 invMass 3.22288759761088e-10
BaseParticle id 1 indSpecies 0 position -333.333368326721 2066.41271309171 -200.000185024824 orientation 1 0 0 0 velocity 6.6472102642641e-05 0.0422385523360143 6.58722242450547e-05 angularVelocity 0 0 0 force -124565.526327486 -134240280.53169 -101660.230241871 torque 0 0 0 radius 66.6666666666667 invMass 3.22288759761088e-10
BaseParticle id 2 indSpecies 0 position -333.333704157404 2066.39220929963 -66.6666311416029 orientation 1 0 0 0 velocity 1.6167874140852e-05 0.0204608584814439 -1.58397134936458e-05 angularVelocity 0 0 0 force -124659.91731845 92930676.0522171 -214978.849557847 torque 0 0 0 radius 66.6666666666667 invMass 3.22288759761088e-10
BaseParticle id 3 indSpecies 0 position -333.333740490711 2066.39235296118 66.6666892851683 orientation 1 0 0 0 velocity 7.99806539145522e-06 0.0200866274640473 1.93209899210537e-05 angularVelocity 0 0 0 force -125615.004680785 90959081.1631922 208898.67567293 torque 0 0 0 radius 66.6666666666667 invMass 3.22288759761088e-10
BaseParticle id 4 indSpecies 0 position -333.333343909388 2066.41236964116 200.000173572054 orientation 1 0 0 0 velocity 6.66982006785769e-05 0.042227135577816 -6.97584738722349e-05 angularVelocity 0 0 0 force -127409.892003562 -134298027.869283 97649.0705554504 torque 0 0 0 radius 66.6666666666667 invMass 3.22288759761088e-10
BaseParticle id 5 indSpecies 0 position -333.333488764869 2066.38465816384 333.333505651141 orientation 1 0 0 0 velocity 3.45463204589938e-05 0.0103826709156664 -2.96665861180312e-05 angularVelocity 0 0 0 force -251727.075417748 20664046.9102695 130431.288859683 torque 0 0 0 radius 66.6666666666667 invMass 3.22288759761088e-10
BaseParticle id 6 indSpecies 0 position -200.000193642319 2066.4124322287 -333.333332237508 orientation 1 0 0 0 velocity 5.86269524072069e-05 0.0423421023463678 7.0503287702534e-05 angularVelocity 0 0 0 force -99880.2870332807 -138064779.25541 -125100.986113499 torque 0 0 0 radius 66.6666666666667 invMass 3.22288759761088e-10
BaseParticle id 7 indSpecies 0 position -199.999993885086 2066.36902353548 -199.999974100166 orientation 1 0 0 0 velocity -9.3441934014644e-05 0.0206611031812572 -5.04658422524993e-05 angularVelocity 0 0 0 force -303688.40644413 93145463.3284088 -322533.265391312 torque 0 0 0 radius 66.6666666666667 invMass 3.22288759761088e-10
BaseParticle id 8 indSpecies 0 position -200.000299256049 2066.35279396078 -66.6666586757662 orientation 1 0 0 0 velocity 3.97100191201511e-06 0.0343274097399119 -5.20785252723614e-05 angularVelocity 0 0 0 force -95805.5968937763 -130196947.202218 129051.472145402 torque 0 0 0 radius 66.6666666666667 invMass 3.22288759761088e-10
BaseParticle id 9 indSpecies 0 position -200.000267689259 2066.35298201307 66.6666704696282 orientation 1 0 0 0 velocity 7.52442756099068e-06 0.0350742950796967 9.9308100827938e-05 angularVelocity 0 0 0 force -96129.8589899511 -134779044.27594 -131691.140528814 torque 0 0 0 radius 66.6666666666667 invMass 3.22288759761088e-10
BaseParticle id 10 indSpecies 0 position -199.99998220302 2066.36891373899 199.999986214599 orientation 1 0 0 0 velocity -1.44991288830952e-05 0.0208166122398805 3.72940645292496e-06 angularVelocity 0 0 0 force -193164.943239259 92889035.8731019 290554.194184012 torque 0 0 0 radius 66.6666666666667 invMass 3.22288759761088e-10
BaseParticle id 11 indSpecies 0 position -200.000167015418 2066.41233049659 333.333310715047 orientation 1 0 0 0 velocity 6.16407085852932e-05 0.042204983548128 -7.23456676937194e-05 angularVelocity 0 0 0 force 13721.4461154944 -133205813.032312 146330.135484256 torque 0 0 0 radius 66.6666666666667 invMass 3.22288759761088e-10
BaseParticle id 12 indSpecies 0 position -66.6667109764201 2066.39218434705 -333.333720867128 orientation 1 0 0 0 velocity 9.12135928382543e-06 0.0204687956851864 1.17005561067615e-05 angularVelocity 0 0 0 force -40473.030860365 93338125.4665578 -123796.799689884 torque 0 0 0 radius 66.6666666666667 invMass 3.22288759761088e-10
BaseParticle id 13 indSpecies 0 position -66.6666771757423 2066.35272625938 -200.000288590433 orientation 1 0 0 0 velocity 2.09551264445502e-05 0.0343163895415913 3.79509961473535e-06 angularVelocity 0 0 0 force 170132.054749754 -130064303.38903 -96319.2161727107 torque 0 0 0 radius 66.6666666666667 invMass 3.22288759761088e-10
BaseParticle id 14 indSpecies 0 position -66.6666594501999 2066.35142016602 -66.6667027227318 orientation 1 0 0 0 velocity 1.98563376033343e-06 0.0276194691809693 -1.84053944314119e-05 angularVelocity 0 0 0 force -74474.3860047992 3291149.66965063 -40392.4759357513 torque 0 0 0 radius 66.6666666666667 invMass 3.22288759761088e-10
BaseParticle id 15 indSpecies 0 position -66.6667067228543 2066.35141948067 66.6666896751748 orientation 1 0 0 0 velocity -2.1891148877134e-05 0.0275673781675407 1.45571381146634e-05 angularVelocity 0 0 0 force -37674.5895249414 3017106.68660571 34700.5497692804 torque 0 0 0 radius 66.6666666666667 invMass 3.22288759761088e-10
BaseParticle id 16 indSpecies 0 position -66.666657051237 2066.35307754743 200.000305383968 orientation 1 0 0 0 velocity -8.49990642888834e-05 0.0351476948109644 -2.10016956898413e-06 angularVelocity 0 0 0 force -214715.500647402 -135605960.133346 92251.6701609771 torque 0 0 0 radius 66.6666666666667 invMass 3.22288759761088e-10
BaseParticle id 17 indSpecies 0 position -66.6666904460332 2066.39223958664 333.333717807123 orientation 1 0 0 0 velocity 1.66681099132511e-05 0.0203527237540184 -1.16487306427387e-05 angularVelocity 0 0 0 force -39935.2519759393 92477643.7782565 121674.451009924 torque 0 0 0 radius 66.6666666666667 invMass 3.22288759761088e-10
BaseParticle id 18 indSpecies 0 position 66.666701636456 2066.39215460917 -333.333738779409 orientation 1 0 0 0 velocity -9.86870812738365e-06 0.0204720771674655 8.93213454459535e-06 angularVelocity 0 0 0 force 38782.1513007218 93065424.5663631 -121847.773236167 torque 0 0 0 radius 66.6666666666667 invMass 3.22288759761088e-10
BaseParticle id 19 indSpecies 0 position 66.6666776268177 2066.35289319573 -200.000279106216 orientation 1 0 0 0 velocity -2.01240380455523e-05 0.0342568763951408 5.49863554826742e-06 angularVelocity 0 0 0 force -203052.095142836 -128188318.204664 -94584.0460944658 torque 0 0 0 radius 66.6666666666667 invMass 3.22288759761088e-10
BaseParticle id 20 indSpecies 0 position 66.6666711539218 2066.35141057955 -66.6667044594534 orientation 1 0 0 0 velocity -6.37362107269044e-07 0.0275891389930912 -2.06663944261347e-05 angularVelocity 0 0 0 force 74449.6158137864 3065155.48654489 -39080.1994494746 torque 0 0 0 radius 66.6666666666667 invMass 3.22288759761088e-10
BaseParticle id 21 indSpecies 0 position 66.6666863987239 2066.3514194043 66.6666885124849 orientation 1 0 0 0 velocity 1.86263549048255e-05 0.0275468881602711 1.64905536852426e-05 angularVelocity 0 0 0 force 39437.3760696959 3113131.55026378 35363.3631559266 torque 0 0 0 radius 66.6666666666667 invMass 3.22288759761088e-10
BaseParticle id 22 indSpecies 0 position 66.6666557361845 2066.35302119893 200.000297166631 orientation 1 0 0 0 velocity 8.56444510382879e-05 0.0351593597297134 -3.5265856081685e-06 angularVelocity 0 0 0 force 241656.496490625 -136381013.602411 92270.6574086104 torque 0 0 0 radius 66.6666666666667 invMass 3.22288759761088e-10
BaseParticle id 23 indSpecies 0 position 66.6666545305566 2066.3922766757 333.333736057882 orientation 1 0 0 0 velocity -2.04451074426666e-05 0.0204417147797792 -8.74060089082352e-06 angularVelocity 0 0 0 force 42935.0046569078 92616881.195813 121264.821635844 torque 0 0 0 radius 66.6666666666667 invMass 3.22288759761088e-10
BaseParticle id 24 indSpecies 0 position 200.000198463997 2066.41243200535 -333.333349461841 orientation 1 0 0 0 velocity -6.10779392812024e-05 0.0423169606609144 6.76705500787395e-05 angularVelocity 0 0 0 force 97805.5572877516 -134919408.460478 -120310.72816612 torque 0 0 0 radius 66.6666666666667 invMass 3.22288759761088e-10
BaseParticle id 25 indSpecies 0 position 199.999992001503 2066.36891418452 -199.999975211128 orientation 1 0 0 0 velocity 9.15514074629523e-05 0.0206858442145093 -7.2136576697162e-06 angularVelocity 0 0 0 force 333540.87776899 92919616.0287135 -303537.242938259 torque 0 0 0 radius 66.6666666666667 invMass 3.22288759761088e-10
BaseParticle id 26 indSpecies 0 position 200.000278509655 2066.35322962843 -66.6666586229712 orientation 1 0 0 0 velocity -7.67777667816098e-06 0.035175173825651 -8.77799422523807e-05 angularVelocity 0 0 0 force 95330.0719429115 -135199113.725875 25448.6919529073 torque 0 0 0 radius 66.6666666666667 invMass 3.22288759761088e-10
BaseParticle id 27 indSpecies 0 position 200.000303980515 2066.35294971499 66.66666360947 orientation 1 0 0 0 velocity -2.46987873447587e-06 0.0351417316236151 7.06599650257249e-05 angularVelocity 0 0 0 force 97501.0317519749 -136092862.189204 -103931.400241802 torque 0 0 0 radius 66.6666666666667 invMass 3.22288759761088e-10
BaseParticle id 28 indSpecies 0 position 199.999982662302 2066.36912155334 199.99997438352 orientation 1 0 0 0 velocity 1.26546906360806e-05 0.0206555148994149 2.22535961319986e-05 angularVelocity 0 0 0 force 171493.497444519 93096259.3464487 379813.157486695 torque 0 0 0 radius 66.6666666666667 invMass 3.22288759761088e-10
BaseParticle id 29 indSpecies 0 position 200.000181619647 2066.41212386435 333.333343584671 orientation 1 0 0 0 velocity -6.40403259782622e-05 0.0416264903740801 -6.72849248604577e-05 angularVelocity 0 0 0 force 17411.2558563903 -133965986.93308 121568.259579344 torque 0 0 0 radius 66.6666666666667 invMass 3.22288759761088e-10
BaseParticle id 30 indSpecies 0 position 333.33356615582 2066.38458136262 -333.333539147704 orientation 1 0 0 0 velocity -4.46270776557409e-05 0.010429003450487 2.92642209941086e-05 angularVelocity 0 0 0 force 128080.998854455 20061929.6880697 -125485.624487912 torque 0 0 0 radius 66.6666666666667 invMass 3.22288759761088e-10
BaseParticle id 31 indSpecies 0 position 333.333370503093 2066.41241595067 -200.000177846239 orientation 1 0 0 0 velocity -6.68503508220753e-05 0.0423433076153395 6.72343383850161e-05 angularVelocity 0 0 0 force 122284.473585792 -134409856.499259 -96145.3050998279 torque 0 0 0 radius 66.6666666666667 invMass 3.22288759761088e-10
BaseParticle id 32 indSpecies 0 position 333.333712347307 2066.39229838094 -66.6666323104955 orientation 1 0 0 0 velocity -1.57227764479365e-05 0.0201593372324483 -8.21325233031396e-06 angularVelocity 0 0 0 force 123608.012158197 91166559.0340413 -243181.686243879 torque 0 0 0 radius 66.6666666666667 invMass 3.22288759761088e-10
BaseParticle id 33 indSpecies 0 position 333.333722480153 2066.39239641886 66.6666857066642 orientation 1 0 0 0 velocity -1.16252992638325e-05 0.0201486960777017 1.10248953856164e-05 angularVelocity 0 0 0 force 126308.000217125 90952546.0526809 242514.126888839 torque 0 0 0 radius 66.6666666666667 invMass 3.22288759761088e-10
BaseParticle id 34 indSpecies 0 position 333.333341581383 2066.41237399961 200.000161700103 orientation 1 0 0 0 velocity -6.7292084210403e-05 0.0413867813970374 -7.09255181167031e-05 angularVelocity 0 0 0 force 129211.927968177 -134603523.94771 96836.1045060357 torque 0 0 0 radius 66.6666666666667 invMass 3.22288759761088e-10
BaseParticle id 35 indSpecies 0 position 333.333505533214 2066.38456326821 333.333499203596 orientation 1 0 0 0 velocity -3.04451999542552e-05 0.0105321533034403 -2.99384256958917e-05 angularVelocity 0 0 0 force 225077.608429625 23676000.455455 128025.245292754 torque 0 0 0 radius 66.6666666666667 invMass 3.22288759761088e-10
BaseParticle id 36 indSpecies 0 position -333.333669693187 2199.7127314058 -333.333688544459 orientation 1 0 0 0 velocity 3.036410116611e-06 0.0541074234183627 -3.32449883639908e-06 angularVelocity 0 0 0 force 23404.6535386062 -117245723.142229 23772.8996313896 torque 0 0 0 radius 66.6666666666667 invMass 3.22288759761088e-10
BaseParticle id 37 indSpecies 0 position -333.333459203922 2199.7295092817 -200.000171429498 orientation 1 0 0 0 velocity 6.32652432031842e-05 0.0357241670169744 -9.92185030615094e-06 angularVelocity 0 0 0 force 27289.8594219632 256619853.043674 3392.99707845661 torque 0 0 0 radius 66.6666666666667 invMass 3.22288759761088e-10
BaseParticle id 38 indSpecies 0 position -333.333505954226 2199.72549408381 -66.6668309668167 orientation 1 0 0 0 velocity 4.42116856348309e-05 0.0601764922944549 -4.8749845133474e-07 angularVelocity 0 0 0 force 29377.1509170851 -233008377.098846 -3928.59359520016 torque 0 0 0 radius 66.6666666666667 invMass 3.22288759761088e-10
BaseParticle id 39 indSpecies 0 position -333.333477776359 2199.72550399314 66.6668468339005 orientation 1 0 0 0 velocity 4.59707045573238e-05 0.0607137385250009 -7.33359300117445e-06 angularVelocity 0 0 0 force 29023.199867929 -231416532.098016 -50007.0714561523 torque 0 0 0 radius 66.6666666666667 invMass 3.22288759761088e-10
BaseParticle id 40 indSpecies 0 position -333.333459053244 2199.7291868844 200.000176418104 orientation 1 0 0 0 velocity 5.98714647203825e-05 0.0357799857038653 2.2859857059457e-05 angularVelocity 0 0 0 force 25585.0696581107 256801853.504227 43150.5187865899 torque 0 0 0 radius 66.6666666666667 invMass 3.22288759761088e-10
BaseParticle id 41 indSpecies 0 position -333.333667630973 2199.71273563424 333.333678481746 orientation 1 0 0 0 velocity -3.11193637771996e-06 0.0541849632173671 4.03754425363757e-06 angularVelocity 0 0 0 force 20419.6114252248 -114560421.988091 -23913.0282281254 torque 0 0 0 radius 66.6666666666667 invMass 3.22288759761088e-10
BaseParticle id 42 indSpecies 0 position -200.000188177247 2199.72894998632 -333.333452255125 orientation 1 0 0 0 velocity -1.13540087052324e-05 0.0352114605751616 6.39817903867827e-05 angularVelocity 0 0 0 force 4052.38193358111 262411912.187569 27667.7405201216 torque 0 0 0 radius 66.6666666666667 invMass 3.22288759761088e-10
BaseParticle id 43 indSpecies 0 position -199.999968713391 2199.70708003945 -199.999969293951 orientation 1 0 0 0 velocity -3.70896255670447e-06 0.0408187604692761 9.45428857793084e-06 angularVelocity 0 0 0 force -94445.4357711717 -211885629.765428 -228116.35994772 torque 0 0 0 radius 66.6666666666667 invMass 3.22288759761088e-10
BaseParticle id 44 indSpecies 0 position -200.00004697196 2199.66985671635 -66.6666587972745 orientation 1 0 0 0 velocity 4.29654094127555e-05 0.0777671718709019 4.33258201383447e-05 angularVelocity 0 0 0 force 8367.71545978056 129965114.628441 76515.4969630809 torque 0 0 0 radius 66.6666666666667 invMass 3.22288759761088e-10
BaseParticle id 45 indSpecies 0 position -200.000047121729 2199.66971864414 66.6666627779037 orientation 1 0 0 0 velocity 4.61486797360762e-05 0.0769896215067632 -4.12278902488038e-05 angularVelocity 0 0 0 force 8221.99636818355 130184980.585332 -85330.4714949911 torque 0 0 0 radius 66.6666666666667 invMass 3.22288759761088e-10
BaseParticle id 46 indSpecies 0 position -199.999968540675 2199.70689778272 199.999973001499 orientation 1 0 0 0 velocity 1.02370011292808e-05 0.040934081443382 -1.01910079221668e-05 angularVelocity 0 0 0 force -257870.292376017 -210829027.587702 228675.648355237 torque 0 0 0 radius 66.6666666666667 invMass 3.22288759761088e-10
BaseParticle id 47 indSpecies 0 position -200.000178257744 2199.72922801991 333.333454300876 orientation 1 0 0 0 velocity -1.49398105359493e-05 0.0358710981726632 -6.14148871822264e-05 angularVelocity 0 0 0 force -164058.629754228 255203953.402122 -28966.0447265827 torque 0 0 0 radius 66.6666666666667 invMass 3.22288759761088e-10
BaseParticle id 48 indSpecies 0 position -66.6668456538311 2199.72549778868 -333.333492513737 orientation 1 0 0 0 velocity -1.22906885739677e-06 0.0601760796110787 4.49482093236837e-05 angularVelocity 0 0 0 force -2428.85141227365 -232710489.076784 31034.5282489197 torque 0 0 0 radius 66.6666666666667 invMass 3.22288759761088e-10
BaseParticle id 49 indSpecies 0 position -66.6666482551847 2199.66979801448 -200.000053411594 orientation 1 0 0 0 velocity -5.07519837269021e-06 0.0779160805981953 4.4492981762746e-05 angularVelocity 0 0 0 force -370563.600140936 131401999.546201 8568.29865200467 torque 0 0 0 radius 66.6666666666667 invMass 3.22288759761088e-10
BaseParticle id 50 indSpecies 0 position -66.6666808475018 2199.67814840676 -66.6666920907681 orientation 1 0 0 0 velocity 3.71046031990066e-05 0.0167506311344268 3.10824687259189e-05 angularVelocity 0 0 0 force -50.2948899429329 158987198.780334 -1446.86279991247 torque 0 0 0 radius 66.6666666666667 invMass 3.22288759761088e-10
BaseParticle id 51 indSpecies 0 position -66.6667030974786 2199.67813123176 66.6666876888533 orientation 1 0 0 0 velocity 2.8624190819162e-05 0.0167459160602698 -3.1250821439213e-05 angularVelocity 0 0 0 force 403.576251354296 159163766.342577 -2859.04417110581 torque 0 0 0 radius 66.6666666666667 invMass 3.22288759761088e-10
BaseParticle id 52 indSpecies 0 position -66.6666602580462 2199.66975538603 200.000039803392 orientation 1 0 0 0 velocity 3.8562466608013e-05 0.0767972559404685 -4.85361047192265e-05 angularVelocity 0 0 0 force 116610.160658183 129272375.225352 -11674.506822576 torque 0 0 0 radius 66.6666666666667 invMass 3.22288759761088e-10
BaseParticle id 53 indSpecies 0 position -66.6668574716609 2199.72550321097 333.333519336147 orientation 1 0 0 0 velocity -6.09002409889895e-06 0.0603994695847193 -3.8478359716487e-05 angularVelocity 0 0 0 force 164794.462032888 -232989597.549643 -32036.057678059 torque 0 0 0 radius 66.6666666666667 invMass 3.22288759761088e-10
BaseParticle id 54 indSpecies 0 position 66.6668459196728 2199.72545710652 -333.333503669337 orientation 1 0 0 0 velocity 2.10168437222057e-06 0.0602394890424748 4.31770142729088e-05 angularVelocity 0 0 0 force 640.764829816682 -232553546.905839 32758.5633695395 torque 0 0 0 radius 66.6666666666667 invMass 3.22288759761088e-10
BaseParticle id 55 indSpecies 0 position 66.6666496411119 2199.67010750529 -200.000042875112 orientation 1 0 0 0 velocity 6.56940053533787e-06 0.0775866468444145 4.584167440614e-05 angularVelocity 0 0 0 force 382892.672915915 121702607.273392 10119.4822604033 torque 0 0 0 radius 66.6666666666667 invMass 3.22288759761088e-10
BaseParticle id 56 indSpecies 0 position 66.6666810968196 2199.67812485212 -66.6666864087641 orientation 1 0 0 0 velocity -3.71946139647421e-05 0.0167514969765984 3.19490977915954e-05 angularVelocity 0 0 0 force -334.404003010985 159135750.521193 -303.615737923408 torque 0 0 0 radius 66.6666666666667 invMass 3.22288759761088e-10
BaseParticle id 57 indSpecies 0 position 66.6666682579859 2199.67813607691 66.6666779569008 orientation 1 0 0 0 velocity -3.52017178866087e-05 0.0167650485063444 -3.40733203322848e-05 angularVelocity 0 0 0 force 746.251993680455 159105902.496334 -2320.99195373297 torque 0 0 0 radius 66.6666666666667 invMass 3.22288759761088e-10
BaseParticle id 58 indSpecies 0 position 66.6666618977746 2199.66963705253 200.000040046553 orientation 1 0 0 0 velocity -4.2134391125355e-05 0.0768666448347507 -4.68935909970523e-05 angularVelocity 0 0 0 force -85740.8120173627 133806851.232215 -11628.3026211654 torque 0 0 0 radius 66.6666666666667 invMass 3.22288759761088e-10
BaseParticle id 59 indSpecies 0 position 66.666848438888 2199.72554216288 333.333522585918 orientation 1 0 0 0 velocity 3.4911936281865e-06 0.0602739155363684 -3.90551974574151e-05 angularVelocity 0 0 0 force -164480.18789628 -233482479.393376 -32449.9622530236 torque 0 0 0 radius 66.6666666666667 invMass 3.22288759761088e-10
BaseParticle id 60 indSpecies 0 position 200.000190041573 2199.72920187081 -333.333445394137 orientation 1 0 0 0 velocity 1.2570442990601e-05 0.0356910123475666 6.41710571313912e-05 angularVelocity 0 0 0 force -6117.20983083435 257593796.081149 32181.8779053001 torque 0 0 0 radius 66.6666666666667 invMass 3.22288759761088e-10
BaseParticle id 61 indSpecies 0 position 199.999971253007 2199.70697533257 -199.999964700603 orientation 1 0 0 0 velocity 3.46860027569525e-06 0.0409064226556298 8.99128445274605e-06 angularVelocity 0 0 0 force 78836.6858299587 -211208190.642686 -289215.586947274 torque 0 0 0 radius 66.6666666666667 invMass 3.22288759761088e-10
BaseParticle id 62 indSpecies 0 position 200.000048356774 2199.6699351449 -66.6666590303683 orientation 1 0 0 0 velocity -4.28185110586092e-05 0.0762983112655943 3.44469568344356e-05 angularVelocity 0 0 0 force -8978.20611371001 121561921.383222 138219.384506184 torque 0 0 0 radius 66.6666666666667 invMass 3.22288759761088e-10
BaseParticle id 63 indSpecies 0 position 200.000039017488 2199.66958543998 66.6666620837052 orientation 1 0 0 0 velocity -4.70585132295222e-05 0.0769909037109688 -3.36056984432901e-05 angularVelocity 0 0 0 force -7524.35775072315 134836454.01824 -142777.626051038 torque 0 0 0 radius 66.6666666666667 invMass 3.22288759761088e-10
BaseParticle id 64 indSpecies 0 position 199.999972237185 2199.70713824362 199.999967339212 orientation 1 0 0 0 velocity -7.57084468291379e-06 0.0408391809981463 -1.1147423835635e-05 angularVelocity 0 0 0 force 231040.662899377 -212522465.527286 293086.349826749 torque 0 0 0 radius 66.6666666666667 invMass 3.22288759761088e-10
BaseParticle id 65 indSpecies 0 position 200.000169100883 2199.72894434453 333.333446392482 orientation 1 0 0 0 velocity 1.13628740306683e-05 0.0357760061160634 -6.29353892906022e-05 angularVelocity 0 0 0 force 167717.807002254 258559958.601802 -30258.3904466814 torque 0 0 0 radius 66.6666666666667 invMass 3.22288759761088e-10
BaseParticle id 66 indSpecies 0 position 333.333672244697 2199.7126125631 -333.33367708923 orientation 1 0 0 0 velocity -1.84345419317008e-06 0.0538894367878134 -2.03081536818935e-06 angularVelocity 0 0 0 force -25822.8499473727 -114982628.331084 29470.1710435696 torque 0 0 0 radius 66.6666666666667 invMass 3.22288759761088e-10
BaseParticle id 67 indSpecies 0 position 333.333459116436 2199.72922320763 -200.000183136282 orientation 1 0 0 0 velocity -6.29293363658897e-05 0.0356721593771146 -1.77396658943962e-05 angularVelocity 0 0 0 force -29458.0761656992 256787250.292542 8304.80510337206 torque 0 0 0 radius 66.6666666666667 invMass 3.22288759761088e-10
BaseParticle id 68 indSpecies 0 position 333.333507002563 2199.72546402052 -66.6668487040418 orientation 1 0 0 0 velocity -4.42851033019575e-05 0.0607099041275001 -2.4405099096106e-07 angularVelocity 0 0 0 force -30483.9954763517 -231440839.712611 -626.321625589454 torque 0 0 0 radius 66.6666666666667 invMass 3.22288759761088e-10
BaseParticle id 69 indSpecies 0 position 333.333522446986 2199.7255388625 66.6668545769019 orientation 1 0 0 0 velocity -3.97632748954601e-05 0.0607030273837781 -6.94903785188627e-06 angularVelocity 0 0 0 force -28304.8291070015 -231950413.828979 -99530.4348878169 torque 0 0 0 radius 66.6666666666667 invMass 3.22288759761088e-10
BaseParticle id 70 indSpecies 0 position 333.33345464405 2199.72914710272 200.00018035775 orientation 1 0 0 0 velocity -6.1385971385648e-05 0.0350725686508213 2.26696683558219e-05 angularVelocity 0 0 0 force -24097.8558198766 256730544.861694 93043.117569735 torque 0 0 0 radius 66.6666666666667 invMass 3.22288759761088e-10
BaseParticle id 71 indSpecies 0 position 333.333686379272 2199.71282840612 333.333680428237 orientation 1 0 0 0 velocity 5.7681594766498e-06 0.0540430910929785 3.31463368087026e-06 angularVelocity 0 0 0 force -18689.8855867507 -117357266.537099 -26280.2032330984 torque 0 0 0 radius 66.6666666666667 invMass 3.22288759761088e-10
BaseParticle id 72 indSpecies 0 position -333.33346037083 2333.02754531746 -333.333525056853 orientation 1 0 0 0 velocity 7.0051994019099e-05 0.0679213931554672 5.68351100846651e-05 angularVelocity 0 0 0 force 162570.343499404 184663993.376277 163552.259788843 torque 0 0 0 radius 66.6666666666667 invMass 3.22288759761088e-10
BaseParticle id 73 indSpecies 0 position -333.333528154777 2333.06065303457 -199.999945235691 orientation 1 0 0 0 velocity 9.16969580850949e-06 0.0559104041906771 1.70544359528944e-05 angularVelocity 0 0 0 force 162072.735427257 -256321824.695944 -355033.711625682 torque 0 0 0 radius 66.6666666666667 invMass 3.22288759761088e-10
BaseParticle id 74 indSpecies 0 position -333.333781239836 2333.03650750834 -66.6666480730386 orientation 1 0 0 0 velocity 9.9344194028873e-05 0.0497004250580035 6.74939576093726e-05 angularVelocity 0 0 0 force 163836.844138152 58885017.0236923 484588.756051969 torque 0 0 0 radius 66.6666666666667 invMass 3.22288759761088e-10
BaseParticle id 75 indSpecies 0 position -333.33382233189 2333.03651402146 66.6666983496882 orientation 1 0 0 0 velocity 9.57226180272311e-05 0.0494469885133773 -3.05218412891408e-05 angularVelocity 0 0 0 force 163481.869381805 59945427.4386506 -561321.135562156 torque 0 0 0 radius 66.6666666666667 invMass 3.22288759761088e-10
BaseParticle id 76 indSpecies 0 position -333.333538402589 2333.06038154106 199.999990029301 orientation 1 0 0 0 velocity 9.88403151265846e-06 0.0554886084783282 -3.10935626376646e-05 angularVelocity 0 0 0 force 161669.881695162 -256532458.324335 427329.12215733 torque 0 0 0 radius 66.6666666666667 invMass 3.22288759761088e-10
BaseParticle id 77 indSpecies 0 position -333.333519848736 2333.02753304352 333.333444521562 orientation 1 0 0 0 velocity 5.44010940485746e-05 0.0683379572455141 -6.96074006657789e-05 angularVelocity 0 0 0 force 160899.36933108 194629058.583831 -163204.855437578 torque 0 0 0 radius 66.6666666666667 invMass 3.22288759761088e-10
BaseParticle id 78 indSpecies 0 position -199.999978114253 2333.06025316795 -333.333557028381 orientation 1 0 0 0 velocity 3.35480595595518e-05 0.0567292482867297 7.24329619183959e-06 angularVelocity 0 0 0 force -416078.832817192 -254883063.188887 163359.758923848 torque 0 0 0 radius 66.6666666666667 invMass 3.22288759761088e-10
BaseParticle id 79 indSpecies 0 position -200.000150302454 2333.01964462419 -200.00014006842 orientation 1 0 0 0 velocity 1.41263327717097e-05 0.0507104125600827 1.31048831910075e-05 angularVelocity 0 0 0 force 97575.0296891122 11103803.8351943 97767.0893594148 torque 0 0 0 radius 66.6666666666667 invMass 3.22288759761088e-10
BaseParticle id 80 indSpecies 0 position -200.000131671296 2332.99198116823 -66.6667059016215 orientation 1 0 0 0 velocity 5.84410722630724e-05 0.0149149025325802 -3.72752185557535e-05 angularVelocity 0 0 0 force 99318.7531879361 183414531.525517 31275.272499838 torque 0 0 0 radius 66.6666666666667 invMass 3.22288759761088e-10
BaseParticle id 81 indSpecies 0 position -200.000147887473 2332.99155677437 66.6667524720765 orientation 1 0 0 0 velocity 6.18550410794568e-05 0.0152025689932215 4.12406779541575e-05 angularVelocity 0 0 0 force 99380.8374777251 193999737.290232 -248188.321342514 torque 0 0 0 radius 66.6666666666667 invMass 3.22288759761088e-10
BaseParticle id 82 indSpecies 0 position -200.000163994722 2333.01955269371 200.000066864851 orientation 1 0 0 0 velocity 4.2355477998911e-06 0.0509438256575253 -2.49191997869165e-05 angularVelocity 0 0 0 force 97507.6939159297 6793840.83697084 112972.179264061 torque 0 0 0 radius 66.6666666666667 invMass 3.22288759761088e-10
BaseParticle id 83 indSpecies 0 position -199.999955328626 2333.06038306758 333.333597956846 orientation 1 0 0 0 velocity 4.8412785612277e-05 0.0552854165118544 8.31658082862813e-06 angularVelocity 0 0 0 force -422338.173590416 -256273570.044804 -163581.57379882 torque 0 0 0 radius 66.6666666666667 invMass 3.22288759761088e-10
BaseParticle id 84 indSpecies 0 position -66.66668542899 2333.03655968343 -333.333815645522 orientation 1 0 0 0 velocity 4.26996226220429e-05 0.0497908206226124 9.85714653589306e-05 angularVelocity 0 0 0 force 545874.612932601 58101364.9822743 165535.632206658 torque 0 0 0 radius 66.6666666666667 invMass 3.22288759761088e-10
BaseParticle id 85 indSpecies 0 position -66.6667305446984 2332.99203541645 -200.000151015083 orientation 1 0 0 0 velocity -4.48539770761986e-05 0.0147129203594487 6.2684604305387e-05 angularVelocity 0 0 0 force 32049.3817200137 181461354.913814 100009.127355008 torque 0 0 0 radius 66.6666666666667 invMass 3.22288759761088e-10
BaseParticle id 86 indSpecies 0 position -66.6667927236846 2333.01171792088 -66.6667479512995 orientation 1 0 0 0 velocity 3.41344841885743e-05 0.0280581719569573 3.0560925598612e-05 angularVelocity 0 0 0 force 32640.5812926029 -144389755.091405 32011.0865344178 torque 0 0 0 radius 66.6666666666667 invMass 3.22288759761088e-10