<?xml version="1.0"?>
<VTKFile type="UnstructuredGrid" version="0.1" byte_order="LittleEndian" compressor="vtkZLibDataCompressor">
<UnstructuredGrid>
<Piece NumberOfPoints="960" NumberOfCells="120">
<Points>
<DataArray type="Float32" NumberOfComponents="3" format="ascii">
-4.000000e+02 -6.000000e+03 -4.000000e+02
0.000000e+00 -6.000000e+03 -4.000000e+02
-4.000000e+02 -5.599990e+03 -4.000000e+02
-9.639060e-11 -5.599990e+03 -4.000000e+02
-4.000000e+02 -6.000000e+03 0.000000e+00
0.000000e+00 -6.000000e+03 0.000000e+00
-4.000000e+02 -5.599990e+03 1.409850e-11
-2.514260e-11 -5.599990e+03 -3.431910e-11
0.000000e+00 -6.000000e+03 -4.000000e+02
4.000000e+02 -6.000000e+03 -4.000000e+02
-9.639060e-11 -5.599990e+03 -4.000000e+02
4.000000e+02 -5.599990e+03 -4.000000e+02
0.000000e+00 -6.000000e+03 0.000000e+00
4.000000e+02 -6.000000e+03 0.000000e+00
-2.514260e-11 -5.599990e+03 -3.431910e-11
4.000000e+02 -5.599990e+03 -2.498930e-10
-4.000000e+02 -5.599990e+03 -4.000000e+02
-9.639060e-11 -5.599990e+03 -4.000000e+02
-4.000000e+02 -5.199990e+03 -4.000000e+02
-3.344280e-11 -5.199990e+03 -4.000000e+02
-4.000000e+02 -5.599990e+03 1.409850e-11
-2.514260e-11 -5.599990e+03 -3.431910e-11
-4.000000e+02 -5.199990e+03 1.051510e-10
-5.941470e-11 -5.199990e+03 1.900510e-10
-9.639060e-11 -5.599990e+03 -4.000000e+02
4.000000e+02 -5.599990e+03 -4.000000e+02
-3.344280e-11 -5.199990e+03 -4.000000e+02
4.000000e+02 -5.199990e+03 -4.000000e+02
-2.514260e-11 -5.599990e+03 -3.431910e-11
4.000000e+02 -5.599990e+03 -2.498930e-10
-5.941470e-11 -5.199990e+03 1.900510e-10
4.000000e+02 -5.199990e+03 6.147880e-11
-4.000000e+02 -5.199990e+03 -4.000000e+02
-3.344280e-11 -5.199990e+03 -4.000000e+02
-4.000000e+02 -4.800010e+03 -4.000000e+02
7.823130e-10 -4.800010e+03 -4.000000e+02
-4.000000e+02 -5.199990e+03 1.051510e-10
-5.941470e-11 -5.199990e+03 1.900510e-10
-4.000000e+02 -4.800010e+03 4.908850e-10
4.592940e-10 -4.800010e+03 7.148740e-10
-3.344280e-11 -5.199990e+03 -4.000000e+02
4.000000e+02 -5.199990e+03 -4.000000e+02
7.823130e-10 -4.800010e+03 -4.000000e+02
4.000000e+02 -4.800010e+03 -4.000000e+02
-5.941470e-11 -5.199990e+03 1.900510e-10
4.000000e+02 -5.199990e+03 6.147880e-11
4.592940e-10 -4.800010e+03 7.148740e-10
4.000000e+02 -4.800010e+03 2.794160e-10
-4.000000e+02 -4.800010e+03 -4.000000e+02
7.823130e-10 -4.800010e+03 -4.000000e+02
-4.000000e+02 -4.400070e+03 -4.000000e+02
7.452480e-10 -4.400070e+03 -4.000000e+02
-4.000000e+02 -4.800010e+03 4.908850e-10
4.592940e-10 -4.800010e+03 7.148740e-10
-4.000000e+02 -4.400070e+03 4.288230e-10
4.296500e-10 -4.400070e+03 4.767300e-10
7.823130e-10 -4.800010e+03 -4.000000e+02
4.000000e+02 -4.800010e+03 -4.000000e+02
7.452480e-10 -4.400070e+03 -4.000000e+02
4.000000e+02 -4.400070e+03 -4.000000e+02
4.592940e-10 -4.800010e+03 7.148740e-10
4.000000e+02 -4.800010e+03 2.794160e-10
4.296500e-10 -4.400070e+03 4.767300e-10
4.000000e+02 -4.400070e+03 3.578180e-10
-4.000000e+02 -4.400070e+03 -4.000000e+02
7.452480e-10 -4.400070e+03 -4.000000e+02
-4.000000e+02 -4.000140e+03 -4.000000e+02
4.901860e-10 -4.000140e+03 -4.000000e+02
-4.000000e+02 -4.400070e+03 4.288230e-10
4.296500e-10 -4.400070e+03 4.767300e-10
-4.000000e+02 -4.000140e+03 2.322690e-10
5.482570e-10 -4.000140e+03 -5.924030e-11
7.452480e-10 -4.400070e+03 -4.000000e+02
4.000000e+02 -4.400070e+03 -4.000000e+02
4.901860e-10 -4.000140e+03 -4.000000e+02
4.000000e+02 -4.000140e+03 -4.000000e+02
4.296500e-10 -4.400070e+03 4.767300e-10
4.000000e+02 -4.400070e+03 3.578180e-10
5.482570e-10 -4.000140e+03 -5.924030e-11
4.000000e+02 -4.000140e+03 1.547590e-11
-4.000000e+02 -4.000140e+03 -4.000000e+02
4.901860e-10 -4.000140e+03 -4.000000e+02
-4.000000e+02 -3.600190e+03 -4.000000e+02
6.351650e-10 -3.600190e+03 -4.000000e+02
-4.000000e+02 -4.000140e+03 2.322690e-10
5.482570e-10 -4.000140e+03 -5.924030e-11
-4.000000e+02 -3.600190e+03 4.173070e-10
7.315340e-10 -3.600190e+03 -1.056100e-11
4.901860e-10 -4.000140e+03 -4.000000e+02
4.000000e+02 -4.000140e+03 -4.000000e+02
6.351650e-10 -3.600190e+03 -4.000000e+02
4.000000e+02 -3.600190e+03 -4.000000e+02
5.482570e-10 -4.000140e+03 -5.924030e-11
4.000000e+02 -4.000140e+03 1.547590e-11
7.315340e-10 -3.600190e+03 -1.056100e-11
4.000000e+02 -3.600190e+03 3.167460e-11
-4.000000e+02 -3.600190e+03 -4.000000e+02
6.351650e-10 -3.600190e+03 -4.000000e+02
-4.000000e+02 -3.200220e+03 -4.000000e+02
3.411070e-10 -3.200220e+03 -4.000000e+02
-4.000000e+02 -3.600190e+03 4.173070e-10
7.315340e-10 -3.600190e+03 -1.056100e-11
-4.000000e+02 -3.200220e+03 4.532720e-10
6.241480e-10 -3.200220e+03 3.605490e-10
6.351650e-10 -3.600190e+03 -4.000000e+02
4.000000e+02 -3.600190e+03 -4.000000e+02
3.411070e-10 -3.200220e+03 -4.000000e+02
4.000000e+02 -3.200220e+03 -4.000000e+02
7.315340e-10 -3.600190e+03 -1.056100e-11
4.000000e+02 -3.600190e+03 3.167460e-11
6.241480e-10 -3.200220e+03 3.605490e-10
4.000000e+02 -3.200220e+03 2.734180e-10
-4.000000e+02 -3.200220e+03 -4.000000e+02
3.411070e-10 -3.200220e+03 -4.000000e+02
-4.000000e+02 -2.800230e+03 -4.000000e+02
-1.043130e-10 -2.800230e+03 -4.000000e+02
-4.000000e+02 -3.200220e+03 4.532720e-10
6.241480e-10 -3.200220e+03 3.605490e-10
-4.000000e+02 -2.800230e+03 4.538570e-10
1.197740e-10 -2.800230e+03 3.034200e-10
3.411070e-10 -3.200220e+03 -4.000000e+02
4.000000e+02 -3.200220e+03 -4.000000e+02
-1.043130e-10 -2.800230e+03 -4.000000e+02
4.000000e+02 -2.800230e+03 -4.000000e+02
6.241480e-10 -3.200220e+03 3.605490e-10
4.000000e+02 -3.200220e+03 2.734180e-10
1.197740e-10 -2.800230e+03 3.034200e-10
4.000000e+02 -2.800230e+03 2.137540e-10
-4.000000e+02 -2.800230e+03 -4.000000e+02
-1.043130e-10 -2.800230e+03 -4.000000e+02
-4.000000e+02 -2.400240e+03 -4.000000e+02
1.154920e-11 -2.400240e+03 -4.000000e+02
-4.000000e+02 -2.800230e+03 4.538570e-10
1.197740e-10 -2.800230e+03 3.034200e-10
-4.000000e+02 -2.400240e+03 8.871270e-11
7.943300e-11 -2.400240e+03 1.337170e-10
-1.043130e-10 -2.800230e+03 -4.000000e+02
4.000000e+02 -2.800230e+03 -4.000000e+02
1.154920e-11 -2.400240e+03 -4.000000e+02
4.000000e+02 -2.400240e+03 -4.000000e+02
1.197740e-10 -2.800230e+03 3.034200e-10
4.000000e+02 -2.800230e+03 2.137540e-10
7.943300e-11 -2.400240e+03 1.337170e-10
4.000000e+02 -2.400240e+03 1.374750e-10
-4.000000e+02 -2.400240e+03 -4.000000e+02
1.154920e-11 -2.400240e+03 -4.000000e+02
-4.000000e+02 -2.000240e+03 -4.000000e+02
1.126160e-10 -2.000240e+03 -4.000000e+02
-4.000000e+02 -2.400240e+03 8.871270e-11
7.943300e-11 -2.400240e+03 1.337170e-10
-4.000000e+02 -2.000240e+03 3.037830e-10
3.178740e-11 -2.000240e+03 1.208790e-10
1.154920e-11 -2.400240e+03 -4.000000e+02
4.000000e+02 -2.400240e+03 -4.000000e+02
1.126160e-10 -2.000240e+03 -4.000000e+02
4.000000e+02 -2.000240e+03 -4.000000e+02
7.943300e-11 -2.400240e+03 1.337170e-10
4.000000e+02 -2.400240e+03 1.374750e-10
3.178740e-11 -2.000240e+03 1.208790e-10
4.000000e+02 -2.000240e+03 8.098350e-12
-4.000000e+02 -2.000240e+03 -4.000000e+02
1.126160e-10 -2.000240e+03 -4.000000e+02
-4.000000e+02 -1.600240e+03 -4.000000e+02
-1.534760e-10 -1.600240e+03 -4.000000e+02
-4.000000e+02 -2.000240e+03 3.037830e-10
3.178740e-11 -2.000240e+03 1.208790e-10
-4.000000e+02 -1.600240e+03 1.789020e-10
-2.952540e-10 -1.600240e+03 3.862620e-11
1.126160e-10 -2.000240e+03 -4.000000e+02
4.000000e+02 -2.000240e+03 -4.000000e+02
-1.534760e-10 -1.600240e+03 -4.000000e+02
4.000000e+02 -1.600240e+03 -4.000000e+02
3.178740e-11 -2.000240e+03 1.208790e-10
4.000000e+02 -2.000240e+03 8.098350e-12
-2.952540e-10 -1.600240e+03 3.862620e-11
4.000000e+02 -1.600240e+03 -1.195500e-10
-4.000000e+02 -1.600240e+03 -4.000000e+02
-1.534760e-10 -1.600240e+03 -4.000000e+02
-4.000000e+02 -1.200240e+03 -4.000000e+02
-3.464600e-10 -1.200240e+03 -4.000000e+02
-4.000000e+02 -1.600240e+03 1.789020e-10
-2.952540e-10 -1.600240e+03 3.862620e-11
-4.000000e+02 -1.200240e+03 1.221270e-10
-2.370410e-11 -1.200240e+03 1.415860e-10
-1.534760e-10 -1.600240e+03 -4.000000e+02
4.000000e+02 -1.600240e+03 -4.000000e+02
-3.464600e-10 -1.200240e+03 -4.000000e+02
4.000000e+02 -1.200240e+03 -4.000000e+02
-2.952540e-10 -1.600240e+03 3.862620e-11
4.000000e+02 -1.600240e+03 -1.195500e-10
-2.370410e-11 -1.200240e+03 1.415860e-10
4.000000e+02 -1.200240e+03 1.263850e-10
-4.000000e+02 -1.200240e+03 -4.000000e+02
-3.464600e-10 -1.200240e+03 -4.000000e+02
-4.000000e+02 -8.002460e+02 -4.000000e+02
-3.857150e-10 -8.002460e+02 -4.000000e+02
-4.000000e+02 -1.200240e+03 1.221270e-10
-2.370410e-11 -1.200240e+03 1.415860e-10
-4.000000e+02 -8.002460e+02 3.729600e-10
1.473980e-10 -8.002460e+02 3.613010e-10
-3.464600e-10 -1.200240e+03 -4.000000e+02
4.000000e+02 -1.200240e+03 -4.000000e+02
-3.857150e-10 -8.002460e+02 -4.000000e+02
4.000000e+02 -8.002460e+02 -4.000000e+02
-2.370410e-11 -1.200240e+03 1.415860e-10
4.000000e+02 -1.200240e+03 1.263850e-10
1.473980e-10 -8.002460e+02 3.613010e-10
4.000000e+02 -8.002460e+02 1.270330e-10
-4.000000e+02 -8.002460e+02 -4.000000e+02
-3.857150e-10 -8.002460e+02 -4.000000e+02
-4.000000e+02 -4.002470e+02 -4.000000e+02
1.229590e-10 -4.002470e+02 -4.000000e+02
-4.000000e+02 -8.002460e+02 3.729600e-10
1.473980e-10 -8.002460e+02 3.613010e-10
-4.000000e+02 -4.002470e+02 4.762330e-10
7.599410e-11 -4.002470e+02 1.615870e-10
-3.857150e-10 -8.002460e+02 -4.000000e+02
4.000000e+02 -8.002460e+02 -4.000000e+02
1.229590e-10 -4.002470e+02 -4.000000e+02
4.000000e+02 -4.002470e+02 -4.000000e+02
1.473980e-10 -8.002460e+02 3.613010e-10
4.000000e+02 -8.002460e+02 1.270330e-10
7.599410e-11 -4.002470e+02 1.615870e-10
4.000000e+02 -4.002470e+02 -4.393130e-11
-4.000000e+02 -4.002470e+02 -4.000000e+02
1.229590e-10 -4.002470e+02 -4.000000e+02
-4.000000e+02 -2.484400e-01 -4.000000e+02
1.736760e-10 -2.484450e-01 -4.000000e+02
-4.000000e+02 -4.002470e+02 4.762330e-10
7.599410e-11 -4.002470e+02 1.615870e-10
-4.000000e+02 -2.484450e-01 2.990270e-10
2.279390e-10 -2.484490e-01 7.133250e-11
1.229590e-10 -4.002470e+02 -4.000000e+02
4.000000e+02 -4.002470e+02 -4.000000e+02
1.736760e-10 -2.484450e-01 -4.000000e+02
4.000000e+02 -2.484400e-01 -4.000000e+02
7.599410e-11 -4.002470e+02 1.615870e-10
[...]
<PointData>
<DataArray type="Float32" Name="V1" format="ascii">
0.000000e+00
0.000000e+00
-3.916030e-08
1.900220e-10
0.000000e+00
0.000000e+00
-4.221610e-08
5.122240e-10
0.000000e+00
0.000000e+00
1.900220e-10
3.972590e-08
0.000000e+00
0.000000e+00
5.122240e-10
4.239680e-08
-3.916030e-08
1.900220e-10
1.629810e-07
-3.263870e-11
-4.221610e-08
5.122240e-10
1.690060e-07
-5.619520e-11
1.900220e-10
3.972590e-08
-3.263870e-11
-1.636330e-07
5.122240e-10
4.239680e-08
-5.619520e-11
-1.684480e-07
1.629810e-07
-3.263870e-11
-3.055600e-07
-7.565720e-10
1.690060e-07
-5.619520e-11
-3.150810e-07
3.676440e-10
-3.263870e-11
-1.636330e-07
-7.565720e-10
3.040130e-07
-5.619520e-11
-1.684480e-07
3.676440e-10
3.148850e-07
-3.055600e-07
-7.565720e-10
2.688270e-07
2.753280e-10
-3.150810e-07
3.676440e-10
2.839260e-07
1.626800e-10
-7.565720e-10
3.040130e-07
2.753280e-10
-2.682380e-07
3.676440e-10
3.148850e-07
1.626800e-10
-2.835490e-07
2.688270e-07
2.753280e-10
5.708680e-08
2.687840e-10
2.839260e-07
1.626800e-10
4.277390e-08
-3.097090e-10
2.753280e-10
-2.682380e-07
2.687840e-10
-5.645840e-08
1.626800e-10
-2.835490e-07
-3.097090e-10
-4.310380e-08
5.708680e-08
2.687840e-10
-4.556660e-07
3.959580e-10
4.277390e-08
-3.097090e-10
-4.589100e-07
-4.890710e-10
2.687840e-10
-5.645840e-08
3.959580e-10
4.564590e-07
-3.097090e-10
-4.310380e-08
-4.890710e-10
4.584310e-07
-4.556660e-07
3.959580e-10
5.594230e-07
6.698320e-10
-4.589100e-07
-4.890710e-10
6.080020e-07
7.609570e-11
3.959580e-10
4.564590e-07
6.698320e-10
-5.584330e-07
-4.890710e-10
4.584310e-07
7.609570e-11
-6.082460e-07
5.594230e-07
6.698320e-10
-5.528320e-07
-2.036470e-11
6.080020e-07
7.609570e-11
-6.837150e-07
-1.572200e-10
6.698320e-10
-5.584330e-07
-2.036470e-11
5.527690e-07
7.609570e-11
-6.082460e-07
-1.572200e-10
6.838800e-07
-5.528320e-07
-2.036470e-11
8.838760e-07
-3.235740e-10
-6.837150e-07
-1.572200e-10
1.108620e-06
-3.290480e-10
-2.036470e-11
5.527690e-07
-3.235740e-10
-8.844020e-07
-1.572200e-10
6.838800e-07
-3.290480e-10
-1.109360e-06
8.838760e-07
-3.235740e-10
-4.595860e-07
1.800650e-10
1.108620e-06
-3.290480e-10
-7.250270e-07
3.638690e-10
-3.235740e-10
-8.844020e-07
1.800650e-10
4.596720e-07
-3.290480e-10
-1.109360e-06
3.638690e-10
7.252390e-07
-4.595860e-07
1.800650e-10
-1.654840e-06
3.070600e-10
-7.250270e-07
3.638690e-10
-1.518580e-06
4.298550e-11
1.800650e-10
4.596720e-07
3.070600e-10
1.655220e-06
3.638690e-10
7.252390e-07
4.298550e-11
1.518980e-06
-1.654840e-06
3.070600e-10
2.260740e-06
8.173290e-11
-1.518580e-06
4.298550e-11
2.515940e-06
-1.400330e-10
3.070600e-10
1.655220e-06
8.173290e-11
-2.260060e-06
4.298550e-11
1.518980e-06
-1.400330e-10
-2.516000e-06
2.260740e-06
8.173290e-11
-3.358830e-07
-1.224450e-10
2.515940e-06
-1.400330e-10
-1.061170e-06
1.613390e-10
8.173290e-11
-2.260060e-06
-1.224450e-10
3.358280e-07
-1.400330e-10
-2.516000e-06
1.613390e-10
1.061350e-06
-3.358830e-07
-1.224450e-10
-5.620230e-07
-2.416830e-10
-1.061170e-06
1.613390e-10
1.974120e-08
1.522860e-10
-1.224450e-10
3.358280e-07
-2.416830e-10
5.616620e-07
1.613390e-10
1.061350e-06
1.522860e-10
-1.950550e-08
-5.620230e-07
-2.416830e-10
3.082190e-06
-1.015910e-10
1.974120e-08
1.522860e-10
3.444070e-06
-2.300590e-10
-2.416830e-10
5.616620e-07
-1.015910e-10
-3.082330e-06
1.522860e-10
-1.950550e-08
-2.300590e-10
-3.444230e-06
3.082190e-06
-1.015910e-10
-9.763760e-08
-8.872160e-11
3.444070e-06
-2.300590e-10
-3.129680e-07
3.074900e-12
-1.015910e-10
-3.082330e-06
-8.872160e-11
9.740190e-08
-2.300590e-10
-3.444230e-06
3.074900e-12
3.129520e-07
-9.763760e-08
-8.872160e-11
-4.823250e-06
1.482070e-10
-3.129680e-07
3.074900e-12
-4.610920e-06
1.832220e-10
-8.872160e-11
9.740190e-08
1.482070e-10
4.823200e-06
3.074900e-12
3.129520e-07
1.832220e-10
4.611160e-06
-4.823250e-06
1.482070e-10
-7.426360e-06
-9.890220e-11
-4.610920e-06
1.832220e-10
-7.681080e-06
-8.916500e-11
1.482070e-10
4.823200e-06
-9.890220e-11
7.426270e-06
1.832220e-10
4.611160e-06
-8.916500e-11
7.680970e-06
-7.426360e-06
-9.890220e-11
-5.619110e-06
6.457990e-12
-7.681080e-06
-8.916500e-11
-6.145620e-06
-8.163640e-11
-9.890220e-11
7.426270e-06
6.457990e-12
5.618930e-06
-8.916500e-11
7.680970e-06
-8.163640e-11
6.145580e-06
-5.619110e-06
6.457990e-12
3.545170e-07
7.018110e-11
-6.145620e-06
-8.163640e-11
3.883430e-07
-1.436560e-11
6.457990e-12
5.618930e-06
7.018110e-11
-3.541870e-07
-8.163640e-11
6.145580e-06
-1.436560e-11
-3.882170e-07
3.545170e-07
7.018110e-11
-3.764570e-07
-9.404060e-13
3.883430e-07
-1.436560e-11
-3.993800e-08
1.688570e-11
7.018110e-11
-3.541870e-07
-9.404060e-13
3.765910e-07
-1.436560e-11
-3.882170e-07
1.688570e-11
4.006370e-08
-3.764570e-07
-9.404060e-13
-3.407460e-07
6.656290e-11
-3.993800e-08
1.688570e-11
-6.140820e-07
7.181520e-11
-9.404060e-13
3.765910e-07
6.656290e-11
3.408790e-07
1.688570e-11
4.006370e-08
7.181520e-11
6.142320e-07
-3.407460e-07
6.656290e-11
4.799370e-06
6.043420e-11
-6.140820e-07
7.181520e-11
4.490570e-06
6.280990e-11
6.656290e-11
3.408790e-07
6.043420e-11
-4.799220e-06
7.181520e-11
6.142320e-07
6.280990e-11
-4.490440e-06
4.799370e-06
6.043420e-11
3.145200e-06
1.540110e-11
4.490570e-06
6.280990e-11
3.475020e-06
1.229370e-11
6.043420e-11
-4.799220e-06
1.540110e-11
-3.145170e-06
6.280990e-11
-4.490440e-06
1.229370e-11
-3.475020e-06
3.145200e-06
1.540110e-11
-2.779380e-06
-5.932550e-11
3.475020e-06
1.229370e-11
-2.665860e-06
-3.843110e-11
1.540110e-11
-3.145170e-06
-5.932550e-11
2.779230e-06
1.229370e-11
-3.475020e-06
-3.843110e-11
2.665780e-06
-2.779380e-06
-5.932550e-11
-6.053230e-07
-2.604660e-11
-2.665860e-06
-3.843110e-11
-7.050900e-07
-5.116100e-12
-5.932550e-11
2.779230e-06
-2.604660e-11
6.052760e-07
-3.843110e-11
2.665780e-06
-5.116100e-12
7.050820e-07
-6.053230e-07
-2.604660e-11
1.068440e-06
2.230530e-11
-7.050900e-07
-5.116100e-12
9.096350e-07
2.902060e-11
-2.604660e-11
6.052760e-07
2.230530e-11
-1.068400e-06
-5.116100e-12
7.050820e-07
2.902060e-11
-9.095640e-07
1.068440e-06
2.230530e-11
-5.774680e-06
-3.601190e-12
9.096350e-07
2.902060e-11
-5.555740e-06
-1.518680e-12
2.230530e-11
-1.068400e-06
-3.601190e-12
5.774700e-06
2.902060e-11
-9.095640e-07
-1.518680e-12
5.555740e-06
-5.774680e-06
-3.601190e-12
-1.168550e-06
-9.970430e-12
-5.555740e-06
-1.518680e-12
-1.150220e-06
-1.464380e-11
-3.601190e-12
5.774700e-06
-9.970430e-12
1.168530e-06
-1.518680e-12
5.555740e-06
-1.464380e-11
1.150190e-06
-1.168550e-06
-9.970430e-12
5.438990e-06
1.797970e-11
-1.150220e-06
-1.464380e-11
5.246900e-06
1.303780e-11
-9.970430e-12
1.168530e-06
1.797970e-11
-5.438960e-06
-1.464380e-11
1.150190e-06
1.303780e-11
-5.246880e-06
0.000000e+00
0.000000e+00
-4.221610e-08
5.122240e-10
0.000000e+00
0.000000e+00
-3.899530e-08
-1.971020e-11
0.000000e+00
0.000000e+00
5.122240e-10
4.239680e-08
0.000000e+00
0.000000e+00
-1.971020e-11
3.945100e-08
-4.221610e-08
5.122240e-10
1.690060e-07
-5.619520e-11
-3.899530e-08
-1.971020e-11
1.626040e-07
-1.875100e-10
5.122240e-10
4.239680e-08
-5.619520e-11
-1.684480e-07
-1.971020e-11
3.945100e-08
-1.875100e-10
-1.630990e-07
1.690060e-07
-5.619520e-11
-3.150810e-07
3.676440e-10
1.626040e-07
-1.875100e-10
-3.043510e-07
-4.766100e-12
-5.619520e-11
-1.684480e-07
3.676440e-10
3.148850e-07
-1.875100e-10
-1.630990e-07
-4.766100e-12
3.040680e-07
-3.150810e-07
3.676440e-10
2.839260e-07
1.626800e-10
-3.043510e-07
-4.766100e-12
2.687800e-07
1.509370e-10
3.676440e-10
3.148850e-07
1.626800e-10
-2.835490e-07
-4.766100e-12
3.040680e-07
1.509370e-10
-2.684740e-07
2.839260e-07
1.626800e-10
4.277390e-08
-3.097090e-10
2.687800e-07
1.509370e-10
5.758170e-08
3.078700e-10
1.626800e-10
-2.835490e-07
-3.097090e-10
-4.310380e-08
1.509370e-10
-2.684740e-07
3.078700e-10
-5.690620e-08
4.277390e-08
-3.097090e-10
-4.589100e-07
-4.890710e-10
5.758170e-08
3.078700e-10
-4.563410e-07
1.145730e-10
-3.097090e-10
-4.310380e-08
-4.890710e-10
4.584310e-07
3.078700e-10
-5.690620e-08
1.145730e-10
4.561290e-07
-4.589100e-07
-4.890710e-10
6.080020e-07
7.609570e-11
-4.563410e-07
1.145730e-10
5.591160e-07
4.131280e-10
-4.890710e-10
4.584310e-07
7.609570e-11
-6.082460e-07
1.145730e-10
4.561290e-07
4.131280e-10
-5.582840e-07
6.080020e-07
7.609570e-11
-6.837150e-07
-1.572200e-10
5.591160e-07
4.131280e-10
-5.536170e-07
4.037820e-11
7.609570e-11
-6.082460e-07
-1.572200e-10
6.838800e-07
4.131280e-10
-5.582840e-07
4.037820e-11
5.530680e-07
-6.837150e-07
-1.572200e-10
1.108620e-06
-3.290480e-10
-5.536170e-07
4.037820e-11
8.839150e-07
-1.660500e-11
-1.572200e-10
6.838800e-07
-3.290480e-10
-1.109360e-06
4.037820e-11
5.530680e-07
-1.660500e-11
-8.840570e-07
1.108620e-06
-3.290480e-10
-7.250270e-07
3.638690e-10
8.839150e-07
-1.660500e-11
-4.590750e-07
3.449560e-10
-3.290480e-10
-1.109360e-06
3.638690e-10
7.252390e-07
-1.660500e-11
-8.840570e-07
3.449560e-10
4.597900e-07
-7.250270e-07
3.638690e-10
-1.518580e-06
4.298550e-11
-4.590750e-07
3.449560e-10
-1.655480e-06
-1.910900e-10
3.638690e-10
7.252390e-07
4.298550e-11
1.518980e-06
3.449560e-10
4.597900e-07
-1.910900e-10
1.654740e-06
-1.518580e-06
4.298550e-11
2.515940e-06
-1.400330e-10
-1.655480e-06
-1.910900e-10
2.260560e-06
-5.964910e-11
4.298550e-11
1.518980e-06
-1.400330e-10
-2.516000e-06
-1.910900e-10
1.654740e-06
-5.964910e-11
-2.260680e-06
2.515940e-06
-1.400330e-10
-1.061170e-06
1.613390e-10
2.260560e-06
-5.964910e-11
-3.355220e-07
2.706070e-10
-1.400330e-10
-2.516000e-06
1.613390e-10
1.061350e-06
-5.964910e-11
-2.260680e-06
2.706070e-10
3.359070e-07
-1.061170e-06
1.613390e-10
1.974120e-08
1.522860e-10
-3.355220e-07
2.706070e-10
-5.618500e-07
-1.112350e-10
1.613390e-10
1.061350e-06
1.522860e-10
-1.950550e-08
2.706070e-10
3.359070e-07
-1.112350e-10
5.616460e-07
1.974120e-08
1.522860e-10
3.444070e-06
-2.300590e-10
-5.618500e-07
-1.112350e-10
3.082220e-06
8.437720e-11
1.522860e-10
-1.950550e-08
-2.300590e-10
-3.444230e-06
-1.112350e-10
5.616460e-07
8.437720e-11
-3.082260e-06
3.444070e-06
-2.300590e-10
-3.129680e-07
3.074900e-12
3.082220e-06
8.437720e-11
-9.729190e-08
-3.022360e-12
-2.300590e-10
-3.444230e-06
3.074900e-12
3.129520e-07
8.437720e-11
-3.082260e-06
-3.022360e-12
9.767690e-08
-3.129680e-07
3.074900e-12
-4.610920e-06
1.832220e-10
-9.729190e-08
-3.022360e-12
-4.823250e-06
5.564670e-11
3.074900e-12
3.129520e-07
1.832220e-10
4.611160e-06
-3.022360e-12
9.767690e-08
5.564670e-11
4.823290e-06
-4.610920e-06
1.832220e-10
-7.681080e-06
-8.916500e-11
-4.823250e-06
5.564670e-11
-7.426050e-06
1.488040e-10
1.832220e-10
4.611160e-06
-8.916500e-11
7.680970e-06
5.564670e-11
4.823290e-06
1.488040e-10
7.426460e-06
-7.681080e-06
-8.916500e-11
-6.145620e-06
-8.163640e-11
-7.426050e-06
1.488040e-10
-5.619040e-06
4.928950e-11
-8.916500e-11
7.680970e-06
-8.163640e-11
6.145580e-06
1.488040e-10
7.426460e-06
4.928950e-11
5.618890e-06
-6.145620e-06
-8.163640e-11
3.883430e-07
-1.436560e-11
-5.619040e-06
4.928950e-11
3.544140e-07
-1.177830e-11
-8.163640e-11
6.145580e-06
-1.436560e-11
-3.882170e-07
4.928950e-11
5.618890e-06
-1.177830e-11
-3.543830e-07
3.883430e-07
-1.436560e-11
-3.993800e-08
1.688570e-11
3.544140e-07
-1.177830e-11
-3.764970e-07
2.006290e-11
-1.436560e-11
-3.882170e-07
1.688570e-11
4.006370e-08
-1.177830e-11
-3.543830e-07
2.006290e-11
3.766220e-07
-3.993800e-08
1.688570e-11
-6.140820e-07
7.181520e-11
-3.764970e-07
2.006290e-11
-3.408240e-07
7.703060e-11
1.688570e-11
4.006370e-08
7.181520e-11
6.142320e-07
2.006290e-11
3.766220e-07
7.703060e-11
3.409660e-07
-6.140820e-07
7.181520e-11
4.490570e-06
6.280990e-11
-3.408240e-07
7.703060e-11
4.799290e-06
8.371420e-11
7.181520e-11
6.142320e-07
6.280990e-11
-4.490440e-06
7.703060e-11
3.409660e-07
8.371420e-11
-4.799150e-06
4.490570e-06
6.280990e-11
3.475020e-06
1.229370e-11
4.799290e-06
8.371420e-11
3.145170e-06
7.845950e-12
6.280990e-11
-4.490440e-06
1.229370e-11
-3.475020e-06
8.371420e-11
-4.799150e-06
7.845950e-12
-3.145160e-06
3.475020e-06
1.229370e-11
-2.665860e-06
-3.843110e-11
3.145170e-06
7.845950e-12
-2.779310e-06
-3.452190e-11
1.229370e-11
-3.475020e-06
-3.843110e-11
2.665780e-06
7.845950e-12
-3.145160e-06
-3.452190e-11
2.779240e-06
-2.665860e-06
-3.843110e-11
-7.050900e-07
-5.116100e-12
-2.779310e-06
-3.452190e-11
-6.052840e-07
6.845950e-12
-3.843110e-11
2.665780e-06
-5.116100e-12
7.050820e-07
-3.452190e-11
2.779240e-06
6.845950e-12
6.052840e-07
-7.050900e-07
-5.116100e-12
9.096350e-07
2.902060e-11
-6.052840e-07
6.845950e-12
1.068480e-06
3.068510e-11
-5.116100e-12
7.050820e-07
2.902060e-11
-9.095640e-07
6.845950e-12
6.052840e-07
3.068510e-11
-1.068400e-06
9.096350e-07
2.902060e-11
-5.555740e-06
-1.518680e-12
1.068480e-06
3.068510e-11
-5.774670e-06
2.273150e-13
2.902060e-11
-9.095640e-07
-1.518680e-12
5.555740e-06
3.068510e-11
-1.068400e-06
2.273150e-13
5.774700e-06
-5.555740e-06
-1.518680e-12
-1.150220e-06
-1.464380e-11
-5.774670e-06
2.273150e-13
-1.168550e-06
-1.075400e-11
-1.518680e-12
5.555740e-06
-1.464380e-11
1.150190e-06
2.273150e-13
5.774700e-06
-1.075400e-11
1.168530e-06
-1.150220e-06
-1.464380e-11
5.246900e-06
1.303780e-11
-1.168550e-06
-1.075400e-11
5.438990e-06
3.803770e-12
-1.464380e-11
1.150190e-06
1.303780e-11
-5.246880e-06
-1.075400e-11
1.168530e-06
3.803770e-12
-5.438990e-06
</DataArray>
<DataArray type="Float32" Name="V2" format="ascii">
0.000000e+00
0.000000e+00
1.272770e-02
1.272750e-02
0.000000e+00
0.000000e+00
1.272750e-02
1.272740e-02
0.000000e+00
0.000000e+00
1.272750e-02
1.272770e-02
0.000000e+00
0.000000e+00
1.272740e-02
1.272750e-02
1.272770e-02
1.272750e-02
-3.181420e-03
-3.181250e-03
1.272750e-02
1.272740e-02
-3.181250e-03
-3.181070e-03
1.272750e-02
1.272770e-02
-3.181250e-03
-3.181420e-03
1.272740e-02
1.272750e-02
-3.181070e-03
-3.181250e-03
-3.181420e-03
-3.181250e-03
-3.279240e-02
-3.279250e-02
-3.181250e-03
-3.181070e-03
-3.279250e-02
-3.279270e-02
-3.181250e-03
-3.181420e-03
-3.279250e-02
-3.279240e-02
-3.181070e-03
-3.181250e-03
-3.279270e-02
-3.279250e-02
-3.279240e-02
-3.279250e-02
-4.722360e-02
-4.722380e-02
-3.279250e-02
-3.279270e-02
-4.722380e-02
-4.722390e-02
-3.279250e-02
-3.279240e-02
-4.722380e-02
-4.722360e-02
-3.279270e-02
-3.279250e-02
-4.722390e-02
-4.722380e-02
-4.722360e-02
-4.722380e-02
-4.234290e-02
-4.234210e-02
-4.722380e-02
-4.722390e-02
-4.234210e-02
-4.234130e-02
-4.722380e-02
-4.722360e-02
-4.234210e-02
-4.234290e-02
-4.722390e-02
-4.722380e-02
-4.234130e-02
-4.234210e-02
-4.234290e-02
-4.234210e-02
-2.790200e-02
-2.790310e-02
-4.234210e-02
-4.234130e-02
-2.790310e-02
-2.790430e-02
-4.234210e-02
-4.234290e-02
-2.790310e-02
-2.790200e-02
-4.234130e-02
-4.234210e-02
-2.790430e-02
-2.790310e-02
-2.790200e-02
-2.790310e-02
-1.425530e-02
-1.425540e-02
-2.790310e-02
-2.790430e-02
-1.425540e-02
-1.425530e-02
-2.790310e-02
-2.790200e-02
-1.425540e-02
-1.425530e-02
-2.790430e-02
-2.790310e-02
-1.425530e-02
-1.425540e-02
-1.425530e-02
-1.425540e-02
-6.210700e-03
-6.208330e-03
-1.425540e-02
-1.425530e-02
-6.208330e-03
-6.206150e-03
-1.425540e-02
-1.425530e-02
-6.208330e-03
-6.210700e-03
-1.425530e-02
-1.425540e-02
-6.206150e-03
-6.208330e-03
-6.210700e-03
-6.208330e-03
-2.703700e-03
-2.705300e-03
-6.208330e-03
-6.206150e-03
-2.705300e-03
-2.706830e-03
-6.208330e-03
-6.210700e-03
-2.705300e-03
-2.703700e-03
-6.206150e-03
-6.208330e-03
-2.706830e-03
-2.705300e-03
-2.703700e-03
-2.705300e-03
-1.517280e-03
-1.520500e-03
-2.705300e-03
-2.706830e-03
-1.520500e-03
-1.523540e-03
-2.705300e-03
-2.703700e-03
-1.520500e-03
-1.517280e-03
-2.706830e-03
-2.705300e-03
-1.523540e-03
-1.520500e-03
-1.517280e-03
-1.520500e-03
-9.754640e-04
-9.749580e-04
-1.520500e-03
-1.523540e-03
-9.749570e-04
-9.748700e-04
-1.520500e-03
-1.517280e-03
-9.749580e-04
-9.754650e-04
-1.523540e-03
-1.520500e-03
-9.748700e-04
-9.749580e-04
-9.754640e-04
-9.749580e-04
-1.045410e-03
-1.035860e-03
-9.749570e-04
-9.748700e-04
-1.035860e-03
-1.025810e-03
-9.749580e-04
-9.754650e-04
-1.035860e-03
-1.045420e-03
-9.748700e-04
-9.749580e-04
-1.025810e-03
-1.035860e-03
-1.045410e-03
-1.035860e-03
-9.897200e-04
-9.887300e-04
-1.035860e-03
-1.025810e-03
-9.887310e-04
-9.883850e-04
-1.035860e-03
-1.045420e-03
-9.887300e-04
-9.897200e-04
-1.025810e-03
-1.035860e-03
-9.883850e-04
-9.887300e-04
-9.897200e-04
-9.887300e-04
-9.863910e-04
-1.000290e-03
-9.887310e-04
-9.883850e-04
-1.000290e-03
-1.013420e-03
-9.887300e-04
-9.897200e-04
-1.000290e-03
-9.863900e-04
-9.883850e-04
-9.887300e-04
-1.013420e-03
-1.000290e-03
-9.863910e-04
-1.000290e-03
-6.843450e-04
-6.887280e-04
-1.000290e-03
-1.013420e-03
-6.887280e-04
-6.923500e-04
-1.000290e-03
-9.863900e-04
-6.887280e-04
-6.843450e-04
-1.013420e-03
-1.000290e-03
-6.923500e-04
-6.887280e-04
-6.843450e-04
-6.887280e-04
-3.555560e-04
-3.547080e-04
-6.887280e-04
-6.923500e-04
-3.547080e-04
-3.557970e-04
-6.887280e-04
-6.843450e-04
-3.547080e-04
-3.555550e-04
-6.923500e-04
-6.887280e-04
-3.557970e-04
-3.547080e-04
-3.555560e-04
-3.547080e-04
-3.380830e-04
-3.349380e-04
-3.547080e-04
-3.557970e-04
-3.349380e-04
-3.318660e-04
-3.547080e-04
-3.555550e-04
-3.349380e-04
-3.380840e-04
-3.557970e-04
-3.547080e-04
-3.318660e-04
-3.349380e-04
-3.380830e-04
-3.349380e-04
-4.085700e-04
-4.063580e-04
-3.349380e-04
-3.318660e-04
-4.063580e-04
-4.046520e-04
-3.349380e-04
-3.380840e-04
-4.063580e-04
-4.085700e-04
-3.318660e-04
-3.349380e-04
-4.046520e-04
-4.063580e-04
-4.085700e-04
-4.063580e-04
-5.104750e-04
-5.015800e-04
-4.063580e-04
-4.046520e-04
-5.015800e-04
-4.918480e-04
-4.063580e-04
-4.085700e-04
-5.015800e-04
-5.104750e-04
-4.046520e-04
-4.063580e-04
-4.918480e-04
-5.015790e-04
-5.104750e-04
-5.015800e-04
-6.575290e-04
-6.376510e-04
-5.015800e-04
-4.918480e-04
-6.376510e-04
-6.219680e-04
-5.015800e-04
-5.104750e-04
-6.376510e-04
-6.575290e-04
-4.918480e-04
-5.015790e-04
-6.219680e-04
-6.376510e-04
-6.575290e-04
-6.376510e-04
-5.930000e-04
-5.849950e-04
-6.376510e-04
-6.219680e-04
-5.849950e-04
-5.770600e-04
-6.376510e-04
-6.575290e-04
-5.849950e-04
-5.930000e-04
-6.219680e-04
-6.376510e-04
-5.770600e-04
-5.849940e-04
-5.930000e-04
-5.849950e-04
-3.030030e-04
-3.275560e-04
-5.849950e-04
-5.770600e-04
-3.275560e-04
-3.487190e-04
-5.849950e-04
-5.930000e-04
-3.275560e-04
-3.030040e-04
-5.770600e-04
-5.849940e-04
-3.487190e-04
-3.275560e-04
-3.030030e-04
-3.275560e-04
-1.328530e-04
-1.290490e-04
-3.275560e-04
-3.487190e-04
-1.290490e-04
-1.305310e-04
-3.275560e-04
-3.030040e-04
-1.290490e-04
-1.328540e-04
-3.487190e-04
-3.275560e-04
-1.305310e-04
-1.290490e-04
-1.328530e-04
-1.290490e-04
-9.656030e-05
-9.176350e-05
-1.290490e-04
-1.305310e-04
-9.176350e-05
-8.727170e-05
-1.290490e-04
-1.328540e-04
-9.176350e-05
-9.656010e-05
-1.305310e-04
-1.290490e-04
-8.727170e-05
-9.176400e-05
-9.656030e-05
-9.176350e-05
-3.263670e-04
-3.298510e-04
-9.176350e-05
-8.727170e-05
-3.298510e-04
-3.316540e-04
-9.176350e-05
-9.656010e-05
-3.298510e-04
-3.263670e-04
-8.727170e-05
-9.176400e-05
-3.316540e-04
-3.298510e-04
-3.263670e-04
-3.298510e-04
-7.313500e-04
-7.344010e-04
-3.298510e-04
-3.316540e-04
-7.344010e-04
-7.354250e-04
-3.298510e-04
-3.263670e-04
-7.344010e-04
-7.313490e-04
-3.316540e-04
-3.298510e-04
-7.354250e-04
-7.344010e-04
-7.313500e-04
-7.344010e-04
-1.001910e-03
-9.971080e-04
-7.344010e-04
-7.354250e-04
-9.971080e-04
-9.936000e-04
-7.344010e-04
-7.313490e-04
-9.971080e-04
-1.001910e-03
-7.354250e-04
-7.344010e-04
-9.936000e-04
-9.971080e-04
-1.001910e-03
-9.971080e-04
-7.017210e-04
-6.640240e-04
-9.971080e-04
-9.936000e-04
-6.640250e-04
-6.340100e-04
-9.971080e-04
-1.001910e-03
-6.640240e-04
-7.017210e-04
-9.936000e-04
-9.971080e-04
-6.340100e-04
-6.640240e-04
-7.017210e-04
-6.640240e-04
-2.995160e-04
-3.118500e-04
-6.640250e-04
-6.340100e-04
-3.118500e-04
-3.199300e-04
-6.640240e-04
-7.017210e-04
-3.118500e-04
-2.995170e-04
-6.340100e-04
-6.640240e-04
-3.199300e-04
-3.118500e-04
-2.995160e-04
-3.118500e-04
-4.511010e-04
-4.602530e-04
-3.118500e-04
-3.199300e-04
-4.602530e-04
-4.688730e-04
-3.118500e-04
-2.995170e-04
-4.602530e-04
-4.511010e-04
-3.199300e-04
-3.118500e-04
-4.688730e-04
-4.602530e-04
0.000000e+00
0.000000e+00
1.272750e-02
1.272740e-02
0.000000e+00
0.000000e+00
1.272770e-02
1.272750e-02
0.000000e+00
0.000000e+00
1.272740e-02
1.272750e-02
0.000000e+00
0.000000e+00
1.272750e-02
1.272770e-02
1.272750e-02
1.272740e-02