<?xml version="1.0"?>
<VTKFile type="UnstructuredGrid" version="0.1" byte_order="LittleEndian" compressor="vtkZLibDataCompressor">
<UnstructuredGrid>
<Piece NumberOfPoints="960" NumberOfCells="120">
<Points>
<DataArray type="Float32" NumberOfComponents="3" format="ascii">
-4.000000e+02 -6.000000e+03 -4.000000e+02
0.000000e+00 -6.000000e+03 -4.000000e+02
-4.000000e+02 -5.600000e+03 -4.000000e+02
-8.049960e-10 -5.600000e+03 -4.000000e+02
-4.000000e+02 -6.000000e+03 0.000000e+00
0.000000e+00 -6.000000e+03 0.000000e+00
-4.000000e+02 -5.600000e+03 4.453540e-10
-3.517700e-10 -5.600000e+03 1.559210e-10
0.000000e+00 -6.000000e+03 -4.000000e+02
4.000000e+02 -6.000000e+03 -4.000000e+02
-8.049960e-10 -5.600000e+03 -4.000000e+02
4.000000e+02 -5.600000e+03 -4.000000e+02
0.000000e+00 -6.000000e+03 0.000000e+00
4.000000e+02 -6.000000e+03 0.000000e+00
-3.517700e-10 -5.600000e+03 1.559210e-10
4.000000e+02 -5.600000e+03 4.958840e-10
-4.000000e+02 -5.600000e+03 -4.000000e+02
-8.049960e-10 -5.600000e+03 -4.000000e+02
-4.000000e+02 -5.200000e+03 -4.000000e+02
-7.573200e-10 -5.200000e+03 -4.000000e+02
-4.000000e+02 -5.600000e+03 4.453540e-10
-3.517700e-10 -5.600000e+03 1.559210e-10
-4.000000e+02 -5.200000e+03 1.117270e-09
-3.684020e-10 -5.200000e+03 5.790140e-10
-8.049960e-10 -5.600000e+03 -4.000000e+02
4.000000e+02 -5.600000e+03 -4.000000e+02
-7.573200e-10 -5.200000e+03 -4.000000e+02
4.000000e+02 -5.200000e+03 -4.000000e+02
-3.517700e-10 -5.600000e+03 1.559210e-10
4.000000e+02 -5.600000e+03 4.958840e-10
-3.684020e-10 -5.200000e+03 5.790140e-10
4.000000e+02 -5.200000e+03 5.878950e-10
-4.000000e+02 -5.200000e+03 -4.000000e+02
-7.573200e-10 -5.200000e+03 -4.000000e+02
-4.000000e+02 -4.800000e+03 -4.000000e+02
-2.843380e-10 -4.800000e+03 -4.000000e+02
-4.000000e+02 -5.200000e+03 1.117270e-09
-3.684020e-10 -5.200000e+03 5.790140e-10
-4.000000e+02 -4.800000e+03 1.199630e-09
-5.012770e-10 -4.800000e+03 9.246240e-10
-7.573200e-10 -5.200000e+03 -4.000000e+02
4.000000e+02 -5.200000e+03 -4.000000e+02
-2.843380e-10 -4.800000e+03 -4.000000e+02
4.000000e+02 -4.800000e+03 -4.000000e+02
-3.684020e-10 -5.200000e+03 5.790140e-10
4.000000e+02 -5.200000e+03 5.878950e-10
-5.012770e-10 -4.800000e+03 9.246240e-10
4.000000e+02 -4.800000e+03 3.911780e-10
-4.000000e+02 -4.800000e+03 -4.000000e+02
-2.843380e-10 -4.800000e+03 -4.000000e+02
-4.000000e+02 -4.400000e+03 -4.000000e+02
-5.933040e-10 -4.400000e+03 -4.000000e+02
-4.000000e+02 -4.800000e+03 1.199630e-09
-5.012770e-10 -4.800000e+03 9.246240e-10
-4.000000e+02 -4.400000e+03 7.229160e-10
-5.496200e-10 -4.400000e+03 8.143580e-10
-2.843380e-10 -4.800000e+03 -4.000000e+02
4.000000e+02 -4.800000e+03 -4.000000e+02
-5.933040e-10 -4.400000e+03 -4.000000e+02
4.000000e+02 -4.400000e+03 -4.000000e+02
-5.012770e-10 -4.800000e+03 9.246240e-10
4.000000e+02 -4.800000e+03 3.911780e-10
-5.496200e-10 -4.400000e+03 8.143580e-10
4.000000e+02 -4.400000e+03 8.228850e-10
-4.000000e+02 -4.400000e+03 -4.000000e+02
-5.933040e-10 -4.400000e+03 -4.000000e+02
-4.000000e+02 -4.000010e+03 -4.000000e+02
-3.871460e-10 -4.000010e+03 -4.000000e+02
-4.000000e+02 -4.400000e+03 7.229160e-10
-5.496200e-10 -4.400000e+03 8.143580e-10
-4.000000e+02 -4.000010e+03 1.222350e-09
-2.762570e-10 -4.000010e+03 7.664040e-10
-5.933040e-10 -4.400000e+03 -4.000000e+02
4.000000e+02 -4.400000e+03 -4.000000e+02
-3.871460e-10 -4.000010e+03 -4.000000e+02
4.000000e+02 -4.000010e+03 -4.000000e+02
-5.496200e-10 -4.400000e+03 8.143580e-10
4.000000e+02 -4.400000e+03 8.228850e-10
-2.762570e-10 -4.000010e+03 7.664040e-10
4.000000e+02 -4.000010e+03 9.455320e-10
-4.000000e+02 -4.000010e+03 -4.000000e+02
-3.871460e-10 -4.000010e+03 -4.000000e+02
-4.000000e+02 -3.600010e+03 -4.000000e+02
-1.904350e-10 -3.600010e+03 -4.000000e+02
-4.000000e+02 -4.000010e+03 1.222350e-09
-2.762570e-10 -4.000010e+03 7.664040e-10
-4.000000e+02 -3.600010e+03 8.559540e-10
-1.531640e-10 -3.600010e+03 5.478230e-10
-3.871460e-10 -4.000010e+03 -4.000000e+02
4.000000e+02 -4.000010e+03 -4.000000e+02
-1.904350e-10 -3.600010e+03 -4.000000e+02
4.000000e+02 -3.600010e+03 -4.000000e+02
-2.762570e-10 -4.000010e+03 7.664040e-10
4.000000e+02 -4.000010e+03 9.455320e-10
-1.531640e-10 -3.600010e+03 5.478230e-10
4.000000e+02 -3.600010e+03 4.868120e-10
-4.000000e+02 -3.600010e+03 -4.000000e+02
-1.904350e-10 -3.600010e+03 -4.000000e+02
-4.000000e+02 -3.200010e+03 -4.000000e+02
2.174710e-10 -3.200010e+03 -4.000000e+02
-4.000000e+02 -3.600010e+03 8.559540e-10
-1.531640e-10 -3.600010e+03 5.478230e-10
-4.000000e+02 -3.200010e+03 6.150920e-10
3.526840e-10 -3.200010e+03 3.677700e-10
-1.904350e-10 -3.600010e+03 -4.000000e+02
4.000000e+02 -3.600010e+03 -4.000000e+02
2.174710e-10 -3.200010e+03 -4.000000e+02
4.000000e+02 -3.200010e+03 -4.000000e+02
-1.531640e-10 -3.600010e+03 5.478230e-10
4.000000e+02 -3.600010e+03 4.868120e-10
3.526840e-10 -3.200010e+03 3.677700e-10
4.000000e+02 -3.200010e+03 8.190980e-11
-4.000000e+02 -3.200010e+03 -4.000000e+02
2.174710e-10 -3.200010e+03 -4.000000e+02
-4.000000e+02 -2.800010e+03 -4.000000e+02
5.031420e-10 -2.800010e+03 -4.000000e+02
-4.000000e+02 -3.200010e+03 6.150920e-10
3.526840e-10 -3.200010e+03 3.677700e-10
-4.000000e+02 -2.800010e+03 7.659560e-10
4.338810e-10 -2.800010e+03 3.605570e-10
2.174710e-10 -3.200010e+03 -4.000000e+02
4.000000e+02 -3.200010e+03 -4.000000e+02
5.031420e-10 -2.800010e+03 -4.000000e+02
4.000000e+02 -2.800010e+03 -4.000000e+02
3.526840e-10 -3.200010e+03 3.677700e-10
4.000000e+02 -3.200010e+03 8.190980e-11
4.338810e-10 -2.800010e+03 3.605570e-10
4.000000e+02 -2.800010e+03 2.436110e-10
-4.000000e+02 -2.800010e+03 -4.000000e+02
5.031420e-10 -2.800010e+03 -4.000000e+02
-4.000000e+02 -2.400010e+03 -4.000000e+02
1.861640e-10 -2.400010e+03 -4.000000e+02
-4.000000e+02 -2.800010e+03 7.659560e-10
4.338810e-10 -2.800010e+03 3.605570e-10
-4.000000e+02 -2.400010e+03 7.874560e-11
2.384290e-10 -2.400010e+03 9.229720e-12
5.031420e-10 -2.800010e+03 -4.000000e+02
4.000000e+02 -2.800010e+03 -4.000000e+02
1.861640e-10 -2.400010e+03 -4.000000e+02
4.000000e+02 -2.400010e+03 -4.000000e+02
4.338810e-10 -2.800010e+03 3.605570e-10
4.000000e+02 -2.800010e+03 2.436110e-10
2.384290e-10 -2.400010e+03 9.229720e-12
4.000000e+02 -2.400010e+03 -1.657530e-10
-4.000000e+02 -2.400010e+03 -4.000000e+02
1.861640e-10 -2.400010e+03 -4.000000e+02
-4.000000e+02 -2.000010e+03 -4.000000e+02
2.862950e-10 -2.000010e+03 -4.000000e+02
-4.000000e+02 -2.400010e+03 7.874560e-11
2.384290e-10 -2.400010e+03 9.229720e-12
-4.000000e+02 -2.000010e+03 1.187410e-10
3.342010e-10 -2.000010e+03 1.646820e-10
1.861640e-10 -2.400010e+03 -4.000000e+02
4.000000e+02 -2.400010e+03 -4.000000e+02
2.862950e-10 -2.000010e+03 -4.000000e+02
4.000000e+02 -2.000010e+03 -4.000000e+02
2.384290e-10 -2.400010e+03 9.229720e-12
4.000000e+02 -2.400010e+03 -1.657530e-10
3.342010e-10 -2.000010e+03 1.646820e-10
4.000000e+02 -2.000010e+03 -6.325280e-10
-4.000000e+02 -2.000010e+03 -4.000000e+02
2.862950e-10 -2.000010e+03 -4.000000e+02
-4.000000e+02 -1.600020e+03 -4.000000e+02
-3.093210e-10 -1.600020e+03 -4.000000e+02
-4.000000e+02 -2.000010e+03 1.187410e-10
3.342010e-10 -2.000010e+03 1.646820e-10
-4.000000e+02 -1.600020e+03 5.307190e-10
1.558350e-10 -1.600020e+03 3.424180e-10
2.862950e-10 -2.000010e+03 -4.000000e+02
4.000000e+02 -2.000010e+03 -4.000000e+02
-3.093210e-10 -1.600020e+03 -4.000000e+02
4.000000e+02 -1.600020e+03 -4.000000e+02
3.342010e-10 -2.000010e+03 1.646820e-10
4.000000e+02 -2.000010e+03 -6.325280e-10
1.558350e-10 -1.600020e+03 3.424180e-10
4.000000e+02 -1.600020e+03 1.759400e-10
-4.000000e+02 -1.600020e+03 -4.000000e+02
-3.093210e-10 -1.600020e+03 -4.000000e+02
-4.000000e+02 -1.200020e+03 -4.000000e+02
-3.788500e-10 -1.200020e+03 -4.000000e+02
-4.000000e+02 -1.600020e+03 5.307190e-10
1.558350e-10 -1.600020e+03 3.424180e-10
-4.000000e+02 -1.200020e+03 8.624820e-10
-1.021660e-10 -1.200020e+03 5.802150e-10
-3.093210e-10 -1.600020e+03 -4.000000e+02
4.000000e+02 -1.600020e+03 -4.000000e+02
-3.788500e-10 -1.200020e+03 -4.000000e+02
4.000000e+02 -1.200020e+03 -4.000000e+02
1.558350e-10 -1.600020e+03 3.424180e-10
4.000000e+02 -1.600020e+03 1.759400e-10
-1.021660e-10 -1.200020e+03 5.802150e-10
4.000000e+02 -1.200020e+03 5.677760e-10
-4.000000e+02 -1.200020e+03 -4.000000e+02
-3.788500e-10 -1.200020e+03 -4.000000e+02
-4.000000e+02 -8.000280e+02 -4.000000e+02
-7.300410e-10 -8.000280e+02 -4.000000e+02
-4.000000e+02 -1.200020e+03 8.624820e-10
-1.021660e-10 -1.200020e+03 5.802150e-10
-4.000000e+02 -8.000280e+02 5.509970e-10
-3.623690e-10 -8.000280e+02 9.744270e-10
-3.788500e-10 -1.200020e+03 -4.000000e+02
4.000000e+02 -1.200020e+03 -4.000000e+02
-7.300410e-10 -8.000280e+02 -4.000000e+02
4.000000e+02 -8.000280e+02 -4.000000e+02
-1.021660e-10 -1.200020e+03 5.802150e-10
4.000000e+02 -1.200020e+03 5.677760e-10
-3.623690e-10 -8.000280e+02 9.744270e-10
4.000000e+02 -8.000280e+02 6.433620e-10
-4.000000e+02 -8.000280e+02 -4.000000e+02
-7.300410e-10 -8.000280e+02 -4.000000e+02
-4.000000e+02 -4.000410e+02 -4.000000e+02
-5.856880e-10 -4.000410e+02 -4.000000e+02
-4.000000e+02 -8.000280e+02 5.509970e-10
-3.623690e-10 -8.000280e+02 9.744270e-10
-4.000000e+02 -4.000410e+02 2.612270e-10
-4.973680e-11 -4.000410e+02 3.603650e-10
-7.300410e-10 -8.000280e+02 -4.000000e+02
4.000000e+02 -8.000280e+02 -4.000000e+02
-5.856880e-10 -4.000410e+02 -4.000000e+02
4.000000e+02 -4.000410e+02 -4.000000e+02
-3.623690e-10 -8.000280e+02 9.744270e-10
4.000000e+02 -8.000280e+02 6.433620e-10
-4.973680e-11 -4.000410e+02 3.603650e-10
4.000000e+02 -4.000410e+02 1.225520e-10
-4.000000e+02 -4.000410e+02 -4.000000e+02
-5.856880e-10 -4.000410e+02 -4.000000e+02
-4.000000e+02 -6.346770e-02 -4.000000e+02
7.416270e-10 -6.346750e-02 -4.000000e+02
-4.000000e+02 -4.000410e+02 2.612270e-10
-4.973680e-11 -4.000410e+02 3.603650e-10
-4.000000e+02 -6.346750e-02 1.764850e-10
1.048970e-09 -6.346720e-02 -7.565590e-11
-5.856880e-10 -4.000410e+02 -4.000000e+02
4.000000e+02 -4.000410e+02 -4.000000e+02
7.416270e-10 -6.346750e-02 -4.000000e+02
4.000000e+02 -6.346770e-02 -4.000000e+02
[...]
<PointData>
<DataArray type="Float32" Name="V1" format="ascii">
0.000000e+00
0.000000e+00
1.018360e-06
-1.982280e-10
0.000000e+00
0.000000e+00
1.133280e-06
2.966570e-10
0.000000e+00
0.000000e+00
-1.982280e-10
-1.019500e-06
0.000000e+00
0.000000e+00
2.966570e-10
-1.133060e-06
1.018360e-06
-1.982280e-10
2.182170e-06
-4.056680e-10
1.133280e-06
2.966570e-10
2.281560e-06
2.495990e-10
-1.982280e-10
-1.019500e-06
-4.056680e-10
-2.182290e-06
2.966570e-10
-1.133060e-06
2.495990e-10
-2.281290e-06
2.182170e-06
-4.056680e-10
-2.819490e-06
6.161460e-10
2.281560e-06
2.495990e-10
-2.738830e-06
6.130610e-10
-4.056680e-10
-2.182290e-06
6.161460e-10
2.820320e-06
2.495990e-10
-2.281290e-06
6.130610e-10
2.740090e-06
-2.819490e-06
6.161460e-10
5.950250e-07
6.432370e-10
-2.738830e-06
6.130610e-10
8.720920e-07
-2.743460e-10
6.161460e-10
2.820320e-06
6.432370e-10
-5.938540e-07
6.130610e-10
2.740090e-06
-2.743460e-10
-8.724070e-07
5.950250e-07
6.432370e-10
1.161380e-07
-2.183880e-10
8.720920e-07
-2.743460e-10
1.599480e-07
-3.274620e-10
6.432370e-10
-5.938540e-07
-2.183880e-10
-1.168450e-07
-2.743460e-10
-8.724070e-07
-3.274620e-10
-1.606160e-07
1.161380e-07
-2.183880e-10
4.128350e-06
6.587380e-11
1.599480e-07
-3.274620e-10
4.058310e-06
-1.131970e-10
-2.183880e-10
-1.168450e-07
6.587380e-11
-4.127660e-06
-3.274620e-10
-1.606160e-07
-1.131970e-10
-4.058970e-06
4.128350e-06
6.587380e-11
-6.298010e-07
-1.281030e-10
4.058310e-06
-1.131970e-10
-3.479180e-07
-5.553900e-11
6.587380e-11
-4.127660e-06
-1.281030e-10
6.293770e-07
-1.131970e-10
-4.058970e-06
-5.553900e-11
3.481140e-07
-6.298010e-07
-1.281030e-10
-5.421900e-06
1.660090e-10
-3.479180e-07
-5.553900e-11
-5.615710e-06
2.376630e-10
-1.281030e-10
6.293770e-07
1.660090e-10
5.421900e-06
-5.553900e-11
3.481140e-07
2.376630e-10
5.615410e-06
-5.421900e-06
1.660090e-10
1.360340e-06
7.493440e-11
-5.615710e-06
2.376630e-10
7.746510e-07
-9.590210e-11
1.660090e-10
5.421900e-06
7.493440e-11
-1.360390e-06
2.376630e-10
5.615410e-06
-9.590210e-11
-7.746360e-07
1.360340e-06
7.493440e-11
2.613450e-06
-2.360270e-11
7.746510e-07
-9.590210e-11
2.715200e-06
-7.762810e-11
7.493440e-11
-1.360390e-06
-2.360270e-11
-2.614090e-06
-9.590210e-11
-7.746360e-07
-7.762810e-11
-2.715530e-06
2.613450e-06
-2.360270e-11
3.945020e-07
1.043500e-10
2.715200e-06
-7.762810e-11
3.160080e-07
1.788640e-10
-2.360270e-11
-2.614090e-06
1.043500e-10
-3.941950e-07
-7.762810e-11
-2.715530e-06
1.788640e-10
-3.158360e-07
3.945020e-07
1.043500e-10
-3.533410e-06
3.957860e-10
3.160080e-07
1.788640e-10
-3.285750e-06
2.561430e-10
1.043500e-10
-3.941950e-07
3.957860e-10
3.534220e-06
1.788640e-10
-3.158360e-07
2.561430e-10
3.286520e-06
-3.533410e-06
3.957860e-10
-2.748390e-06
-6.636730e-11
-3.285750e-06
2.561430e-10
-2.735530e-06
-2.195870e-10
3.957860e-10
3.534220e-06
-6.636730e-11
2.748230e-06
2.561430e-10
3.286520e-06
-2.195870e-10
2.734790e-06
-2.748390e-06
-6.636730e-11
4.540580e-06
-3.256730e-10
-2.735530e-06
-2.195870e-10
4.237200e-06
1.240300e-10
-6.636730e-11
2.748230e-06
-3.256730e-10
-4.541460e-06
-2.195870e-10
2.734790e-06
1.240300e-10
-4.236780e-06
4.540580e-06
-3.256730e-10
2.626790e-06
2.523100e-10
4.237200e-06
1.240300e-10
2.727980e-06
6.636330e-10
-3.256730e-10
-4.541460e-06
2.523100e-10
-2.625880e-06
1.240300e-10
-4.236780e-06
6.636330e-10
-2.726790e-06
2.626790e-06
2.523100e-10
-1.924790e-06
-1.334430e-10
2.727980e-06
6.636330e-10
-1.888950e-06
-5.267020e-10
2.523100e-10
-2.625880e-06
-1.334430e-10
1.923640e-06
6.636330e-10
-2.726790e-06
-5.267020e-10
1.887830e-06
-1.924790e-06
-1.334430e-10
-2.870070e-06
-7.830310e-10
-1.888950e-06
-5.267020e-10
-2.820980e-06
-5.421110e-10
-1.334430e-10
1.923640e-06
-7.830310e-10
2.869480e-06
-5.267020e-10
1.887830e-06
-5.421110e-10
2.820010e-06
-2.870070e-06
-7.830310e-10
-5.383220e-06
1.360120e-09
-2.820980e-06
-5.421110e-10
-4.831090e-06
1.174120e-09
-7.830310e-10
2.869480e-06
1.360120e-09
5.385540e-06
-5.421110e-10
2.820010e-06
1.174120e-09
4.832700e-06
-5.383220e-06
1.360120e-09
-5.597170e-06
6.978550e-10
-4.831090e-06
1.174120e-09
-5.894140e-06
1.046360e-09
1.360120e-09
5.385540e-06
6.978550e-10
5.599490e-06
1.174120e-09
4.832700e-06
1.046360e-09
5.896640e-06
-5.597170e-06
6.978550e-10
-2.715300e-07
-1.170730e-09
-5.894140e-06
1.046360e-09
-3.872590e-07
-7.765000e-10
6.978550e-10
5.599490e-06
-1.170730e-09
2.708230e-07
1.046360e-09
5.896640e-06
-7.765000e-10
3.870390e-07
-2.715300e-07
-1.170730e-09
-1.436010e-07
-8.536070e-10
-3.872590e-07
-7.765000e-10
-2.321180e-07
-6.905940e-10
-1.170730e-09
2.708230e-07
-8.536070e-10
1.430670e-07
-7.765000e-10
3.870390e-07
-6.905940e-10
2.317410e-07
-1.436010e-07
-8.536070e-10
-1.880440e-06
-1.497200e-09
-2.321180e-07
-6.905940e-10
-1.854860e-06
-1.464890e-09
-8.536070e-10
1.430670e-07
-1.497200e-09
1.877970e-06
-6.905940e-10
2.317410e-07
-1.464890e-09
1.852340e-06
-1.880440e-06
-1.497200e-09
-1.085180e-06
-8.262340e-10
-1.854860e-06
-1.464890e-09
-1.075090e-06
-9.876010e-10
-1.497200e-09
1.877970e-06
-8.262340e-10
1.083640e-06
-1.464890e-09
1.852340e-06
-9.876010e-10
1.073210e-06
-1.085180e-06
-8.262340e-10
2.105540e-07
1.965890e-09
-1.075090e-06
-9.876010e-10
3.413190e-07
1.717750e-09
-8.262340e-10
1.083640e-06
1.965890e-09
-2.066190e-07
-9.876010e-10
1.073210e-06
1.717750e-09
-3.379020e-07
2.105540e-07
1.965890e-09
6.599360e-07
3.852950e-10
3.413190e-07
1.717750e-09
6.225820e-07
5.358080e-10
1.965890e-09
-2.066190e-07
3.852950e-10
-6.591340e-07
1.717750e-09
-3.379020e-07
5.358080e-10
-6.215530e-07
6.599360e-07
3.852950e-10
6.946180e-07
-7.698960e-10
6.225820e-07
5.358080e-10
4.796170e-07
-6.823990e-10
3.852950e-10
-6.591340e-07
-7.698960e-10
-6.961340e-07
5.358080e-10
-6.215530e-07
-6.823990e-10
-4.809770e-07
6.946180e-07
-7.698960e-10
-9.174040e-07
-6.411820e-12
4.796170e-07
-6.823990e-10
-7.907160e-07
-6.617870e-11
-7.698960e-10
-6.961340e-07
-6.411820e-12
9.173880e-07
-6.823990e-10
-4.809770e-07
-6.617870e-11
7.905670e-07
-9.174040e-07
-6.411820e-12
4.659570e-07
-4.011120e-10
-7.907160e-07
-6.617870e-11
2.267290e-07
-3.793600e-10
-6.411820e-12
9.173880e-07
-4.011120e-10
-4.667740e-07
-6.617870e-11
7.905670e-07
-3.793600e-10
-2.274830e-07
4.659570e-07
-4.011120e-10
2.630060e-07
2.195630e-10
2.267290e-07
-3.793600e-10
1.309240e-06
2.428370e-10
-4.011120e-10
-4.667740e-07
2.195630e-10
-2.625740e-07
-3.793600e-10
-2.274830e-07
2.428370e-10
-1.308750e-06
2.630060e-07
2.195630e-10
-1.097420e-06
4.100940e-10
1.309240e-06
2.428370e-10
-2.432500e-06
4.248770e-10
2.195630e-10
-2.625740e-07
4.100940e-10
1.098220e-06
2.428370e-10
-1.308750e-06
4.248770e-10
2.433360e-06
0.000000e+00
0.000000e+00
1.133280e-06
2.966570e-10
0.000000e+00
0.000000e+00
1.018070e-06
-5.187350e-11
0.000000e+00
0.000000e+00
2.966570e-10
-1.133060e-06
0.000000e+00
0.000000e+00
-5.187350e-11
-1.018550e-06
1.133280e-06
2.966570e-10
2.281560e-06
2.495990e-10
1.018070e-06
-5.187350e-11
2.181720e-06
-6.665210e-10
2.966570e-10
-1.133060e-06
2.495990e-10
-2.281290e-06
-5.187350e-11
-1.018550e-06
-6.665210e-10
-2.182620e-06
2.281560e-06
2.495990e-10
-2.738830e-06
6.130610e-10
2.181720e-06
-6.665210e-10
-2.820240e-06
-2.193990e-10
2.495990e-10
-2.281290e-06
6.130610e-10
2.740090e-06
-6.665210e-10
-2.182620e-06
-2.193990e-10
2.819900e-06
-2.738830e-06
6.130610e-10
8.720920e-07
-2.743460e-10
-2.820240e-06
-2.193990e-10
5.952680e-07
3.032580e-10
6.130610e-10
2.740090e-06
-2.743460e-10
-8.724070e-07
-2.193990e-10
2.819900e-06
3.032580e-10
-5.952210e-07
8.720920e-07
-2.743460e-10
1.599480e-07
-3.274620e-10
5.952680e-07
3.032580e-10
1.170720e-07
-6.232370e-12
-2.743460e-10
-8.724070e-07
-3.274620e-10
-1.606160e-07
3.032580e-10
-5.952210e-07
-6.232370e-12
-1.167110e-07
1.599480e-07
-3.274620e-10
4.058310e-06
-1.131970e-10
1.170720e-07
-6.232370e-12
4.127210e-06
-4.865090e-10
-3.274620e-10
-1.606160e-07
-1.131970e-10
-4.058970e-06
-6.232370e-12
-1.167110e-07
-4.865090e-10
-4.127460e-06
4.058310e-06
-1.131970e-10
-3.479180e-07
-5.553900e-11
4.127210e-06
-4.865090e-10
-6.292910e-07
-2.143290e-10
-1.131970e-10
-4.058970e-06
-5.553900e-11
3.481140e-07
-4.865090e-10
-4.127460e-06
-2.143290e-10
6.285920e-07
-3.479180e-07
-5.553900e-11
-5.615710e-06
2.376630e-10
-6.292910e-07
-2.143290e-10
-5.422030e-06
-5.413140e-10
-5.553900e-11
3.481140e-07
2.376630e-10
5.615410e-06
-2.143290e-10
6.285920e-07
-5.413140e-10
5.421140e-06
-5.615710e-06
2.376630e-10
7.746510e-07
-9.590210e-11
-5.422030e-06
-5.413140e-10
1.360210e-06
3.743190e-10
2.376630e-10
5.615410e-06
-9.590210e-11
-7.746360e-07
-5.413140e-10
5.421140e-06
3.743190e-10
-1.359830e-06
7.746510e-07
-9.590210e-11
2.715200e-06
-7.762810e-11
1.360210e-06
3.743190e-10
2.613830e-06
2.856810e-10
-9.590210e-11
-7.746360e-07
-7.762810e-11
-2.715530e-06
3.743190e-10
-1.359830e-06
2.856810e-10
-2.613390e-06
2.715200e-06
-7.762810e-11
3.160080e-07
1.788640e-10
2.613830e-06
2.856810e-10
3.940700e-07
-5.022500e-10
-7.762810e-11
-2.715530e-06
1.788640e-10
-3.158360e-07
2.856810e-10
-2.613390e-06
-5.022500e-10
-3.947140e-07
3.160080e-07
1.788640e-10
-3.285750e-06
2.561430e-10
3.940700e-07
-5.022500e-10
-3.534020e-06
7.978290e-11
1.788640e-10
-3.158360e-07
2.561430e-10
3.286520e-06
-5.022500e-10
-3.947140e-07
7.978290e-11
3.534260e-06
-3.285750e-06
2.561430e-10
-2.735530e-06
-2.195870e-10
-3.534020e-06
7.978290e-11
-2.748660e-06
6.562610e-11
2.561430e-10
3.286520e-06
-2.195870e-10
2.734790e-06
7.978290e-11
3.534260e-06
6.562610e-11
2.748860e-06
-2.735530e-06
-2.195870e-10
4.237200e-06
1.240300e-10
-2.748660e-06
6.562610e-11
4.541050e-06
-4.758570e-10
-2.195870e-10
2.734790e-06
1.240300e-10
-4.236780e-06
6.562610e-11
2.748860e-06
-4.758570e-10
-4.541680e-06
4.237200e-06
1.240300e-10
2.727980e-06
6.636330e-10
4.541050e-06
-4.758570e-10
2.626600e-06
2.115920e-10
1.240300e-10
-4.236780e-06
6.636330e-10
-2.726790e-06
-4.758570e-10
-4.541680e-06
2.115920e-10
-2.626300e-06
2.727980e-06
6.636330e-10
-1.888950e-06
-5.267020e-10
2.626600e-06
2.115920e-10
-1.924780e-06
-4.705770e-10
6.636330e-10
-2.726790e-06
-5.267020e-10
1.887830e-06
2.115920e-10
-2.626300e-06
-4.705770e-10
1.923450e-06
-1.888950e-06
-5.267020e-10
-2.820980e-06
-5.421110e-10
-1.924780e-06
-4.705770e-10
-2.870020e-06
-6.405340e-10
-5.267020e-10
1.887830e-06
-5.421110e-10
2.820010e-06
-4.705770e-10
1.923450e-06
-6.405340e-10
2.868660e-06
-2.820980e-06
-5.421110e-10
-4.831090e-06
1.174120e-09
-2.870020e-06
-6.405340e-10
-5.381800e-06
1.313340e-09
-5.421110e-10
2.820010e-06
1.174120e-09
4.832700e-06
-6.405340e-10
2.868660e-06
1.313340e-09
5.384400e-06
-4.831090e-06
1.174120e-09
-5.894140e-06
1.046360e-09
-5.381800e-06
1.313340e-09
-5.599860e-06
7.138960e-10
1.174120e-09
4.832700e-06
1.046360e-09
5.896640e-06
1.313340e-09
5.384400e-06
7.138960e-10
5.601720e-06
-5.894140e-06
1.046360e-09
-3.872590e-07
-7.765000e-10
-5.599860e-06
7.138960e-10
-2.723700e-07
-6.406510e-10
1.046360e-09
5.896640e-06
-7.765000e-10
3.870390e-07
7.138960e-10
5.601720e-06
-6.406510e-10
2.722130e-07
-3.872590e-07
-7.765000e-10
-2.321180e-07
-6.905940e-10
-2.723700e-07
-6.406510e-10
-1.449520e-07
-7.166970e-10
-7.765000e-10
3.870390e-07
-6.905940e-10
2.317410e-07
-6.406510e-10
2.722130e-07
-7.166970e-10
1.443630e-07
-2.321180e-07
-6.905940e-10
-1.854860e-06
-1.464890e-09
-1.449520e-07
-7.166970e-10
-1.880490e-06
-1.549970e-09
-6.905940e-10
2.317410e-07
-1.464890e-09
1.852340e-06
-7.166970e-10
1.443630e-07
-1.549970e-09
1.877690e-06
-1.854860e-06
-1.464890e-09
-1.075090e-06
-9.876010e-10
-1.880490e-06
-1.549970e-09
-1.085160e-06
-1.143650e-09
-1.464890e-09
1.852340e-06
-9.876010e-10
1.073210e-06
-1.549970e-09
1.877690e-06
-1.143650e-09
1.082940e-06
-1.075090e-06
-9.876010e-10
3.413190e-07
1.717750e-09
-1.085160e-06
-1.143650e-09
2.102010e-07
1.707330e-09
-9.876010e-10
1.073210e-06
1.717750e-09
-3.379020e-07
-1.143650e-09
1.082940e-06
1.707330e-09
-2.067760e-07
3.413190e-07
1.717750e-09
6.225820e-07
5.358080e-10
2.102010e-07
1.707330e-09
6.602420e-07
6.739880e-10
1.717750e-09
-3.379020e-07
5.358080e-10
-6.215530e-07
1.707330e-09
-2.067760e-07
6.739880e-10
-6.589220e-07
6.225820e-07
5.358080e-10
4.796170e-07
-6.823990e-10
6.602420e-07
6.739880e-10
6.946810e-07
-7.467490e-10
5.358080e-10
-6.215530e-07
-6.823990e-10
-4.809770e-07
6.739880e-10
-6.589220e-07
-7.467490e-10
-6.961740e-07
4.796170e-07
-6.823990e-10
-7.907160e-07
-6.617870e-11
6.946810e-07
-7.467490e-10
-9.174190e-07
-2.972760e-11
-6.823990e-10
-4.809770e-07
-6.617870e-11
7.905670e-07
-7.467490e-10
-6.961740e-07
-2.972760e-11
9.173960e-07
-7.907160e-07
-6.617870e-11
2.267290e-07
-3.793600e-10
-9.174190e-07
-2.972760e-11
4.660900e-07
-3.193320e-10
-6.617870e-11
7.905670e-07
-3.793600e-10
-2.274830e-07
-2.972760e-11
9.173960e-07
-3.193320e-10
-4.667030e-07
2.267290e-07
-3.793600e-10
1.309240e-06
2.428370e-10
4.660900e-07
-3.193320e-10
2.630220e-07
2.329820e-10
-3.793600e-10
-2.274830e-07
2.428370e-10
-1.308750e-06
-3.193320e-10
-4.667030e-07
2.329820e-10
-2.625590e-07
1.309240e-06
2.428370e-10
-2.432500e-06
4.248770e-10
2.630220e-07
2.329820e-10
-1.097400e-06
4.215750e-10
2.428370e-10
-1.308750e-06
4.248770e-10
2.433360e-06
2.329820e-10
-2.625590e-07
4.215750e-10
1.098240e-06
</DataArray>
<DataArray type="Float32" Name="V2" format="ascii">
0.000000e+00
0.000000e+00
3.825780e-04
3.905260e-04
0.000000e+00
0.000000e+00
3.905240e-04
4.004180e-04
0.000000e+00
0.000000e+00
3.905260e-04
3.825800e-04
0.000000e+00
0.000000e+00
4.004180e-04
3.905240e-04
3.825780e-04
3.905260e-04
6.298990e-04
6.354150e-04
3.905240e-04
4.004180e-04
6.354120e-04
6.400340e-04
3.905260e-04
3.825800e-04
6.354150e-04
6.299000e-04
4.004180e-04
3.905240e-04
6.400340e-04
6.354130e-04
6.298990e-04
6.354150e-04
4.398560e-04
4.351530e-04
6.354120e-04
6.400340e-04
4.351530e-04
4.307050e-04
6.354150e-04
6.299000e-04
4.351530e-04
4.398570e-04
6.400340e-04
6.354130e-04
4.307050e-04
4.351530e-04
4.398560e-04
4.351530e-04
1.526190e-04
1.563730e-04
4.351530e-04
4.307050e-04
1.563710e-04
1.603170e-04
4.351530e-04
4.398570e-04
1.563730e-04
1.526170e-04
4.307050e-04
4.351530e-04
1.603170e-04
1.563700e-04
1.526190e-04
1.563730e-04
-8.979320e-05
-8.006630e-05
1.563710e-04
1.603170e-04
-8.006740e-05
-7.072820e-05
1.563730e-04
1.526170e-04
-8.006630e-05
-8.979640e-05
1.603170e-04
1.563700e-04
-7.072820e-05
-8.006630e-05
-8.979320e-05
-8.006630e-05
1.324790e-04
1.225490e-04
-8.006740e-05
-7.072820e-05
1.225500e-04
1.129190e-04
-8.006630e-05
-8.979640e-05
1.225490e-04
1.324800e-04
-7.072820e-05
-8.006630e-05
1.129190e-04
1.225470e-04
1.324790e-04
1.225490e-04
3.442810e-04
3.327150e-04
1.225500e-04
1.129190e-04
3.327150e-04
3.201230e-04
1.225490e-04
1.324800e-04
3.327150e-04
3.442790e-04
1.129190e-04
1.225470e-04
3.201230e-04
3.327150e-04
3.442810e-04
3.327150e-04
4.317470e-04
4.337890e-04
3.327150e-04
3.201230e-04
4.337900e-04
4.358000e-04
3.327150e-04
3.442790e-04
4.337890e-04
4.317500e-04
3.201230e-04
3.327150e-04
4.358000e-04
4.337870e-04
4.317470e-04
4.337890e-04
8.036110e-04
8.028640e-04
4.337900e-04
4.358000e-04
8.028640e-04
8.021970e-04
4.337890e-04
4.317500e-04
8.028640e-04
8.036090e-04
4.358000e-04
4.337870e-04
8.021970e-04
8.028630e-04
8.036110e-04
8.028640e-04
1.073690e-03
1.075100e-03
8.028640e-04
8.021970e-04
1.075100e-03
1.076220e-03
8.028640e-04
8.036090e-04
1.075100e-03
1.073690e-03
8.021970e-04
8.028630e-04
1.076220e-03
1.075100e-03
1.073690e-03
1.075100e-03
1.207440e-03
1.214680e-03
1.075100e-03
1.076220e-03
1.214680e-03
1.223260e-03
1.075100e-03
1.073690e-03
1.214680e-03
1.207450e-03
1.076220e-03
1.075100e-03
1.223260e-03
1.214680e-03
1.207440e-03
1.214680e-03
2.512390e-03
2.520480e-03
1.214680e-03
1.223260e-03
2.520480e-03
2.528030e-03
1.214680e-03
1.207450e-03
2.520480e-03
2.512390e-03
1.223260e-03
1.214680e-03
2.528030e-03
2.520480e-03
2.512390e-03
2.520480e-03
6.263170e-03
6.263050e-03
2.520480e-03
2.528030e-03
6.263050e-03
6.262320e-03
2.520480e-03
2.512390e-03
6.263050e-03
6.263170e-03
2.528030e-03
2.520480e-03
6.262320e-03
6.263050e-03
6.263170e-03
6.263050e-03
1.127900e-02
1.128000e-02
6.263050e-03
6.262320e-03
1.128000e-02
1.128130e-02
6.263050e-03
6.263170e-03
1.128000e-02
1.127900e-02
6.262320e-03
6.263050e-03
1.128130e-02
1.128000e-02
1.127900e-02
1.128000e-02
1.903160e-02
1.903390e-02
1.128000e-02
1.128130e-02
1.903390e-02
1.903640e-02
1.128000e-02
1.127900e-02
1.903390e-02
1.903160e-02
1.128130e-02
1.128000e-02
1.903640e-02
1.903390e-02
1.903160e-02
1.903390e-02
2.977190e-02
2.977680e-02
1.903390e-02
1.903640e-02
2.977680e-02
2.978230e-02
1.903390e-02
1.903160e-02
2.977680e-02
2.977190e-02
1.903640e-02
1.903390e-02
2.978230e-02
2.977680e-02
2.977190e-02
2.977680e-02
3.921800e-02
3.922410e-02
2.977680e-02
2.978230e-02
3.922400e-02
3.923010e-02
2.977680e-02
2.977190e-02
3.922410e-02
3.921800e-02
2.978230e-02
2.977680e-02
3.923010e-02
3.922410e-02
3.921800e-02
3.922410e-02
4.110150e-02
4.109500e-02
3.922400e-02
3.923010e-02
4.109500e-02
4.108930e-02
3.922410e-02
3.921800e-02
4.109500e-02
4.110150e-02
3.923010e-02
3.922410e-02
4.108930e-02
4.109500e-02
4.110150e-02
4.109500e-02
2.947000e-02
2.946690e-02
4.109500e-02
4.108930e-02
2.946690e-02
2.946240e-02
4.109500e-02
4.110150e-02
2.946690e-02
2.947000e-02
4.108930e-02
4.109500e-02
2.946240e-02
2.946690e-02
2.947000e-02
2.946690e-02
7.019080e-03
7.013760e-03
2.946690e-02
2.946240e-02
7.013760e-03
7.008200e-03
2.946690e-02
2.947000e-02
7.013760e-03
7.019080e-03
2.946240e-02
2.946690e-02
7.008200e-03
7.013760e-03
7.019080e-03
7.013760e-03
-1.258470e-02
-1.258260e-02
7.013760e-03
7.008200e-03
-1.258260e-02
-1.258240e-02
7.013760e-03
7.019080e-03
-1.258260e-02
-1.258470e-02
7.008200e-03
7.013760e-03
-1.258240e-02
-1.258260e-02
-1.258470e-02
-1.258260e-02
-1.402230e-02
-1.402250e-02
-1.258260e-02
-1.258240e-02
-1.402250e-02
-1.402570e-02
-1.258260e-02
-1.258470e-02
-1.402250e-02
-1.402230e-02
-1.258240e-02
-1.258260e-02
-1.402570e-02
-1.402250e-02
-1.402230e-02
-1.402250e-02
-2.156420e-03
-2.149730e-03
-1.402250e-02
-1.402570e-02
-2.149720e-03
-2.144890e-03
-1.402250e-02
-1.402230e-02
-2.149730e-03
-2.156440e-03
-1.402570e-02
-1.402250e-02
-2.144890e-03
-2.149740e-03
-2.156420e-03
-2.149730e-03
5.941260e-03
5.945420e-03
-2.149720e-03
-2.144890e-03
5.945420e-03
5.951190e-03
-2.149730e-03
-2.156440e-03
5.945420e-03
5.941260e-03
-2.144890e-03
-2.149740e-03
5.951190e-03
5.945420e-03
5.941260e-03
5.945420e-03
3.008570e-03
3.000840e-03
5.945420e-03
5.951190e-03
3.000830e-03
2.996560e-03
5.945420e-03
5.941260e-03
3.000840e-03
3.008590e-03
5.951190e-03
5.945420e-03
2.996560e-03
3.000850e-03
3.008570e-03
3.000840e-03
-1.741580e-03
-1.743030e-03
3.000830e-03
2.996560e-03
-1.743030e-03
-1.743990e-03
3.000840e-03
3.008590e-03
-1.743030e-03
-1.741590e-03
2.996560e-03
3.000850e-03
-1.743990e-03
-1.743030e-03
-1.741580e-03
-1.743030e-03
-1.233960e-03
-1.220960e-03
-1.743030e-03
-1.743990e-03
-1.220960e-03
-1.211660e-03
-1.743030e-03
-1.741590e-03
-1.220960e-03
-1.233980e-03
-1.743990e-03
-1.743030e-03
-1.211660e-03
-1.220970e-03
-1.233960e-03
-1.220960e-03
1.691310e-04
1.634710e-04
-1.220960e-03
-1.211660e-03
1.634690e-04
1.593960e-04
-1.220960e-03
-1.233980e-03
1.634710e-04
1.691350e-04
-1.211660e-03
-1.220970e-03
1.593960e-04
1.634720e-04
1.691310e-04
1.634710e-04
2.073560e-04
2.072960e-04
1.634690e-04
1.593960e-04
2.072930e-04
2.042720e-04
1.634710e-04
1.691350e-04
2.072960e-04
2.073630e-04
1.593960e-04
1.634720e-04
2.042720e-04
2.072990e-04
2.073560e-04
2.072960e-04
7.784340e-05
7.859980e-05
2.072930e-04
2.042720e-04
7.859910e-05
8.557470e-05
2.072960e-04
2.073630e-04
7.859980e-05
7.784490e-05
2.042720e-04
2.072990e-04
8.557470e-05
7.860060e-05
0.000000e+00
0.000000e+00
3.905240e-04
4.004180e-04
0.000000e+00
0.000000e+00
3.825790e-04
3.905250e-04
0.000000e+00
0.000000e+00
4.004180e-04
3.905240e-04
0.000000e+00
0.000000e+00
3.905250e-04
3.825800e-04
3.905240e-04
4.004180e-04
6.354120e-04
6.400340e-04
3.825790e-04
3.905250e-04
6.298970e-04
6.354170e-04
4.004180e-04
3.905240e-04
6.400340e-04
6.354130e-04
3.905250e-04
3.825800e-04
6.354170e-04
6.298990e-04
6.354120e-04
6.400340e-04
4.351530e-04
4.307050e-04
6.298970e-04
6.354170e-04
4.398570e-04
4.351550e-04
6.400340e-04
6.354130e-04