<?xml version="1.0"?>
<VTKFile type="UnstructuredGrid" version="0.1" byte_order="LittleEndian" compressor="vtkZLibDataCompressor">
<UnstructuredGrid>
<Piece NumberOfPoints="960" NumberOfCells="120">
<Points>
<DataArray type="Float32" NumberOfComponents="3" format="ascii">
-4.000000e+02 -6.000000e+03 -4.000000e+02
0.000000e+00 -6.000000e+03 -4.000000e+02
-4.000000e+02 -5.600000e+03 -4.000000e+02
-1.094110e-10 -5.600000e+03 -4.000000e+02
-4.000000e+02 -6.000000e+03 0.000000e+00
0.000000e+00 -6.000000e+03 0.000000e+00
-4.000000e+02 -5.600000e+03 3.052640e-10
2.773910e-11 -5.600000e+03 1.978340e-10
0.000000e+00 -6.000000e+03 -4.000000e+02
4.000000e+02 -6.000000e+03 -4.000000e+02
-1.094110e-10 -5.600000e+03 -4.000000e+02
4.000000e+02 -5.600000e+03 -4.000000e+02
0.000000e+00 -6.000000e+03 0.000000e+00
4.000000e+02 -6.000000e+03 0.000000e+00
2.773910e-11 -5.600000e+03 1.978340e-10
4.000000e+02 -5.600000e+03 1.775730e-11
-4.000000e+02 -5.600000e+03 -4.000000e+02
-1.094110e-10 -5.600000e+03 -4.000000e+02
-4.000000e+02 -5.200010e+03 -4.000000e+02
7.067290e-11 -5.200010e+03 -4.000000e+02
-4.000000e+02 -5.600000e+03 3.052640e-10
2.773910e-11 -5.600000e+03 1.978340e-10
-4.000000e+02 -5.200010e+03 2.786790e-10
2.201920e-10 -5.200010e+03 2.543560e-10
-1.094110e-10 -5.600000e+03 -4.000000e+02
4.000000e+02 -5.600000e+03 -4.000000e+02
7.067290e-11 -5.200010e+03 -4.000000e+02
4.000000e+02 -5.200010e+03 -4.000000e+02
2.773910e-11 -5.600000e+03 1.978340e-10
4.000000e+02 -5.600000e+03 1.775730e-11
2.201920e-10 -5.200010e+03 2.543560e-10
4.000000e+02 -5.200010e+03 7.227190e-11
-4.000000e+02 -5.200010e+03 -4.000000e+02
7.067290e-11 -5.200010e+03 -4.000000e+02
-4.000000e+02 -4.800010e+03 -4.000000e+02
3.151990e-10 -4.800010e+03 -4.000000e+02
-4.000000e+02 -5.200010e+03 2.786790e-10
2.201920e-10 -5.200010e+03 2.543560e-10
-4.000000e+02 -4.800010e+03 2.870560e-10
2.453530e-10 -4.800010e+03 2.453850e-10
7.067290e-11 -5.200010e+03 -4.000000e+02
4.000000e+02 -5.200010e+03 -4.000000e+02
3.151990e-10 -4.800010e+03 -4.000000e+02
4.000000e+02 -4.800010e+03 -4.000000e+02
2.201920e-10 -5.200010e+03 2.543560e-10
4.000000e+02 -5.200010e+03 7.227190e-11
2.453530e-10 -4.800010e+03 2.453850e-10
4.000000e+02 -4.800010e+03 -1.453560e-11
-4.000000e+02 -4.800010e+03 -4.000000e+02
3.151990e-10 -4.800010e+03 -4.000000e+02
-4.000000e+02 -4.400020e+03 -4.000000e+02
8.438970e-10 -4.400020e+03 -4.000000e+02
-4.000000e+02 -4.800010e+03 2.870560e-10
2.453530e-10 -4.800010e+03 2.453850e-10
-4.000000e+02 -4.400020e+03 3.878750e-10
6.416460e-10 -4.400020e+03 6.398410e-11
3.151990e-10 -4.800010e+03 -4.000000e+02
4.000000e+02 -4.800010e+03 -4.000000e+02
8.438970e-10 -4.400020e+03 -4.000000e+02
4.000000e+02 -4.400020e+03 -4.000000e+02
2.453530e-10 -4.800010e+03 2.453850e-10
4.000000e+02 -4.800010e+03 -1.453560e-11
6.416460e-10 -4.400020e+03 6.398410e-11
4.000000e+02 -4.400020e+03 -8.869690e-11
-4.000000e+02 -4.400020e+03 -4.000000e+02
8.438970e-10 -4.400020e+03 -4.000000e+02
-4.000000e+02 -4.000040e+03 -4.000000e+02
4.505300e-10 -4.000040e+03 -4.000000e+02
-4.000000e+02 -4.400020e+03 3.878750e-10
6.416460e-10 -4.400020e+03 6.398410e-11
-4.000000e+02 -4.000040e+03 2.290290e-10
9.640910e-10 -4.000040e+03 4.183930e-10
8.438970e-10 -4.400020e+03 -4.000000e+02
4.000000e+02 -4.400020e+03 -4.000000e+02
4.505300e-10 -4.000040e+03 -4.000000e+02
4.000000e+02 -4.000040e+03 -4.000000e+02
6.416460e-10 -4.400020e+03 6.398410e-11
4.000000e+02 -4.400020e+03 -8.869690e-11
9.640910e-10 -4.000040e+03 4.183930e-10
4.000000e+02 -4.000040e+03 1.263430e-10
-4.000000e+02 -4.000040e+03 -4.000000e+02
4.505300e-10 -4.000040e+03 -4.000000e+02
-4.000000e+02 -3.600080e+03 -4.000000e+02
3.260010e-10 -3.600080e+03 -4.000000e+02
-4.000000e+02 -4.000040e+03 2.290290e-10
9.640910e-10 -4.000040e+03 4.183930e-10
-4.000000e+02 -3.600080e+03 1.246740e-09
6.278470e-10 -3.600080e+03 7.254960e-10
4.505300e-10 -4.000040e+03 -4.000000e+02
4.000000e+02 -4.000040e+03 -4.000000e+02
3.260010e-10 -3.600080e+03 -4.000000e+02
4.000000e+02 -3.600080e+03 -4.000000e+02
9.640910e-10 -4.000040e+03 4.183930e-10
4.000000e+02 -4.000040e+03 1.263430e-10
6.278470e-10 -3.600080e+03 7.254960e-10
4.000000e+02 -3.600080e+03 7.087640e-10
-4.000000e+02 -3.600080e+03 -4.000000e+02
3.260010e-10 -3.600080e+03 -4.000000e+02
-4.000000e+02 -3.200130e+03 -4.000000e+02
3.002370e-10 -3.200130e+03 -4.000000e+02
-4.000000e+02 -3.600080e+03 1.246740e-09
6.278470e-10 -3.600080e+03 7.254960e-10
-4.000000e+02 -3.200130e+03 1.230070e-09
4.014490e-10 -3.200130e+03 7.984590e-10
3.260010e-10 -3.600080e+03 -4.000000e+02
4.000000e+02 -3.600080e+03 -4.000000e+02
3.002370e-10 -3.200130e+03 -4.000000e+02
4.000000e+02 -3.200130e+03 -4.000000e+02
6.278470e-10 -3.600080e+03 7.254960e-10
4.000000e+02 -3.600080e+03 7.087640e-10
4.014490e-10 -3.200130e+03 7.984590e-10
4.000000e+02 -3.200130e+03 4.674270e-10
-4.000000e+02 -3.200130e+03 -4.000000e+02
3.002370e-10 -3.200130e+03 -4.000000e+02
-4.000000e+02 -2.800190e+03 -4.000000e+02
-9.991080e-11 -2.800190e+03 -4.000000e+02
-4.000000e+02 -3.200130e+03 1.230070e-09
4.014490e-10 -3.200130e+03 7.984590e-10
-4.000000e+02 -2.800190e+03 6.670530e-10
1.651460e-10 -2.800190e+03 7.633230e-10
3.002370e-10 -3.200130e+03 -4.000000e+02
4.000000e+02 -3.200130e+03 -4.000000e+02
-9.991080e-11 -2.800190e+03 -4.000000e+02
4.000000e+02 -2.800190e+03 -4.000000e+02
4.014490e-10 -3.200130e+03 7.984590e-10
4.000000e+02 -3.200130e+03 4.674270e-10
1.651460e-10 -2.800190e+03 7.633230e-10
4.000000e+02 -2.800190e+03 1.488410e-10
-4.000000e+02 -2.800190e+03 -4.000000e+02
-9.991080e-11 -2.800190e+03 -4.000000e+02
-4.000000e+02 -2.400240e+03 -4.000000e+02
-1.740830e-10 -2.400240e+03 -4.000000e+02
-4.000000e+02 -2.800190e+03 6.670530e-10
1.651460e-10 -2.800190e+03 7.633230e-10
-4.000000e+02 -2.400240e+03 6.363340e-10
-2.697190e-10 -2.400240e+03 2.289700e-10
-9.991080e-11 -2.800190e+03 -4.000000e+02
4.000000e+02 -2.800190e+03 -4.000000e+02
-1.740830e-10 -2.400240e+03 -4.000000e+02
4.000000e+02 -2.400240e+03 -4.000000e+02
1.651460e-10 -2.800190e+03 7.633230e-10
4.000000e+02 -2.800190e+03 1.488410e-10
-2.697190e-10 -2.400240e+03 2.289700e-10
4.000000e+02 -2.400240e+03 1.166010e-10
-4.000000e+02 -2.400240e+03 -4.000000e+02
-1.740830e-10 -2.400240e+03 -4.000000e+02
-4.000000e+02 -2.000280e+03 -4.000000e+02
-2.555700e-10 -2.000280e+03 -4.000000e+02
-4.000000e+02 -2.400240e+03 6.363340e-10
-2.697190e-10 -2.400240e+03 2.289700e-10
-4.000000e+02 -2.000280e+03 4.422130e-10
-2.435220e-10 -2.000280e+03 2.693980e-11
-1.740830e-10 -2.400240e+03 -4.000000e+02
4.000000e+02 -2.400240e+03 -4.000000e+02
-2.555700e-10 -2.000280e+03 -4.000000e+02
4.000000e+02 -2.000280e+03 -4.000000e+02
-2.697190e-10 -2.400240e+03 2.289700e-10
4.000000e+02 -2.400240e+03 1.166010e-10
-2.435220e-10 -2.000280e+03 2.693980e-11
4.000000e+02 -2.000280e+03 -1.322250e-10
-4.000000e+02 -2.000280e+03 -4.000000e+02
-2.555700e-10 -2.000280e+03 -4.000000e+02
-4.000000e+02 -1.600270e+03 -4.000000e+02
-7.440420e-12 -1.600270e+03 -4.000000e+02
-4.000000e+02 -2.000280e+03 4.422130e-10
-2.435220e-10 -2.000280e+03 2.693980e-11
-4.000000e+02 -1.600270e+03 6.295690e-10
-1.583380e-10 -1.600270e+03 4.234060e-10
-2.555700e-10 -2.000280e+03 -4.000000e+02
4.000000e+02 -2.000280e+03 -4.000000e+02
-7.440420e-12 -1.600270e+03 -4.000000e+02
4.000000e+02 -1.600270e+03 -4.000000e+02
-2.435220e-10 -2.000280e+03 2.693980e-11
4.000000e+02 -2.000280e+03 -1.322250e-10
-1.583380e-10 -1.600270e+03 4.234060e-10
4.000000e+02 -1.600270e+03 -1.673280e-10
-4.000000e+02 -1.600270e+03 -4.000000e+02
-7.440420e-12 -1.600270e+03 -4.000000e+02
-4.000000e+02 -1.200250e+03 -4.000000e+02
2.293160e-10 -1.200250e+03 -4.000000e+02
-4.000000e+02 -1.600270e+03 6.295690e-10
-1.583380e-10 -1.600270e+03 4.234060e-10
-4.000000e+02 -1.200250e+03 8.481950e-10
1.559310e-10 -1.200250e+03 4.110730e-10
-7.440420e-12 -1.600270e+03 -4.000000e+02
4.000000e+02 -1.600270e+03 -4.000000e+02
2.293160e-10 -1.200250e+03 -4.000000e+02
4.000000e+02 -1.200250e+03 -4.000000e+02
-1.583380e-10 -1.600270e+03 4.234060e-10
4.000000e+02 -1.600270e+03 -1.673280e-10
1.559310e-10 -1.200250e+03 4.110730e-10
4.000000e+02 -1.200250e+03 8.576590e-11
-4.000000e+02 -1.200250e+03 -4.000000e+02
2.293160e-10 -1.200250e+03 -4.000000e+02
-4.000000e+02 -8.002440e+02 -4.000000e+02
-2.630660e-10 -8.002440e+02 -4.000000e+02
-4.000000e+02 -1.200250e+03 8.481950e-10
1.559310e-10 -1.200250e+03 4.110730e-10
-4.000000e+02 -8.002440e+02 8.572750e-10
2.582590e-10 -8.002440e+02 2.604230e-10
2.293160e-10 -1.200250e+03 -4.000000e+02
4.000000e+02 -1.200250e+03 -4.000000e+02
-2.630660e-10 -8.002440e+02 -4.000000e+02
4.000000e+02 -8.002440e+02 -4.000000e+02
1.559310e-10 -1.200250e+03 4.110730e-10
4.000000e+02 -1.200250e+03 8.576590e-11
2.582590e-10 -8.002440e+02 2.604230e-10
4.000000e+02 -8.002440e+02 -3.399610e-12
-4.000000e+02 -8.002440e+02 -4.000000e+02
-2.630660e-10 -8.002440e+02 -4.000000e+02
-4.000000e+02 -4.002510e+02 -4.000000e+02
-2.730430e-10 -4.002510e+02 -4.000000e+02
-4.000000e+02 -8.002440e+02 8.572750e-10
2.582590e-10 -8.002440e+02 2.604230e-10
-4.000000e+02 -4.002510e+02 8.835020e-10
2.028510e-10 -4.002510e+02 6.306440e-10
-2.630660e-10 -8.002440e+02 -4.000000e+02
4.000000e+02 -8.002440e+02 -4.000000e+02
-2.730430e-10 -4.002510e+02 -4.000000e+02
4.000000e+02 -4.002510e+02 -4.000000e+02
2.582590e-10 -8.002440e+02 2.604230e-10
4.000000e+02 -8.002440e+02 -3.399610e-12
2.028510e-10 -4.002510e+02 6.306440e-10
4.000000e+02 -4.002510e+02 9.437040e-11
-4.000000e+02 -4.002510e+02 -4.000000e+02
-2.730430e-10 -4.002510e+02 -4.000000e+02
-4.000000e+02 -2.583320e-01 -4.000000e+02
2.084930e-10 -2.583310e-01 -4.000000e+02
-4.000000e+02 -4.002510e+02 8.835020e-10
2.028510e-10 -4.002510e+02 6.306440e-10
-4.000000e+02 -2.583310e-01 9.561670e-10
5.296650e-10 -2.583300e-01 7.664350e-10
-2.730430e-10 -4.002510e+02 -4.000000e+02
4.000000e+02 -4.002510e+02 -4.000000e+02
2.084930e-10 -2.583310e-01 -4.000000e+02
4.000000e+02 -2.583320e-01 -4.000000e+02
2.028510e-10 -4.002510e+02 6.306440e-10
[...]
<PointData>
<DataArray type="Float32" Name="V1" format="ascii">
0.000000e+00
0.000000e+00
-1.632570e-06
1.401620e-10
0.000000e+00
0.000000e+00
-1.564260e-06
-2.607950e-10
0.000000e+00
0.000000e+00
1.401620e-10
1.632860e-06
0.000000e+00
0.000000e+00
-2.607950e-10
1.564470e-06
-1.632570e-06
1.401620e-10
3.361050e-06
-4.597120e-10
-1.564260e-06
-2.607950e-10
3.140830e-06
3.992120e-11
1.401620e-10
1.632860e-06
-4.597120e-10
-3.362000e-06
-2.607950e-10
1.564470e-06
3.992120e-11
-3.140590e-06
3.361050e-06
-4.597120e-10
-2.812680e-06
-7.770620e-10
3.140830e-06
3.992120e-11
-2.322460e-06
2.711460e-10
-4.597120e-10
-3.362000e-06
-7.770620e-10
2.811430e-06
3.992120e-11
-3.140590e-06
2.711460e-10
2.322630e-06
-2.812680e-06
-7.770620e-10
-1.730120e-06
-8.934950e-11
-2.322460e-06
2.711460e-10
-2.135130e-06
-5.317230e-10
-7.770620e-10
2.811430e-06
-8.934950e-11
1.729600e-06
2.711460e-10
2.322630e-06
-5.317230e-10
2.134730e-06
-1.730120e-06
-8.934950e-11
3.362520e-06
3.532870e-10
-2.135130e-06
-5.317230e-10
3.457610e-06
-3.503650e-10
-8.934950e-11
1.729600e-06
3.532870e-10
-3.361640e-06
-5.317230e-10
2.134730e-06
-3.503650e-10
-3.458640e-06
3.362520e-06
3.532870e-10
6.359370e-07
-1.360310e-10
3.457610e-06
-3.503650e-10
6.972110e-07
-1.897260e-11
3.532870e-10
-3.361640e-06
-1.360310e-10
-6.368010e-07
-3.503650e-10
-3.458640e-06
-1.897260e-11
-6.968960e-07
6.359370e-07
-1.360310e-10
-1.766930e-06
2.248780e-10
6.972110e-07
-1.897260e-11
-1.807120e-06
2.923680e-11
-1.360310e-10
-6.368010e-07
2.248780e-10
1.766790e-06
-1.897260e-11
-6.968960e-07
2.923680e-11
1.807060e-06
-1.766930e-06
2.248780e-10
-2.849310e-07
-1.316920e-10
-1.807120e-06
2.923680e-11
-4.240470e-08
8.029400e-11
2.248780e-10
1.766790e-06
-1.316920e-10
2.852140e-07
2.923680e-11
1.807060e-06
8.029400e-11
4.277390e-08
-2.849310e-07
-1.316920e-10
1.114500e-06
1.879120e-11
-4.240470e-08
8.029400e-11
7.299210e-07
1.188290e-10
-1.316920e-10
2.852140e-07
1.879120e-11
-1.114530e-06
8.029400e-11
4.277390e-08
1.188290e-10
-7.293950e-07
1.114500e-06
1.879120e-11
-1.446140e-07
2.622350e-11
7.299210e-07
1.188290e-10
-2.868170e-07
-2.458400e-10
1.879120e-11
-1.114530e-06
2.622350e-11
1.445360e-07
1.188290e-10
-7.293950e-07
-2.458400e-10
2.865420e-07
-1.446140e-07
2.622350e-11
-2.816640e-06
-2.384130e-10
-2.868170e-07
-2.458400e-10
-2.799660e-06
2.437170e-12
2.622350e-11
1.445360e-07
-2.384130e-10
2.816230e-06
-2.458400e-10
2.865420e-07
2.437170e-12
2.799640e-06
-2.816640e-06
-2.384130e-10
-1.291260e-06
2.932510e-10
-2.799660e-06
2.437170e-12
-9.999980e-07
-1.258700e-10
-2.384130e-10
2.816230e-06
2.932510e-10
1.291980e-06
2.437170e-12
2.799640e-06
-1.258700e-10
9.998250e-07
-1.291260e-06
2.932510e-10
3.417690e-06
4.670290e-10
-9.999980e-07
-1.258700e-10
3.994850e-06
2.646170e-10
2.932510e-10
1.291980e-06
4.670290e-10
-3.416990e-06
-1.258700e-10
9.998250e-07
2.646170e-10
-3.994140e-06
3.417690e-06
4.670290e-10
4.615750e-06
-3.627500e-10
3.994850e-06
2.646170e-10
4.363960e-06
-1.642600e-11
4.670290e-10
-3.416990e-06
-3.627500e-10
-4.616030e-06
2.646170e-10
-3.994140e-06
-1.642600e-11
-4.364260e-06
4.615750e-06
-3.627500e-10
-8.373310e-07
-1.317250e-10
4.363960e-06
-1.642600e-11
-7.123480e-07
-9.717990e-11
-3.627500e-10
-4.616030e-06
-1.317250e-10
8.366950e-07
-1.642600e-11
-4.364260e-06
-9.717990e-11
7.122070e-07
-8.373310e-07
-1.317250e-10
-4.343670e-06
-1.555290e-10
-7.123480e-07
-9.717990e-11
-4.454050e-06
2.130230e-10
-1.317250e-10
8.366950e-07
-1.555290e-10
4.343450e-06
-9.717990e-11
7.122070e-07
2.130230e-10
4.454680e-06
-4.343670e-06
-1.555290e-10
9.905080e-07
3.903730e-10
-4.454050e-06
2.130230e-10
7.886420e-07
-3.868320e-11
-1.555290e-10
4.343450e-06
3.903730e-10
-9.903670e-07
2.130230e-10
4.454680e-06
-3.868320e-11
-7.885090e-07
9.905080e-07
3.903730e-10
4.674800e-06
3.109230e-11
7.886420e-07
-3.868320e-11
5.337650e-06
-3.203330e-10
3.903730e-10
-9.903670e-07
3.109230e-11
-4.675270e-06
-3.868320e-11
-7.885090e-07
-3.203330e-10
-5.338130e-06
4.674800e-06
3.109230e-11
4.467640e-06
1.223080e-10
5.337650e-06
-3.203330e-10
4.358600e-06
2.664350e-10
3.109230e-11
-4.675270e-06
1.223080e-10
-4.467410e-06
-3.203330e-10
-5.338130e-06
2.664350e-10
-4.358030e-06
4.467640e-06
1.223080e-10
-5.738540e-08
2.562930e-10
4.358600e-06
2.664350e-10
2.121730e-07
1.008900e-10
1.223080e-10
-4.467410e-06
2.562930e-10
5.781740e-08
2.664350e-10
-4.358030e-06
1.008900e-10
-2.120470e-07
-5.738540e-08
2.562930e-10
-2.182700e-06
-2.378720e-12
2.121730e-07
1.008900e-10
-2.326350e-06
-1.013590e-10
2.562930e-10
5.781740e-08
-2.378720e-12
2.182710e-06
1.008900e-10
-2.120470e-07
-1.013590e-10
2.326150e-06
-2.182700e-06
-2.378720e-12
-1.409640e-06
1.801050e-11
-2.326350e-06
-1.013590e-10
-1.598150e-06
4.848880e-11
-2.378720e-12
2.182710e-06
1.801050e-11
1.409680e-06
-1.013590e-10
2.326150e-06
4.848880e-11
1.598260e-06
-1.409640e-06
1.801050e-11
3.471160e-06
-2.584940e-10
-1.598150e-06
4.848880e-11
3.636750e-06
-2.229030e-10
1.801050e-11
1.409680e-06
-2.584940e-10
-3.471660e-06
4.848880e-11
1.598260e-06
-2.229030e-10
-3.637190e-06
3.471160e-06
-2.584940e-10
4.140430e-06
-2.569180e-10
3.636750e-06
-2.229030e-10
4.150670e-06
-2.600260e-10
-2.584940e-10
-3.471660e-06
-2.569180e-10
-4.140940e-06
-2.229030e-10
-3.637190e-06
-2.600260e-10
-4.151240e-06
4.140430e-06
-2.569180e-10
-5.149210e-07
1.456050e-10
4.150670e-06
-2.600260e-10
-6.971240e-07
1.307830e-10
-2.569180e-10
-4.140940e-06
1.456050e-10
5.152270e-07
-2.600260e-10
-4.151240e-06
1.307830e-10
6.974070e-07
-5.149210e-07
1.456050e-10
-1.850270e-06
1.187080e-10
-6.971240e-07
1.307830e-10
-1.921750e-06
1.387020e-10
1.456050e-10
5.152270e-07
1.187080e-10
1.850500e-06
1.307830e-10
6.974070e-07
1.387020e-10
1.922030e-06
-1.850270e-06
1.187080e-10
-1.244100e-06
1.362530e-10
-1.921750e-06
1.387020e-10
-1.211200e-06
1.752240e-10
1.187080e-10
1.850500e-06
1.362530e-10
1.244390e-06
1.387020e-10
1.922030e-06
1.752240e-10
1.211550e-06
-1.244100e-06
1.362530e-10
-3.240310e-06
1.515110e-10
-1.211200e-06
1.752240e-10
-3.514290e-06
1.571230e-10
1.362530e-10
1.244390e-06
1.515110e-10
3.240610e-06
1.752240e-10
1.211550e-06
1.571230e-10
3.514610e-06
-3.240310e-06
1.515110e-10
-1.319880e-05
-2.605020e-11
-3.514290e-06
1.571230e-10
-3.262690e-06
-3.954040e-11
1.515110e-10
3.240610e-06
-2.605020e-11
1.319870e-05
1.571230e-10
3.514610e-06
-3.954040e-11
3.262620e-06
-1.319880e-05
-2.605020e-11
4.132530e-05
-1.471560e-10
-3.262690e-06
-3.954040e-11
1.894630e-05
-1.505700e-10
-2.605020e-11
1.319870e-05
-1.471560e-10
-4.132560e-05
-3.954040e-11
3.262620e-06
-1.505700e-10
-1.894660e-05
0.000000e+00
0.000000e+00
-1.564260e-06
-2.607950e-10
0.000000e+00
0.000000e+00
-1.632810e-06
-2.807400e-10
0.000000e+00
0.000000e+00
-2.607950e-10
1.564470e-06
0.000000e+00
0.000000e+00
-2.807400e-10
1.632330e-06
-1.564260e-06
-2.607950e-10
3.140830e-06
3.992120e-11
-1.632810e-06
-2.807400e-10
3.361120e-06
-4.138690e-11
-2.607950e-10
1.564470e-06
3.992120e-11
-3.140590e-06
-2.807400e-10
1.632330e-06
-4.138690e-11
-3.360430e-06
3.140830e-06
3.992120e-11
-2.322460e-06
2.711460e-10
3.361120e-06
-4.138690e-11
-2.811950e-06
-4.914430e-11
3.992120e-11
-3.140590e-06
2.711460e-10
2.322630e-06
-4.138690e-11
-3.360430e-06
-4.914430e-11
2.812230e-06
-2.322460e-06
2.711460e-10
-2.135130e-06
-5.317230e-10
-2.811950e-06
-4.914430e-11
-1.729710e-06
1.596690e-10
2.711460e-10
2.322630e-06
-5.317230e-10
2.134730e-06
-4.914430e-11
2.812230e-06
1.596690e-10
1.729780e-06
-2.135130e-06
-5.317230e-10
3.457610e-06
-3.503650e-10
-1.729710e-06
1.596690e-10
3.362670e-06
9.596940e-11
-5.317230e-10
2.134730e-06
-3.503650e-10
-3.458640e-06
1.596690e-10
1.729780e-06
9.596940e-11
-3.362030e-06
3.457610e-06
-3.503650e-10
6.972110e-07
-1.897260e-11
3.362670e-06
9.596940e-11
6.357790e-07
6.466410e-10
-3.503650e-10
-3.458640e-06
-1.897260e-11
-6.968960e-07
9.596940e-11
-3.362030e-06
6.466410e-10
-6.352530e-07
6.972110e-07
-1.897260e-11
-1.807120e-06
2.923680e-11
6.357790e-07
6.466410e-10
-1.767980e-06
1.787110e-10
-1.897260e-11
-6.968960e-07
2.923680e-11
1.807060e-06
6.466410e-10
-6.352530e-07
1.787110e-10
1.767980e-06
-1.807120e-06
2.923680e-11
-4.240470e-08
8.029400e-11
-1.767980e-06
1.787110e-10
-2.846880e-07
-4.706440e-11
2.923680e-11
1.807060e-06
8.029400e-11
4.277390e-08
1.787110e-10
1.767980e-06
-4.706440e-11
2.847660e-07
-4.240470e-08
8.029400e-11
7.299210e-07
1.188290e-10
-2.846880e-07
-4.706440e-11
1.115420e-06
-3.857060e-10
8.029400e-11
4.277390e-08
1.188290e-10
-7.293950e-07
-4.706440e-11
2.847660e-07
-3.857060e-10
-1.115530e-06
7.299210e-07
1.188290e-10
-2.868170e-07
-2.458400e-10
1.115420e-06
-3.857060e-10
-1.440640e-07
1.216220e-10
1.188290e-10
-7.293950e-07
-2.458400e-10
2.865420e-07
-3.857060e-10
-1.115530e-06
1.216220e-10
1.439940e-07
-2.868170e-07
-2.458400e-10
-2.799660e-06
2.437170e-12
-1.440640e-07
1.216220e-10
-2.816670e-06
-4.643970e-10
-2.458400e-10
2.865420e-07
2.437170e-12
2.799640e-06
1.216220e-10
1.439940e-07
-4.643970e-10
2.815740e-06
-2.799660e-06
2.437170e-12
-9.999980e-07
-1.258700e-10
-2.816670e-06
-4.643970e-10
-1.290740e-06
-3.129040e-11
2.437170e-12
2.799640e-06
-1.258700e-10
9.998250e-07
-4.643970e-10
2.815740e-06
-3.129040e-11
1.290960e-06
-9.999980e-07
-1.258700e-10
3.994850e-06
2.646170e-10
-1.290740e-06
-3.129040e-11
3.417460e-06
4.573180e-10
-1.258700e-10
9.998250e-07
2.646170e-10
-3.994140e-06
-3.129040e-11
1.290960e-06
4.573180e-10
-3.417120e-06
3.994850e-06
2.646170e-10
4.363960e-06
-1.642600e-11
3.417460e-06
4.573180e-10
4.614130e-06
-3.234870e-10
2.646170e-10
-3.994140e-06
-1.642600e-11
-4.364260e-06
4.573180e-10
-3.417120e-06
-3.234870e-10
-4.615070e-06
4.363960e-06
-1.642600e-11
-7.123480e-07
-9.717990e-11
4.614130e-06
-3.234870e-10
-8.357680e-07
-1.476500e-10
-1.642600e-11
-4.364260e-06
-9.717990e-11
7.122070e-07
-3.234870e-10
-4.615070e-06
-1.476500e-10
8.357440e-07
-7.123480e-07
-9.717990e-11
-4.454050e-06
2.130230e-10
-8.357680e-07
-1.476500e-10
-4.343140e-06
-2.850520e-10
-9.717990e-11
7.122070e-07
2.130230e-10
4.454680e-06
-1.476500e-10
8.357440e-07
-2.850520e-10
4.342930e-06
-4.454050e-06
2.130230e-10
7.886420e-07
-3.868320e-11
-4.343140e-06
-2.850520e-10
9.897850e-07
2.598890e-10
2.130230e-10
4.454680e-06
-3.868320e-11
-7.885090e-07
-2.850520e-10
4.342930e-06
2.598890e-10
-9.891100e-07
7.886420e-07
-3.868320e-11
5.337650e-06
-3.203330e-10
9.897850e-07
2.598890e-10
4.673980e-06
-1.727430e-10
-3.868320e-11
-7.885090e-07
-3.203330e-10
-5.338130e-06
2.598890e-10
-9.891100e-07
-1.727430e-10
-4.674350e-06
5.337650e-06
-3.203330e-10
4.358600e-06
2.664350e-10
4.673980e-06
-1.727430e-10
4.467140e-06
6.080450e-11
-3.203330e-10
-5.338130e-06
2.664350e-10
-4.358030e-06
-1.727430e-10
-4.674350e-06
6.080450e-11
-4.467500e-06
4.358600e-06
2.664350e-10
2.121730e-07
1.008900e-10
4.467140e-06
6.080450e-11
-5.758170e-08
9.851530e-11
2.664350e-10
-4.358030e-06
1.008900e-10
-2.120470e-07
6.080450e-11
-4.467500e-06
9.851530e-11
5.770740e-08
2.121730e-07
1.008900e-10
-2.326350e-06
-1.013590e-10
-5.758170e-08
9.851530e-11
-2.182980e-06
-6.685000e-11
1.008900e-10
-2.120470e-07
-1.013590e-10
2.326150e-06
9.851530e-11
5.770740e-08
-6.685000e-11
2.182850e-06
-2.326350e-06
-1.013590e-10
-1.598150e-06
4.848880e-11
-2.182980e-06
-6.685000e-11
-1.409660e-06
1.729440e-10
-1.013590e-10
2.326150e-06
4.848880e-11
1.598260e-06
-6.685000e-11
2.182850e-06
1.729440e-10
1.410080e-06
-1.598150e-06
4.848880e-11
3.636750e-06
-2.229030e-10
-1.409660e-06
1.729440e-10
3.471210e-06
-1.797570e-10
4.848880e-11
1.598260e-06
-2.229030e-10
-3.637190e-06
1.729440e-10
1.410080e-06
-1.797570e-10
-3.471550e-06
3.636750e-06
-2.229030e-10
4.150670e-06
-2.600260e-10
3.471210e-06
-1.797570e-10
4.140360e-06
-2.552360e-10
-2.229030e-10
-3.637190e-06
-2.600260e-10
-4.151240e-06
-1.797570e-10
-3.471550e-06
-2.552360e-10
-4.140940e-06
4.150670e-06
-2.600260e-10
-6.971240e-07
1.307830e-10
4.140360e-06
-2.552360e-10
-5.149910e-07
1.326740e-10
-2.600260e-10
-4.151240e-06
1.307830e-10
6.974070e-07
-2.552360e-10
-4.140940e-06
1.326740e-10
5.152580e-07
-6.971240e-07
1.307830e-10
-1.921750e-06
1.387020e-10
-5.149910e-07
1.326740e-10
-1.850200e-06
1.828710e-10
1.307830e-10
6.974070e-07
1.387020e-10
1.922030e-06
1.326740e-10
5.152580e-07
1.828710e-10
1.850560e-06
-1.921750e-06
1.387020e-10
-1.211200e-06
1.752240e-10
-1.850200e-06
1.828710e-10
-1.243980e-06
2.162020e-10
1.387020e-10
1.922030e-06
1.752240e-10
1.211550e-06
1.828710e-10
1.850560e-06
2.162020e-10
1.244420e-06
-1.211200e-06
1.752240e-10
-3.514290e-06
1.571230e-10
-1.243980e-06
2.162020e-10
-3.240280e-06
1.550490e-10
1.752240e-10
1.211550e-06
1.571230e-10
3.514610e-06
2.162020e-10
1.244420e-06
1.550490e-10
3.240600e-06
-3.514290e-06
1.571230e-10
-3.262690e-06
-3.954040e-11
-3.240280e-06
1.550490e-10
-1.319880e-05
-5.111560e-11
1.571230e-10
3.514610e-06
-3.954040e-11
3.262620e-06
1.550490e-10
3.240600e-06
-5.111560e-11
1.319870e-05
-3.262690e-06
-3.954040e-11
1.894630e-05
-1.505700e-10
-1.319880e-05
-5.111560e-11
4.132530e-05
-1.503970e-10
-3.954040e-11
3.262620e-06
-1.505700e-10
-1.894660e-05
-5.111560e-11
1.319870e-05
-1.503970e-10
-4.132560e-05
</DataArray>
<DataArray type="Float32" Name="V2" format="ascii">
0.000000e+00
0.000000e+00
7.654570e-05
7.936630e-05
0.000000e+00
0.000000e+00
7.936520e-05
8.325380e-05
0.000000e+00
0.000000e+00
7.936630e-05
7.654500e-05
0.000000e+00
0.000000e+00
8.325380e-05
7.936510e-05
7.654570e-05
7.936630e-05
1.320030e-03
1.315990e-03
7.936520e-05
8.325380e-05
1.315980e-03
1.311180e-03
7.936630e-05
7.654500e-05
1.315990e-03
1.320030e-03
8.325380e-05
7.936510e-05
1.311180e-03
1.315980e-03
1.320030e-03
1.315990e-03
3.548000e-03
3.544810e-03
1.315980e-03
1.311180e-03
3.544800e-03
3.541880e-03
1.315990e-03
1.320030e-03
3.544810e-03
3.548000e-03
1.311180e-03
1.315980e-03
3.541880e-03
3.544810e-03
3.548000e-03
3.544810e-03
8.432330e-03
8.439340e-03
3.544800e-03
3.541880e-03
8.439340e-03
8.446720e-03
3.544810e-03
3.548000e-03
8.439340e-03
8.432330e-03
3.541880e-03
3.544810e-03
8.446720e-03
8.439340e-03
8.432330e-03
8.439340e-03
1.642330e-02
1.642740e-02
8.439340e-03
8.446720e-03
1.642740e-02
1.643030e-02
8.439340e-03
8.432330e-03
1.642740e-02
1.642330e-02
8.446720e-03
8.439340e-03
1.643030e-02
1.642740e-02
1.642330e-02
1.642740e-02
2.804500e-02
2.804180e-02
1.642740e-02
1.643030e-02
2.804180e-02
2.803980e-02
1.642740e-02
1.642330e-02
2.804180e-02
2.804500e-02
1.643030e-02
1.642740e-02
2.803980e-02
2.804180e-02
2.804500e-02
2.804180e-02
3.933430e-02
3.932890e-02
2.804180e-02
2.803980e-02
3.932890e-02
3.932360e-02
2.804180e-02
2.804500e-02
3.932890e-02
3.933430e-02
2.803980e-02
2.804180e-02
3.932360e-02
3.932890e-02
3.933430e-02
3.932890e-02
4.306790e-02
4.306510e-02
3.932890e-02
3.932360e-02
4.306510e-02
4.306060e-02
3.932890e-02
3.933430e-02
4.306510e-02
4.306790e-02
3.932360e-02
3.932890e-02
4.306060e-02
4.306510e-02
4.306790e-02
4.306510e-02
3.201080e-02
3.201150e-02
4.306510e-02
4.306060e-02
3.201150e-02
3.201280e-02
4.306510e-02
4.306790e-02
3.201150e-02
3.201080e-02
4.306060e-02
4.306510e-02
3.201280e-02
3.201150e-02
3.201080e-02
3.201150e-02
8.668870e-03
8.669440e-03
3.201150e-02
3.201280e-02
8.669440e-03
8.670630e-03
3.201150e-02
3.201080e-02
8.669440e-03
8.668870e-03
3.201280e-02
3.201150e-02
8.670630e-03
8.669440e-03
8.668870e-03
8.669440e-03
-1.158220e-02
-1.157450e-02
8.669440e-03
8.670630e-03
-1.157450e-02
-1.156680e-02
8.669440e-03
8.668870e-03
-1.157450e-02
-1.158220e-02
8.670630e-03
8.669440e-03
-1.156680e-02
-1.157450e-02
-1.158220e-02
-1.157450e-02
-1.371620e-02
-1.370900e-02
-1.157450e-02
-1.156680e-02
-1.370900e-02
-1.370090e-02
-1.157450e-02
-1.158220e-02
-1.370900e-02
-1.371620e-02
-1.156680e-02
-1.157450e-02
-1.370090e-02
-1.370900e-02
-1.371620e-02
-1.370900e-02
-4.159590e-06
-2.162860e-06
-1.370900e-02
-1.370090e-02
-2.161680e-06
-2.111120e-07
-1.370900e-02
-1.371620e-02
-2.162860e-06
-4.160840e-06
-1.370090e-02
-1.370900e-02
-2.111120e-07
-2.162870e-06
-4.159590e-06
-2.162860e-06
7.418940e-03
7.413480e-03
-2.161680e-06
-2.111120e-07
7.413480e-03
7.407490e-03
-2.162860e-06
-4.160840e-06
7.413480e-03
7.418940e-03
-2.111120e-07
-2.162870e-06
7.407490e-03
7.413480e-03
7.418940e-03
7.413480e-03
2.107590e-04
2.112550e-04
7.413480e-03
7.407490e-03
2.112570e-04
2.113690e-04
7.413480e-03
7.418940e-03
2.112550e-04
2.107590e-04
7.407490e-03
7.413480e-03
2.113690e-04
2.112570e-04
2.107590e-04
2.112550e-04
-3.938930e-03
-3.940160e-03
2.112570e-04
2.113690e-04
-3.940160e-03
-3.940970e-03
2.112550e-04
2.107590e-04
-3.940160e-03
-3.938930e-03
2.113690e-04
2.112570e-04
-3.940970e-03
-3.940160e-03
-3.938930e-03
-3.940160e-03
-1.973450e-04
-2.087700e-04
-3.940160e-03
-3.940970e-03
-2.087720e-04
-2.197850e-04
-3.940160e-03
-3.938930e-03
-2.087700e-04
-1.973450e-04
-3.940970e-03
-3.940160e-03
-2.197850e-04
-2.087710e-04
-1.973450e-04
-2.087700e-04
8.513050e-04
8.456570e-04
-2.087720e-04
-2.197850e-04
8.456580e-04
8.400010e-04
-2.087700e-04
-1.973450e-04
8.456570e-04
8.513040e-04
-2.197850e-04
-2.087710e-04
8.400010e-04
8.456570e-04
8.513050e-04
8.456570e-04
-8.762970e-04
-8.755120e-04
8.456580e-04
8.400010e-04
-8.755120e-04
-8.752450e-04
8.456570e-04
8.513040e-04
-8.755120e-04
-8.762970e-04
8.400010e-04
8.456570e-04
-8.752450e-04
-8.755100e-04
-8.762970e-04
-8.755120e-04
-7.684720e-04
-7.687890e-04
-8.755120e-04
-8.752450e-04
-7.687870e-04
-7.681670e-04
-8.755120e-04
-8.762970e-04
-7.687890e-04
-7.684740e-04
-8.752450e-04
-8.755100e-04
-7.681670e-04
-7.687870e-04
-7.684720e-04
-7.687890e-04
-1.469780e-04
-1.512540e-04
-7.687870e-04
-7.681670e-04
-1.512540e-04
-1.482850e-04
-7.687890e-04
-7.684740e-04
-1.512540e-04
-1.469780e-04
-7.681670e-04
-7.687870e-04
-1.482850e-04
-1.512540e-04
-1.469780e-04
-1.512540e-04
-1.452030e-04
-1.548610e-04
-1.512540e-04
-1.482850e-04
-1.548620e-04
-1.679690e-04
-1.512540e-04
-1.469780e-04
-1.548610e-04
-1.452030e-04
-1.482850e-04
-1.512540e-04
-1.679690e-04
-1.548620e-04
-1.452030e-04
-1.548610e-04
-3.574040e-04
-3.685440e-04
-1.548620e-04
-1.679690e-04
-3.685440e-04
-3.813590e-04
-1.548610e-04
-1.452030e-04
-3.685440e-04
-3.574030e-04
-1.679690e-04
-1.548620e-04
-3.813590e-04
-3.685440e-04
-3.574040e-04
-3.685440e-04
-3.356360e-04
-3.294430e-04
-3.685440e-04
-3.813590e-04
-3.294420e-04
-3.210040e-04
-3.685440e-04
-3.574030e-04
-3.294430e-04
-3.356370e-04
-3.813590e-04
-3.685440e-04
-3.210040e-04
-3.294430e-04
-3.356360e-04
-3.294430e-04
-2.279350e-04
-2.183090e-04
-3.294420e-04
-3.210040e-04
-2.183090e-04
-2.083930e-04
-3.294430e-04
-3.356370e-04
-2.183090e-04
-2.279400e-04
-3.210040e-04
-3.294430e-04
-2.083930e-04
-2.183110e-04
-2.279350e-04
-2.183090e-04
-2.356790e-04
-2.229120e-04
-2.183090e-04
-2.083930e-04
-2.229110e-04
-2.142840e-04
-2.183090e-04
-2.279400e-04
-2.229120e-04
-2.356790e-04
-2.083930e-04
-2.183110e-04
-2.142840e-04
-2.229110e-04
-2.356790e-04
-2.229120e-04
-2.533310e-04
-2.517090e-04
-2.229110e-04
-2.142840e-04
-2.517100e-04
-2.526490e-04
-2.229120e-04
-2.356790e-04
-2.517090e-04
-2.533280e-04
-2.142840e-04
-2.229110e-04
-2.526490e-04
-2.517080e-04
-2.533310e-04
-2.517090e-04
-1.650090e-04
-1.716980e-04
-2.517100e-04
-2.526490e-04
-1.716980e-04
-1.795710e-04
-2.517090e-04
-2.533280e-04
-1.716980e-04
-1.650070e-04
-2.526490e-04
-2.517080e-04
-1.795710e-04
-1.716960e-04
-1.650090e-04
-1.716980e-04
-1.272450e-04
-1.573190e-04
-1.716980e-04
-1.795710e-04
-1.573190e-04
-1.676100e-04
-1.716980e-04
-1.650070e-04
-1.573190e-04
-1.272450e-04
-1.795710e-04
-1.716960e-04
-1.676100e-04
-1.573190e-04
-1.272450e-04
-1.573190e-04
-4.331280e-07
-1.211760e-04
-1.573190e-04
-1.676100e-04
-1.211770e-04
-8.500830e-05
-1.573190e-04
-1.272450e-04
-1.211760e-04
-4.328760e-07
-1.676100e-04
-1.573190e-04
-8.500830e-05
-1.211760e-04
0.000000e+00
0.000000e+00
7.936520e-05
8.325380e-05
0.000000e+00
0.000000e+00
7.654690e-05
7.936520e-05
0.000000e+00
0.000000e+00
8.325380e-05
7.936510e-05
0.000000e+00
0.000000e+00
7.936520e-05
7.654500e-05
7.936520e-05
8.325380e-05
1.315980e-03
1.311180e-03
7.654690e-05
7.936520e-05
1.320030e-03
1.315980e-03
8.325380e-05
7.936510e-05
1.311180e-03
1.315980e-03
7.936520e-05
7.654500e-05
1.315980e-03
1.320030e-03