<?xml version="1.0"?>
<!-- time 76.2408-->
<VTKFile type="UnstructuredGrid" version="0.1" byte_order="LittleEndian">
<UnstructuredGrid>
<Piece NumberOfPoints="960" NumberOfCells="0">
<Points>
  <DataArray type="Float32" Name="Position" NumberOfComponents="3" format="ascii">
	-300 2099.63 -300
	-300 2099.64 -100
	-300 2099.64 100
	-300 2099.63 300
	-100 2099.64 -300
	-100 2099.5 -100
	-100 2099.5 100
	-100 2099.64 300
	100 2099.64 -300
	100 2099.5 -100
	100 2099.5 100
	100 2099.64 300
	300 2099.63 -300
	300 2099.64 -100
	300 2099.64 100
	300 2099.63 300
	-300 2299.64 -300
	-300 2299.64 -100
	-300 2299.64 100
	-300 2299.64 300
	-100 2299.64 -300
	-100 2299.59 -100
	-100 2299.59 100
	-100 2299.64 300
	100 2299.64 -300
	100 2299.59 -100
	100 2299.59 100
	100 2299.64 300
	300 2299.64 -300
	300 2299.64 -100
	300 2299.64 100
	300 2299.64 300
	-300 2499.68 -300
	-300 2499.67 -100
	-300 2499.67 100
	-300 2499.68 300
	-100 2499.67 -300
	-100 2499.59 -100
	-100 2499.59 100
	-100 2499.67 300
	100 2499.67 -300
	100 2499.59 -100
	100 2499.59 100
	100 2499.67 300
	300 2499.68 -300
	300 2499.67 -100
	300 2499.67 100
	300 2499.68 300
	-300 2699.69 -300
	-300 2699.67 -100
	-300 2699.67 100
	-300 2699.69 300
	-100 2699.67 -300
	-100 2699.65 -100
	-100 2699.65 100
	-100 2699.67 300
	100 2699.67 -300
	100 2699.65 -100
	100 2699.65 100
	100 2699.67 300
	300 2699.69 -300
	300 2699.67 -100
	300 2699.67 100
	300 2699.69 300
	-300 2899.68 -300
	-300 2899.67 -100
	-300 2899.67 100
	-300 2899.68 300
	-100 2899.67 -300
	-100 2899.65 -100
	-100 2899.65 100
	-100 2899.67 300
	100 2899.67 -300
	100 2899.65 -100
	100 2899.65 100
	100 2899.67 300
	300 2899.68 -300
	300 2899.67 -100
	300 2899.67 100
	300 2899.68 300
	-300 3099.69 -300
	-300 3099.67 -100
	-300 3099.67 100
	-300 3099.69 300
	-100 3099.67 -300
	-100 3099.65 -100
	-100 3099.65 100
	-100 3099.67 300
	100 3099.67 -300
	100 3099.65 -100
	100 3099.65 100
	100 3099.67 300
	300 3099.69 -300
	300 3099.67 -100
	300 3099.67 100
	300 3099.69 300
	-300 3299.69 -300
	-300 3299.67 -100
	-300 3299.67 100
	-300 3299.69 300
	-100 3299.67 -300
	-100 3299.65 -100
	-100 3299.65 100
	-100 3299.67 300
	100 3299.67 -300
	100 3299.65 -100
	100 3299.65 100
	100 3299.67 300
	300 3299.69 -300
	300 3299.67 -100
	300 3299.67 100
	300 3299.69 300
	-300 3499.69 -300
	-300 3499.67 -100
	-300 3499.67 100
	-300 3499.69 300
	-100 3499.67 -300
	-100 3499.65 -100
	-100 3499.65 100
	-100 3499.67 300
	100 3499.67 -300
	100 3499.65 -100
	100 3499.65 100
	100 3499.67 300
	300 3499.69 -300
	300 3499.67 -100
	300 3499.67 100
	300 3499.69 300
	-300 3699.69 -300
	-300 3699.67 -100
	-300 3699.67 100
	-300 3699.69 300
	-100 3699.67 -300
	-100 3699.65 -100
	-100 3699.65 100
	-100 3699.67 300
	100 3699.67 -300
	100 3699.65 -100
	100 3699.65 100
	100 3699.67 300
	300 3699.69 -300
	300 3699.67 -100
	300 3699.67 100
	300 3699.69 300
	-300 3899.69 -300
	-300 3899.67 -100
	-300 3899.67 100
	-300 3899.69 300
	-100 3899.67 -300
	-100 3899.65 -100
	-100 3899.65 100
	-100 3899.67 300
	100 3899.67 -300
	100 3899.65 -100
	100 3899.65 100
	100 3899.67 300
	300 3899.69 -300
	300 3899.67 -100
	300 3899.67 100
	300 3899.69 300
	-300 4099.69 -300
	-300 4099.67 -100
	-300 4099.67 100
	-300 4099.69 300
	-100 4099.67 -300
	-100 4099.66 -100
	-100 4099.66 100
	-100 4099.67 300
	100 4099.67 -300
	100 4099.66 -100
	100 4099.66 100
	100 4099.67 300
	300 4099.69 -300
	300 4099.67 -100
	300 4099.67 100
	300 4099.69 300
	-300 4299.69 -300
	-300 4299.68 -100
	-300 4299.68 100
	-300 4299.69 300
	-100 4299.68 -300
	-100 4299.65 -100
	-100 4299.65 100
	-100 4299.68 300
	100 4299.68 -300
	100 4299.65 -100
	100 4299.65 100
	100 4299.68 300
	300 4299.69 -300
	300 4299.68 -100
	300 4299.68 100
	300 4299.69 300
	-300 4499.69 -300
	-300 4499.68 -100
	-300 4499.68 100
	-300 4499.69 300
	-100 4499.68 -300
	-100 4499.66 -100
	-100 4499.66 100
	-100 4499.68 300
	100 4499.68 -300
	100 4499.66 -100
	100 4499.66 100
	100 4499.68 300
	300 4499.69 -300
	300 4499.68 -100
	300 4499.68 100
	300 4499.69 300
	-300 4699.69 -300
	-300 4699.68 -100
	-300 4699.68 100
	-300 4699.69 300
	-100 4699.68 -300
	-100 4699.66 -100
	-100 4699.66 100
	-100 4699.68 300
	100 4699.68 -300
	100 4699.66 -100
	100 4699.66 100
	100 4699.68 300
	300 4699.69 -300
	300 4699.68 -100
	300 4699.68 100
	300 4699.69 300
	-300 4899.69 -300
	-300 4899.68 -100
	-300 4899.68 100
	-300 4899.69 300
	-100 4899.68 -300
	-100 4899.67 -100
	-100 4899.67 100
	-100 4899.68 300
	100 4899.68 -300
	100 4899.67 -100
	100 4899.67 100
	100 4899.68 300
	300 4899.69 -300
	300 4899.68 -100
	300 4899.68 100
	300 4899.69 300
	-300 5099.69 -300
	-300 5099.68 -100
	-300 5099.68 100
	-300 5099.69 300
	-100 5099.68 -300
	-100 5099.68 -100
	-100 5099.68 100
	-100 5099.68 300
	100 5099.68 -300
	100 5099.68 -100
	100 5099.68 100
	100 5099.68 300
	300 5099.69 -300
	300 5099.68 -100
	300 5099.68 100
	300 5099.69 300
	-300 5299.7 -300
	-300 5299.69 -100
	-300 5299.69 100
	-300 5299.7 300
	-100 5299.69 -300
	-100 5299.68 -100
	-100 5299.68 100
	-100 5299.69 300
	100 5299.69 -300
	100 5299.68 -100
	100 5299.68 100
	100 5299.69 300
	300 5299.7 -300
	300 5299.69 -100
	300 5299.69 100
	300 5299.7 300
	-300 5499.7 -300
	-300 5499.69 -100
	-300 5499.69 100
	-300 5499.7 300
	-100 5499.69 -300
	-100 5499.68 -100
	-100 5499.68 100
	-100 5499.69 300
	100 5499.69 -300
	100 5499.68 -100
	100 5499.68 100
	100 5499.69 300
	300 5499.7 -300
	300 5499.69 -100
	300 5499.69 100
	300 5499.7 300
	-300 5699.7 -300
	-300 5699.69 -100
	-300 5699.69 100
	-300 5699.7 300
	-100 5699.69 -300
	-100 5699.68 -100
	-100 5699.68 100
	-100 5699.69 300
	100 5699.69 -300
	100 5699.68 -100
	100 5699.68 100
	100 5699.69 300
	300 5699.7 -300
	300 5699.69 -100
	300 5699.69 100
	300 5699.7 300
	-300 5899.71 -300
	-300 5899.69 -100
	-300 5899.69 100
	-300 5899.71 300
	-100 5899.69 -300
	-100 5899.68 -100
	-100 5899.68 100
	-100 5899.69 300
	100 5899.69 -300
	100 5899.68 -100
	100 5899.68 100
	100 5899.69 300
	300 5899.71 -300
	300 5899.69 -100
	300 5899.69 100
	300 5899.71 300
	-300 6099.71 -300
	-300 6099.69 -100
	-300 6099.69 100
	-300 6099.71 300
	-100 6099.69 -300
	-100 6099.68 -100
	-100 6099.68 100
	-100 6099.69 300
	100 6099.69 -300
	100 6099.68 -100
	100 6099.68 100
	100 6099.69 300
	300 6099.71 -300
	300 6099.69 -100
	300 6099.69 100
	300 6099.71 300
	-300 6299.72 -300
	-300 6299.7 -100
	-300 6299.7 100
	-300 6299.72 300
	-100 6299.7 -300
	-100 6299.7 -100
	-100 6299.7 100
	-100 6299.7 300
	100 6299.7 -300
	100 6299.7 -100
	100 6299.7 100
	100 6299.7 300
	300 6299.72 -300
	300 6299.7 -100
	300 6299.7 100
	300 6299.72 300
	-300 6499.73 -300
	-300 6499.71 -100
	-300 6499.71 100
	-300 6499.73 300
	-100 6499.71 -300
	-100 6499.71 -100
	-100 6499.71 100
	-100 6499.71 300
	100 6499.71 -300
	100 6499.71 -100
	100 6499.71 100
	100 6499.71 300
	300 6499.73 -300
	300 6499.71 -100
	300 6499.71 100
	300 6499.73 300
	-300 6699.74 -300
	-300 6699.75 -100
	-300 6699.75 100
	-300 6699.74 300
	-100 6699.75 -300
	-100 6699.77 -100
	-100 6699.77 100
	-100 6699.75 300
	100 6699.75 -300
	100 6699.77 -100
	100 6699.77 100
	100 6699.75 300
	300 6699.74 -300
	300 6699.75 -100
	300 6699.75 100
	300 6699.74 300
	-300 6899.84 -300
	-300 6899.84 -100
	-300 6899.84 100
	-300 6899.84 300
	-100 6899.84 -300
	-100 6899.84 -100
	-100 6899.84 100
	-100 6899.84 300
	100 6899.84 -300
	100 6899.84 -100
	100 6899.84 100
	100 6899.84 300
	300 6899.84 -300
	300 6899.84 -100
	300 6899.84 100
	300 6899.84 300
	-300 7099.84 -300
	-300 7099.84 -100
	-300 7099.84 100
	-300 7099.84 300
	-100 7099.84 -300
	-100 7099.84 -100
	-100 7099.84 100
	-100 7099.84 300
	100 7099.84 -300
	100 7099.84 -100
	100 7099.84 100
	100 7099.84 300
	300 7099.84 -300
	300 7099.84 -100
	300 7099.84 100
	300 7099.84 300
	-300 7299.84 -300
	-300 7299.84 -100
	-300 7299.84 100
	-300 7299.84 300
	-100 7299.84 -300
	-100 7299.84 -100
	-100 7299.84 100
	-100 7299.84 300
	100 7299.84 -300
	100 7299.84 -100
	100 7299.84 100
	100 7299.84 300
	300 7299.84 -300
	300 7299.84 -100
	300 7299.84 100
	300 7299.84 300
	-300 7499.85 -300
	-300 7499.84 -100
	-300 7499.84 100
	-300 7499.85 300
	-100 7499.84 -300
	-100 7499.84 -100
	-100 7499.84 100
	-100 7499.84 300
	100 7499.84 -300
	100 7499.84 -100
	100 7499.84 100
	100 7499.84 300
	300 7499.85 -300
	300 7499.84 -100
	300 7499.84 100
	300 7499.85 300
	-300 7699.85 -300
	-300 7699.85 -100
	-300 7699.85 100
	-300 7699.85 300
	-100 7699.85 -300
	-100 7699.85 -100
	-100 7699.85 100
	-100 7699.85 300
	100 7699.85 -300
	100 7699.85 -100
	100 7699.85 100
	100 7699.85 300
	300 7699.85 -300
	300 7699.85 -100
	300 7699.85 100
	300 7699.85 300
	-300 7899.86 -300
	-300 7899.86 -100
	-300 7899.86 100
	-300 7899.86 300
	-100 7899.86 -300
	-100 7899.85 -100
	-100 7899.85 100
	-100 7899.86 300
	100 7899.86 -300
	100 7899.85 -100
	100 7899.85 100
	100 7899.86 300
	300 7899.86 -300
	300 7899.86 -100
	300 7899.86 100
	300 7899.86 300
	-300 8099.86 -300
	-300 8099.86 -100
	-300 8099.86 100
	-300 8099.86 300
	-100 8099.86 -300
	-100 8099.86 -100
	-100 8099.86 100
	-100 8099.86 300
	100 8099.86 -300
	100 8099.86 -100
	100 8099.86 100
	100 8099.86 300
	300 8099.86 -300
	300 8099.86 -100
	300 8099.86 100
	300 8099.86 300
	-300 8299.87 -300
	-300 8299.87 -100
	-300 8299.87 100
	-300 8299.87 300
	-100 8299.87 -300
	-100 8299.87 -100
	-100 8299.87 100
	-100 8299.87 300
	100 8299.87 -300
	100 8299.87 -100
	100 8299.87 100
	100 8299.87 300
	300 8299.87 -300
	300 8299.87 -100
	300 8299.87 100
	300 8299.87 300
	-300 8499.87 -300
	-300 8499.87 -100
	-300 8499.87 100
	-300 8499.87 300
	-100 8499.87 -300
	-100 8499.87 -100
	-100 8499.87 100
	-100 8499.87 300
	100 8499.87 -300
	100 8499.87 -100
	100 8499.87 100
	100 8499.87 300
	300 8499.87 -300
	300 8499.87 -100
	300 8499.87 100
	300 8499.87 300
	-300 8699.88 -300
	-300 8699.87 -100
	-300 8699.87 100
	-300 8699.88 300
	-100 8699.87 -300
	-100 8699.87 -100
	-100 8699.87 100
	-100 8699.87 300
	100 8699.87 -300
	100 8699.87 -100
	100 8699.87 100
	100 8699.87 300
	300 8699.88 -300
	300 8699.87 -100
	300 8699.87 100
	300 8699.88 300
	-300 8899.88 -300
	-300 8899.88 -100
	-300 8899.88 100
	-300 8899.88 300
	-100 8899.88 -300
	-100 8899.87 -100
	-100 8899.87 100
	-100 8899.88 300
	100 8899.88 -300
	100 8899.87 -100
	100 8899.87 100
	100 8899.88 300
	300 8899.88 -300
	300 8899.88 -100
	300 8899.88 100
	300 8899.88 300
	-300 9099.88 -300
	-300 9099.88 -100
	-300 9099.88 100
	-300 9099.88 300
	-100 9099.88 -300
	-100 9099.88 -100
	-100 9099.88 100
	-100 9099.88 300
	100 9099.88 -300
	100 9099.88 -100
	100 9099.88 100
	100 9099.88 300
	300 9099.88 -300
	300 9099.88 -100
	300 9099.88 100
	300 9099.88 300
	-300 9299.89 -300
	-300 9299.89 -100
	-300 9299.89 100
	-300 9299.89 300
	-100 9299.89 -300
	-100 9299.89 -100
	-100 9299.89 100
	-100 9299.89 300
	100 9299.89 -300
	100 9299.89 -100
	100 9299.89 100
	100 9299.89 300
	300 9299.89 -300
	300 9299.89 -100
	300 9299.89 100
	300 9299.89 300
	-300 9499.89 -300
	-300 9499.89 -100
	-300 9499.89 100
	-300 9499.89 300
	-100 9499.89 -300
	-100 9499.89 -100
	-100 9499.89 100
	-100 9499.89 300
	100 9499.89 -300
	100 9499.89 -100
	100 9499.89 100
	100 9499.89 300
	300 9499.89 -300
	300 9499.89 -100
	300 9499.89 100
	300 9499.89 300
	-300 9699.9 -300
	-300 9699.9 -100
	-300 9699.9 100
	-300 9699.9 300
	-100 9699.9 -300
	-100 9699.9 -100
	-100 9699.9 100
	-100 9699.9 300
	100 9699.9 -300
	100 9699.9 -100
	100 9699.9 100
	100 9699.9 300
	300 9699.9 -300
	300 9699.9 -100
	300 9699.9 100
	300 9699.9 300
	-300 9899.91 -300
	-300 9899.91 -100
	-300 9899.91 100
	-300 9899.91 300
	-100 9899.91 -300
	-100 9899.91 -100
	-100 9899.91 100
	-100 9899.91 300
	100 9899.91 -300
	100 9899.91 -100
	100 9899.91 100
	100 9899.91 300
	300 9899.91 -300
	300 9899.91 -100
	300 9899.91 100
	300 9899.91 300
	-300 10099.9 -300
	-300 10099.9 -100
	-300 10099.9 100
	-300 10099.9 300
	-100 10099.9 -300
	-100 10099.9 -100
	-100 10099.9 100
	-100 10099.9 300
	100 10099.9 -300
	100 10099.9 -100
	100 10099.9 100
	100 10099.9 300
	300 10099.9 -300
	300 10099.9 -100
	300 10099.9 100
	300 10099.9 300
	-300 10299.9 -300
	-300 10299.9 -100
	-300 10299.9 100
	-300 10299.9 300
	-100 10299.9 -300
	-100 10299.9 -100
	-100 10299.9 100
	-100 10299.9 300
	100 10299.9 -300
	100 10299.9 -100
	100 10299.9 100
	100 10299.9 300
	300 10299.9 -300
	300 10299.9 -100
	300 10299.9 100
	300 10299.9 300
	-300 10499.9 -300
	-300 10499.9 -100
	-300 10499.9 100
	-300 10499.9 300
	-100 10499.9 -300
	-100 10499.9 -100
	-100 10499.9 100
	-100 10499.9 300
	100 10499.9 -300
	100 10499.9 -100
	100 10499.9 100
	100 10499.9 300
	300 10499.9 -300
	300 10499.9 -100
	300 10499.9 100
	300 10499.9 300
	-300 10699.9 -300
	-300 10699.9 -100
	-300 10699.9 100
	-300 10699.9 300
	-100 10699.9 -300
	-100 10699.9 -100
	-100 10699.9 100
	-100 10699.9 300
	100 10699.9 -300
	100 10699.9 -100
	100 10699.9 100
	100 10699.9 300
	300 10699.9 -300
	300 10699.9 -100
	300 10699.9 100
	300 10699.9 300
	-300 10900 -300
	-300 10900 -100
	-300 10900 100
	-300 10900 300
	-100 10900 -300
	-100 10900 -100
	-100 10900 100
	-100 10900 300
	100 10900 -300
	100 10900 -100
	100 10900 100
	100 10900 300
	300 10900 -300
	300 10900 -100
	300 10900 100
	300 10900 300
	-300 11100 -300
	-300 11100 -100
	-300 11100 100
	-300 11100 300
	-100 11100 -300
	-100 11100 -100
	-100 11100 100
	-100 11100 300
	100 11100 -300
	100 11100 -100
	100 11100 100
	100 11100 300
	300 11100 -300
	300 11100 -100
	300 11100 100
	300 11100 300
	-300 11300 -300
	-300 11300 -100
	-300 11300 100
	-300 11300 300
	-100 11300 -300
	-100 11300 -100
	-100 11300 100
	-100 11300 300
	100 11300 -300
	100 11300 -100
	100 11300 100
	100 11300 300
	300 11300 -300
	300 11300 -100
	300 11300 100
	300 11300 300
	-300 11500 -300
	-300 11500 -100
	-300 11500 100
	-300 11500 300
	-100 11500 -300
	-100 11500 -100
	-100 11500 100
	-100 11500 300
	100 11500 -300
	100 11500 -100
	100 11500 100
	100 11500 300
	300 11500 -300
	300 11500 -100
	300 11500 100
	300 11500 300
	-300 11700 -300
	-300 11700 -100
	-300 11700 100
	-300 11700 300
	-100 11700 -300
	-100 11700 -100
	-100 11700 100
	-100 11700 300
	100 11700 -300
	100 11700 -100
	100 11700 100
	100 11700 300
	300 11700 -300
	300 11700 -100
	300 11700 100
	300 11700 300
	-300 11900 -300
	-300 11900 -100
	-300 11900 100
	-300 11900 300
	-100 11900 -300
	-100 11900 -100
	-100 11900 100
	-100 11900 300
	100 11900 -300
	100 11900 -100
	100 11900 100
	100 11900 300
	300 11900 -300
	300 11900 -100
	300 11900 100
	300 11900 300
	-300 12100.1 -300
	-300 12100.1 -100
	-300 12100.1 100
	-300 12100.1 300
	-100 12100.1 -300
	-100 12100.1 -100
	-100 12100.1 100
	-100 12100.1 300
	100 12100.1 -300
	100 12100.1 -100
	100 12100.1 100
	100 12100.1 300
	300 12100.1 -300
	300 12100.1 -100
	300 12100.1 100
	300 12100.1 300
	-300 12300.1 -300
	-300 12300.1 -100
	-300 12300.1 100
	-300 12300.1 300
	-100 12300.1 -300
	-100 12300.1 -100
	-100 12300.1 100
	-100 12300.1 300
	100 12300.1 -300
	100 12300.1 -100
	100 12300.1 100
	100 12300.1 300
	300 12300.1 -300
	300 12300.1 -100
	300 12300.1 100
	300 12300.1 300
	-300 12500.1 -300
	-300 12500.1 -100
	-300 12500.1 100
	-300 12500.1 300
	-100 12500.1 -300
	-100 12500.1 -100
	-100 12500.1 100
	-100 12500.1 300
	100 12500.1 -300
	100 12500.1 -100
	100 12500.1 100
	100 12500.1 300
	300 12500.1 -300
	300 12500.1 -100
	300 12500.1 100
	300 12500.1 300
	-300 12700.2 -300
	-300 12700.2 -100
	-300 12700.2 100
	-300 12700.2 300
	-100 12700.2 -300
	-100 12700.2 -100
	-100 12700.2 100
	-100 12700.2 300
	100 12700.2 -300
	100 12700.2 -100
	100 12700.2 100
	100 12700.2 300
	300 12700.2 -300
	300 12700.2 -100
	300 12700.2 100
	300 12700.2 300
	-300 12900.2 -300
	-300 12900.2 -100
	-300 12900.2 100
	-300 12900.2 300
	-100 12900.2 -300
	-100 12900.2 -100
	-100 12900.2 100
	-100 12900.2 300
	100 12900.2 -300
	100 12900.2 -100
	100 12900.2 100
	100 12900.2 300
	300 12900.2 -300
	300 12900.2 -100
	300 12900.2 100
	300 12900.2 300
	-300 13100.3 -300
	-300 13100.3 -100
	-300 13100.3 100
	-300 13100.3 300
	-100 13100.3 -300
	-100 13100.3 -100
	-100 13100.3 100
	-100 13100.3 300
	100 13100.3 -300
	100 13100.3 -100
	100 13100.3 100
	100 13100.3 300
	300 13100.3 -300
	300 13100.3 -100
	300 13100.3 100
	300 13100.3 300
	-300 13300.4 -300
	-300 13300.4 -100
	-300 13300.4 100
	-300 13300.4 300
	-100 13300.4 -300
	-100 13300.4 -100
	-100 13300.4 100
	-100 13300.4 300
	100 13300.4 -300
	100 13300.4 -100
	100 13300.4 100
	100 13300.4 300
	300 13300.4 -300
	300 13300.4 -100
	300 13300.4 100
	300 13300.4 300
	-300 13500.6 -300
	-300 13500.6 -100
	-300 13500.6 100
	-300 13500.6 300
	-100 13500.6 -300
	-100 13500.6 -100
	-100 13500.6 100
	-100 13500.6 300
	100 13500.6 -300
	100 13500.6 -100
	100 13500.6 100
	100 13500.6 300
	300 13500.6 -300
	300 13500.6 -100
	300 13500.6 100
	300 13500.6 300
	-300 13700.9 -300
	-300 13700.9 -100
	-300 13700.9 100
	-300 13700.9 300
	-100 13700.9 -300
	-100 13700.9 -100
	-100 13700.9 100
	-100 13700.9 300
	100 13700.9 -300
	100 13700.9 -100
	100 13700.9 100
	100 13700.9 300
	300 13700.9 -300
	300 13700.9 -100
	300 13700.9 100
	300 13700.9 300
	-300 13901.8 -300
	-300 13901.8 -100
	-300 13901.8 100
	-300 13901.8 300
	-100 13901.8 -300
	-100 13901.8 -100
	-100 13901.8 100
	-100 13901.8 300
	100 13901.8 -300
	100 13901.8 -100
	100 13901.8 100
	100 13901.8 300
	300 13901.8 -300
	300 13901.8 -100
	300 13901.8 100
	300 13901.8 300
  </DataArray>
</Points>
<PointData  Vectors="vector">
  <DataArray type="Float32" Name="Velocity" NumberOfComponents="3" format="ascii">
 -5.62965e-07 -0.00217158 -5.57926e-07
 3.48453e-06 0.00450653 4.26411e-06
 3.48055e-06 0.00450652 -4.26238e-06
 -5.73529e-07 -0.00217158 5.5569e-07
 4.26383e-06 0.00450652 3.49164e-06
 -8.07111e-07 0.000666644 -8.04609e-07
 -8.0854e-07 0.000666644 8.04535e-07
 4.25925e-06 0.00450652 -3.49221e-06
 -4.26228e-06 0.00450652 3.49138e-06
 8.07256e-07 0.000666645 -8.04652e-07
 8.0862e-07 0.000666645 8.0467e-07
 -4.25848e-06 0.00450654 -3.49188e-06
 5.61814e-07 -0.00217158 -5.58407e-07
 -3.48425e-06 0.00450652 4.26373e-06
 -3.48024e-06 0.00450654 -4.26178e-06
 5.73093e-07 -0.00217158 5.56386e-07
 -9.34157e-07 -0.00206387 -9.58045e-07
 7.9859e-07 -0.00186636 3.89432e-06
 7.88218e-07 -0.00186636 -3.89959e-06
 -9.55761e-07 -0.00206387 9.63268e-07
 3.83459e-06 -0.00186636 8.03008e-07
 -1.13243e-06 -0.000435631 -1.22919e-06
 -1.20312e-06 -0.000435631 1.22833e-06
 3.8405e-06 -0.00186636 -8.02415e-07
 -3.84376e-06 -0.00186636 8.02731e-07
 1.15379e-06 -0.000435631 -1.22874e-06
 1.20209e-06 -0.000435631 1.22752e-06
 -3.83948e-06 -0.00186637 -8.01691e-07
 9.43757e-07 -0.00206387 -9.55279e-07
 -8.19514e-07 -0.00186636 3.8906e-06
 -7.86766e-07 -0.00186637 -3.88733e-06
 9.55143e-07 -0.00206387 9.5219e-07
 -2.62206e-06 -0.00327156 -2.61678e-06
 1.12043e-07 -0.00300884 -1.79028e-06
 1.06838e-07 -0.00300884 1.79121e-06
 -2.62203e-06 -0.00327156 2.61615e-06
 -1.7911e-06 -0.00300884 1.21209e-07
 -7.36144e-07 -0.00701662 -7.34004e-07
 -7.36678e-07 -0.00701662 7.34416e-07
 -1.37829e-06 -0.00300885 -1.21579e-07
 1.79156e-06 -0.00300885 1.20849e-07
 7.36363e-07 -0.00701662 -7.33837e-07
 7.38753e-07 -0.00701662 7.34888e-07
 1.37879e-06 -0.00300888 -1.21833e-07
 2.62191e-06 -0.00327156 -2.61694e-06
 -1.11939e-07 -0.00300886 -1.79017e-06
 -1.08588e-07 -0.00300888 1.791e-06
 2.62186e-06 -0.00327156 2.61647e-06
 -6.24375e-07 -0.00293831 -6.21358e-07
 5.45508e-08 0.00214526 -1.88656e-06
 5.1624e-08 0.00214525 1.88661e-06
 -6.32524e-07 -0.00293832 6.21723e-07
 -1.88782e-06 0.00214525 5.97691e-08
 -2.18627e-06 0.00130184 -2.18705e-06
 -2.18564e-06 0.00130184 2.18698e-06
 -1.90347e-06 0.00214525 -5.95351e-08
 1.88764e-06 0.00214525 5.97018e-08
 2.18593e-06 0.00130184 -2.18732e-06
 2.18548e-06 0.00130185 2.18723e-06
 1.90333e-06 0.00214524 -5.94504e-08
 6.24617e-07 -0.00293829 -6.21567e-07
 -5.41214e-08 0.00214525 -1.88672e-06
 -5.13376e-08 0.00214524 1.88673e-06
 6.32826e-07 -0.00293829 6.21933e-07
 -5.13652e-08 0.00174734 -4.99872e-08
 -5.69519e-08 -0.000302845 -3.33514e-07
 -5.85363e-08 -0.000302838 3.33684e-07
 -5.58224e-08 0.00174735 5.01461e-08
 -3.34156e-07 -0.000302834 -5.43302e-08
 -3.19359e-07 -0.00197479 -3.18332e-07
 -3.19891e-07 -0.00197479 3.18405e-07
 -3.35616e-07 -0.000302824 5.43982e-08
 3.34015e-07 -0.000302827 -5.43922e-08
 3.19244e-07 -0.00197479 -3.18357e-07
 3.19798e-07 -0.00197479 3.18415e-07
 3.35547e-07 -0.000302827 5.4449e-08
 5.13259e-08 0.00174733 -5.01572e-08
 5.6932e-08 -0.000302812 -3.33594e-07
 5.85364e-08 -0.000302822 3.33713e-07
 5.58409e-08 0.00174733 5.02854e-08
 -1.76978e-06 -0.00148777 -1.76936e-06
 -1.6727e-06 -0.00115183 4.48058e-07
 -1.67331e-06 -0.00115183 -4.48022e-07
 -1.77175e-06 -0.00148777 1.76951e-06
 4.46972e-07 -0.00115183 -1.67181e-06
 1.23752e-06 -0.00531341 1.23814e-06
 1.23766e-06 -0.0053134 -1.23811e-06
 4.47349e-07 -0.00115183 1.67183e-06
 -4.46968e-07 -0.00115183 -1.67188e-06
 -1.23772e-06 -0.0053134 1.23823e-06
 -1.23787e-06 -0.0053134 -1.23822e-06
 -4.47317e-07 -0.00115184 1.67189e-06
 1.76945e-06 -0.00148777 -1.76931e-06
 1.67262e-06 -0.00115183 4.50646e-07
 1.67327e-06 -0.00115184 -4.50587e-07
 1.77151e-06 -0.00148777 1.76933e-06
 -1.72223e-06 -0.000365741 -1.72007e-06
 -1.32522e-06 0.00300501 -2.27781e-06
 -1.32539e-06 0.00300501 2.27785e-06
 -1.72279e-06 -0.000365735 1.7201e-06
 -2.2851e-06 0.00300501 -1.3258e-06
 -1.79092e-06 0.000134821 -1.79136e-06
 -1.79094e-06 0.000134815 1.79129e-06
 -2.27797e-06 0.003005 1.32585e-06
 2.28491e-06 0.00300501 -1.32587e-06
 1.79073e-06 0.000134812 -1.79138e-06
 1.79075e-06 0.000134812 1.79132e-06
 2.28019e-06 0.00300505 1.32587e-06
 1.72205e-06 -0.000365744 -1.72011e-06
 1.32509e-06 0.00300499 -2.27782e-06
 1.3253e-06 0.00300504 2.27781e-06
 1.72033e-06 -0.000365748 1.72008e-06
 -8.71086e-07 -0.000325479 -8.71179e-07
 -7.35147e-07 -0.00415816 -1.18997e-06
 -7.35199e-07 -0.00415816 1.19025e-06
 -8.70984e-07 -0.000325487 8.7092e-07
 -1.19076e-06 -0.00415816 -7.35257e-07
 -1.00018e-06 0.000463742 -9.99771e-07
 -1.00006e-06 0.000463747 9.99817e-07
 -1.19027e-06 -0.00415816 7.35177e-07
 1.19044e-06 -0.00415816 -7.35255e-07
 9.99941e-07 0.000463748 -9.99823e-07
 9.99851e-07 0.000463748 9.99801e-07
 1.19003e-06 -0.00415819 7.35204e-07
 8.71111e-07 -0.000325481 -8.71007e-07
 7.35128e-07 -0.00415816 -1.18994e-06
 7.35182e-07 -0.00415819 1.18998e-06
 8.71032e-07 -0.000325479 8.70878e-07
 2.27389e-07 -0.00566166 2.26957e-07
 2.20285e-07 0.00135606 -2.78114e-08
 2.20276e-07 0.00135606 2.72413e-08
 2.275e-07 -0.00566166 -2.26362e-07
 -2.78085e-08 0.00135606 2.20117e-07
 -2.8321e-08 -0.00164545 -2.83208e-08
 -2.83301e-08 -0.00164546 2.83008e-08
 -2.79675e-08 0.00135606 -2.20111e-07
 2.78799e-08 0.00135606 2.20097e-07
 2.82454e-08 -0.00164546 -2.83327e-08
 2.82566e-08 -0.00164545 2.83028e-08
 2.7892e-08 0.00135607 -2.20115e-07
 -2.27611e-07 -0.00566163 2.27597e-07
 -2.20332e-07 0.00135606 -2.82613e-08
 -2.20297e-07 0.00135607 2.825e-08
 -2.27498e-07 -0.00566162 -2.27656e-07
 4.86136e-08 0.000894462 4.85791e-08
 4.29541e-08 -0.002425 -1.04095e-07
 4.29498e-08 -0.002425 1.04114e-07
 4.86024e-08 0.000894467 -4.85489e-08
 -1.04095e-07 -0.002425 4.29137e-08
 -1.03558e-07 0.000621837 -1.03577e-07
 -1.03551e-07 0.000621838 1.03586e-07
 -1.04076e-07 -0.002425 -4.2897e-08
 1.04105e-07 -0.002425 4.2903e-08
 1.03576e-07 0.000621838 -1.03589e-07
 1.03583e-07 0.000621837 1.03585e-07
 1.04121e-07 -0.002425 -4.28971e-08
 -4.86011e-08 0.000894371 4.85432e-08
 -4.29294e-08 -0.002425 -1.04121e-07
 -4.29165e-08 -0.002425 1.04112e-07
 -4.85634e-08 0.000894346 -4.85513e-08
 5.44846e-08 0.00278258 5.4463e-08
 5.2562e-08 0.001434 3.61843e-08
 5.25621e-08 0.001434 -3.61478e-08
 5.44849e-08 0.00278258 -5.4424e-08
 3.62114e-08 0.001434 5.25357e-08
 3.49197e-08 -0.00119247 3.48885e-08
 3.49223e-08 -0.00119246 -3.48566e-08
 3.62193e-08 0.00143401 -5.25041e-08
 -3.61218e-08 0.00143401 5.25311e-08
 -3.48222e-08 -0.00119248 3.48846e-08
 -3.48145e-08 -0.00119247 -3.48593e-08
 -3.61022e-08 0.001434 -5.25047e-08
 -5.4399e-08 0.00278264 5.44465e-08
 -5.247e-08 0.00143401 3.61748e-08
 -5.24615e-08 0.001434 -3.61545e-08
 -5.4374e-08 0.00278265 -5.44246e-08
 -6.15798e-07 -0.00149864 -6.15749e-07
 -8.53556e-07 0.001287 -1.04441e-06
 -8.53568e-07 0.001287 1.04443e-06
 -6.15846e-07 -0.00149862 6.15817e-07
 -1.04427e-06 0.001287 -8.53559e-07
 -1.27399e-06 -0.00201697 -1.27401e-06
 -1.274e-06 -0.00201698 1.27405e-06
 -1.04417e-06 0.001287 8.53603e-07
 1.04453e-06 0.001287 -8.53567e-07
 1.27415e-06 -0.00201697 -1.27401e-06
 1.27418e-06 -0.00201697 1.27405e-06
 1.04444e-06 0.00128701 8.53602e-07
 6.15801e-07 -0.00149862 -6.15708e-07
 8.53663e-07 0.001287 -1.04447e-06
 8.53677e-07 0.00128701 1.04447e-06
 6.15878e-07 -0.00149862 6.15779e-07
 -7.66363e-07 -0.000686296 -7.66406e-07
 -7.57019e-07 -0.000563077 -2.24674e-07
 -7.57015e-07 -0.000563074 2.24715e-07
 -7.66356e-07 -0.000686322 7.66446e-07
 -2.24624e-07 -0.000563077 -7.57062e-07
 -2.09642e-07 1.78416e-05 -2.09703e-07
 -2.09639e-07 1.78423e-05 2.09743e-07
 -2.24598e-07 -0.000563073 7.57105e-07
 2.24755e-07 -0.000563077 -7.5706e-07
 2.09776e-07 1.78414e-05 -2.09718e-07
 2.0978e-07 1.78409e-05 2.09759e-07
 2.24745e-07 -0.000563071 7.57103e-07
 7.6649e-07 -0.000686327 -7.66407e-07
 7.5715e-07 -0.000563079 -2.24683e-07
 7.57153e-07 -0.000563076 2.24727e-07
 7.66504e-07 -0.000686327 7.66452e-07
 -1.13692e-06 0.00120664 -1.13695e-06
 -1.118e-06 -0.00150485 -6.6851e-08
 -1.118e-06 -0.00150485 6.68839e-08
 -1.13691e-06 0.00120664 1.13697e-06
 -6.68429e-08 -0.00150485 -1.11801e-06
 -1.38549e-07 0.00132547 -1.38574e-07
 -1.38525e-07 0.00132547 1.38579e-07
 -6.68301e-08 -0.00150485 1.11807e-06
 6.69301e-08 -0.00150485 -1.11802e-06
 1.38638e-07 0.00132547 -1.38562e-07
 1.38627e-07 0.00132547 1.38589e-07
 6.69279e-08 -0.00150485 1.11806e-06
 1.13702e-06 0.00120665 -1.13694e-06
 1.1181e-06 -0.00150485 -6.68717e-08
 1.1181e-06 -0.00150485 6.68867e-08
 1.13702e-06 0.00120665 1.13699e-06
 -5.00355e-07 0.000119915 -5.00365e-07
 -6.88601e-07 -0.00180991 6.98104e-07
 -6.88606e-07 -0.00180991 -6.98099e-07
 -5.00365e-07 0.000119917 5.00398e-07
 6.98169e-07 -0.00180991 -6.88622e-07
 6.36264e-07 -0.00149467 6.36236e-07
 6.36259e-07 -0.00149467 -6.36217e-07
 6.98147e-07 -0.00180991 6.88643e-07
 -6.9813e-07 -0.00180991 -6.8862e-07
 -6.3622e-07 -0.00149467 6.36243e-07
 -6.36211e-07 -0.00149467 -6.3622e-07
 -6.98102e-07 -0.00180991 6.88638e-07
 5.00402e-07 0.000119918 -5.00364e-07
 6.88646e-07 -0.00180991 6.98132e-07
 6.88652e-07 -0.00180991 -6.98118e-07
 5.0042e-07 0.000119918 5.00394e-07
 2.48206e-07 0.00201152 2.48217e-07
 2.47125e-07 0.00119356 -5.51942e-08
 2.47125e-07 0.00119356 5.52036e-08
 2.48209e-07 0.00201152 -2.48208e-07
 -5.52022e-08 0.00119356 2.47133e-07
 -5.98262e-08 -0.0014131 -5.98186e-08
 -5.98256e-08 -0.0014131 5.98288e-08
 -5.52005e-08 0.00119356 -2.47125e-07
 5.52001e-08 0.00119356 2.47134e-07
 5.98259e-08 -0.0014131 -5.98192e-08
 5.98268e-08 -0.0014131 5.98294e-08
 5.52022e-08 0.00119356 -2.47125e-07
 -2.48207e-07 0.00201152 2.48216e-07
 -2.47125e-07 0.00119356 -5.51944e-08
 -2.47125e-07 0.00119356 5.52042e-08
 -2.48208e-07 0.00201152 -2.48205e-07
 -2.08946e-06 -0.00080261 -2.08944e-06
 -2.02008e-06 -0.000786075 -9.31074e-07
 -2.02008e-06 -0.000786072 9.31075e-07
 -2.08946e-06 -0.00080261 2.08944e-06
 -9.31089e-07 -0.000786079 -2.02006e-06
 -9.10025e-07 -0.00196609 -9.10012e-07
 -9.10025e-07 -0.00196609 9.10012e-07
 -9.31087e-07 -0.000786073 2.02007e-06
 9.31064e-07 -0.000786078 -2.02006e-06
 9.10002e-07 -0.00196609 -9.10012e-07
 9.10002e-07 -0.00196609 9.10013e-07
 9.31064e-07 -0.000786075 2.02007e-06
 2.08943e-06 -0.000802609 -2.08944e-06
 2.02006e-06 -0.000786079 -9.31074e-07
 2.02006e-06 -0.000786079 9.31076e-07
 2.08943e-06 -0.000802609 2.08945e-06
 -1.5356e-06 -0.0014469 -1.53558e-06
 -1.43761e-06 -0.00134709 -6.88434e-07
 -1.43761e-06 -0.00134709 6.88429e-07
 -1.5356e-06 -0.00144689 1.53558e-06
 -6.88447e-07 -0.00134709 -1.4376e-06
 -6.54815e-07 0.00255478 -6.54803e-07
 -6.54815e-07 0.00255478 6.54799e-07
 -6.88445e-07 -0.00134709 1.43759e-06
 6.88419e-07 -0.00134709 -1.4376e-06
 6.54788e-07 0.00255478 -6.54803e-07
 6.54788e-07 0.00255478 6.54798e-07
 6.88419e-07 -0.00134709 1.43759e-06
 1.53557e-06 -0.0014469 -1.53558e-06
 1.43758e-06 -0.00134709 -6.88434e-07
 1.43758e-06 -0.00134709 6.8843e-07
 1.53557e-06 -0.0014469 1.53558e-06
 2.56156e-06 -0.00112436 2.56156e-06
 2.52401e-06 -0.00127493 8.45506e-07
 2.52401e-06 -0.00127493 -8.45515e-07
 2.56156e-06 -0.00112437 -2.56157e-06
 8.455e-07 -0.00127493 2.52402e-06
 8.26852e-07 -0.00157089 8.26858e-07
 8.26852e-07 -0.00157089 -8.26865e-07
 8.455e-07 -0.00127493 -2.52403e-06
 -8.45519e-07 -0.00127493 2.52402e-06
 -8.26871e-07 -0.00157089 8.26858e-07
 -8.26871e-07 -0.00157089 -8.26866e-07
 -8.4552e-07 -0.00127493 -2.52403e-06
 -2.56158e-06 -0.00112436 2.56156e-06
 -2.52403e-06 -0.00127493 8.45507e-07
 -2.52403e-06 -0.00127493 -8.45514e-07
 -2.56158e-06 -0.00112436 -2.56157e-06
 -1.5128e-06 -0.00112613 -1.5128e-06
 -1.82647e-06 0.000898237 -1.16289e-06
 -1.82647e-06 0.000898237 1.16288e-06
 -1.5128e-06 -0.00112613 1.51279e-06
 -1.1629e-06 0.000898237 -1.82648e-06
 -1.23291e-06 -0.00122459 -1.2329e-06
 -1.23291e-06 -0.00122459 1.23289e-06
 -1.1629e-06 0.000898237 1.82647e-06
 1.16289e-06 0.000898237 -1.82648e-06
 1.2329e-06 -0.00122458 -1.2329e-06
 1.2329e-06 -0.00122459 1.23289e-06
 1.16289e-06 0.000898238 1.82647e-06
 1.51279e-06 -0.00112613 -1.5128e-06
 1.82646e-06 0.000898237 -1.16289e-06
 1.82646e-06 0.000898237 1.16288e-06
 1.51279e-06 -0.00112613 1.51279e-06
 -3.86299e-07 0.00184672 -3.86303e-07
 -3.69049e-07 0.00177164 -6.90735e-07
 -3.69049e-07 0.00177164 6.90724e-07
 -3.86298e-07 0.00184672 3.86293e-07
 -6.90728e-07 0.00177164 -3.69053e-07
 -6.78695e-07 0.00117638 -6.787e-07
 -6.78695e-07 0.00117638 6.7869e-07
 -6.9073e-07 0.00177164 3.69044e-07
 6.90727e-07 0.00177164 -3.69053e-07
 6.78693e-07 0.00117638 -6.78699e-07
 6.78693e-07 0.00117638 6.78691e-07
 6.90727e-07 0.00177164 3.69044e-07
 3.86295e-07 0.00184671 -3.86302e-07
 3.69045e-07 0.00177164 -6.90733e-07