<?xml version="1.0"?>
<VTKFile type="UnstructuredGrid" version="0.1" byte_order="LittleEndian" compressor="vtkZLibDataCompressor">
<UnstructuredGrid>
<Piece NumberOfPoints="960" NumberOfCells="120">
<Points>
<DataArray type="Float32" NumberOfComponents="3" format="ascii">
-4.000000e+02 -6.000000e+03 -4.000000e+02
0.000000e+00 -6.000000e+03 -4.000000e+02
-4.000000e+02 -5.600010e+03 -4.000000e+02
-7.188980e-11 -5.600010e+03 -4.000000e+02
-4.000000e+02 -6.000000e+03 0.000000e+00
0.000000e+00 -6.000000e+03 0.000000e+00
-4.000000e+02 -5.600010e+03 -1.641440e-10
-1.539390e-10 -5.600010e+03 -3.045150e-10
0.000000e+00 -6.000000e+03 -4.000000e+02
4.000000e+02 -6.000000e+03 -4.000000e+02
-7.188980e-11 -5.600010e+03 -4.000000e+02
4.000000e+02 -5.600010e+03 -4.000000e+02
0.000000e+00 -6.000000e+03 0.000000e+00
4.000000e+02 -6.000000e+03 0.000000e+00
-1.539390e-10 -5.600010e+03 -3.045150e-10
4.000000e+02 -5.600010e+03 -2.904510e-10
-4.000000e+02 -5.600010e+03 -4.000000e+02
-7.188980e-11 -5.600010e+03 -4.000000e+02
-4.000000e+02 -5.200030e+03 -4.000000e+02
-6.864440e-11 -5.200030e+03 -4.000000e+02
-4.000000e+02 -5.600010e+03 -1.641440e-10
-1.539390e-10 -5.600010e+03 -3.045150e-10
-4.000000e+02 -5.200030e+03 -2.362340e-10
2.439850e-10 -5.200030e+03 -1.391000e-11
-7.188980e-11 -5.600010e+03 -4.000000e+02
4.000000e+02 -5.600010e+03 -4.000000e+02
-6.864440e-11 -5.200030e+03 -4.000000e+02
4.000000e+02 -5.200030e+03 -4.000000e+02
-1.539390e-10 -5.600010e+03 -3.045150e-10
4.000000e+02 -5.600010e+03 -2.904510e-10
2.439850e-10 -5.200030e+03 -1.391000e-11
4.000000e+02 -5.200030e+03 -4.182040e-10
-4.000000e+02 -5.200030e+03 -4.000000e+02
-6.864440e-11 -5.200030e+03 -4.000000e+02
-4.000000e+02 -4.800050e+03 -4.000000e+02
-9.416020e-11 -4.800050e+03 -4.000000e+02
-4.000000e+02 -5.200030e+03 -2.362340e-10
2.439850e-10 -5.200030e+03 -1.391000e-11
-4.000000e+02 -4.800050e+03 -4.384350e-10
-1.606070e-11 -4.800050e+03 -4.062930e-10
-6.864440e-11 -5.200030e+03 -4.000000e+02
4.000000e+02 -5.200030e+03 -4.000000e+02
-9.416020e-11 -4.800050e+03 -4.000000e+02
4.000000e+02 -4.800050e+03 -4.000000e+02
2.439850e-10 -5.200030e+03 -1.391000e-11
4.000000e+02 -5.200030e+03 -4.182040e-10
-1.606070e-11 -4.800050e+03 -4.062930e-10
4.000000e+02 -4.800050e+03 -7.121690e-10
-4.000000e+02 -4.800050e+03 -4.000000e+02
-9.416020e-11 -4.800050e+03 -4.000000e+02
-4.000000e+02 -4.400090e+03 -4.000000e+02
-1.407400e-10 -4.400090e+03 -4.000000e+02
-4.000000e+02 -4.800050e+03 -4.384350e-10
-1.606070e-11 -4.800050e+03 -4.062930e-10
-4.000000e+02 -4.400090e+03 -2.056830e-10
-1.965390e-10 -4.400090e+03 -8.767680e-10
-9.416020e-11 -4.800050e+03 -4.000000e+02
4.000000e+02 -4.800050e+03 -4.000000e+02
-1.407400e-10 -4.400090e+03 -4.000000e+02
4.000000e+02 -4.400090e+03 -4.000000e+02
-1.606070e-11 -4.800050e+03 -4.062930e-10
4.000000e+02 -4.800050e+03 -7.121690e-10
-1.965390e-10 -4.400090e+03 -8.767680e-10
4.000000e+02 -4.400090e+03 -4.536050e-10
-4.000000e+02 -4.400090e+03 -4.000000e+02
-1.407400e-10 -4.400090e+03 -4.000000e+02
-4.000000e+02 -4.000150e+03 -4.000000e+02
-2.111850e-10 -4.000150e+03 -4.000000e+02
-4.000000e+02 -4.400090e+03 -2.056830e-10
-1.965390e-10 -4.400090e+03 -8.767680e-10
-4.000000e+02 -4.000150e+03 -2.328120e-10
-1.577180e-10 -4.000150e+03 -3.367850e-10
-1.407400e-10 -4.400090e+03 -4.000000e+02
4.000000e+02 -4.400090e+03 -4.000000e+02
-2.111850e-10 -4.000150e+03 -4.000000e+02
4.000000e+02 -4.000150e+03 -4.000000e+02
-1.965390e-10 -4.400090e+03 -8.767680e-10
4.000000e+02 -4.400090e+03 -4.536050e-10
-1.577180e-10 -4.000150e+03 -3.367850e-10
4.000000e+02 -4.000150e+03 -2.879860e-10
-4.000000e+02 -4.000150e+03 -4.000000e+02
-2.111850e-10 -4.000150e+03 -4.000000e+02
-4.000000e+02 -3.600210e+03 -4.000000e+02
-1.446070e-10 -3.600210e+03 -4.000000e+02
-4.000000e+02 -4.000150e+03 -2.328120e-10
-1.577180e-10 -4.000150e+03 -3.367850e-10
-4.000000e+02 -3.600210e+03 -4.981770e-10
-4.064110e-11 -3.600210e+03 -2.412690e-10
-2.111850e-10 -4.000150e+03 -4.000000e+02
4.000000e+02 -4.000150e+03 -4.000000e+02
-1.446070e-10 -3.600210e+03 -4.000000e+02
4.000000e+02 -3.600210e+03 -4.000000e+02
-1.577180e-10 -4.000150e+03 -3.367850e-10
4.000000e+02 -4.000150e+03 -2.879860e-10
-4.064110e-11 -3.600210e+03 -2.412690e-10
4.000000e+02 -3.600210e+03 -3.178230e-10
-4.000000e+02 -3.600210e+03 -4.000000e+02
-1.446070e-10 -3.600210e+03 -4.000000e+02
-4.000000e+02 -3.200260e+03 -4.000000e+02
1.770050e-10 -3.200260e+03 -4.000000e+02
-4.000000e+02 -3.600210e+03 -4.981770e-10
-4.064110e-11 -3.600210e+03 -2.412690e-10
-4.000000e+02 -3.200260e+03 -2.549780e-10
1.706340e-10 -3.200260e+03 -5.943940e-10
-1.446070e-10 -3.600210e+03 -4.000000e+02
4.000000e+02 -3.600210e+03 -4.000000e+02
1.770050e-10 -3.200260e+03 -4.000000e+02
4.000000e+02 -3.200260e+03 -4.000000e+02
-4.064110e-11 -3.600210e+03 -2.412690e-10
4.000000e+02 -3.600210e+03 -3.178230e-10
1.706340e-10 -3.200260e+03 -5.943940e-10
4.000000e+02 -3.200260e+03 -5.051820e-10
-4.000000e+02 -3.200260e+03 -4.000000e+02
1.770050e-10 -3.200260e+03 -4.000000e+02
-4.000000e+02 -2.800280e+03 -4.000000e+02
2.994540e-10 -2.800280e+03 -4.000000e+02
-4.000000e+02 -3.200260e+03 -2.549780e-10
1.706340e-10 -3.200260e+03 -5.943940e-10
-4.000000e+02 -2.800280e+03 -2.476090e-10
2.617580e-10 -2.800280e+03 -4.584150e-10
1.770050e-10 -3.200260e+03 -4.000000e+02
4.000000e+02 -3.200260e+03 -4.000000e+02
2.994540e-10 -2.800280e+03 -4.000000e+02
4.000000e+02 -2.800280e+03 -4.000000e+02
1.706340e-10 -3.200260e+03 -5.943940e-10
4.000000e+02 -3.200260e+03 -5.051820e-10
2.617580e-10 -2.800280e+03 -4.584150e-10
4.000000e+02 -2.800280e+03 -5.847350e-10
-4.000000e+02 -2.800280e+03 -4.000000e+02
2.994540e-10 -2.800280e+03 -4.000000e+02
-4.000000e+02 -2.400270e+03 -4.000000e+02
1.582330e-10 -2.400270e+03 -4.000000e+02
-4.000000e+02 -2.800280e+03 -2.476090e-10
2.617580e-10 -2.800280e+03 -4.584150e-10
-4.000000e+02 -2.400270e+03 -6.728300e-11
3.794090e-10 -2.400270e+03 -2.282980e-10
2.994540e-10 -2.800280e+03 -4.000000e+02
4.000000e+02 -2.800280e+03 -4.000000e+02
1.582330e-10 -2.400270e+03 -4.000000e+02
4.000000e+02 -2.400270e+03 -4.000000e+02
2.617580e-10 -2.800280e+03 -4.584150e-10
4.000000e+02 -2.800280e+03 -5.847350e-10
3.794090e-10 -2.400270e+03 -2.282980e-10
4.000000e+02 -2.400270e+03 -9.563970e-11
-4.000000e+02 -2.400270e+03 -4.000000e+02
1.582330e-10 -2.400270e+03 -4.000000e+02
-4.000000e+02 -2.000260e+03 -4.000000e+02
1.062950e-10 -2.000260e+03 -4.000000e+02
-4.000000e+02 -2.400270e+03 -6.728300e-11
3.794090e-10 -2.400270e+03 -2.282980e-10
-4.000000e+02 -2.000260e+03 1.462430e-10
3.183550e-10 -2.000260e+03 1.449860e-10
1.582330e-10 -2.400270e+03 -4.000000e+02
4.000000e+02 -2.400270e+03 -4.000000e+02
1.062950e-10 -2.000260e+03 -4.000000e+02
4.000000e+02 -2.000260e+03 -4.000000e+02
3.794090e-10 -2.400270e+03 -2.282980e-10
4.000000e+02 -2.400270e+03 -9.563970e-11
3.183550e-10 -2.000260e+03 1.449860e-10
4.000000e+02 -2.000260e+03 9.804540e-11
-4.000000e+02 -2.000260e+03 -4.000000e+02
1.062950e-10 -2.000260e+03 -4.000000e+02
-4.000000e+02 -1.600260e+03 -4.000000e+02
-1.612320e-11 -1.600260e+03 -4.000000e+02
-4.000000e+02 -2.000260e+03 1.462430e-10
3.183550e-10 -2.000260e+03 1.449860e-10
-4.000000e+02 -1.600260e+03 3.167950e-11
1.270490e-10 -1.600260e+03 7.663880e-11
1.062950e-10 -2.000260e+03 -4.000000e+02
4.000000e+02 -2.000260e+03 -4.000000e+02
-1.612320e-11 -1.600260e+03 -4.000000e+02
4.000000e+02 -1.600260e+03 -4.000000e+02
3.183550e-10 -2.000260e+03 1.449860e-10
4.000000e+02 -2.000260e+03 9.804540e-11
1.270490e-10 -1.600260e+03 7.663880e-11
4.000000e+02 -1.600260e+03 -5.370160e-11
-4.000000e+02 -1.600260e+03 -4.000000e+02
-1.612320e-11 -1.600260e+03 -4.000000e+02
-4.000000e+02 -1.200260e+03 -4.000000e+02
3.628390e-10 -1.200260e+03 -4.000000e+02
-4.000000e+02 -1.600260e+03 3.167950e-11
1.270490e-10 -1.600260e+03 7.663880e-11
-4.000000e+02 -1.200260e+03 -1.585480e-10
3.489640e-10 -1.200260e+03 -8.686370e-11
-1.612320e-11 -1.600260e+03 -4.000000e+02
4.000000e+02 -1.600260e+03 -4.000000e+02
3.628390e-10 -1.200260e+03 -4.000000e+02
4.000000e+02 -1.200260e+03 -4.000000e+02
1.270490e-10 -1.600260e+03 7.663880e-11
4.000000e+02 -1.600260e+03 -5.370160e-11
3.489640e-10 -1.200260e+03 -8.686370e-11
4.000000e+02 -1.200260e+03 -3.850500e-11
-4.000000e+02 -1.200260e+03 -4.000000e+02
3.628390e-10 -1.200260e+03 -4.000000e+02
-4.000000e+02 -8.002620e+02 -4.000000e+02
1.222040e-10 -8.002620e+02 -4.000000e+02
-4.000000e+02 -1.200260e+03 -1.585480e-10
3.489640e-10 -1.200260e+03 -8.686370e-11
-4.000000e+02 -8.002620e+02 1.566780e-10
1.359390e-10 -8.002620e+02 6.152510e-11
3.628390e-10 -1.200260e+03 -4.000000e+02
4.000000e+02 -1.200260e+03 -4.000000e+02
1.222040e-10 -8.002620e+02 -4.000000e+02
4.000000e+02 -8.002620e+02 -4.000000e+02
3.489640e-10 -1.200260e+03 -8.686370e-11
4.000000e+02 -1.200260e+03 -3.850500e-11
1.359390e-10 -8.002620e+02 6.152510e-11
4.000000e+02 -8.002620e+02 -3.396010e-11
-4.000000e+02 -8.002620e+02 -4.000000e+02
1.222040e-10 -8.002620e+02 -4.000000e+02
-4.000000e+02 -4.002600e+02 -4.000000e+02
4.825800e-11 -4.002600e+02 -4.000000e+02
-4.000000e+02 -8.002620e+02 1.566780e-10
1.359390e-10 -8.002620e+02 6.152510e-11
-4.000000e+02 -4.002600e+02 2.789740e-10
1.773630e-12 -4.002600e+02 1.501710e-10
1.222040e-10 -8.002620e+02 -4.000000e+02
4.000000e+02 -8.002620e+02 -4.000000e+02
4.825800e-11 -4.002600e+02 -4.000000e+02
4.000000e+02 -4.002600e+02 -4.000000e+02
1.359390e-10 -8.002620e+02 6.152510e-11
4.000000e+02 -8.002620e+02 -3.396010e-11
1.773630e-12 -4.002600e+02 1.501710e-10
4.000000e+02 -4.002600e+02 -1.088540e-10
-4.000000e+02 -4.002600e+02 -4.000000e+02
4.825800e-11 -4.002600e+02 -4.000000e+02
-4.000000e+02 -2.605350e-01 -4.000000e+02
2.263890e-10 -2.605370e-01 -4.000000e+02
-4.000000e+02 -4.002600e+02 2.789740e-10
1.773630e-12 -4.002600e+02 1.501710e-10
-4.000000e+02 -2.605370e-01 1.232250e-10
1.896690e-10 -2.605380e-01 -6.342840e-11
4.825800e-11 -4.002600e+02 -4.000000e+02
4.000000e+02 -4.002600e+02 -4.000000e+02
2.263890e-10 -2.605370e-01 -4.000000e+02
[...]
<PointData>
<DataArray type="Float32" Name="V1" format="ascii">
0.000000e+00
0.000000e+00
4.231780e-06
2.139850e-10
0.000000e+00
0.000000e+00
3.944680e-06
-6.541560e-11
0.000000e+00
0.000000e+00
2.139850e-10
-4.231640e-06
0.000000e+00
0.000000e+00
-6.541560e-11
-3.944960e-06
4.231780e-06
2.139850e-10
-4.988990e-06
3.951100e-10
3.944680e-06
-6.541560e-11
-4.767540e-06
-1.248730e-10
2.139850e-10
-4.231640e-06
3.951100e-10
4.990350e-06
-6.541560e-11
-3.944960e-06
-1.248730e-10
4.767830e-06
-4.988990e-06
3.951100e-10
2.188030e-06
8.816250e-11
-4.767540e-06
-1.248730e-10
2.147750e-06
2.436320e-10
3.951100e-10
4.990350e-06
8.816250e-11
-2.188080e-06
-1.248730e-10
4.767830e-06
2.436320e-10
-2.147330e-06
2.188030e-06
8.816250e-11
2.354030e-06
2.032620e-10
2.147750e-06
2.436320e-10
2.198020e-06
1.035570e-10
8.816250e-11
-2.188080e-06
2.032620e-10
-2.353830e-06
2.436320e-10
-2.147330e-06
1.035570e-10
-2.197320e-06
2.354030e-06
2.032620e-10
-6.531720e-07
-2.401420e-11
2.198020e-06
1.035570e-10
-2.835800e-07
4.231240e-10
2.032620e-10
-2.353830e-06
-2.401420e-11
6.529440e-07
1.035570e-10
-2.197320e-06
4.231240e-10
2.836750e-07
-6.531720e-07
-2.401420e-11
-4.598390e-06
3.960460e-11
-2.835800e-07
4.231240e-10
-5.147420e-06
-1.076220e-10
-2.401420e-11
6.529440e-07
3.960460e-11
4.598460e-06
4.231240e-10
2.836750e-07
-1.076220e-10
5.147310e-06
-4.598390e-06
3.960460e-11
1.198110e-06
2.974140e-10
-5.147420e-06
-1.076220e-10
1.799480e-06
-1.333890e-10
3.960460e-11
4.598460e-06
2.974140e-10
-1.198090e-06
-1.076220e-10
5.147310e-06
-1.333890e-10
-1.799860e-06
1.198110e-06
2.974140e-10
6.685080e-06
4.544930e-10
1.799480e-06
-1.333890e-10
6.419620e-06
-4.264490e-11
2.974140e-10
-1.198090e-06
4.544930e-10
-6.684720e-06
-1.333890e-10
-1.799860e-06
-4.264490e-11
-6.419990e-06
6.685080e-06
4.544930e-10
-5.385580e-06
6.556770e-11
6.419620e-06
-4.264490e-11
-5.783610e-06
5.448930e-11
4.544930e-10
-6.684720e-06
6.556770e-11
5.385680e-06
-4.264490e-11
-6.419990e-06
5.448930e-11
5.783420e-06
-5.385580e-06
6.556770e-11
-9.150310e-07
-1.299630e-10
-5.783610e-06
5.448930e-11
-5.776240e-07
2.050420e-10
6.556770e-11
5.385680e-06
-1.299630e-10
9.145840e-07
5.448930e-11
5.783420e-06
2.050420e-10
5.779700e-07
-9.150310e-07
-1.299630e-10
5.304720e-06
-1.532440e-11
-5.776240e-07
2.050420e-10
5.852430e-06
2.468090e-11
-1.299630e-10
9.145840e-07
-1.532440e-11
-5.305100e-06
2.050420e-10
5.779700e-07
2.468090e-11
-5.852500e-06
5.304720e-06
-1.532440e-11
-5.876010e-09
-1.888610e-10
5.852430e-06
2.468090e-11
-2.928740e-07
8.191540e-11
-1.532440e-11
-5.305100e-06
-1.888610e-10
4.956900e-09
2.468090e-11
-5.852500e-06
8.191540e-11
2.930540e-07
-5.876010e-09
-1.888610e-10
-5.922500e-06
-5.754750e-12
-2.928740e-07
8.191540e-11
-6.234190e-06
1.734880e-10
-1.888610e-10
4.956900e-09
-5.754750e-12
5.921930e-06
8.191540e-11
2.930540e-07
1.734880e-10
6.234310e-06
-5.922500e-06
-5.754750e-12
-4.089950e-06
-5.185950e-10
-6.234190e-06
1.734880e-10
-3.971830e-06
-4.130820e-11
-5.754750e-12
5.921930e-06
-5.185950e-10
4.089330e-06
1.734880e-10
6.234310e-06
-4.130820e-11
3.971610e-06
-4.089950e-06
-5.185950e-10
1.108190e-06
-9.928400e-12
-3.971830e-06
-4.130820e-11
7.883510e-07
-7.509220e-11
-5.185950e-10
4.089330e-06
-9.928400e-12
-1.108360e-06
-4.130820e-11
3.971610e-06
-7.509220e-11
-7.884540e-07
1.108190e-06
-9.928400e-12
5.007160e-06
3.509080e-10
7.883510e-07
-7.509220e-11
5.062550e-06
1.844560e-10
-9.928400e-12
-1.108360e-06
3.509080e-10
-5.006410e-06
-7.509220e-11
-7.884540e-07
1.844560e-10
-5.062060e-06
5.007160e-06
3.509080e-10
1.744000e-06
4.552730e-11
5.062550e-06
1.844560e-10
1.482730e-06
-3.303000e-11
3.509080e-10
-5.006410e-06
4.552730e-11
-1.744130e-06
1.844560e-10
-5.062060e-06
-3.303000e-11
-1.482630e-06
1.744000e-06
4.552730e-11
-6.851650e-06
-6.999190e-11
1.482730e-06
-3.303000e-11
-7.005490e-06
1.081840e-10
4.552730e-11
-1.744130e-06
-6.999190e-11
6.851570e-06
-3.303000e-11
-1.482630e-06
1.081840e-10
7.005800e-06
-6.851650e-06
-6.999190e-11
-8.414760e-06
-7.552600e-11
-7.005490e-06
1.081840e-10
-8.559330e-06
9.586780e-12
-6.999190e-11
6.851570e-06
-7.552600e-11
8.414690e-06
1.081840e-10
7.005800e-06
9.586780e-12
8.559320e-06
-8.414760e-06
-7.552600e-11
-4.582180e-06
-4.312540e-11
-8.559330e-06
9.586780e-12
-4.508380e-06
7.365910e-11
-7.552600e-11
8.414690e-06
-4.312540e-11
4.581770e-06
9.586780e-12
8.559320e-06
7.365910e-11
4.508160e-06
-4.582180e-06
-4.312540e-11
-3.863000e-06
1.346460e-10
-4.508380e-06
7.365910e-11
-3.782470e-06
2.023700e-10
-4.312540e-11
4.581770e-06
1.346460e-10
3.862930e-06
7.365910e-11
4.508160e-06
2.023700e-10
3.782500e-06
-3.863000e-06
1.346460e-10
2.143030e-06
8.060320e-11
-3.782470e-06
2.023700e-10
2.177090e-06
1.140040e-10
1.346460e-10
3.862930e-06
8.060320e-11
-2.143030e-06
2.023700e-10
3.782500e-06
1.140040e-10
-2.177060e-06
2.143030e-06
8.060320e-11
7.878560e-06
-2.226950e-11
2.177090e-06
1.140040e-10
7.827320e-06
4.736660e-12
8.060320e-11
-2.143030e-06
-2.226950e-11
-7.878680e-06
1.140040e-10
-2.177060e-06
4.736660e-12
-7.827360e-06
7.878560e-06
-2.226950e-11
5.074960e-06
-7.068280e-11
7.827320e-06
4.736660e-12
5.005220e-06
-6.615020e-11
-2.226950e-11
-7.878680e-06
-7.068280e-11
-5.075110e-06
4.736660e-12
-7.827360e-06
-6.615020e-11
-5.005360e-06
5.074960e-06
-7.068280e-11
-2.511670e-06
-6.512820e-11
5.005220e-06
-6.615020e-11
-2.536870e-06
-6.370480e-11
-7.068280e-11
-5.075110e-06
-6.512820e-11
2.511540e-06
-6.615020e-11
-5.005360e-06
-6.370480e-11
2.536750e-06
-2.511670e-06
-6.512820e-11
-5.590250e-06
1.424580e-11
-2.536870e-06
-6.370480e-11
-5.804310e-06
2.660390e-11
-6.512820e-11
2.511540e-06
1.424580e-11
5.590300e-06
-6.370480e-11
2.536750e-06
2.660390e-11
5.804370e-06
-5.590250e-06
1.424580e-11
-3.553790e-06
2.655410e-11
-5.804310e-06
2.660390e-11
-3.717580e-06
2.600960e-11
1.424580e-11
5.590300e-06
2.655410e-11
3.553820e-06
2.660390e-11
5.804370e-06
2.600960e-11
3.717630e-06
-3.553790e-06
2.655410e-11
-1.636310e-06
-1.639350e-12
-3.717580e-06
2.600960e-11
-1.077280e-06
-2.761920e-12
2.655410e-11
3.553820e-06
-1.639350e-12
1.636290e-06
2.600960e-11
3.717630e-06
-2.761920e-12
1.077250e-06
-1.636310e-06
-1.639350e-12
-5.910650e-06
6.332770e-12
-1.077280e-06
-2.761920e-12
3.169040e-07
4.692470e-12
-1.639350e-12
1.636290e-06
6.332770e-12
5.910640e-06
-2.761920e-12
1.077250e-06
4.692470e-12
-3.169200e-07
-5.910650e-06
6.332770e-12
3.180430e-05
7.965110e-12
3.169040e-07
4.692470e-12
1.658090e-05
1.060280e-11
6.332770e-12
5.910640e-06
7.965110e-12
-3.180430e-05
4.692470e-12
-3.169200e-07
1.060280e-11
-1.658090e-05
0.000000e+00
0.000000e+00
3.944680e-06
-6.541560e-11
0.000000e+00
0.000000e+00
4.231600e-06
2.623390e-11
0.000000e+00
0.000000e+00
-6.541560e-11
-3.944960e-06
0.000000e+00
0.000000e+00
2.623390e-11
-4.231650e-06
3.944680e-06
-6.541560e-11
-4.767540e-06
-1.248730e-10
4.231600e-06
2.623390e-11
-4.989790e-06
-1.810740e-10
-6.541560e-11
-3.944960e-06
-1.248730e-10
4.767830e-06
2.623390e-11
-4.231650e-06
-1.810740e-10
4.989420e-06
-4.767540e-06
-1.248730e-10
2.147750e-06
2.436320e-10
-4.989790e-06
-1.810740e-10
2.188670e-06
1.424250e-10
-1.248730e-10
4.767830e-06
2.436320e-10
-2.147330e-06
-1.810740e-10
4.989420e-06
1.424250e-10
-2.188470e-06
2.147750e-06
2.436320e-10
2.198020e-06
1.035570e-10
2.188670e-06
1.424250e-10
2.354360e-06
-1.980290e-10
2.436320e-10
-2.147330e-06
1.035570e-10
-2.197320e-06
1.424250e-10
-2.188470e-06
-1.980290e-10
-2.355090e-06
2.198020e-06
1.035570e-10
-2.835800e-07
4.231240e-10
2.354360e-06
-1.980290e-10
-6.535180e-07
-1.336680e-10
1.035570e-10
-2.197320e-06
4.231240e-10
2.836750e-07
-1.980290e-10
-2.355090e-06
-1.336680e-10
6.529830e-07
-2.835800e-07
4.231240e-10
-5.147420e-06
-1.076220e-10
-6.535180e-07
-1.336680e-10
-4.597800e-06
-1.703130e-10
4.231240e-10
2.836750e-07
-1.076220e-10
5.147310e-06
-1.336680e-10
6.529830e-07
-1.703130e-10
4.597810e-06
-5.147420e-06
-1.076220e-10
1.799480e-06
-1.333890e-10
-4.597800e-06
-1.703130e-10
1.197940e-06
3.932110e-11
-1.076220e-10
5.147310e-06
-1.333890e-10
-1.799860e-06
-1.703130e-10
4.597810e-06
3.932110e-11
-1.198100e-06
1.799480e-06
-1.333890e-10
6.419620e-06
-4.264490e-11
1.197940e-06
3.932110e-11
6.683980e-06
-1.620470e-10
-1.333890e-10
-1.799860e-06
-4.264490e-11
-6.419990e-06
3.932110e-11
-1.198100e-06
-1.620470e-10
-6.684580e-06
6.419620e-06
-4.264490e-11
-5.783610e-06
5.448930e-11
6.683980e-06
-1.620470e-10
-5.385360e-06
1.668990e-10
-4.264490e-11
-6.419990e-06
5.448930e-11
5.783420e-06
-1.620470e-10
-6.684580e-06
1.668990e-10
5.386140e-06
-5.783610e-06
5.448930e-11
-5.776240e-07
2.050420e-10
-5.385360e-06
1.668990e-10
-9.148190e-07
1.933870e-10
5.448930e-11
5.783420e-06
2.050420e-10
5.779700e-07
1.668990e-10
5.386140e-06
1.933870e-10
9.151260e-07
-5.776240e-07
2.050420e-10
5.852430e-06
2.468090e-11
-9.148190e-07
1.933870e-10
5.305280e-06
-5.995160e-11
2.050420e-10
5.779700e-07
2.468090e-11
-5.852500e-06
1.933870e-10
9.151260e-07
-5.995160e-11
-5.305640e-06
5.852430e-06
2.468090e-11
-2.928740e-07
8.191540e-11
5.305280e-06
-5.995160e-11
-5.491080e-09
3.073370e-11
2.468090e-11
-5.852500e-06
8.191540e-11
2.930540e-07
-5.995160e-11
-5.305640e-06
3.073370e-11
5.192570e-09
-2.928740e-07
8.191540e-11
-6.234190e-06
1.734880e-10
-5.491080e-09
3.073370e-11
-5.921630e-06
2.907590e-10
8.191540e-11
2.930540e-07
1.734880e-10
6.234310e-06
3.073370e-11
5.192570e-09
2.907590e-10
5.922370e-06
-6.234190e-06
1.734880e-10
-3.971830e-06
-4.130820e-11
-5.921630e-06
2.907590e-10
-4.089250e-06
-1.113260e-10
1.734880e-10
6.234310e-06
-4.130820e-11
3.971610e-06
2.907590e-10
5.922370e-06
-1.113260e-10
4.089180e-06
-3.971830e-06
-4.130820e-11
7.883510e-07
-7.509220e-11
-4.089250e-06
-1.113260e-10
1.108500e-06
-1.571470e-10
-4.130820e-11
3.971610e-06
-7.509220e-11
-7.884540e-07
-1.113260e-10
4.089180e-06
-1.571470e-10
-1.108720e-06
7.883510e-07
-7.509220e-11
5.062550e-06
1.844560e-10
1.108500e-06
-1.571470e-10
5.007090e-06
3.053720e-10
-7.509220e-11
-7.884540e-07
1.844560e-10
-5.062060e-06
-1.571470e-10
-1.108720e-06
3.053720e-10
-5.006250e-06
5.062550e-06
1.844560e-10
1.482730e-06
-3.303000e-11
5.007090e-06
3.053720e-10
1.743420e-06
6.980050e-11
1.844560e-10
-5.062060e-06
-3.303000e-11
-1.482630e-06
3.053720e-10
-5.006250e-06
6.980050e-11
-1.743710e-06
1.482730e-06
-3.303000e-11
-7.005490e-06
1.081840e-10
1.743420e-06
6.980050e-11
-6.851790e-06
1.061970e-10
-3.303000e-11
-1.482630e-06
1.081840e-10
7.005800e-06
6.980050e-11
-1.743710e-06
1.061970e-10
6.851720e-06
-7.005490e-06
1.081840e-10
-8.559330e-06
9.586780e-12
-6.851790e-06
1.061970e-10
-8.414970e-06
-1.867620e-10
1.081840e-10
7.005800e-06
9.586780e-12
8.559320e-06
1.061970e-10
6.851720e-06
-1.867620e-10
8.414340e-06
-8.559330e-06
9.586780e-12
-4.508380e-06
7.365910e-11
-8.414970e-06
-1.867620e-10
-4.582160e-06
-1.710300e-11
9.586780e-12
8.559320e-06
7.365910e-11
4.508160e-06
-1.867620e-10
8.414340e-06
-1.710300e-11
4.581830e-06
-4.508380e-06
7.365910e-11
-3.782470e-06
2.023700e-10
-4.582160e-06
-1.710300e-11
-3.862940e-06
1.287490e-10
7.365910e-11
4.508160e-06
2.023700e-10
3.782500e-06
-1.710300e-11
4.581830e-06
1.287490e-10
3.862860e-06
-3.782470e-06
2.023700e-10
2.177090e-06
1.140040e-10
-3.862940e-06
1.287490e-10
2.143060e-06
9.110180e-11
2.023700e-10
3.782500e-06
1.140040e-10
-2.177060e-06
1.287490e-10
3.862860e-06
9.110180e-11
-2.143090e-06
2.177090e-06
1.140040e-10
7.827320e-06
4.736660e-12
2.143060e-06
9.110180e-11
7.878610e-06
3.079870e-11
1.140040e-10
-2.177060e-06
4.736660e-12
-7.827360e-06
9.110180e-11
-2.143090e-06
3.079870e-11
-7.878630e-06
7.827320e-06
4.736660e-12
5.005220e-06
-6.615020e-11
7.878610e-06
3.079870e-11
5.074970e-06
-5.379320e-11
4.736660e-12
-7.827360e-06
-6.615020e-11
-5.005360e-06
3.079870e-11
-7.878630e-06
-5.379320e-11
-5.075100e-06
5.005220e-06
-6.615020e-11
-2.536870e-06
-6.370480e-11
5.074970e-06
-5.379320e-11
-2.511700e-06
-7.251970e-11
-6.615020e-11
-5.005360e-06
-6.370480e-11
2.536750e-06
-5.379320e-11
-5.075100e-06
-7.251970e-11
2.511550e-06
-2.536870e-06
-6.370480e-11
-5.804310e-06
2.660390e-11
-2.511700e-06
-7.251970e-11
-5.590260e-06
2.209470e-11
-6.370480e-11
2.536750e-06
2.660390e-11
5.804370e-06
-7.251970e-11
2.511550e-06
2.209470e-11
5.590320e-06
-5.804310e-06
2.660390e-11
-3.717580e-06
2.600960e-11
-5.590260e-06
2.209470e-11
-3.553800e-06
2.927250e-11
2.660390e-11
5.804370e-06
2.600960e-11
3.717630e-06
2.209470e-11
5.590320e-06
2.927250e-11
3.553880e-06
-3.717580e-06
2.600960e-11
-1.077280e-06
-2.761920e-12
-3.553800e-06
2.927250e-11
-1.636300e-06
5.374870e-12
2.600960e-11
3.717630e-06
-2.761920e-12
1.077250e-06
2.927250e-11
3.553880e-06
5.374870e-12
1.636320e-06
-1.077280e-06
-2.761920e-12
3.169040e-07
4.692470e-12
-1.636300e-06
5.374870e-12
-5.910670e-06
2.569760e-12
-2.761920e-12
1.077250e-06
4.692470e-12
-3.169200e-07
5.374870e-12
1.636320e-06
2.569760e-12
5.910650e-06
3.169040e-07
4.692470e-12
1.658090e-05
1.060280e-11
-5.910670e-06
2.569760e-12
3.180430e-05
1.484330e-11
4.692470e-12
-3.169200e-07
1.060280e-11
-1.658090e-05
2.569760e-12
5.910650e-06
1.484330e-11
-3.180430e-05
</DataArray>
<DataArray type="Float32" Name="V2" format="ascii">
0.000000e+00
0.000000e+00
4.461780e-03
4.464400e-03
0.000000e+00
0.000000e+00
4.464400e-03
4.467160e-03
0.000000e+00
0.000000e+00
4.464400e-03
4.461780e-03
0.000000e+00
0.000000e+00
4.467160e-03
4.464400e-03
4.461780e-03
4.464400e-03
1.101710e-02
1.101780e-02
4.464400e-03
4.467160e-03
1.101780e-02
1.101840e-02
4.464400e-03
4.461780e-03
1.101780e-02
1.101710e-02
4.467160e-03
4.464400e-03
1.101840e-02
1.101780e-02
1.101710e-02
1.101780e-02
2.104900e-02
2.105380e-02
1.101780e-02
1.101840e-02
2.105380e-02
2.105920e-02
1.101780e-02
1.101710e-02
2.105380e-02
2.104900e-02
1.101840e-02
1.101780e-02
2.105920e-02
2.105380e-02
2.104900e-02
2.105380e-02
3.415150e-02
3.414790e-02
2.105380e-02
2.105920e-02
3.414790e-02
3.414340e-02
2.105380e-02
2.104900e-02
3.414790e-02
3.415150e-02
2.105920e-02
2.105380e-02
3.414340e-02
3.414790e-02
3.415150e-02
3.414790e-02
4.415860e-02
4.415330e-02
3.414790e-02
3.414340e-02
4.415330e-02
4.414850e-02
3.414790e-02
3.415150e-02
4.415330e-02
4.415860e-02
3.414340e-02
3.414790e-02
4.414850e-02
4.415330e-02
4.415860e-02
4.415330e-02
4.173080e-02
4.173430e-02
4.415330e-02
4.414850e-02
4.173430e-02
4.173830e-02
4.415330e-02
4.415860e-02
4.173430e-02
4.173080e-02
4.414850e-02
4.415330e-02
4.173830e-02
4.173430e-02
4.173080e-02
4.173430e-02
2.314590e-02
2.314910e-02
4.173430e-02
4.173830e-02
2.314910e-02
2.315170e-02
4.173430e-02
4.173080e-02
2.314910e-02
2.314590e-02
4.173830e-02
4.173430e-02
2.315170e-02
2.314910e-02
2.314590e-02
2.314910e-02
-1.346870e-03
-1.339880e-03
2.314910e-02
2.315170e-02
-1.339880e-03
-1.333020e-03
2.314910e-02
2.314590e-02
-1.339880e-03
-1.346870e-03
2.315170e-02
2.314910e-02
-1.333020e-03
-1.339880e-03
-1.346870e-03
-1.339880e-03
-1.346400e-02
-1.346300e-02
-1.339880e-03
-1.333020e-03
-1.346300e-02
-1.346180e-02
-1.339880e-03
-1.346870e-03
-1.346300e-02
-1.346400e-02
-1.333020e-03
-1.339880e-03
-1.346180e-02
-1.346300e-02
-1.346400e-02
-1.346300e-02
-5.521030e-03
-5.534100e-03
-1.346300e-02
-1.346180e-02
-5.534100e-03
-5.545990e-03
-1.346300e-02
-1.346400e-02
-5.534100e-03
-5.521040e-03
-1.346180e-02
-1.346300e-02
-5.545990e-03
-5.534100e-03
-5.521030e-03
-5.534100e-03
5.263320e-03
5.248500e-03
-5.534100e-03
-5.545990e-03
5.248500e-03
5.233210e-03
-5.534100e-03
-5.521040e-03
5.248500e-03
5.263320e-03
-5.545990e-03
-5.534100e-03
5.233210e-03
5.248500e-03
5.263320e-03
5.248500e-03
2.616480e-03
2.623420e-03
5.248500e-03
5.233210e-03
2.623420e-03
2.629230e-03
5.248500e-03
5.263320e-03
2.623420e-03
2.616480e-03
5.233210e-03
5.248500e-03
2.629230e-03
2.623420e-03
2.616480e-03
2.623420e-03
-2.152160e-03
-2.148470e-03
2.623420e-03
2.629230e-03
-2.148470e-03
-2.145060e-03
2.623420e-03
2.616480e-03
-2.148470e-03
-2.152160e-03
2.629230e-03
2.623420e-03
-2.145060e-03
-2.148470e-03
-2.152160e-03
-2.148470e-03
-7.199270e-04
-7.183800e-04
-2.148470e-03
-2.145060e-03
-7.183810e-04
-7.159380e-04
-2.148470e-03
-2.152160e-03
-7.183800e-04
-7.199240e-04
-2.145060e-03
-2.148470e-03
-7.159380e-04
-7.183810e-04
-7.199270e-04
-7.183800e-04
4.646880e-04
4.770550e-04
-7.183810e-04
-7.159380e-04
4.770550e-04
4.892040e-04
-7.183800e-04
-7.199240e-04
4.770550e-04
4.646880e-04
-7.159380e-04
-7.183810e-04
4.892040e-04
4.770560e-04
4.646880e-04
4.770550e-04
-3.911790e-04
-3.855070e-04
4.770550e-04
4.892040e-04
-3.855070e-04
-3.806100e-04
4.770550e-04
4.646880e-04
-3.855070e-04
-3.911780e-04
4.892040e-04
4.770560e-04
-3.806100e-04
-3.855070e-04
-3.911790e-04
-3.855070e-04
-2.865310e-04
-2.850290e-04
-3.855070e-04
-3.806100e-04
-2.850280e-04
-2.829130e-04
-3.855070e-04
-3.911780e-04
-2.850290e-04
-2.865330e-04
-3.806100e-04
-3.855070e-04
-2.829130e-04
-2.850290e-04
-2.865310e-04
-2.850290e-04
-1.645380e-04
-1.553010e-04
-2.850280e-04
-2.829130e-04
-1.553010e-04
-1.461750e-04
-2.850290e-04
-2.865330e-04
-1.553010e-04
-1.645380e-04
-2.829130e-04
-2.850290e-04
-1.461750e-04
-1.553010e-04
-1.645380e-04
-1.553010e-04
-2.600630e-04
-2.604350e-04
-1.553010e-04
-1.461750e-04
-2.604370e-04
-2.609050e-04
-1.553010e-04
-1.645380e-04
-2.604350e-04
-2.600620e-04
-1.461750e-04
-1.553010e-04
-2.609050e-04
-2.604380e-04
-2.600630e-04
-2.604350e-04
-2.222840e-04
-2.253100e-04
-2.604370e-04
-2.609050e-04
-2.253100e-04
-2.301950e-04
-2.604350e-04
-2.600620e-04
-2.253100e-04
-2.222840e-04
-2.609050e-04
-2.604380e-04
-2.301950e-04
-2.253090e-04
-2.222840e-04
-2.253100e-04
-1.562450e-04
-1.824080e-04
-2.253100e-04
-2.301950e-04
-1.824080e-04
-2.090650e-04
-2.253100e-04
-2.222840e-04
-1.824080e-04
-1.562450e-04
-2.301950e-04
-2.253090e-04
-2.090650e-04
-1.824080e-04
-1.562450e-04
-1.824080e-04
-4.525200e-04
-4.735440e-04
-1.824080e-04
-2.090650e-04
-4.735440e-04
-4.879680e-04
-1.824080e-04
-1.562450e-04
-4.735440e-04
-4.525200e-04
-2.090650e-04
-1.824080e-04
-4.879680e-04
-4.735440e-04
-4.525200e-04
-4.735440e-04
-6.154510e-04
-5.878800e-04
-4.735440e-04
-4.879680e-04
-5.878800e-04
-5.557580e-04
-4.735440e-04
-4.525200e-04
-5.878800e-04
-6.154510e-04
-4.879680e-04
-4.735440e-04
-5.557580e-04
-5.878790e-04
-6.154510e-04
-5.878800e-04
6.857670e-05
7.554990e-05
-5.878800e-04
-5.557580e-04
7.554960e-05
7.852080e-05
-5.878800e-04
-6.154510e-04
7.554990e-05
6.857700e-05
-5.557580e-04
-5.878790e-04
7.852080e-05
7.555010e-05
6.857670e-05
7.554990e-05
1.058550e-04
1.114660e-04
7.554960e-05
7.852080e-05
1.114660e-04
1.157930e-04
7.554990e-05
6.857700e-05
1.114660e-04
1.058550e-04
7.852080e-05
7.555010e-05
1.157930e-04
1.114660e-04
1.058550e-04
1.114660e-04
-3.812400e-04
-3.878250e-04
1.114660e-04
1.157930e-04
-3.878250e-04
-3.895480e-04
1.114660e-04
1.058550e-04
-3.878250e-04
-3.812400e-04
1.157930e-04
1.114660e-04
-3.895480e-04
-3.878250e-04
-3.812400e-04
-3.878250e-04
-2.366360e-04
-2.449690e-04
-3.878250e-04
-3.895480e-04
-2.449690e-04
-2.590340e-04
-3.878250e-04
-3.812400e-04
-2.449690e-04
-2.366360e-04
-3.895480e-04
-3.878250e-04
-2.590340e-04
-2.449700e-04
-2.366360e-04
-2.449690e-04
-1.305730e-04
-1.321420e-04
-2.449690e-04
-2.590340e-04
-1.321420e-04
-1.438520e-04
-2.449690e-04
-2.366360e-04
-1.321420e-04
-1.305720e-04
-2.590340e-04
-2.449700e-04
-1.438520e-04
-1.321420e-04
-1.305730e-04
-1.321420e-04
-1.876430e-05
-4.139260e-05
-1.321420e-04
-1.438520e-04
-4.139290e-05
-4.011200e-05
-1.321420e-04
-1.305720e-04
-4.139260e-05
-1.876430e-05
-1.438520e-04
-1.321420e-04
-4.011200e-05
-4.139270e-05
-1.876430e-05
-4.139260e-05
1.020450e-04
-5.382170e-06
-4.139290e-05
-4.011200e-05
-5.382170e-06
2.213900e-05
-4.139260e-05
-1.876430e-05
-5.382170e-06
1.020450e-04
-4.011200e-05
-4.139270e-05
2.213900e-05
-5.382170e-06
0.000000e+00
0.000000e+00
4.464400e-03
4.467160e-03
0.000000e+00
0.000000e+00
4.461780e-03
4.464400e-03
0.000000e+00
0.000000e+00
4.467160e-03
4.464400e-03
0.000000e+00
0.000000e+00
4.464400e-03
4.461780e-03
4.464400e-03
4.467160e-03
1.101780e-02
1.101840e-02
4.461780e-03
4.464400e-03
1.101710e-02
1.101780e-02
4.467160e-03
4.464400e-03
1.101840e-02
1.101780e-02
4.464400e-03
4.461780e-03
1.101780e-02
1.101710e-02
1.101780e-02
1.101840e-02