<?xml version="1.0"?>
<VTKFile type="UnstructuredGrid" version="0.1" byte_order="LittleEndian" compressor="vtkZLibDataCompressor">
<UnstructuredGrid>
<Piece NumberOfPoints="960" NumberOfCells="120">
<Points>
<DataArray type="Float32" NumberOfComponents="3" format="ascii">
-4.000000e+02 -6.000000e+03 -4.000000e+02
0.000000e+00 -6.000000e+03 -4.000000e+02
-4.000000e+02 -5.600000e+03 -4.000000e+02
-1.561920e-10 -5.600000e+03 -4.000000e+02
-4.000000e+02 -6.000000e+03 0.000000e+00
0.000000e+00 -6.000000e+03 0.000000e+00
-4.000000e+02 -5.600000e+03 -9.025900e-11
-1.881380e-10 -5.600000e+03 -2.828260e-11
0.000000e+00 -6.000000e+03 -4.000000e+02
4.000000e+02 -6.000000e+03 -4.000000e+02
-1.561920e-10 -5.600000e+03 -4.000000e+02
4.000000e+02 -5.600000e+03 -4.000000e+02
0.000000e+00 -6.000000e+03 0.000000e+00
4.000000e+02 -6.000000e+03 0.000000e+00
-1.881380e-10 -5.600000e+03 -2.828260e-11
4.000000e+02 -5.600000e+03 3.419260e-11
-4.000000e+02 -5.600000e+03 -4.000000e+02
-1.561920e-10 -5.600000e+03 -4.000000e+02
-4.000000e+02 -5.200000e+03 -4.000000e+02
-3.354260e-10 -5.200000e+03 -4.000000e+02
-4.000000e+02 -5.600000e+03 -9.025900e-11
-1.881380e-10 -5.600000e+03 -2.828260e-11
-4.000000e+02 -5.200000e+03 1.797480e-10
1.200460e-10 -5.200000e+03 1.491360e-10
-1.561920e-10 -5.600000e+03 -4.000000e+02
4.000000e+02 -5.600000e+03 -4.000000e+02
-3.354260e-10 -5.200000e+03 -4.000000e+02
4.000000e+02 -5.200000e+03 -4.000000e+02
-1.881380e-10 -5.600000e+03 -2.828260e-11
4.000000e+02 -5.600000e+03 3.419260e-11
1.200460e-10 -5.200000e+03 1.491360e-10
4.000000e+02 -5.200000e+03 4.000600e-10
-4.000000e+02 -5.200000e+03 -4.000000e+02
-3.354260e-10 -5.200000e+03 -4.000000e+02
-4.000000e+02 -4.799990e+03 -4.000000e+02
-1.773410e-10 -4.799990e+03 -4.000000e+02
-4.000000e+02 -5.200000e+03 1.797480e-10
1.200460e-10 -5.200000e+03 1.491360e-10
-4.000000e+02 -4.799990e+03 2.173510e-10
8.074580e-11 -4.799990e+03 3.162700e-10
-3.354260e-10 -5.200000e+03 -4.000000e+02
4.000000e+02 -5.200000e+03 -4.000000e+02
-1.773410e-10 -4.799990e+03 -4.000000e+02
4.000000e+02 -4.799990e+03 -4.000000e+02
1.200460e-10 -5.200000e+03 1.491360e-10
4.000000e+02 -5.200000e+03 4.000600e-10
8.074580e-11 -4.799990e+03 3.162700e-10
4.000000e+02 -4.799990e+03 4.225590e-10
-4.000000e+02 -4.799990e+03 -4.000000e+02
-1.773410e-10 -4.799990e+03 -4.000000e+02
-4.000000e+02 -4.399990e+03 -4.000000e+02
4.915810e-10 -4.399990e+03 -4.000000e+02
-4.000000e+02 -4.799990e+03 2.173510e-10
8.074580e-11 -4.799990e+03 3.162700e-10
-4.000000e+02 -4.399990e+03 1.637550e-10
3.659210e-10 -4.399990e+03 4.228130e-10
-1.773410e-10 -4.799990e+03 -4.000000e+02
4.000000e+02 -4.799990e+03 -4.000000e+02
4.915810e-10 -4.399990e+03 -4.000000e+02
4.000000e+02 -4.399990e+03 -4.000000e+02
8.074580e-11 -4.799990e+03 3.162700e-10
4.000000e+02 -4.799990e+03 4.225590e-10
3.659210e-10 -4.399990e+03 4.228130e-10
4.000000e+02 -4.399990e+03 2.335420e-11
-4.000000e+02 -4.399990e+03 -4.000000e+02
4.915810e-10 -4.399990e+03 -4.000000e+02
-4.000000e+02 -4.000020e+03 -4.000000e+02
5.749340e-10 -4.000020e+03 -4.000000e+02
-4.000000e+02 -4.399990e+03 1.637550e-10
3.659210e-10 -4.399990e+03 4.228130e-10
-4.000000e+02 -4.000020e+03 3.457940e-10
7.502270e-10 -4.000020e+03 3.784300e-10
4.915810e-10 -4.399990e+03 -4.000000e+02
4.000000e+02 -4.399990e+03 -4.000000e+02
5.749340e-10 -4.000020e+03 -4.000000e+02
4.000000e+02 -4.000020e+03 -4.000000e+02
3.659210e-10 -4.399990e+03 4.228130e-10
4.000000e+02 -4.399990e+03 2.335420e-11
7.502270e-10 -4.000020e+03 3.784300e-10
4.000000e+02 -4.000020e+03 2.685400e-10
-4.000000e+02 -4.000020e+03 -4.000000e+02
5.749340e-10 -4.000020e+03 -4.000000e+02
-4.000000e+02 -3.600090e+03 -4.000000e+02
8.289320e-10 -3.600090e+03 -4.000000e+02
-4.000000e+02 -4.000020e+03 3.457940e-10
7.502270e-10 -4.000020e+03 3.784300e-10
-4.000000e+02 -3.600090e+03 3.227490e-10
4.833670e-10 -3.600090e+03 2.101110e-10
5.749340e-10 -4.000020e+03 -4.000000e+02
4.000000e+02 -4.000020e+03 -4.000000e+02
8.289320e-10 -3.600090e+03 -4.000000e+02
4.000000e+02 -3.600090e+03 -4.000000e+02
7.502270e-10 -4.000020e+03 3.784300e-10
4.000000e+02 -4.000020e+03 2.685400e-10
4.833670e-10 -3.600090e+03 2.101110e-10
4.000000e+02 -3.600090e+03 2.430100e-10
-4.000000e+02 -3.600090e+03 -4.000000e+02
8.289320e-10 -3.600090e+03 -4.000000e+02
-4.000000e+02 -3.200150e+03 -4.000000e+02
4.037950e-10 -3.200150e+03 -4.000000e+02
-4.000000e+02 -3.600090e+03 3.227490e-10
4.833670e-10 -3.600090e+03 2.101110e-10
-4.000000e+02 -3.200150e+03 2.392850e-10
2.740520e-10 -3.200150e+03 6.270600e-12
8.289320e-10 -3.600090e+03 -4.000000e+02
4.000000e+02 -3.600090e+03 -4.000000e+02
4.037950e-10 -3.200150e+03 -4.000000e+02
4.000000e+02 -3.200150e+03 -4.000000e+02
4.833670e-10 -3.600090e+03 2.101110e-10
4.000000e+02 -3.600090e+03 2.430100e-10
2.740520e-10 -3.200150e+03 6.270600e-12
4.000000e+02 -3.200150e+03 -8.580000e-11
-4.000000e+02 -3.200150e+03 -4.000000e+02
4.037950e-10 -3.200150e+03 -4.000000e+02
-4.000000e+02 -2.800200e+03 -4.000000e+02
2.719490e-10 -2.800200e+03 -4.000000e+02
-4.000000e+02 -3.200150e+03 2.392850e-10
2.740520e-10 -3.200150e+03 6.270600e-12
-4.000000e+02 -2.800200e+03 3.456730e-10
3.059130e-10 -2.800200e+03 -6.968000e-11
4.037950e-10 -3.200150e+03 -4.000000e+02
4.000000e+02 -3.200150e+03 -4.000000e+02
2.719490e-10 -2.800200e+03 -4.000000e+02
4.000000e+02 -2.800200e+03 -4.000000e+02
2.740520e-10 -3.200150e+03 6.270600e-12
4.000000e+02 -3.200150e+03 -8.580000e-11
3.059130e-10 -2.800200e+03 -6.968000e-11
4.000000e+02 -2.800200e+03 -4.020130e-11
-4.000000e+02 -2.800200e+03 -4.000000e+02
2.719490e-10 -2.800200e+03 -4.000000e+02
-4.000000e+02 -2.400220e+03 -4.000000e+02
-6.822920e-11 -2.400220e+03 -4.000000e+02
-4.000000e+02 -2.800200e+03 3.456730e-10
3.059130e-10 -2.800200e+03 -6.968000e-11
-4.000000e+02 -2.400220e+03 5.640040e-11
-1.176290e-10 -2.400220e+03 5.397260e-11
2.719490e-10 -2.800200e+03 -4.000000e+02
4.000000e+02 -2.800200e+03 -4.000000e+02
-6.822920e-11 -2.400220e+03 -4.000000e+02
4.000000e+02 -2.400220e+03 -4.000000e+02
3.059130e-10 -2.800200e+03 -6.968000e-11
4.000000e+02 -2.800200e+03 -4.020130e-11
-1.176290e-10 -2.400220e+03 5.397260e-11
4.000000e+02 -2.400220e+03 6.410110e-11
-4.000000e+02 -2.400220e+03 -4.000000e+02
-6.822920e-11 -2.400220e+03 -4.000000e+02
-4.000000e+02 -2.000230e+03 -4.000000e+02
-1.548750e-10 -2.000230e+03 -4.000000e+02
-4.000000e+02 -2.400220e+03 5.640040e-11
-1.176290e-10 -2.400220e+03 5.397260e-11
-4.000000e+02 -2.000230e+03 -1.063360e-10
-2.616490e-11 -2.000230e+03 3.482770e-11
-6.822920e-11 -2.400220e+03 -4.000000e+02
4.000000e+02 -2.400220e+03 -4.000000e+02
-1.548750e-10 -2.000230e+03 -4.000000e+02
4.000000e+02 -2.000230e+03 -4.000000e+02
-1.176290e-10 -2.400220e+03 5.397260e-11
4.000000e+02 -2.400220e+03 6.410110e-11
-2.616490e-11 -2.000230e+03 3.482770e-11
4.000000e+02 -2.000230e+03 -2.247040e-11
-4.000000e+02 -2.000230e+03 -4.000000e+02
-1.548750e-10 -2.000230e+03 -4.000000e+02
-4.000000e+02 -1.600240e+03 -4.000000e+02
-2.138890e-10 -1.600240e+03 -4.000000e+02
-4.000000e+02 -2.000230e+03 -1.063360e-10
-2.616490e-11 -2.000230e+03 3.482770e-11
-4.000000e+02 -1.600240e+03 2.292120e-10
-2.857910e-11 -1.600240e+03 8.809870e-11
-1.548750e-10 -2.000230e+03 -4.000000e+02
4.000000e+02 -2.000230e+03 -4.000000e+02
-2.138890e-10 -1.600240e+03 -4.000000e+02
4.000000e+02 -1.600240e+03 -4.000000e+02
-2.616490e-11 -2.000230e+03 3.482770e-11
4.000000e+02 -2.000230e+03 -2.247040e-11
-2.857910e-11 -1.600240e+03 8.809870e-11
4.000000e+02 -1.600240e+03 5.934650e-12
-4.000000e+02 -1.600240e+03 -4.000000e+02
-2.138890e-10 -1.600240e+03 -4.000000e+02
-4.000000e+02 -1.200240e+03 -4.000000e+02
-2.604420e-10 -1.200240e+03 -4.000000e+02
-4.000000e+02 -1.600240e+03 2.292120e-10
-2.857910e-11 -1.600240e+03 8.809870e-11
-4.000000e+02 -1.200240e+03 5.333840e-10
-2.140520e-10 -1.200240e+03 1.436610e-10
-2.138890e-10 -1.600240e+03 -4.000000e+02
4.000000e+02 -1.600240e+03 -4.000000e+02
-2.604420e-10 -1.200240e+03 -4.000000e+02
4.000000e+02 -1.200240e+03 -4.000000e+02
-2.857910e-11 -1.600240e+03 8.809870e-11
4.000000e+02 -1.600240e+03 5.934650e-12
-2.140520e-10 -1.200240e+03 1.436610e-10
4.000000e+02 -1.200240e+03 -1.544420e-10
-4.000000e+02 -1.200240e+03 -4.000000e+02
-2.604420e-10 -1.200240e+03 -4.000000e+02
-4.000000e+02 -8.002430e+02 -4.000000e+02
-1.809980e-10 -8.002430e+02 -4.000000e+02
-4.000000e+02 -1.200240e+03 5.333840e-10
-2.140520e-10 -1.200240e+03 1.436610e-10
-4.000000e+02 -8.002430e+02 2.864650e-10
-6.100870e-11 -8.002430e+02 1.728140e-10
-2.604420e-10 -1.200240e+03 -4.000000e+02
4.000000e+02 -1.200240e+03 -4.000000e+02
-1.809980e-10 -8.002430e+02 -4.000000e+02
4.000000e+02 -8.002430e+02 -4.000000e+02
-2.140520e-10 -1.200240e+03 1.436610e-10
4.000000e+02 -1.200240e+03 -1.544420e-10
-6.100870e-11 -8.002430e+02 1.728140e-10
4.000000e+02 -8.002430e+02 -8.061620e-11
-4.000000e+02 -8.002430e+02 -4.000000e+02
-1.809980e-10 -8.002430e+02 -4.000000e+02
-4.000000e+02 -4.002450e+02 -4.000000e+02
-4.693260e-11 -4.002450e+02 -4.000000e+02
-4.000000e+02 -8.002430e+02 2.864650e-10
-6.100870e-11 -8.002430e+02 1.728140e-10
-4.000000e+02 -4.002450e+02 3.911070e-10
2.051750e-10 -4.002450e+02 1.834620e-10
-1.809980e-10 -8.002430e+02 -4.000000e+02
4.000000e+02 -8.002430e+02 -4.000000e+02
-4.693260e-11 -4.002450e+02 -4.000000e+02
4.000000e+02 -4.002450e+02 -4.000000e+02
-6.100870e-11 -8.002430e+02 1.728140e-10
4.000000e+02 -8.002430e+02 -8.061620e-11
2.051750e-10 -4.002450e+02 1.834620e-10
4.000000e+02 -4.002450e+02 -1.318730e-11
-4.000000e+02 -4.002450e+02 -4.000000e+02
-4.693260e-11 -4.002450e+02 -4.000000e+02
-4.000000e+02 -2.461500e-01 -4.000000e+02
2.512810e-10 -2.461530e-01 -4.000000e+02
-4.000000e+02 -4.002450e+02 3.911070e-10
2.051750e-10 -4.002450e+02 1.834620e-10
-4.000000e+02 -2.461530e-01 3.185980e-10
4.039390e-10 -2.461550e-01 2.342220e-10
-4.693260e-11 -4.002450e+02 -4.000000e+02
4.000000e+02 -4.002450e+02 -4.000000e+02
2.512810e-10 -2.461530e-01 -4.000000e+02
4.000000e+02 -2.461500e-01 -4.000000e+02
[...]
<PointData>
<DataArray type="Float32" Name="V1" format="ascii">
0.000000e+00
0.000000e+00
4.999320e-08
1.441030e-11
0.000000e+00
0.000000e+00
4.868130e-08
-3.471180e-10
0.000000e+00
0.000000e+00
1.441030e-11
-5.050380e-08
0.000000e+00
0.000000e+00
-3.471180e-10
-4.963970e-08
4.999320e-08
1.441030e-11
-8.080300e-08
4.031980e-10
4.868130e-08
-3.471180e-10
-8.099940e-08
1.500550e-10
1.441030e-11
-5.050380e-08
4.031980e-10
8.192630e-08
-3.471180e-10
-4.963970e-08
1.500550e-10
8.110150e-08
-8.080300e-08
4.031980e-10
6.461250e-08
2.311290e-10
-8.099940e-08
1.500550e-10
6.433760e-08
5.259110e-10
4.031980e-10
8.192630e-08
2.311290e-10
-6.510740e-08
1.500550e-10
8.110150e-08
5.259110e-10
-6.355990e-08
6.461250e-08
2.311290e-10
6.634080e-08
1.750230e-10
6.433760e-08
5.259110e-10
6.569660e-08
2.086950e-10
2.311290e-10
-6.510740e-08
1.750230e-10
-6.586160e-08
5.259110e-10
-6.355990e-08
2.086950e-10
-6.544520e-08
6.634080e-08
1.750230e-10
-3.098340e-07
-1.549560e-10
6.569660e-08
2.086950e-10
-3.032660e-07
-1.456560e-10
1.750230e-10
-6.586160e-08
-1.549560e-10
3.096690e-07
2.086950e-10
-6.544520e-08
-1.456560e-10
3.033210e-07
-3.098340e-07
-1.549560e-10
5.209380e-07
-3.965650e-10
-3.032660e-07
-1.456560e-10
5.037340e-07
5.374350e-11
-1.549560e-10
3.096690e-07
-3.965650e-10
-5.213780e-07
-1.456560e-10
3.033210e-07
5.374350e-11
-5.034990e-07
5.209380e-07
-3.965650e-10
-4.533330e-07
-1.137160e-10
5.037340e-07
5.374350e-11
-4.128370e-07
-2.018930e-10
-3.965650e-10
-5.213780e-07
-1.137160e-10
4.527280e-07
5.374350e-11
-5.034990e-07
-2.018930e-10
4.124200e-07
-4.533330e-07
-1.137160e-10
-7.913760e-08
-1.541660e-10
-4.128370e-07
-2.018930e-10
-1.462250e-07
1.667020e-10
-1.137160e-10
4.527280e-07
-1.541660e-10
7.913760e-08
-2.018930e-10
4.124200e-07
1.667020e-10
1.465000e-07
-7.913760e-08
-1.541660e-10
9.254640e-07
2.740860e-10
-1.462250e-07
1.667020e-10
1.003610e-06
2.312670e-10
-1.541660e-10
7.913760e-08
2.740860e-10
-9.247720e-07
1.667020e-10
1.465000e-07
2.312670e-10
-1.003120e-06
9.254640e-07
2.740860e-10
-1.331580e-06
-2.766280e-10
1.003610e-06
2.312670e-10
-1.361050e-06
-6.265040e-11
2.740860e-10
-9.247720e-07
-2.766280e-10
1.330400e-06
2.312670e-10
-1.003120e-06
-6.265040e-11
1.360760e-06
-1.331580e-06
-2.766280e-10
5.684100e-07
-3.529230e-10
-1.361050e-06
-6.265040e-11
4.452730e-07
1.832500e-10
-2.766280e-10
1.330400e-06
-3.529230e-10
-5.690850e-07
-6.265040e-11
1.360760e-06
1.832500e-10
-4.449030e-07
5.684100e-07
-3.529230e-10
-2.811690e-07
3.686720e-11
4.452730e-07
1.832500e-10
7.652950e-08
-4.645210e-12
-3.529230e-10
-5.690850e-07
3.686720e-11
2.815300e-07
1.832500e-10
-4.449030e-07
-4.645210e-12
-7.620740e-08
-2.811690e-07
3.686720e-11
1.911460e-06
1.241930e-10
7.652950e-08
-4.645210e-12
1.441240e-06
-9.721250e-12
3.686720e-11
2.815300e-07
1.241930e-10
-1.911090e-06
-4.645210e-12
-7.620740e-08
-9.721250e-12
-1.441290e-06
1.911460e-06
1.241930e-10
3.244770e-07
-3.012280e-12
1.441240e-06
-9.721250e-12
5.045830e-07
-3.193920e-11
1.241930e-10
-1.911090e-06
-3.012280e-12
-3.246970e-07
-9.721250e-12
-1.441290e-06
-3.193920e-11
-5.046300e-07
3.244770e-07
-3.012280e-12
-5.586520e-06
-5.594940e-11
5.045830e-07
-3.193920e-11
-5.339650e-06
-4.943350e-11
-3.012280e-12
-3.246970e-07
-5.594940e-11
5.586650e-06
-3.193920e-11
-5.046300e-07
-4.943350e-11
5.339770e-06
-5.586520e-06
-5.594940e-11
-9.909950e-07
1.803370e-10
-5.339650e-06
-4.943350e-11
-9.137670e-07
-4.877050e-11
-5.594940e-11
5.586650e-06
1.803370e-10
9.911600e-07
-4.943350e-11
5.339770e-06
-4.877050e-11
9.139000e-07
-9.909950e-07
1.803370e-10
4.945130e-06
1.165090e-10
-9.137670e-07
-4.877050e-11
5.136880e-06
-4.326460e-13
1.803370e-10
9.911600e-07
1.165090e-10
-4.945070e-06
-4.877050e-11
9.139000e-07
-4.326460e-13
-5.137010e-06
4.945130e-06
1.165090e-10
4.998060e-06
1.794620e-10
5.136880e-06
-4.326460e-13
4.889520e-06
-5.940300e-12
1.165090e-10
-4.945070e-06
1.794620e-10
-4.997770e-06
-4.326460e-13
-5.137010e-06
-5.940300e-12
-4.889590e-06
4.998060e-06
1.794620e-10
6.810660e-06
-7.784860e-11
4.889520e-06
-5.940300e-12
6.277140e-06
4.284780e-11
1.794620e-10
-4.997770e-06
-7.784860e-11
-6.810720e-06
-5.940300e-12
-4.889590e-06
4.284780e-11
-6.276930e-06
6.810660e-06
-7.784860e-11
3.437890e-06
-1.109580e-10
6.277140e-06
4.284780e-11
3.562990e-06
-6.232360e-11
-7.784860e-11
-6.810720e-06
-1.109580e-10
-3.438090e-06
4.284780e-11
-6.276930e-06
-6.232360e-11
-3.563160e-06
3.437890e-06
-1.109580e-10
-4.556330e-06
-3.695100e-11
3.562990e-06
-6.232360e-11
-4.310020e-06
-1.525120e-11
-1.109580e-10
-3.438090e-06
-3.695100e-11
4.556170e-06
-6.232360e-11
-3.563160e-06
-1.525120e-11
4.309910e-06
-4.556330e-06
-3.695100e-11
-7.326870e-06
3.051280e-11
-4.310020e-06
-1.525120e-11
-7.453330e-06
6.101270e-11
-3.695100e-11
4.556170e-06
3.051280e-11
7.326860e-06
-1.525120e-11
4.309910e-06
6.101270e-11
7.453400e-06
-7.326870e-06
3.051280e-11
-3.265520e-06
-1.306030e-11
-7.453330e-06
6.101270e-11
-3.278800e-06
1.862220e-11
3.051280e-11
7.326860e-06
-1.306030e-11
3.265510e-06
6.101270e-11
7.453400e-06
1.862220e-11
3.278860e-06
-3.265520e-06
-1.306030e-11
4.781780e-06
3.233560e-11
-3.278800e-06
1.862220e-11
4.709760e-06
7.898540e-12
-1.306030e-11
3.265510e-06
3.233560e-11
-4.781680e-06
1.862220e-11
3.278860e-06
7.898540e-12
-4.709690e-06
4.781780e-06
3.233560e-11
8.836070e-06
7.956750e-11
4.709760e-06
7.898540e-12
8.816080e-06
3.954580e-11
3.233560e-11
-4.781680e-06
7.956750e-11
-8.835910e-06
7.898540e-12
-4.709690e-06
3.954580e-11
-8.815990e-06
8.836070e-06
7.956750e-11
3.195970e-06
1.610330e-11
8.816080e-06
3.954580e-11
3.153300e-06
6.801310e-12
7.956750e-11
-8.835910e-06
1.610330e-11
-3.195940e-06
3.954580e-11
-8.815990e-06
6.801310e-12
-3.153290e-06
3.195970e-06
1.610330e-11
-9.646870e-06
-2.756080e-11
3.153300e-06
6.801310e-12
-9.333970e-06
-2.594560e-11
1.610330e-11
-3.195940e-06
-2.756080e-11
9.646830e-06
6.801310e-12
-3.153290e-06
-2.594560e-11
9.333920e-06
-9.646870e-06
-2.756080e-11
-5.165220e-06
-1.722240e-11
-9.333970e-06
-2.594560e-11
-5.074590e-06
-1.252290e-11
-2.756080e-11
9.646830e-06
-1.722240e-11
5.165180e-06
-2.594560e-11
9.333920e-06
-1.252290e-11
5.074550e-06
-5.165220e-06
-1.722240e-11
3.236780e-06
3.437620e-12
-5.074590e-06
-1.252290e-11
2.967570e-06
4.760540e-12
-1.722240e-11
5.165180e-06
3.437620e-12
-3.236790e-06
-1.252290e-11
5.074550e-06
4.760540e-12
-2.967560e-06
3.236780e-06
3.437620e-12
2.145120e-06
2.092310e-11
2.967570e-06
4.760540e-12
2.156380e-06
1.843630e-11
3.437620e-12
-3.236790e-06
2.092310e-11
-2.145050e-06
4.760540e-12
-2.967560e-06
1.843630e-11
-2.156350e-06
0.000000e+00
0.000000e+00
4.868130e-08
-3.471180e-10
0.000000e+00
0.000000e+00
5.032310e-08
1.964660e-10
0.000000e+00
0.000000e+00
-3.471180e-10
-4.963970e-08
0.000000e+00
0.000000e+00
1.964660e-10
-5.011890e-08
4.868130e-08
-3.471180e-10
-8.099940e-08
1.500550e-10
5.032310e-08
1.964660e-10
-8.165140e-08
-7.946730e-11
-3.471180e-10
-4.963970e-08
1.500550e-10
8.110150e-08
1.964660e-10
-5.011890e-08
-7.946730e-11
8.235050e-08
-8.099940e-08
1.500550e-10
6.433760e-08
5.259110e-10
-8.165140e-08
-7.946730e-11
6.425900e-08
5.342020e-11
1.500550e-10
8.110150e-08
5.259110e-10
-6.355990e-08
-7.946730e-11
8.235050e-08
5.342020e-11
-6.527240e-08
6.433760e-08
5.259110e-10
6.569660e-08
2.086950e-10
6.425900e-08
5.342020e-11
6.603440e-08
-2.072630e-10
5.259110e-10
-6.355990e-08
2.086950e-10
-6.544520e-08
5.342020e-11
-6.527240e-08
-2.072630e-10
-6.622290e-08
6.569660e-08
2.086950e-10
-3.032660e-07
-1.456560e-10
6.603440e-08
-2.072630e-10
-3.093000e-07
-5.649930e-11
2.086950e-10
-6.544520e-08
-1.456560e-10
3.033210e-07
-2.072630e-10
-6.622290e-08
-5.649930e-11
3.092370e-07
-3.032660e-07
-1.456560e-10
5.037340e-07
5.374350e-11
-3.093000e-07
-5.649930e-11
5.217240e-07
2.044440e-10
-1.456560e-10
3.033210e-07
5.374350e-11
-5.034990e-07
-5.649930e-11
3.092370e-07
2.044440e-10
-5.213150e-07
5.037340e-07
5.374350e-11
-4.128370e-07
-2.018930e-10
5.217240e-07
2.044440e-10
-4.529630e-07
2.791320e-11
5.374350e-11
-5.034990e-07
-2.018930e-10
4.124200e-07
2.044440e-10
-5.213150e-07
2.791320e-11
4.528850e-07
-4.128370e-07
-2.018930e-10
-1.462250e-07
1.667020e-10
-4.529630e-07
2.791320e-11
-7.918470e-08
2.066020e-10
-2.018930e-10
4.124200e-07
1.667020e-10
1.465000e-07
2.791320e-11
4.528850e-07
2.066020e-10
7.943610e-08
-1.462250e-07
1.667020e-10
1.003610e-06
2.312670e-10
-7.918470e-08
2.066020e-10
9.252910e-07
8.432860e-11
1.667020e-10
1.465000e-07
2.312670e-10
-1.003120e-06
2.066020e-10
7.943610e-08
8.432860e-11
-9.252520e-07
1.003610e-06
2.312670e-10
-1.361050e-06
-6.265040e-11
9.252910e-07
8.432860e-11
-1.331080e-06
-2.197320e-10
2.312670e-10
-1.003120e-06
-6.265040e-11
1.360760e-06
8.432860e-11
-9.252520e-07
-2.197320e-10
1.330510e-06
-1.361050e-06
-6.265040e-11
4.452730e-07
1.832500e-10
-1.331080e-06
-2.197320e-10
5.688650e-07
9.231730e-11
-6.265040e-11
1.360760e-06
1.832500e-10
-4.449030e-07
-2.197320e-10
1.330510e-06
9.231730e-11
-5.688810e-07
4.452730e-07
1.832500e-10
7.652950e-08
-4.645210e-12
5.688650e-07
9.231730e-11
-2.816400e-07
3.465670e-11
1.832500e-10
-4.449030e-07
-4.645210e-12
-7.620740e-08
9.231730e-11
-5.688810e-07
3.465670e-11
2.818680e-07
7.652950e-08
-4.645210e-12
1.441240e-06
-9.721250e-12
-2.816400e-07
3.465670e-11
1.910730e-06
-1.309780e-11
-4.645210e-12
-7.620740e-08
-9.721250e-12
-1.441290e-06
3.465670e-11
2.818680e-07
-1.309780e-11
-1.911120e-06
1.441240e-06
-9.721250e-12
5.045830e-07
-3.193920e-11
1.910730e-06
-1.309780e-11
3.245400e-07
-1.105670e-10
-9.721250e-12
-1.441290e-06
-3.193920e-11
-5.046300e-07
-1.309780e-11
-1.911120e-06
-1.105670e-10
-3.247440e-07
5.045830e-07
-3.193920e-11
-5.339650e-06
-4.943350e-11
3.245400e-07
-1.105670e-10
-5.586250e-06
-5.124510e-11
-3.193920e-11
-5.046300e-07
-4.943350e-11
5.339770e-06
-1.105670e-10
-3.247440e-07
-5.124510e-11
5.586250e-06
-5.339650e-06
-4.943350e-11
-9.137670e-07
-4.877050e-11
-5.586250e-06
-5.124510e-11
-9.909800e-07
5.269600e-11
-4.943350e-11
5.339770e-06
-4.877050e-11
9.139000e-07
-5.124510e-11
5.586250e-06
5.269600e-11
9.909870e-07
-9.137670e-07
-4.877050e-11
5.136880e-06
-4.326460e-13
-9.909800e-07
5.269600e-11
4.944950e-06
1.195870e-11
-4.877050e-11
9.139000e-07
-4.326460e-13
-5.137010e-06
5.269600e-11
9.909870e-07
1.195870e-11
-4.944880e-06
5.136880e-06
-4.326460e-13
4.889520e-06
-5.940300e-12
4.944950e-06
1.195870e-11
4.997620e-06
7.006070e-11
-4.326460e-13
-5.137010e-06
-5.940300e-12
-4.889590e-06
1.195870e-11
-4.944880e-06
7.006070e-11
-4.997570e-06
4.889520e-06
-5.940300e-12
6.277140e-06
4.284780e-11
4.997620e-06
7.006070e-11
6.810640e-06
1.322570e-11
-5.940300e-12
-4.889590e-06
4.284780e-11
-6.276930e-06
7.006070e-11
-4.997570e-06
1.322570e-11
-6.810590e-06
6.277140e-06
4.284780e-11
3.562990e-06
-6.232360e-11
6.810640e-06
1.322570e-11
3.438070e-06
1.092970e-10
4.284780e-11
-6.276930e-06
-6.232360e-11
-3.563160e-06
1.322570e-11
-6.810590e-06
1.092970e-10
-3.437860e-06
3.562990e-06
-6.232360e-11
-4.310020e-06
-1.525120e-11
3.438070e-06
1.092970e-10
-4.556490e-06
6.885940e-11
-6.232360e-11
-3.563160e-06
-1.525120e-11
4.309910e-06
1.092970e-10
-3.437860e-06
6.885940e-11
4.556560e-06
-4.310020e-06
-1.525120e-11
-7.453330e-06
6.101270e-11
-4.556490e-06
6.885940e-11
-7.326930e-06
6.783240e-11
-1.525120e-11
4.309910e-06
6.101270e-11
7.453400e-06
6.885940e-11
4.556560e-06
6.783240e-11
7.327010e-06
-7.453330e-06
6.101270e-11
-3.278800e-06
1.862220e-11
-7.326930e-06
6.783240e-11
-3.265360e-06
1.732110e-11
6.101270e-11
7.453400e-06
1.862220e-11
3.278860e-06
6.783240e-11
7.327010e-06
1.732110e-11
3.265430e-06
-3.278800e-06
1.862220e-11
4.709760e-06
7.898540e-12
-3.265360e-06
1.732110e-11
4.781730e-06
-1.540430e-11
1.862220e-11
3.278860e-06
7.898540e-12
-4.709690e-06
1.732110e-11
3.265430e-06
-1.540430e-11
-4.781740e-06
4.709760e-06
7.898540e-12
8.816080e-06
3.954580e-11
4.781730e-06
-1.540430e-11
8.836030e-06
4.098650e-11
7.898540e-12
-4.709690e-06
3.954580e-11
-8.815990e-06
-1.540430e-11
-4.781740e-06
4.098650e-11
-8.835920e-06
8.816080e-06
3.954580e-11
3.153300e-06
6.801310e-12
8.836030e-06
4.098650e-11
3.195910e-06
2.175820e-11
3.954580e-11
-8.815990e-06
6.801310e-12
-3.153290e-06
4.098650e-11
-8.835920e-06
2.175820e-11
-3.195880e-06
3.153300e-06
6.801310e-12
-9.333970e-06
-2.594560e-11
3.195910e-06
2.175820e-11
-9.646910e-06
-2.656480e-11
6.801310e-12
-3.153290e-06
-2.594560e-11
9.333920e-06
2.175820e-11
-3.195880e-06
-2.656480e-11
9.646840e-06
-9.333970e-06
-2.594560e-11
-5.074590e-06
-1.252290e-11
-9.646910e-06
-2.656480e-11
-5.165220e-06
-1.841970e-11
-2.594560e-11
9.333920e-06
-1.252290e-11
5.074550e-06
-2.656480e-11
9.646840e-06
-1.841970e-11
5.165180e-06
-5.074590e-06
-1.252290e-11
2.967570e-06
4.760540e-12
-5.165220e-06
-1.841970e-11
3.236790e-06
5.081750e-12
-1.252290e-11
5.074550e-06
4.760540e-12
-2.967560e-06
-1.841970e-11
5.165180e-06
5.081750e-12
-3.236780e-06
2.967570e-06
4.760540e-12
2.156380e-06
1.843630e-11
3.236790e-06
5.081750e-12
2.145100e-06
1.322590e-11
4.760540e-12
-2.967560e-06
1.843630e-11
-2.156350e-06
5.081750e-12
-3.236780e-06
1.322590e-11
-2.145080e-06
</DataArray>
<DataArray type="Float32" Name="V2" format="ascii">
0.000000e+00
0.000000e+00
-2.094910e-03
-2.094870e-03
0.000000e+00
0.000000e+00
-2.094880e-03
-2.094840e-03
0.000000e+00
0.000000e+00
-2.094870e-03
-2.094910e-03
0.000000e+00
0.000000e+00
-2.094840e-03
-2.094880e-03
-2.094910e-03
-2.094870e-03
4.428290e-03
4.428300e-03
-2.094880e-03
-2.094840e-03
4.428310e-03
4.428310e-03
-2.094870e-03
-2.094910e-03
4.428300e-03
4.428290e-03
-2.094840e-03
-2.094880e-03
4.428310e-03
4.428300e-03
4.428290e-03
4.428300e-03
8.351040e-03
8.350940e-03
4.428310e-03
4.428310e-03
8.350940e-03
8.350840e-03
4.428300e-03
4.428290e-03
8.350940e-03
8.351040e-03
4.428310e-03
4.428300e-03
8.350840e-03
8.350940e-03
8.351040e-03
8.350940e-03
-9.287680e-03
-9.287510e-03
8.350940e-03
8.350840e-03
-9.287510e-03
-9.287360e-03
8.350940e-03
8.351040e-03
-9.287510e-03
-9.287670e-03
8.350840e-03
8.350940e-03
-9.287360e-03
-9.287510e-03
-9.287680e-03
-9.287510e-03
-3.723750e-02
-3.723750e-02
-9.287510e-03
-9.287360e-03
-3.723750e-02
-3.723750e-02
-9.287510e-03
-9.287670e-03
-3.723750e-02
-3.723750e-02
-9.287360e-03
-9.287510e-03
-3.723750e-02
-3.723750e-02
-3.723750e-02
-3.723750e-02
-4.833300e-02
-4.833330e-02
-3.723750e-02
-3.723750e-02
-4.833330e-02
-4.833360e-02
-3.723750e-02
-3.723750e-02
-4.833330e-02
-4.833300e-02
-3.723750e-02
-3.723750e-02
-4.833360e-02
-4.833330e-02
-4.833300e-02
-4.833330e-02
-3.986200e-02
-3.986160e-02
-4.833330e-02
-4.833360e-02
-3.986160e-02
-3.986110e-02
-4.833330e-02
-4.833300e-02
-3.986160e-02
-3.986200e-02
-4.833360e-02
-4.833330e-02
-3.986110e-02
-3.986160e-02
-3.986200e-02
-3.986160e-02
-2.413260e-02
-2.413210e-02
-3.986160e-02
-3.986110e-02
-2.413210e-02
-2.413170e-02
-3.986160e-02
-3.986200e-02
-2.413210e-02
-2.413260e-02
-3.986110e-02
-3.986160e-02
-2.413170e-02
-2.413210e-02
-2.413260e-02
-2.413210e-02
-1.134140e-02
-1.134270e-02
-2.413210e-02
-2.413170e-02
-1.134270e-02
-1.134410e-02
-2.413210e-02
-2.413260e-02
-1.134270e-02
-1.134140e-02
-2.413170e-02
-2.413210e-02
-1.134410e-02
-1.134270e-02
-1.134140e-02
-1.134270e-02
-4.695950e-03
-4.696740e-03
-1.134270e-02
-1.134410e-02
-4.696740e-03
-4.697260e-03
-1.134270e-02
-1.134140e-02
-4.696740e-03
-4.695950e-03
-1.134410e-02
-1.134270e-02
-4.697260e-03
-4.696740e-03
-4.695950e-03
-4.696740e-03
-2.093920e-03
-2.090000e-03
-4.696740e-03
-4.697260e-03
-2.090000e-03
-2.086560e-03
-4.696740e-03
-4.695950e-03
-2.090000e-03
-2.093920e-03
-4.697260e-03
-4.696740e-03
-2.086560e-03
-2.090000e-03
-2.093920e-03
-2.090000e-03
-1.311890e-03
-1.310380e-03
-2.090000e-03
-2.086560e-03
-1.310390e-03
-1.308230e-03
-2.090000e-03
-2.093920e-03
-1.310380e-03
-1.311890e-03
-2.086560e-03
-2.090000e-03
-1.308230e-03
-1.310390e-03
-1.311890e-03
-1.310380e-03
-9.111830e-04
-9.189520e-04
-1.310390e-03
-1.308230e-03
-9.189530e-04
-9.272290e-04
-1.310380e-03
-1.311890e-03
-9.189520e-04
-9.111830e-04
-1.308230e-03
-1.310390e-03
-9.272290e-04
-9.189520e-04
-9.111830e-04
-9.189520e-04
-1.025590e-03
-1.030860e-03
-9.189530e-04
-9.272290e-04
-1.030850e-03
-1.036560e-03
-9.189520e-04
-9.111830e-04
-1.030860e-03
-1.025590e-03
-9.272290e-04
-9.189520e-04
-1.036560e-03
-1.030860e-03
-1.025590e-03
-1.030860e-03
-9.925150e-04
-9.841720e-04
-1.030850e-03
-1.036560e-03
-9.841730e-04
-9.736780e-04
-1.030860e-03
-1.025590e-03
-9.841720e-04
-9.925150e-04
-1.036560e-03
-1.030860e-03
-9.736780e-04
-9.841730e-04
-9.925150e-04
-9.841720e-04
-9.476160e-04
-9.433620e-04
-9.841730e-04
-9.736780e-04
-9.433630e-04
-9.407180e-04
-9.841720e-04
-9.925150e-04
-9.433620e-04
-9.476150e-04
-9.736780e-04
-9.841730e-04
-9.407180e-04
-9.433630e-04
-9.476160e-04
-9.433620e-04
-6.235180e-04
-6.194670e-04
-9.433630e-04
-9.407180e-04
-6.194660e-04
-6.168930e-04
-9.433620e-04
-9.476150e-04
-6.194670e-04
-6.235180e-04
-9.407180e-04
-9.433630e-04
-6.168930e-04
-6.194660e-04
-6.235180e-04
-6.194670e-04
-3.162770e-04
-3.114010e-04
-6.194660e-04
-6.168930e-04
-3.114010e-04
-3.057490e-04
-6.194670e-04
-6.235180e-04
-3.114010e-04
-3.162760e-04
-6.168930e-04
-6.194660e-04
-3.057490e-04
-3.114010e-04
-3.162770e-04
-3.114010e-04
-3.395410e-04
-3.328730e-04
-3.114010e-04
-3.057490e-04
-3.328720e-04
-3.271590e-04
-3.114010e-04
-3.162760e-04
-3.328730e-04
-3.395410e-04
-3.057490e-04
-3.114010e-04
-3.271590e-04
-3.328720e-04
-3.395410e-04
-3.328730e-04
-4.501420e-04
-4.447390e-04
-3.328720e-04
-3.271590e-04
-4.447380e-04
-4.400150e-04
-3.328730e-04
-3.395410e-04
-4.447390e-04
-4.501420e-04
-3.271590e-04
-3.328720e-04
-4.400150e-04
-4.447390e-04
-4.501420e-04
-4.447390e-04
-5.317240e-04
-5.320390e-04
-4.447380e-04
-4.400150e-04
-5.320390e-04
-5.311910e-04
-4.447390e-04
-4.501420e-04
-5.320390e-04
-5.317240e-04
-4.400150e-04
-4.447390e-04
-5.311910e-04
-5.320390e-04
-5.317240e-04
-5.320390e-04
-5.803430e-04
-5.878770e-04
-5.320390e-04
-5.311910e-04
-5.878770e-04
-5.934800e-04
-5.320390e-04
-5.317240e-04
-5.878770e-04
-5.803430e-04
-5.311910e-04
-5.320390e-04
-5.934800e-04
-5.878770e-04
-5.803430e-04
-5.878770e-04
-3.487720e-04
-3.574400e-04
-5.878770e-04
-5.934800e-04
-3.574390e-04
-3.676860e-04
-5.878770e-04
-5.803430e-04
-3.574400e-04
-3.487720e-04
-5.934800e-04
-5.878770e-04
-3.676860e-04
-3.574390e-04
-3.487720e-04
-3.574400e-04
-2.618150e-04
-2.789680e-04
-3.574390e-04
-3.676860e-04
-2.789680e-04
-2.994620e-04
-3.574400e-04
-3.487720e-04
-2.789680e-04
-2.618140e-04
-3.676860e-04
-3.574390e-04
-2.994620e-04
-2.789680e-04
-2.618150e-04
-2.789680e-04
-4.146310e-04
-4.120330e-04
-2.789680e-04
-2.994620e-04
-4.120330e-04
-4.063800e-04
-2.789680e-04
-2.618140e-04
-4.120330e-04
-4.146310e-04
-2.994620e-04
-2.789680e-04
-4.063800e-04
-4.120330e-04
-4.146310e-04
-4.120330e-04
-6.686940e-04
-6.370490e-04
-4.120330e-04
-4.063800e-04
-6.370490e-04
-6.046130e-04
-4.120330e-04
-4.146310e-04
-6.370490e-04
-6.686940e-04
-4.063800e-04
-4.120330e-04
-6.046130e-04
-6.370490e-04
-6.686940e-04
-6.370490e-04
-6.824030e-04
-6.529510e-04
-6.370490e-04
-6.046130e-04
-6.529510e-04
-6.267290e-04
-6.370490e-04
-6.686940e-04
-6.529510e-04
-6.824030e-04
-6.046130e-04
-6.370490e-04
-6.267290e-04
-6.529510e-04
-6.824030e-04
-6.529510e-04
-2.528100e-04
-2.748620e-04
-6.529510e-04
-6.267290e-04
-2.748620e-04
-2.940760e-04
-6.529510e-04
-6.824030e-04
-2.748620e-04
-2.528100e-04
-6.267290e-04
-6.529510e-04
-2.940760e-04
-2.748620e-04
-2.528100e-04
-2.748620e-04
-6.323800e-04
-6.522980e-04
-2.748620e-04
-2.940760e-04
-6.522980e-04
-6.711330e-04
-2.748620e-04
-2.528100e-04
-6.522980e-04
-6.323800e-04
-2.940760e-04
-2.748620e-04
-6.711330e-04
-6.522980e-04
-6.323800e-04
-6.522980e-04
-1.133090e-03
-1.132110e-03
-6.522980e-04
-6.711330e-04
-1.132110e-03
-1.131670e-03
-6.522980e-04
-6.323800e-04
-1.132110e-03
-1.133090e-03
-6.711330e-04
-6.522980e-04
-1.131670e-03
-1.132110e-03
0.000000e+00
0.000000e+00
-2.094880e-03
-2.094840e-03
0.000000e+00
0.000000e+00
-2.094910e-03
-2.094870e-03
0.000000e+00
0.000000e+00
-2.094840e-03
-2.094880e-03
0.000000e+00
0.000000e+00
-2.094870e-03
-2.094910e-03
-2.094880e-03
-2.094840e-03
4.428310e-03