<?xml version="1.0"?>
<!-- time 53.817-->
<VTKFile type="UnstructuredGrid" version="0.1" byte_order="LittleEndian">
<UnstructuredGrid>
<Piece NumberOfPoints="960" NumberOfCells="0">
<Points>
  <DataArray type="Float32" Name="Position" NumberOfComponents="3" format="ascii">
	-300 2099.69 -300
	-300 2099.65 -100
	-300 2099.65 100
	-300 2099.69 300
	-100 2099.65 -300
	-100 2099.61 -100
	-100 2099.61 100
	-100 2099.65 300
	100 2099.65 -300
	100 2099.61 -100
	100 2099.61 100
	100 2099.65 300
	300 2099.69 -300
	300 2099.65 -100
	300 2099.65 100
	300 2099.69 300
	-300 2299.71 -300
	-300 2299.71 -100
	-300 2299.71 100
	-300 2299.71 300
	-100 2299.71 -300
	-100 2299.71 -100
	-100 2299.71 100
	-100 2299.71 300
	100 2299.71 -300
	100 2299.71 -100
	100 2299.71 100
	100 2299.71 300
	300 2299.71 -300
	300 2299.71 -100
	300 2299.71 100
	300 2299.71 300
	-300 2499.72 -300
	-300 2499.71 -100
	-300 2499.71 100
	-300 2499.72 300
	-100 2499.71 -300
	-100 2499.7 -100
	-100 2499.7 100
	-100 2499.71 300
	100 2499.71 -300
	100 2499.7 -100
	100 2499.7 100
	100 2499.71 300
	300 2499.72 -300
	300 2499.71 -100
	300 2499.71 100
	300 2499.72 300
	-300 2699.73 -300
	-300 2699.72 -100
	-300 2699.72 100
	-300 2699.73 300
	-100 2699.72 -300
	-100 2699.7 -100
	-100 2699.7 100
	-100 2699.72 300
	100 2699.72 -300
	100 2699.7 -100
	100 2699.7 100
	100 2699.72 300
	300 2699.73 -300
	300 2699.72 -100
	300 2699.72 100
	300 2699.73 300
	-300 2899.73 -300
	-300 2899.71 -100
	-300 2899.71 100
	-300 2899.73 300
	-100 2899.71 -300
	-100 2899.7 -100
	-100 2899.7 100
	-100 2899.71 300
	100 2899.71 -300
	100 2899.7 -100
	100 2899.7 100
	100 2899.71 300
	300 2899.73 -300
	300 2899.71 -100
	300 2899.71 100
	300 2899.73 300
	-300 3099.73 -300
	-300 3099.72 -100
	-300 3099.72 100
	-300 3099.73 300
	-100 3099.72 -300
	-100 3099.7 -100
	-100 3099.7 100
	-100 3099.72 300
	100 3099.72 -300
	100 3099.7 -100
	100 3099.7 100
	100 3099.72 300
	300 3099.73 -300
	300 3099.72 -100
	300 3099.72 100
	300 3099.73 300
	-300 3299.73 -300
	-300 3299.71 -100
	-300 3299.71 100
	-300 3299.73 300
	-100 3299.71 -300
	-100 3299.69 -100
	-100 3299.69 100
	-100 3299.71 300
	100 3299.71 -300
	100 3299.69 -100
	100 3299.69 100
	100 3299.71 300
	300 3299.73 -300
	300 3299.71 -100
	300 3299.71 100
	300 3299.73 300
	-300 3499.72 -300
	-300 3499.7 -100
	-300 3499.7 100
	-300 3499.72 300
	-100 3499.7 -300
	-100 3499.69 -100
	-100 3499.69 100
	-100 3499.7 300
	100 3499.7 -300
	100 3499.69 -100
	100 3499.69 100
	100 3499.7 300
	300 3499.72 -300
	300 3499.7 -100
	300 3499.7 100
	300 3499.72 300
	-300 3699.72 -300
	-300 3699.7 -100
	-300 3699.7 100
	-300 3699.72 300
	-100 3699.7 -300
	-100 3699.69 -100
	-100 3699.69 100
	-100 3699.7 300
	100 3699.7 -300
	100 3699.69 -100
	100 3699.69 100
	100 3699.7 300
	300 3699.72 -300
	300 3699.7 -100
	300 3699.7 100
	300 3699.72 300
	-300 3899.71 -300
	-300 3899.7 -100
	-300 3899.7 100
	-300 3899.71 300
	-100 3899.7 -300
	-100 3899.69 -100
	-100 3899.69 100
	-100 3899.7 300
	100 3899.7 -300
	100 3899.69 -100
	100 3899.69 100
	100 3899.7 300
	300 3899.71 -300
	300 3899.7 -100
	300 3899.7 100
	300 3899.71 300
	-300 4099.71 -300
	-300 4099.7 -100
	-300 4099.7 100
	-300 4099.71 300
	-100 4099.7 -300
	-100 4099.69 -100
	-100 4099.69 100
	-100 4099.7 300
	100 4099.7 -300
	100 4099.69 -100
	100 4099.69 100
	100 4099.7 300
	300 4099.71 -300
	300 4099.7 -100
	300 4099.7 100
	300 4099.71 300
	-300 4299.71 -300
	-300 4299.7 -100
	-300 4299.7 100
	-300 4299.71 300
	-100 4299.7 -300
	-100 4299.69 -100
	-100 4299.69 100
	-100 4299.7 300
	100 4299.7 -300
	100 4299.69 -100
	100 4299.69 100
	100 4299.7 300
	300 4299.71 -300
	300 4299.7 -100
	300 4299.7 100
	300 4299.71 300
	-300 4499.71 -300
	-300 4499.7 -100
	-300 4499.7 100
	-300 4499.71 300
	-100 4499.7 -300
	-100 4499.7 -100
	-100 4499.7 100
	-100 4499.7 300
	100 4499.7 -300
	100 4499.7 -100
	100 4499.7 100
	100 4499.7 300
	300 4499.71 -300
	300 4499.7 -100
	300 4499.7 100
	300 4499.71 300
	-300 4699.72 -300
	-300 4699.7 -100
	-300 4699.7 100
	-300 4699.72 300
	-100 4699.7 -300
	-100 4699.7 -100
	-100 4699.7 100
	-100 4699.7 300
	100 4699.7 -300
	100 4699.7 -100
	100 4699.7 100
	100 4699.7 300
	300 4699.72 -300
	300 4699.7 -100
	300 4699.7 100
	300 4699.72 300
	-300 4899.72 -300
	-300 4899.71 -100
	-300 4899.71 100
	-300 4899.72 300
	-100 4899.71 -300
	-100 4899.71 -100
	-100 4899.71 100
	-100 4899.71 300
	100 4899.71 -300
	100 4899.71 -100
	100 4899.71 100
	100 4899.71 300
	300 4899.72 -300
	300 4899.71 -100
	300 4899.71 100
	300 4899.72 300
	-300 5099.72 -300
	-300 5099.71 -100
	-300 5099.71 100
	-300 5099.72 300
	-100 5099.71 -300
	-100 5099.71 -100
	-100 5099.71 100
	-100 5099.71 300
	100 5099.71 -300
	100 5099.71 -100
	100 5099.71 100
	100 5099.71 300
	300 5099.72 -300
	300 5099.71 -100
	300 5099.71 100
	300 5099.72 300
	-300 5299.72 -300
	-300 5299.72 -100
	-300 5299.72 100
	-300 5299.72 300
	-100 5299.72 -300
	-100 5299.72 -100
	-100 5299.72 100
	-100 5299.72 300
	100 5299.72 -300
	100 5299.72 -100
	100 5299.72 100
	100 5299.72 300
	300 5299.72 -300
	300 5299.72 -100
	300 5299.72 100
	300 5299.72 300
	-300 5499.72 -300
	-300 5499.72 -100
	-300 5499.72 100
	-300 5499.72 300
	-100 5499.72 -300
	-100 5499.72 -100
	-100 5499.72 100
	-100 5499.72 300
	100 5499.72 -300
	100 5499.72 -100
	100 5499.72 100
	100 5499.72 300
	300 5499.72 -300
	300 5499.72 -100
	300 5499.72 100
	300 5499.72 300
	-300 5699.73 -300
	-300 5699.73 -100
	-300 5699.73 100
	-300 5699.73 300
	-100 5699.73 -300
	-100 5699.72 -100
	-100 5699.72 100
	-100 5699.73 300
	100 5699.73 -300
	100 5699.72 -100
	100 5699.72 100
	100 5699.73 300
	300 5699.73 -300
	300 5699.73 -100
	300 5699.73 100
	300 5699.73 300
	-300 5899.73 -300
	-300 5899.73 -100
	-300 5899.73 100
	-300 5899.73 300
	-100 5899.73 -300
	-100 5899.73 -100
	-100 5899.73 100
	-100 5899.73 300
	100 5899.73 -300
	100 5899.73 -100
	100 5899.73 100
	100 5899.73 300
	300 5899.73 -300
	300 5899.73 -100
	300 5899.73 100
	300 5899.73 300
	-300 6099.73 -300
	-300 6099.73 -100
	-300 6099.73 100
	-300 6099.73 300
	-100 6099.73 -300
	-100 6099.73 -100
	-100 6099.73 100
	-100 6099.73 300
	100 6099.73 -300
	100 6099.73 -100
	100 6099.73 100
	100 6099.73 300
	300 6099.73 -300
	300 6099.73 -100
	300 6099.73 100
	300 6099.73 300
	-300 6299.73 -300
	-300 6299.73 -100
	-300 6299.73 100
	-300 6299.73 300
	-100 6299.73 -300
	-100 6299.73 -100
	-100 6299.73 100
	-100 6299.73 300
	100 6299.73 -300
	100 6299.73 -100
	100 6299.73 100
	100 6299.73 300
	300 6299.73 -300
	300 6299.73 -100
	300 6299.73 100
	300 6299.73 300
	-300 6499.73 -300
	-300 6499.74 -100
	-300 6499.74 100
	-300 6499.73 300
	-100 6499.74 -300
	-100 6499.73 -100
	-100 6499.73 100
	-100 6499.74 300
	100 6499.74 -300
	100 6499.73 -100
	100 6499.73 100
	100 6499.74 300
	300 6499.73 -300
	300 6499.74 -100
	300 6499.74 100
	300 6499.73 300
	-300 6699.74 -300
	-300 6699.74 -100
	-300 6699.74 100
	-300 6699.74 300
	-100 6699.74 -300
	-100 6699.75 -100
	-100 6699.75 100
	-100 6699.74 300
	100 6699.74 -300
	100 6699.75 -100
	100 6699.75 100
	100 6699.74 300
	300 6699.74 -300
	300 6699.74 -100
	300 6699.74 100
	300 6699.74 300
	-300 6899.8 -300
	-300 6899.8 -100
	-300 6899.8 100
	-300 6899.8 300
	-100 6899.8 -300
	-100 6899.8 -100
	-100 6899.8 100
	-100 6899.8 300
	100 6899.8 -300
	100 6899.8 -100
	100 6899.8 100
	100 6899.8 300
	300 6899.8 -300
	300 6899.8 -100
	300 6899.8 100
	300 6899.8 300
	-300 7099.81 -300
	-300 7099.8 -100
	-300 7099.8 100
	-300 7099.81 300
	-100 7099.8 -300
	-100 7099.8 -100
	-100 7099.8 100
	-100 7099.8 300
	100 7099.8 -300
	100 7099.8 -100
	100 7099.8 100
	100 7099.8 300
	300 7099.81 -300
	300 7099.8 -100
	300 7099.8 100
	300 7099.81 300
	-300 7299.81 -300
	-300 7299.81 -100
	-300 7299.81 100
	-300 7299.81 300
	-100 7299.81 -300
	-100 7299.81 -100
	-100 7299.81 100
	-100 7299.81 300
	100 7299.81 -300
	100 7299.81 -100
	100 7299.81 100
	100 7299.81 300
	300 7299.81 -300
	300 7299.81 -100
	300 7299.81 100
	300 7299.81 300
	-300 7499.81 -300
	-300 7499.81 -100
	-300 7499.81 100
	-300 7499.81 300
	-100 7499.81 -300
	-100 7499.81 -100
	-100 7499.81 100
	-100 7499.81 300
	100 7499.81 -300
	100 7499.81 -100
	100 7499.81 100
	100 7499.81 300
	300 7499.81 -300
	300 7499.81 -100
	300 7499.81 100
	300 7499.81 300
	-300 7699.81 -300
	-300 7699.81 -100
	-300 7699.81 100
	-300 7699.81 300
	-100 7699.81 -300
	-100 7699.81 -100
	-100 7699.81 100
	-100 7699.81 300
	100 7699.81 -300
	100 7699.81 -100
	100 7699.81 100
	100 7699.81 300
	300 7699.81 -300
	300 7699.81 -100
	300 7699.81 100
	300 7699.81 300
	-300 7899.82 -300
	-300 7899.82 -100
	-300 7899.82 100
	-300 7899.82 300
	-100 7899.82 -300
	-100 7899.82 -100
	-100 7899.82 100
	-100 7899.82 300
	100 7899.82 -300
	100 7899.82 -100
	100 7899.82 100
	100 7899.82 300
	300 7899.82 -300
	300 7899.82 -100
	300 7899.82 100
	300 7899.82 300
	-300 8099.82 -300
	-300 8099.82 -100
	-300 8099.82 100
	-300 8099.82 300
	-100 8099.82 -300
	-100 8099.82 -100
	-100 8099.82 100
	-100 8099.82 300
	100 8099.82 -300
	100 8099.82 -100
	100 8099.82 100
	100 8099.82 300
	300 8099.82 -300
	300 8099.82 -100
	300 8099.82 100
	300 8099.82 300
	-300 8299.83 -300
	-300 8299.83 -100
	-300 8299.83 100
	-300 8299.83 300
	-100 8299.83 -300
	-100 8299.83 -100
	-100 8299.83 100
	-100 8299.83 300
	100 8299.83 -300
	100 8299.83 -100
	100 8299.83 100
	100 8299.83 300
	300 8299.83 -300
	300 8299.83 -100
	300 8299.83 100
	300 8299.83 300
	-300 8499.83 -300
	-300 8499.83 -100
	-300 8499.83 100
	-300 8499.83 300
	-100 8499.83 -300
	-100 8499.83 -100
	-100 8499.83 100
	-100 8499.83 300
	100 8499.83 -300
	100 8499.83 -100
	100 8499.83 100
	100 8499.83 300
	300 8499.83 -300
	300 8499.83 -100
	300 8499.83 100
	300 8499.83 300
	-300 8699.83 -300
	-300 8699.83 -100
	-300 8699.83 100
	-300 8699.83 300
	-100 8699.83 -300
	-100 8699.83 -100
	-100 8699.83 100
	-100 8699.83 300
	100 8699.83 -300
	100 8699.83 -100
	100 8699.83 100
	100 8699.83 300
	300 8699.83 -300
	300 8699.83 -100
	300 8699.83 100
	300 8699.83 300
	-300 8899.83 -300
	-300 8899.83 -100
	-300 8899.83 100
	-300 8899.83 300
	-100 8899.83 -300
	-100 8899.83 -100
	-100 8899.83 100
	-100 8899.83 300
	100 8899.83 -300
	100 8899.83 -100
	100 8899.83 100
	100 8899.83 300
	300 8899.83 -300
	300 8899.83 -100
	300 8899.83 100
	300 8899.83 300
	-300 9099.84 -300
	-300 9099.84 -100
	-300 9099.84 100
	-300 9099.84 300
	-100 9099.84 -300
	-100 9099.84 -100
	-100 9099.84 100
	-100 9099.84 300
	100 9099.84 -300
	100 9099.84 -100
	100 9099.84 100
	100 9099.84 300
	300 9099.84 -300
	300 9099.84 -100
	300 9099.84 100
	300 9099.84 300
	-300 9299.84 -300
	-300 9299.84 -100
	-300 9299.84 100
	-300 9299.84 300
	-100 9299.84 -300
	-100 9299.84 -100
	-100 9299.84 100
	-100 9299.84 300
	100 9299.84 -300
	100 9299.84 -100
	100 9299.84 100
	100 9299.84 300
	300 9299.84 -300
	300 9299.84 -100
	300 9299.84 100
	300 9299.84 300
	-300 9499.84 -300
	-300 9499.84 -100
	-300 9499.84 100
	-300 9499.84 300
	-100 9499.84 -300
	-100 9499.84 -100
	-100 9499.84 100
	-100 9499.84 300
	100 9499.84 -300
	100 9499.84 -100
	100 9499.84 100
	100 9499.84 300
	300 9499.84 -300
	300 9499.84 -100
	300 9499.84 100
	300 9499.84 300
	-300 9699.85 -300
	-300 9699.84 -100
	-300 9699.84 100
	-300 9699.85 300
	-100 9699.84 -300
	-100 9699.84 -100
	-100 9699.84 100
	-100 9699.84 300
	100 9699.84 -300
	100 9699.84 -100
	100 9699.84 100
	100 9699.84 300
	300 9699.85 -300
	300 9699.84 -100
	300 9699.84 100
	300 9699.85 300
	-300 9899.85 -300
	-300 9899.85 -100
	-300 9899.85 100
	-300 9899.85 300
	-100 9899.85 -300
	-100 9899.85 -100
	-100 9899.85 100
	-100 9899.85 300
	100 9899.85 -300
	100 9899.85 -100
	100 9899.85 100
	100 9899.85 300
	300 9899.85 -300
	300 9899.85 -100
	300 9899.85 100
	300 9899.85 300
	-300 10099.9 -300
	-300 10099.9 -100
	-300 10099.9 100
	-300 10099.9 300
	-100 10099.9 -300
	-100 10099.9 -100
	-100 10099.9 100
	-100 10099.9 300
	100 10099.9 -300
	100 10099.9 -100
	100 10099.9 100
	100 10099.9 300
	300 10099.9 -300
	300 10099.9 -100
	300 10099.9 100
	300 10099.9 300
	-300 10299.9 -300
	-300 10299.9 -100
	-300 10299.9 100
	-300 10299.9 300
	-100 10299.9 -300
	-100 10299.9 -100
	-100 10299.9 100
	-100 10299.9 300
	100 10299.9 -300
	100 10299.9 -100
	100 10299.9 100
	100 10299.9 300
	300 10299.9 -300
	300 10299.9 -100
	300 10299.9 100
	300 10299.9 300
	-300 10499.9 -300
	-300 10499.9 -100
	-300 10499.9 100
	-300 10499.9 300
	-100 10499.9 -300
	-100 10499.9 -100
	-100 10499.9 100
	-100 10499.9 300
	100 10499.9 -300
	100 10499.9 -100
	100 10499.9 100
	100 10499.9 300
	300 10499.9 -300
	300 10499.9 -100
	300 10499.9 100
	300 10499.9 300
	-300 10699.9 -300
	-300 10699.9 -100
	-300 10699.9 100
	-300 10699.9 300
	-100 10699.9 -300
	-100 10699.9 -100
	-100 10699.9 100
	-100 10699.9 300
	100 10699.9 -300
	100 10699.9 -100
	100 10699.9 100
	100 10699.9 300
	300 10699.9 -300
	300 10699.9 -100
	300 10699.9 100
	300 10699.9 300
	-300 10899.9 -300
	-300 10899.9 -100
	-300 10899.9 100
	-300 10899.9 300
	-100 10899.9 -300
	-100 10899.9 -100
	-100 10899.9 100
	-100 10899.9 300
	100 10899.9 -300
	100 10899.9 -100
	100 10899.9 100
	100 10899.9 300
	300 10899.9 -300
	300 10899.9 -100
	300 10899.9 100
	300 10899.9 300
	-300 11099.9 -300
	-300 11099.9 -100
	-300 11099.9 100
	-300 11099.9 300
	-100 11099.9 -300
	-100 11099.9 -100
	-100 11099.9 100
	-100 11099.9 300
	100 11099.9 -300
	100 11099.9 -100
	100 11099.9 100
	100 11099.9 300
	300 11099.9 -300
	300 11099.9 -100
	300 11099.9 100
	300 11099.9 300
	-300 11299.9 -300
	-300 11299.9 -100
	-300 11299.9 100
	-300 11299.9 300
	-100 11299.9 -300
	-100 11299.9 -100
	-100 11299.9 100
	-100 11299.9 300
	100 11299.9 -300
	100 11299.9 -100
	100 11299.9 100
	100 11299.9 300
	300 11299.9 -300
	300 11299.9 -100
	300 11299.9 100
	300 11299.9 300
	-300 11499.9 -300
	-300 11499.9 -100
	-300 11499.9 100
	-300 11499.9 300
	-100 11499.9 -300
	-100 11499.9 -100
	-100 11499.9 100
	-100 11499.9 300
	100 11499.9 -300
	100 11499.9 -100
	100 11499.9 100
	100 11499.9 300
	300 11499.9 -300
	300 11499.9 -100
	300 11499.9 100
	300 11499.9 300
	-300 11699.9 -300
	-300 11699.9 -100
	-300 11699.9 100
	-300 11699.9 300
	-100 11699.9 -300
	-100 11699.9 -100
	-100 11699.9 100
	-100 11699.9 300
	100 11699.9 -300
	100 11699.9 -100
	100 11699.9 100
	100 11699.9 300
	300 11699.9 -300
	300 11699.9 -100
	300 11699.9 100
	300 11699.9 300
	-300 11900 -300
	-300 11900 -100
	-300 11900 100
	-300 11900 300
	-100 11900 -300
	-100 11900 -100
	-100 11900 100
	-100 11900 300
	100 11900 -300
	100 11900 -100
	100 11900 100
	100 11900 300
	300 11900 -300
	300 11900 -100
	300 11900 100
	300 11900 300
	-300 12100 -300
	-300 12100 -100
	-300 12100 100
	-300 12100 300
	-100 12100 -300
	-100 12100 -100
	-100 12100 100
	-100 12100 300
	100 12100 -300
	100 12100 -100
	100 12100 100
	100 12100 300
	300 12100 -300
	300 12100 -100
	300 12100 100
	300 12100 300
	-300 12300 -300
	-300 12300 -100
	-300 12300 100
	-300 12300 300
	-100 12300 -300
	-100 12300 -100
	-100 12300 100
	-100 12300 300
	100 12300 -300
	100 12300 -100
	100 12300 100
	100 12300 300
	300 12300 -300
	300 12300 -100
	300 12300 100
	300 12300 300
	-300 12500 -300
	-300 12500 -100
	-300 12500 100
	-300 12500 300
	-100 12500 -300
	-100 12500 -100
	-100 12500 100
	-100 12500 300
	100 12500 -300
	100 12500 -100
	100 12500 100
	100 12500 300
	300 12500 -300
	300 12500 -100
	300 12500 100
	300 12500 300
	-300 12700.1 -300
	-300 12700.1 -100
	-300 12700.1 100
	-300 12700.1 300
	-100 12700.1 -300
	-100 12700.1 -100
	-100 12700.1 100
	-100 12700.1 300
	100 12700.1 -300
	100 12700.1 -100
	100 12700.1 100
	100 12700.1 300
	300 12700.1 -300
	300 12700.1 -100
	300 12700.1 100
	300 12700.1 300
	-300 12900.1 -300
	-300 12900.1 -100
	-300 12900.1 100
	-300 12900.1 300
	-100 12900.1 -300
	-100 12900.1 -100
	-100 12900.1 100
	-100 12900.1 300
	100 12900.1 -300
	100 12900.1 -100
	100 12900.1 100
	100 12900.1 300
	300 12900.1 -300
	300 12900.1 -100
	300 12900.1 100
	300 12900.1 300
	-300 13100.2 -300
	-300 13100.2 -100
	-300 13100.2 100
	-300 13100.2 300
	-100 13100.2 -300
	-100 13100.2 -100
	-100 13100.2 100
	-100 13100.2 300
	100 13100.2 -300
	100 13100.2 -100
	100 13100.2 100
	100 13100.2 300
	300 13100.2 -300
	300 13100.2 -100
	300 13100.2 100
	300 13100.2 300
	-300 13300.2 -300
	-300 13300.2 -100
	-300 13300.2 100
	-300 13300.2 300
	-100 13300.2 -300
	-100 13300.2 -100
	-100 13300.2 100
	-100 13300.2 300
	100 13300.2 -300
	100 13300.2 -100
	100 13300.2 100
	100 13300.2 300
	300 13300.2 -300
	300 13300.2 -100
	300 13300.2 100
	300 13300.2 300
	-300 13500.4 -300
	-300 13500.4 -100
	-300 13500.4 100
	-300 13500.4 300
	-100 13500.4 -300
	-100 13500.4 -100
	-100 13500.4 100
	-100 13500.4 300
	100 13500.4 -300
	100 13500.4 -100
	100 13500.4 100
	100 13500.4 300
	300 13500.4 -300
	300 13500.4 -100
	300 13500.4 100
	300 13500.4 300
	-300 13700.6 -300
	-300 13700.6 -100
	-300 13700.6 100
	-300 13700.6 300
	-100 13700.6 -300
	-100 13700.6 -100
	-100 13700.6 100
	-100 13700.6 300
	100 13700.6 -300
	100 13700.6 -100
	100 13700.6 100
	100 13700.6 300
	300 13700.6 -300
	300 13700.6 -100
	300 13700.6 100
	300 13700.6 300
	-300 13901.2 -300
	-300 13901.2 -100
	-300 13901.2 100
	-300 13901.2 300
	-100 13901.2 -300
	-100 13901.2 -100
	-100 13901.2 100
	-100 13901.2 300
	100 13901.2 -300
	100 13901.2 -100
	100 13901.2 100
	100 13901.2 300
	300 13901.2 -300
	300 13901.2 -100
	300 13901.2 100
	300 13901.2 300
  </DataArray>
</Points>
<PointData  Vectors="vector">
  <DataArray type="Float32" Name="Velocity" NumberOfComponents="3" format="ascii">
 2.27393e-06 0.00845505 2.27401e-06
 2.10989e-06 0.00440444 -1.00843e-06
 2.10985e-06 0.00440444 1.00858e-06
 2.27398e-06 0.00845505 -2.27408e-06
 -1.00815e-06 0.00440444 2.10995e-06
 -1.66974e-06 0.00045562 -1.66992e-06
 -1.66973e-06 0.00045562 1.67011e-06
 -1.00826e-06 0.00440444 -2.11006e-06
 1.00812e-06 0.00440444 2.10993e-06
 1.66974e-06 0.00045562 -1.66987e-06
 1.66983e-06 0.00045562 1.6701e-06
 1.00829e-06 0.00440444 -2.1101e-06
 -2.27382e-06 0.00845505 2.27401e-06
 -2.10979e-06 0.00440444 -1.00834e-06
 -2.10984e-06 0.00440444 1.00851e-06
 -2.27386e-06 0.00845505 -2.27419e-06
 -3.10341e-06 -0.0082612 -3.10332e-06
 -3.13952e-06 -0.00774344 -3.49749e-06
 -3.13952e-06 -0.00774344 3.49757e-06
 -3.10339e-06 -0.0082612 3.1033e-06
 -3.49726e-06 -0.00774344 -3.13946e-06
 -3.00463e-06 -0.00925353 -3.00485e-06
 -3.00461e-06 -0.00925353 3.00493e-06
 -3.49725e-06 -0.00774344 3.13946e-06
 3.49711e-06 -0.00774344 -3.13946e-06
 3.00444e-06 -0.00925353 -3.00486e-06
 3.00444e-06 -0.00925353 3.00491e-06
 3.4971e-06 -0.00774344 3.13947e-06
 3.10346e-06 -0.0082612 -3.10332e-06
 3.13962e-06 -0.00774344 -3.49751e-06
 3.13963e-06 -0.00774344 3.49753e-06
 3.10351e-06 -0.0082612 3.10334e-06
 5.29447e-06 0.000105449 5.29444e-06
 5.13166e-06 0.00241691 3.88382e-07
 5.13166e-06 0.00241691 -3.88381e-07
 5.29447e-06 0.000105449 -5.29444e-06
 3.88279e-07 0.00241691 5.13164e-06
 3.95081e-07 0.00293373 3.95188e-07
 3.95098e-07 0.00293373 -3.95176e-07
 3.88325e-07 0.00241691 -5.13163e-06
 -3.88413e-07 0.00241691 5.13166e-06
 -3.95197e-07 0.00293373 3.95163e-07
 -3.95193e-07 0.00293373 -3.95145e-07
 -3.88403e-07 0.00241691 -5.13165e-06
 -5.29456e-06 0.000105449 5.2945e-06
 -5.13175e-06 0.00241691 3.88307e-07
 -5.13174e-06 0.00241691 -3.88297e-07
 -5.29453e-06 0.000105448 -5.29449e-06
 -4.26275e-06 -0.00164456 -4.26271e-06
 -4.15226e-06 -0.000837454 -2.50802e-06
 -4.15225e-06 -0.000837454 2.50798e-06
 -4.26274e-06 -0.00164456 4.26267e-06
 -2.50803e-06 -0.000837454 -4.15221e-06
 -2.43295e-06 -0.00372657 -2.43293e-06
 -2.43296e-06 -0.00372656 2.4329e-06
 -2.50805e-06 -0.000837454 4.15218e-06
 2.5079e-06 -0.000837454 -4.1522e-06
 2.43283e-06 -0.00372657 -2.43293e-06
 2.43285e-06 -0.00372656 2.4329e-06
 2.50795e-06 -0.000837454 4.15218e-06
 4.26261e-06 -0.00164456 -4.2627e-06
 4.15212e-06 -0.000837454 -2.508e-06
 4.15213e-06 -0.000837454 2.50798e-06
 4.26264e-06 -0.00164456 4.26268e-06
 -4.74004e-06 -0.00301256 -4.73995e-06
 -4.60782e-06 -0.00634401 -1.9966e-06
 -4.60781e-06 -0.00634401 1.99655e-06
 -4.74003e-06 -0.00301256 4.7399e-06
 -1.99661e-06 -0.00634401 -4.60773e-06
 -1.94099e-06 -0.00225048 -1.94096e-06
 -1.94099e-06 -0.00225048 1.94093e-06
 -1.99662e-06 -0.00634401 4.60769e-06
 1.99649e-06 -0.00634401 -4.60773e-06
 1.94087e-06 -0.00225048 -1.94097e-06
 1.94087e-06 -0.00225048 1.94093e-06
 1.9965e-06 -0.00634401 4.60769e-06
 4.7399e-06 -0.00301256 -4.73995e-06
 4.60768e-06 -0.00634401 -1.9966e-06
 4.60768e-06 -0.00634401 1.99656e-06
 4.7399e-06 -0.00301256 4.73992e-06
 -1.29683e-07 -0.00207942 -1.29615e-07
 -1.24604e-07 0.0018105 -1.62255e-07
 -1.24606e-07 0.0018105 1.62233e-07
 -1.29687e-07 -0.00207942 1.29591e-07
 -1.6228e-07 0.0018105 -1.24538e-07
 -1.63979e-07 0.00469205 -1.63962e-07
 -1.63978e-07 0.00469205 1.63943e-07
 -1.62285e-07 0.0018105 1.24519e-07
 1.62174e-07 0.0018105 -1.24539e-07
 1.63868e-07 0.00469205 -1.63967e-07
 1.63857e-07 0.00469205 1.63946e-07
 1.6216e-07 0.0018105 1.24526e-07
 1.29569e-07 -0.00207942 -1.2962e-07
 1.24481e-07 0.0018105 -1.62276e-07
 1.24481e-07 0.0018105 1.62257e-07
 1.2956e-07 -0.00207942 1.29605e-07
 3.69621e-06 0.00463334 3.69624e-06
 3.62458e-06 0.00509415 9.9372e-07
 3.62457e-06 0.00509415 -9.9371e-07
 3.69619e-06 0.00463334 -3.69623e-06
 9.93661e-07 0.00509415 3.62461e-06
 9.76777e-07 0.00228795 9.76843e-07
 9.76774e-07 0.00228795 -9.76829e-07
 9.93654e-07 0.00509415 -3.6246e-06
 -9.93742e-07 0.00509415 3.62461e-06
 -9.76869e-07 0.00228795 9.76847e-07
 -9.76879e-07 0.00228795 -9.76833e-07
 -9.9377e-07 0.00509415 -3.6246e-06
 -3.69629e-06 0.00463334 3.69624e-06
 -3.62467e-06 0.00509415 9.93713e-07
 -3.62467e-06 0.00509415 -9.93697e-07
 -3.6963e-06 0.00463334 -3.69623e-06
 4.80278e-06 0.00364786 4.80281e-06
 4.692e-06 0.000756021 1.32042e-06
 4.69199e-06 0.000756021 -1.32039e-06
 4.80276e-06 0.00364787 -4.80278e-06
 1.3204e-06 0.000756021 4.69203e-06
 1.29041e-06 -0.00336612 1.29046e-06
 1.29041e-06 -0.00336612 -1.29042e-06
 1.32038e-06 0.000756021 -4.692e-06
 -1.32044e-06 0.000756021 4.69204e-06
 -1.29047e-06 -0.00336612 1.29046e-06
 -1.29047e-06 -0.00336612 -1.29042e-06
 -1.32046e-06 0.000756021 -4.692e-06
 -4.80282e-06 0.00364787 4.80282e-06
 -4.69205e-06 0.000756021 1.32043e-06
 -4.69206e-06 0.000756021 -1.32039e-06
 -4.80285e-06 0.00364787 -4.80278e-06
 4.17154e-06 -0.000366175 4.17157e-06
 4.07592e-06 -0.00116366 1.15775e-06
 4.07592e-06 -0.00116366 -1.15771e-06
 4.17153e-06 -0.000366174 -4.17155e-06
 1.15778e-06 -0.00116366 4.07597e-06
 1.12644e-06 -0.00217963 1.12641e-06
 1.12642e-06 -0.00217963 -1.12637e-06
 1.15775e-06 -0.00116366 -4.07593e-06
 -1.15777e-06 -0.00116366 4.07597e-06
 -1.12645e-06 -0.00217963 1.12642e-06
 -1.12645e-06 -0.00217963 -1.12638e-06
 -1.15778e-06 -0.00116366 -4.07593e-06
 -4.17155e-06 -0.000366174 4.17159e-06
 -4.07594e-06 -0.00116366 1.15774e-06
 -4.07595e-06 -0.00116366 -1.1577e-06
 -4.17158e-06 -0.000366174 -4.17154e-06
 2.65225e-06 -0.00212864 2.65228e-06
 2.59446e-06 3.71324e-05 6.72058e-07
 2.59446e-06 3.71324e-05 -6.72047e-07
 2.65224e-06 -0.00212865 -2.65226e-06
 6.72073e-07 3.71323e-05 2.59449e-06
 6.59901e-07 0.0020576 6.59913e-07
 6.59889e-07 0.0020576 -6.59902e-07
 6.72074e-07 3.71324e-05 -2.59446e-06
 -6.7204e-07 3.71323e-05 2.59448e-06
 -6.59877e-07 0.0020576 6.59929e-07
 -6.59879e-07 0.0020576 -6.59912e-07
 -6.72065e-07 3.71324e-05 -2.59445e-06
 -2.65222e-06 -0.00212864 2.65227e-06
 -2.59444e-06 3.71323e-05 6.72125e-07
 -2.59444e-06 3.71323e-05 -6.72108e-07
 -2.65223e-06 -0.00212865 -2.65222e-06
 1.17287e-06 0.000333039 1.17284e-06
 1.15158e-06 0.00175013 2.36344e-07
 1.15157e-06 0.00175013 -2.36346e-07
 1.17286e-06 0.000333039 -1.17285e-06
 2.36375e-07 0.00175013 1.15156e-06
 2.33335e-07 -0.000987464 2.33309e-07
 2.33334e-07 -0.000987464 -2.33306e-07
 2.36369e-07 0.00175013 -1.15156e-06
 -2.36326e-07 0.00175013 1.15156e-06
 -2.33289e-07 -0.000987464 2.3331e-07
 -2.33291e-07 -0.000987464 -2.33303e-07
 -2.36327e-07 0.00175013 -1.15156e-06
 -1.17281e-06 0.000333038 1.17285e-06
 -1.15153e-06 0.00175013 2.36346e-07
 -1.15153e-06 0.00175013 -2.36335e-07
 -1.17282e-06 0.000333038 -1.17284e-06
 5.24587e-07 0.000987876 5.24493e-07
 6.13286e-07 -0.00382225 -5.41585e-07
 6.13328e-07 -0.00382225 5.41483e-07
 5.24645e-07 0.000987876 -5.24426e-07
 -5.41511e-07 -0.00382225 6.13245e-07
 -4.59656e-07 -0.00164043 -4.59846e-07
 -4.59709e-07 -0.00164043 4.59797e-07
 -5.41605e-07 -0.00382225 -6.13226e-07
 5.41534e-07 -0.00382225 6.13315e-07
 4.59703e-07 -0.00164043 -4.59964e-07
 4.59722e-07 -0.00164043 4.59876e-07
 5.41626e-07 -0.00382225 -6.1325e-07
 -5.24502e-07 0.000987877 5.24618e-07
 -6.13228e-07 -0.00382225 -5.41788e-07
 -6.13235e-07 -0.00382225 5.4175e-07
 -5.24559e-07 0.000987876 -5.24599e-07
 -1.45606e-06 -0.000330258 -1.4561e-06
 -1.45146e-06 -0.00145799 -5.63372e-07
 -1.45146e-06 -0.00145799 5.63355e-07
 -1.45604e-06 -0.000330258 1.45608e-06
 -5.63344e-07 -0.00145799 -1.4515e-06
 -5.53187e-07 -0.00435193 -5.53213e-07
 -5.53189e-07 -0.00435193 5.53189e-07
 -5.63349e-07 -0.00145799 1.45149e-06
 5.63392e-07 -0.00145799 -1.4515e-06
 5.53227e-07 -0.00435193 -5.5321e-07
 5.5323e-07 -0.00435193 5.53188e-07
 5.63389e-07 -0.00145799 1.45149e-06
 1.45609e-06 -0.000330258 -1.45608e-06
 1.4515e-06 -0.00145799 -5.63365e-07
 1.4515e-06 -0.00145799 5.63353e-07
 1.45609e-06 -0.000330258 1.45606e-06
 -4.01962e-06 0.0010484 -4.01963e-06
 -3.95294e-06 -0.000322843 -4.47478e-07
 -3.95293e-06 -0.000322843 4.4747e-07
 -4.01962e-06 0.0010484 4.01962e-06
 -4.47477e-07 -0.000322843 -3.95294e-06
 -3.16005e-07 -0.00078167 -3.16017e-07
 -3.16021e-07 -0.00078167 3.16008e-07
 -4.47473e-07 -0.000322843 3.95294e-06
 4.47495e-07 -0.000322843 -3.95294e-06
 3.16026e-07 -0.00078167 -3.16024e-07
 3.16042e-07 -0.00078167 3.16015e-07
 4.47495e-07 -0.000322843 3.95293e-06
 4.01964e-06 0.0010484 -4.01963e-06
 3.95295e-06 -0.000322843 -4.47486e-07
 3.95295e-06 -0.000322843 4.47477e-07
 4.01964e-06 0.0010484 4.01962e-06
 -8.72018e-06 -0.00174646 -8.72019e-06
 -8.47753e-06 0.000417902 -1.47412e-07
 -8.47754e-06 0.000417902 1.47447e-07
 -8.72019e-06 -0.00174646 8.72016e-06
 -1.47408e-07 0.000417902 -8.47752e-06
 9.03431e-08 6.05952e-05 9.0344e-08
 9.03376e-08 6.05952e-05 -9.03446e-08
 -1.47409e-07 0.000417902 8.47753e-06
 1.47421e-07 0.000417902 -8.47753e-06
 -9.03422e-08 6.05952e-05 9.03339e-08
 -9.03247e-08 6.05952e-05 -9.03294e-08
 1.4743e-07 0.000417902 8.47753e-06
 8.72016e-06 -0.00174646 -8.72018e-06
 8.47752e-06 0.000417902 -1.47412e-07
 8.47752e-06 0.000417902 1.47433e-07
 8.72017e-06 -0.00174646 8.72017e-06
 5.02383e-06 0.000671321 5.02384e-06
 4.93951e-06 -0.00196159 1.59385e-06
 4.93951e-06 -0.00196159 -1.59383e-06
 5.02383e-06 0.000671322 -5.02383e-06
 1.59384e-06 -0.00196159 4.93952e-06
 1.55237e-06 -0.00189419 1.55238e-06
 1.55237e-06 -0.00189419 -1.55237e-06
 1.59384e-06 -0.00196159 -4.93951e-06
 -1.59385e-06 -0.00196159 4.93952e-06
 -1.55238e-06 -0.00189419 1.55238e-06
 -1.55238e-06 -0.00189419 -1.55237e-06
 -1.59385e-06 -0.00196159 -4.93951e-06
 -5.02384e-06 0.000671322 5.02384e-06
 -4.93952e-06 -0.00196159 1.59385e-06
 -4.93952e-06 -0.00196159 -1.59384e-06
 -5.02384e-06 0.000671322 -5.02383e-06
 1.73439e-06 -0.00179209 1.73441e-06
 1.73649e-06 0.000177702 3.46293e-07
 1.73649e-06 0.000177702 -3.46273e-07
 1.73439e-06 -0.00179209 -1.73439e-06
 3.46277e-07 0.000177702 1.7365e-06
 3.37296e-07 0.000325559 3.37311e-07
 3.37296e-07 0.000325559 -3.37292e-07
 3.46277e-07 0.000177702 -1.73648e-06
 -3.46289e-07 0.000177702 1.7365e-06
 -3.37308e-07 0.000325559 3.3731e-07
 -3.37308e-07 0.000325559 -3.37293e-07
 -3.46289e-07 0.000177701 -1.73648e-06
 -1.7344e-06 -0.00179209 1.7344e-06
 -1.7365e-06 0.000177701 3.4629e-07
 -1.7365e-06 0.000177701 -3.46274e-07
 -1.7344e-06 -0.00179209 -1.73439e-06
 1.50326e-06 0.000573382 1.50328e-06
 1.56906e-06 -0.00159921 3.28302e-07
 1.56906e-06 -0.00159921 -3.28282e-07
 1.50326e-06 0.000573382 -1.50326e-06
 3.28289e-07 -0.00159921 1.56907e-06
 3.45428e-07 -0.00202498 3.45439e-07
 3.45427e-07 -0.00202498 -3.45422e-07
 3.28289e-07 -0.00159921 -1.56905e-06
 -3.28295e-07 -0.0015992 1.56907e-06
 -3.45434e-07 -0.00202498 3.45439e-07
 -3.45434e-07 -0.00202498 -3.45423e-07
 -3.28296e-07 -0.0015992 -1.56905e-06
 -1.50327e-06 0.000573382 1.50327e-06
 -1.56907e-06 -0.0015992 3.28299e-07
 -1.56907e-06 -0.0015992 -3.28283e-07
 -1.50327e-06 0.000573382 -1.50326e-06
 5.81919e-06 0.00025723 5.8192e-06
 5.74901e-06 0.000126562 1.98871e-06
 5.74901e-06 0.000126562 -1.98869e-06
 5.81919e-06 0.00025723 -5.81918e-06
 1.9887e-06 0.000126562 5.74902e-06
 1.9554e-06 -1.97815e-05 1.9554e-06
 1.9554e-06 -1.97815e-05 -1.95539e-06
 1.9887e-06 0.000126562 -5.749e-06
 -1.9887e-06 0.000126562 5.74901e-06
 -1.9554e-06 -1.97815e-05 1.9554e-06
 -1.9554e-06 -1.97815e-05 -1.95539e-06
 -1.9887e-06 0.000126562 -5.749e-06
 -5.81919e-06 0.00025723 5.8192e-06
 -5.74901e-06 0.000126562 1.98871e-06
 -5.74901e-06 0.000126562 -1.98869e-06
 -5.81919e-06 0.00025723 -5.81918e-06
 2.83505e-06 -0.000733767 2.83505e-06
 2.48551e-06 -0.000850412 1.46721e-06
 2.48546e-06 -0.000850412 -1.46718e-06
 2.83503e-06 -0.000733767 -2.83505e-06
 1.4672e-06 -0.000850412 2.48541e-06
 2.13403e-06 -0.000842334 2.13414e-06
 2.13409e-06 -0.000842334 -2.13409e-06
 1.46723e-06 -0.000850412 -2.48544e-06
 -1.46722e-06 -0.000850412 2.48541e-06
 -2.13412e-06 -0.000842334 2.13415e-06
 -2.1341e-06 -0.000842334 -2.13407e-06
 -1.46716e-06 -0.000850412 -2.48546e-06
 -2.83502e-06 -0.000733767 2.83509e-06
 -2.48542e-06 -0.000850412 1.46716e-06
 -2.48544e-06 -0.000850412 -1.4672e-06
 -2.83508e-06 -0.000733767 -2.83503e-06
 -6.32277e-06 -0.000732179 -6.32277e-06
 -6.15132e-06 -0.000816313 -4.09055e-06
 -6.15131e-06 -0.000816313 4.09056e-06
 -6.32277e-06 -0.000732179 6.32278e-06
 -4.09056e-06 -0.000816313 -6.15131e-06
 -4.00578e-06 -0.000890248 -4.00578e-06
 -4.00578e-06 -0.000890248 4.00578e-06
 -4.09056e-06 -0.000816313 6.15132e-06
 4.09056e-06 -0.000816313 -6.15131e-06
 4.00578e-06 -0.000890248 -4.00578e-06
 4.00578e-06 -0.000890248 4.00578e-06
 4.09056e-06 -0.000816313 6.15132e-06
 6.32278e-06 -0.000732179 -6.32277e-06