<?xml version="1.0"?>
<VTKFile type="UnstructuredGrid" version="0.1" byte_order="LittleEndian" compressor="vtkZLibDataCompressor">
<UnstructuredGrid>
<Piece NumberOfPoints="960" NumberOfCells="120">
<Points>
<DataArray type="Float32" NumberOfComponents="3" format="ascii">
-4.000000e+02 -6.000000e+03 -4.000000e+02
0.000000e+00 -6.000000e+03 -4.000000e+02
-4.000000e+02 -5.600000e+03 -4.000000e+02
2.575200e-10 -5.600000e+03 -4.000000e+02
-4.000000e+02 -6.000000e+03 0.000000e+00
0.000000e+00 -6.000000e+03 0.000000e+00
-4.000000e+02 -5.600000e+03 4.363510e-10
7.955390e-12 -5.600000e+03 -1.360150e-12
0.000000e+00 -6.000000e+03 -4.000000e+02
4.000000e+02 -6.000000e+03 -4.000000e+02
2.575200e-10 -5.600000e+03 -4.000000e+02
4.000000e+02 -5.600000e+03 -4.000000e+02
0.000000e+00 -6.000000e+03 0.000000e+00
4.000000e+02 -6.000000e+03 0.000000e+00
7.955390e-12 -5.600000e+03 -1.360150e-12
4.000000e+02 -5.600000e+03 1.932940e-10
-4.000000e+02 -5.600000e+03 -4.000000e+02
2.575200e-10 -5.600000e+03 -4.000000e+02
-4.000000e+02 -5.200000e+03 -4.000000e+02
1.903250e-10 -5.200000e+03 -4.000000e+02
-4.000000e+02 -5.600000e+03 4.363510e-10
7.955390e-12 -5.600000e+03 -1.360150e-12
-4.000000e+02 -5.200000e+03 1.599260e-10
3.152770e-10 -5.200000e+03 1.374900e-10
2.575200e-10 -5.600000e+03 -4.000000e+02
4.000000e+02 -5.600000e+03 -4.000000e+02
1.903250e-10 -5.200000e+03 -4.000000e+02
4.000000e+02 -5.200000e+03 -4.000000e+02
7.955390e-12 -5.600000e+03 -1.360150e-12
4.000000e+02 -5.600000e+03 1.932940e-10
3.152770e-10 -5.200000e+03 1.374900e-10
4.000000e+02 -5.200000e+03 1.242200e-10
-4.000000e+02 -5.200000e+03 -4.000000e+02
1.903250e-10 -5.200000e+03 -4.000000e+02
-4.000000e+02 -4.800000e+03 -4.000000e+02
-1.535660e-10 -4.800000e+03 -4.000000e+02
-4.000000e+02 -5.200000e+03 1.599260e-10
3.152770e-10 -5.200000e+03 1.374900e-10
-4.000000e+02 -4.800000e+03 3.525020e-11
8.048250e-11 -4.800000e+03 -1.090040e-10
1.903250e-10 -5.200000e+03 -4.000000e+02
4.000000e+02 -5.200000e+03 -4.000000e+02
-1.535660e-10 -4.800000e+03 -4.000000e+02
4.000000e+02 -4.800000e+03 -4.000000e+02
3.152770e-10 -5.200000e+03 1.374900e-10
4.000000e+02 -5.200000e+03 1.242200e-10
8.048250e-11 -4.800000e+03 -1.090040e-10
4.000000e+02 -4.800000e+03 6.308060e-11
-4.000000e+02 -4.800000e+03 -4.000000e+02
-1.535660e-10 -4.800000e+03 -4.000000e+02
-4.000000e+02 -4.400000e+03 -4.000000e+02
-8.010600e-11 -4.400000e+03 -4.000000e+02
-4.000000e+02 -4.800000e+03 3.525020e-11
8.048250e-11 -4.800000e+03 -1.090040e-10
-4.000000e+02 -4.400000e+03 4.642780e-12
-1.202040e-10 -4.400000e+03 2.492530e-11
-1.535660e-10 -4.800000e+03 -4.000000e+02
4.000000e+02 -4.800000e+03 -4.000000e+02
-8.010600e-11 -4.400000e+03 -4.000000e+02
4.000000e+02 -4.400000e+03 -4.000000e+02
8.048250e-11 -4.800000e+03 -1.090040e-10
4.000000e+02 -4.800000e+03 6.308060e-11
-1.202040e-10 -4.400000e+03 2.492530e-11
4.000000e+02 -4.400000e+03 -1.318880e-10
-4.000000e+02 -4.400000e+03 -4.000000e+02
-8.010600e-11 -4.400000e+03 -4.000000e+02
-4.000000e+02 -4.000000e+03 -4.000000e+02
-8.233830e-11 -4.000000e+03 -4.000000e+02
-4.000000e+02 -4.400000e+03 4.642780e-12
-1.202040e-10 -4.400000e+03 2.492530e-11
-4.000000e+02 -4.000000e+03 -4.213030e-11
-3.362170e-10 -4.000000e+03 5.510050e-11
-8.010600e-11 -4.400000e+03 -4.000000e+02
4.000000e+02 -4.400000e+03 -4.000000e+02
-8.233830e-11 -4.000000e+03 -4.000000e+02
4.000000e+02 -4.000000e+03 -4.000000e+02
-1.202040e-10 -4.400000e+03 2.492530e-11
4.000000e+02 -4.400000e+03 -1.318880e-10
-3.362170e-10 -4.000000e+03 5.510050e-11
4.000000e+02 -4.000000e+03 -8.811920e-11
-4.000000e+02 -4.000000e+03 -4.000000e+02
-8.233830e-11 -4.000000e+03 -4.000000e+02
-4.000000e+02 -3.600000e+03 -4.000000e+02
-3.862340e-10 -3.600000e+03 -4.000000e+02
-4.000000e+02 -4.000000e+03 -4.213030e-11
-3.362170e-10 -4.000000e+03 5.510050e-11
-4.000000e+02 -3.600000e+03 -1.626400e-10
-4.291600e-10 -3.600000e+03 -4.762860e-11
-8.233830e-11 -4.000000e+03 -4.000000e+02
4.000000e+02 -4.000000e+03 -4.000000e+02
-3.862340e-10 -3.600000e+03 -4.000000e+02
4.000000e+02 -3.600000e+03 -4.000000e+02
-3.362170e-10 -4.000000e+03 5.510050e-11
4.000000e+02 -4.000000e+03 -8.811920e-11
-4.291600e-10 -3.600000e+03 -4.762860e-11
4.000000e+02 -3.600000e+03 -1.181340e-10
-4.000000e+02 -3.600000e+03 -4.000000e+02
-3.862340e-10 -3.600000e+03 -4.000000e+02
-4.000000e+02 -3.200030e+03 -4.000000e+02
-4.117280e-10 -3.200030e+03 -4.000000e+02
-4.000000e+02 -3.600000e+03 -1.626400e-10
-4.291600e-10 -3.600000e+03 -4.762860e-11
-4.000000e+02 -3.200030e+03 -3.359880e-11
-4.938400e-10 -3.200030e+03 3.683630e-11
-3.862340e-10 -3.600000e+03 -4.000000e+02
4.000000e+02 -3.600000e+03 -4.000000e+02
-4.117280e-10 -3.200030e+03 -4.000000e+02
4.000000e+02 -3.200030e+03 -4.000000e+02
-4.291600e-10 -3.600000e+03 -4.762860e-11
4.000000e+02 -3.600000e+03 -1.181340e-10
-4.938400e-10 -3.200030e+03 3.683630e-11
4.000000e+02 -3.200030e+03 -1.163880e-10
-4.000000e+02 -3.200030e+03 -4.000000e+02
-4.117280e-10 -3.200030e+03 -4.000000e+02
-4.000000e+02 -2.800090e+03 -4.000000e+02
-3.098290e-10 -2.800090e+03 -4.000000e+02
-4.000000e+02 -3.200030e+03 -3.359880e-11
-4.938400e-10 -3.200030e+03 3.683630e-11
-4.000000e+02 -2.800090e+03 4.677670e-11
-2.724710e-10 -2.800090e+03 1.461390e-10
-4.117280e-10 -3.200030e+03 -4.000000e+02
4.000000e+02 -3.200030e+03 -4.000000e+02
-3.098290e-10 -2.800090e+03 -4.000000e+02
4.000000e+02 -2.800090e+03 -4.000000e+02
-4.938400e-10 -3.200030e+03 3.683630e-11
4.000000e+02 -3.200030e+03 -1.163880e-10
-2.724710e-10 -2.800090e+03 1.461390e-10
4.000000e+02 -2.800090e+03 1.882740e-10
-4.000000e+02 -2.800090e+03 -4.000000e+02
-3.098290e-10 -2.800090e+03 -4.000000e+02
-4.000000e+02 -2.400160e+03 -4.000000e+02
-6.095920e-11 -2.400160e+03 -4.000000e+02
-4.000000e+02 -2.800090e+03 4.677670e-11
-2.724710e-10 -2.800090e+03 1.461390e-10
-4.000000e+02 -2.400160e+03 -1.446060e-10
-2.368130e-11 -2.400160e+03 5.251420e-11
-3.098290e-10 -2.800090e+03 -4.000000e+02
4.000000e+02 -2.800090e+03 -4.000000e+02
-6.095920e-11 -2.400160e+03 -4.000000e+02
4.000000e+02 -2.400160e+03 -4.000000e+02
-2.724710e-10 -2.800090e+03 1.461390e-10
4.000000e+02 -2.800090e+03 1.882740e-10
-2.368130e-11 -2.400160e+03 5.251420e-11
4.000000e+02 -2.400160e+03 -5.799080e-11
-4.000000e+02 -2.400160e+03 -4.000000e+02
-6.095920e-11 -2.400160e+03 -4.000000e+02
-4.000000e+02 -2.000210e+03 -4.000000e+02
1.833530e-10 -2.000210e+03 -4.000000e+02
-4.000000e+02 -2.400160e+03 -1.446060e-10
-2.368130e-11 -2.400160e+03 5.251420e-11
-4.000000e+02 -2.000210e+03 -2.268630e-10
1.203630e-10 -2.000210e+03 -9.339250e-11
-6.095920e-11 -2.400160e+03 -4.000000e+02
4.000000e+02 -2.400160e+03 -4.000000e+02
1.833530e-10 -2.000210e+03 -4.000000e+02
4.000000e+02 -2.000210e+03 -4.000000e+02
-2.368130e-11 -2.400160e+03 5.251420e-11
4.000000e+02 -2.400160e+03 -5.799080e-11
1.203630e-10 -2.000210e+03 -9.339250e-11
4.000000e+02 -2.000210e+03 -1.382480e-10
-4.000000e+02 -2.000210e+03 -4.000000e+02
1.833530e-10 -2.000210e+03 -4.000000e+02
-4.000000e+02 -1.600230e+03 -4.000000e+02
1.417710e-10 -1.600230e+03 -4.000000e+02
-4.000000e+02 -2.000210e+03 -2.268630e-10
1.203630e-10 -2.000210e+03 -9.339250e-11
-4.000000e+02 -1.600230e+03 -2.837650e-10
2.746060e-10 -1.600230e+03 -2.221120e-10
1.833530e-10 -2.000210e+03 -4.000000e+02
4.000000e+02 -2.000210e+03 -4.000000e+02
1.417710e-10 -1.600230e+03 -4.000000e+02
4.000000e+02 -1.600230e+03 -4.000000e+02
1.203630e-10 -2.000210e+03 -9.339250e-11
4.000000e+02 -2.000210e+03 -1.382480e-10
2.746060e-10 -1.600230e+03 -2.221120e-10
4.000000e+02 -1.600230e+03 -1.351710e-10
-4.000000e+02 -1.600230e+03 -4.000000e+02
1.417710e-10 -1.600230e+03 -4.000000e+02
-4.000000e+02 -1.200240e+03 -4.000000e+02
1.782860e-10 -1.200240e+03 -4.000000e+02
-4.000000e+02 -1.600230e+03 -2.837650e-10
2.746060e-10 -1.600230e+03 -2.221120e-10
-4.000000e+02 -1.200240e+03 -2.787610e-10
2.896370e-10 -1.200240e+03 -4.180610e-10
1.417710e-10 -1.600230e+03 -4.000000e+02
4.000000e+02 -1.600230e+03 -4.000000e+02
1.782860e-10 -1.200240e+03 -4.000000e+02
4.000000e+02 -1.200240e+03 -4.000000e+02
2.746060e-10 -1.600230e+03 -2.221120e-10
4.000000e+02 -1.600230e+03 -1.351710e-10
2.896370e-10 -1.200240e+03 -4.180610e-10
4.000000e+02 -1.200240e+03 -3.041460e-10
-4.000000e+02 -1.200240e+03 -4.000000e+02
1.782860e-10 -1.200240e+03 -4.000000e+02
-4.000000e+02 -8.002500e+02 -4.000000e+02
1.003160e-10 -8.002500e+02 -4.000000e+02
-4.000000e+02 -1.200240e+03 -2.787610e-10
2.896370e-10 -1.200240e+03 -4.180610e-10
-4.000000e+02 -8.002500e+02 -2.015360e-10
1.366930e-10 -8.002500e+02 -2.909420e-10
1.782860e-10 -1.200240e+03 -4.000000e+02
4.000000e+02 -1.200240e+03 -4.000000e+02
1.003160e-10 -8.002500e+02 -4.000000e+02
4.000000e+02 -8.002500e+02 -4.000000e+02
2.896370e-10 -1.200240e+03 -4.180610e-10
4.000000e+02 -1.200240e+03 -3.041460e-10
1.366930e-10 -8.002500e+02 -2.909420e-10
4.000000e+02 -8.002500e+02 -2.309870e-10
-4.000000e+02 -8.002500e+02 -4.000000e+02
1.003160e-10 -8.002500e+02 -4.000000e+02
-4.000000e+02 -4.002540e+02 -4.000000e+02
-1.035520e-10 -4.002540e+02 -4.000000e+02
-4.000000e+02 -8.002500e+02 -2.015360e-10
1.366930e-10 -8.002500e+02 -2.909420e-10
-4.000000e+02 -4.002540e+02 3.158100e-11
-9.381160e-11 -4.002540e+02 -7.019760e-11
1.003160e-10 -8.002500e+02 -4.000000e+02
4.000000e+02 -8.002500e+02 -4.000000e+02
-1.035520e-10 -4.002540e+02 -4.000000e+02
4.000000e+02 -4.002540e+02 -4.000000e+02
1.366930e-10 -8.002500e+02 -2.909420e-10
4.000000e+02 -8.002500e+02 -2.309870e-10
-9.381160e-11 -4.002540e+02 -7.019760e-11
4.000000e+02 -4.002540e+02 -8.083090e-11
-4.000000e+02 -4.002540e+02 -4.000000e+02
-1.035520e-10 -4.002540e+02 -4.000000e+02
-4.000000e+02 -2.560830e-01 -4.000000e+02
-1.411020e-10 -2.560860e-01 -4.000000e+02
-4.000000e+02 -4.002540e+02 3.158100e-11
-9.381160e-11 -4.002540e+02 -7.019760e-11
-4.000000e+02 -2.560860e-01 -7.358420e-12
-1.832600e-10 -2.560890e-01 -1.425110e-10
-1.035520e-10 -4.002540e+02 -4.000000e+02
4.000000e+02 -4.002540e+02 -4.000000e+02
-1.411020e-10 -2.560860e-01 -4.000000e+02
[...]
<PointData>
<DataArray type="Float32" Name="V1" format="ascii">
0.000000e+00
0.000000e+00
1.274970e-08
-2.656520e-11
0.000000e+00
0.000000e+00
1.195630e-08
-1.600880e-10
0.000000e+00
0.000000e+00
-2.656520e-11
-1.275750e-08
0.000000e+00
0.000000e+00
-1.600880e-10
-1.245900e-08
1.274970e-08
-2.656520e-11
-3.220020e-08
2.332790e-10
1.195630e-08
-1.600880e-10
-3.098260e-08
7.227090e-11
-2.656520e-11
-1.275750e-08
2.332790e-10
3.174460e-08
-1.600880e-10
-1.245900e-08
7.227090e-11
3.142250e-08
-3.220020e-08
2.332790e-10
4.381080e-08
-1.920510e-10
-3.098260e-08
7.227090e-11
4.351230e-08
-4.163070e-13
2.332790e-10
3.174460e-08
-1.920510e-10
-4.380300e-08
7.227090e-11
3.142250e-08
-4.163070e-13
-4.320600e-08
4.381080e-08
-1.920510e-10
1.256900e-10
-2.377220e-10
4.351230e-08
-4.163070e-13
2.529510e-09
1.025290e-10
-1.920510e-10
-4.380300e-08
-2.377220e-10
-1.178340e-09
-4.163070e-13
-4.320600e-08
1.025290e-10
-2.623780e-09
1.256900e-10
-2.377220e-10
-1.629730e-07
-1.836290e-10
2.529510e-09
1.025290e-10
-1.678120e-07
1.192430e-11
-2.377220e-10
-1.178340e-09
-1.836290e-10
1.626660e-07
1.025290e-10
-2.623780e-09
1.192430e-11
1.676940e-07
-1.629730e-07
-1.836290e-10
4.060420e-07
2.720630e-10
-1.678120e-07
1.192430e-11
4.146040e-07
-1.569230e-10
-1.836290e-10
1.626660e-07
2.720630e-10
-4.052880e-07
1.192430e-11
1.676940e-07
-1.569230e-10
-4.148560e-07
4.060420e-07
2.720630e-10
-4.361920e-07
3.008170e-11
4.146040e-07
-1.569230e-10
-4.489020e-07
2.616910e-11
2.720630e-10
-4.052880e-07
3.008170e-11
4.362700e-07
-1.569230e-10
-4.148560e-07
2.616910e-11
4.489490e-07
-4.361920e-07
3.008170e-11
-2.422600e-07
-1.989610e-10
-4.489020e-07
2.616910e-11
-2.314820e-07
9.611230e-11
3.008170e-11
4.362700e-07
-1.989610e-10
2.420870e-07
2.616910e-11
4.489490e-07
9.611230e-11
2.315290e-07
-2.422600e-07
-1.989610e-10
1.685420e-06
-1.007700e-10
-2.314820e-07
9.611230e-11
1.693220e-06
3.285760e-11
-1.989610e-10
2.420870e-07
-1.007700e-10
-1.685540e-06
9.611230e-11
2.315290e-07
3.285760e-11
-1.693440e-06
1.685420e-06
-1.007700e-10
-2.601120e-06
2.348750e-10
1.693220e-06
3.285760e-11
-2.658220e-06
-3.837220e-11
-1.007700e-10
-1.685540e-06
2.348750e-10
2.601630e-06
3.285760e-11
-1.693440e-06
-3.837220e-11
2.658240e-06
-2.601120e-06
2.348750e-10
9.351340e-07
3.026510e-11
-2.658220e-06
-3.837220e-11
1.078260e-06
1.448620e-10
2.348750e-10
2.601630e-06
3.026510e-11
-9.351260e-07
-3.837220e-11
2.658240e-06
1.448620e-10
-1.078180e-06
9.351340e-07
3.026510e-11
2.947650e-06
-1.756360e-10
1.078260e-06
1.448620e-10
2.716920e-06
-4.114230e-11
3.026510e-11
-9.351260e-07
-1.756360e-10
-2.948040e-06
1.448620e-10
-1.078180e-06
-4.114230e-11
-2.716810e-06
2.947650e-06
-1.756360e-10
-5.324060e-06
2.068440e-10
2.716920e-06
-4.114230e-11
-5.090340e-06
1.069010e-10
-1.756360e-10
-2.948040e-06
2.068440e-10
5.324310e-06
-4.114230e-11
-2.716810e-06
1.069010e-10
5.090310e-06
-5.324060e-06
2.068440e-10
3.112780e-06
-6.132050e-11
-5.090340e-06
1.069010e-10
3.013950e-06
1.777610e-10
2.068440e-10
5.324310e-06
-6.132050e-11
-3.112950e-06
1.069010e-10
5.090310e-06
1.777610e-10
-3.013980e-06
3.112780e-06
-6.132050e-11
4.143220e-06
-3.035210e-11
3.013950e-06
1.777610e-10
4.116680e-06
-7.613300e-11
-6.132050e-11
-3.112950e-06
-3.035210e-11
-4.143510e-06
1.777610e-10
-3.013980e-06
-7.613300e-11
-4.116960e-06
4.143220e-06
-3.035210e-11
6.971400e-07
1.797040e-10
4.116680e-06
-7.613300e-11
7.822320e-07
1.653030e-11
-3.035210e-11
-4.143510e-06
1.797040e-10
-6.971240e-07
-7.613300e-11
-4.116960e-06
1.653030e-11
-7.823420e-07
6.971400e-07
1.797040e-10
-8.698330e-06
1.248640e-10
7.822320e-07
1.653030e-11
-9.540660e-06
-6.652690e-12
1.797040e-10
-6.971240e-07
1.248640e-10
8.698100e-06
1.653030e-11
-7.823420e-07
-6.652690e-12
9.540680e-06
-8.698330e-06
1.248640e-10
-5.477510e-06
-1.350870e-10
-9.540660e-06
-6.652690e-12
-4.280100e-06
-2.332980e-11
1.248640e-10
8.698100e-06
-1.350870e-10
5.477520e-06
-6.652690e-12
9.540680e-06
-2.332980e-11
4.280120e-06
-5.477510e-06
-1.350870e-10
1.538810e-05
1.043670e-11
-4.280100e-06
-2.332980e-11
1.504220e-05
-1.125120e-10
-1.350870e-10
5.477520e-06
1.043670e-11
-1.538810e-05
-2.332980e-11
4.280120e-06
-1.125120e-10
-1.504230e-05
1.538810e-05
1.043670e-11
1.244750e-05
4.368820e-11
1.504220e-05
-1.125120e-10
1.184410e-05
-2.607210e-11
1.043670e-11
-1.538810e-05
4.368820e-11
-1.244740e-05
-1.125120e-10
-1.504230e-05
-2.607210e-11
-1.184420e-05
1.244750e-05
4.368820e-11
-5.084080e-06
6.555670e-12
1.184410e-05
-2.607210e-11
-4.315790e-06
-3.282140e-12
4.368820e-11
-1.244740e-05
6.555670e-12
5.084110e-06
-2.607210e-11
-1.184420e-05
-3.282140e-12
4.315820e-06
-5.084080e-06
6.555670e-12
-1.852970e-05
4.620980e-13
-4.315790e-06
-3.282140e-12
-1.761870e-05
1.379620e-11
6.555670e-12
5.084110e-06
4.620980e-13
1.852970e-05
-3.282140e-12
4.315820e-06
1.379620e-11
1.761880e-05
-1.852970e-05
4.620980e-13
-6.999650e-06
-2.061550e-11
-1.761870e-05
1.379620e-11
-7.712260e-06
4.909740e-13
4.620980e-13
1.852970e-05
-2.061550e-11
6.999580e-06
1.379620e-11
1.761880e-05
4.909740e-13
7.712270e-06
-6.999650e-06
-2.061550e-11
1.311000e-05
-1.249270e-11
-7.712260e-06
4.909740e-13
1.258160e-05
-8.947400e-12
-2.061550e-11
6.999580e-06
-1.249270e-11
-1.311000e-05
4.909740e-13
7.712270e-06
-8.947400e-12
-1.258170e-05
1.311000e-05
-1.249270e-11
1.425620e-05
-3.326190e-11
1.258160e-05
-8.947400e-12
1.453330e-05
-2.497990e-11
-1.249270e-11
-1.311000e-05
-3.326190e-11
-1.425630e-05
-8.947400e-12
-1.258170e-05
-2.497990e-11
-1.453330e-05
1.425620e-05
-3.326190e-11
-3.774280e-06
-4.099350e-11
1.453330e-05
-2.497990e-11
-3.576040e-06
-4.462810e-11
-3.326190e-11
-1.425630e-05
-4.099350e-11
3.774190e-06
-2.497990e-11
-1.453330e-05
-4.462810e-11
3.575960e-06
-3.774280e-06
-4.099350e-11
-8.181520e-06
-1.351580e-11
-3.576040e-06
-4.462810e-11
-8.007640e-06
-1.485110e-11
-4.099350e-11
3.774190e-06
-1.351580e-11
8.181490e-06
-4.462810e-11
3.575960e-06
-1.485110e-11
8.007620e-06
-8.181520e-06
-1.351580e-11
-1.058590e-06
5.048330e-12
-8.007640e-06
-1.485110e-11
-1.766570e-06
8.684530e-12
-1.351580e-11
8.181490e-06
5.048330e-12
1.058600e-06
-1.485110e-11
8.007620e-06
8.684530e-12
1.766580e-06
-1.058590e-06
5.048330e-12
-5.277030e-06
5.894950e-12
-1.766570e-06
8.684530e-12
-6.664750e-06
4.247960e-12
5.048330e-12
1.058600e-06
5.894950e-12
5.277050e-06
8.684530e-12
1.766580e-06
4.247960e-12
6.664760e-06
-5.277030e-06
5.894950e-12
2.239140e-05
-7.571740e-13
-6.664750e-06
4.247960e-12
2.612520e-05
-1.984140e-12
5.894950e-12
5.277050e-06
-7.571740e-13
-2.239140e-05
4.247960e-12
6.664760e-06
-1.984140e-12
-2.612520e-05
0.000000e+00
0.000000e+00
1.195630e-08
-1.600880e-10
0.000000e+00
0.000000e+00
1.258470e-08
-5.368940e-11
0.000000e+00
0.000000e+00
-1.600880e-10
-1.245900e-08
0.000000e+00
0.000000e+00
-5.368940e-11
-1.260040e-08
1.195630e-08
-1.600880e-10
-3.098260e-08
7.227090e-11
1.258470e-08
-5.368940e-11
-3.156390e-08
2.108420e-10
-1.600880e-10
-1.245900e-08
7.227090e-11
3.142250e-08
-5.368940e-11
-1.260040e-08
2.108420e-10
3.149320e-08
-3.098260e-08
7.227090e-11
4.351230e-08
-4.163070e-13
-3.156390e-08
2.108420e-10
4.425860e-08
9.203440e-11
7.227090e-11
3.142250e-08
-4.163070e-13
-4.320600e-08
2.108420e-10
3.149320e-08
9.203440e-11
-4.364590e-08
4.351230e-08
-4.163070e-13
2.529510e-09
1.025290e-10
4.425860e-08
9.203440e-11
3.692140e-10
-5.339900e-11
-4.163070e-13
-4.320600e-08
1.025290e-10
-2.623780e-09
9.203440e-11
-4.364590e-08
-5.339900e-11
-7.305730e-10
2.529510e-09
1.025290e-10
-1.678120e-07
1.192430e-11
3.692140e-10
-5.339900e-11
-1.619280e-07
-3.775980e-11
1.025290e-10
-2.623780e-09
1.192430e-11
1.676940e-07
-5.339900e-11
-7.305730e-10
-3.775980e-11
1.620690e-07
-1.678120e-07
1.192430e-11
4.146040e-07
-1.569230e-10
-1.619280e-07
-3.775980e-11
4.057750e-07
3.543530e-10
1.192430e-11
1.676940e-07
-1.569230e-10
-4.148560e-07
-3.775980e-11
1.620690e-07
3.543530e-10
-4.053500e-07
4.146040e-07
-1.569230e-10
-4.489020e-07
2.616910e-11
4.057750e-07
3.543530e-10
-4.362780e-07
-1.061960e-10
-1.569230e-10
-4.148560e-07
2.616910e-11
4.489490e-07
3.543530e-10
-4.053500e-07
-1.061960e-10
4.360030e-07
-4.489020e-07
2.616910e-11
-2.314820e-07
9.611230e-11
-4.362780e-07
-1.061960e-10
-2.425740e-07
-1.729500e-10
2.616910e-11
4.489490e-07
9.611230e-11
2.315290e-07
-1.061960e-10
4.360030e-07
-1.729500e-10
2.421500e-07
-2.314820e-07
9.611230e-11
1.693220e-06
3.285760e-11
-2.425740e-07
-1.729500e-10
1.685640e-06
-3.621720e-11
9.611230e-11
2.315290e-07
3.285760e-11
-1.693440e-06
-1.729500e-10
2.421500e-07
-3.621720e-11
-1.685500e-06
1.693220e-06
3.285760e-11
-2.658220e-06
-3.837220e-11
1.685640e-06
-3.621720e-11
-2.600980e-06
1.193220e-10
3.285760e-11
-1.693440e-06
-3.837220e-11
2.658240e-06
-3.621720e-11
-1.685500e-06
1.193220e-10
2.601600e-06
-2.658220e-06
-3.837220e-11
1.078260e-06
1.448620e-10
-2.600980e-06
1.193220e-10
9.352360e-07
1.065390e-10
-3.837220e-11
2.658240e-06
1.448620e-10
-1.078180e-06
1.193220e-10
2.601600e-06
1.065390e-10
-9.352750e-07
1.078260e-06
1.448620e-10
2.716920e-06
-4.114230e-11
9.352360e-07
1.065390e-10
2.947760e-06
1.229000e-10
1.448620e-10
-1.078180e-06
-4.114230e-11
-2.716810e-06
1.065390e-10
-9.352750e-07
1.229000e-10
-2.948080e-06
2.716920e-06
-4.114230e-11
-5.090340e-06
1.069010e-10
2.947760e-06
1.229000e-10
-5.324250e-06
6.842060e-11
-4.114230e-11
-2.716810e-06
1.069010e-10
5.090310e-06
1.229000e-10
-2.948080e-06
6.842060e-11
5.324610e-06
-5.090340e-06
1.069010e-10
3.013950e-06
1.777610e-10
-5.324250e-06
6.842060e-11
3.112640e-06
4.286910e-11
1.069010e-10
5.090310e-06
1.777610e-10
-3.013980e-06
6.842060e-11
5.324610e-06
4.286910e-11
-3.112670e-06
3.013950e-06
1.777610e-10
4.116680e-06
-7.613300e-11
3.112640e-06
4.286910e-11
4.142920e-06
-3.861350e-11
1.777610e-10
-3.013980e-06
-7.613300e-11
-4.116960e-06
4.286910e-11
-3.112670e-06
-3.861350e-11
-4.143310e-06
4.116680e-06
-7.613300e-11
7.822320e-07
1.653030e-11
4.142920e-06
-3.861350e-11
6.971240e-07
9.244440e-11
-7.613300e-11
-4.116960e-06
1.653030e-11
-7.823420e-07
-3.861350e-11
-4.143310e-06
9.244440e-11
-6.969590e-07
7.822320e-07
1.653030e-11
-9.540660e-06
-6.652690e-12
6.971240e-07
9.244440e-11
-8.698110e-06
1.215850e-10
1.653030e-11
-7.823420e-07
-6.652690e-12
9.540680e-06
9.244440e-11
-6.969590e-07
1.215850e-10
8.698160e-06
-9.540660e-06
-6.652690e-12
-4.280100e-06
-2.332980e-11
-8.698110e-06
1.215850e-10
-5.477410e-06
-6.197340e-11
-6.652690e-12
9.540680e-06
-2.332980e-11
4.280120e-06
1.215850e-10
8.698160e-06
-6.197340e-11
5.477340e-06
-4.280100e-06
-2.332980e-11
1.504220e-05
-1.125120e-10
-5.477410e-06
-6.197340e-11
1.538790e-05
-4.297880e-11
-2.332980e-11
4.280120e-06
-1.125120e-10
-1.504230e-05
-6.197340e-11
5.477340e-06
-4.297880e-11
-1.538810e-05
1.504220e-05
-1.125120e-10
1.184410e-05
-2.607210e-11
1.538790e-05
-4.297880e-11
1.244730e-05
-9.918690e-11
-1.125120e-10
-1.504230e-05
-2.607210e-11
-1.184420e-05
-4.297880e-11
-1.538810e-05
-9.918690e-11
-1.244750e-05
1.184410e-05
-2.607210e-11
-4.315790e-06
-3.282140e-12
1.244730e-05
-9.918690e-11
-5.084060e-06
-6.985940e-12
-2.607210e-11
-1.184420e-05
-3.282140e-12
4.315820e-06
-9.918690e-11
-1.244750e-05
-6.985940e-12
5.084080e-06
-4.315790e-06
-3.282140e-12
-1.761870e-05
1.379620e-11
-5.084060e-06
-6.985940e-12
-1.852970e-05
2.974380e-11
-3.282140e-12
4.315820e-06
1.379620e-11
1.761880e-05
-6.985940e-12
5.084080e-06
2.974380e-11
1.852980e-05
-1.761870e-05
1.379620e-11
-7.712260e-06
4.909740e-13
-1.852970e-05
2.974380e-11
-6.999650e-06
2.462640e-13
1.379620e-11
1.761880e-05
4.909740e-13
7.712270e-06
2.974380e-11
1.852980e-05
2.462640e-13
6.999620e-06
-7.712260e-06
4.909740e-13
1.258160e-05
-8.947400e-12
-6.999650e-06
2.462640e-13
1.311000e-05
-1.755370e-11
4.909740e-13
7.712270e-06
-8.947400e-12
-1.258170e-05
2.462640e-13
6.999620e-06
-1.755370e-11
-1.311010e-05
1.258160e-05
-8.947400e-12
1.453330e-05
-2.497990e-11
1.311000e-05
-1.755370e-11
1.425620e-05
-3.305620e-11
-8.947400e-12
-1.258170e-05
-2.497990e-11
-1.453330e-05
-1.755370e-11
-1.311010e-05
-3.305620e-11
-1.425630e-05
1.453330e-05
-2.497990e-11
-3.576040e-06
-4.462810e-11
1.425620e-05
-3.305620e-11
-3.774320e-06
-5.290160e-11
-2.497990e-11
-1.453330e-05
-4.462810e-11
3.575960e-06
-3.305620e-11
-1.425630e-05
-5.290160e-11
3.774230e-06
-3.576040e-06
-4.462810e-11
-8.007640e-06
-1.485110e-11
-3.774320e-06
-5.290160e-11
-8.181510e-06
-1.448600e-11
-4.462810e-11
3.575960e-06
-1.485110e-11
8.007620e-06
-5.290160e-11
3.774230e-06
-1.448600e-11
8.181490e-06
-8.007640e-06
-1.485110e-11
-1.766570e-06
8.684530e-12
-8.181510e-06
-1.448600e-11
-1.058580e-06
1.024530e-11
-1.485110e-11
8.007620e-06
8.684530e-12
1.766580e-06
-1.448600e-11
8.181490e-06
1.024530e-11
1.058610e-06
-1.766570e-06
8.684530e-12
-6.664750e-06
4.247960e-12
-1.058580e-06
1.024530e-11
-5.277010e-06
1.011980e-11
8.684530e-12
1.766580e-06
4.247960e-12
6.664760e-06
1.024530e-11
1.058610e-06
1.011980e-11
5.277030e-06
-6.664750e-06
4.247960e-12
2.612520e-05
-1.984140e-12
-5.277010e-06
1.011980e-11
2.239140e-05
-2.568190e-12
4.247960e-12
6.664760e-06
-1.984140e-12
-2.612520e-05
1.011980e-11
5.277030e-06
-2.568190e-12
-2.239140e-05
</DataArray>
<DataArray type="Float32" Name="V2" format="ascii">
0.000000e+00
0.000000e+00
2.198070e-04
2.198240e-04
0.000000e+00
0.000000e+00
2.198230e-04
2.198390e-04
0.000000e+00
0.000000e+00
2.198240e-04
2.198080e-04
0.000000e+00
0.000000e+00
2.198390e-04
2.198240e-04
2.198070e-04
2.198240e-04
-2.454760e-04
-2.454900e-04
2.198230e-04
2.198390e-04
-2.454880e-04
-2.455000e-04
2.198240e-04
2.198080e-04
-2.454900e-04
-2.454750e-04
2.198390e-04
2.198240e-04
-2.455000e-04
-2.454890e-04
-2.454760e-04
-2.454900e-04
-7.944940e-04
-7.945070e-04
-2.454880e-04
-2.455000e-04
-7.945060e-04
-7.945240e-04
-2.454900e-04
-2.454750e-04
-7.945070e-04
-7.944920e-04
-2.455000e-04
-2.454890e-04
-7.945240e-04
-7.945070e-04
-7.944940e-04
-7.945070e-04
1.853250e-03
1.853330e-03
-7.945060e-04
-7.945240e-04
1.853330e-03
1.853420e-03
-7.945070e-04
-7.944920e-04
1.853330e-03
1.853250e-03
-7.945240e-04
-7.945070e-04
1.853420e-03
1.853330e-03
1.853250e-03
1.853330e-03
4.763560e-03
4.763400e-03
1.853330e-03
1.853420e-03
4.763400e-03
4.763240e-03
1.853330e-03
1.853250e-03
4.763400e-03
4.763560e-03
1.853420e-03
1.853330e-03
4.763240e-03
4.763400e-03
4.763560e-03
4.763400e-03
-7.364860e-03
-7.364730e-03
4.763400e-03
4.763240e-03
-7.364730e-03
-7.364600e-03
4.763400e-03
4.763560e-03
-7.364730e-03
-7.364860e-03
4.763240e-03
4.763400e-03
-7.364600e-03
-7.364730e-03
-7.364860e-03
-7.364730e-03
-3.451460e-02
-3.451450e-02
-7.364730e-03
-7.364600e-03
-3.451450e-02
-3.451430e-02
-7.364730e-03
-7.364860e-03
-3.451450e-02
-3.451470e-02
-7.364600e-03
-7.364730e-03
-3.451430e-02
-3.451450e-02
-3.451460e-02
-3.451450e-02
-4.985220e-02
-4.985280e-02
-3.451450e-02
-3.451430e-02
-4.985280e-02
-4.985350e-02
-3.451450e-02
-3.451470e-02
-4.985280e-02
-4.985220e-02
-3.451430e-02
-3.451450e-02
-4.985350e-02
-4.985280e-02
-4.985220e-02
-4.985280e-02
-4.249310e-02
-4.249230e-02
-4.985280e-02
-4.985350e-02
-4.249230e-02
-4.249140e-02
-4.985280e-02
-4.985220e-02
-4.249230e-02
-4.249310e-02
-4.985350e-02
-4.985280e-02
-4.249140e-02
-4.249230e-02
-4.249310e-02
-4.249230e-02
-2.582930e-02
-2.582930e-02
-4.249230e-02
-4.249140e-02
-2.582930e-02
-2.582940e-02
-4.249230e-02
-4.249310e-02
-2.582930e-02
-2.582930e-02
-4.249140e-02
-4.249230e-02
-2.582940e-02
-2.582930e-02
-2.582930e-02
-2.582930e-02
-1.192500e-02
-1.192660e-02
-2.582930e-02
-2.582940e-02
-1.192660e-02
-1.192800e-02
-2.582930e-02
-2.582930e-02
-1.192660e-02
-1.192500e-02
-2.582940e-02
-2.582930e-02
-1.192800e-02
-1.192660e-02
-1.192500e-02
-1.192660e-02
-5.292120e-03
-5.291250e-03
-1.192660e-02
-1.192800e-02
-5.291250e-03
-5.290620e-03
-1.192660e-02
-1.192500e-02
-5.291250e-03
-5.292120e-03
-1.192800e-02
-1.192660e-02
-5.290620e-03
-5.291250e-03
-5.292120e-03
-5.291250e-03
-2.886010e-03
-2.879990e-03
-5.291250e-03
-5.290620e-03
-2.879990e-03
-2.874060e-03
-5.291250e-03
-5.292120e-03
-2.879990e-03
-2.886010e-03
-5.290620e-03
-5.291250e-03
-2.874060e-03
-2.879990e-03
-2.886010e-03
-2.879990e-03
-2.024880e-03
-2.028690e-03
-2.879990e-03
-2.874060e-03
-2.028690e-03
-2.031640e-03
-2.879990e-03
-2.886010e-03
-2.028690e-03
-2.024880e-03
-2.874060e-03
-2.879990e-03
-2.031640e-03
-2.028690e-03
-2.024880e-03
-2.028690e-03
-9.758270e-04
-9.910360e-04
-2.028690e-03
-2.031640e-03
-9.910360e-04
-1.007730e-03
-2.028690e-03
-2.024880e-03
-9.910360e-04
-9.758270e-04
-2.031640e-03
-2.028690e-03
-1.007730e-03
-9.910360e-04
-9.758270e-04
-9.910360e-04
-4.734480e-04
-4.736880e-04
-9.910360e-04
-1.007730e-03
-4.736870e-04
-4.734880e-04
-9.910360e-04
-9.758270e-04
-4.736880e-04
-4.734490e-04
-1.007730e-03
-9.910360e-04
-4.734880e-04
-4.736870e-04
-4.734480e-04
-4.736880e-04
-2.525500e-04
-2.478300e-04
-4.736870e-04
-4.734880e-04
-2.478310e-04
-2.421240e-04
-4.736880e-04
-4.734490e-04
-2.478300e-04
-2.525500e-04
-4.734880e-04
-4.736870e-04
-2.421240e-04
-2.478300e-04
-2.525500e-04
-2.478300e-04
-1.334240e-04
-1.326090e-04
-2.478310e-04
-2.421240e-04
-1.326090e-04
-1.308360e-04
-2.478300e-04
-2.525500e-04
-1.326090e-04
-1.334240e-04
-2.421240e-04
-2.478300e-04
-1.308360e-04
-1.326090e-04
-1.334240e-04
-1.326090e-04
-3.876390e-04
-3.841080e-04
-1.326090e-04
-1.308360e-04
-3.841070e-04
-3.811830e-04
-1.326090e-04
-1.334240e-04
-3.841080e-04
-3.876390e-04
-1.308360e-04
-1.326090e-04
-3.811830e-04
-3.841080e-04
-3.876390e-04
-3.841080e-04
-5.991160e-04
-5.476970e-04
-3.841070e-04
-3.811830e-04
-5.476960e-04
-5.035620e-04
-3.841080e-04
-3.876390e-04
-5.476970e-04
-5.991170e-04
-3.811830e-04
-3.841080e-04
-5.035620e-04
-5.476970e-04
-5.991160e-04
-5.476970e-04
-5.876580e-04
-5.234960e-04
-5.476960e-04
-5.035620e-04
-5.234960e-04
-4.728540e-04
-5.476970e-04
-5.991170e-04
-5.234960e-04
-5.876580e-04
-5.035620e-04
-5.476970e-04
-4.728540e-04
-5.234960e-04
-5.876580e-04
-5.234960e-04
-1.907610e-04
-2.242270e-04
-5.234960e-04
-4.728540e-04
-2.242280e-04
-2.464400e-04
-5.234960e-04
-5.876580e-04
-2.242270e-04
-1.907610e-04
-4.728540e-04
-5.234960e-04
-2.464400e-04
-2.242280e-04
-1.907610e-04
-2.242270e-04
-2.001140e-05
-7.414080e-05
-2.242280e-04
-2.464400e-04
-7.414080e-05
-1.228040e-04
-2.242270e-04
-1.907610e-04
-7.414080e-05
-2.001140e-05
-2.464400e-04
-2.242280e-04
-1.228040e-04
-7.414100e-05
-2.001140e-05
-7.414080e-05
-5.326940e-05
-7.941520e-05
-7.414080e-05
-1.228040e-04
-7.941540e-05
-1.089070e-04
-7.414080e-05
-2.001140e-05
-7.941520e-05
-5.326910e-05
-1.228040e-04
-7.414100e-05
-1.089070e-04
-7.941520e-05
-5.326940e-05
-7.941520e-05
5.350250e-06
3.528400e-05
-7.941540e-05
-1.089070e-04
3.528370e-05
6.289180e-05
-7.941520e-05
-5.326910e-05
3.528400e-05
5.350500e-06
-1.089070e-04
-7.941520e-05
6.289180e-05
3.528400e-05
5.350250e-06
3.528400e-05
-4.936280e-04
-4.354800e-04
3.528370e-05
6.289180e-05
-4.354800e-04
-3.762290e-04
3.528400e-05
5.350500e-06
-4.354800e-04
-4.936280e-04
6.289180e-05
3.528400e-05
-3.762290e-04
-4.354800e-04
-4.936280e-04
-4.354800e-04
3.759660e-04
3.796180e-04
-4.354800e-04
-3.762290e-04
3.796180e-04
3.802400e-04
-4.354800e-04
-4.936280e-04
3.796180e-04
3.759650e-04
-3.762290e-04
-4.354800e-04
3.802400e-04
3.796180e-04
3.759660e-04
3.796180e-04
4.260710e-04
3.962940e-04
3.796180e-04
3.802400e-04
3.962940e-04
3.686280e-04
3.796180e-04
3.759650e-04
3.962940e-04
4.260700e-04
3.802400e-04
3.796180e-04
3.686280e-04
3.962940e-04
4.260710e-04
3.962940e-04
-7.465170e-04
-7.454830e-04
3.962940e-04
3.686280e-04
-7.454830e-04
-7.621120e-04
3.962940e-04
4.260700e-04
-7.454830e-04
-7.465170e-04
3.686280e-04
3.962940e-04
-7.621120e-04
-7.454830e-04
-7.465170e-04
-7.454830e-04
-1.158050e-03
-1.164080e-03
-7.454830e-04
-7.621120e-04
-1.164080e-03
-1.247530e-03
-7.454830e-04
-7.465170e-04
-1.164080e-03
-1.158050e-03
-7.621120e-04
-7.454830e-04
-1.247530e-03
-1.164080e-03
0.000000e+00
0.000000e+00
2.198230e-04
2.198390e-04
0.000000e+00
0.000000e+00
2.198070e-04
2.198240e-04
0.000000e+00
0.000000e+00
2.198390e-04
2.198240e-04
0.000000e+00
0.000000e+00
2.198240e-04
2.198080e-04
2.198230e-04
2.198390e-04
-2.454880e-04
-2.455000e-04
2.198070e-04
2.198240e-04