<?xml version="1.0"?>
<VTKFile type="UnstructuredGrid" version="0.1" byte_order="LittleEndian" compressor="vtkZLibDataCompressor">
<UnstructuredGrid>
<Piece NumberOfPoints="960" NumberOfCells="120">
<Points>
<DataArray type="Float32" NumberOfComponents="3" format="ascii">
-4.000000e+02 -6.000000e+03 -4.000000e+02
0.000000e+00 -6.000000e+03 -4.000000e+02
-4.000000e+02 -5.600000e+03 -4.000000e+02
4.733980e-11 -5.600000e+03 -4.000000e+02
-4.000000e+02 -6.000000e+03 0.000000e+00
0.000000e+00 -6.000000e+03 0.000000e+00
-4.000000e+02 -5.600000e+03 -1.222470e-10
-2.934680e-12 -5.600000e+03 -1.982240e-11
0.000000e+00 -6.000000e+03 -4.000000e+02
4.000000e+02 -6.000000e+03 -4.000000e+02
4.733980e-11 -5.600000e+03 -4.000000e+02
4.000000e+02 -5.600000e+03 -4.000000e+02
0.000000e+00 -6.000000e+03 0.000000e+00
4.000000e+02 -6.000000e+03 0.000000e+00
-2.934680e-12 -5.600000e+03 -1.982240e-11
4.000000e+02 -5.600000e+03 1.033440e-10
-4.000000e+02 -5.600000e+03 -4.000000e+02
4.733980e-11 -5.600000e+03 -4.000000e+02
-4.000000e+02 -5.200000e+03 -4.000000e+02
5.331420e-11 -5.200000e+03 -4.000000e+02
-4.000000e+02 -5.600000e+03 -1.222470e-10
-2.934680e-12 -5.600000e+03 -1.982240e-11
-4.000000e+02 -5.200000e+03 3.960440e-11
3.285670e-11 -5.200000e+03 1.062870e-11
4.733980e-11 -5.600000e+03 -4.000000e+02
4.000000e+02 -5.600000e+03 -4.000000e+02
5.331420e-11 -5.200000e+03 -4.000000e+02
4.000000e+02 -5.200000e+03 -4.000000e+02
-2.934680e-12 -5.600000e+03 -1.982240e-11
4.000000e+02 -5.600000e+03 1.033440e-10
3.285670e-11 -5.200000e+03 1.062870e-11
4.000000e+02 -5.200000e+03 5.778730e-12
-4.000000e+02 -5.200000e+03 -4.000000e+02
5.331420e-11 -5.200000e+03 -4.000000e+02
-4.000000e+02 -4.800000e+03 -4.000000e+02
6.121370e-11 -4.800000e+03 -4.000000e+02
-4.000000e+02 -5.200000e+03 3.960440e-11
3.285670e-11 -5.200000e+03 1.062870e-11
-4.000000e+02 -4.800000e+03 -5.772520e-12
-7.532460e-12 -4.800000e+03 4.930330e-11
5.331420e-11 -5.200000e+03 -4.000000e+02
4.000000e+02 -5.200000e+03 -4.000000e+02
6.121370e-11 -4.800000e+03 -4.000000e+02
4.000000e+02 -4.800000e+03 -4.000000e+02
3.285670e-11 -5.200000e+03 1.062870e-11
4.000000e+02 -5.200000e+03 5.778730e-12
-7.532460e-12 -4.800000e+03 4.930330e-11
4.000000e+02 -4.800000e+03 -7.186560e-11
-4.000000e+02 -4.800000e+03 -4.000000e+02
6.121370e-11 -4.800000e+03 -4.000000e+02
-4.000000e+02 -4.400000e+03 -4.000000e+02
4.574750e-11 -4.400000e+03 -4.000000e+02
-4.000000e+02 -4.800000e+03 -5.772520e-12
-7.532460e-12 -4.800000e+03 4.930330e-11
-4.000000e+02 -4.400000e+03 7.686370e-11
1.650890e-11 -4.400000e+03 1.114360e-10
6.121370e-11 -4.800000e+03 -4.000000e+02
4.000000e+02 -4.800000e+03 -4.000000e+02
4.574750e-11 -4.400000e+03 -4.000000e+02
4.000000e+02 -4.400000e+03 -4.000000e+02
-7.532460e-12 -4.800000e+03 4.930330e-11
4.000000e+02 -4.800000e+03 -7.186560e-11
1.650890e-11 -4.400000e+03 1.114360e-10
4.000000e+02 -4.400000e+03 8.168490e-11
-4.000000e+02 -4.400000e+03 -4.000000e+02
4.574750e-11 -4.400000e+03 -4.000000e+02
-4.000000e+02 -4.000000e+03 -4.000000e+02
-1.464590e-10 -4.000000e+03 -4.000000e+02
-4.000000e+02 -4.400000e+03 7.686370e-11
1.650890e-11 -4.400000e+03 1.114360e-10
-4.000000e+02 -4.000000e+03 1.393550e-10
-1.501860e-10 -4.000000e+03 -3.421710e-12
4.574750e-11 -4.400000e+03 -4.000000e+02
4.000000e+02 -4.400000e+03 -4.000000e+02
-1.464590e-10 -4.000000e+03 -4.000000e+02
4.000000e+02 -4.000000e+03 -4.000000e+02
1.650890e-11 -4.400000e+03 1.114360e-10
4.000000e+02 -4.400000e+03 8.168490e-11
-1.501860e-10 -4.000000e+03 -3.421710e-12
4.000000e+02 -4.000000e+03 1.194190e-10
-4.000000e+02 -4.000000e+03 -4.000000e+02
-1.464590e-10 -4.000000e+03 -4.000000e+02
-4.000000e+02 -3.600000e+03 -4.000000e+02
-3.348630e-11 -3.600000e+03 -4.000000e+02
-4.000000e+02 -4.000000e+03 1.393550e-10
-1.501860e-10 -4.000000e+03 -3.421710e-12
-4.000000e+02 -3.600000e+03 9.425780e-11
-1.028310e-10 -3.600000e+03 6.025780e-11
-1.464590e-10 -4.000000e+03 -4.000000e+02
4.000000e+02 -4.000000e+03 -4.000000e+02
-3.348630e-11 -3.600000e+03 -4.000000e+02
4.000000e+02 -3.600000e+03 -4.000000e+02
-1.501860e-10 -4.000000e+03 -3.421710e-12
4.000000e+02 -4.000000e+03 1.194190e-10
-1.028310e-10 -3.600000e+03 6.025780e-11
4.000000e+02 -3.600000e+03 -5.964150e-11
-4.000000e+02 -3.600000e+03 -4.000000e+02
-3.348630e-11 -3.600000e+03 -4.000000e+02
-4.000000e+02 -3.200000e+03 -4.000000e+02
-4.555170e-11 -3.200000e+03 -4.000000e+02
-4.000000e+02 -3.600000e+03 9.425780e-11
-1.028310e-10 -3.600000e+03 6.025780e-11
-4.000000e+02 -3.200000e+03 -4.709560e-11
-9.678260e-11 -3.200000e+03 1.376470e-10
-3.348630e-11 -3.600000e+03 -4.000000e+02
4.000000e+02 -3.600000e+03 -4.000000e+02
-4.555170e-11 -3.200000e+03 -4.000000e+02
4.000000e+02 -3.200000e+03 -4.000000e+02
-1.028310e-10 -3.600000e+03 6.025780e-11
4.000000e+02 -3.600000e+03 -5.964150e-11
-9.678260e-11 -3.200000e+03 1.376470e-10
4.000000e+02 -3.200000e+03 5.666400e-12
-4.000000e+02 -3.200000e+03 -4.000000e+02
-4.555170e-11 -3.200000e+03 -4.000000e+02
-4.000000e+02 -2.800000e+03 -4.000000e+02
-3.562160e-10 -2.800000e+03 -4.000000e+02
-4.000000e+02 -3.200000e+03 -4.709560e-11
-9.678260e-11 -3.200000e+03 1.376470e-10
-4.000000e+02 -2.800000e+03 -1.212930e-10
-2.551990e-10 -2.800000e+03 -6.153480e-11
-4.555170e-11 -3.200000e+03 -4.000000e+02
4.000000e+02 -3.200000e+03 -4.000000e+02
-3.562160e-10 -2.800000e+03 -4.000000e+02
4.000000e+02 -2.800000e+03 -4.000000e+02
-9.678260e-11 -3.200000e+03 1.376470e-10
4.000000e+02 -3.200000e+03 5.666400e-12
-2.551990e-10 -2.800000e+03 -6.153480e-11
4.000000e+02 -2.800000e+03 -5.439720e-12
-4.000000e+02 -2.800000e+03 -4.000000e+02
-3.562160e-10 -2.800000e+03 -4.000000e+02
-4.000000e+02 -2.400000e+03 -4.000000e+02
-2.274380e-10 -2.400000e+03 -4.000000e+02
-4.000000e+02 -2.800000e+03 -1.212930e-10
-2.551990e-10 -2.800000e+03 -6.153480e-11
-4.000000e+02 -2.400000e+03 -3.090480e-10
-9.177350e-11 -2.400000e+03 -2.925680e-10
-3.562160e-10 -2.800000e+03 -4.000000e+02
4.000000e+02 -2.800000e+03 -4.000000e+02
-2.274380e-10 -2.400000e+03 -4.000000e+02
4.000000e+02 -2.400000e+03 -4.000000e+02
-2.551990e-10 -2.800000e+03 -6.153480e-11
4.000000e+02 -2.800000e+03 -5.439720e-12
-9.177350e-11 -2.400000e+03 -2.925680e-10
4.000000e+02 -2.400000e+03 -2.757210e-10
-4.000000e+02 -2.400000e+03 -4.000000e+02
-2.274380e-10 -2.400000e+03 -4.000000e+02
-4.000000e+02 -2.000000e+03 -4.000000e+02
-3.684240e-12 -2.000000e+03 -4.000000e+02
-4.000000e+02 -2.400000e+03 -3.090480e-10
-9.177350e-11 -2.400000e+03 -2.925680e-10
-4.000000e+02 -2.000000e+03 -2.068970e-10
5.572830e-11 -2.000000e+03 -1.456270e-10
-2.274380e-10 -2.400000e+03 -4.000000e+02
4.000000e+02 -2.400000e+03 -4.000000e+02
-3.684240e-12 -2.000000e+03 -4.000000e+02
4.000000e+02 -2.000000e+03 -4.000000e+02
-9.177350e-11 -2.400000e+03 -2.925680e-10
4.000000e+02 -2.400000e+03 -2.757210e-10
5.572830e-11 -2.000000e+03 -1.456270e-10
4.000000e+02 -2.000000e+03 -2.850980e-10
-4.000000e+02 -2.000000e+03 -4.000000e+02
-3.684240e-12 -2.000000e+03 -4.000000e+02
-4.000000e+02 -1.600020e+03 -4.000000e+02
-3.399500e-12 -1.600020e+03 -4.000000e+02
-4.000000e+02 -2.000000e+03 -2.068970e-10
5.572830e-11 -2.000000e+03 -1.456270e-10
-4.000000e+02 -1.600020e+03 1.966850e-11
2.360360e-11 -1.600020e+03 -9.767880e-11
-3.684240e-12 -2.000000e+03 -4.000000e+02
4.000000e+02 -2.000000e+03 -4.000000e+02
-3.399500e-12 -1.600020e+03 -4.000000e+02
4.000000e+02 -1.600020e+03 -4.000000e+02
5.572830e-11 -2.000000e+03 -1.456270e-10
4.000000e+02 -2.000000e+03 -2.850980e-10
2.360360e-11 -1.600020e+03 -9.767880e-11
4.000000e+02 -1.600020e+03 -1.320510e-10
-4.000000e+02 -1.600020e+03 -4.000000e+02
-3.399500e-12 -1.600020e+03 -4.000000e+02
-4.000000e+02 -1.200070e+03 -4.000000e+02
1.003330e-10 -1.200070e+03 -4.000000e+02
-4.000000e+02 -1.600020e+03 1.966850e-11
2.360360e-11 -1.600020e+03 -9.767880e-11
-4.000000e+02 -1.200070e+03 -8.662850e-11
7.224850e-11 -1.200070e+03 -1.054370e-10
-3.399500e-12 -1.600020e+03 -4.000000e+02
4.000000e+02 -1.600020e+03 -4.000000e+02
1.003330e-10 -1.200070e+03 -4.000000e+02
4.000000e+02 -1.200070e+03 -4.000000e+02
2.360360e-11 -1.600020e+03 -9.767880e-11
4.000000e+02 -1.600020e+03 -1.320510e-10
7.224850e-11 -1.200070e+03 -1.054370e-10
4.000000e+02 -1.200070e+03 -3.262230e-11
-4.000000e+02 -1.200070e+03 -4.000000e+02
1.003330e-10 -1.200070e+03 -4.000000e+02
-4.000000e+02 -8.001440e+02 -4.000000e+02
1.446600e-10 -8.001440e+02 -4.000000e+02
-4.000000e+02 -1.200070e+03 -8.662850e-11
7.224850e-11 -1.200070e+03 -1.054370e-10
-4.000000e+02 -8.001440e+02 -6.995050e-12
8.812690e-11 -8.001440e+02 -3.278760e-11
1.003330e-10 -1.200070e+03 -4.000000e+02
4.000000e+02 -1.200070e+03 -4.000000e+02
1.446600e-10 -8.001440e+02 -4.000000e+02
4.000000e+02 -8.001440e+02 -4.000000e+02
7.224850e-11 -1.200070e+03 -1.054370e-10
4.000000e+02 -1.200070e+03 -3.262230e-11
8.812690e-11 -8.001440e+02 -3.278760e-11
4.000000e+02 -8.001440e+02 5.023810e-11
-4.000000e+02 -8.001440e+02 -4.000000e+02
1.446600e-10 -8.001440e+02 -4.000000e+02
-4.000000e+02 -4.002010e+02 -4.000000e+02
-7.985770e-11 -4.002010e+02 -4.000000e+02
-4.000000e+02 -8.001440e+02 -6.995050e-12
8.812690e-11 -8.001440e+02 -3.278760e-11
-4.000000e+02 -4.002010e+02 5.144050e-11
-2.304200e-12 -4.002010e+02 9.120950e-12
1.446600e-10 -8.001440e+02 -4.000000e+02
4.000000e+02 -8.001440e+02 -4.000000e+02
-7.985770e-11 -4.002010e+02 -4.000000e+02
4.000000e+02 -4.002010e+02 -4.000000e+02
8.812690e-11 -8.001440e+02 -3.278760e-11
4.000000e+02 -8.001440e+02 5.023810e-11
-2.304200e-12 -4.002010e+02 9.120950e-12
4.000000e+02 -4.002010e+02 -1.147920e-11
-4.000000e+02 -4.002010e+02 -4.000000e+02
-7.985770e-11 -4.002010e+02 -4.000000e+02
-4.000000e+02 -2.320080e-01 -4.000000e+02
-1.204780e-10 -2.320080e-01 -4.000000e+02
-4.000000e+02 -4.002010e+02 5.144050e-11
-2.304200e-12 -4.002010e+02 9.120950e-12
-4.000000e+02 -2.320080e-01 1.486760e-10
-2.012400e-10 -2.320070e-01 7.074100e-13
-7.985770e-11 -4.002010e+02 -4.000000e+02
4.000000e+02 -4.002010e+02 -4.000000e+02
-1.204780e-10 -2.320080e-01 -4.000000e+02
[...]
<PointData>
<DataArray type="Float32" Name="V1" format="ascii">
0.000000e+00
0.000000e+00
1.256900e-10
-3.997210e-12
0.000000e+00
0.000000e+00
0.000000e+00
1.229950e-10
0.000000e+00
0.000000e+00
-3.997210e-12
3.692140e-10
0.000000e+00
0.000000e+00
1.229950e-10
0.000000e+00
1.256900e-10
-3.997210e-12
1.021230e-10
3.299810e-11
0.000000e+00
1.229950e-10
1.963910e-10
-3.441810e-11
-3.997210e-12
3.692140e-10
3.299810e-11
-4.242040e-10
1.229950e-10
0.000000e+00
-3.441810e-11
-5.498940e-11
1.021230e-10
3.299810e-11
-4.399150e-10
-1.242200e-11
1.963910e-10
-3.441810e-11
-1.571130e-10
2.112610e-11
3.299810e-11
-4.242040e-10
-1.242200e-11
2.592360e-10
-3.441810e-11
-5.498940e-11
2.112610e-11
3.299360e-10
-4.399150e-10
-1.242200e-11
-1.555410e-09
2.209930e-11
-1.571130e-10
2.112610e-11
-1.948200e-09
1.538060e-10
-1.242200e-11
2.592360e-10
2.209930e-11
1.806790e-09
2.112610e-11
3.299360e-10
1.538060e-10
2.034610e-09
-1.555410e-09
2.209930e-11
7.258600e-09
-8.331410e-12
-1.948200e-09
1.538060e-10
7.093630e-09
-1.433160e-10
2.209930e-11
1.806790e-09
-8.331410e-12
-6.975800e-09
1.538060e-10
2.034610e-09
-1.433160e-10
-7.164330e-09
7.258600e-09
-8.331410e-12
-1.505140e-08
2.787770e-11
7.093630e-09
-1.433160e-10
-1.529490e-08
-1.448370e-10
-8.331410e-12
-6.975800e-09
2.787770e-11
1.507490e-08
-1.433160e-10
-7.164330e-09
-1.448370e-10
1.479210e-08
-1.505140e-08
2.787770e-11
1.126500e-08
-7.543320e-11
-1.529490e-08
-1.448370e-10
1.122570e-08
1.202530e-10
2.787770e-11
1.507490e-08
-7.543320e-11
-1.152420e-08
-1.448370e-10
1.479210e-08
1.202530e-10
-1.081720e-08
1.126500e-08
-7.543320e-11
3.960810e-08
-1.207000e-10
1.122570e-08
1.202530e-10
4.070790e-08
4.402450e-11
-7.543320e-11
-1.152420e-08
-1.207000e-10
-3.961590e-08
1.202530e-10
-1.081720e-08
4.402450e-11
-4.057430e-08
3.960810e-08
-1.207000e-10
-1.674580e-07
-1.656130e-10
4.070790e-08
4.402450e-11
-1.696420e-07
-1.859230e-10
-1.207000e-10
-3.961590e-08
-1.656130e-10
1.674580e-07
4.402450e-11
-4.057430e-08
-1.859230e-10
1.693440e-07
-1.674580e-07
-1.656130e-10
2.807050e-07
1.500940e-10
-1.696420e-07
-1.859230e-10
2.834230e-07
-4.355540e-11
-1.656130e-10
1.674580e-07
1.500940e-10
-2.805170e-07
-1.859230e-10
1.693440e-07
-4.355540e-11
-2.836200e-07
2.807050e-07
1.500940e-10
-3.809190e-08
9.246910e-11
2.834230e-07
-4.355540e-11
-4.044080e-08
-1.968500e-11
1.500940e-10
-2.805170e-07
9.246910e-11
3.846900e-08
-4.355540e-11
-2.836200e-07
-1.968500e-11
4.062930e-08
-3.809190e-08
9.246910e-11
-9.465800e-07
-6.009610e-11
-4.044080e-08
-1.968500e-11
-9.479860e-07
-3.453700e-11
9.246910e-11
3.846900e-08
-6.009610e-11
9.462650e-07
-1.968500e-11
4.062930e-08
-3.453700e-11
9.481430e-07
-9.465800e-07
-6.009610e-11
2.157690e-06
1.068360e-10
-9.479860e-07
-3.453700e-11
2.174100e-06
3.004110e-11
-6.009610e-11
9.462650e-07
1.068360e-10
-2.157480e-06
-3.453700e-11
9.481430e-07
3.004110e-11
-2.174010e-06
2.157690e-06
1.068360e-10
-1.329810e-06
-1.703670e-10
2.174100e-06
3.004110e-11
-1.391470e-06
-1.529530e-11
1.068360e-10
-2.157480e-06
-1.703670e-10
1.329890e-06
3.004110e-11
-2.174010e-06
-1.529530e-11
1.391460e-06
-1.329810e-06
-1.703670e-10
-3.154480e-06
1.191780e-10
-1.391470e-06
-1.529530e-11
-2.989900e-06
-7.213950e-11
-1.703670e-10
1.329890e-06
1.191780e-10
3.154240e-06
-1.529530e-11
1.391460e-06
-7.213950e-11
2.989690e-06
-3.154480e-06
1.191780e-10
5.347620e-06
-1.283700e-10
-2.989900e-06
-7.213950e-11
5.019530e-06
-6.955200e-11
1.191780e-10
3.154240e-06
-1.283700e-10
-5.347730e-06
-7.213950e-11
2.989690e-06
-6.955200e-11
-5.019540e-06
5.347620e-06
-1.283700e-10
-3.935940e-06
-2.296330e-11
5.019530e-06
-6.955200e-11
-3.547230e-06
-3.533710e-11
-1.283700e-10
-5.347730e-06
-2.296330e-11
3.935840e-06
-6.955200e-11
-5.019540e-06
-3.533710e-11
3.547160e-06
-3.935940e-06
-2.296330e-11
-6.727440e-06
-7.300190e-11
-3.547230e-06
-3.533710e-11
-6.627330e-06
-6.855380e-12
-2.296330e-11
3.935840e-06
-7.300190e-11
6.727340e-06
-3.533710e-11
3.547160e-06
-6.855380e-12
6.627310e-06
-6.727440e-06
-7.300190e-11
-8.595610e-06
1.494980e-10
-6.627330e-06
-6.855380e-12
-9.229180e-06
5.879840e-11
-7.300190e-11
6.727340e-06
1.494980e-10
8.595590e-06
-6.855380e-12
6.627310e-06
5.879840e-11
9.229110e-06
-8.595610e-06
1.494980e-10
-9.703530e-06
-4.157230e-11
-9.229180e-06
5.879840e-11
-9.806260e-06
-2.754560e-11
1.494980e-10
8.595590e-06
-4.157230e-11
9.703370e-06
5.879840e-11
9.229110e-06
-2.754560e-11
9.806150e-06
-9.703530e-06
-4.157230e-11
8.635240e-06
-7.985000e-12
-9.806260e-06
-2.754560e-11
8.763530e-06
-1.373250e-11
-4.157230e-11
9.703370e-06
-7.985000e-12
-8.635240e-06
-2.754560e-11
9.806150e-06
-1.373250e-11
-8.763550e-06
8.635240e-06
-7.985000e-12
1.994280e-05
-1.409400e-11
8.763530e-06
-1.373250e-11
1.987540e-05
-2.604560e-11
-7.985000e-12
-8.635240e-06
-1.409400e-11
-1.994280e-05
-1.373250e-11
-8.763550e-06
-2.604560e-11
-1.987550e-05
1.994280e-05
-1.409400e-11
2.414060e-06
-4.197130e-11
1.987540e-05
-2.604560e-11
2.287460e-06
-2.206900e-11
-1.409400e-11
-1.994280e-05
-4.197130e-11
-2.414150e-06
-2.604560e-11
-1.987550e-05
-2.206900e-11
-2.287540e-06
2.414060e-06
-4.197130e-11
-1.044990e-05
-3.557520e-11
2.287460e-06
-2.206900e-11
-1.028970e-05
-2.607510e-11
-4.197130e-11
-2.414150e-06
-3.557520e-11
1.044980e-05
-2.206900e-11
-2.287540e-06
-2.607510e-11
1.028970e-05
-1.044990e-05
-3.557520e-11
-5.871570e-06
-1.149510e-11
-1.028970e-05
-2.607510e-11
-5.648860e-06
-1.723530e-11
-3.557520e-11
1.044980e-05
-1.149510e-11
5.871570e-06
-2.607510e-11
1.028970e-05
-1.723530e-11
5.648840e-06
-5.871570e-06
-1.149510e-11
-1.797830e-06
1.575140e-11
-5.648860e-06
-1.723530e-11
-1.838110e-06
9.225710e-12
-1.149510e-11
5.871570e-06
1.575140e-11
1.797870e-06
-1.723530e-11
5.648840e-06
9.225710e-12
1.838130e-06
-1.797830e-06
1.575140e-11
1.032810e-06
9.585680e-12
-1.838110e-06
9.225710e-12
8.065060e-07
1.027180e-11
1.575140e-11
1.797870e-06
9.585680e-12
-1.032800e-06
9.225710e-12
1.838130e-06
1.027180e-11
-8.064980e-07
1.032810e-06
9.585680e-12
2.014650e-07
-4.989080e-12
8.065060e-07
1.027180e-11
9.655190e-07
4.736420e-13
9.585680e-12
-1.032800e-06
-4.989080e-12
-2.014730e-07
1.027180e-11
-8.064980e-07
4.736420e-13
-9.655120e-07
2.014650e-07
-4.989080e-12
-3.412020e-06
-5.092040e-12
9.655190e-07
4.736420e-13
2.835170e-07
-6.216350e-12
-4.989080e-12
-2.014730e-07
-5.092040e-12
3.412010e-06
4.736420e-13
-9.655120e-07
-6.216350e-12
-2.835250e-07
-3.412020e-06
-5.092040e-12
9.958150e-06
-1.018740e-11
2.835170e-07
-6.216350e-12
2.892680e-07
-7.883100e-12
-5.092040e-12
3.412010e-06
-1.018740e-11
-9.958160e-06
-6.216350e-12
-2.835250e-07
-7.883100e-12
-2.892830e-07
0.000000e+00
0.000000e+00
0.000000e+00
1.229950e-10
0.000000e+00
0.000000e+00
0.000000e+00
-6.186850e-11
0.000000e+00
0.000000e+00
1.229950e-10
0.000000e+00
0.000000e+00
0.000000e+00
-6.186850e-11
0.000000e+00
0.000000e+00
1.229950e-10
1.963910e-10
-3.441810e-11
0.000000e+00
-6.186850e-11
1.571130e-10
4.389040e-11
1.229950e-10
0.000000e+00
-3.441810e-11
-5.498940e-11
-6.186850e-11
0.000000e+00
4.389040e-11
-5.813160e-10
1.963910e-10
-3.441810e-11
-1.571130e-10
2.112610e-11
1.571130e-10
4.389040e-11
-6.520170e-10
-1.467570e-10
-3.441810e-11
-5.498940e-11
2.112610e-11
3.299360e-10
4.389040e-11
-5.813160e-10
-1.467570e-10
9.426750e-11
-1.571130e-10
2.112610e-11
-1.948200e-09
1.538060e-10
-6.520170e-10
-1.467570e-10
-1.563270e-09
3.138560e-10
2.112610e-11
3.299360e-10
1.538060e-10
2.034610e-09
-1.467570e-10
9.426750e-11
3.138560e-10
2.160300e-09
-1.948200e-09
1.538060e-10
7.093630e-09
-1.433160e-10
-1.563270e-09
3.138560e-10
7.619960e-09
1.218010e-10
1.538060e-10
2.034610e-09
-1.433160e-10
-7.164330e-09
3.138560e-10
2.160300e-09
1.218010e-10
-7.132910e-09
7.093630e-09
-1.433160e-10
-1.529490e-08
-1.448370e-10
7.619960e-09
1.218010e-10
-1.512210e-08
-1.598890e-10
-1.433160e-10
-7.164330e-09
-1.448370e-10
1.479210e-08
1.218010e-10
-7.132910e-09
-1.598890e-10
1.504350e-08
-1.529490e-08
-1.448370e-10
1.122570e-08
1.202530e-10
-1.512210e-08
-1.598890e-10
1.132780e-08
-1.854160e-10
-1.448370e-10
1.479210e-08
1.202530e-10
-1.081720e-08
-1.598890e-10
1.504350e-08
-1.854160e-10
-1.137490e-08
1.122570e-08
1.202530e-10
4.070790e-08
4.402450e-11
1.132780e-08
-1.854160e-10
3.964740e-08
-6.038480e-11
1.202530e-10
-1.081720e-08
4.402450e-11
-4.057430e-08
-1.854160e-10
-1.137490e-08
-6.038480e-11
-3.956090e-08
4.070790e-08
4.402450e-11
-1.696420e-07
-1.859230e-10
3.964740e-08
-6.038480e-11
-1.676080e-07
-1.173320e-11
4.402450e-11
-4.057430e-08
-1.859230e-10
1.693440e-07
-6.038480e-11
-3.956090e-08
-1.173320e-11
1.679060e-07
-1.696420e-07
-1.859230e-10
2.834230e-07
-4.355540e-11
-1.676080e-07
-1.173320e-11
2.808310e-07
1.413170e-10
-1.859230e-10
1.693440e-07
-4.355540e-11
-2.836200e-07
-1.173320e-11
1.679060e-07
1.413170e-10
-2.809330e-07
2.834230e-07
-4.355540e-11
-4.044080e-08
-1.968500e-11
2.808310e-07
1.413170e-10
-3.806840e-08
8.442320e-11
-4.355540e-11
-2.836200e-07
-1.968500e-11
4.062930e-08
1.413170e-10
-2.809330e-07
8.442320e-11
3.842190e-08
-4.044080e-08
-1.968500e-11
-9.479860e-07
-3.453700e-11
-3.806840e-08
8.442320e-11
-9.463520e-07
1.911250e-11
-1.968500e-11
4.062930e-08
-3.453700e-11
9.481430e-07
8.442320e-11
3.842190e-08
1.911250e-11
9.463360e-07
-9.479860e-07
-3.453700e-11
2.174100e-06
3.004110e-11
-9.463520e-07
1.911250e-11
2.157670e-06
8.466670e-11
-3.453700e-11
9.481430e-07
3.004110e-11
-2.174010e-06
1.911250e-11
9.463360e-07
8.466670e-11
-2.157360e-06
2.174100e-06
3.004110e-11
-1.391470e-06
-1.529530e-11
2.157670e-06
8.466670e-11
-1.330010e-06
-5.842580e-11
3.004110e-11
-2.174010e-06
-1.529530e-11
1.391460e-06
8.466670e-11
-2.157360e-06
-5.842580e-11
1.330110e-06
-1.391470e-06
-1.529530e-11
-2.989900e-06
-7.213950e-11
-1.330010e-06
-5.842580e-11
-3.154320e-06
4.297350e-11
-1.529530e-11
1.391460e-06
-7.213950e-11
2.989690e-06
-5.842580e-11
1.330110e-06
4.297350e-11
3.154250e-06
-2.989900e-06
-7.213950e-11
5.019530e-06
-6.955200e-11
-3.154320e-06
4.297350e-11
5.347510e-06
-8.313340e-11
-7.213950e-11
2.989690e-06
-6.955200e-11
-5.019540e-06
4.297350e-11
3.154250e-06
-8.313340e-11
-5.347620e-06
5.019530e-06
-6.955200e-11
-3.547230e-06
-3.533710e-11
5.347510e-06
-8.313340e-11
-3.935980e-06
-3.788020e-11
-6.955200e-11
-5.019540e-06
-3.533710e-11
3.547160e-06
-8.313340e-11
-5.347620e-06
-3.788020e-11
3.935760e-06
-3.547230e-06
-3.533710e-11
-6.627330e-06
-6.855380e-12
-3.935980e-06
-3.788020e-11
-6.727360e-06
-3.988090e-12
-3.533710e-11
3.547160e-06
-6.855380e-12
6.627310e-06
-3.788020e-11
3.935760e-06
-3.988090e-12
6.727280e-06
-6.627330e-06
-6.855380e-12
-9.229180e-06
5.879840e-11
-6.727360e-06
-3.988090e-12
-8.595600e-06
-3.937360e-11
-6.855380e-12
6.627310e-06
5.879840e-11
9.229110e-06
-3.988090e-12
6.727280e-06
-3.937360e-11
8.595560e-06
-9.229180e-06
5.879840e-11
-9.806260e-06
-2.754560e-11
-8.595600e-06
-3.937360e-11
-9.703400e-06
1.801630e-12
5.879840e-11
9.229110e-06
-2.754560e-11
9.806150e-06
-3.937360e-11
8.595560e-06
1.801630e-12
9.703420e-06
-9.806260e-06
-2.754560e-11
8.763530e-06
-1.373250e-11
-9.703400e-06
1.801630e-12
8.635230e-06
-1.834450e-11
-2.754560e-11
9.806150e-06
-1.373250e-11
-8.763550e-06
1.801630e-12
9.703420e-06
-1.834450e-11
-8.635240e-06
8.763530e-06
-1.373250e-11
1.987540e-05
-2.604560e-11
8.635230e-06
-1.834450e-11
1.994280e-05
-3.125510e-11
-1.373250e-11
-8.763550e-06
-2.604560e-11
-1.987550e-05
-1.834450e-11
-8.635240e-06
-3.125510e-11
-1.994280e-05
1.987540e-05
-2.604560e-11
2.287460e-06
-2.206900e-11
1.994280e-05
-3.125510e-11
2.414070e-06
-1.543890e-11
-2.604560e-11
-1.987550e-05
-2.206900e-11
-2.287540e-06
-3.125510e-11
-1.994280e-05
-1.543890e-11
-2.414130e-06
2.287460e-06
-2.206900e-11
-1.028970e-05
-2.607510e-11
2.414070e-06
-1.543890e-11
-1.044990e-05
-2.318660e-11
-2.206900e-11
-2.287540e-06
-2.607510e-11
1.028970e-05
-1.543890e-11
-2.414130e-06
-2.318660e-11
1.044990e-05
-1.028970e-05
-2.607510e-11
-5.648860e-06
-1.723530e-11
-1.044990e-05
-2.318660e-11
-5.871570e-06
-2.276810e-11
-2.607510e-11
1.028970e-05
-1.723530e-11
5.648840e-06
-2.318660e-11
1.044990e-05
-2.276810e-11
5.871550e-06
-5.648860e-06
-1.723530e-11
-1.838110e-06
9.225710e-12
-5.871570e-06
-2.276810e-11
-1.797820e-06
6.026110e-12
-1.723530e-11
5.648840e-06
9.225710e-12
1.838130e-06
-2.276810e-11
5.871550e-06
6.026110e-12
1.797840e-06
-1.838110e-06
9.225710e-12
8.065060e-07
1.027180e-11
-1.797820e-06
6.026110e-12
1.032830e-06
1.554570e-11
9.225710e-12
1.838130e-06
1.027180e-11
-8.064980e-07
6.026110e-12
1.797840e-06
1.554570e-11
-1.032800e-06
8.065060e-07
1.027180e-11
9.655190e-07
4.736420e-13
1.032830e-06
1.554570e-11
2.014810e-07
1.074760e-12
1.027180e-11
-8.064980e-07
4.736420e-13
-9.655120e-07
1.554570e-11
-1.032800e-06
1.074760e-12
-2.014730e-07
9.655190e-07
4.736420e-13
2.835170e-07
-6.216350e-12
2.014810e-07
1.074760e-12
-3.412010e-06
-4.628230e-12
4.736420e-13
-9.655120e-07
-6.216350e-12
-2.835250e-07
1.074760e-12
-2.014730e-07
-4.628230e-12
3.412000e-06
2.835170e-07
-6.216350e-12
2.892680e-07
-7.883100e-12
-3.412010e-06
-4.628230e-12
9.958150e-06
-1.371310e-11
-6.216350e-12
-2.835250e-07
-7.883100e-12
-2.892830e-07
-4.628230e-12
3.412000e-06
-1.371310e-11
-9.958180e-06
</DataArray>
<DataArray type="Float32" Name="V2" format="ascii">
0.000000e+00
0.000000e+00
1.576030e-06
1.575650e-06
0.000000e+00
0.000000e+00
1.576150e-06
1.575900e-06
0.000000e+00
0.000000e+00
1.575650e-06
1.575900e-06
0.000000e+00
0.000000e+00
1.575900e-06
1.577030e-06
1.576030e-06
1.575650e-06
3.582420e-06
3.579650e-06
1.576150e-06
1.575900e-06
3.579400e-06
3.579530e-06
1.575650e-06
1.575900e-06
3.579650e-06
3.582540e-06
1.575900e-06
1.577030e-06
3.579530e-06
3.580160e-06
3.582420e-06
3.579650e-06
-1.027820e-05
-1.027790e-05
3.579400e-06
3.579530e-06
-1.027750e-05
-1.027630e-05
3.579650e-06
3.582540e-06
-1.027790e-05
-1.027740e-05
3.579530e-06
3.580160e-06
-1.027630e-05
-1.027640e-05
-1.027820e-05
-1.027790e-05
-1.037900e-05
-1.038230e-05
-1.027750e-05
-1.027630e-05
-1.038250e-05
-1.038630e-05
-1.027790e-05
-1.027740e-05
-1.038230e-05
-1.037870e-05
-1.027630e-05
-1.027640e-05
-1.038630e-05
-1.038330e-05
-1.037900e-05
-1.038230e-05
5.223190e-05
5.223600e-05
-1.038250e-05
-1.038630e-05
5.223540e-05
5.224130e-05
-1.038230e-05
-1.037870e-05
5.223600e-05
5.222990e-05
-1.038630e-05
-1.038330e-05
5.224130e-05
5.223560e-05
5.223190e-05
5.223600e-05
-2.293280e-06
-2.293400e-06
5.223540e-05
5.224130e-05
-2.293530e-06
-2.294850e-06
5.223600e-05
5.222990e-05
-2.293400e-06
-2.294090e-06
5.224130e-05
5.223560e-05
-2.294850e-06
-2.293530e-06
-2.293280e-06
-2.293400e-06
-2.326450e-04
-2.326710e-04
-2.293530e-06
-2.294850e-06
-2.326710e-04
-2.326970e-04
-2.293400e-06
-2.294090e-06
-2.326710e-04
-2.326460e-04
-2.294850e-06
-2.293530e-06
-2.326970e-04
-2.326700e-04
-2.326450e-04
-2.326710e-04
4.426740e-04
4.427500e-04
-2.326710e-04
-2.326970e-04
4.427490e-04
4.428240e-04
-2.326710e-04
-2.326460e-04
4.427500e-04
4.426730e-04
-2.326970e-04
-2.326700e-04
4.428240e-04
4.427490e-04
4.426740e-04
4.427500e-04
1.852680e-03
1.852580e-03
4.427490e-04
4.428240e-04
1.852580e-03
1.852480e-03
4.427500e-04
4.426730e-04
1.852580e-03
1.852680e-03
4.428240e-04
4.427490e-04
1.852480e-03
1.852580e-03
1.852680e-03
1.852580e-03
-3.722230e-03
-3.722250e-03
1.852580e-03
1.852480e-03
-3.722250e-03
-3.722280e-03
1.852580e-03
1.852680e-03
-3.722250e-03
-3.722230e-03
1.852480e-03
1.852580e-03
-3.722280e-03
-3.722250e-03
-3.722230e-03
-3.722250e-03
-2.500160e-02
-2.500120e-02
-3.722250e-03
-3.722280e-03
-2.500120e-02
-2.500080e-02
-3.722250e-03
-3.722230e-03
-2.500120e-02
-2.500160e-02
-3.722280e-03
-3.722250e-03
-2.500080e-02
-2.500120e-02
-2.500160e-02
-2.500120e-02
-4.824870e-02
-4.824930e-02
-2.500120e-02
-2.500080e-02
-4.824930e-02
-4.825000e-02
-2.500120e-02
-2.500160e-02
-4.824930e-02
-4.824870e-02
-2.500080e-02
-2.500120e-02
-4.825000e-02
-4.824930e-02
-4.824870e-02
-4.824930e-02
-4.823530e-02
-4.823520e-02
-4.824930e-02
-4.825000e-02
-4.823520e-02
-4.823490e-02
-4.824930e-02
-4.824870e-02
-4.823520e-02
-4.823530e-02
-4.825000e-02
-4.824930e-02
-4.823490e-02
-4.823520e-02
-4.823530e-02
-4.823520e-02
-2.995990e-02
-2.995880e-02
-4.823520e-02
-4.823490e-02
-2.995880e-02
-2.995790e-02
-4.823520e-02
-4.823530e-02
-2.995880e-02
-2.995990e-02
-4.823490e-02
-4.823520e-02
-2.995790e-02
-2.995880e-02
-2.995990e-02
-2.995880e-02
-1.348560e-02
-1.348760e-02
-2.995880e-02
-2.995790e-02
-1.348760e-02
-1.348950e-02
-2.995880e-02
-2.995990e-02
-1.348760e-02
-1.348560e-02
-2.995790e-02
-2.995880e-02
-1.348950e-02
-1.348760e-02
-1.348560e-02
-1.348760e-02
-4.964890e-03
-4.966510e-03
-1.348760e-02
-1.348950e-02
-4.966510e-03
-4.968190e-03
-1.348760e-02
-1.348560e-02
-4.966510e-03
-4.964890e-03
-1.348950e-02
-1.348760e-02
-4.968190e-03
-4.966510e-03
-4.964890e-03
-4.966510e-03
-2.673290e-03
-2.655150e-03
-4.966510e-03
-4.968190e-03
-2.655150e-03
-2.636970e-03
-4.966510e-03
-4.964890e-03
-2.655150e-03
-2.673290e-03
-4.968190e-03
-4.966510e-03
-2.636970e-03
-2.655150e-03
-2.673290e-03
-2.655150e-03
-1.937760e-03
-1.919910e-03
-2.655150e-03
-2.636970e-03
-1.919910e-03
-1.902240e-03
-2.655150e-03
-2.673290e-03
-1.919910e-03
-1.937760e-03
-2.636970e-03
-2.655150e-03
-1.902240e-03
-1.919910e-03
-1.937760e-03
-1.919910e-03
-1.374280e-03
-1.378150e-03
-1.919910e-03
-1.902240e-03
-1.378150e-03
-1.383210e-03
-1.919910e-03
-1.937760e-03
-1.378150e-03
-1.374280e-03
-1.902240e-03
-1.919910e-03
-1.383210e-03
-1.378150e-03
-1.374280e-03
-1.378150e-03
-3.545860e-04
-3.570930e-04
-1.378150e-03
-1.383210e-03
-3.570930e-04
-3.605020e-04
-1.378150e-03
-1.374280e-03
-3.570930e-04
-3.545870e-04
-1.383210e-03
-1.378150e-03
-3.605020e-04
-3.570930e-04
-3.545860e-04
-3.570930e-04
6.668900e-05
4.205920e-05
-3.570930e-04
-3.605020e-04
4.205920e-05
1.663240e-05
-3.570930e-04
-3.545870e-04
4.205920e-05
6.668910e-05
-3.605020e-04
-3.570930e-04
1.663240e-05
4.205930e-05
6.668900e-05
4.205920e-05
-3.101980e-04
-3.317630e-04
4.205920e-05
1.663240e-05
-3.317630e-04
-3.524380e-04
4.205920e-05
6.668910e-05
-3.317630e-04
-3.101980e-04
1.663240e-05
4.205930e-05
-3.524380e-04
-3.317630e-04
-3.101980e-04
-3.317630e-04
-7.650160e-04
-7.109960e-04
-3.317630e-04
-3.524380e-04
-7.109960e-04
-6.599660e-04
-3.317630e-04
-3.101980e-04
-7.109960e-04
-7.650160e-04
-3.524380e-04
-3.317630e-04
-6.599660e-04
-7.109960e-04
-7.650160e-04
-7.109960e-04
4.922280e-04
5.505530e-04
-7.109960e-04
-6.599660e-04
5.505530e-04
6.029660e-04
-7.109960e-04
-7.650160e-04
5.505530e-04
4.922280e-04
-6.599660e-04
-7.109960e-04
6.029660e-04
5.505530e-04
4.922280e-04
5.505530e-04
3.940170e-04
3.681640e-04
5.505530e-04
6.029660e-04
3.681640e-04
3.488960e-04
5.505530e-04
4.922280e-04
3.681640e-04
3.940170e-04
6.029660e-04
5.505530e-04
3.488960e-04
3.681640e-04
3.940170e-04
3.681640e-04
-1.652070e-04
-1.912490e-04
3.681640e-04
3.488960e-04
-1.912490e-04
-2.149070e-04
3.681640e-04
3.940170e-04
-1.912490e-04
-1.652070e-04
3.488960e-04
3.681640e-04
-2.149070e-04
-1.912490e-04
-1.652070e-04
-1.912490e-04
-6.753010e-04
-6.848250e-04
-1.912490e-04
-2.149070e-04
-6.848260e-04
-6.948610e-04
-1.912490e-04
-1.652070e-04
-6.848250e-04
-6.753010e-04
-2.149070e-04
-1.912490e-04
-6.948610e-04
-6.848260e-04
-6.753010e-04
-6.848250e-04
-9.460900e-04
-9.482120e-04
-6.848260e-04
-6.948610e-04
-9.482120e-04
-9.509540e-04
-6.848250e-04
-6.753010e-04
-9.482120e-04
-9.460900e-04
-6.948610e-04
-6.848260e-04
-9.509540e-04
-9.482120e-04
-9.460900e-04
-9.482120e-04
-1.022100e-03
-1.067280e-03
-9.482120e-04
-9.509540e-04
-1.067280e-03
-1.067660e-03
-9.482120e-04
-9.460900e-04
-1.067280e-03
-1.022100e-03
-9.509540e-04
-9.482120e-04
-1.067660e-03
-1.067280e-03
-1.022100e-03
-1.067280e-03
-1.086870e-03
-1.297720e-03
-1.067280e-03
-1.067660e-03
-1.297720e-03
-1.299900e-03
-1.067280e-03
-1.022100e-03
-1.297720e-03
-1.086870e-03
-1.067660e-03
-1.067280e-03
-1.299900e-03
-1.297720e-03
0.000000e+00
0.000000e+00
1.576150e-06
1.575900e-06
0.000000e+00
0.000000e+00
1.576280e-06
1.576030e-06
0.000000e+00
0.000000e+00
1.575900e-06
1.577030e-06
0.000000e+00
0.000000e+00
1.576030e-06
1.575650e-06
1.576150e-06
1.575900e-06
3.579400e-06
3.579530e-06
1.576280e-06