MercuryDPM 0.14 name oneDimChain revision 6406 repository https://svn.mercurydpm.org/SourceCode/Branches/OomphlibCouplingExplicit
dataFile    fileType ONE_FILE saveCount 62 counter 102 lastSavedTimeStep 6222
fStatFile   fileType ONE_FILE saveCount 62 counter 102 lastSavedTimeStep 6222
eneFile     fileType ONE_FILE saveCount 62 counter 102 lastSavedTimeStep 6222
restartFile fileType ONE_FILE saveCount 62 counter 102 lastSavedTimeStep 6222
statFile    fileType ONE_FILE saveCount 62 counter 0
interactionFile fileType NO_FILE saveCount 0 counter 0
xMin -500 xMax 500 yMin -5000 yMax 5000 zMin -500 zMax 500
timeStep 0.0160743783395346 time 100.01478202859 ntimeSteps 6222 timeMax 100
systemDimensions 3 particleDimensions 3 gravity 0 0 -0 writeVTK 1 MULTIPLE_FILES NO_FILE 102 102 0 0 random  0 1103515245 12345 1073741824 607 273 784607267
Species 1
LinearViscoelasticReversibleAdhesiveSpecies id 0 density 2500 stiffness 20000000000 dissipation -0 adhesionForceMax 0 adhesionStiffness 20000000000
Walls 0
Boundaries 0
Particles 960
BaseParticle id 0 indSpecies 0 position -300.000038407824 2099.69796223144 -300.000040683173 orientation 1 0 0 0 velocity 8.46843757635745e-06 0.0323826166606629 8.73060826082495e-06 angularVelocity 0 0 0 force -213372.620584998 44925806.3849144 -207853.473072995 torque 0 0 0 radius 100 invMass 9.54929658551372e-11
BaseParticle id 1 indSpecies 0 position -300.000081507025 2099.7097546161 -100.000047096369 orientation 1 0 0 0 velocity 9.57081956072874e-06 0.0346896699116935 -1.41494781355386e-06 angularVelocity 0 0 0 force -85423.5221212605 174651698.990559 90197.3804601452 torque 0 0 0 radius 100 invMass 9.54929658551372e-11
BaseParticle id 2 indSpecies 0 position -300.00008150014 2099.70975477318 100.00004660906 orientation 1 0 0 0 velocity 9.56618373332473e-06 0.0346894750437075 2.20446800412519e-06 angularVelocity 0 0 0 force -85477.7731617665 174646788.768835 -70974.4583642675 torque 0 0 0 radius 100 invMass 9.54929658551372e-11
BaseParticle id 3 indSpecies 0 position -300.000038383004 2099.69796225351 300.000041160552 orientation 1 0 0 0 velocity 8.38044888186211e-06 0.0323827514998775 -9.5147422520142e-06 angularVelocity 0 0 0 force -215766.596333607 44928767.227835 188685.434718416 torque 0 0 0 radius 100 invMass 9.54929658551372e-11
BaseParticle id 4 indSpecies 0 position -100.000045084127 2099.70975459379 -300.000080677717 orientation 1 0 0 0 velocity -7.32073987830993e-07 0.0346896995675385 9.54767583000517e-06 angularVelocity 0 0 0 force 95420.4416495871 174652310.316168 -84949.8930372831 torque 0 0 0 radius 100 invMass 9.54929658551372e-11
BaseParticle id 5 indSpecies 0 position -100.000034463728 2099.69416736344 -100.000035377087 orientation 1 0 0 0 velocity -4.68786135863322e-06 0.047794966961401 -4.80873557267207e-06 angularVelocity 0 0 0 force -30646.4594258767 -292309316.091277 -30535.1226163185 torque 0 0 0 radius 100 invMass 9.54929658551372e-11
BaseParticle id 6 indSpecies 0 position -100.000034471629 2099.69416738252 100.00003558231 orientation 1 0 0 0 velocity -4.69201057533932e-06 0.0477950721711205 4.82215029471949e-06 angularVelocity 0 0 0 force -30665.8419504688 -292308891.34486 30477.6154300811 torque 0 0 0 radius 100 invMass 9.54929658551372e-11
BaseParticle id 7 indSpecies 0 position -100.000045171378 2099.70975507513 300.000080463851 orientation 1 0 0 0 velocity -6.73028213001752e-07 0.0346891442016688 -9.55393778411768e-06 angularVelocity 0 0 0 force 97605.4033114521 174637871.181922 85109.8542902723 torque 0 0 0 radius 100 invMass 9.54929658551372e-11
BaseParticle id 8 indSpecies 0 position 100.000045110174 2099.70975461129 -300.000080773404 orientation 1 0 0 0 velocity 7.78636166254815e-07 0.0346896625599506 9.55605879998441e-06 angularVelocity 0 0 0 force -96669.5704176089 174651806.845445 -84722.0204587521 torque 0 0 0 radius 100 invMass 9.54929658551372e-11
BaseParticle id 9 indSpecies 0 position 100.000034485276 2099.69416735236 -100.00003536903 orientation 1 0 0 0 velocity 4.69518642311761e-06 0.0477948977021826 -4.80826489202099e-06 angularVelocity 0 0 0 force 30644.0126731225 -292308477.629604 -30456.2573896967 torque 0 0 0 radius 100 invMass 9.54929658551372e-11
BaseParticle id 10 indSpecies 0 position 100.000034503441 2099.69416737781 100.000035588747 orientation 1 0 0 0 velocity 4.69977975232092e-06 0.0477949835697973 4.82341328297168e-06 angularVelocity 0 0 0 force 30663.8289054265 -292307980.264511 30418.0501135362 torque 0 0 0 radius 100 invMass 9.54929658551372e-11
BaseParticle id 11 indSpecies 0 position 100.000045175172 2099.70975511952 300.000080536138 orientation 1 0 0 0 velocity 6.47912474918856e-07 0.0346890904729221 -9.56255104461404e-06 angularVelocity 0 0 0 force -97980.4323724737 174636665.603552 84937.6825065412 torque 0 0 0 radius 100 invMass 9.54929658551372e-11
BaseParticle id 12 indSpecies 0 position 300.000038371585 2099.69796218516 -300.000040169558 orientation 1 0 0 0 velocity -8.51326704118088e-06 0.0323828060822462 6.57392815484117e-06 angularVelocity 0 0 0 force 214612.622602548 44929939.7789612 -238708.712465534 torque 0 0 0 radius 100 invMass 9.54929658551372e-11
BaseParticle id 13 indSpecies 0 position 300.00008147709 2099.70975490261 -100.000048157757 orientation 1 0 0 0 velocity -9.5768017902468e-06 0.0346892929934908 6.53933483358421e-07 angularVelocity 0 0 0 force 85418.1463358593 174642183.93509 121920.988134216 torque 0 0 0 radius 100 invMass 9.54929658551372e-11
BaseParticle id 14 indSpecies 0 position 300.00008145927 2099.70975501524 100.000046887657 orientation 1 0 0 0 velocity -9.57255768404901e-06 0.0346892030479459 2.31468125296306e-06 angularVelocity 0 0 0 force 85477.2407479688 174639736.889734 -71833.3476409727 torque 0 0 0 radius 100 invMass 9.54929658551372e-11
BaseParticle id 15 indSpecies 0 position 300.000038368125 2099.69796225231 300.000041404866 orientation 1 0 0 0 velocity -8.35346465387688e-06 0.0323827459551661 -9.53302811817124e-06 angularVelocity 0 0 0 force 216147.496753296 44929167.4966015 188882.452451189 torque 0 0 0 radius 100 invMass 9.54929658551372e-11
BaseParticle id 16 indSpecies 0 position -300.000017260438 2299.68772749205 -300.0000173711 orientation 1 0 0 0 velocity 7.87674937637834e-06 0.0330817349338262 7.08961329650377e-06 angularVelocity 0 0 0 force -192670.467355295 -143495408.522697 -198841.224862326 torque 0 0 0 radius 100 invMass 9.54929658551372e-11
BaseParticle id 17 indSpecies 0 position -300.000021976966 2299.70593275494 -100.000025042809 orientation 1 0 0 0 velocity 6.27751138513546e-06 0.0359642431052674 2.10310698362576e-06 angularVelocity 0 0 0 force -61019.4032823197 -455657741.33715 115132.487221777 torque 0 0 0 radius 100 invMass 9.54929658551372e-11
BaseParticle id 18 indSpecies 0 position -300.000022126973 2299.70593265701 100.000025006242 orientation 1 0 0 0 velocity 6.2556632440699e-06 0.0359641741096121 -2.02595922430779e-06 angularVelocity 0 0 0 force -61065.1415916748 -455654940.988735 -113793.637852119 torque 0 0 0 radius 100 invMass 9.54929658551372e-11
BaseParticle id 19 indSpecies 0 position -300.000017071898 2299.6877275991 300.000017405008 orientation 1 0 0 0 velocity 8.14793655325115e-06 0.0330817159992928 -7.16574261939092e-06 angularVelocity 0 0 0 force -188418.03844927 -143496647.820346 197497.116463244 torque 0 0 0 radius 100 invMass 9.54929658551372e-11
BaseParticle id 20 indSpecies 0 position -100.000024612911 2299.70593277153 -300.000018469228 orientation 1 0 0 0 velocity 1.49284539775623e-06 0.0359642275573293 6.79727856803642e-06 angularVelocity 0 0 0 force 108714.031727337 -455657946.523312 -60646.7185348215 torque 0 0 0 radius 100 invMass 9.54929658551372e-11
BaseParticle id 21 indSpecies 0 position -100.000006836918 2299.66823935255 -100.000005330986 orientation 1 0 0 0 velocity -2.28664999265476e-06 0.0398157769791821 -2.12468539303841e-06 angularVelocity 0 0 0 force -21518.6356818445 445458272.128587 -21423.3696272613 torque 0 0 0 radius 100 invMass 9.54929658551372e-11
BaseParticle id 22 indSpecies 0 position -100.000006848367 2299.66823937153 100.000005561376 orientation 1 0 0 0 velocity -2.32824983085688e-06 0.0398157044871781 2.16484096495571e-06 angularVelocity 0 0 0 force -21534.5999946877 445458354.646746 21360.769800925 torque 0 0 0 radius 100 invMass 9.54929658551372e-11
BaseParticle id 23 indSpecies 0 position -100.000024205373 2299.70593250672 300.000018238979 orientation 1 0 0 0 velocity 1.30889362740076e-06 0.0359639235187664 -6.83521512575556e-06 angularVelocity 0 0 0 force 104290.585574078 -455649502.976735 60733.781303211 torque 0 0 0 radius 100 invMass 9.54929658551372e-11
BaseParticle id 24 indSpecies 0 position 100.0000245699 2299.70593275577 -300.000019496193 orientation 1 0 0 0 velocity -1.39028173136442e-06 0.0359643252237509 6.63087322290895e-06 angularVelocity 0 0 0 force -107135.297226421 -455657287.092159 -60501.8438690107 torque 0 0 0 radius 100 invMass 9.54929658551372e-11
BaseParticle id 25 indSpecies 0 position 100.000005581557 2299.66823937218 -100.000005313391 orientation 1 0 0 0 velocity 2.06107467984206e-06 0.0398159581910601 -2.01148732005429e-06 angularVelocity 0 0 0 force 21504.8740227792 445460660.107143 -21372.3617225631 torque 0 0 0 radius 100 invMass 9.54929658551372e-11
BaseParticle id 26 indSpecies 0 position 100.000005759619 2299.66823940066 100.000005618438 orientation 1 0 0 0 velocity 2.12711791334857e-06 0.0398159119561594 2.06374323869808e-06 angularVelocity 0 0 0 force 21522.403992813 445460932.135374 21321.2630719888 torque 0 0 0 radius 100 invMass 9.54929658551372e-11
BaseParticle id 27 indSpecies 0 position 100.000024018533 2299.70593248331 300.000019187988 orientation 1 0 0 0 velocity -7.78014090931464e-07 0.0359639428152739 -6.67979436115373e-06 angularVelocity 0 0 0 force -96970.3640783121 -455648681.096839 60624.5855028957 torque 0 0 0 radius 100 invMass 9.54929658551372e-11
BaseParticle id 28 indSpecies 0 position 300.000017296745 2299.68772761799 -300.000017215713 orientation 1 0 0 0 velocity -7.97929024923968e-06 0.0330815876488817 7.30101084421909e-06 angularVelocity 0 0 0 force 191073.756485747 -143499024.230726 -196566.856200423 torque 0 0 0 radius 100 invMass 9.54929658551372e-11
BaseParticle id 29 indSpecies 0 position 300.000023227176 2299.70593256097 -100.000024794775 orientation 1 0 0 0 velocity -6.05206958001605e-06 0.0359640752241928 1.98032359761948e-06 angularVelocity 0 0 0 force 61014.4567153336 -455652639.33407 113426.625524119 torque 0 0 0 radius 100 invMass 9.54929658551372e-11
BaseParticle id 30 indSpecies 0 position 300.000023210019 2299.70593253536 100.000024679667 orientation 1 0 0 0 velocity -6.05465533497981e-06 0.0359640348770427 -1.52387984586928e-06 angularVelocity 0 0 0 force 61063.6810866548 -455650573.286988 -109095.649057971 torque 0 0 0 radius 100 invMass 9.54929658551372e-11
BaseParticle id 31 indSpecies 0 position 300.000017251351 2299.68772758888 300.000017319234 orientation 1 0 0 0 velocity -8.67870660780409e-06 0.0330816809321875 -7.75333657722022e-06 angularVelocity 0 0 0 force 181093.646464217 -143495304.365745 192359.535929565 torque 0 0 0 radius 100 invMass 9.54929658551372e-11
BaseParticle id 32 indSpecies 0 position -300.000148037476 2499.66174677949 -300.00014794223 orientation 1 0 0 0 velocity -1.34863460271722e-05 0.0428291734732672 -1.3538576524082e-05 angularVelocity 0 0 0 force -26275.5780226972 619088125.336673 -26105.1614573068 torque 0 0 0 radius 100 invMass 9.54929658551372e-11
BaseParticle id 33 indSpecies 0 position -300.000151621792 2499.67101954361 -100.000140215075 orientation 1 0 0 0 velocity -1.47939044627313e-05 0.0235866411311299 1.04868051971262e-05 angularVelocity 0 0 0 force -26019.2406405803 640909390.744849 -9693.16193250047 torque 0 0 0 radius 100 invMass 9.54929658551372e-11
BaseParticle id 34 indSpecies 0 position -300.000151629409 2499.67101933394 100.000140215384 orientation 1 0 0 0 velocity -1.47977055728421e-05 0.0235866160724426 -1.04884394418669e-05 angularVelocity 0 0 0 force -26051.6266424298 640911159.312486 9635.45931041533 torque 0 0 0 radius 100 invMass 9.54929658551372e-11
BaseParticle id 35 indSpecies 0 position -300.000148055149 2499.66174687239 300.000147946234 orientation 1 0 0 0 velocity -1.3498808798567e-05 0.0428291654047372 1.35366495901461e-05 angularVelocity 0 0 0 force -26368.6048690962 619088564.694762 26123.9912973434 torque 0 0 0 radius 100 invMass 9.54929658551372e-11
BaseParticle id 36 indSpecies 0 position -100.000140144362 2499.67101959195 -300.000151523871 orientation 1 0 0 0 velocity 1.05086918333687e-05 0.0235866753054424 -1.47855028904953e-05 angularVelocity 0 0 0 force -9726.53094171435 640908246.689706 -25782.4107040385 torque 0 0 0 radius 100 invMass 9.54929658551372e-11
BaseParticle id 37 indSpecies 0 position -100.000133989971 2499.6563808688 -100.000134133012 orientation 1 0 0 0 velocity 1.14406714015212e-05 0.00326029862365645 1.13559234594445e-05 angularVelocity 0 0 0 force -9421.61478716487 57407072.8001566 -9363.88300736564 torque 0 0 0 radius 100 invMass 9.54929658551372e-11
BaseParticle id 38 indSpecies 0 position -100.000133999761 2499.65638087984 100.000134133042 orientation 1 0 0 0 velocity 1.14394335062564e-05 0.00326028488062908 -1.13557489679192e-05 angularVelocity 0 0 0 force -9433.28236369391 57408058.5279329 9306.6792632687 torque 0 0 0 radius 100 invMass 9.54929658551372e-11
BaseParticle id 39 indSpecies 0 position -100.000140176182 2499.67101901427 300.00015153046 orientation 1 0 0 0 velocity 1.0506694932475e-05 0.0235866685783862 1.47823471842219e-05 angularVelocity 0 0 0 force -9761.47273850062 640912269.015126 25813.0858657679 torque 0 0 0 radius 100 invMass 9.54929658551372e-11
BaseParticle id 40 indSpecies 0 position 100.000140123697 2499.67101957222 -300.000151528166 orientation 1 0 0 0 velocity -1.04960104427621e-05 0.0235866313224844 -1.47879813063943e-05 angularVelocity 0 0 0 force 9719.73975242845 640908464.306217 -25703.973503105 torque 0 0 0 radius 100 invMass 9.54929658551372e-11
BaseParticle id 41 indSpecies 0 position 100.000133979705 2499.656381026 -100.000134144466 orientation 1 0 0 0 velocity -1.14302826305305e-05 0.00326033669689362 1.1364349136498e-05 angularVelocity 0 0 0 force 9414.42310616731 57402362.0992264 -9338.88954163784 torque 0 0 0 radius 100 invMass 9.54929658551372e-11
BaseParticle id 42 indSpecies 0 position 100.00013399199 2499.65638105829 100.000134143947 orientation 1 0 0 0 velocity -1.14322978292949e-05 0.00326032983664864 -1.13632685623048e-05 angularVelocity 0 0 0 force 9426.49899650305 57402867.8447067 9284.93559960684 torque 0 0 0 radius 100 invMass 9.54929658551372e-11
BaseParticle id 43 indSpecies 0 position 100.000140161932 2499.67101896243 300.000151536138 orientation 1 0 0 0 velocity -1.04986735025757e-05 0.0235866437477968 1.47845867302401e-05 angularVelocity 0 0 0 force 9756.49945278408 640912865.409099 25752.4895053216 torque 0 0 0 radius 100 invMass 9.54929658551372e-11
BaseParticle id 44 indSpecies 0 position 300.000148056352 2499.66174687623 -300.000147940735 orientation 1 0 0 0 velocity 1.34716598140514e-05 0.0428291867117114 -1.3549019137025e-05 angularVelocity 0 0 0 force 26264.3939570671 619088706.226885 -25895.6723068665 torque 0 0 0 radius 100 invMass 9.54929658551372e-11
BaseParticle id 45 indSpecies 0 position 300.000151632046 2499.67101913891 -100.000140250405 orientation 1 0 0 0 velocity 1.47812770586851e-05 0.0235865986449309 1.05145603107932e-05 angularVelocity 0 0 0 force 26004.6307165277 640912099.215939 -9624.14990283325 torque 0 0 0 radius 100 invMass 9.54929658551372e-11
BaseParticle id 46 indSpecies 0 position 300.000151637268 2499.67101907302 100.000140244461 orientation 1 0 0 0 velocity 1.47883981828691e-05 0.0235866197220656 -1.05102076005334e-05 angularVelocity 0 0 0 force 26040.4041374087 640912481.432983 9573.84823189277 torque 0 0 0 radius 100 invMass 9.54929658551372e-11
BaseParticle id 47 indSpecies 0 position 300.000148068535 2499.66174690273 300.000147952646 orientation 1 0 0 0 velocity 1.34889204519218e-05 0.0428292282301485 1.3542868028109e-05 angularVelocity 0 0 0 force 26365.1520195324 619087912.084661 25963.4465240363 torque 0 0 0 radius 100 invMass 9.54929658551372e-11
BaseParticle id 48 indSpecies 0 position -300.00011280368 2699.6800505026 -300.000113166345 orientation 1 0 0 0 velocity 1.01728337103322e-05 -0.00502283070809717 1.01103075100453e-05 angularVelocity 0 0 0 force 5483.06125962163 112731941.971822 5616.71656255165 torque 0 0 0 radius 100 invMass 9.54929658551372e-11
BaseParticle id 49 indSpecies 0 position -300.000159866995 2699.66489458117 -100.000063687958 orientation 1 0 0 0 velocity 7.58894233342582e-06 0.00309081181127062 -7.25677577005567e-06 angularVelocity 0 0 0 force 5217.32690472939 222888684.510778 1759.97413184201 torque 0 0 0 radius 100 invMass 9.54929658551372e-11
BaseParticle id 50 indSpecies 0 position -300.000159876414 2699.66489435795 100.000063730524 orientation 1 0 0 0 velocity 7.58643046511859e-06 0.00309099210466113 7.25683545278373e-06 angularVelocity 0 0 0 force 5197.84504476713 222888895.097011 -1792.4519350138 torque 0 0 0 radius 100 invMass 9.54929658551372e-11
BaseParticle id 51 indSpecies 0 position -300.000112817907 2699.68005033017 300.000113132265 orientation 1 0 0 0 velocity 1.01665571494497e-05 -0.00502288294060979 -1.01158223501357e-05 angularVelocity 0 0 0 force 5428.44738132381 112731834.927579 -5615.9771845863 torque 0 0 0 radius 100 invMass 9.54929658551372e-11
BaseParticle id 52 indSpecies 0 position -100.000063848076 2699.6648946052 -300.00016025675 orientation 1 0 0 0 velocity -7.2666573660608e-06 0.00309077578768062 7.52633779860009e-06 angularVelocity 0 0 0 force 1727.08227458703 222889142.634778 5377.82188313156 torque 0 0 0 radius 100 invMass 9.54929658551372e-11
BaseParticle id 53 indSpecies 0 position -100.000045107439 2699.64261554473 -100.000045151771 orientation 1 0 0 0 velocity -8.11910885719108e-06 0.0151472917595483 -8.14248661538274e-06 angularVelocity 0 0 0 force 1705.20349328872 360776924.065539 1747.22678770036 torque 0 0 0 radius 100 invMass 9.54929658551372e-11
BaseParticle id 54 indSpecies 0 position -100.000045107485 2699.64261559066 100.000045196423 orientation 1 0 0 0 velocity -8.11990549437456e-06 0.0151473125516469 8.14284484155458e-06 angularVelocity 0 0 0 force 1698.13795043596 360776252.548193 -1781.75166393365 torque 0 0 0 radius 100 invMass 9.54929658551372e-11
BaseParticle id 55 indSpecies 0 position -100.000063855848 2699.66489394786 300.000160221368 orientation 1 0 0 0 velocity -7.26993117633936e-06 0.00309131599724535 -7.53207594926172e-06 angularVelocity 0 0 0 force 1706.85943594084 222890494.224272 -5374.1775313096 torque 0 0 0 radius 100 invMass 9.54929658551372e-11
BaseParticle id 56 indSpecies 0 position 100.000063864646 2699.66489459107 -300.000160255525 orientation 1 0 0 0 velocity 7.26849552700424e-06 0.00309077301164429 7.52868221391438e-06 angularVelocity 0 0 0 force -1729.71860642272 222889017.62863 5402.99300926941 torque 0 0 0 radius 100 invMass 9.54929658551372e-11
BaseParticle id 57 indSpecies 0 position 100.000045118344 2699.64261559908 -100.000045147501 orientation 1 0 0 0 velocity 8.12029844825799e-06 0.0151472232278082 -8.14241813226212e-06 angularVelocity 0 0 0 force -1709.31612502309 360778779.345533 1754.89185562727 torque 0 0 0 radius 100 invMass 9.54929658551372e-11
BaseParticle id 58 indSpecies 0 position 100.000045118088 2699.64261565399 100.00004519356 orientation 1 0 0 0 velocity 8.12099392645171e-06 0.0151472371616066 8.14294205758246e-06 angularVelocity 0 0 0 force -1702.18595239862 360778332.656799 -1790.32011480961 torque 0 0 0 radius 100 invMass 9.54929658551372e-11
BaseParticle id 59 indSpecies 0 position 100.000063869852 2699.66489389874 300.00016021998 orientation 1 0 0 0 velocity 7.27138618323653e-06 0.0030913569582323 -7.53434246063575e-06 angularVelocity 0 0 0 force -1709.50920709078 222890424.005845 -5393.33453957935 torque 0 0 0 radius 100 invMass 9.54929658551372e-11
BaseParticle id 60 indSpecies 0 position 300.0001127878 2699.68005046209 -300.000113161152 orientation 1 0 0 0 velocity -1.01777633555317e-05 -0.00502285092337074 1.01166441217093e-05 angularVelocity 0 0 0 force -5489.95384812589 112731875.716382 5684.51959025005 torque 0 0 0 radius 100 invMass 9.54929658551372e-11
BaseParticle id 61 indSpecies 0 position 300.000159857939 2699.66489412571 -100.000063676066 orientation 1 0 0 0 velocity -7.59332952223508e-06 0.00309115875124722 -7.25468139220932e-06 angularVelocity 0 0 0 force -5224.37182511026 222889548.298507 1780.41231889785 torque 0 0 0 radius 100 invMass 9.54929658551372e-11
BaseParticle id 62 indSpecies 0 position 300.000159869236 2699.66489404111 100.000063726088 orientation 1 0 0 0 velocity -7.59052500495739e-06 0.003091243276989 7.25549439792752e-06 angularVelocity 0 0 0 force -5203.33304285769 222889855.005533 -1816.28156554909 torque 0 0 0 radius 100 invMass 9.54929658551372e-11
BaseParticle id 63 indSpecies 0 position 300.000112808075 2699.68005024973 300.000113122555 orientation 1 0 0 0 velocity -1.01707438713009e-05 -0.00502291373623318 -1.01222841545476e-05 angularVelocity 0 0 0 force -5431.03870139849 112731774.575573 -5667.41294534774 torque 0 0 0 radius 100 invMass 9.54929658551372e-11
BaseParticle id 64 indSpecies 0 position -300.000105439956 2899.69219091642 -300.00010551687 orientation 1 0 0 0 velocity 1.59233208229619e-06 -0.00874735943303143 1.57720468784465e-06 angularVelocity 0 0 0 force 17297.228550954 39478820.5413495 17392.1662075486 torque 0 0 0 radius 100 invMass 9.54929658551372e-11
BaseParticle id 65 indSpecies 0 position -300.000102653438 2899.67154095837 -100.000050911069 orientation 1 0 0 0 velocity 7.65152677720072e-07 -0.0116363505817244 -3.7321777264635e-08 angularVelocity 0 0 0 force 17056.2262822957 67913361.8755461 6024.44766633146 torque 0 0 0 radius 100 invMass 9.54929658551372e-11
BaseParticle id 66 indSpecies 0 position -300.000103125657 2899.67154125566 100.000050882751 orientation 1 0 0 0 velocity 7.1877011064003e-07 -0.0116362894776139 3.25072960913337e-08 angularVelocity 0 0 0 force 17047.1931446465 67913304.0326199 -6030.88983724112 torque 0 0 0 radius 100 invMass 9.54929658551372e-11
BaseParticle id 67 indSpecies 0 position -300.000105457604 2899.69219083066 300.000105553514 orientation 1 0 0 0 velocity 1.58820068894505e-06 -0.00874736899650523 -1.5764042942345e-06 angularVelocity 0 0 0 force 17272.1854017146 39479825.0274365 -17387.4259387691 torque 0 0 0 radius 100 invMass 9.54929658551372e-11
BaseParticle id 68 indSpecies 0 position -100.000050851954 2899.67154093782 -300.000103131795 orientation 1 0 0 0 velocity -2.78402399322634e-08 -0.0116363504597462 7.10389149457632e-07 angularVelocity 0 0 0 force 5995.42659807089 67913389.5477635 17156.4070187567 torque 0 0 0 radius 100 invMass 9.54929658551372e-11
BaseParticle id 69 indSpecies 0 position -100.00000244073 2899.65175592243 -100.000001446355 orientation 1 0 0 0 velocity -3.19508005528064e-06 -0.00745476164461313 -3.12762489109932e-06 angularVelocity 0 0 0 force 5891.4887279983 53776557.1803781 5922.07068171675 torque 0 0 0 radius 100 invMass 9.54929658551372e-11
BaseParticle id 70 indSpecies 0 position -100.000001344615 2899.65175597168 100.000001408798 orientation 1 0 0 0 velocity -3.12466875850607e-06 -0.00745477438590839 3.12200546468371e-06 angularVelocity 0 0 0 force 5888.15600172966 53775391.8951541 -5930.60052427934 torque 0 0 0 radius 100 invMass 9.54929658551372e-11
BaseParticle id 71 indSpecies 0 position -100.000050847528 2899.67154177649 300.000103177189 orientation 1 0 0 0 velocity -2.86675369930275e-08 -0.0116361870035944 -7.089012761019e-07 angularVelocity 0 0 0 force 5985.8084550322 67913233.3084731 -17151.9801411356 torque 0 0 0 radius 100 invMass 9.54929658551372e-11
BaseParticle id 72 indSpecies 0 position 100.000050878244 2899.67154110866 -300.000103125593 orientation 1 0 0 0 velocity 3.01078494573702e-08 -0.0116362893977585 7.11412622912015e-07 angularVelocity 0 0 0 force -5992.60409531344 67913361.9191417 17160.8151861117 torque 0 0 0 radius 100 invMass 9.54929658551372e-11
BaseParticle id 73 indSpecies 0 position 100.000001033509 2899.65175584417 -100.000001447773 orientation 1 0 0 0 velocity 3.0788211673279e-06 -0.00745476817373232 -3.12821387189501e-06 angularVelocity 0 0 0 force -5889.88208577609 53776936.3569647 5922.9760274424 torque 0 0 0 radius 100 invMass 9.54929658551372e-11
BaseParticle id 74 indSpecies 0 position 100.000001367708 2899.65175587614 100.000001406009 orientation 1 0 0 0 velocity 3.12648395257656e-06 -0.00745479951521076 3.12225970222412e-06 angularVelocity 0 0 0 force -5886.6097214915 53774900.5001959 -5932.72812837773 torque 0 0 0 radius 100 invMass 9.54929658551372e-11
BaseParticle id 75 indSpecies 0 position 100.00005086828 2899.67154190243 300.000103175469 orientation 1 0 0 0 velocity 3.03401267357427e-08 -0.0116361536251873 -7.09530677797564e-07 angularVelocity 0 0 0 force -5983.51773964001 67913207.7326086 -17155.0994517545 torque 0 0 0 radius 100 invMass 9.54929658551372e-11
BaseParticle id 76 indSpecies 0 position 300.000105414103 2899.69219080923 -300.000105504331 orientation 1 0 0 0 velocity -1.59702455473457e-06 -0.0087473392102772 1.57962955263658e-06 angularVelocity 0 0 0 force -17297.8525219561 39480481.577674 17403.144936622 torque 0 0 0 radius 100 invMass 9.54929658551372e-11
BaseParticle id 77 indSpecies 0 position 300.00010406357 2899.67154172432 -100.000050920347 orientation 1 0 0 0 velocity -6.5117669183592e-07 -0.0116361663429487 -3.74998886461823e-08 angularVelocity 0 0 0 force -17057.2086994784 67913288.0555082 6026.4236408913 torque 0 0 0 radius 100 invMass 9.54929658551372e-11
BaseParticle id 78 indSpecies 0 position 300.000103106107 2899.67154175724 100.000050883287 orientation 1 0 0 0 velocity -7.22816317429942e-07 -0.0116361798533727 3.20113410790289e-08 angularVelocity 0 0 0 force -17047.513756013 67913232.3180582 -6036.41558922546 torque 0 0 0 radius 100 invMass 9.54929658551372e-11
BaseParticle id 79 indSpecies 0 position 300.000105441899 2899.69219080457 300.00010554984 orientation 1 0 0 0 velocity -1.5918137030034e-06 -0.00874737309180306 -1.57802285505549e-06 angularVelocity 0 0 0 force -17270.9946408366 39480373.3375383 -17394.9991473581 torque 0 0 0 radius 100 invMass 9.54929658551372e-11
BaseParticle id 80 indSpecies 0 position -300.000060168125 3099.69085817973 -300.000060202175 orientation 1 0 0 0 velocity 3.7146953040524e-06 -0.00715624354840032 3.71531795717396e-06 angularVelocity 0 0 0 force 15153.6787308232 42817267.2159175 15208.9359415904 torque 0 0 0 radius 100 invMass 9.54929658551372e-11
BaseParticle id 81 indSpecies 0 position -300.000065503544 3099.68748182865 -100.000020813408 orientation 1 0 0 0 velocity 3.0108055944019e-06 -0.0108642571133522 1.65584427344016e-06 angularVelocity 0 0 0 force 15117.3458253024 18396108.7412897 5476.66208906824 torque 0 0 0 radius 100 invMass 9.54929658551372e-11
BaseParticle id 82 indSpecies 0 position -300.000065509181 3099.68748176382 100.000020822586 orientation 1 0 0 0 velocity 3.00988950307839e-06 -0.010864313665823 -1.65616096991048e-06 angularVelocity 0 0 0 force 15114.1172786377 18396070.5747267 -5466.59155602767 torque 0 0 0 radius 100 invMass 9.54929658551372e-11
BaseParticle id 83 indSpecies 0 position -300.000060180486 3099.69085814637 300.000060199577 orientation 1 0 0 0 velocity 3.7122593643621e-06 -0.00715626455356116 -3.71625634037088e-06 angularVelocity 0 0 0 force 15144.8430133378 42816211.5347974 -15195.6954497419 torque 0 0 0 radius 100 invMass 9.54929658551372e-11
BaseParticle id 84 indSpecies 0 position -100.000020805615 3099.68748181337 -300.000065558387 orientation 1 0 0 0 velocity 1.65617105008033e-06 -0.0108642550573489 3.00983238574509e-06 angularVelocity 0 0 0 force 5456.30805421746 18396128.113119 15172.2945896834 torque 0 0 0 radius 100 invMass 9.54929658551372e-11
BaseParticle id 85 indSpecies 0 position -100.000011057502 3099.65117078134 -100.000010988438 orientation 1 0 0 0 velocity 2.08761417402051e-06 -0.0121834502011879 2.09222917501675e-06 angularVelocity 0 0 0 force 5428.43965025409 28849308.9574893 5448.41284299186 torque 0 0 0 radius 100 invMass 9.54929658551372e-11
BaseParticle id 86 indSpecies 0 position -100.000011068364 3099.65117078068 100.000010997253 orientation 1 0 0 0 velocity 2.0866630519928e-06 -0.0121834355481228 -2.0925906904259e-06 angularVelocity 0 0 0 force 5427.11950696106 28850178.7457862 -5439.73164838659 torque 0 0 0 radius 100 invMass 9.54929658551372e-11
BaseParticle id 87 indSpecies 0 position -100.000020809984 3099.68748163909 300.000065555209 orientation 1 0 0 0 velocity 1.65514081601727e-06 -0.010864410978958 -3.01085233951969e-06 angularVelocity 0 0 0 force 5452.7821739785 18396027.1180989 -15159.9633908633 torque 0 0 0 radius 100 invMass 9.54929658551372e-11
BaseParticle id 88 indSpecies 0 position 100.000020807573 3099.68748155113 -300.000065564254 orientation 1 0 0 0 velocity -1.65553843483432e-06 -0.0108643561993513 3.00944338204209e-06 angularVelocity 0 0 0 force -5449.94158743698 18396111.9444324 15171.9372773841 torque 0 0 0 radius 100 invMass 9.54929658551372e-11
BaseParticle id 89 indSpecies 0 position 100.000011051521 3099.65117072132 -100.000010976428 orientation 1 0 0 0 velocity -2.08759927647657e-06 -0.0121834602368882 2.09301781500359e-06 angularVelocity 0 0 0 force -5422.67192147912 28848961.6090239 5448.05466197257 torque 0 0 0 radius 100 invMass 9.54929658551372e-11
BaseParticle id 90 indSpecies 0 position 100.000011073071 3099.65117066419 100.000010996908 orientation 1 0 0 0 velocity -2.08599330992341e-06 -0.0121834405272423 -2.0925895666566e-06 angularVelocity 0 0 0 force -5421.52500621812 28850544.3126272 -5439.80954297535 torque 0 0 0 radius 100 invMass 9.54929658551372e-11