<?xml version="1.0"?>
<VTKFile type="UnstructuredGrid" version="0.1" byte_order="LittleEndian" compressor="vtkZLibDataCompressor">
<UnstructuredGrid>
<Piece NumberOfPoints="960" NumberOfCells="120">
<Points>
<DataArray type="Float32" NumberOfComponents="3" format="ascii">
-4.000000e+02 -6.000000e+03 -4.000000e+02
0.000000e+00 -6.000000e+03 -4.000000e+02
-4.000000e+02 -5.600030e+03 -4.000000e+02
-6.028780e-11 -5.600030e+03 -4.000000e+02
-4.000000e+02 -6.000000e+03 0.000000e+00
0.000000e+00 -6.000000e+03 0.000000e+00
-4.000000e+02 -5.600030e+03 -1.173780e-10
-3.779180e-11 -5.600030e+03 -1.785810e-10
0.000000e+00 -6.000000e+03 -4.000000e+02
4.000000e+02 -6.000000e+03 -4.000000e+02
-6.028780e-11 -5.600030e+03 -4.000000e+02
4.000000e+02 -5.600030e+03 -4.000000e+02
0.000000e+00 -6.000000e+03 0.000000e+00
4.000000e+02 -6.000000e+03 0.000000e+00
-3.779180e-11 -5.600030e+03 -1.785810e-10
4.000000e+02 -5.600030e+03 1.310920e-10
-4.000000e+02 -5.600030e+03 -4.000000e+02
-6.028780e-11 -5.600030e+03 -4.000000e+02
-4.000000e+02 -5.200080e+03 -4.000000e+02
-8.064750e-11 -5.200080e+03 -4.000000e+02
-4.000000e+02 -5.600030e+03 -1.173780e-10
-3.779180e-11 -5.600030e+03 -1.785810e-10
-4.000000e+02 -5.200080e+03 -2.013110e-10
1.398380e-10 -5.200080e+03 -2.330250e-10
-6.028780e-11 -5.600030e+03 -4.000000e+02
4.000000e+02 -5.600030e+03 -4.000000e+02
-8.064750e-11 -5.200080e+03 -4.000000e+02
4.000000e+02 -5.200080e+03 -4.000000e+02
-3.779180e-11 -5.600030e+03 -1.785810e-10
4.000000e+02 -5.600030e+03 1.310920e-10
1.398380e-10 -5.200080e+03 -2.330250e-10
4.000000e+02 -5.200080e+03 -3.515160e-11
-4.000000e+02 -5.200080e+03 -4.000000e+02
-8.064750e-11 -5.200080e+03 -4.000000e+02
-4.000000e+02 -4.800140e+03 -4.000000e+02
4.773280e-10 -4.800140e+03 -4.000000e+02
-4.000000e+02 -5.200080e+03 -2.013110e-10
1.398380e-10 -5.200080e+03 -2.330250e-10
-4.000000e+02 -4.800140e+03 -2.619010e-10
4.383990e-10 -4.800140e+03 -6.301210e-11
-8.064750e-11 -5.200080e+03 -4.000000e+02
4.000000e+02 -5.200080e+03 -4.000000e+02
4.773280e-10 -4.800140e+03 -4.000000e+02
4.000000e+02 -4.800140e+03 -4.000000e+02
1.398380e-10 -5.200080e+03 -2.330250e-10
4.000000e+02 -5.200080e+03 -3.515160e-11
4.383990e-10 -4.800140e+03 -6.301210e-11
4.000000e+02 -4.800140e+03 -7.556080e-10
-4.000000e+02 -4.800140e+03 -4.000000e+02
4.773280e-10 -4.800140e+03 -4.000000e+02
-4.000000e+02 -4.400190e+03 -4.000000e+02
5.540760e-10 -4.400190e+03 -4.000000e+02
-4.000000e+02 -4.800140e+03 -2.619010e-10
4.383990e-10 -4.800140e+03 -6.301210e-11
-4.000000e+02 -4.400190e+03 -1.186420e-10
5.685920e-10 -4.400190e+03 -6.065400e-10
4.773280e-10 -4.800140e+03 -4.000000e+02
4.000000e+02 -4.800140e+03 -4.000000e+02
5.540760e-10 -4.400190e+03 -4.000000e+02
4.000000e+02 -4.400190e+03 -4.000000e+02
4.383990e-10 -4.800140e+03 -6.301210e-11
4.000000e+02 -4.800140e+03 -7.556080e-10
5.685920e-10 -4.400190e+03 -6.065400e-10
4.000000e+02 -4.400190e+03 -5.223040e-10
-4.000000e+02 -4.400190e+03 -4.000000e+02
5.540760e-10 -4.400190e+03 -4.000000e+02
-4.000000e+02 -4.000220e+03 -4.000000e+02
5.172820e-10 -4.000220e+03 -4.000000e+02
-4.000000e+02 -4.400190e+03 -1.186420e-10
5.685920e-10 -4.400190e+03 -6.065400e-10
-4.000000e+02 -4.000220e+03 -4.211050e-10
7.442280e-10 -4.000220e+03 -8.529200e-10
5.540760e-10 -4.400190e+03 -4.000000e+02
4.000000e+02 -4.400190e+03 -4.000000e+02
5.172820e-10 -4.000220e+03 -4.000000e+02
4.000000e+02 -4.000220e+03 -4.000000e+02
5.685920e-10 -4.400190e+03 -6.065400e-10
4.000000e+02 -4.400190e+03 -5.223040e-10
7.442280e-10 -4.000220e+03 -8.529200e-10
4.000000e+02 -4.000220e+03 -7.905230e-10
-4.000000e+02 -4.000220e+03 -4.000000e+02
5.172820e-10 -4.000220e+03 -4.000000e+02
-4.000000e+02 -3.600240e+03 -4.000000e+02
4.072030e-10 -3.600240e+03 -4.000000e+02
-4.000000e+02 -4.000220e+03 -4.211050e-10
7.442280e-10 -4.000220e+03 -8.529200e-10
-4.000000e+02 -3.600240e+03 -7.538210e-10
4.740430e-10 -3.600240e+03 -7.696700e-10
5.172820e-10 -4.000220e+03 -4.000000e+02
4.000000e+02 -4.000220e+03 -4.000000e+02
4.072030e-10 -3.600240e+03 -4.000000e+02
4.000000e+02 -3.600240e+03 -4.000000e+02
7.442280e-10 -4.000220e+03 -8.529200e-10
4.000000e+02 -4.000220e+03 -7.905230e-10
4.740430e-10 -3.600240e+03 -7.696700e-10
4.000000e+02 -3.600240e+03 -9.560250e-10
-4.000000e+02 -3.600240e+03 -4.000000e+02
4.072030e-10 -3.600240e+03 -4.000000e+02
-4.000000e+02 -3.200240e+03 -4.000000e+02
7.834590e-11 -3.200240e+03 -4.000000e+02
-4.000000e+02 -3.600240e+03 -7.538210e-10
4.740430e-10 -3.600240e+03 -7.696700e-10
-4.000000e+02 -3.200240e+03 -4.033740e-10
2.632800e-10 -3.200240e+03 -6.356420e-10
4.072030e-10 -3.600240e+03 -4.000000e+02
4.000000e+02 -3.600240e+03 -4.000000e+02
7.834590e-11 -3.200240e+03 -4.000000e+02
4.000000e+02 -3.200240e+03 -4.000000e+02
4.740430e-10 -3.600240e+03 -7.696700e-10
4.000000e+02 -3.600240e+03 -9.560250e-10
2.632800e-10 -3.200240e+03 -6.356420e-10
4.000000e+02 -3.200240e+03 -8.018990e-10
-4.000000e+02 -3.200240e+03 -4.000000e+02
7.834590e-11 -3.200240e+03 -4.000000e+02
-4.000000e+02 -2.800240e+03 -4.000000e+02
5.139360e-11 -2.800240e+03 -4.000000e+02
-4.000000e+02 -3.200240e+03 -4.033740e-10
2.632800e-10 -3.200240e+03 -6.356420e-10
-4.000000e+02 -2.800240e+03 -4.697930e-10
9.798940e-11 -2.800240e+03 -6.703150e-10
7.834590e-11 -3.200240e+03 -4.000000e+02
4.000000e+02 -3.200240e+03 -4.000000e+02
5.139360e-11 -2.800240e+03 -4.000000e+02
4.000000e+02 -2.800240e+03 -4.000000e+02
2.632800e-10 -3.200240e+03 -6.356420e-10
4.000000e+02 -3.200240e+03 -8.018990e-10
9.798940e-11 -2.800240e+03 -6.703150e-10
4.000000e+02 -2.800240e+03 -6.032100e-10
-4.000000e+02 -2.800240e+03 -4.000000e+02
5.139360e-11 -2.800240e+03 -4.000000e+02
-4.000000e+02 -2.400250e+03 -4.000000e+02
2.305490e-10 -2.400250e+03 -4.000000e+02
-4.000000e+02 -2.800240e+03 -4.697930e-10
9.798940e-11 -2.800240e+03 -6.703150e-10
-4.000000e+02 -2.400250e+03 -8.527780e-10
3.897990e-11 -2.400250e+03 -9.224940e-10
5.139360e-11 -2.800240e+03 -4.000000e+02
4.000000e+02 -2.800240e+03 -4.000000e+02
2.305490e-10 -2.400250e+03 -4.000000e+02
4.000000e+02 -2.400250e+03 -4.000000e+02
9.798940e-11 -2.800240e+03 -6.703150e-10
4.000000e+02 -2.800240e+03 -6.032100e-10
3.897990e-11 -2.400250e+03 -9.224940e-10
4.000000e+02 -2.400250e+03 -1.206080e-09
-4.000000e+02 -2.400250e+03 -4.000000e+02
2.305490e-10 -2.400250e+03 -4.000000e+02
-4.000000e+02 -2.000250e+03 -4.000000e+02
1.289170e-10 -2.000250e+03 -4.000000e+02
-4.000000e+02 -2.400250e+03 -8.527780e-10
3.897990e-11 -2.400250e+03 -9.224940e-10
-4.000000e+02 -2.000250e+03 -9.273630e-10
-9.603300e-11 -2.000250e+03 -1.137990e-09
2.305490e-10 -2.400250e+03 -4.000000e+02
4.000000e+02 -2.400250e+03 -4.000000e+02
1.289170e-10 -2.000250e+03 -4.000000e+02
4.000000e+02 -2.000250e+03 -4.000000e+02
3.897990e-11 -2.400250e+03 -9.224940e-10
4.000000e+02 -2.400250e+03 -1.206080e-09
-9.603300e-11 -2.000250e+03 -1.137990e-09
4.000000e+02 -2.000250e+03 -1.102660e-09
-4.000000e+02 -2.000250e+03 -4.000000e+02
1.289170e-10 -2.000250e+03 -4.000000e+02
-4.000000e+02 -1.600250e+03 -4.000000e+02
4.226300e-11 -1.600250e+03 -4.000000e+02
-4.000000e+02 -2.000250e+03 -9.273630e-10
-9.603300e-11 -2.000250e+03 -1.137990e-09
-4.000000e+02 -1.600250e+03 -7.799170e-10
2.226860e-11 -1.600250e+03 -7.384000e-10
1.289170e-10 -2.000250e+03 -4.000000e+02
4.000000e+02 -2.000250e+03 -4.000000e+02
4.226300e-11 -1.600250e+03 -4.000000e+02
4.000000e+02 -1.600250e+03 -4.000000e+02
-9.603300e-11 -2.000250e+03 -1.137990e-09
4.000000e+02 -2.000250e+03 -1.102660e-09
2.226860e-11 -1.600250e+03 -7.384000e-10
4.000000e+02 -1.600250e+03 -8.637490e-10
-4.000000e+02 -1.600250e+03 -4.000000e+02
4.226300e-11 -1.600250e+03 -4.000000e+02
-4.000000e+02 -1.200250e+03 -4.000000e+02
9.240770e-11 -1.200250e+03 -4.000000e+02
-4.000000e+02 -1.600250e+03 -7.799170e-10
2.226860e-11 -1.600250e+03 -7.384000e-10
-4.000000e+02 -1.200250e+03 -3.841920e-10
8.332690e-11 -1.200250e+03 -5.599660e-10
4.226300e-11 -1.600250e+03 -4.000000e+02
4.000000e+02 -1.600250e+03 -4.000000e+02
9.240770e-11 -1.200250e+03 -4.000000e+02
4.000000e+02 -1.200250e+03 -4.000000e+02
2.226860e-11 -1.600250e+03 -7.384000e-10
4.000000e+02 -1.600250e+03 -8.637490e-10
8.332690e-11 -1.200250e+03 -5.599660e-10
4.000000e+02 -1.200250e+03 -7.622960e-10
-4.000000e+02 -1.200250e+03 -4.000000e+02
9.240770e-11 -1.200250e+03 -4.000000e+02
-4.000000e+02 -8.002490e+02 -4.000000e+02
-6.898710e-11 -8.002490e+02 -4.000000e+02
-4.000000e+02 -1.200250e+03 -3.841920e-10
8.332690e-11 -1.200250e+03 -5.599660e-10
-4.000000e+02 -8.002490e+02 -3.546320e-10
9.144830e-11 -8.002490e+02 -4.831180e-10
9.240770e-11 -1.200250e+03 -4.000000e+02
4.000000e+02 -1.200250e+03 -4.000000e+02
-6.898710e-11 -8.002490e+02 -4.000000e+02
4.000000e+02 -8.002490e+02 -4.000000e+02
8.332690e-11 -1.200250e+03 -5.599660e-10
4.000000e+02 -1.200250e+03 -7.622960e-10
9.144830e-11 -8.002490e+02 -4.831180e-10
4.000000e+02 -8.002490e+02 -4.154670e-10
-4.000000e+02 -8.002490e+02 -4.000000e+02
-6.898710e-11 -8.002490e+02 -4.000000e+02
-4.000000e+02 -4.002500e+02 -4.000000e+02
-9.975960e-11 -4.002500e+02 -4.000000e+02
-4.000000e+02 -8.002490e+02 -3.546320e-10
9.144830e-11 -8.002490e+02 -4.831180e-10
-4.000000e+02 -4.002500e+02 -2.352740e-10
-8.994360e-11 -4.002500e+02 -3.491640e-10
-6.898710e-11 -8.002490e+02 -4.000000e+02
4.000000e+02 -8.002490e+02 -4.000000e+02
-9.975960e-11 -4.002500e+02 -4.000000e+02
4.000000e+02 -4.002500e+02 -4.000000e+02
9.144830e-11 -8.002490e+02 -4.831180e-10
4.000000e+02 -8.002490e+02 -4.154670e-10
-8.994360e-11 -4.002500e+02 -3.491640e-10
4.000000e+02 -4.002500e+02 -4.425120e-10
-4.000000e+02 -4.002500e+02 -4.000000e+02
-9.975960e-11 -4.002500e+02 -4.000000e+02
-4.000000e+02 -2.515060e-01 -4.000000e+02
-2.733650e-10 -2.515070e-01 -4.000000e+02
-4.000000e+02 -4.002500e+02 -2.352740e-10
-8.994360e-11 -4.002500e+02 -3.491640e-10
-4.000000e+02 -2.515070e-01 -2.118060e-10
-4.614580e-10 -2.515080e-01 -3.613990e-10
-9.975960e-11 -4.002500e+02 -4.000000e+02
4.000000e+02 -4.002500e+02 -4.000000e+02
-2.733650e-10 -2.515070e-01 -4.000000e+02
[...]
<PointData>
<DataArray type="Float32" Name="V1" format="ascii">
0.000000e+00
0.000000e+00
3.067940e-07
2.988450e-10
0.000000e+00
0.000000e+00
2.991890e-07
2.491490e-10
0.000000e+00
0.000000e+00
2.988450e-10
-3.060710e-07
0.000000e+00
0.000000e+00
2.491490e-10
-2.989460e-07
3.067940e-07
2.988450e-10
7.152780e-07
-1.656440e-11
2.991890e-07
2.491490e-10
7.227960e-07
6.369590e-11
2.988450e-10
-3.060710e-07
-1.656440e-11
-7.156710e-07
2.491490e-10
-2.989460e-07
6.369590e-11
-7.227810e-07
7.152780e-07
-1.656440e-11
-2.416690e-06
-3.851890e-10
7.227960e-07
6.369590e-11
-2.418650e-06
1.321150e-10
-1.656440e-11
-7.156710e-07
-3.851890e-10
2.415850e-06
6.369590e-11
-7.227810e-07
1.321150e-10
2.418770e-06
-2.416690e-06
-3.851890e-10
2.966360e-06
1.801180e-10
-2.418650e-06
1.321150e-10
2.959540e-06
-2.807820e-10
-3.851890e-10
2.415850e-06
1.801180e-10
-2.965940e-06
1.321150e-10
2.418770e-06
-2.807820e-10
-2.960040e-06
2.966360e-06
1.801180e-10
-4.694920e-07
-1.656740e-11
2.959540e-06
-2.807820e-10
-4.483520e-07
-7.416180e-11
1.801180e-10
-2.965940e-06
-1.656740e-11
4.697350e-07
-2.807820e-10
-2.960040e-06
-7.416180e-11
4.481090e-07
-4.694920e-07
-1.656740e-11
-4.265650e-06
-1.074960e-10
-4.483520e-07
-7.416180e-11
-4.304730e-06
1.195860e-10
-1.656740e-11
4.697350e-07
-1.074960e-10
4.265480e-06
-7.416180e-11
4.481090e-07
1.195860e-10
4.304930e-06
-4.265650e-06
-1.074960e-10
6.084870e-06
4.652350e-10
-4.304730e-06
1.195860e-10
6.136970e-06
-7.824680e-11
-1.074960e-10
4.265480e-06
4.652350e-10
-6.083780e-06
1.195860e-10
4.304930e-06
-7.824680e-11
-6.137110e-06
6.084870e-06
4.652350e-10
-7.041940e-07
3.113450e-10
6.136970e-06
-7.824680e-11
-7.551380e-07
1.495540e-10
4.652350e-10
-6.083780e-06
3.113450e-10
7.044060e-07
-7.824680e-11
-6.137110e-06
1.495540e-10
7.550990e-07
-7.041940e-07
3.113450e-10
-6.104610e-06
-1.330700e-10
-7.551380e-07
1.495540e-10
-6.065960e-06
2.032230e-10
3.113450e-10
7.044060e-07
-1.330700e-10
6.104610e-06
1.495540e-10
7.550990e-07
2.032230e-10
6.066420e-06
-6.104610e-06
-1.330700e-10
3.763200e-06
1.687640e-10
-6.065960e-06
2.032230e-10
3.729430e-06
1.942110e-10
-1.330700e-10
6.104610e-06
1.687640e-10
-3.762830e-06
2.032230e-10
6.066420e-06
1.942110e-10
-3.729360e-06
3.763200e-06
1.687640e-10
4.002090e-06
5.663980e-11
3.729430e-06
1.942110e-10
4.004040e-06
-1.885960e-10
1.687640e-10
-3.762830e-06
5.663980e-11
-4.002470e-06
1.942110e-10
-3.729360e-06
-1.885960e-10
-4.004620e-06
4.002090e-06
5.663980e-11
-4.274260e-06
-8.570650e-13
4.004040e-06
-1.885960e-10
-4.136610e-06
-5.832680e-11
5.663980e-11
-4.002470e-06
-8.570650e-13
4.274010e-06
-1.885960e-10
-4.004620e-06
-5.832680e-11
4.136470e-06
-4.274260e-06
-8.570650e-13
-2.610220e-06
-1.983600e-11
-4.136610e-06
-5.832680e-11
-2.868330e-06
-6.301080e-11
-8.570650e-13
4.274010e-06
-1.983600e-11
2.610280e-06
-5.832680e-11
4.136470e-06
-6.301080e-11
2.868000e-06
-2.610220e-06
-1.983600e-11
3.678880e-06
6.522090e-12
-2.868330e-06
-6.301080e-11
3.753870e-06
6.658130e-11
-1.983600e-11
2.610280e-06
6.522090e-12
-3.679440e-06
-6.301080e-11
2.868000e-06
6.658130e-11
-3.753470e-06
3.678880e-06
6.522090e-12
3.281450e-06
-2.710820e-11
3.753870e-06
6.658130e-11
3.426100e-06
1.122920e-10
6.522090e-12
-3.679440e-06
-2.710820e-11
-3.281430e-06
6.658130e-11
-3.753470e-06
1.122920e-10
-3.425980e-06
3.281450e-06
-2.710820e-11
-1.030380e-06
-1.000980e-10
3.426100e-06
1.122920e-10
-1.037020e-06
1.506290e-11
-2.710820e-11
-3.281430e-06
-1.000980e-10
1.030380e-06
1.122920e-10
-3.425980e-06
1.506290e-11
1.036680e-06
-1.030380e-06
-1.000980e-10
-3.643790e-06
5.636200e-11
-1.037020e-06
1.506290e-11
-3.636640e-06
-9.220590e-11
-1.000980e-10
1.030380e-06
5.636200e-11
3.644150e-06
1.506290e-11
1.036680e-06
-9.220590e-11
3.636460e-06
-3.643790e-06
5.636200e-11
-1.653520e-06
1.055610e-10
-3.636640e-06
-9.220590e-11
-1.592370e-06
-1.970740e-10
5.636200e-11
3.644150e-06
1.055610e-10
1.653740e-06
-9.220590e-11
3.636460e-06
-1.970740e-10
1.592210e-06
-1.653520e-06
1.055610e-10
9.829280e-07
6.735890e-11
-1.592370e-06
-1.970740e-10
9.373960e-07
-7.315640e-11
1.055610e-10
1.653740e-06
6.735890e-11
-9.830610e-07
-1.970740e-10
1.592210e-06
-7.315640e-11
-9.374120e-07
9.829280e-07
6.735890e-11
4.399070e-07
-1.482950e-11
9.373960e-07
-7.315640e-11
4.668990e-07
-3.611180e-11
6.735890e-11
-9.830610e-07
-1.482950e-11
-4.398920e-07
-7.315640e-11
-9.374120e-07
-3.611180e-11
-4.669620e-07
4.399070e-07
-1.482950e-11
-3.439670e-07
-4.592220e-11
4.668990e-07
-3.611180e-11
-3.429610e-07
-3.261850e-11
-1.482950e-11
-4.398920e-07
-4.592220e-11
3.438720e-07
-3.611180e-11
-4.669620e-07
-3.261850e-11
3.429140e-07
-3.439670e-07
-4.592220e-11
-7.591840e-07
-1.690710e-11
-3.429610e-07
-3.261850e-11
-8.222410e-07
-1.916600e-11
-4.592220e-11
3.438720e-07
-1.690710e-11
7.591360e-07
-3.261850e-11
3.429140e-07
-1.916600e-11
8.222010e-07
-7.591840e-07
-1.690710e-11
-7.495130e-07
2.975600e-11
-8.222410e-07
-1.916600e-11
-6.727090e-07
4.666900e-12
-1.690710e-11
7.591360e-07
2.975600e-11
7.495530e-07
-1.916600e-11
8.222010e-07
4.666900e-12
6.726930e-07
-7.495130e-07
2.975600e-11
-2.133750e-07
7.306330e-12
-6.727090e-07
4.666900e-12
-1.610090e-07
3.752220e-12
2.975600e-11
7.495530e-07
7.306330e-12
2.133430e-07
4.666900e-12
6.726930e-07
3.752220e-12
1.609850e-07
-2.133750e-07
7.306330e-12
3.880290e-07
-2.453240e-11
-1.610090e-07
3.752220e-12
3.229450e-07
-2.162810e-11
7.306330e-12
2.133430e-07
-2.453240e-11
-3.880920e-07
3.752220e-12
1.609850e-07
-2.162810e-11
-3.229920e-07
3.880290e-07
-2.453240e-11
1.590540e-06
-4.146590e-11
3.229450e-07
-2.162810e-11
1.579960e-06
-3.072460e-11
-2.453240e-11
-3.880920e-07
-4.146590e-11
-1.590620e-06
-2.162810e-11
-3.229920e-07
-3.072460e-11
-1.580020e-06
1.590540e-06
-4.146590e-11
5.274580e-07
-1.424110e-11
1.579960e-06
-3.072460e-11
4.860670e-07
-6.536860e-12
-4.146590e-11
-1.590620e-06
-1.424110e-11
-5.275130e-07
-3.072460e-11
-1.580020e-06
-6.536860e-12
-4.860750e-07
5.274580e-07
-1.424110e-11
-1.324450e-06
-2.457540e-12
4.860670e-07
-6.536860e-12
-1.299660e-06
6.689830e-13
-1.424110e-11
-5.275130e-07
-2.457540e-12
1.324450e-06
-6.536860e-12
-4.860750e-07
6.689830e-13
1.299670e-06
-1.324450e-06
-2.457540e-12
-2.248590e-07
-8.214210e-12
-1.299660e-06
6.689830e-13
-2.287170e-07
-8.569230e-12
-2.457540e-12
1.324450e-06
-8.214210e-12
2.248520e-07
6.689830e-13
1.299670e-06
-8.569230e-12
2.287010e-07
-2.248590e-07
-8.214210e-12
5.508920e-07
1.364340e-11
-2.287170e-07
-8.569230e-12
6.195340e-07
1.160620e-11
-8.214210e-12
2.248520e-07
1.364340e-11
-5.508600e-07
-8.569230e-12
2.287010e-07
1.160620e-11
-6.195340e-07
0.000000e+00
0.000000e+00
2.991890e-07
2.491490e-10
0.000000e+00
0.000000e+00
3.068960e-07
1.420940e-10
0.000000e+00
0.000000e+00
2.491490e-10
-2.989460e-07
0.000000e+00
0.000000e+00
1.420940e-10
-3.068720e-07
2.991890e-07
2.491490e-10
7.227960e-07
6.369590e-11
3.068960e-07
1.420940e-10
7.153410e-07
3.803920e-10
2.491490e-10
-2.989460e-07
6.369590e-11
-7.227810e-07
1.420940e-10
-3.068720e-07
3.803920e-10
-7.150190e-07
7.227960e-07
6.369590e-11
-2.418650e-06
1.321150e-10
7.153410e-07
3.803920e-10
-2.416080e-06
-3.637230e-10
6.369590e-11
-7.227810e-07
1.321150e-10
2.418770e-06
3.803920e-10
-7.150190e-07
-3.637230e-10
2.415100e-06
-2.418650e-06
1.321150e-10
2.959540e-06
-2.807820e-10
-2.416080e-06
-3.637230e-10
2.966410e-06
-3.566220e-10
1.321150e-10
2.418770e-06
-2.807820e-10
-2.960040e-06
-3.637230e-10
2.415100e-06
-3.566220e-10
-2.966760e-06
2.959540e-06
-2.807820e-10
-4.483520e-07
-7.416180e-11
2.966410e-06
-3.566220e-10
-4.702060e-07
-2.183720e-10
-2.807820e-10
-2.960040e-06
-7.416180e-11
4.481090e-07
-3.566220e-10
-2.966760e-06
-2.183720e-10
4.697430e-07
-4.483520e-07
-7.416180e-11
-4.304730e-06
1.195860e-10
-4.702060e-07
-2.183720e-10
-4.264990e-06
2.535590e-10
-7.416180e-11
4.481090e-07
1.195860e-10
4.304930e-06
-2.183720e-10
4.697430e-07
2.535590e-10
4.265250e-06
-4.304730e-06
1.195860e-10
6.136970e-06
-7.824680e-11
-4.264990e-06
2.535590e-10
6.084920e-06
7.104500e-11
1.195860e-10
4.304930e-06
-7.824680e-11
-6.137110e-06
2.535590e-10
4.265250e-06
7.104500e-11
-6.085020e-06
6.136970e-06
-7.824680e-11
-7.551380e-07
1.495540e-10
6.084920e-06
7.104500e-11
-7.049250e-07
-1.625000e-10
-7.824680e-11
-6.137110e-06
1.495540e-10
7.550990e-07
7.104500e-11
-6.085020e-06
-1.625000e-10
7.043670e-07
-7.551380e-07
1.495540e-10
-6.065960e-06
2.032230e-10
-7.049250e-07
-1.625000e-10
-6.104840e-06
-9.052970e-11
1.495540e-10
7.550990e-07
2.032230e-10
6.066420e-06
-1.625000e-10
7.043670e-07
-9.052970e-11
6.104590e-06
-6.065960e-06
2.032230e-10
3.729430e-06
1.942110e-10
-6.104840e-06
-9.052970e-11
3.762920e-06
-2.688120e-10
2.032230e-10
6.066420e-06
1.942110e-10
-3.729360e-06
-9.052970e-11
6.104590e-06
-2.688120e-10
-3.763560e-06
3.729430e-06
1.942110e-10
4.004040e-06
-1.885960e-10
3.762920e-06
-2.688120e-10
4.001660e-06
1.079980e-10
1.942110e-10
-3.729360e-06
-1.885960e-10
-4.004620e-06
-2.688120e-10
-3.763560e-06
1.079980e-10
-4.001740e-06
4.004040e-06
-1.885960e-10
-4.136610e-06
-5.832680e-11
4.001660e-06
1.079980e-10
-4.273960e-06
-1.647810e-10
-1.885960e-10
-4.004620e-06
-5.832680e-11
4.136470e-06
1.079980e-10
-4.001740e-06
-1.647810e-10
4.273720e-06
-4.136610e-06
-5.832680e-11
-2.868330e-06
-6.301080e-11
-4.273960e-06
-1.647810e-10
-2.610530e-06
1.449690e-10
-5.832680e-11
4.136470e-06
-6.301080e-11
2.868000e-06
-1.647810e-10
4.273720e-06
1.449690e-10
2.610470e-06
-2.868330e-06
-6.301080e-11
3.753870e-06
6.658130e-11
-2.610530e-06
1.449690e-10
3.679320e-06
3.024350e-10
-6.301080e-11
2.868000e-06
6.658130e-11
-3.753470e-06
1.449690e-10
2.610470e-06
3.024350e-10
-3.678890e-06
3.753870e-06
6.658130e-11
3.426100e-06
1.122920e-10
3.679320e-06
3.024350e-10
3.281700e-06
1.114810e-10
6.658130e-11
-3.753470e-06
1.122920e-10
-3.425980e-06
3.024350e-10
-3.678890e-06
1.114810e-10
-3.281580e-06
3.426100e-06
1.122920e-10
-1.037020e-06
1.506290e-11
3.281700e-06
1.114810e-10
-1.030290e-06
-7.333940e-12
1.122920e-10
-3.425980e-06
1.506290e-11
1.036680e-06
1.114810e-10
-3.281580e-06
-7.333940e-12
1.030190e-06
-1.037020e-06
1.506290e-11
-3.636640e-06
-9.220590e-11
-1.030290e-06
-7.333940e-12
-3.643670e-06
1.644810e-10
1.506290e-11
1.036680e-06
-9.220590e-11
3.636460e-06
-7.333940e-12
1.030190e-06
1.644810e-10
3.644140e-06
-3.636640e-06
-9.220590e-11
-1.592370e-06
-1.970740e-10
-3.643670e-06
1.644810e-10
-1.653520e-06
3.970330e-11
-9.220590e-11
3.636460e-06
-1.970740e-10
1.592210e-06
1.644810e-10
3.644140e-06
3.970330e-11
1.653340e-06
-1.592370e-06
-1.970740e-10
9.373960e-07
-7.315640e-11
-1.653520e-06
3.970330e-11
9.828800e-07
-1.287170e-10
-1.970740e-10
1.592210e-06
-7.315640e-11
-9.374120e-07
3.970330e-11
1.653340e-06
-1.287170e-10
-9.832340e-07
9.373960e-07
-7.315640e-11
4.668990e-07
-3.611180e-11
9.828800e-07
-1.287170e-10
4.398520e-07
-2.770880e-11
-7.315640e-11
-9.374120e-07
-3.611180e-11
-4.669620e-07
-1.287170e-10
-9.832340e-07
-2.770880e-11
-4.397890e-07
4.668990e-07
-3.611180e-11
-3.429610e-07
-3.261850e-11
4.398520e-07
-2.770880e-11
-3.439740e-07
-9.544150e-12
-3.611180e-11
-4.669620e-07
-3.261850e-11
3.429140e-07
-2.770880e-11
-4.397890e-07
-9.544150e-12
3.439670e-07
-3.429610e-07
-3.261850e-11
-8.222410e-07
-1.916600e-11
-3.439740e-07
-9.544150e-12
-7.590810e-07
-7.179870e-12
-3.261850e-11
3.429140e-07
-1.916600e-11
8.222010e-07
-9.544150e-12
3.439670e-07
-7.179870e-12
7.590340e-07
-8.222410e-07
-1.916600e-11
-6.727090e-07
4.666900e-12
-7.590810e-07
-7.179870e-12
-7.495920e-07
-1.926490e-11
-1.916600e-11
8.222010e-07
4.666900e-12
6.726930e-07
-7.179870e-12
7.590340e-07
-1.926490e-11
7.495370e-07
-6.727090e-07
4.666900e-12
-1.610090e-07
3.752220e-12
-7.495920e-07
-1.926490e-11
-2.134220e-07
1.914710e-12
4.666900e-12
6.726930e-07
3.752220e-12
1.609850e-07
-1.926490e-11
7.495370e-07
1.914710e-12
2.134300e-07
-1.610090e-07
3.752220e-12
3.229450e-07
-2.162810e-11
-2.134220e-07
1.914710e-12
3.880760e-07
-1.025660e-11
3.752220e-12
1.609850e-07
-2.162810e-11
-3.229920e-07
1.914710e-12
2.134300e-07
-1.025660e-11
-3.880920e-07
3.229450e-07
-2.162810e-11
1.579960e-06
-3.072460e-11
3.880760e-07
-1.025660e-11
1.590570e-06
-2.756090e-11
-2.162810e-11
-3.229920e-07
-3.072460e-11
-1.580020e-06
-1.025660e-11
-3.880920e-07
-2.756090e-11
-1.590640e-06
1.579960e-06
-3.072460e-11
4.860670e-07
-6.536860e-12
1.590570e-06
-2.756090e-11
5.275210e-07
-9.065450e-12
-3.072460e-11
-1.580020e-06
-6.536860e-12
-4.860750e-07
-2.756090e-11
-1.590640e-06
-9.065450e-12
-5.275210e-07
4.860670e-07
-6.536860e-12
-1.299660e-06
6.689830e-13
5.275210e-07
-9.065450e-12
-1.324450e-06
8.640340e-12
-6.536860e-12
-4.860750e-07
6.689830e-13
1.299670e-06
-9.065450e-12
-5.275210e-07
8.640340e-12
1.324490e-06
-1.299660e-06
6.689830e-13
-2.287170e-07
-8.569230e-12
-1.324450e-06
8.640340e-12
-2.248520e-07
-4.655360e-12
6.689830e-13
1.299670e-06
-8.569230e-12
2.287010e-07
8.640340e-12
1.324490e-06
-4.655360e-12
2.248440e-07
-2.287170e-07
-8.569230e-12
6.195340e-07
1.160620e-11
-2.248520e-07
-4.655360e-12
5.508920e-07
1.579230e-11
-8.569230e-12
2.287010e-07
1.160620e-11
-6.195340e-07
-4.655360e-12
2.248440e-07
1.579230e-11
-5.508680e-07
</DataArray>
<DataArray type="Float32" Name="V2" format="ascii">
0.000000e+00
0.000000e+00
-4.259200e-02
-4.259270e-02
0.000000e+00
0.000000e+00
-4.259270e-02
-4.259340e-02
0.000000e+00
0.000000e+00
-4.259270e-02
-4.259200e-02
0.000000e+00
0.000000e+00
-4.259340e-02
-4.259270e-02
-4.259200e-02
-4.259270e-02
-5.194310e-02
-5.194240e-02
-4.259270e-02
-4.259340e-02
-5.194240e-02
-5.194170e-02
-4.259270e-02
-4.259200e-02
-5.194240e-02
-5.194310e-02
-4.259340e-02
-4.259270e-02
-5.194170e-02
-5.194240e-02
-5.194310e-02
-5.194240e-02
-3.902800e-02
-3.902830e-02
-5.194240e-02
-5.194170e-02
-3.902830e-02
-3.902870e-02
-5.194240e-02
-5.194310e-02
-3.902830e-02
-3.902800e-02
-5.194170e-02
-5.194240e-02
-3.902870e-02
-3.902830e-02
-3.902800e-02
-3.902830e-02
-2.557400e-02
-2.557500e-02
-3.902830e-02
-3.902870e-02
-2.557500e-02
-2.557600e-02
-3.902830e-02
-3.902800e-02
-2.557500e-02
-2.557400e-02
-3.902870e-02
-3.902830e-02
-2.557600e-02
-2.557500e-02
-2.557400e-02
-2.557500e-02
-1.521180e-02
-1.521040e-02
-2.557500e-02
-2.557600e-02
-1.521040e-02
-1.520900e-02
-2.557500e-02
-2.557400e-02
-1.521040e-02
-1.521180e-02
-2.557600e-02
-2.557500e-02
-1.520900e-02
-1.521040e-02
-1.521180e-02
-1.521040e-02
-6.412210e-03
-6.412190e-03
-1.521040e-02
-1.520900e-02
-6.412190e-03
-6.412220e-03
-1.521040e-02
-1.521180e-02
-6.412190e-03
-6.412210e-03
-1.520900e-02
-1.521040e-02
-6.412220e-03
-6.412190e-03
-6.412210e-03
-6.412190e-03
-2.031440e-03
-2.031600e-03
-6.412190e-03
-6.412220e-03
-2.031600e-03
-2.031730e-03
-6.412190e-03
-6.412210e-03
-2.031600e-03
-2.031440e-03
-6.412220e-03
-6.412190e-03
-2.031730e-03
-2.031600e-03
-2.031440e-03
-2.031600e-03
-1.079000e-03
-1.080440e-03
-2.031600e-03
-2.031730e-03
-1.080440e-03
-1.081850e-03
-2.031600e-03
-2.031440e-03
-1.080440e-03
-1.079000e-03
-2.031730e-03
-2.031600e-03
-1.081850e-03
-1.080440e-03
-1.079000e-03
-1.080440e-03
-9.288840e-04
-9.293970e-04
-1.080440e-03
-1.081850e-03
-9.293970e-04
-9.300550e-04
-1.080440e-03
-1.079000e-03
-9.293970e-04
-9.288830e-04
-1.081850e-03
-1.080440e-03
-9.300550e-04
-9.293970e-04
-9.288840e-04
-9.293970e-04
-6.934630e-04
-6.916910e-04
-9.293970e-04
-9.300550e-04
-6.916900e-04
-6.897050e-04
-9.293970e-04
-9.288830e-04
-6.916910e-04
-6.934620e-04
-9.300550e-04
-9.293970e-04
-6.897050e-04
-6.916910e-04
-6.934630e-04
-6.916910e-04
-4.972830e-04
-4.950820e-04
-6.916900e-04
-6.897050e-04
-4.950830e-04
-4.929350e-04
-6.916910e-04
-6.934620e-04
-4.950820e-04
-4.972850e-04
-6.897050e-04
-6.916910e-04
-4.929350e-04
-4.950830e-04
-4.972830e-04
-4.950820e-04
-6.520510e-04
-6.497140e-04
-4.950830e-04
-4.929350e-04
-6.497140e-04
-6.475620e-04
-4.950820e-04
-4.972850e-04
-6.497140e-04
-6.520510e-04
-4.929350e-04
-4.950830e-04
-6.475620e-04
-6.497140e-04
-6.520510e-04
-6.497140e-04
-7.210040e-04
-7.247260e-04
-6.497140e-04
-6.475620e-04
-7.247270e-04
-7.284330e-04
-6.497140e-04
-6.520510e-04
-7.247260e-04
-7.210040e-04
-6.475620e-04
-6.497140e-04
-7.284330e-04
-7.247260e-04
-7.210040e-04
-7.247260e-04
-8.240760e-04
-8.270190e-04
-7.247270e-04
-7.284330e-04
-8.270200e-04
-8.297160e-04
-7.247260e-04
-7.210040e-04
-8.270190e-04
-8.240750e-04
-7.284330e-04
-7.247260e-04
-8.297160e-04
-8.270200e-04
-8.240760e-04
-8.270190e-04
-6.587240e-04
-6.568730e-04
-8.270200e-04
-8.297160e-04
-6.568720e-04
-6.549740e-04
-8.270190e-04
-8.240750e-04
-6.568730e-04
-6.587240e-04
-8.297160e-04
-8.270200e-04
-6.549740e-04
-6.568720e-04
-6.587240e-04
-6.568730e-04
-5.674080e-04
-5.673390e-04
-6.568720e-04
-6.549740e-04
-5.673390e-04
-5.672820e-04
-6.568730e-04
-6.587240e-04
-5.673390e-04
-5.674070e-04
-6.549740e-04
-6.568720e-04
-5.672820e-04
-5.673400e-04
-5.674080e-04
-5.673390e-04
-3.956810e-04
-4.000980e-04
-5.673390e-04
-5.672820e-04
-4.000980e-04
-4.045190e-04
-5.673390e-04
-5.674070e-04
-4.000980e-04
-3.956810e-04
-5.672820e-04
-5.673400e-04
-4.045190e-04
-4.000980e-04
-3.956810e-04
-4.000980e-04
-1.530910e-04
-1.573090e-04
-4.000980e-04
-4.045190e-04
-1.573080e-04
-1.615450e-04
-4.000980e-04
-3.956810e-04
-1.573090e-04
-1.530920e-04
-4.045190e-04
-4.000980e-04
-1.615450e-04
-1.573090e-04
-1.530910e-04
-1.573090e-04
1.133980e-04
1.112290e-04
-1.573080e-04
-1.615450e-04
1.112290e-04
1.092050e-04
-1.573090e-04
-1.530920e-04
1.112290e-04
1.133970e-04
-1.615450e-04
-1.573090e-04
1.092050e-04
1.112290e-04
1.133980e-04
1.112290e-04
1.365390e-04
1.351730e-04
1.112290e-04
1.092050e-04
1.351720e-04
1.336900e-04
1.112290e-04
1.133970e-04
1.351730e-04
1.365390e-04
1.092050e-04
1.112290e-04
1.336900e-04
1.351720e-04
1.365390e-04
1.351730e-04
2.235970e-05
2.323200e-05
1.351720e-04
1.336900e-04
2.323190e-05
2.432550e-05
1.351730e-04
1.365390e-04
2.323200e-05
2.235940e-05
1.336900e-04
1.351720e-04
2.432550e-05
2.323170e-05
2.235970e-05
2.323200e-05
-1.875390e-04
-1.852250e-04
2.323190e-05
2.432550e-05
-1.852250e-04
-1.827140e-04
2.323200e-05
2.235940e-05
-1.852250e-04
-1.875390e-04
2.432550e-05
2.323170e-05
-1.827140e-04
-1.852250e-04
-1.875390e-04
-1.852250e-04
-4.102300e-04
-4.096220e-04
-1.852250e-04
-1.827140e-04
-4.096210e-04
-4.097070e-04
-1.852250e-04
-1.875390e-04
-4.096220e-04
-4.102300e-04
-1.827140e-04
-1.852250e-04
-4.097070e-04
-4.096220e-04
-4.102300e-04
-4.096220e-04
-4.230350e-04
-4.252020e-04
-4.096210e-04
-4.097070e-04
-4.252020e-04
-4.260700e-04
-4.096220e-04
-4.102300e-04
-4.252020e-04
-4.230360e-04
-4.097070e-04
-4.096220e-04
-4.260700e-04
-4.252020e-04
-4.230350e-04
-4.252020e-04
-3.674140e-04
-3.694630e-04
-4.252020e-04
-4.260700e-04
-3.694620e-04
-3.719750e-04
-4.252020e-04
-4.230360e-04
-3.694630e-04
-3.674140e-04
-4.260700e-04
-4.252020e-04
-3.719750e-04
-3.694620e-04
-3.674140e-04
-3.694630e-04
-6.660400e-04
-6.686130e-04
-3.694620e-04
-3.719750e-04
-6.686130e-04
-6.713460e-04
-3.694630e-04
-3.674140e-04
-6.686130e-04
-6.660400e-04
-3.719750e-04
-3.694620e-04
-6.713460e-04
-6.686130e-04
-6.660400e-04
-6.686130e-04
-1.145020e-03
-1.142810e-03
-6.686130e-04
-6.713460e-04
-1.142810e-03
-1.141230e-03
-6.686130e-04
-6.660400e-04
-1.142810e-03
-1.145020e-03
-6.713460e-04
-6.686130e-04
-1.141230e-03
-1.142810e-03
-1.145020e-03
-1.142810e-03
-1.005490e-03
-9.980970e-04
-1.142810e-03
-1.141230e-03
-9.980970e-04
-9.917810e-04
-1.142810e-03
-1.145020e-03
-9.980970e-04
-1.005490e-03
-1.141230e-03
-1.142810e-03
-9.917810e-04
-9.980970e-04
-1.005490e-03
-9.980970e-04
-4.247990e-04
-4.224840e-04
-9.980970e-04
-9.917810e-04
-4.224840e-04
-4.200530e-04
-9.980970e-04
-1.005490e-03
-4.224840e-04
-4.248000e-04
-9.917810e-04
-9.980970e-04
-4.200530e-04
-4.224840e-04
-4.247990e-04
-4.224840e-04
-2.696050e-04
-2.686600e-04
-4.224840e-04
-4.200530e-04
-2.686600e-04
-2.690480e-04
-4.224840e-04
-4.248000e-04
-2.686600e-04
-2.696060e-04
-4.200530e-04
-4.224840e-04
-2.690480e-04
-2.686600e-04
0.000000e+00
0.000000e+00
-4.259270e-02
-4.259340e-02
0.000000e+00
0.000000e+00
-4.259200e-02
-4.259270e-02
0.000000e+00
0.000000e+00
-4.259340e-02
-4.259270e-02
0.000000e+00
0.000000e+00
-4.259270e-02
-4.259200e-02