<?xml version="1.0"?>
<VTKFile type="UnstructuredGrid" version="0.1" byte_order="LittleEndian" compressor="vtkZLibDataCompressor">
<UnstructuredGrid>
<Piece NumberOfPoints="960" NumberOfCells="120">
<Points>
<DataArray type="Float32" NumberOfComponents="3" format="ascii">
-4.000000e+02 -6.000000e+03 -4.000000e+02
0.000000e+00 -6.000000e+03 -4.000000e+02
-4.000000e+02 -5.600000e+03 -4.000000e+02
-3.037100e-11 -5.600000e+03 -4.000000e+02
-4.000000e+02 -6.000000e+03 0.000000e+00
0.000000e+00 -6.000000e+03 0.000000e+00
-4.000000e+02 -5.600000e+03 -1.011810e-10
-9.677330e-11 -5.600000e+03 8.996190e-13
0.000000e+00 -6.000000e+03 -4.000000e+02
4.000000e+02 -6.000000e+03 -4.000000e+02
-3.037100e-11 -5.600000e+03 -4.000000e+02
4.000000e+02 -5.600000e+03 -4.000000e+02
0.000000e+00 -6.000000e+03 0.000000e+00
4.000000e+02 -6.000000e+03 0.000000e+00
-9.677330e-11 -5.600000e+03 8.996190e-13
4.000000e+02 -5.600000e+03 -4.634210e-11
-4.000000e+02 -5.600000e+03 -4.000000e+02
-3.037100e-11 -5.600000e+03 -4.000000e+02
-4.000000e+02 -5.200010e+03 -4.000000e+02
-3.457190e-10 -5.200010e+03 -4.000000e+02
-4.000000e+02 -5.600000e+03 -1.011810e-10
-9.677330e-11 -5.600000e+03 8.996190e-13
-4.000000e+02 -5.200010e+03 -7.624540e-10
-2.459710e-10 -5.200010e+03 -7.248090e-10
-3.037100e-11 -5.600000e+03 -4.000000e+02
4.000000e+02 -5.600000e+03 -4.000000e+02
-3.457190e-10 -5.200010e+03 -4.000000e+02
4.000000e+02 -5.200010e+03 -4.000000e+02
-9.677330e-11 -5.600000e+03 8.996190e-13
4.000000e+02 -5.600000e+03 -4.634210e-11
-2.459710e-10 -5.200010e+03 -7.248090e-10
4.000000e+02 -5.200010e+03 -5.244400e-10
-4.000000e+02 -5.200010e+03 -4.000000e+02
-3.457190e-10 -5.200010e+03 -4.000000e+02
-4.000000e+02 -4.800020e+03 -4.000000e+02
-9.798420e-11 -4.800020e+03 -4.000000e+02
-4.000000e+02 -5.200010e+03 -7.624540e-10
-2.459710e-10 -5.200010e+03 -7.248090e-10
-4.000000e+02 -4.800020e+03 -8.072830e-10
-4.597640e-10 -4.800020e+03 -1.147130e-09
-3.457190e-10 -5.200010e+03 -4.000000e+02
4.000000e+02 -5.200010e+03 -4.000000e+02
-9.798420e-11 -4.800020e+03 -4.000000e+02
4.000000e+02 -4.800020e+03 -4.000000e+02
-2.459710e-10 -5.200010e+03 -7.248090e-10
4.000000e+02 -5.200010e+03 -5.244400e-10
-4.597640e-10 -4.800020e+03 -1.147130e-09
4.000000e+02 -4.800020e+03 -6.207150e-10
-4.000000e+02 -4.800020e+03 -4.000000e+02
-9.798420e-11 -4.800020e+03 -4.000000e+02
-4.000000e+02 -4.400040e+03 -4.000000e+02
-5.298720e-10 -4.400040e+03 -4.000000e+02
-4.000000e+02 -4.800020e+03 -8.072830e-10
-4.597640e-10 -4.800020e+03 -1.147130e-09
-4.000000e+02 -4.400040e+03 -1.015080e-09
-4.355200e-10 -4.400040e+03 -7.384380e-10
-9.798420e-11 -4.800020e+03 -4.000000e+02
4.000000e+02 -4.800020e+03 -4.000000e+02
-5.298720e-10 -4.400040e+03 -4.000000e+02
4.000000e+02 -4.400040e+03 -4.000000e+02
-4.597640e-10 -4.800020e+03 -1.147130e-09
4.000000e+02 -4.800020e+03 -6.207150e-10
-4.355200e-10 -4.400040e+03 -7.384380e-10
4.000000e+02 -4.400040e+03 -5.613680e-10
-4.000000e+02 -4.400040e+03 -4.000000e+02
-5.298720e-10 -4.400040e+03 -4.000000e+02
-4.000000e+02 -4.000070e+03 -4.000000e+02
3.301390e-11 -4.000070e+03 -4.000000e+02
-4.000000e+02 -4.400040e+03 -1.015080e-09
-4.355200e-10 -4.400040e+03 -7.384380e-10
-4.000000e+02 -4.000070e+03 -7.728450e-10
6.472660e-11 -4.000070e+03 -9.318890e-10
-5.298720e-10 -4.400040e+03 -4.000000e+02
4.000000e+02 -4.400040e+03 -4.000000e+02
3.301390e-11 -4.000070e+03 -4.000000e+02
4.000000e+02 -4.000070e+03 -4.000000e+02
-4.355200e-10 -4.400040e+03 -7.384380e-10
4.000000e+02 -4.400040e+03 -5.613680e-10
6.472660e-11 -4.000070e+03 -9.318890e-10
4.000000e+02 -4.000070e+03 -8.510310e-10
-4.000000e+02 -4.000070e+03 -4.000000e+02
3.301390e-11 -4.000070e+03 -4.000000e+02
-4.000000e+02 -3.600130e+03 -4.000000e+02
3.658010e-10 -3.600130e+03 -4.000000e+02
-4.000000e+02 -4.000070e+03 -7.728450e-10
6.472660e-11 -4.000070e+03 -9.318890e-10
-4.000000e+02 -3.600130e+03 -7.469070e-10
3.676660e-10 -3.600130e+03 -8.544070e-10
3.301390e-11 -4.000070e+03 -4.000000e+02
4.000000e+02 -4.000070e+03 -4.000000e+02
3.658010e-10 -3.600130e+03 -4.000000e+02
4.000000e+02 -3.600130e+03 -4.000000e+02
6.472660e-11 -4.000070e+03 -9.318890e-10
4.000000e+02 -4.000070e+03 -8.510310e-10
3.676660e-10 -3.600130e+03 -8.544070e-10
4.000000e+02 -3.600130e+03 -9.545510e-10
-4.000000e+02 -3.600130e+03 -4.000000e+02
3.658010e-10 -3.600130e+03 -4.000000e+02
-4.000000e+02 -3.200190e+03 -4.000000e+02
2.089980e-10 -3.200190e+03 -4.000000e+02
-4.000000e+02 -3.600130e+03 -7.469070e-10
3.676660e-10 -3.600130e+03 -8.544070e-10
-4.000000e+02 -3.200190e+03 -7.665080e-10
3.226470e-10 -3.200190e+03 -6.502670e-10
3.658010e-10 -3.600130e+03 -4.000000e+02
4.000000e+02 -3.600130e+03 -4.000000e+02
2.089980e-10 -3.200190e+03 -4.000000e+02
4.000000e+02 -3.200190e+03 -4.000000e+02
3.676660e-10 -3.600130e+03 -8.544070e-10
4.000000e+02 -3.600130e+03 -9.545510e-10
3.226470e-10 -3.200190e+03 -6.502670e-10
4.000000e+02 -3.200190e+03 -1.207890e-09
-4.000000e+02 -3.200190e+03 -4.000000e+02
2.089980e-10 -3.200190e+03 -4.000000e+02
-4.000000e+02 -2.800250e+03 -4.000000e+02
5.624980e-10 -2.800250e+03 -4.000000e+02
-4.000000e+02 -3.200190e+03 -7.665080e-10
3.226470e-10 -3.200190e+03 -6.502670e-10
-4.000000e+02 -2.800250e+03 -4.660610e-10
4.548600e-10 -2.800250e+03 -8.657320e-10
2.089980e-10 -3.200190e+03 -4.000000e+02
4.000000e+02 -3.200190e+03 -4.000000e+02
5.624980e-10 -2.800250e+03 -4.000000e+02
4.000000e+02 -2.800250e+03 -4.000000e+02
3.226470e-10 -3.200190e+03 -6.502670e-10
4.000000e+02 -3.200190e+03 -1.207890e-09
4.548600e-10 -2.800250e+03 -8.657320e-10
4.000000e+02 -2.800250e+03 -7.200010e-10
-4.000000e+02 -2.800250e+03 -4.000000e+02
5.624980e-10 -2.800250e+03 -4.000000e+02
-4.000000e+02 -2.400270e+03 -4.000000e+02
8.254680e-10 -2.400270e+03 -4.000000e+02
-4.000000e+02 -2.800250e+03 -4.660610e-10
4.548600e-10 -2.800250e+03 -8.657320e-10
-4.000000e+02 -2.400270e+03 -6.897690e-10
8.015400e-10 -2.400270e+03 -1.021850e-09
5.624980e-10 -2.800250e+03 -4.000000e+02
4.000000e+02 -2.800250e+03 -4.000000e+02
8.254680e-10 -2.400270e+03 -4.000000e+02
4.000000e+02 -2.400270e+03 -4.000000e+02
4.548600e-10 -2.800250e+03 -8.657320e-10
4.000000e+02 -2.800250e+03 -7.200010e-10
8.015400e-10 -2.400270e+03 -1.021850e-09
4.000000e+02 -2.400270e+03 -1.121440e-09
-4.000000e+02 -2.400270e+03 -4.000000e+02
8.254680e-10 -2.400270e+03 -4.000000e+02
-4.000000e+02 -2.000270e+03 -4.000000e+02
7.180050e-10 -2.000270e+03 -4.000000e+02
-4.000000e+02 -2.400270e+03 -6.897690e-10
8.015400e-10 -2.400270e+03 -1.021850e-09
-4.000000e+02 -2.000270e+03 -7.500460e-10
5.025200e-10 -2.000270e+03 -9.485150e-10
8.254680e-10 -2.400270e+03 -4.000000e+02
4.000000e+02 -2.400270e+03 -4.000000e+02
7.180050e-10 -2.000270e+03 -4.000000e+02
4.000000e+02 -2.000270e+03 -4.000000e+02
8.015400e-10 -2.400270e+03 -1.021850e-09
4.000000e+02 -2.400270e+03 -1.121440e-09
5.025200e-10 -2.000270e+03 -9.485150e-10
4.000000e+02 -2.000270e+03 -1.160490e-09
-4.000000e+02 -2.000270e+03 -4.000000e+02
7.180050e-10 -2.000270e+03 -4.000000e+02
-4.000000e+02 -1.600250e+03 -4.000000e+02
-1.654410e-10 -1.600250e+03 -4.000000e+02
-4.000000e+02 -2.000270e+03 -7.500460e-10
5.025200e-10 -2.000270e+03 -9.485150e-10
-4.000000e+02 -1.600250e+03 -8.956650e-10
3.391520e-11 -1.600250e+03 -1.026430e-09
7.180050e-10 -2.000270e+03 -4.000000e+02
4.000000e+02 -2.000270e+03 -4.000000e+02
-1.654410e-10 -1.600250e+03 -4.000000e+02
4.000000e+02 -1.600250e+03 -4.000000e+02
5.025200e-10 -2.000270e+03 -9.485150e-10
4.000000e+02 -2.000270e+03 -1.160490e-09
3.391520e-11 -1.600250e+03 -1.026430e-09
4.000000e+02 -1.600250e+03 -8.751230e-10
-4.000000e+02 -1.600250e+03 -4.000000e+02
-1.654410e-10 -1.600250e+03 -4.000000e+02
-4.000000e+02 -1.200250e+03 -4.000000e+02
-6.066730e-10 -1.200250e+03 -4.000000e+02
-4.000000e+02 -1.600250e+03 -8.956650e-10
3.391520e-11 -1.600250e+03 -1.026430e-09
-4.000000e+02 -1.200250e+03 -9.884360e-10
-3.986050e-10 -1.200250e+03 -9.389640e-10
-1.654410e-10 -1.600250e+03 -4.000000e+02
4.000000e+02 -1.600250e+03 -4.000000e+02
-6.066730e-10 -1.200250e+03 -4.000000e+02
4.000000e+02 -1.200250e+03 -4.000000e+02
3.391520e-11 -1.600250e+03 -1.026430e-09
4.000000e+02 -1.600250e+03 -8.751230e-10
-3.986050e-10 -1.200250e+03 -9.389640e-10
4.000000e+02 -1.200250e+03 -1.182050e-09
-4.000000e+02 -1.200250e+03 -4.000000e+02
-6.066730e-10 -1.200250e+03 -4.000000e+02
-4.000000e+02 -8.002520e+02 -4.000000e+02
-7.649450e-10 -8.002520e+02 -4.000000e+02
-4.000000e+02 -1.200250e+03 -9.884360e-10
-3.986050e-10 -1.200250e+03 -9.389640e-10
-4.000000e+02 -8.002520e+02 -1.172900e-09
-7.087870e-10 -8.002520e+02 -1.088250e-09
-6.066730e-10 -1.200250e+03 -4.000000e+02
4.000000e+02 -1.200250e+03 -4.000000e+02
-7.649450e-10 -8.002520e+02 -4.000000e+02
4.000000e+02 -8.002520e+02 -4.000000e+02
-3.986050e-10 -1.200250e+03 -9.389640e-10
4.000000e+02 -1.200250e+03 -1.182050e-09
-7.087870e-10 -8.002520e+02 -1.088250e-09
4.000000e+02 -8.002520e+02 -1.511780e-09
-4.000000e+02 -8.002520e+02 -4.000000e+02
-7.649450e-10 -8.002520e+02 -4.000000e+02
-4.000000e+02 -4.002570e+02 -4.000000e+02
-9.469300e-10 -4.002570e+02 -4.000000e+02
-4.000000e+02 -8.002520e+02 -1.172900e-09
-7.087870e-10 -8.002520e+02 -1.088250e-09
-4.000000e+02 -4.002570e+02 -1.169100e-09
-7.414540e-10 -4.002570e+02 -1.300970e-09
-7.649450e-10 -8.002520e+02 -4.000000e+02
4.000000e+02 -8.002520e+02 -4.000000e+02
-9.469300e-10 -4.002570e+02 -4.000000e+02
4.000000e+02 -4.002570e+02 -4.000000e+02
-7.087870e-10 -8.002520e+02 -1.088250e-09
4.000000e+02 -8.002520e+02 -1.511780e-09
-7.414540e-10 -4.002570e+02 -1.300970e-09
4.000000e+02 -4.002570e+02 -1.291660e-09
-4.000000e+02 -4.002570e+02 -4.000000e+02
-9.469300e-10 -4.002570e+02 -4.000000e+02
-4.000000e+02 -2.545250e-01 -4.000000e+02
-8.860260e-10 -2.545250e-01 -4.000000e+02
-4.000000e+02 -4.002570e+02 -1.169100e-09
-7.414540e-10 -4.002570e+02 -1.300970e-09
-4.000000e+02 -2.545250e-01 -1.218420e-09
-5.416450e-10 -2.545250e-01 -1.208330e-09
-9.469300e-10 -4.002570e+02 -4.000000e+02
4.000000e+02 -4.002570e+02 -4.000000e+02
[...]
<PointData>
<DataArray type="Float32" Name="V1" format="ascii">
0.000000e+00
0.000000e+00
8.426230e-06
1.567410e-10
0.000000e+00
0.000000e+00
8.506130e-06
-1.341530e-10
0.000000e+00
0.000000e+00
1.567410e-10
-8.425940e-06
0.000000e+00
0.000000e+00
-1.341530e-10
-8.506440e-06
8.426230e-06
1.567410e-10
-3.489870e-06
-5.240310e-10
8.506130e-06
-1.341530e-10
-3.567060e-06
9.740430e-11
1.567410e-10
-8.425940e-06
-5.240310e-10
3.488580e-06
-1.341530e-10
-8.506440e-06
9.740430e-11
3.567310e-06
-3.489870e-06
-5.240310e-10
-2.899430e-06
2.552490e-10
-3.567060e-06
9.740430e-11
-2.822290e-06
1.876380e-10
-5.240310e-10
3.488580e-06
2.552490e-10
2.899860e-06
9.740430e-11
3.567310e-06
1.876380e-10
2.822720e-06
-2.899430e-06
2.552490e-10
4.529140e-06
-4.176460e-11
-2.822290e-06
1.876380e-10
4.467560e-06
-3.750230e-11
2.552490e-10
2.899860e-06
-4.176460e-11
-4.528970e-06
1.876380e-10
2.822720e-06
-3.750230e-11
-4.467570e-06
4.529140e-06
-4.176460e-11
1.573560e-07
-9.343020e-10
4.467560e-06
-3.750230e-11
1.891090e-07
1.524640e-10
-4.176460e-11
-4.528970e-06
-9.343020e-10
-1.587540e-07
-3.750230e-11
-4.467570e-06
1.524640e-10
-1.889200e-07
1.573560e-07
-9.343020e-10
-3.205670e-06
-1.038630e-10
1.891090e-07
1.524640e-10
-3.220780e-06
4.254790e-12
-9.343020e-10
-1.587540e-07
-1.038630e-10
3.205260e-06
1.524640e-10
-1.889200e-07
4.254790e-12
3.220920e-06
-3.205670e-06
-1.038630e-10
5.956140e-08
4.133470e-10
-3.220780e-06
4.254790e-12
7.784930e-09
9.655480e-12
-1.038630e-10
3.205260e-06
4.133470e-10
-5.939640e-08
4.254790e-12
3.220920e-06
9.655480e-12
-7.894910e-09
5.956140e-08
4.133470e-10
3.247670e-06
-1.223770e-11
7.784930e-09
9.655480e-12
3.412780e-06
-2.577730e-10
4.133470e-10
-5.939640e-08
-1.223770e-11
-3.247390e-06
9.655480e-12
-7.894910e-09
-2.577730e-10
-3.413290e-06
3.247670e-06
-1.223770e-11
5.427370e-07
-4.164010e-10
3.412780e-06
-2.577730e-10
4.460500e-07
5.059170e-11
-1.223770e-11
-3.247390e-06
-4.164010e-10
-5.435470e-07
-2.577730e-10
-3.413290e-06
5.059170e-11
-4.459010e-07
5.427370e-07
-4.164010e-10
-3.495770e-06
1.836380e-10
4.460500e-07
5.059170e-11
-3.598130e-06
1.415360e-10
-4.164010e-10
-5.435470e-07
1.836380e-10
3.496240e-06
5.059170e-11
-4.459010e-07
1.415360e-10
3.598500e-06
-3.495770e-06
1.836380e-10
-7.553660e-07
2.611450e-10
-3.598130e-06
1.415360e-10
-7.133930e-07
-9.781700e-11
1.836380e-10
3.496240e-06
2.611450e-10
7.564030e-07
1.415360e-10
3.598500e-06
-9.781700e-11
7.132830e-07
-7.553660e-07
2.611450e-10
2.989550e-06
-3.799770e-10
-7.133930e-07
-9.781700e-11
3.040960e-06
2.247230e-10
2.611450e-10
7.564030e-07
-3.799770e-10
-2.990430e-06
-9.781700e-11
7.132830e-07
2.247230e-10
-3.040910e-06
2.989550e-06
-3.799770e-10
1.991240e-06
-1.946280e-10
3.040960e-06
2.247230e-10
2.037400e-06
-2.399310e-10
-3.799770e-10
-2.990430e-06
-1.946280e-10
-1.991720e-06
2.247230e-10
-3.040910e-06
-2.399310e-10
-2.037410e-06
1.991240e-06
-1.946280e-10
-3.051890e-06
1.093800e-10
2.037400e-06
-2.399310e-10
-3.063110e-06
-1.760300e-10
-1.946280e-10
-1.991720e-06
1.093800e-10
3.052050e-06
-2.399310e-10
-2.037410e-06
-1.760300e-10
3.062780e-06
-3.051890e-06
1.093800e-10
-3.002110e-06
-2.561070e-10
-3.063110e-06
-1.760300e-10
-2.976120e-06
-2.803360e-10
1.093800e-10
3.052050e-06
-2.561070e-10
3.001830e-06
-1.760300e-10
3.062780e-06
-2.803360e-10
2.975610e-06
-3.002110e-06
-2.561070e-10
1.160100e-06
-1.861950e-10
-2.976120e-06
-2.803360e-10
1.184970e-06
-8.066370e-11
-2.561070e-10
3.001830e-06
-1.861950e-10
-1.160110e-06
-2.803360e-10
2.975610e-06
-8.066370e-11
-1.184730e-06
1.160100e-06
-1.861950e-10
2.474030e-06
3.355200e-10
1.184970e-06
-8.066370e-11
2.382320e-06
1.697950e-12
-1.861950e-10
-1.160110e-06
3.355200e-10
-2.473260e-06
-8.066370e-11
-1.184730e-06
1.697950e-12
-2.382330e-06
2.474030e-06
3.355200e-10
1.285610e-06
-4.993640e-11
2.382320e-06
1.697950e-12
1.455330e-06
4.162670e-11
3.355200e-10
-2.473260e-06
-4.993640e-11
-1.285710e-06
1.697950e-12
-2.382330e-06
4.162670e-11
-1.455040e-06
1.285610e-06
-4.993640e-11
5.239000e-07
1.796790e-10
1.455330e-06
4.162670e-11
6.130300e-07
5.633890e-11
-4.993640e-11
-1.285710e-06
1.796790e-10
-5.238530e-07
4.162670e-11
-1.455040e-06
5.633890e-11
-6.128250e-07
5.239000e-07
1.796790e-10
9.070500e-07
-1.023520e-10
6.130300e-07
5.633890e-11
9.260610e-07
-7.805570e-11
1.796790e-10
-5.238530e-07
-1.023520e-10
-9.073640e-07
5.633890e-11
-6.128250e-07
-7.805570e-11
-9.263040e-07
9.070500e-07
-1.023520e-10
9.918750e-07
-9.923510e-11
9.260610e-07
-7.805570e-11
1.007370e-06
-7.822530e-11
-1.023520e-10
-9.073640e-07
-9.923510e-11
-9.920640e-07
-7.805570e-11
-9.263040e-07
-7.822530e-11
-1.007510e-06
9.918750e-07
-9.923510e-11
-4.035590e-07
-4.660740e-11
1.007370e-06
-7.822530e-11
-4.170630e-07
-4.134910e-11
-9.923510e-11
-9.920640e-07
-4.660740e-11
4.034260e-07
-7.822530e-11
-1.007510e-06
-4.134910e-11
4.169530e-07
-4.035590e-07
-4.660740e-11
-1.433480e-06
9.375920e-12
-4.170630e-07
-4.134910e-11
-1.447440e-06
-1.411050e-11
-4.660740e-11
4.034260e-07
9.375920e-12
1.433450e-06
-4.134910e-11
4.169530e-07
-1.411050e-11
1.447390e-06
-1.433480e-06
9.375920e-12
4.219960e-07
1.711020e-11
-1.447440e-06
-1.411050e-11
4.093410e-07
1.120990e-11
9.375920e-12
1.433450e-06
1.711020e-11
-4.219810e-07
-1.411050e-11
1.447390e-06
1.120990e-11
-4.093570e-07
4.219960e-07
1.711020e-11
1.441430e-06
-3.218060e-11
4.093410e-07
1.120990e-11
1.419410e-06
-1.568820e-11
1.711020e-11
-4.219810e-07
-3.218060e-11
-1.441500e-06
1.120990e-11
-4.093570e-07
-1.568820e-11
-1.419450e-06
1.441430e-06
-3.218060e-11
-2.785680e-07
-1.586760e-11
1.419410e-06
-1.568820e-11
-2.188660e-07
-1.288260e-11
-3.218060e-11
-1.441500e-06
-1.586760e-11
2.785210e-07
-1.568820e-11
-1.419450e-06
-1.288260e-11
2.188340e-07
-2.785680e-07
-1.586760e-11
-7.871730e-07
1.082520e-11
-2.188660e-07
-1.288260e-11
-7.787520e-07
8.527020e-12
-1.586760e-11
2.785210e-07
1.082520e-11
7.871810e-07
-1.288260e-11
2.188340e-07
8.527020e-12
7.787750e-07
-7.871730e-07
1.082520e-11
2.132100e-07
5.571620e-12
-7.787520e-07
8.527020e-12
1.991790e-07
-3.974280e-12
1.082520e-11
7.871810e-07
5.571620e-12
-2.132020e-07
8.527020e-12
7.787750e-07
-3.974280e-12
-1.991870e-07
2.132100e-07
5.571620e-12
5.993920e-07
-3.525310e-12
1.991790e-07
-3.974280e-12
2.422360e-07
-1.918790e-12
5.571620e-12
-2.132020e-07
-3.525310e-12
-5.994000e-07
-3.974280e-12
-1.991870e-07
-1.918790e-12
-2.422360e-07
5.993920e-07
-3.525310e-12
-1.065100e-06
-1.087130e-12
2.422360e-07
-1.918790e-12
-2.905170e-07
-9.599130e-13
-3.525310e-12
-5.994000e-07
-1.087130e-12
1.065110e-06
-1.918790e-12
-2.422360e-07
-9.599130e-13
2.905330e-07
0.000000e+00
0.000000e+00
8.506130e-06
-1.341530e-10
0.000000e+00
0.000000e+00
8.426270e-06
1.745510e-10
0.000000e+00
0.000000e+00
-1.341530e-10
-8.506440e-06
0.000000e+00
0.000000e+00
1.745510e-10
-8.426340e-06
8.506130e-06
-1.341530e-10
-3.567060e-06
9.740430e-11
8.426270e-06
1.745510e-10
-3.489600e-06
-2.782320e-10
-1.341530e-10
-8.506440e-06
9.740430e-11
3.567310e-06
1.745510e-10
-8.426340e-06
-2.782320e-10
3.489200e-06
-3.567060e-06
9.740430e-11
-2.822290e-06
1.876380e-10
-3.489600e-06
-2.782320e-10
-2.900700e-06
-2.188050e-10
9.740430e-11
3.567310e-06
1.876380e-10
2.822720e-06
-2.782320e-10
3.489200e-06
-2.188050e-10
2.900010e-06
-2.822290e-06
1.876380e-10
4.467560e-06
-3.750230e-11
-2.900700e-06
-2.188050e-10
4.528900e-06
4.751870e-11
1.876380e-10
2.822720e-06
-3.750230e-11
-4.467570e-06
-2.188050e-10
2.900010e-06
4.751870e-11
-4.528200e-06
4.467560e-06
-3.750230e-11
1.891090e-07
1.524640e-10
4.528900e-06
4.751870e-11
1.578270e-07
-2.819890e-10
-3.750230e-11
-4.467570e-06
1.524640e-10
-1.889200e-07
4.751870e-11
-4.528200e-06
-2.819890e-10
-1.588250e-07
1.891090e-07
1.524640e-10
-3.220780e-06
4.254790e-12
1.578270e-07
-2.819890e-10
-3.205650e-06
-1.029860e-10
1.524640e-10
-1.889200e-07
4.254790e-12
3.220920e-06
-2.819890e-10
-1.588250e-07
-1.029860e-10
3.205760e-06
-3.220780e-06
4.254790e-12
7.784930e-09
9.655480e-12
-3.205650e-06
-1.029860e-10
6.039410e-08
4.981840e-10
4.254790e-12
3.220920e-06
9.655480e-12
-7.894910e-09
-1.029860e-10
3.205760e-06
4.981840e-10
-5.999340e-08
7.784930e-09
9.655480e-12
3.412780e-06
-2.577730e-10
6.039410e-08
4.981840e-10
3.248220e-06
2.521790e-10
9.655480e-12
-7.894910e-09
-2.577730e-10
-3.413290e-06
4.981840e-10
-5.999340e-08
2.521790e-10
-3.247910e-06
3.412780e-06
-2.577730e-10
4.460500e-07
5.059170e-11
3.248220e-06
2.521790e-10
5.428240e-07
1.451220e-10
-2.577730e-10
-3.413290e-06
5.059170e-11
-4.459010e-07
2.521790e-10
-3.247910e-06
1.451220e-10
-5.424940e-07
4.460500e-07
5.059170e-11
-3.598130e-06
1.415360e-10
5.428240e-07
1.451220e-10
-3.495530e-06
-6.319590e-11
5.059170e-11
-4.459010e-07
1.415360e-10
3.598500e-06
1.451220e-10
-5.424940e-07
-6.319590e-11
3.495810e-06
-3.598130e-06
1.415360e-10
-7.133930e-07
-9.781700e-11
-3.495530e-06
-6.319590e-11
-7.559470e-07
6.206890e-10
1.415360e-10
3.598500e-06
-9.781700e-11
7.132830e-07
-6.319590e-11
3.495810e-06
6.206890e-10
7.569370e-07
-7.133930e-07
-9.781700e-11
3.040960e-06
2.247230e-10
-7.559470e-07
6.206890e-10
2.989110e-06
-2.014680e-10
-9.781700e-11
7.132830e-07
2.247230e-10
-3.040910e-06
6.206890e-10
7.569370e-07
-2.014680e-10
-2.989060e-06
3.040960e-06
2.247230e-10
2.037400e-06
-2.399310e-10
2.989110e-06
-2.014680e-10
1.991230e-06
1.410150e-10
2.247230e-10
-3.040910e-06
-2.399310e-10
-2.037410e-06
-2.014680e-10
-2.989060e-06
1.410150e-10
-1.991060e-06
2.037400e-06
-2.399310e-10
-3.063110e-06
-1.760300e-10
1.991230e-06
1.410150e-10
-3.051240e-06
6.186800e-12
-2.399310e-10
-2.037410e-06
-1.760300e-10
3.062780e-06
1.410150e-10
-1.991060e-06
6.186800e-12
3.051130e-06
-3.063110e-06
-1.760300e-10
-2.976120e-06
-2.803360e-10
-3.051240e-06
6.186800e-12
-3.002170e-06
3.141860e-11
-1.760300e-10
3.062780e-06
-2.803360e-10
2.975610e-06
6.186800e-12
3.051130e-06
3.141860e-11
3.002340e-06
-2.976120e-06
-2.803360e-10
1.184970e-06
-8.066370e-11
-3.002170e-06
3.141860e-11
1.160610e-06
-5.919410e-11
-2.803360e-10
2.975610e-06
-8.066370e-11
-1.184730e-06
3.141860e-11
3.002340e-06
-5.919410e-11
-1.160410e-06
1.184970e-06
-8.066370e-11
2.382320e-06
1.697950e-12
1.160610e-06
-5.919410e-11
2.473520e-06
1.373820e-11
-8.066370e-11
-1.184730e-06
1.697950e-12
-2.382330e-06
-5.919410e-11
-1.160410e-06
1.373820e-11
-2.473850e-06
2.382320e-06
1.697950e-12
1.455330e-06
4.162670e-11
2.473520e-06
1.373820e-11
1.285670e-06
1.589620e-10
1.697950e-12
-2.382330e-06
4.162670e-11
-1.455040e-06
1.373820e-11
-2.473850e-06
1.589620e-10
-1.285350e-06
1.455330e-06
4.162670e-11
6.130300e-07
5.633890e-11
1.285670e-06
1.589620e-10
5.239230e-07
1.047120e-10
4.162670e-11
-1.455040e-06
5.633890e-11
-6.128250e-07
1.589620e-10
-1.285350e-06
1.047120e-10
-5.241980e-07
6.130300e-07
5.633890e-11
9.260610e-07
-7.805570e-11
5.239230e-07
1.047120e-10
9.070110e-07
3.069210e-11
5.633890e-11
-6.128250e-07
-7.805570e-11
-9.263040e-07
1.047120e-10
-5.241980e-07
3.069210e-11
-9.070970e-07
9.260610e-07
-7.805570e-11
1.007370e-06
-7.822530e-11
9.070110e-07
3.069210e-11
9.918520e-07
-4.860070e-11
-7.805570e-11
-9.263040e-07
-7.822530e-11
-1.007510e-06
3.069210e-11
-9.070970e-07
-4.860070e-11
-9.919460e-07
1.007370e-06
-7.822530e-11
-4.170630e-07
-4.134910e-11
9.918520e-07
-4.860070e-11
-4.035590e-07
-8.521800e-11
-7.822530e-11
-1.007510e-06
-4.134910e-11
4.169530e-07
-4.860070e-11
-9.919460e-07
-8.521800e-11
4.034100e-07
-4.170630e-07
-4.134910e-11
-1.447440e-06
-1.411050e-11
-4.035590e-07
-8.521800e-11
-1.433430e-06
-4.878460e-11
-4.134910e-11
4.169530e-07
-1.411050e-11
1.447390e-06
-8.521800e-11
4.034100e-07
-4.878460e-11
1.433380e-06
-1.447440e-06
-1.411050e-11
4.093410e-07
1.120990e-11
-1.433430e-06
-4.878460e-11
4.220040e-07
3.087890e-11
-1.411050e-11
1.447390e-06
1.120990e-11
-4.093570e-07
-4.878460e-11
1.433380e-06
3.087890e-11
-4.219570e-07
4.093410e-07
1.120990e-11
1.419410e-06
-1.568820e-11
4.220040e-07
3.087890e-11
1.441500e-06
-2.974570e-12
1.120990e-11
-4.093570e-07
-1.568820e-11
-1.419450e-06
3.087890e-11
-4.219570e-07
-2.974570e-12
-1.441480e-06
1.419410e-06
-1.568820e-11
-2.188660e-07
-1.288260e-11
1.441500e-06
-2.974570e-12
-2.785610e-07
-2.693300e-11
-1.568820e-11
-1.419450e-06
-1.288260e-11
2.188340e-07
-2.974570e-12
-1.441480e-06
-2.693300e-11
2.785210e-07
-2.188660e-07
-1.288260e-11
-7.787520e-07
8.527020e-12
-2.785610e-07
-2.693300e-11
-7.871650e-07
3.149390e-12
-1.288260e-11
2.188340e-07
8.527020e-12
7.787750e-07
-2.693300e-11
2.785210e-07
3.149390e-12
7.871810e-07
-7.787520e-07
8.527020e-12
1.991790e-07
-3.974280e-12
-7.871650e-07
3.149390e-12
2.132170e-07
-7.808350e-12
8.527020e-12
7.787750e-07
-3.974280e-12
-1.991870e-07
3.149390e-12
7.871810e-07
-7.808350e-12
-2.132250e-07
1.991790e-07
-3.974280e-12
2.422360e-07
-1.918790e-12
2.132170e-07
-7.808350e-12
5.993920e-07
9.988580e-14
-3.974280e-12
-1.991870e-07
-1.918790e-12
-2.422360e-07
-7.808350e-12
-2.132250e-07
9.988580e-14
-5.994000e-07
2.422360e-07
-1.918790e-12
-2.905170e-07
-9.599130e-13
5.993920e-07
9.988580e-14
-1.065110e-06
-3.365430e-12
-1.918790e-12
-2.422360e-07
-9.599130e-13
2.905330e-07
9.988580e-14
-5.994000e-07
-3.365430e-12
1.065090e-06
</DataArray>
<DataArray type="Float32" Name="V2" format="ascii">
0.000000e+00
0.000000e+00
1.259090e-03
1.272520e-03
0.000000e+00
0.000000e+00
1.272520e-03
1.286090e-03
0.000000e+00
0.000000e+00
1.272520e-03
1.259090e-03
0.000000e+00
0.000000e+00
1.286090e-03
1.272520e-03
1.259090e-03
1.272520e-03
3.426700e-03
3.426460e-03
1.272520e-03
1.286090e-03
3.426460e-03
3.426050e-03
1.272520e-03
1.259090e-03
3.426460e-03
3.426700e-03
1.286090e-03
1.272520e-03
3.426050e-03
3.426460e-03
3.426700e-03
3.426460e-03
8.408150e-03
8.401570e-03
3.426460e-03
3.426050e-03
8.401570e-03
8.394990e-03
3.426460e-03
3.426700e-03
8.401570e-03
8.408150e-03
3.426050e-03
3.426460e-03
8.394990e-03
8.401570e-03
8.408150e-03
8.401570e-03
1.713340e-02
1.713610e-02
8.401570e-03
8.394990e-03
1.713610e-02
1.713900e-02
8.401570e-03
8.408150e-03
1.713610e-02
1.713340e-02
8.394990e-03
8.401570e-03
1.713900e-02
1.713610e-02
1.713340e-02
1.713610e-02
2.965640e-02
2.966030e-02
1.713610e-02
1.713900e-02
2.966030e-02
2.966390e-02
1.713610e-02
1.713340e-02
2.966030e-02
2.965640e-02
1.713900e-02
1.713610e-02
2.966390e-02
2.966030e-02
2.965640e-02
2.966030e-02
4.039240e-02
4.039310e-02
2.966030e-02
2.966390e-02
4.039310e-02
4.039400e-02
2.966030e-02
2.965640e-02
4.039310e-02
4.039240e-02
2.966390e-02
2.966030e-02
4.039400e-02
4.039310e-02
4.039240e-02
4.039310e-02
4.242890e-02
4.242500e-02
4.039310e-02
4.039400e-02
4.242500e-02
4.242140e-02
4.039310e-02
4.039240e-02
4.242500e-02
4.242890e-02
4.039400e-02
4.039310e-02
4.242140e-02
4.242510e-02
4.242890e-02
4.242500e-02
2.993380e-02
2.993230e-02
4.242500e-02
4.242140e-02
2.993230e-02
2.993060e-02
4.242500e-02
4.242890e-02
2.993230e-02
2.993380e-02
4.242140e-02
4.242510e-02
2.993060e-02
2.993230e-02
2.993380e-02
2.993230e-02
7.015820e-03
7.019370e-03
2.993230e-02
2.993060e-02
7.019360e-03
7.022730e-03
2.993230e-02
2.993380e-02
7.019370e-03
7.015820e-03
2.993060e-02
2.993230e-02
7.022730e-03
7.019370e-03
7.015820e-03
7.019370e-03
-1.088680e-02
-1.088650e-02
7.019360e-03
7.022730e-03
-1.088650e-02
-1.088590e-02
7.019370e-03
7.015820e-03
-1.088650e-02
-1.088680e-02
7.022730e-03
7.019370e-03
-1.088590e-02
-1.088650e-02
-1.088680e-02
-1.088650e-02
-1.079630e-02
-1.080190e-02
-1.088650e-02
-1.088590e-02
-1.080190e-02
-1.080740e-02
-1.088650e-02
-1.088680e-02
-1.080190e-02
-1.079630e-02
-1.088590e-02
-1.088650e-02
-1.080740e-02
-1.080190e-02
-1.079630e-02
-1.080190e-02
1.417240e-03
1.413970e-03
-1.080190e-02
-1.080740e-02
1.413970e-03
1.410690e-03
-1.080190e-02
-1.079630e-02
1.413970e-03
1.417240e-03
-1.080740e-02
-1.080190e-02
1.410690e-03
1.413970e-03
1.417240e-03
1.413970e-03
5.732420e-03
5.734500e-03
1.413970e-03
1.410690e-03
5.734500e-03
5.736810e-03
1.413970e-03
1.417240e-03
5.734500e-03
5.732420e-03
1.410690e-03
1.413970e-03
5.736810e-03
5.734500e-03
5.732420e-03
5.734500e-03
-5.691270e-04
-5.671100e-04
5.734500e-03
5.736810e-03
-5.671100e-04
-5.652650e-04
5.734500e-03
5.732420e-03
-5.671100e-04
-5.691270e-04
5.736810e-03
5.734500e-03
-5.652650e-04
-5.671110e-04
-5.691270e-04
-5.671100e-04
-2.849890e-03
-2.847700e-03
-5.671100e-04
-5.652650e-04
-2.847700e-03
-2.845670e-03
-5.671100e-04
-5.691270e-04
-2.847700e-03
-2.849890e-03
-5.652650e-04
-5.671110e-04
-2.845670e-03
-2.847700e-03
-2.849890e-03
-2.847700e-03
3.066740e-05
3.118070e-05
-2.847700e-03
-2.845670e-03
3.118110e-05
3.197140e-05
-2.847700e-03
-2.849890e-03
3.118070e-05
3.066840e-05
-2.845670e-03
-2.847700e-03
3.197140e-05
3.118090e-05
3.066740e-05
3.118070e-05
3.930500e-04
3.926650e-04
3.118110e-05
3.197140e-05
3.926640e-04
3.924940e-04
3.118070e-05
3.066840e-05
3.926650e-04
3.930510e-04
3.197140e-05
3.118090e-05
3.924940e-04
3.926640e-04
3.930500e-04
3.926650e-04
-6.911840e-04
-6.900210e-04
3.926640e-04
3.924940e-04
-6.900200e-04
-6.889410e-04
3.926650e-04
3.930510e-04
-6.900210e-04
-6.911860e-04
3.924940e-04
3.926640e-04
-6.889410e-04
-6.900210e-04
-6.911840e-04
-6.900210e-04
-5.842790e-04
-5.834750e-04
-6.900200e-04
-6.889410e-04
-5.834760e-04
-5.826750e-04
-6.900210e-04
-6.911860e-04
-5.834750e-04
-5.842800e-04
-6.889410e-04
-6.900210e-04
-5.826750e-04
-5.834770e-04
-5.842790e-04
-5.834750e-04
-3.052070e-04
-3.048280e-04
-5.834760e-04
-5.826750e-04
-3.048280e-04
-3.040270e-04
-5.834750e-04
-5.842800e-04
-3.048280e-04
-3.052070e-04
-5.826750e-04
-5.834770e-04
-3.040270e-04
-3.048280e-04
-3.052070e-04
-3.048280e-04
-4.386470e-04
-4.375910e-04
-3.048280e-04
-3.040270e-04
-4.375900e-04
-4.367860e-04
-3.048280e-04
-3.052070e-04
-4.375910e-04
-4.386470e-04
-3.040270e-04
-3.048280e-04
-4.367860e-04
-4.375900e-04
-4.386470e-04
-4.375910e-04
-4.140140e-04
-4.141560e-04
-4.375900e-04
-4.367860e-04
-4.141560e-04
-4.128190e-04
-4.375910e-04
-4.386470e-04
-4.141560e-04
-4.140130e-04
-4.367860e-04
-4.375900e-04
-4.128190e-04
-4.141560e-04
-4.140140e-04
-4.141560e-04
-2.881190e-04
-2.901850e-04
-4.141560e-04
-4.128190e-04
-2.901870e-04
-2.924910e-04
-4.141560e-04
-4.140130e-04
-2.901850e-04
-2.881190e-04
-4.128190e-04
-4.141560e-04
-2.924910e-04
-2.901860e-04
-2.881190e-04
-2.901850e-04
-2.626310e-04
-2.664850e-04
-2.901870e-04
-2.924910e-04
-2.664860e-04
-2.700760e-04
-2.901850e-04
-2.881190e-04
-2.664850e-04
-2.626310e-04
-2.924910e-04
-2.901860e-04
-2.700760e-04
-2.664860e-04
-2.626310e-04
-2.664850e-04
-2.971400e-04
-2.945030e-04
-2.664860e-04
-2.700760e-04
-2.945030e-04
-2.926340e-04
-2.664850e-04
-2.626310e-04
-2.945030e-04
-2.971400e-04
-2.700760e-04
-2.664860e-04
-2.926340e-04
-2.945040e-04
-2.971400e-04
-2.945030e-04
-3.423610e-04
-3.358830e-04
-2.945030e-04
-2.926340e-04
-3.358840e-04
-3.303820e-04
-2.945030e-04
-2.971400e-04
-3.358830e-04
-3.423610e-04
-2.926340e-04
-2.945040e-04
-3.303820e-04
-3.358840e-04
-3.423610e-04
-3.358830e-04
-2.388640e-04
-2.408410e-04
-3.358840e-04
-3.303820e-04
-2.408410e-04
-2.420480e-04
-3.358830e-04
-3.423610e-04
-2.408410e-04
-2.388640e-04
-3.303820e-04
-3.358840e-04
-2.420480e-04
-2.408410e-04
-2.388640e-04
-2.408410e-04
-2.577220e-04
-2.638680e-04
-2.408410e-04
-2.420480e-04
-2.638680e-04
-2.690860e-04
-2.408410e-04
-2.388640e-04
-2.638680e-04
-2.577220e-04
-2.420480e-04
-2.408410e-04
-2.690860e-04
-2.638680e-04
-2.577220e-04
-2.638680e-04
-5.000950e-04
-5.008320e-04
-2.638680e-04
-2.690860e-04
-5.008310e-04
-5.020040e-04
-2.638680e-04
-2.577220e-04
-5.008320e-04
-5.000950e-04
-2.690860e-04
-2.638680e-04
-5.020040e-04
-5.008310e-04
-5.000950e-04
-5.008320e-04
-4.804550e-04
-4.683980e-04
-5.008310e-04
-5.020040e-04
-4.683980e-04
-4.635090e-04
-5.008320e-04
-5.000950e-04
-4.683980e-04
-4.804560e-04
-5.020040e-04
-5.008310e-04
-4.635090e-04
-4.683980e-04
0.000000e+00
0.000000e+00
1.272520e-03
1.286090e-03
0.000000e+00
0.000000e+00
1.259090e-03
1.272520e-03
0.000000e+00
0.000000e+00
1.286090e-03
1.272520e-03
0.000000e+00
0.000000e+00
1.272520e-03
1.259100e-03
1.272520e-03
1.286090e-03
3.426460e-03
3.426050e-03
1.259090e-03
1.272520e-03
3.426700e-03
3.426460e-03
1.286090e-03
1.272520e-03
3.426050e-03
3.426460e-03
1.272520e-03
1.259100e-03