MercuryDPM 0.14 name oneDimChain revision 6406 repository https://svn.mercurydpm.org/SourceCode/Branches/OomphlibCouplingExplicit
dataFile    fileType ONE_FILE saveCount 62 counter 102 lastSavedTimeStep 6222
fStatFile   fileType ONE_FILE saveCount 62 counter 102 lastSavedTimeStep 6222
eneFile     fileType ONE_FILE saveCount 62 counter 102 lastSavedTimeStep 6222
restartFile fileType ONE_FILE saveCount 62 counter 102 lastSavedTimeStep 6222
statFile    fileType ONE_FILE saveCount 62 counter 0
interactionFile fileType NO_FILE saveCount 0 counter 0
xMin -500 xMax 500 yMin -5000 yMax 5000 zMin -500 zMax 500
timeStep 0.0160743783395346 time 100.01478202859 ntimeSteps 6222 timeMax 100
systemDimensions 3 particleDimensions 3 gravity 0 0 -0 writeVTK 1 MULTIPLE_FILES NO_FILE 102 102 0 0 random  0 1103515245 12345 1073741824 607 273 784607267
Species 1
LinearViscoelasticReversibleAdhesiveSpecies id 0 density 2500 stiffness 20000000000 dissipation -0 adhesionForceMax 0 adhesionStiffness 20000000000
Walls 0
Boundaries 0
Particles 960
BaseParticle id 0 indSpecies 0 position -300.000002551469 2099.65206929447 -300.000002522431 orientation 1 0 0 0 velocity 4.33003441332215e-06 0.0726555555701729 4.33460807715386e-06 angularVelocity 0 0 0 force 22402.2773450247 238309861.571256 22327.5148747023 torque 0 0 0 radius 100 invMass 9.54929658551372e-11
BaseParticle id 1 indSpecies 0 position -300.000000427168 2099.72808784183 -100.000001767617 orientation 1 0 0 0 velocity 4.9474688302592e-06 0.0519147333897302 -3.2421418585394e-06 angularVelocity 0 0 0 force 22157.3551089051 -205639308.308107 7542.37855916382 torque 0 0 0 radius 100 invMass 9.54929658551372e-11
BaseParticle id 2 indSpecies 0 position -300.000000426786 2099.72808798979 100.000001662119 orientation 1 0 0 0 velocity 4.9479562197997e-06 0.051914642164304 3.21119741775289e-06 angularVelocity 0 0 0 force 22158.0555252155 -205642610.362502 -7623.45094524794 torque 0 0 0 radius 100 invMass 9.54929658551372e-11
BaseParticle id 3 indSpecies 0 position -300.000002549783 2099.65206912331 300.000002614578 orientation 1 0 0 0 velocity 4.33152217218374e-06 0.0726555557132957 -4.32832416727018e-06 angularVelocity 0 0 0 force 22404.2883217724 238309993.454867 -22412.789326296 torque 0 0 0 radius 100 invMass 9.54929658551372e-11
BaseParticle id 4 indSpecies 0 position -100.000001701672 2099.72808755167 -300.000000432541 orientation 1 0 0 0 velocity -3.23691929874811e-06 0.0519147936156521 4.94716220400811e-06 angularVelocity 0 0 0 force 7621.26962897323 -205633735.697798 22087.2019566016 torque 0 0 0 radius 100 invMass 9.54929658551372e-11
BaseParticle id 5 indSpecies 0 position -100.000012023507 2099.63441867569 -100.000012066385 orientation 1 0 0 0 velocity -2.0614201485203e-08 0.0596736937675091 -2.91461676755182e-08 angularVelocity 0 0 0 force 7372.66362915814 235214253.361972 7294.58967259821 torque 0 0 0 radius 100 invMass 9.54929658551372e-11
BaseParticle id 6 indSpecies 0 position -100.000012021065 2099.63441906119 100.000012156132 orientation 1 0 0 0 velocity -2.01218760741227e-08 0.0596737551270456 3.75965394827092e-08 angularVelocity 0 0 0 force 7372.90655762029 235214312.661138 -7376.64171253712 torque 0 0 0 radius 100 invMass 9.54929658551372e-11
BaseParticle id 7 indSpecies 0 position -100.000001702385 2099.72808800861 300.000000327027 orientation 1 0 0 0 velocity -3.23559224698675e-06 0.051914696922592 -4.98135417557226e-06 angularVelocity 0 0 0 force 7621.94122883346 -205643034.469172 -22173.8894320566 torque 0 0 0 radius 100 invMass 9.54929658551372e-11
BaseParticle id 8 indSpecies 0 position 100.0000017108 2099.7280873862 -299.999999969448 orientation 1 0 0 0 velocity 3.25022128542613e-06 0.0519148453618516 4.96478879558975e-06 angularVelocity 0 0 0 force -7538.45140355432 -205630606.77722 22094.8086040958 torque 0 0 0 radius 100 invMass 9.54929658551372e-11
BaseParticle id 9 indSpecies 0 position 100.000012035927 2099.63441826673 -100.000011636898 orientation 1 0 0 0 velocity 3.49101294745815e-08 0.0596736250170992 -5.93320578796903e-09 angularVelocity 0 0 0 force -7288.57060503036 235214089.321065 7296.68076704324 torque 0 0 0 radius 100 invMass 9.54929658551372e-11
BaseParticle id 10 indSpecies 0 position 100.000012028669 2099.63441863923 100.000009659649 orientation 1 0 0 0 velocity 3.32942555072329e-08 0.0596736865158917 -4.21809082449005e-07 angularVelocity 0 0 0 force -7288.81299337628 235214155.700907 -7379.27438909534 torque 0 0 0 radius 100 invMass 9.54929658551372e-11
BaseParticle id 11 indSpecies 0 position 100.000001710057 2099.72808787899 300.000001929262 orientation 1 0 0 0 velocity 3.24877913535112e-06 0.051914740741008 -4.56353263223408e-06 angularVelocity 0 0 0 force -7539.18819262235 -205640695.128153 -22177.8054053913 torque 0 0 0 radius 100 invMass 9.54929658551372e-11
BaseParticle id 12 indSpecies 0 position 300.000002560913 2099.65206958068 -300.000002967217 orientation 1 0 0 0 velocity -4.31644826625475e-06 0.0726555693240045 4.2894819544634e-06 angularVelocity 0 0 0 force -22320.2826644532 238309376.494853 22347.2789580654 torque 0 0 0 radius 100 invMass 9.54929658551372e-11
BaseParticle id 13 indSpecies 0 position 300.000000433711 2099.72808731351 -100.000001800835 orientation 1 0 0 0 velocity -4.93465472724863e-06 0.0519149074849032 -3.20964519917438e-06 angularVelocity 0 0 0 force -22074.1186634582 -205629213.312128 7548.44277184028 torque 0 0 0 radius 100 invMass 9.54929658551372e-11
BaseParticle id 14 indSpecies 0 position 300.000000437453 2099.72808748448 100.000001797945 orientation 1 0 0 0 velocity -4.93413585868417e-06 0.0519149123913111 3.19952120920471e-06 angularVelocity 0 0 0 force -22074.821911046 -205632272.464136 -7630.9699131024 torque 0 0 0 radius 100 invMass 9.54929658551372e-11
BaseParticle id 15 indSpecies 0 position 300.000002558314 2099.65206939912 300.000002952794 orientation 1 0 0 0 velocity -4.31817936219993e-06 0.0726555681669135 -4.30661073337292e-06 angularVelocity 0 0 0 force -22322.4033052974 238309570.167087 -22435.1666078814 torque 0 0 0 radius 100 invMass 9.54929658551372e-11
BaseParticle id 16 indSpecies 0 position -300.000113528013 2299.69371300175 -300.000113527806 orientation 1 0 0 0 velocity 4.77948966453461e-06 0.005913344828818 4.76895090661543e-06 angularVelocity 0 0 0 force 18607.7251337375 11673195.6170765 18488.697133264 torque 0 0 0 radius 100 invMass 9.54929658551372e-11
BaseParticle id 17 indSpecies 0 position -300.000105296831 2299.70695649295 -100.000034254906 orientation 1 0 0 0 velocity 4.93148625658224e-06 0.0347927613815868 -1.07461260949708e-08 angularVelocity 0 0 0 force 17903.1192042143 118740433.495513 6102.27152646998 torque 0 0 0 radius 100 invMass 9.54929658551372e-11
BaseParticle id 18 indSpecies 0 position -300.000105296298 2299.70695648072 100.000034246067 orientation 1 0 0 0 velocity 4.93188786590531e-06 0.0347925647222098 -5.03697605399235e-09 angularVelocity 0 0 0 force 17903.8800440366 118744674.794729 -6222.12930979524 torque 0 0 0 radius 100 invMass 9.54929658551372e-11
BaseParticle id 19 indSpecies 0 position -300.000113526597 2299.69371303308 300.00011351423 orientation 1 0 0 0 velocity 4.78068103489314e-06 0.00591307729939584 -4.78641225267824e-06 angularVelocity 0 0 0 force 18610.0462077793 11675966.1181093 -18613.2838501834 torque 0 0 0 radius 100 invMass 9.54929658551372e-11
BaseParticle id 20 indSpecies 0 position -100.000034244193 2299.70695647837 -300.000105297886 orientation 1 0 0 0 velocity 3.10878238420044e-09 0.0347931217447461 4.92244810663563e-06 angularVelocity 0 0 0 force 6221.91843591693 118732089.209673 17788.9147686488 torque 0 0 0 radius 100 invMass 9.54929658551372e-11
BaseParticle id 21 indSpecies 0 position -100.000020907734 2299.65216403353 -100.000020912659 orientation 1 0 0 0 velocity 6.41010128240734e-07 0.0138056296423421 6.28584546151528e-07 angularVelocity 0 0 0 force 6179.65216356582 -42163367.0842007 6061.60876959444 torque 0 0 0 radius 100 invMass 9.54929658551372e-11
BaseParticle id 22 indSpecies 0 position -100.000020908286 2299.6521636405 100.000020900822 orientation 1 0 0 0 velocity 6.41068029179441e-07 0.0138052279014241 -6.44638762022888e-07 angularVelocity 0 0 0 force 6180.02139159949 -42156282.9098946 -6180.90905605434 torque 0 0 0 radius 100 invMass 9.54929658551372e-11
BaseParticle id 23 indSpecies 0 position -100.000034243828 2299.70695648364 300.000105285959 orientation 1 0 0 0 velocity 3.49025628008792e-09 0.0347925180824334 -4.9399671394231e-06 angularVelocity 0 0 0 force 6223.06145947279 118745341.045008 -17912.482229371 torque 0 0 0 radius 100 invMass 9.54929658551372e-11
BaseParticle id 24 indSpecies 0 position 100.000034259426 2299.7069564706 -300.000105289762 orientation 1 0 0 0 velocity 1.38300291035154e-08 0.0347933306482731 4.92486143779861e-06 angularVelocity 0 0 0 force -6098.55535548006 118727686.291091 17793.1437612346 torque 0 0 0 radius 100 invMass 9.54929658551372e-11
BaseParticle id 25 indSpecies 0 position 100.000020922177 2299.65216441995 -100.000020909561 orientation 1 0 0 0 velocity -6.24227547721323e-07 0.0138060675135229 6.2960800589265e-07 angularVelocity 0 0 0 force -6056.34790280909 -42171371.0188234 6063.36474799149 torque 0 0 0 radius 100 invMass 9.54929658551372e-11
BaseParticle id 26 indSpecies 0 position 100.000020922474 2299.65216402592 100.000020897569 orientation 1 0 0 0 velocity -6.24347062779367e-07 0.0138056003240403 -6.45872508979345e-07 angularVelocity 0 0 0 force -6056.39090578234 -42163057.1575021 -6182.66762430765 torque 0 0 0 radius 100 invMass 9.54929658551372e-11
BaseParticle id 27 indSpecies 0 position 100.000034257198 2299.706956473 300.000105277113 orientation 1 0 0 0 velocity 1.32118380613588e-08 0.0347926642123519 -4.94289064029364e-06 angularVelocity 0 0 0 force -6098.76712156844 118741774.898652 -17921.1168567282 torque 0 0 0 radius 100 invMass 9.54929658551372e-11
BaseParticle id 28 indSpecies 0 position 300.000113542117 2299.69371271695 -300.000113500104 orientation 1 0 0 0 velocity -4.76245355045595e-06 0.00591395588698622 4.776454751486e-06 angularVelocity 0 0 0 force -18483.7867684798 11667054.5323029 18504.1835869666 torque 0 0 0 radius 100 invMass 9.54929658551372e-11
BaseParticle id 29 indSpecies 0 position 300.000105311715 2299.70695646894 -100.000034234207 orientation 1 0 0 0 velocity -4.91452406476674e-06 0.0347934238143865 -7.13381959447058e-09 angularVelocity 0 0 0 force -17779.1976728276 118726332.588001 6107.85978678428 torque 0 0 0 radius 100 invMass 9.54929658551372e-11
BaseParticle id 30 indSpecies 0 position 300.000105310816 2299.70695649031 100.000034224417 orientation 1 0 0 0 velocity -4.91499066005982e-06 0.0347932028387965 -9.37500231468328e-09 angularVelocity 0 0 0 force -17779.6393590144 118730714.687701 -6227.94016407818 torque 0 0 0 radius 100 invMass 9.54929658551372e-11
BaseParticle id 31 indSpecies 0 position 300.000113540438 2299.69371273138 300.000113485179 orientation 1 0 0 0 velocity -4.76378995300588e-06 0.00591322066200945 -4.79486258570017e-06 angularVelocity 0 0 0 force -18485.1790698851 11672811.22806 -18629.4535915945 torque 0 0 0 radius 100 invMass 9.54929658551372e-11
BaseParticle id 32 indSpecies 0 position -300.000019180534 2499.68465158863 -300.000019156851 orientation 1 0 0 0 velocity -3.5155656284897e-06 0.00214775167486493 -3.54427141121228e-06 angularVelocity 0 0 0 force -307.10823609586 141606292.076963 -1913.73421342998 torque 0 0 0 radius 100 invMass 9.54929658551372e-11
BaseParticle id 33 indSpecies 0 position -300.000006286006 2499.68368671102 -100.000019965115 orientation 1 0 0 0 velocity 2.28249478649493e-07 0.0155179773885854 2.9093399337663e-07 angularVelocity 0 0 0 force -3823.77589588495 446561911.571756 20861.5005643331 torque 0 0 0 radius 100 invMass 9.54929658551372e-11
BaseParticle id 34 indSpecies 0 position -300.000006285827 2499.68368674892 100.000019949567 orientation 1 0 0 0 velocity 2.28234135368799e-07 0.0155182904762771 -3.04886003088837e-07 angularVelocity 0 0 0 force -3827.10524786032 446560507.792744 -20873.4411763314 torque 0 0 0 radius 100 invMass 9.54929658551372e-11
BaseParticle id 35 indSpecies 0 position -300.000019297078 2499.68465173575 300.0000191463 orientation 1 0 0 0 velocity -3.55268150155139e-06 0.00214815919537925 3.52973335929953e-06 angularVelocity 0 0 0 force 1372.83501122581 141603962.392371 1697.42904843093 torque 0 0 0 radius 100 invMass 9.54929658551372e-11
BaseParticle id 36 indSpecies 0 position -100.000019914239 2499.68368656487 -300.000006283776 orientation 1 0 0 0 velocity 2.8986162171295e-07 0.0155174575372888 2.10871310689693e-07 angularVelocity 0 0 0 force 19483.939583439 446565781.715721 -3900.04196180159 torque 0 0 0 radius 100 invMass 9.54929658551372e-11
BaseParticle id 37 indSpecies 0 position -100.00001182197 2499.64063528646 -100.000011817987 orientation 1 0 0 0 velocity -7.79021977780883e-07 0.0228921536000948 -7.81295884404138e-07 angularVelocity 0 0 0 force 22797.89634034 358381471.66561 22652.8215029465 torque 0 0 0 radius 100 invMass 9.54929658551372e-11
BaseParticle id 38 indSpecies 0 position -100.000011822017 2499.64063522668 100.00001180426 orientation 1 0 0 0 velocity -7.78687024624303e-07 0.0228925147002729 7.68228496651741e-07 angularVelocity 0 0 0 force 22802.4106805819 358375744.930553 -22742.5911684241 torque 0 0 0 radius 100 invMass 9.54929658551372e-11
BaseParticle id 39 indSpecies 0 position -100.000019946887 2499.68368677294 300.000006270972 orientation 1 0 0 0 velocity 2.89204288672105e-07 0.0155182801572445 -2.26038958176658e-07 angularVelocity 0 0 0 force 17807.1871044337 446560348.499547 3766.60439896686 torque 0 0 0 radius 100 invMass 9.54929658551372e-11
BaseParticle id 40 indSpecies 0 position 100.000019914787 2499.68368650179 -300.000006279486 orientation 1 0 0 0 velocity -2.85622438958851e-07 0.0155171599732976 2.12951241163633e-07 angularVelocity 0 0 0 force -18763.579011729 446567224.04693 -3909.64315732714 torque 0 0 0 radius 100 invMass 9.54929658551372e-11
BaseParticle id 41 indSpecies 0 position 100.000011837222 2499.64063529976 -100.000011814339 orientation 1 0 0 0 velocity 7.9152905853094e-07 0.0228917458356666 -7.79722162930818e-07 angularVelocity 0 0 0 force -22674.1760910859 358387844.600888 22667.3128645136 torque 0 0 0 radius 100 invMass 9.54929658551372e-11
BaseParticle id 42 indSpecies 0 position 100.000011837083 2499.6406352977 100.000011800298 orientation 1 0 0 0 velocity 7.91269766772086e-07 0.0228921724118787 7.66107762824194e-07 angularVelocity 0 0 0 force -22680.1885293984 358381071.625912 -22752.7545656946 torque 0 0 0 radius 100 invMass 9.54929658551372e-11
BaseParticle id 43 indSpecies 0 position 100.000019945086 2499.68368671081 300.000006266578 orientation 1 0 0 0 velocity -2.709587339474e-07 0.0155180274547865 -2.27849332023278e-07 angularVelocity 0 0 0 force -17023.2250618688 446561659.322618 3772.53767909883 torque 0 0 0 radius 100 invMass 9.54929658551372e-11
BaseParticle id 44 indSpecies 0 position 300.000019211273 2499.68465104063 -300.000019199991 orientation 1 0 0 0 velocity 3.53903702174537e-06 0.00214725466510497 -3.54060367985335e-06 angularVelocity 0 0 0 force -178.04110922913 141621747.584375 -2765.1096204293 torque 0 0 0 radius 100 invMass 9.54929658551372e-11
BaseParticle id 45 indSpecies 0 position 300.000006301728 2499.68368650424 -100.000020051354 orientation 1 0 0 0 velocity -2.13570228617009e-07 0.0155170475609551 2.73401517528866e-07 angularVelocity 0 0 0 force 3932.60669423302 446567546.574811 21727.2338176201 torque 0 0 0 radius 100 invMass 9.54929658551372e-11
BaseParticle id 46 indSpecies 0 position 300.000006301266 2499.68368659149 100.000020019931 orientation 1 0 0 0 velocity -2.13755857578478e-07 0.0155173091396129 -2.98684476082403e-07 angularVelocity 0 0 0 force 3938.4751291731 446566736.262943 -21121.7155106763 torque 0 0 0 radius 100 invMass 9.54929658551372e-11
BaseParticle id 47 indSpecies 0 position 300.000019328572 2499.68465131179 300.000019204382 orientation 1 0 0 0 velocity 3.56176870105476e-06 0.00214792488420919 3.53659330766237e-06 angularVelocity 0 0 0 force -1918.50629262681 141614397.712826 1933.3073843013 torque 0 0 0 radius 100 invMass 9.54929658551372e-11
BaseParticle id 48 indSpecies 0 position -299.999997657929 2699.67674828371 -299.999997666236 orientation 1 0 0 0 velocity 2.07779842353204e-06 0.0184711736596227 2.06848474062047e-06 angularVelocity 0 0 0 force -60665.2475161365 -24235674.3721287 -60759.1490204232 torque 0 0 0 radius 100 invMass 9.54929658551372e-11
BaseParticle id 49 indSpecies 0 position -300.000004303951 2699.67813569741 -100.000001183525 orientation 1 0 0 0 velocity 1.10350247653259e-06 0.00139752416515699 -1.666847220874e-06 angularVelocity 0 0 0 force -19772.1192306614 69548925.2306356 73433.7973462055 torque 0 0 0 radius 100 invMass 9.54929658551372e-11
BaseParticle id 50 indSpecies 0 position -300.00000430386 2699.67813570194 100.000001172022 orientation 1 0 0 0 velocity 1.10378173585249e-06 0.00139817818863004 1.65699856835211e-06 angularVelocity 0 0 0 force -19785.3596441082 69556366.5419028 -73524.6754354106 torque 0 0 0 radius 100 invMass 9.54929658551372e-11
BaseParticle id 51 indSpecies 0 position -299.999997660277 2699.67674838923 299.999997652627 orientation 1 0 0 0 velocity 2.07926695621001e-06 0.0184705913477285 -2.06977869107273e-06 angularVelocity 0 0 0 force -60654.2709768794 -24248061.9848579 60749.2553193231 torque 0 0 0 radius 100 invMass 9.54929658551372e-11
BaseParticle id 52 indSpecies 0 position -100.000001173209 2699.67813564224 -300.000004301841 orientation 1 0 0 0 velocity -1.66071754549163e-06 0.00139659928635115 1.10462189771524e-06 angularVelocity 0 0 0 force 73444.7321943658 69537914.1530812 -20053.9340337962 torque 0 0 0 radius 100 invMass 9.54929658551372e-11
BaseParticle id 53 indSpecies 0 position -100.000007889536 2699.6489528324 -100.000007898995 orientation 1 0 0 0 velocity 4.18833032103714e-06 -0.00488777239767769 4.18011780786916e-06 angularVelocity 0 0 0 force 32292.3719220214 99578442.5743165 32475.2492123241 torque 0 0 0 radius 100 invMass 9.54929658551372e-11
BaseParticle id 54 indSpecies 0 position -100.000007890163 2699.64895268385 100.000007888268 orientation 1 0 0 0 velocity 4.18827078147345e-06 -0.00488773280198241 -4.18443207674508e-06 angularVelocity 0 0 0 force 32306.6681003328 99578751.9078714 -32593.4066132182 torque 0 0 0 radius 100 invMass 9.54929658551372e-11
BaseParticle id 55 indSpecies 0 position -100.00000117511 2699.67813573849 300.000004287481 orientation 1 0 0 0 velocity -1.66104465536804e-06 0.00139818573284221 -1.11111948242355e-06 angularVelocity 0 0 0 force 73436.970549167 69555997.6310285 20076.3308495956 torque 0 0 0 radius 100 invMass 9.54929658551372e-11
BaseParticle id 56 indSpecies 0 position 100.000001186815 2699.67813561352 -300.000004297857 orientation 1 0 0 0 velocity 1.66153635398081e-06 0.00139609048017595 1.10657910554219e-06 angularVelocity 0 0 0 force -73421.6628741217 69532292.1315124 -20104.2291503975 torque 0 0 0 radius 100 invMass 9.54929658551372e-11
BaseParticle id 57 indSpecies 0 position 100.000007903933 2699.64895301055 -100.000007897605 orientation 1 0 0 0 velocity -4.18279409579233e-06 -0.00488781065889759 4.18000134163619e-06 angularVelocity 0 0 0 force -32306.7210906418 99578090.6753481 32528.6159296868 torque 0 0 0 radius 100 invMass 9.54929658551372e-11
BaseParticle id 58 indSpecies 0 position 100.000007903999 2699.6489528116 100.000007887278 orientation 1 0 0 0 velocity -4.1830954107978e-06 -0.0048877794540003 -4.18401730614169e-06 angularVelocity 0 0 0 force -32302.3900970696 99578402.0539926 -32665.7805063587 torque 0 0 0 radius 100 invMass 9.54929658551372e-11
BaseParticle id 59 indSpecies 0 position 100.000001188103 2699.67813570738 300.000004282914 orientation 1 0 0 0 velocity 1.66255460335581e-06 0.0013977366574195 -1.11344785944627e-06 angularVelocity 0 0 0 force -73405.1146745511 69550870.0009784 20146.6397584782 torque 0 0 0 radius 100 invMass 9.54929658551372e-11
BaseParticle id 60 indSpecies 0 position 299.999997670005 2699.67674826148 -299.999997643176 orientation 1 0 0 0 velocity -2.06941755105601e-06 0.0184730777336255 2.05953296761103e-06 angularVelocity 0 0 0 force 60751.3727774888 -24205615.1282826 -60940.598301257 torque 0 0 0 radius 100 invMass 9.54929658551372e-11
BaseParticle id 61 indSpecies 0 position 300.000004315051 2699.6781356366 -100.000001169863 orientation 1 0 0 0 velocity -1.10022958400736e-06 0.00139594084571654 -1.64610804337587e-06 angularVelocity 0 0 0 force 19893.0070544637 69530495.5068514 73624.538709025 torque 0 0 0 radius 100 invMass 9.54929658551372e-11
BaseParticle id 62 indSpecies 0 position 300.000004315285 2699.67813572952 100.000001158323 orientation 1 0 0 0 velocity -1.10025457880827e-06 0.00139645979591537 1.63581886322815e-06 angularVelocity 0 0 0 force 19888.6604725265 69535355.7023444 -73718.8614974242 torque 0 0 0 radius 100 invMass 9.54929658551372e-11
BaseParticle id 63 indSpecies 0 position 299.999997672104 2699.6767483766 299.999997629277 orientation 1 0 0 0 velocity -2.07190026881727e-06 0.0184720770541388 -2.06058727603562e-06 angularVelocity 0 0 0 force 60734.7178336151 -24226138.0307804 60937.184305237 torque 0 0 0 radius 100 invMass 9.54929658551372e-11
BaseParticle id 64 indSpecies 0 position -300.000006967276 2899.66433612094 -300.000006970075 orientation 1 0 0 0 velocity -8.74599294574517e-07 -0.0101419067655971 -8.71091758431918e-07 angularVelocity 0 0 0 force 4862.16689443676 270966681.695962 4903.77073088585 torque 0 0 0 radius 100 invMass 9.54929658551372e-11
BaseParticle id 65 indSpecies 0 position -300.000015080811 2899.67205422827 -99.999998352921 orientation 1 0 0 0 velocity -2.12270802157939e-06 -0.00940648610999409 -6.7245225454616e-07 angularVelocity 0 0 0 force 4759.25109061065 157881864.685244 -64591.4108742382 torque 0 0 0 radius 100 invMass 9.54929658551372e-11
BaseParticle id 66 indSpecies 0 position -300.000015082525 2899.67205453242 99.9999983338624 orientation 1 0 0 0 velocity -2.12257681391777e-06 -0.00940682516040252 6.77918850399116e-07 angularVelocity 0 0 0 force 4759.7510889615 157876870.09579 64635.581876283 torque 0 0 0 radius 100 invMass 9.54929658551372e-11
BaseParticle id 67 indSpecies 0 position -300.000006968307 2899.66433557989 300.000006968234 orientation 1 0 0 0 velocity -8.7404452712167e-07 -0.0101411555261778 8.75891577121629e-07 angularVelocity 0 0 0 force 4863.65105314066 270979144.868946 -4860.5593360121 torque 0 0 0 radius 100 invMass 9.54929658551372e-11
BaseParticle id 68 indSpecies 0 position -99.9999983376669 2899.67205377207 -300.000015081796 orientation 1 0 0 0 velocity -6.70277433933448e-07 -0.00940606592692364 -2.11912881659636e-06 angularVelocity 0 0 0 force -64701.4624455161 157888357.346057 4801.75025672329 torque 0 0 0 radius 100 invMass 9.54929658551372e-11
BaseParticle id 69 indSpecies 0 position -100.000000093297 2899.66748415001 -100.000000111971 orientation 1 0 0 0 velocity -3.6749765729596e-06 -0.0149182156432204 -3.66663962360279e-06 angularVelocity 0 0 0 force 1586.95654277439 49249991.4272491 1630.02967401066 torque 0 0 0 radius 100 invMass 9.54929658551372e-11
BaseParticle id 70 indSpecies 0 position -100.000000091177 2899.66748423795 100.000000098154 orientation 1 0 0 0 velocity -3.67578350630066e-06 -0.0149181581309152 3.67302831198912e-06 angularVelocity 0 0 0 force 1587.23891736561 49250312.7588717 -1585.02093417749 torque 0 0 0 radius 100 invMass 9.54929658551372e-11
BaseParticle id 71 indSpecies 0 position -99.9999983356022 2899.6720545643 300.000015074786 orientation 1 0 0 0 velocity -6.66257909224506e-07 -0.00940682582957083 2.12301790074443e-06 angularVelocity 0 0 0 force -64739.4105854069 157876934.550141 -4757.74519086396 torque 0 0 0 radius 100 invMass 9.54929658551372e-11
BaseParticle id 72 indSpecies 0 position 99.9999983457378 2899.67205353038 -300.000015079923 orientation 1 0 0 0 velocity 6.64020554781754e-07 -0.0094058455343398 -2.11879207974577e-06 angularVelocity 0 0 0 force 64660.5348997905 157891788.907589 4802.79933653975 torque 0 0 0 radius 100 invMass 9.54929658551372e-11
BaseParticle id 73 indSpecies 0 position 100.000000101756 2899.66748403655 -100.000000113413 orientation 1 0 0 0 velocity 3.66877377986665e-06 -0.0149182774824385 -3.6662128171458e-06 angularVelocity 0 0 0 force -1627.87177110823 49249649.490368 1630.53166352955 torque 0 0 0 radius 100 invMass 9.54929658551372e-11
BaseParticle id 74 indSpecies 0 position 100.000000099923 2899.66748411412 100.000000099134 orientation 1 0 0 0 velocity 3.66945256032126e-06 -0.0149182314615729 3.67275295934454e-06 angularVelocity 0 0 0 force -1627.80838131485 49249971.6912132 -1585.08976661912 torque 0 0 0 radius 100 invMass 9.54929658551372e-11
BaseParticle id 75 indSpecies 0 position 99.999998345863 2899.67205433988 300.000015073227 orientation 1 0 0 0 velocity 6.59823705283418e-07 -0.00940663573077675 2.12256283150756e-06 angularVelocity 0 0 0 force 64699.5191894089 157880019.433705 -4758.37879751778 torque 0 0 0 radius 100 invMass 9.54929658551372e-11
BaseParticle id 76 indSpecies 0 position 300.000006976106 2899.66433797032 -300.000006925171 orientation 1 0 0 0 velocity 8.68295566247817e-07 -0.0101437034921579 -8.6516811012847e-07 angularVelocity 0 0 0 force -4902.72343517739 270932378.628087 4906.9037225967 torque 0 0 0 radius 100 invMass 9.54929658551372e-11
BaseParticle id 77 indSpecies 0 position 300.000015089293 2899.67205348994 -99.9999983588133 orientation 1 0 0 0 velocity 2.11639653935045e-06 -0.00940575851348661 -6.969389995887e-07 angularVelocity 0 0 0 force -4799.73972690083 157892899.262924 -64412.3820823672 torque 0 0 0 radius 100 invMass 9.54929658551372e-11
BaseParticle id 78 indSpecies 0 position 300.000015090722 2899.67205379632 99.9999983368474 orientation 1 0 0 0 velocity 2.11632606319967e-06 -0.00940597945271016 7.02570772440961e-07 angularVelocity 0 0 0 force -4799.88257168606 157889438.746132 64457.8503368401 torque 0 0 0 radius 100 invMass 9.54929658551372e-11
BaseParticle id 79 indSpecies 0 position 300.000006974815 2899.66433696803 300.000006925958 orientation 1 0 0 0 velocity 8.67713423978839e-07 -0.0101425646601564 8.69907668118421e-07 angularVelocity 0 0 0 force -4903.14426660888 270953217.873436 -4862.44643371307 torque 0 0 0 radius 100 invMass 9.54929658551372e-11
BaseParticle id 80 indSpecies 0 position -300.000041660321 3099.67739061721 -300.000041669433 orientation 1 0 0 0 velocity -2.34178104388651e-06 -0.0135875076023275 -2.33041862010413e-06 angularVelocity 0 0 0 force 715.093868932449 6699258.29716974 841.289341493595 torque 0 0 0 radius 100 invMass 9.54929658551372e-11
BaseParticle id 81 indSpecies 0 position -300.00002643723 3099.68233176497 -100.000013931923 orientation 1 0 0 0 velocity -3.05120267755578e-06 -0.0119663239475196 1.15585771775499e-06 angularVelocity 0 0 0 force 683.407251589798 6682809.25223904 330.797185175719 torque 0 0 0 radius 100 invMass 9.54929658551372e-11
BaseParticle id 82 indSpecies 0 position -300.000026448133 3099.68233218169 100.000013924633 orientation 1 0 0 0 velocity -3.05205741821716e-06 -0.0119662340226492 -1.14341197266823e-06 angularVelocity 0 0 0 force 683.739096984851 6683061.44476373 -205.570858294551 torque 0 0 0 radius 100 invMass 9.54929658551372e-11
BaseParticle id 83 indSpecies 0 position -300.000041660263 3099.67739123876 300.000041660452 orientation 1 0 0 0 velocity -2.34145781910837e-06 -0.0135872588847375 2.34281977369344e-06 angularVelocity 0 0 0 force 716.081857948188 6700002.13381885 -715.097589282476 torque 0 0 0 radius 100 invMass 9.54929658551372e-11
BaseParticle id 84 indSpecies 0 position -100.000013924866 3099.68235145983 -300.00002635357 orientation 1 0 0 0 velocity 1.14355905153421e-06 -0.0119585819440659 -3.0300053026673e-06 angularVelocity 0 0 0 force 205.803485886443 6682332.23773526 808.367780481473 torque 0 0 0 radius 100 invMass 9.54929658551372e-11
BaseParticle id 85 indSpecies 0 position -100.000018279755 3099.68404953818 -100.000018338302 orientation 1 0 0 0 velocity -2.69445190705102e-06 -0.00853884040923334 -2.68800250366351e-06 angularVelocity 0 0 0 force 195.118847645832 6675427.03120072 318.971905665954 torque 0 0 0 radius 100 invMass 9.54929658551372e-11
BaseParticle id 86 indSpecies 0 position -100.000018280596 3099.68404966822 100.000018263289 orientation 1 0 0 0 velocity -2.69468877393739e-06 -0.00853879116045117 2.69449490709863e-06 angularVelocity 0 0 0 force 195.270817342907 6675670.86011379 -194.660763258195 torque 0 0 0 radius 100 invMass 9.54929658551372e-11
BaseParticle id 87 indSpecies 0 position -100.000013924612 3099.6823320123 300.000026412311 orientation 1 0 0 0 velocity 1.14367092385673e-06 -0.0119662749397573 3.04808533900986e-06 angularVelocity 0 0 0 force 206.254532489448 6683057.04748797 -683.140713845655 torque 0 0 0 radius 100 invMass 9.54929658551372e-11
BaseParticle id 88 indSpecies 0 position 100.000013929035 3099.68235146712 -300.000026362976 orientation 1 0 0 0 velocity -1.15684094504963e-06 -0.0119586039914065 -3.03110062398992e-06 angularVelocity 0 0 0 force -330.428939284728 6682074.46634927 808.708615897555 torque 0 0 0 radius 100 invMass 9.54929658551372e-11
BaseParticle id 89 indSpecies 0 position 100.000018344427 3099.68404934188 -100.000018341219 orientation 1 0 0 0 velocity 2.68833211799186e-06 -0.0085389126341294 -2.68802324059897e-06 angularVelocity 0 0 0 force -318.407998576856 6675178.12395061 319.168785852646 torque 0 0 0 radius 100 invMass 9.54929658551372e-11
BaseParticle id 90 indSpecies 0 position 100.000018348339 3099.68404952173 100.000018266101 orientation 1 0 0 0 velocity 2.68810679346892e-06 -0.0085388525461303 2.69454282766527e-06 angularVelocity 0 0 0 force -318.4359572609 6675422.13938084 -194.626400623431 torque 0 0 0 radius 100 invMass 9.54929658551372e-11