<?xml version="1.0"?>
<VTKFile type="UnstructuredGrid" version="0.1" byte_order="LittleEndian" compressor="vtkZLibDataCompressor">
<UnstructuredGrid>
<Piece NumberOfPoints="960" NumberOfCells="120">
<Points>
<DataArray type="Float32" NumberOfComponents="3" format="ascii">
-4.000000e+02 -6.000000e+03 -4.000000e+02
0.000000e+00 -6.000000e+03 -4.000000e+02
-4.000000e+02 -5.600000e+03 -4.000000e+02
2.586210e-11 -5.600000e+03 -4.000000e+02
-4.000000e+02 -6.000000e+03 0.000000e+00
0.000000e+00 -6.000000e+03 0.000000e+00
-4.000000e+02 -5.600000e+03 1.922550e-10
3.194800e-10 -5.600000e+03 -6.040930e-11
0.000000e+00 -6.000000e+03 -4.000000e+02
4.000000e+02 -6.000000e+03 -4.000000e+02
2.586210e-11 -5.600000e+03 -4.000000e+02
4.000000e+02 -5.600000e+03 -4.000000e+02
0.000000e+00 -6.000000e+03 0.000000e+00
4.000000e+02 -6.000000e+03 0.000000e+00
3.194800e-10 -5.600000e+03 -6.040930e-11
4.000000e+02 -5.600000e+03 1.329400e-10
-4.000000e+02 -5.600000e+03 -4.000000e+02
2.586210e-11 -5.600000e+03 -4.000000e+02
-4.000000e+02 -5.200000e+03 -4.000000e+02
6.175930e-11 -5.200000e+03 -4.000000e+02
-4.000000e+02 -5.600000e+03 1.922550e-10
3.194800e-10 -5.600000e+03 -6.040930e-11
-4.000000e+02 -5.200000e+03 -1.203780e-10
-6.151170e-11 -5.200000e+03 2.655280e-10
2.586210e-11 -5.600000e+03 -4.000000e+02
4.000000e+02 -5.600000e+03 -4.000000e+02
6.175930e-11 -5.200000e+03 -4.000000e+02
4.000000e+02 -5.200000e+03 -4.000000e+02
3.194800e-10 -5.600000e+03 -6.040930e-11
4.000000e+02 -5.600000e+03 1.329400e-10
-6.151170e-11 -5.200000e+03 2.655280e-10
4.000000e+02 -5.200000e+03 5.787310e-10
-4.000000e+02 -5.200000e+03 -4.000000e+02
6.175930e-11 -5.200000e+03 -4.000000e+02
-4.000000e+02 -4.800000e+03 -4.000000e+02
3.990720e-11 -4.800000e+03 -4.000000e+02
-4.000000e+02 -5.200000e+03 -1.203780e-10
-6.151170e-11 -5.200000e+03 2.655280e-10
-4.000000e+02 -4.800000e+03 4.968880e-11
5.937870e-11 -4.800000e+03 8.971170e-11
6.175930e-11 -5.200000e+03 -4.000000e+02
4.000000e+02 -5.200000e+03 -4.000000e+02
3.990720e-11 -4.800000e+03 -4.000000e+02
4.000000e+02 -4.800000e+03 -4.000000e+02
-6.151170e-11 -5.200000e+03 2.655280e-10
4.000000e+02 -5.200000e+03 5.787310e-10
5.937870e-11 -4.800000e+03 8.971170e-11
4.000000e+02 -4.800000e+03 1.008570e-09
-4.000000e+02 -4.800000e+03 -4.000000e+02
3.990720e-11 -4.800000e+03 -4.000000e+02
-4.000000e+02 -4.400000e+03 -4.000000e+02
7.749570e-10 -4.400000e+03 -4.000000e+02
-4.000000e+02 -4.800000e+03 4.968880e-11
5.937870e-11 -4.800000e+03 8.971170e-11
-4.000000e+02 -4.400000e+03 7.494760e-10
4.695140e-10 -4.400000e+03 7.795150e-10
3.990720e-11 -4.800000e+03 -4.000000e+02
4.000000e+02 -4.800000e+03 -4.000000e+02
7.749570e-10 -4.400000e+03 -4.000000e+02
4.000000e+02 -4.400000e+03 -4.000000e+02
5.937870e-11 -4.800000e+03 8.971170e-11
4.000000e+02 -4.800000e+03 1.008570e-09
4.695140e-10 -4.400000e+03 7.795150e-10
4.000000e+02 -4.400000e+03 5.011740e-10
-4.000000e+02 -4.400000e+03 -4.000000e+02
7.749570e-10 -4.400000e+03 -4.000000e+02
-4.000000e+02 -4.000000e+03 -4.000000e+02
8.377450e-10 -4.000000e+03 -4.000000e+02
-4.000000e+02 -4.400000e+03 7.494760e-10
4.695140e-10 -4.400000e+03 7.795150e-10
-4.000000e+02 -4.000000e+03 1.097880e-09
7.449550e-10 -4.000000e+03 1.665970e-09
7.749570e-10 -4.400000e+03 -4.000000e+02
4.000000e+02 -4.400000e+03 -4.000000e+02
8.377450e-10 -4.000000e+03 -4.000000e+02
4.000000e+02 -4.000000e+03 -4.000000e+02
4.695140e-10 -4.400000e+03 7.795150e-10
4.000000e+02 -4.400000e+03 5.011740e-10
7.449550e-10 -4.000000e+03 1.665970e-09
4.000000e+02 -4.000000e+03 1.255290e-09
-4.000000e+02 -4.000000e+03 -4.000000e+02
8.377450e-10 -4.000000e+03 -4.000000e+02
-4.000000e+02 -3.600000e+03 -4.000000e+02
5.206680e-10 -3.600000e+03 -4.000000e+02
-4.000000e+02 -4.000000e+03 1.097880e-09
7.449550e-10 -4.000000e+03 1.665970e-09
-4.000000e+02 -3.600000e+03 1.804950e-09
7.792550e-10 -3.600000e+03 2.149300e-09
8.377450e-10 -4.000000e+03 -4.000000e+02
4.000000e+02 -4.000000e+03 -4.000000e+02
5.206680e-10 -3.600000e+03 -4.000000e+02
4.000000e+02 -3.600000e+03 -4.000000e+02
7.449550e-10 -4.000000e+03 1.665970e-09
4.000000e+02 -4.000000e+03 1.255290e-09
7.792550e-10 -3.600000e+03 2.149300e-09
4.000000e+02 -3.600000e+03 2.002690e-09
-4.000000e+02 -3.600000e+03 -4.000000e+02
5.206680e-10 -3.600000e+03 -4.000000e+02
-4.000000e+02 -3.200000e+03 -4.000000e+02
7.212990e-10 -3.200000e+03 -4.000000e+02
-4.000000e+02 -3.600000e+03 1.804950e-09
7.792550e-10 -3.600000e+03 2.149300e-09
-4.000000e+02 -3.200000e+03 2.693860e-09
6.725670e-10 -3.200000e+03 2.517910e-09
5.206680e-10 -3.600000e+03 -4.000000e+02
4.000000e+02 -3.600000e+03 -4.000000e+02
7.212990e-10 -3.200000e+03 -4.000000e+02
4.000000e+02 -3.200000e+03 -4.000000e+02
7.792550e-10 -3.600000e+03 2.149300e-09
4.000000e+02 -3.600000e+03 2.002690e-09
6.725670e-10 -3.200000e+03 2.517910e-09
4.000000e+02 -3.200000e+03 2.348550e-09
-4.000000e+02 -3.200000e+03 -4.000000e+02
7.212990e-10 -3.200000e+03 -4.000000e+02
-4.000000e+02 -2.800000e+03 -4.000000e+02
4.502370e-10 -2.800000e+03 -4.000000e+02
-4.000000e+02 -3.200000e+03 2.693860e-09
6.725670e-10 -3.200000e+03 2.517910e-09
-4.000000e+02 -2.800000e+03 3.120240e-09
6.993450e-10 -2.800000e+03 2.805830e-09
7.212990e-10 -3.200000e+03 -4.000000e+02
4.000000e+02 -3.200000e+03 -4.000000e+02
4.502370e-10 -2.800000e+03 -4.000000e+02
4.000000e+02 -2.800000e+03 -4.000000e+02
6.725670e-10 -3.200000e+03 2.517910e-09
4.000000e+02 -3.200000e+03 2.348550e-09
6.993450e-10 -2.800000e+03 2.805830e-09
4.000000e+02 -2.800000e+03 2.694090e-09
-4.000000e+02 -2.800000e+03 -4.000000e+02
4.502370e-10 -2.800000e+03 -4.000000e+02
-4.000000e+02 -2.400000e+03 -4.000000e+02
-7.866870e-11 -2.400000e+03 -4.000000e+02
-4.000000e+02 -2.800000e+03 3.120240e-09
6.993450e-10 -2.800000e+03 2.805830e-09
-4.000000e+02 -2.400000e+03 2.822700e-09
1.023820e-10 -2.400000e+03 2.777950e-09
4.502370e-10 -2.800000e+03 -4.000000e+02
4.000000e+02 -2.800000e+03 -4.000000e+02
-7.866870e-11 -2.400000e+03 -4.000000e+02
4.000000e+02 -2.400000e+03 -4.000000e+02
6.993450e-10 -2.800000e+03 2.805830e-09
4.000000e+02 -2.800000e+03 2.694090e-09
1.023820e-10 -2.400000e+03 2.777950e-09
4.000000e+02 -2.400000e+03 2.569540e-09
-4.000000e+02 -2.400000e+03 -4.000000e+02
-7.866870e-11 -2.400000e+03 -4.000000e+02
-4.000000e+02 -2.000000e+03 -4.000000e+02
-3.841880e-11 -2.000000e+03 -4.000000e+02
-4.000000e+02 -2.400000e+03 2.822700e-09
1.023820e-10 -2.400000e+03 2.777950e-09
-4.000000e+02 -2.000000e+03 2.574860e-09
-2.134970e-10 -2.000000e+03 2.505640e-09
-7.866870e-11 -2.400000e+03 -4.000000e+02
4.000000e+02 -2.400000e+03 -4.000000e+02
-3.841880e-11 -2.000000e+03 -4.000000e+02
4.000000e+02 -2.000000e+03 -4.000000e+02
1.023820e-10 -2.400000e+03 2.777950e-09
4.000000e+02 -2.400000e+03 2.569540e-09
-2.134970e-10 -2.000000e+03 2.505640e-09
4.000000e+02 -2.000000e+03 2.522550e-09
-4.000000e+02 -2.000000e+03 -4.000000e+02
-3.841880e-11 -2.000000e+03 -4.000000e+02
-4.000000e+02 -1.600010e+03 -4.000000e+02
-7.553490e-11 -1.600010e+03 -4.000000e+02
-4.000000e+02 -2.000000e+03 2.574860e-09
-2.134970e-10 -2.000000e+03 2.505640e-09
-4.000000e+02 -1.600010e+03 2.694670e-09
-4.761080e-10 -1.600010e+03 2.569860e-09
-3.841880e-11 -2.000000e+03 -4.000000e+02
4.000000e+02 -2.000000e+03 -4.000000e+02
-7.553490e-11 -1.600010e+03 -4.000000e+02
4.000000e+02 -1.600010e+03 -4.000000e+02
-2.134970e-10 -2.000000e+03 2.505640e-09
4.000000e+02 -2.000000e+03 2.522550e-09
-4.761080e-10 -1.600010e+03 2.569860e-09
4.000000e+02 -1.600010e+03 2.733290e-09
-4.000000e+02 -1.600010e+03 -4.000000e+02
-7.553490e-11 -1.600010e+03 -4.000000e+02
-4.000000e+02 -1.200010e+03 -4.000000e+02
-1.191610e-09 -1.200010e+03 -4.000000e+02
-4.000000e+02 -1.600010e+03 2.694670e-09
-4.761080e-10 -1.600010e+03 2.569860e-09
-4.000000e+02 -1.200010e+03 2.059560e-09
-7.473060e-10 -1.200010e+03 2.367890e-09
-7.553490e-11 -1.600010e+03 -4.000000e+02
4.000000e+02 -1.600010e+03 -4.000000e+02
-1.191610e-09 -1.200010e+03 -4.000000e+02
4.000000e+02 -1.200010e+03 -4.000000e+02
-4.761080e-10 -1.600010e+03 2.569860e-09
4.000000e+02 -1.600010e+03 2.733290e-09
-7.473060e-10 -1.200010e+03 2.367890e-09
4.000000e+02 -1.200010e+03 2.729580e-09
-4.000000e+02 -1.200010e+03 -4.000000e+02
-1.191610e-09 -1.200010e+03 -4.000000e+02
-4.000000e+02 -8.000110e+02 -4.000000e+02
-3.450100e-10 -8.000110e+02 -4.000000e+02
-4.000000e+02 -1.200010e+03 2.059560e-09
-7.473060e-10 -1.200010e+03 2.367890e-09
-4.000000e+02 -8.000110e+02 1.331740e-09
-3.335060e-10 -8.000110e+02 1.407670e-09
-1.191610e-09 -1.200010e+03 -4.000000e+02
4.000000e+02 -1.200010e+03 -4.000000e+02
-3.450100e-10 -8.000110e+02 -4.000000e+02
4.000000e+02 -8.000110e+02 -4.000000e+02
-7.473060e-10 -1.200010e+03 2.367890e-09
4.000000e+02 -1.200010e+03 2.729580e-09
-3.335060e-10 -8.000110e+02 1.407670e-09
4.000000e+02 -8.000110e+02 1.638810e-09
-4.000000e+02 -8.000110e+02 -4.000000e+02
-3.450100e-10 -8.000110e+02 -4.000000e+02
-4.000000e+02 -4.000190e+02 -4.000000e+02
-2.549830e-10 -4.000190e+02 -4.000000e+02
-4.000000e+02 -8.000110e+02 1.331740e-09
-3.335060e-10 -8.000110e+02 1.407670e-09
-4.000000e+02 -4.000190e+02 4.705870e-10
-4.370230e-10 -4.000190e+02 4.350180e-10
-3.450100e-10 -8.000110e+02 -4.000000e+02
4.000000e+02 -8.000110e+02 -4.000000e+02
-2.549830e-10 -4.000190e+02 -4.000000e+02
4.000000e+02 -4.000190e+02 -4.000000e+02
-3.335060e-10 -8.000110e+02 1.407670e-09
4.000000e+02 -8.000110e+02 1.638810e-09
-4.370230e-10 -4.000190e+02 4.350180e-10
4.000000e+02 -4.000190e+02 5.694700e-10
-4.000000e+02 -4.000190e+02 -4.000000e+02
-2.549830e-10 -4.000190e+02 -4.000000e+02
-4.000000e+02 -3.280550e-02 -4.000000e+02
-9.524380e-10 -3.280680e-02 -4.000000e+02
-4.000000e+02 -4.000190e+02 4.705870e-10
-4.370230e-10 -4.000190e+02 4.350180e-10
-4.000000e+02 -3.280680e-02 1.961840e-10
-6.117350e-10 -3.280800e-02 2.110860e-10
-2.549830e-10 -4.000190e+02 -4.000000e+02
4.000000e+02 -4.000190e+02 -4.000000e+02
-9.524380e-10 -3.280680e-02 -4.000000e+02
4.000000e+02 -3.280550e-02 -4.000000e+02
-4.370230e-10 -4.000190e+02 4.350180e-10
[...]
<PointData>
<DataArray type="Float32" Name="V1" format="ascii">
0.000000e+00
0.000000e+00
-2.827480e-07
8.170550e-11
0.000000e+00
0.000000e+00
-1.362560e-07
1.234690e-11
0.000000e+00
0.000000e+00
8.170550e-11
2.827550e-07
0.000000e+00
0.000000e+00
1.234690e-11
1.366020e-07
-2.827480e-07
8.170550e-11
-2.238400e-06
2.476130e-10
-1.362560e-07
1.234690e-11
-2.433260e-06
7.811310e-11
8.170550e-11
2.827550e-07
2.476130e-10
2.238830e-06
1.234690e-11
1.366020e-07
7.811310e-11
2.433770e-06
-2.238400e-06
2.476130e-10
6.651280e-07
-3.718780e-10
-2.433260e-06
7.811310e-11
6.390630e-07
9.602590e-11
2.476130e-10
2.238830e-06
-3.718780e-10
-6.658820e-07
7.811310e-11
2.433770e-06
9.602590e-11
-6.387960e-07
6.651280e-07
-3.718780e-10
1.882990e-07
-7.273490e-10
6.390630e-07
9.602590e-11
3.667090e-07
2.365690e-10
-3.718780e-10
-6.658820e-07
-7.273490e-10
-1.894700e-07
9.602590e-11
-6.387960e-07
2.365690e-10
-3.662690e-07
1.882990e-07
-7.273490e-10
-3.709740e-06
-5.518040e-10
3.667090e-07
2.365690e-10
-3.625900e-06
1.658410e-10
-7.273490e-10
-1.894700e-07
-5.518040e-10
3.708560e-06
2.365690e-10
-3.662690e-07
1.658410e-10
3.625960e-06
-3.709740e-06
-5.518040e-10
3.621160e-06
-2.446100e-10
-3.625900e-06
1.658410e-10
3.383850e-06
3.636900e-10
-5.518040e-10
3.708560e-06
-2.446100e-10
-3.621330e-06
1.658410e-10
3.625960e-06
3.636900e-10
-3.382850e-06
3.621160e-06
-2.446100e-10
9.891020e-07
3.525190e-10
3.383850e-06
3.636900e-10
1.088530e-06
-1.991650e-10
-2.446100e-10
-3.621330e-06
3.525190e-10
-9.890230e-07
3.636900e-10
-3.382850e-06
-1.991650e-10
-1.088550e-06
9.891020e-07
3.525190e-10
2.735250e-07
3.482050e-11
1.088530e-06
-1.991650e-10
2.691500e-07
-1.755390e-10
3.525190e-10
-9.890230e-07
3.482050e-11
-2.733210e-07
-1.991650e-10
-1.088550e-06
-1.755390e-10
-2.691570e-07
2.735250e-07
3.482050e-11
-3.481120e-06
2.157940e-10
2.691500e-07
-1.755390e-10
-3.459070e-06
2.032560e-10
3.482050e-11
-2.733210e-07
2.157940e-10
3.482090e-06
-1.755390e-10
-2.691570e-07
2.032560e-10
3.459650e-06
-3.481120e-06
2.157940e-10
4.145650e-07
-2.964810e-10
-3.459070e-06
2.032560e-10
5.029570e-07
-5.964690e-11
2.157940e-10
3.482090e-06
-2.964810e-10
-4.147610e-07
2.032560e-10
3.459650e-06
-5.964690e-11
-5.032240e-07
4.145650e-07
-2.964810e-10
2.236610e-06
8.277420e-11
5.029570e-07
-5.964690e-11
1.986850e-06
-4.386370e-10
-2.964810e-10
-4.147610e-07
8.277420e-11
-2.236380e-06
-5.964690e-11
-5.032240e-07
-4.386370e-10
-1.987830e-06
2.236610e-06
8.277420e-11
9.049370e-07
-4.730730e-11
1.986850e-06
-4.386370e-10
1.341730e-06
-3.003750e-10
8.277420e-11
-2.236380e-06
-4.730730e-11
-9.054320e-07
-4.386370e-10
-1.987830e-06
-3.003750e-10
-1.342310e-06
9.049370e-07
-4.730730e-11
8.163960e-07
1.225080e-10
1.341730e-06
-3.003750e-10
3.664730e-07
9.467810e-10
-4.730730e-11
-9.054320e-07
1.225080e-10
-8.161920e-07
-3.003750e-10
-1.342310e-06
9.467810e-10
-3.646820e-07
8.163960e-07
1.225080e-10
-3.937510e-06
2.195450e-10
3.664730e-07
9.467810e-10
-4.165590e-06
-4.127580e-10
1.225080e-10
-8.161920e-07
2.195450e-10
3.937700e-06
9.467810e-10
-3.646820e-07
-4.127580e-10
4.164850e-06
-3.937510e-06
2.195450e-10
-4.066470e-07
-2.168310e-10
-4.165590e-06
-4.127580e-10
-1.054780e-07
-7.466390e-10
2.195450e-10
3.937700e-06
-2.168310e-10
4.055780e-07
-4.127580e-10
4.164850e-06
-7.466390e-10
1.040480e-07
-4.066470e-07
-2.168310e-10
4.359970e-06
2.642040e-10
-1.054780e-07
-7.466390e-10
4.516780e-06
6.237390e-10
-2.168310e-10
4.055780e-07
2.642040e-10
-4.359020e-06
-7.466390e-10
1.040480e-07
6.237390e-10
-4.515560e-06
4.359970e-06
2.642040e-10
2.240420e-08
-2.354390e-10
4.516780e-06
6.237390e-10
-2.004760e-08
-9.072630e-11
2.642040e-10
-4.359020e-06
-2.354390e-10
-2.299340e-08
6.237390e-10
-4.515560e-06
-9.072630e-11
1.942700e-08
2.240420e-08
-2.354390e-10
1.130110e-07
-4.632800e-10
-2.004760e-08
-9.072630e-11
2.913890e-07
-6.540810e-11
-2.354390e-10
-2.299340e-08
-4.632800e-10
-1.141820e-07
-9.072630e-11
1.942700e-08
-6.540810e-11
-2.916870e-07
1.130110e-07
-4.632800e-10
-3.385850e-06
3.519640e-11
2.913890e-07
-6.540810e-11
-3.646250e-06
-2.527810e-10
-4.632800e-10
-1.141820e-07
3.519640e-11
3.385750e-06
-6.540810e-11
-2.916870e-07
-2.527810e-10
3.645400e-06
-3.385850e-06
3.519640e-11
-7.421370e-07
4.716670e-10
-3.646250e-06
-2.527810e-10
-7.712810e-07
1.732960e-10
3.519640e-11
3.385750e-06
4.716670e-10
7.430800e-07
-2.527810e-10
3.645400e-06
1.732960e-10
7.716350e-07
-7.421370e-07
4.716670e-10
5.306590e-06
3.219000e-09
-7.712810e-07
1.732960e-10
5.511990e-06
3.198830e-09
4.716670e-10
7.430800e-07
3.219000e-09
-5.300070e-06
1.732960e-10
7.716350e-07
3.198830e-09
-5.505550e-06
5.306590e-06
3.219000e-09
6.810040e-07
1.045050e-09
5.511990e-06
3.198830e-09
6.777290e-07
9.243410e-10
3.219000e-09
-5.300070e-06
1.045050e-09
-6.788680e-07
3.198830e-09
-5.505550e-06
9.243410e-10
-6.758430e-07
6.810040e-07
1.045050e-09
-3.747800e-06
-3.853630e-09
6.777290e-07
9.243410e-10
-3.780360e-06
-3.977780e-09
1.045050e-09
-6.788680e-07
-3.853630e-09
3.740100e-06
9.243410e-10
-6.758430e-07
-3.977780e-09
3.772420e-06
-3.747800e-06
-3.853630e-09
-1.643160e-07
-2.773040e-10
-3.780360e-06
-3.977780e-09
-1.455330e-07
-3.127320e-10
-3.853630e-09
3.740100e-06
-2.773040e-10
1.637580e-07
-3.977780e-09
3.772420e-06
-3.127320e-10
1.449130e-07
-1.643160e-07
-2.773040e-10
1.729640e-06
2.057320e-09
-1.455330e-07
-3.127320e-10
1.717620e-06
2.084940e-09
-2.773040e-10
1.637580e-07
2.057320e-09
-1.725520e-06
-3.127320e-10
1.449130e-07
2.084940e-09
-1.713450e-06
1.729640e-06
2.057320e-09
1.799650e-07
-9.505190e-10
1.717620e-06
2.084940e-09
2.013950e-07
-9.483790e-10
2.057320e-09
-1.725520e-06
-9.505190e-10
-1.818420e-07
2.084940e-09
-1.713450e-06
-9.483790e-10
-2.032960e-07
1.799650e-07
-9.505190e-10
-7.776290e-07
-1.283710e-09
2.013950e-07
-9.483790e-10
-8.207320e-07
-1.291960e-09
-9.505190e-10
-1.818420e-07
-1.283710e-09
7.750600e-07
-9.483790e-10
-2.032960e-07
-1.291960e-09
8.181320e-07
-7.776290e-07
-1.283710e-09
6.549470e-07
-2.106560e-10
-8.207320e-07
-1.291960e-09
5.265080e-07
-2.124000e-10
-1.283710e-09
7.750600e-07
-2.106560e-10
-6.553710e-07
-1.291960e-09
8.181320e-07
-2.124000e-10
-5.269320e-07
6.549470e-07
-2.106560e-10
4.608110e-07
3.002530e-10
5.265080e-07
-2.124000e-10
5.012130e-07
2.997820e-10
-2.106560e-10
-6.553710e-07
3.002530e-10
-4.602220e-07
-2.124000e-10
-5.269320e-07
2.997820e-10
-5.006080e-07
4.608110e-07
3.002530e-10
-1.076140e-06
5.134160e-10
5.012130e-07
2.997820e-10
-8.433170e-07
5.167140e-10
3.002530e-10
-4.602220e-07
5.134160e-10
1.077170e-06
2.997820e-10
-5.006080e-07
5.167140e-10
8.443540e-07
0.000000e+00
0.000000e+00
-1.362560e-07
1.234690e-11
0.000000e+00
0.000000e+00
-2.825590e-07
2.416280e-10
0.000000e+00
0.000000e+00
1.234690e-11
1.366020e-07
0.000000e+00
0.000000e+00
2.416280e-10
2.826140e-07
-1.362560e-07
1.234690e-11
-2.433260e-06
7.811310e-11
-2.825590e-07
2.416280e-10
-2.238860e-06
-7.620110e-11
1.234690e-11
1.366020e-07
7.811310e-11
2.433770e-06
2.416280e-10
2.826140e-07
-7.620110e-11
2.238310e-06
-2.433260e-06
7.811310e-11
6.390630e-07
9.602590e-11
-2.238860e-06
-7.620110e-11
6.655210e-07
2.033160e-10
7.811310e-11
2.433770e-06
9.602590e-11
-6.387960e-07
-7.620110e-11
2.238310e-06
2.033160e-10
-6.651050e-07
6.390630e-07
9.602590e-11
3.667090e-07
2.365690e-10
6.655210e-07
2.033160e-10
1.878830e-07
-1.594660e-10
9.602590e-11
-6.387960e-07
2.365690e-10
-3.662690e-07
2.033160e-10
-6.651050e-07
-1.594660e-10
-1.885740e-07
3.667090e-07
2.365690e-10
-3.625900e-06
1.658410e-10
1.878830e-07
-1.594660e-10
-3.708920e-06
-2.911010e-10
2.365690e-10
-3.662690e-07
1.658410e-10
3.625960e-06
-1.594660e-10
-1.885740e-07
-2.911010e-10
3.708820e-06
-3.625900e-06
1.658410e-10
3.383850e-06
3.636900e-10
-3.708920e-06
-2.911010e-10
3.620270e-06
-1.070790e-10
1.658410e-10
3.625960e-06
3.636900e-10
-3.382850e-06
-2.911010e-10
3.708820e-06
-1.070790e-10
-3.620930e-06
3.383850e-06
3.636900e-10
1.088530e-06
-1.991650e-10
3.620270e-06
-1.070790e-10
9.898330e-07
7.827770e-11
3.636900e-10
-3.382850e-06
-1.991650e-10
-1.088550e-06
-1.070790e-10
-3.620930e-06
7.827770e-11
-9.898330e-07
1.088530e-06
-1.991650e-10
2.691500e-07
-1.755390e-10
9.898330e-07
7.827770e-11
2.730930e-07
-4.031360e-10
-1.991650e-10
-1.088550e-06
-1.755390e-10
-2.691570e-07
7.827770e-11
-9.898330e-07
-4.031360e-10
-2.739810e-07
2.691500e-07
-1.755390e-10
-3.459070e-06
2.032560e-10
2.730930e-07
-4.031360e-10
-3.482170e-06
4.148950e-11
-1.755390e-10
-2.691570e-07
2.032560e-10
3.459650e-06
-4.031360e-10
-2.739810e-07
4.148950e-11
3.482350e-06
-3.459070e-06
2.032560e-10
5.029570e-07
-5.964690e-11
-3.482170e-06
4.148950e-11
4.153740e-07
3.047310e-10
2.032560e-10
3.459650e-06
-5.964690e-11
-5.032240e-07
4.148950e-11
3.482350e-06
3.047310e-10
-4.143610e-07
5.029570e-07
-5.964690e-11
1.986850e-06
-4.386370e-10
4.153740e-07
3.047310e-10
2.236550e-06
-2.269430e-10
-5.964690e-11
-5.032240e-07
-4.386370e-10
-1.987830e-06
3.047310e-10
-4.143610e-07
-2.269430e-10
-2.236460e-06
1.986850e-06
-4.386370e-10
1.341730e-06
-3.003750e-10
2.236550e-06
-2.269430e-10
9.053450e-07
1.658730e-10
-4.386370e-10
-1.987830e-06
-3.003750e-10
-1.342310e-06
-2.269430e-10
-2.236460e-06
1.658730e-10
-9.048030e-07
1.341730e-06
-3.003750e-10
3.664730e-07
9.467810e-10
9.053450e-07
1.658730e-10
8.169770e-07
8.212680e-10
-3.003750e-10
-1.342310e-06
9.467810e-10
-3.646820e-07
1.658730e-10
-9.048030e-07
8.212680e-10
-8.159950e-07
3.664730e-07
9.467810e-10
-4.165590e-06
-4.127580e-10
8.169770e-07
8.212680e-10
-3.937890e-06
-3.953060e-10
9.467810e-10
-3.646820e-07
-4.127580e-10
4.164850e-06
8.212680e-10
-8.159950e-07
-3.953060e-10
3.937210e-06
-4.165590e-06
-4.127580e-10
-1.054780e-07
-7.466390e-10
-3.937890e-06
-3.953060e-10
-4.064580e-07
-1.638980e-10
-4.127580e-10
4.164850e-06
-7.466390e-10
1.040480e-07
-3.953060e-10
3.937210e-06
-1.638980e-10
4.060020e-07
-1.054780e-07
-7.466390e-10
4.516780e-06
6.237390e-10
-4.064580e-07
-1.638980e-10
4.360070e-06
6.238690e-10
-7.466390e-10
1.040480e-07
6.237390e-10
-4.515560e-06
-1.638980e-10
4.060020e-07
6.238690e-10
-4.359250e-06
4.516780e-06
6.237390e-10
-2.004760e-08
-9.072630e-11
4.360070e-06
6.238690e-10
2.247500e-08
-3.148610e-11
6.237390e-10
-4.515560e-06
-9.072630e-11
1.942700e-08
6.238690e-10
-4.359250e-06
-3.148610e-11
-2.225500e-08
-2.004760e-08
-9.072630e-11
2.913890e-07
-6.540810e-11
2.247500e-08
-3.148610e-11
1.130900e-07
-1.156880e-10
-9.072630e-11
1.942700e-08
-6.540810e-11
-2.916870e-07
-3.148610e-11
-2.225500e-08
-1.156880e-10
-1.135920e-07
2.913890e-07
-6.540810e-11
-3.646250e-06
-2.527810e-10
1.130900e-07
-1.156880e-10
-3.385570e-06
-2.788310e-10
-6.540810e-11
-2.916870e-07
-2.527810e-10
3.645400e-06
-1.156880e-10
-1.135920e-07
-2.788310e-10
3.385560e-06
-3.646250e-06
-2.527810e-10
-7.712810e-07
1.732960e-10
-3.385570e-06
-2.788310e-10
-7.424590e-07
2.952080e-10
-2.527810e-10
3.645400e-06
1.732960e-10
7.716350e-07
-2.788310e-10
3.385560e-06
2.952080e-10
7.430720e-07
-7.712810e-07
1.732960e-10
5.511990e-06
3.198830e-09
-7.424590e-07
2.952080e-10
5.306280e-06
3.281040e-09
1.732960e-10
7.716350e-07
3.198830e-09
-5.505550e-06
2.952080e-10
7.430720e-07
3.281040e-09
-5.299630e-06
5.511990e-06
3.198830e-09
6.777290e-07
9.243410e-10
5.306280e-06
3.281040e-09
6.808320e-07
9.563500e-10
3.198830e-09
-5.505550e-06
9.243410e-10
-6.758430e-07
3.281040e-09
-5.299630e-06
9.563500e-10
-6.788440e-07
6.777290e-07
9.243410e-10
-3.780360e-06
-3.977780e-09
6.808320e-07
9.563500e-10
-3.747470e-06
-3.885220e-09
9.243410e-10
-6.758430e-07
-3.977780e-09
3.772420e-06
9.563500e-10
-6.788440e-07
-3.885220e-09
3.739700e-06
-3.780360e-06
-3.977780e-09
-1.455330e-07
-3.127320e-10
-3.747470e-06
-3.885220e-09
-1.639160e-07
-2.075810e-10
-3.977780e-09
3.772420e-06
-3.127320e-10
1.449130e-07
-3.885220e-09
3.739700e-06
-2.075810e-10
1.635150e-07
-1.455330e-07
-3.127320e-10
1.717620e-06
2.084940e-09
-1.639160e-07
-2.075810e-10
1.729530e-06
2.055310e-09
-3.127320e-10
1.449130e-07
2.084940e-09
-1.713450e-06
-2.075810e-10
1.635150e-07
2.055310e-09
-1.725430e-06
1.717620e-06
2.084940e-09
2.013950e-07
-9.483790e-10
1.729530e-06
2.055310e-09
1.798000e-07
-9.914840e-10
2.084940e-09
-1.713450e-06
-9.483790e-10
-2.032960e-07
2.055310e-09
-1.725430e-06
-9.914840e-10
-1.817870e-07
2.013950e-07
-9.483790e-10
-8.207320e-07
-1.291960e-09
1.798000e-07
-9.914840e-10
-7.776520e-07
-1.290840e-09
-9.483790e-10
-2.032960e-07
-1.291960e-09
8.181320e-07
-9.914840e-10
-1.817870e-07
-1.290840e-09
7.750600e-07
-8.207320e-07
-1.291960e-09
5.265080e-07
-2.124000e-10
-7.776520e-07
-1.290840e-09
6.548840e-07
-2.295750e-10
-1.291960e-09
8.181320e-07
-2.124000e-10
-5.269320e-07
-1.290840e-09
7.750600e-07
-2.295750e-10
-6.553560e-07
5.265080e-07
-2.124000e-10
5.012130e-07
2.997820e-10
6.548840e-07
-2.295750e-10
4.608030e-07
2.924830e-10
-2.124000e-10
-5.269320e-07
2.997820e-10
-5.006080e-07
-2.295750e-10
-6.553560e-07
2.924830e-10
-4.602140e-07
5.012130e-07
2.997820e-10
-8.433170e-07
5.167140e-10
4.608030e-07
2.924830e-10
-1.076100e-06
5.275750e-10
2.997820e-10
-5.006080e-07
5.167140e-10
8.443540e-07
2.924830e-10
-4.602140e-07
5.275750e-10
1.077160e-06
</DataArray>
<DataArray type="Float32" Name="V2" format="ascii">
0.000000e+00
0.000000e+00
-1.233860e-05
-2.503420e-05
0.000000e+00
0.000000e+00
-2.503170e-05
-3.846720e-05
0.000000e+00
0.000000e+00
-2.503420e-05
-1.233890e-05
0.000000e+00
0.000000e+00
-3.846720e-05
-2.503470e-05
-1.233860e-05
-2.503420e-05
1.817740e-04
1.703790e-04
-2.503170e-05
-3.846720e-05
1.703770e-04
1.591010e-04
-2.503420e-05
-1.233890e-05
1.703790e-04
1.817750e-04
-3.846720e-05
-2.503470e-05
1.591010e-04
1.703770e-04
1.817740e-04
1.703790e-04
2.947830e-05
3.134290e-05
1.703770e-04
1.591010e-04
3.134470e-05
3.378120e-05
1.703790e-04
1.817750e-04
3.134290e-05
2.947820e-05
1.591010e-04
1.703770e-04
3.378120e-05
3.134280e-05
2.947830e-05
3.134290e-05
-5.638870e-04
-5.507580e-04
3.134470e-05
3.378120e-05
-5.507570e-04
-5.379570e-04
3.134290e-05
2.947820e-05
-5.507580e-04
-5.638850e-04
3.378120e-05
3.134280e-05
-5.379570e-04
-5.507590e-04
-5.638870e-04
-5.507580e-04
-8.390510e-04
-8.344760e-04
-5.507570e-04
-5.379570e-04
-8.344750e-04
-8.300200e-04
-5.507580e-04
-5.638850e-04
-8.344760e-04
-8.390540e-04
-5.379570e-04
-5.507590e-04
-8.300200e-04
-8.344760e-04
-8.390510e-04
-8.344760e-04
-8.460250e-04
-8.579340e-04
-8.344750e-04
-8.300200e-04
-8.579370e-04
-8.698040e-04
-8.344760e-04
-8.390540e-04
-8.579340e-04
-8.460220e-04
-8.300200e-04
-8.344760e-04
-8.698040e-04
-8.579340e-04
-8.460250e-04
-8.579340e-04
-2.902690e-04
-2.901690e-04
-8.579370e-04
-8.698040e-04
-2.901680e-04
-2.903000e-04
-8.579340e-04
-8.460220e-04
-2.901690e-04
-2.902720e-04
-8.698040e-04
-8.579340e-04
-2.903000e-04
-2.901710e-04
-2.902690e-04
-2.901690e-04
6.880200e-04
7.010720e-04
-2.901680e-04
-2.903000e-04
7.010700e-04
7.147040e-04
-2.901690e-04
-2.902720e-04
7.010720e-04
6.880210e-04
-2.903000e-04
-2.901710e-04
7.147040e-04
7.010720e-04
6.880200e-04
7.010720e-04
7.115740e-04
7.088120e-04
7.010700e-04
7.147040e-04
7.088110e-04
7.057050e-04
7.010720e-04
6.880210e-04
7.088120e-04
7.115710e-04
7.147040e-04
7.010720e-04
7.057050e-04
7.088110e-04
7.115740e-04
7.088120e-04
1.018050e-04
9.103390e-05
7.088110e-04
7.057050e-04
9.103160e-05
8.013980e-05
7.088120e-04
7.115710e-04
9.103390e-05
1.018040e-04
7.057050e-04
7.088110e-04
8.013980e-05
9.103160e-05
1.018050e-04
9.103390e-05
8.559300e-04
8.566260e-04
9.103160e-05
8.013980e-05
8.566270e-04
8.574970e-04
9.103390e-05
1.018040e-04
8.566260e-04
8.559280e-04
8.013980e-05
9.103160e-05
8.574970e-04
8.566260e-04
8.559300e-04
8.566260e-04
2.302700e-03
2.306840e-03
8.566270e-04
8.574970e-04
2.306840e-03
2.310870e-03
8.566260e-04
8.559280e-04
2.306840e-03
2.302700e-03
8.574970e-04
8.566260e-04
2.310870e-03
2.306840e-03
2.302700e-03
2.306840e-03
2.880470e-03
2.879310e-03
2.306840e-03
2.310870e-03
2.879310e-03
2.877630e-03
2.306840e-03
2.302700e-03
2.879310e-03
2.880480e-03
2.310870e-03
2.306840e-03
2.877630e-03
2.879310e-03
2.880470e-03
2.879310e-03
5.168810e-03
5.165830e-03
2.879310e-03
2.877630e-03
5.165830e-03
5.163160e-03
2.879310e-03
2.880480e-03
5.165830e-03
5.168810e-03
2.877630e-03
2.879310e-03
5.163160e-03
5.165830e-03
5.168810e-03
5.165830e-03
1.096680e-02
1.096190e-02
5.165830e-03
5.163160e-03
1.096190e-02
1.095800e-02
5.165830e-03
5.168810e-03
1.096190e-02
1.096680e-02
5.163160e-03
5.165830e-03
1.095800e-02
1.096190e-02
1.096680e-02
1.096190e-02
2.062510e-02
2.062340e-02
1.096190e-02
1.095800e-02
2.062340e-02
2.062150e-02
1.096190e-02
1.096680e-02
2.062340e-02
2.062510e-02
1.095800e-02
1.096190e-02
2.062150e-02
2.062340e-02
2.062510e-02
2.062340e-02
3.143760e-02
3.143980e-02
2.062340e-02
2.062150e-02
3.143980e-02
3.144210e-02
2.062340e-02
2.062510e-02
3.143980e-02
3.143760e-02
2.062150e-02
2.062340e-02
3.144210e-02
3.143980e-02
3.143760e-02
3.143980e-02
3.937350e-02
3.936930e-02
3.143980e-02
3.144210e-02
3.936930e-02
3.936500e-02
3.143980e-02
3.143760e-02
3.936930e-02
3.937350e-02
3.144210e-02
3.143980e-02
3.936500e-02
3.936930e-02
3.937350e-02
3.936930e-02
4.130130e-02
4.129540e-02
3.936930e-02
3.936500e-02
4.129540e-02
4.129030e-02
3.936930e-02
3.937350e-02
4.129540e-02
4.130130e-02
3.936500e-02
3.936930e-02
4.129030e-02
4.129540e-02
4.130130e-02
4.129540e-02
3.165080e-02
3.164310e-02
4.129540e-02
4.129030e-02
3.164320e-02
3.162890e-02
4.129540e-02
4.130130e-02
3.164310e-02
3.165080e-02
4.129030e-02
4.129540e-02
3.162890e-02
3.164310e-02
3.165080e-02
3.164310e-02
8.987990e-03
8.984870e-03
3.164320e-02
3.162890e-02
8.984850e-03
8.979360e-03
3.164310e-02
3.165080e-02
8.984870e-03
8.988010e-03
3.162890e-02
3.164310e-02
8.979360e-03
8.984870e-03
8.987990e-03
8.984870e-03
-8.714690e-03
-8.705510e-03
8.984850e-03
8.979360e-03
-8.705570e-03
-8.693560e-03
8.984870e-03
8.988010e-03
-8.705510e-03
-8.714630e-03
8.979360e-03
8.984870e-03
-8.693560e-03
-8.705510e-03
-8.714690e-03
-8.705510e-03
-9.638880e-03
-9.631160e-03
-8.705570e-03
-8.693560e-03
-9.631220e-03
-9.622900e-03
-8.705510e-03
-8.714630e-03
-9.631160e-03
-9.638820e-03
-8.693560e-03
-8.705510e-03
-9.622900e-03
-9.631160e-03
-9.638880e-03
-9.631160e-03
-1.915510e-03
-1.913840e-03
-9.631220e-03
-9.622900e-03
-1.913810e-03
-1.913600e-03
-9.631160e-03
-9.638820e-03
-1.913840e-03
-1.915540e-03
-9.622900e-03
-9.631160e-03
-1.913600e-03
-1.913840e-03
-1.915510e-03
-1.913840e-03
2.008660e-03
2.004090e-03
-1.913810e-03
-1.913600e-03
2.004140e-03
1.999320e-03
-1.913840e-03
-1.915540e-03
2.004090e-03
2.008610e-03
-1.913600e-03
-1.913840e-03
1.999320e-03
2.004090e-03
2.008660e-03
2.004090e-03
1.120360e-03
1.118350e-03
2.004140e-03
1.999320e-03
1.118350e-03
1.117970e-03
2.004090e-03
2.008610e-03
1.118350e-03
1.120350e-03
1.999320e-03
2.004090e-03
1.117970e-03
1.118350e-03
1.120360e-03
1.118350e-03
-7.278920e-05
-7.347690e-05
1.118350e-03
1.117970e-03
-7.348180e-05
-7.371290e-05
1.118350e-03
1.120350e-03
-7.347690e-05
-7.278270e-05
1.117970e-03
1.118350e-03
-7.371290e-05
-7.347540e-05
-7.278920e-05
-7.347690e-05
-1.753390e-04
-1.785010e-04
-7.348180e-05
-7.371290e-05
-1.785040e-04
-1.818330e-04
-7.347690e-05
-7.278270e-05
-1.785010e-04
-1.753340e-04
-7.371290e-05
-7.347540e-05
-1.818330e-04
-1.785000e-04
-1.753390e-04
-1.785010e-04
-2.488840e-05
-1.999740e-05
-1.785040e-04
-1.818330e-04
-1.999450e-05
-1.647130e-05
-1.785010e-04
-1.753340e-04
-1.999740e-05
-2.489180e-05
-1.818330e-04
-1.785000e-04
-1.647130e-05
-1.999800e-05
-2.488840e-05
-1.999740e-05
-3.981530e-05
-2.220500e-05
-1.999450e-05
-1.647130e-05
-2.220260e-05
-1.117410e-05
-1.999740e-05
-2.489180e-05
-2.220500e-05
-3.981850e-05
-1.647130e-05
-1.999800e-05
-1.117410e-05
-2.220550e-05
0.000000e+00
0.000000e+00
-2.503170e-05
-3.846720e-05
0.000000e+00
0.000000e+00
-1.234050e-05
-2.503510e-05
0.000000e+00
0.000000e+00
-3.846720e-05
-2.503470e-05
0.000000e+00
0.000000e+00
-2.503510e-05
-1.233890e-05
-2.503170e-05
-3.846720e-05
1.703770e-04
1.591010e-04
-1.234050e-05
-2.503510e-05
1.817770e-04
1.703800e-04
-3.846720e-05
-2.503470e-05
1.591010e-04
1.703770e-04
-2.503510e-05
-1.233890e-05
1.703800e-04
1.817760e-04
1.703770e-04
1.591010e-04
3.134470e-05
3.378120e-05