<?xml version="1.0"?>
<!-- time 57.3052-->
<VTKFile type="UnstructuredGrid" version="0.1" byte_order="LittleEndian">
<UnstructuredGrid>
<Piece NumberOfPoints="960" NumberOfCells="0">
<Points>
  <DataArray type="Float32" Name="Position" NumberOfComponents="3" format="ascii">
	-300 2099.56 -300
	-300 2099.51 -100
	-300 2099.51 100
	-300 2099.56 300
	-100 2099.51 -300
	-100 2099.47 -100
	-100 2099.47 100
	-100 2099.51 300
	100 2099.51 -300
	100 2099.47 -100
	100 2099.47 100
	100 2099.51 300
	300 2099.56 -300
	300 2099.51 -100
	300 2099.51 100
	300 2099.56 300
	-300 2299.69 -300
	-300 2299.68 -100
	-300 2299.68 100
	-300 2299.69 300
	-100 2299.68 -300
	-100 2299.68 -100
	-100 2299.68 100
	-100 2299.68 300
	100 2299.68 -300
	100 2299.68 -100
	100 2299.68 100
	100 2299.68 300
	300 2299.69 -300
	300 2299.68 -100
	300 2299.68 100
	300 2299.69 300
	-300 2499.69 -300
	-300 2499.69 -100
	-300 2499.69 100
	-300 2499.69 300
	-100 2499.69 -300
	-100 2499.68 -100
	-100 2499.68 100
	-100 2499.69 300
	100 2499.69 -300
	100 2499.68 -100
	100 2499.68 100
	100 2499.69 300
	300 2499.69 -300
	300 2499.69 -100
	300 2499.69 100
	300 2499.69 300
	-300 2699.69 -300
	-300 2699.69 -100
	-300 2699.69 100
	-300 2699.69 300
	-100 2699.69 -300
	-100 2699.68 -100
	-100 2699.68 100
	-100 2699.69 300
	100 2699.69 -300
	100 2699.68 -100
	100 2699.68 100
	100 2699.69 300
	300 2699.69 -300
	300 2699.69 -100
	300 2699.69 100
	300 2699.69 300
	-300 2899.69 -300
	-300 2899.69 -100
	-300 2899.69 100
	-300 2899.69 300
	-100 2899.69 -300
	-100 2899.69 -100
	-100 2899.69 100
	-100 2899.69 300
	100 2899.69 -300
	100 2899.69 -100
	100 2899.69 100
	100 2899.69 300
	300 2899.69 -300
	300 2899.69 -100
	300 2899.69 100
	300 2899.69 300
	-300 3099.69 -300
	-300 3099.69 -100
	-300 3099.69 100
	-300 3099.69 300
	-100 3099.69 -300
	-100 3099.68 -100
	-100 3099.68 100
	-100 3099.69 300
	100 3099.69 -300
	100 3099.68 -100
	100 3099.68 100
	100 3099.69 300
	300 3099.69 -300
	300 3099.69 -100
	300 3099.69 100
	300 3099.69 300
	-300 3299.7 -300
	-300 3299.69 -100
	-300 3299.69 100
	-300 3299.7 300
	-100 3299.69 -300
	-100 3299.68 -100
	-100 3299.68 100
	-100 3299.69 300
	100 3299.69 -300
	100 3299.68 -100
	100 3299.68 100
	100 3299.69 300
	300 3299.7 -300
	300 3299.69 -100
	300 3299.69 100
	300 3299.7 300
	-300 3499.69 -300
	-300 3499.68 -100
	-300 3499.68 100
	-300 3499.69 300
	-100 3499.68 -300
	-100 3499.67 -100
	-100 3499.67 100
	-100 3499.68 300
	100 3499.68 -300
	100 3499.67 -100
	100 3499.67 100
	100 3499.68 300
	300 3499.69 -300
	300 3499.68 -100
	300 3499.68 100
	300 3499.69 300
	-300 3699.69 -300
	-300 3699.68 -100
	-300 3699.68 100
	-300 3699.69 300
	-100 3699.68 -300
	-100 3699.68 -100
	-100 3699.68 100
	-100 3699.68 300
	100 3699.68 -300
	100 3699.68 -100
	100 3699.68 100
	100 3699.68 300
	300 3699.69 -300
	300 3699.68 -100
	300 3699.68 100
	300 3699.69 300
	-300 3899.68 -300
	-300 3899.68 -100
	-300 3899.68 100
	-300 3899.68 300
	-100 3899.68 -300
	-100 3899.68 -100
	-100 3899.68 100
	-100 3899.68 300
	100 3899.68 -300
	100 3899.68 -100
	100 3899.68 100
	100 3899.68 300
	300 3899.68 -300
	300 3899.68 -100
	300 3899.68 100
	300 3899.68 300
	-300 4099.68 -300
	-300 4099.68 -100
	-300 4099.68 100
	-300 4099.68 300
	-100 4099.68 -300
	-100 4099.68 -100
	-100 4099.68 100
	-100 4099.68 300
	100 4099.68 -300
	100 4099.68 -100
	100 4099.68 100
	100 4099.68 300
	300 4099.68 -300
	300 4099.68 -100
	300 4099.68 100
	300 4099.68 300
	-300 4299.69 -300
	-300 4299.68 -100
	-300 4299.68 100
	-300 4299.69 300
	-100 4299.68 -300
	-100 4299.68 -100
	-100 4299.68 100
	-100 4299.68 300
	100 4299.68 -300
	100 4299.68 -100
	100 4299.68 100
	100 4299.68 300
	300 4299.69 -300
	300 4299.68 -100
	300 4299.68 100
	300 4299.69 300
	-300 4499.69 -300
	-300 4499.69 -100
	-300 4499.69 100
	-300 4499.69 300
	-100 4499.69 -300
	-100 4499.68 -100
	-100 4499.68 100
	-100 4499.69 300
	100 4499.69 -300
	100 4499.68 -100
	100 4499.68 100
	100 4499.69 300
	300 4499.69 -300
	300 4499.69 -100
	300 4499.69 100
	300 4499.69 300
	-300 4699.69 -300
	-300 4699.69 -100
	-300 4699.69 100
	-300 4699.69 300
	-100 4699.69 -300
	-100 4699.68 -100
	-100 4699.68 100
	-100 4699.69 300
	100 4699.69 -300
	100 4699.68 -100
	100 4699.68 100
	100 4699.69 300
	300 4699.69 -300
	300 4699.69 -100
	300 4699.69 100
	300 4699.69 300
	-300 4899.7 -300
	-300 4899.69 -100
	-300 4899.69 100
	-300 4899.7 300
	-100 4899.69 -300
	-100 4899.68 -100
	-100 4899.68 100
	-100 4899.69 300
	100 4899.69 -300
	100 4899.68 -100
	100 4899.68 100
	100 4899.69 300
	300 4899.7 -300
	300 4899.69 -100
	300 4899.69 100
	300 4899.7 300
	-300 5099.7 -300
	-300 5099.69 -100
	-300 5099.69 100
	-300 5099.7 300
	-100 5099.69 -300
	-100 5099.69 -100
	-100 5099.69 100
	-100 5099.69 300
	100 5099.69 -300
	100 5099.69 -100
	100 5099.69 100
	100 5099.69 300
	300 5099.7 -300
	300 5099.69 -100
	300 5099.69 100
	300 5099.7 300
	-300 5299.71 -300
	-300 5299.7 -100
	-300 5299.7 100
	-300 5299.71 300
	-100 5299.7 -300
	-100 5299.7 -100
	-100 5299.7 100
	-100 5299.7 300
	100 5299.7 -300
	100 5299.7 -100
	100 5299.7 100
	100 5299.7 300
	300 5299.71 -300
	300 5299.7 -100
	300 5299.7 100
	300 5299.71 300
	-300 5499.71 -300
	-300 5499.71 -100
	-300 5499.71 100
	-300 5499.71 300
	-100 5499.71 -300
	-100 5499.71 -100
	-100 5499.71 100
	-100 5499.71 300
	100 5499.71 -300
	100 5499.71 -100
	100 5499.71 100
	100 5499.71 300
	300 5499.71 -300
	300 5499.71 -100
	300 5499.71 100
	300 5499.71 300
	-300 5699.71 -300
	-300 5699.71 -100
	-300 5699.71 100
	-300 5699.71 300
	-100 5699.71 -300
	-100 5699.71 -100
	-100 5699.71 100
	-100 5699.71 300
	100 5699.71 -300
	100 5699.71 -100
	100 5699.71 100
	100 5699.71 300
	300 5699.71 -300
	300 5699.71 -100
	300 5699.71 100
	300 5699.71 300
	-300 5899.72 -300
	-300 5899.71 -100
	-300 5899.71 100
	-300 5899.72 300
	-100 5899.71 -300
	-100 5899.71 -100
	-100 5899.71 100
	-100 5899.71 300
	100 5899.71 -300
	100 5899.71 -100
	100 5899.71 100
	100 5899.71 300
	300 5899.72 -300
	300 5899.71 -100
	300 5899.71 100
	300 5899.72 300
	-300 6099.72 -300
	-300 6099.72 -100
	-300 6099.72 100
	-300 6099.72 300
	-100 6099.72 -300
	-100 6099.72 -100
	-100 6099.72 100
	-100 6099.72 300
	100 6099.72 -300
	100 6099.72 -100
	100 6099.72 100
	100 6099.72 300
	300 6099.72 -300
	300 6099.72 -100
	300 6099.72 100
	300 6099.72 300
	-300 6299.72 -300
	-300 6299.72 -100
	-300 6299.72 100
	-300 6299.72 300
	-100 6299.72 -300
	-100 6299.72 -100
	-100 6299.72 100
	-100 6299.72 300
	100 6299.72 -300
	100 6299.72 -100
	100 6299.72 100
	100 6299.72 300
	300 6299.72 -300
	300 6299.72 -100
	300 6299.72 100
	300 6299.72 300
	-300 6499.73 -300
	-300 6499.73 -100
	-300 6499.73 100
	-300 6499.73 300
	-100 6499.73 -300
	-100 6499.72 -100
	-100 6499.72 100
	-100 6499.73 300
	100 6499.73 -300
	100 6499.72 -100
	100 6499.72 100
	100 6499.73 300
	300 6499.73 -300
	300 6499.73 -100
	300 6499.73 100
	300 6499.73 300
	-300 6699.75 -300
	-300 6699.75 -100
	-300 6699.75 100
	-300 6699.75 300
	-100 6699.75 -300
	-100 6699.76 -100
	-100 6699.76 100
	-100 6699.75 300
	100 6699.75 -300
	100 6699.76 -100
	100 6699.76 100
	100 6699.75 300
	300 6699.75 -300
	300 6699.75 -100
	300 6699.75 100
	300 6699.75 300
	-300 6899.76 -300
	-300 6899.76 -100
	-300 6899.76 100
	-300 6899.76 300
	-100 6899.76 -300
	-100 6899.76 -100
	-100 6899.76 100
	-100 6899.76 300
	100 6899.76 -300
	100 6899.76 -100
	100 6899.76 100
	100 6899.76 300
	300 6899.76 -300
	300 6899.76 -100
	300 6899.76 100
	300 6899.76 300
	-300 7099.81 -300
	-300 7099.81 -100
	-300 7099.81 100
	-300 7099.81 300
	-100 7099.81 -300
	-100 7099.81 -100
	-100 7099.81 100
	-100 7099.81 300
	100 7099.81 -300
	100 7099.81 -100
	100 7099.81 100
	100 7099.81 300
	300 7099.81 -300
	300 7099.81 -100
	300 7099.81 100
	300 7099.81 300
	-300 7299.81 -300
	-300 7299.81 -100
	-300 7299.81 100
	-300 7299.81 300
	-100 7299.81 -300
	-100 7299.81 -100
	-100 7299.81 100
	-100 7299.81 300
	100 7299.81 -300
	100 7299.81 -100
	100 7299.81 100
	100 7299.81 300
	300 7299.81 -300
	300 7299.81 -100
	300 7299.81 100
	300 7299.81 300
	-300 7499.81 -300
	-300 7499.81 -100
	-300 7499.81 100
	-300 7499.81 300
	-100 7499.81 -300
	-100 7499.81 -100
	-100 7499.81 100
	-100 7499.81 300
	100 7499.81 -300
	100 7499.81 -100
	100 7499.81 100
	100 7499.81 300
	300 7499.81 -300
	300 7499.81 -100
	300 7499.81 100
	300 7499.81 300
	-300 7699.82 -300
	-300 7699.82 -100
	-300 7699.82 100
	-300 7699.82 300
	-100 7699.82 -300
	-100 7699.82 -100
	-100 7699.82 100
	-100 7699.82 300
	100 7699.82 -300
	100 7699.82 -100
	100 7699.82 100
	100 7699.82 300
	300 7699.82 -300
	300 7699.82 -100
	300 7699.82 100
	300 7699.82 300
	-300 7899.82 -300
	-300 7899.82 -100
	-300 7899.82 100
	-300 7899.82 300
	-100 7899.82 -300
	-100 7899.82 -100
	-100 7899.82 100
	-100 7899.82 300
	100 7899.82 -300
	100 7899.82 -100
	100 7899.82 100
	100 7899.82 300
	300 7899.82 -300
	300 7899.82 -100
	300 7899.82 100
	300 7899.82 300
	-300 8099.82 -300
	-300 8099.82 -100
	-300 8099.82 100
	-300 8099.82 300
	-100 8099.82 -300
	-100 8099.82 -100
	-100 8099.82 100
	-100 8099.82 300
	100 8099.82 -300
	100 8099.82 -100
	100 8099.82 100
	100 8099.82 300
	300 8099.82 -300
	300 8099.82 -100
	300 8099.82 100
	300 8099.82 300
	-300 8299.83 -300
	-300 8299.83 -100
	-300 8299.83 100
	-300 8299.83 300
	-100 8299.83 -300
	-100 8299.83 -100
	-100 8299.83 100
	-100 8299.83 300
	100 8299.83 -300
	100 8299.83 -100
	100 8299.83 100
	100 8299.83 300
	300 8299.83 -300
	300 8299.83 -100
	300 8299.83 100
	300 8299.83 300
	-300 8499.83 -300
	-300 8499.83 -100
	-300 8499.83 100
	-300 8499.83 300
	-100 8499.83 -300
	-100 8499.83 -100
	-100 8499.83 100
	-100 8499.83 300
	100 8499.83 -300
	100 8499.83 -100
	100 8499.83 100
	100 8499.83 300
	300 8499.83 -300
	300 8499.83 -100
	300 8499.83 100
	300 8499.83 300
	-300 8699.84 -300
	-300 8699.84 -100
	-300 8699.84 100
	-300 8699.84 300
	-100 8699.84 -300
	-100 8699.84 -100
	-100 8699.84 100
	-100 8699.84 300
	100 8699.84 -300
	100 8699.84 -100
	100 8699.84 100
	100 8699.84 300
	300 8699.84 -300
	300 8699.84 -100
	300 8699.84 100
	300 8699.84 300
	-300 8899.84 -300
	-300 8899.84 -100
	-300 8899.84 100
	-300 8899.84 300
	-100 8899.84 -300
	-100 8899.84 -100
	-100 8899.84 100
	-100 8899.84 300
	100 8899.84 -300
	100 8899.84 -100
	100 8899.84 100
	100 8899.84 300
	300 8899.84 -300
	300 8899.84 -100
	300 8899.84 100
	300 8899.84 300
	-300 9099.85 -300
	-300 9099.85 -100
	-300 9099.85 100
	-300 9099.85 300
	-100 9099.85 -300
	-100 9099.85 -100
	-100 9099.85 100
	-100 9099.85 300
	100 9099.85 -300
	100 9099.85 -100
	100 9099.85 100
	100 9099.85 300
	300 9099.85 -300
	300 9099.85 -100
	300 9099.85 100
	300 9099.85 300
	-300 9299.85 -300
	-300 9299.85 -100
	-300 9299.85 100
	-300 9299.85 300
	-100 9299.85 -300
	-100 9299.85 -100
	-100 9299.85 100
	-100 9299.85 300
	100 9299.85 -300
	100 9299.85 -100
	100 9299.85 100
	100 9299.85 300
	300 9299.85 -300
	300 9299.85 -100
	300 9299.85 100
	300 9299.85 300
	-300 9499.85 -300
	-300 9499.85 -100
	-300 9499.85 100
	-300 9499.85 300
	-100 9499.85 -300
	-100 9499.85 -100
	-100 9499.85 100
	-100 9499.85 300
	100 9499.85 -300
	100 9499.85 -100
	100 9499.85 100
	100 9499.85 300
	300 9499.85 -300
	300 9499.85 -100
	300 9499.85 100
	300 9499.85 300
	-300 9699.86 -300
	-300 9699.86 -100
	-300 9699.86 100
	-300 9699.86 300
	-100 9699.86 -300
	-100 9699.86 -100
	-100 9699.86 100
	-100 9699.86 300
	100 9699.86 -300
	100 9699.86 -100
	100 9699.86 100
	100 9699.86 300
	300 9699.86 -300
	300 9699.86 -100
	300 9699.86 100
	300 9699.86 300
	-300 9899.86 -300
	-300 9899.86 -100
	-300 9899.86 100
	-300 9899.86 300
	-100 9899.86 -300
	-100 9899.86 -100
	-100 9899.86 100
	-100 9899.86 300
	100 9899.86 -300
	100 9899.86 -100
	100 9899.86 100
	100 9899.86 300
	300 9899.86 -300
	300 9899.86 -100
	300 9899.86 100
	300 9899.86 300
	-300 10099.9 -300
	-300 10099.9 -100
	-300 10099.9 100
	-300 10099.9 300
	-100 10099.9 -300
	-100 10099.9 -100
	-100 10099.9 100
	-100 10099.9 300
	100 10099.9 -300
	100 10099.9 -100
	100 10099.9 100
	100 10099.9 300
	300 10099.9 -300
	300 10099.9 -100
	300 10099.9 100
	300 10099.9 300
	-300 10299.9 -300
	-300 10299.9 -100
	-300 10299.9 100
	-300 10299.9 300
	-100 10299.9 -300
	-100 10299.9 -100
	-100 10299.9 100
	-100 10299.9 300
	100 10299.9 -300
	100 10299.9 -100
	100 10299.9 100
	100 10299.9 300
	300 10299.9 -300
	300 10299.9 -100
	300 10299.9 100
	300 10299.9 300
	-300 10499.9 -300
	-300 10499.9 -100
	-300 10499.9 100
	-300 10499.9 300
	-100 10499.9 -300
	-100 10499.9 -100
	-100 10499.9 100
	-100 10499.9 300
	100 10499.9 -300
	100 10499.9 -100
	100 10499.9 100
	100 10499.9 300
	300 10499.9 -300
	300 10499.9 -100
	300 10499.9 100
	300 10499.9 300
	-300 10699.9 -300
	-300 10699.9 -100
	-300 10699.9 100
	-300 10699.9 300
	-100 10699.9 -300
	-100 10699.9 -100
	-100 10699.9 100
	-100 10699.9 300
	100 10699.9 -300
	100 10699.9 -100
	100 10699.9 100
	100 10699.9 300
	300 10699.9 -300
	300 10699.9 -100
	300 10699.9 100
	300 10699.9 300
	-300 10899.9 -300
	-300 10899.9 -100
	-300 10899.9 100
	-300 10899.9 300
	-100 10899.9 -300
	-100 10899.9 -100
	-100 10899.9 100
	-100 10899.9 300
	100 10899.9 -300
	100 10899.9 -100
	100 10899.9 100
	100 10899.9 300
	300 10899.9 -300
	300 10899.9 -100
	300 10899.9 100
	300 10899.9 300
	-300 11099.9 -300
	-300 11099.9 -100
	-300 11099.9 100
	-300 11099.9 300
	-100 11099.9 -300
	-100 11099.9 -100
	-100 11099.9 100
	-100 11099.9 300
	100 11099.9 -300
	100 11099.9 -100
	100 11099.9 100
	100 11099.9 300
	300 11099.9 -300
	300 11099.9 -100
	300 11099.9 100
	300 11099.9 300
	-300 11299.9 -300
	-300 11299.9 -100
	-300 11299.9 100
	-300 11299.9 300
	-100 11299.9 -300
	-100 11299.9 -100
	-100 11299.9 100
	-100 11299.9 300
	100 11299.9 -300
	100 11299.9 -100
	100 11299.9 100
	100 11299.9 300
	300 11299.9 -300
	300 11299.9 -100
	300 11299.9 100
	300 11299.9 300
	-300 11499.9 -300
	-300 11499.9 -100
	-300 11499.9 100
	-300 11499.9 300
	-100 11499.9 -300
	-100 11499.9 -100
	-100 11499.9 100
	-100 11499.9 300
	100 11499.9 -300
	100 11499.9 -100
	100 11499.9 100
	100 11499.9 300
	300 11499.9 -300
	300 11499.9 -100
	300 11499.9 100
	300 11499.9 300
	-300 11700 -300
	-300 11700 -100
	-300 11700 100
	-300 11700 300
	-100 11700 -300
	-100 11700 -100
	-100 11700 100
	-100 11700 300
	100 11700 -300
	100 11700 -100
	100 11700 100
	100 11700 300
	300 11700 -300
	300 11700 -100
	300 11700 100
	300 11700 300
	-300 11900 -300
	-300 11900 -100
	-300 11900 100
	-300 11900 300
	-100 11900 -300
	-100 11900 -100
	-100 11900 100
	-100 11900 300
	100 11900 -300
	100 11900 -100
	100 11900 100
	100 11900 300
	300 11900 -300
	300 11900 -100
	300 11900 100
	300 11900 300
	-300 12100 -300
	-300 12100 -100
	-300 12100 100
	-300 12100 300
	-100 12100 -300
	-100 12100 -100
	-100 12100 100
	-100 12100 300
	100 12100 -300
	100 12100 -100
	100 12100 100
	100 12100 300
	300 12100 -300
	300 12100 -100
	300 12100 100
	300 12100 300
	-300 12300 -300
	-300 12300 -100
	-300 12300 100
	-300 12300 300
	-100 12300 -300
	-100 12300 -100
	-100 12300 100
	-100 12300 300
	100 12300 -300
	100 12300 -100
	100 12300 100
	100 12300 300
	300 12300 -300
	300 12300 -100
	300 12300 100
	300 12300 300
	-300 12500 -300
	-300 12500 -100
	-300 12500 100
	-300 12500 300
	-100 12500 -300
	-100 12500 -100
	-100 12500 100
	-100 12500 300
	100 12500 -300
	100 12500 -100
	100 12500 100
	100 12500 300
	300 12500 -300
	300 12500 -100
	300 12500 100
	300 12500 300
	-300 12700.1 -300
	-300 12700.1 -100
	-300 12700.1 100
	-300 12700.1 300
	-100 12700.1 -300
	-100 12700.1 -100
	-100 12700.1 100
	-100 12700.1 300
	100 12700.1 -300
	100 12700.1 -100
	100 12700.1 100
	100 12700.1 300
	300 12700.1 -300
	300 12700.1 -100
	300 12700.1 100
	300 12700.1 300
	-300 12900.1 -300
	-300 12900.1 -100
	-300 12900.1 100
	-300 12900.1 300
	-100 12900.1 -300
	-100 12900.1 -100
	-100 12900.1 100
	-100 12900.1 300
	100 12900.1 -300
	100 12900.1 -100
	100 12900.1 100
	100 12900.1 300
	300 12900.1 -300
	300 12900.1 -100
	300 12900.1 100
	300 12900.1 300
	-300 13100.2 -300
	-300 13100.2 -100
	-300 13100.2 100
	-300 13100.2 300
	-100 13100.2 -300
	-100 13100.2 -100
	-100 13100.2 100
	-100 13100.2 300
	100 13100.2 -300
	100 13100.2 -100
	100 13100.2 100
	100 13100.2 300
	300 13100.2 -300
	300 13100.2 -100
	300 13100.2 100
	300 13100.2 300
	-300 13300.3 -300
	-300 13300.3 -100
	-300 13300.3 100
	-300 13300.3 300
	-100 13300.3 -300
	-100 13300.3 -100
	-100 13300.3 100
	-100 13300.3 300
	100 13300.3 -300
	100 13300.3 -100
	100 13300.3 100
	100 13300.3 300
	300 13300.3 -300
	300 13300.3 -100
	300 13300.3 100
	300 13300.3 300
	-300 13500.4 -300
	-300 13500.4 -100
	-300 13500.4 100
	-300 13500.4 300
	-100 13500.4 -300
	-100 13500.4 -100
	-100 13500.4 100
	-100 13500.4 300
	100 13500.4 -300
	100 13500.4 -100
	100 13500.4 100
	100 13500.4 300
	300 13500.4 -300
	300 13500.4 -100
	300 13500.4 100
	300 13500.4 300
	-300 13700.7 -300
	-300 13700.7 -100
	-300 13700.7 100
	-300 13700.7 300
	-100 13700.7 -300
	-100 13700.7 -100
	-100 13700.7 100
	-100 13700.7 300
	100 13700.7 -300
	100 13700.7 -100
	100 13700.7 100
	100 13700.7 300
	300 13700.7 -300
	300 13700.7 -100
	300 13700.7 100
	300 13700.7 300
	-300 13901.3 -300
	-300 13901.3 -100
	-300 13901.3 100
	-300 13901.3 300
	-100 13901.3 -300
	-100 13901.3 -100
	-100 13901.3 100
	-100 13901.3 300
	100 13901.3 -300
	100 13901.3 -100
	100 13901.3 100
	100 13901.3 300
	300 13901.3 -300
	300 13901.3 -100
	300 13901.3 100
	300 13901.3 300
  </DataArray>
</Points>
<PointData  Vectors="vector">
  <DataArray type="Float32" Name="Velocity" NumberOfComponents="3" format="ascii">
 3.92869e-06 0.00781264 3.92865e-06
 3.80647e-06 0.00448236 6.08581e-07
 3.80645e-06 0.00448236 -6.08651e-07
 3.92864e-06 0.00781264 -3.9287e-06
 6.08615e-07 0.00448236 3.80646e-06
 5.71224e-07 0.00124666 5.7121e-07
 5.71218e-07 0.00124666 -5.71264e-07
 6.08583e-07 0.00448236 -3.8065e-06
 -6.08653e-07 0.00448236 3.80646e-06
 -5.71276e-07 0.00124666 5.71224e-07
 -5.71279e-07 0.00124666 -5.71252e-07
 -6.08671e-07 0.00448236 -3.8065e-06
 -3.92876e-06 0.00781264 3.92868e-06
 -3.80656e-06 0.00448236 6.08606e-07
 -3.80657e-06 0.00448236 -6.08629e-07
 -3.92878e-06 0.00781264 -3.92869e-06
 2.36847e-06 -0.00269028 2.36849e-06
 2.30153e-06 -0.00179291 1.05465e-07
 2.30153e-06 -0.00179291 -1.05468e-07
 2.36845e-06 -0.00269028 -2.36852e-06
 1.05438e-07 -0.00179291 2.30155e-06
 9.17208e-08 -0.00157233 9.17692e-08
 9.17141e-08 -0.00157233 -9.17514e-08
 1.05408e-07 -0.00179291 -2.30159e-06
 -1.05505e-07 -0.00179291 2.30156e-06
 -9.17951e-08 -0.00157233 9.17722e-08
 -9.18081e-08 -0.00157233 -9.17664e-08
 -1.05505e-07 -0.00179291 -2.30158e-06
 -2.36851e-06 -0.00269028 2.36851e-06
 -2.30158e-06 -0.00179291 1.05482e-07
 -2.30158e-06 -0.00179291 -1.05471e-07
 -2.36854e-06 -0.00269028 -2.36852e-06
 1.02815e-06 -0.00304678 1.02818e-06
 1.02631e-06 -0.00245661 -2.16709e-07
 1.02631e-06 -0.00245661 2.16732e-07
 1.02814e-06 -0.00304678 -1.02816e-06
 -2.1675e-07 -0.00245661 1.02635e-06
 -2.08895e-07 -0.00323069 -2.08864e-07
 -2.08896e-07 -0.00323069 2.0888e-07
 -2.16748e-07 -0.00245661 -1.02633e-06
 2.16691e-07 -0.00245661 1.02635e-06
 2.08845e-07 -0.00323069 -2.08862e-07
 2.08843e-07 -0.00323069 2.08877e-07
 2.16688e-07 -0.00245661 -1.02633e-06
 -1.02819e-06 -0.00304678 1.02819e-06
 -1.02636e-06 -0.00245661 -2.16712e-07
 -1.02637e-06 -0.00245661 2.16735e-07
 -1.02821e-06 -0.00304678 -1.02818e-06
 -9.6361e-08 -0.00571986 -9.6308e-08
 -5.37713e-08 -0.00357871 -4.92304e-07
 -5.37674e-08 -0.00357871 4.92359e-07
 -9.63516e-08 -0.00571986 9.63648e-08
 -4.92355e-07 -0.00357871 -5.3726e-08
 -4.67268e-07 -0.00247969 -4.67222e-07
 -4.67268e-07 -0.00247969 4.67271e-07
 -4.92353e-07 -0.00357871 5.37761e-08
 4.92311e-07 -0.00357871 -5.37303e-08
 4.67226e-07 -0.00247969 -4.67223e-07
 4.67226e-07 -0.00247969 4.67268e-07
 4.92312e-07 -0.00357871 5.37748e-08
 9.63152e-08 -0.00571987 -9.63197e-08
 5.37289e-08 -0.00357871 -4.9231e-07
 5.37283e-08 -0.00357871 4.92352e-07
 9.6311e-08 -0.00571986 9.63602e-08
 -8.46615e-07 -0.00789999 -8.46548e-07
 -7.83031e-07 -0.00885273 -6.67333e-07
 -7.83024e-07 -0.00885273 6.67415e-07
 -8.46597e-07 -0.00789999 8.46633e-07
 -6.67391e-07 -0.00885273 -7.82975e-07
 -6.37756e-07 -0.0094971 -6.37704e-07
 -6.37754e-07 -0.0094971 6.37779e-07
 -6.67384e-07 -0.00885273 7.83053e-07
 6.67357e-07 -0.00885273 -7.8298e-07
 6.37726e-07 -0.00949709 -6.37707e-07
 6.37727e-07 -0.0094971 6.37776e-07
 6.6736e-07 -0.00885273 7.8305e-07
 8.46572e-07 -0.00789999 -8.46563e-07
 7.82995e-07 -0.00885273 -6.67341e-07
 7.82996e-07 -0.00885273 6.67407e-07
 8.46573e-07 -0.00789999 8.46627e-07
 -1.13833e-06 -0.00546768 -1.13825e-06
 -1.0741e-06 -0.00648501 -7.00819e-07
 -1.07409e-06 -0.00648501 7.00923e-07
 -1.13831e-06 -0.00546768 1.13836e-06
 -7.00887e-07 -0.00648501 -1.07403e-06
 -6.70158e-07 -0.000446337 -6.70098e-07
 -6.70156e-07 -0.000446337 6.70194e-07
 -7.00876e-07 -0.00648501 1.07413e-06
 7.00857e-07 -0.00648501 -1.07403e-06
 6.70136e-07 -0.000446337 -6.701e-07
 6.70137e-07 -0.000446337 6.70192e-07
 7.00864e-07 -0.00648501 1.07413e-06
 1.1383e-06 -0.00546768 -1.13827e-06
 1.07407e-06 -0.00648501 -7.00828e-07
 1.07407e-06 -0.00648501 7.00915e-07
 1.1383e-06 -0.00546768 1.13836e-06
 -9.90573e-07 0.00271177 -9.90485e-07
 -9.38224e-07 0.00509504 -6.06043e-07
 -9.3822e-07 0.00509504 6.06126e-07
 -9.9057e-07 0.00271177 9.90639e-07
 -6.06087e-07 0.00509504 -9.38152e-07
 -5.82548e-07 0.00435899 -5.82495e-07
 -5.82551e-07 0.00435899 5.82603e-07
 -6.06082e-07 0.00509504 9.38268e-07
 6.06073e-07 0.00509504 -9.38152e-07
 5.82532e-07 0.00435899 -5.82492e-07
 5.82537e-07 0.00435899 5.82597e-07
 6.06085e-07 0.00509504 9.3826e-07
 9.9053e-07 0.00271177 -9.90482e-07
 9.38193e-07 0.00509504 -6.06046e-07
 9.38196e-07 0.00509504 6.06122e-07
 9.90539e-07 0.00271177 9.90611e-07
 -6.44765e-07 -5.48551e-05 -6.44697e-07
 -6.13585e-07 0.00542076 -4.563e-07
 -6.13587e-07 0.00542076 4.56412e-07
 -6.44772e-07 -5.48541e-05 6.44822e-07
 -4.56374e-07 0.00542076 -6.13527e-07
 -4.40918e-07 0.00325858 -4.40847e-07
 -4.40914e-07 0.00325858 4.4096e-07
 -4.56364e-07 0.00542076 6.13639e-07
 4.56348e-07 0.00542076 -6.13532e-07
 4.40891e-07 0.00325858 -4.40854e-07
 4.4089e-07 0.00325858 4.40962e-07
 4.56353e-07 0.00542076 6.1364e-07
 6.44736e-07 -5.48547e-05 -6.44712e-07
 6.13565e-07 0.00542076 -4.56318e-07
 6.13571e-07 0.00542076 4.56417e-07
 6.4475e-07 -5.4854e-05 6.44823e-07
 -3.8336e-07 0.00236828 -3.83289e-07
 -3.6785e-07 0.000968634 -3.46398e-07
 -3.67846e-07 0.000968634 3.46506e-07
 -3.83348e-07 0.00236828 3.83392e-07
 -3.46467e-07 0.000968635 -3.6778e-07
 -3.37137e-07 -0.00115607 -3.37075e-07
 -3.37137e-07 -0.00115607 3.37172e-07
 -3.46465e-07 0.000968635 3.67884e-07
 3.46439e-07 0.000968634 -3.67782e-07
 3.37114e-07 -0.00115607 -3.37077e-07
 3.37116e-07 -0.00115607 3.37171e-07
 3.46442e-07 0.000968634 3.67881e-07
 3.83334e-07 0.00236828 -3.83292e-07
 3.67824e-07 0.000968634 -3.46406e-07
 3.67824e-07 0.000968635 3.46497e-07
 3.83333e-07 0.00236828 3.83389e-07
 -3.74902e-07 0.00100278 -3.74846e-07
 -3.63472e-07 -0.0060945 -3.33942e-07
 -3.6347e-07 -0.0060945 3.34042e-07
 -3.74897e-07 0.00100278 3.74905e-07
 -3.33992e-07 -0.0060945 -3.63424e-07
 -3.2633e-07 -0.00747982 -3.26273e-07
 -3.26328e-07 -0.00747982 3.26375e-07
 -3.3399e-07 -0.0060945 3.63475e-07
 3.33968e-07 -0.0060945 -3.63426e-07
 3.26306e-07 -0.00747982 -3.26274e-07
 3.26306e-07 -0.00747982 3.26373e-07
 3.33968e-07 -0.0060945 3.63473e-07
 3.74878e-07 0.00100278 -3.74847e-07
 3.63449e-07 -0.0060945 -3.33947e-07
 3.63449e-07 -0.0060945 3.34029e-07
 3.74878e-07 0.00100278 3.74907e-07
 -5.50813e-07 -0.00311434 -5.50769e-07
 -5.30848e-07 -0.00257056 -4.04279e-07
 -5.30847e-07 -0.00257056 4.04329e-07
 -5.5081e-07 -0.00311434 5.50815e-07
 -4.04316e-07 -0.00257056 -5.30807e-07
 -3.93889e-07 -0.00210231 -3.93852e-07
 -3.93889e-07 -0.00210231 3.93901e-07
 -4.04315e-07 -0.00257056 5.30849e-07
 4.04296e-07 -0.00257056 -5.30807e-07
 3.93868e-07 -0.00210231 -3.93853e-07
 3.9387e-07 -0.00210231 3.939e-07
 4.04296e-07 -0.00257056 5.30848e-07
 5.50791e-07 -0.00311434 -5.50772e-07
 5.30827e-07 -0.00257056 -4.04281e-07
 5.30827e-07 -0.00257056 4.04325e-07
 5.50791e-07 -0.00311434 5.50812e-07
 -6.4545e-07 -0.00130813 -6.4545e-07
 -5.96545e-07 -0.00142827 -4.48926e-07
 -5.96546e-07 -0.00142827 4.48937e-07
 -6.45453e-07 -0.00130813 6.45469e-07
 -4.48949e-07 -0.00142827 -5.96539e-07
 -4.20362e-07 -0.00091364 -4.20359e-07
 -4.2036e-07 -0.00091364 4.20374e-07
 -4.4895e-07 -0.00142827 5.96552e-07
 4.48926e-07 -0.00142827 -5.96541e-07
 4.20341e-07 -0.00091364 -4.20359e-07
 4.2034e-07 -0.00091364 4.20373e-07
 4.48926e-07 -0.00142827 5.96553e-07
 6.45439e-07 -0.00130813 -6.45459e-07
 5.96534e-07 -0.00142827 -4.48925e-07
 5.96533e-07 -0.00142827 4.48943e-07
 6.45445e-07 -0.00130813 6.45465e-07
 -1.03937e-06 0.00491096 -1.03939e-06
 -9.24131e-07 0.00534178 -2.72068e-07
 -9.24133e-07 0.00534178 2.72057e-07
 -1.03937e-06 0.00491096 1.03937e-06
 -2.72065e-07 0.00534178 -9.24154e-07
 -2.35207e-07 0.00490277 -2.35214e-07
 -2.35205e-07 0.00490277 2.35201e-07
 -2.72069e-07 0.00534178 9.24141e-07
 2.72053e-07 0.00534178 -9.2416e-07
 2.35193e-07 0.00490277 -2.35213e-07
 2.35193e-07 0.00490277 2.35201e-07
 2.72056e-07 0.00534178 9.24145e-07
 1.03935e-06 0.00491096 -1.0394e-06
 9.24121e-07 0.00534178 -2.72073e-07
 9.2412e-07 0.00534178 2.72058e-07
 1.03936e-06 0.00491096 1.03938e-06
 1.09735e-06 -0.00128015 1.09735e-06
 1.053e-06 -0.00168139 3.32627e-07
 1.053e-06 -0.00168139 -3.3266e-07
 1.09735e-06 -0.00128015 -1.09738e-06
 3.32637e-07 -0.00168139 1.05299e-06
 3.15747e-07 -8.74955e-05 3.15737e-07
 3.15748e-07 -8.74961e-05 -3.15769e-07
 3.32637e-07 -0.00168139 -1.05302e-06
 -3.32645e-07 -0.00168139 1.05299e-06
 -3.15756e-07 -8.74952e-05 3.15738e-07
 -3.15756e-07 -8.74959e-05 -3.1577e-07
 -3.32645e-07 -0.00168139 -1.05302e-06
 -1.09736e-06 -0.00128015 1.09735e-06
 -1.053e-06 -0.00168139 3.32628e-07
 -1.053e-06 -0.00168139 -3.3266e-07
 -1.09736e-06 -0.00128015 -1.09738e-06
 -2.15773e-08 0.00402086 -2.15951e-08
 -4.53448e-08 0.00308417 -9.54685e-08
 -4.5345e-08 0.00308417 9.54257e-08
 -2.1578e-08 0.00402086 2.1551e-08
 -9.54495e-08 0.00308417 -4.53621e-08
 -1.03543e-07 0.000585853 -1.03561e-07
 -1.03543e-07 0.000585854 1.03518e-07
 -9.54501e-08 0.00308417 4.53185e-08
 9.54467e-08 0.00308417 -4.53614e-08
 1.03539e-07 0.000585853 -1.03561e-07
 1.03539e-07 0.000585853 1.03518e-07
 9.54466e-08 0.00308417 4.53184e-08
 2.15736e-08 0.00402086 -2.15936e-08
 4.53418e-08 0.00308417 -9.54674e-08
 4.53412e-08 0.00308417 9.54253e-08
 2.15735e-08 0.00402086 2.15495e-08
 -1.51257e-06 -0.00109772 -1.51259e-06
 -1.47631e-06 -0.00121437 -6.44392e-07
 -1.47631e-06 -0.00121437 6.44348e-07
 -1.51257e-06 -0.00109772 1.51255e-06
 -6.44369e-07 -0.00121437 -1.47633e-06
 -6.28742e-07 -0.00131338 -6.28765e-07
 -6.28742e-07 -0.00131338 6.28721e-07
 -6.44369e-07 -0.00121437 1.47629e-06
 6.44372e-07 -0.00121437 -1.47633e-06
 6.28745e-07 -0.00131338 -6.28764e-07
 6.28744e-07 -0.00131338 6.28721e-07
 6.44371e-07 -0.00121437 1.47629e-06
 1.51257e-06 -0.00109772 -1.51259e-06
 1.47631e-06 -0.00121437 -6.44392e-07
 1.47631e-06 -0.00121437 6.44347e-07
 1.51257e-06 -0.00109772 1.51255e-06
 -2.49241e-06 -0.00102699 -2.49244e-06
 -2.38891e-06 -0.00111829 -9.91532e-07
 -2.38891e-06 -0.00111829 9.91493e-07
 -2.49241e-06 -0.00102699 2.4924e-06
 -9.91507e-07 -0.00111829 -2.38893e-06
 -9.50881e-07 -0.00120029 -9.50906e-07
 -9.50882e-07 -0.00120029 9.50868e-07
 -9.91508e-07 -0.00111829 2.38889e-06
 9.91517e-07 -0.00111829 -2.38893e-06
 9.50891e-07 -0.00120029 -9.50906e-07
 9.50891e-07 -0.00120029 9.50868e-07
 9.91516e-07 -0.00111829 2.38889e-06
 2.49242e-06 -0.00102699 -2.49244e-06
 2.38892e-06 -0.00111829 -9.91532e-07
 2.38892e-06 -0.00111829 9.91493e-07
 2.49242e-06 -0.00102699 2.4924e-06
 -2.41278e-06 -0.00232111 -2.4128e-06
 -2.31225e-06 -0.00218649 -9.51108e-07
 -2.31225e-06 -0.00218649 9.51077e-07
 -2.41278e-06 -0.00232111 2.41277e-06
 -9.51084e-07 -0.00218649 -2.31228e-06
 -9.13024e-07 -0.00210119 -9.13047e-07
 -9.13024e-07 -0.00210119 9.13017e-07
 -9.51085e-07 -0.00218649 2.31225e-06
 9.511e-07 -0.00218649 -2.31228e-06
 9.13039e-07 -0.00210119 -9.13047e-07
 9.13039e-07 -0.00210119 9.13017e-07
 9.51099e-07 -0.00218649 2.31225e-06
 2.4128e-06 -0.00232111 -2.4128e-06
 2.31227e-06 -0.00218649 -9.51108e-07
 2.31227e-06 -0.00218649 9.51077e-07
 2.4128e-06 -0.00232111 2.41277e-06
 -1.23797e-06 -0.000889883 -1.23799e-06
 -1.20661e-06 -0.000922323 -5.13714e-07
 -1.20661e-06 -0.000922323 5.13692e-07
 -1.23797e-06 -0.000889883 1.23797e-06
 -5.13693e-07 -0.000922323 -1.20663e-06
 -5.01325e-07 -0.000994549 -5.01345e-07
 -5.01325e-07 -0.000994549 5.01323e-07
 -5.13694e-07 -0.000922323 1.20661e-06
 5.13712e-07 -0.000922323 -1.20663e-06
 5.01344e-07 -0.000994549 -5.01345e-07
 5.01343e-07 -0.000994549 5.01323e-07
 5.13712e-07 -0.000922323 1.20661e-06
 1.23799e-06 -0.000889883 -1.23799e-06
 1.20663e-06 -0.000922323 -5.13714e-07
 1.20663e-06 -0.000922323 5.13692e-07
 1.23799e-06 -0.000889883 1.23797e-06
 6.49813e-07 -0.00163462 6.49794e-07
 5.8779e-07 -0.00173553 1.80143e-07
 5.8779e-07 -0.00173553 -1.80159e-07
 6.49813e-07 -0.00163462 -6.49809e-07
 1.80161e-07 -0.00173553 5.87771e-07
 1.58447e-07 -0.00169786 1.58429e-07
 1.58447e-07 -0.00169786 -1.58445e-07
 1.80161e-07 -0.00173553 -5.87786e-07
 -1.80141e-07 -0.00173553 5.87771e-07
 -1.58426e-07 -0.00169786 1.58429e-07
 -1.58427e-07 -0.00169786 -1.58445e-07
 -1.80141e-07 -0.00173553 -5.87786e-07
 -6.49792e-07 -0.00163462 6.49794e-07
 -5.87769e-07 -0.00173553 1.80143e-07
 -5.87769e-07 -0.00173553 -1.80159e-07
 -6.49792e-07 -0.00163462 -6.4981e-07
 -5.31784e-08 -0.000802827 -5.31925e-08
 3.11353e-08 -0.000852332 -1.5253e-07
 3.11352e-08 -0.000852332 1.52521e-07
 -5.31784e-08 -0.000802827 5.31828e-08
 -1.52515e-07 -0.000852332 3.11215e-08
 -1.06311e-07 -0.000923409 -1.06325e-07
 -1.06311e-07 -0.000923409 1.06315e-07
 -1.52516e-07 -0.000852332 -3.11312e-08
 1.52534e-07 -0.000852332 3.11216e-08
 1.0633e-07 -0.000923409 -1.06325e-07
 1.0633e-07 -0.000923409 1.06315e-07
 1.52535e-07 -0.000852332 -3.11313e-08