<?xml version="1.0"?>
<VTKFile type="UnstructuredGrid" version="0.1" byte_order="LittleEndian" compressor="vtkZLibDataCompressor">
<UnstructuredGrid>
<Piece NumberOfPoints="960" NumberOfCells="120">
<Points>
<DataArray type="Float32" NumberOfComponents="3" format="ascii">
-4.000000e+02 -6.000000e+03 -4.000000e+02
0.000000e+00 -6.000000e+03 -4.000000e+02
-4.000000e+02 -5.600000e+03 -4.000000e+02
-4.288620e-10 -5.600000e+03 -4.000000e+02
-4.000000e+02 -6.000000e+03 0.000000e+00
0.000000e+00 -6.000000e+03 0.000000e+00
-4.000000e+02 -5.600000e+03 4.389700e-10
-1.804600e-10 -5.600000e+03 4.501020e-10
0.000000e+00 -6.000000e+03 -4.000000e+02
4.000000e+02 -6.000000e+03 -4.000000e+02
-4.288620e-10 -5.600000e+03 -4.000000e+02
4.000000e+02 -5.600000e+03 -4.000000e+02
0.000000e+00 -6.000000e+03 0.000000e+00
4.000000e+02 -6.000000e+03 0.000000e+00
-1.804600e-10 -5.600000e+03 4.501020e-10
4.000000e+02 -5.600000e+03 6.025570e-10
-4.000000e+02 -5.600000e+03 -4.000000e+02
-4.288620e-10 -5.600000e+03 -4.000000e+02
-4.000000e+02 -5.200000e+03 -4.000000e+02
-1.052800e-10 -5.200000e+03 -4.000000e+02
-4.000000e+02 -5.600000e+03 4.389700e-10
-1.804600e-10 -5.600000e+03 4.501020e-10
-4.000000e+02 -5.200000e+03 1.011550e-09
-2.619810e-10 -5.200000e+03 9.524550e-10
-4.288620e-10 -5.600000e+03 -4.000000e+02
4.000000e+02 -5.600000e+03 -4.000000e+02
-1.052800e-10 -5.200000e+03 -4.000000e+02
4.000000e+02 -5.200000e+03 -4.000000e+02
-1.804600e-10 -5.600000e+03 4.501020e-10
4.000000e+02 -5.600000e+03 6.025570e-10
-2.619810e-10 -5.200000e+03 9.524550e-10
4.000000e+02 -5.200000e+03 1.058290e-09
-4.000000e+02 -5.200000e+03 -4.000000e+02
-1.052800e-10 -5.200000e+03 -4.000000e+02
-4.000000e+02 -4.799990e+03 -4.000000e+02
-7.568940e-11 -4.799990e+03 -4.000000e+02
-4.000000e+02 -5.200000e+03 1.011550e-09
-2.619810e-10 -5.200000e+03 9.524550e-10
-4.000000e+02 -4.799990e+03 1.276810e-09
-3.149130e-11 -4.799990e+03 1.131100e-09
-1.052800e-10 -5.200000e+03 -4.000000e+02
4.000000e+02 -5.200000e+03 -4.000000e+02
-7.568940e-11 -4.799990e+03 -4.000000e+02
4.000000e+02 -4.799990e+03 -4.000000e+02
-2.619810e-10 -5.200000e+03 9.524550e-10
4.000000e+02 -5.200000e+03 1.058290e-09
-3.149130e-11 -4.799990e+03 1.131100e-09
4.000000e+02 -4.799990e+03 1.300470e-09
-4.000000e+02 -4.799990e+03 -4.000000e+02
-7.568940e-11 -4.799990e+03 -4.000000e+02
-4.000000e+02 -4.400020e+03 -4.000000e+02
-5.022740e-10 -4.400020e+03 -4.000000e+02
-4.000000e+02 -4.799990e+03 1.276810e-09
-3.149130e-11 -4.799990e+03 1.131100e-09
-4.000000e+02 -4.400020e+03 9.413160e-10
-3.168650e-10 -4.400020e+03 1.235640e-09
-7.568940e-11 -4.799990e+03 -4.000000e+02
4.000000e+02 -4.799990e+03 -4.000000e+02
-5.022740e-10 -4.400020e+03 -4.000000e+02
4.000000e+02 -4.400020e+03 -4.000000e+02
-3.149130e-11 -4.799990e+03 1.131100e-09
4.000000e+02 -4.799990e+03 1.300470e-09
-3.168650e-10 -4.400020e+03 1.235640e-09
4.000000e+02 -4.400020e+03 1.256530e-09
-4.000000e+02 -4.400020e+03 -4.000000e+02
-5.022740e-10 -4.400020e+03 -4.000000e+02
-4.000000e+02 -4.000080e+03 -4.000000e+02
-3.470710e-10 -4.000080e+03 -4.000000e+02
-4.000000e+02 -4.400020e+03 9.413160e-10
-3.168650e-10 -4.400020e+03 1.235640e-09
-4.000000e+02 -4.000080e+03 1.377840e-09
-6.122050e-10 -4.000080e+03 1.499960e-09
-5.022740e-10 -4.400020e+03 -4.000000e+02
4.000000e+02 -4.400020e+03 -4.000000e+02
-3.470710e-10 -4.000080e+03 -4.000000e+02
4.000000e+02 -4.000080e+03 -4.000000e+02
-3.168650e-10 -4.400020e+03 1.235640e-09
4.000000e+02 -4.400020e+03 1.256530e-09
-6.122050e-10 -4.000080e+03 1.499960e-09
4.000000e+02 -4.000080e+03 1.614930e-09
-4.000000e+02 -4.000080e+03 -4.000000e+02
-3.470710e-10 -4.000080e+03 -4.000000e+02
-4.000000e+02 -3.600140e+03 -4.000000e+02
-3.252270e-10 -3.600140e+03 -4.000000e+02
-4.000000e+02 -4.000080e+03 1.377840e-09
-6.122050e-10 -4.000080e+03 1.499960e-09
-4.000000e+02 -3.600140e+03 1.082690e-09
-4.589970e-10 -3.600140e+03 1.342660e-09
-3.470710e-10 -4.000080e+03 -4.000000e+02
4.000000e+02 -4.000080e+03 -4.000000e+02
-3.252270e-10 -3.600140e+03 -4.000000e+02
4.000000e+02 -3.600140e+03 -4.000000e+02
-6.122050e-10 -4.000080e+03 1.499960e-09
4.000000e+02 -4.000080e+03 1.614930e-09
-4.589970e-10 -3.600140e+03 1.342660e-09
4.000000e+02 -3.600140e+03 1.264690e-09
-4.000000e+02 -3.600140e+03 -4.000000e+02
-3.252270e-10 -3.600140e+03 -4.000000e+02
-4.000000e+02 -3.200200e+03 -4.000000e+02
-3.327890e-10 -3.200200e+03 -4.000000e+02
-4.000000e+02 -3.600140e+03 1.082690e-09
-4.589970e-10 -3.600140e+03 1.342660e-09
-4.000000e+02 -3.200200e+03 6.948420e-10
-5.488950e-10 -3.200200e+03 6.194800e-10
-3.252270e-10 -3.600140e+03 -4.000000e+02
4.000000e+02 -3.600140e+03 -4.000000e+02
-3.327890e-10 -3.200200e+03 -4.000000e+02
4.000000e+02 -3.200200e+03 -4.000000e+02
-4.589970e-10 -3.600140e+03 1.342660e-09
4.000000e+02 -3.600140e+03 1.264690e-09
-5.488950e-10 -3.200200e+03 6.194800e-10
4.000000e+02 -3.200200e+03 4.316660e-10
-4.000000e+02 -3.200200e+03 -4.000000e+02
-3.327890e-10 -3.200200e+03 -4.000000e+02
-4.000000e+02 -2.800230e+03 -4.000000e+02
-4.089950e-10 -2.800230e+03 -4.000000e+02
-4.000000e+02 -3.200200e+03 6.948420e-10
-5.488950e-10 -3.200200e+03 6.194800e-10
-4.000000e+02 -2.800230e+03 5.023000e-10
-5.135950e-10 -2.800230e+03 3.825230e-10
-3.327890e-10 -3.200200e+03 -4.000000e+02
4.000000e+02 -3.200200e+03 -4.000000e+02
-4.089950e-10 -2.800230e+03 -4.000000e+02
4.000000e+02 -2.800230e+03 -4.000000e+02
-5.488950e-10 -3.200200e+03 6.194800e-10
4.000000e+02 -3.200200e+03 4.316660e-10
-5.135950e-10 -2.800230e+03 3.825230e-10
4.000000e+02 -2.800230e+03 3.414560e-10
-4.000000e+02 -2.800230e+03 -4.000000e+02
-4.089950e-10 -2.800230e+03 -4.000000e+02
-4.000000e+02 -2.400250e+03 -4.000000e+02
-3.164390e-10 -2.400250e+03 -4.000000e+02
-4.000000e+02 -2.800230e+03 5.023000e-10
-5.135950e-10 -2.800230e+03 3.825230e-10
-4.000000e+02 -2.400250e+03 4.325640e-11
-2.180400e-10 -2.400250e+03 2.025840e-10
-4.089950e-10 -2.800230e+03 -4.000000e+02
4.000000e+02 -2.800230e+03 -4.000000e+02
-3.164390e-10 -2.400250e+03 -4.000000e+02
4.000000e+02 -2.400250e+03 -4.000000e+02
-5.135950e-10 -2.800230e+03 3.825230e-10
4.000000e+02 -2.800230e+03 3.414560e-10
-2.180400e-10 -2.400250e+03 2.025840e-10
4.000000e+02 -2.400250e+03 1.375190e-10
-4.000000e+02 -2.400250e+03 -4.000000e+02
-3.164390e-10 -2.400250e+03 -4.000000e+02
-4.000000e+02 -2.000250e+03 -4.000000e+02
-1.993880e-11 -2.000250e+03 -4.000000e+02
-4.000000e+02 -2.400250e+03 4.325640e-11
-2.180400e-10 -2.400250e+03 2.025840e-10
-4.000000e+02 -2.000250e+03 -1.508570e-10
-1.670710e-12 -2.000250e+03 -3.251860e-10
-3.164390e-10 -2.400250e+03 -4.000000e+02
4.000000e+02 -2.400250e+03 -4.000000e+02
-1.993880e-11 -2.000250e+03 -4.000000e+02
4.000000e+02 -2.000250e+03 -4.000000e+02
-2.180400e-10 -2.400250e+03 2.025840e-10
4.000000e+02 -2.400250e+03 1.375190e-10
-1.670710e-12 -2.000250e+03 -3.251860e-10
4.000000e+02 -2.000250e+03 -1.796720e-10
-4.000000e+02 -2.000250e+03 -4.000000e+02
-1.993880e-11 -2.000250e+03 -4.000000e+02
-4.000000e+02 -1.600250e+03 -4.000000e+02
3.508430e-10 -1.600250e+03 -4.000000e+02
-4.000000e+02 -2.000250e+03 -1.508570e-10
-1.670710e-12 -2.000250e+03 -3.251860e-10
-4.000000e+02 -1.600250e+03 -1.250320e-10
3.440190e-10 -1.600250e+03 -3.070850e-10
-1.993880e-11 -2.000250e+03 -4.000000e+02
4.000000e+02 -2.000250e+03 -4.000000e+02
3.508430e-10 -1.600250e+03 -4.000000e+02
4.000000e+02 -1.600250e+03 -4.000000e+02
-1.670710e-12 -2.000250e+03 -3.251860e-10
4.000000e+02 -2.000250e+03 -1.796720e-10
3.440190e-10 -1.600250e+03 -3.070850e-10
4.000000e+02 -1.600250e+03 -2.528950e-10
-4.000000e+02 -1.600250e+03 -4.000000e+02
3.508430e-10 -1.600250e+03 -4.000000e+02
-4.000000e+02 -1.200260e+03 -4.000000e+02
5.506830e-10 -1.200260e+03 -4.000000e+02
-4.000000e+02 -1.600250e+03 -1.250320e-10
3.440190e-10 -1.600250e+03 -3.070850e-10
-4.000000e+02 -1.200260e+03 -1.392020e-10
4.897600e-10 -1.200260e+03 -7.037050e-11
3.508430e-10 -1.600250e+03 -4.000000e+02
4.000000e+02 -1.600250e+03 -4.000000e+02
5.506830e-10 -1.200260e+03 -4.000000e+02
4.000000e+02 -1.200260e+03 -4.000000e+02
3.440190e-10 -1.600250e+03 -3.070850e-10
4.000000e+02 -1.600250e+03 -2.528950e-10
4.897600e-10 -1.200260e+03 -7.037050e-11
4.000000e+02 -1.200260e+03 -1.894700e-10
-4.000000e+02 -1.200260e+03 -4.000000e+02
5.506830e-10 -1.200260e+03 -4.000000e+02
-4.000000e+02 -8.002580e+02 -4.000000e+02
3.773910e-10 -8.002580e+02 -4.000000e+02
-4.000000e+02 -1.200260e+03 -1.392020e-10
4.897600e-10 -1.200260e+03 -7.037050e-11
-4.000000e+02 -8.002580e+02 -1.335660e-10
3.165290e-10 -8.002580e+02 -5.617270e-11
5.506830e-10 -1.200260e+03 -4.000000e+02
4.000000e+02 -1.200260e+03 -4.000000e+02
3.773910e-10 -8.002580e+02 -4.000000e+02
4.000000e+02 -8.002580e+02 -4.000000e+02
4.897600e-10 -1.200260e+03 -7.037050e-11
4.000000e+02 -1.200260e+03 -1.894700e-10
3.165290e-10 -8.002580e+02 -5.617270e-11
4.000000e+02 -8.002580e+02 3.728870e-12
-4.000000e+02 -8.002580e+02 -4.000000e+02
3.773910e-10 -8.002580e+02 -4.000000e+02
-4.000000e+02 -4.002590e+02 -4.000000e+02
3.760610e-10 -4.002590e+02 -4.000000e+02
-4.000000e+02 -8.002580e+02 -1.335660e-10
3.165290e-10 -8.002580e+02 -5.617270e-11
-4.000000e+02 -4.002590e+02 -1.903670e-10
2.237930e-10 -4.002590e+02 -6.104880e-11
3.773910e-10 -8.002580e+02 -4.000000e+02
4.000000e+02 -8.002580e+02 -4.000000e+02
3.760610e-10 -4.002590e+02 -4.000000e+02
4.000000e+02 -4.002590e+02 -4.000000e+02
3.165290e-10 -8.002580e+02 -5.617270e-11
4.000000e+02 -8.002580e+02 3.728870e-12
2.237930e-10 -4.002590e+02 -6.104880e-11
4.000000e+02 -4.002590e+02 1.150750e-10
-4.000000e+02 -4.002590e+02 -4.000000e+02
3.760610e-10 -4.002590e+02 -4.000000e+02
-4.000000e+02 -2.598470e-01 -4.000000e+02
3.398990e-10 -2.598460e-01 -4.000000e+02
-4.000000e+02 -4.002590e+02 -1.903670e-10
2.237930e-10 -4.002590e+02 -6.104880e-11
-4.000000e+02 -2.598460e-01 -4.997660e-11
2.521140e-10 -2.598450e-01 1.064770e-10
3.760610e-10 -4.002590e+02 -4.000000e+02
4.000000e+02 -4.002590e+02 -4.000000e+02
3.398990e-10 -2.598460e-01 -4.000000e+02
[...]
<PointData>
<DataArray type="Float32" Name="V1" format="ascii">
0.000000e+00
0.000000e+00
-3.027090e-07
4.183910e-10
0.000000e+00
0.000000e+00
-3.034000e-07
-1.547260e-10
0.000000e+00
0.000000e+00
4.183910e-10
3.038010e-07
0.000000e+00
0.000000e+00
-1.547260e-10
3.032660e-07
-3.027090e-07
4.183910e-10
5.044570e-07
-1.057460e-10
-3.034000e-07
-1.547260e-10
5.033490e-07
2.286950e-11
4.183910e-10
3.038010e-07
-1.057460e-10
-5.049130e-07
-1.547260e-10
3.032660e-07
2.286950e-11
-5.036400e-07
5.044570e-07
-1.057460e-10
-4.132850e-07
7.790830e-11
5.033490e-07
2.286950e-11
-4.090430e-07
-6.877140e-11
-1.057460e-10
-5.049130e-07
7.790830e-11
4.136380e-07
2.286950e-11
-5.036400e-07
-6.877140e-11
4.089480e-07
-4.132850e-07
7.790830e-11
-3.523960e-07
-3.344870e-10
-4.090430e-07
-6.877140e-11
-3.614690e-07
3.468540e-10
7.790830e-11
4.136380e-07
-3.344870e-10
3.520810e-07
-6.877140e-11
4.089480e-07
3.468540e-10
3.619640e-07
-3.523960e-07
-3.344870e-10
1.644430e-06
-4.755890e-11
-3.614690e-07
3.468540e-10
1.660700e-06
2.179060e-11
-3.344870e-10
3.520810e-07
-4.755890e-11
-1.644610e-06
3.468540e-10
3.619640e-07
2.179060e-11
-1.660500e-06
1.644430e-06
-4.755890e-11
-2.338860e-06
-8.558460e-11
1.660700e-06
2.179060e-11
-2.358690e-06
-2.408540e-12
-4.755890e-11
-1.644610e-06
-8.558460e-11
2.338380e-06
2.179060e-11
-1.660500e-06
-2.408540e-12
2.358520e-06
-2.338860e-06
-8.558460e-11
1.020360e-06
2.874220e-10
-2.358690e-06
-2.408540e-12
1.036330e-06
1.260810e-10
-8.558460e-11
2.338380e-06
2.874220e-10
-1.020050e-06
-2.408540e-12
2.358520e-06
1.260810e-10
-1.035980e-06
1.020360e-06
2.874220e-10
2.045690e-06
2.351360e-10
1.036330e-06
1.260810e-10
2.046970e-06
1.052520e-10
2.874220e-10
-1.020050e-06
2.351360e-10
-2.045170e-06
1.260810e-10
-1.035980e-06
1.052520e-10
-2.046630e-06
2.045690e-06
2.351360e-10
-4.209360e-06
-1.391590e-10
2.046970e-06
1.052520e-10
-4.241610e-06
-8.645950e-11
2.351360e-10
-2.045170e-06
-1.391590e-10
4.209690e-06
1.052520e-10
-2.046630e-06
-8.645950e-11
4.241600e-06
-4.209360e-06
-1.391590e-10
2.828170e-06
-6.966680e-11
-4.241610e-06
-8.645950e-11
2.900830e-06
-4.254770e-11
-1.391590e-10
4.209690e-06
-6.966680e-11
-2.828310e-06
-8.645950e-11
4.241600e-06
-4.254770e-11
-2.901200e-06
2.828170e-06
-6.966680e-11
1.698560e-06
-2.260510e-10
2.900830e-06
-4.254770e-11
1.579750e-06
-1.176360e-10
-6.966680e-11
-2.828310e-06
-2.260510e-10
-1.698690e-06
-4.254770e-11
-2.901200e-06
-1.176360e-10
-1.579990e-06
1.698560e-06
-2.260510e-10
-2.945030e-06
3.115750e-10
1.579750e-06
-1.176360e-10
-2.811400e-06
3.834970e-11
-2.260510e-10
-1.698690e-06
3.115750e-10
2.945590e-06
-1.176360e-10
-1.579990e-06
3.834970e-11
2.811250e-06
-2.945030e-06
3.115750e-10
-3.478340e-06
1.188510e-10
-2.811400e-06
3.834970e-11
-3.515910e-06
1.177120e-10
3.115750e-10
2.945590e-06
1.188510e-10
3.478470e-06
3.834970e-11
2.811250e-06
1.177120e-10
3.516060e-06
-3.478340e-06
1.188510e-10
3.469260e-06
-9.506530e-11
-3.515910e-06
1.177120e-10
3.353810e-06
-8.881810e-11
1.188510e-10
3.478470e-06
-9.506530e-11
-3.469780e-06
1.177120e-10
3.516060e-06
-8.881810e-11
-3.353790e-06
3.469260e-06
-9.506530e-11
5.749010e-06
2.567310e-11
3.353810e-06
-8.881810e-11
5.750180e-06
2.853800e-11
-9.506530e-11
-3.469780e-06
2.567310e-11
-5.749140e-06
-8.881810e-11
-3.353790e-06
2.853800e-11
-5.750340e-06
5.749010e-06
2.567310e-11
-7.684300e-07
-6.013100e-11
5.750180e-06
2.853800e-11
-5.514490e-07
3.484340e-11
2.567310e-11
-5.749140e-06
-6.013100e-11
7.686420e-07
2.853800e-11
-5.750340e-06
3.484340e-11
5.512840e-07
-7.684300e-07
-6.013100e-11
-6.053080e-06
4.770920e-12
-5.514490e-07
3.484340e-11
-6.171660e-06
-1.326100e-10
-6.013100e-11
7.686420e-07
4.770920e-12
6.052980e-06
3.484340e-11
5.512840e-07
-1.326100e-10
6.171290e-06
-6.053080e-06
4.770920e-12
-7.234190e-06
-3.109370e-11
-6.171660e-06
-1.326100e-10
-7.275680e-06
-4.377590e-12
4.770920e-12
6.052980e-06
-3.109370e-11
7.233960e-06
-1.326100e-10
6.171290e-06
-4.377590e-12
7.275760e-06
-7.234190e-06
-3.109370e-11
-6.076090e-07
1.477630e-10
-7.275680e-06
-4.377590e-12
-2.941540e-07
-1.391730e-11
-3.109370e-11
7.233960e-06
1.477630e-10
6.077900e-07
-4.377590e-12
7.275760e-06
-1.391730e-11
2.940440e-07
-6.076090e-07
1.477630e-10
2.238850e-09
1.352920e-11
-2.941540e-07
-1.391730e-11
-5.341830e-09
-2.120480e-11
1.477630e-10
6.077900e-07
1.352920e-11
-2.238850e-09
-1.391730e-11
2.940440e-07
-2.120480e-11
5.255410e-09
2.238850e-09
1.352920e-11
-2.971470e-07
4.759050e-11
-5.341830e-09
-2.120480e-11
-1.939240e-07
5.674800e-11
1.352920e-11
-2.238850e-09
4.759050e-11
2.972100e-07
-2.120480e-11
5.255410e-09
5.674800e-11
1.940030e-07
-2.971470e-07
4.759050e-11
-1.473330e-06
4.986020e-11
-1.939240e-07
5.674800e-11
-1.439470e-06
5.397670e-11
4.759050e-11
2.972100e-07
4.986020e-11
1.473430e-06
5.674800e-11
1.940030e-07
5.397670e-11
1.439580e-06
-1.473330e-06
4.986020e-11
-1.513910e-06
-1.949910e-11
-1.439470e-06
5.397670e-11
-1.522840e-06
-1.789200e-11
4.986020e-11
1.473430e-06
-1.949910e-11
1.513870e-06
5.397670e-11
1.439580e-06
-1.789200e-11
1.522840e-06
-1.513910e-06
-1.949910e-11
-1.376590e-06
-3.013430e-11
-1.522840e-06
-1.789200e-11
-1.482230e-06
-3.148300e-11
-1.949910e-11
1.513870e-06
-3.013430e-11
1.376540e-06
-1.789200e-11
1.522840e-06
-3.148300e-11
1.482170e-06
-1.376590e-06
-3.013430e-11
1.543020e-06
3.118310e-12
-1.482230e-06
-3.148300e-11
1.438880e-06
-5.372960e-12
-3.013430e-11
1.376540e-06
3.118310e-12
-1.543000e-06
-3.148300e-11
1.482170e-06
-5.372960e-12
-1.438920e-06
1.543020e-06
3.118310e-12
2.738570e-06
1.823550e-11
1.438880e-06
-5.372960e-12
2.767620e-06
1.871510e-11
3.118310e-12
-1.543000e-06
1.823550e-11
-2.738540e-06
-5.372960e-12
-1.438920e-06
1.871510e-11
-2.767570e-06
2.738570e-06
1.823550e-11
-1.649370e-06
-3.040350e-12
2.767620e-06
1.871510e-11
-1.534570e-06
-1.702840e-12
1.823550e-11
-2.738540e-06
-3.040350e-12
1.649360e-06
1.871510e-11
-2.767570e-06
-1.702840e-12
1.534570e-06
-1.649370e-06
-3.040350e-12
-1.713120e-06
-1.688970e-11
-1.534570e-06
-1.702840e-12
-1.594830e-06
-1.494200e-11
-3.040350e-12
1.649360e-06
-1.688970e-11
1.713080e-06
-1.702840e-12
1.534570e-06
-1.494200e-11
1.594820e-06
-1.713120e-06
-1.688970e-11
2.015570e-06
-1.303600e-11
-1.594830e-06
-1.494200e-11
1.772220e-06
-9.734110e-12
-1.688970e-11
1.713080e-06
-1.303600e-11
-2.015590e-06
-1.494200e-11
1.594820e-06
-9.734110e-12
-1.772230e-06
2.015570e-06
-1.303600e-11
-3.872950e-06
6.728760e-13
1.772220e-06
-9.734110e-12
-3.576040e-06
5.638400e-13
-1.303600e-11
-2.015590e-06
6.728760e-13
3.872980e-06
-9.734110e-12
-1.772230e-06
5.638400e-13
3.576050e-06
0.000000e+00
0.000000e+00
-3.034000e-07
-1.547260e-10
0.000000e+00
0.000000e+00
-3.034080e-07
-3.725150e-11
0.000000e+00
0.000000e+00
-1.547260e-10
3.032660e-07
0.000000e+00
0.000000e+00
-3.725150e-11
3.032900e-07
-3.034000e-07
-1.547260e-10
5.033490e-07
2.286950e-11
-3.034080e-07
-3.725150e-11
5.046770e-07
2.704360e-10
-1.547260e-10
3.032660e-07
2.286950e-11
-5.036400e-07
-3.725150e-11
3.032900e-07
2.704360e-10
-5.046060e-07
5.033490e-07
2.286950e-11
-4.090430e-07
-6.877140e-11
5.046770e-07
2.704360e-10
-4.128210e-07
4.856700e-10
2.286950e-11
-5.036400e-07
-6.877140e-11
4.089480e-07
2.704360e-10
-5.046060e-07
4.856700e-10
4.139760e-07
-4.090430e-07
-6.877140e-11
-3.614690e-07
3.468540e-10
-4.128210e-07
4.856700e-10
-3.523800e-07
-3.389020e-10
-6.877140e-11
4.089480e-07
3.468540e-10
3.619640e-07
4.856700e-10
4.139760e-07
-3.389020e-10
3.517830e-07
-3.614690e-07
3.468540e-10
1.660700e-06
2.179060e-11
-3.523800e-07
-3.389020e-10
1.645050e-06
-4.218890e-10
3.468540e-10
3.619640e-07
2.179060e-11
-1.660500e-06
-3.389020e-10
3.517830e-07
-4.218890e-10
-1.645230e-06
1.660700e-06
2.179060e-11
-2.358690e-06
-2.408540e-12
1.645050e-06
-4.218890e-10
-2.339260e-06
-1.474280e-10
2.179060e-11
-1.660500e-06
-2.408540e-12
2.358520e-06
-4.218890e-10
-1.645230e-06
-1.474280e-10
2.338930e-06
-2.358690e-06
-2.408540e-12
1.036330e-06
1.260810e-10
-2.339260e-06
-1.474280e-10
1.020310e-06
4.371210e-11
-2.408540e-12
2.358520e-06
1.260810e-10
-1.035980e-06
-1.474280e-10
2.338930e-06
4.371210e-11
-1.020200e-06
1.036330e-06
1.260810e-10
2.046970e-06
1.052520e-10
1.020310e-06
4.371210e-11
2.045530e-06
-3.044950e-10
1.260810e-10
-1.035980e-06
1.052520e-10
-2.046630e-06
4.371210e-11
-1.020200e-06
-3.044950e-10
-2.046040e-06
2.046970e-06
1.052520e-10
-4.241610e-06
-8.645950e-11
2.045530e-06
-3.044950e-10
-4.209850e-06
-1.854310e-10
1.052520e-10
-2.046630e-06
-8.645950e-11
4.241600e-06
-3.044950e-10
-2.046040e-06
-1.854310e-10
4.209270e-06
-4.241610e-06
-8.645950e-11
2.900830e-06
-4.254770e-11
-4.209850e-06
-1.854310e-10
2.828320e-06
-6.615770e-12
-8.645950e-11
4.241600e-06
-4.254770e-11
-2.901200e-06
-1.854310e-10
4.209270e-06
-6.615770e-12
-2.828470e-06
2.900830e-06
-4.254770e-11
1.579750e-06
-1.176360e-10
2.828320e-06
-6.615770e-12
1.698540e-06
5.966430e-11
-4.254770e-11
-2.901200e-06
-1.176360e-10
-1.579990e-06
-6.615770e-12
-2.828470e-06
5.966430e-11
-1.698450e-06
1.579750e-06
-1.176360e-10
-2.811400e-06
3.834970e-11
1.698540e-06
5.966430e-11
-2.945510e-06
2.135340e-10
-1.176360e-10
-1.579990e-06
3.834970e-11
2.811250e-06
5.966430e-11
-1.698450e-06
2.135340e-10
2.946010e-06
-2.811400e-06
3.834970e-11
-3.515910e-06
1.177120e-10
-2.945510e-06
2.135340e-10
-3.478250e-06
-8.585070e-12
3.834970e-11
2.811250e-06
1.177120e-10
3.516060e-06
2.135340e-10
2.946010e-06
-8.585070e-12
3.478130e-06
-3.515910e-06
1.177120e-10
3.353810e-06
-8.881810e-11
-3.478250e-06
-8.585070e-12
3.469440e-06
1.731600e-10
1.177120e-10
3.516060e-06
-8.881810e-11
-3.353790e-06
-8.585070e-12
3.478130e-06
1.731600e-10
-3.469350e-06
3.353810e-06
-8.881810e-11
5.750180e-06
2.853800e-11
3.469440e-06
1.731600e-10
5.749450e-06
2.511520e-10
-8.881810e-11
-3.353790e-06
2.853800e-11
-5.750340e-06
1.731600e-10
-3.469350e-06
2.511520e-10
-5.749270e-06
5.750180e-06
2.853800e-11
-5.514490e-07
3.484340e-11
5.749450e-06
2.511520e-10
-7.684300e-07
-3.761350e-11
2.853800e-11
-5.750340e-06
3.484340e-11
5.512840e-07
2.511520e-10
-5.749270e-06
-3.761350e-11
7.681780e-07
-5.514490e-07
3.484340e-11
-6.171660e-06
-1.326100e-10
-7.684300e-07
-3.761350e-11
-6.052780e-06
-6.838020e-11
3.484340e-11
5.512840e-07
-1.326100e-10
6.171290e-06
-3.761350e-11
7.681780e-07
-6.838020e-11
6.053120e-06
-6.171660e-06
-1.326100e-10
-7.275680e-06
-4.377590e-12
-6.052780e-06
-6.838020e-11
-7.234230e-06
-1.137970e-10
-1.326100e-10
6.171290e-06
-4.377590e-12
7.275760e-06
-6.838020e-11
6.053120e-06
-1.137970e-10
7.234000e-06
-7.275680e-06
-4.377590e-12
-2.941540e-07
-1.391730e-11
-7.234230e-06
-1.137970e-10
-6.075780e-07
1.008050e-10
-4.377590e-12
7.275760e-06
-1.391730e-11
2.940440e-07
-1.137970e-10
7.234000e-06
1.008050e-10
6.078450e-07
-2.941540e-07
-1.391730e-11
-5.341830e-09
-2.120480e-11
-6.075780e-07
1.008050e-10
2.270280e-09
-3.245120e-11
-1.391730e-11
2.940440e-07
-2.120480e-11
5.255410e-09
1.008050e-10
6.078450e-07
-3.245120e-11
-2.356690e-09
-5.341830e-09
-2.120480e-11
-1.939240e-07
5.674800e-11
2.270280e-09
-3.245120e-11
-2.971470e-07
5.970200e-11
-2.120480e-11
5.255410e-09
5.674800e-11
1.940030e-07
-3.245120e-11
-2.356690e-09
5.970200e-11
2.972410e-07
-1.939240e-07
5.674800e-11
-1.439470e-06
5.397670e-11
-2.971470e-07
5.970200e-11
-1.473300e-06
5.893880e-11
5.674800e-11
1.940030e-07
5.397670e-11
1.439580e-06
5.970200e-11
2.972410e-07
5.893880e-11
1.473420e-06
-1.439470e-06
5.397670e-11
-1.522840e-06
-1.789200e-11
-1.473300e-06
5.893880e-11
-1.513920e-06
-2.450660e-11
5.397670e-11
1.439580e-06
-1.789200e-11
1.522840e-06
5.893880e-11
1.473420e-06
-2.450660e-11
1.513860e-06
-1.522840e-06
-1.789200e-11
-1.482230e-06
-3.148300e-11
-1.513920e-06
-2.450660e-11
-1.376640e-06
-3.377960e-11
-1.789200e-11
1.522840e-06
-3.148300e-11
1.482170e-06
-2.450660e-11
1.513860e-06
-3.377960e-11
1.376570e-06
-1.482230e-06
-3.148300e-11
1.438880e-06
-5.372960e-12
-1.376640e-06
-3.377960e-11
1.543000e-06
-1.293770e-11
-3.148300e-11
1.482170e-06
-5.372960e-12
-1.438920e-06
-3.377960e-11
1.376570e-06
-1.293770e-11
-1.543030e-06
1.438880e-06
-5.372960e-12
2.767620e-06
1.871510e-11
1.543000e-06
-1.293770e-11
2.738570e-06
1.627060e-11
-5.372960e-12
-1.438920e-06
1.871510e-11
-2.767570e-06
-1.293770e-11
-1.543030e-06
1.627060e-11
-2.738530e-06
2.767620e-06
1.871510e-11
-1.534570e-06
-1.702840e-12
2.738570e-06
1.627060e-11
-1.649360e-06
-4.952800e-12
1.871510e-11
-2.767570e-06
-1.702840e-12
1.534570e-06
1.627060e-11
-2.738530e-06
-4.952800e-12
1.649370e-06
-1.534570e-06
-1.702840e-12
-1.594830e-06
-1.494200e-11
-1.649360e-06
-4.952800e-12
-1.713100e-06
-1.379000e-11
-1.702840e-12
1.534570e-06
-1.494200e-11
1.594820e-06
-4.952800e-12
1.649370e-06
-1.379000e-11
1.713070e-06
-1.594830e-06
-1.494200e-11
1.772220e-06
-9.734110e-12
-1.713100e-06
-1.379000e-11
2.015570e-06
-9.283400e-12
-1.494200e-11
1.594820e-06
-9.734110e-12
-1.772230e-06
-1.379000e-11
1.713070e-06
-9.283400e-12
-2.015580e-06
1.772220e-06
-9.734110e-12
-3.576040e-06
5.638400e-13
2.015570e-06
-9.283400e-12
-3.872960e-06
3.288010e-12
-9.734110e-12
-1.772230e-06
5.638400e-13
3.576050e-06
-9.283400e-12
-2.015580e-06
3.288010e-12
3.872970e-06
</DataArray>
<DataArray type="Float32" Name="V2" format="ascii">
0.000000e+00
0.000000e+00
1.621620e-03
1.621360e-03
0.000000e+00
0.000000e+00
1.621360e-03
1.621100e-03
0.000000e+00
0.000000e+00
1.621360e-03
1.621620e-03
0.000000e+00
0.000000e+00
1.621100e-03
1.621360e-03
1.621620e-03
1.621360e-03
5.919770e-03
5.919810e-03
1.621360e-03
1.621100e-03
5.919810e-03
5.919840e-03
1.621360e-03
1.621620e-03
5.919810e-03
5.919780e-03
1.621100e-03
1.621360e-03
5.919840e-03
5.919810e-03
5.919770e-03
5.919810e-03
-4.553630e-03
-4.553160e-03
5.919810e-03
5.919840e-03
-4.553160e-03
-4.552670e-03
5.919810e-03
5.919780e-03
-4.553160e-03
-4.553630e-03
5.919840e-03
5.919810e-03
-4.552670e-03
-4.553160e-03
-4.553630e-03
-4.553160e-03
-3.050040e-02
-3.050140e-02
-4.553160e-03
-4.552670e-03
-3.050140e-02
-3.050250e-02
-4.553160e-03
-4.553630e-03
-3.050140e-02
-3.050040e-02
-4.552670e-03
-4.553160e-03
-3.050250e-02
-3.050140e-02
-3.050040e-02
-3.050140e-02
-4.738010e-02
-4.737920e-02
-3.050140e-02
-3.050250e-02
-4.737920e-02
-4.737830e-02
-3.050140e-02
-3.050040e-02
-4.737920e-02
-4.738010e-02
-3.050250e-02
-3.050140e-02
-4.737830e-02
-4.737920e-02
-4.738010e-02
-4.737920e-02
-4.492740e-02
-4.492660e-02
-4.737920e-02
-4.737830e-02
-4.492660e-02
-4.492580e-02
-4.737920e-02
-4.738010e-02
-4.492660e-02
-4.492740e-02
-4.737830e-02
-4.737920e-02
-4.492580e-02
-4.492660e-02
-4.492740e-02
-4.492660e-02
-3.032580e-02
-3.032880e-02
-4.492660e-02
-4.492580e-02
-3.032880e-02
-3.033200e-02
-4.492660e-02
-4.492740e-02
-3.032880e-02
-3.032580e-02
-4.492580e-02
-4.492660e-02
-3.033200e-02
-3.032880e-02
-3.032580e-02
-3.032880e-02
-1.503750e-02
-1.503520e-02
-3.032880e-02
-3.033200e-02
-1.503520e-02
-1.503280e-02
-3.032880e-02
-3.032580e-02
-1.503520e-02
-1.503750e-02
-3.033200e-02
-3.032880e-02
-1.503280e-02
-1.503520e-02
-1.503750e-02
-1.503520e-02
-6.331060e-03
-6.327520e-03
-1.503520e-02
-1.503280e-02
-6.327530e-03
-6.324090e-03
-1.503520e-02
-1.503750e-02
-6.327520e-03
-6.331060e-03
-1.503280e-02
-1.503520e-02
-6.324090e-03
-6.327520e-03
-6.331060e-03
-6.327520e-03
-2.467020e-03
-2.472320e-03
-6.327530e-03
-6.324090e-03
-2.472320e-03
-2.477560e-03
-6.327520e-03
-6.331060e-03
-2.472320e-03
-2.467020e-03
-6.324090e-03
-6.327520e-03
-2.477560e-03
-2.472320e-03
-2.467020e-03
-2.472320e-03
-1.451860e-03
-1.457670e-03
-2.472320e-03
-2.477560e-03
-1.457670e-03
-1.463480e-03
-2.472320e-03
-2.467020e-03
-1.457670e-03
-1.451860e-03
-2.477560e-03
-2.472320e-03
-1.463480e-03
-1.457670e-03
-1.451860e-03
-1.457670e-03
-1.188480e-03
-1.180950e-03
-1.457670e-03
-1.463480e-03
-1.180950e-03
-1.173360e-03
-1.457670e-03
-1.451860e-03
-1.180950e-03
-1.188480e-03
-1.463480e-03
-1.457670e-03
-1.173360e-03
-1.180950e-03
-1.188480e-03
-1.180950e-03
-9.055940e-04
-8.973250e-04
-1.180950e-03
-1.173360e-03
-8.973240e-04
-8.892070e-04
-1.180950e-03
-1.188480e-03
-8.973250e-04
-9.055950e-04
-1.173360e-03
-1.180950e-03
-8.892070e-04
-8.973250e-04
-9.055940e-04
-8.973250e-04
-5.463500e-04
-5.488710e-04
-8.973240e-04
-8.892070e-04
-5.488720e-04
-5.515520e-04
-8.973250e-04
-9.055950e-04
-5.488710e-04
-5.463520e-04
-8.892070e-04
-8.973250e-04
-5.515520e-04
-5.488730e-04
-5.463500e-04
-5.488710e-04
-3.158580e-04
-3.169840e-04
-5.488720e-04
-5.515520e-04
-3.169820e-04
-3.175440e-04
-5.488710e-04
-5.463520e-04
-3.169840e-04
-3.158570e-04
-5.515520e-04
-5.488730e-04
-3.175440e-04
-3.169830e-04
-3.158580e-04
-3.169840e-04
-4.800580e-04
-4.838010e-04
-3.169820e-04
-3.175440e-04
-4.838010e-04
-4.876730e-04
-3.169840e-04
-3.158570e-04
-4.838010e-04
-4.800580e-04
-3.175440e-04
-3.169830e-04
-4.876730e-04
-4.838000e-04
-4.800580e-04
-4.838010e-04
-4.655920e-04
-4.692430e-04
-4.838010e-04
-4.876730e-04
-4.692440e-04
-4.731560e-04
-4.838010e-04
-4.800580e-04
-4.692430e-04
-4.655920e-04
-4.876730e-04
-4.838000e-04
-4.731560e-04
-4.692430e-04
-4.655920e-04
-4.692430e-04
1.005840e-04
9.985980e-05
-4.692440e-04
-4.731560e-04
9.985970e-05
9.927180e-05
-4.692430e-04
-4.655920e-04
9.985980e-05
1.005840e-04
-4.731560e-04
-4.692430e-04
9.927180e-05
9.986020e-05
1.005840e-04
9.985980e-05
5.035370e-04
5.007370e-04
9.985970e-05
9.927180e-05
5.007370e-04
4.986100e-04
9.985980e-05
1.005840e-04
5.007370e-04
5.035370e-04
9.927180e-05
9.986020e-05
4.986100e-04
5.007360e-04
5.035370e-04
5.007370e-04
5.258470e-04
5.241560e-04
5.007370e-04
4.986100e-04
5.241560e-04
5.227180e-04
5.007370e-04
5.035370e-04
5.241560e-04
5.258460e-04
4.986100e-04
5.007360e-04
5.227180e-04
5.241560e-04
5.258470e-04
5.241560e-04
2.863340e-04
2.934780e-04
5.241560e-04
5.227180e-04
2.934780e-04
3.002990e-04
5.241560e-04
5.258460e-04
2.934780e-04
2.863340e-04
5.227180e-04
5.241560e-04
3.002990e-04
2.934780e-04
2.863340e-04
2.934780e-04
-1.384220e-04
-1.277720e-04
2.934780e-04
3.002990e-04
-1.277720e-04
-1.155840e-04
2.934780e-04
2.863340e-04
-1.277720e-04
-1.384220e-04
3.002990e-04
2.934780e-04
-1.155840e-04
-1.277720e-04
-1.384220e-04
-1.277720e-04
-3.004310e-04
-3.002390e-04
-1.277720e-04
-1.155840e-04
-3.002390e-04
-2.980510e-04
-1.277720e-04
-1.384220e-04
-3.002390e-04
-3.004310e-04
-1.155840e-04
-1.277720e-04
-2.980510e-04
-3.002390e-04
-3.004310e-04
-3.002390e-04
1.195510e-04
1.082380e-04
-3.002390e-04
-2.980510e-04
1.082370e-04
9.687010e-05
-3.002390e-04
-3.004310e-04
1.082380e-04
1.195510e-04
-2.980510e-04
-3.002390e-04
9.687010e-05
1.082380e-04
1.195510e-04
1.082380e-04
3.070010e-04
3.007330e-04
1.082370e-04
9.687010e-05
3.007330e-04
2.919790e-04
1.082380e-04
1.195510e-04
3.007330e-04
3.070010e-04
9.687010e-05
1.082380e-04
2.919790e-04
3.007330e-04
3.070010e-04
3.007330e-04
-5.275210e-04
-5.133860e-04
3.007330e-04
2.919790e-04
-5.133860e-04
-5.013760e-04
3.007330e-04
3.070010e-04
-5.133860e-04
-5.275210e-04
2.919790e-04
3.007330e-04
-5.013760e-04
-5.133860e-04
-5.275210e-04
-5.133860e-04
-1.179090e-03
-1.162060e-03
-5.133860e-04
-5.013760e-04
-1.162060e-03
-1.143310e-03
-5.133860e-04
-5.275210e-04
-1.162060e-03
-1.179090e-03
-5.013760e-04
-5.133860e-04
-1.143310e-03
-1.162060e-03
-1.179090e-03
-1.162060e-03
-3.630050e-04
-3.684230e-04
-1.162060e-03
-1.143310e-03
-3.684240e-04
-3.736190e-04
-1.162060e-03
-1.179090e-03
-3.684230e-04
-3.630050e-04
-1.143310e-03
-1.162060e-03
-3.736190e-04
-3.684230e-04
-3.630050e-04
-3.684230e-04
-1.161430e-04
-1.254440e-04
-3.684240e-04
-3.736190e-04
-1.254440e-04
-1.342030e-04
-3.684230e-04
-3.630050e-04
-1.254440e-04
-1.161430e-04
-3.736190e-04
-3.684230e-04
-1.342030e-04
-1.254440e-04
-1.161430e-04
-1.254440e-04
-5.835930e-04
-5.711240e-04
-1.254440e-04
-1.342030e-04
-5.711240e-04
-5.612740e-04
-1.254440e-04
-1.161430e-04
-5.711240e-04
-5.835930e-04
-1.342030e-04
-1.254440e-04
-5.612740e-04
-5.711230e-04
0.000000e+00
0.000000e+00
1.621360e-03
1.621100e-03
0.000000e+00
0.000000e+00
1.621620e-03
1.621360e-03
0.000000e+00
0.000000e+00
1.621100e-03
1.621360e-03
0.000000e+00
0.000000e+00
1.621360e-03
1.621620e-03
1.621360e-03
1.621100e-03
5.919810e-03
5.919840e-03
1.621620e-03
1.621360e-03
5.919770e-03