<?xml version="1.0"?>
<!-- time 32.8882-->
<VTKFile type="UnstructuredGrid" version="0.1" byte_order="LittleEndian">
<UnstructuredGrid>
<Piece NumberOfPoints="7680" NumberOfCells="0">
<Points>
  <DataArray type="Float32" Name="Position" NumberOfComponents="3" format="ascii">
	-350 2050 -350
	-350 2050 -250
	-350 2050 -150
	-350 2050 -50
	-350 2050 50
	-350 2050 150
	-350 2050 250
	-350 2050 350
	-250 2050 -350
	-250 2050 -250
	-250 2050 -150
	-250 2050 -50
	-250 2050 50
	-250 2050 150
	-250 2050 250
	-250 2050 350
	-150 2050 -350
	-150 2050 -250
	-150 2050 -150
	-150 2050 -50
	-150 2050 50
	-150 2050 150
	-150 2050 250
	-150 2050 350
	-50 2050 -350
	-50 2050 -250
	-50 2050 -150
	-50 2050 -50
	-50 2050 50
	-50 2050 150
	-50 2050 250
	-50 2050 350
	50 2050 -350
	50 2050 -250
	50 2050 -150
	50 2050 -50
	50 2050 50
	50 2050 150
	50 2050 250
	50 2050 350
	150 2050 -350
	150 2050 -250
	150 2050 -150
	150 2050 -50
	150 2050 50
	150 2050 150
	150 2050 250
	150 2050 350
	250 2050 -350
	250 2050 -250
	250 2050 -150
	250 2050 -50
	250 2050 50
	250 2050 150
	250 2050 250
	250 2050 350
	350 2050 -350
	350 2050 -250
	350 2050 -150
	350 2050 -50
	350 2050 50
	350 2050 150
	350 2050 250
	350 2050 350
	-350 2150 -350
	-350 2150 -250
	-350 2150 -150
	-350 2150 -50
	-350 2150 50
	-350 2150 150
	-350 2150 250
	-350 2150 350
	-250 2150 -350
	-250 2150 -250
	-250 2150 -150
	-250 2150 -50
	-250 2150 50
	-250 2150 150
	-250 2150 250
	-250 2150 350
	-150 2150 -350
	-150 2150 -250
	-150 2150 -150
	-150 2150 -50
	-150 2150 50
	-150 2150 150
	-150 2150 250
	-150 2150 350
	-50 2150 -350
	-50 2150 -250
	-50 2150 -150
	-50 2150 -50
	-50 2150 50
	-50 2150 150
	-50 2150 250
	-50 2150 350
	50 2150 -350
	50 2150 -250
	50 2150 -150
	50 2150 -50
	50 2150 50
	50 2150 150
	50 2150 250
	50 2150 350
	150 2150 -350
	150 2150 -250
	150 2150 -150
	150 2150 -50
	150 2150 50
	150 2150 150
	150 2150 250
	150 2150 350
	250 2150 -350
	250 2150 -250
	250 2150 -150
	250 2150 -50
	250 2150 50
	250 2150 150
	250 2150 250
	250 2150 350
	350 2150 -350
	350 2150 -250
	350 2150 -150
	350 2150 -50
	350 2150 50
	350 2150 150
	350 2150 250
	350 2150 350
	-350 2250 -350
	-350 2250 -250
	-350 2250 -150
	-350 2250 -50
	-350 2250 50
	-350 2250 150
	-350 2250 250
	-350 2250 350
	-250 2250 -350
	-250 2250 -250
	-250 2250 -150
	-250 2250 -50
	-250 2250 50
	-250 2250 150
	-250 2250 250
	-250 2250 350
	-150 2250 -350
	-150 2250 -250
	-150 2250 -150
	-150 2250 -50
	-150 2250 50
	-150 2250 150
	-150 2250 250
	-150 2250 350
	-50 2250 -350
	-50 2250 -250
	-50 2250 -150
	-50 2250 -50
	-50 2250 50
	-50 2250 150
	-50 2250 250
	-50 2250 350
	50 2250 -350
	50 2250 -250
	50 2250 -150
	50 2250 -50
	50 2250 50
	50 2250 150
	50 2250 250
	50 2250 350
	150 2250 -350
	150 2250 -250
	150 2250 -150
	150 2250 -50
	150 2250 50
	150 2250 150
	150 2250 250
	150 2250 350
	250 2250 -350
	250 2250 -250
	250 2250 -150
	250 2250 -50
	250 2250 50
	250 2250 150
	250 2250 250
	250 2250 350
	350 2250 -350
	350 2250 -250
	350 2250 -150
	350 2250 -50
	350 2250 50
	350 2250 150
	350 2250 250
	350 2250 350
	-350 2350 -350
	-350 2350 -250
	-350 2350 -150
	-350 2350 -50
	-350 2350 50
	-350 2350 150
	-350 2350 250
	-350 2350 350
	-250 2350 -350
	-250 2350 -250
	-250 2350 -150
	-250 2350 -50
	-250 2350 50
	-250 2350 150
	-250 2350 250
	-250 2350 350
	-150 2350 -350
	-150 2350 -250
	-150 2350 -150
	-150 2350 -50
	-150 2350 50
	-150 2350 150
	-150 2350 250
	-150 2350 350
	-50 2350 -350
	-50 2350 -250
	-50 2350 -150
	-50 2350 -50
	-50 2350 50
	-50 2350 150
	-50 2350 250
	-50 2350 350
	50 2350 -350
	50 2350 -250
	50 2350 -150
	50 2350 -50
	50 2350 50
	50 2350 150
	50 2350 250
	50 2350 350
	150 2350 -350
	150 2350 -250
	150 2350 -150
	150 2350 -50
	150 2350 50
	150 2350 150
	150 2350 250
	150 2350 350
	250 2350 -350
	250 2350 -250
	250 2350 -150
	250 2350 -50
	250 2350 50
	250 2350 150
	250 2350 250
	250 2350 350
	350 2350 -350
	350 2350 -250
	350 2350 -150
	350 2350 -50
	350 2350 50
	350 2350 150
	350 2350 250
	350 2350 350
	-350 2450 -350
	-350 2450 -250
	-350 2450 -150
	-350 2450 -50
	-350 2450 50
	-350 2450 150
	-350 2450 250
	-350 2450 350
	-250 2450 -350
	-250 2450 -250
	-250 2450 -150
	-250 2450 -50
	-250 2450 50
	-250 2450 150
	-250 2450 250
	-250 2450 350
	-150 2450 -350
	-150 2450 -250
	-150 2450 -150
	-150 2450 -50
	-150 2450 50
	-150 2450 150
	-150 2450 250
	-150 2450 350
	-50 2450 -350
	-50 2450 -250
	-50 2450 -150
	-50 2450 -50
	-50 2450 50
	-50 2450 150
	-50 2450 250
	-50 2450 350
	50 2450 -350
	50 2450 -250
	50 2450 -150
	50 2450 -50
	50 2450 50
	50 2450 150
	50 2450 250
	50 2450 350
	150 2450 -350
	150 2450 -250
	150 2450 -150
	150 2450 -50
	150 2450 50
	150 2450 150
	150 2450 250
	150 2450 350
	250 2450 -350
	250 2450 -250
	250 2450 -150
	250 2450 -50
	250 2450 50
	250 2450 150
	250 2450 250
	250 2450 350
	350 2450 -350
	350 2450 -250
	350 2450 -150
	350 2450 -50
	350 2450 50
	350 2450 150
	350 2450 250
	350 2450 350
	-350 2550 -350
	-350 2550 -250
	-350 2550 -150
	-350 2550 -50
	-350 2550 50
	-350 2550 150
	-350 2550 250
	-350 2550 350
	-250 2550 -350
	-250 2550 -250
	-250 2550 -150
	-250 2550 -50
	-250 2550 50
	-250 2550 150
	-250 2550 250
	-250 2550 350
	-150 2550 -350
	-150 2550 -250
	-150 2550 -150
	-150 2550 -50
	-150 2550 50
	-150 2550 150
	-150 2550 250
	-150 2550 350
	-50 2550 -350
	-50 2550 -250
	-50 2550 -150
	-50 2550 -50
	-50 2550 50
	-50 2550 150
	-50 2550 250
	-50 2550 350
	50 2550 -350
	50 2550 -250
	50 2550 -150
	50 2550 -50
	50 2550 50
	50 2550 150
	50 2550 250
	50 2550 350
	150 2550 -350
	150 2550 -250
	150 2550 -150
	150 2550 -50
	150 2550 50
	150 2550 150
	150 2550 250
	150 2550 350
	250 2550 -350
	250 2550 -250
	250 2550 -150
	250 2550 -50
	250 2550 50
	250 2550 150
	250 2550 250
	250 2550 350
	350 2550 -350
	350 2550 -250
	350 2550 -150
	350 2550 -50
	350 2550 50
	350 2550 150
	350 2550 250
	350 2550 350
	-350 2650 -350
	-350 2650 -250
	-350 2650 -150
	-350 2650 -50
	-350 2650 50
	-350 2650 150
	-350 2650 250
	-350 2650 350
	-250 2650 -350
	-250 2650 -250
	-250 2650 -150
	-250 2650 -50
	-250 2650 50
	-250 2650 150
	-250 2650 250
	-250 2650 350
	-150 2650 -350
	-150 2650 -250
	-150 2650 -150
	-150 2650 -50
	-150 2650 50
	-150 2650 150
	-150 2650 250
	-150 2650 350
	-50 2650 -350
	-50 2650 -250
	-50 2650 -150
	-50 2650 -50
	-50 2650 50
	-50 2650 150
	-50 2650 250
	-50 2650 350
	50 2650 -350
	50 2650 -250
	50 2650 -150
	50 2650 -50
	50 2650 50
	50 2650 150
	50 2650 250
	50 2650 350
	150 2650 -350
	150 2650 -250
	150 2650 -150
	150 2650 -50
	150 2650 50
	150 2650 150
	150 2650 250
	150 2650 350
	250 2650 -350
	250 2650 -250
	250 2650 -150
	250 2650 -50
	250 2650 50
	250 2650 150
	250 2650 250
	250 2650 350
	350 2650 -350
	350 2650 -250
	350 2650 -150
	350 2650 -50
	350 2650 50
	350 2650 150
	350 2650 250
	350 2650 350
	-350 2750 -350
	-350 2750 -250
	-350 2750 -150
	-350 2750 -50
	-350 2750 50
	-350 2750 150
	-350 2750 250
	-350 2750 350
	-250 2750 -350
	-250 2750 -250
	-250 2750 -150
	-250 2750 -50
	-250 2750 50
	-250 2750 150
	-250 2750 250
	-250 2750 350
	-150 2750 -350
	-150 2750 -250
	-150 2750 -150
	-150 2750 -50
	-150 2750 50
	-150 2750 150
	-150 2750 250
	-150 2750 350
	-50 2750 -350
	-50 2750 -250
	-50 2750 -150
	-50 2750 -50
	-50 2750 50
	-50 2750 150
	-50 2750 250
	-50 2750 350
	50 2750 -350
	50 2750 -250
	50 2750 -150
	50 2750 -50
	50 2750 50
	50 2750 150
	50 2750 250
	50 2750 350
	150 2750 -350
	150 2750 -250
	150 2750 -150
	150 2750 -50
	150 2750 50
	150 2750 150
	150 2750 250
	150 2750 350
	250 2750 -350
	250 2750 -250
	250 2750 -150
	250 2750 -50
	250 2750 50
	250 2750 150
	250 2750 250
	250 2750 350
	350 2750 -350
	350 2750 -250
	350 2750 -150
	350 2750 -50
	350 2750 50
	350 2750 150
	350 2750 250
	350 2750 350
	-350 2850 -350
	-350 2850 -250
	-350 2850 -150
	-350 2850 -50
	-350 2850 50
	-350 2850 150
	-350 2850 250
	-350 2850 350
	-250 2850 -350
	-250 2850 -250
	-250 2850 -150
	-250 2850 -50
	-250 2850 50
	-250 2850 150
	-250 2850 250
	-250 2850 350
	-150 2850 -350
	-150 2850 -250
	-150 2850 -150
	-150 2850 -50
	-150 2850 50
	-150 2850 150
	-150 2850 250
	-150 2850 350
	-50 2850 -350
	-50 2850 -250
	-50 2850 -150
	-50 2850 -50
	-50 2850 50
	-50 2850 150
	-50 2850 250
	-50 2850 350
	50 2850 -350
	50 2850 -250
	50 2850 -150
	50 2850 -50
	50 2850 50
	50 2850 150
	50 2850 250
	50 2850 350
	150 2850 -350
	150 2850 -250
	150 2850 -150
	150 2850 -50
	150 2850 50
	150 2850 150
	150 2850 250
	150 2850 350
	250 2850 -350
	250 2850 -250
	250 2850 -150
	250 2850 -50
	250 2850 50
	250 2850 150
	250 2850 250
	250 2850 350
	350 2850 -350
	350 2850 -250
	350 2850 -150
	350 2850 -50
	350 2850 50
	350 2850 150
	350 2850 250
	350 2850 350
	-350 2950 -350
	-350 2950 -250
	-350 2950 -150
	-350 2950 -50
	-350 2950 50
	-350 2950 150
	-350 2950 250
	-350 2950 350
	-250 2950 -350
	-250 2950 -250
	-250 2950 -150
	-250 2950 -50
	-250 2950 50
	-250 2950 150
	-250 2950 250
	-250 2950 350
	-150 2950 -350
	-150 2950 -250
	-150 2950 -150
	-150 2950 -50
	-150 2950 50
	-150 2950 150
	-150 2950 250
	-150 2950 350
	-50 2950 -350
	-50 2950 -250
	-50 2950 -150
	-50 2950 -50
	-50 2950 50
	-50 2950 150
	-50 2950 250
	-50 2950 350
	50 2950 -350
	50 2950 -250
	50 2950 -150
	50 2950 -50
	50 2950 50
	50 2950 150
	50 2950 250
	50 2950 350
	150 2950 -350
	150 2950 -250
	150 2950 -150
	150 2950 -50
	150 2950 50
	150 2950 150
	150 2950 250
	150 2950 350
	250 2950 -350
	250 2950 -250
	250 2950 -150
	250 2950 -50
	250 2950 50
	250 2950 150
	250 2950 250
	250 2950 350
	350 2950 -350
	350 2950 -250
	350 2950 -150
	350 2950 -50
	350 2950 50
	350 2950 150
	350 2950 250
	350 2950 350
	-350 3050 -350
	-350 3050 -250
	-350 3050 -150
	-350 3050 -50
	-350 3050 50
	-350 3050 150
	-350 3050 250
	-350 3050 350
	-250 3050 -350
	-250 3050 -250
	-250 3050 -150
	-250 3050 -50
	-250 3050 50
	-250 3050 150
	-250 3050 250
	-250 3050 350
	-150 3050 -350
	-150 3050 -250
	-150 3050 -150
	-150 3050 -50
	-150 3050 50
	-150 3050 150
	-150 3050 250
	-150 3050 350
	-50 3050 -350
	-50 3050 -250
	-50 3050 -150
	-50 3050 -50
	-50 3050 50
[...]
<PointData  Vectors="vector">
  <DataArray type="Float32" Name="Velocity" NumberOfComponents="3" format="ascii">
 8.37354e-09 3.15534e-05 8.41089e-09
 7.48964e-09 3.18106e-05 7.14266e-09
 6.89398e-09 3.19694e-05 4.72335e-09
 6.60649e-09 3.20327e-05 1.57098e-09
 6.60362e-09 3.20326e-05 -1.66105e-09
 6.88535e-09 3.19691e-05 -4.81468e-09
 7.47369e-09 3.18101e-05 -7.27486e-09
 8.35052e-09 3.15527e-05 -8.55664e-09
 7.10592e-09 3.18106e-05 7.53236e-09
 6.36993e-09 3.20707e-05 6.40591e-09
 5.87186e-09 3.22404e-05 4.26469e-09
 5.63004e-09 3.23116e-05 1.42532e-09
 5.62753e-09 3.23115e-05 -1.52321e-09
 5.86283e-09 3.22401e-05 -4.35341e-09
 6.35512e-09 3.20703e-05 -6.53715e-09
 7.08772e-09 3.181e-05 -7.67725e-09
 4.70693e-09 3.19695e-05 6.94043e-09
 4.24467e-09 3.22403e-05 5.91221e-09
 3.93102e-09 3.24196e-05 3.95268e-09
 3.77434e-09 3.24957e-05 1.3263e-09
 3.77241e-09 3.24956e-05 -1.43094e-09
 3.92383e-09 3.24194e-05 -4.04197e-09
 4.23424e-09 3.224e-05 -6.04219e-09
 4.69208e-09 3.19689e-05 -7.0864e-09
 1.56144e-09 3.20328e-05 6.65561e-09
 1.41761e-09 3.23116e-05 5.67313e-09
 1.31965e-09 3.24958e-05 3.8016e-09
 1.27009e-09 3.25709e-05 1.27781e-09
 1.26696e-09 3.25708e-05 -1.38595e-09
 1.31447e-09 3.24955e-05 -3.89286e-09
 1.41164e-09 3.23112e-05 -5.80283e-09
 1.55163e-09 3.20322e-05 -6.80683e-09
 -1.68171e-09 3.20327e-05 6.6574e-09
 -1.53843e-09 3.23116e-05 5.67358e-09
 -1.44229e-09 3.24957e-05 3.80367e-09
 -1.39185e-09 3.25709e-05 1.27678e-09
 -1.39192e-09 3.25708e-05 -1.38923e-09
 -1.44185e-09 3.24955e-05 -3.89555e-09
 -1.54064e-09 3.23112e-05 -5.80783e-09
 -1.68552e-09 3.20322e-05 -6.81158e-09
 -4.81503e-09 3.19694e-05 6.94353e-09
 -4.35141e-09 3.22403e-05 5.91602e-09
 -4.03437e-09 3.24195e-05 3.95771e-09
 -3.88092e-09 3.24956e-05 1.32675e-09
 -3.88126e-09 3.24955e-05 -1.44194e-09
 -4.03435e-09 3.24193e-05 -4.05145e-09
 -4.3517e-09 3.224e-05 -6.05521e-09
 -4.81615e-09 3.19689e-05 -7.10225e-09
 -7.249e-09 3.18104e-05 7.53918e-09
 -6.50648e-09 3.20705e-05 6.4143e-09
 -6.00831e-09 3.22402e-05 4.27138e-09
 -5.76534e-09 3.23114e-05 1.42512e-09
 -5.76528e-09 3.23113e-05 -1.53879e-09
 -6.00776e-09 3.22399e-05 -4.37334e-09
 -6.50643e-09 3.20702e-05 -6.5573e-09
 -7.24741e-09 3.181e-05 -7.70266e-09
 -8.51718e-09 3.15531e-05 8.42498e-09
 -7.63272e-09 3.18104e-05 7.15082e-09
 -7.03603e-09 3.19693e-05 4.73232e-09
 -6.75043e-09 3.20325e-05 1.57189e-09
 -6.749e-09 3.20325e-05 -1.683e-09
 -7.03477e-09 3.19691e-05 -4.84144e-09
 -7.62839e-09 3.18101e-05 -7.30214e-09
 -8.50965e-09 3.15527e-05 -8.59023e-09
 -5.88582e-09 4.01563e-05 -5.81263e-09
 -6.64976e-09 4.02334e-05 -4.53664e-09
 -7.21526e-09 4.02741e-05 -2.81576e-09
 -7.51535e-09 4.02784e-05 -9.65741e-10
 -7.5183e-09 4.02783e-05 9.18869e-10
 -7.22414e-09 4.02738e-05 2.74924e-09
 -6.66649e-09 4.02329e-05 4.4833e-09
 -5.91097e-09 4.01557e-05 5.76332e-09
 -4.60448e-09 4.02334e-05 -6.57268e-09
 -5.24326e-09 4.03144e-05 -5.17636e-09
 -5.71945e-09 4.03649e-05 -3.2401e-09
 -5.9717e-09 4.03771e-05 -1.1157e-09
 -5.97444e-09 4.03771e-05 1.06405e-09
 -5.72784e-09 4.03646e-05 3.16775e-09
 -5.25785e-09 4.0314e-05 5.11715e-09
 -4.6235e-09 4.02328e-05 6.51769e-09
 -2.872e-09 4.02742e-05 -7.13714e-09
 -3.29178e-09 4.03649e-05 -5.65289e-09
 -3.60427e-09 4.04208e-05 -3.55332e-09
 -3.76715e-09 4.04346e-05 -1.22802e-09
 -3.7687e-09 4.04345e-05 1.17117e-09
 -3.60698e-09 4.04205e-05 3.47858e-09
 -3.29372e-09 4.03645e-05 5.58336e-09
 -2.87489e-09 4.02736e-05 7.075e-09
 -1.01435e-09 4.02785e-05 -7.43474e-09
 -1.16329e-09 4.03772e-05 -5.90292e-09
 -1.27326e-09 4.04347e-05 -3.71879e-09
 -1.33234e-09 4.0449e-05 -1.29006e-09
 -1.33209e-09 4.04489e-05 1.22626e-09
 -1.27798e-09 4.04344e-05 3.63852e-09
 -1.1709e-09 4.03768e-05 5.82577e-09
 -1.02687e-09 4.0278e-05 7.36585e-09
 8.7717e-10 4.02784e-05 -7.43415e-09
 1.02859e-09 4.03771e-05 -5.90597e-09
 1.1407e-09 4.04346e-05 -3.71982e-09
 1.19931e-09 4.0449e-05 -1.29047e-09
 1.19825e-09 4.04489e-05 1.22063e-09
 1.14036e-09 4.04344e-05 3.63431e-09
 1.0283e-09 4.03768e-05 5.81873e-09
 8.78547e-10 4.02779e-05 7.35923e-09
 2.72241e-09 4.0274e-05 -7.13859e-09
 3.14867e-09 4.03647e-05 -5.65576e-09
 3.46333e-09 4.04206e-05 -3.55779e-09
 3.63014e-09 4.04345e-05 -1.23685e-09
 3.62926e-09 4.04345e-05 1.16129e-09
 3.46344e-09 4.04204e-05 3.46625e-09
 3.14742e-09 4.03644e-05 5.5633e-09
 2.72216e-09 4.02735e-05 7.05305e-09
 4.4656e-09 4.02331e-05 -6.57601e-09
 5.10373e-09 4.03142e-05 -5.18158e-09
 5.57747e-09 4.03646e-05 -3.24435e-09
 5.82304e-09 4.03769e-05 -1.13059e-09
 5.82169e-09 4.03769e-05 1.04818e-09
 5.57216e-09 4.03644e-05 3.14739e-09
 5.09541e-09 4.03138e-05 5.08257e-09
 4.45725e-09 4.02326e-05 6.4823e-09
 5.75096e-09 4.0156e-05 -5.81624e-09
 6.51546e-09 4.0233e-05 -4.54334e-09
 7.08267e-09 4.02738e-05 -2.8226e-09
 7.38343e-09 4.02782e-05 -9.86543e-10
 7.38447e-09 4.02781e-05 9.00191e-10
 7.08537e-09 4.02736e-05 2.71961e-09
 6.5207e-09 4.02327e-05 4.43689e-09
 5.75474e-09 4.01555e-05 5.71515e-09
 -2.32473e-08 2.55201e-05 -2.31558e-08
 -2.40275e-08 2.25965e-05 -1.82224e-08
 -2.46233e-08 2.05885e-05 -1.15715e-08
 -2.49097e-08 1.96094e-05 -3.9543e-09
 -2.49137e-08 1.96095e-05 3.96373e-09
 -2.46325e-08 2.05888e-05 1.15764e-08
 -2.40414e-08 2.25969e-05 1.8217e-08
 -2.32674e-08 2.55206e-05 2.31364e-08
 -1.83127e-08 2.2596e-05 -2.39403e-08
 -1.88669e-08 1.95301e-05 -1.87826e-08
 -1.9297e-08 1.73948e-05 -1.19038e-08
 -1.95072e-08 1.63789e-05 -4.06883e-09
 -1.9508e-08 1.63791e-05 4.0679e-09
 -1.93037e-08 1.73953e-05 1.18986e-08
 -1.88771e-08 1.95311e-05 1.87671e-08
 -1.83261e-08 2.25971e-05 2.39116e-08
 -1.16546e-08 2.05876e-05 -2.45398e-08
 -1.19813e-08 1.73939e-05 -1.92192e-08
 -1.22404e-08 1.51852e-05 -1.21678e-08
 -1.23602e-08 1.40692e-05 -4.16021e-09
 -1.23628e-08 1.40695e-05 4.14737e-09
 -1.22455e-08 1.5186e-05 1.21538e-08
 -1.19904e-08 1.73957e-05 1.91913e-08
 -1.16671e-08 2.05894e-05 2.45021e-08
 -4.02993e-09 1.96081e-05 -2.48295e-08
 -4.13965e-09 1.63781e-05 -1.94318e-08
 -4.2246e-09 1.40689e-05 -1.22951e-08
 -4.26343e-09 1.29e-05 -4.20336e-09
 -4.26429e-09 1.29003e-05 4.1821e-09
 -4.22717e-09 1.407e-05 1.22685e-08
 -4.14516e-09 1.63798e-05 1.9393e-08
 -4.03741e-09 1.96106e-05 2.47818e-08
 3.8924e-09 1.96079e-05 -2.48349e-08
 4.005e-09 1.6378e-05 -1.94352e-08
 4.09084e-09 1.40688e-05 -1.23e-08
 4.12954e-09 1.29e-05 -4.20911e-09
 4.12834e-09 1.29006e-05 4.17564e-09
 4.08872e-09 1.40702e-05 1.22629e-08
 4.00151e-09 1.63801e-05 1.93884e-08
 3.88746e-09 1.96109e-05 2.47765e-08
 1.15138e-08 2.0587e-05 -2.45537e-08
 1.18434e-08 1.7394e-05 -1.92323e-08
 1.21017e-08 1.51851e-05 -1.2185e-08
 1.22234e-08 1.40695e-05 -4.17583e-09
 1.22229e-08 1.40699e-05 4.13142e-09
 1.21015e-08 1.51866e-05 1.21373e-08
 1.18409e-08 1.73966e-05 1.91756e-08
 1.15106e-08 2.05905e-05 2.44861e-08
 1.8161e-08 2.25949e-05 -2.39622e-08
 1.87184e-08 1.95295e-05 -1.88068e-08
 1.91511e-08 1.73947e-05 -1.19282e-08
 1.93584e-08 1.63792e-05 -4.09401e-09
 1.93597e-08 1.63798e-05 4.03998e-09
 1.91506e-08 1.7396e-05 1.18733e-08
 1.87184e-08 1.95325e-05 1.8737e-08
 1.8162e-08 2.2599e-05 2.38858e-08
 2.30914e-08 2.55185e-05 -2.31843e-08
 2.38729e-08 2.25956e-05 -1.82541e-08
 2.44708e-08 2.05883e-05 -1.16022e-08
 2.47566e-08 1.96099e-05 -3.98807e-09
 2.4757e-08 1.96105e-05 3.92656e-09
 2.44725e-08 2.05904e-05 1.15374e-08
 2.38766e-08 2.2599e-05 1.81753e-08
 2.30949e-08 2.55231e-05 2.30991e-08
 -5.10108e-08 -3.61471e-05 -5.09134e-08
 -5.1663e-08 -3.50773e-05 -3.84714e-08
 -5.21495e-08 -3.42738e-05 -2.38851e-08
 -5.24016e-08 -3.38298e-05 -8.07126e-09
 -5.24045e-08 -3.383e-05 8.11338e-09
 -5.21564e-08 -3.42745e-05 2.39251e-08
 -5.1676e-08 -3.50783e-05 3.85042e-08
 -5.10275e-08 -3.61484e-05 5.09395e-08
 -3.85686e-08 -3.5077e-05 -5.15777e-08
 -3.90102e-08 -3.38682e-05 -3.89222e-08
 -3.93365e-08 -3.29998e-05 -2.41465e-08
 -3.94932e-08 -3.25425e-05 -8.15974e-09
 -3.94957e-08 -3.25428e-05 8.18635e-09
 -3.93424e-08 -3.30007e-05 2.41717e-08
 -3.90191e-08 -3.38696e-05 3.89424e-08
 -3.85823e-08 -3.50789e-05 5.15905e-08
 -2.39773e-08 -3.42733e-05 -5.20733e-08
 -2.42296e-08 -3.29992e-05 -3.92588e-08
 -2.44026e-08 -3.21076e-05 -2.43303e-08
 -2.44949e-08 -3.15874e-05 -8.22293e-09
 -2.44956e-08 -3.15878e-05 8.23429e-09
 -2.44094e-08 -3.21087e-05 2.43411e-08
 -2.42389e-08 -3.30014e-05 3.92655e-08
 -2.39905e-08 -3.42758e-05 5.20726e-08
 -8.16166e-09 -3.3829e-05 -5.23348e-08
 -8.24156e-09 -3.2542e-05 -3.9427e-08
 -8.2961e-09 -3.15872e-05 -2.44267e-08
 -8.3243e-09 -3.10622e-05 -8.25861e-09
 -8.32559e-09 -3.10626e-05 8.25533e-09
 -8.29903e-09 -3.15886e-05 2.44243e-08
 -8.24694e-09 -3.25442e-05 3.94183e-08
 -8.16963e-09 -3.38321e-05 5.23217e-08
 8.0222e-09 -3.38291e-05 -5.23453e-08
 8.10435e-09 -3.25421e-05 -3.94363e-08
 8.1578e-09 -3.15874e-05 -2.44372e-08
 8.18841e-09 -3.10625e-05 -8.26421e-09
 8.18799e-09 -3.10631e-05 8.24881e-09
 8.15796e-09 -3.1589e-05 2.44192e-08
 8.10199e-09 -3.25448e-05 3.94154e-08
 8.01952e-09 -3.38327e-05 5.23189e-08
 2.38341e-08 -3.42734e-05 -5.21045e-08
 2.40901e-08 -3.3e-05 -3.92883e-08
 2.42669e-08 -3.21082e-05 -2.43564e-08
 2.43555e-08 -3.15884e-05 -8.24447e-09
 2.43553e-08 -3.1589e-05 8.21498e-09
 2.42671e-08 -3.211e-05 2.43266e-08
 2.40901e-08 -3.3003e-05 3.92546e-08
 2.38349e-08 -3.42777e-05 5.20653e-08
 3.84205e-08 -3.50771e-05 -5.16298e-08
 3.8864e-08 -3.38688e-05 -3.89703e-08
 3.91932e-08 -3.30009e-05 -2.41902e-08
 3.93506e-08 -3.2544e-05 -8.19563e-09
 3.93505e-08 -3.25447e-05 8.15487e-09
 3.91937e-08 -3.30026e-05 2.41472e-08
 3.88666e-08 -3.38722e-05 3.89248e-08
 3.84236e-08 -3.50819e-05 5.15779e-08
 5.08573e-08 -3.61472e-05 -5.09841e-08
 5.1514e-08 -3.50781e-05 -3.85368e-08
 5.20016e-08 -3.42754e-05 -2.39443e-08
 5.22546e-08 -3.38319e-05 -8.12307e-09
 5.22564e-08 -3.38327e-05 8.0698e-09
 5.20043e-08 -3.42777e-05 2.38908e-08
 5.15186e-08 -3.5082e-05 3.84804e-08
 5.08634e-08 -3.61525e-05 5.09216e-08
 -8.62805e-08 -5.13883e-05 -8.61894e-08
 -8.65038e-08 -5.26399e-05 -6.39752e-08
 -8.67194e-08 -5.36133e-05 -3.92476e-08
 -8.68121e-08 -5.40866e-05 -1.3182e-08
 -8.68138e-08 -5.40865e-05 1.3238e-08
 -8.67245e-08 -5.36131e-05 3.93031e-08
 -8.65129e-08 -5.26396e-05 6.40312e-08
 -8.62936e-08 -5.13879e-05 8.62449e-08
 -6.4073e-08 -5.264e-05 -8.64283e-08
 -6.41678e-08 -5.3986e-05 -6.40847e-08
 -6.42687e-08 -5.5001e-05 -3.92658e-08
 -6.43245e-08 -5.55439e-05 -1.31899e-08
 -6.43249e-08 -5.55438e-05 1.32283e-08
 -6.42733e-08 -5.50007e-05 3.93055e-08
 -6.41741e-08 -5.39855e-05 6.41244e-08
 -6.40818e-08 -5.26392e-05 8.6467e-08
 -3.93467e-08 -5.36134e-05 -8.66588e-08
 -3.93512e-08 -5.5001e-05 -6.4201e-08
 -3.9402e-08 -5.61104e-05 -3.93283e-08
 -3.94177e-08 -5.66434e-05 -1.32143e-08
 -3.94196e-08 -5.66432e-05 1.32381e-08
 -3.94049e-08 -5.61099e-05 3.93507e-08
 -3.93565e-08 -5.50002e-05 6.42231e-08
 -3.93519e-08 -5.36122e-05 8.66808e-08
 -1.32774e-08 -5.40868e-05 -8.67652e-08
 -1.3275e-08 -5.5544e-05 -6.42688e-08
 -1.32887e-08 -5.66434e-05 -3.9355e-08
 -1.3288e-08 -5.72064e-05 -1.32214e-08
 -1.32888e-08 -5.72062e-05 1.32298e-08
 -1.32905e-08 -5.66428e-05 3.93607e-08
 -1.32781e-08 -5.55429e-05 6.42754e-08
 -1.32831e-08 -5.40852e-05 8.67713e-08
 1.31475e-08 -5.40867e-05 -8.67803e-08
 1.31483e-08 -5.55439e-05 -6.42804e-08
 1.31638e-08 -5.66432e-05 -3.9364e-08
 1.31634e-08 -5.72061e-05 -1.32303e-08
 1.31635e-08 -5.72059e-05 1.32226e-08
 1.31625e-08 -5.66425e-05 3.93571e-08
 1.3146e-08 -5.55425e-05 6.42725e-08
 1.31448e-08 -5.40848e-05 8.67692e-08
 3.92148e-08 -5.36132e-05 -8.67008e-08
 3.92235e-08 -5.50006e-05 -6.42387e-08
 3.9276e-08 -5.61098e-05 -3.93589e-08
 3.92923e-08 -5.66427e-05 -1.324e-08
 3.92928e-08 -5.66424e-05 1.32193e-08
 3.92758e-08 -5.61089e-05 3.93375e-08
 3.92243e-08 -5.49992e-05 6.4215e-08
 3.92157e-08 -5.36109e-05 8.66757e-08
 6.39424e-08 -5.26397e-05 -8.6499e-08
 6.40407e-08 -5.39854e-05 -6.41462e-08
 6.41454e-08 -5.5e-05 -3.93168e-08
 6.4201e-08 -5.55427e-05 -1.3233e-08
 6.42009e-08 -5.55423e-05 1.3197e-08
 6.4146e-08 -5.4999e-05 3.92841e-08
 6.40425e-08 -5.39837e-05 6.41097e-08
 6.39445e-08 -5.2637e-05 8.6459e-08
 8.61502e-08 -5.1388e-05 -8.62856e-08
 8.63775e-08 -5.2639e-05 -6.40621e-08
 8.65953e-08 -5.36119e-05 -3.93203e-08
 8.66902e-08 -5.40848e-05 -1.32405e-08
 8.66911e-08 -5.40844e-05 1.31943e-08
 8.66004e-08 -5.36106e-05 3.92726e-08
 8.63843e-08 -5.26368e-05 6.40131e-08
 8.61586e-08 -5.1385e-05 8.62332e-08
 -1.24634e-07 -8.8115e-05 -1.2456e-07
 -1.2414e-07 -8.65653e-05 -9.15174e-08
 -1.23862e-07 -8.56277e-05 -5.57635e-08
 -1.23742e-07 -8.51948e-05 -1.86853e-08
 -1.23742e-07 -8.51949e-05 1.87436e-08
 -1.23864e-07 -8.5628e-05 5.58232e-08
 -1.24145e-07 -8.65657e-05 9.15771e-08
 -1.24641e-07 -8.81157e-05 1.24622e-07
 -9.15948e-08 -8.65652e-05 -1.24083e-07
 -9.11243e-08 -8.50148e-05 -9.10639e-08
 -9.08581e-08 -8.41184e-05 -5.54503e-08
 -9.07237e-08 -8.36539e-05 -1.85766e-08
 -9.07242e-08 -8.36541e-05 1.86179e-08
 -9.0861e-08 -8.41188e-05 5.54934e-08
 -9.11279e-08 -8.50155e-05 9.11066e-08
 -9.15992e-08 -8.65662e-05 1.24126e-07
 -5.58466e-08 -8.56276e-05 -1.2382e-07
 -5.55197e-08 -8.41184e-05 -9.08135e-08
 -5.53183e-08 -8.32e-05 -5.52635e-08
 -5.52166e-08 -8.28003e-05 -1.85145e-08
 -5.52164e-08 -8.28005e-05 1.85386e-08
 -5.53193e-08 -8.32005e-05 5.52905e-08
 -5.55189e-08 -8.41193e-05 9.08377e-08
 -5.58475e-08 -8.5629e-05 1.23847e-07
 -1.87702e-08 -8.51947e-05 -1.23715e-07
 -1.86471e-08 -8.36539e-05 -9.06918e-08
 -1.85742e-08 -8.28004e-05 -5.51741e-08
 -1.85337e-08 -8.24116e-05 -1.84856e-08
 -1.85351e-08 -8.24118e-05 1.8494e-08
 -1.8574e-08 -8.2801e-05 5.51847e-08
 -1.86478e-08 -8.3655e-05 9.06999e-08
 -1.87695e-08 -8.51963e-05 1.23725e-07
 1.86644e-08 -8.51949e-05 -1.23729e-07
 1.85476e-08 -8.36541e-05 -9.07049e-08
 1.84775e-08 -8.28006e-05 -5.51857e-08
 1.84392e-08 -8.24118e-05 -1.84934e-08
 1.84382e-08 -8.2412e-05 1.84878e-08
 1.84771e-08 -8.28013e-05 5.51803e-08
 1.85455e-08 -8.36554e-05 9.06974e-08
 1.86643e-08 -8.51968e-05 1.23723e-07
 5.57463e-08 -8.5628e-05 -1.23864e-07
 5.54217e-08 -8.41189e-05 -9.08518e-08
 5.52242e-08 -8.32006e-05 -5.52968e-08
 5.51239e-08 -8.28011e-05 -1.85399e-08
 5.51245e-08 -8.28014e-05 1.85201e-08
 5.52254e-08 -8.32015e-05 5.52771e-08
 5.54235e-08 -8.41202e-05 9.08305e-08
 5.57461e-08 -8.56303e-05 1.23841e-07
 9.14972e-08 -8.65658e-05 -1.24155e-07
 9.10299e-08 -8.50157e-05 -9.11278e-08
 9.07669e-08 -8.41195e-05 -5.55069e-08
 9.0634e-08 -8.36552e-05 -1.86192e-08
 9.06341e-08 -8.36556e-05 1.85858e-08
 9.07682e-08 -8.41204e-05 5.54741e-08
 9.10331e-08 -8.50173e-05 9.10931e-08
 9.15001e-08 -8.65686e-05 1.24118e-07
 1.24536e-07 -8.81159e-05 -1.24661e-07
 1.24047e-07 -8.65665e-05 -9.16084e-08
 1.23772e-07 -8.56293e-05 -5.58398e-08
 1.23653e-07 -8.51967e-05 -1.8746e-08
 1.23656e-07 -8.51971e-05 1.87006e-08
 1.23776e-07 -8.56306e-05 5.57947e-08
 1.24054e-07 -8.65687e-05 9.156e-08
 1.24546e-07 -8.8119e-05 1.24611e-07
 -1.64228e-07 -0.000104293 -1.64178e-07
 -1.62668e-07 -0.000103277 -1.1956e-07
 -1.61691e-07 -0.000102694 -7.24101e-08
 -1.61238e-07 -0.000102408 -2.41992e-08
 -1.61239e-07 -0.000102408 2.42517e-08
 -1.61691e-07 -0.000102694 7.24645e-08
 -1.62671e-07 -0.000103277 1.19614e-07
 -1.64231e-07 -0.000104293 1.64231e-07
 -1.19611e-07 -0.000103277 -1.62634e-07
 -1.18319e-07 -0.000102195 -1.18286e-07
 -1.1748e-07 -0.000101596 -7.15619e-08
 -1.17092e-07 -0.000101315 -2.39075e-08
 -1.17092e-07 -0.000101315 2.3945e-08
 -1.17481e-07 -0.000101596 7.15995e-08
 -1.1832e-07 -0.000102195 1.18322e-07
 -1.19611e-07 -0.000103277 1.6267e-07
 -7.24635e-08 -0.000102694 -1.61672e-07
 -7.16001e-08 -0.000101596 -1.17461e-07
 -7.10388e-08 -0.00010099 -7.10144e-08
 -7.07643e-08 -0.000100668 -2.37169e-08
 -7.07644e-08 -0.000100668 2.37393e-08
 -7.10394e-08 -0.00010099 7.10346e-08
 -7.15989e-08 -0.000101596 1.17482e-07
 -7.24619e-08 -0.000102694 1.6169e-07
 -2.42561e-08 -0.000102408 -1.61233e-07
 -2.39533e-08 -0.000101315 -1.17086e-07
 -2.37518e-08 -0.000100668 -7.07512e-08
 -2.36548e-08 -0.000100342 -2.36303e-08
 -2.36542e-08 -0.000100342 2.36369e-08
 -2.37509e-08 -0.000100668 7.07572e-08
 -2.39515e-08 -0.000101314 1.17088e-07
 -2.42529e-08 -0.000102407 1.61237e-07
 2.41917e-08 -0.000102408 -1.61247e-07
 2.38926e-08 -0.000101314 -1.17097e-07
 2.36953e-08 -0.000100668 -7.07617e-08
 2.36009e-08 -0.000100342 -2.36395e-08
 2.3601e-08 -0.000100342 2.3631e-08
 2.36968e-08 -0.000100668 7.07534e-08
 2.38946e-08 -0.000101314 1.17086e-07
 2.41928e-08 -0.000102407 1.61234e-07
 7.24008e-08 -0.000102694 -1.61711e-07
 7.15428e-08 -0.000101596 -1.17497e-07
 7.09852e-08 -0.00010099 -7.1045e-08
 7.07126e-08 -0.000100668 -2.37423e-08
 7.07143e-08 -0.000100668 2.37208e-08
 7.09869e-08 -0.000100989 7.10232e-08
 7.1546e-08 -0.000101596 1.17471e-07
 7.2405e-08 -0.000102693 1.61684e-07
 1.19549e-07 -0.000103277 -1.627e-07
 1.18263e-07 -0.000102195 -1.18346e-07
 1.17429e-07 -0.000101595 -7.16138e-08
 1.17041e-07 -0.000101314 -2.39495e-08
 1.17042e-07 -0.000101314 2.39146e-08
 1.17432e-07 -0.000101595 7.15791e-08
 1.18268e-07 -0.000102194 1.18307e-07
 1.19556e-07 -0.000103276 1.62659e-07
 1.64168e-07 -0.000104293 -1.64271e-07
 1.62613e-07 -0.000103277 -1.19645e-07
 1.61638e-07 -0.000102693 -7.24834e-08
 1.61189e-07 -0.000102407 -2.42567e-08
 1.6119e-07 -0.000102407 2.42098e-08
 1.61643e-07 -0.000102693 7.24361e-08
 1.6262e-07 -0.000103276 1.19594e-07
 1.64179e-07 -0.000104291 1.64217e-07
 -1.98582e-07 -0.000100198 -1.98556e-07
 -1.95783e-07 -9.77695e-05 -1.43399e-07
 -1.93935e-07 -9.63841e-05 -8.63046e-08
 -1.93022e-07 -9.57561e-05 -2.87554e-08
 -1.93022e-07 -9.57562e-05 2.87973e-08
 -1.93936e-07 -9.63841e-05 8.63446e-08
 -1.95783e-07 -9.77695e-05 1.43436e-07
 -1.98582e-07 -0.000100198 1.98593e-07
 -1.43419e-07 -9.77694e-05 -1.95771e-07
 -1.41187e-07 -9.54642e-05 -1.4118e-07
 -1.39662e-07 -9.41109e-05 -8.48696e-08
 -1.38891e-07 -9.35046e-05 -2.82622e-08
 -1.38891e-07 -9.35046e-05 2.82901e-08
 -1.39662e-07 -9.41109e-05 8.48932e-08
 -1.41187e-07 -9.54642e-05 1.41202e-07
 -1.43419e-07 -9.77694e-05 1.95792e-07
 -8.63229e-08 -9.6384e-05 -1.93938e-07
 -8.48784e-08 -9.41109e-05 -1.39666e-07
 -8.3879e-08 -9.28023e-05 -8.38811e-08
 -8.33525e-08 -9.21996e-05 -2.79228e-08
 -8.33525e-08 -9.21996e-05 2.79355e-08
 -8.38777e-08 -9.28022e-05 8.38907e-08
 -8.48773e-08 -9.41108e-05 1.39674e-07
 -8.63228e-08 -9.6384e-05 1.93944e-07
 -2.87819e-08 -9.57561e-05 -1.93035e-07
 -2.82776e-08 -9.35045e-05 -1.38906e-07
 -2.79288e-08 -9.21996e-05 -8.3365e-08
 -2.77413e-08 -9.16104e-05 -2.77428e-08
 -2.77402e-08 -9.16104e-05 2.77424e-08
 -2.79278e-08 -9.21994e-05 8.33599e-08
 -2.82744e-08 -9.35044e-05 1.389e-07
 -2.87777e-08 -9.5756e-05 1.93028e-07
 2.87615e-08 -9.5756e-05 -1.93047e-07
 2.82635e-08 -9.35044e-05 -1.38915e-07
 2.79186e-08 -9.21995e-05 -8.33727e-08
 2.77334e-08 -9.16103e-05 -2.77507e-08
 2.7734e-08 -9.16102e-05 2.77366e-08
 2.79212e-08 -9.21993e-05 8.33552e-08
 2.82679e-08 -9.35043e-05 1.38896e-07
 2.87678e-08 -9.57559e-05 1.93025e-07
 8.63033e-08 -9.63839e-05 -1.93969e-07
 8.48611e-08 -9.41107e-05 -1.39695e-07
 8.38661e-08 -9.2802e-05 -8.39069e-08
 8.33428e-08 -9.21993e-05 -2.79447e-08
 8.33441e-08 -9.21992e-05 2.79178e-08
 8.38708e-08 -9.28019e-05 8.38778e-08
 8.48686e-08 -9.41101e-05 1.39662e-07
 8.63139e-08 -9.63838e-05 1.93936e-07
 1.43399e-07 -9.77693e-05 -1.95826e-07
 1.41172e-07 -9.5464e-05 -1.41229e-07
 1.3965e-07 -9.41106e-05 -8.49126e-08
 1.38882e-07 -9.35042e-05 -2.8298e-08
 1.38884e-07 -9.35041e-05 2.82595e-08
 1.39655e-07 -9.411e-05 8.48712e-08
 1.41179e-07 -9.54635e-05 1.41185e-07
 1.43409e-07 -9.77693e-05 1.9578e-07
 1.98563e-07 -0.000100198 -1.98634e-07
 1.95768e-07 -9.77692e-05 -1.43468e-07
 1.93926e-07 -9.63838e-05 -8.63645e-08
 1.93014e-07 -9.57558e-05 -2.88054e-08
 1.93016e-07 -9.57557e-05 2.87558e-08
 1.9393e-07 -9.63837e-05 8.63132e-08
 1.95776e-07 -9.77693e-05 1.43413e-07
 1.98574e-07 -0.000100198 1.98576e-07
 -2.1635e-07 -8.76941e-05 -2.16347e-07
 -2.12418e-07 -8.50096e-05 -1.55152e-07
 -2.09779e-07 -8.33919e-05 -9.29382e-08
 -2.0849e-07 -8.26227e-05 -3.08964e-08
 -2.0849e-07 -8.26228e-05 3.09175e-08
 -2.09779e-07 -8.33921e-05 9.29569e-08
 -2.12418e-07 -8.50101e-05 1.55168e-07
 -2.16349e-07 -8.76947e-05 2.16363e-07