<?xml version="1.0"?>
<!-- time 69.2645-->
<VTKFile type="UnstructuredGrid" version="0.1" byte_order="LittleEndian">
<UnstructuredGrid>
<Piece NumberOfPoints="7680" NumberOfCells="0">
<Points>
  <DataArray type="Float32" Name="Position" NumberOfComponents="3" format="ascii">
	-350 2049.49 -350
	-350 2049.58 -250
	-350 2049.55 -150
	-350 2049.55 -50
	-350 2049.55 50
	-350 2049.55 150
	-350 2049.58 250
	-350 2049.49 350
	-250 2049.58 -350
	-250 2049.55 -250
	-250 2049.45 -150
	-250 2049.4 -50
	-250 2049.4 50
	-250 2049.45 150
	-250 2049.55 250
	-250 2049.58 350
	-150 2049.55 -350
	-150 2049.45 -250
	-150 2049.35 -150
	-150 2049.3 -50
	-150 2049.3 50
	-150 2049.35 150
	-150 2049.45 250
	-150 2049.55 350
	-50 2049.55 -350
	-50 2049.4 -250
	-50 2049.3 -150
	-50 2049.25 -50
	-50 2049.25 50
	-50 2049.3 150
	-50 2049.4 250
	-50 2049.55 350
	50 2049.55 -350
	50 2049.4 -250
	50 2049.3 -150
	50 2049.25 -50
	50 2049.25 50
	50 2049.3 150
	50 2049.4 250
	50 2049.55 350
	150 2049.55 -350
	150 2049.45 -250
	150 2049.35 -150
	150 2049.3 -50
	150 2049.3 50
	150 2049.35 150
	150 2049.45 250
	150 2049.55 350
	250 2049.58 -350
	250 2049.55 -250
	250 2049.45 -150
	250 2049.4 -50
	250 2049.4 50
	250 2049.45 150
	250 2049.55 250
	250 2049.58 350
	350 2049.49 -350
	350 2049.58 -250
	350 2049.55 -150
	350 2049.55 -50
	350 2049.55 50
	350 2049.55 150
	350 2049.58 250
	350 2049.49 350
	-350 2149.54 -350
	-350 2149.59 -250
	-350 2149.58 -150
	-350 2149.56 -50
	-350 2149.56 50
	-350 2149.58 150
	-350 2149.59 250
	-350 2149.54 350
	-250 2149.59 -350
	-250 2149.58 -250
	-250 2149.62 -150
	-250 2149.54 -50
	-250 2149.54 50
	-250 2149.62 150
	-250 2149.58 250
	-250 2149.59 350
	-150 2149.58 -350
	-150 2149.62 -250
	-150 2149.47 -150
	-150 2149.48 -50
	-150 2149.48 50
	-150 2149.47 150
	-150 2149.62 250
	-150 2149.58 350
	-50 2149.56 -350
	-50 2149.54 -250
	-50 2149.48 -150
	-50 2149.51 -50
	-50 2149.51 50
	-50 2149.48 150
	-50 2149.54 250
	-50 2149.56 350
	50 2149.56 -350
	50 2149.54 -250
	50 2149.48 -150
	50 2149.51 -50
	50 2149.51 50
	50 2149.48 150
	50 2149.54 250
	50 2149.56 350
	150 2149.58 -350
	150 2149.62 -250
	150 2149.47 -150
	150 2149.48 -50
	150 2149.48 50
	150 2149.47 150
	150 2149.62 250
	150 2149.58 350
	250 2149.59 -350
	250 2149.58 -250
	250 2149.62 -150
	250 2149.54 -50
	250 2149.54 50
	250 2149.62 150
	250 2149.58 250
	250 2149.59 350
	350 2149.54 -350
	350 2149.59 -250
	350 2149.58 -150
	350 2149.56 -50
	350 2149.56 50
	350 2149.58 150
	350 2149.59 250
	350 2149.54 350
	-350 2249.61 -350
	-350 2249.64 -250
	-350 2249.63 -150
	-350 2249.6 -50
	-350 2249.6 50
	-350 2249.63 150
	-350 2249.64 250
	-350 2249.61 350
	-250 2249.64 -350
	-250 2249.6 -250
	-250 2249.64 -150
	-250 2249.66 -50
	-250 2249.66 50
	-250 2249.64 150
	-250 2249.6 250
	-250 2249.64 350
	-150 2249.63 -350
	-150 2249.64 -250
	-150 2249.65 -150
	-150 2249.64 -50
	-150 2249.64 50
	-150 2249.65 150
	-150 2249.64 250
	-150 2249.63 350
	-50 2249.6 -350
	-50 2249.66 -250
	-50 2249.64 -150
	-50 2249.66 -50
	-50 2249.66 50
	-50 2249.64 150
	-50 2249.66 250
	-50 2249.6 350
	50 2249.6 -350
	50 2249.66 -250
	50 2249.64 -150
	50 2249.66 -50
	50 2249.66 50
	50 2249.64 150
	50 2249.66 250
	50 2249.6 350
	150 2249.63 -350
	150 2249.64 -250
	150 2249.65 -150
	150 2249.64 -50
	150 2249.64 50
	150 2249.65 150
	150 2249.64 250
	150 2249.63 350
	250 2249.64 -350
	250 2249.6 -250
	250 2249.64 -150
	250 2249.66 -50
	250 2249.66 50
	250 2249.64 150
	250 2249.6 250
	250 2249.64 350
	350 2249.61 -350
	350 2249.64 -250
	350 2249.63 -150
	350 2249.6 -50
	350 2249.6 50
	350 2249.63 150
	350 2249.64 250
	350 2249.61 350
	-350 2349.67 -350
	-350 2349.63 -250
	-350 2349.65 -150
	-350 2349.66 -50
	-350 2349.66 50
	-350 2349.65 150
	-350 2349.63 250
	-350 2349.67 350
	-250 2349.63 -350
	-250 2349.65 -250
	-250 2349.65 -150
	-250 2349.67 -50
	-250 2349.67 50
	-250 2349.65 150
	-250 2349.65 250
	-250 2349.63 350
	-150 2349.65 -350
	-150 2349.65 -250
	-150 2349.65 -150
	-150 2349.65 -50
	-150 2349.65 50
	-150 2349.65 150
	-150 2349.65 250
	-150 2349.65 350
	-50 2349.66 -350
	-50 2349.67 -250
	-50 2349.65 -150
	-50 2349.65 -50
	-50 2349.65 50
	-50 2349.65 150
	-50 2349.67 250
	-50 2349.66 350
	50 2349.66 -350
	50 2349.67 -250
	50 2349.65 -150
	50 2349.65 -50
	50 2349.65 50
	50 2349.65 150
	50 2349.67 250
	50 2349.66 350
	150 2349.65 -350
	150 2349.65 -250
	150 2349.65 -150
	150 2349.65 -50
	150 2349.65 50
	150 2349.65 150
	150 2349.65 250
	150 2349.65 350
	250 2349.63 -350
	250 2349.65 -250
	250 2349.65 -150
	250 2349.67 -50
	250 2349.67 50
	250 2349.65 150
	250 2349.65 250
	250 2349.63 350
	350 2349.67 -350
	350 2349.63 -250
	350 2349.65 -150
	350 2349.66 -50
	350 2349.66 50
	350 2349.65 150
	350 2349.63 250
	350 2349.67 350
	-350 2449.68 -350
	-350 2449.64 -250
	-350 2449.65 -150
	-350 2449.67 -50
	-350 2449.67 50
	-350 2449.65 150
	-350 2449.64 250
	-350 2449.68 350
	-250 2449.64 -350
	-250 2449.66 -250
	-250 2449.66 -150
	-250 2449.67 -50
	-250 2449.67 50
	-250 2449.66 150
	-250 2449.66 250
	-250 2449.64 350
	-150 2449.65 -350
	-150 2449.66 -250
	-150 2449.66 -150
	-150 2449.65 -50
	-150 2449.65 50
	-150 2449.66 150
	-150 2449.66 250
	-150 2449.65 350
	-50 2449.67 -350
	-50 2449.67 -250
	-50 2449.65 -150
	-50 2449.65 -50
	-50 2449.65 50
	-50 2449.65 150
	-50 2449.67 250
	-50 2449.67 350
	50 2449.67 -350
	50 2449.67 -250
	50 2449.65 -150
	50 2449.65 -50
	50 2449.65 50
	50 2449.65 150
	50 2449.67 250
	50 2449.67 350
	150 2449.65 -350
	150 2449.66 -250
	150 2449.66 -150
	150 2449.65 -50
	150 2449.65 50
	150 2449.66 150
	150 2449.66 250
	150 2449.65 350
	250 2449.64 -350
	250 2449.66 -250
	250 2449.66 -150
	250 2449.67 -50
	250 2449.67 50
	250 2449.66 150
	250 2449.66 250
	250 2449.64 350
	350 2449.68 -350
	350 2449.64 -250
	350 2449.65 -150
	350 2449.67 -50
	350 2449.67 50
	350 2449.65 150
	350 2449.64 250
	350 2449.68 350
	-350 2549.68 -350
	-350 2549.63 -250
	-350 2549.66 -150
	-350 2549.67 -50
	-350 2549.67 50
	-350 2549.66 150
	-350 2549.63 250
	-350 2549.68 350
	-250 2549.63 -350
	-250 2549.66 -250
	-250 2549.66 -150
	-250 2549.67 -50
	-250 2549.67 50
	-250 2549.66 150
	-250 2549.66 250
	-250 2549.63 350
	-150 2549.66 -350
	-150 2549.66 -250
	-150 2549.66 -150
	-150 2549.65 -50
	-150 2549.65 50
	-150 2549.66 150
	-150 2549.66 250
	-150 2549.66 350
	-50 2549.67 -350
	-50 2549.67 -250
	-50 2549.65 -150
	-50 2549.66 -50
	-50 2549.66 50
	-50 2549.65 150
	-50 2549.67 250
	-50 2549.67 350
	50 2549.67 -350
	50 2549.67 -250
	50 2549.65 -150
	50 2549.66 -50
	50 2549.66 50
	50 2549.65 150
	50 2549.67 250
	50 2549.67 350
	150 2549.66 -350
	150 2549.66 -250
	150 2549.66 -150
	150 2549.65 -50
	150 2549.65 50
	150 2549.66 150
	150 2549.66 250
	150 2549.66 350
	250 2549.63 -350
	250 2549.66 -250
	250 2549.66 -150
	250 2549.67 -50
	250 2549.67 50
	250 2549.66 150
	250 2549.66 250
	250 2549.63 350
	350 2549.68 -350
	350 2549.63 -250
	350 2549.66 -150
	350 2549.67 -50
	350 2549.67 50
	350 2549.66 150
	350 2549.63 250
	350 2549.68 350
	-350 2649.69 -350
	-350 2649.67 -250
	-350 2649.66 -150
	-350 2649.66 -50
	-350 2649.66 50
	-350 2649.66 150
	-350 2649.67 250
	-350 2649.69 350
	-250 2649.67 -350
	-250 2649.65 -250
	-250 2649.66 -150
	-250 2649.67 -50
	-250 2649.67 50
	-250 2649.66 150
	-250 2649.65 250
	-250 2649.67 350
	-150 2649.66 -350
	-150 2649.66 -250
	-150 2649.67 -150
	-150 2649.64 -50
	-150 2649.64 50
	-150 2649.67 150
	-150 2649.66 250
	-150 2649.66 350
	-50 2649.66 -350
	-50 2649.67 -250
	-50 2649.64 -150
	-50 2649.66 -50
	-50 2649.66 50
	-50 2649.64 150
	-50 2649.67 250
	-50 2649.66 350
	50 2649.66 -350
	50 2649.67 -250
	50 2649.64 -150
	50 2649.66 -50
	50 2649.66 50
	50 2649.64 150
	50 2649.67 250
	50 2649.66 350
	150 2649.66 -350
	150 2649.66 -250
	150 2649.67 -150
	150 2649.64 -50
	150 2649.64 50
	150 2649.67 150
	150 2649.66 250
	150 2649.66 350
	250 2649.67 -350
	250 2649.65 -250
	250 2649.66 -150
	250 2649.67 -50
	250 2649.67 50
	250 2649.66 150
	250 2649.65 250
	250 2649.67 350
	350 2649.69 -350
	350 2649.67 -250
	350 2649.66 -150
	350 2649.66 -50
	350 2649.66 50
	350 2649.66 150
	350 2649.67 250
	350 2649.69 350
	-350 2749.69 -350
	-350 2749.68 -250
	-350 2749.66 -150
	-350 2749.66 -50
	-350 2749.66 50
	-350 2749.66 150
	-350 2749.68 250
	-350 2749.69 350
	-250 2749.68 -350
	-250 2749.67 -250
	-250 2749.68 -150
	-250 2749.67 -50
	-250 2749.67 50
	-250 2749.68 150
	-250 2749.67 250
	-250 2749.68 350
	-150 2749.66 -350
	-150 2749.68 -250
	-150 2749.66 -150
	-150 2749.65 -50
	-150 2749.65 50
	-150 2749.66 150
	-150 2749.68 250
	-150 2749.66 350
	-50 2749.66 -350
	-50 2749.67 -250
	-50 2749.65 -150
	-50 2749.66 -50
	-50 2749.66 50
	-50 2749.65 150
	-50 2749.67 250
	-50 2749.66 350
	50 2749.66 -350
	50 2749.67 -250
	50 2749.65 -150
	50 2749.66 -50
	50 2749.66 50
	50 2749.65 150
	50 2749.67 250
	50 2749.66 350
	150 2749.66 -350
	150 2749.68 -250
	150 2749.66 -150
	150 2749.65 -50
	150 2749.65 50
	150 2749.66 150
	150 2749.68 250
	150 2749.66 350
	250 2749.68 -350
	250 2749.67 -250
	250 2749.68 -150
	250 2749.67 -50
	250 2749.67 50
	250 2749.68 150
	250 2749.67 250
	250 2749.68 350
	350 2749.69 -350
	350 2749.68 -250
	350 2749.66 -150
	350 2749.66 -50
	350 2749.66 50
	350 2749.66 150
	350 2749.68 250
	350 2749.69 350
	-350 2849.69 -350
	-350 2849.68 -250
	-350 2849.66 -150
	-350 2849.67 -50
	-350 2849.67 50
	-350 2849.66 150
	-350 2849.68 250
	-350 2849.69 350
	-250 2849.68 -350
	-250 2849.67 -250
	-250 2849.67 -150
	-250 2849.66 -50
	-250 2849.66 50
	-250 2849.67 150
	-250 2849.67 250
	-250 2849.68 350
	-150 2849.66 -350
	-150 2849.67 -250
	-150 2849.66 -150
	-150 2849.66 -50
	-150 2849.66 50
	-150 2849.66 150
	-150 2849.67 250
	-150 2849.66 350
	-50 2849.67 -350
	-50 2849.66 -250
	-50 2849.66 -150
	-50 2849.66 -50
	-50 2849.66 50
	-50 2849.66 150
	-50 2849.66 250
	-50 2849.67 350
	50 2849.67 -350
	50 2849.66 -250
	50 2849.66 -150
	50 2849.66 -50
	50 2849.66 50
	50 2849.66 150
	50 2849.66 250
	50 2849.67 350
	150 2849.66 -350
	150 2849.67 -250
	150 2849.66 -150
	150 2849.66 -50
[...]
<PointData  Vectors="vector">
  <DataArray type="Float32" Name="Velocity" NumberOfComponents="3" format="ascii">
 -3.93672e-06 -0.00668232 -3.70655e-06
 -4.49795e-06 -0.00638702 -2.64579e-05
 -4.47945e-06 -0.0100712 -1.75646e-05
 -4.37593e-06 0.0228438 -2.88529e-05
 -4.37531e-06 0.0228414 2.94958e-05
 -4.47921e-06 -0.0100776 1.76944e-05
 -4.49999e-06 -0.00639865 2.68594e-05
 -3.93533e-06 -0.00669896 4.11937e-06
 -2.65478e-05 -0.00638503 -4.27285e-06
 -1.76183e-06 0.0231418 -1.54532e-06
 -1.78883e-06 0.0192075 6.99344e-06
 -1.69091e-06 0.0172752 1.0127e-06
 -1.69686e-06 0.0172728 -6.30294e-07
 -1.78691e-06 0.0192003 -6.60624e-06
 -1.74099e-06 0.02313 1.92156e-06
 -2.66868e-05 -0.00640068 4.67268e-06
 -1.65504e-05 -0.0100675 -4.16663e-06
 6.78051e-06 0.0192097 -1.57686e-06
 6.38882e-06 0.0153181 6.53778e-06
 5.89124e-06 0.0133363 9.91055e-07
 5.89606e-06 0.0133339 -6.37911e-07
 6.38409e-06 0.0153111 -6.1643e-06
 6.77408e-06 0.0191981 1.97222e-06
 -1.69909e-05 -0.0100814 4.56237e-06
 -3.00119e-05 0.0228504 -4.34874e-06
 8.53908e-07 0.0172797 -1.36178e-06
 8.10882e-07 0.0133386 6.0738e-06
 7.67569e-07 0.0114044 1.00691e-06
 7.68486e-07 0.011402 -6.3569e-07
 8.13341e-07 0.0133316 -5.69096e-06
 8.37105e-07 0.0172682 1.72175e-06
 -2.99065e-05 0.0228346 4.7393e-06
 3.00338e-05 0.0228504 -4.34254e-06
 -8.30851e-07 0.0172796 -1.36025e-06
 -7.94063e-07 0.0133385 6.07551e-06
 -7.8882e-07 0.0114043 1.01073e-06
 -7.90665e-07 0.011402 -6.36139e-07
 -7.94239e-07 0.0133316 -5.69848e-06
 -8.6336e-07 0.0172682 1.72221e-06
 3.01274e-05 0.0228346 4.73332e-06
 1.6554e-05 -0.0100676 -4.15094e-06
 -6.77835e-06 0.0192095 -1.55303e-06
 -6.38131e-06 0.015318 6.54212e-06
 -5.94531e-06 0.0133362 9.85668e-07
 -5.94238e-06 0.0133338 -6.11692e-07
 -6.38677e-06 0.015311 -6.16935e-06
 -6.77397e-06 0.019198 1.93002e-06
 1.68997e-05 -0.0100814 4.54416e-06
 2.65491e-05 -0.00638523 -4.24334e-06
 1.76217e-06 0.0231416 -1.57964e-06
 1.78929e-06 0.0192073 7.05684e-06
 1.6193e-06 0.017275 1.02017e-06
 1.61667e-06 0.0172727 -6.42975e-07
 1.79254e-06 0.0192002 -6.67209e-06
 1.7885e-06 0.0231299 1.96155e-06
 2.65759e-05 -0.00640077 4.64363e-06
 3.94617e-06 -0.00668263 -3.66828e-06
 4.50762e-06 -0.00638726 -2.64228e-05
 4.48879e-06 -0.0100714 -1.75604e-05
 4.55581e-06 0.0228436 -2.86734e-05
 4.55561e-06 0.0228412 2.90725e-05
 4.48727e-06 -0.0100777 1.79142e-05
 4.50708e-06 -0.00639879 2.68404e-05
 3.94301e-06 -0.00669908 4.07968e-06
 -1.45803e-05 -0.00934793 -1.44838e-05
 -1.08958e-05 -0.0211462 -3.60196e-06
 -1.16089e-05 0.0243051 4.68932e-06
 -1.1381e-05 -0.00619158 -3.73949e-06
 -1.138e-05 -0.00619382 3.86719e-06
 -1.16088e-05 0.0242976 -4.56192e-06
 -1.08956e-05 -0.0211551 3.74005e-06
 -1.45883e-05 -0.00936306 1.4632e-05
 -3.39969e-06 -0.0211447 -1.07992e-05
 -5.8427e-06 -0.00486294 -5.67353e-06
 7.1623e-06 0.000134931 5.49542e-06
 -6.81648e-06 -0.00769041 1.5434e-06
 -6.81245e-06 -0.00769256 -1.51495e-06
 7.16314e-06 0.000122572 -5.31728e-06
 -5.80805e-06 -0.00487341 5.922e-06
 -3.41136e-06 -0.0211566 1.08555e-05
 4.35128e-06 0.0243095 -1.16135e-05
 5.38764e-06 0.000136901 7.27596e-06
 -9.48835e-06 -0.0145761 -9.5569e-06
 4.35886e-06 -0.0137335 -3.94817e-06
 4.35496e-06 -0.0137356 4.0595e-06
 -9.48705e-06 -0.0145824 9.67871e-06
 5.39867e-06 0.000120553 -7.15038e-06
 4.37359e-06 0.024293 1.1747e-05
 -3.85635e-06 -0.00618552 -1.12841e-05
 1.5657e-06 -0.0076864 -6.729e-06
 -4.04035e-06 -0.0137314 4.46392e-06
 -3.62804e-06 -0.0107849 -3.60375e-06
 -3.63031e-06 -0.010787 3.67627e-06
 -4.04497e-06 -0.0137377 -4.25773e-06
 1.51704e-06 -0.00769668 6.88157e-06
 -3.86365e-06 -0.00620003 1.13355e-05
 3.85316e-06 -0.00618556 -1.12769e-05
 -1.47219e-06 -0.00768643 -6.70205e-06
 4.02547e-06 -0.0137315 4.41976e-06
 3.58812e-06 -0.0107849 -3.58242e-06
 3.58634e-06 -0.010787 3.69516e-06
 4.02104e-06 -0.0137377 -4.25245e-06
 -1.46679e-06 -0.0076967 6.84971e-06
 3.84616e-06 -0.00620005 1.13323e-05
 -4.24632e-06 0.0243093 -1.15981e-05
 -5.3795e-06 0.000136788 7.28853e-06
 9.52212e-06 -0.0145762 -9.58964e-06
 -4.36667e-06 -0.0137336 -4.02485e-06
 -4.31376e-06 -0.0137357 4.09891e-06
 9.52635e-06 -0.0145825 9.74465e-06
 -5.39065e-06 0.000120485 -7.15971e-06
 -4.19278e-06 0.0242929 1.17333e-05
 3.32057e-06 -0.0211449 -1.0773e-05
 5.75263e-06 -0.00486314 -5.68764e-06
 -7.17164e-06 0.000134779 5.48493e-06
 6.87494e-06 -0.00769055 1.59798e-06
 6.82341e-06 -0.00769268 -1.46972e-06
 -7.17006e-06 0.000122448 -5.30246e-06
 5.75877e-06 -0.00487353 5.82895e-06
 3.29315e-06 -0.0211567 1.08336e-05
 1.45727e-05 -0.00934823 -1.59685e-05
 1.08989e-05 -0.0211464 -7.34149e-06
 1.16138e-05 0.0243048 1.00295e-05
 1.13843e-05 -0.00619177 -3.92934e-06
 1.13853e-05 -0.006194 4.00471e-06
 1.16132e-05 0.0242973 -8.32072e-06
 1.08984e-05 -0.0211552 6.66274e-06
 1.45541e-05 -0.00936318 1.54078e-05
 -1.44105e-05 -0.0123377 -1.44319e-05
 -1.22154e-05 0.00364585 5.94571e-06
 -1.35776e-05 -0.0116396 6.81476e-06
 -1.30142e-05 -0.0209231 -3.3267e-06
 -1.30141e-05 -0.0209244 3.20973e-06
 -1.35746e-05 -0.0116443 -6.92991e-06
 -1.22148e-05 0.00364225 -6.05837e-06
 -1.44147e-05 -0.0123472 1.43252e-05
 5.97075e-06 0.00364665 -1.22429e-05
 2.54484e-06 -0.0209191 2.49673e-06
 3.43381e-06 -0.0161672 7.43501e-06
 2.99947e-06 0.0120679 -3.25304e-06
 2.99958e-06 0.0120662 3.13202e-06
 3.43286e-06 -0.0156791 -7.55418e-06
 2.54492e-06 -0.0209285 -2.61277e-06
 5.97248e-06 0.0036416 1.21322e-05
 6.90172e-06 -0.0116368 -1.36026e-05
 7.48579e-06 -0.0161662 3.38838e-06
 7.4633e-06 -0.00589857 7.41111e-06
 7.26502e-06 -0.0237541 -3.19343e-06
 7.2651e-06 -0.0237546 3.06946e-06
 7.46185e-06 -0.00590224 -7.53178e-06
 7.48606e-06 -0.0156802 -3.50602e-06
 6.90856e-06 -0.0116472 1.34865e-05
 -3.26946e-06 -0.0209196 -1.30348e-05
 -3.19572e-06 0.012071 2.956e-06
 -3.13522e-06 -0.0237538 7.21291e-06
 -3.08442e-06 -0.0161648 -3.14502e-06
 -3.08515e-06 -0.0161653 3.01957e-06
 -3.13605e-06 -0.023755 -7.33666e-06
 -3.19553e-06 0.0120629 -3.07603e-06
 -3.25493e-06 -0.0209281 1.29207e-05
 3.26806e-06 -0.0209197 -1.30313e-05
 3.19435e-06 0.012071 2.95957e-06
 3.13388e-06 -0.0237535 7.21543e-06
 3.08329e-06 -0.0161649 -3.14529e-06
 3.08409e-06 -0.0161653 3.02014e-06
 3.13516e-06 -0.0237547 -7.33867e-06
 3.19448e-06 0.0120629 -3.07923e-06
 3.25404e-06 -0.0209281 1.2917e-05
 -6.90319e-06 -0.0116369 -1.35906e-05
 -7.48731e-06 -0.0161663 3.39811e-06
 -7.46499e-06 -0.00589861 7.41779e-06
 -7.26633e-06 -0.0237538 -3.19352e-06
 -7.26636e-06 -0.0237543 3.07027e-06
 -7.46266e-06 -0.00590229 -7.53755e-06
 -7.48729e-06 -0.0156802 -3.51496e-06
 -6.90964e-06 -0.0116472 1.34747e-05
 -5.97328e-06 0.00364591 -1.22219e-05
 -2.54632e-06 -0.0209192 2.5127e-06
 -3.43518e-06 -0.0161834 7.44501e-06
 -3.00073e-06 0.0120677 -3.25212e-06
 -3.00079e-06 0.012066 3.13214e-06
 -3.434e-06 -0.0156791 -7.56313e-06
 -2.5461e-06 -0.0209286 -2.62741e-06
 -5.97389e-06 0.00364127 1.21119e-05
 1.44099e-05 -0.0123379 -1.43801e-05
 1.22143e-05 0.00364523 5.93223e-06
 1.35771e-05 -0.0116398 6.84567e-06
 1.30134e-05 -0.0209234 -3.30473e-06
 1.30134e-05 -0.0209247 3.18911e-06
 1.35732e-05 -0.0116445 -6.95907e-06
 1.22139e-05 0.00364167 -6.0424e-06
 1.44133e-05 -0.0123473 1.42739e-05
 -9.50192e-06 -0.00402954 -9.63976e-06
 -8.76906e-06 -0.010851 -6.69883e-06
 -9.89535e-06 -0.00126055 -4.97391e-06
 -1.04768e-05 -0.00465575 4.03848e-06
 -1.04777e-05 -0.0046564 -4.37113e-06
 -9.8987e-06 -0.00126303 4.63079e-06
 -8.76694e-06 -0.0108611 6.36433e-06
 -9.49805e-06 -0.00403584 9.3053e-06
 -6.54688e-06 -0.0108494 -8.90827e-06
 -4.54732e-06 0.000840481 -4.71149e-06
 -7.45942e-06 0.00246422 5.20164e-06
 -3.8413e-06 -0.00950965 3.07914e-06
 -3.84059e-06 -0.00950853 -3.4384e-06
 -7.44127e-06 0.00253851 -5.55135e-06
 -4.56336e-06 0.000832146 4.4133e-06
 -6.54531e-06 -0.0108629 8.56969e-06
 -4.68888e-06 -0.00125913 -1.00319e-05
 5.34795e-06 0.00246542 -7.65622e-06
 7.33958e-06 0.0120611 7.17474e-06
 5.26035e-06 0.000876107 7.78832e-06
 5.26138e-06 0.000873823 -8.08168e-06
 7.32202e-06 0.0120559 -7.49264e-06
 5.34622e-06 0.00253728 7.25407e-06
 -4.67348e-06 -0.00126485 9.69949e-06
 4.15624e-06 -0.00465412 -1.07261e-05
 3.15393e-06 -0.00950893 -4.03408e-06
 7.90941e-06 0.000878119 5.22147e-06
 6.48315e-06 -0.010545 6.35306e-06
 6.48279e-06 -0.0105464 -6.68979e-06
 7.91362e-06 0.000872302 -5.55939e-06
 3.03776e-06 -0.0095098 3.69833e-06
 4.13329e-06 -0.00465824 1.03908e-05
 -4.16702e-06 -0.00465416 -1.07237e-05
 -3.15937e-06 -0.00950913 -4.03204e-06
 -7.9142e-06 0.000878959 5.22467e-06
 -6.48776e-06 -0.010545 6.35408e-06
 -6.48706e-06 -0.0105465 -6.69049e-06
 -7.91743e-06 0.000873235 -5.5618e-06
 -3.04145e-06 -0.00950995 3.69658e-06
 -4.13936e-06 -0.00465826 1.03884e-05
 4.68805e-06 -0.00125928 -1.00219e-05
 -5.35279e-06 0.00246533 -7.64995e-06
 -7.34527e-06 0.012061 7.18101e-06
 -5.26623e-06 0.000877516 7.79227e-06
 -5.26671e-06 0.00087538 -8.08473e-06
 -7.326e-06 0.0120558 -7.49748e-06
 -5.38871e-06 0.00253719 7.24841e-06
 4.67041e-06 -0.00126565 9.69069e-06
 6.53977e-06 -0.0108493 -8.89113e-06
 4.53944e-06 0.00084031 -4.70491e-06
 7.45287e-06 0.00247795 5.21511e-06
 3.83576e-06 -0.00950865 3.04272e-06
 3.83506e-06 -0.00950925 -3.39993e-06
 7.43437e-06 0.00253837 -5.56338e-06
 4.59491e-06 0.000832014 4.40822e-06
 6.54036e-06 -0.0108628 8.5543e-06
 9.4947e-06 -0.00402978 -9.56384e-06
 8.7628e-06 -0.010851 -6.6384e-06
 9.88935e-06 -0.00126117 -4.44224e-06
 1.0471e-05 -0.00465601 3.43712e-06
 1.04719e-05 -0.00465663 -4.40076e-06
 9.89326e-06 -0.00126441 4.63236e-06
 8.76183e-06 -0.0108609 6.35184e-06
 9.49258e-06 -0.00403618 9.28839e-06
 -1.41917e-05 0.0144864 -1.44278e-05
 -7.26493e-06 0.0226435 -5.98801e-06
 -7.36542e-06 0.00518601 9.14742e-06
 -7.1528e-06 0.0122985 -9.46682e-06
 -7.15222e-06 0.0122968 8.96619e-06
 -7.35788e-06 0.00518385 -9.65004e-06
 -7.26978e-06 0.0226425 5.48463e-06
 -1.41903e-05 0.0144767 1.39195e-05
 -5.75676e-06 0.0226437 -7.49695e-06
 -6.1205e-06 -0.0108798 -6.38464e-06
 -5.12582e-06 0.0114139 6.21892e-06
 -4.82793e-06 0.000129913 6.15777e-06
 -4.82829e-06 0.000130305 -6.64428e-06
 -5.12802e-06 0.01141 -6.74872e-06
 -6.17045e-06 -0.0108775 5.89963e-06
 -5.75492e-06 0.0226423 6.99744e-06
 9.39561e-06 0.00518732 -7.59382e-06
 6.42922e-06 0.0114152 -5.35287e-06
 4.15133e-06 -0.00526455 3.91045e-06
 2.20651e-06 0.00621621 -8.70202e-06
 2.20669e-06 0.00621607 8.2033e-06
 4.14255e-06 -0.00526752 -4.39652e-06
 6.497e-06 0.0114085 4.8566e-06
 9.39597e-06 0.00518281 7.08423e-06
 -9.21647e-06 0.0123027 -7.38232e-06
 6.40545e-06 0.000129828 -5.04768e-06
 -8.45743e-06 0.00621677 1.96637e-06
 -1.07642e-05 -0.00274388 -1.10015e-05
 -1.07638e-05 -0.00274392 1.04378e-05
 -8.45317e-06 0.00621457 -2.37191e-06
 6.39601e-06 0.000132218 4.53087e-06
 -9.21607e-06 0.0122925 6.88383e-06
 9.20635e-06 0.0123025 -7.37859e-06
 -6.41461e-06 0.000130455 -4.9989e-06
 8.44915e-06 0.00621522 1.9811e-06
 1.0684e-05 -0.00274374 -1.09419e-05
 1.06839e-05 -0.00274376 1.04486e-05
 8.44644e-06 0.0062128 -2.47585e-06
 -6.40346e-06 0.000132911 4.50412e-06
 9.20874e-06 0.0122924 6.87864e-06
 -9.40572e-06 0.00518749 -7.58495e-06
 -6.43844e-06 0.0114149 -5.34871e-06
 -4.16051e-06 -0.00526493 3.91575e-06
 -2.12574e-06 0.0062136 -8.70097e-06
 -2.12549e-06 0.00621313 8.20328e-06
 -4.15009e-06 -0.00526781 -4.40071e-06
 -6.50431e-06 0.0114082 4.85408e-06
 -9.40328e-06 0.00518371 7.07695e-06
 5.74565e-06 0.0226433 -7.48338e-06
 6.10955e-06 -0.0108798 -6.37904e-06
 5.11556e-06 0.0114223 6.23034e-06
 4.79838e-06 0.000132082 6.16414e-06
 4.79878e-06 0.000132935 -6.64763e-06
 5.11819e-06 0.0114097 -6.75586e-06
 6.16153e-06 -0.0108775 5.89368e-06
 5.74626e-06 0.0226422 6.98575e-06
 1.4181e-05 0.0144861 -1.4408e-05
 7.25452e-06 0.0226431 -5.97741e-06
 7.35553e-06 0.00518666 9.16096e-06
 7.14615e-06 0.0122981 -9.46485e-06
 7.14642e-06 0.0122966 8.96707e-06
 7.3491e-06 0.00518535 -9.66059e-06
 7.2615e-06 0.0226423 5.47709e-06
 1.41823e-05 0.0144765 1.3903e-05
 -6.40533e-06 0.0138691 -6.69423e-06
 -7.51453e-06 -0.0030842 -3.91137e-06
 -5.14766e-06 -0.0123894 1.23009e-06
 -6.88085e-06 0.00556904 -9.37813e-06
 -6.88137e-06 0.0055701 8.77037e-06
 -5.1555e-06 -0.0123921 -1.80234e-06
 -7.52088e-06 -0.00309457 3.31661e-06
 -6.40403e-06 0.0138623 6.09242e-06
 -3.62902e-06 -0.00308243 -7.80098e-06
 -4.20293e-06 -0.00711336 -4.47383e-06
 -2.75181e-06 -0.00971842 -9.42009e-06
 -2.82978e-06 -0.00751752 5.31582e-06
 -2.82951e-06 -0.00752068 -5.83787e-06
 -2.79383e-06 -0.0108704 8.82041e-06
 -4.14656e-06 -0.00711658 3.83239e-06
 -3.62674e-06 -0.00309639 7.2125e-06
 1.67127e-06 -0.012388 -5.46991e-06
 -9.1623e-06 -0.00971741 -3.05684e-06
 2.86764e-06 -0.0133373 2.58795e-06
 2.87036e-06 -0.00716419 -8.08779e-06
 2.87085e-06 -0.00716264 7.56379e-06
 2.92547e-06 -0.013338 -3.23256e-06
 -9.1583e-06 -0.0108692 2.477e-06
 1.66721e-06 -0.0123938 4.88515e-06
 -9.19177e-06 0.00556677 -7.14973e-06
 5.61801e-06 -0.00751669 -3.1305e-06
 -7.83513e-06 -0.007166 2.57939e-06
 -8.3614e-06 0.0065945 -8.61288e-06
 -8.36061e-06 0.00659246 8.03483e-06
 -7.79758e-06 -0.00716067 -3.15662e-06
 5.52511e-06 -0.00752083 2.55025e-06
 -9.18514e-06 0.00557288 6.56199e-06
 9.17017e-06 0.00556696 -7.14827e-06
 -5.63017e-06 -0.00751644 -3.12918e-06
 7.8238e-06 -0.00716561 2.5784e-06
 8.35087e-06 0.0065943 -8.60961e-06
 8.34939e-06 0.00659225 8.02938e-06
 7.78751e-06 -0.00716036 -3.15185e-06
 -5.53467e-06 -0.0075205 2.54938e-06
 9.17464e-06 0.00557296 6.56053e-06
 -1.67409e-06 -0.0123884 -5.46322e-06
 9.15011e-06 -0.0097153 -3.05305e-06
 -2.87961e-06 -0.0133375 2.59261e-06
 -2.88285e-06 -0.00716375 -8.08814e-06
 -2.88088e-06 -0.00716202 7.56536e-06
 -2.93549e-06 -0.0133381 -3.23617e-06
 9.14815e-06 -0.0108879 2.47535e-06
 -1.67564e-06 -0.0123943 4.88018e-06
 3.6144e-06 -0.00308257 -7.7884e-06
 4.19046e-06 -0.00711374 -4.4708e-06
 2.74053e-06 -0.00963962 -9.41864e-06
 2.81882e-06 -0.00751945 5.32312e-06
 2.81909e-06 -0.00751957 -5.83948e-06
 2.78356e-06 -0.0108878 8.81909e-06
 4.13679e-06 -0.00711681 3.83055e-06
 3.61685e-06 -0.00309648 7.20298e-06
 6.39216e-06 0.0138689 -6.67737e-06
 7.50203e-06 -0.0030844 -3.90409e-06
 5.13554e-06 -0.0123903 1.3866e-06
 6.87046e-06 0.00557016 -9.46248e-06
 6.87065e-06 0.0055711 8.85434e-06
 5.1451e-06 -0.012393 -1.95119e-06
 7.51092e-06 -0.00309467 3.31219e-06
 6.39435e-06 0.0138622 6.07944e-06
 -4.93873e-06 -0.00171105 -5.2444e-06
 -5.54641e-06 0.013452 5.06851e-06
 -2.58845e-06 0.0122406 -6.44364e-06
 -3.86359e-06 -0.0102151 -1.29004e-06
 -3.86333e-06 -0.0102166 6.71999e-07
 -2.49604e-06 0.0122374 5.8247e-06
 -5.50475e-06 0.0134489 -5.69245e-06
 -4.93692e-06 -0.00171224 4.61176e-06
 5.37097e-06 0.0134526 -5.84722e-06
 3.13655e-06 0.00451069 2.8093e-06
 4.29257e-06 0.00209687 -4.07628e-06
 1.155e-08 -0.00113238 -1.7262e-06
 1.78714e-08 -0.00113266 1.02045e-06
 4.20403e-06 0.00295817 3.52985e-06
 3.72064e-06 0.00449909 -3.41638e-06
 5.37251e-06 0.0134483 5.24349e-06
 -6.13418e-06 0.0122424 -2.87793e-06
 -3.82331e-06 0.00209746 3.99071e-06
 -4.74794e-06 0.00201678 -5.07368e-06
 6.59313e-07 -0.00531104 -7.20568e-07
 6.55887e-07 -0.00531418 1.23766e-07
 -4.75526e-06 0.00202338 4.46171e-06
 -4.37271e-06 0.00295612 -4.5143e-06
 -6.11983e-06 0.0122355 2.1688e-06
 -9.57094e-07 -0.0102119 -4.15795e-06
 -1.44635e-06 -0.00113081 -2.94583e-07
 -4.29935e-07 -0.00530785 4.02804e-07
 1.72811e-06 0.00729129 1.35026e-06
 1.71614e-06 0.00729152 -1.95274e-06
 -4.20707e-07 -0.00531726 -1.00554e-06
 -1.3573e-06 -0.00113585 -3.12922e-07
 -9.68156e-07 -0.0102205 3.54125e-06
 9.42722e-07 -0.0102122 -4.15615e-06
 1.43301e-06 -0.00113138 -2.99999e-07
 4.18102e-07 -0.0053078 4.0856e-07
 -1.74014e-06 0.00729126 1.35668e-06
 -1.72762e-06 0.0072915 -1.95863e-06
 4.10527e-07 -0.00531698 -1.01015e-06
 1.34867e-06 -0.00113647 -3.07492e-07
 9.57592e-07 -0.0102206 3.53994e-06
 6.12037e-06 0.0122423 -2.87488e-06
 3.80643e-06 0.0020957 3.99724e-06
 4.73447e-06 0.00201759 -5.07359e-06
 -6.72592e-07 -0.00531074 -7.18767e-07
 -6.69431e-07 -0.0053139 1.23666e-07
 4.74343e-06 0.00202393 4.46323e-06
 4.35027e-06 0.00296693 -4.51819e-06
 6.10984e-06 0.0122356 2.16631e-06
 -5.3853e-06 0.0134524 -5.83832e-06
 -3.14647e-06 0.00451056 3.11948e-06
 -4.30534e-06 0.00206849 -4.3064e-06
 -2.2299e-08 -0.00113353 -1.76193e-06
 -2.72757e-08 -0.00113504 9.93741e-07
 -4.21487e-06 0.00296791 3.76165e-06
 -3.72134e-06 0.00449897 -3.59563e-06
 -5.38296e-06 0.0134482 5.17539e-06
 4.92409e-06 -0.00171118 -5.23217e-06
 5.53259e-06 0.0134518 5.07861e-06
 2.57549e-06 0.0122404 -6.44482e-06
 3.85121e-06 -0.0102166 -1.28762e-06
 3.85154e-06 -0.0102179 6.73559e-07
 2.48455e-06 0.0122374 5.82956e-06
 5.49372e-06 0.0134487 -5.69872e-06
 4.92632e-06 -0.00171222 4.6031e-06
 -5.76476e-06 -0.00851465 -6.05729e-06
 -6.46699e-06 0.0061873 4.08223e-06
 -4.98682e-06 4.26532e-05 -6.50883e-06
 -4.74326e-06 0.00241935 3.51628e-06
 -4.74323e-06 0.0024185 -4.10748e-06
 -4.99968e-06 5.34017e-05 5.92509e-06
 -6.47284e-06 0.00618717 -4.67477e-06
 -5.7632e-06 -0.0085121 5.45635e-06
 4.37093e-06 0.00618731 -6.75479e-06
 3.56957e-06 0.000760813 3.28969e-06
 2.87935e-06 -0.0020225 5.44195e-06
 1.86892e-06 -0.00527659 -6.83838e-06
 1.86946e-06 -0.00527507 6.26142e-06
 2.99307e-06 0.000304891 -6.12446e-06
 3.4805e-06 0.000770552 -3.78119e-06
 4.37049e-06 0.00618714 6.16799e-06
 -6.17948e-06 3.69983e-05 -5.27003e-06
 5.73052e-06 -0.0020261 2.602e-06
 5.34462e-06 -0.0010499 5.06021e-06
 6.36673e-06 -0.00144928 -2.32121e-06
 6.36714e-06 -0.00144954 1.75205e-06
 5.24996e-06 -0.00105605 -5.54771e-06
 5.82989e-06 0.000306886 -3.28751e-06
 -6.27475e-06 5.92821e-05 4.69561e-06
 3.78776e-06 0.00242152 -5.02579e-06
 -6.5753e-06 -0.00527848 1.59039e-06
 -2.07027e-06 -0.00144901 6.08902e-06
 -5.59217e-06 -0.0138039 -5.86854e-06
 -5.59179e-06 -0.0138038 5.29872e-06
 -1.95777e-06 -0.00144991 -6.66214e-06
 -6.57999e-06 -0.0052729 -2.16794e-06
 3.85164e-06 0.00241626 4.44062e-06
 -3.80221e-06 0.00242146 -5.0245e-06
 6.56243e-06 -0.00527851 1.59137e-06
 2.05794e-06 -0.00144916 6.08987e-06
 5.58062e-06 -0.0138037 -5.86829e-06
 5.58068e-06 -0.0138037 5.29902e-06
 1.94718e-06 -0.00145009 -6.66241e-06
 6.56992e-06 -0.00527298 -2.16836e-06
 -3.76204e-06 0.0024163 4.43979e-06
 6.16625e-06 3.89463e-05 -5.2666e-06
 -5.7433e-06 -0.00202671 2.60803e-06
 -5.34908e-06 -0.00105057 5.06011e-06
 -6.37843e-06 -0.00144955 -2.31791e-06
 -6.37824e-06 -0.00144983 1.7504e-06
 -5.2609e-06 -0.00105645 -5.54897e-06
 -5.83945e-06 0.000315638 -3.28804e-06
 6.16517e-06 5.92685e-05 4.69289e-06
 -4.38518e-06 0.00618725 -6.74848e-06
 -3.58328e-06 0.000761437 3.30011e-06
 -2.89993e-06 -0.00223642 5.44037e-06
 -1.881e-06 -0.00527622 -6.83694e-06
 -1.88092e-06 -0.00527505 6.26342e-06
 -3.00353e-06 0.000313236 -6.12506e-06
 -3.49203e-06 0.000770768 -3.78461e-06
 -4.38054e-06 0.00618713 6.16424e-06
 5.75036e-06 -0.00851439 -6.04797e-06
 6.45323e-06 0.00618722 4.08958e-06
 4.97398e-06 4.54345e-05 -6.50925e-06
 4.73106e-06 0.00241939 3.52242e-06
 4.73166e-06 0.00241864 -4.11293e-06
 4.98842e-06 5.43169e-05 5.93268e-06
 6.46243e-06 0.00618714 -4.67865e-06
 5.75299e-06 -0.00851209 5.45079e-06
 -3.58886e-06 -0.00245997 -3.83481e-06
 -3.33472e-06 0.00636985 -6.66673e-07
 -1.54893e-06 -0.0104746 5.42502e-06
 -2.15504e-06 0.00619995 5.40063e-06
 -2.15496e-06 0.00619999 -5.88838e-06
 -1.56444e-06 -0.0104834 -5.91988e-06
 -3.33538e-06 0.00637531 1.72544e-07
 -3.58745e-06 -0.00246007 3.33341e-06
 -4.15064e-07 0.00636893 -3.57538e-06
 1.75985e-06 -0.00605136 1.52116e-06
 7.9097e-07 -0.00387089 2.12787e-06
 8.22699e-07 0.0041386 5.97064e-06
 8.21926e-07 0.00413632 -6.45829e-06
 7.80176e-07 -0.00599815 -2.64642e-06
 1.72411e-06 -0.00606045 -1.97527e-06
 -4.14133e-07 0.00637629 3.08218e-06
 5.65211e-06 -0.01047 -1.79217e-06
 2.36666e-06 -0.00386702 5.51996e-07
 3.93862e-06 -0.0134545 3.71149e-06
 4.46787e-06 -0.00148291 3.46269e-06
 4.46902e-06 -0.00148242 -3.94165e-06
 3.96744e-06 -0.0134548 -4.20708e-06
 2.40277e-06 -0.00599983 -1.03024e-06
 5.65369e-06 -0.0104882 1.30875e-06
 5.642e-06 0.00620018 -2.3926e-06
 6.20544e-06 0.00414237 5.90844e-07
 3.69728e-06 -0.00148315 4.23399e-06