<?xml version="1.0"?>
<!-- time 52.8204-->
<VTKFile type="UnstructuredGrid" version="0.1" byte_order="LittleEndian">
<UnstructuredGrid>
<Piece NumberOfPoints="7680" NumberOfCells="0">
<Points>
  <DataArray type="Float32" Name="Position" NumberOfComponents="3" format="ascii">
	-350 2049.6 -350
	-350 2049.61 -250
	-350 2049.61 -150
	-350 2049.6 -50
	-350 2049.6 50
	-350 2049.61 150
	-350 2049.61 250
	-350 2049.6 350
	-250 2049.61 -350
	-250 2049.6 -250
	-250 2049.56 -150
	-250 2049.54 -50
	-250 2049.54 50
	-250 2049.56 150
	-250 2049.6 250
	-250 2049.61 350
	-150 2049.61 -350
	-150 2049.56 -250
	-150 2049.52 -150
	-150 2049.5 -50
	-150 2049.5 50
	-150 2049.52 150
	-150 2049.56 250
	-150 2049.61 350
	-50 2049.6 -350
	-50 2049.54 -250
	-50 2049.5 -150
	-50 2049.48 -50
	-50 2049.48 50
	-50 2049.5 150
	-50 2049.54 250
	-50 2049.6 350
	50 2049.6 -350
	50 2049.54 -250
	50 2049.5 -150
	50 2049.48 -50
	50 2049.48 50
	50 2049.5 150
	50 2049.54 250
	50 2049.6 350
	150 2049.61 -350
	150 2049.56 -250
	150 2049.52 -150
	150 2049.5 -50
	150 2049.5 50
	150 2049.52 150
	150 2049.56 250
	150 2049.61 350
	250 2049.61 -350
	250 2049.6 -250
	250 2049.56 -150
	250 2049.54 -50
	250 2049.54 50
	250 2049.56 150
	250 2049.6 250
	250 2049.61 350
	350 2049.6 -350
	350 2049.61 -250
	350 2049.61 -150
	350 2049.6 -50
	350 2049.6 50
	350 2049.61 150
	350 2049.61 250
	350 2049.6 350
	-350 2149.68 -350
	-350 2149.63 -250
	-350 2149.6 -150
	-350 2149.6 -50
	-350 2149.6 50
	-350 2149.6 150
	-350 2149.63 250
	-350 2149.68 350
	-250 2149.63 -350
	-250 2149.6 -250
	-250 2149.61 -150
	-250 2149.61 -50
	-250 2149.61 50
	-250 2149.61 150
	-250 2149.6 250
	-250 2149.63 350
	-150 2149.6 -350
	-150 2149.61 -250
	-150 2149.62 -150
	-150 2149.61 -50
	-150 2149.61 50
	-150 2149.62 150
	-150 2149.61 250
	-150 2149.6 350
	-50 2149.6 -350
	-50 2149.61 -250
	-50 2149.61 -150
	-50 2149.61 -50
	-50 2149.61 50
	-50 2149.61 150
	-50 2149.61 250
	-50 2149.6 350
	50 2149.6 -350
	50 2149.61 -250
	50 2149.61 -150
	50 2149.61 -50
	50 2149.61 50
	50 2149.61 150
	50 2149.61 250
	50 2149.6 350
	150 2149.6 -350
	150 2149.61 -250
	150 2149.62 -150
	150 2149.61 -50
	150 2149.61 50
	150 2149.62 150
	150 2149.61 250
	150 2149.6 350
	250 2149.63 -350
	250 2149.6 -250
	250 2149.61 -150
	250 2149.61 -50
	250 2149.61 50
	250 2149.61 150
	250 2149.6 250
	250 2149.63 350
	350 2149.68 -350
	350 2149.63 -250
	350 2149.6 -150
	350 2149.6 -50
	350 2149.6 50
	350 2149.6 150
	350 2149.63 250
	350 2149.68 350
	-350 2249.7 -350
	-350 2249.68 -250
	-350 2249.67 -150
	-350 2249.67 -50
	-350 2249.67 50
	-350 2249.67 150
	-350 2249.68 250
	-350 2249.7 350
	-250 2249.68 -350
	-250 2249.67 -250
	-250 2249.65 -150
	-250 2249.65 -50
	-250 2249.65 50
	-250 2249.65 150
	-250 2249.67 250
	-250 2249.68 350
	-150 2249.67 -350
	-150 2249.65 -250
	-150 2249.63 -150
	-150 2249.62 -50
	-150 2249.62 50
	-150 2249.63 150
	-150 2249.65 250
	-150 2249.67 350
	-50 2249.67 -350
	-50 2249.65 -250
	-50 2249.62 -150
	-50 2249.61 -50
	-50 2249.61 50
	-50 2249.62 150
	-50 2249.65 250
	-50 2249.67 350
	50 2249.67 -350
	50 2249.65 -250
	50 2249.62 -150
	50 2249.61 -50
	50 2249.61 50
	50 2249.62 150
	50 2249.65 250
	50 2249.67 350
	150 2249.67 -350
	150 2249.65 -250
	150 2249.63 -150
	150 2249.62 -50
	150 2249.62 50
	150 2249.63 150
	150 2249.65 250
	150 2249.67 350
	250 2249.68 -350
	250 2249.67 -250
	250 2249.65 -150
	250 2249.65 -50
	250 2249.65 50
	250 2249.65 150
	250 2249.67 250
	250 2249.68 350
	350 2249.7 -350
	350 2249.68 -250
	350 2249.67 -150
	350 2249.67 -50
	350 2249.67 50
	350 2249.67 150
	350 2249.68 250
	350 2249.7 350
	-350 2349.7 -350
	-350 2349.69 -250
	-350 2349.67 -150
	-350 2349.66 -50
	-350 2349.66 50
	-350 2349.67 150
	-350 2349.69 250
	-350 2349.7 350
	-250 2349.69 -350
	-250 2349.66 -250
	-250 2349.64 -150
	-250 2349.64 -50
	-250 2349.64 50
	-250 2349.64 150
	-250 2349.66 250
	-250 2349.69 350
	-150 2349.67 -350
	-150 2349.64 -250
	-150 2349.64 -150
	-150 2349.65 -50
	-150 2349.65 50
	-150 2349.64 150
	-150 2349.64 250
	-150 2349.67 350
	-50 2349.66 -350
	-50 2349.64 -250
	-50 2349.65 -150
	-50 2349.66 -50
	-50 2349.66 50
	-50 2349.65 150
	-50 2349.64 250
	-50 2349.66 350
	50 2349.66 -350
	50 2349.64 -250
	50 2349.65 -150
	50 2349.66 -50
	50 2349.66 50
	50 2349.65 150
	50 2349.64 250
	50 2349.66 350
	150 2349.67 -350
	150 2349.64 -250
	150 2349.64 -150
	150 2349.65 -50
	150 2349.65 50
	150 2349.64 150
	150 2349.64 250
	150 2349.67 350
	250 2349.69 -350
	250 2349.66 -250
	250 2349.64 -150
	250 2349.64 -50
	250 2349.64 50
	250 2349.64 150
	250 2349.66 250
	250 2349.69 350
	350 2349.7 -350
	350 2349.69 -250
	350 2349.67 -150
	350 2349.66 -50
	350 2349.66 50
	350 2349.67 150
	350 2349.69 250
	350 2349.7 350
	-350 2449.69 -350
	-350 2449.69 -250
	-350 2449.7 -150
	-350 2449.69 -50
	-350 2449.69 50
	-350 2449.7 150
	-350 2449.69 250
	-350 2449.69 350
	-250 2449.69 -350
	-250 2449.69 -250
	-250 2449.69 -150
	-250 2449.69 -50
	-250 2449.69 50
	-250 2449.69 150
	-250 2449.69 250
	-250 2449.69 350
	-150 2449.7 -350
	-150 2449.69 -250
	-150 2449.68 -150
	-150 2449.68 -50
	-150 2449.68 50
	-150 2449.68 150
	-150 2449.69 250
	-150 2449.7 350
	-50 2449.69 -350
	-50 2449.69 -250
	-50 2449.68 -150
	-50 2449.68 -50
	-50 2449.68 50
	-50 2449.68 150
	-50 2449.69 250
	-50 2449.69 350
	50 2449.69 -350
	50 2449.69 -250
	50 2449.68 -150
	50 2449.68 -50
	50 2449.68 50
	50 2449.68 150
	50 2449.69 250
	50 2449.69 350
	150 2449.7 -350
	150 2449.69 -250
	150 2449.68 -150
	150 2449.68 -50
	150 2449.68 50
	150 2449.68 150
	150 2449.69 250
	150 2449.7 350
	250 2449.69 -350
	250 2449.69 -250
	250 2449.69 -150
	250 2449.69 -50
	250 2449.69 50
	250 2449.69 150
	250 2449.69 250
	250 2449.69 350
	350 2449.69 -350
	350 2449.69 -250
	350 2449.7 -150
	350 2449.69 -50
	350 2449.69 50
	350 2449.7 150
	350 2449.69 250
	350 2449.69 350
	-350 2549.71 -350
	-350 2549.7 -250
	-350 2549.7 -150
	-350 2549.7 -50
	-350 2549.7 50
	-350 2549.7 150
	-350 2549.7 250
	-350 2549.71 350
	-250 2549.7 -350
	-250 2549.7 -250
	-250 2549.7 -150
	-250 2549.7 -50
	-250 2549.7 50
	-250 2549.7 150
	-250 2549.7 250
	-250 2549.7 350
	-150 2549.7 -350
	-150 2549.7 -250
	-150 2549.7 -150
	-150 2549.7 -50
	-150 2549.7 50
	-150 2549.7 150
	-150 2549.7 250
	-150 2549.7 350
	-50 2549.7 -350
	-50 2549.7 -250
	-50 2549.7 -150
	-50 2549.7 -50
	-50 2549.7 50
	-50 2549.7 150
	-50 2549.7 250
	-50 2549.7 350
	50 2549.7 -350
	50 2549.7 -250
	50 2549.7 -150
	50 2549.7 -50
	50 2549.7 50
	50 2549.7 150
	50 2549.7 250
	50 2549.7 350
	150 2549.7 -350
	150 2549.7 -250
	150 2549.7 -150
	150 2549.7 -50
	150 2549.7 50
	150 2549.7 150
	150 2549.7 250
	150 2549.7 350
	250 2549.7 -350
	250 2549.7 -250
	250 2549.7 -150
	250 2549.7 -50
	250 2549.7 50
	250 2549.7 150
	250 2549.7 250
	250 2549.7 350
	350 2549.71 -350
	350 2549.7 -250
	350 2549.7 -150
	350 2549.7 -50
	350 2549.7 50
	350 2549.7 150
	350 2549.7 250
	350 2549.71 350
	-350 2649.71 -350
	-350 2649.7 -250
	-350 2649.7 -150
	-350 2649.7 -50
	-350 2649.7 50
	-350 2649.7 150
	-350 2649.7 250
	-350 2649.71 350
	-250 2649.7 -350
	-250 2649.7 -250
	-250 2649.7 -150
	-250 2649.7 -50
	-250 2649.7 50
	-250 2649.7 150
	-250 2649.7 250
	-250 2649.7 350
	-150 2649.7 -350
	-150 2649.7 -250
	-150 2649.7 -150
	-150 2649.7 -50
	-150 2649.7 50
	-150 2649.7 150
	-150 2649.7 250
	-150 2649.7 350
	-50 2649.7 -350
	-50 2649.7 -250
	-50 2649.7 -150
	-50 2649.7 -50
	-50 2649.7 50
	-50 2649.7 150
	-50 2649.7 250
	-50 2649.7 350
	50 2649.7 -350
	50 2649.7 -250
	50 2649.7 -150
	50 2649.7 -50
	50 2649.7 50
	50 2649.7 150
	50 2649.7 250
	50 2649.7 350
	150 2649.7 -350
	150 2649.7 -250
	150 2649.7 -150
	150 2649.7 -50
	150 2649.7 50
	150 2649.7 150
	150 2649.7 250
	150 2649.7 350
	250 2649.7 -350
	250 2649.7 -250
	250 2649.7 -150
	250 2649.7 -50
	250 2649.7 50
	250 2649.7 150
	250 2649.7 250
	250 2649.7 350
	350 2649.71 -350
	350 2649.7 -250
	350 2649.7 -150
	350 2649.7 -50
	350 2649.7 50
	350 2649.7 150
	350 2649.7 250
	350 2649.71 350
	-350 2749.7 -350
	-350 2749.7 -250
	-350 2749.7 -150
	-350 2749.7 -50
	-350 2749.7 50
	-350 2749.7 150
	-350 2749.7 250
	-350 2749.7 350
	-250 2749.7 -350
	-250 2749.7 -250
	-250 2749.7 -150
	-250 2749.7 -50
	-250 2749.7 50
	-250 2749.7 150
	-250 2749.7 250
	-250 2749.7 350
	-150 2749.7 -350
	-150 2749.7 -250
	-150 2749.7 -150
	-150 2749.7 -50
	-150 2749.7 50
	-150 2749.7 150
	-150 2749.7 250
	-150 2749.7 350
	-50 2749.7 -350
	-50 2749.7 -250
	-50 2749.7 -150
	-50 2749.7 -50
	-50 2749.7 50
	-50 2749.7 150
	-50 2749.7 250
	-50 2749.7 350
	50 2749.7 -350
	50 2749.7 -250
	50 2749.7 -150
	50 2749.7 -50
	50 2749.7 50
	50 2749.7 150
	50 2749.7 250
	50 2749.7 350
	150 2749.7 -350
	150 2749.7 -250
	150 2749.7 -150
	150 2749.7 -50
	150 2749.7 50
	150 2749.7 150
	150 2749.7 250
	150 2749.7 350
	250 2749.7 -350
	250 2749.7 -250
	250 2749.7 -150
	250 2749.7 -50
	250 2749.7 50
	250 2749.7 150
	250 2749.7 250
	250 2749.7 350
	350 2749.7 -350
	350 2749.7 -250
	350 2749.7 -150
	350 2749.7 -50
	350 2749.7 50
	350 2749.7 150
	350 2749.7 250
	350 2749.7 350
	-350 2849.71 -350
	-350 2849.71 -250
	-350 2849.71 -150
	-350 2849.7 -50
	-350 2849.7 50
	-350 2849.71 150
	-350 2849.71 250
	-350 2849.71 350
	-250 2849.71 -350
	-250 2849.7 -250
	-250 2849.7 -150
	-250 2849.7 -50
	-250 2849.7 50
	-250 2849.7 150
	-250 2849.7 250
	-250 2849.71 350
	-150 2849.71 -350
	-150 2849.7 -250
	-150 2849.7 -150
	-150 2849.7 -50
	-150 2849.7 50
	-150 2849.7 150
	-150 2849.7 250
	-150 2849.71 350
	-50 2849.7 -350
	-50 2849.7 -250
	-50 2849.7 -150
	-50 2849.69 -50
	-50 2849.69 50
	-50 2849.7 150
	-50 2849.7 250
	-50 2849.7 350
	50 2849.7 -350
	50 2849.7 -250
	50 2849.7 -150
	50 2849.69 -50
	50 2849.69 50
	50 2849.7 150
	50 2849.7 250
	50 2849.7 350
	150 2849.71 -350
	150 2849.7 -250
	150 2849.7 -150
	150 2849.7 -50
	150 2849.7 50
	150 2849.7 150
	150 2849.7 250
	150 2849.71 350
	250 2849.71 -350
	250 2849.7 -250
	250 2849.7 -150
	250 2849.7 -50
	250 2849.7 50
	250 2849.7 150
	250 2849.7 250
	250 2849.71 350
	350 2849.71 -350
	350 2849.71 -250
	350 2849.71 -150
[...]
<PointData  Vectors="vector">
  <DataArray type="Float32" Name="Velocity" NumberOfComponents="3" format="ascii">
 -6.16216e-05 -0.0581315 -6.16136e-05
 -7.42467e-05 -0.0509919 -5.45659e-05
 -4.62801e-05 -0.00350057 1.05225e-06
 -4.24953e-05 0.0244036 4.55733e-06
 -4.2496e-05 0.0244036 -4.55765e-06
 -4.62817e-05 -0.00350052 -1.04994e-06
 -7.42515e-05 -0.0509919 5.4561e-05
 -6.16234e-05 -0.0581315 6.16176e-05
 -5.45412e-05 -0.0509919 -7.42419e-05
 -9.87602e-06 0.0244097 -9.89119e-06
 -2.62938e-05 0.0202067 4.10264e-06
 -2.87169e-05 0.0178999 -8.57279e-06
 -2.87181e-05 0.0178999 8.57388e-06
 -2.62962e-05 0.0202067 -4.10117e-06
 -9.8705e-06 0.0244098 9.88739e-06
 -5.45415e-05 -0.0509919 7.42441e-05
 1.03324e-06 -0.00350063 -4.62734e-05
 4.08815e-06 0.0202067 -2.63117e-05
 1.15392e-06 0.0157289 1.16757e-06
 2.74301e-06 0.013424 -1.12381e-05
 2.74474e-06 0.013424 1.10865e-05
 1.15417e-06 0.0157289 -8.64173e-07
 4.07858e-06 0.0202067 2.61087e-05
 1.02249e-06 -0.00350047 4.63255e-05
 4.59535e-06 0.0244036 -4.25159e-05
 -8.53175e-06 0.0178999 -2.87456e-05
 -1.1203e-05 0.013424 2.9009e-06
 -1.17928e-05 0.0111305 -1.18502e-05
 -1.17972e-05 0.0111305 1.1798e-05
 -1.12066e-05 0.013424 -2.73992e-06
 -8.51445e-06 0.0178999 2.86665e-05
 4.61131e-06 0.0244036 4.24871e-05
 -4.59336e-06 0.0244036 -4.25176e-05
 8.53089e-06 0.0178999 -2.87408e-05
 1.1047e-05 0.013424 2.90741e-06
 1.17881e-05 0.0111305 -1.18454e-05
 1.17913e-05 0.0111305 1.17649e-05
 1.10505e-05 0.013424 -2.73662e-06
 8.51394e-06 0.0178999 2.86921e-05
 -4.60733e-06 0.0244036 4.24768e-05
 -1.03441e-06 -0.00350065 -4.62765e-05
 -4.08923e-06 0.0202067 -2.63059e-05
 -8.4947e-07 0.0157289 1.16374e-06
 -2.74055e-06 0.013424 -1.12353e-05
 -2.74129e-06 0.013424 1.1082e-05
 -8.48493e-07 0.0157289 -8.56537e-07
 -4.07859e-06 0.0202067 2.61013e-05
 -1.0238e-06 -0.00350043 4.63278e-05
 5.45417e-05 -0.0509919 -7.42448e-05
 9.87837e-06 0.0244097 -9.88665e-06
 2.6097e-05 0.0202067 4.0972e-06
 2.87211e-05 0.0178999 -8.56333e-06
 2.87234e-05 0.0178999 8.56486e-06
 2.60985e-05 0.0202067 -4.0944e-06
 9.87273e-06 0.0244098 9.88108e-06
 5.45414e-05 -0.0509919 7.42467e-05
 6.16191e-05 -0.0581315 -6.16195e-05
 7.42452e-05 -0.0509919 -5.45533e-05
 4.63276e-05 -0.00350058 1.04075e-06
 4.24925e-05 0.0244036 4.57596e-06
 4.24926e-05 0.0244036 -4.57049e-06
 4.63295e-05 -0.00350047 -1.03957e-06
 7.42494e-05 -0.0509919 5.45449e-05
 6.16206e-05 -0.0581315 6.16219e-05
 1.28254e-06 0.0401873 1.28615e-06
 8.11434e-07 0.0308792 -6.38581e-06
 4.40647e-07 -0.0145384 -8.09174e-06
 2.02153e-07 -0.0406356 -1.68849e-05
 2.04667e-07 -0.0406356 1.69114e-05
 4.46492e-07 -0.0145384 8.0758e-06
 8.26772e-07 0.0308792 6.38598e-06
 1.29098e-06 0.0401874 -1.2952e-06
 -6.39011e-06 0.0308792 8.19381e-07
 -5.18983e-06 -0.0406856 -5.19305e-06
 -6.95516e-06 -0.0359095 -3.64639e-07
 -8.17202e-06 -0.0337549 -2.49105e-05
 -8.17175e-06 -0.0337549 2.49898e-05
 -6.95463e-06 -0.0359095 2.95886e-07
 -5.20436e-06 -0.0406857 5.20028e-06
 -6.3939e-06 0.0308792 -8.35485e-07
 -8.07751e-06 -0.0145383 4.38332e-07
 -3.28291e-07 -0.0359095 -6.95267e-06
 5.67365e-06 -0.032939 5.64868e-06
 9.23179e-06 -0.033209 -2.87124e-05
 9.24104e-06 -0.033209 2.88197e-05
 5.69089e-06 -0.032939 -5.82498e-06
 -3.0445e-07 -0.0359095 6.94262e-06
 -8.05456e-06 -0.0145384 -3.57701e-07
 -1.69017e-05 -0.0406356 2.24733e-07
 -2.49291e-05 -0.0337549 -8.16976e-06
 -2.87258e-05 -0.033209 9.24476e-06
 -3.09158e-05 -0.0344905 -3.09793e-05
 -3.09275e-05 -0.0344905 3.10579e-05
 -2.87511e-05 -0.033209 -9.2239e-06
 -2.49789e-05 -0.0337549 8.09022e-06
 -1.69297e-05 -0.0406356 -2.4309e-07
 1.69195e-05 -0.0406356 2.28045e-07
 2.48697e-05 -0.0337549 -8.16946e-06
 2.87424e-05 -0.033209 9.25735e-06
 3.09342e-05 -0.0344905 -3.09947e-05
 3.09219e-05 -0.0344905 3.10403e-05
 2.8734e-05 -0.033209 -9.28831e-06
 2.49626e-05 -0.0337549 8.16772e-06
 1.68988e-05 -0.0406356 -2.39484e-07
 8.06963e-06 -0.0145383 4.43199e-07
 3.92577e-07 -0.0359095 -6.95174e-06
 -5.68106e-06 -0.032939 5.6619e-06
 -9.24034e-06 -0.033209 -2.87316e-05
 -9.23045e-06 -0.033209 2.88048e-05
 -5.67044e-06 -0.032939 -5.81208e-06
 3.27062e-07 -0.0359095 6.94294e-06
 8.09179e-06 -0.0145385 -3.56026e-07
 6.38735e-06 0.0308792 8.26028e-07
 5.18151e-06 -0.0406856 -5.19512e-06
 6.9519e-06 -0.0359095 -3.43971e-07
 8.16888e-06 -0.0337549 -2.49353e-05
 8.16872e-06 -0.0337549 2.49642e-05
 6.95173e-06 -0.0359095 3.19002e-07
 5.19833e-06 -0.0406857 5.19886e-06
 6.38496e-06 0.0308792 -8.32371e-07
 -1.29028e-06 0.0401873 1.29082e-06
 -8.08304e-07 0.0308792 -6.38369e-06
 -4.46808e-07 -0.0145384 -8.09533e-06
 -2.08995e-07 -0.0406356 -1.68878e-05
 -2.06635e-07 -0.0406356 1.69098e-05
 -4.46868e-07 -0.0145385 8.07612e-06
 -8.26828e-07 0.0308792 6.38795e-06
 -1.28812e-06 0.0401874 -1.29647e-06
 -8.13427e-06 -0.00470416 -8.12743e-06
 -7.5194e-06 -0.00607311 4.30487e-06
 -7.47143e-06 -0.00468516 -4.51381e-06
 -7.46492e-06 0.00043803 1.86584e-05
 -7.46506e-06 0.000438012 -1.86622e-05
 -7.47091e-06 -0.00468519 4.51722e-06
 -7.51897e-06 -0.0060731 -4.30504e-06
 -8.13345e-06 -0.00470414 8.13029e-06
 4.30435e-06 -0.00607311 -7.61335e-06
 3.57671e-06 -0.000360016 3.58611e-06
 3.27643e-06 0.0229795 -4.636e-06
 3.21954e-06 0.0371101 2.09202e-05
 3.21958e-06 0.03711 -2.09242e-05
 3.27638e-06 0.0229794 4.63966e-06
 3.57705e-06 -0.000360116 -3.58586e-06
 4.30423e-06 -0.00607309 7.61563e-06
 -4.51504e-06 -0.00468513 -7.46563e-06
 -4.67177e-06 0.0229796 3.27719e-06
 -4.57951e-06 0.0403416 -4.57808e-06
 -4.54132e-06 0.0385275 2.20212e-05
 -4.54121e-06 0.0385275 -2.20239e-05
 -4.57957e-06 0.0403416 4.5812e-06
 -4.67191e-06 0.0229794 -3.27718e-06
 -4.51484e-06 -0.00468522 7.46737e-06
 1.86521e-05 0.000438112 -7.45851e-06
 2.11547e-05 0.0371101 3.22055e-06
 2.20161e-05 0.0385275 -4.54033e-06
 2.26592e-05 0.0369028 2.26643e-05
 2.26587e-05 0.0369028 -2.26675e-05
 2.20164e-05 0.0385275 4.54313e-06
 2.11565e-05 0.03711 -3.22058e-06
 1.86551e-05 0.000437906 7.46097e-06
 -1.86555e-05 0.000438121 -7.45924e-06
 -2.11582e-05 0.0371101 3.22085e-06
 -2.2019e-05 0.0385275 -4.54048e-06
 -2.26618e-05 0.0369028 2.26643e-05
 -2.26617e-05 0.0369028 -2.2667e-05
 -2.20199e-05 0.0385275 4.5433e-06
 -2.11601e-05 0.03711 -3.22047e-06
 -1.86585e-05 0.000437893 7.46076e-06
 4.51683e-06 -0.00468512 -7.46546e-06
 4.67394e-06 0.0229796 3.27723e-06
 4.58131e-06 0.0403416 -4.57848e-06
 4.5429e-06 0.0385275 2.2023e-05
 4.5433e-06 0.0385275 -2.20254e-05
 4.58171e-06 0.0403416 4.5812e-06
 4.67411e-06 0.0229793 -3.27687e-06
 4.51692e-06 -0.00468525 7.46676e-06
 -4.30403e-06 -0.00607311 -7.61387e-06
 -3.5769e-06 -0.000360008 3.58647e-06
 -3.27654e-06 0.0229795 -4.63641e-06
 -3.22021e-06 0.0371101 2.0923e-05
 -3.21966e-06 0.03711 -2.0926e-05
 -3.2766e-06 0.0229793 4.63913e-06
 -3.57725e-06 -0.000360188 -3.58622e-06
 -4.30498e-06 -0.00607309 7.61581e-06
 8.13578e-06 -0.00470422 -8.12872e-06
 7.52119e-06 -0.00607311 4.30574e-06
 7.47301e-06 -0.00468516 -4.51441e-06
 7.46705e-06 0.000437993 1.86586e-05
 7.46658e-06 0.00043795 -1.86622e-05
 7.47302e-06 -0.00468523 4.51707e-06
 7.5212e-06 -0.00607309 -4.30484e-06
 8.13618e-06 -0.00470411 8.13058e-06
 -3.98985e-06 -0.00421691 -3.988e-06
 -4.05863e-06 0.0529632 -5.22593e-06
 -4.10896e-06 0.0454572 -1.65853e-06
 -4.1665e-06 0.0370245 1.51131e-05
 -4.16651e-06 0.0370245 -1.51121e-05
 -4.10892e-06 0.0454572 1.65929e-06
 -4.05859e-06 0.0529631 5.22638e-06
 -3.98985e-06 -0.00421698 3.98837e-06
 -5.22708e-06 0.0529632 -4.05661e-06
 -5.18057e-06 0.038542 -5.17938e-06
 -5.18495e-06 0.00995546 -2.3732e-06
 -5.12495e-06 -0.00601395 1.5767e-05
 -5.12492e-06 -0.00601393 -1.57659e-05
 -5.18498e-06 0.00995556 2.37378e-06
 -5.18061e-06 0.0385421 5.17981e-06
 -5.22716e-06 0.0529631 4.05701e-06
 -1.6592e-06 0.0454572 -4.10701e-06
 -2.37405e-06 0.00995544 -5.18376e-06
 -2.26445e-06 -0.0102103 -2.26372e-06
 -2.14114e-06 -0.00850979 1.56483e-05
 -2.14118e-06 -0.00850979 -1.56474e-05
 -2.26451e-06 -0.0102103 2.26434e-06
 -2.37401e-06 0.0099556 5.1842e-06
 -1.65912e-06 0.0454572 4.10741e-06
 1.5111e-05 0.0370244 -4.16464e-06
 1.57654e-05 -0.006014 -5.12369e-06
 1.56467e-05 -0.00850978 -2.14042e-06
 1.54717e-05 -0.00592906 1.54732e-05
 1.54718e-05 -0.00592906 -1.54723e-05
 1.56469e-05 -0.00850979 2.141e-06
 1.57655e-05 -0.00601387 5.12417e-06
 1.51113e-05 0.0370246 4.16498e-06
 -1.51108e-05 0.0370244 -4.16452e-06
 -1.57649e-05 -0.00601401 -5.1237e-06
 -1.56462e-05 -0.00850978 -2.14035e-06
 -1.54713e-05 -0.00592906 1.5473e-05
 -1.54713e-05 -0.00592906 -1.54723e-05
 -1.56464e-05 -0.00850979 2.14087e-06
 -1.57651e-05 -0.00601386 5.12418e-06
 -1.51111e-05 0.0370246 4.16502e-06
 1.65945e-06 0.0454572 -4.10692e-06
 2.37408e-06 0.00995542 -5.18369e-06
 2.26469e-06 -0.0102103 -2.26366e-06
 2.14121e-06 -0.00850978 1.5648e-05
 2.14122e-06 -0.00850979 -1.56473e-05
 2.26463e-06 -0.0102103 2.26426e-06
 2.37414e-06 0.00995568 5.18417e-06
 1.65945e-06 0.0454573 4.10733e-06
 5.22719e-06 0.0529632 -4.05645e-06
 5.18073e-06 0.038542 -5.17928e-06
 5.18508e-06 0.00995547 -2.37313e-06
 5.12515e-06 -0.00601394 1.57665e-05
 5.12515e-06 -0.0060139 -1.57659e-05
 5.18519e-06 0.00995566 2.37369e-06
 5.18083e-06 0.0385421 5.17975e-06
 5.22738e-06 0.0529631 4.05691e-06
 3.99001e-06 -0.00421696 -3.98783e-06
 4.05877e-06 0.0529632 -5.22579e-06
 4.10893e-06 0.0454572 -1.65863e-06
 4.16677e-06 0.0370246 1.51128e-05
 4.16675e-06 0.0370246 -1.51121e-05
 4.10908e-06 0.0454572 1.65918e-06
 4.05888e-06 0.0529631 5.22626e-06
 3.99019e-06 -0.00421703 3.98826e-06
 -7.43293e-06 0.0457612 -7.4312e-06
 -7.61535e-06 -0.00644426 -4.53451e-06
 -7.68411e-06 -0.00596073 6.6689e-06
 -7.63379e-06 -0.00773295 3.99638e-06
 -7.63376e-06 -0.00773295 -3.99557e-06
 -7.68405e-06 -0.00596074 -6.66855e-06
 -7.6153e-06 -0.00644427 4.53511e-06
 -7.43288e-06 0.0457612 7.43178e-06
 -4.53569e-06 -0.00644427 -7.61366e-06
 -4.50453e-06 -0.0068881 -4.50338e-06
 -4.49217e-06 -0.0117299 3.07174e-06
 -4.4263e-06 -0.014645 8.04961e-06
 -4.42631e-06 -0.014645 -8.0486e-06
 -4.49209e-06 -0.0117299 -3.07159e-06
 -4.50449e-06 -0.00688812 4.50394e-06
 -4.53565e-06 -0.00644427 7.6142e-06
 6.67117e-06 -0.00596072 -7.68241e-06
 3.07395e-06 -0.0117299 -4.49097e-06
 1.15901e-06 -0.0174662 1.15835e-06
 6.47247e-07 -0.02024 1.02348e-05
 6.47224e-07 -0.02024 -1.02345e-05
 1.15921e-06 -0.0174662 -1.15761e-06
 3.07377e-06 -0.0117299 4.49155e-06
 6.67123e-06 -0.00596075 7.68299e-06
 3.99278e-06 -0.00773293 -7.63207e-06
 8.0461e-06 -0.014645 -4.42515e-06
 1.02329e-05 -0.0202401 6.46485e-07
 1.07119e-05 -0.0232616 1.07138e-05
 1.07119e-05 -0.0232616 -1.07136e-05
 1.02326e-05 -0.02024 -6.45724e-07
 8.04627e-06 -0.0146449 4.42571e-06
 3.99274e-06 -0.00773295 7.63275e-06
 -3.99258e-06 -0.00773293 -7.63216e-06
 -8.04588e-06 -0.014645 -4.42516e-06
 -1.02325e-05 -0.0202401 6.46054e-07
 -1.07119e-05 -0.0232616 1.07143e-05
 -1.0712e-05 -0.0232616 -1.07133e-05
 -1.02329e-05 -0.02024 -6.45898e-07
 -8.04623e-06 -0.0146449 4.42565e-06
 -3.9925e-06 -0.00773295 7.63258e-06
 -6.67098e-06 -0.00596071 -7.68241e-06
 -3.07374e-06 -0.0117299 -4.49093e-06
 -1.15904e-06 -0.0174662 1.15841e-06
 -6.46869e-07 -0.02024 1.02346e-05
 -6.4682e-07 -0.02024 -1.02343e-05
 -1.15863e-06 -0.0174662 -1.15769e-06
 -3.07337e-06 -0.0117299 4.49145e-06
 -6.67094e-06 -0.00596075 7.68288e-06
 4.53604e-06 -0.0064443 -7.61364e-06
 4.50487e-06 -0.00688809 -4.50334e-06
 4.49251e-06 -0.0117299 3.07122e-06
 4.42667e-06 -0.014645 8.04999e-06
 4.42668e-06 -0.0146449 -8.04908e-06
 4.49255e-06 -0.0117299 -3.071e-06
 4.50489e-06 -0.00688811 4.50377e-06
 4.53602e-06 -0.00644427 7.61406e-06
 7.4333e-06 0.0457612 -7.43117e-06
 7.61571e-06 -0.00644429 -4.53445e-06
 7.68453e-06 -0.00596072 6.66868e-06
 7.63429e-06 -0.00773293 3.99647e-06
 7.6343e-06 -0.00773294 -3.9959e-06
 7.68453e-06 -0.00596074 -6.66823e-06
 7.6157e-06 -0.00644428 4.53494e-06
 7.43326e-06 0.0457612 7.43164e-06
 -8.40216e-06 0.00175612 -8.40088e-06
 -7.4723e-06 -0.00179425 -5.74769e-06
 -7.15967e-06 -0.00134082 -4.59358e-08
 -7.11029e-06 -0.00177531 1.07034e-05
 -7.1103e-06 -0.00177531 -1.07029e-05
 -7.15967e-06 -0.00134083 4.64164e-08
 -7.47247e-06 -0.00179427 5.74814e-06
 -8.40194e-06 0.0017561 8.40129e-06
 -5.74855e-06 -0.00179424 -7.47131e-06
 -5.69497e-06 -0.00164236 -5.69412e-06
 -5.7378e-06 -0.00203842 3.35457e-09
 -5.8188e-06 -0.00128272 1.01519e-05
 -5.81881e-06 -0.00128272 -1.01514e-05
 -5.73782e-06 -0.00203843 -2.85393e-09
 -5.69497e-06 -0.00164237 5.69455e-06
 -5.74853e-06 -0.00179428 7.47163e-06
 -4.637e-08 -0.00134082 -7.15862e-06
 2.84828e-09 -0.00203842 -5.737e-06
 -1.96343e-08 -0.000273554 -1.91925e-08
 5.17236e-09 0.00095328 7.997e-06
 5.18671e-09 0.000953275 -7.99645e-06
 -1.96502e-08 -0.000273565 1.96127e-08
 2.99809e-09 -0.00203843 5.73735e-06
 -4.64405e-08 -0.00134083 7.15894e-06
 1.07039e-05 -0.0017753 -7.10917e-06
 1.01526e-05 -0.00128271 -5.81799e-06
 7.99889e-06 0.000953285 5.57908e-09
 4.90974e-06 0.00492053 4.90733e-06
 4.90989e-06 0.00492053 -4.90684e-06
 7.99905e-06 0.000953269 -5.18599e-09
 1.01527e-05 -0.00128273 5.81834e-06
 1.07042e-05 -0.00177531 7.10952e-06
 -1.07037e-05 -0.0017753 -7.10917e-06
 -1.01525e-05 -0.00128271 -5.81799e-06
 -7.99876e-06 0.000953285 5.5808e-09
 -4.90961e-06 0.00492053 4.90703e-06
 -4.90969e-06 0.00492053 -4.90657e-06
 -7.99882e-06 0.000953267 -5.22666e-09
 -1.01525e-05 -0.00128273 5.81833e-06
 -1.07041e-05 -0.00177531 7.10954e-06
 4.69368e-08 -0.00134083 -7.15857e-06
 -2.55023e-09 -0.00203842 -5.73698e-06
 1.99951e-08 -0.000273553 -1.91655e-08
 -4.82695e-09 0.000953279 7.99635e-06
 -4.81623e-09 0.000953273 -7.99595e-06
 1.99514e-08 -0.000273564 1.954e-08
 -2.50714e-09 -0.00203843 5.73734e-06
 4.68305e-08 -0.00134083 7.15892e-06
 5.74887e-06 -0.00179422 -7.47129e-06
 5.69527e-06 -0.00164236 -5.69411e-06
 5.73809e-06 -0.00203842 3.41606e-09
 5.81909e-06 -0.00128272 1.01513e-05
 5.81907e-06 -0.00128272 -1.01509e-05
 5.73805e-06 -0.00203843 -2.99872e-09
 5.69525e-06 -0.00164238 5.69448e-06
 5.74884e-06 -0.00179428 7.47157e-06
 8.40224e-06 0.00175616 -8.40086e-06
 7.47274e-06 -0.00179423 -5.74768e-06
 7.16e-06 -0.00134083 -4.59119e-08
 7.11063e-06 -0.00177531 1.07028e-05
 7.11059e-06 -0.00177531 -1.07024e-05
 7.16001e-06 -0.00134083 4.63165e-08
 7.47255e-06 -0.00179427 5.74804e-06
 8.40222e-06 0.00175609 8.40108e-06
 -8.94912e-06 -0.0116427 -8.94851e-06
 -8.66435e-06 -0.00890488 -8.58292e-06
 -8.42686e-06 -0.00443213 -1.36658e-05
 -8.32217e-06 -0.00343024 -3.66979e-06
 -8.32221e-06 -0.00343023 3.67014e-06
 -8.42679e-06 -0.00443211 1.36661e-05
 -8.66436e-06 -0.00890486 8.58316e-06
 -8.94913e-06 -0.0116427 8.94865e-06
 -8.58342e-06 -0.00890489 -8.66372e-06
 -8.17838e-06 -0.00344996 -8.17783e-06
 -8.03823e-06 -0.000558277 -1.38046e-05
 -8.01679e-06 0.00147771 -3.8505e-06
 -8.01679e-06 0.00147771 3.85073e-06
 -8.03822e-06 -0.000558285 1.38049e-05
 -8.17838e-06 -0.00344995 8.17807e-06
 -8.58339e-06 -0.00890485 8.66391e-06
 -1.36658e-05 -0.00443213 -8.42616e-06
 -1.38047e-05 -0.000558265 -8.03768e-06
 -1.40773e-05 0.00349711 -1.40772e-05
 -1.43352e-05 0.00534272 -3.97492e-06
 -1.43352e-05 0.00534273 3.9751e-06
 -1.40773e-05 0.00349711 1.40774e-05
 -1.38047e-05 -0.000558293 8.03792e-06
 -1.36659e-05 -0.0044321 8.42644e-06
 -3.66992e-06 -0.00343021 -8.32154e-06
 -3.85045e-06 0.00147774 -8.01625e-06
 -3.97484e-06 0.00534272 -1.43349e-05
 -4.03503e-06 0.00568452 -4.03513e-06
 -4.03499e-06 0.00568453 4.03526e-06
 -3.97487e-06 0.00534275 1.43353e-05
 -3.85045e-06 0.00147769 8.01644e-06
 -3.66976e-06 -0.00343023 8.32172e-06
 3.67013e-06 -0.0034302 -8.32154e-06
 3.85078e-06 0.00147776 -8.01623e-06
 3.97516e-06 0.00534273 -1.43348e-05
 4.03528e-06 0.00568452 -4.03511e-06
 4.03525e-06 0.00568454 4.03534e-06
 3.97511e-06 0.00534275 1.43351e-05
 3.85074e-06 0.00147769 8.01643e-06
 3.67e-06 -0.00343024 8.32163e-06
 1.3666e-05 -0.00443213 -8.42619e-06
 1.38049e-05 -0.000558216 -8.03768e-06
 1.40774e-05 0.00349714 -1.40768e-05
 1.43353e-05 0.00534274 -3.975e-06
 1.43354e-05 0.00534275 3.97515e-06
 1.40774e-05 0.0034971 1.40772e-05
 1.38049e-05 -0.000558314 8.03785e-06
 1.3666e-05 -0.0044321 8.42629e-06
 8.58369e-06 -0.00890492 -8.66374e-06
 8.1786e-06 -0.00344992 -8.17782e-06
 8.03845e-06 -0.000558238 -1.38042e-05
 8.01699e-06 0.00147773 -3.85069e-06
 8.01698e-06 0.00147771 3.85089e-06
 8.03844e-06 -0.000558313 1.38045e-05
 8.17857e-06 -0.00344995 8.17799e-06
 8.58363e-06 -0.00890484 8.6638e-06
 8.94938e-06 -0.0116428 -8.94849e-06
 8.6645e-06 -0.00890491 -8.58289e-06
 8.42699e-06 -0.00443212 -1.36652e-05
 8.32235e-06 -0.00343022 -3.67016e-06
 8.32231e-06 -0.00343023 3.67033e-06
 8.42705e-06 -0.00443211 1.36654e-05
 8.66447e-06 -0.00890484 8.58306e-06
 8.94931e-06 -0.0116426 8.94857e-06
 -1.55894e-05 0.00274438 -1.55891e-05
 -1.49897e-05 -0.00173825 -2.10693e-05
 -1.47726e-05 -0.00846169 -5.59993e-06
 -1.46913e-05 -0.00863048 -6.42864e-06
 -1.46913e-05 -0.00863049 6.42856e-06
 -1.47726e-05 -0.00846171 5.60001e-06
 -1.49897e-05 -0.00173829 2.10695e-05
 -1.55894e-05 0.00274435 1.55891e-05
 -2.10689e-05 -0.00173822 -1.49893e-05
 -2.12619e-05 -0.00876166 -2.12623e-05
 -2.14858e-05 -0.00792653 -5.48583e-06
 -2.16884e-05 -0.00782376 -6.16957e-06
 -2.16884e-05 -0.00782376 6.16949e-06
 -2.14857e-05 -0.00792654 5.48594e-06
 -2.12619e-05 -0.0087617 2.12624e-05
 -2.10689e-05 -0.0017383 1.49893e-05
 -5.60022e-06 -0.00846166 -1.47721e-05
 -5.48616e-06 -0.00792654 -2.1486e-05
 -5.24572e-06 -0.00863644 -5.24552e-06
 -5.08148e-06 -0.00727503 -5.95249e-06
 -5.0815e-06 -0.00727499 5.95239e-06
 -5.24576e-06 -0.00863634 5.24563e-06
 -5.4862e-06 -0.00792654 2.1486e-05
 -5.60027e-06 -0.00846173 1.47721e-05
 -6.42842e-06 -0.00863048 -1.46907e-05
 -6.16914e-06 -0.00782381 -2.16886e-05
 -5.95209e-06 -0.00727507 -5.08121e-06
 -5.79013e-06 -0.00731474 -5.79058e-06
 -5.79011e-06 -0.00731469 5.79051e-06
 -5.95223e-06 -0.00727494 5.08136e-06
 -6.16926e-06 -0.00782371 2.16886e-05
 -6.42848e-06 -0.00863052 1.46907e-05
 6.42849e-06 -0.00863048 -1.46908e-05
 6.16926e-06 -0.00782383 -2.16885e-05
 5.95218e-06 -0.00727507 -5.08126e-06
 5.79021e-06 -0.00731473 -5.79049e-06
 5.79017e-06 -0.00731467 5.79039e-06
 5.95222e-06 -0.00727492 5.08134e-06
 6.16926e-06 -0.0078237 2.16884e-05
 6.42847e-06 -0.00863053 1.46907e-05
 5.60029e-06 -0.00846164 -1.47721e-05
 5.48625e-06 -0.00792658 -2.14858e-05
 5.24592e-06 -0.00863647 -5.24558e-06
 5.0816e-06 -0.007275 -5.95245e-06
 5.08164e-06 -0.00727494 5.95231e-06
 5.24588e-06 -0.00863627 5.24569e-06
 5.48629e-06 -0.00792654 2.14859e-05
 5.60031e-06 -0.00846175 1.4772e-05
 2.1069e-05 -0.00173814 -1.49893e-05
 2.12619e-05 -0.00876168 -2.12619e-05
 2.14857e-05 -0.00792657 -5.48606e-06
 2.16883e-05 -0.00782377 -6.16944e-06
 2.16883e-05 -0.00782373 6.16936e-06
 2.14858e-05 -0.00792654 5.48607e-06
 2.12619e-05 -0.00876173 2.12619e-05
 2.1069e-05 -0.00173834 1.49892e-05
 1.55895e-05 0.00274451 -1.5589e-05
 1.49898e-05 -0.00173816 -2.10688e-05
 1.47727e-05 -0.00846167 -5.60018e-06
 1.46914e-05 -0.00863051 -6.42862e-06
 1.46914e-05 -0.00863052 6.42851e-06
 1.47726e-05 -0.00846173 5.60016e-06
 1.49898e-05 -0.00173832 2.10688e-05
 1.55895e-05 0.00274429 1.5589e-05
 -2.58983e-05 0.000719754 -2.58984e-05
 -2.5472e-05 0.00230429 -1.8724e-05
 -2.50317e-05 0.00337461 -1.39102e-05
 -2.48281e-05 0.00352598 3.23371e-06
 -2.48281e-05 0.00352601 -3.23408e-06
 -2.50316e-05 0.00337469 1.39103e-05
 -2.54718e-05 0.00230443 1.87238e-05
 -2.58983e-05 0.000719863 2.5898e-05
 -1.87242e-05 0.00230422 -2.54719e-05
 -1.85262e-05 0.00271563 -1.8526e-05
 -1.84168e-05 -0.00135887 -1.37546e-05
 -1.82953e-05 -0.00314636 -9.55494e-07
 -1.82953e-05 -0.00314623 9.55167e-07
 -1.84168e-05 -0.00135886 1.37545e-05
 -1.85263e-05 0.00271581 1.85257e-05
 -1.87243e-05 0.00230448 2.54717e-05
 -1.39104e-05 0.0033745 -2.50317e-05
 -1.37546e-05 -0.0013589 -1.84164e-05
 -1.37097e-05 -0.00254832 -1.37095e-05
 -1.37624e-05 -0.00327284 -3.20031e-06
 -1.37624e-05 -0.0032728 3.19993e-06
 -1.37095e-05 -0.00254806 1.37094e-05
 -1.37545e-05 -0.00135886 1.84162e-05
 -1.39102e-05 0.00337478 2.50314e-05
 3.23457e-06 0.00352581 -2.48281e-05