MercuryDPM 0.14 name oneDimChain revision 6406 repository https://svn.mercurydpm.org/SourceCode/Branches/OomphlibCouplingExplicit
dataFile    fileType ONE_FILE saveCount 124 counter 91 lastSavedTimeStep 11160
fStatFile   fileType ONE_FILE saveCount 124 counter 91 lastSavedTimeStep 11160
eneFile     fileType ONE_FILE saveCount 124 counter 91 lastSavedTimeStep 11160
restartFile fileType ONE_FILE saveCount 124 counter 91 lastSavedTimeStep 11160
statFile    fileType ONE_FILE saveCount 124 counter 0
interactionFile fileType NO_FILE saveCount 0 counter 0
xMin -500 xMax 500 yMin -5000 yMax 5000 zMin -500 zMax 500
timeStep 0.00803718916976729 time 89.6950311346165 ntimeSteps 11160 timeMax 100
systemDimensions 3 particleDimensions 3 gravity 0 0 -0 writeVTK 1 MULTIPLE_FILES NO_FILE 91 91 0 0 random  0 1103515245 12345 1073741824 607 273 784607267
Species 1
LinearViscoelasticReversibleAdhesiveSpecies id 0 density 2500 stiffness 10000000000 dissipation -0 adhesionForceMax 0 adhesionStiffness 10000000000
Walls 0
Boundaries 0
Particles 7680
BaseParticle id 0 indSpecies 0 position -350.000370270089 2049.53933424137 -350.000375178149 orientation 1 0 0 0 velocity -8.34403922354724e-05 -0.0205365502844978 -8.24889473122559e-05 angularVelocity 0 0 0 force -19559.3342974702 27245276.2484899 -18298.4917302664 torque 0 0 0 radius 50 invMass 7.63943726841098e-10
BaseParticle id 1 indSpecies 0 position -350.000722499223 2049.63172225354 -250.000251755086 orientation 1 0 0 0 velocity -4.27480026106131e-05 -0.0189756890764074 -3.6514606835262e-05 angularVelocity 0 0 0 force -19098.3654436385 26871220.3313679 -17131.9905837299 torque 0 0 0 radius 50 invMass 7.63943726841098e-10
BaseParticle id 2 indSpecies 0 position -350.001005000562 2049.55010336596 -150.000200829713 orientation 1 0 0 0 velocity -2.96637782640286e-05 -0.0104418645894066 -6.20044832982324e-05 angularVelocity 0 0 0 force -18855.1785490255 26639962.4337888 -16185.4122601071 torque 0 0 0 radius 50 invMass 7.63943726841098e-10
BaseParticle id 3 indSpecies 0 position -349.999721883755 2049.46008656576 -50.0001279396114 orientation 1 0 0 0 velocity 2.86152694174435e-05 0.00212237627563954 -3.43042684950378e-05 angularVelocity 0 0 0 force -18824.3689617923 26552656.2883748 -15443.6221390402 torque 0 0 0 radius 50 invMass 7.63943726841098e-10
BaseParticle id 4 indSpecies 0 position -349.999717934686 2049.45888365502 50.0001975924752 orientation 1 0 0 0 velocity 2.8738275686635e-05 0.00203866845269618 3.18194492739864e-05 angularVelocity 0 0 0 force -18965.3207763055 26585618.3730828 -14841.7221096637 torque 0 0 0 radius 50 invMass 7.63943726841098e-10
BaseParticle id 5 indSpecies 0 position -350.001023870655 2049.55637004206 150.000194640412 orientation 1 0 0 0 velocity -3.05541985154485e-05 -0.00990011648672198 4.53002133866959e-05 angularVelocity 0 0 0 force -19271.3075770219 26737164.5782971 -14324.9296821213 torque 0 0 0 radius 50 invMass 7.63943726841098e-10
BaseParticle id 6 indSpecies 0 position -350.000738623927 2049.63169853086 250.000322977069 orientation 1 0 0 0 velocity -4.32943185498686e-05 -0.0184291861079183 3.15685963999889e-05 angularVelocity 0 0 0 force -19790.1693214098 27031872.8351437 -13879.0382175722 torque 0 0 0 radius 50 invMass 7.63943726841098e-10
BaseParticle id 7 indSpecies 0 position -350.000103807628 2049.53881769713 350.000471479291 orientation 1 0 0 0 velocity -1.56831504630884e-05 -0.0205700629682075 8.33013937004842e-05 angularVelocity 0 0 0 force -20526.3135285624 27464888.3192796 -13509.0777168195 torque 0 0 0 radius 50 invMass 7.63943726841098e-10
BaseParticle id 8 indSpecies 0 position -250.000250203879 2049.63188637186 -350.000709036813 orientation 1 0 0 0 velocity -3.64022262483779e-05 -0.0189639762122095 -4.15196284019432e-05 angularVelocity 0 0 0 force -18314.9269925062 26893098.117864 -17791.0817177591 torque 0 0 0 radius 50 invMass 7.63943726841098e-10
BaseParticle id 9 indSpecies 0 position -250.000339011324 2049.6068152248 -250.000349782317 orientation 1 0 0 0 velocity 9.80498704965671e-06 -0.0147369597082245 8.80954962447426e-06 angularVelocity 0 0 0 force -17884.0962576077 26542135.4730254 -16691.1596863455 torque 0 0 0 radius 50 invMass 7.63943726841098e-10
BaseParticle id 10 indSpecies 0 position -250.000366082281 2049.58475477828 -150.000105646288 orientation 1 0 0 0 velocity 1.94927315422355e-05 -0.00596135900123783 4.53644473662846e-06 angularVelocity 0 0 0 force -17628.7655431989 26306210.6907327 -15788.5213516009 torque 0 0 0 radius 50 invMass 7.63943726841098e-10
BaseParticle id 11 indSpecies 0 position -249.999741141392 2049.61898515808 -49.999985062604 orientation 1 0 0 0 velocity 3.03716684904444e-05 -0.0188195909252078 -7.85258166196088e-06 angularVelocity 0 0 0 force -248807.738931512 25548825.1587622 -15089.4953549317 torque 0 0 0 radius 50 invMass 7.63943726841098e-10
BaseParticle id 12 indSpecies 0 position -249.999740676861 2049.62076333947 50.0000167012777 orientation 1 0 0 0 velocity 4.80536607702729e-05 -0.0183452832251854 1.21976148800549e-06 angularVelocity 0 0 0 force -253253.43565307 20922464.0506837 -14550.1775066626 torque 0 0 0 radius 50 invMass 7.63943726841098e-10
BaseParticle id 13 indSpecies 0 position -250.000367960099 2049.5838776811 150.000156548531 orientation 1 0 0 0 velocity 1.99209120912274e-05 -0.006033411880744 -9.48424126790634e-06 angularVelocity 0 0 0 force -18014.0859090453 26409971.9611455 -14111.1737743779 torque 0 0 0 radius 50 invMass 7.63943726841098e-10
BaseParticle id 14 indSpecies 0 position -250.000342102313 2049.60999534899 250.000413696043 orientation 1 0 0 0 velocity 1.01411306604426e-05 -0.0116278084672217 -1.33080597623853e-05 angularVelocity 0 0 0 force -18521.6470570264 26712644.8934315 -13738.9156082014 torque 0 0 0 radius 50 invMass 7.63943726841098e-10
BaseParticle id 15 indSpecies 0 position -250.000099348521 2049.6312994784 350.00078709956 orientation 1 0 0 0 velocity -6.09443288649964e-05 -0.018216167052747 3.80822495449037e-05 angularVelocity 0 0 0 force -19205.2823602094 27127720.7259095 -13416.54130554 torque 0 0 0 radius 50 invMass 7.63943726841098e-10
BaseParticle id 16 indSpecies 0 position -150.000118646559 2049.55386664982 -350.00101171717 orientation 1 0 0 0 velocity -4.81573264097532e-05 -0.0100841300951467 -2.99492770437024e-05 angularVelocity 0 0 0 force -17314.4293785272 26685206.2231291 -17461.6454607618 torque 0 0 0 radius 50 invMass 7.63943726841098e-10
BaseParticle id 17 indSpecies 0 position -149.999998944438 2049.58535631025 -250.000397668997 orientation 1 0 0 0 velocity -9.2749997532667e-09 -0.00587014620282816 -1.20345281054699e-05 angularVelocity 0 0 0 force -16885.2104217012 26329613.7783268 -16394.3668243135 torque 0 0 0 radius 50 invMass 7.63943726841098e-10
BaseParticle id 18 indSpecies 0 position -150.000174814713 2049.54016294966 -150.000386346151 orientation 1 0 0 0 velocity 2.85709154482382e-06 -0.011535195585809 1.68392566673043e-05 angularVelocity 0 0 0 force -16635.1859777727 26096372.5766717 -15538.9783626459 torque 0 0 0 radius 50 invMass 7.63943726841098e-10
BaseParticle id 19 indSpecies 0 position -149.999911628072 2049.44731014457 -50.0001537506413 orientation 1 0 0 0 velocity 3.74686639679417e-05 -0.00628720095209101 -6.28306627292586e-06 angularVelocity 0 0 0 force 71065.308118755 26008229.0201486 -14902.1578219153 torque 0 0 0 radius 50 invMass 7.63943726841098e-10
BaseParticle id 20 indSpecies 0 position -149.999914556998 2049.44737268747 50.0003294140345 orientation 1 0 0 0 velocity 1.70731534098732e-05 -0.00630117059804883 -5.59239954772494e-06 angularVelocity 0 0 0 force 149595.638863527 26045281.6900448 -14415.2073261357 torque 0 0 0 radius 50 invMass 7.63943726841098e-10
BaseParticle id 21 indSpecies 0 position -150.000164055214 2049.5380701391 150.00032720476 orientation 1 0 0 0 velocity 4.37781976920594e-06 -0.0116940808271653 1.7064301120123e-05 angularVelocity 0 0 0 force -16995.9055143214 26206962.7693603 -14026.3993588761 torque 0 0 0 radius 50 invMass 7.63943726841098e-10
BaseParticle id 22 indSpecies 0 position -149.999983321716 2049.58613636298 250.000428467238 orientation 1 0 0 0 velocity 1.88860366779896e-06 -0.00581359128525674 -2.2594146260046e-05 angularVelocity 0 0 0 force -17481.1466553911 26511733.4005456 -13713.5747353406 torque 0 0 0 radius 50 invMass 7.63943726841098e-10
BaseParticle id 23 indSpecies 0 position -150.000092147781 2049.56209313881 350.001086507011 orientation 1 0 0 0 velocity -7.69671778647567e-05 -0.0202333687561307 2.68481147180519e-05 angularVelocity 0 0 0 force -18145.277851535 26935428.1203157 -13458.353428753 torque 0 0 0 radius 50 invMass 7.63943726841098e-10
BaseParticle id 24 indSpecies 0 position -50.0001090444046 2049.4597335608 -349.999648604273 orientation 1 0 0 0 velocity -3.24374310326997e-05 0.00215609157972892 -2.38695725810203e-05 angularVelocity 0 0 0 force -16546.3011024587 26623318.0487527 -152105.988860802 torque 0 0 0 radius 50 invMass 7.63943726841098e-10
BaseParticle id 25 indSpecies 0 position -49.9999867808591 2049.61811790119 -249.999787512062 orientation 1 0 0 0 velocity 1.42109537002786e-05 -0.0192482987651935 4.47258347377569e-05 angularVelocity 0 0 0 force -16115.543504783 26255375.0406246 118533.086362571 torque 0 0 0 radius 50 invMass 7.63943726841098e-10
BaseParticle id 26 indSpecies 0 position -50.0000783943807 2049.44715841561 -149.999931225528 orientation 1 0 0 0 velocity -1.222459503199e-06 -0.00627849676164141 -2.70705647064557e-05 angularVelocity 0 0 0 force -15887.2263422709 26033357.8953348 -15453.7689559788 torque 0 0 0 radius 50 invMass 7.63943726841098e-10
BaseParticle id 27 indSpecies 0 position -49.9999878433198 2049.55853517817 -49.9999806064348 orientation 1 0 0 0 velocity 3.11744786637535e-05 -0.0153587968269662 8.07067639349855e-05 angularVelocity 0 0 0 force 127779.976562353 25928848.9645984 -105801.119483653 torque 0 0 0 radius 50 invMass 7.63943726841098e-10
BaseParticle id 28 indSpecies 0 position -49.9999837914809 2049.55900228642 50.0000102963758 orientation 1 0 0 0 velocity 3.48166468408319e-05 -0.0152460547328099 4.89950193177756e-05 angularVelocity 0 0 0 force 53345.8544133871 25968315.5707017 76556.5026610794 torque 0 0 0 radius 50 invMass 7.63943726841098e-10
BaseParticle id 29 indSpecies 0 position -50.0000814589589 2049.44725973771 149.999977822323 orientation 1 0 0 0 velocity -5.31356086798006e-07 -0.00630316594149377 -4.82894955934661e-05 angularVelocity 0 0 0 force -16233.6876666643 26151283.1288291 -144668.612273935 torque 0 0 0 radius 50 invMass 7.63943726841098e-10
BaseParticle id 30 indSpecies 0 position -49.9999824204504 2049.6261858871 249.99980469157 orientation 1 0 0 0 velocity 1.68445882093021e-05 -0.00695897930344249 -5.41409542008784e-05 angularVelocity 0 0 0 force -16679.7368729339 -1937674.47032603 116684.99477319 torque 0 0 0 radius 50 invMass 7.63943726841098e-10
BaseParticle id 31 indSpecies 0 position -50.0001153967713 2049.4549365237 349.999778551193 orientation 1 0 0 0 velocity -4.09182776674312e-05 0.0017974826284403 -3.33829946937165e-05 angularVelocity 0 0 0 force -17344.0427455171 26893335.104864 -13629.7642497352 torque 0 0 0 radius 50 invMass 7.63943726841098e-10
BaseParticle id 32 indSpecies 0 position 50.0002014842276 2049.4589628686 -349.999643174573 orientation 1 0 0 0 velocity 3.43037903840743e-05 0.00211206969016128 -3.374693316292e-05 angularVelocity 0 0 0 force -15940.9476850616 26682766.8070192 -71689.3658597979 torque 0 0 0 radius 50 invMass 7.63943726841098e-10
BaseParticle id 33 indSpecies 0 position 50.0000573240529 2049.61751679155 -249.99977431163 orientation 1 0 0 0 velocity -1.56845611021533e-05 -0.01966267202298 5.29987402628492e-05 angularVelocity 0 0 0 force -15532.3402240078 26315937.3788792 -15342.6518083592 torque 0 0 0 radius 50 invMass 7.63943726841098e-10
BaseParticle id 34 indSpecies 0 position 50.0000305272302 2049.44705583177 -149.999924943544 orientation 1 0 0 0 velocity -4.76363342820051e-06 -0.00628331819565745 -2.73009567688672e-05 angularVelocity 0 0 0 force -15316.4867752983 26095579.3975328 -16905.6818269929 torque 0 0 0 radius 50 invMass 7.63943726841098e-10
BaseParticle id 35 indSpecies 0 position 50.0000529727382 2049.56192966717 -49.9999964106991 orientation 1 0 0 0 velocity -1.68163330054969e-05 -0.0147060443023674 7.60085537771985e-05 angularVelocity 0 0 0 force -105572.899857959 25993321.202192 -25478.9410522564 torque 0 0 0 radius 50 invMass 7.63943726841098e-10
BaseParticle id 36 indSpecies 0 position 50.000051906607 2049.56104563427 49.9999970437931 orientation 1 0 0 0 velocity -4.33610750219456e-06 -0.0148525072513257 5.68201161078221e-05 angularVelocity 0 0 0 force -94716.3454651095 26035893.2259837 50874.8480323138 torque 0 0 0 radius 50 invMass 7.63943726841098e-10
BaseParticle id 37 indSpecies 0 position 50.0000009190469 2049.44640122882 149.99998021509 orientation 1 0 0 0 velocity -5.635085728274e-06 -0.00634120163341484 -2.66362404732821e-05 angularVelocity 0 0 0 force -15656.8894045873 26222639.2003791 -70415.9057022948 torque 0 0 0 radius 50 invMass 7.63943726841098e-10
BaseParticle id 38 indSpecies 0 position 50.000047174928 2049.6275027354 249.999810611655 orientation 1 0 0 0 velocity -1.13525416205031e-05 -0.00939895183316797 -7.45388719454183e-05 angularVelocity 0 0 0 force -16070.0628023281 -8455128.09487636 42007.4553390964 torque 0 0 0 radius 50 invMass 7.63943726841098e-10
BaseParticle id 39 indSpecies 0 position 50.000157569198 2049.4541239234 349.999778885 orientation 1 0 0 0 velocity -2.12949704563171e-06 0.00176610712112102 -3.28970187430394e-05 angularVelocity 0 0 0 force -16722.5417124087 26972844.4608986 -13910.2362515314 torque 0 0 0 radius 50 invMass 7.63943726841098e-10
BaseParticle id 40 indSpecies 0 position 150.000215400719 2049.56593258219 -350.001028333798 orientation 1 0 0 0 velocity 5.19634184223731e-05 -0.00896856520828043 -3.02508351998519e-05 angularVelocity 0 0 0 force -15452.3753147487 26860472.3985293 -17399.7830432447 torque 0 0 0 radius 50 invMass 7.63943726841098e-10
BaseParticle id 41 indSpecies 0 position 150.00005599743 2049.59032560728 -250.000391472012 orientation 1 0 0 0 velocity 2.2146513563461e-06 -0.00744381609999091 -1.11210276462468e-05 angularVelocity 0 0 0 force -15084.7268769672 26509700.4799354 -16436.3582023238 torque 0 0 0 radius 50 invMass 7.63943726841098e-10
BaseParticle id 42 indSpecies 0 position 150.000311241224 2049.53615013436 -150.000396964316 orientation 1 0 0 0 velocity 3.44510245745123e-06 -0.0118094219796198 1.74335664786425e-05 angularVelocity 0 0 0 force -14874.8431620402 26282835.771089 -15692.466204323 torque 0 0 0 radius 50 invMass 7.63943726841098e-10
BaseParticle id 43 indSpecies 0 position 149.999978000421 2049.44709092366 -50.0001525507537 orientation 1 0 0 0 velocity -3.38511297344024e-07 -0.00627228528091807 -5.23729392825302e-06 angularVelocity 0 0 0 force 75485.7103262992 26202008.3284876 -15176.2070933673 torque 0 0 0 radius 50 invMass 7.63943726841098e-10
BaseParticle id 44 indSpecies 0 position 149.999977753688 2049.44596568177 50.0003560907012 orientation 1 0 0 0 velocity -1.20404619154798e-05 -0.00635621100758981 -5.66309693404601e-06 angularVelocity 0 0 0 force 64397.5519760328 26247894.8967369 -14820.8283953723 torque 0 0 0 radius 50 invMass 7.63943726841098e-10
BaseParticle id 45 indSpecies 0 position 150.000349358324 2049.53586138676 150.00031749824 orientation 1 0 0 0 velocity 7.34221345513495e-06 -0.0117776013966481 2.04271255770473e-05 angularVelocity 0 0 0 force -15216.3388531036 26419333.4790512 -14567.6120032343 torque 0 0 0 radius 50 invMass 7.63943726841098e-10
BaseParticle id 46 indSpecies 0 position 150.000057853754 2049.58223048047 250.000438489807 orientation 1 0 0 0 velocity 8.69176210706365e-07 -0.00599920014281702 -2.07074324971349e-05 angularVelocity 0 0 0 force -15647.7431135427 26735862.2131138 -14398.7362133943 torque 0 0 0 radius 50 invMass 7.63943726841098e-10
BaseParticle id 47 indSpecies 0 position 150.000114553763 2049.54724253512 350.001093278423 orientation 1 0 0 0 velocity 6.27612310229532e-05 -0.0214273519960088 2.85216632454848e-05 angularVelocity 0 0 0 force -16235.2750374414 27173547.5462148 -14292.2707130939 torque 0 0 0 radius 50 invMass 7.63943726841098e-10
BaseParticle id 48 indSpecies 0 position 250.000261298915 2049.63257149793 -350.000736482513 orientation 1 0 0 0 velocity 2.6413838508241e-05 -0.0176873065385341 -4.2380911977922e-05 angularVelocity 0 0 0 force -15083.7072512031 27183373.4471692 -17687.2519045311 torque 0 0 0 radius 50 invMass 7.63943726841098e-10
BaseParticle id 49 indSpecies 0 position 250.000402859822 2049.60837746322 -250.000351413287 orientation 1 0 0 0 velocity -9.67392873589972e-06 -0.0121825217358897 9.65022230458403e-06 angularVelocity 0 0 0 force -14712.2477472347 17459028.0131385 -16788.8179281941 torque 0 0 0 radius 50 invMass 7.63943726841098e-10
BaseParticle id 50 indSpecies 0 position 250.00042634145 2049.59168959005 -150.000094203728 orientation 1 0 0 0 velocity -1.86797694834744e-05 -0.00739333552290047 6.62630805337977e-06 angularVelocity 0 0 0 force -14554.6185295821 26612775.4010932 -16039.1157438396 torque 0 0 0 radius 50 invMass 7.63943726841098e-10
BaseParticle id 51 indSpecies 0 position 249.999821623231 2049.62663312301 -50.0000725123069 orientation 1 0 0 0 velocity -7.37738590395688e-05 -0.0163326501275415 -5.73381179922147e-06 angularVelocity 0 0 0 force -14575.0627165585 2829469.51033191 -15556.4504057312 torque 0 0 0 radius 50 invMass 7.63943726841098e-10
BaseParticle id 52 indSpecies 0 position 249.999825619098 2049.62795166581 50.0001129727203 orientation 1 0 0 0 velocity -7.30204397874354e-05 -0.0159854701879058 3.30466573530535e-06 angularVelocity 0 0 0 force -14692.5892097428 3129527.24124394 -15194.4581949532 torque 0 0 0 radius 50 invMass 7.63943726841098e-10
BaseParticle id 53 indSpecies 0 position 250.000446282339 2049.58309554179 150.000163380946 orientation 1 0 0 0 velocity -1.60029033572385e-05 -0.00588625189631287 -6.67412476792386e-06 angularVelocity 0 0 0 force -14906.558782405 26760486.7167703 -15005.1808696365 torque 0 0 0 radius 50 invMass 7.63943726841098e-10
BaseParticle id 54 indSpecies 0 position 250.000411034438 2049.60771579291 250.000422242565 orientation 1 0 0 0 velocity -6.24954177462856e-06 -0.0144016349395069 -1.06224418968859e-05 angularVelocity 0 0 0 force -15272.1768827478 12898765.3846246 -14814.0054599008 torque 0 0 0 radius 50 invMass 7.63943726841098e-10
BaseParticle id 55 indSpecies 0 position 250.000164301123 2049.63338375126 350.000802859869 orientation 1 0 0 0 velocity 6.26321576182218e-05 -0.0167492454849074 4.14045190703803e-05 angularVelocity 0 0 0 force -15881.5488225426 27518220.4397377 -14794.7649583686 torque 0 0 0 radius 50 invMass 7.63943726841098e-10
BaseParticle id 56 indSpecies 0 position 350.000440524249 2049.53828684819 -350.000074680658 orientation 1 0 0 0 velocity 8.38176751534732e-05 -0.020398502749275 -7.07684426308697e-05 angularVelocity 0 0 0 force -14836.8297414499 27643720.9259187 -18151.9176135551 torque 0 0 0 radius 50 invMass 7.63943726841098e-10
BaseParticle id 57 indSpecies 0 position 350.000794395451 2049.63224081434 -250.000103413707 orientation 1 0 0 0 velocity 4.25180993591343e-05 -0.0178958409736216 -9.17746927700094e-05 angularVelocity 0 0 0 force -14502.3328327374 27281037.8219653 -130259.041456696 torque 0 0 0 radius 50 invMass 7.63943726841098e-10
BaseParticle id 58 indSpecies 0 position 350.001116985839 2049.54238864863 -150.000155084954 orientation 1 0 0 0 velocity 3.34776675637813e-05 -0.0228302380690164 -3.96143459755609e-05 angularVelocity 0 0 0 force -14335.1203684219 27064454.3536805 96501.9477244422 torque 0 0 0 radius 50 invMass 7.63943726841098e-10
BaseParticle id 59 indSpecies 0 position 349.999771511461 2049.45436799676 -50.0001644264683 orientation 1 0 0 0 velocity -2.81577613298931e-05 0.00183391127685213 -5.08516684827535e-05 angularVelocity 0 0 0 force -14326.7241527805 26994239.0803909 -16075.233379821 torque 0 0 0 radius 50 invMass 7.63943726841098e-10
BaseParticle id 60 indSpecies 0 position 349.99976796266 2049.45369405596 50.0001451378458 orientation 1 0 0 0 velocity -2.76970398701837e-05 0.00179151683391472 -6.62506586976622e-06 angularVelocity 0 0 0 force -14450.9175619522 27047354.5211876 -15772.9214089849 torque 0 0 0 radius 50 invMass 7.63943726841098e-10
BaseParticle id 61 indSpecies 0 position 350.001115790048 2049.54243423916 150.00014234629 orientation 1 0 0 0 velocity 3.51642109778501e-05 -0.0222383179075816 6.92576237358591e-05 angularVelocity 0 0 0 force -14700.3910759212 27222547.3530432 -99679.0813466624 torque 0 0 0 radius 50 invMass 7.63943726841098e-10
BaseParticle id 62 indSpecies 0 position 350.000816944542 2049.63312292765 250.000092812987 orientation 1 0 0 0 velocity 4.69524102189984e-05 -0.0168518987519342 6.72813640764883e-05 angularVelocity 0 0 0 force -15101.1649148109 27541968.1161378 68650.0481427497 torque 0 0 0 radius 50 invMass 7.63943726841098e-10
BaseParticle id 63 indSpecies 0 position 350.000276596298 2049.53680164102 350.000378907665 orientation 1 0 0 0 velocity 8.81447002934548e-05 -0.0202475800234974 0.000120451556759179 angularVelocity 0 0 0 force -15664.3819412213 28004508.5866065 -15428.2382103982 torque 0 0 0 radius 50 invMass 7.63943726841098e-10
BaseParticle id 64 indSpecies 0 position -350.000405542661 2149.55907761395 -350.000374620738 orientation 1 0 0 0 velocity -1.98167474644098e-05 -0.021626706382855 -1.79722281794191e-05 angularVelocity 0 0 0 force -5695.23105184484 17744629.1521894 -6816.03336773113 torque 0 0 0 radius 50 invMass 7.63943726841098e-10
BaseParticle id 65 indSpecies 0 position -350.000020954269 2149.64384072246 -250.00016029965 orientation 1 0 0 0 velocity 3.14112649509206e-05 0.00708930845880943 -5.48123394115616e-06 angularVelocity 0 0 0 force -95225.7761709712 17530142.9154267 -6188.99896839848 torque 0 0 0 radius 50 invMass 7.63943726841098e-10
BaseParticle id 66 indSpecies 0 position -350.000036915659 2149.56871239606 -150.000019684869 orientation 1 0 0 0 velocity 4.25861418663764e-05 -0.0160656267748461 3.10719218741707e-05 angularVelocity 0 0 0 force -44299.4290986016 17400705.1171582 -5758.10473910857 torque 0 0 0 radius 50 invMass 7.63943726841098e-10
BaseParticle id 67 indSpecies 0 position -350.000098963906 2149.59528312363 -50.0000212303084 orientation 1 0 0 0 velocity -2.81543170942773e-05 -0.00656249274798589 9.39074734357261e-07 angularVelocity 0 0 0 force -4965.04696732098 17349490.0223933 -5490.22769414329 torque 0 0 0 radius 50 invMass 7.63943726841098e-10
BaseParticle id 68 indSpecies 0 position -350.000108031937 2149.61128251898 50.0000581656865 orientation 1 0 0 0 velocity -2.77177439295744e-05 -0.00522872517777584 -2.42644891981985e-05 angularVelocity 0 0 0 force -4984.38618903099 17376413.2903005 -5340.0143488847 torque 0 0 0 radius 50 invMass 7.63943726841098e-10
BaseParticle id 69 indSpecies 0 position -350.000057901902 2149.57242823171 150.000054767536 orientation 1 0 0 0 velocity 2.25505913495659e-05 -0.0154851265361226 -9.33320315161957e-08 angularVelocity 0 0 0 force -139521.820399965 17484757.5211161 -5251.66099242131 torque 0 0 0 radius 50 invMass 7.63943726841098e-10
BaseParticle id 70 indSpecies 0 position -350.00003477514 2149.64295649413 250.000126067872 orientation 1 0 0 0 velocity 4.31382414959379e-05 0.00691481139880875 -1.12816950318072e-06 angularVelocity 0 0 0 force -5409.93625299645 17669224.1123165 -5175.53721059579 torque 0 0 0 radius 50 invMass 7.63943726841098e-10
BaseParticle id 71 indSpecies 0 position -350.000423774649 2149.56117017436 350.000292726188 orientation 1 0 0 0 velocity -1.96306410193297e-05 -0.0210048400581921 4.31385011032792e-06 angularVelocity 0 0 0 force -5827.61152904814 17935254.7801081 -5106.4049024937 torque 0 0 0 radius 50 invMass 7.63943726841098e-10
BaseParticle id 72 indSpecies 0 position -250.000164890563 2149.6436025287 -350.000016233377 orientation 1 0 0 0 velocity -1.09972050362165e-06 0.00702125140262678 3.38453712226795e-05 angularVelocity 0 0 0 force -5045.6509333939 17547902.9027387 -105884.694655203 torque 0 0 0 radius 50 invMass 7.63943726841098e-10
BaseParticle id 73 indSpecies 0 position -250.000036243641 2149.60834955507 -250.000032400225 orientation 1 0 0 0 velocity 1.01445411338714e-05 -0.0185486959587893 -2.5938830127382e-05 angularVelocity 0 0 0 force 85221.7527423589 17349732.5491546 -8262.44109114907 torque 0 0 0 radius 50 invMass 7.63943726841098e-10
BaseParticle id 74 indSpecies 0 position -250.000054274166 2149.62055088943 -150.00004334494 orientation 1 0 0 0 velocity -1.53914489736419e-05 -0.0107206547093522 -1.12841791818811e-05 angularVelocity 0 0 0 force 34794.942748196 -9719912.67195334 96609.3628018033 torque 0 0 0 radius 50 invMass 7.63943726841098e-10
BaseParticle id 75 indSpecies 0 position -250.00006157758 2149.61892085202 -50.0000172467591 orientation 1 0 0 0 velocity -1.22742651797282e-05 -0.00688777950813024 1.29628111677742e-05 angularVelocity 0 0 0 force -4331.5224290865 17793615.8409044 -5174.81588528302 torque 0 0 0 radius 50 invMass 7.63943726841098e-10
BaseParticle id 76 indSpecies 0 position -250.000048440622 2149.62024381375 50.0000061084193 orientation 1 0 0 0 velocity -1.12486523811253e-05 -0.00671017015060358 -1.39801259227946e-05 angularVelocity 0 0 0 force -4362.02528516731 22271607.690793 -5077.45620062861 torque 0 0 0 radius 50 invMass 7.63943726841098e-10
BaseParticle id 77 indSpecies 0 position -250.000083798918 2149.62234509151 150.000023498216 orientation 1 0 0 0 velocity 2.93443574098513e-06 -0.0057756745753918 -2.18685149044289e-06 angularVelocity 0 0 0 force 129903.130191553 -21882822.0631665 -41426.3693469545 torque 0 0 0 radius 50 invMass 7.63943726841098e-10
BaseParticle id 78 indSpecies 0 position -250.000033163482 2149.61165602608 250.000019285933 orientation 1 0 0 0 velocity -3.74841388170037e-06 -0.0134068988840011 4.07507446426171e-05 angularVelocity 0 0 0 force -47403.7864893654 10932156.0172721 23964.8528300708 torque 0 0 0 radius 50 invMass 7.63943726841098e-10
BaseParticle id 79 indSpecies 0 position -250.000238639895 2149.64188503295 350.000013975766 orientation 1 0 0 0 velocity -1.0092404611285e-05 0.00674031742448906 -4.28353777742109e-05 angularVelocity 0 0 0 force -5143.40615788105 17749895.0919721 2403.5733238614 torque 0 0 0 radius 50 invMass 7.63943726841098e-10
BaseParticle id 80 indSpecies 0 position -150.000065514025 2149.56891882141 -350.000088967706 orientation 1 0 0 0 velocity 1.82444273068491e-07 -0.0159896319293091 2.189460119465e-05 angularVelocity 0 0 0 force -4600.27155822811 17437527.65105 -6015.99319346846 torque 0 0 0 radius 50 invMass 7.63943726841098e-10
BaseParticle id 81 indSpecies 0 position -150.00003222507 2149.62092327804 -250.000042482366 orientation 1 0 0 0 velocity -4.10337312900895e-05 -0.0106115197695947 -2.12999711265665e-05 angularVelocity 0 0 0 force -4243.91946561824 -7568841.95078835 -5471.53655067259 torque 0 0 0 radius 50 invMass 7.63943726841098e-10
BaseParticle id 82 indSpecies 0 position -150.000044909096 2149.61959822311 -150.000037589993 orientation 1 0 0 0 velocity 2.73941265712788e-05 -0.014630628691515 2.64145859228344e-05 angularVelocity 0 0 0 force -3998.17578283138 17099439.5976091 -5125.21237405644 torque 0 0 0 radius 50 invMass 7.63943726841098e-10
BaseParticle id 83 indSpecies 0 position -150.000042726231 2149.61045635914 -49.9999869081641 orientation 1 0 0 0 velocity 2.48480412757852e-05 -0.00528190413822209 2.32170164143346e-05 angularVelocity 0 0 0 force -3886.35186557157 17051097.3253279 -176608.3205108 torque 0 0 0 radius 50 invMass 7.63943726841098e-10
BaseParticle id 84 indSpecies 0 position -150.000041231796 2149.60977790682 49.9999959237745 orientation 1 0 0 0 velocity 2.92453463925065e-05 -0.00533876156660904 -2.08195715592292e-05 angularVelocity 0 0 0 force -3900.20856628649 17082523.0095241 166755.595737025 torque 0 0 0 radius 50 invMass 7.63943726841098e-10
BaseParticle id 85 indSpecies 0 position -150.000010462593 2149.6239789908 150.00002890688 orientation 1 0 0 0 velocity 2.29257246432587e-05 -0.0108107476532655 -2.88553748685347e-05 angularVelocity 0 0 0 force -4034.23427930233 17192796.3938966 -4919.98884954192 torque 0 0 0 radius 50 invMass 7.63943726841098e-10
BaseParticle id 86 indSpecies 0 position -150.000037491013 2149.61520822066 250.000030806974 orientation 1 0 0 0 velocity -3.64065211892619e-05 -0.0123558263542306 -3.30979049618381e-05 angularVelocity 0 0 0 force 38345.8604193933 17388917.6444886 -4964.4394940435 torque 0 0 0 radius 50 invMass 7.63943726841098e-10
BaseParticle id 87 indSpecies 0 position -150.000017203556 2149.5944735994 350.000053603275 orientation 1 0 0 0 velocity 3.94273045884901e-05 -0.00321051292594813 2.76109742411469e-05 angularVelocity 0 0 0 force -4670.60232612092 17649553.1746944 -4997.43232597761 torque 0 0 0 radius 50 invMass 7.63943726841098e-10
BaseParticle id 88 indSpecies 0 position -50.0000196209843 2149.59488571798 -350.000044389085 orientation 1 0 0 0 velocity 3.66308782066766e-05 -0.00657892157278549 6.39261594671345e-06 angularVelocity 0 0 0 force -4324.71053966449 17406560.0098757 -92354.9913821264 torque 0 0 0 radius 50 invMass 7.63943726841098e-10
BaseParticle id 89 indSpecies 0 position -50.0000115226269 2149.61873692879 -250.000055890431 orientation 1 0 0 0 velocity 2.07459890107299e-05 -0.00701509505924142 -3.56209530396722e-06 angularVelocity 0 0 0 force -3979.85269861189 17204009.3843564 81284.9253033957 torque 0 0 0 radius 50 invMass 7.63943726841098e-10
BaseParticle id 90 indSpecies 0 position -50.0000345751801 2149.61037211008 -150.000026903505 orientation 1 0 0 0 velocity 3.39351607205595e-05 -0.00528540397698079 -8.46123426701984e-07 angularVelocity 0 0 0 force -3742.85030726264 17070792.5275113 -4969.43986571912 torque 0 0 0 radius 50 invMass 7.63943726841098e-10