<?xml version="1.0"?>
<!-- time 59.7967-->
<VTKFile type="UnstructuredGrid" version="0.1" byte_order="LittleEndian">
<UnstructuredGrid>
<Piece NumberOfPoints="7680" NumberOfCells="0">
<Points>
  <DataArray type="Float32" Name="Position" NumberOfComponents="3" format="ascii">
	-350 2049.56 -350
	-350 2049.46 -250
	-350 2049.4 -150
	-350 2049.37 -50
	-350 2049.37 50
	-350 2049.4 150
	-350 2049.46 250
	-350 2049.56 350
	-250 2049.46 -350
	-250 2049.37 -250
	-250 2049.31 -150
	-250 2049.27 -50
	-250 2049.27 50
	-250 2049.31 150
	-250 2049.37 250
	-250 2049.46 350
	-150 2049.4 -350
	-150 2049.31 -250
	-150 2049.24 -150
	-150 2049.21 -50
	-150 2049.21 50
	-150 2049.24 150
	-150 2049.31 250
	-150 2049.4 350
	-50 2049.37 -350
	-50 2049.27 -250
	-50 2049.21 -150
	-50 2049.18 -50
	-50 2049.18 50
	-50 2049.21 150
	-50 2049.27 250
	-50 2049.37 350
	50 2049.37 -350
	50 2049.27 -250
	50 2049.21 -150
	50 2049.18 -50
	50 2049.18 50
	50 2049.21 150
	50 2049.27 250
	50 2049.37 350
	150 2049.4 -350
	150 2049.31 -250
	150 2049.24 -150
	150 2049.21 -50
	150 2049.21 50
	150 2049.24 150
	150 2049.31 250
	150 2049.4 350
	250 2049.46 -350
	250 2049.37 -250
	250 2049.31 -150
	250 2049.27 -50
	250 2049.27 50
	250 2049.31 150
	250 2049.37 250
	250 2049.46 350
	350 2049.56 -350
	350 2049.46 -250
	350 2049.4 -150
	350 2049.37 -50
	350 2049.37 50
	350 2049.4 150
	350 2049.46 250
	350 2049.56 350
	-350 2149.57 -350
	-350 2149.63 -250
	-350 2149.65 -150
	-350 2149.65 -50
	-350 2149.65 50
	-350 2149.65 150
	-350 2149.63 250
	-350 2149.57 350
	-250 2149.63 -350
	-250 2149.65 -250
	-250 2149.64 -150
	-250 2149.63 -50
	-250 2149.63 50
	-250 2149.64 150
	-250 2149.65 250
	-250 2149.63 350
	-150 2149.65 -350
	-150 2149.64 -250
	-150 2149.63 -150
	-150 2149.63 -50
	-150 2149.63 50
	-150 2149.63 150
	-150 2149.64 250
	-150 2149.65 350
	-50 2149.65 -350
	-50 2149.63 -250
	-50 2149.63 -150
	-50 2149.64 -50
	-50 2149.64 50
	-50 2149.63 150
	-50 2149.63 250
	-50 2149.65 350
	50 2149.65 -350
	50 2149.63 -250
	50 2149.63 -150
	50 2149.64 -50
	50 2149.64 50
	50 2149.63 150
	50 2149.63 250
	50 2149.65 350
	150 2149.65 -350
	150 2149.64 -250
	150 2149.63 -150
	150 2149.63 -50
	150 2149.63 50
	150 2149.63 150
	150 2149.64 250
	150 2149.65 350
	250 2149.63 -350
	250 2149.65 -250
	250 2149.64 -150
	250 2149.63 -50
	250 2149.63 50
	250 2149.64 150
	250 2149.65 250
	250 2149.63 350
	350 2149.57 -350
	350 2149.63 -250
	350 2149.65 -150
	350 2149.65 -50
	350 2149.65 50
	350 2149.65 150
	350 2149.63 250
	350 2149.57 350
	-350 2249.63 -350
	-350 2249.66 -250
	-350 2249.66 -150
	-350 2249.66 -50
	-350 2249.66 50
	-350 2249.66 150
	-350 2249.66 250
	-350 2249.63 350
	-250 2249.66 -350
	-250 2249.66 -250
	-250 2249.66 -150
	-250 2249.66 -50
	-250 2249.66 50
	-250 2249.66 150
	-250 2249.66 250
	-250 2249.66 350
	-150 2249.66 -350
	-150 2249.66 -250
	-150 2249.65 -150
	-150 2249.66 -50
	-150 2249.66 50
	-150 2249.65 150
	-150 2249.66 250
	-150 2249.66 350
	-50 2249.66 -350
	-50 2249.66 -250
	-50 2249.66 -150
	-50 2249.66 -50
	-50 2249.66 50
	-50 2249.66 150
	-50 2249.66 250
	-50 2249.66 350
	50 2249.66 -350
	50 2249.66 -250
	50 2249.66 -150
	50 2249.66 -50
	50 2249.66 50
	50 2249.66 150
	50 2249.66 250
	50 2249.66 350
	150 2249.66 -350
	150 2249.66 -250
	150 2249.65 -150
	150 2249.66 -50
	150 2249.66 50
	150 2249.65 150
	150 2249.66 250
	150 2249.66 350
	250 2249.66 -350
	250 2249.66 -250
	250 2249.66 -150
	250 2249.66 -50
	250 2249.66 50
	250 2249.66 150
	250 2249.66 250
	250 2249.66 350
	350 2249.63 -350
	350 2249.66 -250
	350 2249.66 -150
	350 2249.66 -50
	350 2249.66 50
	350 2249.66 150
	350 2249.66 250
	350 2249.63 350
	-350 2349.64 -350
	-350 2349.66 -250
	-350 2349.66 -150
	-350 2349.66 -50
	-350 2349.66 50
	-350 2349.66 150
	-350 2349.66 250
	-350 2349.64 350
	-250 2349.66 -350
	-250 2349.67 -250
	-250 2349.67 -150
	-250 2349.66 -50
	-250 2349.66 50
	-250 2349.67 150
	-250 2349.67 250
	-250 2349.66 350
	-150 2349.66 -350
	-150 2349.67 -250
	-150 2349.65 -150
	-150 2349.66 -50
	-150 2349.66 50
	-150 2349.65 150
	-150 2349.67 250
	-150 2349.66 350
	-50 2349.66 -350
	-50 2349.66 -250
	-50 2349.66 -150
	-50 2349.66 -50
	-50 2349.66 50
	-50 2349.66 150
	-50 2349.66 250
	-50 2349.66 350
	50 2349.66 -350
	50 2349.66 -250
	50 2349.66 -150
	50 2349.66 -50
	50 2349.66 50
	50 2349.66 150
	50 2349.66 250
	50 2349.66 350
	150 2349.66 -350
	150 2349.67 -250
	150 2349.65 -150
	150 2349.66 -50
	150 2349.66 50
	150 2349.65 150
	150 2349.67 250
	150 2349.66 350
	250 2349.66 -350
	250 2349.67 -250
	250 2349.67 -150
	250 2349.66 -50
	250 2349.66 50
	250 2349.67 150
	250 2349.67 250
	250 2349.66 350
	350 2349.64 -350
	350 2349.66 -250
	350 2349.66 -150
	350 2349.66 -50
	350 2349.66 50
	350 2349.66 150
	350 2349.66 250
	350 2349.64 350
	-350 2449.65 -350
	-350 2449.66 -250
	-350 2449.67 -150
	-350 2449.67 -50
	-350 2449.67 50
	-350 2449.67 150
	-350 2449.66 250
	-350 2449.65 350
	-250 2449.66 -350
	-250 2449.68 -250
	-250 2449.68 -150
	-250 2449.67 -50
	-250 2449.67 50
	-250 2449.68 150
	-250 2449.68 250
	-250 2449.66 350
	-150 2449.67 -350
	-150 2449.68 -250
	-150 2449.67 -150
	-150 2449.67 -50
	-150 2449.67 50
	-150 2449.67 150
	-150 2449.68 250
	-150 2449.67 350
	-50 2449.67 -350
	-50 2449.67 -250
	-50 2449.67 -150
	-50 2449.67 -50
	-50 2449.67 50
	-50 2449.67 150
	-50 2449.67 250
	-50 2449.67 350
	50 2449.67 -350
	50 2449.67 -250
	50 2449.67 -150
	50 2449.67 -50
	50 2449.67 50
	50 2449.67 150
	50 2449.67 250
	50 2449.67 350
	150 2449.67 -350
	150 2449.68 -250
	150 2449.67 -150
	150 2449.67 -50
	150 2449.67 50
	150 2449.67 150
	150 2449.68 250
	150 2449.67 350
	250 2449.66 -350
	250 2449.68 -250
	250 2449.68 -150
	250 2449.67 -50
	250 2449.67 50
	250 2449.68 150
	250 2449.68 250
	250 2449.66 350
	350 2449.65 -350
	350 2449.66 -250
	350 2449.67 -150
	350 2449.67 -50
	350 2449.67 50
	350 2449.67 150
	350 2449.66 250
	350 2449.65 350
	-350 2549.66 -350
	-350 2549.67 -250
	-350 2549.68 -150
	-350 2549.68 -50
	-350 2549.68 50
	-350 2549.68 150
	-350 2549.67 250
	-350 2549.66 350
	-250 2549.67 -350
	-250 2549.68 -250
	-250 2549.68 -150
	-250 2549.68 -50
	-250 2549.68 50
	-250 2549.68 150
	-250 2549.68 250
	-250 2549.67 350
	-150 2549.68 -350
	-150 2549.68 -250
	-150 2549.67 -150
	-150 2549.68 -50
	-150 2549.68 50
	-150 2549.67 150
	-150 2549.68 250
	-150 2549.68 350
	-50 2549.68 -350
	-50 2549.68 -250
	-50 2549.68 -150
	-50 2549.68 -50
	-50 2549.68 50
	-50 2549.68 150
	-50 2549.68 250
	-50 2549.68 350
	50 2549.68 -350
	50 2549.68 -250
	50 2549.68 -150
	50 2549.68 -50
	50 2549.68 50
	50 2549.68 150
	50 2549.68 250
	50 2549.68 350
	150 2549.68 -350
	150 2549.68 -250
	150 2549.67 -150
	150 2549.68 -50
	150 2549.68 50
	150 2549.67 150
	150 2549.68 250
	150 2549.68 350
	250 2549.67 -350
	250 2549.68 -250
	250 2549.68 -150
	250 2549.68 -50
	250 2549.68 50
	250 2549.68 150
	250 2549.68 250
	250 2549.67 350
	350 2549.66 -350
	350 2549.67 -250
	350 2549.68 -150
	350 2549.68 -50
	350 2549.68 50
	350 2549.68 150
	350 2549.67 250
	350 2549.66 350
	-350 2649.68 -350
	-350 2649.68 -250
	-350 2649.68 -150
	-350 2649.68 -50
	-350 2649.68 50
	-350 2649.68 150
	-350 2649.68 250
	-350 2649.68 350
	-250 2649.68 -350
	-250 2649.68 -250
	-250 2649.67 -150
	-250 2649.68 -50
	-250 2649.68 50
	-250 2649.67 150
	-250 2649.68 250
	-250 2649.68 350
	-150 2649.68 -350
	-150 2649.67 -250
	-150 2649.69 -150
	-150 2649.68 -50
	-150 2649.68 50
	-150 2649.69 150
	-150 2649.67 250
	-150 2649.68 350
	-50 2649.68 -350
	-50 2649.68 -250
	-50 2649.68 -150
	-50 2649.68 -50
	-50 2649.68 50
	-50 2649.68 150
	-50 2649.68 250
	-50 2649.68 350
	50 2649.68 -350
	50 2649.68 -250
	50 2649.68 -150
	50 2649.68 -50
	50 2649.68 50
	50 2649.68 150
	50 2649.68 250
	50 2649.68 350
	150 2649.68 -350
	150 2649.67 -250
	150 2649.69 -150
	150 2649.68 -50
	150 2649.68 50
	150 2649.69 150
	150 2649.67 250
	150 2649.68 350
	250 2649.68 -350
	250 2649.68 -250
	250 2649.67 -150
	250 2649.68 -50
	250 2649.68 50
	250 2649.67 150
	250 2649.68 250
	250 2649.68 350
	350 2649.68 -350
	350 2649.68 -250
	350 2649.68 -150
	350 2649.68 -50
	350 2649.68 50
	350 2649.68 150
	350 2649.68 250
	350 2649.68 350
	-350 2749.68 -350
	-350 2749.69 -250
	-350 2749.68 -150
	-350 2749.68 -50
	-350 2749.68 50
	-350 2749.68 150
	-350 2749.69 250
	-350 2749.68 350
	-250 2749.69 -350
	-250 2749.69 -250
	-250 2749.67 -150
	-250 2749.68 -50
	-250 2749.68 50
	-250 2749.67 150
	-250 2749.69 250
	-250 2749.69 350
	-150 2749.68 -350
	-150 2749.67 -250
	-150 2749.68 -150
	-150 2749.68 -50
	-150 2749.68 50
	-150 2749.68 150
	-150 2749.67 250
	-150 2749.68 350
	-50 2749.68 -350
	-50 2749.68 -250
	-50 2749.68 -150
	-50 2749.67 -50
	-50 2749.67 50
	-50 2749.68 150
	-50 2749.68 250
	-50 2749.68 350
	50 2749.68 -350
	50 2749.68 -250
	50 2749.68 -150
	50 2749.67 -50
	50 2749.67 50
	50 2749.68 150
	50 2749.68 250
	50 2749.68 350
	150 2749.68 -350
	150 2749.67 -250
	150 2749.68 -150
	150 2749.68 -50
	150 2749.68 50
	150 2749.68 150
	150 2749.67 250
	150 2749.68 350
	250 2749.69 -350
	250 2749.69 -250
	250 2749.67 -150
	250 2749.68 -50
	250 2749.68 50
	250 2749.67 150
	250 2749.69 250
	250 2749.69 350
	350 2749.68 -350
	350 2749.69 -250
	350 2749.68 -150
	350 2749.68 -50
	350 2749.68 50
	350 2749.68 150
	350 2749.69 250
	350 2749.68 350
	-350 2849.69 -350
	-350 2849.68 -250
	-350 2849.68 -150
	-350 2849.69 -50
	-350 2849.69 50
	-350 2849.68 150
	-350 2849.68 250
	-350 2849.69 350
	-250 2849.68 -350
	-250 2849.69 -250
	-250 2849.68 -150
	-250 2849.68 -50
	-250 2849.68 50
	-250 2849.68 150
	-250 2849.69 250
	-250 2849.68 350
	-150 2849.68 -350
	-150 2849.68 -250
	-150 2849.68 -150
	-150 2849.67 -50
	-150 2849.67 50
	-150 2849.68 150
	-150 2849.68 250
	-150 2849.68 350
	-50 2849.69 -350
	-50 2849.68 -250
	-50 2849.67 -150
	-50 2849.67 -50
	-50 2849.67 50
	-50 2849.67 150
	-50 2849.68 250
	-50 2849.69 350
	50 2849.69 -350
	50 2849.68 -250
	50 2849.67 -150
	50 2849.67 -50
	50 2849.67 50
	50 2849.67 150
	50 2849.68 250
	50 2849.69 350
	150 2849.68 -350
	150 2849.68 -250
	150 2849.68 -150
[...]
<PointData  Vectors="vector">
  <DataArray type="Float32" Name="Velocity" NumberOfComponents="3" format="ascii">
 -1.29675e-05 0.0309726 -1.29499e-05
 -1.32889e-05 0.0248316 3.47816e-06
 -1.31004e-05 0.020716 5.84436e-07
 -1.2883e-05 0.0186975 4.12019e-06
 -1.28824e-05 0.0186975 -4.10379e-06
 -1.31003e-05 0.0207159 -5.62885e-07
 -1.32911e-05 0.0248315 -3.45905e-06
 -1.29664e-05 0.0309725 1.2973e-05
 3.45182e-06 0.0248316 -1.32762e-05
 3.5896e-06 0.0189837 3.62505e-06
 3.38746e-06 0.0149067 -4.60071e-07
 3.18839e-06 0.0129084 8.24926e-06
 3.18721e-06 0.0129083 -8.23643e-06
 3.38783e-06 0.0149067 4.82595e-07
 3.5931e-06 0.0189836 -3.60208e-06
 3.44934e-06 0.0248315 1.32966e-05
 5.58215e-07 0.020716 -1.30028e-05
 -4.50496e-07 0.0149068 3.33649e-06
 -4.19914e-07 0.0108694 -3.99139e-07
 -4.77473e-07 0.00881844 9.15779e-06
 -4.77369e-07 0.00881842 -9.14277e-06
 -4.20626e-07 0.0108693 4.18935e-07
 -4.47882e-07 0.0149067 -3.31669e-06
 5.88355e-07 0.0207159 1.30259e-05
 4.08224e-06 0.0186976 -1.30746e-05
 8.37896e-06 0.0129084 3.24136e-06
 9.15968e-06 0.00881846 -4.70113e-07
 9.15371e-06 0.00681409 9.15439e-06
 9.15431e-06 0.00681408 -9.14137e-06
 9.15987e-06 0.0088184 4.91832e-07
 8.39838e-06 0.0129083 -3.21991e-06
 4.24779e-06 0.0186975 1.30956e-05
 -4.07991e-06 0.0186976 -1.30747e-05
 -8.37678e-06 0.0129084 3.24062e-06
 -9.15841e-06 0.00881846 -4.70777e-07
 -9.26371e-06 0.00681409 9.15475e-06
 -9.26394e-06 0.00681408 -9.14152e-06
 -9.15869e-06 0.0088184 4.91697e-07
 -8.398e-06 0.0129083 -3.21888e-06
 -4.27379e-06 0.0186975 1.30958e-05
 -5.60667e-07 0.020716 -1.30058e-05
 4.48156e-07 0.0149068 3.33824e-06
 4.18821e-07 0.0108694 -3.98733e-07
 4.96329e-07 0.00881844 9.15524e-06
 4.96752e-07 0.00881842 -9.14344e-06
 4.18445e-07 0.0108693 4.19889e-07
 4.47117e-07 0.0149067 -3.31437e-06
 -5.62379e-07 0.0207159 1.30262e-05
 -3.45238e-06 0.0248316 -1.32778e-05
 -3.59074e-06 0.0189837 3.62347e-06
 -3.38898e-06 0.0149067 -4.61787e-07
 -3.26954e-06 0.0129084 8.24559e-06
 -3.27009e-06 0.0129083 -8.2341e-06
 -3.38815e-06 0.0149067 4.84286e-07
 -3.59353e-06 0.0189836 -3.60017e-06
 -3.4512e-06 0.0248315 1.32985e-05
 1.29678e-05 0.0309726 -1.29548e-05
 1.32896e-05 0.0248316 3.47918e-06
 1.3101e-05 0.020716 5.86168e-07
 1.30544e-05 0.0186975 4.13858e-06
 1.30546e-05 0.0186975 -4.12758e-06
 1.31006e-05 0.0207159 -5.60459e-07
 1.32909e-05 0.0248315 -3.45838e-06
 1.29672e-05 0.0309725 1.29765e-05
 2.86627e-06 -0.0102404 2.88033e-06
 -1.59293e-05 -0.00276004 -1.68647e-05
 -1.63222e-05 0.000119772 2.22937e-06
 -1.44993e-05 0.000703969 1.15129e-05
 -1.44986e-05 0.000703953 -1.1502e-05
 -1.63207e-05 0.000119726 -2.21821e-06
 -1.59396e-05 -0.00276011 1.68781e-05
 2.86799e-06 -0.0102406 -2.86895e-06
 -1.68798e-05 -0.00276002 -1.59133e-05
 2.28781e-06 0.000810288 2.29911e-06
 2.55526e-06 0.00038451 2.33588e-06
 6.39399e-07 -0.000174831 1.14739e-05
 6.39677e-07 -0.000174851 -1.14304e-05
 2.55437e-06 0.000384268 -2.33908e-06
 2.29083e-06 0.000810196 -2.20031e-06
 -1.68821e-05 -0.00276012 1.58197e-05
 2.24787e-06 0.000119802 -1.64842e-05
 2.34651e-06 0.000384529 2.66616e-06
 2.267e-06 -0.00017027 2.25949e-06
 2.27663e-06 0.000407173 1.13589e-05
 2.27632e-06 0.000407153 -1.13506e-05
 2.26762e-06 -0.000170331 -2.24765e-06
 2.34161e-06 0.000384249 -2.65514e-06
 2.24941e-06 0.0001197 1.64978e-05
 1.1479e-05 0.00070402 -1.44273e-05
 1.14521e-05 -0.000174792 6.06005e-07
 1.12648e-05 0.000407193 2.28202e-06
 1.11956e-05 0.00170282 1.11861e-05
 1.11946e-05 0.0017028 -1.1166e-05
 1.12628e-05 0.000407132 -2.27562e-06
 1.14631e-05 -0.00017489 -5.18342e-07
 1.14762e-05 0.000703908 1.43573e-05
 -1.14822e-05 0.000704021 -1.44474e-05
 -1.14802e-05 -0.000174791 6.20204e-07
 -1.1244e-05 0.000407194 2.27752e-06
 -1.11882e-05 0.00170282 1.11954e-05
 -1.11897e-05 0.0017028 -1.11559e-05
 -1.12468e-05 0.000407132 -2.28e-06
 -1.14712e-05 -0.00017489 -5.00845e-07
 -1.14851e-05 0.000703907 1.43352e-05
 -2.24639e-06 0.000119807 -1.64818e-05
 -2.31576e-06 0.00038453 2.66364e-06
 -2.27632e-06 -0.000170269 2.26034e-06
 -2.27949e-06 0.000407173 1.13548e-05
 -2.2793e-06 0.000407153 -1.13211e-05
 -2.27499e-06 -0.000170329 -2.27839e-06
 -2.31957e-06 0.000384251 -2.6544e-06
 -2.24431e-06 0.000119702 1.65013e-05
 1.6878e-05 -0.00276001 -1.59055e-05
 -2.28713e-06 0.000810295 2.29428e-06
 -2.54507e-06 0.000384511 2.33904e-06
 -6.30141e-07 -0.000174829 1.14622e-05
 -6.3003e-07 -0.000174849 -1.14386e-05
 -2.54645e-06 0.00038427 -2.33566e-06
 -2.28434e-06 0.000810198 -2.20004e-06
 1.68749e-05 -0.00276012 1.58292e-05
 -2.86301e-06 -0.0102404 2.93993e-06
 1.59256e-05 -0.00276003 -1.68247e-05
 1.63e-05 0.000119782 2.27786e-06
 1.44849e-05 0.000703976 1.15356e-05
 1.44863e-05 0.000703959 -1.15342e-05
 1.63034e-05 0.000119733 -2.27797e-06
 1.59184e-05 -0.0027601 1.68555e-05
 -2.85773e-06 -0.0102406 -2.92613e-06
 2.26088e-06 0.0004962 2.2898e-06
 -3.61262e-08 0.000697275 -9.83618e-06
 1.07757e-06 -0.000304626 -9.41217e-08
 1.58161e-06 0.00361938 3.67391e-06
 1.58163e-06 0.00361935 -3.67075e-06
 1.07677e-06 -0.000303709 9.92379e-08
 -3.68653e-08 0.00069758 9.83884e-06
 2.26693e-06 0.000496053 -2.28696e-06
 -9.72982e-06 0.000697229 -5.47224e-08
 -1.16853e-05 0.00412411 -1.16786e-05
 -1.47765e-05 0.00334911 3.57678e-06
 -1.61183e-05 -0.00453049 3.53204e-06
 -1.61183e-05 -0.00453034 -3.52901e-06
 -1.47758e-05 0.00334964 -3.57314e-06
 -1.16853e-05 0.00412399 1.1682e-05
 -9.6956e-06 0.000697619 5.75256e-08
 -1.75973e-07 -0.00030515 1.06971e-06
 3.55543e-06 0.00334914 -1.47728e-05
 5.10952e-06 -0.0247984 5.12231e-06
 5.92421e-06 -0.0240515 3.52695e-06
 5.92417e-06 -0.0240515 -3.52414e-06
 5.1092e-06 -0.0247985 -5.11854e-06
 3.55576e-06 0.00334962 1.47752e-05
 -2.13715e-07 -0.00030314 -1.0665e-06
 3.66719e-06 0.00361945 1.58454e-06
 3.52975e-06 -0.00453085 -1.6117e-05
 3.52476e-06 -0.0240515 5.92794e-06
 3.57143e-06 -0.0210192 3.57329e-06
 3.57133e-06 -0.0210192 -3.57064e-06
 3.52477e-06 -0.0240516 -5.92529e-06
 3.52974e-06 -0.00453007 1.61201e-05
 3.66494e-06 0.00361927 -1.58104e-06
 -3.66715e-06 0.00361945 1.58389e-06
 -3.52986e-06 -0.00453087 -1.61172e-05
 -3.52496e-06 -0.0240515 5.92803e-06
 -3.57154e-06 -0.0210192 3.57319e-06
 -3.57145e-06 -0.0210192 -3.57043e-06
 -3.52474e-06 -0.0240516 -5.92519e-06
 -3.52985e-06 -0.00453008 1.61201e-05
 -3.66479e-06 0.00361927 -1.58066e-06
 1.77037e-07 -0.00030506 1.07058e-06
 -3.55521e-06 0.00334914 -1.4774e-05
 -5.1094e-06 -0.0247984 5.12029e-06
 -5.92445e-06 -0.0240515 3.52672e-06
 -5.92444e-06 -0.0240515 -3.52377e-06
 -5.10944e-06 -0.0247985 -5.11696e-06
 -3.5557e-06 0.00334962 1.4776e-05
 2.13383e-07 -0.000303073 -1.06698e-06
 9.7294e-06 0.000697242 -5.30237e-08
 1.16854e-05 0.0041241 -1.16801e-05
 1.47768e-05 0.00334911 3.57247e-06
 1.61183e-05 -0.00453059 3.53176e-06
 1.61183e-05 -0.00453045 -3.52864e-06
 1.47755e-05 0.00334964 -3.5697e-06
 1.16853e-05 0.00412399 1.1683e-05
 9.69566e-06 0.000697582 5.66116e-08
 -2.2617e-06 0.000496203 2.24998e-06
 3.56703e-08 0.000697284 -9.78148e-06
 -1.07808e-06 -0.000304459 -1.13202e-07
 -1.58167e-06 0.00361937 3.67226e-06
 -1.58168e-06 0.00361934 -3.66901e-06
 -1.07678e-06 -0.000303554 1.1569e-07
 3.64867e-08 0.000697539 9.78538e-06
 -2.26725e-06 0.00049606 -2.24661e-06
 6.86059e-06 -0.00305334 6.8662e-06
 7.3639e-06 -0.00188518 8.25988e-06
 6.21126e-06 -0.0139229 -8.53922e-06
 5.27523e-06 -0.0166941 -1.41399e-06
 5.2751e-06 -0.0166941 1.40923e-06
 6.2107e-06 -0.0139237 8.53474e-06
 7.36473e-06 -0.00188442 -8.26411e-06
 6.86002e-06 -0.00305352 -6.87089e-06
 8.26349e-06 -0.0018853 7.36634e-06
 6.22531e-06 -0.0155221 6.22469e-06
 5.96457e-06 -0.0122795 -9.36186e-06
 6.39861e-06 -0.00969513 6.32306e-06
 6.39861e-06 -0.0096953 -6.32842e-06
 5.96485e-06 -0.012317 9.35785e-06
 6.22431e-06 -0.0155222 -6.22931e-06
 8.26401e-06 -0.00188428 -7.371e-06
 -8.5363e-06 -0.0139224 6.21203e-06
 -9.35598e-06 -0.0122795 5.96481e-06
 -9.84502e-06 0.00436847 -9.84984e-06
 -9.97679e-06 0.00537203 5.98871e-06
 -9.97656e-06 0.00537204 -5.99344e-06
 -9.84462e-06 0.00436849 9.84491e-06
 -9.35694e-06 -0.012317 -5.96986e-06
 -8.53754e-06 -0.0139243 -6.21634e-06
 -1.40689e-06 -0.0166941 5.27582e-06
 6.32374e-06 -0.00969473 6.39826e-06
 5.99007e-06 0.00537203 -9.98117e-06
 5.7553e-06 -0.0059783 5.75387e-06
 5.75519e-06 -0.00597834 -5.75855e-06
 5.98986e-06 0.00537204 9.97618e-06
 6.32448e-06 -0.00969562 -6.40317e-06
 -1.40513e-06 -0.016694 -5.28049e-06
 1.40696e-06 -0.0166941 5.2754e-06
 -6.32363e-06 -0.00969472 6.39807e-06
 -5.99002e-06 0.00537202 -9.98118e-06
 -5.75523e-06 -0.00597831 5.75382e-06
 -5.75509e-06 -0.00597835 -5.75845e-06
 -5.98969e-06 0.00537204 9.97613e-06
 -6.32417e-06 -0.00969561 -6.40294e-06
 1.40504e-06 -0.016694 -5.28021e-06
 8.53635e-06 -0.0139224 6.21111e-06
 9.35592e-06 -0.0122795 5.96408e-06
 9.84499e-06 0.00436846 -9.8499e-06
 9.97671e-06 0.00537203 5.98831e-06
 9.97646e-06 0.00537204 -5.9931e-06
 9.84445e-06 0.00436849 9.8449e-06
 9.35662e-06 -0.012317 -5.96924e-06
 8.53764e-06 -0.0139243 -6.21546e-06
 -8.26368e-06 -0.00188527 7.36466e-06
 -6.22531e-06 -0.0155221 6.22364e-06
 -5.96457e-06 -0.0122795 -9.36244e-06
 -6.39875e-06 -0.00969504 6.32279e-06
 -6.39871e-06 -0.00969521 -6.328e-06
 -5.96496e-06 -0.012317 9.35809e-06
 -6.22438e-06 -0.0155222 -6.22848e-06
 -8.26417e-06 -0.0018842 -7.36938e-06
 -6.86056e-06 -0.00305334 6.85661e-06
 -7.36406e-06 -0.00188513 8.26543e-06
 -6.21148e-06 -0.013923 -8.53917e-06
 -5.27534e-06 -0.0166941 -1.41038e-06
 -5.27528e-06 -0.0166941 1.40585e-06
 -6.21088e-06 -0.0139239 8.53436e-06
 -7.36491e-06 -0.00188434 -8.26247e-06
 -6.86008e-06 -0.00305352 -6.86904e-06
 4.32335e-06 -0.0202333 4.31975e-06
 5.39346e-06 -0.0101777 9.95257e-06
 9.21839e-06 -0.010662 -7.07358e-06
 9.16227e-06 -0.00860939 4.1486e-06
 9.16225e-06 -0.0086094 -4.15999e-06
 9.21831e-06 -0.0106621 7.06186e-06
 5.39325e-06 -0.0101789 -9.96432e-06
 4.32319e-06 -0.0202335 -4.33128e-06
 9.9555e-06 -0.0101775 5.38966e-06
 8.37329e-06 -0.00105595 8.36974e-06
 5.36385e-06 -0.00338378 -6.91763e-06
 5.87542e-06 -0.00830692 4.35407e-06
 5.87545e-06 -0.00830695 -4.36553e-06
 5.36379e-06 -0.00333888 6.9061e-06
 8.37328e-06 -0.00105629 -8.38162e-06
 9.95543e-06 -0.0101791 -5.40123e-06
 -7.06583e-06 -0.010662 9.21502e-06
 -6.91115e-06 -0.00338376 5.35931e-06
 -6.58169e-06 0.00204583 -6.5874e-06
 -6.12051e-06 0.000313661 3.40544e-06
 -6.12051e-06 0.000313644 -3.41666e-06
 -6.58153e-06 0.00204589 6.57553e-06
 -6.91119e-06 -0.00333891 -5.37099e-06
 -7.066e-06 -0.0106621 -9.22675e-06
 4.14808e-06 -0.00860934 9.15872e-06
 4.35962e-06 -0.00830689 5.87083e-06
 3.41089e-06 0.000313684 -6.12695e-06
 3.97283e-06 0.00845497 3.96864e-06
 3.97352e-06 0.00845496 -4.02568e-06
 3.41105e-06 0.00031362 6.16111e-06
 4.35938e-06 -0.00830701 -5.88267e-06
 4.14969e-06 -0.00860944 -9.17054e-06
 -4.14799e-06 -0.00860934 9.15855e-06
 -4.35949e-06 -0.00830689 5.87073e-06
 -3.41075e-06 0.00031368 -6.12704e-06
 -4.01854e-06 0.00845498 4.09528e-06
 -4.01932e-06 0.00845496 -4.1067e-06
 -3.41086e-06 0.000313618 6.11528e-06
 -4.3593e-06 -0.00830701 -5.88247e-06
 -4.14953e-06 -0.00860944 -9.17024e-06
 7.06583e-06 -0.010662 9.21429e-06
 6.91113e-06 -0.00338376 5.35882e-06
 6.58164e-06 0.00204583 -6.58794e-06
 6.16635e-06 0.000313658 3.40663e-06
 6.16636e-06 0.000313638 -3.41794e-06
 6.58142e-06 0.00204588 6.57603e-06
 6.91118e-06 -0.00333894 -5.37059e-06
 7.06591e-06 -0.0106621 -9.22603e-06
 -9.95553e-06 -0.0101775 5.38855e-06
 -8.37336e-06 -0.00105599 8.36861e-06
 -5.36392e-06 -0.0033838 -6.91798e-06
 -5.87553e-06 -0.00830694 4.3562e-06
 -5.87552e-06 -0.00830696 -4.36758e-06
 -5.36388e-06 -0.0033389 6.90632e-06
 -8.37338e-06 -0.00105637 -8.38066e-06
 -9.9555e-06 -0.0101791 -5.40029e-06
 -4.32339e-06 -0.0202333 4.31829e-06
 -5.39354e-06 -0.0101777 9.95099e-06
 -9.21849e-06 -0.0106621 -7.07399e-06
 -9.16242e-06 -0.00860939 4.15131e-06
 -9.1624e-06 -0.00860941 -4.16285e-06
 -9.21843e-06 -0.0106621 7.06216e-06
 -5.39332e-06 -0.0101789 -9.96283e-06
 -4.32326e-06 -0.0202335 -4.33001e-06
 9.51706e-06 0.00187692 9.51063e-06
 9.4806e-06 -0.00538189 6.21101e-06
 9.48195e-06 0.00238482 -3.82696e-06
 9.33486e-06 0.000963877 4.97757e-06
 9.33475e-06 0.000963853 -4.99436e-06
 9.48194e-06 0.00238461 3.81005e-06
 9.48064e-06 -0.00538185 -6.228e-06
 9.51709e-06 0.00187678 -9.5278e-06
 6.21803e-06 -0.0053819 9.47404e-06
 5.91375e-06 0.00599633 5.90664e-06
 5.60372e-06 0.00117928 -3.81922e-06
 5.66781e-06 0.00346588 4.67851e-06
 5.66786e-06 0.00346587 -4.69526e-06
 5.6037e-06 0.00107932 3.80236e-06
 5.9137e-06 0.00599725 -5.92356e-06
 6.21801e-06 -0.00538184 -9.49104e-06
 -3.81806e-06 0.00238492 9.47517e-06
 -3.8106e-06 0.00117927 5.59651e-06
 -3.90956e-06 0.00101111 -3.91815e-06
 -4.29964e-06 0.00390786 4.51194e-06
 -4.29959e-06 0.00390797 -4.5285e-06
 -3.90964e-06 0.00101096 3.90134e-06
 -3.81082e-06 0.00107938 -5.61336e-06
 -3.81841e-06 0.00238452 -9.49223e-06
 4.98548e-06 0.000963972 9.32623e-06
 4.68659e-06 0.00346593 5.66231e-06
 4.51975e-06 0.00390775 -4.30834e-06
 4.80329e-06 0.00108501 4.79531e-06
 4.80328e-06 0.00108505 -4.81208e-06
 4.51983e-06 0.0039081 4.29159e-06
 4.68663e-06 0.00346584 -5.67868e-06
 4.98551e-06 0.000963779 -9.34354e-06
 -4.98529e-06 0.000963976 9.32623e-06
 -4.68658e-06 0.00346592 5.66197e-06
 -4.51969e-06 0.00390776 -4.30837e-06
 -4.80328e-06 0.00108498 4.79525e-06
 -4.80326e-06 0.00108503 -4.81201e-06
 -4.51984e-06 0.00390811 4.29163e-06
 -4.68664e-06 0.00346584 -5.67887e-06
 -4.98547e-06 0.000963782 -9.34308e-06
 3.81806e-06 0.00238486 9.47458e-06
 3.81064e-06 0.00117928 5.59609e-06
 3.90957e-06 0.0010111 -3.91833e-06
 4.29961e-06 0.00390788 4.51181e-06
 4.29958e-06 0.00390799 -4.52849e-06
 3.90967e-06 0.00101096 3.90152e-06
 3.81086e-06 0.00107946 -5.61298e-06
 3.81844e-06 0.00238454 -9.49166e-06
 -6.21804e-06 -0.00538189 9.47305e-06
 -5.91374e-06 0.00599625 5.90594e-06
 -5.60374e-06 0.00117939 -3.81958e-06
 -5.66778e-06 0.00346588 4.6784e-06
 -5.66778e-06 0.00346587 -4.69521e-06
 -5.60372e-06 0.0010794 3.80269e-06
 -5.91371e-06 0.00599721 -5.92295e-06
 -6.21802e-06 -0.00538183 -9.49017e-06
 -9.51716e-06 0.00187693 9.50928e-06
 -9.48063e-06 -0.00538188 6.21003e-06
 -9.48201e-06 0.00238474 -3.82743e-06
 -9.3349e-06 0.000963912 4.97732e-06
 -9.33489e-06 0.000963882 -4.99415e-06
 -9.48199e-06 0.00238463 3.81039e-06
 -9.48066e-06 -0.00538184 -6.22715e-06
 -9.51712e-06 0.00187677 -9.52657e-06
 5.80314e-06 -0.00316129 5.79419e-06
 6.0307e-06 -0.00218397 8.83849e-06
 6.11631e-06 0.00777401 -2.63748e-06
 6.84868e-06 0.00678696 2.63356e-06
 6.84885e-06 0.00678693 -2.6541e-06
 6.1169e-06 0.00777404 2.61666e-06
 6.03078e-06 -0.00218423 -8.85944e-06
 5.80334e-06 -0.00316087 -5.81506e-06
 8.84793e-06 -0.00218392 6.02191e-06
 8.53636e-06 0.00157398 8.52662e-06
 8.39654e-06 -0.00326214 -2.86298e-06
 7.61962e-06 0.00047014 2.94239e-06
 7.6195e-06 0.000470115 -2.96274e-06
 8.39593e-06 -0.00317183 2.84231e-06
 8.53624e-06 0.00157268 -8.54729e-06
 8.84779e-06 -0.00218428 -6.04278e-06
 -2.62756e-06 0.00777401 6.10746e-06
 -2.85318e-06 -0.00326213 8.3868e-06
 -2.34604e-06 -0.0103035 -2.35588e-06
 -1.91996e-06 -0.00993072 2.42743e-06
 -1.91995e-06 -0.00993082 -2.44778e-06
 -2.34607e-06 -0.0103036 2.33536e-06
 -2.85305e-06 -0.00317189 -8.40692e-06
 -2.6278e-06 0.00777405 -6.12861e-06
 2.64345e-06 0.00678701 6.83938e-06
 2.9523e-06 0.000470201 7.61008e-06
 2.43724e-06 -0.0099306 -1.92983e-06
 1.74132e-06 -0.00666497 1.73148e-06
 1.74132e-06 -0.00666499 -1.75183e-06
 2.43733e-06 -0.00993093 1.90949e-06
 2.95231e-06 0.000470069 -7.63061e-06
 2.64368e-06 0.00678687 -6.86013e-06
 -2.6434e-06 0.00678701 6.83922e-06
 -2.95226e-06 0.000470199 7.60998e-06
 -2.43729e-06 -0.00993061 -1.92988e-06
 -1.7413e-06 -0.00666495 1.73145e-06
 -1.7413e-06 -0.00666497 -1.75181e-06
 -2.4374e-06 -0.00993095 1.90955e-06
 -2.95223e-06 0.00047007 -7.63049e-06
 -2.64363e-06 0.00678686 -6.86004e-06
 2.62762e-06 0.00777405 6.10688e-06
 2.85322e-06 -0.00326214 8.3866e-06
 2.34613e-06 -0.0103035 -2.3561e-06
 1.92e-06 -0.00993071 2.42741e-06
 1.91998e-06 -0.00993083 -2.44777e-06
 2.34617e-06 -0.0103036 2.33556e-06
 2.8531e-06 -0.00317197 -8.40671e-06
 2.62784e-06 0.00777406 -6.12816e-06
 -8.84794e-06 -0.00218396 6.02109e-06
 -8.53634e-06 0.00157407 8.52617e-06
 -8.39662e-06 -0.00326226 -2.86324e-06
 -7.61961e-06 0.00047015 2.94224e-06
 -7.61952e-06 0.000470123 -2.96266e-06
 -8.39601e-06 -0.0031719 2.84253e-06
 -8.53603e-06 0.00157274 -8.54707e-06
 -8.84781e-06 -0.00218431 -6.04186e-06
 -5.80316e-06 -0.00316132 5.79323e-06
 -6.03075e-06 -0.00218401 8.83767e-06
 -6.11626e-06 0.00777408 -2.63783e-06
 -6.84875e-06 0.00678692 2.63333e-06
 -6.84888e-06 0.0067869 -2.65391e-06
 -6.11685e-06 0.00777408 2.61699e-06
 -6.03108e-06 -0.00218427 -8.85866e-06
 -5.80334e-06 -0.00316091 -5.81432e-06
 6.9338e-06 0.00872727 6.923e-06
 6.76188e-06 0.0122844 5.97372e-06
 6.97562e-06 0.00688145 -3.58921e-06
 5.9992e-06 -0.00354479 1.62812e-06
 5.99905e-06 -0.00354485 -1.65081e-06
 6.97521e-06 0.00688131 3.56644e-06
 6.76185e-06 0.0122845 -5.99664e-06
 6.93383e-06 0.00872663 -6.94608e-06
 5.98444e-06 0.0122843 6.7511e-06
 6.08482e-06 -0.00157791 6.07417e-06
 5.8171e-06 -0.0110025 -3.30256e-06
 4.12435e-06 0.00448862 9.02468e-07
 4.12444e-06 0.00448874 -9.24951e-07
 5.8174e-06 -0.0110109 3.28e-06
 6.08485e-06 -0.00157558 -6.09688e-06
 5.98432e-06 0.0122845 -6.77403e-06
 -3.57867e-06 0.00688154 6.96462e-06
 -3.29202e-06 -0.0110025 5.80669e-06
 -3.36134e-06 -0.000136612 -3.37157e-06
 -7.37953e-07 0.00599873 6.20454e-07
 -7.37824e-07 0.00599878 -6.42937e-07
 -3.36108e-06 -0.000136291 3.3492e-06
 -3.29188e-06 -0.0110109 -5.82969e-06
 -3.57852e-06 0.00688122 -6.98693e-06
 1.63928e-06 -0.0035447 5.98817e-06
 9.13503e-07 0.00448849 4.11463e-06
 6.31853e-07 0.00599869 -7.49032e-07
 5.26431e-07 0.00515182 5.15044e-07
 5.26373e-07 0.00515184 -5.37291e-07
 6.31623e-07 0.00599884 7.23634e-07
 9.13435e-07 0.00448894 -4.13437e-06
 1.63929e-06 -0.00354494 -6.01071e-06
 -1.63925e-06 -0.00354473 5.9881e-06
 -9.13469e-07 0.00448854 4.11518e-06
 -6.31838e-07 0.0059987 -7.49731e-07
 -5.26405e-07 0.00515177 5.15002e-07
 -5.26364e-07 0.00515181 -5.37262e-07
 -6.31587e-07 0.00599885 7.2395e-07
 -9.1345e-07 0.00448897 -4.13456e-06
 -1.63926e-06 -0.00354492 -6.01064e-06
 3.57872e-06 0.00688153 6.96447e-06
 3.29205e-06 -0.0110025 5.80625e-06
 3.36136e-06 -0.000136604 -3.37175e-06
 7.37171e-07 0.00599875 6.20461e-07
 7.37466e-07 0.0059988 -6.42875e-07
 3.36109e-06 -0.000136299 3.34933e-06
 3.2919e-06 -0.0110109 -5.82947e-06
 3.57854e-06 0.00688122 -6.98668e-06
 -5.98444e-06 0.0122844 6.75062e-06
 -6.08482e-06 -0.00157792 6.07374e-06
 -5.8171e-06 -0.0110026 -3.30273e-06
 -4.12366e-06 0.00448879 9.02297e-07
 -4.1241e-06 0.00448888 -9.24805e-07
 -5.81746e-06 -0.0110109 3.28015e-06
 -6.08483e-06 -0.00157566 -6.09652e-06
 -5.98432e-06 0.0122846 -6.77362e-06
 -6.93381e-06 0.0087273 6.92236e-06
 -6.76191e-06 0.0122844 5.9731e-06
 -6.97564e-06 0.00688144 -3.58954e-06
 -5.99915e-06 -0.0035448 1.62799e-06
 -5.99906e-06 -0.00354482 -1.65076e-06
 -6.97521e-06 0.00688131 3.56676e-06
 -6.76188e-06 0.0122846 -5.99613e-06
 -6.93385e-06 0.00872666 -6.94551e-06
 5.91546e-06 0.00790821 5.90405e-06
 5.71291e-06 0.00658789 2.94191e-06
 5.65855e-06 0.000957128 -2.30703e-06
 5.60927e-06 0.00493246 -8.4689e-07
 5.60914e-06 0.00493267 8.24501e-07
 5.6586e-06 0.000957206 2.28213e-06
 5.71282e-06 0.00658759 -2.96197e-06
 5.91551e-06 0.0079081 -5.92678e-06
 2.95899e-06 0.00658794 5.70178e-06
 -2.6024e-06 -0.000944237 -2.61137e-06
 -2.6359e-06 -0.000729526 3.46305e-06
 -2.15444e-06 -0.00609963 -1.19703e-06
 -2.15427e-06 -0.00609968 1.17494e-06
 -2.63583e-06 -0.000704773 -3.48772e-06
 -2.60401e-06 -0.00094602 2.59145e-06
 2.95889e-06 0.00658753 -5.72435e-06
 -2.30328e-06 0.000957106 5.64756e-06
 3.4751e-06 -0.000729463 -2.64593e-06
 3.5689e-06 0.0102491 3.55776e-06
 3.07382e-06 -0.00124725 -1.35467e-06
 3.07361e-06 -0.00124728 1.33253e-06
 3.56879e-06 0.010249 -3.57961e-06
 3.4773e-06 -0.000704809 2.62364e-06
 -2.30313e-06 0.000957229 -5.66999e-06
 -8.35676e-07 0.00493207 5.59814e-06