MercuryDPM 0.14 name oneDimChain revision 6406 repository https://svn.mercurydpm.org/SourceCode/Branches/OomphlibCouplingExplicit
dataFile    fileType ONE_FILE saveCount 62 counter 102 lastSavedTimeStep 6222
fStatFile   fileType ONE_FILE saveCount 62 counter 102 lastSavedTimeStep 6222
eneFile     fileType ONE_FILE saveCount 62 counter 102 lastSavedTimeStep 6222
restartFile fileType ONE_FILE saveCount 62 counter 102 lastSavedTimeStep 6222
statFile    fileType ONE_FILE saveCount 62 counter 0
interactionFile fileType NO_FILE saveCount 0 counter 0
xMin -500 xMax 500 yMin -5000 yMax 5000 zMin -500 zMax 500
timeStep 0.0160743783395346 time 100.01478202859 ntimeSteps 6222 timeMax 100
systemDimensions 3 particleDimensions 3 gravity 0 0 -0 writeVTK 1 MULTIPLE_FILES NO_FILE 102 102 0 0 random  0 1103515245 12345 1073741824 607 273 784607267
Species 1
LinearViscoelasticReversibleAdhesiveSpecies id 0 density 2500 stiffness 20000000000 dissipation -0 adhesionForceMax 0 adhesionStiffness 20000000000
Walls 0
Boundaries 0
Particles 960
BaseParticle id 0 indSpecies 0 position -300.000158488838 2099.7168381906 -300.000158112772 orientation 1 0 0 0 velocity 1.69441774123261e-05 0.0678610602106195 1.70483419179366e-05 angularVelocity 0 0 0 force 175949.787919591 180083575.514849 175452.366260882 torque 0 0 0 radius 100 invMass 9.54929658551372e-11
BaseParticle id 1 indSpecies 0 position -300.00008860359 2099.71451015085 -100.000145441264 orientation 1 0 0 0 velocity 1.61572967490293e-05 0.0159397971044349 -1.13078639114327e-05 angularVelocity 0 0 0 force 121318.655219053 54138676.0780076 60254.9222957364 torque 0 0 0 radius 100 invMass 9.54929658551372e-11
BaseParticle id 2 indSpecies 0 position -300.000088704249 2099.71451022197 100.00014541966 orientation 1 0 0 0 velocity 1.61374072576065e-05 0.01593986188644 1.13022562575703e-05 angularVelocity 0 0 0 force 121239.30289722 54138533.139952 -60253.4880168337 torque 0 0 0 radius 100 invMass 9.54929658551372e-11
BaseParticle id 3 indSpecies 0 position -300.000158871297 2099.71683788433 300.000158131797 orientation 1 0 0 0 velocity 1.68844328064932e-05 0.0678610985252175 -1.70463670303071e-05 angularVelocity 0 0 0 force 175761.372959581 180092661.903019 -175454.6683033 torque 0 0 0 radius 100 invMass 9.54929658551372e-11
BaseParticle id 4 indSpecies 0 position -100.000140864842 2099.71450988723 -300.000086907153 orientation 1 0 0 0 velocity -1.07875102529553e-05 0.0159396795690344 1.63288379411434e-05 angularVelocity 0 0 0 force 60461.6793911004 54143095.3589117 121038.569817627 torque 0 0 0 radius 100 invMass 9.54929658551372e-11
BaseParticle id 5 indSpecies 0 position -100.000023458971 2099.68453254811 -100.000023852684 orientation 1 0 0 0 velocity -8.91330270435855e-06 0.0377713320265801 -8.90669563815907e-06 angularVelocity 0 0 0 force 40232.7946049505 -288959464.441083 40090.785982596 torque 0 0 0 radius 100 invMass 9.54929658551372e-11
BaseParticle id 6 indSpecies 0 position -100.000023449586 2099.6845325578 100.000023801399 orientation 1 0 0 0 velocity -8.92916689878925e-06 0.0377711958972994 8.90015274611698e-06 angularVelocity 0 0 0 force 40209.7801249623 -288958684.377472 -40103.6050851405 torque 0 0 0 radius 100 invMass 9.54929658551372e-11
BaseParticle id 7 indSpecies 0 position -100.000140809431 2099.71451040697 300.000086957286 orientation 1 0 0 0 velocity -1.07691797406906e-05 0.0159400736043793 -1.63214021136163e-05 angularVelocity 0 0 0 force 60410.2151010025 54135125.8928402 -121051.874007197 torque 0 0 0 radius 100 invMass 9.54929658551372e-11
BaseParticle id 8 indSpecies 0 position 100.000140829904 2099.71451013968 -300.00008817076 orientation 1 0 0 0 velocity 1.07557708622657e-05 0.0159399800139127 1.62268200141712e-05 angularVelocity 0 0 0 force -60451.4410532227 54138844.8206071 121475.084899157 torque 0 0 0 radius 100 invMass 9.54929658551372e-11
BaseParticle id 9 indSpecies 0 position 100.000023380632 2099.6845324515 -100.000023694908 orientation 1 0 0 0 velocity 8.89212064535266e-06 0.0377715946847448 -8.96329458162065e-06 angularVelocity 0 0 0 force -40170.218880601 -288959331.446967 40265.6194423798 torque 0 0 0 radius 100 invMass 9.54929658551372e-11
BaseParticle id 10 indSpecies 0 position 100.00002340657 2099.68453248384 100.000023643448 orientation 1 0 0 0 velocity 8.92489687912472e-06 0.0377714649812721 8.95704050623126e-06 angularVelocity 0 0 0 force -40131.6503329305 -288958158.643571 -40279.3444993704 torque 0 0 0 radius 100 invMass 9.54929658551372e-11
BaseParticle id 11 indSpecies 0 position 100.000140800728 2099.71451041992 300.000088220858 orientation 1 0 0 0 velocity 1.077511791207e-05 0.015940156618829 -1.62189972807915e-05 angularVelocity 0 0 0 force -60356.904809363 54137133.4060159 -121487.17649525 torque 0 0 0 radius 100 invMass 9.54929658551372e-11
BaseParticle id 12 indSpecies 0 position 300.000158536644 2099.71683763884 -300.000158713159 orientation 1 0 0 0 velocity -1.68980655439365e-05 0.0678613350971404 1.69744042209077e-05 angularVelocity 0 0 0 force -175898.404761241 180089214.740901 176465.36833945 torque 0 0 0 radius 100 invMass 9.54929658551372e-11
BaseParticle id 13 indSpecies 0 position 300.000088683719 2099.71451039416 -100.000140742621 orientation 1 0 0 0 velocity -1.61201239596274e-05 0.0159402848715592 -1.07379074125978e-05 angularVelocity 0 0 0 force -121243.360870459 54135174.2748394 60676.0511759953 torque 0 0 0 radius 100 invMass 9.54929658551372e-11
BaseParticle id 14 indSpecies 0 position 300.000088744345 2099.71451043906 100.000140724719 orientation 1 0 0 0 velocity -1.61168755805389e-05 0.0159402315163375 1.07333612216596e-05 angularVelocity 0 0 0 force -121176.040681168 54135795.5370406 -60675.0792914194 torque 0 0 0 radius 100 invMass 9.54929658551372e-11
BaseParticle id 15 indSpecies 0 position 300.000158880585 2099.71683734792 300.000158727869 orientation 1 0 0 0 velocity -1.68754284917397e-05 0.0678613746318299 -1.69718513680856e-05 angularVelocity 0 0 0 force -175740.259882554 180098237.806546 -176462.854086329 torque 0 0 0 radius 100 invMass 9.54929658551372e-11
BaseParticle id 16 indSpecies 0 position -300.0001701527 2299.71200580373 -300.000170103734 orientation 1 0 0 0 velocity -1.76916982655891e-06 0.0122515320075381 -1.82385818297105e-06 angularVelocity 0 0 0 force 210143.192600082 33899604.9483111 209670.039530813 torque 0 0 0 radius 100 invMass 9.54929658551372e-11
BaseParticle id 17 indSpecies 0 position -300.000069598038 2299.70380243393 -100.000126380435 orientation 1 0 0 0 velocity 6.80881514674943e-06 0.0353638827075889 -4.83540164920301e-07 angularVelocity 0 0 0 force 149480.330505633 -29298351.8011065 74724.3245734539 torque 0 0 0 radius 100 invMass 9.54929658551372e-11
BaseParticle id 18 indSpecies 0 position -300.000070240532 2299.70380249519 100.00012637307 orientation 1 0 0 0 velocity 6.72683186727831e-06 0.0353636958604284 4.76359852155347e-07 angularVelocity 0 0 0 force 149341.971416901 -29298798.7269027 -74728.4397422445 torque 0 0 0 radius 100 invMass 9.54929658551372e-11
BaseParticle id 19 indSpecies 0 position -300.000168477689 2299.71200592537 300.000170102718 orientation 1 0 0 0 velocity -1.59848068709937e-06 0.012251753172928 1.82342671005044e-06 angularVelocity 0 0 0 force 209823.916701787 33887252.1538253 -209678.121952894 torque 0 0 0 radius 100 invMass 9.54929658551372e-11
BaseParticle id 20 indSpecies 0 position -100.000126927766 2299.7038023646 -300.000070630056 orientation 1 0 0 0 velocity -6.01604353463085e-07 0.035364314691543 6.68574736253556e-06 angularVelocity 0 0 0 force 74904.1855254258 -29295358.7959478 149455.965741242 torque 0 0 0 radius 100 invMass 9.54929658551372e-11
BaseParticle id 21 indSpecies 0 position -100.000036422831 2299.65761246468 -100.000034940918 orientation 1 0 0 0 velocity 6.10453597128583e-06 0.03990936218971 6.36581155821499e-06 angularVelocity 0 0 0 force 52891.4428474915 555577788.317131 52878.095189812 torque 0 0 0 radius 100 invMass 9.54929658551372e-11
BaseParticle id 22 indSpecies 0 position -100.000036344953 2299.65761250914 100.000035118627 orientation 1 0 0 0 velocity 6.1395189786496e-06 0.0399093104871587 -6.34052782253864e-06 angularVelocity 0 0 0 force 52842.9865170775 555572693.390712 -52897.6092972835 torque 0 0 0 radius 100 invMass 9.54929658551372e-11
BaseParticle id 23 indSpecies 0 position -100.000127369456 2299.70380249873 300.000070443577 orientation 1 0 0 0 velocity -7.04911968779981e-07 0.0353636489451612 -6.71356189797544e-06 angularVelocity 0 0 0 force 74787.3351496421 -29297329.7078214 -149478.471239143 torque 0 0 0 radius 100 invMass 9.54929658551372e-11
BaseParticle id 24 indSpecies 0 position 100.000128724188 2299.70380236496 -300.000072411103 orientation 1 0 0 0 velocity 8.41308066456521e-07 0.0353643875837171 6.51302728096219e-06 angularVelocity 0 0 0 force -74931.9726119665 -29293105.0301272 150186.201929154 torque 0 0 0 radius 100 invMass 9.54929658551372e-11
BaseParticle id 25 indSpecies 0 position 100.000036199388 2299.65761233825 -100.000034148291 orientation 1 0 0 0 velocity -6.14961815822579e-06 0.0399094067055405 6.52983125281514e-06 angularVelocity 0 0 0 force -52880.8246333271 555585540.978547 53180.0537420555 torque 0 0 0 radius 100 invMass 9.54929658551372e-11
BaseParticle id 26 indSpecies 0 position 100.000036283673 2299.65761242719 100.000034315354 orientation 1 0 0 0 velocity -6.15306022146699e-06 0.0399094452821803 -6.50631098378686e-06 angularVelocity 0 0 0 force -52820.7911321012 555583067.664292 -53200.4754634976 torque 0 0 0 radius 100 invMass 9.54929658551372e-11
BaseParticle id 27 indSpecies 0 position 100.000127367233 2299.70380256594 300.000072234952 orientation 1 0 0 0 velocity 7.03135276773804e-07 0.0353638388296533 -6.53842181174312e-06 angularVelocity 0 0 0 force -74791.8741578402 -29296278.993885 -150207.009651418 torque 0 0 0 radius 100 invMass 9.54929658551372e-11
BaseParticle id 28 indSpecies 0 position 300.000168372993 2299.71200540577 -300.000168280355 orientation 1 0 0 0 velocity 1.52838344122782e-06 0.0122503611064622 -1.39438412332685e-06 angularVelocity 0 0 0 force -210155.738235334 33933946.5765232 211424.011573985 torque 0 0 0 radius 100 invMass 9.54929658551372e-11
BaseParticle id 29 indSpecies 0 position 300.000069833588 2299.70380242525 -100.0001275507 orientation 1 0 0 0 velocity -6.76286429129166e-06 0.0353641001990562 -6.56761748098832e-07 angularVelocity 0 0 0 force -149463.406485347 -29292620.3558206 75437.6835350733 torque 0 0 0 radius 100 invMass 9.54929658551372e-11
BaseParticle id 30 indSpecies 0 position 300.000070310004 2299.70380250422 100.000127545909 orientation 1 0 0 0 velocity -6.71251971685933e-06 0.0353640618477539 6.50559117955608e-07 angularVelocity 0 0 0 force -149335.368850053 -29294908.5164038 -75442.383413816 torque 0 0 0 radius 100 invMass 9.54929658551372e-11
BaseParticle id 31 indSpecies 0 position 300.000168485001 2299.71200555746 300.000168276579 orientation 1 0 0 0 velocity 1.59781615430154e-06 0.0122508300557963 1.39453153171773e-06 angularVelocity 0 0 0 force -209857.800857356 33915696.2618653 -211426.539067893 torque 0 0 0 radius 100 invMass 9.54929658551372e-11
BaseParticle id 32 indSpecies 0 position -300.000004944958 2499.69946328991 -300.000004656033 orientation 1 0 0 0 velocity 7.02883058918108e-06 0.0174450731974036 7.43602502826516e-06 angularVelocity 0 0 0 force 28037.8148518997 207227909.639036 29910.8516675664 torque 0 0 0 radius 100 invMass 9.54929658551372e-11
BaseParticle id 33 indSpecies 0 position -300.000047606056 2499.68295345278 -100.000010420686 orientation 1 0 0 0 velocity 6.49587804416462e-07 0.0286616580230694 3.73217752976493e-06 angularVelocity 0 0 0 force 88034.3220361811 18379724.0567958 148847.94732327 torque 0 0 0 radius 100 invMass 9.54929658551372e-11
BaseParticle id 34 indSpecies 0 position -300.000047647302 2499.68295347577 100.000010417495 orientation 1 0 0 0 velocity 6.45280586717789e-07 0.0286616299138982 -3.77522613019084e-06 angularVelocity 0 0 0 force 87880.3381557209 18381041.3803225 -148865.835991116 torque 0 0 0 radius 100 invMass 9.54929658551372e-11
BaseParticle id 35 indSpecies 0 position -300.000005090424 2499.69946319411 300.000004651811 orientation 1 0 0 0 velocity 7.4679376319291e-06 0.017445110037398 -7.3993682141931e-06 angularVelocity 0 0 0 force 30320.3057590299 207235284.338131 -29891.9204837008 torque 0 0 0 radius 100 invMass 9.54929658551372e-11
BaseParticle id 36 indSpecies 0 position -100.000010821397 2499.68295369235 -300.000047625702 orientation 1 0 0 0 velocity 3.98292307004966e-06 0.0286618805679364 6.71755796758456e-07 angularVelocity 0 0 0 force 151221.587055509 18371638.5884604 88274.7657534887 torque 0 0 0 radius 100 invMass 9.54929658551372e-11
BaseParticle id 37 indSpecies 0 position -100.000015281022 2499.6500637393 -100.000014899005 orientation 1 0 0 0 velocity 7.81473130786872e-06 0.0170279155282943 7.90040587998652e-06 angularVelocity 0 0 0 force 30961.7344107351 -37717638.4978622 31053.2770320827 torque 0 0 0 radius 100 invMass 9.54929658551372e-11
BaseParticle id 38 indSpecies 0 position -100.000015351037 2499.65006356424 100.00001489364 orientation 1 0 0 0 velocity 7.80332074381025e-06 0.0170275056123225 -7.90052520330887e-06 angularVelocity 0 0 0 force 30901.4844845834 -37714748.0625222 -31069.8021090905 torque 0 0 0 radius 100 invMass 9.54929658551372e-11
BaseParticle id 39 indSpecies 0 position -100.000010834102 2499.68295336151 300.00004762451 orientation 1 0 0 0 velocity 3.55259613764206e-06 0.0286616358123377 -6.72054033960128e-07 angularVelocity 0 0 0 force 148422.300845027 18385199.35603 -88293.3561617999 torque 0 0 0 radius 100 invMass 9.54929658551372e-11
BaseParticle id 40 indSpecies 0 position 100.000010830186 2499.68295352719 -300.000046817569 orientation 1 0 0 0 velocity -4.04600712027238e-06 0.0286618701799107 8.95570733482683e-07 angularVelocity 0 0 0 force -151429.65517846 18377618.6789347 89213.7177515889 torque 0 0 0 radius 100 invMass 9.54929658551372e-11
BaseParticle id 41 indSpecies 0 position 100.000015157272 2499.65006392399 -100.000015411596 orientation 1 0 0 0 velocity -7.8531023483823e-06 0.017028607369025 7.82498158561522e-06 angularVelocity 0 0 0 force -30982.8247340283 -37720851.7610037 31428.9461830774 torque 0 0 0 radius 100 invMass 9.54929658551372e-11
BaseParticle id 42 indSpecies 0 position 100.00001533807 2499.65006394122 100.000015407653 orientation 1 0 0 0 velocity -7.80764562659902e-06 0.0170285317449777 -7.82467666810194e-06 angularVelocity 0 0 0 force -30916.6459336169 -37719477.922327 -31445.7729625402 torque 0 0 0 radius 100 invMass 9.54929658551372e-11
BaseParticle id 43 indSpecies 0 position 100.000010838437 2499.68295349178 300.000046813935 orientation 1 0 0 0 velocity -3.61094128901719e-06 0.0286616620798568 -8.95638962981323e-07 angularVelocity 0 0 0 force -148568.903083169 18384654.5079611 -89229.8592855373 torque 0 0 0 radius 100 invMass 9.54929658551372e-11
BaseParticle id 44 indSpecies 0 position 300.000004946151 2499.69946458192 -300.000006618656 orientation 1 0 0 0 velocity -6.98159399793265e-06 0.0174399457654606 4.08166602236797e-06 angularVelocity 0 0 0 force -27940.8290647127 207124173.541589 32281.9973060846 torque 0 0 0 radius 100 invMass 9.54929658551372e-11
BaseParticle id 45 indSpecies 0 position 300.000047743972 2499.68295341032 -100.000012376852 orientation 1 0 0 0 velocity -6.23454880375324e-07 0.028661823661109 6.45271355732897e-06 angularVelocity 0 0 0 force -88063.2411088294 18382915.3217856 149625.885538756 torque 0 0 0 radius 100 invMass 9.54929658551372e-11
BaseParticle id 46 indSpecies 0 position 300.000047672027 2499.68295340808 100.000012367802 orientation 1 0 0 0 velocity -6.52934594699081e-07 0.0286616913376995 -6.4621111069565e-06 angularVelocity 0 0 0 force -87914.2088984856 18385842.1741062 -149436.40404984 torque 0 0 0 radius 100 invMass 9.54929658551372e-11
BaseParticle id 47 indSpecies 0 position 300.000005089352 2499.69946425889 300.000006618933 orientation 1 0 0 0 velocity -7.42483176171507e-06 0.0174400484550327 -4.07712690952164e-06 angularVelocity 0 0 0 force -30279.326866482 207139078.114981 -32462.5132016157 torque 0 0 0 radius 100 invMass 9.54929658551372e-11
BaseParticle id 48 indSpecies 0 position -300.000152149061 2699.69246575494 -300.000152242079 orientation 1 0 0 0 velocity -1.47267610963895e-05 0.0152519767572588 -1.47531477741036e-05 angularVelocity 0 0 0 force -32286.0767227597 170378022.566347 -32095.0795038299 torque 0 0 0 radius 100 invMass 9.54929658551372e-11
BaseParticle id 49 indSpecies 0 position -300.000176970024 2699.66085093808 -100.000127472394 orientation 1 0 0 0 velocity -1.76642038996651e-05 0.0159030432248846 1.31284584448816e-05 angularVelocity 0 0 0 force -43445.1362059965 500290363.715072 -14123.7688815103 torque 0 0 0 radius 100 invMass 9.54929658551372e-11
BaseParticle id 50 indSpecies 0 position -300.000177024998 2699.66085098114 100.000127474406 orientation 1 0 0 0 velocity -1.77191498735077e-05 0.0159031861877755 -1.31293479817882e-05 angularVelocity 0 0 0 force -43457.1740323982 500290080.710437 14137.2567105459 torque 0 0 0 radius 100 invMass 9.54929658551372e-11
BaseParticle id 51 indSpecies 0 position -300.00015221832 2699.69246579634 300.000152238696 orientation 1 0 0 0 velocity -1.47609040570173e-05 0.0152516620585931 1.47511100610842e-05 angularVelocity 0 0 0 force -32309.7529415904 170370551.183765 32104.576361347 torque 0 0 0 radius 100 invMass 9.54929658551372e-11
BaseParticle id 52 indSpecies 0 position -100.000127742841 2699.66085106251 -300.000176962827 orientation 1 0 0 0 velocity 1.30527849007925e-05 0.0159026752854799 -1.7654644713688e-05 angularVelocity 0 0 0 force -14219.8951772357 500292200.396934 -42931.3118737994 torque 0 0 0 radius 100 invMass 9.54929658551372e-11
BaseParticle id 53 indSpecies 0 position -100.000133438364 2699.63631743394 -100.00013309287 orientation 1 0 0 0 velocity 1.44034057115821e-05 0.00833278925781294 1.45038030982094e-05 angularVelocity 0 0 0 force -18417.2716190955 345972659.106736 -18200.3871773798 torque 0 0 0 radius 100 invMass 9.54929658551372e-11
BaseParticle id 54 indSpecies 0 position -100.000133224491 2699.6363172038 100.000133096909 orientation 1 0 0 0 velocity 1.4483608030475e-05 0.00833314388098928 -1.45020549774913e-05 angularVelocity 0 0 0 force -18421.3906722846 345973750.69615 18194.9003407099 torque 0 0 0 radius 100 invMass 9.54929658551372e-11
BaseParticle id 55 indSpecies 0 position -100.000127440714 2699.66085094902 300.000176961966 orientation 1 0 0 0 velocity 1.31327884336058e-05 0.0159031477988294 1.7655958038909e-05 angularVelocity 0 0 0 force -14228.8745172835 500288445.966784 42923.3672106475 torque 0 0 0 radius 100 invMass 9.54929658551372e-11
BaseParticle id 56 indSpecies 0 position 100.000127677803 2699.66085102143 -300.000176915956 orientation 1 0 0 0 velocity -1.31255983930218e-05 0.0159025660583596 -1.76001451483183e-05 angularVelocity 0 0 0 force 14136.4246605866 500289567.924875 -42278.4684554934 torque 0 0 0 radius 100 invMass 9.54929658551372e-11
BaseParticle id 57 indSpecies 0 position 100.000133438202 2699.63631771476 -100.00013309091 orientation 1 0 0 0 velocity -1.44023411275122e-05 0.00833223246609917 1.45498012226073e-05 angularVelocity 0 0 0 force 18357.4387756993 345970579.922773 -17934.0523175882 torque 0 0 0 radius 100 invMass 9.54929658551372e-11
BaseParticle id 58 indSpecies 0 position 100.000133228882 2699.63631772802 100.000133094031 orientation 1 0 0 0 velocity -1.44852360780205e-05 0.00833234368137033 -1.4547815701837e-05 angularVelocity 0 0 0 force 18363.5683320881 345970758.429636 17929.4304516938 torque 0 0 0 radius 100 invMass 9.54929658551372e-11
BaseParticle id 59 indSpecies 0 position 100.000127445454 2699.66085109357 300.000176914679 orientation 1 0 0 0 velocity -1.31393227343464e-05 0.01590307193013 1.76017450699896e-05 angularVelocity 0 0 0 force 14151.595436556 500287864.910563 42273.6097015644 torque 0 0 0 radius 100 invMass 9.54929658551372e-11
BaseParticle id 60 indSpecies 0 position 300.000152226317 2699.69246369594 -300.000152111812 orientation 1 0 0 0 velocity 1.47843857596982e-05 0.0152581464107417 -1.46175901599554e-05 angularVelocity 0 0 0 force 32189.3726811314 170511892.549302 -30516.736721086 torque 0 0 0 radius 100 invMass 9.54929658551372e-11
BaseParticle id 61 indSpecies 0 position 300.000176989945 2699.66085098973 -100.000127477848 orientation 1 0 0 0 velocity 1.76505451594528e-05 0.0159027037577224 1.32393747976991e-05 angularVelocity 0 0 0 force 43370.2352518239 500287880.587971 -13475.7392401837 torque 0 0 0 radius 100 invMass 9.54929658551372e-11
BaseParticle id 62 indSpecies 0 position 300.000177039965 2699.66085104598 100.000127479212 orientation 1 0 0 0 velocity 1.77088636553179e-05 0.0159028949705904 -1.32398562182599e-05 angularVelocity 0 0 0 force 43382.9249972233 500286945.036887 13492.3856906861 torque 0 0 0 radius 100 invMass 9.54929658551372e-11
BaseParticle id 63 indSpecies 0 position 300.000152223774 2699.69246364323 300.00015210733 orientation 1 0 0 0 velocity 1.47538878032418e-05 0.0152574478229794 1.46163340766961e-05 angularVelocity 0 0 0 force 32215.0622091509 170496366.768474 30534.8123579033 torque 0 0 0 radius 100 invMass 9.54929658551372e-11
BaseParticle id 64 indSpecies 0 position -300.000093856182 2899.68988625794 -300.000093697834 orientation 1 0 0 0 velocity -5.54770207863652e-06 -0.00570742924517458 -5.46813370180202e-06 angularVelocity 0 0 0 force -100228.80796204 130225247.276346 -99362.121078206 torque 0 0 0 radius 100 invMass 9.54929658551372e-11
BaseParticle id 65 indSpecies 0 position -300.000065730656 2899.6721860388 -100.000064925566 orientation 1 0 0 0 velocity 5.69979274753698e-06 -0.00840443731387488 1.55753154725428e-05 angularVelocity 0 0 0 force -228191.748181191 82610170.5766072 -39923.9242044439 torque 0 0 0 radius 100 invMass 9.54929658551372e-11
BaseParticle id 66 indSpecies 0 position -300.000066471029 2899.67218598154 100.000064926973 orientation 1 0 0 0 velocity 6.69720682386285e-06 -0.00840444123783428 -1.55756425901301e-05 angularVelocity 0 0 0 force -224328.795194756 82610132.1839759 39933.0743970815 torque 0 0 0 radius 100 invMass 9.54929658551372e-11
BaseParticle id 67 indSpecies 0 position -300.000093546962 2899.68988606154 300.000093700021 orientation 1 0 0 0 velocity -5.47800071062909e-06 -0.00570740274186713 5.46644971136143e-06 angularVelocity 0 0 0 force -99763.6222946372 130229386.066315 99368.6113942526 torque 0 0 0 radius 100 invMass 9.54929658551372e-11
BaseParticle id 68 indSpecies 0 position -100.000065946151 2899.67218627668 -300.000066108459 orientation 1 0 0 0 velocity 1.54974461922951e-05 -0.00840440957359137 6.304005245659e-06 angularVelocity 0 0 0 force -40288.4826630918 82609926.2222847 -226150.134147086 torque 0 0 0 radius 100 invMass 9.54929658551372e-11
BaseParticle id 69 indSpecies 0 position -100.000074797729 2899.64211933987 -100.000075111713 orientation 1 0 0 0 velocity 6.01434645350802e-06 -0.00845856039020215 5.51778014181199e-06 angularVelocity 0 0 0 force 98885.5904436986 80886436.4700809 97926.3496672291 torque 0 0 0 radius 100 invMass 9.54929658551372e-11
BaseParticle id 70 indSpecies 0 position -100.000075354406 2899.6421190675 100.000075117016 orientation 1 0 0 0 velocity 5.03375034662839e-06 -0.0084586082215421 -5.51805037102783e-06 angularVelocity 0 0 0 force 95286.4022676316 80886402.1001701 -97925.9345233044 torque 0 0 0 radius 100 invMass 9.54929658551372e-11
BaseParticle id 71 indSpecies 0 position -100.00006495583 2899.67218558636 300.000066114019 orientation 1 0 0 0 velocity 1.55731173920337e-05 -0.00840452906556613 -6.30102358838207e-06 angularVelocity 0 0 0 force -40102.6710946523 82609844.8548605 226140.964122746 torque 0 0 0 radius 100 invMass 9.54929658551372e-11
BaseParticle id 72 indSpecies 0 position 100.000065942867 2899.6721861469 -300.000066074023 orientation 1 0 0 0 velocity -1.54973060777641e-05 -0.00840445427232467 6.31046175105793e-06 angularVelocity 0 0 0 force 40224.7560948698 82609422.8587236 -226068.60491005 torque 0 0 0 radius 100 invMass 9.54929658551372e-11
BaseParticle id 73 indSpecies 0 position 100.000074805288 2899.64211980031 -100.000075083893 orientation 1 0 0 0 velocity -6.0532087386233e-06 -0.00845846790849846 5.54903557480148e-06 angularVelocity 0 0 0 force -98983.395529407 80885992.464209 98149.2725967834 torque 0 0 0 radius 100 invMass 9.54929658551372e-11
BaseParticle id 74 indSpecies 0 position 100.000075364023 2899.64211975786 100.000075088642 orientation 1 0 0 0 velocity -5.06186050482678e-06 -0.00845847102870262 -5.55118930917285e-06 angularVelocity 0 0 0 force -95450.9083185106 80885970.5195274 -98148.32879288 torque 0 0 0 radius 100 invMass 9.54929658551372e-11
BaseParticle id 75 indSpecies 0 position 100.000064955655 2899.6721861392 300.00006607891 orientation 1 0 0 0 velocity -1.55738553986395e-05 -0.0084044278907285 -6.30538133835992e-06 angularVelocity 0 0 0 force 40041.1439600781 82609371.1141043 226063.486732167 torque 0 0 0 radius 100 invMass 9.54929658551372e-11
BaseParticle id 76 indSpecies 0 position 300.000093865487 2899.68988758209 -300.000093628177 orientation 1 0 0 0 velocity 5.5433551850269e-06 -0.00570839797445 -5.41688252857826e-06 angularVelocity 0 0 0 force 100154.695305043 130163947.160888 -98854.270532665 torque 0 0 0 radius 100 invMass 9.54929658551372e-11
BaseParticle id 77 indSpecies 0 position 300.000065735914 2899.67218585435 -100.000064843188 orientation 1 0 0 0 velocity -5.66428120006641e-06 -0.00840450785729263 1.56153743965253e-05 angularVelocity 0 0 0 force 228180.728523883 82609136.7918056 -39712.4228320114 torque 0 0 0 radius 100 invMass 9.54929658551372e-11
BaseParticle id 78 indSpecies 0 position 300.000066474995 2899.67218590726 100.000064842698 orientation 1 0 0 0 velocity -6.67188191453684e-06 -0.00840448379024106 -1.56145747506534e-05 angularVelocity 0 0 0 force 224387.511484265 82609128.5795906 39726.1132460684 torque 0 0 0 radius 100 invMass 9.54929658551372e-11
BaseParticle id 79 indSpecies 0 position 300.000093554582 2899.68988702754 300.000093630761 orientation 1 0 0 0 velocity 5.47589030410983e-06 -0.00570838349982017 5.41447939050584e-06 angularVelocity 0 0 0 force 99696.1353142812 130172849.090593 98868.7619908313 torque 0 0 0 radius 100 invMass 9.54929658551372e-11
BaseParticle id 80 indSpecies 0 position -300.000020580658 3099.6962936208 -300.000020701614 orientation 1 0 0 0 velocity 1.42701030859956e-05 -0.0100248126561353 1.18762013127919e-05 angularVelocity 0 0 0 force -246105.024526516 31473917.9558537 -250496.231387385 torque 0 0 0 radius 100 invMass 9.54929658551372e-11
BaseParticle id 81 indSpecies 0 position -300.000087663419 3099.68149477283 -100.000030945043 orientation 1 0 0 0 velocity 1.20703544993151e-05 -0.0124373610311682 1.36493298725793e-05 angularVelocity 0 0 0 force -47213.4716412976 31137364.2645619 169945.262521345 torque 0 0 0 radius 100 invMass 9.54929658551372e-11
BaseParticle id 82 indSpecies 0 position -300.000092630809 3099.68149478981 100.000030948977 orientation 1 0 0 0 velocity 1.18362940488081e-05 -0.0124373654301747 -1.36589301125577e-05 angularVelocity 0 0 0 force -46971.8648985435 31137291.7147333 -169929.905374115 torque 0 0 0 radius 100 invMass 9.54929658551372e-11
BaseParticle id 83 indSpecies 0 position -300.000020418762 3099.6962939311 300.000020706311 orientation 1 0 0 0 velocity 1.25371931366661e-05 -0.0100247259673484 -1.18669056272086e-05 angularVelocity 0 0 0 force -250820.992382371 31473743.1238616 250477.325427689 torque 0 0 0 radius 100 invMass 9.54929658551372e-11
BaseParticle id 84 indSpecies 0 position -100.000030556604 3099.68149467002 -300.000091474467 orientation 1 0 0 0 velocity 1.11723293392467e-05 -0.0124373898787324 1.19270037167609e-05 angularVelocity 0 0 0 force 164210.797305449 31137287.2040177 -46489.3691163082 torque 0 0 0 radius 100 invMass 9.54929658551372e-11
BaseParticle id 85 indSpecies 0 position -100.000057798675 3099.65874527198 -100.000057251391 orientation 1 0 0 0 velocity 8.55983304037332e-06 -0.0101922018154121 8.65437253587471e-06 angularVelocity 0 0 0 force -20450.9904237524 30730875.3793122 -20164.6941222313 torque 0 0 0 radius 100 invMass 9.54929658551372e-11
BaseParticle id 86 indSpecies 0 position -100.000057715557 3099.65874569713 100.000057261645 orientation 1 0 0 0 velocity 8.62305984481822e-06 -0.0101920654555471 -8.65249355366963e-06 angularVelocity 0 0 0 force -20353.857068206 30730800.9057151 20159.2729495832 torque 0 0 0 radius 100 invMass 9.54929658551372e-11
BaseParticle id 87 indSpecies 0 position -100.000030659909 3099.68149487842 300.000091480641 orientation 1 0 0 0 velocity 1.29944316479468e-05 -0.0124373582882295 -1.19264255902915e-05 angularVelocity 0 0 0 force 169752.136587515 31137106.9527214 46482.0222567684 torque 0 0 0 radius 100 invMass 9.54929658551372e-11
BaseParticle id 88 indSpecies 0 position 100.000030552184 3099.68149463495 -300.000091463508 orientation 1 0 0 0 velocity -1.1100475236362e-05 -0.0124374083445575 1.19290512077806e-05 angularVelocity 0 0 0 force -164124.232771543 31137045.5873197 -46471.5401847183 torque 0 0 0 radius 100 invMass 9.54929658551372e-11
BaseParticle id 89 indSpecies 0 position 100.000057256092 3099.65874472525 -100.000057244243 orientation 1 0 0 0 velocity -8.57784908348395e-06 -0.0101923781945411 8.65520223703932e-06 angularVelocity 0 0 0 force 20462.6030892936 30730660.1313239 -20156.8857860972 torque 0 0 0 radius 100 invMass 9.54929658551372e-11
BaseParticle id 90 indSpecies 0 position 100.000057732376 3099.65874483455 100.000057252752 orientation 1 0 0 0 velocity -8.62173658167662e-06 -0.0101923521601294 -8.65370912009426e-06 angularVelocity 0 0 0 force 20365.7354727214 30730582.1003455 20152.6029026914 torque 0 0 0 radius 100 invMass 9.54929658551372e-11