<?xml version="1.0"?>
<!-- time 78.234-->
<VTKFile type="UnstructuredGrid" version="0.1" byte_order="LittleEndian">
<UnstructuredGrid>
<Piece NumberOfPoints="960" NumberOfCells="0">
<Points>
  <DataArray type="Float32" Name="Position" NumberOfComponents="3" format="ascii">
	-300 2099.66 -300
	-300 2099.65 -100
	-300 2099.65 100
	-300 2099.66 300
	-100 2099.65 -300
	-100 2099.51 -100
	-100 2099.51 100
	-100 2099.65 300
	100 2099.65 -300
	100 2099.51 -100
	100 2099.51 100
	100 2099.65 300
	300 2099.66 -300
	300 2099.65 -100
	300 2099.65 100
	300 2099.66 300
	-300 2299.66 -300
	-300 2299.67 -100
	-300 2299.67 100
	-300 2299.66 300
	-100 2299.67 -300
	-100 2299.54 -100
	-100 2299.54 100
	-100 2299.67 300
	100 2299.67 -300
	100 2299.54 -100
	100 2299.54 100
	100 2299.67 300
	300 2299.66 -300
	300 2299.67 -100
	300 2299.67 100
	300 2299.66 300
	-300 2499.68 -300
	-300 2499.67 -100
	-300 2499.67 100
	-300 2499.68 300
	-100 2499.67 -300
	-100 2499.63 -100
	-100 2499.63 100
	-100 2499.67 300
	100 2499.67 -300
	100 2499.63 -100
	100 2499.63 100
	100 2499.67 300
	300 2499.68 -300
	300 2499.67 -100
	300 2499.67 100
	300 2499.68 300
	-300 2699.68 -300
	-300 2699.67 -100
	-300 2699.67 100
	-300 2699.68 300
	-100 2699.67 -300
	-100 2699.64 -100
	-100 2699.64 100
	-100 2699.67 300
	100 2699.67 -300
	100 2699.64 -100
	100 2699.64 100
	100 2699.67 300
	300 2699.68 -300
	300 2699.67 -100
	300 2699.67 100
	300 2699.68 300
	-300 2899.68 -300
	-300 2899.67 -100
	-300 2899.67 100
	-300 2899.68 300
	-100 2899.67 -300
	-100 2899.64 -100
	-100 2899.64 100
	-100 2899.67 300
	100 2899.67 -300
	100 2899.64 -100
	100 2899.64 100
	100 2899.67 300
	300 2899.68 -300
	300 2899.67 -100
	300 2899.67 100
	300 2899.68 300
	-300 3099.68 -300
	-300 3099.67 -100
	-300 3099.67 100
	-300 3099.68 300
	-100 3099.67 -300
	-100 3099.64 -100
	-100 3099.64 100
	-100 3099.67 300
	100 3099.67 -300
	100 3099.64 -100
	100 3099.64 100
	100 3099.67 300
	300 3099.68 -300
	300 3099.67 -100
	300 3099.67 100
	300 3099.68 300
	-300 3299.69 -300
	-300 3299.67 -100
	-300 3299.67 100
	-300 3299.69 300
	-100 3299.67 -300
	-100 3299.64 -100
	-100 3299.64 100
	-100 3299.67 300
	100 3299.67 -300
	100 3299.64 -100
	100 3299.64 100
	100 3299.67 300
	300 3299.69 -300
	300 3299.67 -100
	300 3299.67 100
	300 3299.69 300
	-300 3499.69 -300
	-300 3499.67 -100
	-300 3499.67 100
	-300 3499.69 300
	-100 3499.67 -300
	-100 3499.64 -100
	-100 3499.64 100
	-100 3499.67 300
	100 3499.67 -300
	100 3499.64 -100
	100 3499.64 100
	100 3499.67 300
	300 3499.69 -300
	300 3499.67 -100
	300 3499.67 100
	300 3499.69 300
	-300 3699.69 -300
	-300 3699.67 -100
	-300 3699.67 100
	-300 3699.69 300
	-100 3699.67 -300
	-100 3699.64 -100
	-100 3699.64 100
	-100 3699.67 300
	100 3699.67 -300
	100 3699.64 -100
	100 3699.64 100
	100 3699.67 300
	300 3699.69 -300
	300 3699.67 -100
	300 3699.67 100
	300 3699.69 300
	-300 3899.69 -300
	-300 3899.67 -100
	-300 3899.67 100
	-300 3899.69 300
	-100 3899.67 -300
	-100 3899.64 -100
	-100 3899.64 100
	-100 3899.67 300
	100 3899.67 -300
	100 3899.64 -100
	100 3899.64 100
	100 3899.67 300
	300 3899.69 -300
	300 3899.67 -100
	300 3899.67 100
	300 3899.69 300
	-300 4099.69 -300
	-300 4099.67 -100
	-300 4099.67 100
	-300 4099.69 300
	-100 4099.67 -300
	-100 4099.64 -100
	-100 4099.64 100
	-100 4099.67 300
	100 4099.67 -300
	100 4099.64 -100
	100 4099.64 100
	100 4099.67 300
	300 4099.69 -300
	300 4099.67 -100
	300 4099.67 100
	300 4099.69 300
	-300 4299.69 -300
	-300 4299.67 -100
	-300 4299.67 100
	-300 4299.69 300
	-100 4299.67 -300
	-100 4299.64 -100
	-100 4299.64 100
	-100 4299.67 300
	100 4299.67 -300
	100 4299.64 -100
	100 4299.64 100
	100 4299.67 300
	300 4299.69 -300
	300 4299.67 -100
	300 4299.67 100
	300 4299.69 300
	-300 4499.69 -300
	-300 4499.67 -100
	-300 4499.67 100
	-300 4499.69 300
	-100 4499.67 -300
	-100 4499.64 -100
	-100 4499.64 100
	-100 4499.67 300
	100 4499.67 -300
	100 4499.64 -100
	100 4499.64 100
	100 4499.67 300
	300 4499.69 -300
	300 4499.67 -100
	300 4499.67 100
	300 4499.69 300
	-300 4699.69 -300
	-300 4699.67 -100
	-300 4699.67 100
	-300 4699.69 300
	-100 4699.67 -300
	-100 4699.65 -100
	-100 4699.65 100
	-100 4699.67 300
	100 4699.67 -300
	100 4699.65 -100
	100 4699.65 100
	100 4699.67 300
	300 4699.69 -300
	300 4699.67 -100
	300 4699.67 100
	300 4699.69 300
	-300 4899.69 -300
	-300 4899.67 -100
	-300 4899.67 100
	-300 4899.69 300
	-100 4899.67 -300
	-100 4899.65 -100
	-100 4899.65 100
	-100 4899.67 300
	100 4899.67 -300
	100 4899.65 -100
	100 4899.65 100
	100 4899.67 300
	300 4899.69 -300
	300 4899.67 -100
	300 4899.67 100
	300 4899.69 300
	-300 5099.69 -300
	-300 5099.68 -100
	-300 5099.68 100
	-300 5099.69 300
	-100 5099.68 -300
	-100 5099.67 -100
	-100 5099.67 100
	-100 5099.68 300
	100 5099.68 -300
	100 5099.67 -100
	100 5099.67 100
	100 5099.68 300
	300 5099.69 -300
	300 5099.68 -100
	300 5099.68 100
	300 5099.69 300
	-300 5299.7 -300
	-300 5299.68 -100
	-300 5299.68 100
	-300 5299.7 300
	-100 5299.68 -300
	-100 5299.67 -100
	-100 5299.67 100
	-100 5299.68 300
	100 5299.68 -300
	100 5299.67 -100
	100 5299.67 100
	100 5299.68 300
	300 5299.7 -300
	300 5299.68 -100
	300 5299.68 100
	300 5299.7 300
	-300 5499.71 -300
	-300 5499.69 -100
	-300 5499.69 100
	-300 5499.71 300
	-100 5499.69 -300
	-100 5499.68 -100
	-100 5499.68 100
	-100 5499.69 300
	100 5499.69 -300
	100 5499.68 -100
	100 5499.68 100
	100 5499.69 300
	300 5499.71 -300
	300 5499.69 -100
	300 5499.69 100
	300 5499.71 300
	-300 5699.71 -300
	-300 5699.69 -100
	-300 5699.69 100
	-300 5699.71 300
	-100 5699.69 -300
	-100 5699.68 -100
	-100 5699.68 100
	-100 5699.69 300
	100 5699.69 -300
	100 5699.68 -100
	100 5699.68 100
	100 5699.69 300
	300 5699.71 -300
	300 5699.69 -100
	300 5699.69 100
	300 5699.71 300
	-300 5899.71 -300
	-300 5899.69 -100
	-300 5899.69 100
	-300 5899.71 300
	-100 5899.69 -300
	-100 5899.68 -100
	-100 5899.68 100
	-100 5899.69 300
	100 5899.69 -300
	100 5899.68 -100
	100 5899.68 100
	100 5899.69 300
	300 5899.71 -300
	300 5899.69 -100
	300 5899.69 100
	300 5899.71 300
	-300 6099.71 -300
	-300 6099.69 -100
	-300 6099.69 100
	-300 6099.71 300
	-100 6099.69 -300
	-100 6099.68 -100
	-100 6099.68 100
	-100 6099.69 300
	100 6099.69 -300
	100 6099.68 -100
	100 6099.68 100
	100 6099.69 300
	300 6099.71 -300
	300 6099.69 -100
	300 6099.69 100
	300 6099.71 300
	-300 6299.71 -300
	-300 6299.69 -100
	-300 6299.69 100
	-300 6299.71 300
	-100 6299.69 -300
	-100 6299.68 -100
	-100 6299.68 100
	-100 6299.69 300
	100 6299.69 -300
	100 6299.68 -100
	100 6299.68 100
	100 6299.69 300
	300 6299.71 -300
	300 6299.69 -100
	300 6299.69 100
	300 6299.71 300
	-300 6499.75 -300
	-300 6499.7 -100
	-300 6499.7 100
	-300 6499.75 300
	-100 6499.7 -300
	-100 6499.7 -100
	-100 6499.7 100
	-100 6499.7 300
	100 6499.7 -300
	100 6499.7 -100
	100 6499.7 100
	100 6499.7 300
	300 6499.75 -300
	300 6499.7 -100
	300 6499.7 100
	300 6499.75 300
	-300 6699.83 -300
	-300 6699.83 -100
	-300 6699.83 100
	-300 6699.83 300
	-100 6699.83 -300
	-100 6699.83 -100
	-100 6699.83 100
	-100 6699.83 300
	100 6699.83 -300
	100 6699.83 -100
	100 6699.83 100
	100 6699.83 300
	300 6699.83 -300
	300 6699.83 -100
	300 6699.83 100
	300 6699.83 300
	-300 6899.83 -300
	-300 6899.83 -100
	-300 6899.83 100
	-300 6899.83 300
	-100 6899.83 -300
	-100 6899.83 -100
	-100 6899.83 100
	-100 6899.83 300
	100 6899.83 -300
	100 6899.83 -100
	100 6899.83 100
	100 6899.83 300
	300 6899.83 -300
	300 6899.83 -100
	300 6899.83 100
	300 6899.83 300
	-300 7099.84 -300
	-300 7099.84 -100
	-300 7099.84 100
	-300 7099.84 300
	-100 7099.84 -300
	-100 7099.84 -100
	-100 7099.84 100
	-100 7099.84 300
	100 7099.84 -300
	100 7099.84 -100
	100 7099.84 100
	100 7099.84 300
	300 7099.84 -300
	300 7099.84 -100
	300 7099.84 100
	300 7099.84 300
	-300 7299.84 -300
	-300 7299.84 -100
	-300 7299.84 100
	-300 7299.84 300
	-100 7299.84 -300
	-100 7299.84 -100
	-100 7299.84 100
	-100 7299.84 300
	100 7299.84 -300
	100 7299.84 -100
	100 7299.84 100
	100 7299.84 300
	300 7299.84 -300
	300 7299.84 -100
	300 7299.84 100
	300 7299.84 300
	-300 7499.85 -300
	-300 7499.85 -100
	-300 7499.85 100
	-300 7499.85 300
	-100 7499.85 -300
	-100 7499.85 -100
	-100 7499.85 100
	-100 7499.85 300
	100 7499.85 -300
	100 7499.85 -100
	100 7499.85 100
	100 7499.85 300
	300 7499.85 -300
	300 7499.85 -100
	300 7499.85 100
	300 7499.85 300
	-300 7699.85 -300
	-300 7699.85 -100
	-300 7699.85 100
	-300 7699.85 300
	-100 7699.85 -300
	-100 7699.85 -100
	-100 7699.85 100
	-100 7699.85 300
	100 7699.85 -300
	100 7699.85 -100
	100 7699.85 100
	100 7699.85 300
	300 7699.85 -300
	300 7699.85 -100
	300 7699.85 100
	300 7699.85 300
	-300 7899.86 -300
	-300 7899.86 -100
	-300 7899.86 100
	-300 7899.86 300
	-100 7899.86 -300
	-100 7899.85 -100
	-100 7899.85 100
	-100 7899.86 300
	100 7899.86 -300
	100 7899.85 -100
	100 7899.85 100
	100 7899.86 300
	300 7899.86 -300
	300 7899.86 -100
	300 7899.86 100
	300 7899.86 300
	-300 8099.86 -300
	-300 8099.86 -100
	-300 8099.86 100
	-300 8099.86 300
	-100 8099.86 -300
	-100 8099.86 -100
	-100 8099.86 100
	-100 8099.86 300
	100 8099.86 -300
	100 8099.86 -100
	100 8099.86 100
	100 8099.86 300
	300 8099.86 -300
	300 8099.86 -100
	300 8099.86 100
	300 8099.86 300
	-300 8299.86 -300
	-300 8299.86 -100
	-300 8299.86 100
	-300 8299.86 300
	-100 8299.86 -300
	-100 8299.86 -100
	-100 8299.86 100
	-100 8299.86 300
	100 8299.86 -300
	100 8299.86 -100
	100 8299.86 100
	100 8299.86 300
	300 8299.86 -300
	300 8299.86 -100
	300 8299.86 100
	300 8299.86 300
	-300 8499.87 -300
	-300 8499.87 -100
	-300 8499.87 100
	-300 8499.87 300
	-100 8499.87 -300
	-100 8499.87 -100
	-100 8499.87 100
	-100 8499.87 300
	100 8499.87 -300
	100 8499.87 -100
	100 8499.87 100
	100 8499.87 300
	300 8499.87 -300
	300 8499.87 -100
	300 8499.87 100
	300 8499.87 300
	-300 8699.88 -300
	-300 8699.87 -100
	-300 8699.87 100
	-300 8699.88 300
	-100 8699.87 -300
	-100 8699.87 -100
	-100 8699.87 100
	-100 8699.87 300
	100 8699.87 -300
	100 8699.87 -100
	100 8699.87 100
	100 8699.87 300
	300 8699.88 -300
	300 8699.87 -100
	300 8699.87 100
	300 8699.88 300
	-300 8899.88 -300
	-300 8899.87 -100
	-300 8899.87 100
	-300 8899.88 300
	-100 8899.87 -300
	-100 8899.87 -100
	-100 8899.87 100
	-100 8899.87 300
	100 8899.87 -300
	100 8899.87 -100
	100 8899.87 100
	100 8899.87 300
	300 8899.88 -300
	300 8899.87 -100
	300 8899.87 100
	300 8899.88 300
	-300 9099.88 -300
	-300 9099.88 -100
	-300 9099.88 100
	-300 9099.88 300
	-100 9099.88 -300
	-100 9099.88 -100
	-100 9099.88 100
	-100 9099.88 300
	100 9099.88 -300
	100 9099.88 -100
	100 9099.88 100
	100 9099.88 300
	300 9099.88 -300
	300 9099.88 -100
	300 9099.88 100
	300 9099.88 300
	-300 9299.89 -300
	-300 9299.88 -100
	-300 9299.88 100
	-300 9299.89 300
	-100 9299.88 -300
	-100 9299.88 -100
	-100 9299.88 100
	-100 9299.88 300
	100 9299.88 -300
	100 9299.88 -100
	100 9299.88 100
	100 9299.88 300
	300 9299.89 -300
	300 9299.88 -100
	300 9299.88 100
	300 9299.89 300
	-300 9499.89 -300
	-300 9499.89 -100
	-300 9499.89 100
	-300 9499.89 300
	-100 9499.89 -300
	-100 9499.89 -100
	-100 9499.89 100
	-100 9499.89 300
	100 9499.89 -300
	100 9499.89 -100
	100 9499.89 100
	100 9499.89 300
	300 9499.89 -300
	300 9499.89 -100
	300 9499.89 100
	300 9499.89 300
	-300 9699.9 -300
	-300 9699.9 -100
	-300 9699.9 100
	-300 9699.9 300
	-100 9699.9 -300
	-100 9699.9 -100
	-100 9699.9 100
	-100 9699.9 300
	100 9699.9 -300
	100 9699.9 -100
	100 9699.9 100
	100 9699.9 300
	300 9699.9 -300
	300 9699.9 -100
	300 9699.9 100
	300 9699.9 300
	-300 9899.9 -300
	-300 9899.9 -100
	-300 9899.9 100
	-300 9899.9 300
	-100 9899.9 -300
	-100 9899.9 -100
	-100 9899.9 100
	-100 9899.9 300
	100 9899.9 -300
	100 9899.9 -100
	100 9899.9 100
	100 9899.9 300
	300 9899.9 -300
	300 9899.9 -100
	300 9899.9 100
	300 9899.9 300
	-300 10099.9 -300
	-300 10099.9 -100
	-300 10099.9 100
	-300 10099.9 300
	-100 10099.9 -300
	-100 10099.9 -100
	-100 10099.9 100
	-100 10099.9 300
	100 10099.9 -300
	100 10099.9 -100
	100 10099.9 100
	100 10099.9 300
	300 10099.9 -300
	300 10099.9 -100
	300 10099.9 100
	300 10099.9 300
	-300 10299.9 -300
	-300 10299.9 -100
	-300 10299.9 100
	-300 10299.9 300
	-100 10299.9 -300
	-100 10299.9 -100
	-100 10299.9 100
	-100 10299.9 300
	100 10299.9 -300
	100 10299.9 -100
	100 10299.9 100
	100 10299.9 300
	300 10299.9 -300
	300 10299.9 -100
	300 10299.9 100
	300 10299.9 300
	-300 10499.9 -300
	-300 10499.9 -100
	-300 10499.9 100
	-300 10499.9 300
	-100 10499.9 -300
	-100 10499.9 -100
	-100 10499.9 100
	-100 10499.9 300
	100 10499.9 -300
	100 10499.9 -100
	100 10499.9 100
	100 10499.9 300
	300 10499.9 -300
	300 10499.9 -100
	300 10499.9 100
	300 10499.9 300
	-300 10699.9 -300
	-300 10699.9 -100
	-300 10699.9 100
	-300 10699.9 300
	-100 10699.9 -300
	-100 10699.9 -100
	-100 10699.9 100
	-100 10699.9 300
	100 10699.9 -300
	100 10699.9 -100
	100 10699.9 100
	100 10699.9 300
	300 10699.9 -300
	300 10699.9 -100
	300 10699.9 100
	300 10699.9 300
	-300 10900 -300
	-300 10900 -100
	-300 10900 100
	-300 10900 300
	-100 10900 -300
	-100 10900 -100
	-100 10900 100
	-100 10900 300
	100 10900 -300
	100 10900 -100
	100 10900 100
	100 10900 300
	300 10900 -300
	300 10900 -100
	300 10900 100
	300 10900 300
	-300 11100 -300
	-300 11100 -100
	-300 11100 100
	-300 11100 300
	-100 11100 -300
	-100 11100 -100
	-100 11100 100
	-100 11100 300
	100 11100 -300
	100 11100 -100
	100 11100 100
	100 11100 300
	300 11100 -300
	300 11100 -100
	300 11100 100
	300 11100 300
	-300 11300 -300
	-300 11300 -100
	-300 11300 100
	-300 11300 300
	-100 11300 -300
	-100 11300 -100
	-100 11300 100
	-100 11300 300
	100 11300 -300
	100 11300 -100
	100 11300 100
	100 11300 300
	300 11300 -300
	300 11300 -100
	300 11300 100
	300 11300 300
	-300 11500 -300
	-300 11500 -100
	-300 11500 100
	-300 11500 300
	-100 11500 -300
	-100 11500 -100
	-100 11500 100
	-100 11500 300
	100 11500 -300
	100 11500 -100
	100 11500 100
	100 11500 300
	300 11500 -300
	300 11500 -100
	300 11500 100
	300 11500 300
	-300 11700 -300
	-300 11700 -100
	-300 11700 100
	-300 11700 300
	-100 11700 -300
	-100 11700 -100
	-100 11700 100
	-100 11700 300
	100 11700 -300
	100 11700 -100
	100 11700 100
	100 11700 300
	300 11700 -300
	300 11700 -100
	300 11700 100
	300 11700 300
	-300 11900.1 -300
	-300 11900.1 -100
	-300 11900.1 100
	-300 11900.1 300
	-100 11900.1 -300
	-100 11900.1 -100
	-100 11900.1 100
	-100 11900.1 300
	100 11900.1 -300
	100 11900.1 -100
	100 11900.1 100
	100 11900.1 300
	300 11900.1 -300
	300 11900.1 -100
	300 11900.1 100
	300 11900.1 300
	-300 12100.1 -300
	-300 12100.1 -100
	-300 12100.1 100
	-300 12100.1 300
	-100 12100.1 -300
	-100 12100.1 -100
	-100 12100.1 100
	-100 12100.1 300
	100 12100.1 -300
	100 12100.1 -100
	100 12100.1 100
	100 12100.1 300
	300 12100.1 -300
	300 12100.1 -100
	300 12100.1 100
	300 12100.1 300
	-300 12300.1 -300
	-300 12300.1 -100
	-300 12300.1 100
	-300 12300.1 300
	-100 12300.1 -300
	-100 12300.1 -100
	-100 12300.1 100
	-100 12300.1 300
	100 12300.1 -300
	100 12300.1 -100
	100 12300.1 100
	100 12300.1 300
	300 12300.1 -300
	300 12300.1 -100
	300 12300.1 100
	300 12300.1 300
	-300 12500.2 -300
	-300 12500.2 -100
	-300 12500.2 100
	-300 12500.2 300
	-100 12500.2 -300
	-100 12500.2 -100
	-100 12500.2 100
	-100 12500.2 300
	100 12500.2 -300
	100 12500.2 -100
	100 12500.2 100
	100 12500.2 300
	300 12500.2 -300
	300 12500.2 -100
	300 12500.2 100
	300 12500.2 300
	-300 12700.2 -300
	-300 12700.2 -100
	-300 12700.2 100
	-300 12700.2 300
	-100 12700.2 -300
	-100 12700.2 -100
	-100 12700.2 100
	-100 12700.2 300
	100 12700.2 -300
	100 12700.2 -100
	100 12700.2 100
	100 12700.2 300
	300 12700.2 -300
	300 12700.2 -100
	300 12700.2 100
	300 12700.2 300
	-300 12900.3 -300
	-300 12900.3 -100
	-300 12900.3 100
	-300 12900.3 300
	-100 12900.3 -300
	-100 12900.3 -100
	-100 12900.3 100
	-100 12900.3 300
	100 12900.3 -300
	100 12900.3 -100
	100 12900.3 100
	100 12900.3 300
	300 12900.3 -300
	300 12900.3 -100
	300 12900.3 100
	300 12900.3 300
	-300 13100.3 -300
	-300 13100.3 -100
	-300 13100.3 100
	-300 13100.3 300
	-100 13100.3 -300
	-100 13100.3 -100
	-100 13100.3 100
	-100 13100.3 300
	100 13100.3 -300
	100 13100.3 -100
	100 13100.3 100
	100 13100.3 300
	300 13100.3 -300
	300 13100.3 -100
	300 13100.3 100
	300 13100.3 300
	-300 13300.5 -300
	-300 13300.5 -100
	-300 13300.5 100
	-300 13300.5 300
	-100 13300.5 -300
	-100 13300.5 -100
	-100 13300.5 100
	-100 13300.5 300
	100 13300.5 -300
	100 13300.5 -100
	100 13300.5 100
	100 13300.5 300
	300 13300.5 -300
	300 13300.5 -100
	300 13300.5 100
	300 13300.5 300
	-300 13500.6 -300
	-300 13500.6 -100
	-300 13500.6 100
	-300 13500.6 300
	-100 13500.6 -300
	-100 13500.6 -100
	-100 13500.6 100
	-100 13500.6 300
	100 13500.6 -300
	100 13500.6 -100
	100 13500.6 100
	100 13500.6 300
	300 13500.6 -300
	300 13500.6 -100
	300 13500.6 100
	300 13500.6 300
	-300 13701 -300
	-300 13701 -100
	-300 13701 100
	-300 13701 300
	-100 13701 -300
	-100 13701 -100
	-100 13701 100
	-100 13701 300
	100 13701 -300
	100 13701 -100
	100 13701 100
	100 13701 300
	300 13701 -300
	300 13701 -100
	300 13701 100
	300 13701 300
	-300 13901.9 -300
	-300 13901.9 -100
	-300 13901.9 100
	-300 13901.9 300
	-100 13901.9 -300
	-100 13901.9 -100
	-100 13901.9 100
	-100 13901.9 300
	100 13901.9 -300
	100 13901.9 -100
	100 13901.9 100
	100 13901.9 300
	300 13901.9 -300
	300 13901.9 -100
	300 13901.9 100
	300 13901.9 300
  </DataArray>
</Points>
<PointData  Vectors="vector">
  <DataArray type="Float32" Name="Velocity" NumberOfComponents="3" format="ascii">
 -6.34633e-06 -0.00297705 -6.4678e-06
 -4.08771e-06 0.00304352 7.88344e-06
 -4.08734e-06 0.00304352 -7.8845e-06
 -6.34474e-06 -0.00297705 6.46885e-06
 7.94085e-06 0.00304353 -4.23099e-06
 5.90399e-06 0.000333972 5.88592e-06
 5.90359e-06 0.000333972 -5.8862e-06
 7.93892e-06 0.00304352 4.23108e-06
 -7.93905e-06 0.00304353 -4.23697e-06
 -5.90363e-06 0.000333973 5.88551e-06
 -5.90405e-06 0.000333972 -5.88576e-06
 -7.9384e-06 0.00304353 4.23685e-06
 6.34589e-06 -0.00297705 -6.48205e-06
 4.08622e-06 0.00304352 7.88212e-06
 4.08677e-06 0.00304352 -7.88175e-06
 6.34564e-06 -0.00297705 6.4814e-06
 -7.51492e-06 -0.000124443 -7.32283e-06
 -9.2592e-06 -0.00397108 -4.4954e-06
 -9.2595e-06 -0.00397108 4.49918e-06
 -7.53959e-06 -0.000124442 7.31914e-06
 -5.04011e-06 -0.00397108 -9.35779e-06
 -6.33777e-06 -0.00407982 -6.32159e-06
 -6.33842e-06 -0.00407982 6.32143e-06
 -5.01475e-06 -0.00397109 9.35793e-06
 5.01841e-06 -0.00397109 -9.36052e-06
 6.3373e-06 -0.00407982 -6.31778e-06
 6.33777e-06 -0.00407982 6.31757e-06
 5.04149e-06 -0.00397109 9.36058e-06
 7.53785e-06 -0.000124443 -7.35089e-06
 9.25868e-06 -0.00397108 -4.39284e-06
 9.25923e-06 -0.00397109 4.39915e-06
 7.51405e-06 -0.000124442 7.34449e-06
 -2.45015e-06 -0.000277596 -2.51622e-06
 -1.86678e-06 -0.00113763 -9.21192e-06
 -1.86662e-06 -0.00113763 9.21198e-06
 -2.4504e-06 -0.000277596 2.51627e-06
 -9.20672e-06 -0.00113763 -1.92622e-06
 -8.99628e-06 0.00213849 -8.99369e-06
 -8.99552e-06 0.00213849 8.99394e-06
 -9.20748e-06 -0.00113763 1.92603e-06
 9.20735e-06 -0.00113762 -1.92794e-06
 8.99634e-06 0.00213849 -9.05601e-06
 8.99562e-06 0.00213849 9.05618e-06
 9.2078e-06 -0.00113762 1.92774e-06
 2.45043e-06 -0.000277594 -2.52088e-06
 1.866e-06 -0.00113762 -9.21504e-06
 1.86581e-06 -0.00113762 9.21502e-06
 2.4509e-06 -0.000277593 2.52092e-06
 2.80096e-06 -5.27379e-05 2.77893e-06
 2.98609e-06 -8.25174e-05 -7.65556e-06
 2.98613e-06 -8.25154e-05 7.65618e-06
 2.801e-06 -5.27169e-05 -2.7794e-06
 -7.64496e-06 -8.25175e-05 2.96663e-06
 -6.74674e-06 -0.000188354 -6.75584e-06
 -6.74674e-06 -0.000188354 6.75641e-06
 -7.645e-06 -8.25143e-05 -2.96706e-06
 7.64563e-06 -8.25166e-05 2.96624e-06
 6.74706e-06 -0.000188355 -6.75626e-06
 6.747e-06 -0.000188356 6.75644e-06
 7.64549e-06 -8.25144e-05 -2.96633e-06
 -2.80111e-06 -5.272e-05 2.77752e-06
 -2.98681e-06 -8.25154e-05 -7.65651e-06
 -2.98678e-06 -8.25128e-05 7.65667e-06
 -2.8011e-06 -5.27279e-05 -2.77755e-06
 3.83261e-06 -0.000559749 3.83065e-06
 3.93271e-06 0.000357504 -3.88088e-06
 3.93263e-06 0.00035751 3.88096e-06
 3.83258e-06 -0.000559765 -3.83064e-06
 -3.87991e-06 0.0003575 3.93098e-06
 -3.08991e-06 0.000266073 -3.09066e-06
 -3.08985e-06 0.000266072 3.09079e-06
 -3.87996e-06 0.000357508 -3.931e-06
 3.88005e-06 0.0003575 3.93074e-06
 3.08975e-06 0.000266072 -3.09079e-06
 3.0898e-06 0.000266073 3.09091e-06
 3.87998e-06 0.000357508 -3.93078e-06
 -3.83252e-06 -0.000559765 3.83018e-06
 -3.93273e-06 0.000357506 -3.8811e-06
 -3.93277e-06 0.000357503 3.88119e-06
 -3.83248e-06 -0.000559759 -3.83015e-06
 -2.34358e-06 -0.00126904 -2.34129e-06
 -2.09199e-06 -0.00029211 9.01641e-07
 -2.09245e-06 -0.000292114 -9.02271e-07
 -2.34433e-06 -0.00126904 2.34183e-06
 9.00799e-07 -0.000292108 -2.08967e-06
 1.5223e-06 -0.00362129 1.52323e-06
 1.52276e-06 -0.0036213 -1.52373e-06
 9.01476e-07 -0.000292119 2.09013e-06
 -9.02367e-07 -0.00029211 -2.08936e-06
 -1.52381e-06 -0.00362129 1.52292e-06
 -1.5233e-06 -0.00362129 -1.52406e-06
 -9.01894e-07 -0.000292121 2.09046e-06
 2.34516e-06 -0.00126904 -2.34108e-06
 2.09335e-06 -0.000292113 9.01474e-07
 2.09282e-06 -0.000292113 -9.02682e-07
 2.34465e-06 -0.00126904 2.34229e-06
 4.11389e-06 -0.00084593 4.11471e-06
 5.24725e-06 -0.00145576 -1.85923e-06
 5.24703e-06 -0.00145577 1.85914e-06
 4.11381e-06 -0.000845935 -4.11476e-06
 -1.85984e-06 -0.00145576 5.24798e-06
 2.6498e-06 -0.000439695 2.65041e-06
 2.65004e-06 -0.000439674 -2.65156e-06
 -1.85978e-06 -0.00145577 -5.24692e-06
 1.85965e-06 -0.00145576 5.24762e-06
 -2.65089e-06 -0.000439703 2.65084e-06
 -2.65079e-06 -0.0004397 -2.65135e-06
 1.85966e-06 -0.00145577 -5.24716e-06
 -4.11378e-06 -0.000845931 4.11481e-06
 -5.24632e-06 -0.00145577 -1.85916e-06
 -5.24646e-06 -0.00145577 1.85906e-06
 -4.1139e-06 -0.000845936 -4.11474e-06
 2.26354e-06 -0.00375141 2.26363e-06
 2.1659e-06 -0.000806901 7.218e-07
 2.16591e-06 -0.000806896 -7.21791e-07
 2.26352e-06 -0.00375141 -2.26371e-06
 7.2176e-07 -0.000806903 2.16603e-06
 6.90052e-07 0.00120481 6.90119e-07
 6.90037e-07 0.00120479 -6.90093e-07
 7.21716e-07 -0.000806885 -2.16608e-06
 -7.21764e-07 -0.0008069 2.16605e-06
 -6.90083e-07 0.00120481 6.90138e-07
 -6.90097e-07 0.00120481 -6.90085e-07
 -7.21798e-07 -0.000806887 -2.1661e-06
 -2.26366e-06 -0.00375141 2.2637e-06
 -2.16604e-06 -0.000806898 7.2185e-07
 -2.16604e-06 -0.000806894 -7.21767e-07
 -2.26367e-06 -0.00375141 -2.26373e-06
 3.41723e-07 0.000119715 3.41774e-07
 2.67121e-07 0.000506947 -2.22657e-08
 2.67123e-07 0.000506948 2.23123e-08
 3.4171e-07 0.000119713 -3.41767e-07
 -2.23119e-08 0.000506948 2.67183e-07
 -3.50231e-08 0.000316384 -3.4957e-08
 -3.50312e-08 0.000316386 3.50248e-08
 -2.23328e-08 0.000506948 -2.67164e-07
 2.22847e-08 0.000506949 2.67191e-07
 3.49751e-08 0.000316398 -3.49453e-08
 3.49644e-08 0.000316408 3.50355e-08
 2.22572e-08 0.000506949 -2.67166e-07
 -3.41804e-07 0.000119715 3.41794e-07
 -2.67212e-07 0.000506949 -2.2232e-08
 -2.67217e-07 0.00050695 2.23491e-08
 -3.41829e-07 0.00011971 -3.41756e-07
 -7.15793e-07 0.000373658 -7.15754e-07
 -8.10912e-07 -0.000847827 -4.27043e-07
 -8.10921e-07 -0.000847825 4.27141e-07
 -7.1582e-07 0.000373655 7.15825e-07
 -4.27116e-07 -0.000847826 -8.10854e-07
 -4.50554e-07 0.000823217 -4.50476e-07
 -4.50556e-07 0.000823226 4.50582e-07
 -4.27124e-07 -0.000847827 8.10939e-07
 4.27063e-07 -0.000847827 -8.10857e-07
 4.50501e-07 0.000823204 -4.50468e-07
 4.50503e-07 0.0008232 4.50594e-07
 4.27062e-07 -0.000847828 8.10945e-07
 7.1577e-07 0.000373658 -7.15751e-07
 8.1087e-07 -0.000847828 -4.27026e-07
 8.10871e-07 -0.000847828 4.27169e-07
 7.15762e-07 0.000373659 7.15855e-07
 -1.8481e-06 -0.000680935 -1.848e-06
 -1.91175e-06 0.000683124 -8.63537e-07
 -1.91176e-06 0.000683123 8.63547e-07
 -1.8481e-06 -0.000680935 1.84818e-06
 -8.63568e-07 0.000683124 -1.91168e-06
 -8.77298e-07 -0.00233503 -8.77238e-07
 -8.77285e-07 -0.00233501 8.77291e-07
 -8.63555e-07 0.000683125 1.91183e-06
 8.63515e-07 0.000683124 -1.91167e-06
 8.77223e-07 -0.00233503 -8.77227e-07
 8.77234e-07 -0.00233502 8.77295e-07
 8.63511e-07 0.000683125 1.91182e-06
 1.8481e-06 -0.000680934 -1.84798e-06
 1.91176e-06 0.000683125 -8.63491e-07
 1.91175e-06 0.000683125 8.63566e-07
 1.84807e-06 -0.000680935 1.84816e-06
 -2.08951e-06 0.000567054 -2.08945e-06
 -2.09294e-06 0.00084435 -1.08115e-06
 -2.09294e-06 0.000844349 1.08122e-06
 -2.08952e-06 0.000567056 2.08952e-06
 -1.08116e-06 0.00084435 -2.09286e-06
 -1.06079e-06 -0.000693144 -1.06081e-06
 -1.06079e-06 -0.000693175 1.06089e-06
 -1.08116e-06 0.000844348 2.09293e-06
 1.08115e-06 0.000844349 -2.09286e-06
 1.06078e-06 -0.000693146 -1.06081e-06
 1.06078e-06 -0.000693155 1.0609e-06
 1.08115e-06 0.000844348 2.09293e-06
 2.08948e-06 0.000567055 -2.08943e-06
 2.09291e-06 0.00084435 -1.08115e-06
 2.09292e-06 0.000844349 1.08124e-06
 2.08949e-06 0.000567058 2.08952e-06
 -3.16805e-07 -0.00216943 -3.16774e-07
 -2.63284e-07 0.000196635 -1.25848e-07
 -2.63277e-07 0.000196636 1.25879e-07
 -3.16767e-07 -0.00216943 3.1682e-07
 -1.25865e-07 0.000196636 -2.63269e-07
 -9.62171e-08 -0.00192994 -9.61838e-08
 -9.62129e-08 -0.00192994 9.62115e-08
 -1.25876e-07 0.000196635 2.6333e-07
 1.25851e-07 0.000196635 -2.63273e-07
 9.61931e-08 -0.00192994 -9.61751e-08
 9.62062e-08 -0.00192994 9.62101e-08
 1.25856e-07 0.000196635 2.6334e-07
 3.16808e-07 -0.00216943 -3.16777e-07
 2.63295e-07 0.000196635 -1.25827e-07
 2.63272e-07 0.000196635 1.25868e-07
 3.16773e-07 -0.00216943 3.16853e-07
 1.24137e-06 0.000623193 1.24131e-06
 1.25748e-06 0.000432564 -5.07998e-06
 1.25747e-06 0.000432564 5.08005e-06
 1.24127e-06 0.000623197 -1.24135e-06
 -5.08013e-06 0.000432564 1.25751e-06
 -4.66461e-06 0.000269997 -4.66467e-06
 -4.66442e-06 0.000269991 4.66471e-06
 -5.0797e-06 0.000432564 -1.2575e-06
 5.08017e-06 0.000432563 1.2575e-06
 4.66468e-06 0.000269992 -4.66464e-06
 4.66445e-06 0.000269989 4.66471e-06
 5.07976e-06 0.000432563 -1.25751e-06
 -1.24136e-06 0.000623191 1.24138e-06
 -1.25752e-06 0.000432563 -5.07999e-06
 -1.25747e-06 0.000432563 5.07998e-06
 -1.2413e-06 0.000623193 -1.24129e-06
 -2.33909e-06 0.000623342 -2.3391e-06
 -2.01126e-06 -0.00184717 6.73025e-07
 -2.01125e-06 -0.00184717 -6.73001e-07
 -2.33907e-06 0.000623345 2.33907e-06
 6.73042e-07 -0.00184717 -2.01128e-06
 7.36755e-07 -0.00168663 7.36751e-07
 7.36746e-07 -0.00168662 -7.36724e-07
 6.73024e-07 -0.00184717 2.01127e-06
 -6.72985e-07 -0.00184717 -2.01128e-06
 -7.36728e-07 -0.00168662 7.36757e-07
 -7.36733e-07 -0.00168662 -7.36728e-07
 -6.72984e-07 -0.00184717 2.01128e-06
 2.33909e-06 0.000623342 -2.33907e-06
 2.0113e-06 -0.00184717 6.73024e-07
 2.0113e-06 -0.00184717 -6.73007e-07
 2.33908e-06 0.000623346 2.33909e-06
 5.69754e-06 0.00210677 5.69752e-06
 5.9017e-06 0.00121192 -2.06721e-06
 5.90171e-06 0.00121192 2.0672e-06
 5.69755e-06 0.00210677 -5.69752e-06
 -2.06719e-06 0.00121192 5.90168e-06
 -1.96505e-06 -0.00192846 -1.96506e-06
 -1.96505e-06 -0.00192846 1.96506e-06
 -2.06719e-06 0.00121192 -5.90168e-06
 2.06723e-06 0.00121192 5.90169e-06
 1.96508e-06 -0.00192846 -1.96506e-06
 1.96508e-06 -0.00192846 1.96507e-06
 2.06722e-06 0.00121192 -5.90168e-06
 -5.6975e-06 0.00210677 5.69753e-06
 -5.90167e-06 0.00121192 -2.0672e-06
 -5.90167e-06 0.00121192 2.06721e-06
 -5.69752e-06 0.00210677 -5.69752e-06
 -1.14711e-06 -0.000115814 -1.14713e-06
 -4.16878e-07 -0.00101678 -7.64873e-09
 -4.1688e-07 -0.00101679 7.64385e-09
 -1.14711e-06 -0.000115814 1.14713e-06
 -7.62923e-09 -0.00101679 -4.16894e-07
 2.44655e-07 -0.00085381 2.4464e-07
 2.44653e-07 -0.000853809 -2.44641e-07
 -7.63526e-09 -0.00101678 4.16894e-07
 7.66331e-09 -0.00101679 -4.16891e-07
 -2.44626e-07 -0.00085381 2.44643e-07
 -2.44629e-07 -0.00085381 -2.44638e-07
 7.65544e-09 -0.00101678 4.16897e-07
 1.14715e-06 -0.000115814 -1.14712e-06
 4.16908e-07 -0.00101679 -7.64171e-09
 4.16905e-07 -0.00101678 7.65125e-09
 1.14714e-06 -0.000115815 1.14713e-06
 -5.87475e-06 -0.00119215 -5.87476e-06
 -4.78817e-06 -0.00136861 -1.83879e-06
 -4.78817e-06 -0.00136861 1.83879e-06
 -5.87476e-06 -0.00119215 5.87476e-06
 -1.83878e-06 -0.00136861 -4.78817e-06
 -1.47147e-06 0.00135393 -1.47148e-06
 -1.47147e-06 0.00135393 1.47148e-06
 -1.83878e-06 -0.00136861 4.78818e-06
 1.8388e-06 -0.00136861 -4.78817e-06
 1.47148e-06 0.00135393 -1.47147e-06
 1.47148e-06 0.00135393 1.47148e-06
 1.83879e-06 -0.00136861 4.78818e-06
 5.87477e-06 -0.00119215 -5.87476e-06
 4.78818e-06 -0.00136861 -1.83878e-06
 4.78818e-06 -0.00136861 1.83879e-06
 5.87477e-06 -0.00119215 5.87477e-06
 -9.38014e-06 0.000406893 -9.38016e-06
 -7.30514e-06 -0.00140224 -4.66631e-06
 -7.30514e-06 -0.00140224 4.66634e-06
 -9.38015e-06 0.000406896 9.38014e-06
 -4.66632e-06 -0.00140224 -7.30513e-06
 -4.23815e-06 0.00135513 -4.23816e-06
 -4.23815e-06 0.00135513 4.23816e-06
 -4.66633e-06 -0.00140224 7.30515e-06
 4.66635e-06 -0.00140224 -7.30513e-06
 4.23816e-06 0.00135513 -4.23816e-06
 4.23816e-06 0.00135513 4.23817e-06
 4.66634e-06 -0.00140224 7.30514e-06
 9.38014e-06 0.000406893 -9.38014e-06
 7.30515e-06 -0.00140224 -4.66631e-06
 7.30515e-06 -0.00140224 4.66634e-06
 9.38015e-06 0.000406895 9.38014e-06
 -1.24525e-07 -0.000983359 -1.24537e-07
 6.14785e-07 0.00144628 2.06082e-06
 6.1475e-07 0.00144628 -2.0608e-06
 -1.24532e-07 -0.000983358 1.24535e-07
 2.06081e-06 0.00144628 6.1488e-07
 1.10717e-06 0.000301768 1.10708e-06
 1.1072e-06 0.000301767 -1.10712e-06
 2.06081e-06 0.00144628 -6.14819e-07
 -2.06081e-06 0.00144628 6.14882e-07
 -1.10715e-06 0.000301766 1.10708e-06
 -1.10708e-06 0.000301768 -1.10712e-06
 -2.06081e-06 0.00144628 -6.14817e-07
 1.24535e-07 -0.000983359 -1.24534e-07
 -6.1479e-07 0.00144628 2.06083e-06
 -6.14861e-07 0.00144628 -2.06079e-06
 1.24534e-07 -0.000983358 1.24531e-07
 4.40305e-06 -0.000914713 4.40305e-06
 3.7172e-06 -0.000803434 9.77811e-07
 3.7172e-06 -0.000803434 -9.778e-07
 4.40305e-06 -0.000914713 -4.40304e-06
 9.77807e-07 -0.000803433 3.7172e-06
 7.6358e-07 -0.00126033 7.63584e-07
 7.6358e-07 -0.00126033 -7.63573e-07
 9.77806e-07 -0.000803434 -3.7172e-06
 -9.77804e-07 -0.000803433 3.71721e-06
 -7.63577e-07 -0.00126033 7.63584e-07
 -7.63576e-07 -0.00126033 -7.63572e-07