<?xml version="1.0"?>
<!-- time 88.2001-->
<VTKFile type="UnstructuredGrid" version="0.1" byte_order="LittleEndian">
<UnstructuredGrid>
<Piece NumberOfPoints="960" NumberOfCells="0">
<Points>
  <DataArray type="Float32" Name="Position" NumberOfComponents="3" format="ascii">
	-300 2099.64 -300
	-300 2099.65 -100
	-300 2099.65 100
	-300 2099.64 300
	-100 2099.65 -300
	-100 2099.52 -100
	-100 2099.52 100
	-100 2099.65 300
	100 2099.65 -300
	100 2099.52 -100
	100 2099.52 100
	100 2099.65 300
	300 2099.64 -300
	300 2099.65 -100
	300 2099.65 100
	300 2099.64 300
	-300 2299.67 -300
	-300 2299.66 -100
	-300 2299.66 100
	-300 2299.67 300
	-100 2299.66 -300
	-100 2299.52 -100
	-100 2299.52 100
	-100 2299.66 300
	100 2299.66 -300
	100 2299.52 -100
	100 2299.52 100
	100 2299.66 300
	300 2299.67 -300
	300 2299.66 -100
	300 2299.66 100
	300 2299.67 300
	-300 2499.68 -300
	-300 2499.67 -100
	-300 2499.67 100
	-300 2499.68 300
	-100 2499.67 -300
	-100 2499.62 -100
	-100 2499.62 100
	-100 2499.67 300
	100 2499.67 -300
	100 2499.62 -100
	100 2499.62 100
	100 2499.67 300
	300 2499.68 -300
	300 2499.67 -100
	300 2499.67 100
	300 2499.68 300
	-300 2699.68 -300
	-300 2699.67 -100
	-300 2699.67 100
	-300 2699.68 300
	-100 2699.67 -300
	-100 2699.63 -100
	-100 2699.63 100
	-100 2699.67 300
	100 2699.67 -300
	100 2699.63 -100
	100 2699.63 100
	100 2699.67 300
	300 2699.68 -300
	300 2699.67 -100
	300 2699.67 100
	300 2699.68 300
	-300 2899.68 -300
	-300 2899.67 -100
	-300 2899.67 100
	-300 2899.68 300
	-100 2899.67 -300
	-100 2899.64 -100
	-100 2899.64 100
	-100 2899.67 300
	100 2899.67 -300
	100 2899.64 -100
	100 2899.64 100
	100 2899.67 300
	300 2899.68 -300
	300 2899.67 -100
	300 2899.67 100
	300 2899.68 300
	-300 3099.68 -300
	-300 3099.66 -100
	-300 3099.66 100
	-300 3099.68 300
	-100 3099.66 -300
	-100 3099.64 -100
	-100 3099.64 100
	-100 3099.66 300
	100 3099.66 -300
	100 3099.64 -100
	100 3099.64 100
	100 3099.66 300
	300 3099.68 -300
	300 3099.66 -100
	300 3099.66 100
	300 3099.68 300
	-300 3299.68 -300
	-300 3299.66 -100
	-300 3299.66 100
	-300 3299.68 300
	-100 3299.66 -300
	-100 3299.64 -100
	-100 3299.64 100
	-100 3299.66 300
	100 3299.66 -300
	100 3299.64 -100
	100 3299.64 100
	100 3299.66 300
	300 3299.68 -300
	300 3299.66 -100
	300 3299.66 100
	300 3299.68 300
	-300 3499.68 -300
	-300 3499.67 -100
	-300 3499.67 100
	-300 3499.68 300
	-100 3499.67 -300
	-100 3499.64 -100
	-100 3499.64 100
	-100 3499.67 300
	100 3499.67 -300
	100 3499.64 -100
	100 3499.64 100
	100 3499.67 300
	300 3499.68 -300
	300 3499.67 -100
	300 3499.67 100
	300 3499.68 300
	-300 3699.68 -300
	-300 3699.67 -100
	-300 3699.67 100
	-300 3699.68 300
	-100 3699.67 -300
	-100 3699.64 -100
	-100 3699.64 100
	-100 3699.67 300
	100 3699.67 -300
	100 3699.64 -100
	100 3699.64 100
	100 3699.67 300
	300 3699.68 -300
	300 3699.67 -100
	300 3699.67 100
	300 3699.68 300
	-300 3899.68 -300
	-300 3899.67 -100
	-300 3899.67 100
	-300 3899.68 300
	-100 3899.67 -300
	-100 3899.64 -100
	-100 3899.64 100
	-100 3899.67 300
	100 3899.67 -300
	100 3899.64 -100
	100 3899.64 100
	100 3899.67 300
	300 3899.68 -300
	300 3899.67 -100
	300 3899.67 100
	300 3899.68 300
	-300 4099.68 -300
	-300 4099.67 -100
	-300 4099.67 100
	-300 4099.68 300
	-100 4099.67 -300
	-100 4099.64 -100
	-100 4099.64 100
	-100 4099.67 300
	100 4099.67 -300
	100 4099.64 -100
	100 4099.64 100
	100 4099.67 300
	300 4099.68 -300
	300 4099.67 -100
	300 4099.67 100
	300 4099.68 300
	-300 4299.69 -300
	-300 4299.67 -100
	-300 4299.67 100
	-300 4299.69 300
	-100 4299.67 -300
	-100 4299.64 -100
	-100 4299.64 100
	-100 4299.67 300
	100 4299.67 -300
	100 4299.64 -100
	100 4299.64 100
	100 4299.67 300
	300 4299.69 -300
	300 4299.67 -100
	300 4299.67 100
	300 4299.69 300
	-300 4499.69 -300
	-300 4499.67 -100
	-300 4499.67 100
	-300 4499.69 300
	-100 4499.67 -300
	-100 4499.64 -100
	-100 4499.64 100
	-100 4499.67 300
	100 4499.67 -300
	100 4499.64 -100
	100 4499.64 100
	100 4499.67 300
	300 4499.69 -300
	300 4499.67 -100
	300 4499.67 100
	300 4499.69 300
	-300 4699.7 -300
	-300 4699.67 -100
	-300 4699.67 100
	-300 4699.7 300
	-100 4699.67 -300
	-100 4699.64 -100
	-100 4699.64 100
	-100 4699.67 300
	100 4699.67 -300
	100 4699.64 -100
	100 4699.64 100
	100 4699.67 300
	300 4699.7 -300
	300 4699.67 -100
	300 4699.67 100
	300 4699.7 300
	-300 4899.7 -300
	-300 4899.67 -100
	-300 4899.67 100
	-300 4899.7 300
	-100 4899.67 -300
	-100 4899.65 -100
	-100 4899.65 100
	-100 4899.67 300
	100 4899.67 -300
	100 4899.65 -100
	100 4899.65 100
	100 4899.67 300
	300 4899.7 -300
	300 4899.67 -100
	300 4899.67 100
	300 4899.7 300
	-300 5099.7 -300
	-300 5099.67 -100
	-300 5099.67 100
	-300 5099.7 300
	-100 5099.67 -300
	-100 5099.66 -100
	-100 5099.66 100
	-100 5099.67 300
	100 5099.67 -300
	100 5099.66 -100
	100 5099.66 100
	100 5099.67 300
	300 5099.7 -300
	300 5099.67 -100
	300 5099.67 100
	300 5099.7 300
	-300 5299.7 -300
	-300 5299.68 -100
	-300 5299.68 100
	-300 5299.7 300
	-100 5299.68 -300
	-100 5299.67 -100
	-100 5299.67 100
	-100 5299.68 300
	100 5299.68 -300
	100 5299.67 -100
	100 5299.67 100
	100 5299.68 300
	300 5299.7 -300
	300 5299.68 -100
	300 5299.68 100
	300 5299.7 300
	-300 5499.7 -300
	-300 5499.68 -100
	-300 5499.68 100
	-300 5499.7 300
	-100 5499.68 -300
	-100 5499.67 -100
	-100 5499.67 100
	-100 5499.68 300
	100 5499.68 -300
	100 5499.67 -100
	100 5499.67 100
	100 5499.68 300
	300 5499.7 -300
	300 5499.68 -100
	300 5499.68 100
	300 5499.7 300
	-300 5699.71 -300
	-300 5699.68 -100
	-300 5699.68 100
	-300 5699.71 300
	-100 5699.68 -300
	-100 5699.67 -100
	-100 5699.67 100
	-100 5699.68 300
	100 5699.68 -300
	100 5699.67 -100
	100 5699.67 100
	100 5699.68 300
	300 5699.71 -300
	300 5699.68 -100
	300 5699.68 100
	300 5699.71 300
	-300 5899.71 -300
	-300 5899.68 -100
	-300 5899.68 100
	-300 5899.71 300
	-100 5899.68 -300
	-100 5899.68 -100
	-100 5899.68 100
	-100 5899.68 300
	100 5899.68 -300
	100 5899.68 -100
	100 5899.68 100
	100 5899.68 300
	300 5899.71 -300
	300 5899.68 -100
	300 5899.68 100
	300 5899.71 300
	-300 6099.71 -300
	-300 6099.7 -100
	-300 6099.7 100
	-300 6099.71 300
	-100 6099.7 -300
	-100 6099.68 -100
	-100 6099.68 100
	-100 6099.7 300
	100 6099.7 -300
	100 6099.68 -100
	100 6099.68 100
	100 6099.7 300
	300 6099.71 -300
	300 6099.7 -100
	300 6099.7 100
	300 6099.71 300
	-300 6299.72 -300
	-300 6299.7 -100
	-300 6299.7 100
	-300 6299.72 300
	-100 6299.7 -300
	-100 6299.69 -100
	-100 6299.69 100
	-100 6299.7 300
	100 6299.7 -300
	100 6299.69 -100
	100 6299.69 100
	100 6299.7 300
	300 6299.72 -300
	300 6299.7 -100
	300 6299.7 100
	300 6299.72 300
	-300 6499.79 -300
	-300 6499.71 -100
	-300 6499.71 100
	-300 6499.79 300
	-100 6499.71 -300
	-100 6499.7 -100
	-100 6499.7 100
	-100 6499.71 300
	100 6499.71 -300
	100 6499.7 -100
	100 6499.7 100
	100 6499.71 300
	300 6499.79 -300
	300 6499.71 -100
	300 6499.71 100
	300 6499.79 300
	-300 6699.85 -300
	-300 6699.85 -100
	-300 6699.85 100
	-300 6699.85 300
	-100 6699.85 -300
	-100 6699.85 -100
	-100 6699.85 100
	-100 6699.85 300
	100 6699.85 -300
	100 6699.85 -100
	100 6699.85 100
	100 6699.85 300
	300 6699.85 -300
	300 6699.85 -100
	300 6699.85 100
	300 6699.85 300
	-300 6899.85 -300
	-300 6899.85 -100
	-300 6899.85 100
	-300 6899.85 300
	-100 6899.85 -300
	-100 6899.85 -100
	-100 6899.85 100
	-100 6899.85 300
	100 6899.85 -300
	100 6899.85 -100
	100 6899.85 100
	100 6899.85 300
	300 6899.85 -300
	300 6899.85 -100
	300 6899.85 100
	300 6899.85 300
	-300 7099.85 -300
	-300 7099.85 -100
	-300 7099.85 100
	-300 7099.85 300
	-100 7099.85 -300
	-100 7099.85 -100
	-100 7099.85 100
	-100 7099.85 300
	100 7099.85 -300
	100 7099.85 -100
	100 7099.85 100
	100 7099.85 300
	300 7099.85 -300
	300 7099.85 -100
	300 7099.85 100
	300 7099.85 300
	-300 7299.86 -300
	-300 7299.86 -100
	-300 7299.86 100
	-300 7299.86 300
	-100 7299.86 -300
	-100 7299.86 -100
	-100 7299.86 100
	-100 7299.86 300
	100 7299.86 -300
	100 7299.86 -100
	100 7299.86 100
	100 7299.86 300
	300 7299.86 -300
	300 7299.86 -100
	300 7299.86 100
	300 7299.86 300
	-300 7499.86 -300
	-300 7499.86 -100
	-300 7499.86 100
	-300 7499.86 300
	-100 7499.86 -300
	-100 7499.86 -100
	-100 7499.86 100
	-100 7499.86 300
	100 7499.86 -300
	100 7499.86 -100
	100 7499.86 100
	100 7499.86 300
	300 7499.86 -300
	300 7499.86 -100
	300 7499.86 100
	300 7499.86 300
	-300 7699.87 -300
	-300 7699.87 -100
	-300 7699.87 100
	-300 7699.87 300
	-100 7699.87 -300
	-100 7699.87 -100
	-100 7699.87 100
	-100 7699.87 300
	100 7699.87 -300
	100 7699.87 -100
	100 7699.87 100
	100 7699.87 300
	300 7699.87 -300
	300 7699.87 -100
	300 7699.87 100
	300 7699.87 300
	-300 7899.88 -300
	-300 7899.88 -100
	-300 7899.88 100
	-300 7899.88 300
	-100 7899.88 -300
	-100 7899.87 -100
	-100 7899.87 100
	-100 7899.88 300
	100 7899.88 -300
	100 7899.87 -100
	100 7899.87 100
	100 7899.88 300
	300 7899.88 -300
	300 7899.88 -100
	300 7899.88 100
	300 7899.88 300
	-300 8099.88 -300
	-300 8099.88 -100
	-300 8099.88 100
	-300 8099.88 300
	-100 8099.88 -300
	-100 8099.88 -100
	-100 8099.88 100
	-100 8099.88 300
	100 8099.88 -300
	100 8099.88 -100
	100 8099.88 100
	100 8099.88 300
	300 8099.88 -300
	300 8099.88 -100
	300 8099.88 100
	300 8099.88 300
	-300 8299.88 -300
	-300 8299.88 -100
	-300 8299.88 100
	-300 8299.88 300
	-100 8299.88 -300
	-100 8299.88 -100
	-100 8299.88 100
	-100 8299.88 300
	100 8299.88 -300
	100 8299.88 -100
	100 8299.88 100
	100 8299.88 300
	300 8299.88 -300
	300 8299.88 -100
	300 8299.88 100
	300 8299.88 300
	-300 8499.89 -300
	-300 8499.89 -100
	-300 8499.89 100
	-300 8499.89 300
	-100 8499.89 -300
	-100 8499.89 -100
	-100 8499.89 100
	-100 8499.89 300
	100 8499.89 -300
	100 8499.89 -100
	100 8499.89 100
	100 8499.89 300
	300 8499.89 -300
	300 8499.89 -100
	300 8499.89 100
	300 8499.89 300
	-300 8699.9 -300
	-300 8699.9 -100
	-300 8699.9 100
	-300 8699.9 300
	-100 8699.9 -300
	-100 8699.89 -100
	-100 8699.89 100
	-100 8699.9 300
	100 8699.9 -300
	100 8699.89 -100
	100 8699.89 100
	100 8699.9 300
	300 8699.9 -300
	300 8699.9 -100
	300 8699.9 100
	300 8699.9 300
	-300 8899.9 -300
	-300 8899.9 -100
	-300 8899.9 100
	-300 8899.9 300
	-100 8899.9 -300
	-100 8899.89 -100
	-100 8899.89 100
	-100 8899.9 300
	100 8899.9 -300
	100 8899.89 -100
	100 8899.89 100
	100 8899.9 300
	300 8899.9 -300
	300 8899.9 -100
	300 8899.9 100
	300 8899.9 300
	-300 9099.91 -300
	-300 9099.9 -100
	-300 9099.9 100
	-300 9099.91 300
	-100 9099.9 -300
	-100 9099.9 -100
	-100 9099.9 100
	-100 9099.9 300
	100 9099.9 -300
	100 9099.9 -100
	100 9099.9 100
	100 9099.9 300
	300 9099.91 -300
	300 9099.9 -100
	300 9099.9 100
	300 9099.91 300
	-300 9299.91 -300
	-300 9299.91 -100
	-300 9299.91 100
	-300 9299.91 300
	-100 9299.91 -300
	-100 9299.91 -100
	-100 9299.91 100
	-100 9299.91 300
	100 9299.91 -300
	100 9299.91 -100
	100 9299.91 100
	100 9299.91 300
	300 9299.91 -300
	300 9299.91 -100
	300 9299.91 100
	300 9299.91 300
	-300 9499.92 -300
	-300 9499.91 -100
	-300 9499.91 100
	-300 9499.92 300
	-100 9499.91 -300
	-100 9499.91 -100
	-100 9499.91 100
	-100 9499.91 300
	100 9499.91 -300
	100 9499.91 -100
	100 9499.91 100
	100 9499.91 300
	300 9499.92 -300
	300 9499.91 -100
	300 9499.91 100
	300 9499.92 300
	-300 9699.92 -300
	-300 9699.92 -100
	-300 9699.92 100
	-300 9699.92 300
	-100 9699.92 -300
	-100 9699.92 -100
	-100 9699.92 100
	-100 9699.92 300
	100 9699.92 -300
	100 9699.92 -100
	100 9699.92 100
	100 9699.92 300
	300 9699.92 -300
	300 9699.92 -100
	300 9699.92 100
	300 9699.92 300
	-300 9899.93 -300
	-300 9899.93 -100
	-300 9899.93 100
	-300 9899.93 300
	-100 9899.93 -300
	-100 9899.93 -100
	-100 9899.93 100
	-100 9899.93 300
	100 9899.93 -300
	100 9899.93 -100
	100 9899.93 100
	100 9899.93 300
	300 9899.93 -300
	300 9899.93 -100
	300 9899.93 100
	300 9899.93 300
	-300 10099.9 -300
	-300 10099.9 -100
	-300 10099.9 100
	-300 10099.9 300
	-100 10099.9 -300
	-100 10099.9 -100
	-100 10099.9 100
	-100 10099.9 300
	100 10099.9 -300
	100 10099.9 -100
	100 10099.9 100
	100 10099.9 300
	300 10099.9 -300
	300 10099.9 -100
	300 10099.9 100
	300 10099.9 300
	-300 10299.9 -300
	-300 10299.9 -100
	-300 10299.9 100
	-300 10299.9 300
	-100 10299.9 -300
	-100 10299.9 -100
	-100 10299.9 100
	-100 10299.9 300
	100 10299.9 -300
	100 10299.9 -100
	100 10299.9 100
	100 10299.9 300
	300 10299.9 -300
	300 10299.9 -100
	300 10299.9 100
	300 10299.9 300
	-300 10500 -300
	-300 10500 -100
	-300 10500 100
	-300 10500 300
	-100 10500 -300
	-100 10500 -100
	-100 10500 100
	-100 10500 300
	100 10500 -300
	100 10500 -100
	100 10500 100
	100 10500 300
	300 10500 -300
	300 10500 -100
	300 10500 100
	300 10500 300
	-300 10700 -300
	-300 10700 -100
	-300 10700 100
	-300 10700 300
	-100 10700 -300
	-100 10700 -100
	-100 10700 100
	-100 10700 300
	100 10700 -300
	100 10700 -100
	100 10700 100
	100 10700 300
	300 10700 -300
	300 10700 -100
	300 10700 100
	300 10700 300
	-300 10900 -300
	-300 10900 -100
	-300 10900 100
	-300 10900 300
	-100 10900 -300
	-100 10900 -100
	-100 10900 100
	-100 10900 300
	100 10900 -300
	100 10900 -100
	100 10900 100
	100 10900 300
	300 10900 -300
	300 10900 -100
	300 10900 100
	300 10900 300
	-300 11100 -300
	-300 11100 -100
	-300 11100 100
	-300 11100 300
	-100 11100 -300
	-100 11100 -100
	-100 11100 100
	-100 11100 300
	100 11100 -300
	100 11100 -100
	100 11100 100
	100 11100 300
	300 11100 -300
	300 11100 -100
	300 11100 100
	300 11100 300
	-300 11300 -300
	-300 11300 -100
	-300 11300 100
	-300 11300 300
	-100 11300 -300
	-100 11300 -100
	-100 11300 100
	-100 11300 300
	100 11300 -300
	100 11300 -100
	100 11300 100
	100 11300 300
	300 11300 -300
	300 11300 -100
	300 11300 100
	300 11300 300
	-300 11500 -300
	-300 11500 -100
	-300 11500 100
	-300 11500 300
	-100 11500 -300
	-100 11500 -100
	-100 11500 100
	-100 11500 300
	100 11500 -300
	100 11500 -100
	100 11500 100
	100 11500 300
	300 11500 -300
	300 11500 -100
	300 11500 100
	300 11500 300
	-300 11700.1 -300
	-300 11700.1 -100
	-300 11700.1 100
	-300 11700.1 300
	-100 11700.1 -300
	-100 11700.1 -100
	-100 11700.1 100
	-100 11700.1 300
	100 11700.1 -300
	100 11700.1 -100
	100 11700.1 100
	100 11700.1 300
	300 11700.1 -300
	300 11700.1 -100
	300 11700.1 100
	300 11700.1 300
	-300 11900.1 -300
	-300 11900.1 -100
	-300 11900.1 100
	-300 11900.1 300
	-100 11900.1 -300
	-100 11900.1 -100
	-100 11900.1 100
	-100 11900.1 300
	100 11900.1 -300
	100 11900.1 -100
	100 11900.1 100
	100 11900.1 300
	300 11900.1 -300
	300 11900.1 -100
	300 11900.1 100
	300 11900.1 300
	-300 12100.1 -300
	-300 12100.1 -100
	-300 12100.1 100
	-300 12100.1 300
	-100 12100.1 -300
	-100 12100.1 -100
	-100 12100.1 100
	-100 12100.1 300
	100 12100.1 -300
	100 12100.1 -100
	100 12100.1 100
	100 12100.1 300
	300 12100.1 -300
	300 12100.1 -100
	300 12100.1 100
	300 12100.1 300
	-300 12300.2 -300
	-300 12300.2 -100
	-300 12300.2 100
	-300 12300.2 300
	-100 12300.2 -300
	-100 12300.2 -100
	-100 12300.2 100
	-100 12300.2 300
	100 12300.2 -300
	100 12300.2 -100
	100 12300.2 100
	100 12300.2 300
	300 12300.2 -300
	300 12300.2 -100
	300 12300.2 100
	300 12300.2 300
	-300 12500.2 -300
	-300 12500.2 -100
	-300 12500.2 100
	-300 12500.2 300
	-100 12500.2 -300
	-100 12500.2 -100
	-100 12500.2 100
	-100 12500.2 300
	100 12500.2 -300
	100 12500.2 -100
	100 12500.2 100
	100 12500.2 300
	300 12500.2 -300
	300 12500.2 -100
	300 12500.2 100
	300 12500.2 300
	-300 12700.3 -300
	-300 12700.3 -100
	-300 12700.3 100
	-300 12700.3 300
	-100 12700.3 -300
	-100 12700.3 -100
	-100 12700.3 100
	-100 12700.3 300
	100 12700.3 -300
	100 12700.3 -100
	100 12700.3 100
	100 12700.3 300
	300 12700.3 -300
	300 12700.3 -100
	300 12700.3 100
	300 12700.3 300
	-300 12900.3 -300
	-300 12900.3 -100
	-300 12900.3 100
	-300 12900.3 300
	-100 12900.3 -300
	-100 12900.3 -100
	-100 12900.3 100
	-100 12900.3 300
	100 12900.3 -300
	100 12900.3 -100
	100 12900.3 100
	100 12900.3 300
	300 12900.3 -300
	300 12900.3 -100
	300 12900.3 100
	300 12900.3 300
	-300 13100.4 -300
	-300 13100.4 -100
	-300 13100.4 100
	-300 13100.4 300
	-100 13100.4 -300
	-100 13100.4 -100
	-100 13100.4 100
	-100 13100.4 300
	100 13100.4 -300
	100 13100.4 -100
	100 13100.4 100
	100 13100.4 300
	300 13100.4 -300
	300 13100.4 -100
	300 13100.4 100
	300 13100.4 300
	-300 13300.5 -300
	-300 13300.5 -100
	-300 13300.5 100
	-300 13300.5 300
	-100 13300.5 -300
	-100 13300.5 -100
	-100 13300.5 100
	-100 13300.5 300
	100 13300.5 -300
	100 13300.5 -100
	100 13300.5 100
	100 13300.5 300
	300 13300.5 -300
	300 13300.5 -100
	300 13300.5 100
	300 13300.5 300
	-300 13500.7 -300
	-300 13500.7 -100
	-300 13500.7 100
	-300 13500.7 300
	-100 13500.7 -300
	-100 13500.7 -100
	-100 13500.7 100
	-100 13500.7 300
	100 13500.7 -300
	100 13500.7 -100
	100 13500.7 100
	100 13500.7 300
	300 13500.7 -300
	300 13500.7 -100
	300 13500.7 100
	300 13500.7 300
	-300 13701.1 -300
	-300 13701.1 -100
	-300 13701.1 100
	-300 13701.1 300
	-100 13701.1 -300
	-100 13701.1 -100
	-100 13701.1 100
	-100 13701.1 300
	100 13701.1 -300
	100 13701.1 -100
	100 13701.1 100
	100 13701.1 300
	300 13701.1 -300
	300 13701.1 -100
	300 13701.1 100
	300 13701.1 300
	-300 13902.1 -300
	-300 13902.1 -100
	-300 13902.1 100
	-300 13902.1 300
	-100 13902.1 -300
	-100 13902.1 -100
	-100 13902.1 100
	-100 13902.1 300
	100 13902.1 -300
	100 13902.1 -100
	100 13902.1 100
	100 13902.1 300
	300 13902.1 -300
	300 13902.1 -100
	300 13902.1 100
	300 13902.1 300
  </DataArray>
</Points>
<PointData  Vectors="vector">
  <DataArray type="Float32" Name="Velocity" NumberOfComponents="3" format="ascii">
 -7.12352e-06 -0.000927262 -5.9871e-06
 1.40225e-06 -0.00166383 -4.84673e-06
 1.40242e-06 -0.00166383 4.8656e-06
 -7.13282e-06 -0.000927264 5.96803e-06
 -3.46376e-06 -0.00166383 1.21637e-06
 -9.3524e-06 -0.00247059 -9.41034e-06
 -9.35216e-06 -0.00247058 9.41052e-06
 -3.4536e-06 -0.00166383 -1.21668e-06
 3.44993e-06 -0.00166383 1.19476e-06
 9.35387e-06 -0.00247059 -9.40276e-06
 9.35339e-06 -0.0024706 9.40324e-06
 3.45539e-06 -0.00166383 -1.19547e-06
 7.13631e-06 -0.000927261 -5.84736e-06
 -1.40155e-06 -0.00166383 -5.04804e-06
 -1.40111e-06 -0.00166383 5.03365e-06
 7.13072e-06 -0.000927263 5.86135e-06
 -2.67901e-06 -0.0023268 -2.35548e-06
 -2.13955e-06 -0.000997274 2.30782e-06
 -2.13998e-06 -0.000997275 -2.30988e-06
 -2.7247e-06 -0.00232678 2.35761e-06
 2.08571e-06 -0.000997274 -2.31513e-06
 -3.25928e-06 0.00413586 -3.27437e-06
 -3.2597e-06 0.00413586 3.27455e-06
 2.13235e-06 -0.000997272 2.3151e-06
 -2.12653e-06 -0.000997273 -2.32884e-06
 3.25924e-06 0.00413586 -3.27477e-06
 3.25993e-06 0.00413586 3.27515e-06
 -2.08448e-06 -0.00099727 2.3285e-06
 2.71819e-06 -0.0023268 -2.22378e-06
 2.14053e-06 -0.000997272 2.21191e-06
 2.14095e-06 -0.000997268 -2.23251e-06
 2.67568e-06 -0.00232678 2.24426e-06
 -2.4606e-06 0.0042601 -2.43252e-06
 -4.23e-06 0.00199125 3.9422e-06
 -4.22905e-06 0.00199125 -3.94183e-06
 -2.45963e-06 0.00426011 2.4325e-06
 4.16862e-06 0.00199125 -4.20479e-06
 5.50572e-06 -0.000927844 5.35234e-06
 5.50583e-06 -0.000927854 -5.35246e-06
 4.16697e-06 0.00199124 4.20529e-06
 -4.16794e-06 0.00199125 -4.38044e-06
 -5.50596e-06 -0.000927839 5.45912e-06
 -5.50673e-06 -0.000927842 -5.45899e-06
 -4.16837e-06 0.00199124 4.38057e-06
 2.4583e-06 0.0042601 -2.44056e-06
 4.23045e-06 0.00199125 3.92963e-06
 4.23033e-06 0.00199124 -3.92933e-06
 2.45973e-06 0.00426009 2.44039e-06
 -4.68411e-07 0.000148539 -4.95247e-07
 -3.99666e-07 0.000480571 8.04432e-06
 -3.99664e-07 0.000480589 -8.03866e-06
 -4.6854e-07 0.000148543 4.8985e-07
 8.07978e-06 0.000480581 -4.10717e-07
 8.52424e-06 -0.00476841 8.5037e-06
 8.52438e-06 -0.00476841 -8.49947e-06
 8.0802e-06 0.000480581 4.06734e-07
 -8.07813e-06 0.000480576 -4.07928e-07
 -8.52106e-06 -0.0047684 8.50173e-06
 -8.52088e-06 -0.0047684 -8.50053e-06
 -8.07733e-06 0.000480574 4.06861e-07
 4.65443e-07 0.000148538 -4.90627e-07
 3.96256e-07 0.000480564 8.04074e-06
 3.96065e-07 0.000480569 -8.03971e-06
 4.64618e-07 0.000148543 4.89648e-07
 6.37911e-07 -0.000961438 6.39569e-07
 1.77514e-06 0.00092362 8.2946e-06
 1.77497e-06 0.000923614 -8.29463e-06
 6.379e-07 -0.000961452 -6.39614e-07
 8.29292e-06 0.000923617 1.77999e-06
 7.99621e-06 0.000150729 8.0031e-06
 7.99645e-06 0.000150721 -8.0029e-06
 8.29306e-06 0.000923648 -1.78029e-06
 -8.29347e-06 0.000923629 1.78096e-06
 -7.99666e-06 0.000150726 8.00363e-06
 -7.99642e-06 0.00015073 -8.00343e-06
 -8.29331e-06 0.000923654 -1.78134e-06
 -6.38174e-07 -0.000961435 6.41955e-07
 -1.77495e-06 0.000923633 8.29578e-06
 -1.77512e-06 0.000923647 -8.29568e-06
 -6.38215e-07 -0.000961449 -6.42271e-07
 1.46748e-06 -0.000818559 1.47252e-06
 1.84632e-06 0.000650611 2.24416e-06
 1.84591e-06 0.000650612 -2.24442e-06
 1.46687e-06 -0.000818521 -1.47259e-06
 2.24214e-06 0.000650609 1.85232e-06
 2.92077e-06 -0.0022086 2.92321e-06
 2.92125e-06 -0.00220865 -2.92336e-06
 2.24286e-06 0.000650606 -1.8525e-06
 -2.24332e-06 0.000650608 1.85309e-06
 -2.92171e-06 -0.00220859 2.92308e-06
 -2.92119e-06 -0.00220861 -2.92391e-06
 -2.24282e-06 0.000650605 -1.85264e-06
 -1.46651e-06 -0.000818559 1.47378e-06
 -1.84536e-06 0.000650612 2.24438e-06
 -1.84584e-06 0.000650606 -2.24533e-06
 -1.46689e-06 -0.000818542 -1.47321e-06
 -3.87236e-07 -0.000958645 -3.86453e-07
 -4.36113e-06 -0.00035839 -5.71549e-06
 -4.36522e-06 -0.000358398 5.71637e-06
 -3.8665e-07 -0.000958711 3.85315e-07
 -5.71646e-06 -0.000358391 -4.36081e-06
 -1.56811e-06 -0.000462045 -1.5681e-06
 -1.56409e-06 -0.000461924 1.54012e-06
 -5.71692e-06 -0.000358406 4.38853e-06
 5.71852e-06 -0.000358391 -4.36822e-06
 1.54351e-06 -0.000462057 -1.56414e-06
 1.54816e-06 -0.000462023 1.55207e-06
 5.71794e-06 -0.000358403 4.38e-06
 3.85241e-07 -0.00095864 -3.86373e-07
 4.38585e-06 -0.000358391 -5.71535e-06
 4.38136e-06 -0.000358393 5.71659e-06
 3.85863e-07 -0.000958681 3.84876e-07
 -1.03042e-06 -0.000486562 -1.03023e-06
 6.08169e-07 0.000777669 2.55641e-06
 6.07733e-07 0.00077767 -2.55697e-06
 -1.03045e-06 -0.000486517 1.03092e-06
 2.55733e-06 0.000777667 6.0909e-07
 9.18304e-07 -0.00107077 9.16684e-07
 9.18774e-07 -0.0010708 -9.18506e-07
 2.55742e-06 0.000777668 -6.07157e-07
 -2.5579e-06 0.000777666 6.09269e-07
 -9.2069e-07 -0.00107079 9.16521e-07
 -9.20299e-07 -0.0010708 -9.19194e-07
 -2.55776e-06 0.000777669 -6.06508e-07
 1.03111e-06 -0.000486565 -1.03021e-06
 -6.05655e-07 0.000777668 2.55644e-06
 -6.06032e-07 0.000777665 -2.55725e-06
 1.03099e-06 -0.000486525 1.03113e-06
 -8.9568e-07 -0.000985125 -8.95682e-07
 -9.09127e-07 -0.00235934 -5.33019e-07
 -9.09108e-07 -0.00235935 5.33423e-07
 -8.95654e-07 -0.000985123 8.95715e-07
 -5.33073e-07 -0.00235934 -9.09124e-07
 -5.21464e-07 0.000786392 -5.21408e-07
 -5.21465e-07 0.000786443 5.218e-07
 -5.33078e-07 -0.00235935 9.09148e-07
 5.33305e-07 -0.00235934 -9.09125e-07
 5.21684e-07 0.000786367 -5.21419e-07
 5.21678e-07 0.000786379 5.21791e-07
 5.33287e-07 -0.00235935 9.09144e-07
 8.95552e-07 -0.000985124 -8.95682e-07
 9.08994e-07 -0.00235935 -5.3304e-07
 9.08999e-07 -0.00235934 5.3341e-07
 8.9555e-07 -0.000985121 8.9572e-07
 -5.42407e-07 0.000703935 -5.42207e-07
 -5.66397e-07 0.00172388 -3.70364e-07
 -5.66403e-07 0.00172388 3.70692e-07
 -5.42429e-07 0.000703926 5.42422e-07
 -3.70544e-07 0.00172388 -5.66186e-07
 -3.67368e-07 0.00134131 -3.67192e-07
 -3.6737e-07 0.00134127 3.67508e-07
 -3.70555e-07 0.00172388 5.66396e-07
 3.70586e-07 0.00172388 -5.66198e-07
 3.67409e-07 0.00134134 -3.67198e-07
 3.6741e-07 0.00134133 3.67506e-07
 3.7058e-07 0.00172388 5.66392e-07
 5.42399e-07 0.00070394 -5.42223e-07
 5.66368e-07 0.00172388 -3.7038e-07
 5.6637e-07 0.00172388 3.70688e-07
 5.4239e-07 0.00070392 5.42431e-07
 7.09673e-08 -0.000304458 7.11537e-08
 6.01199e-08 0.000275323 -1.12687e-07
 6.01031e-08 0.000275303 1.12827e-07
 7.0949e-08 -0.000304462 -7.0862e-08
 -1.12783e-07 0.000275324 6.02833e-08
 -1.06474e-07 -0.002616 -1.06352e-07
 -1.06465e-07 -0.00261601 1.06523e-07
 -1.12785e-07 0.000275289 -6.00313e-08
 1.12769e-07 0.000275324 6.02863e-08
 1.06432e-07 -0.002616 -1.06349e-07
 1.0644e-07 -0.00261601 1.06519e-07
 1.12755e-07 0.0002753 -6.00451e-08
 -7.09464e-08 -0.000304459 7.11605e-08
 -6.00927e-08 0.000275325 -1.1266e-07
 -6.01057e-08 0.000275318 1.12829e-07
 -7.09766e-08 -0.000304453 -7.09035e-08
 1.07554e-06 -7.19201e-07 1.0756e-06
 1.06692e-06 -6.74306e-05 1.63018e-07
 1.0669e-06 -6.74065e-05 -1.62918e-07
 1.07548e-06 -7.2042e-07 -1.07552e-06
 1.63007e-07 -6.74316e-05 1.06702e-06
 1.82176e-07 -0.000829762 1.82169e-07
 1.82166e-07 -0.000829745 -1.82067e-07
 1.62973e-07 -6.73928e-05 -1.06694e-06
 -1.62989e-07 -6.74318e-05 1.06702e-06
 -1.82168e-07 -0.000829762 1.82163e-07
 -1.82167e-07 -0.000829753 -1.82061e-07
 -1.62989e-07 -6.74042e-05 -1.06694e-06
 -1.07554e-06 -7.17972e-07 1.07561e-06
 -1.06694e-06 -6.74317e-05 1.63015e-07
 -1.06692e-06 -6.74215e-05 -1.62906e-07
 -1.07551e-06 -7.18389e-07 -1.07552e-06
 2.94621e-06 0.000406591 2.94622e-06
 2.92602e-06 0.000767988 1.17772e-06
 2.92599e-06 0.000767983 -1.17772e-06
 2.94616e-06 0.000406591 -2.94623e-06
 1.17772e-06 0.000767988 2.92605e-06
 1.17943e-06 0.00072964 1.17945e-06
 1.17941e-06 0.000729635 -1.17946e-06
 1.17766e-06 0.000767977 -2.92603e-06
 -1.17772e-06 0.000767986 2.92604e-06
 -1.17945e-06 0.000729642 1.17946e-06
 -1.17943e-06 0.000729641 -1.17946e-06
 -1.1777e-06 0.000767977 -2.92602e-06
 -2.94621e-06 0.00040659 2.94622e-06
 -2.92602e-06 0.000767985 1.17773e-06
 -2.92602e-06 0.000767981 -1.17773e-06
 -2.94618e-06 0.000406589 -2.94619e-06
 -2.38056e-06 0.00033922 -2.38054e-06
 -1.90397e-06 -0.000686758 1.79467e-06
 -1.90383e-06 -0.00068676 -1.79464e-06
 -2.38043e-06 0.000339223 2.3804e-06
 1.79462e-06 -0.000686757 -1.90401e-06
 1.57211e-06 0.000420466 1.57212e-06
 1.57209e-06 0.000420449 -1.57217e-06
 1.79467e-06 -0.000686736 1.90397e-06
 -1.79462e-06 -0.000686749 -1.90399e-06
 -1.57216e-06 0.000420469 1.57212e-06
 -1.57214e-06 0.000420463 -1.57218e-06
 -1.79467e-06 -0.000686729 1.90396e-06
 2.38051e-06 0.000339218 -2.38044e-06
 1.90395e-06 -0.000686746 1.7946e-06
 1.90379e-06 -0.000686734 -1.7947e-06
 2.3803e-06 0.00033922 2.38047e-06
 -1.53249e-06 1.86434e-05 -1.53251e-06
 -1.384e-06 -2.68107e-05 1.07115e-06
 -1.38402e-06 -2.68106e-05 -1.0712e-06
 -1.53255e-06 1.86426e-05 1.53241e-06
 1.07117e-06 -2.6812e-05 -1.38401e-06
 1.06355e-06 -0.00187363 1.06355e-06
 1.06352e-06 -0.00187363 -1.06359e-06
 1.07112e-06 -2.68267e-05 1.38392e-06
 -1.07118e-06 -2.68177e-05 -1.38401e-06
 -1.06359e-06 -0.00187363 1.06355e-06
 -1.06359e-06 -0.00187363 -1.06359e-06
 -1.07117e-06 -2.68317e-05 1.38393e-06
 1.53243e-06 1.86427e-05 -1.53248e-06
 1.38396e-06 -2.68199e-05 1.07114e-06
 1.38398e-06 -2.68292e-05 -1.0712e-06
 1.53246e-06 1.86419e-05 1.53243e-06
 -5.48692e-06 0.000134257 -5.48696e-06
 -5.92469e-06 0.000479764 -2.26189e-06
 -5.9247e-06 0.000479765 2.26183e-06
 -5.48693e-06 0.000134257 5.48688e-06
 -2.26187e-06 0.000479764 -5.9247e-06
 -2.32733e-06 0.00091122 -2.32735e-06
 -2.32734e-06 0.000911221 2.32728e-06
 -2.26189e-06 0.000479764 5.92465e-06
 2.26185e-06 0.000479763 -5.9247e-06
 2.3273e-06 0.000911221 -2.32735e-06
 2.3273e-06 0.000911222 2.32729e-06
 2.26186e-06 0.000479762 5.92465e-06
 5.48691e-06 0.000134255 -5.48695e-06
 5.92467e-06 0.000479763 -2.26189e-06
 5.92467e-06 0.000479762 2.26185e-06
 5.48688e-06 0.000134254 5.48689e-06
 -2.31133e-08 -0.000403941 -2.31438e-08
 5.83696e-07 -0.000877011 5.0797e-07
 5.83693e-07 -0.000877011 -5.08022e-07
 -2.31229e-08 -0.00040394 2.30921e-08
 5.07999e-07 -0.000877011 5.83672e-07
 7.10991e-07 -0.000309477 7.10969e-07
 7.10988e-07 -0.000309477 -7.11014e-07
 5.0799e-07 -0.000877011 -5.83717e-07
 -5.07995e-07 -0.000877011 5.83674e-07
 -7.10994e-07 -0.000309477 7.10971e-07
 -7.10997e-07 -0.000309477 -7.11011e-07
 -5.08005e-07 -0.000877011 -5.83714e-07
 2.3117e-08 -0.000403937 -2.31373e-08
 -5.837e-07 -0.000877011 5.07977e-07
 -5.83703e-07 -0.000877011 -5.08013e-07
 2.31061e-08 -0.000403935 2.31014e-08
 -2.96613e-06 -0.000869587 -2.96616e-06
 -1.89911e-06 -0.00115555 -6.82775e-07
 -1.89911e-06 -0.00115555 6.82748e-07
 -2.96614e-06 -0.000869586 2.96613e-06
 -6.82752e-07 -0.00115555 -1.89913e-06
 -3.23603e-07 -0.00118076 -3.23623e-07
 -3.23605e-07 -0.00118076 3.236e-07
 -6.82756e-07 -0.00115555 1.89911e-06
 6.82771e-07 -0.00115555 -1.89913e-06
 3.23618e-07 -0.00118076 -3.2362e-07
 3.23615e-07 -0.00118076 3.23603e-07
 6.82764e-07 -0.00115555 1.89911e-06
 2.96615e-06 -0.000869588 -2.96615e-06
 1.89912e-06 -0.00115555 -6.82769e-07
 1.89912e-06 -0.00115555 6.82754e-07
 2.96614e-06 -0.000869586 2.96614e-06
 -6.97403e-06 -0.00124049 -6.97405e-06
 -4.82437e-06 -0.000176676 -3.74698e-06
 -4.82437e-06 -0.000176674 3.747e-06
 -6.97403e-06 -0.00124049 6.97403e-06
 -3.74698e-06 -0.000176677 -4.82437e-06
 -3.28718e-06 -0.00138469 -3.2872e-06
 -3.28718e-06 -0.00138469 3.28719e-06
 -3.74699e-06 -0.000176693 4.82438e-06
 3.74702e-06 -0.000176689 -4.82437e-06
 3.2872e-06 -0.00138469 -3.2872e-06
 3.2872e-06 -0.00138469 3.2872e-06
 3.74701e-06 -0.000176708 4.82438e-06
 6.97404e-06 -0.00124049 -6.97403e-06
 4.82439e-06 -0.000176694 -3.74698e-06
 4.82438e-06 -0.000176708 3.747e-06
 6.97404e-06 -0.00124049 6.97403e-06
 8.90817e-07 0.00221539 8.90809e-07
 1.10064e-06 0.000154598 2.40899e-06
 1.10065e-06 0.000154596 -2.40897e-06
 8.90808e-07 0.00221538 -8.90809e-07
 2.40898e-06 0.000154599 1.10062e-06
 2.10802e-06 -0.00132317 2.10805e-06
 2.10801e-06 -0.00132317 -2.10802e-06
 2.40898e-06 0.000154616 -1.10062e-06
 -2.40898e-06 0.000154612 1.10062e-06
 -2.10802e-06 -0.00132317 2.10805e-06
 -2.10804e-06 -0.00132317 -2.10802e-06
 -2.40898e-06 0.000154631 -1.10062e-06
 -8.90811e-07 0.00221539 8.90812e-07
 -1.10064e-06 0.000154617 2.40899e-06
 -1.10062e-06 0.000154632 -2.40896e-06
 -8.90815e-07 0.00221539 -8.90813e-07
 7.12567e-07 5.51018e-05 7.12584e-07
 6.41022e-07 -0.00111859 4.96364e-06
 6.41013e-07 -0.00111859 -4.96363e-06
 7.12563e-07 5.51022e-05 -7.12565e-07
 4.96363e-06 -0.00111859 6.41015e-07
 4.22764e-06 0.0011655 4.22768e-06
 4.22764e-06 0.0011655 -4.22764e-06
 4.96363e-06 -0.00111859 -6.41021e-07
 -4.96364e-06 -0.00111859 6.41022e-07
 -4.22766e-06 0.0011655 4.22767e-06
 -4.22766e-06 0.0011655 -4.22763e-06
 -4.96364e-06 -0.00111859 -6.41024e-07