<?xml version="1.0"?>
<!-- time 81.7221-->
<VTKFile type="UnstructuredGrid" version="0.1" byte_order="LittleEndian">
<UnstructuredGrid>
<Piece NumberOfPoints="960" NumberOfCells="0">
<Points>
  <DataArray type="Float32" Name="Position" NumberOfComponents="3" format="ascii">
	-300 2099.65 -300
	-300 2099.66 -100
	-300 2099.66 100
	-300 2099.65 300
	-100 2099.66 -300
	-100 2099.51 -100
	-100 2099.51 100
	-100 2099.66 300
	100 2099.66 -300
	100 2099.51 -100
	100 2099.51 100
	100 2099.66 300
	300 2099.65 -300
	300 2099.66 -100
	300 2099.66 100
	300 2099.65 300
	-300 2299.67 -300
	-300 2299.66 -100
	-300 2299.66 100
	-300 2299.67 300
	-100 2299.66 -300
	-100 2299.53 -100
	-100 2299.53 100
	-100 2299.66 300
	100 2299.66 -300
	100 2299.53 -100
	100 2299.53 100
	100 2299.66 300
	300 2299.67 -300
	300 2299.66 -100
	300 2299.66 100
	300 2299.67 300
	-300 2499.68 -300
	-300 2499.67 -100
	-300 2499.67 100
	-300 2499.68 300
	-100 2499.67 -300
	-100 2499.64 -100
	-100 2499.64 100
	-100 2499.67 300
	100 2499.67 -300
	100 2499.64 -100
	100 2499.64 100
	100 2499.67 300
	300 2499.68 -300
	300 2499.67 -100
	300 2499.67 100
	300 2499.68 300
	-300 2699.68 -300
	-300 2699.67 -100
	-300 2699.67 100
	-300 2699.68 300
	-100 2699.67 -300
	-100 2699.64 -100
	-100 2699.64 100
	-100 2699.67 300
	100 2699.67 -300
	100 2699.64 -100
	100 2699.64 100
	100 2699.67 300
	300 2699.68 -300
	300 2699.67 -100
	300 2699.67 100
	300 2699.68 300
	-300 2899.68 -300
	-300 2899.67 -100
	-300 2899.67 100
	-300 2899.68 300
	-100 2899.67 -300
	-100 2899.64 -100
	-100 2899.64 100
	-100 2899.67 300
	100 2899.67 -300
	100 2899.64 -100
	100 2899.64 100
	100 2899.67 300
	300 2899.68 -300
	300 2899.67 -100
	300 2899.67 100
	300 2899.68 300
	-300 3099.68 -300
	-300 3099.67 -100
	-300 3099.67 100
	-300 3099.68 300
	-100 3099.67 -300
	-100 3099.64 -100
	-100 3099.64 100
	-100 3099.67 300
	100 3099.67 -300
	100 3099.64 -100
	100 3099.64 100
	100 3099.67 300
	300 3099.68 -300
	300 3099.67 -100
	300 3099.67 100
	300 3099.68 300
	-300 3299.68 -300
	-300 3299.67 -100
	-300 3299.67 100
	-300 3299.68 300
	-100 3299.67 -300
	-100 3299.64 -100
	-100 3299.64 100
	-100 3299.67 300
	100 3299.67 -300
	100 3299.64 -100
	100 3299.64 100
	100 3299.67 300
	300 3299.68 -300
	300 3299.67 -100
	300 3299.67 100
	300 3299.68 300
	-300 3499.68 -300
	-300 3499.67 -100
	-300 3499.67 100
	-300 3499.68 300
	-100 3499.67 -300
	-100 3499.64 -100
	-100 3499.64 100
	-100 3499.67 300
	100 3499.67 -300
	100 3499.64 -100
	100 3499.64 100
	100 3499.67 300
	300 3499.68 -300
	300 3499.67 -100
	300 3499.67 100
	300 3499.68 300
	-300 3699.69 -300
	-300 3699.67 -100
	-300 3699.67 100
	-300 3699.69 300
	-100 3699.67 -300
	-100 3699.64 -100
	-100 3699.64 100
	-100 3699.67 300
	100 3699.67 -300
	100 3699.64 -100
	100 3699.64 100
	100 3699.67 300
	300 3699.69 -300
	300 3699.67 -100
	300 3699.67 100
	300 3699.69 300
	-300 3899.69 -300
	-300 3899.67 -100
	-300 3899.67 100
	-300 3899.69 300
	-100 3899.67 -300
	-100 3899.64 -100
	-100 3899.64 100
	-100 3899.67 300
	100 3899.67 -300
	100 3899.64 -100
	100 3899.64 100
	100 3899.67 300
	300 3899.69 -300
	300 3899.67 -100
	300 3899.67 100
	300 3899.69 300
	-300 4099.69 -300
	-300 4099.67 -100
	-300 4099.67 100
	-300 4099.69 300
	-100 4099.67 -300
	-100 4099.64 -100
	-100 4099.64 100
	-100 4099.67 300
	100 4099.67 -300
	100 4099.64 -100
	100 4099.64 100
	100 4099.67 300
	300 4099.69 -300
	300 4099.67 -100
	300 4099.67 100
	300 4099.69 300
	-300 4299.69 -300
	-300 4299.67 -100
	-300 4299.67 100
	-300 4299.69 300
	-100 4299.67 -300
	-100 4299.64 -100
	-100 4299.64 100
	-100 4299.67 300
	100 4299.67 -300
	100 4299.64 -100
	100 4299.64 100
	100 4299.67 300
	300 4299.69 -300
	300 4299.67 -100
	300 4299.67 100
	300 4299.69 300
	-300 4499.69 -300
	-300 4499.67 -100
	-300 4499.67 100
	-300 4499.69 300
	-100 4499.67 -300
	-100 4499.64 -100
	-100 4499.64 100
	-100 4499.67 300
	100 4499.67 -300
	100 4499.64 -100
	100 4499.64 100
	100 4499.67 300
	300 4499.69 -300
	300 4499.67 -100
	300 4499.67 100
	300 4499.69 300
	-300 4699.69 -300
	-300 4699.67 -100
	-300 4699.67 100
	-300 4699.69 300
	-100 4699.67 -300
	-100 4699.65 -100
	-100 4699.65 100
	-100 4699.67 300
	100 4699.67 -300
	100 4699.65 -100
	100 4699.65 100
	100 4699.67 300
	300 4699.69 -300
	300 4699.67 -100
	300 4699.67 100
	300 4699.69 300
	-300 4899.7 -300
	-300 4899.67 -100
	-300 4899.67 100
	-300 4899.7 300
	-100 4899.67 -300
	-100 4899.65 -100
	-100 4899.65 100
	-100 4899.67 300
	100 4899.67 -300
	100 4899.65 -100
	100 4899.65 100
	100 4899.67 300
	300 4899.7 -300
	300 4899.67 -100
	300 4899.67 100
	300 4899.7 300
	-300 5099.7 -300
	-300 5099.68 -100
	-300 5099.68 100
	-300 5099.7 300
	-100 5099.68 -300
	-100 5099.66 -100
	-100 5099.66 100
	-100 5099.68 300
	100 5099.68 -300
	100 5099.66 -100
	100 5099.66 100
	100 5099.68 300
	300 5099.7 -300
	300 5099.68 -100
	300 5099.68 100
	300 5099.7 300
	-300 5299.7 -300
	-300 5299.68 -100
	-300 5299.68 100
	-300 5299.7 300
	-100 5299.68 -300
	-100 5299.67 -100
	-100 5299.67 100
	-100 5299.68 300
	100 5299.68 -300
	100 5299.67 -100
	100 5299.67 100
	100 5299.68 300
	300 5299.7 -300
	300 5299.68 -100
	300 5299.68 100
	300 5299.7 300
	-300 5499.7 -300
	-300 5499.68 -100
	-300 5499.68 100
	-300 5499.7 300
	-100 5499.68 -300
	-100 5499.68 -100
	-100 5499.68 100
	-100 5499.68 300
	100 5499.68 -300
	100 5499.68 -100
	100 5499.68 100
	100 5499.68 300
	300 5499.7 -300
	300 5499.68 -100
	300 5499.68 100
	300 5499.7 300
	-300 5699.71 -300
	-300 5699.69 -100
	-300 5699.69 100
	-300 5699.71 300
	-100 5699.69 -300
	-100 5699.68 -100
	-100 5699.68 100
	-100 5699.69 300
	100 5699.69 -300
	100 5699.68 -100
	100 5699.68 100
	100 5699.69 300
	300 5699.71 -300
	300 5699.69 -100
	300 5699.69 100
	300 5699.71 300
	-300 5899.71 -300
	-300 5899.69 -100
	-300 5899.69 100
	-300 5899.71 300
	-100 5899.69 -300
	-100 5899.68 -100
	-100 5899.68 100
	-100 5899.69 300
	100 5899.69 -300
	100 5899.68 -100
	100 5899.68 100
	100 5899.69 300
	300 5899.71 -300
	300 5899.69 -100
	300 5899.69 100
	300 5899.71 300
	-300 6099.71 -300
	-300 6099.7 -100
	-300 6099.7 100
	-300 6099.71 300
	-100 6099.7 -300
	-100 6099.68 -100
	-100 6099.68 100
	-100 6099.7 300
	100 6099.7 -300
	100 6099.68 -100
	100 6099.68 100
	100 6099.7 300
	300 6099.71 -300
	300 6099.7 -100
	300 6099.7 100
	300 6099.71 300
	-300 6299.72 -300
	-300 6299.7 -100
	-300 6299.7 100
	-300 6299.72 300
	-100 6299.7 -300
	-100 6299.68 -100
	-100 6299.68 100
	-100 6299.7 300
	100 6299.7 -300
	100 6299.68 -100
	100 6299.68 100
	100 6299.7 300
	300 6299.72 -300
	300 6299.7 -100
	300 6299.7 100
	300 6299.72 300
	-300 6499.76 -300
	-300 6499.7 -100
	-300 6499.7 100
	-300 6499.76 300
	-100 6499.7 -300
	-100 6499.7 -100
	-100 6499.7 100
	-100 6499.7 300
	100 6499.7 -300
	100 6499.7 -100
	100 6499.7 100
	100 6499.7 300
	300 6499.76 -300
	300 6499.7 -100
	300 6499.7 100
	300 6499.76 300
	-300 6699.84 -300
	-300 6699.84 -100
	-300 6699.84 100
	-300 6699.84 300
	-100 6699.84 -300
	-100 6699.84 -100
	-100 6699.84 100
	-100 6699.84 300
	100 6699.84 -300
	100 6699.84 -100
	100 6699.84 100
	100 6699.84 300
	300 6699.84 -300
	300 6699.84 -100
	300 6699.84 100
	300 6699.84 300
	-300 6899.84 -300
	-300 6899.84 -100
	-300 6899.84 100
	-300 6899.84 300
	-100 6899.84 -300
	-100 6899.84 -100
	-100 6899.84 100
	-100 6899.84 300
	100 6899.84 -300
	100 6899.84 -100
	100 6899.84 100
	100 6899.84 300
	300 6899.84 -300
	300 6899.84 -100
	300 6899.84 100
	300 6899.84 300
	-300 7099.84 -300
	-300 7099.84 -100
	-300 7099.84 100
	-300 7099.84 300
	-100 7099.84 -300
	-100 7099.84 -100
	-100 7099.84 100
	-100 7099.84 300
	100 7099.84 -300
	100 7099.84 -100
	100 7099.84 100
	100 7099.84 300
	300 7099.84 -300
	300 7099.84 -100
	300 7099.84 100
	300 7099.84 300
	-300 7299.85 -300
	-300 7299.85 -100
	-300 7299.85 100
	-300 7299.85 300
	-100 7299.85 -300
	-100 7299.85 -100
	-100 7299.85 100
	-100 7299.85 300
	100 7299.85 -300
	100 7299.85 -100
	100 7299.85 100
	100 7299.85 300
	300 7299.85 -300
	300 7299.85 -100
	300 7299.85 100
	300 7299.85 300
	-300 7499.85 -300
	-300 7499.85 -100
	-300 7499.85 100
	-300 7499.85 300
	-100 7499.85 -300
	-100 7499.85 -100
	-100 7499.85 100
	-100 7499.85 300
	100 7499.85 -300
	100 7499.85 -100
	100 7499.85 100
	100 7499.85 300
	300 7499.85 -300
	300 7499.85 -100
	300 7499.85 100
	300 7499.85 300
	-300 7699.86 -300
	-300 7699.86 -100
	-300 7699.86 100
	-300 7699.86 300
	-100 7699.86 -300
	-100 7699.86 -100
	-100 7699.86 100
	-100 7699.86 300
	100 7699.86 -300
	100 7699.86 -100
	100 7699.86 100
	100 7699.86 300
	300 7699.86 -300
	300 7699.86 -100
	300 7699.86 100
	300 7699.86 300
	-300 7899.86 -300
	-300 7899.86 -100
	-300 7899.86 100
	-300 7899.86 300
	-100 7899.86 -300
	-100 7899.86 -100
	-100 7899.86 100
	-100 7899.86 300
	100 7899.86 -300
	100 7899.86 -100
	100 7899.86 100
	100 7899.86 300
	300 7899.86 -300
	300 7899.86 -100
	300 7899.86 100
	300 7899.86 300
	-300 8099.87 -300
	-300 8099.86 -100
	-300 8099.86 100
	-300 8099.87 300
	-100 8099.86 -300
	-100 8099.86 -100
	-100 8099.86 100
	-100 8099.86 300
	100 8099.86 -300
	100 8099.86 -100
	100 8099.86 100
	100 8099.86 300
	300 8099.87 -300
	300 8099.86 -100
	300 8099.86 100
	300 8099.87 300
	-300 8299.87 -300
	-300 8299.87 -100
	-300 8299.87 100
	-300 8299.87 300
	-100 8299.87 -300
	-100 8299.87 -100
	-100 8299.87 100
	-100 8299.87 300
	100 8299.87 -300
	100 8299.87 -100
	100 8299.87 100
	100 8299.87 300
	300 8299.87 -300
	300 8299.87 -100
	300 8299.87 100
	300 8299.87 300
	-300 8499.88 -300
	-300 8499.88 -100
	-300 8499.88 100
	-300 8499.88 300
	-100 8499.88 -300
	-100 8499.88 -100
	-100 8499.88 100
	-100 8499.88 300
	100 8499.88 -300
	100 8499.88 -100
	100 8499.88 100
	100 8499.88 300
	300 8499.88 -300
	300 8499.88 -100
	300 8499.88 100
	300 8499.88 300
	-300 8699.88 -300
	-300 8699.88 -100
	-300 8699.88 100
	-300 8699.88 300
	-100 8699.88 -300
	-100 8699.88 -100
	-100 8699.88 100
	-100 8699.88 300
	100 8699.88 -300
	100 8699.88 -100
	100 8699.88 100
	100 8699.88 300
	300 8699.88 -300
	300 8699.88 -100
	300 8699.88 100
	300 8699.88 300
	-300 8899.89 -300
	-300 8899.88 -100
	-300 8899.88 100
	-300 8899.89 300
	-100 8899.88 -300
	-100 8899.88 -100
	-100 8899.88 100
	-100 8899.88 300
	100 8899.88 -300
	100 8899.88 -100
	100 8899.88 100
	100 8899.88 300
	300 8899.89 -300
	300 8899.88 -100
	300 8899.88 100
	300 8899.89 300
	-300 9099.89 -300
	-300 9099.89 -100
	-300 9099.89 100
	-300 9099.89 300
	-100 9099.89 -300
	-100 9099.89 -100
	-100 9099.89 100
	-100 9099.89 300
	100 9099.89 -300
	100 9099.89 -100
	100 9099.89 100
	100 9099.89 300
	300 9099.89 -300
	300 9099.89 -100
	300 9099.89 100
	300 9099.89 300
	-300 9299.9 -300
	-300 9299.89 -100
	-300 9299.89 100
	-300 9299.9 300
	-100 9299.89 -300
	-100 9299.89 -100
	-100 9299.89 100
	-100 9299.89 300
	100 9299.89 -300
	100 9299.89 -100
	100 9299.89 100
	100 9299.89 300
	300 9299.9 -300
	300 9299.89 -100
	300 9299.89 100
	300 9299.9 300
	-300 9499.9 -300
	-300 9499.9 -100
	-300 9499.9 100
	-300 9499.9 300
	-100 9499.9 -300
	-100 9499.9 -100
	-100 9499.9 100
	-100 9499.9 300
	100 9499.9 -300
	100 9499.9 -100
	100 9499.9 100
	100 9499.9 300
	300 9499.9 -300
	300 9499.9 -100
	300 9499.9 100
	300 9499.9 300
	-300 9699.9 -300
	-300 9699.9 -100
	-300 9699.9 100
	-300 9699.9 300
	-100 9699.9 -300
	-100 9699.9 -100
	-100 9699.9 100
	-100 9699.9 300
	100 9699.9 -300
	100 9699.9 -100
	100 9699.9 100
	100 9699.9 300
	300 9699.9 -300
	300 9699.9 -100
	300 9699.9 100
	300 9699.9 300
	-300 9899.91 -300
	-300 9899.91 -100
	-300 9899.91 100
	-300 9899.91 300
	-100 9899.91 -300
	-100 9899.91 -100
	-100 9899.91 100
	-100 9899.91 300
	100 9899.91 -300
	100 9899.91 -100
	100 9899.91 100
	100 9899.91 300
	300 9899.91 -300
	300 9899.91 -100
	300 9899.91 100
	300 9899.91 300
	-300 10099.9 -300
	-300 10099.9 -100
	-300 10099.9 100
	-300 10099.9 300
	-100 10099.9 -300
	-100 10099.9 -100
	-100 10099.9 100
	-100 10099.9 300
	100 10099.9 -300
	100 10099.9 -100
	100 10099.9 100
	100 10099.9 300
	300 10099.9 -300
	300 10099.9 -100
	300 10099.9 100
	300 10099.9 300
	-300 10299.9 -300
	-300 10299.9 -100
	-300 10299.9 100
	-300 10299.9 300
	-100 10299.9 -300
	-100 10299.9 -100
	-100 10299.9 100
	-100 10299.9 300
	100 10299.9 -300
	100 10299.9 -100
	100 10299.9 100
	100 10299.9 300
	300 10299.9 -300
	300 10299.9 -100
	300 10299.9 100
	300 10299.9 300
	-300 10499.9 -300
	-300 10499.9 -100
	-300 10499.9 100
	-300 10499.9 300
	-100 10499.9 -300
	-100 10499.9 -100
	-100 10499.9 100
	-100 10499.9 300
	100 10499.9 -300
	100 10499.9 -100
	100 10499.9 100
	100 10499.9 300
	300 10499.9 -300
	300 10499.9 -100
	300 10499.9 100
	300 10499.9 300
	-300 10700 -300
	-300 10700 -100
	-300 10700 100
	-300 10700 300
	-100 10700 -300
	-100 10700 -100
	-100 10700 100
	-100 10700 300
	100 10700 -300
	100 10700 -100
	100 10700 100
	100 10700 300
	300 10700 -300
	300 10700 -100
	300 10700 100
	300 10700 300
	-300 10900 -300
	-300 10900 -100
	-300 10900 100
	-300 10900 300
	-100 10900 -300
	-100 10900 -100
	-100 10900 100
	-100 10900 300
	100 10900 -300
	100 10900 -100
	100 10900 100
	100 10900 300
	300 10900 -300
	300 10900 -100
	300 10900 100
	300 10900 300
	-300 11100 -300
	-300 11100 -100
	-300 11100 100
	-300 11100 300
	-100 11100 -300
	-100 11100 -100
	-100 11100 100
	-100 11100 300
	100 11100 -300
	100 11100 -100
	100 11100 100
	100 11100 300
	300 11100 -300
	300 11100 -100
	300 11100 100
	300 11100 300
	-300 11300 -300
	-300 11300 -100
	-300 11300 100
	-300 11300 300
	-100 11300 -300
	-100 11300 -100
	-100 11300 100
	-100 11300 300
	100 11300 -300
	100 11300 -100
	100 11300 100
	100 11300 300
	300 11300 -300
	300 11300 -100
	300 11300 100
	300 11300 300
	-300 11500 -300
	-300 11500 -100
	-300 11500 100
	-300 11500 300
	-100 11500 -300
	-100 11500 -100
	-100 11500 100
	-100 11500 300
	100 11500 -300
	100 11500 -100
	100 11500 100
	100 11500 300
	300 11500 -300
	300 11500 -100
	300 11500 100
	300 11500 300
	-300 11700 -300
	-300 11700 -100
	-300 11700 100
	-300 11700 300
	-100 11700 -300
	-100 11700 -100
	-100 11700 100
	-100 11700 300
	100 11700 -300
	100 11700 -100
	100 11700 100
	100 11700 300
	300 11700 -300
	300 11700 -100
	300 11700 100
	300 11700 300
	-300 11900.1 -300
	-300 11900.1 -100
	-300 11900.1 100
	-300 11900.1 300
	-100 11900.1 -300
	-100 11900.1 -100
	-100 11900.1 100
	-100 11900.1 300
	100 11900.1 -300
	100 11900.1 -100
	100 11900.1 100
	100 11900.1 300
	300 11900.1 -300
	300 11900.1 -100
	300 11900.1 100
	300 11900.1 300
	-300 12100.1 -300
	-300 12100.1 -100
	-300 12100.1 100
	-300 12100.1 300
	-100 12100.1 -300
	-100 12100.1 -100
	-100 12100.1 100
	-100 12100.1 300
	100 12100.1 -300
	100 12100.1 -100
	100 12100.1 100
	100 12100.1 300
	300 12100.1 -300
	300 12100.1 -100
	300 12100.1 100
	300 12100.1 300
	-300 12300.1 -300
	-300 12300.1 -100
	-300 12300.1 100
	-300 12300.1 300
	-100 12300.1 -300
	-100 12300.1 -100
	-100 12300.1 100
	-100 12300.1 300
	100 12300.1 -300
	100 12300.1 -100
	100 12300.1 100
	100 12300.1 300
	300 12300.1 -300
	300 12300.1 -100
	300 12300.1 100
	300 12300.1 300
	-300 12500.2 -300
	-300 12500.2 -100
	-300 12500.2 100
	-300 12500.2 300
	-100 12500.2 -300
	-100 12500.2 -100
	-100 12500.2 100
	-100 12500.2 300
	100 12500.2 -300
	100 12500.2 -100
	100 12500.2 100
	100 12500.2 300
	300 12500.2 -300
	300 12500.2 -100
	300 12500.2 100
	300 12500.2 300
	-300 12700.2 -300
	-300 12700.2 -100
	-300 12700.2 100
	-300 12700.2 300
	-100 12700.2 -300
	-100 12700.2 -100
	-100 12700.2 100
	-100 12700.2 300
	100 12700.2 -300
	100 12700.2 -100
	100 12700.2 100
	100 12700.2 300
	300 12700.2 -300
	300 12700.2 -100
	300 12700.2 100
	300 12700.2 300
	-300 12900.3 -300
	-300 12900.3 -100
	-300 12900.3 100
	-300 12900.3 300
	-100 12900.3 -300
	-100 12900.3 -100
	-100 12900.3 100
	-100 12900.3 300
	100 12900.3 -300
	100 12900.3 -100
	100 12900.3 100
	100 12900.3 300
	300 12900.3 -300
	300 12900.3 -100
	300 12900.3 100
	300 12900.3 300
	-300 13100.4 -300
	-300 13100.4 -100
	-300 13100.4 100
	-300 13100.4 300
	-100 13100.4 -300
	-100 13100.4 -100
	-100 13100.4 100
	-100 13100.4 300
	100 13100.4 -300
	100 13100.4 -100
	100 13100.4 100
	100 13100.4 300
	300 13100.4 -300
	300 13100.4 -100
	300 13100.4 100
	300 13100.4 300
	-300 13300.5 -300
	-300 13300.5 -100
	-300 13300.5 100
	-300 13300.5 300
	-100 13300.5 -300
	-100 13300.5 -100
	-100 13300.5 100
	-100 13300.5 300
	100 13300.5 -300
	100 13300.5 -100
	100 13300.5 100
	100 13300.5 300
	300 13300.5 -300
	300 13300.5 -100
	300 13300.5 100
	300 13300.5 300
	-300 13500.7 -300
	-300 13500.7 -100
	-300 13500.7 100
	-300 13500.7 300
	-100 13500.7 -300
	-100 13500.7 -100
	-100 13500.7 100
	-100 13500.7 300
	100 13500.7 -300
	100 13500.7 -100
	100 13500.7 100
	100 13500.7 300
	300 13500.7 -300
	300 13500.7 -100
	300 13500.7 100
	300 13500.7 300
	-300 13701 -300
	-300 13701 -100
	-300 13701 100
	-300 13701 300
	-100 13701 -300
	-100 13701 -100
	-100 13701 100
	-100 13701 300
	100 13701 -300
	100 13701 -100
	100 13701 100
	100 13701 300
	300 13701 -300
	300 13701 -100
	300 13701 100
	300 13701 300
	-300 13902 -300
	-300 13902 -100
	-300 13902 100
	-300 13902 300
	-100 13902 -300
	-100 13902 -100
	-100 13902 100
	-100 13902 300
	100 13902 -300
	100 13902 -100
	100 13902 100
	100 13902 300
	300 13902 -300
	300 13902 -100
	300 13902 100
	300 13902 300
  </DataArray>
</Points>
<PointData  Vectors="vector">
  <DataArray type="Float32" Name="Velocity" NumberOfComponents="3" format="ascii">
 4.45602e-07 -0.0027371 3.59614e-07
 2.56482e-06 0.000444208 -1.01367e-05
 2.56529e-06 0.00044421 1.01355e-05
 4.47463e-07 -0.0027371 -3.58504e-07
 -1.01644e-05 0.000444196 2.4791e-06
 8.37133e-06 0.00040623 8.37539e-06
 8.37047e-06 0.00040623 -8.37579e-06
 -1.01618e-05 0.000444177 -2.47884e-06
 1.01662e-05 0.000444187 2.47623e-06
 -8.37005e-06 0.00040623 8.37617e-06
 -8.3707e-06 0.000406231 -8.37662e-06
 1.01606e-05 0.000444173 -2.47608e-06
 -4.4754e-07 -0.0027371 3.52786e-07
 -2.56578e-06 0.000444195 -1.01518e-05
 -2.56458e-06 0.000444179 1.01519e-05
 -4.46174e-07 -0.00273709 -3.5314e-07
 -1.68536e-06 0.000865613 -1.48437e-06
 -3.47185e-06 -0.000657771 -2.27229e-06
 -3.47199e-06 -0.000657774 2.27597e-06
 -1.70958e-06 0.000865614 1.48064e-06
 -2.82002e-06 -0.000657761 -3.54309e-06
 -4.13041e-06 -0.00321464 -4.10396e-06
 -4.13139e-06 -0.00321463 4.10369e-06
 -2.79546e-06 -0.000657749 3.54329e-06
 2.79813e-06 -0.000657755 -3.54366e-06
 4.13065e-06 -0.00321464 -4.09933e-06
 4.13092e-06 -0.00321464 4.09893e-06
 2.82071e-06 -0.000657745 3.54385e-06
 1.70676e-06 0.000865613 -1.50733e-06
 3.47161e-06 -0.000657761 -2.16779e-06
 3.47263e-06 -0.000657751 2.17381e-06
 1.68414e-06 0.000865615 1.50108e-06
 3.18645e-06 0.00105834 3.12118e-06
 3.74304e-06 -0.000654012 -7.05436e-06
 3.7434e-06 -0.000654001 7.05442e-06
 3.18668e-06 0.00105833 -3.12127e-06
 -7.0492e-06 -0.000654013 3.69651e-06
 -6.84816e-06 -0.00292937 -6.84082e-06
 -6.84758e-06 -0.00292939 6.84106e-06
 -7.05039e-06 -0.000653992 -3.69676e-06
 7.04958e-06 -0.000654007 3.69612e-06
 6.8487e-06 -0.00292937 -6.90264e-06
 6.84782e-06 -0.00292938 6.90274e-06
 7.04965e-06 -0.000653994 -3.69633e-06
 -3.18746e-06 0.00105834 3.11962e-06
 -3.74379e-06 -0.000653999 -7.05633e-06
 -3.74374e-06 -0.000654001 7.05614e-06
 -3.18638e-06 0.00105833 -3.11956e-06
 -4.86959e-06 -0.000350645 -4.86864e-06
 -4.47047e-06 -0.000450708 6.32155e-06
 -4.47039e-06 -0.000450722 -6.31582e-06
 -4.86952e-06 -0.000350647 4.86299e-06
 6.34633e-06 -0.000450706 -4.46737e-06
 6.91694e-06 0.000704122 6.90174e-06
 6.91694e-06 0.000704117 -6.89755e-06
 6.3464e-06 -0.000450722 4.46329e-06
 -6.34376e-06 -0.000450709 -4.46492e-06
 -6.91344e-06 0.000704106 6.89952e-06
 -6.91338e-06 0.000704105 -6.8985e-06
 -6.34329e-06 -0.000450718 4.46395e-06
 4.86652e-06 -0.000350648 -4.86451e-06
 4.46673e-06 -0.000450718 6.31746e-06
 4.46664e-06 -0.000450713 -6.3167e-06
 4.86594e-06 -0.000350649 4.86381e-06
 -4.14425e-06 -0.000824065 -4.14096e-06
 -2.94938e-06 -0.00207064 6.47811e-06
 -2.94889e-06 -0.00207063 -6.4782e-06
 -4.14429e-06 -0.000824088 4.14116e-06
 6.476e-06 -0.00207064 -2.94306e-06
 5.96353e-06 0.00137047 5.96524e-06
 5.96306e-06 0.00137048 -5.96575e-06
 6.47605e-06 -0.00207062 2.94372e-06
 -6.4764e-06 -0.00207064 -2.94297e-06
 -5.96286e-06 0.00137049 5.96523e-06
 -5.96329e-06 0.00137049 -5.96559e-06
 -6.47634e-06 -0.00207062 2.94347e-06
 4.14438e-06 -0.00082406 -4.14082e-06
 2.94858e-06 -0.00207063 6.47828e-06
 2.94902e-06 -0.00207064 -6.4783e-06
 4.14429e-06 -0.000824082 4.141e-06
 -3.21098e-06 -0.00137843 -3.20669e-06
 -3.16076e-06 -0.000499567 4.7402e-07
 -3.16121e-06 -0.000499573 -4.74552e-07
 -3.21169e-06 -0.00137843 3.20732e-06
 4.72319e-07 -0.000499559 -3.15619e-06
 1.02436e-06 0.000763754 1.02622e-06
 1.02483e-06 0.000763752 -1.02663e-06
 4.73014e-07 -0.000499567 3.15674e-06
 -4.73917e-07 -0.000499557 -3.15581e-06
 -1.02579e-06 0.000763753 1.02594e-06
 -1.02528e-06 0.000763753 -1.02699e-06
 -4.73432e-07 -0.000499565 3.15701e-06
 3.21255e-06 -0.00137842 -3.20633e-06
 3.16223e-06 -0.000499564 4.73916e-07
 3.16172e-06 -0.000499556 -4.75033e-07
 3.21206e-06 -0.00137842 3.20764e-06
 -3.28495e-06 -0.00058164 -3.28257e-06
 -7.40923e-06 -0.000522512 2.71121e-06
 -7.4142e-06 -0.000522518 -2.71004e-06
 -3.28368e-06 -0.000581626 3.28152e-06
 2.712e-06 -0.000522512 -7.41267e-06
 -2.99681e-06 7.77694e-05 -2.98946e-06
 -2.99101e-06 7.77457e-05 2.96356e-06
 2.71075e-06 -0.000522529 7.43873e-06
 -2.70798e-06 -0.000522515 -7.41981e-06
 2.97114e-06 7.77867e-05 -2.9838e-06
 2.97416e-06 7.7786e-05 2.97116e-06
 -2.70965e-06 -0.000522528 7.43261e-06
 3.28106e-06 -0.000581647 -3.28317e-06
 7.43502e-06 -0.000522516 2.71197e-06
 7.43117e-06 -0.00052252 -2.70944e-06
 3.28265e-06 -0.000581634 3.28087e-06
 5.00687e-07 -0.000312251 5.00545e-07
 2.94751e-07 0.00158181 1.7738e-08
 2.94756e-07 0.00158182 -1.76709e-08
 5.0067e-07 -0.000312255 -5.00468e-07
 1.78154e-08 0.00158181 2.94644e-07
 -5.44092e-08 -0.0038152 -5.44622e-08
 -5.44207e-08 -0.00381517 5.45416e-08
 1.77804e-08 0.00158182 -2.94547e-07
 -1.77336e-08 0.00158181 2.9465e-07
 5.44701e-08 -0.00381521 -5.44478e-08
 5.44602e-08 -0.00381521 5.45535e-08
 -1.77604e-08 0.00158181 -2.94558e-07
 -5.00615e-07 -0.000312251 5.00577e-07
 -2.94693e-07 0.0015818 1.77796e-08
 -2.94695e-07 0.0015818 -1.76361e-08
 -5.00635e-07 -0.000312253 -5.00471e-07
 -2.39497e-07 -0.00107407 -2.39516e-07
 -3.14179e-07 -0.000717771 -2.39035e-07
 -3.14179e-07 -0.000717774 2.39096e-07
 -2.39517e-07 -0.00107407 2.39584e-07
 -2.39027e-07 -0.000717773 -3.14183e-07
 -2.52165e-07 -0.00104548 -2.52152e-07
 -2.52174e-07 -0.00104545 2.52232e-07
 -2.39051e-07 -0.000717775 3.1426e-07
 2.39075e-07 -0.000717771 -3.14183e-07
 2.52189e-07 -0.00104548 -2.52143e-07
 2.52177e-07 -0.00104548 2.52243e-07
 2.39044e-07 -0.000717774 3.1426e-07
 2.39544e-07 -0.00107407 -2.39509e-07
 3.14209e-07 -0.000717767 -2.39006e-07
 3.14201e-07 -0.000717769 2.39136e-07
 2.39509e-07 -0.00107407 2.39599e-07
 -9.79976e-08 -0.000775998 -9.79591e-08
 -9.29102e-08 0.00171426 -1.6372e-07
 -9.29239e-08 0.00171426 1.6377e-07
 -9.80367e-08 -0.00077599 9.79942e-08
 -1.63768e-07 0.00171426 -9.28495e-08
 -1.50958e-07 0.00120052 -1.50899e-07
 -1.50964e-07 0.0012005 1.50959e-07
 -1.63788e-07 0.00171426 9.28992e-08
 1.63741e-07 0.00171426 -9.28551e-08
 1.50922e-07 0.00120052 -1.50893e-07
 1.5092e-07 0.00120051 1.5097e-07
 1.63727e-07 0.00171426 9.29037e-08
 9.80129e-08 -0.000776 -9.79596e-08
 9.28994e-08 0.00171426 -1.63705e-07
 9.2896e-08 0.00171426 1.63798e-07
 9.799e-08 -0.000775994 9.80231e-08
 -7.7145e-07 -0.00251115 -7.71378e-07
 -6.98837e-07 0.000449987 -4.16512e-07
 -6.98855e-07 0.000449986 4.16437e-07
 -7.7147e-07 -0.00251115 7.7147e-07
 -4.16512e-07 0.000449987 -6.98781e-07
 -3.79844e-07 -0.000878788 -3.79809e-07
 -3.79837e-07 -0.000878824 3.79781e-07
 -4.16516e-07 0.000449987 6.98848e-07
 4.16445e-07 0.000449988 -6.98773e-07
 3.79747e-07 -0.000878798 -3.79799e-07
 3.79753e-07 -0.000878816 3.79784e-07
 4.16428e-07 0.000449988 6.98841e-07
 7.71434e-07 -0.00251115 -7.71359e-07
 6.98825e-07 0.000449988 -4.16468e-07
 6.98809e-07 0.000449988 4.16457e-07
 7.71397e-07 -0.00251115 7.71445e-07
 -1.23916e-06 0.000322766 -1.23913e-06
 -1.13505e-06 -0.00108499 -7.20705e-07
 -1.13507e-06 -0.00108499 7.20687e-07
 -1.2392e-06 0.000322765 1.2391e-06
 -7.20685e-07 -0.00108499 -1.135e-06
 -6.60831e-07 -0.000436325 -6.60869e-07
 -6.60839e-07 -0.000436302 6.6086e-07
 -7.20713e-07 -0.00108498 1.13498e-06
 7.20639e-07 -0.00108499 -1.13499e-06
 6.60776e-07 -0.000436311 -6.60871e-07
 6.60775e-07 -0.000436296 6.60869e-07
 7.20634e-07 -0.00108499 1.13498e-06
 1.23909e-06 0.000322768 -1.23912e-06
 1.13498e-06 -0.00108499 -7.20701e-07
 1.13499e-06 -0.00108499 7.20708e-07
 1.23911e-06 0.000322768 1.23911e-06
 -1.0348e-07 0.000869274 -1.03468e-07
 -3.65528e-09 -0.000358857 -1.28138e-08
 -3.6708e-09 -0.000358861 1.27795e-08
 -1.03498e-07 0.000869274 1.03439e-07
 -1.28147e-08 -0.000358861 -3.64303e-09
 3.22348e-08 0.000164006 3.22601e-08
 3.22277e-08 0.000164011 -3.22964e-08
 -1.28551e-08 -0.000358869 3.63351e-09
 1.27654e-08 -0.000358862 -3.64791e-09
 -3.22997e-08 0.000164005 3.22677e-08
 -3.2283e-08 0.000164007 -3.22977e-08
 1.27782e-08 -0.000358868 3.64596e-09
 1.03441e-07 0.000869273 -1.03471e-07
 3.61791e-09 -0.000358861 -1.27955e-08
 3.6095e-09 -0.000358864 1.27703e-08
 1.03438e-07 0.000869272 1.0348e-07
 -5.08022e-06 0.00068746 -5.07965e-06
 -3.14071e-06 0.000211675 6.21953e-07
 -3.13957e-06 0.000211673 -6.22528e-07
 -5.07907e-06 0.000687464 5.08019e-06
 6.22431e-07 0.000211675 -3.14196e-06
 -9.08485e-07 -0.00218112 -9.07265e-07
 -9.09489e-07 -0.00218112 9.06405e-07
 6.21539e-07 0.000211674 3.1428e-06
 -6.22579e-07 0.000211677 -3.14132e-06
 9.05864e-07 -0.00218112 -9.07882e-07
 9.08536e-07 -0.00218112 9.05983e-07
 -6.21986e-07 0.000211677 3.14321e-06
 5.08035e-06 0.000687458 -5.08012e-06
 3.1433e-06 0.000211678 6.22465e-07
 3.14048e-06 0.000211679 -6.21974e-07
 5.07946e-06 0.00068746 5.07963e-06
 -2.89691e-06 0.000509567 -2.89691e-06
 -2.63008e-06 0.00041759 4.74739e-07
 -2.63008e-06 0.000417591 -4.7472e-07
 -2.89693e-06 0.000509568 2.89688e-06
 4.74753e-07 0.00041759 -2.63009e-06
 5.14406e-07 0.000778372 5.14408e-07
 5.14391e-07 0.000778373 -5.14387e-07
 4.7472e-07 0.00041759 2.63006e-06
 -4.74708e-07 0.000417589 -2.63008e-06
 -5.14392e-07 0.000778373 5.14412e-07
 -5.14392e-07 0.000778374 -5.14392e-07
 -4.74695e-07 0.000417589 2.63007e-06
 2.8969e-06 0.000509568 -2.89689e-06
 2.63009e-06 0.000417589 4.74735e-07
 2.63011e-06 0.000417589 -4.74726e-07
 2.89692e-06 0.000509568 2.89691e-06
 -1.89248e-06 -0.000108884 -1.89251e-06
 -1.88613e-06 -0.00101136 5.72126e-06
 -1.88613e-06 -0.00101136 -5.72125e-06
 -1.8925e-06 -0.000108884 1.8925e-06
 5.72128e-06 -0.00101136 -1.88614e-06
 4.70841e-06 -0.00188103 4.70848e-06
 4.70834e-06 -0.00188103 -4.70847e-06
 5.72128e-06 -0.00101136 1.88614e-06
 -5.72123e-06 -0.00101136 -1.88614e-06
 -4.70837e-06 -0.00188103 4.70846e-06
 -4.70831e-06 -0.00188103 -4.70845e-06
 -5.72124e-06 -0.00101136 1.88615e-06
 1.89252e-06 -0.000108885 -1.8925e-06
 1.88617e-06 -0.00101136 5.72127e-06
 1.88617e-06 -0.00101136 -5.72124e-06
 1.89253e-06 -0.000108885 1.89251e-06
 -6.47406e-08 0.00217785 -6.47591e-08
 7.25731e-07 0.00122704 4.19314e-07
 7.2573e-07 0.00122704 -4.19313e-07
 -6.47442e-08 0.00217785 6.47625e-08
 4.19333e-07 0.00122704 7.25717e-07
 6.961e-07 -0.000746063 6.96084e-07
 6.96098e-07 -0.000746062 -6.96078e-07
 4.1933e-07 0.00122704 -7.25709e-07
 -4.19292e-07 0.00122704 7.25719e-07
 -6.96061e-07 -0.000746063 6.96087e-07
 -6.96063e-07 -0.000746062 -6.96075e-07
 -4.19295e-07 0.00122704 -7.25705e-07
 6.47838e-08 0.00217785 -6.47521e-08
 -7.25692e-07 0.00122704 4.19322e-07
 -7.25693e-07 0.00122704 -4.19304e-07
 6.47806e-08 0.00217785 6.47724e-08
 -4.3842e-06 -0.00108785 -4.3842e-06
 -3.13177e-06 -0.00125627 -1.25826e-06
 -3.13177e-06 -0.00125627 1.25827e-06
 -4.3842e-06 -0.00108785 4.38421e-06
 -1.25825e-06 -0.00125627 -3.13177e-06
 -8.30228e-07 -0.00125686 -8.30233e-07
 -8.3023e-07 -0.00125686 8.30242e-07
 -1.25826e-06 -0.00125627 3.13178e-06
 1.25827e-06 -0.00125627 -3.13177e-06
 8.30247e-07 -0.00125686 -8.3023e-07
 8.30246e-07 -0.00125686 8.30245e-07
 1.25827e-06 -0.00125627 3.13178e-06
 4.38422e-06 -0.00108785 -4.3842e-06
 3.13179e-06 -0.00125627 -1.25825e-06
 3.13178e-06 -0.00125627 1.25827e-06
 4.38422e-06 -0.00108785 4.38422e-06
 -8.22275e-06 -0.00100992 -8.22276e-06
 -6.0286e-06 -0.00137197 -4.22401e-06
 -6.0286e-06 -0.00137197 4.22404e-06
 -8.22276e-06 -0.00100992 8.22275e-06
 -4.22402e-06 -0.00137197 -6.02858e-06
 -3.75035e-06 0.00127004 -3.75035e-06
 -3.75035e-06 0.00127004 3.75036e-06
 -4.22403e-06 -0.00137197 6.02861e-06
 4.22404e-06 -0.00137197 -6.02858e-06
 3.75035e-06 0.00127005 -3.75035e-06
 3.75036e-06 0.00127004 3.75036e-06
 4.22403e-06 -0.00137197 6.0286e-06
 8.22275e-06 -0.00100992 -8.22274e-06
 6.0286e-06 -0.00137197 -4.22401e-06
 6.0286e-06 -0.00137197 4.22404e-06
 8.22275e-06 -0.00100992 8.22275e-06
 6.61666e-07 0.000100979 6.61661e-07
 7.56243e-07 -0.00121565 2.34416e-06
 7.56251e-07 -0.00121565 -2.34414e-06
 6.61658e-07 0.000100953 -6.61659e-07
 2.34415e-06 -0.00121565 7.56227e-07
 1.99924e-06 -0.00159427 1.99927e-06
 1.99923e-06 -0.00159427 -1.99924e-06
 2.34415e-06 -0.00121565 -7.56225e-07
 -2.34415e-06 -0.00121565 7.56227e-07
 -1.99924e-06 -0.00159427 1.99927e-06
 -1.99926e-06 -0.00159427 -1.99924e-06
 -2.34415e-06 -0.00121565 -7.56225e-07
 -6.61664e-07 0.000100987 6.61663e-07
 -7.56241e-07 -0.00121565 2.34416e-06
 -7.56222e-07 -0.00121565 -2.34413e-06
 -6.61665e-07 0.000100954 -6.61663e-07
 5.02026e-06 -0.000775538 5.02027e-06
 4.1861e-06 0.00146761 1.19441e-06
 4.1861e-06 0.00146761 -1.19439e-06
 5.02026e-06 -0.000775515 -5.02026e-06
 1.1944e-06 0.00146761 4.18611e-06
 9.24695e-07 -0.00106409 9.24706e-07
 9.24695e-07 -0.00106409 -9.24693e-07
 1.1944e-06 0.00146761 -4.1861e-06
 -1.1944e-06 0.00146761 4.18611e-06
 -9.24703e-07 -0.00106409 9.24706e-07
 -9.24703e-07 -0.00106409 -9.24693e-07
 -1.19441e-06 0.00146761 -4.1861e-06
 -5.02027e-06 -0.000775546 5.02027e-06
 -4.18611e-06 0.00146761 1.19441e-06