<?xml version="1.0"?>
<!-- time 90.6916-->
<VTKFile type="UnstructuredGrid" version="0.1" byte_order="LittleEndian">
<UnstructuredGrid>
<Piece NumberOfPoints="960" NumberOfCells="0">
<Points>
  <DataArray type="Float32" Name="Position" NumberOfComponents="3" format="ascii">
	-300 2099.68 -300
	-300 2099.68 -100
	-300 2099.68 100
	-300 2099.68 300
	-100 2099.68 -300
	-100 2099.63 -100
	-100 2099.63 100
	-100 2099.68 300
	100 2099.68 -300
	100 2099.63 -100
	100 2099.63 100
	100 2099.68 300
	300 2099.68 -300
	300 2099.68 -100
	300 2099.68 100
	300 2099.68 300
	-300 2299.69 -300
	-300 2299.7 -100
	-300 2299.7 100
	-300 2299.69 300
	-100 2299.7 -300
	-100 2299.66 -100
	-100 2299.66 100
	-100 2299.7 300
	100 2299.7 -300
	100 2299.66 -100
	100 2299.66 100
	100 2299.7 300
	300 2299.69 -300
	300 2299.7 -100
	300 2299.7 100
	300 2299.69 300
	-300 2499.71 -300
	-300 2499.7 -100
	-300 2499.7 100
	-300 2499.71 300
	-100 2499.7 -300
	-100 2499.66 -100
	-100 2499.66 100
	-100 2499.7 300
	100 2499.7 -300
	100 2499.66 -100
	100 2499.66 100
	100 2499.7 300
	300 2499.71 -300
	300 2499.7 -100
	300 2499.7 100
	300 2499.71 300
	-300 2699.71 -300
	-300 2699.7 -100
	-300 2699.7 100
	-300 2699.71 300
	-100 2699.7 -300
	-100 2699.67 -100
	-100 2699.67 100
	-100 2699.7 300
	100 2699.7 -300
	100 2699.67 -100
	100 2699.67 100
	100 2699.7 300
	300 2699.71 -300
	300 2699.7 -100
	300 2699.7 100
	300 2699.71 300
	-300 2899.71 -300
	-300 2899.7 -100
	-300 2899.7 100
	-300 2899.71 300
	-100 2899.7 -300
	-100 2899.68 -100
	-100 2899.68 100
	-100 2899.7 300
	100 2899.7 -300
	100 2899.68 -100
	100 2899.68 100
	100 2899.7 300
	300 2899.71 -300
	300 2899.7 -100
	300 2899.7 100
	300 2899.71 300
	-300 3099.71 -300
	-300 3099.7 -100
	-300 3099.7 100
	-300 3099.71 300
	-100 3099.7 -300
	-100 3099.67 -100
	-100 3099.67 100
	-100 3099.7 300
	100 3099.7 -300
	100 3099.67 -100
	100 3099.67 100
	100 3099.7 300
	300 3099.71 -300
	300 3099.7 -100
	300 3099.7 100
	300 3099.71 300
	-300 3299.71 -300
	-300 3299.7 -100
	-300 3299.7 100
	-300 3299.71 300
	-100 3299.7 -300
	-100 3299.68 -100
	-100 3299.68 100
	-100 3299.7 300
	100 3299.7 -300
	100 3299.68 -100
	100 3299.68 100
	100 3299.7 300
	300 3299.71 -300
	300 3299.7 -100
	300 3299.7 100
	300 3299.71 300
	-300 3499.71 -300
	-300 3499.7 -100
	-300 3499.7 100
	-300 3499.71 300
	-100 3499.7 -300
	-100 3499.68 -100
	-100 3499.68 100
	-100 3499.7 300
	100 3499.7 -300
	100 3499.68 -100
	100 3499.68 100
	100 3499.7 300
	300 3499.71 -300
	300 3499.7 -100
	300 3499.7 100
	300 3499.71 300
	-300 3699.71 -300
	-300 3699.7 -100
	-300 3699.7 100
	-300 3699.71 300
	-100 3699.7 -300
	-100 3699.68 -100
	-100 3699.68 100
	-100 3699.7 300
	100 3699.7 -300
	100 3699.68 -100
	100 3699.68 100
	100 3699.7 300
	300 3699.71 -300
	300 3699.7 -100
	300 3699.7 100
	300 3699.71 300
	-300 3899.71 -300
	-300 3899.7 -100
	-300 3899.7 100
	-300 3899.71 300
	-100 3899.7 -300
	-100 3899.68 -100
	-100 3899.68 100
	-100 3899.7 300
	100 3899.7 -300
	100 3899.68 -100
	100 3899.68 100
	100 3899.7 300
	300 3899.71 -300
	300 3899.7 -100
	300 3899.7 100
	300 3899.71 300
	-300 4099.71 -300
	-300 4099.7 -100
	-300 4099.7 100
	-300 4099.71 300
	-100 4099.7 -300
	-100 4099.68 -100
	-100 4099.68 100
	-100 4099.7 300
	100 4099.7 -300
	100 4099.68 -100
	100 4099.68 100
	100 4099.7 300
	300 4099.71 -300
	300 4099.7 -100
	300 4099.7 100
	300 4099.71 300
	-300 4299.71 -300
	-300 4299.7 -100
	-300 4299.7 100
	-300 4299.71 300
	-100 4299.7 -300
	-100 4299.68 -100
	-100 4299.68 100
	-100 4299.7 300
	100 4299.7 -300
	100 4299.68 -100
	100 4299.68 100
	100 4299.7 300
	300 4299.71 -300
	300 4299.7 -100
	300 4299.7 100
	300 4299.71 300
	-300 4499.71 -300
	-300 4499.7 -100
	-300 4499.7 100
	-300 4499.71 300
	-100 4499.7 -300
	-100 4499.68 -100
	-100 4499.68 100
	-100 4499.7 300
	100 4499.7 -300
	100 4499.68 -100
	100 4499.68 100
	100 4499.7 300
	300 4499.71 -300
	300 4499.7 -100
	300 4499.7 100
	300 4499.71 300
	-300 4699.71 -300
	-300 4699.71 -100
	-300 4699.71 100
	-300 4699.71 300
	-100 4699.71 -300
	-100 4699.69 -100
	-100 4699.69 100
	-100 4699.71 300
	100 4699.71 -300
	100 4699.69 -100
	100 4699.69 100
	100 4699.71 300
	300 4699.71 -300
	300 4699.71 -100
	300 4699.71 100
	300 4699.71 300
	-300 4899.72 -300
	-300 4899.71 -100
	-300 4899.71 100
	-300 4899.72 300
	-100 4899.71 -300
	-100 4899.69 -100
	-100 4899.69 100
	-100 4899.71 300
	100 4899.71 -300
	100 4899.69 -100
	100 4899.69 100
	100 4899.71 300
	300 4899.72 -300
	300 4899.71 -100
	300 4899.71 100
	300 4899.72 300
	-300 5099.72 -300
	-300 5099.71 -100
	-300 5099.71 100
	-300 5099.72 300
	-100 5099.71 -300
	-100 5099.69 -100
	-100 5099.69 100
	-100 5099.71 300
	100 5099.71 -300
	100 5099.69 -100
	100 5099.69 100
	100 5099.71 300
	300 5099.72 -300
	300 5099.71 -100
	300 5099.71 100
	300 5099.72 300
	-300 5299.72 -300
	-300 5299.71 -100
	-300 5299.71 100
	-300 5299.72 300
	-100 5299.71 -300
	-100 5299.69 -100
	-100 5299.69 100
	-100 5299.71 300
	100 5299.71 -300
	100 5299.69 -100
	100 5299.69 100
	100 5299.71 300
	300 5299.72 -300
	300 5299.71 -100
	300 5299.71 100
	300 5299.72 300
	-300 5499.72 -300
	-300 5499.71 -100
	-300 5499.71 100
	-300 5499.72 300
	-100 5499.71 -300
	-100 5499.69 -100
	-100 5499.69 100
	-100 5499.71 300
	100 5499.71 -300
	100 5499.69 -100
	100 5499.69 100
	100 5499.71 300
	300 5499.72 -300
	300 5499.71 -100
	300 5499.71 100
	300 5499.72 300
	-300 5699.73 -300
	-300 5699.71 -100
	-300 5699.71 100
	-300 5699.73 300
	-100 5699.71 -300
	-100 5699.7 -100
	-100 5699.7 100
	-100 5699.71 300
	100 5699.71 -300
	100 5699.7 -100
	100 5699.7 100
	100 5699.71 300
	300 5699.73 -300
	300 5699.71 -100
	300 5699.71 100
	300 5699.73 300
	-300 5899.73 -300
	-300 5899.71 -100
	-300 5899.71 100
	-300 5899.73 300
	-100 5899.71 -300
	-100 5899.7 -100
	-100 5899.7 100
	-100 5899.71 300
	100 5899.71 -300
	100 5899.7 -100
	100 5899.7 100
	100 5899.71 300
	300 5899.73 -300
	300 5899.71 -100
	300 5899.71 100
	300 5899.73 300
	-300 6099.74 -300
	-300 6099.71 -100
	-300 6099.71 100
	-300 6099.74 300
	-100 6099.71 -300
	-100 6099.7 -100
	-100 6099.7 100
	-100 6099.71 300
	100 6099.71 -300
	100 6099.7 -100
	100 6099.7 100
	100 6099.71 300
	300 6099.74 -300
	300 6099.71 -100
	300 6099.71 100
	300 6099.74 300
	-300 6299.74 -300
	-300 6299.71 -100
	-300 6299.71 100
	-300 6299.74 300
	-100 6299.71 -300
	-100 6299.72 -100
	-100 6299.72 100
	-100 6299.71 300
	100 6299.71 -300
	100 6299.72 -100
	100 6299.72 100
	100 6299.71 300
	300 6299.74 -300
	300 6299.71 -100
	300 6299.71 100
	300 6299.74 300
	-300 6499.8 -300
	-300 6499.76 -100
	-300 6499.76 100
	-300 6499.8 300
	-100 6499.76 -300
	-100 6499.73 -100
	-100 6499.73 100
	-100 6499.76 300
	100 6499.76 -300
	100 6499.73 -100
	100 6499.73 100
	100 6499.76 300
	300 6499.8 -300
	300 6499.76 -100
	300 6499.76 100
	300 6499.8 300
	-300 6699.86 -300
	-300 6699.86 -100
	-300 6699.86 100
	-300 6699.86 300
	-100 6699.86 -300
	-100 6699.86 -100
	-100 6699.86 100
	-100 6699.86 300
	100 6699.86 -300
	100 6699.86 -100
	100 6699.86 100
	100 6699.86 300
	300 6699.86 -300
	300 6699.86 -100
	300 6699.86 100
	300 6699.86 300
	-300 6899.86 -300
	-300 6899.86 -100
	-300 6899.86 100
	-300 6899.86 300
	-100 6899.86 -300
	-100 6899.86 -100
	-100 6899.86 100
	-100 6899.86 300
	100 6899.86 -300
	100 6899.86 -100
	100 6899.86 100
	100 6899.86 300
	300 6899.86 -300
	300 6899.86 -100
	300 6899.86 100
	300 6899.86 300
	-300 7099.87 -300
	-300 7099.87 -100
	-300 7099.87 100
	-300 7099.87 300
	-100 7099.87 -300
	-100 7099.87 -100
	-100 7099.87 100
	-100 7099.87 300
	100 7099.87 -300
	100 7099.87 -100
	100 7099.87 100
	100 7099.87 300
	300 7099.87 -300
	300 7099.87 -100
	300 7099.87 100
	300 7099.87 300
	-300 7299.87 -300
	-300 7299.87 -100
	-300 7299.87 100
	-300 7299.87 300
	-100 7299.87 -300
	-100 7299.87 -100
	-100 7299.87 100
	-100 7299.87 300
	100 7299.87 -300
	100 7299.87 -100
	100 7299.87 100
	100 7299.87 300
	300 7299.87 -300
	300 7299.87 -100
	300 7299.87 100
	300 7299.87 300
	-300 7499.87 -300
	-300 7499.88 -100
	-300 7499.88 100
	-300 7499.87 300
	-100 7499.88 -300
	-100 7499.87 -100
	-100 7499.87 100
	-100 7499.88 300
	100 7499.88 -300
	100 7499.87 -100
	100 7499.87 100
	100 7499.88 300
	300 7499.87 -300
	300 7499.88 -100
	300 7499.88 100
	300 7499.87 300
	-300 7699.88 -300
	-300 7699.88 -100
	-300 7699.88 100
	-300 7699.88 300
	-100 7699.88 -300
	-100 7699.88 -100
	-100 7699.88 100
	-100 7699.88 300
	100 7699.88 -300
	100 7699.88 -100
	100 7699.88 100
	100 7699.88 300
	300 7699.88 -300
	300 7699.88 -100
	300 7699.88 100
	300 7699.88 300
	-300 7899.88 -300
	-300 7899.88 -100
	-300 7899.88 100
	-300 7899.88 300
	-100 7899.88 -300
	-100 7899.88 -100
	-100 7899.88 100
	-100 7899.88 300
	100 7899.88 -300
	100 7899.88 -100
	100 7899.88 100
	100 7899.88 300
	300 7899.88 -300
	300 7899.88 -100
	300 7899.88 100
	300 7899.88 300
	-300 8099.88 -300
	-300 8099.88 -100
	-300 8099.88 100
	-300 8099.88 300
	-100 8099.88 -300
	-100 8099.88 -100
	-100 8099.88 100
	-100 8099.88 300
	100 8099.88 -300
	100 8099.88 -100
	100 8099.88 100
	100 8099.88 300
	300 8099.88 -300
	300 8099.88 -100
	300 8099.88 100
	300 8099.88 300
	-300 8299.89 -300
	-300 8299.89 -100
	-300 8299.89 100
	-300 8299.89 300
	-100 8299.89 -300
	-100 8299.89 -100
	-100 8299.89 100
	-100 8299.89 300
	100 8299.89 -300
	100 8299.89 -100
	100 8299.89 100
	100 8299.89 300
	300 8299.89 -300
	300 8299.89 -100
	300 8299.89 100
	300 8299.89 300
	-300 8499.9 -300
	-300 8499.9 -100
	-300 8499.9 100
	-300 8499.9 300
	-100 8499.9 -300
	-100 8499.9 -100
	-100 8499.9 100
	-100 8499.9 300
	100 8499.9 -300
	100 8499.9 -100
	100 8499.9 100
	100 8499.9 300
	300 8499.9 -300
	300 8499.9 -100
	300 8499.9 100
	300 8499.9 300
	-300 8699.9 -300
	-300 8699.9 -100
	-300 8699.9 100
	-300 8699.9 300
	-100 8699.9 -300
	-100 8699.9 -100
	-100 8699.9 100
	-100 8699.9 300
	100 8699.9 -300
	100 8699.9 -100
	100 8699.9 100
	100 8699.9 300
	300 8699.9 -300
	300 8699.9 -100
	300 8699.9 100
	300 8699.9 300
	-300 8899.91 -300
	-300 8899.91 -100
	-300 8899.91 100
	-300 8899.91 300
	-100 8899.91 -300
	-100 8899.91 -100
	-100 8899.91 100
	-100 8899.91 300
	100 8899.91 -300
	100 8899.91 -100
	100 8899.91 100
	100 8899.91 300
	300 8899.91 -300
	300 8899.91 -100
	300 8899.91 100
	300 8899.91 300
	-300 9099.92 -300
	-300 9099.92 -100
	-300 9099.92 100
	-300 9099.92 300
	-100 9099.92 -300
	-100 9099.92 -100
	-100 9099.92 100
	-100 9099.92 300
	100 9099.92 -300
	100 9099.92 -100
	100 9099.92 100
	100 9099.92 300
	300 9099.92 -300
	300 9099.92 -100
	300 9099.92 100
	300 9099.92 300
	-300 9299.93 -300
	-300 9299.93 -100
	-300 9299.93 100
	-300 9299.93 300
	-100 9299.93 -300
	-100 9299.93 -100
	-100 9299.93 100
	-100 9299.93 300
	100 9299.93 -300
	100 9299.93 -100
	100 9299.93 100
	100 9299.93 300
	300 9299.93 -300
	300 9299.93 -100
	300 9299.93 100
	300 9299.93 300
	-300 9499.94 -300
	-300 9499.94 -100
	-300 9499.94 100
	-300 9499.94 300
	-100 9499.94 -300
	-100 9499.94 -100
	-100 9499.94 100
	-100 9499.94 300
	100 9499.94 -300
	100 9499.94 -100
	100 9499.94 100
	100 9499.94 300
	300 9499.94 -300
	300 9499.94 -100
	300 9499.94 100
	300 9499.94 300
	-300 9699.95 -300
	-300 9699.95 -100
	-300 9699.95 100
	-300 9699.95 300
	-100 9699.95 -300
	-100 9699.95 -100
	-100 9699.95 100
	-100 9699.95 300
	100 9699.95 -300
	100 9699.95 -100
	100 9699.95 100
	100 9699.95 300
	300 9699.95 -300
	300 9699.95 -100
	300 9699.95 100
	300 9699.95 300
	-300 9899.96 -300
	-300 9899.96 -100
	-300 9899.96 100
	-300 9899.96 300
	-100 9899.96 -300
	-100 9899.96 -100
	-100 9899.96 100
	-100 9899.96 300
	100 9899.96 -300
	100 9899.96 -100
	100 9899.96 100
	100 9899.96 300
	300 9899.96 -300
	300 9899.96 -100
	300 9899.96 100
	300 9899.96 300
	-300 10100 -300
	-300 10100 -100
	-300 10100 100
	-300 10100 300
	-100 10100 -300
	-100 10100 -100
	-100 10100 100
	-100 10100 300
	100 10100 -300
	100 10100 -100
	100 10100 100
	100 10100 300
	300 10100 -300
	300 10100 -100
	300 10100 100
	300 10100 300
	-300 10300 -300
	-300 10300 -100
	-300 10300 100
	-300 10300 300
	-100 10300 -300
	-100 10300 -100
	-100 10300 100
	-100 10300 300
	100 10300 -300
	100 10300 -100
	100 10300 100
	100 10300 300
	300 10300 -300
	300 10300 -100
	300 10300 100
	300 10300 300
	-300 10500 -300
	-300 10500 -100
	-300 10500 100
	-300 10500 300
	-100 10500 -300
	-100 10500 -100
	-100 10500 100
	-100 10500 300
	100 10500 -300
	100 10500 -100
	100 10500 100
	100 10500 300
	300 10500 -300
	300 10500 -100
	300 10500 100
	300 10500 300
	-300 10700 -300
	-300 10700 -100
	-300 10700 100
	-300 10700 300
	-100 10700 -300
	-100 10700 -100
	-100 10700 100
	-100 10700 300
	100 10700 -300
	100 10700 -100
	100 10700 100
	100 10700 300
	300 10700 -300
	300 10700 -100
	300 10700 100
	300 10700 300
	-300 10900 -300
	-300 10900 -100
	-300 10900 100
	-300 10900 300
	-100 10900 -300
	-100 10900 -100
	-100 10900 100
	-100 10900 300
	100 10900 -300
	100 10900 -100
	100 10900 100
	100 10900 300
	300 10900 -300
	300 10900 -100
	300 10900 100
	300 10900 300
	-300 11100 -300
	-300 11100 -100
	-300 11100 100
	-300 11100 300
	-100 11100 -300
	-100 11100 -100
	-100 11100 100
	-100 11100 300
	100 11100 -300
	100 11100 -100
	100 11100 100
	100 11100 300
	300 11100 -300
	300 11100 -100
	300 11100 100
	300 11100 300
	-300 11300 -300
	-300 11300 -100
	-300 11300 100
	-300 11300 300
	-100 11300 -300
	-100 11300 -100
	-100 11300 100
	-100 11300 300
	100 11300 -300
	100 11300 -100
	100 11300 100
	100 11300 300
	300 11300 -300
	300 11300 -100
	300 11300 100
	300 11300 300
	-300 11500.1 -300
	-300 11500.1 -100
	-300 11500.1 100
	-300 11500.1 300
	-100 11500.1 -300
	-100 11500.1 -100
	-100 11500.1 100
	-100 11500.1 300
	100 11500.1 -300
	100 11500.1 -100
	100 11500.1 100
	100 11500.1 300
	300 11500.1 -300
	300 11500.1 -100
	300 11500.1 100
	300 11500.1 300
	-300 11700.1 -300
	-300 11700.1 -100
	-300 11700.1 100
	-300 11700.1 300
	-100 11700.1 -300
	-100 11700.1 -100
	-100 11700.1 100
	-100 11700.1 300
	100 11700.1 -300
	100 11700.1 -100
	100 11700.1 100
	100 11700.1 300
	300 11700.1 -300
	300 11700.1 -100
	300 11700.1 100
	300 11700.1 300
	-300 11900.1 -300
	-300 11900.1 -100
	-300 11900.1 100
	-300 11900.1 300
	-100 11900.1 -300
	-100 11900.1 -100
	-100 11900.1 100
	-100 11900.1 300
	100 11900.1 -300
	100 11900.1 -100
	100 11900.1 100
	100 11900.1 300
	300 11900.1 -300
	300 11900.1 -100
	300 11900.1 100
	300 11900.1 300
	-300 12100.1 -300
	-300 12100.1 -100
	-300 12100.1 100
	-300 12100.1 300
	-100 12100.1 -300
	-100 12100.1 -100
	-100 12100.1 100
	-100 12100.1 300
	100 12100.1 -300
	100 12100.1 -100
	100 12100.1 100
	100 12100.1 300
	300 12100.1 -300
	300 12100.1 -100
	300 12100.1 100
	300 12100.1 300
	-300 12300.2 -300
	-300 12300.2 -100
	-300 12300.2 100
	-300 12300.2 300
	-100 12300.2 -300
	-100 12300.2 -100
	-100 12300.2 100
	-100 12300.2 300
	100 12300.2 -300
	100 12300.2 -100
	100 12300.2 100
	100 12300.2 300
	300 12300.2 -300
	300 12300.2 -100
	300 12300.2 100
	300 12300.2 300
	-300 12500.2 -300
	-300 12500.2 -100
	-300 12500.2 100
	-300 12500.2 300
	-100 12500.2 -300
	-100 12500.2 -100
	-100 12500.2 100
	-100 12500.2 300
	100 12500.2 -300
	100 12500.2 -100
	100 12500.2 100
	100 12500.2 300
	300 12500.2 -300
	300 12500.2 -100
	300 12500.2 100
	300 12500.2 300
	-300 12700.3 -300
	-300 12700.3 -100
	-300 12700.3 100
	-300 12700.3 300
	-100 12700.3 -300
	-100 12700.3 -100
	-100 12700.3 100
	-100 12700.3 300
	100 12700.3 -300
	100 12700.3 -100
	100 12700.3 100
	100 12700.3 300
	300 12700.3 -300
	300 12700.3 -100
	300 12700.3 100
	300 12700.3 300
	-300 12900.3 -300
	-300 12900.3 -100
	-300 12900.3 100
	-300 12900.3 300
	-100 12900.3 -300
	-100 12900.3 -100
	-100 12900.3 100
	-100 12900.3 300
	100 12900.3 -300
	100 12900.3 -100
	100 12900.3 100
	100 12900.3 300
	300 12900.3 -300
	300 12900.3 -100
	300 12900.3 100
	300 12900.3 300
	-300 13100.4 -300
	-300 13100.4 -100
	-300 13100.4 100
	-300 13100.4 300
	-100 13100.4 -300
	-100 13100.4 -100
	-100 13100.4 100
	-100 13100.4 300
	100 13100.4 -300
	100 13100.4 -100
	100 13100.4 100
	100 13100.4 300
	300 13100.4 -300
	300 13100.4 -100
	300 13100.4 100
	300 13100.4 300
	-300 13300.6 -300
	-300 13300.6 -100
	-300 13300.6 100
	-300 13300.6 300
	-100 13300.6 -300
	-100 13300.6 -100
	-100 13300.6 100
	-100 13300.6 300
	100 13300.6 -300
	100 13300.6 -100
	100 13300.6 100
	100 13300.6 300
	300 13300.6 -300
	300 13300.6 -100
	300 13300.6 100
	300 13300.6 300
	-300 13500.8 -300
	-300 13500.8 -100
	-300 13500.8 100
	-300 13500.8 300
	-100 13500.8 -300
	-100 13500.8 -100
	-100 13500.8 100
	-100 13500.8 300
	100 13500.8 -300
	100 13500.8 -100
	100 13500.8 100
	100 13500.8 300
	300 13500.8 -300
	300 13500.8 -100
	300 13500.8 100
	300 13500.8 300
	-300 13701.2 -300
	-300 13701.2 -100
	-300 13701.2 100
	-300 13701.2 300
	-100 13701.2 -300
	-100 13701.2 -100
	-100 13701.2 100
	-100 13701.2 300
	100 13701.2 -300
	100 13701.2 -100
	100 13701.2 100
	100 13701.2 300
	300 13701.2 -300
	300 13701.2 -100
	300 13701.2 100
	300 13701.2 300
	-300 13902.2 -300
	-300 13902.2 -100
	-300 13902.2 100
	-300 13902.2 300
	-100 13902.2 -300
	-100 13902.2 -100
	-100 13902.2 100
	-100 13902.2 300
	100 13902.2 -300
	100 13902.2 -100
	100 13902.2 100
	100 13902.2 300
	300 13902.2 -300
	300 13902.2 -100
	300 13902.2 100
	300 13902.2 300
  </DataArray>
</Points>
<PointData  Vectors="vector">
  <DataArray type="Float32" Name="Velocity" NumberOfComponents="3" format="ascii">
 7.18788e-06 0.0062052 7.08272e-06
 1.20712e-05 0.00352979 2.65219e-05
 1.20664e-05 0.0035298 -2.65228e-05
 7.16741e-06 0.0062052 -7.08236e-06
 2.6351e-05 0.0035298 1.21164e-05
 1.77825e-05 0.00160069 1.77869e-05
 1.77753e-05 0.00160069 -1.77914e-05
 2.63373e-05 0.00352979 -1.21137e-05
 -2.634e-05 0.0035298 1.20738e-05
 -1.77793e-05 0.00160068 1.7779e-05
 -1.77739e-05 0.00160069 -1.77833e-05
 -2.63356e-05 0.0035298 -1.20709e-05
 -7.19908e-06 0.0062052 7.16566e-06
 -1.20752e-05 0.0035298 2.63337e-05
 -1.20681e-05 0.0035298 -2.63339e-05
 -7.16761e-06 0.0062052 -7.1651e-06
 -3.96016e-06 -0.00328782 -3.97734e-06
 1.5762e-06 -0.000421972 -1.62553e-05
 1.56419e-06 -0.000421967 1.62558e-05
 -3.97867e-06 -0.00328782 3.97719e-06
 -1.61443e-05 -0.000421993 1.58017e-06
 -9.93632e-07 0.00285291 -1.02566e-06
 -1.01364e-06 0.0028529 1.02264e-06
 -1.602e-05 -0.000421953 -1.57817e-06
 1.60472e-05 -0.000422 1.57934e-06
 9.9716e-07 0.00285292 -1.06495e-06
 1.01413e-06 0.00285292 1.06213e-06
 1.60209e-05 -0.000421978 -1.57733e-06
 4.05623e-06 -0.00328782 -3.99868e-06
 -1.58207e-06 -0.000421979 -1.60454e-05
 -1.56654e-06 -0.000421964 1.60457e-05
 3.97815e-06 -0.00328783 3.99944e-06
 -7.75915e-06 -0.00425661 -7.7622e-06
 -7.58005e-06 -0.00370868 -4.8138e-06
 -7.58393e-06 -0.00370868 4.8163e-06
 -7.77467e-06 -0.00425661 7.76106e-06
 -4.79079e-06 -0.00370867 -7.57568e-06
 -8.29947e-06 -0.00349229 -8.30667e-06
 -8.30287e-06 -0.00349229 8.30722e-06
 -4.79582e-06 -0.00370868 7.57511e-06
 4.79796e-06 -0.00370867 -7.59526e-06
 8.30249e-06 -0.00349229 -8.26896e-06
 8.30416e-06 -0.00349229 8.26932e-06
 4.79806e-06 -0.00370867 7.59484e-06
 7.75121e-06 -0.00425659 -7.77432e-06
 7.57464e-06 -0.00370867 -4.67932e-06
 7.58045e-06 -0.00370867 4.68086e-06
 7.77232e-06 -0.00425661 7.77411e-06
 -1.76357e-05 -0.00467018 -1.76251e-05
 -1.73012e-05 -0.00204974 -2.41006e-05
 -1.72979e-05 -0.00204974 2.41017e-05
 -1.76286e-05 -0.00467018 1.76262e-05
 -2.41029e-05 -0.00204972 -1.72933e-05
 -2.55008e-05 -0.00298006 -2.54885e-05
 -2.54962e-05 -0.00298005 2.5489e-05
 -2.41033e-05 -0.00204975 1.72938e-05
 2.41045e-05 -0.00204972 -1.73026e-05
 2.55013e-05 -0.00298007 -2.54914e-05
 2.54959e-05 -0.00298006 2.54918e-05
 2.41029e-05 -0.00204974 1.7303e-05
 1.76336e-05 -0.00467014 -1.76476e-05
 1.72987e-05 -0.00204973 -2.4107e-05
 1.72962e-05 -0.00204974 2.41078e-05
 1.76283e-05 -0.00467016 1.76484e-05
 -1.66859e-05 0.000831779 -1.66466e-05
 -1.59868e-05 0.000484104 -1.16569e-05
 -1.60195e-05 0.000484099 1.16576e-05
 -1.66494e-05 0.000831897 1.66473e-05
 -1.16617e-05 0.000484144 -1.60006e-05
 -9.97338e-06 -0.000584667 -9.96278e-06
 -9.96599e-06 -0.000584638 9.96322e-06
 -1.16528e-05 0.000484073 1.60011e-05
 1.16617e-05 0.000484132 -1.60027e-05
 9.97297e-06 -0.000584704 -9.96363e-06
 9.96534e-06 -0.000584697 9.96398e-06
 1.16524e-05 0.000484116 1.60029e-05
 1.66862e-05 0.000831477 -1.66515e-05
 1.59865e-05 0.000484104 -1.16589e-05
 1.60192e-05 0.000484084 1.16594e-05
 1.66494e-05 0.00083177 1.66517e-05
 1.00938e-06 0.0011603 1.04973e-06
 1.89988e-06 0.000793229 -3.61634e-06
 3.11388e-07 0.000793236 3.61644e-06
 1.04631e-06 0.00116019 -1.04956e-06
 -3.54646e-06 0.000793221 6.00519e-07
 -7.42558e-06 -0.00157034 -6.26792e-06
 -6.0471e-06 -0.00157036 6.2651e-06
 -3.58877e-06 0.000793231 -5.97726e-07
 3.54498e-06 0.000793245 5.98663e-07
 7.08901e-06 -0.00157033 -6.26596e-06
 6.10348e-06 -0.00157033 6.26367e-06
 3.58792e-06 0.000793245 -5.96728e-07
 -1.00669e-06 0.00116062 1.0501e-06
 -1.56267e-06 0.000793234 -3.61587e-06
 -3.67411e-07 0.000793222 3.61559e-06
 -1.04505e-06 0.00116034 -1.05039e-06
 2.4107e-06 0.000640367 2.41823e-06
 5.21178e-06 0.000390018 5.63911e-06
 5.21871e-06 0.000390029 -5.63928e-06
 2.41657e-06 0.000640379 -2.41839e-06
 5.62083e-06 0.000390001 5.23073e-06
 6.6733e-06 -0.000741926 6.67173e-06
 6.67434e-06 -0.000741957 -6.66941e-06
 5.63718e-06 0.000390059 -5.23349e-06
 -5.62017e-06 0.000389998 5.23026e-06
 -6.67219e-06 -0.000741886 6.67227e-06
 -6.67262e-06 -0.000741895 -6.66908e-06
 -5.63659e-06 0.000390007 -5.23409e-06
 -2.41e-06 0.000640321 2.41813e-06
 -5.21181e-06 0.000390011 5.63943e-06
 -5.21953e-06 0.000390018 -5.63939e-06
 -2.41635e-06 0.000640336 -2.41906e-06
 2.88445e-06 -6.55482e-05 2.95877e-06
 1.17742e-05 0.000853101 9.49865e-06
 1.17775e-05 0.000853091 -9.52365e-06
 2.89722e-06 -6.55413e-05 -2.9344e-06
 9.55686e-06 0.000853097 1.17825e-05
 -5.95857e-07 0.000694255 -6.10191e-07
 -5.95542e-07 0.000694267 6.0967e-07
 9.56386e-06 0.000853088 -1.17827e-05
 -9.56913e-06 0.000853097 1.17827e-05
 5.97017e-07 0.000694245 -6.10079e-07
 5.96499e-07 0.000694246 6.09357e-07
 -9.55182e-06 0.000853101 -1.17827e-05
 -2.87083e-06 -6.55635e-05 2.94935e-06
 -1.17741e-05 0.000853113 9.50691e-06
 -1.17772e-05 0.000853126 -9.50959e-06
 -2.90807e-06 -6.55539e-05 -2.94747e-06
 2.42312e-06 0.000855677 2.42176e-06
 1.08147e-05 -0.000229353 9.79214e-06
 1.08146e-05 -0.000229351 -9.80115e-06
 2.42108e-06 0.000855677 -2.41338e-06
 9.79161e-06 -0.000229353 1.08149e-05
 3.05881e-06 0.000293529 3.05944e-06
 3.05891e-06 0.000293523 -3.05949e-06
 9.79363e-06 -0.000229351 -1.08154e-05
 -9.80188e-06 -0.000229351 1.08148e-05
 -3.05843e-06 0.000293534 3.05952e-06
 -3.05847e-06 0.000293528 -3.05946e-06
 -9.80161e-06 -0.000229352 -1.08154e-05
 -2.41195e-06 0.000855693 2.42689e-06
 -1.08142e-05 -0.000229354 9.78676e-06
 -1.0814e-05 -0.000229356 -9.8047e-06
 -2.41207e-06 0.000855691 -2.40945e-06
 -1.55536e-06 -0.000394931 -1.55673e-06
 2.24013e-06 -0.000507533 6.85074e-06
 2.23953e-06 -0.000507549 -6.84982e-06
 -1.55679e-06 -0.000394938 1.55547e-06
 6.85072e-06 -0.000507533 2.24025e-06
 -1.48697e-06 -0.00153453 -1.49332e-06
 -1.48698e-06 -0.00153452 1.49138e-06
 6.85113e-06 -0.000507565 -2.23855e-06
 -6.84962e-06 -0.00050756 2.24152e-06
 1.48477e-06 -0.00153452 -1.49656e-06
 1.48591e-06 -0.00153452 1.49281e-06
 -6.84882e-06 -0.000507566 -2.23789e-06
 1.55442e-06 -0.000394977 -1.55742e-06
 -2.23769e-06 -0.000507605 6.85146e-06
 -2.23809e-06 -0.000507593 -6.84924e-06
 1.55493e-06 -0.000394955 1.55514e-06
 1.38266e-06 -2.16289e-05 1.38219e-06
 3.98177e-07 -0.000968966 -5.8989e-06
 3.97566e-07 -0.00096895 5.89883e-06
 1.38242e-06 -2.16361e-05 -1.38234e-06
 -5.89887e-06 -0.000968967 3.97155e-07
 -4.69696e-06 0.00209081 -4.69717e-06
 -4.69689e-06 0.00209081 4.69694e-06
 -5.89874e-06 -0.000968935 -3.9705e-07
 5.89867e-06 -0.000968942 3.97905e-07
 4.69696e-06 0.00209082 -4.69711e-06
 4.69692e-06 0.00209082 4.69704e-06
 5.89872e-06 -0.000968935 -3.97877e-07
 -1.38266e-06 -2.15611e-05 1.38216e-06
 -3.98301e-07 -0.0009689 -5.8988e-06
 -3.97628e-07 -0.000968912 5.89889e-06
 -1.38237e-06 -2.1616e-05 -1.38224e-06
 -3.43071e-06 -0.00012913 -3.43114e-06
 -3.59952e-06 7.17071e-05 4.42945e-06
 -3.59943e-06 7.17073e-05 -4.42943e-06
 -3.43076e-06 -0.000129118 3.43098e-06
 4.42919e-06 7.17017e-05 -3.59972e-06
 5.51577e-08 0.000545573 5.46374e-08
 5.796e-08 0.00054558 -5.45806e-08
 4.42918e-06 7.17055e-05 3.59957e-06
 -4.42943e-06 7.16994e-05 -3.59989e-06
 -5.52893e-08 0.000545559 4.93631e-08
 -5.8313e-08 0.000545563 -4.91915e-08
 -4.42944e-06 7.17054e-05 3.59966e-06
 3.43051e-06 -0.000129178 -3.43123e-06
 3.59925e-06 7.17044e-05 4.4294e-06
 3.59942e-06 7.17072e-05 -4.42926e-06
 3.43067e-06 -0.000129136 3.43103e-06
 -2.07209e-06 0.00161776 -2.07269e-06
 -2.6228e-06 -0.00168711 3.76061e-06
 -2.6222e-06 -0.00168711 -3.76057e-06
 -2.07268e-06 0.00161776 2.07269e-06
 3.75963e-06 -0.0016871 -2.6218e-06
 4.95166e-06 0.000443835 4.95177e-06
 4.95176e-06 0.000443836 -4.9517e-06
 3.76059e-06 -0.00168711 2.62181e-06
 -3.76017e-06 -0.0016871 -2.62123e-06
 -4.95189e-06 0.000443833 4.95185e-06
 -4.95198e-06 0.000443834 -4.95178e-06
 -3.76115e-06 -0.00168711 2.62125e-06
 2.07209e-06 0.00161776 -2.07342e-06
 2.62252e-06 -0.0016871 3.76139e-06
 2.62193e-06 -0.0016871 -3.76117e-06
 2.07277e-06 0.00161777 2.07329e-06
 3.63954e-06 0.000278484 3.63971e-06
 3.20278e-06 0.00116955 -3.44211e-07
 3.20284e-06 0.00116955 3.4434e-07
 3.63953e-06 0.000278487 -3.63948e-06
 -3.43632e-07 0.00116955 3.20293e-06
 -3.84689e-07 -0.000452551 -3.84604e-07
 -3.84526e-07 -0.000452563 3.84715e-07
 -3.43862e-07 0.00116955 -3.20264e-06
 3.4347e-07 0.00116954 3.20295e-06
 3.84557e-07 -0.000452542 -3.84128e-07
 3.84329e-07 -0.00045256 3.84217e-07
 3.4375e-07 0.00116955 -3.2026e-06
 -3.63992e-06 0.000278484 3.63966e-06
 -3.20311e-06 0.00116953 -3.4406e-07
 -3.20305e-06 0.00116954 3.44198e-07
 -3.63978e-06 0.000278486 -3.63931e-06
 -6.98132e-07 -0.000534136 -6.97862e-07
 -9.43807e-07 0.000126811 -3.56294e-06
 -9.43789e-07 0.000126809 3.56322e-06
 -6.98085e-07 -0.000534163 6.98094e-07
 -3.56329e-06 0.00012681 -9.43588e-07
 -2.51367e-06 0.000259009 -2.51339e-06
 -2.51373e-06 0.00025902 2.51369e-06
 -3.56334e-06 0.000126807 9.43851e-07
 3.56305e-06 0.000126808 -9.4358e-07
 2.51348e-06 0.000259 -2.51348e-06
 2.51359e-06 0.000259018 2.51382e-06
 3.56322e-06 0.000126809 9.43877e-07
 6.97915e-07 -0.000534088 -6.97837e-07
 9.4363e-07 0.00012681 -3.56303e-06
 9.43654e-07 0.000126812 3.56341e-06
 6.97978e-07 -0.000534176 6.98175e-07
 2.36499e-06 -0.000241883 2.36523e-06
 1.18736e-06 0.00115285 2.04918e-06
 1.18737e-06 0.00115285 -2.04897e-06
 2.36504e-06 -0.000241852 -2.365e-06
 2.04899e-06 0.00115285 1.18757e-06
 1.26565e-06 0.000806356 1.26581e-06
 1.26573e-06 0.000806356 -1.26557e-06
 2.04906e-06 0.00115285 -1.18732e-06
 -2.04913e-06 0.00115285 1.1876e-06
 -1.26574e-06 0.000806356 1.26575e-06
 -1.26578e-06 0.000806356 -1.26548e-06
 -2.04907e-06 0.00115285 -1.18732e-06
 -2.36511e-06 -0.000241937 2.36528e-06
 -1.18744e-06 0.00115285 2.04924e-06
 -1.18743e-06 0.00115285 -2.04893e-06
 -2.36508e-06 -0.000241836 -2.36496e-06
 6.02234e-06 -0.000865249 6.02243e-06
 6.52245e-06 -0.00146507 3.64144e-06
 6.52247e-06 -0.00146507 -3.6413e-06
 6.02237e-06 -0.00086525 -6.0223e-06
 3.64134e-06 -0.00146507 6.52255e-06
 3.76422e-06 -0.00103331 3.76431e-06
 3.76424e-06 -0.00103331 -3.76416e-06
 3.64137e-06 -0.00146506 -6.5224e-06
 -3.64138e-06 -0.00146507 6.52256e-06
 -3.76424e-06 -0.00103331 3.76432e-06
 -3.76423e-06 -0.00103331 -3.76415e-06
 -3.64136e-06 -0.00146507 -6.5224e-06
 -6.02237e-06 -0.000865246 6.02247e-06
 -6.52247e-06 -0.00146507 3.64147e-06
 -6.52246e-06 -0.00146507 -3.64128e-06
 -6.02235e-06 -0.000865252 -6.02229e-06
 2.15794e-06 0.0014152 2.1579e-06
 3.25041e-06 0.000645381 2.00484e-06
 3.25042e-06 0.000645381 -2.00485e-06
 2.15794e-06 0.00141519 -2.15792e-06
 2.00488e-06 0.000645385 3.25038e-06
 2.32963e-06 -0.00150665 2.3296e-06
 2.32963e-06 -0.00150665 -2.32961e-06
 2.00487e-06 0.000645383 -3.25039e-06
 -2.00482e-06 0.000645386 3.25037e-06
 -2.32959e-06 -0.00150665 2.3296e-06
 -2.32959e-06 -0.00150665 -2.32962e-06
 -2.00483e-06 0.000645381 -3.2504e-06
 -2.15788e-06 0.0014152 2.15789e-06
 -3.25037e-06 0.000645382 2.00484e-06
 -3.25037e-06 0.00064538 -2.00486e-06
 -2.1579e-06 0.00141519 -2.15793e-06
 -5.04619e-06 -0.00014055 -5.04629e-06
 -4.44001e-06 -0.000637966 2.00704e-06
 -4.44e-06 -0.000637965 -2.00717e-06
 -5.04624e-06 -0.00014055 5.04621e-06
 2.00715e-06 -0.000637964 -4.44009e-06
 2.08878e-06 -0.000152664 2.08865e-06
 2.08876e-06 -0.000152666 -2.08878e-06
 2.00717e-06 -0.00063796 4.43999e-06
 -2.00705e-06 -0.000637965 -4.44014e-06
 -2.08866e-06 -0.000152666 2.08869e-06
 -2.08871e-06 -0.000152662 -2.08877e-06
 -2.00711e-06 -0.000637961 4.43996e-06
 5.0463e-06 -0.000140551 -5.04631e-06
 4.44007e-06 -0.000637965 2.00702e-06
 4.44009e-06 -0.000637956 -2.0072e-06
 5.04629e-06 -0.000140549 5.0462e-06
 -4.7222e-06 0.000346686 -4.72229e-06
 -4.96815e-06 0.000532582 3.16533e-06
 -4.96815e-06 0.000532585 -3.16548e-06
 -4.72221e-06 0.000346687 4.72221e-06
 3.16546e-06 0.000532562 -4.96815e-06
 2.84601e-06 0.000723667 2.8458e-06
 2.846e-06 0.000723668 -2.84616e-06
 3.16544e-06 0.000532573 4.96828e-06
 -3.16537e-06 0.000532556 -4.96815e-06
 -2.84599e-06 0.000723669 2.84579e-06
 -2.84601e-06 0.000723664 -2.84617e-06
 -3.16539e-06 0.000532576 4.96828e-06
 4.7223e-06 0.000346681 -4.7223e-06
 4.96829e-06 0.000532577 3.16532e-06
 4.9683e-06 0.000532572 -3.16549e-06
 4.72228e-06 0.000346689 4.72219e-06
 -7.38413e-06 -0.0003514 -7.3842e-06
 -7.024e-06 -9.67944e-06 5.34917e-06
 -7.024e-06 -9.68287e-06 -5.34926e-06
 -7.38413e-06 -0.000351396 7.38409e-06
 5.34925e-06 -9.66766e-06 -7.02407e-06
 4.50813e-06 -0.00111236 4.50806e-06
 4.50813e-06 -0.00111236 -4.50815e-06
 5.34924e-06 -9.68193e-06 7.02396e-06
 -5.34919e-06 -9.66133e-06 -7.02407e-06
 -4.50808e-06 -0.00111236 4.50805e-06
 -4.50808e-06 -0.00111236 -4.50816e-06
 -5.3492e-06 -9.68165e-06 7.02396e-06
 7.38418e-06 -0.000351439 -7.38421e-06
 7.02405e-06 -9.67469e-06 5.34916e-06
 7.02404e-06 -9.68302e-06 -5.34927e-06