<?xml version="1.0"?>
<!-- time 95.1764-->
<VTKFile type="UnstructuredGrid" version="0.1" byte_order="LittleEndian">
<UnstructuredGrid>
<Piece NumberOfPoints="960" NumberOfCells="0">
<Points>
  <DataArray type="Float32" Name="Position" NumberOfComponents="3" format="ascii">
	-300 2099.64 -300
	-300 2099.64 -100
	-300 2099.64 100
	-300 2099.64 300
	-100 2099.64 -300
	-100 2099.51 -100
	-100 2099.51 100
	-100 2099.64 300
	100 2099.64 -300
	100 2099.51 -100
	100 2099.51 100
	100 2099.64 300
	300 2099.64 -300
	300 2099.64 -100
	300 2099.64 100
	300 2099.64 300
	-300 2299.67 -300
	-300 2299.66 -100
	-300 2299.66 100
	-300 2299.67 300
	-100 2299.66 -300
	-100 2299.56 -100
	-100 2299.56 100
	-100 2299.66 300
	100 2299.66 -300
	100 2299.56 -100
	100 2299.56 100
	100 2299.66 300
	300 2299.67 -300
	300 2299.66 -100
	300 2299.66 100
	300 2299.67 300
	-300 2499.68 -300
	-300 2499.67 -100
	-300 2499.67 100
	-300 2499.68 300
	-100 2499.67 -300
	-100 2499.61 -100
	-100 2499.61 100
	-100 2499.67 300
	100 2499.67 -300
	100 2499.61 -100
	100 2499.61 100
	100 2499.67 300
	300 2499.68 -300
	300 2499.67 -100
	300 2499.67 100
	300 2499.68 300
	-300 2699.68 -300
	-300 2699.67 -100
	-300 2699.67 100
	-300 2699.68 300
	-100 2699.67 -300
	-100 2699.62 -100
	-100 2699.62 100
	-100 2699.67 300
	100 2699.67 -300
	100 2699.62 -100
	100 2699.62 100
	100 2699.67 300
	300 2699.68 -300
	300 2699.67 -100
	300 2699.67 100
	300 2699.68 300
	-300 2899.68 -300
	-300 2899.67 -100
	-300 2899.67 100
	-300 2899.68 300
	-100 2899.67 -300
	-100 2899.63 -100
	-100 2899.63 100
	-100 2899.67 300
	100 2899.67 -300
	100 2899.63 -100
	100 2899.63 100
	100 2899.67 300
	300 2899.68 -300
	300 2899.67 -100
	300 2899.67 100
	300 2899.68 300
	-300 3099.68 -300
	-300 3099.67 -100
	-300 3099.67 100
	-300 3099.68 300
	-100 3099.67 -300
	-100 3099.63 -100
	-100 3099.63 100
	-100 3099.67 300
	100 3099.67 -300
	100 3099.63 -100
	100 3099.63 100
	100 3099.67 300
	300 3099.68 -300
	300 3099.67 -100
	300 3099.67 100
	300 3099.68 300
	-300 3299.68 -300
	-300 3299.66 -100
	-300 3299.66 100
	-300 3299.68 300
	-100 3299.66 -300
	-100 3299.63 -100
	-100 3299.63 100
	-100 3299.66 300
	100 3299.66 -300
	100 3299.63 -100
	100 3299.63 100
	100 3299.66 300
	300 3299.68 -300
	300 3299.66 -100
	300 3299.66 100
	300 3299.68 300
	-300 3499.67 -300
	-300 3499.67 -100
	-300 3499.67 100
	-300 3499.67 300
	-100 3499.67 -300
	-100 3499.63 -100
	-100 3499.63 100
	-100 3499.67 300
	100 3499.67 -300
	100 3499.63 -100
	100 3499.63 100
	100 3499.67 300
	300 3499.67 -300
	300 3499.67 -100
	300 3499.67 100
	300 3499.67 300
	-300 3699.67 -300
	-300 3699.67 -100
	-300 3699.67 100
	-300 3699.67 300
	-100 3699.67 -300
	-100 3699.63 -100
	-100 3699.63 100
	-100 3699.67 300
	100 3699.67 -300
	100 3699.63 -100
	100 3699.63 100
	100 3699.67 300
	300 3699.67 -300
	300 3699.67 -100
	300 3699.67 100
	300 3699.67 300
	-300 3899.68 -300
	-300 3899.67 -100
	-300 3899.67 100
	-300 3899.68 300
	-100 3899.67 -300
	-100 3899.63 -100
	-100 3899.63 100
	-100 3899.67 300
	100 3899.67 -300
	100 3899.63 -100
	100 3899.63 100
	100 3899.67 300
	300 3899.68 -300
	300 3899.67 -100
	300 3899.67 100
	300 3899.68 300
	-300 4099.69 -300
	-300 4099.67 -100
	-300 4099.67 100
	-300 4099.69 300
	-100 4099.67 -300
	-100 4099.63 -100
	-100 4099.63 100
	-100 4099.67 300
	100 4099.67 -300
	100 4099.63 -100
	100 4099.63 100
	100 4099.67 300
	300 4099.69 -300
	300 4099.67 -100
	300 4099.67 100
	300 4099.69 300
	-300 4299.69 -300
	-300 4299.67 -100
	-300 4299.67 100
	-300 4299.69 300
	-100 4299.67 -300
	-100 4299.64 -100
	-100 4299.64 100
	-100 4299.67 300
	100 4299.67 -300
	100 4299.64 -100
	100 4299.64 100
	100 4299.67 300
	300 4299.69 -300
	300 4299.67 -100
	300 4299.67 100
	300 4299.69 300
	-300 4499.69 -300
	-300 4499.68 -100
	-300 4499.68 100
	-300 4499.69 300
	-100 4499.68 -300
	-100 4499.64 -100
	-100 4499.64 100
	-100 4499.68 300
	100 4499.68 -300
	100 4499.64 -100
	100 4499.64 100
	100 4499.68 300
	300 4499.69 -300
	300 4499.68 -100
	300 4499.68 100
	300 4499.69 300
	-300 4699.69 -300
	-300 4699.68 -100
	-300 4699.68 100
	-300 4699.69 300
	-100 4699.68 -300
	-100 4699.64 -100
	-100 4699.64 100
	-100 4699.68 300
	100 4699.68 -300
	100 4699.64 -100
	100 4699.64 100
	100 4699.68 300
	300 4699.69 -300
	300 4699.68 -100
	300 4699.68 100
	300 4699.69 300
	-300 4899.7 -300
	-300 4899.68 -100
	-300 4899.68 100
	-300 4899.7 300
	-100 4899.68 -300
	-100 4899.64 -100
	-100 4899.64 100
	-100 4899.68 300
	100 4899.68 -300
	100 4899.64 -100
	100 4899.64 100
	100 4899.68 300
	300 4899.7 -300
	300 4899.68 -100
	300 4899.68 100
	300 4899.7 300
	-300 5099.7 -300
	-300 5099.68 -100
	-300 5099.68 100
	-300 5099.7 300
	-100 5099.68 -300
	-100 5099.66 -100
	-100 5099.66 100
	-100 5099.68 300
	100 5099.68 -300
	100 5099.66 -100
	100 5099.66 100
	100 5099.68 300
	300 5099.7 -300
	300 5099.68 -100
	300 5099.68 100
	300 5099.7 300
	-300 5299.7 -300
	-300 5299.67 -100
	-300 5299.67 100
	-300 5299.7 300
	-100 5299.67 -300
	-100 5299.66 -100
	-100 5299.66 100
	-100 5299.67 300
	100 5299.67 -300
	100 5299.66 -100
	100 5299.66 100
	100 5299.67 300
	300 5299.7 -300
	300 5299.67 -100
	300 5299.67 100
	300 5299.7 300
	-300 5499.7 -300
	-300 5499.68 -100
	-300 5499.68 100
	-300 5499.7 300
	-100 5499.68 -300
	-100 5499.66 -100
	-100 5499.66 100
	-100 5499.68 300
	100 5499.68 -300
	100 5499.66 -100
	100 5499.66 100
	100 5499.68 300
	300 5499.7 -300
	300 5499.68 -100
	300 5499.68 100
	300 5499.7 300
	-300 5699.7 -300
	-300 5699.68 -100
	-300 5699.68 100
	-300 5699.7 300
	-100 5699.68 -300
	-100 5699.67 -100
	-100 5699.67 100
	-100 5699.68 300
	100 5699.68 -300
	100 5699.67 -100
	100 5699.67 100
	100 5699.68 300
	300 5699.7 -300
	300 5699.68 -100
	300 5699.68 100
	300 5699.7 300
	-300 5899.71 -300
	-300 5899.69 -100
	-300 5899.69 100
	-300 5899.71 300
	-100 5899.69 -300
	-100 5899.67 -100
	-100 5899.67 100
	-100 5899.69 300
	100 5899.69 -300
	100 5899.67 -100
	100 5899.67 100
	100 5899.69 300
	300 5899.71 -300
	300 5899.69 -100
	300 5899.69 100
	300 5899.71 300
	-300 6099.72 -300
	-300 6099.69 -100
	-300 6099.69 100
	-300 6099.72 300
	-100 6099.69 -300
	-100 6099.69 -100
	-100 6099.69 100
	-100 6099.69 300
	100 6099.69 -300
	100 6099.69 -100
	100 6099.69 100
	100 6099.69 300
	300 6099.72 -300
	300 6099.69 -100
	300 6099.69 100
	300 6099.72 300
	-300 6299.72 -300
	-300 6299.71 -100
	-300 6299.71 100
	-300 6299.72 300
	-100 6299.71 -300
	-100 6299.69 -100
	-100 6299.69 100
	-100 6299.71 300
	100 6299.71 -300
	100 6299.69 -100
	100 6299.69 100
	100 6299.71 300
	300 6299.72 -300
	300 6299.71 -100
	300 6299.71 100
	300 6299.72 300
	-300 6499.82 -300
	-300 6499.71 -100
	-300 6499.71 100
	-300 6499.82 300
	-100 6499.71 -300
	-100 6499.71 -100
	-100 6499.71 100
	-100 6499.71 300
	100 6499.71 -300
	100 6499.71 -100
	100 6499.71 100
	100 6499.71 300
	300 6499.82 -300
	300 6499.71 -100
	300 6499.71 100
	300 6499.82 300
	-300 6699.86 -300
	-300 6699.86 -100
	-300 6699.86 100
	-300 6699.86 300
	-100 6699.86 -300
	-100 6699.86 -100
	-100 6699.86 100
	-100 6699.86 300
	100 6699.86 -300
	100 6699.86 -100
	100 6699.86 100
	100 6699.86 300
	300 6699.86 -300
	300 6699.86 -100
	300 6699.86 100
	300 6699.86 300
	-300 6899.86 -300
	-300 6899.86 -100
	-300 6899.86 100
	-300 6899.86 300
	-100 6899.86 -300
	-100 6899.86 -100
	-100 6899.86 100
	-100 6899.86 300
	100 6899.86 -300
	100 6899.86 -100
	100 6899.86 100
	100 6899.86 300
	300 6899.86 -300
	300 6899.86 -100
	300 6899.86 100
	300 6899.86 300
	-300 7099.87 -300
	-300 7099.87 -100
	-300 7099.87 100
	-300 7099.87 300
	-100 7099.87 -300
	-100 7099.87 -100
	-100 7099.87 100
	-100 7099.87 300
	100 7099.87 -300
	100 7099.87 -100
	100 7099.87 100
	100 7099.87 300
	300 7099.87 -300
	300 7099.87 -100
	300 7099.87 100
	300 7099.87 300
	-300 7299.87 -300
	-300 7299.87 -100
	-300 7299.87 100
	-300 7299.87 300
	-100 7299.87 -300
	-100 7299.87 -100
	-100 7299.87 100
	-100 7299.87 300
	100 7299.87 -300
	100 7299.87 -100
	100 7299.87 100
	100 7299.87 300
	300 7299.87 -300
	300 7299.87 -100
	300 7299.87 100
	300 7299.87 300
	-300 7499.88 -300
	-300 7499.88 -100
	-300 7499.88 100
	-300 7499.88 300
	-100 7499.88 -300
	-100 7499.88 -100
	-100 7499.88 100
	-100 7499.88 300
	100 7499.88 -300
	100 7499.88 -100
	100 7499.88 100
	100 7499.88 300
	300 7499.88 -300
	300 7499.88 -100
	300 7499.88 100
	300 7499.88 300
	-300 7699.88 -300
	-300 7699.88 -100
	-300 7699.88 100
	-300 7699.88 300
	-100 7699.88 -300
	-100 7699.88 -100
	-100 7699.88 100
	-100 7699.88 300
	100 7699.88 -300
	100 7699.88 -100
	100 7699.88 100
	100 7699.88 300
	300 7699.88 -300
	300 7699.88 -100
	300 7699.88 100
	300 7699.88 300
	-300 7899.89 -300
	-300 7899.89 -100
	-300 7899.89 100
	-300 7899.89 300
	-100 7899.89 -300
	-100 7899.88 -100
	-100 7899.88 100
	-100 7899.89 300
	100 7899.89 -300
	100 7899.88 -100
	100 7899.88 100
	100 7899.89 300
	300 7899.89 -300
	300 7899.89 -100
	300 7899.89 100
	300 7899.89 300
	-300 8099.9 -300
	-300 8099.89 -100
	-300 8099.89 100
	-300 8099.9 300
	-100 8099.89 -300
	-100 8099.89 -100
	-100 8099.89 100
	-100 8099.89 300
	100 8099.89 -300
	100 8099.89 -100
	100 8099.89 100
	100 8099.89 300
	300 8099.9 -300
	300 8099.89 -100
	300 8099.89 100
	300 8099.9 300
	-300 8299.9 -300
	-300 8299.9 -100
	-300 8299.9 100
	-300 8299.9 300
	-100 8299.9 -300
	-100 8299.9 -100
	-100 8299.9 100
	-100 8299.9 300
	100 8299.9 -300
	100 8299.9 -100
	100 8299.9 100
	100 8299.9 300
	300 8299.9 -300
	300 8299.9 -100
	300 8299.9 100
	300 8299.9 300
	-300 8499.9 -300
	-300 8499.9 -100
	-300 8499.9 100
	-300 8499.9 300
	-100 8499.9 -300
	-100 8499.9 -100
	-100 8499.9 100
	-100 8499.9 300
	100 8499.9 -300
	100 8499.9 -100
	100 8499.9 100
	100 8499.9 300
	300 8499.9 -300
	300 8499.9 -100
	300 8499.9 100
	300 8499.9 300
	-300 8699.91 -300
	-300 8699.91 -100
	-300 8699.91 100
	-300 8699.91 300
	-100 8699.91 -300
	-100 8699.91 -100
	-100 8699.91 100
	-100 8699.91 300
	100 8699.91 -300
	100 8699.91 -100
	100 8699.91 100
	100 8699.91 300
	300 8699.91 -300
	300 8699.91 -100
	300 8699.91 100
	300 8699.91 300
	-300 8899.92 -300
	-300 8899.92 -100
	-300 8899.92 100
	-300 8899.92 300
	-100 8899.92 -300
	-100 8899.91 -100
	-100 8899.91 100
	-100 8899.92 300
	100 8899.92 -300
	100 8899.91 -100
	100 8899.91 100
	100 8899.92 300
	300 8899.92 -300
	300 8899.92 -100
	300 8899.92 100
	300 8899.92 300
	-300 9099.93 -300
	-300 9099.92 -100
	-300 9099.92 100
	-300 9099.93 300
	-100 9099.92 -300
	-100 9099.92 -100
	-100 9099.92 100
	-100 9099.92 300
	100 9099.92 -300
	100 9099.92 -100
	100 9099.92 100
	100 9099.92 300
	300 9099.93 -300
	300 9099.92 -100
	300 9099.92 100
	300 9099.93 300
	-300 9299.93 -300
	-300 9299.93 -100
	-300 9299.93 100
	-300 9299.93 300
	-100 9299.93 -300
	-100 9299.93 -100
	-100 9299.93 100
	-100 9299.93 300
	100 9299.93 -300
	100 9299.93 -100
	100 9299.93 100
	100 9299.93 300
	300 9299.93 -300
	300 9299.93 -100
	300 9299.93 100
	300 9299.93 300
	-300 9499.94 -300
	-300 9499.93 -100
	-300 9499.93 100
	-300 9499.94 300
	-100 9499.93 -300
	-100 9499.93 -100
	-100 9499.93 100
	-100 9499.93 300
	100 9499.93 -300
	100 9499.93 -100
	100 9499.93 100
	100 9499.93 300
	300 9499.94 -300
	300 9499.93 -100
	300 9499.93 100
	300 9499.94 300
	-300 9699.94 -300
	-300 9699.93 -100
	-300 9699.93 100
	-300 9699.94 300
	-100 9699.93 -300
	-100 9699.93 -100
	-100 9699.93 100
	-100 9699.93 300
	100 9699.93 -300
	100 9699.93 -100
	100 9699.93 100
	100 9699.93 300
	300 9699.94 -300
	300 9699.93 -100
	300 9699.93 100
	300 9699.94 300
	-300 9899.94 -300
	-300 9899.94 -100
	-300 9899.94 100
	-300 9899.94 300
	-100 9899.94 -300
	-100 9899.94 -100
	-100 9899.94 100
	-100 9899.94 300
	100 9899.94 -300
	100 9899.94 -100
	100 9899.94 100
	100 9899.94 300
	300 9899.94 -300
	300 9899.94 -100
	300 9899.94 100
	300 9899.94 300
	-300 10100 -300
	-300 10100 -100
	-300 10100 100
	-300 10100 300
	-100 10100 -300
	-100 10100 -100
	-100 10100 100
	-100 10100 300
	100 10100 -300
	100 10100 -100
	100 10100 100
	100 10100 300
	300 10100 -300
	300 10100 -100
	300 10100 100
	300 10100 300
	-300 10300 -300
	-300 10300 -100
	-300 10300 100
	-300 10300 300
	-100 10300 -300
	-100 10300 -100
	-100 10300 100
	-100 10300 300
	100 10300 -300
	100 10300 -100
	100 10300 100
	100 10300 300
	300 10300 -300
	300 10300 -100
	300 10300 100
	300 10300 300
	-300 10500 -300
	-300 10500 -100
	-300 10500 100
	-300 10500 300
	-100 10500 -300
	-100 10500 -100
	-100 10500 100
	-100 10500 300
	100 10500 -300
	100 10500 -100
	100 10500 100
	100 10500 300
	300 10500 -300
	300 10500 -100
	300 10500 100
	300 10500 300
	-300 10700 -300
	-300 10700 -100
	-300 10700 100
	-300 10700 300
	-100 10700 -300
	-100 10700 -100
	-100 10700 100
	-100 10700 300
	100 10700 -300
	100 10700 -100
	100 10700 100
	100 10700 300
	300 10700 -300
	300 10700 -100
	300 10700 100
	300 10700 300
	-300 10900 -300
	-300 10900 -100
	-300 10900 100
	-300 10900 300
	-100 10900 -300
	-100 10900 -100
	-100 10900 100
	-100 10900 300
	100 10900 -300
	100 10900 -100
	100 10900 100
	100 10900 300
	300 10900 -300
	300 10900 -100
	300 10900 100
	300 10900 300
	-300 11100 -300
	-300 11100 -100
	-300 11100 100
	-300 11100 300
	-100 11100 -300
	-100 11100 -100
	-100 11100 100
	-100 11100 300
	100 11100 -300
	100 11100 -100
	100 11100 100
	100 11100 300
	300 11100 -300
	300 11100 -100
	300 11100 100
	300 11100 300
	-300 11300 -300
	-300 11300 -100
	-300 11300 100
	-300 11300 300
	-100 11300 -300
	-100 11300 -100
	-100 11300 100
	-100 11300 300
	100 11300 -300
	100 11300 -100
	100 11300 100
	100 11300 300
	300 11300 -300
	300 11300 -100
	300 11300 100
	300 11300 300
	-300 11500.1 -300
	-300 11500.1 -100
	-300 11500.1 100
	-300 11500.1 300
	-100 11500.1 -300
	-100 11500.1 -100
	-100 11500.1 100
	-100 11500.1 300
	100 11500.1 -300
	100 11500.1 -100
	100 11500.1 100
	100 11500.1 300
	300 11500.1 -300
	300 11500.1 -100
	300 11500.1 100
	300 11500.1 300
	-300 11700.1 -300
	-300 11700.1 -100
	-300 11700.1 100
	-300 11700.1 300
	-100 11700.1 -300
	-100 11700.1 -100
	-100 11700.1 100
	-100 11700.1 300
	100 11700.1 -300
	100 11700.1 -100
	100 11700.1 100
	100 11700.1 300
	300 11700.1 -300
	300 11700.1 -100
	300 11700.1 100
	300 11700.1 300
	-300 11900.1 -300
	-300 11900.1 -100
	-300 11900.1 100
	-300 11900.1 300
	-100 11900.1 -300
	-100 11900.1 -100
	-100 11900.1 100
	-100 11900.1 300
	100 11900.1 -300
	100 11900.1 -100
	100 11900.1 100
	100 11900.1 300
	300 11900.1 -300
	300 11900.1 -100
	300 11900.1 100
	300 11900.1 300
	-300 12100.2 -300
	-300 12100.2 -100
	-300 12100.2 100
	-300 12100.2 300
	-100 12100.2 -300
	-100 12100.2 -100
	-100 12100.2 100
	-100 12100.2 300
	100 12100.2 -300
	100 12100.2 -100
	100 12100.2 100
	100 12100.2 300
	300 12100.2 -300
	300 12100.2 -100
	300 12100.2 100
	300 12100.2 300
	-300 12300.2 -300
	-300 12300.2 -100
	-300 12300.2 100
	-300 12300.2 300
	-100 12300.2 -300
	-100 12300.2 -100
	-100 12300.2 100
	-100 12300.2 300
	100 12300.2 -300
	100 12300.2 -100
	100 12300.2 100
	100 12300.2 300
	300 12300.2 -300
	300 12300.2 -100
	300 12300.2 100
	300 12300.2 300
	-300 12500.2 -300
	-300 12500.2 -100
	-300 12500.2 100
	-300 12500.2 300
	-100 12500.2 -300
	-100 12500.2 -100
	-100 12500.2 100
	-100 12500.2 300
	100 12500.2 -300
	100 12500.2 -100
	100 12500.2 100
	100 12500.2 300
	300 12500.2 -300
	300 12500.2 -100
	300 12500.2 100
	300 12500.2 300
	-300 12700.3 -300
	-300 12700.3 -100
	-300 12700.3 100
	-300 12700.3 300
	-100 12700.3 -300
	-100 12700.3 -100
	-100 12700.3 100
	-100 12700.3 300
	100 12700.3 -300
	100 12700.3 -100
	100 12700.3 100
	100 12700.3 300
	300 12700.3 -300
	300 12700.3 -100
	300 12700.3 100
	300 12700.3 300
	-300 12900.4 -300
	-300 12900.4 -100
	-300 12900.4 100
	-300 12900.4 300
	-100 12900.4 -300
	-100 12900.4 -100
	-100 12900.4 100
	-100 12900.4 300
	100 12900.4 -300
	100 12900.4 -100
	100 12900.4 100
	100 12900.4 300
	300 12900.4 -300
	300 12900.4 -100
	300 12900.4 100
	300 12900.4 300
	-300 13100.5 -300
	-300 13100.5 -100
	-300 13100.5 100
	-300 13100.5 300
	-100 13100.5 -300
	-100 13100.5 -100
	-100 13100.5 100
	-100 13100.5 300
	100 13100.5 -300
	100 13100.5 -100
	100 13100.5 100
	100 13100.5 300
	300 13100.5 -300
	300 13100.5 -100
	300 13100.5 100
	300 13100.5 300
	-300 13300.6 -300
	-300 13300.6 -100
	-300 13300.6 100
	-300 13300.6 300
	-100 13300.6 -300
	-100 13300.6 -100
	-100 13300.6 100
	-100 13300.6 300
	100 13300.6 -300
	100 13300.6 -100
	100 13300.6 100
	100 13300.6 300
	300 13300.6 -300
	300 13300.6 -100
	300 13300.6 100
	300 13300.6 300
	-300 13500.8 -300
	-300 13500.8 -100
	-300 13500.8 100
	-300 13500.8 300
	-100 13500.8 -300
	-100 13500.8 -100
	-100 13500.8 100
	-100 13500.8 300
	100 13500.8 -300
	100 13500.8 -100
	100 13500.8 100
	100 13500.8 300
	300 13500.8 -300
	300 13500.8 -100
	300 13500.8 100
	300 13500.8 300
	-300 13701.2 -300
	-300 13701.2 -100
	-300 13701.2 100
	-300 13701.2 300
	-100 13701.2 -300
	-100 13701.2 -100
	-100 13701.2 100
	-100 13701.2 300
	100 13701.2 -300
	100 13701.2 -100
	100 13701.2 100
	100 13701.2 300
	300 13701.2 -300
	300 13701.2 -100
	300 13701.2 100
	300 13701.2 300
	-300 13902.3 -300
	-300 13902.3 -100
	-300 13902.3 100
	-300 13902.3 300
	-100 13902.3 -300
	-100 13902.3 -100
	-100 13902.3 100
	-100 13902.3 300
	100 13902.3 -300
	100 13902.3 -100
	100 13902.3 100
	100 13902.3 300
	300 13902.3 -300
	300 13902.3 -100
	300 13902.3 100
	300 13902.3 300
  </DataArray>
</Points>
<PointData  Vectors="vector">
  <DataArray type="Float32" Name="Velocity" NumberOfComponents="3" format="ascii">
 -2.5543e-07 -0.02108 -1.80116e-07
 -4.24395e-06 -0.0214989 4.40639e-06
 -4.24328e-06 -0.0214989 -4.41334e-06
 -2.47352e-07 -0.02108 1.87172e-07
 4.23274e-06 -0.0214989 -3.82854e-06
 1.08169e-05 -0.022019 1.06223e-05
 1.08164e-05 -0.022019 -1.06219e-05
 4.2249e-06 -0.0214989 3.82794e-06
 -4.22285e-06 -0.0214989 -3.80175e-06
 -1.08165e-05 -0.022019 1.05532e-05
 -1.08182e-05 -0.022019 -1.05534e-05
 -4.23008e-06 -0.0214989 3.8008e-06
 2.46225e-07 -0.02108 -2.81815e-07
 4.24135e-06 -0.0214989 4.37722e-06
 4.24256e-06 -0.0214989 -4.41286e-06
 2.52244e-07 -0.02108 3.15307e-07
 3.43137e-06 -0.00852377 4.01219e-06
 4.29436e-06 -0.00719021 -4.74301e-06
 4.29503e-06 -0.00719021 4.74193e-06
 3.38847e-06 -0.00852375 -4.01114e-06
 -3.43374e-07 -0.00719021 4.36287e-06
 -8.56981e-07 -0.00205784 -7.64677e-07
 -8.58354e-07 -0.00205784 7.66659e-07
 -3.38694e-07 -0.0071902 -4.36482e-06
 3.05555e-07 -0.00719021 4.33233e-06
 8.5607e-07 -0.00205783 -7.71107e-07
 8.55687e-07 -0.00205783 7.74613e-07
 3.84586e-07 -0.0071902 -4.33608e-06
 -3.39275e-06 -0.00852377 4.10235e-06
 -4.29504e-06 -0.00719021 -4.65183e-06
 -4.29385e-06 -0.0071902 4.63552e-06
 -3.43326e-06 -0.00852374 -4.0867e-06
 -1.35332e-06 -0.00341375 -1.18026e-06
 -2.75133e-06 -0.00348763 4.5462e-06
 -2.74953e-06 -0.0034876 -4.54593e-06
 -1.35017e-06 -0.00341368 1.17989e-06
 4.70993e-06 -0.00348763 -2.58386e-06
 6.18061e-06 -0.00206891 6.08983e-06
 6.18019e-06 -0.00206899 -6.08946e-06
 4.70697e-06 -0.00348744 2.58367e-06
 -4.70686e-06 -0.00348759 -2.76843e-06
 -6.1811e-06 -0.0020689 6.19348e-06
 -6.18254e-06 -0.00206893 -6.19194e-06
 -4.70893e-06 -0.00348744 2.76725e-06
 1.35125e-06 -0.00341378 -1.21014e-06
 2.75119e-06 -0.0034876 4.5258e-06
 2.7516e-06 -0.00348753 -4.52331e-06
 1.35402e-06 -0.00341375 1.2081e-06
 -3.56696e-06 0.00501543 -3.53853e-06
 -3.3563e-06 0.00166632 -8.09399e-06
 -3.35586e-06 0.00166618 8.0994e-06
 -3.56596e-06 0.0050154 3.53317e-06
 -7.99592e-06 0.0016663 -3.31071e-06
 -5.1006e-06 0.00873827 -5.01001e-06
 -5.10058e-06 0.00873834 5.01433e-06
 -7.99559e-06 0.00166588 3.30671e-06
 7.99928e-06 0.00166624 -3.3101e-06
 5.10414e-06 0.00873828 -5.01313e-06
 5.10392e-06 0.00873832 5.01494e-06
 7.99887e-06 0.00166591 3.30892e-06
 3.56459e-06 0.00501544 -3.53955e-06
 3.35301e-06 0.00166626 -8.10917e-06
 3.35309e-06 0.00166611 8.11123e-06
 3.56446e-06 0.00501543 3.53838e-06
 -2.08346e-06 0.00613565 -2.07339e-06
 -1.14419e-06 0.00544113 -5.63115e-06
 -1.14422e-06 0.0054412 5.63156e-06
 -2.0831e-06 0.00613549 2.07347e-06
 -5.63219e-06 0.00544115 -1.13e-06
 -6.67253e-06 0.00455269 -6.67727e-06
 -6.67239e-06 0.00455268 6.67807e-06
 -5.63223e-06 0.00544145 1.12984e-06
 5.63281e-06 0.00544121 -1.12925e-06
 6.67271e-06 0.00455268 -6.67801e-06
 6.67285e-06 0.00455268 6.67903e-06
 5.63269e-06 0.00544145 1.12905e-06
 2.08335e-06 0.00613567 -2.0716e-06
 1.14429e-06 0.00544119 -5.63296e-06
 1.14424e-06 0.00544132 5.63406e-06
 2.08363e-06 0.00613555 2.07155e-06
 1.83485e-06 0.00667006 1.83553e-06
 1.82459e-06 0.00506415 2.55696e-06
 1.8242e-06 0.00506426 -2.55583e-06
 1.83429e-06 0.00667064 -1.8353e-06
 2.55652e-06 0.00506418 1.82638e-06
 3.08397e-06 0.000191905 3.08498e-06
 3.08437e-06 0.000191519 -3.08374e-06
 2.55706e-06 0.00506442 -1.8263e-06
 -2.55693e-06 0.00506422 1.82707e-06
 -3.08435e-06 0.00019205 3.0848e-06
 -3.08388e-06 0.000191942 -3.08422e-06
 -2.55654e-06 0.0050644 -1.8263e-06
 -1.83454e-06 0.00667 1.8365e-06
 -1.8244e-06 0.00506421 2.55706e-06
 -1.8248e-06 0.0050643 -2.55655e-06
 -1.83474e-06 0.00667046 -1.83553e-06
 -4.14586e-06 -0.000283075 -4.14606e-06
 -2.32632e-06 0.00464135 1.33462e-06
 -2.33043e-06 0.00464128 -1.33495e-06
 -4.14628e-06 -0.000283429 4.148e-06
 1.33536e-06 0.00464133 -2.32808e-06
 -7.09014e-07 -0.000811898 -7.09586e-07
 -7.05066e-07 -0.000811537 6.83126e-07
 1.33569e-06 0.00464107 2.35605e-06
 -1.33758e-06 0.00464127 -2.33556e-06
 6.84883e-07 -0.000812024 -7.05683e-07
 6.89494e-07 -0.000811929 6.95091e-07
 -1.33676e-06 0.00464108 2.34761e-06
 4.14781e-06 -0.000283038 -4.14611e-06
 2.35012e-06 0.00464128 1.33454e-06
 2.34568e-06 0.00464119 -1.33536e-06
 4.14707e-06 -0.000283341 4.14844e-06
 1.67131e-06 -0.000157435 1.6715e-06
 2.62551e-06 -0.000684937 -3.04621e-06
 2.62605e-06 -0.000684942 3.04669e-06
 1.67126e-06 -0.000157545 -1.6707e-06
 -3.04814e-06 -0.000684936 2.62359e-06
 2.51844e-06 -0.00163244 2.51795e-06
 2.51778e-06 -0.00163245 -2.51423e-06
 -3.04805e-06 -0.000684951 -2.62613e-06
 3.04799e-06 -0.000684938 2.62342e-06
 -2.51265e-06 -0.00163247 2.51845e-06
 -2.51341e-06 -0.00163249 -2.51387e-06
 3.04794e-06 -0.000684951 -2.62691e-06
 -1.67124e-06 -0.000157413 1.67149e-06
 -2.63141e-06 -0.00068494 -3.04662e-06
 -2.63054e-06 -0.000684947 3.04671e-06
 -1.67127e-06 -0.000157517 -1.67048e-06
 9.53648e-07 -0.00249898 9.53746e-07
 1.0117e-06 -0.00260255 1.21297e-07
 1.01172e-06 -0.00260255 -1.20563e-07
 9.53678e-07 -0.00249887 -9.5377e-07
 1.21171e-07 -0.00260255 1.01185e-06
 1.6376e-07 -0.0010812 1.63906e-07
 1.63741e-07 -0.00108119 -1.63209e-07
 1.21125e-07 -0.00260257 -1.01189e-06
 -1.20712e-07 -0.00260255 1.01186e-06
 -1.6333e-07 -0.0010812 1.63885e-07
 -1.63348e-07 -0.00108119 -1.63243e-07
 -1.20757e-07 -0.00260257 -1.01191e-06
 -9.53953e-07 -0.00249899 9.53777e-07
 -1.012e-06 -0.00260255 1.21247e-07
 -1.01198e-06 -0.00260256 -1.2064e-07
 -9.53919e-07 -0.00249888 -9.53819e-07
 2.33646e-07 0.000350733 2.3367e-07
 2.97559e-07 0.000980128 -1.48815e-07
 2.97566e-07 0.000980125 1.48898e-07
 2.33662e-07 0.000350708 -2.33792e-07
 -1.48812e-07 0.000980129 2.97608e-07
 -1.09468e-07 -0.00159726 -1.09471e-07
 -1.09466e-07 -0.00159715 1.09543e-07
 -1.48807e-07 0.000980127 -2.9773e-07
 1.48999e-07 0.000980132 2.97607e-07
 1.09662e-07 -0.00159728 -1.09477e-07
 1.09665e-07 -0.00159724 1.09532e-07
 1.49002e-07 0.000980128 -2.97744e-07
 -2.33586e-07 0.000350736 2.33676e-07
 -2.97506e-07 0.00098013 -1.48834e-07
 -2.97497e-07 0.000980133 1.48869e-07
 -2.33577e-07 0.000350718 -2.33812e-07
 4.43473e-07 0.000623098 4.43386e-07
 4.4883e-07 -0.000861468 -5.33448e-08
 4.4883e-07 -0.000861462 5.30646e-08
 4.43501e-07 0.000623086 -4.43532e-07
 -5.31805e-08 -0.00086147 4.48719e-07
 -3.77907e-08 -0.00107203 -3.79302e-08
 -3.77701e-08 -0.00107215 3.76921e-08
 -5.31485e-08 -0.000861454 -4.48892e-07
 5.32601e-08 -0.000861468 4.48725e-07
 3.78574e-08 -0.001072 -3.79261e-08
 3.78735e-08 -0.00107204 3.76867e-08
 5.32694e-08 -0.000861456 -4.48908e-07
 -4.43358e-07 0.0006231 4.434e-07
 -4.48692e-07 -0.000861468 -5.33157e-08
 -4.48699e-07 -0.000861459 5.30631e-08
 -4.4337e-07 0.000623089 -4.43578e-07
 1.58855e-06 -0.000173031 1.58842e-06
 1.50387e-06 0.000291905 2.79377e-07
 1.50386e-06 0.000291919 -2.79576e-07
 1.58852e-06 -0.000173032 -1.58864e-06
 2.79539e-07 0.000291903 1.50377e-06
 2.7517e-07 -0.000566343 2.74985e-07
 2.75169e-07 -0.000566491 -2.75177e-07
 2.7953e-07 0.000291927 -1.50399e-06
 -2.79496e-07 0.000291903 1.50377e-06
 -2.75122e-07 -0.000566331 2.74978e-07
 -2.75112e-07 -0.000566365 -2.75171e-07
 -2.79472e-07 0.000291919 -1.50399e-06
 -1.58853e-06 -0.00017303 1.58843e-06
 -1.50385e-06 0.000291901 2.79372e-07
 -1.50382e-06 0.000291913 -2.79565e-07
 -1.58847e-06 -0.000173031 -1.58864e-06
 3.61296e-06 0.00040406 3.61287e-06
 3.48811e-06 0.000319154 1.37828e-06
 3.48808e-06 0.000319157 -1.37843e-06
 3.6129e-06 0.000404059 -3.61303e-06
 1.37836e-06 0.000319155 3.48804e-06
 1.34385e-06 -0.000110015 1.34379e-06
 1.34384e-06 -0.000109869 -1.34395e-06
 1.37832e-06 0.000319166 -3.48818e-06
 -1.37838e-06 0.000319158 3.48803e-06
 -1.34387e-06 -0.000110027 1.3438e-06
 -1.34384e-06 -0.000109992 -1.34395e-06
 -1.37833e-06 0.000319167 -3.48817e-06
 -3.61296e-06 0.000404058 3.61287e-06
 -3.48811e-06 0.000319159 1.37829e-06
 -3.48809e-06 0.000319163 -1.37845e-06
 -3.6129e-06 0.000404057 -3.613e-06
 -1.5345e-06 -0.000729183 -1.53449e-06
 -1.12915e-06 -0.00043374 2.10729e-06
 -1.12901e-06 -0.00043375 -2.10729e-06
 -1.53438e-06 -0.000729197 1.53432e-06
 2.10725e-06 -0.000433743 -1.1292e-06
 1.85901e-06 0.000236107 1.85901e-06
 1.85899e-06 0.000236105 -1.8591e-06
 2.10731e-06 -0.000433745 1.12912e-06
 -2.10727e-06 -0.000433745 -1.12918e-06
 -1.85908e-06 0.000236104 1.85901e-06
 -1.85905e-06 0.000236101 -1.8591e-06
 -2.1073e-06 -0.000433744 1.12911e-06
 1.53443e-06 -0.000729181 -1.53439e-06
 1.12912e-06 -0.000433752 2.10722e-06
 1.12896e-06 -0.00043374 -2.10736e-06
 1.53426e-06 -0.000729192 1.53438e-06
 -5.0904e-07 3.27192e-05 -5.0902e-07
 -3.93085e-07 0.00082798 1.49509e-06
 -3.93108e-07 0.000827981 -1.4951e-06
 -5.09111e-07 3.27534e-05 5.08947e-07
 1.49507e-06 0.000827984 -3.93051e-07
 1.4742e-06 0.000522725 1.47424e-06
 1.47418e-06 0.000522712 -1.47426e-06
 1.49501e-06 0.000827973 3.92987e-07
 -1.49513e-06 0.000827985 -3.93047e-07
 -1.47429e-06 0.000522729 1.47424e-06
 -1.47429e-06 0.000522727 -1.47426e-06
 -1.49511e-06 0.000827976 3.92993e-07
 5.08924e-07 3.27119e-05 -5.08999e-07
 3.92989e-07 0.000827992 1.49508e-06
 3.93016e-07 0.000827975 -1.49511e-06
 5.08978e-07 3.27386e-05 5.0897e-07
 -4.55979e-06 0.000214778 -4.55974e-06
 -5.00244e-06 6.94111e-05 -1.85037e-06
 -5.00245e-06 6.9433e-05 1.85034e-06
 -4.5598e-06 0.000214765 4.55971e-06
 -1.85041e-06 6.94157e-05 -5.00238e-06
 -1.92119e-06 0.00104549 -1.92113e-06
 -1.9212e-06 0.00104549 1.9211e-06
 -1.85044e-06 6.94357e-05 5.00236e-06
 1.85029e-06 6.9418e-05 -5.00238e-06
 1.92105e-06 0.00104549 -1.92113e-06
 1.92105e-06 0.00104549 1.92111e-06
 1.85029e-06 6.94267e-05 5.00236e-06
 4.55966e-06 0.000214782 -4.55974e-06
 5.00231e-06 6.94232e-05 -1.85037e-06
 5.00232e-06 6.94249e-05 1.85035e-06
 4.55964e-06 0.000214774 4.55971e-06
 1.05917e-06 -0.00111143 1.05922e-06
 1.64137e-06 -0.000323207 9.80952e-07
 1.64136e-06 -0.000323231 -9.80987e-07
 1.05915e-06 -0.00111143 -1.05925e-06
 9.80905e-07 -0.000323211 1.64142e-06
 1.17215e-06 -0.000567518 1.1722e-06
 1.17214e-06 -0.000567533 -1.17223e-06
 9.80892e-07 -0.00032324 -1.64145e-06
 -9.81031e-07 -0.000323216 1.64142e-06
 -1.17228e-06 -0.000567516 1.1722e-06
 -1.17228e-06 -0.000567526 -1.17222e-06
 -9.81047e-07 -0.000323232 -1.64145e-06
 -1.0593e-06 -0.00111143 1.05922e-06
 -1.6415e-06 -0.000323221 9.80955e-07
 -1.64151e-06 -0.000323228 -9.80978e-07
 -1.05931e-06 -0.00111143 -1.05924e-06
 -1.8064e-06 -0.000463901 -1.80638e-06
 -7.89217e-07 0.000542785 -1.97047e-07
 -7.89218e-07 0.000542779 1.97011e-07
 -1.80641e-06 -0.000463894 1.80634e-06
 -1.97073e-07 0.000542783 -7.89186e-07
 1.42801e-07 -0.000439694 1.4283e-07
 1.42798e-07 -0.000439679 -1.4286e-07
 -1.97081e-07 0.00054279 7.89157e-07
 1.96989e-07 0.00054279 -7.89186e-07
 -1.4289e-07 -0.000439696 1.42832e-07
 -1.42895e-07 -0.000439685 -1.42857e-07
 1.96974e-07 0.000542802 7.8916e-07
 1.80632e-06 -0.0004639 -1.80638e-06
 7.89126e-07 0.000542793 -1.97043e-07
 7.89119e-07 0.000542806 1.97019e-07
 1.8063e-06 -0.000463894 1.80635e-06
 -6.93198e-06 0.000754493 -6.93198e-06
 -4.79599e-06 -0.00107109 -3.71196e-06
 -4.79599e-06 -0.00107109 3.71196e-06
 -6.93198e-06 0.00075448 6.93193e-06
 -3.71197e-06 -0.00107109 -4.79597e-06
 -3.25676e-06 -0.000900421 -3.25677e-06
 -3.25676e-06 -0.000900421 3.25673e-06
 -3.71198e-06 -0.0010711 4.79596e-06
 3.71195e-06 -0.0010711 -4.79597e-06
 3.25673e-06 -0.000900421 -3.25676e-06
 3.25673e-06 -0.000900421 3.25674e-06
 3.71194e-06 -0.00107111 4.79596e-06
 6.93193e-06 0.000754492 -6.93197e-06
 4.79595e-06 -0.0010711 -3.71196e-06
 4.79594e-06 -0.00107111 3.71195e-06
 6.93193e-06 0.00075448 6.93194e-06
 -6.58646e-07 -0.000316052 -6.58658e-07
 -3.92372e-07 -0.00143933 1.83216e-06
 -3.92364e-07 -0.00143932 -1.83215e-06
 -6.58654e-07 -0.000316053 6.58636e-07
 1.83214e-06 -0.00143933 -3.92394e-07
 1.54987e-06 -0.00146911 1.5499e-06
 1.54986e-06 -0.00146911 -1.54989e-06
 1.83214e-06 -0.00143933 3.92376e-07
 -1.83215e-06 -0.00143933 -3.92393e-07
 -1.54988e-06 -0.00146911 1.5499e-06
 -1.54991e-06 -0.00146911 -1.54989e-06
 -1.83216e-06 -0.00143934 3.92378e-07
 6.5864e-07 -0.000316052 -6.58653e-07
 3.92364e-07 -0.00143933 1.83216e-06
 3.9238e-07 -0.00143934 -1.83214e-06
 6.58632e-07 -0.000316053 6.58637e-07
 -1.63869e-06 0.00182358 -1.63868e-06
 -1.62507e-06 0.000936732 -4.39869e-06
 -1.62508e-06 0.000936731 4.39869e-06
 -1.63869e-06 0.00182357 1.63869e-06
 -4.39869e-06 0.000936732 -1.6251e-06
 3.36099e-06 -0.00114765 3.36102e-06
 3.361e-06 -0.00114765 -3.36099e-06
 -4.39869e-06 0.000936739 1.62508e-06
 4.39869e-06 0.000936736 -1.62509e-06
 -3.361e-06 -0.00114765 3.36101e-06
 -3.361e-06 -0.00114765 -3.36099e-06
 4.39868e-06 0.000936744 1.62508e-06
 1.63869e-06 0.00182358 -1.63868e-06
 1.62508e-06 0.000936739 -4.39868e-06