<?xml version="1.0"?>
<VTKFile type="UnstructuredGrid" version="0.1" byte_order="LittleEndian" compressor="vtkZLibDataCompressor">
<UnstructuredGrid>
<Piece NumberOfPoints="960" NumberOfCells="120">
<Points>
<DataArray type="Float32" NumberOfComponents="3" format="ascii">
-4.000000e+02 -6.000000e+03 -4.000000e+02
0.000000e+00 -6.000000e+03 -4.000000e+02
-4.000000e+02 -5.600010e+03 -4.000000e+02
-1.375520e-10 -5.600010e+03 -4.000000e+02
-4.000000e+02 -6.000000e+03 0.000000e+00
0.000000e+00 -6.000000e+03 0.000000e+00
-4.000000e+02 -5.600010e+03 2.204730e-10
-6.068670e-11 -5.600010e+03 3.277740e-10
0.000000e+00 -6.000000e+03 -4.000000e+02
4.000000e+02 -6.000000e+03 -4.000000e+02
-1.375520e-10 -5.600010e+03 -4.000000e+02
4.000000e+02 -5.600010e+03 -4.000000e+02
0.000000e+00 -6.000000e+03 0.000000e+00
4.000000e+02 -6.000000e+03 0.000000e+00
-6.068670e-11 -5.600010e+03 3.277740e-10
4.000000e+02 -5.600010e+03 5.351010e-10
-4.000000e+02 -5.600010e+03 -4.000000e+02
-1.375520e-10 -5.600010e+03 -4.000000e+02
-4.000000e+02 -5.200050e+03 -4.000000e+02
-2.931930e-10 -5.200050e+03 -4.000000e+02
-4.000000e+02 -5.600010e+03 2.204730e-10
-6.068670e-11 -5.600010e+03 3.277740e-10
-4.000000e+02 -5.200050e+03 -3.824280e-10
-1.950400e-10 -5.200050e+03 1.313300e-10
-1.375520e-10 -5.600010e+03 -4.000000e+02
4.000000e+02 -5.600010e+03 -4.000000e+02
-2.931930e-10 -5.200050e+03 -4.000000e+02
4.000000e+02 -5.200050e+03 -4.000000e+02
-6.068670e-11 -5.600010e+03 3.277740e-10
4.000000e+02 -5.600010e+03 5.351010e-10
-1.950400e-10 -5.200050e+03 1.313300e-10
4.000000e+02 -5.200050e+03 3.150890e-10
-4.000000e+02 -5.200050e+03 -4.000000e+02
-2.931930e-10 -5.200050e+03 -4.000000e+02
-4.000000e+02 -4.800120e+03 -4.000000e+02
4.489300e-10 -4.800120e+03 -4.000000e+02
-4.000000e+02 -5.200050e+03 -3.824280e-10
-1.950400e-10 -5.200050e+03 1.313300e-10
-4.000000e+02 -4.800120e+03 1.163290e-11
6.235000e-11 -4.800120e+03 -6.913380e-11
-2.931930e-10 -5.200050e+03 -4.000000e+02
4.000000e+02 -5.200050e+03 -4.000000e+02
4.489300e-10 -4.800120e+03 -4.000000e+02
4.000000e+02 -4.800120e+03 -4.000000e+02
-1.950400e-10 -5.200050e+03 1.313300e-10
4.000000e+02 -5.200050e+03 3.150890e-10
6.235000e-11 -4.800120e+03 -6.913380e-11
4.000000e+02 -4.800120e+03 4.333540e-10
-4.000000e+02 -4.800120e+03 -4.000000e+02
4.489300e-10 -4.800120e+03 -4.000000e+02
-4.000000e+02 -4.400170e+03 -4.000000e+02
5.714350e-10 -4.400170e+03 -4.000000e+02
-4.000000e+02 -4.800120e+03 1.163290e-11
6.235000e-11 -4.800120e+03 -6.913380e-11
-4.000000e+02 -4.400170e+03 3.561670e-10
4.387410e-10 -4.400170e+03 2.070240e-10
4.489300e-10 -4.800120e+03 -4.000000e+02
4.000000e+02 -4.800120e+03 -4.000000e+02
5.714350e-10 -4.400170e+03 -4.000000e+02
4.000000e+02 -4.400170e+03 -4.000000e+02
6.235000e-11 -4.800120e+03 -6.913380e-11
4.000000e+02 -4.800120e+03 4.333540e-10
4.387410e-10 -4.400170e+03 2.070240e-10
4.000000e+02 -4.400170e+03 5.503630e-10
-4.000000e+02 -4.400170e+03 -4.000000e+02
5.714350e-10 -4.400170e+03 -4.000000e+02
-4.000000e+02 -4.000210e+03 -4.000000e+02
6.566600e-10 -4.000210e+03 -4.000000e+02
-4.000000e+02 -4.400170e+03 3.561670e-10
4.387410e-10 -4.400170e+03 2.070240e-10
-4.000000e+02 -4.000210e+03 2.094280e-10
5.760690e-10 -4.000210e+03 1.819930e-10
5.714350e-10 -4.400170e+03 -4.000000e+02
4.000000e+02 -4.400170e+03 -4.000000e+02
6.566600e-10 -4.000210e+03 -4.000000e+02
4.000000e+02 -4.000210e+03 -4.000000e+02
4.387410e-10 -4.400170e+03 2.070240e-10
4.000000e+02 -4.400170e+03 5.503630e-10
5.760690e-10 -4.000210e+03 1.819930e-10
4.000000e+02 -4.000210e+03 4.526830e-10
-4.000000e+02 -4.000210e+03 -4.000000e+02
6.566600e-10 -4.000210e+03 -4.000000e+02
-4.000000e+02 -3.600230e+03 -4.000000e+02
1.045200e-09 -3.600230e+03 -4.000000e+02
-4.000000e+02 -4.000210e+03 2.094280e-10
5.760690e-10 -4.000210e+03 1.819930e-10
-4.000000e+02 -3.600230e+03 2.515850e-10
4.659460e-10 -3.600230e+03 1.554040e-10
6.566600e-10 -4.000210e+03 -4.000000e+02
4.000000e+02 -4.000210e+03 -4.000000e+02
1.045200e-09 -3.600230e+03 -4.000000e+02
4.000000e+02 -3.600230e+03 -4.000000e+02
5.760690e-10 -4.000210e+03 1.819930e-10
4.000000e+02 -4.000210e+03 4.526830e-10
4.659460e-10 -3.600230e+03 1.554040e-10
4.000000e+02 -3.600230e+03 2.234570e-10
-4.000000e+02 -3.600230e+03 -4.000000e+02
1.045200e-09 -3.600230e+03 -4.000000e+02
-4.000000e+02 -3.200230e+03 -4.000000e+02
6.886680e-10 -3.200230e+03 -4.000000e+02
-4.000000e+02 -3.600230e+03 2.515850e-10
4.659460e-10 -3.600230e+03 1.554040e-10
-4.000000e+02 -3.200230e+03 1.670050e-10
2.740010e-10 -3.200230e+03 3.721820e-10
1.045200e-09 -3.600230e+03 -4.000000e+02
4.000000e+02 -3.600230e+03 -4.000000e+02
6.886680e-10 -3.200230e+03 -4.000000e+02
4.000000e+02 -3.200230e+03 -4.000000e+02
4.659460e-10 -3.600230e+03 1.554040e-10
4.000000e+02 -3.600230e+03 2.234570e-10
2.740010e-10 -3.200230e+03 3.721820e-10
4.000000e+02 -3.200230e+03 5.207660e-10
-4.000000e+02 -3.200230e+03 -4.000000e+02
6.886680e-10 -3.200230e+03 -4.000000e+02
-4.000000e+02 -2.800240e+03 -4.000000e+02
-1.621880e-10 -2.800240e+03 -4.000000e+02
-4.000000e+02 -3.200230e+03 1.670050e-10
2.740010e-10 -3.200230e+03 3.721820e-10
-4.000000e+02 -2.800240e+03 -1.124820e-10
-5.978280e-11 -2.800240e+03 3.821040e-10
6.886680e-10 -3.200230e+03 -4.000000e+02
4.000000e+02 -3.200230e+03 -4.000000e+02
-1.621880e-10 -2.800240e+03 -4.000000e+02
4.000000e+02 -2.800240e+03 -4.000000e+02
2.740010e-10 -3.200230e+03 3.721820e-10
4.000000e+02 -3.200230e+03 5.207660e-10
-5.978280e-11 -2.800240e+03 3.821040e-10
4.000000e+02 -2.800240e+03 5.355800e-10
-4.000000e+02 -2.800240e+03 -4.000000e+02
-1.621880e-10 -2.800240e+03 -4.000000e+02
-4.000000e+02 -2.400240e+03 -4.000000e+02
-1.915020e-10 -2.400240e+03 -4.000000e+02
-4.000000e+02 -2.800240e+03 -1.124820e-10
-5.978280e-11 -2.800240e+03 3.821040e-10
-4.000000e+02 -2.400240e+03 4.376040e-11
-1.427290e-10 -2.400240e+03 1.914560e-10
-1.621880e-10 -2.800240e+03 -4.000000e+02
4.000000e+02 -2.800240e+03 -4.000000e+02
-1.915020e-10 -2.400240e+03 -4.000000e+02
4.000000e+02 -2.400240e+03 -4.000000e+02
-5.978280e-11 -2.800240e+03 3.821040e-10
4.000000e+02 -2.800240e+03 5.355800e-10
-1.427290e-10 -2.400240e+03 1.914560e-10
4.000000e+02 -2.400240e+03 4.207020e-10
-4.000000e+02 -2.400240e+03 -4.000000e+02
-1.915020e-10 -2.400240e+03 -4.000000e+02
-4.000000e+02 -2.000240e+03 -4.000000e+02
4.206840e-10 -2.000240e+03 -4.000000e+02
-4.000000e+02 -2.400240e+03 4.376040e-11
-1.427290e-10 -2.400240e+03 1.914560e-10
-4.000000e+02 -2.000240e+03 -3.656240e-11
8.510710e-11 -2.000240e+03 6.655020e-11
-1.915020e-10 -2.400240e+03 -4.000000e+02
4.000000e+02 -2.400240e+03 -4.000000e+02
4.206840e-10 -2.000240e+03 -4.000000e+02
4.000000e+02 -2.000240e+03 -4.000000e+02
-1.427290e-10 -2.400240e+03 1.914560e-10
4.000000e+02 -2.400240e+03 4.207020e-10
8.510710e-11 -2.000240e+03 6.655020e-11
4.000000e+02 -2.000240e+03 3.022350e-10
-4.000000e+02 -2.000240e+03 -4.000000e+02
4.206840e-10 -2.000240e+03 -4.000000e+02
-4.000000e+02 -1.600240e+03 -4.000000e+02
1.670030e-10 -1.600240e+03 -4.000000e+02
-4.000000e+02 -2.000240e+03 -3.656240e-11
8.510710e-11 -2.000240e+03 6.655020e-11
-4.000000e+02 -1.600240e+03 -2.039480e-11
-4.980590e-12 -1.600240e+03 1.819920e-10
4.206840e-10 -2.000240e+03 -4.000000e+02
4.000000e+02 -2.000240e+03 -4.000000e+02
1.670030e-10 -1.600240e+03 -4.000000e+02
4.000000e+02 -1.600240e+03 -4.000000e+02
8.510710e-11 -2.000240e+03 6.655020e-11
4.000000e+02 -2.000240e+03 3.022350e-10
-4.980590e-12 -1.600240e+03 1.819920e-10
4.000000e+02 -1.600240e+03 2.310120e-10
-4.000000e+02 -1.600240e+03 -4.000000e+02
1.670030e-10 -1.600240e+03 -4.000000e+02
-4.000000e+02 -1.200240e+03 -4.000000e+02
1.426390e-10 -1.200240e+03 -4.000000e+02
-4.000000e+02 -1.600240e+03 -2.039480e-11
-4.980590e-12 -1.600240e+03 1.819920e-10
-4.000000e+02 -1.200240e+03 -1.492860e-11
4.636400e-11 -1.200250e+03 2.846690e-10
1.670030e-10 -1.600240e+03 -4.000000e+02
4.000000e+02 -1.600240e+03 -4.000000e+02
1.426390e-10 -1.200240e+03 -4.000000e+02
4.000000e+02 -1.200240e+03 -4.000000e+02
-4.980590e-12 -1.600240e+03 1.819920e-10
4.000000e+02 -1.600240e+03 2.310120e-10
4.636400e-11 -1.200250e+03 2.846690e-10
4.000000e+02 -1.200240e+03 3.799330e-10
-4.000000e+02 -1.200240e+03 -4.000000e+02
1.426390e-10 -1.200240e+03 -4.000000e+02
-4.000000e+02 -8.002460e+02 -4.000000e+02
4.955210e-10 -8.002460e+02 -4.000000e+02
-4.000000e+02 -1.200240e+03 -1.492860e-11
4.636400e-11 -1.200250e+03 2.846690e-10
-4.000000e+02 -8.002460e+02 1.558530e-10
2.269220e-10 -8.002460e+02 2.467310e-10
1.426390e-10 -1.200240e+03 -4.000000e+02
4.000000e+02 -1.200240e+03 -4.000000e+02
4.955210e-10 -8.002460e+02 -4.000000e+02
4.000000e+02 -8.002460e+02 -4.000000e+02
4.636400e-11 -1.200250e+03 2.846690e-10
4.000000e+02 -1.200240e+03 3.799330e-10
2.269220e-10 -8.002460e+02 2.467310e-10
4.000000e+02 -8.002460e+02 5.358110e-10
-4.000000e+02 -8.002460e+02 -4.000000e+02
4.955210e-10 -8.002460e+02 -4.000000e+02
-4.000000e+02 -4.002470e+02 -4.000000e+02
5.071580e-10 -4.002470e+02 -4.000000e+02
-4.000000e+02 -8.002460e+02 1.558530e-10
2.269220e-10 -8.002460e+02 2.467310e-10
-4.000000e+02 -4.002470e+02 8.227510e-11
2.793780e-10 -4.002470e+02 2.018770e-10
4.955210e-10 -8.002460e+02 -4.000000e+02
4.000000e+02 -8.002460e+02 -4.000000e+02
5.071580e-10 -4.002470e+02 -4.000000e+02
4.000000e+02 -4.002470e+02 -4.000000e+02
2.269220e-10 -8.002460e+02 2.467310e-10
4.000000e+02 -8.002460e+02 5.358110e-10
2.793780e-10 -4.002470e+02 2.018770e-10
4.000000e+02 -4.002470e+02 4.430370e-10
-4.000000e+02 -4.002470e+02 -4.000000e+02
5.071580e-10 -4.002470e+02 -4.000000e+02
-4.000000e+02 -2.480760e-01 -4.000000e+02
3.564270e-10 -2.480700e-01 -4.000000e+02
-4.000000e+02 -4.002470e+02 8.227510e-11
2.793780e-10 -4.002470e+02 2.018770e-10
-4.000000e+02 -2.480700e-01 -6.117140e-11
2.666220e-10 -2.480620e-01 1.022490e-10
5.071580e-10 -4.002470e+02 -4.000000e+02
4.000000e+02 -4.002470e+02 -4.000000e+02
3.564270e-10 -2.480700e-01 -4.000000e+02
4.000000e+02 -2.480760e-01 -4.000000e+02
2.793780e-10 -4.002470e+02 2.018770e-10
[...]
<PointData>
<DataArray type="Float32" Name="V1" format="ascii">
0.000000e+00
0.000000e+00
4.075190e-07
2.779980e-10
0.000000e+00
0.000000e+00
4.047140e-07
-3.170490e-10
0.000000e+00
0.000000e+00
2.779980e-10
-4.073380e-07
0.000000e+00
0.000000e+00
-3.170490e-10
-4.054450e-07
4.075190e-07
2.779980e-10
-1.833290e-06
-3.313350e-10
4.047140e-07
-3.170490e-10
-1.856830e-06
3.554680e-11
2.779980e-10
-4.073380e-07
-3.313350e-10
1.832900e-06
-3.170490e-10
-4.054450e-07
3.554680e-11
1.857160e-06
-1.833290e-06
-3.313350e-10
3.570230e-06
-2.967840e-10
-1.856830e-06
3.554680e-11
3.658400e-06
-8.348630e-11
-3.313350e-10
1.832900e-06
-2.967840e-10
-3.570720e-06
3.554680e-11
1.857160e-06
-8.348630e-11
-3.658300e-06
3.570230e-06
-2.967840e-10
-3.161580e-06
5.590160e-10
3.658400e-06
-8.348630e-11
-3.349470e-06
3.862670e-11
-2.967840e-10
-3.570720e-06
5.590160e-10
3.162110e-06
-8.348630e-11
-3.658300e-06
3.862670e-11
3.349670e-06
-3.161580e-06
5.590160e-10
-1.373050e-06
2.326370e-10
-3.349470e-06
3.862670e-11
-1.091740e-06
1.162400e-10
5.590160e-10
3.162110e-06
2.326370e-10
1.373300e-06
3.862670e-11
3.349670e-06
1.162400e-10
1.091780e-06
-1.373050e-06
2.326370e-10
7.816440e-06
-2.110550e-10
-1.091740e-06
1.162400e-10
7.543990e-06
5.226890e-11
2.326370e-10
1.373300e-06
-2.110550e-10
-7.816870e-06
1.162400e-10
1.091780e-06
5.226890e-11
-7.543720e-06
7.816440e-06
-2.110550e-10
-8.600590e-06
-5.805220e-11
7.543990e-06
5.226890e-11
-8.543960e-06
9.775520e-12
-2.110550e-10
-7.816870e-06
-5.805220e-11
8.601030e-06
5.226890e-11
-7.543720e-06
9.775520e-12
8.544270e-06
-8.600590e-06
-5.805220e-11
1.998470e-08
2.363660e-10
-8.543960e-06
9.775520e-12
4.022470e-07
1.087350e-10
-5.805220e-11
8.601030e-06
2.363660e-10
-1.990620e-08
9.775520e-12
8.544270e-06
1.087350e-10
-4.022470e-07
1.998470e-08
2.363660e-10
7.137730e-06
-1.547290e-11
4.022470e-07
1.087350e-10
6.266700e-06
-2.466890e-10
2.363660e-10
-1.990620e-08
-1.547290e-11
-7.137780e-06
1.087350e-10
-4.022470e-07
-2.466890e-10
-6.267130e-06
7.137730e-06
-1.547290e-11
-2.134190e-06
-3.812920e-11
6.266700e-06
-2.466890e-10
-1.027590e-06
-1.483320e-10
-1.547290e-11
-7.137780e-06
-3.812920e-11
2.134050e-06
-2.466890e-10
-6.267130e-06
-1.483320e-10
1.027430e-06
-2.134190e-06
-3.812920e-11
-3.537860e-06
1.249230e-10
-1.027590e-06
-1.483320e-10
-4.472240e-06
6.888250e-11
-3.812920e-11
2.134050e-06
1.249230e-10
3.538410e-06
-1.483320e-10
1.027430e-06
6.888250e-11
4.472330e-06
-3.537860e-06
1.249230e-10
-3.056810e-06
-8.156290e-11
-4.472240e-06
6.888250e-11
-2.689220e-06
2.655610e-10
1.249230e-10
3.538410e-06
-8.156290e-11
3.056840e-06
6.888250e-11
4.472330e-06
2.655610e-10
2.689800e-06
-3.056810e-06
-8.156290e-11
1.155900e-05
4.736180e-14
-2.689220e-06
2.655610e-10
1.254870e-05
-2.208960e-11
-8.156290e-11
3.056840e-06
4.736180e-14
-1.155870e-05
2.655610e-10
2.689800e-06
-2.208960e-11
-1.254880e-05
1.155900e-05
4.736180e-14
-4.211280e-06
1.301410e-10
1.254870e-05
-2.208960e-11
-6.405280e-06
-1.106170e-10
4.736180e-14
-1.155870e-05
1.301410e-10
4.211660e-06
-2.208960e-11
-1.254880e-05
-1.106170e-10
6.405190e-06
-4.211280e-06
1.301410e-10
-1.586110e-05
8.075900e-11
-6.405280e-06
-1.106170e-10
-1.632700e-05
5.981530e-11
1.301410e-10
4.211660e-06
8.075900e-11
1.586130e-05
-1.106170e-10
6.405190e-06
5.981530e-11
1.632690e-05
-1.586110e-05
8.075900e-11
1.070650e-05
9.200300e-11
-1.632700e-05
5.981530e-11
1.224470e-05
-2.343310e-10
8.075900e-11
1.586130e-05
9.200300e-11
-1.070650e-05
5.981530e-11
1.632690e-05
-2.343310e-10
-1.224480e-05
1.070650e-05
9.200300e-11
1.087790e-05
-1.666480e-10
1.224470e-05
-2.343310e-10
9.097210e-06
-3.771220e-11
9.200300e-11
-1.070650e-05
-1.666480e-10
-1.087840e-05
-2.343310e-10
-1.224480e-05
-3.771220e-11
-9.097450e-06
1.087790e-05
-1.666480e-10
-3.565390e-06
5.806370e-11
9.097210e-06
-3.771220e-11
-2.487610e-06
-1.335990e-10
-1.666480e-10
-1.087840e-05
5.806370e-11
3.564970e-06
-3.771220e-11
-9.097450e-06
-1.335990e-10
2.487850e-06
-3.565390e-06
5.806370e-11
9.482870e-06
1.966050e-11
-2.487610e-06
-1.335990e-10
1.053020e-05
-5.702480e-11
5.806370e-11
3.564970e-06
1.966050e-11
-9.482750e-06
-1.335990e-10
2.487850e-06
-5.702480e-11
-1.053030e-05
9.482870e-06
1.966050e-11
1.937490e-05
9.360270e-11
1.053020e-05
-5.702480e-11
1.899770e-05
-1.398300e-11
1.966050e-11
-9.482750e-06
9.360270e-11
-1.937480e-05
-5.702480e-11
-1.053030e-05
-1.398300e-11
-1.899770e-05
1.937490e-05
9.360270e-11
7.109740e-07
-4.103760e-11
1.899770e-05
-1.398300e-11
1.240650e-06
-8.549860e-11
9.360270e-11
-1.937480e-05
-4.103760e-11
-7.108090e-07
-1.398300e-11
-1.899770e-05
-8.549860e-11
-1.240450e-06
7.109740e-07
-4.103760e-11
-1.387640e-05
3.204630e-11
1.240650e-06
-8.549860e-11
-1.306800e-05
-1.080620e-11
-4.103760e-11
-7.108090e-07
3.204630e-11
1.387660e-05
-8.549860e-11
-1.240450e-06
-1.080620e-11
1.306820e-05
-1.387640e-05
3.204630e-11
-1.988170e-06
-1.029460e-11
-1.306800e-05
-1.080620e-11
-2.635990e-06
4.597360e-12
3.204630e-11
1.387660e-05
-1.029460e-11
1.988110e-06
-1.080620e-11
1.306820e-05
4.597360e-12
2.636070e-06
-1.988170e-06
-1.029460e-11
3.956040e-06
-7.434470e-11
-2.635990e-06
4.597360e-12
5.176750e-06
-4.524260e-11
-1.029460e-11
1.988110e-06
-7.434470e-11
-3.956200e-06
4.597360e-12
2.636070e-06
-4.524260e-11
-5.176820e-06
3.956040e-06
-7.434470e-11
-3.735280e-06
-2.520370e-11
5.176750e-06
-4.524260e-11
-3.872020e-06
-3.798640e-11
-7.434470e-11
-3.956200e-06
-2.520370e-11
3.735210e-06
-4.524260e-11
-5.176820e-06
-3.798640e-11
3.871920e-06
-3.735280e-06
-2.520370e-11
3.654200e-06
1.709430e-11
-3.872020e-06
-3.798640e-11
1.684900e-06
9.266630e-12
-2.520370e-11
3.735210e-06
1.709430e-11
-3.654160e-06
-3.798640e-11
3.871920e-06
9.266630e-12
-1.684880e-06
3.654200e-06
1.709430e-11
1.404450e-05
2.373750e-11
1.684900e-06
9.266630e-12
1.434970e-05
2.320310e-11
1.709430e-11
-3.654160e-06
2.373750e-11
-1.404450e-05
9.266630e-12
-1.684880e-06
2.320310e-11
-1.434970e-05
1.404450e-05
2.373750e-11
-7.670380e-06
-2.639840e-12
1.434970e-05
2.320310e-11
-7.111480e-06
-3.265700e-12
2.373750e-11
-1.404450e-05
-2.639840e-12
7.670370e-06
2.320310e-11
-1.434970e-05
-3.265700e-12
7.111480e-06
-7.670380e-06
-2.639840e-12
-1.792620e-05
3.413820e-12
-7.111480e-06
-3.265700e-12
-1.648580e-05
3.011440e-12
-2.639840e-12
7.670370e-06
3.413820e-12
1.792620e-05
-3.265700e-12
7.111480e-06
3.011440e-12
1.648580e-05
-1.792620e-05
3.413820e-12
1.630810e-05
2.350120e-12
-1.648580e-05
3.011440e-12
1.519020e-05
3.802730e-12
3.413820e-12
1.792620e-05
2.350120e-12
-1.630810e-05
3.011440e-12
1.648580e-05
3.802730e-12
-1.519020e-05
0.000000e+00
0.000000e+00
4.047140e-07
-3.170490e-10
0.000000e+00
0.000000e+00
4.077460e-07
3.853960e-10
0.000000e+00
0.000000e+00
-3.170490e-10
-4.054450e-07
0.000000e+00
0.000000e+00
3.853960e-10
-4.063720e-07
4.047140e-07
-3.170490e-10
-1.856830e-06
3.554680e-11
4.077460e-07
3.853960e-10
-1.832950e-06
1.084430e-10
-3.170490e-10
-4.054450e-07
3.554680e-11
1.857160e-06
3.853960e-10
-4.063720e-07
1.084430e-10
1.833030e-06
-1.856830e-06
3.554680e-11
3.658400e-06
-8.348630e-11
-1.832950e-06
1.084430e-10
3.570330e-06
-3.168060e-10
3.554680e-11
1.857160e-06
-8.348630e-11
-3.658300e-06
1.084430e-10
1.833030e-06
-3.168060e-10
-3.570740e-06
3.658400e-06
-8.348630e-11
-3.349470e-06
3.862670e-11
3.570330e-06
-3.168060e-10
-3.161680e-06
-1.995840e-11
-8.348630e-11
-3.658300e-06
3.862670e-11
3.349670e-06
-3.168060e-10
-3.570740e-06
-1.995840e-11
3.161460e-06
-3.349470e-06
3.862670e-11
-1.091740e-06
1.162400e-10
-3.161680e-06
-1.995840e-11
-1.372300e-06
2.341100e-10
3.862670e-11
3.349670e-06
1.162400e-10
1.091780e-06
-1.995840e-11
3.161460e-06
2.341100e-10
1.372760e-06
-1.091740e-06
1.162400e-10
7.543990e-06
5.226890e-11
-1.372300e-06
2.341100e-10
7.816950e-06
-7.271920e-11
1.162400e-10
1.091780e-06
5.226890e-11
-7.543720e-06
2.341100e-10
1.372760e-06
-7.271920e-11
-7.816920e-06
7.543990e-06
5.226890e-11
-8.543960e-06
9.775520e-12
7.816950e-06
-7.271920e-11
-8.601500e-06
-1.100990e-10
5.226890e-11
-7.543720e-06
9.775520e-12
8.544270e-06
-7.271920e-11
-7.816920e-06
-1.100990e-10
8.601460e-06
-8.543960e-06
9.775520e-12
4.022470e-07
1.087350e-10
-8.601500e-06
-1.100990e-10
2.000040e-08
1.350640e-10
9.775520e-12
8.544270e-06
1.087350e-10
-4.022470e-07
-1.100990e-10
8.601460e-06
1.350640e-10
-1.993760e-08
4.022470e-07
1.087350e-10
6.266700e-06
-2.466890e-10
2.000040e-08
1.350640e-10
7.137490e-06
-1.818780e-10
1.087350e-10
-4.022470e-07
-2.466890e-10
-6.267130e-06
1.350640e-10
-1.993760e-08
-1.818780e-10
-7.137700e-06
6.266700e-06
-2.466890e-10
-1.027590e-06
-1.483320e-10
7.137490e-06
-1.818780e-10
-2.134690e-06
-3.535080e-11
-2.466890e-10
-6.267130e-06
-1.483320e-10
1.027430e-06
-1.818780e-10
-7.137700e-06
-3.535080e-11
2.134780e-06
-1.027590e-06
-1.483320e-10
-4.472240e-06
6.888250e-11
-2.134690e-06
-3.535080e-11
-3.537930e-06
2.049390e-10
-1.483320e-10
1.027430e-06
6.888250e-11
4.472330e-06
-3.535080e-11
2.134780e-06
2.049390e-10
3.538060e-06
-4.472240e-06
6.888250e-11
-2.689220e-06
2.655610e-10
-3.537930e-06
2.049390e-10
-3.057580e-06
-3.008550e-10
6.888250e-11
4.472330e-06
2.655610e-10
2.689800e-06
2.049390e-10
3.538060e-06
-3.008550e-10
3.057250e-06
-2.689220e-06
2.655610e-10
1.254870e-05
-2.208960e-11
-3.057580e-06
-3.008550e-10
1.155850e-05
-2.364430e-10
2.655610e-10
2.689800e-06
-2.208960e-11
-1.254880e-05
-3.008550e-10
3.057250e-06
-2.364430e-10
-1.155870e-05
1.254870e-05
-2.208960e-11
-6.405280e-06
-1.106170e-10
1.155850e-05
-2.364430e-10
-4.211430e-06
5.187530e-11
-2.208960e-11
-1.254880e-05
-1.106170e-10
6.405190e-06
-2.364430e-10
-1.155870e-05
5.187530e-11
4.211650e-06
-6.405280e-06
-1.106170e-10
-1.632700e-05
5.981530e-11
-4.211430e-06
5.187530e-11
-1.586120e-05
2.079700e-12
-1.106170e-10
6.405190e-06
5.981530e-11
1.632690e-05
5.187530e-11
4.211650e-06
2.079700e-12
1.586160e-05
-1.632700e-05
5.981530e-11
1.224470e-05
-2.343310e-10
-1.586120e-05
2.079700e-12
1.070670e-05
2.068750e-10
5.981530e-11
1.632690e-05
-2.343310e-10
-1.224480e-05
2.079700e-12
1.586160e-05
2.068750e-10
-1.070640e-05
1.224470e-05
-2.343310e-10
9.097210e-06
-3.771220e-11
1.070670e-05
2.068750e-10
1.087800e-05
-1.401670e-10
-2.343310e-10
-1.224480e-05
-3.771220e-11
-9.097450e-06
2.068750e-10
-1.070640e-05
-1.401670e-10
-1.087820e-05
9.097210e-06
-3.771220e-11
-2.487610e-06
-1.335990e-10
1.087800e-05
-1.401670e-10
-3.564910e-06
1.263070e-10
-3.771220e-11
-9.097450e-06
-1.335990e-10
2.487850e-06
-1.401670e-10
-1.087820e-05
1.263070e-10
3.564990e-06
-2.487610e-06
-1.335990e-10
1.053020e-05
-5.702480e-11
-3.564910e-06
1.263070e-10
9.482690e-06
4.917810e-11
-1.335990e-10
2.487850e-06
-5.702480e-11
-1.053030e-05
1.263070e-10
3.564990e-06
4.917810e-11
-9.482790e-06
1.053020e-05
-5.702480e-11
1.899770e-05
-1.398300e-11
9.482690e-06
4.917810e-11
1.937480e-05
-1.020190e-10
-5.702480e-11
-1.053030e-05
-1.398300e-11
-1.899770e-05
4.917810e-11
-9.482790e-06
-1.020190e-10
-1.937490e-05
1.899770e-05
-1.398300e-11
1.240650e-06
-8.549860e-11
1.937480e-05
-1.020190e-10
7.110050e-07
-1.281460e-10
-1.398300e-11
-1.899770e-05
-8.549860e-11
-1.240450e-06
-1.020190e-10
-1.937490e-05
-1.281460e-10
-7.107380e-07
1.240650e-06
-8.549860e-11
-1.306800e-05
-1.080620e-11
7.110050e-07
-1.281460e-10
-1.387640e-05
-2.106280e-11
-8.549860e-11
-1.240450e-06
-1.080620e-11
1.306820e-05
-1.281460e-10
-7.107380e-07
-2.106280e-11
1.387660e-05
-1.306800e-05
-1.080620e-11
-2.635990e-06
4.597360e-12
-1.387640e-05
-2.106280e-11
-1.988130e-06
2.142200e-11
-1.080620e-11
1.306820e-05
4.597360e-12
2.636070e-06
-2.106280e-11
1.387660e-05
2.142200e-11
1.988200e-06
-2.635990e-06
4.597360e-12
5.176750e-06
-4.524260e-11
-1.988130e-06
2.142200e-11
3.956130e-06
-2.680610e-11
4.597360e-12
2.636070e-06
-4.524260e-11
-5.176820e-06
2.142200e-11
1.988200e-06
-2.680610e-11
-3.956160e-06
5.176750e-06
-4.524260e-11
-3.872020e-06
-3.798640e-11
3.956130e-06
-2.680610e-11
-3.735290e-06
-5.422160e-11
-4.524260e-11
-5.176820e-06
-3.798640e-11
3.871920e-06
-2.680610e-11
-3.956160e-06
-5.422160e-11
3.735180e-06
-3.872020e-06
-3.798640e-11
1.684900e-06
9.266630e-12
-3.735290e-06
-5.422160e-11
3.654160e-06
-1.933570e-12
-3.798640e-11
3.871920e-06
9.266630e-12
-1.684880e-06
-5.422160e-11
3.735180e-06
-1.933570e-12
-3.654170e-06
1.684900e-06
9.266630e-12
1.434970e-05
2.320310e-11
3.654160e-06
-1.933570e-12
1.404450e-05
2.309830e-11
9.266630e-12
-1.684880e-06
2.320310e-11
-1.434970e-05
-1.933570e-12
-3.654170e-06
2.309830e-11
-1.404440e-05
1.434970e-05
2.320310e-11
-7.111480e-06
-3.265700e-12
1.404450e-05
2.309830e-11
-7.670380e-06
-1.235200e-11
2.320310e-11
-1.434970e-05
-3.265700e-12
7.111480e-06
2.309830e-11
-1.404440e-05
-1.235200e-11
7.670380e-06
-7.111480e-06
-3.265700e-12
-1.648580e-05
3.011440e-12
-7.670380e-06
-1.235200e-11
-1.792620e-05
4.180120e-13
-3.265700e-12
7.111480e-06
3.011440e-12
1.648580e-05
-1.235200e-11
7.670380e-06
4.180120e-13
1.792620e-05
-1.648580e-05
3.011440e-12
1.519020e-05
3.802730e-12
-1.792620e-05
4.180120e-13
1.630810e-05
1.724170e-12
3.011440e-12
1.648580e-05
3.802730e-12
-1.519020e-05
4.180120e-13
1.792620e-05
1.724170e-12
-1.630810e-05
</DataArray>
<DataArray type="Float32" Name="V2" format="ascii">
0.000000e+00
0.000000e+00
-4.036470e-02
-4.036400e-02
0.000000e+00
0.000000e+00
-4.036400e-02
-4.036330e-02
0.000000e+00
0.000000e+00
-4.036400e-02
-4.036470e-02
0.000000e+00
0.000000e+00
-4.036330e-02
-4.036400e-02
-4.036470e-02
-4.036400e-02
-4.855680e-02
-4.855630e-02
-4.036400e-02
-4.036330e-02
-4.855630e-02
-4.855600e-02
-4.036400e-02
-4.036470e-02
-4.855630e-02
-4.855680e-02
-4.036330e-02
-4.036400e-02
-4.855600e-02
-4.855630e-02
-4.855680e-02
-4.855630e-02
-4.002600e-02
-4.002710e-02
-4.855630e-02
-4.855600e-02
-4.002710e-02
-4.002790e-02
-4.855630e-02
-4.855680e-02
-4.002710e-02
-4.002600e-02
-4.855600e-02
-4.855630e-02
-4.002790e-02
-4.002710e-02
-4.002600e-02
-4.002710e-02
-2.976310e-02
-2.976310e-02
-4.002710e-02
-4.002790e-02
-2.976310e-02
-2.976340e-02
-4.002710e-02
-4.002600e-02
-2.976310e-02
-2.976310e-02
-4.002790e-02
-4.002710e-02
-2.976340e-02
-2.976310e-02
-2.976310e-02
-2.976310e-02
-1.809230e-02
-1.808860e-02
-2.976310e-02
-2.976340e-02
-1.808860e-02
-1.808480e-02
-2.976310e-02
-2.976310e-02
-1.808860e-02
-1.809230e-02
-2.976340e-02
-2.976310e-02
-1.808480e-02
-1.808860e-02
-1.809230e-02
-1.808860e-02
-8.265020e-03
-8.270060e-03
-1.808860e-02
-1.808480e-02
-8.270060e-03
-8.274610e-03
-1.808860e-02
-1.809230e-02
-8.270060e-03
-8.265020e-03
-1.808480e-02
-1.808860e-02
-8.274610e-03
-8.270060e-03
-8.265020e-03
-8.270060e-03
-3.391920e-03
-3.394100e-03
-8.270060e-03
-8.274610e-03
-3.394100e-03
-3.397470e-03
-8.270060e-03
-8.265020e-03
-3.394100e-03
-3.391930e-03
-8.274610e-03
-8.270060e-03
-3.397470e-03
-3.394100e-03
-3.391920e-03
-3.394100e-03
-2.038330e-03
-2.027810e-03
-3.394100e-03
-3.397470e-03
-2.027810e-03
-2.015770e-03
-3.394100e-03
-3.391930e-03
-2.027810e-03
-2.038330e-03
-3.397470e-03
-3.394100e-03
-2.015770e-03
-2.027810e-03
-2.038330e-03
-2.027810e-03
-1.323500e-03
-1.332230e-03
-2.027810e-03
-2.015770e-03
-1.332230e-03
-1.341680e-03
-2.027810e-03
-2.038330e-03
-1.332230e-03
-1.323500e-03
-2.015770e-03
-2.027810e-03
-1.341680e-03
-1.332230e-03
-1.323500e-03
-1.332230e-03
-1.083470e-03
-1.074610e-03
-1.332230e-03
-1.341680e-03
-1.074610e-03
-1.067160e-03
-1.332230e-03
-1.323500e-03
-1.074610e-03
-1.083470e-03
-1.341680e-03
-1.332230e-03
-1.067160e-03
-1.074610e-03
-1.083470e-03
-1.074610e-03
-9.284940e-04
-9.358790e-04
-1.074610e-03
-1.067160e-03
-9.358790e-04
-9.401500e-04
-1.074610e-03
-1.083470e-03
-9.358790e-04
-9.284930e-04
-1.067160e-03
-1.074610e-03
-9.401500e-04
-9.358780e-04
-9.284940e-04
-9.358790e-04
-1.023230e-03
-1.041250e-03
-9.358790e-04
-9.401500e-04
-1.041250e-03
-1.060270e-03
-9.358790e-04
-9.284930e-04
-1.041250e-03
-1.023230e-03
-9.401500e-04
-9.358780e-04
-1.060270e-03
-1.041250e-03
-1.023230e-03
-1.041250e-03
-7.211500e-04
-7.016570e-04
-1.041250e-03
-1.060270e-03
-7.016570e-04
-6.866270e-04
-1.041250e-03
-1.023230e-03
-7.016570e-04
-7.211500e-04
-1.060270e-03
-1.041250e-03
-6.866270e-04
-7.016570e-04
-7.211500e-04
-7.016570e-04
-5.899100e-04
-5.851900e-04
-7.016570e-04
-6.866270e-04
-5.851900e-04
-5.765810e-04
-7.016570e-04
-7.211500e-04
-5.851900e-04
-5.899080e-04
-6.866270e-04
-7.016570e-04
-5.765810e-04
-5.851890e-04
-5.899100e-04
-5.851900e-04
-5.923270e-04
-5.893820e-04
-5.851900e-04
-5.765810e-04
-5.893820e-04
-5.853030e-04
-5.851900e-04
-5.899080e-04
-5.893820e-04
-5.923290e-04
-5.765810e-04
-5.851890e-04
-5.853030e-04
-5.893820e-04
-5.923270e-04
-5.893820e-04
-3.798570e-04
-3.904700e-04
-5.893820e-04
-5.853030e-04
-3.904690e-04
-4.046130e-04
-5.893820e-04
-5.923290e-04
-3.904700e-04
-3.798580e-04
-5.853030e-04
-5.893820e-04
-4.046130e-04
-3.904690e-04
-3.798570e-04
-3.904700e-04
-4.215600e-04
-4.009590e-04
-3.904690e-04
-4.046130e-04
-4.009590e-04
-3.745640e-04
-3.904700e-04
-3.798580e-04
-4.009590e-04
-4.215600e-04
-4.046130e-04
-3.904690e-04
-3.745640e-04
-4.009580e-04
-4.215600e-04
-4.009590e-04
-3.936320e-04
-3.966810e-04
-4.009590e-04
-3.745640e-04
-3.966820e-04
-4.002690e-04
-4.009590e-04
-4.215600e-04
-3.966810e-04
-3.936320e-04
-3.745640e-04
-4.009580e-04
-4.002690e-04
-3.966820e-04
-3.936320e-04
-3.966810e-04
-4.241870e-04
-4.436740e-04
-3.966820e-04
-4.002690e-04
-4.436740e-04
-4.601940e-04
-3.966810e-04
-3.936320e-04
-4.436740e-04
-4.241870e-04
-4.002690e-04
-3.966820e-04
-4.601940e-04
-4.436740e-04
-4.241870e-04
-4.436740e-04
-5.474190e-04
-5.153830e-04
-4.436740e-04
-4.601940e-04
-5.153830e-04
-4.950820e-04
-4.436740e-04
-4.241870e-04
-5.153830e-04
-5.474180e-04
-4.601940e-04
-4.436740e-04
-4.950820e-04
-5.153830e-04
-5.474190e-04
-5.153830e-04
-6.436000e-04
-5.898470e-04
-5.153830e-04
-4.950820e-04
-5.898480e-04
-5.538570e-04
-5.153830e-04
-5.474180e-04
-5.898470e-04
-6.436000e-04
-4.950820e-04
-5.153830e-04
-5.538570e-04
-5.898470e-04
-6.436000e-04
-5.898470e-04
-5.451990e-04
-5.573830e-04
-5.898480e-04
-5.538570e-04
-5.573830e-04
-5.574790e-04
-5.898470e-04
-6.436000e-04
-5.573830e-04
-5.451990e-04
-5.538570e-04
-5.898470e-04
-5.574790e-04
-5.573830e-04
-5.451990e-04
-5.573830e-04
-4.388270e-04
-4.424130e-04
-5.573830e-04
-5.574790e-04
-4.424120e-04
-4.547110e-04
-5.573830e-04
-5.451990e-04
-4.424130e-04
-4.388270e-04
-5.574790e-04
-5.573830e-04
-4.547110e-04
-4.424130e-04
-4.388270e-04
-4.424130e-04
-5.058820e-04
-5.030530e-04
-4.424120e-04
-4.547110e-04
-5.030520e-04
-4.958450e-04
-4.424130e-04
-4.388270e-04
-5.030530e-04
-5.058820e-04
-4.547110e-04
-4.424130e-04
-4.958450e-04
-5.030520e-04
-5.058820e-04
-5.030530e-04
-6.875430e-04
-7.124520e-04
-5.030520e-04
-4.958450e-04
-7.124520e-04
-6.997280e-04
-5.030530e-04
-5.058820e-04
-7.124520e-04
-6.875430e-04
-4.958450e-04
-5.030520e-04
-6.997280e-04
-7.124520e-04
-6.875430e-04
-7.124520e-04
-5.374160e-04
-5.899220e-04
-7.124520e-04
-6.997280e-04
-5.899220e-04
-6.570460e-04
-7.124520e-04
-6.875430e-04
-5.899220e-04
-5.374170e-04
-6.997280e-04
-7.124520e-04
-6.570460e-04
-5.899220e-04
-5.374160e-04
-5.899220e-04
-4.097100e-04
-4.051880e-04
-5.899220e-04
-6.570460e-04
-4.051890e-04
-4.419510e-04
-5.899220e-04
-5.374170e-04
-4.051880e-04
-4.097100e-04
-6.570460e-04
-5.899220e-04
-4.419510e-04
-4.051890e-04
-4.097100e-04
-4.051880e-04
-6.332630e-04
-5.746550e-04
-4.051890e-04
-4.419510e-04
-5.746550e-04
-4.928670e-04
-4.051880e-04
-4.097100e-04
-5.746550e-04
-6.332630e-04
-4.419510e-04
-4.051890e-04
-4.928670e-04
-5.746550e-04
-6.332630e-04
-5.746550e-04
-3.657480e-04
-3.246850e-04
-5.746550e-04
-4.928670e-04
-3.246850e-04
-2.888180e-04
-5.746550e-04
-6.332630e-04
-3.246850e-04
-3.657480e-04
-4.928670e-04
-5.746550e-04
-2.888180e-04
-3.246850e-04
-3.657480e-04
-3.246850e-04
-8.547020e-05
-1.322800e-04
-3.246850e-04
-2.888180e-04
-1.322800e-04
-1.747920e-04
-3.246850e-04
-3.657480e-04
-1.322800e-04
-8.547020e-05
-2.888180e-04
-3.246850e-04
-1.747920e-04
-1.322810e-04
0.000000e+00
0.000000e+00
-4.036400e-02
-4.036330e-02
0.000000e+00
0.000000e+00
-4.036470e-02
-4.036400e-02
0.000000e+00
0.000000e+00
-4.036330e-02
-4.036400e-02
0.000000e+00
0.000000e+00