<?xml version="1.0"?>
<!-- time 87.2035-->
<VTKFile type="UnstructuredGrid" version="0.1" byte_order="LittleEndian">
<UnstructuredGrid>
<Piece NumberOfPoints="960" NumberOfCells="0">
<Points>
  <DataArray type="Float32" Name="Position" NumberOfComponents="3" format="ascii">
	-300 2099.64 -300
	-300 2099.65 -100
	-300 2099.65 100
	-300 2099.64 300
	-100 2099.65 -300
	-100 2099.52 -100
	-100 2099.52 100
	-100 2099.65 300
	100 2099.65 -300
	100 2099.52 -100
	100 2099.52 100
	100 2099.65 300
	300 2099.64 -300
	300 2099.65 -100
	300 2099.65 100
	300 2099.64 300
	-300 2299.68 -300
	-300 2299.66 -100
	-300 2299.66 100
	-300 2299.68 300
	-100 2299.66 -300
	-100 2299.52 -100
	-100 2299.52 100
	-100 2299.66 300
	100 2299.66 -300
	100 2299.52 -100
	100 2299.52 100
	100 2299.66 300
	300 2299.68 -300
	300 2299.66 -100
	300 2299.66 100
	300 2299.68 300
	-300 2499.67 -300
	-300 2499.66 -100
	-300 2499.66 100
	-300 2499.67 300
	-100 2499.66 -300
	-100 2499.62 -100
	-100 2499.62 100
	-100 2499.66 300
	100 2499.66 -300
	100 2499.62 -100
	100 2499.62 100
	100 2499.66 300
	300 2499.67 -300
	300 2499.66 -100
	300 2499.66 100
	300 2499.67 300
	-300 2699.68 -300
	-300 2699.67 -100
	-300 2699.67 100
	-300 2699.68 300
	-100 2699.67 -300
	-100 2699.63 -100
	-100 2699.63 100
	-100 2699.67 300
	100 2699.67 -300
	100 2699.63 -100
	100 2699.63 100
	100 2699.67 300
	300 2699.68 -300
	300 2699.67 -100
	300 2699.67 100
	300 2699.68 300
	-300 2899.68 -300
	-300 2899.67 -100
	-300 2899.67 100
	-300 2899.68 300
	-100 2899.67 -300
	-100 2899.64 -100
	-100 2899.64 100
	-100 2899.67 300
	100 2899.67 -300
	100 2899.64 -100
	100 2899.64 100
	100 2899.67 300
	300 2899.68 -300
	300 2899.67 -100
	300 2899.67 100
	300 2899.68 300
	-300 3099.68 -300
	-300 3099.66 -100
	-300 3099.66 100
	-300 3099.68 300
	-100 3099.66 -300
	-100 3099.64 -100
	-100 3099.64 100
	-100 3099.66 300
	100 3099.66 -300
	100 3099.64 -100
	100 3099.64 100
	100 3099.66 300
	300 3099.68 -300
	300 3099.66 -100
	300 3099.66 100
	300 3099.68 300
	-300 3299.68 -300
	-300 3299.66 -100
	-300 3299.66 100
	-300 3299.68 300
	-100 3299.66 -300
	-100 3299.64 -100
	-100 3299.64 100
	-100 3299.66 300
	100 3299.66 -300
	100 3299.64 -100
	100 3299.64 100
	100 3299.66 300
	300 3299.68 -300
	300 3299.66 -100
	300 3299.66 100
	300 3299.68 300
	-300 3499.68 -300
	-300 3499.67 -100
	-300 3499.67 100
	-300 3499.68 300
	-100 3499.67 -300
	-100 3499.64 -100
	-100 3499.64 100
	-100 3499.67 300
	100 3499.67 -300
	100 3499.64 -100
	100 3499.64 100
	100 3499.67 300
	300 3499.68 -300
	300 3499.67 -100
	300 3499.67 100
	300 3499.68 300
	-300 3699.68 -300
	-300 3699.67 -100
	-300 3699.67 100
	-300 3699.68 300
	-100 3699.67 -300
	-100 3699.64 -100
	-100 3699.64 100
	-100 3699.67 300
	100 3699.67 -300
	100 3699.64 -100
	100 3699.64 100
	100 3699.67 300
	300 3699.68 -300
	300 3699.67 -100
	300 3699.67 100
	300 3699.68 300
	-300 3899.68 -300
	-300 3899.67 -100
	-300 3899.67 100
	-300 3899.68 300
	-100 3899.67 -300
	-100 3899.64 -100
	-100 3899.64 100
	-100 3899.67 300
	100 3899.67 -300
	100 3899.64 -100
	100 3899.64 100
	100 3899.67 300
	300 3899.68 -300
	300 3899.67 -100
	300 3899.67 100
	300 3899.68 300
	-300 4099.68 -300
	-300 4099.67 -100
	-300 4099.67 100
	-300 4099.68 300
	-100 4099.67 -300
	-100 4099.64 -100
	-100 4099.64 100
	-100 4099.67 300
	100 4099.67 -300
	100 4099.64 -100
	100 4099.64 100
	100 4099.67 300
	300 4099.68 -300
	300 4099.67 -100
	300 4099.67 100
	300 4099.68 300
	-300 4299.69 -300
	-300 4299.67 -100
	-300 4299.67 100
	-300 4299.69 300
	-100 4299.67 -300
	-100 4299.64 -100
	-100 4299.64 100
	-100 4299.67 300
	100 4299.67 -300
	100 4299.64 -100
	100 4299.64 100
	100 4299.67 300
	300 4299.69 -300
	300 4299.67 -100
	300 4299.67 100
	300 4299.69 300
	-300 4499.69 -300
	-300 4499.67 -100
	-300 4499.67 100
	-300 4499.69 300
	-100 4499.67 -300
	-100 4499.64 -100
	-100 4499.64 100
	-100 4499.67 300
	100 4499.67 -300
	100 4499.64 -100
	100 4499.64 100
	100 4499.67 300
	300 4499.69 -300
	300 4499.67 -100
	300 4499.67 100
	300 4499.69 300
	-300 4699.7 -300
	-300 4699.67 -100
	-300 4699.67 100
	-300 4699.7 300
	-100 4699.67 -300
	-100 4699.64 -100
	-100 4699.64 100
	-100 4699.67 300
	100 4699.67 -300
	100 4699.64 -100
	100 4699.64 100
	100 4699.67 300
	300 4699.7 -300
	300 4699.67 -100
	300 4699.67 100
	300 4699.7 300
	-300 4899.7 -300
	-300 4899.67 -100
	-300 4899.67 100
	-300 4899.7 300
	-100 4899.67 -300
	-100 4899.65 -100
	-100 4899.65 100
	-100 4899.67 300
	100 4899.67 -300
	100 4899.65 -100
	100 4899.65 100
	100 4899.67 300
	300 4899.7 -300
	300 4899.67 -100
	300 4899.67 100
	300 4899.7 300
	-300 5099.7 -300
	-300 5099.67 -100
	-300 5099.67 100
	-300 5099.7 300
	-100 5099.67 -300
	-100 5099.66 -100
	-100 5099.66 100
	-100 5099.67 300
	100 5099.67 -300
	100 5099.66 -100
	100 5099.66 100
	100 5099.67 300
	300 5099.7 -300
	300 5099.67 -100
	300 5099.67 100
	300 5099.7 300
	-300 5299.7 -300
	-300 5299.68 -100
	-300 5299.68 100
	-300 5299.7 300
	-100 5299.68 -300
	-100 5299.67 -100
	-100 5299.67 100
	-100 5299.68 300
	100 5299.68 -300
	100 5299.67 -100
	100 5299.67 100
	100 5299.68 300
	300 5299.7 -300
	300 5299.68 -100
	300 5299.68 100
	300 5299.7 300
	-300 5499.7 -300
	-300 5499.68 -100
	-300 5499.68 100
	-300 5499.7 300
	-100 5499.68 -300
	-100 5499.67 -100
	-100 5499.67 100
	-100 5499.68 300
	100 5499.68 -300
	100 5499.67 -100
	100 5499.67 100
	100 5499.68 300
	300 5499.7 -300
	300 5499.68 -100
	300 5499.68 100
	300 5499.7 300
	-300 5699.71 -300
	-300 5699.68 -100
	-300 5699.68 100
	-300 5699.71 300
	-100 5699.68 -300
	-100 5699.67 -100
	-100 5699.67 100
	-100 5699.68 300
	100 5699.68 -300
	100 5699.67 -100
	100 5699.67 100
	100 5699.68 300
	300 5699.71 -300
	300 5699.68 -100
	300 5699.68 100
	300 5699.71 300
	-300 5899.7 -300
	-300 5899.68 -100
	-300 5899.68 100
	-300 5899.7 300
	-100 5899.68 -300
	-100 5899.68 -100
	-100 5899.68 100
	-100 5899.68 300
	100 5899.68 -300
	100 5899.68 -100
	100 5899.68 100
	100 5899.68 300
	300 5899.7 -300
	300 5899.68 -100
	300 5899.68 100
	300 5899.7 300
	-300 6099.71 -300
	-300 6099.7 -100
	-300 6099.7 100
	-300 6099.71 300
	-100 6099.7 -300
	-100 6099.68 -100
	-100 6099.68 100
	-100 6099.7 300
	100 6099.7 -300
	100 6099.68 -100
	100 6099.68 100
	100 6099.7 300
	300 6099.71 -300
	300 6099.7 -100
	300 6099.7 100
	300 6099.71 300
	-300 6299.72 -300
	-300 6299.7 -100
	-300 6299.7 100
	-300 6299.72 300
	-100 6299.7 -300
	-100 6299.69 -100
	-100 6299.69 100
	-100 6299.7 300
	100 6299.7 -300
	100 6299.69 -100
	100 6299.69 100
	100 6299.7 300
	300 6299.72 -300
	300 6299.7 -100
	300 6299.7 100
	300 6299.72 300
	-300 6499.79 -300
	-300 6499.71 -100
	-300 6499.71 100
	-300 6499.79 300
	-100 6499.71 -300
	-100 6499.69 -100
	-100 6499.69 100
	-100 6499.71 300
	100 6499.71 -300
	100 6499.69 -100
	100 6499.69 100
	100 6499.71 300
	300 6499.79 -300
	300 6499.71 -100
	300 6499.71 100
	300 6499.79 300
	-300 6699.85 -300
	-300 6699.85 -100
	-300 6699.85 100
	-300 6699.85 300
	-100 6699.85 -300
	-100 6699.85 -100
	-100 6699.85 100
	-100 6699.85 300
	100 6699.85 -300
	100 6699.85 -100
	100 6699.85 100
	100 6699.85 300
	300 6699.85 -300
	300 6699.85 -100
	300 6699.85 100
	300 6699.85 300
	-300 6899.85 -300
	-300 6899.85 -100
	-300 6899.85 100
	-300 6899.85 300
	-100 6899.85 -300
	-100 6899.85 -100
	-100 6899.85 100
	-100 6899.85 300
	100 6899.85 -300
	100 6899.85 -100
	100 6899.85 100
	100 6899.85 300
	300 6899.85 -300
	300 6899.85 -100
	300 6899.85 100
	300 6899.85 300
	-300 7099.85 -300
	-300 7099.85 -100
	-300 7099.85 100
	-300 7099.85 300
	-100 7099.85 -300
	-100 7099.85 -100
	-100 7099.85 100
	-100 7099.85 300
	100 7099.85 -300
	100 7099.85 -100
	100 7099.85 100
	100 7099.85 300
	300 7099.85 -300
	300 7099.85 -100
	300 7099.85 100
	300 7099.85 300
	-300 7299.86 -300
	-300 7299.86 -100
	-300 7299.86 100
	-300 7299.86 300
	-100 7299.86 -300
	-100 7299.86 -100
	-100 7299.86 100
	-100 7299.86 300
	100 7299.86 -300
	100 7299.86 -100
	100 7299.86 100
	100 7299.86 300
	300 7299.86 -300
	300 7299.86 -100
	300 7299.86 100
	300 7299.86 300
	-300 7499.86 -300
	-300 7499.86 -100
	-300 7499.86 100
	-300 7499.86 300
	-100 7499.86 -300
	-100 7499.86 -100
	-100 7499.86 100
	-100 7499.86 300
	100 7499.86 -300
	100 7499.86 -100
	100 7499.86 100
	100 7499.86 300
	300 7499.86 -300
	300 7499.86 -100
	300 7499.86 100
	300 7499.86 300
	-300 7699.87 -300
	-300 7699.87 -100
	-300 7699.87 100
	-300 7699.87 300
	-100 7699.87 -300
	-100 7699.87 -100
	-100 7699.87 100
	-100 7699.87 300
	100 7699.87 -300
	100 7699.87 -100
	100 7699.87 100
	100 7699.87 300
	300 7699.87 -300
	300 7699.87 -100
	300 7699.87 100
	300 7699.87 300
	-300 7899.87 -300
	-300 7899.87 -100
	-300 7899.87 100
	-300 7899.87 300
	-100 7899.87 -300
	-100 7899.87 -100
	-100 7899.87 100
	-100 7899.87 300
	100 7899.87 -300
	100 7899.87 -100
	100 7899.87 100
	100 7899.87 300
	300 7899.87 -300
	300 7899.87 -100
	300 7899.87 100
	300 7899.87 300
	-300 8099.88 -300
	-300 8099.88 -100
	-300 8099.88 100
	-300 8099.88 300
	-100 8099.88 -300
	-100 8099.87 -100
	-100 8099.87 100
	-100 8099.88 300
	100 8099.88 -300
	100 8099.87 -100
	100 8099.87 100
	100 8099.88 300
	300 8099.88 -300
	300 8099.88 -100
	300 8099.88 100
	300 8099.88 300
	-300 8299.88 -300
	-300 8299.88 -100
	-300 8299.88 100
	-300 8299.88 300
	-100 8299.88 -300
	-100 8299.88 -100
	-100 8299.88 100
	-100 8299.88 300
	100 8299.88 -300
	100 8299.88 -100
	100 8299.88 100
	100 8299.88 300
	300 8299.88 -300
	300 8299.88 -100
	300 8299.88 100
	300 8299.88 300
	-300 8499.89 -300
	-300 8499.89 -100
	-300 8499.89 100
	-300 8499.89 300
	-100 8499.89 -300
	-100 8499.89 -100
	-100 8499.89 100
	-100 8499.89 300
	100 8499.89 -300
	100 8499.89 -100
	100 8499.89 100
	100 8499.89 300
	300 8499.89 -300
	300 8499.89 -100
	300 8499.89 100
	300 8499.89 300
	-300 8699.89 -300
	-300 8699.89 -100
	-300 8699.89 100
	-300 8699.89 300
	-100 8699.89 -300
	-100 8699.89 -100
	-100 8699.89 100
	-100 8699.89 300
	100 8699.89 -300
	100 8699.89 -100
	100 8699.89 100
	100 8699.89 300
	300 8699.89 -300
	300 8699.89 -100
	300 8699.89 100
	300 8699.89 300
	-300 8899.9 -300
	-300 8899.9 -100
	-300 8899.9 100
	-300 8899.9 300
	-100 8899.9 -300
	-100 8899.89 -100
	-100 8899.89 100
	-100 8899.9 300
	100 8899.9 -300
	100 8899.89 -100
	100 8899.89 100
	100 8899.9 300
	300 8899.9 -300
	300 8899.9 -100
	300 8899.9 100
	300 8899.9 300
	-300 9099.91 -300
	-300 9099.9 -100
	-300 9099.9 100
	-300 9099.91 300
	-100 9099.9 -300
	-100 9099.9 -100
	-100 9099.9 100
	-100 9099.9 300
	100 9099.9 -300
	100 9099.9 -100
	100 9099.9 100
	100 9099.9 300
	300 9099.91 -300
	300 9099.9 -100
	300 9099.9 100
	300 9099.91 300
	-300 9299.91 -300
	-300 9299.91 -100
	-300 9299.91 100
	-300 9299.91 300
	-100 9299.91 -300
	-100 9299.9 -100
	-100 9299.9 100
	-100 9299.91 300
	100 9299.91 -300
	100 9299.9 -100
	100 9299.9 100
	100 9299.91 300
	300 9299.91 -300
	300 9299.91 -100
	300 9299.91 100
	300 9299.91 300
	-300 9499.92 -300
	-300 9499.91 -100
	-300 9499.91 100
	-300 9499.92 300
	-100 9499.91 -300
	-100 9499.91 -100
	-100 9499.91 100
	-100 9499.91 300
	100 9499.91 -300
	100 9499.91 -100
	100 9499.91 100
	100 9499.91 300
	300 9499.92 -300
	300 9499.91 -100
	300 9499.91 100
	300 9499.92 300
	-300 9699.92 -300
	-300 9699.92 -100
	-300 9699.92 100
	-300 9699.92 300
	-100 9699.92 -300
	-100 9699.92 -100
	-100 9699.92 100
	-100 9699.92 300
	100 9699.92 -300
	100 9699.92 -100
	100 9699.92 100
	100 9699.92 300
	300 9699.92 -300
	300 9699.92 -100
	300 9699.92 100
	300 9699.92 300
	-300 9899.93 -300
	-300 9899.93 -100
	-300 9899.93 100
	-300 9899.93 300
	-100 9899.93 -300
	-100 9899.93 -100
	-100 9899.93 100
	-100 9899.93 300
	100 9899.93 -300
	100 9899.93 -100
	100 9899.93 100
	100 9899.93 300
	300 9899.93 -300
	300 9899.93 -100
	300 9899.93 100
	300 9899.93 300
	-300 10099.9 -300
	-300 10099.9 -100
	-300 10099.9 100
	-300 10099.9 300
	-100 10099.9 -300
	-100 10099.9 -100
	-100 10099.9 100
	-100 10099.9 300
	100 10099.9 -300
	100 10099.9 -100
	100 10099.9 100
	100 10099.9 300
	300 10099.9 -300
	300 10099.9 -100
	300 10099.9 100
	300 10099.9 300
	-300 10299.9 -300
	-300 10299.9 -100
	-300 10299.9 100
	-300 10299.9 300
	-100 10299.9 -300
	-100 10299.9 -100
	-100 10299.9 100
	-100 10299.9 300
	100 10299.9 -300
	100 10299.9 -100
	100 10299.9 100
	100 10299.9 300
	300 10299.9 -300
	300 10299.9 -100
	300 10299.9 100
	300 10299.9 300
	-300 10500 -300
	-300 10500 -100
	-300 10500 100
	-300 10500 300
	-100 10500 -300
	-100 10500 -100
	-100 10500 100
	-100 10500 300
	100 10500 -300
	100 10500 -100
	100 10500 100
	100 10500 300
	300 10500 -300
	300 10500 -100
	300 10500 100
	300 10500 300
	-300 10700 -300
	-300 10700 -100
	-300 10700 100
	-300 10700 300
	-100 10700 -300
	-100 10700 -100
	-100 10700 100
	-100 10700 300
	100 10700 -300
	100 10700 -100
	100 10700 100
	100 10700 300
	300 10700 -300
	300 10700 -100
	300 10700 100
	300 10700 300
	-300 10900 -300
	-300 10900 -100
	-300 10900 100
	-300 10900 300
	-100 10900 -300
	-100 10900 -100
	-100 10900 100
	-100 10900 300
	100 10900 -300
	100 10900 -100
	100 10900 100
	100 10900 300
	300 10900 -300
	300 10900 -100
	300 10900 100
	300 10900 300
	-300 11100 -300
	-300 11100 -100
	-300 11100 100
	-300 11100 300
	-100 11100 -300
	-100 11100 -100
	-100 11100 100
	-100 11100 300
	100 11100 -300
	100 11100 -100
	100 11100 100
	100 11100 300
	300 11100 -300
	300 11100 -100
	300 11100 100
	300 11100 300
	-300 11300 -300
	-300 11300 -100
	-300 11300 100
	-300 11300 300
	-100 11300 -300
	-100 11300 -100
	-100 11300 100
	-100 11300 300
	100 11300 -300
	100 11300 -100
	100 11300 100
	100 11300 300
	300 11300 -300
	300 11300 -100
	300 11300 100
	300 11300 300
	-300 11500 -300
	-300 11500 -100
	-300 11500 100
	-300 11500 300
	-100 11500 -300
	-100 11500 -100
	-100 11500 100
	-100 11500 300
	100 11500 -300
	100 11500 -100
	100 11500 100
	100 11500 300
	300 11500 -300
	300 11500 -100
	300 11500 100
	300 11500 300
	-300 11700.1 -300
	-300 11700.1 -100
	-300 11700.1 100
	-300 11700.1 300
	-100 11700.1 -300
	-100 11700.1 -100
	-100 11700.1 100
	-100 11700.1 300
	100 11700.1 -300
	100 11700.1 -100
	100 11700.1 100
	100 11700.1 300
	300 11700.1 -300
	300 11700.1 -100
	300 11700.1 100
	300 11700.1 300
	-300 11900.1 -300
	-300 11900.1 -100
	-300 11900.1 100
	-300 11900.1 300
	-100 11900.1 -300
	-100 11900.1 -100
	-100 11900.1 100
	-100 11900.1 300
	100 11900.1 -300
	100 11900.1 -100
	100 11900.1 100
	100 11900.1 300
	300 11900.1 -300
	300 11900.1 -100
	300 11900.1 100
	300 11900.1 300
	-300 12100.1 -300
	-300 12100.1 -100
	-300 12100.1 100
	-300 12100.1 300
	-100 12100.1 -300
	-100 12100.1 -100
	-100 12100.1 100
	-100 12100.1 300
	100 12100.1 -300
	100 12100.1 -100
	100 12100.1 100
	100 12100.1 300
	300 12100.1 -300
	300 12100.1 -100
	300 12100.1 100
	300 12100.1 300
	-300 12300.2 -300
	-300 12300.2 -100
	-300 12300.2 100
	-300 12300.2 300
	-100 12300.2 -300
	-100 12300.2 -100
	-100 12300.2 100
	-100 12300.2 300
	100 12300.2 -300
	100 12300.2 -100
	100 12300.2 100
	100 12300.2 300
	300 12300.2 -300
	300 12300.2 -100
	300 12300.2 100
	300 12300.2 300
	-300 12500.2 -300
	-300 12500.2 -100
	-300 12500.2 100
	-300 12500.2 300
	-100 12500.2 -300
	-100 12500.2 -100
	-100 12500.2 100
	-100 12500.2 300
	100 12500.2 -300
	100 12500.2 -100
	100 12500.2 100
	100 12500.2 300
	300 12500.2 -300
	300 12500.2 -100
	300 12500.2 100
	300 12500.2 300
	-300 12700.2 -300
	-300 12700.2 -100
	-300 12700.2 100
	-300 12700.2 300
	-100 12700.2 -300
	-100 12700.2 -100
	-100 12700.2 100
	-100 12700.2 300
	100 12700.2 -300
	100 12700.2 -100
	100 12700.2 100
	100 12700.2 300
	300 12700.2 -300
	300 12700.2 -100
	300 12700.2 100
	300 12700.2 300
	-300 12900.3 -300
	-300 12900.3 -100
	-300 12900.3 100
	-300 12900.3 300
	-100 12900.3 -300
	-100 12900.3 -100
	-100 12900.3 100
	-100 12900.3 300
	100 12900.3 -300
	100 12900.3 -100
	100 12900.3 100
	100 12900.3 300
	300 12900.3 -300
	300 12900.3 -100
	300 12900.3 100
	300 12900.3 300
	-300 13100.4 -300
	-300 13100.4 -100
	-300 13100.4 100
	-300 13100.4 300
	-100 13100.4 -300
	-100 13100.4 -100
	-100 13100.4 100
	-100 13100.4 300
	100 13100.4 -300
	100 13100.4 -100
	100 13100.4 100
	100 13100.4 300
	300 13100.4 -300
	300 13100.4 -100
	300 13100.4 100
	300 13100.4 300
	-300 13300.5 -300
	-300 13300.5 -100
	-300 13300.5 100
	-300 13300.5 300
	-100 13300.5 -300
	-100 13300.5 -100
	-100 13300.5 100
	-100 13300.5 300
	100 13300.5 -300
	100 13300.5 -100
	100 13300.5 100
	100 13300.5 300
	300 13300.5 -300
	300 13300.5 -100
	300 13300.5 100
	300 13300.5 300
	-300 13500.7 -300
	-300 13500.7 -100
	-300 13500.7 100
	-300 13500.7 300
	-100 13500.7 -300
	-100 13500.7 -100
	-100 13500.7 100
	-100 13500.7 300
	100 13500.7 -300
	100 13500.7 -100
	100 13500.7 100
	100 13500.7 300
	300 13500.7 -300
	300 13500.7 -100
	300 13500.7 100
	300 13500.7 300
	-300 13701.1 -300
	-300 13701.1 -100
	-300 13701.1 100
	-300 13701.1 300
	-100 13701.1 -300
	-100 13701.1 -100
	-100 13701.1 100
	-100 13701.1 300
	100 13701.1 -300
	100 13701.1 -100
	100 13701.1 100
	100 13701.1 300
	300 13701.1 -300
	300 13701.1 -100
	300 13701.1 100
	300 13701.1 300
	-300 13902.1 -300
	-300 13902.1 -100
	-300 13902.1 100
	-300 13902.1 300
	-100 13902.1 -300
	-100 13902.1 -100
	-100 13902.1 100
	-100 13902.1 300
	100 13902.1 -300
	100 13902.1 -100
	100 13902.1 100
	100 13902.1 300
	300 13902.1 -300
	300 13902.1 -100
	300 13902.1 100
	300 13902.1 300
  </DataArray>
</Points>
<PointData  Vectors="vector">
  <DataArray type="Float32" Name="Velocity" NumberOfComponents="3" format="ascii">
 -1.49175e-07 0.00165066 -2.77174e-07
 6.80031e-07 0.000843304 -1.14556e-05
 6.79761e-07 0.000843301 1.14552e-05
 -1.51006e-07 0.00165066 2.7783e-07
 -1.14735e-05 0.000843305 5.7683e-07
 -9.7983e-06 0.00304966 -9.82252e-06
 -9.79802e-06 0.00304974 9.82312e-06
 -1.14718e-05 0.0008433 -5.77112e-07
 1.14713e-05 0.000843304 5.58766e-07
 9.79907e-06 0.00304964 -9.81359e-06
 9.79878e-06 0.00304962 9.81439e-06
 1.14732e-05 0.000843299 -5.59423e-07
 1.52398e-07 0.00165066 -3.22035e-07
 -6.79573e-07 0.000843303 -1.14601e-05
 -6.79199e-07 0.0008433 1.14615e-05
 1.50658e-07 0.00165066 3.20524e-07
 -7.2583e-06 0.00168198 -6.87022e-06
 -6.68447e-06 -0.0010129 5.04693e-07
 -6.68523e-06 -0.0010129 -5.06529e-07
 -7.30482e-06 0.00168196 6.87219e-06
 2.56501e-07 -0.0010129 -6.80624e-06
 -5.07276e-06 0.00128777 -5.06591e-06
 -5.07315e-06 0.0012877 5.06619e-06
 3.03243e-07 -0.00101289 6.80603e-06
 -2.97032e-07 -0.0010129 -6.81792e-06
 5.07201e-06 0.00128779 -5.06557e-06
 5.07284e-06 0.0012878 5.06593e-06
 -2.54636e-07 -0.00101289 6.81741e-06
 7.29853e-06 0.00168197 -6.73344e-06
 6.68502e-06 -0.0010129 4.10642e-07
 6.68536e-06 -0.00101289 -4.31322e-07
 7.25582e-06 0.00168197 6.75376e-06
 -7.76273e-06 -0.000316779 -7.70893e-06
 -9.4102e-06 0.000822962 1.90901e-06
 -9.40945e-06 0.000822957 -1.90857e-06
 -7.76224e-06 -0.000316757 7.70875e-06
 2.12513e-06 0.000822962 -9.36567e-06
 3.50294e-06 -0.00211536 3.35747e-06
 3.50308e-06 -0.00211537 -3.35764e-06
 2.12355e-06 0.00082295 9.36597e-06
 -2.12431e-06 0.00082296 -9.54101e-06
 -3.5038e-06 -0.00211536 3.46432e-06
 -3.50449e-06 -0.00211536 -3.46434e-06
 -2.12456e-06 0.000822951 9.54092e-06
 7.76095e-06 -0.000316776 -7.71612e-06
 9.41013e-06 0.000822957 1.89662e-06
 9.40994e-06 0.000822954 -1.89654e-06
 7.7622e-06 -0.00031676 7.71574e-06
 -3.22915e-06 -0.000633105 -3.25221e-06
 -3.01394e-06 0.00285021 7.02237e-06
 -3.01402e-06 0.00285021 -7.01665e-06
 -3.22948e-06 -0.000633094 3.24677e-06
 7.0564e-06 0.00285021 -3.02392e-06
 7.55015e-06 -0.0055976 7.53003e-06
 7.55031e-06 -0.00559761 -7.52582e-06
 7.05684e-06 0.00285022 3.01986e-06
 -7.05461e-06 0.00285021 -3.02152e-06
 -7.54729e-06 -0.0055976 7.52788e-06
 -7.54708e-06 -0.0055976 -7.52676e-06
 -7.05374e-06 0.00285022 3.02036e-06
 3.22646e-06 -0.00063311 -3.24851e-06
 3.01023e-06 0.00285021 7.01833e-06
 3.01001e-06 0.00285022 -7.01742e-06
 3.22554e-06 -0.000633109 3.24744e-06
 6.92104e-07 -0.00121892 6.93149e-07
 1.90277e-06 -0.000224453 8.35498e-06
 1.90258e-06 -0.000224438 -8.35495e-06
 6.92035e-07 -0.00121893 -6.9311e-07
 8.35362e-06 -0.000224445 1.90627e-06
 8.08277e-06 -0.000147209 8.08909e-06
 8.08301e-06 -0.000147218 -8.08886e-06
 8.35377e-06 -0.000224493 -1.90651e-06
 -8.35407e-06 -0.000224465 1.907e-06
 -8.08333e-06 -0.000147213 8.08952e-06
 -8.08309e-06 -0.000147209 -8.08931e-06
 -8.35388e-06 -0.000224504 -1.90733e-06
 -6.9215e-07 -0.00121892 6.94992e-07
 -1.90262e-06 -0.000224471 8.3559e-06
 -1.9028e-06 -0.000224496 -8.35581e-06
 -6.92209e-07 -0.00121893 -6.95245e-07
 3.16386e-06 0.00134713 3.16847e-06
 3.50869e-06 -0.000726108 2.9092e-06
 3.50828e-06 -0.000726114 -2.90942e-06
 3.16325e-06 0.00134712 -3.16835e-06
 2.90736e-06 -0.000726113 3.51416e-06
 3.57442e-06 0.000342558 3.57666e-06
 3.5749e-06 0.000342647 -3.57677e-06
 2.90809e-06 -0.000726063 -3.51415e-06
 -2.90854e-06 -0.000726094 3.5149e-06
 -3.57544e-06 0.00034255 3.57652e-06
 -3.57491e-06 0.000342569 -3.57729e-06
 -2.90802e-06 -0.000726054 -3.51425e-06
 -3.16273e-06 0.00134713 3.16966e-06
 -3.50766e-06 -0.000726089 2.9094e-06
 -3.50813e-06 -0.000726065 -2.91028e-06
 -3.16311e-06 0.00134713 -3.16888e-06
 1.5134e-06 -0.00268408 1.51404e-06
 -2.54317e-06 -0.000321696 -4.99042e-06
 -2.54726e-06 -0.000321704 4.99131e-06
 1.51399e-06 -0.00268411 -1.51498e-06
 -4.99137e-06 -0.000321696 -2.54297e-06
 -8.72774e-07 -0.00156978 -8.72774e-07
 -8.68754e-07 -0.00156998 8.44817e-07
 -4.99182e-06 -0.000321712 2.5709e-06
 4.99335e-06 -0.000321697 -2.55037e-06
 8.48079e-07 -0.00156977 -8.68803e-07
 8.52735e-07 -0.00156983 8.56777e-07
 4.99278e-06 -0.000321709 2.56237e-06
 -1.51529e-06 -0.00268408 1.51415e-06
 2.56798e-06 -0.000321696 -4.99025e-06
 2.56349e-06 -0.000321699 4.99155e-06
 -1.51467e-06 -0.0026841 -1.51541e-06
 8.37827e-07 -0.000552947 8.38766e-07
 2.62527e-06 0.000755331 2.69424e-06
 2.6253e-06 0.000755331 -2.69564e-06
 8.37722e-07 -0.000552905 -8.37153e-07
 2.69589e-06 0.00075533 2.62478e-06
 7.98142e-07 -0.00138615 7.97963e-07
 7.9814e-07 -0.00138603 -7.97509e-07
 2.69605e-06 0.000755326 -2.62501e-06
 -2.69735e-06 0.000755328 2.6248e-06
 -7.97767e-07 -0.00138619 7.97961e-07
 -7.97772e-07 -0.00138615 -7.97525e-07
 -2.69694e-06 0.000755325 -2.62502e-06
 -8.36333e-07 -0.000552951 8.38844e-07
 -2.6256e-06 0.000755328 2.69424e-06
 -2.62558e-06 0.000755326 -2.69649e-06
 -8.36726e-07 -0.000552912 -8.36334e-07
 -7.82341e-08 -0.000521824 -7.82337e-08
 -1.39255e-07 -0.00244712 -2.29738e-07
 -1.39239e-07 -0.00244713 2.30092e-07
 -7.82122e-08 -0.000521843 7.82844e-08
 -2.29804e-07 -0.00244712 -1.39249e-07
 -2.34738e-07 0.00154663 -2.34667e-07
 -2.3474e-07 0.00154665 2.35019e-07
 -2.29812e-07 -0.00244713 1.39298e-07
 2.29953e-07 -0.00244712 -1.39251e-07
 2.34876e-07 0.00154664 -2.34675e-07
 2.34867e-07 0.00154664 2.35014e-07
 2.29929e-07 -0.00244713 1.39298e-07
 7.80794e-08 -0.000521817 -7.82358e-08
 1.39095e-07 -0.00244713 -2.29752e-07
 1.39095e-07 -0.00244713 2.30092e-07
 7.80638e-08 -0.000521831 7.82998e-08
 -4.55286e-07 0.000899903 -4.55095e-07
 -4.84841e-07 0.00169977 -3.3822e-07
 -4.84849e-07 0.00169978 3.38471e-07
 -4.55314e-07 0.000899907 4.55251e-07
 -3.38383e-07 0.00169977 -4.84639e-07
 -3.37099e-07 0.000208121 -3.36939e-07
 -3.37103e-07 0.000208115 3.3718e-07
 -3.38399e-07 0.00169978 4.84793e-07
 3.38392e-07 0.00169977 -4.84652e-07
 3.37104e-07 0.000208128 -3.36944e-07
 3.37102e-07 0.000208129 3.3718e-07
 3.38378e-07 0.00169977 4.84791e-07
 4.5526e-07 0.0008999 -4.55115e-07
 4.8479e-07 0.00169977 -3.38235e-07
 4.84788e-07 0.00169977 3.38471e-07
 4.55239e-07 0.000899902 4.55266e-07
 -5.10484e-07 -0.000901431 -5.10316e-07
 -5.05308e-07 0.000452476 -3.30125e-07
 -5.05327e-07 0.000452486 3.3018e-07
 -5.10508e-07 -0.000901431 5.10526e-07
 -3.30186e-07 0.000452476 -5.05161e-07
 -3.18504e-07 -0.00216605 -3.18414e-07
 -3.18498e-07 -0.00216604 3.18503e-07
 -3.30194e-07 0.000452485 5.05333e-07
 3.30175e-07 0.000452474 -5.05158e-07
 3.18461e-07 -0.00216605 -3.1841e-07
 3.18466e-07 -0.00216605 3.185e-07
 3.30156e-07 0.00045248 5.05321e-07
 5.10511e-07 -0.00090143 -5.1031e-07
 5.05336e-07 0.000452474 -3.30096e-07
 5.0532e-07 0.000452476 3.30185e-07
 5.10474e-07 -0.000901431 5.10488e-07
 -2.73665e-08 4.10989e-05 -2.73339e-08
 -1.27884e-08 4.68257e-05 -2.47662e-07
 -1.28127e-08 4.68156e-05 2.47699e-07
 -2.74325e-08 4.10977e-05 2.73533e-08
 -2.47636e-07 4.68261e-05 -1.27187e-08
 -2.21108e-07 -0.00121033 -2.21149e-07
 -2.21119e-07 -0.00121032 2.21191e-07
 -2.47673e-07 4.67992e-05 1.27447e-08
 2.47673e-07 4.68243e-05 -1.27144e-08
 2.21133e-07 -0.00121033 -2.21154e-07
 2.21133e-07 -0.00121032 2.21198e-07
 2.47672e-07 4.6804e-05 1.27447e-08
 2.73842e-08 4.11003e-05 -2.732e-08
 1.27919e-08 4.68252e-05 -2.47661e-07
 1.28068e-08 4.68183e-05 2.47715e-07
 2.7416e-08 4.11e-05 2.73608e-08
 1.72521e-06 0.000482417 1.7252e-06
 1.72569e-06 0.000673766 7.20855e-07
 1.72566e-06 0.000673765 -7.20893e-07
 1.72516e-06 0.000482417 -1.72524e-06
 7.20884e-07 0.000673765 1.72569e-06
 7.28912e-07 0.000792604 7.28914e-07
 7.28899e-07 0.000792599 -7.28953e-07
 7.20828e-07 0.000673785 -1.7257e-06
 -7.20871e-07 0.00067377 1.72568e-06
 -7.28919e-07 0.000792607 7.28922e-07
 -7.28898e-07 0.000792606 -7.28954e-07
 -7.20849e-07 0.000673787 -1.72569e-06
 -1.72519e-06 0.000482416 1.7252e-06
 -1.72567e-06 0.00067377 7.20876e-07
 -1.72567e-06 0.000673778 -7.209e-07
 -1.72517e-06 0.000482415 -1.72519e-06
 -3.37952e-06 0.000404621 -3.37951e-06
 -2.88731e-06 0.00027799 1.41611e-06
 -2.88717e-06 0.000277992 -1.41609e-06
 -3.37938e-06 0.000404625 3.37936e-06
 1.41607e-06 0.000277991 -2.88735e-06
 1.19856e-06 0.000474077 1.19857e-06
 1.19854e-06 0.000474059 -1.19863e-06
 1.41613e-06 0.000277994 2.88731e-06
 -1.41607e-06 0.000277991 -2.88733e-06
 -1.19861e-06 0.00047408 1.19857e-06
 -1.19858e-06 0.000474074 -1.19862e-06
 -1.41611e-06 0.000277993 2.8873e-06
 3.37948e-06 0.000404619 -3.37939e-06
 2.8873e-06 0.00027799 1.41606e-06
 2.88713e-06 0.000277991 -1.41615e-06
 3.37927e-06 0.000404621 3.37943e-06
 -2.12383e-06 0.00032649 -2.12385e-06
 -1.95948e-06 -0.000904342 8.40752e-07
 -1.95949e-06 -0.000904343 -8.4079e-07
 -2.12388e-06 0.000326476 2.12375e-06
 8.40773e-07 -0.000904342 -1.95948e-06
 8.39026e-07 -0.00186271 8.39028e-07
 8.39006e-07 -0.00186271 -8.39061e-07
 8.40724e-07 -0.000904346 1.9594e-06
 -8.40774e-07 -0.000904343 -1.95948e-06
 -8.39063e-07 -0.00186271 8.39033e-07
 -8.39061e-07 -0.00186271 -8.39065e-07
 -8.40759e-07 -0.000904347 1.95941e-06
 2.12377e-06 0.000326484 -2.12382e-06
 1.95944e-06 -0.000904344 8.40749e-07
 1.95945e-06 -0.000904346 -8.40794e-07
 2.1238e-06 0.000326469 2.12378e-06
 -5.42737e-06 0.000180725 -5.42738e-06
 -6.02704e-06 0.000438479 -2.49949e-06
 -6.02705e-06 0.00043848 2.49939e-06
 -5.4274e-06 0.000180738 5.42736e-06
 -2.49944e-06 0.000438479 -6.02706e-06
 -2.37679e-06 0.000867599 -2.3768e-06
 -2.3768e-06 0.0008676 2.37675e-06
 -2.49943e-06 0.000438479 6.02701e-06
 2.49941e-06 0.000438479 -6.02706e-06
 2.37677e-06 0.0008676 -2.3768e-06
 2.37677e-06 0.000867601 2.37676e-06
 2.49937e-06 0.000438477 6.02702e-06
 5.42738e-06 0.000180731 -5.42738e-06
 6.02704e-06 0.000438479 -2.49946e-06
 6.02704e-06 0.000438477 2.4994e-06
 5.42741e-06 0.000180745 5.42737e-06
 2.58947e-08 -0.000830681 2.58636e-08
 6.65009e-07 -0.000963066 5.15122e-07
 6.65007e-07 -0.000963066 -5.15163e-07
 2.58898e-08 -0.000830681 -2.59045e-08
 5.15151e-07 -0.000963066 6.64984e-07
 7.31305e-07 -0.00039644 7.31282e-07
 7.31303e-07 -0.000396439 -7.31316e-07
 5.15146e-07 -0.000963065 -6.65017e-07
 -5.15137e-07 -0.000963066 6.64987e-07
 -7.31295e-07 -0.00039644 7.31285e-07
 -7.31298e-07 -0.000396439 -7.31313e-07
 -5.15143e-07 -0.000963065 -6.65014e-07
 -2.588e-08 -0.000830682 2.5873e-08
 -6.65e-07 -0.000963066 5.15131e-07
 -6.65002e-07 -0.000963066 -5.15154e-07
 -2.58883e-08 -0.000830681 -2.58943e-08
 -2.96948e-06 -0.000941436 -2.96951e-06
 -1.86274e-06 -0.00122971 -6.91201e-07
 -1.86274e-06 -0.00122971 6.91185e-07
 -2.96948e-06 -0.000941434 2.96949e-06
 -6.91181e-07 -0.00122971 -1.86276e-06
 -3.17026e-07 -0.00112194 -3.17043e-07
 -3.17027e-07 -0.00112194 3.17032e-07
 -6.91183e-07 -0.00122971 1.86275e-06
 6.91204e-07 -0.00122971 -1.86276e-06
 3.17046e-07 -0.00112194 -3.1704e-07
 3.17045e-07 -0.00112194 3.17035e-07
 6.91199e-07 -0.00122971 1.86275e-06
 2.96951e-06 -0.000941436 -2.9695e-06
 1.86276e-06 -0.00122971 -6.91194e-07
 1.86276e-06 -0.00122971 6.91192e-07
 2.9695e-06 -0.000941435 2.9695e-06
 -6.88511e-06 0.000864205 -6.88513e-06
 -4.71979e-06 0.00132796 -3.71501e-06
 -4.71979e-06 0.00132796 3.71504e-06
 -6.88511e-06 0.000864216 6.88511e-06
 -3.71502e-06 0.00132796 -4.71978e-06
 -3.24972e-06 -0.00153583 -3.24974e-06
 -3.24972e-06 -0.00153583 3.24974e-06
 -3.71502e-06 0.00132796 4.7198e-06
 3.71505e-06 0.00132796 -4.71978e-06
 3.24974e-06 -0.00153583 -3.24973e-06
 3.24974e-06 -0.00153583 3.24974e-06
 3.71504e-06 0.00132796 4.7198e-06
 6.88512e-06 0.000864201 -6.88511e-06
 4.7198e-06 0.00132796 -3.71501e-06
 4.7198e-06 0.00132796 3.71504e-06
 6.88512e-06 0.000864208 6.88512e-06
 1.15741e-06 0.000160087 1.15741e-06
 1.35079e-06 -0.00131912 2.51122e-06
 1.35079e-06 -0.00131912 -2.51119e-06
 1.1574e-06 0.000160074 -1.1574e-06
 2.5112e-06 -0.00131912 1.35077e-06
 2.20474e-06 -0.00129987 2.20477e-06
 2.20473e-06 -0.00129987 -2.20474e-06
 2.5112e-06 -0.00131912 -1.35077e-06
 -2.5112e-06 -0.00131912 1.35077e-06
 -2.20474e-06 -0.00129987 2.20478e-06
 -2.20476e-06 -0.00129987 -2.20474e-06
 -2.51121e-06 -0.00131912 -1.35077e-06
 -1.15741e-06 0.000160092 1.15741e-06
 -1.35079e-06 -0.00131912 2.51122e-06
 -1.35077e-06 -0.00131912 -2.51118e-06
 -1.15741e-06 0.000160083 -1.15741e-06
 1.06345e-06 9.9862e-05 1.06347e-06
 9.53747e-07 -0.0010806 5.10059e-06
 9.53738e-07 -0.0010806 -5.10057e-06
 1.06345e-06 9.98624e-05 -1.06345e-06
 5.10058e-06 -0.0010806 9.53742e-07
 4.35002e-06 0.00119777 4.35006e-06
 4.35002e-06 0.00119777 -4.35002e-06
 5.10057e-06 -0.0010806 -9.53745e-07
 -5.10059e-06 -0.0010806 9.53749e-07
 -4.35004e-06 0.00119777 4.35005e-06
 -4.35004e-06 0.00119777 -4.35001e-06
 -5.10059e-06 -0.0010806 -9.53749e-07
 -1.06347e-06 9.98618e-05 1.06347e-06