<?xml version="1.0"?>
<!-- time 89.1967-->
<VTKFile type="UnstructuredGrid" version="0.1" byte_order="LittleEndian">
<UnstructuredGrid>
<Piece NumberOfPoints="960" NumberOfCells="0">
<Points>
  <DataArray type="Float32" Name="Position" NumberOfComponents="3" format="ascii">
	-300 2099.64 -300
	-300 2099.65 -100
	-300 2099.65 100
	-300 2099.64 300
	-100 2099.65 -300
	-100 2099.52 -100
	-100 2099.52 100
	-100 2099.65 300
	100 2099.65 -300
	100 2099.52 -100
	100 2099.52 100
	100 2099.65 300
	300 2099.64 -300
	300 2099.65 -100
	300 2099.65 100
	300 2099.64 300
	-300 2299.67 -300
	-300 2299.66 -100
	-300 2299.66 100
	-300 2299.67 300
	-100 2299.66 -300
	-100 2299.53 -100
	-100 2299.53 100
	-100 2299.66 300
	100 2299.66 -300
	100 2299.53 -100
	100 2299.53 100
	100 2299.66 300
	300 2299.67 -300
	300 2299.66 -100
	300 2299.66 100
	300 2299.67 300
	-300 2499.68 -300
	-300 2499.67 -100
	-300 2499.67 100
	-300 2499.68 300
	-100 2499.67 -300
	-100 2499.62 -100
	-100 2499.62 100
	-100 2499.67 300
	100 2499.67 -300
	100 2499.62 -100
	100 2499.62 100
	100 2499.67 300
	300 2499.68 -300
	300 2499.67 -100
	300 2499.67 100
	300 2499.68 300
	-300 2699.68 -300
	-300 2699.67 -100
	-300 2699.67 100
	-300 2699.68 300
	-100 2699.67 -300
	-100 2699.62 -100
	-100 2699.62 100
	-100 2699.67 300
	100 2699.67 -300
	100 2699.62 -100
	100 2699.62 100
	100 2699.67 300
	300 2699.68 -300
	300 2699.67 -100
	300 2699.67 100
	300 2699.68 300
	-300 2899.68 -300
	-300 2899.67 -100
	-300 2899.67 100
	-300 2899.68 300
	-100 2899.67 -300
	-100 2899.64 -100
	-100 2899.64 100
	-100 2899.67 300
	100 2899.67 -300
	100 2899.64 -100
	100 2899.64 100
	100 2899.67 300
	300 2899.68 -300
	300 2899.67 -100
	300 2899.67 100
	300 2899.68 300
	-300 3099.68 -300
	-300 3099.67 -100
	-300 3099.67 100
	-300 3099.68 300
	-100 3099.67 -300
	-100 3099.64 -100
	-100 3099.64 100
	-100 3099.67 300
	100 3099.67 -300
	100 3099.64 -100
	100 3099.64 100
	100 3099.67 300
	300 3099.68 -300
	300 3099.67 -100
	300 3099.67 100
	300 3099.68 300
	-300 3299.68 -300
	-300 3299.66 -100
	-300 3299.66 100
	-300 3299.68 300
	-100 3299.66 -300
	-100 3299.64 -100
	-100 3299.64 100
	-100 3299.66 300
	100 3299.66 -300
	100 3299.64 -100
	100 3299.64 100
	100 3299.66 300
	300 3299.68 -300
	300 3299.66 -100
	300 3299.66 100
	300 3299.68 300
	-300 3499.68 -300
	-300 3499.67 -100
	-300 3499.67 100
	-300 3499.68 300
	-100 3499.67 -300
	-100 3499.64 -100
	-100 3499.64 100
	-100 3499.67 300
	100 3499.67 -300
	100 3499.64 -100
	100 3499.64 100
	100 3499.67 300
	300 3499.68 -300
	300 3499.67 -100
	300 3499.67 100
	300 3499.68 300
	-300 3699.68 -300
	-300 3699.67 -100
	-300 3699.67 100
	-300 3699.68 300
	-100 3699.67 -300
	-100 3699.64 -100
	-100 3699.64 100
	-100 3699.67 300
	100 3699.67 -300
	100 3699.64 -100
	100 3699.64 100
	100 3699.67 300
	300 3699.68 -300
	300 3699.67 -100
	300 3699.67 100
	300 3699.68 300
	-300 3899.68 -300
	-300 3899.67 -100
	-300 3899.67 100
	-300 3899.68 300
	-100 3899.67 -300
	-100 3899.64 -100
	-100 3899.64 100
	-100 3899.67 300
	100 3899.67 -300
	100 3899.64 -100
	100 3899.64 100
	100 3899.67 300
	300 3899.68 -300
	300 3899.67 -100
	300 3899.67 100
	300 3899.68 300
	-300 4099.68 -300
	-300 4099.67 -100
	-300 4099.67 100
	-300 4099.68 300
	-100 4099.67 -300
	-100 4099.64 -100
	-100 4099.64 100
	-100 4099.67 300
	100 4099.67 -300
	100 4099.64 -100
	100 4099.64 100
	100 4099.67 300
	300 4099.68 -300
	300 4099.67 -100
	300 4099.67 100
	300 4099.68 300
	-300 4299.69 -300
	-300 4299.67 -100
	-300 4299.67 100
	-300 4299.69 300
	-100 4299.67 -300
	-100 4299.64 -100
	-100 4299.64 100
	-100 4299.67 300
	100 4299.67 -300
	100 4299.64 -100
	100 4299.64 100
	100 4299.67 300
	300 4299.69 -300
	300 4299.67 -100
	300 4299.67 100
	300 4299.69 300
	-300 4499.69 -300
	-300 4499.67 -100
	-300 4499.67 100
	-300 4499.69 300
	-100 4499.67 -300
	-100 4499.64 -100
	-100 4499.64 100
	-100 4499.67 300
	100 4499.67 -300
	100 4499.64 -100
	100 4499.64 100
	100 4499.67 300
	300 4499.69 -300
	300 4499.67 -100
	300 4499.67 100
	300 4499.69 300
	-300 4699.7 -300
	-300 4699.67 -100
	-300 4699.67 100
	-300 4699.7 300
	-100 4699.67 -300
	-100 4699.64 -100
	-100 4699.64 100
	-100 4699.67 300
	100 4699.67 -300
	100 4699.64 -100
	100 4699.64 100
	100 4699.67 300
	300 4699.7 -300
	300 4699.67 -100
	300 4699.67 100
	300 4699.7 300
	-300 4899.7 -300
	-300 4899.67 -100
	-300 4899.67 100
	-300 4899.7 300
	-100 4899.67 -300
	-100 4899.65 -100
	-100 4899.65 100
	-100 4899.67 300
	100 4899.67 -300
	100 4899.65 -100
	100 4899.65 100
	100 4899.67 300
	300 4899.7 -300
	300 4899.67 -100
	300 4899.67 100
	300 4899.7 300
	-300 5099.7 -300
	-300 5099.68 -100
	-300 5099.68 100
	-300 5099.7 300
	-100 5099.68 -300
	-100 5099.66 -100
	-100 5099.66 100
	-100 5099.68 300
	100 5099.68 -300
	100 5099.66 -100
	100 5099.66 100
	100 5099.68 300
	300 5099.7 -300
	300 5099.68 -100
	300 5099.68 100
	300 5099.7 300
	-300 5299.7 -300
	-300 5299.68 -100
	-300 5299.68 100
	-300 5299.7 300
	-100 5299.68 -300
	-100 5299.66 -100
	-100 5299.66 100
	-100 5299.68 300
	100 5299.68 -300
	100 5299.66 -100
	100 5299.66 100
	100 5299.68 300
	300 5299.7 -300
	300 5299.68 -100
	300 5299.68 100
	300 5299.7 300
	-300 5499.7 -300
	-300 5499.68 -100
	-300 5499.68 100
	-300 5499.7 300
	-100 5499.68 -300
	-100 5499.67 -100
	-100 5499.67 100
	-100 5499.68 300
	100 5499.68 -300
	100 5499.67 -100
	100 5499.67 100
	100 5499.68 300
	300 5499.7 -300
	300 5499.68 -100
	300 5499.68 100
	300 5499.7 300
	-300 5699.7 -300
	-300 5699.68 -100
	-300 5699.68 100
	-300 5699.7 300
	-100 5699.68 -300
	-100 5699.67 -100
	-100 5699.67 100
	-100 5699.68 300
	100 5699.68 -300
	100 5699.67 -100
	100 5699.67 100
	100 5699.68 300
	300 5699.7 -300
	300 5699.68 -100
	300 5699.68 100
	300 5699.7 300
	-300 5899.71 -300
	-300 5899.68 -100
	-300 5899.68 100
	-300 5899.71 300
	-100 5899.68 -300
	-100 5899.67 -100
	-100 5899.67 100
	-100 5899.68 300
	100 5899.68 -300
	100 5899.67 -100
	100 5899.67 100
	100 5899.68 300
	300 5899.71 -300
	300 5899.68 -100
	300 5899.68 100
	300 5899.71 300
	-300 6099.71 -300
	-300 6099.7 -100
	-300 6099.7 100
	-300 6099.71 300
	-100 6099.7 -300
	-100 6099.68 -100
	-100 6099.68 100
	-100 6099.7 300
	100 6099.7 -300
	100 6099.68 -100
	100 6099.68 100
	100 6099.7 300
	300 6099.71 -300
	300 6099.7 -100
	300 6099.7 100
	300 6099.71 300
	-300 6299.72 -300
	-300 6299.71 -100
	-300 6299.71 100
	-300 6299.72 300
	-100 6299.71 -300
	-100 6299.69 -100
	-100 6299.69 100
	-100 6299.71 300
	100 6299.71 -300
	100 6299.69 -100
	100 6299.69 100
	100 6299.71 300
	300 6299.72 -300
	300 6299.71 -100
	300 6299.71 100
	300 6299.72 300
	-300 6499.79 -300
	-300 6499.71 -100
	-300 6499.71 100
	-300 6499.79 300
	-100 6499.71 -300
	-100 6499.7 -100
	-100 6499.7 100
	-100 6499.71 300
	100 6499.71 -300
	100 6499.7 -100
	100 6499.7 100
	100 6499.71 300
	300 6499.79 -300
	300 6499.71 -100
	300 6499.71 100
	300 6499.79 300
	-300 6699.85 -300
	-300 6699.85 -100
	-300 6699.85 100
	-300 6699.85 300
	-100 6699.85 -300
	-100 6699.85 -100
	-100 6699.85 100
	-100 6699.85 300
	100 6699.85 -300
	100 6699.85 -100
	100 6699.85 100
	100 6699.85 300
	300 6699.85 -300
	300 6699.85 -100
	300 6699.85 100
	300 6699.85 300
	-300 6899.85 -300
	-300 6899.85 -100
	-300 6899.85 100
	-300 6899.85 300
	-100 6899.85 -300
	-100 6899.85 -100
	-100 6899.85 100
	-100 6899.85 300
	100 6899.85 -300
	100 6899.85 -100
	100 6899.85 100
	100 6899.85 300
	300 6899.85 -300
	300 6899.85 -100
	300 6899.85 100
	300 6899.85 300
	-300 7099.86 -300
	-300 7099.86 -100
	-300 7099.86 100
	-300 7099.86 300
	-100 7099.86 -300
	-100 7099.86 -100
	-100 7099.86 100
	-100 7099.86 300
	100 7099.86 -300
	100 7099.86 -100
	100 7099.86 100
	100 7099.86 300
	300 7099.86 -300
	300 7099.86 -100
	300 7099.86 100
	300 7099.86 300
	-300 7299.86 -300
	-300 7299.86 -100
	-300 7299.86 100
	-300 7299.86 300
	-100 7299.86 -300
	-100 7299.86 -100
	-100 7299.86 100
	-100 7299.86 300
	100 7299.86 -300
	100 7299.86 -100
	100 7299.86 100
	100 7299.86 300
	300 7299.86 -300
	300 7299.86 -100
	300 7299.86 100
	300 7299.86 300
	-300 7499.87 -300
	-300 7499.87 -100
	-300 7499.87 100
	-300 7499.87 300
	-100 7499.87 -300
	-100 7499.87 -100
	-100 7499.87 100
	-100 7499.87 300
	100 7499.87 -300
	100 7499.87 -100
	100 7499.87 100
	100 7499.87 300
	300 7499.87 -300
	300 7499.87 -100
	300 7499.87 100
	300 7499.87 300
	-300 7699.87 -300
	-300 7699.87 -100
	-300 7699.87 100
	-300 7699.87 300
	-100 7699.87 -300
	-100 7699.87 -100
	-100 7699.87 100
	-100 7699.87 300
	100 7699.87 -300
	100 7699.87 -100
	100 7699.87 100
	100 7699.87 300
	300 7699.87 -300
	300 7699.87 -100
	300 7699.87 100
	300 7699.87 300
	-300 7899.88 -300
	-300 7899.88 -100
	-300 7899.88 100
	-300 7899.88 300
	-100 7899.88 -300
	-100 7899.87 -100
	-100 7899.87 100
	-100 7899.88 300
	100 7899.88 -300
	100 7899.87 -100
	100 7899.87 100
	100 7899.88 300
	300 7899.88 -300
	300 7899.88 -100
	300 7899.88 100
	300 7899.88 300
	-300 8099.88 -300
	-300 8099.88 -100
	-300 8099.88 100
	-300 8099.88 300
	-100 8099.88 -300
	-100 8099.88 -100
	-100 8099.88 100
	-100 8099.88 300
	100 8099.88 -300
	100 8099.88 -100
	100 8099.88 100
	100 8099.88 300
	300 8099.88 -300
	300 8099.88 -100
	300 8099.88 100
	300 8099.88 300
	-300 8299.88 -300
	-300 8299.88 -100
	-300 8299.88 100
	-300 8299.88 300
	-100 8299.88 -300
	-100 8299.88 -100
	-100 8299.88 100
	-100 8299.88 300
	100 8299.88 -300
	100 8299.88 -100
	100 8299.88 100
	100 8299.88 300
	300 8299.88 -300
	300 8299.88 -100
	300 8299.88 100
	300 8299.88 300
	-300 8499.89 -300
	-300 8499.89 -100
	-300 8499.89 100
	-300 8499.89 300
	-100 8499.89 -300
	-100 8499.89 -100
	-100 8499.89 100
	-100 8499.89 300
	100 8499.89 -300
	100 8499.89 -100
	100 8499.89 100
	100 8499.89 300
	300 8499.89 -300
	300 8499.89 -100
	300 8499.89 100
	300 8499.89 300
	-300 8699.9 -300
	-300 8699.9 -100
	-300 8699.9 100
	-300 8699.9 300
	-100 8699.9 -300
	-100 8699.9 -100
	-100 8699.9 100
	-100 8699.9 300
	100 8699.9 -300
	100 8699.9 -100
	100 8699.9 100
	100 8699.9 300
	300 8699.9 -300
	300 8699.9 -100
	300 8699.9 100
	300 8699.9 300
	-300 8899.91 -300
	-300 8899.9 -100
	-300 8899.9 100
	-300 8899.91 300
	-100 8899.9 -300
	-100 8899.9 -100
	-100 8899.9 100
	-100 8899.9 300
	100 8899.9 -300
	100 8899.9 -100
	100 8899.9 100
	100 8899.9 300
	300 8899.91 -300
	300 8899.9 -100
	300 8899.9 100
	300 8899.91 300
	-300 9099.91 -300
	-300 9099.9 -100
	-300 9099.9 100
	-300 9099.91 300
	-100 9099.9 -300
	-100 9099.9 -100
	-100 9099.9 100
	-100 9099.9 300
	100 9099.9 -300
	100 9099.9 -100
	100 9099.9 100
	100 9099.9 300
	300 9099.91 -300
	300 9099.9 -100
	300 9099.9 100
	300 9099.91 300
	-300 9299.91 -300
	-300 9299.91 -100
	-300 9299.91 100
	-300 9299.91 300
	-100 9299.91 -300
	-100 9299.91 -100
	-100 9299.91 100
	-100 9299.91 300
	100 9299.91 -300
	100 9299.91 -100
	100 9299.91 100
	100 9299.91 300
	300 9299.91 -300
	300 9299.91 -100
	300 9299.91 100
	300 9299.91 300
	-300 9499.92 -300
	-300 9499.92 -100
	-300 9499.92 100
	-300 9499.92 300
	-100 9499.92 -300
	-100 9499.91 -100
	-100 9499.91 100
	-100 9499.92 300
	100 9499.92 -300
	100 9499.91 -100
	100 9499.91 100
	100 9499.92 300
	300 9499.92 -300
	300 9499.92 -100
	300 9499.92 100
	300 9499.92 300
	-300 9699.92 -300
	-300 9699.92 -100
	-300 9699.92 100
	-300 9699.92 300
	-100 9699.92 -300
	-100 9699.92 -100
	-100 9699.92 100
	-100 9699.92 300
	100 9699.92 -300
	100 9699.92 -100
	100 9699.92 100
	100 9699.92 300
	300 9699.92 -300
	300 9699.92 -100
	300 9699.92 100
	300 9699.92 300
	-300 9899.93 -300
	-300 9899.93 -100
	-300 9899.93 100
	-300 9899.93 300
	-100 9899.93 -300
	-100 9899.93 -100
	-100 9899.93 100
	-100 9899.93 300
	100 9899.93 -300
	100 9899.93 -100
	100 9899.93 100
	100 9899.93 300
	300 9899.93 -300
	300 9899.93 -100
	300 9899.93 100
	300 9899.93 300
	-300 10099.9 -300
	-300 10099.9 -100
	-300 10099.9 100
	-300 10099.9 300
	-100 10099.9 -300
	-100 10099.9 -100
	-100 10099.9 100
	-100 10099.9 300
	100 10099.9 -300
	100 10099.9 -100
	100 10099.9 100
	100 10099.9 300
	300 10099.9 -300
	300 10099.9 -100
	300 10099.9 100
	300 10099.9 300
	-300 10300 -300
	-300 10300 -100
	-300 10300 100
	-300 10300 300
	-100 10300 -300
	-100 10300 -100
	-100 10300 100
	-100 10300 300
	100 10300 -300
	100 10300 -100
	100 10300 100
	100 10300 300
	300 10300 -300
	300 10300 -100
	300 10300 100
	300 10300 300
	-300 10500 -300
	-300 10500 -100
	-300 10500 100
	-300 10500 300
	-100 10500 -300
	-100 10500 -100
	-100 10500 100
	-100 10500 300
	100 10500 -300
	100 10500 -100
	100 10500 100
	100 10500 300
	300 10500 -300
	300 10500 -100
	300 10500 100
	300 10500 300
	-300 10700 -300
	-300 10700 -100
	-300 10700 100
	-300 10700 300
	-100 10700 -300
	-100 10700 -100
	-100 10700 100
	-100 10700 300
	100 10700 -300
	100 10700 -100
	100 10700 100
	100 10700 300
	300 10700 -300
	300 10700 -100
	300 10700 100
	300 10700 300
	-300 10900 -300
	-300 10900 -100
	-300 10900 100
	-300 10900 300
	-100 10900 -300
	-100 10900 -100
	-100 10900 100
	-100 10900 300
	100 10900 -300
	100 10900 -100
	100 10900 100
	100 10900 300
	300 10900 -300
	300 10900 -100
	300 10900 100
	300 10900 300
	-300 11100 -300
	-300 11100 -100
	-300 11100 100
	-300 11100 300
	-100 11100 -300
	-100 11100 -100
	-100 11100 100
	-100 11100 300
	100 11100 -300
	100 11100 -100
	100 11100 100
	100 11100 300
	300 11100 -300
	300 11100 -100
	300 11100 100
	300 11100 300
	-300 11300 -300
	-300 11300 -100
	-300 11300 100
	-300 11300 300
	-100 11300 -300
	-100 11300 -100
	-100 11300 100
	-100 11300 300
	100 11300 -300
	100 11300 -100
	100 11300 100
	100 11300 300
	300 11300 -300
	300 11300 -100
	300 11300 100
	300 11300 300
	-300 11500 -300
	-300 11500 -100
	-300 11500 100
	-300 11500 300
	-100 11500 -300
	-100 11500 -100
	-100 11500 100
	-100 11500 300
	100 11500 -300
	100 11500 -100
	100 11500 100
	100 11500 300
	300 11500 -300
	300 11500 -100
	300 11500 100
	300 11500 300
	-300 11700.1 -300
	-300 11700.1 -100
	-300 11700.1 100
	-300 11700.1 300
	-100 11700.1 -300
	-100 11700.1 -100
	-100 11700.1 100
	-100 11700.1 300
	100 11700.1 -300
	100 11700.1 -100
	100 11700.1 100
	100 11700.1 300
	300 11700.1 -300
	300 11700.1 -100
	300 11700.1 100
	300 11700.1 300
	-300 11900.1 -300
	-300 11900.1 -100
	-300 11900.1 100
	-300 11900.1 300
	-100 11900.1 -300
	-100 11900.1 -100
	-100 11900.1 100
	-100 11900.1 300
	100 11900.1 -300
	100 11900.1 -100
	100 11900.1 100
	100 11900.1 300
	300 11900.1 -300
	300 11900.1 -100
	300 11900.1 100
	300 11900.1 300
	-300 12100.1 -300
	-300 12100.1 -100
	-300 12100.1 100
	-300 12100.1 300
	-100 12100.1 -300
	-100 12100.1 -100
	-100 12100.1 100
	-100 12100.1 300
	100 12100.1 -300
	100 12100.1 -100
	100 12100.1 100
	100 12100.1 300
	300 12100.1 -300
	300 12100.1 -100
	300 12100.1 100
	300 12100.1 300
	-300 12300.2 -300
	-300 12300.2 -100
	-300 12300.2 100
	-300 12300.2 300
	-100 12300.2 -300
	-100 12300.2 -100
	-100 12300.2 100
	-100 12300.2 300
	100 12300.2 -300
	100 12300.2 -100
	100 12300.2 100
	100 12300.2 300
	300 12300.2 -300
	300 12300.2 -100
	300 12300.2 100
	300 12300.2 300
	-300 12500.2 -300
	-300 12500.2 -100
	-300 12500.2 100
	-300 12500.2 300
	-100 12500.2 -300
	-100 12500.2 -100
	-100 12500.2 100
	-100 12500.2 300
	100 12500.2 -300
	100 12500.2 -100
	100 12500.2 100
	100 12500.2 300
	300 12500.2 -300
	300 12500.2 -100
	300 12500.2 100
	300 12500.2 300
	-300 12700.3 -300
	-300 12700.3 -100
	-300 12700.3 100
	-300 12700.3 300
	-100 12700.3 -300
	-100 12700.3 -100
	-100 12700.3 100
	-100 12700.3 300
	100 12700.3 -300
	100 12700.3 -100
	100 12700.3 100
	100 12700.3 300
	300 12700.3 -300
	300 12700.3 -100
	300 12700.3 100
	300 12700.3 300
	-300 12900.3 -300
	-300 12900.3 -100
	-300 12900.3 100
	-300 12900.3 300
	-100 12900.3 -300
	-100 12900.3 -100
	-100 12900.3 100
	-100 12900.3 300
	100 12900.3 -300
	100 12900.3 -100
	100 12900.3 100
	100 12900.3 300
	300 12900.3 -300
	300 12900.3 -100
	300 12900.3 100
	300 12900.3 300
	-300 13100.4 -300
	-300 13100.4 -100
	-300 13100.4 100
	-300 13100.4 300
	-100 13100.4 -300
	-100 13100.4 -100
	-100 13100.4 100
	-100 13100.4 300
	100 13100.4 -300
	100 13100.4 -100
	100 13100.4 100
	100 13100.4 300
	300 13100.4 -300
	300 13100.4 -100
	300 13100.4 100
	300 13100.4 300
	-300 13300.6 -300
	-300 13300.6 -100
	-300 13300.6 100
	-300 13300.6 300
	-100 13300.6 -300
	-100 13300.6 -100
	-100 13300.6 100
	-100 13300.6 300
	100 13300.6 -300
	100 13300.6 -100
	100 13300.6 100
	100 13300.6 300
	300 13300.6 -300
	300 13300.6 -100
	300 13300.6 100
	300 13300.6 300
	-300 13500.8 -300
	-300 13500.8 -100
	-300 13500.8 100
	-300 13500.8 300
	-100 13500.8 -300
	-100 13500.8 -100
	-100 13500.8 100
	-100 13500.8 300
	100 13500.8 -300
	100 13500.8 -100
	100 13500.8 100
	100 13500.8 300
	300 13500.8 -300
	300 13500.8 -100
	300 13500.8 100
	300 13500.8 300
	-300 13701.1 -300
	-300 13701.1 -100
	-300 13701.1 100
	-300 13701.1 300
	-100 13701.1 -300
	-100 13701.1 -100
	-100 13701.1 100
	-100 13701.1 300
	100 13701.1 -300
	100 13701.1 -100
	100 13701.1 100
	100 13701.1 300
	300 13701.1 -300
	300 13701.1 -100
	300 13701.1 100
	300 13701.1 300
	-300 13902.2 -300
	-300 13902.2 -100
	-300 13902.2 100
	-300 13902.2 300
	-100 13902.2 -300
	-100 13902.2 -100
	-100 13902.2 100
	-100 13902.2 300
	100 13902.2 -300
	100 13902.2 -100
	100 13902.2 100
	100 13902.2 300
	300 13902.2 -300
	300 13902.2 -100
	300 13902.2 100
	300 13902.2 300
  </DataArray>
</Points>
<PointData  Vectors="vector">
  <DataArray type="Float32" Name="Velocity" NumberOfComponents="3" format="ascii">
 -4.80275e-06 -0.00469662 -5.07029e-06
 7.57412e-06 -0.00534558 2.81876e-06
 7.5746e-06 -0.00534558 -2.82797e-06
 -4.79656e-06 -0.00469662 5.07872e-06
 2.79366e-06 -0.00534558 7.40256e-06
 -6.9863e-06 -0.00607088 -7.03781e-06
 -6.98622e-06 -0.00607088 7.03792e-06
 2.78874e-06 -0.00534558 -7.40347e-06
 -2.78617e-06 -0.00534558 7.38017e-06
 6.9868e-06 -0.00607088 -7.03031e-06
 6.98612e-06 -0.00607089 7.03105e-06
 -2.79043e-06 -0.00534558 -7.38179e-06
 4.79456e-06 -0.00469662 -5.12274e-06
 -7.57479e-06 -0.00534558 2.80757e-06
 -7.57412e-06 -0.00534558 -2.84866e-06
 4.79882e-06 -0.00469662 5.16291e-06
 6.01066e-07 -0.00416136 9.28348e-07
 1.20943e-06 -0.00277831 3.57517e-06
 1.20924e-06 -0.00277831 -3.57721e-06
 5.55996e-07 -0.00416135 -9.26257e-07
 3.3516e-06 -0.00277831 1.04628e-06
 -1.96519e-06 0.00240602 -1.97478e-06
 -1.96575e-06 0.00240601 1.97508e-06
 3.39792e-06 -0.00277831 -1.04654e-06
 -3.39158e-06 -0.00277831 1.0324e-06
 1.96473e-06 0.00240602 -1.97509e-06
 1.96526e-06 0.00240602 1.97583e-06
 -3.34992e-06 -0.00277831 -1.03316e-06
 -5.61832e-07 -0.00416136 1.05961e-06
 -1.20915e-06 -0.00277831 3.4795e-06
 -1.20855e-06 -0.00277831 -3.49948e-06
 -6.03875e-07 -0.00416135 -1.03966e-06
 -2.8441e-06 0.000945672 -2.80898e-06
 -4.54811e-06 0.00121999 3.79409e-06
 -4.54701e-06 0.00122002 -3.79371e-06
 -2.84275e-06 0.000945675 2.809e-06
 4.01778e-06 0.00121999 -4.5106e-06
 5.3779e-06 -0.00108749 5.22972e-06
 5.37792e-06 -0.0010875 -5.22975e-06
 4.01593e-06 0.00122001 4.51107e-06
 -4.01627e-06 0.00121998 -4.6857e-06
 -5.3781e-06 -0.00108748 5.33682e-06
 -5.37898e-06 -0.00108749 -5.33644e-06
 -4.01696e-06 0.00121999 4.68572e-06
 2.8422e-06 0.000945657 -2.81568e-06
 4.54847e-06 0.00121998 3.7823e-06
 4.54846e-06 0.00121998 -3.78159e-06
 2.8439e-06 0.000945625 2.81536e-06
 -3.44661e-06 0.00249794 -3.46651e-06
 -3.38602e-06 -0.000680877 6.90645e-06
 -3.38595e-06 -0.000680908 -6.90085e-06
 -3.44657e-06 0.00249784 3.46108e-06
 6.9392e-06 -0.000680882 -3.38783e-06
 7.3786e-06 -0.00385043 7.36187e-06
 7.3787e-06 -0.00385043 -7.35765e-06
 6.93953e-06 -0.000680891 3.38379e-06
 -6.93695e-06 -0.000680873 -3.38439e-06
 -7.3752e-06 -0.00385042 7.36021e-06
 -7.37506e-06 -0.00385042 -7.35893e-06
 -6.93627e-06 -0.000680875 3.38326e-06
 3.44406e-06 0.00249797 -3.46033e-06
 3.38278e-06 -0.000680867 6.90361e-06
 3.38263e-06 -0.000680867 -6.90243e-06
 3.44335e-06 0.00249792 3.4593e-06
 -2.25899e-06 0.000892541 -2.25417e-06
 -1.17414e-06 0.00174577 7.1879e-06
 -1.17429e-06 0.00174576 -7.1879e-06
 -2.25895e-06 0.000892621 2.25409e-06
 7.18494e-06 0.00174576 -1.16549e-06
 -2.27307e-07 -0.000884959 -2.60147e-07
 -2.27073e-07 -0.000884938 2.60401e-07
 7.18504e-06 0.00174576 1.16515e-06
 -7.18521e-06 0.00174576 -1.16427e-06
 2.27004e-07 -0.000884969 -2.60026e-07
 2.27205e-07 -0.000884989 2.6031e-07
 -7.1851e-06 0.00174576 1.16385e-06
 2.25888e-06 0.000892526 -2.25118e-06
 1.17437e-06 0.00174577 7.18935e-06
 1.1742e-06 0.00174577 -7.18916e-06
 2.25886e-06 0.000892576 2.25083e-06
 1.47099e-07 -0.00266493 1.52533e-07
 4.87238e-07 0.0017222 1.7408e-06
 4.86833e-07 0.00172219 -1.74091e-06
 1.46498e-07 -0.00266497 -1.52622e-07
 1.73855e-06 0.0017222 4.93704e-07
 2.40185e-06 -0.000482376 2.40456e-06
 2.40232e-06 -0.000482424 -2.40458e-06
 1.73924e-06 0.00172211 -4.93919e-07
 -1.7397e-06 0.00172218 4.94484e-07
 -2.4028e-06 -0.000482372 2.40443e-06
 -2.40229e-06 -0.000482364 -2.40513e-06
 -1.73922e-06 0.00172211 -4.94074e-07
 -1.46278e-07 -0.00266492 1.5379e-07
 -4.86471e-07 0.00172218 1.74101e-06
 -4.86952e-07 0.00172215 -1.74184e-06
 -1.46671e-07 -0.00266495 -1.53266e-07
 -5.52287e-07 0.00107173 -5.51786e-07
 -4.51909e-06 0.000770543 -5.77204e-06
 -4.52318e-06 0.000770562 5.77306e-06
 -5.51706e-07 0.00107173 5.5059e-07
 -5.77296e-06 0.000770547 -4.51907e-06
 -1.62171e-06 -0.0015279 -1.62176e-06
 -1.6177e-06 -0.00152779 1.5939e-06
 -5.77344e-06 0.000770624 4.54671e-06
 5.77498e-06 0.000770563 -4.52651e-06
 1.59706e-06 -0.00152792 -1.61783e-06
 1.60171e-06 -0.00152789 1.60585e-06
 5.77439e-06 0.000770624 4.53821e-06
 5.50052e-07 0.00107173 -5.51796e-07
 4.54357e-06 0.000770562 -5.77197e-06
 4.53907e-06 0.00077059 5.77328e-06
 5.50678e-07 0.00107173 5.50211e-07
 -7.7841e-07 -0.000534988 -7.78383e-07
 6.99538e-07 -0.0019103 2.65879e-06
 6.99391e-07 -0.0019103 -2.65932e-06
 -7.78436e-07 -0.000534945 7.7897e-07
 2.65978e-06 -0.0019103 6.99555e-07
 1.24131e-06 0.000159743 1.24036e-06
 1.24149e-06 0.000159703 -1.24122e-06
 2.65986e-06 -0.00191029 -6.98666e-07
 -2.66034e-06 -0.0019103 6.99593e-07
 -1.24347e-06 0.000159739 1.24031e-06
 -1.24334e-06 0.000159725 -1.24146e-06
 -2.66019e-06 -0.00191028 -6.98468e-07
 7.78955e-07 -0.000534991 -7.78403e-07
 -6.97378e-07 -0.00191029 2.6588e-06
 -6.97487e-07 -0.0019103 -2.65961e-06
 7.78856e-07 -0.000534953 7.79199e-07
 -5.26322e-07 -0.00108275 -5.26369e-07
 -4.98678e-07 -0.000199318 -3.90285e-07
 -4.98653e-07 -0.000199322 3.9065e-07
 -5.26278e-07 -0.00108274 5.26295e-07
 -3.90297e-07 -0.000199317 -4.98722e-07
 -3.63059e-07 5.17132e-06 -3.6305e-07
 -3.63055e-07 5.15066e-06 3.63403e-07
 -3.90287e-07 -0.000199334 4.98641e-07
 3.90567e-07 -0.00019932 -4.98722e-07
 3.63328e-07 5.18284e-06 -3.63062e-07
 3.63329e-07 5.18144e-06 3.63392e-07
 3.90567e-07 -0.000199339 4.98638e-07
 5.26166e-07 -0.00108275 -5.26367e-07
 4.98528e-07 -0.000199325 -3.90312e-07
 4.98543e-07 -0.000199323 3.90633e-07
 5.26189e-07 -0.00108274 5.26302e-07
 -8.03338e-08 -0.00110035 -8.01885e-08
 -9.2482e-08 0.00098374 -1.98705e-07
 -9.24785e-08 0.000983719 1.98981e-07
 -8.03294e-08 -0.00110034 8.03317e-08
 -1.98831e-07 0.000983738 -9.23278e-08
 -1.90702e-07 -4.96009e-05 -1.90582e-07
 -1.90696e-07 -4.96584e-05 1.90854e-07
 -1.9882e-07 0.000983726 9.24745e-08
 1.98927e-07 0.000983742 -9.23337e-08
 1.90809e-07 -4.96064e-05 -1.90584e-07
 1.90818e-07 -4.96235e-05 1.90855e-07
 1.98943e-07 0.000983735 9.24731e-08
 8.03611e-08 -0.00110035 -8.01901e-08
 9.25004e-08 0.000983739 -1.98711e-07
 9.25115e-08 0.00098375 1.98983e-07
 8.03748e-08 -0.00110035 8.03461e-08
 6.75128e-07 0.00119166 6.75264e-07
 6.52319e-07 0.000257439 1.0817e-07
 6.52311e-07 0.000257451 -1.08038e-07
 6.75133e-07 0.00119165 -6.74983e-07
 1.08107e-07 0.00025744 6.52431e-07
 1.10641e-07 -0.000946811 1.1073e-07
 1.10657e-07 -0.000946748 -1.10559e-07
 1.08124e-07 0.000257446 -6.52182e-07
 -1.08087e-07 0.000257438 6.52438e-07
 -1.10641e-07 -0.000946809 1.10738e-07
 -1.10628e-07 -0.000946795 -1.1056e-07
 -1.08085e-07 0.000257443 -6.52192e-07
 -6.75077e-07 0.00119166 6.75282e-07
 -6.52253e-07 0.000257443 1.08207e-07
 -6.5226e-07 0.000257435 -1.08028e-07
 -6.75092e-07 0.00119165 -6.75016e-07
 1.83894e-06 -3.00406e-05 1.83901e-06
 1.80497e-06 0.000429128 4.40885e-07
 1.80495e-06 0.000429142 -4.40734e-07
 1.83889e-06 -3.00419e-05 -1.83887e-06
 4.40855e-07 0.000429127 1.80507e-06
 4.51782e-07 -0.000847175 4.51793e-07
 4.51776e-07 -0.000847158 -4.51638e-07
 4.40831e-07 0.000429142 -1.80493e-06
 -4.40846e-07 0.000429125 1.80507e-06
 -4.51779e-07 -0.000847174 4.51788e-07
 -4.51775e-07 -0.000847166 -4.5163e-07
 -4.40839e-07 0.000429135 -1.80493e-06
 -1.83896e-06 -3.00394e-05 1.83902e-06
 -1.80499e-06 0.000429126 4.40884e-07
 -1.80497e-06 0.000429127 -4.40718e-07
 -1.83892e-06 -3.00397e-05 -1.83887e-06
 3.71489e-06 0.000373032 3.71493e-06
 3.66621e-06 -0.000722033 1.45971e-06
 3.66618e-06 -0.000722029 -1.45965e-06
 3.71484e-06 0.000373032 -3.71487e-06
 1.45967e-06 -0.000722032 3.66626e-06
 1.45158e-06 0.000704064 1.45165e-06
 1.45157e-06 0.000704057 -1.45159e-06
 1.45962e-06 -0.000722041 -3.66618e-06
 -1.4597e-06 -0.000722037 3.66626e-06
 -1.45163e-06 0.000704068 1.45165e-06
 -1.45161e-06 0.000704069 -1.45159e-06
 -1.45968e-06 -0.000722046 -3.66617e-06
 -3.71491e-06 0.000373031 3.71492e-06
 -3.66624e-06 -0.000722038 1.45972e-06
 -3.66623e-06 -0.000722044 -1.45966e-06
 -3.71488e-06 0.00037303 -3.71482e-06
 -1.74308e-06 0.00030611 -1.74304e-06
 -1.2921e-06 0.000316608 2.03325e-06
 -1.29196e-06 0.000316598 -2.03319e-06
 -1.74295e-06 0.000306114 1.74293e-06
 2.03317e-06 0.000316606 -1.29212e-06
 1.80203e-06 0.000397072 1.80206e-06
 1.802e-06 0.000397056 -1.80208e-06
 2.03323e-06 0.000316599 1.29211e-06
 -2.0332e-06 0.000316608 -1.2921e-06
 -1.8021e-06 0.000397073 1.80206e-06
 -1.80207e-06 0.000397066 -1.80208e-06
 -2.03324e-06 0.000316603 1.2921e-06
 1.74301e-06 0.000306108 -1.74293e-06
 1.29206e-06 0.000316608 2.03318e-06
 1.2919e-06 0.000316606 -2.03325e-06
 1.7428e-06 0.000306111 1.743e-06
 -1.10675e-06 -0.000247794 -1.10675e-06
 -9.78203e-07 0.000254668 1.23679e-06
 -9.78222e-07 0.000254667 -1.23683e-06
 -1.1068e-06 -0.000247781 1.10666e-06
 1.2368e-06 0.000254668 -9.78201e-07
 1.22172e-06 -0.00188217 1.22173e-06
 1.22169e-06 -0.00188217 -1.22176e-06
 1.23675e-06 0.000254677 9.78118e-07
 -1.23682e-06 0.000254671 -9.78197e-07
 -1.22177e-06 -0.00188217 1.22173e-06
 -1.22177e-06 -0.00188217 -1.22177e-06
 -1.23681e-06 0.00025468 9.78127e-07
 1.10667e-06 -0.000247791 -1.10673e-06
 9.78139e-07 0.000254672 1.23678e-06
 9.78159e-07 0.000254677 -1.23683e-06
 1.1067e-06 -0.000247776 1.10669e-06
 -5.32685e-06 -0.000514535 -5.32688e-06
 -5.7792e-06 0.000513197 -2.19186e-06
 -5.77921e-06 0.000513198 2.19179e-06
 -5.32686e-06 -0.000514544 5.3268e-06
 -2.19184e-06 0.000513197 -5.77921e-06
 -2.26297e-06 0.000946089 -2.26298e-06
 -2.26298e-06 0.00094609 2.26291e-06
 -2.19186e-06 0.000513197 5.77915e-06
 2.19181e-06 0.000513197 -5.77921e-06
 2.26292e-06 0.00094609 -2.26298e-06
 2.26292e-06 0.00094609 2.26292e-06
 2.19181e-06 0.000513196 5.77915e-06
 5.32682e-06 -0.000514538 -5.32687e-06
 5.77916e-06 0.000513197 -2.19185e-06
 5.77917e-06 0.000513195 2.19181e-06
 5.32679e-06 -0.000514547 5.32681e-06
 3.55163e-08 0.000559618 3.5488e-08
 6.25518e-07 -0.000791726 5.40979e-07
 6.25515e-07 -0.000791725 -5.41041e-07
 3.55074e-08 0.000559615 -3.55499e-08
 5.41006e-07 -0.000791725 6.25496e-07
 7.36728e-07 -0.000223858 7.36708e-07
 7.36724e-07 -0.000223858 -7.36761e-07
 5.40997e-07 -0.000791725 -6.2555e-07
 -5.41015e-07 -0.000791725 6.25499e-07
 -7.36743e-07 -0.000223859 7.3671e-07
 -7.36747e-07 -0.000223858 -7.36758e-07
 -5.41025e-07 -0.000791725 -6.25546e-07
 -3.55259e-08 0.000559618 3.54951e-08
 -6.25535e-07 -0.000791725 5.40987e-07
 -6.25539e-07 -0.000791725 -5.4103e-07
 -3.55379e-08 0.000559615 -3.55373e-08
 -2.91185e-06 -0.00079185 -2.91188e-06
 -1.86567e-06 -0.00107597 -6.54866e-07
 -1.86567e-06 -0.00107597 6.54828e-07
 -2.91186e-06 -0.000791849 2.91184e-06
 -6.54841e-07 -0.00107597 -1.86569e-06
 -3.03624e-07 -0.00145282 -3.03646e-07
 -3.03626e-07 -0.00145282 3.03614e-07
 -6.54845e-07 -0.00107597 1.86566e-06
 6.54853e-07 -0.00107597 -1.86569e-06
 3.03633e-07 -0.00145282 -3.03642e-07
 3.0363e-07 -0.00145282 3.03617e-07
 6.54845e-07 -0.00107597 1.86566e-06
 2.91187e-06 -0.000791851 -2.91187e-06
 1.86568e-06 -0.00107597 -6.54858e-07
 1.86567e-06 -0.00107597 6.54836e-07
 2.91186e-06 -0.000791849 2.91185e-06
 -7.09138e-06 -0.00122877 -7.0914e-06
 -4.94831e-06 -0.00134377 -3.7897e-06
 -4.94831e-06 -0.00134377 3.78972e-06
 -7.09138e-06 -0.00122877 7.09137e-06
 -3.7897e-06 -0.00134377 -4.94831e-06
 -3.33178e-06 -0.00101877 -3.3318e-06
 -3.33178e-06 -0.00101877 3.33179e-06
 -3.7897e-06 -0.00134377 4.94831e-06
 3.78973e-06 -0.00134377 -4.94831e-06
 3.3318e-06 -0.00101877 -3.3318e-06
 3.3318e-06 -0.00101877 3.3318e-06
 3.78972e-06 -0.00134377 4.94831e-06
 7.09138e-06 -0.00122877 -7.09138e-06
 4.94832e-06 -0.00134377 -3.7897e-06
 4.94832e-06 -0.00134377 3.78971e-06
 7.09138e-06 -0.00122877 7.09137e-06
 5.29947e-07 0.0021769 5.29936e-07
 7.5574e-07 0.00129323 2.27261e-06
 7.55748e-07 0.00129323 -2.27259e-06
 5.29939e-07 0.0021769 -5.29942e-07
 2.2726e-06 0.00129323 7.55718e-07
 1.97661e-06 -0.00134975 1.97663e-06
 1.9766e-06 -0.00134975 -1.97661e-06
 2.2726e-06 0.00129324 -7.55723e-07
 -2.27259e-06 0.00129323 7.55719e-07
 -1.97661e-06 -0.00134975 1.97663e-06
 -1.97663e-06 -0.00134975 -1.97661e-06
 -2.2726e-06 0.00129324 -7.55723e-07
 -5.2994e-07 0.0021769 5.2994e-07
 -7.55734e-07 0.00129324 2.27261e-06
 -7.55717e-07 0.00129324 -2.27258e-06
 -5.29945e-07 0.0021769 -5.29945e-07
 2.41815e-07 6.74882e-06 2.41828e-07
 1.97463e-07 -0.00116045 4.78236e-06
 1.97454e-07 -0.00116045 -4.78235e-06
 2.41811e-07 6.74926e-06 -2.41813e-07
 4.78236e-06 -0.00116045 1.97452e-07
 4.0565e-06 0.0011291 4.05653e-06
 4.0565e-06 0.0011291 -4.0565e-06
 4.78235e-06 -0.00116045 -1.97463e-07
 -4.78236e-06 -0.00116045 1.9746e-07
 -4.05651e-06 0.0011291 4.05652e-06
 -4.05651e-06 0.0011291 -4.05649e-06
 -4.78237e-06 -0.00116045 -1.97465e-07
 -2.41824e-07 6.7486e-06 2.41828e-07
 -1.97467e-07 -0.00116045 4.78237e-06