<?xml version="1.0"?>
<VTKFile type="UnstructuredGrid" version="0.1" byte_order="LittleEndian" compressor="vtkZLibDataCompressor">
<UnstructuredGrid>
<Piece NumberOfPoints="960" NumberOfCells="120">
<Points>
<DataArray type="Float32" NumberOfComponents="3" format="ascii">
-4.000000e+02 -6.000000e+03 -4.000000e+02
0.000000e+00 -6.000000e+03 -4.000000e+02
-4.000000e+02 -5.600000e+03 -4.000000e+02
3.609140e-10 -5.600000e+03 -4.000000e+02
-4.000000e+02 -6.000000e+03 0.000000e+00
0.000000e+00 -6.000000e+03 0.000000e+00
-4.000000e+02 -5.600000e+03 -1.572310e-10
3.661270e-10 -5.600000e+03 1.661040e-10
0.000000e+00 -6.000000e+03 -4.000000e+02
4.000000e+02 -6.000000e+03 -4.000000e+02
3.609140e-10 -5.600000e+03 -4.000000e+02
4.000000e+02 -5.600000e+03 -4.000000e+02
0.000000e+00 -6.000000e+03 0.000000e+00
4.000000e+02 -6.000000e+03 0.000000e+00
3.661270e-10 -5.600000e+03 1.661040e-10
4.000000e+02 -5.600000e+03 4.887720e-10
-4.000000e+02 -5.600000e+03 -4.000000e+02
3.609140e-10 -5.600000e+03 -4.000000e+02
-4.000000e+02 -5.200000e+03 -4.000000e+02
1.388810e-09 -5.200000e+03 -4.000000e+02
-4.000000e+02 -5.600000e+03 -1.572310e-10
3.661270e-10 -5.600000e+03 1.661040e-10
-4.000000e+02 -5.200000e+03 -7.201340e-10
1.459990e-09 -5.200000e+03 -8.011000e-10
3.609140e-10 -5.600000e+03 -4.000000e+02
4.000000e+02 -5.600000e+03 -4.000000e+02
1.388810e-09 -5.200000e+03 -4.000000e+02
4.000000e+02 -5.200000e+03 -4.000000e+02
3.661270e-10 -5.600000e+03 1.661040e-10
4.000000e+02 -5.600000e+03 4.887720e-10
1.459990e-09 -5.200000e+03 -8.011000e-10
4.000000e+02 -5.200000e+03 -1.928790e-10
-4.000000e+02 -5.200000e+03 -4.000000e+02
1.388810e-09 -5.200000e+03 -4.000000e+02
-4.000000e+02 -4.800000e+03 -4.000000e+02
2.019460e-09 -4.800000e+03 -4.000000e+02
-4.000000e+02 -5.200000e+03 -7.201340e-10
1.459990e-09 -5.200000e+03 -8.011000e-10
-4.000000e+02 -4.800000e+03 -7.911720e-10
1.990140e-09 -4.800000e+03 -4.286750e-10
1.388810e-09 -5.200000e+03 -4.000000e+02
4.000000e+02 -5.200000e+03 -4.000000e+02
2.019460e-09 -4.800000e+03 -4.000000e+02
4.000000e+02 -4.800000e+03 -4.000000e+02
1.459990e-09 -5.200000e+03 -8.011000e-10
4.000000e+02 -5.200000e+03 -1.928790e-10
1.990140e-09 -4.800000e+03 -4.286750e-10
4.000000e+02 -4.800000e+03 -2.395830e-10
-4.000000e+02 -4.800000e+03 -4.000000e+02
2.019460e-09 -4.800000e+03 -4.000000e+02
-4.000000e+02 -4.400000e+03 -4.000000e+02
1.197170e-09 -4.400000e+03 -4.000000e+02
-4.000000e+02 -4.800000e+03 -7.911720e-10
1.990140e-09 -4.800000e+03 -4.286750e-10
-4.000000e+02 -4.400000e+03 -7.683460e-10
9.382880e-11 -4.400000e+03 -6.257300e-10
2.019460e-09 -4.800000e+03 -4.000000e+02
4.000000e+02 -4.800000e+03 -4.000000e+02
1.197170e-09 -4.400000e+03 -4.000000e+02
4.000000e+02 -4.400000e+03 -4.000000e+02
1.990140e-09 -4.800000e+03 -4.286750e-10
4.000000e+02 -4.800000e+03 -2.395830e-10
9.382880e-11 -4.400000e+03 -6.257300e-10
4.000000e+02 -4.400000e+03 1.149200e-11
-4.000000e+02 -4.400000e+03 -4.000000e+02
1.197170e-09 -4.400000e+03 -4.000000e+02
-4.000000e+02 -4.000000e+03 -4.000000e+02
3.675450e-10 -4.000000e+03 -4.000000e+02
-4.000000e+02 -4.400000e+03 -7.683460e-10
9.382880e-11 -4.400000e+03 -6.257300e-10
-4.000000e+02 -4.000000e+03 -1.060450e-09
4.935100e-11 -4.000000e+03 1.534560e-10
1.197170e-09 -4.400000e+03 -4.000000e+02
4.000000e+02 -4.400000e+03 -4.000000e+02
3.675450e-10 -4.000000e+03 -4.000000e+02
4.000000e+02 -4.000000e+03 -4.000000e+02
9.382880e-11 -4.400000e+03 -6.257300e-10
4.000000e+02 -4.400000e+03 1.149200e-11
4.935100e-11 -4.000000e+03 1.534560e-10
4.000000e+02 -4.000000e+03 2.727540e-10
-4.000000e+02 -4.000000e+03 -4.000000e+02
3.675450e-10 -4.000000e+03 -4.000000e+02
-4.000000e+02 -3.599990e+03 -4.000000e+02
5.353920e-10 -3.599990e+03 -4.000000e+02
-4.000000e+02 -4.000000e+03 -1.060450e-09
4.935100e-11 -4.000000e+03 1.534560e-10
-4.000000e+02 -3.599990e+03 -1.268690e-09
4.053600e-10 -3.599990e+03 -2.677300e-10
3.675450e-10 -4.000000e+03 -4.000000e+02
4.000000e+02 -4.000000e+03 -4.000000e+02
5.353920e-10 -3.599990e+03 -4.000000e+02
4.000000e+02 -3.599990e+03 -4.000000e+02
4.935100e-11 -4.000000e+03 1.534560e-10
4.000000e+02 -4.000000e+03 2.727540e-10
4.053600e-10 -3.599990e+03 -2.677300e-10
4.000000e+02 -3.599990e+03 -5.844450e-10
-4.000000e+02 -3.599990e+03 -4.000000e+02
5.353920e-10 -3.599990e+03 -4.000000e+02
-4.000000e+02 -3.200010e+03 -4.000000e+02
2.276510e-10 -3.200010e+03 -4.000000e+02
-4.000000e+02 -3.599990e+03 -1.268690e-09
4.053600e-10 -3.599990e+03 -2.677300e-10
-4.000000e+02 -3.200010e+03 -2.666060e-10
-2.668020e-10 -3.200010e+03 -2.985250e-10
5.353920e-10 -3.599990e+03 -4.000000e+02
4.000000e+02 -3.599990e+03 -4.000000e+02
2.276510e-10 -3.200010e+03 -4.000000e+02
4.000000e+02 -3.200010e+03 -4.000000e+02
4.053600e-10 -3.599990e+03 -2.677300e-10
4.000000e+02 -3.599990e+03 -5.844450e-10
-2.668020e-10 -3.200010e+03 -2.985250e-10
4.000000e+02 -3.200010e+03 -5.300710e-10
-4.000000e+02 -3.200010e+03 -4.000000e+02
2.276510e-10 -3.200010e+03 -4.000000e+02
-4.000000e+02 -2.800080e+03 -4.000000e+02
-3.006250e-10 -2.800080e+03 -4.000000e+02
-4.000000e+02 -3.200010e+03 -2.666060e-10
-2.668020e-10 -3.200010e+03 -2.985250e-10
-4.000000e+02 -2.800080e+03 6.389760e-10
-7.195590e-10 -2.800080e+03 2.172270e-12
2.276510e-10 -3.200010e+03 -4.000000e+02
4.000000e+02 -3.200010e+03 -4.000000e+02
-3.006250e-10 -2.800080e+03 -4.000000e+02
4.000000e+02 -2.800080e+03 -4.000000e+02
-2.668020e-10 -3.200010e+03 -2.985250e-10
4.000000e+02 -3.200010e+03 -5.300710e-10
-7.195590e-10 -2.800080e+03 2.172270e-12
4.000000e+02 -2.800080e+03 3.128100e-10
-4.000000e+02 -2.800080e+03 -4.000000e+02
-3.006250e-10 -2.800080e+03 -4.000000e+02
-4.000000e+02 -2.400160e+03 -4.000000e+02
-2.917990e-11 -2.400160e+03 -4.000000e+02
-4.000000e+02 -2.800080e+03 6.389760e-10
-7.195590e-10 -2.800080e+03 2.172270e-12
-4.000000e+02 -2.400160e+03 4.480470e-11
-3.305110e-10 -2.400160e+03 2.242920e-11
-3.006250e-10 -2.800080e+03 -4.000000e+02
4.000000e+02 -2.800080e+03 -4.000000e+02
-2.917990e-11 -2.400160e+03 -4.000000e+02
4.000000e+02 -2.400160e+03 -4.000000e+02
-7.195590e-10 -2.800080e+03 2.172270e-12
4.000000e+02 -2.800080e+03 3.128100e-10
-3.305110e-10 -2.400160e+03 2.242920e-11
4.000000e+02 -2.400160e+03 4.446950e-10
-4.000000e+02 -2.400160e+03 -4.000000e+02
-2.917990e-11 -2.400160e+03 -4.000000e+02
-4.000000e+02 -2.000210e+03 -4.000000e+02
1.062170e-10 -2.000210e+03 -4.000000e+02
-4.000000e+02 -2.400160e+03 4.480470e-11
-3.305110e-10 -2.400160e+03 2.242920e-11
-4.000000e+02 -2.000210e+03 6.648810e-11
4.417050e-10 -2.000210e+03 4.758930e-10
-2.917990e-11 -2.400160e+03 -4.000000e+02
4.000000e+02 -2.400160e+03 -4.000000e+02
1.062170e-10 -2.000210e+03 -4.000000e+02
4.000000e+02 -2.000210e+03 -4.000000e+02
-3.305110e-10 -2.400160e+03 2.242920e-11
4.000000e+02 -2.400160e+03 4.446950e-10
4.417050e-10 -2.000210e+03 4.758930e-10
4.000000e+02 -2.000210e+03 7.307320e-10
-4.000000e+02 -2.000210e+03 -4.000000e+02
1.062170e-10 -2.000210e+03 -4.000000e+02
-4.000000e+02 -1.600250e+03 -4.000000e+02
5.022740e-10 -1.600250e+03 -4.000000e+02
-4.000000e+02 -2.000210e+03 6.648810e-11
4.417050e-10 -2.000210e+03 4.758930e-10
-4.000000e+02 -1.600250e+03 3.607370e-11
2.942370e-10 -1.600250e+03 1.456000e-10
1.062170e-10 -2.000210e+03 -4.000000e+02
4.000000e+02 -2.000210e+03 -4.000000e+02
5.022740e-10 -1.600250e+03 -4.000000e+02
4.000000e+02 -1.600250e+03 -4.000000e+02
4.417050e-10 -2.000210e+03 4.758930e-10
4.000000e+02 -2.000210e+03 7.307320e-10
2.942370e-10 -1.600250e+03 1.456000e-10
4.000000e+02 -1.600250e+03 4.279280e-10
-4.000000e+02 -1.600250e+03 -4.000000e+02
5.022740e-10 -1.600250e+03 -4.000000e+02
-4.000000e+02 -1.200270e+03 -4.000000e+02
-1.040600e-10 -1.200270e+03 -4.000000e+02
-4.000000e+02 -1.600250e+03 3.607370e-11
2.942370e-10 -1.600250e+03 1.456000e-10
-4.000000e+02 -1.200270e+03 -5.262700e-10
-1.932460e-10 -1.200270e+03 -2.575950e-10
5.022740e-10 -1.600250e+03 -4.000000e+02
4.000000e+02 -1.600250e+03 -4.000000e+02
-1.040600e-10 -1.200270e+03 -4.000000e+02
4.000000e+02 -1.200270e+03 -4.000000e+02
2.942370e-10 -1.600250e+03 1.456000e-10
4.000000e+02 -1.600250e+03 4.279280e-10
-1.932460e-10 -1.200270e+03 -2.575950e-10
4.000000e+02 -1.200270e+03 -4.347760e-10
-4.000000e+02 -1.200270e+03 -4.000000e+02
-1.040600e-10 -1.200270e+03 -4.000000e+02
-4.000000e+02 -8.002750e+02 -4.000000e+02
-2.508430e-10 -8.002750e+02 -4.000000e+02
-4.000000e+02 -1.200270e+03 -5.262700e-10
-1.932460e-10 -1.200270e+03 -2.575950e-10
-4.000000e+02 -8.002750e+02 -6.482810e-10
-3.930330e-10 -8.002750e+02 -2.820880e-10
-1.040600e-10 -1.200270e+03 -4.000000e+02
4.000000e+02 -1.200270e+03 -4.000000e+02
-2.508430e-10 -8.002750e+02 -4.000000e+02
4.000000e+02 -8.002750e+02 -4.000000e+02
-1.932460e-10 -1.200270e+03 -2.575950e-10
4.000000e+02 -1.200270e+03 -4.347760e-10
-3.930330e-10 -8.002750e+02 -2.820880e-10
4.000000e+02 -8.002750e+02 -3.661380e-10
-4.000000e+02 -8.002750e+02 -4.000000e+02
-2.508430e-10 -8.002750e+02 -4.000000e+02
-4.000000e+02 -4.002790e+02 -4.000000e+02
1.903030e-10 -4.002790e+02 -4.000000e+02
-4.000000e+02 -8.002750e+02 -6.482810e-10
-3.930330e-10 -8.002750e+02 -2.820880e-10
-4.000000e+02 -4.002790e+02 -2.891370e-10
-3.486310e-11 -4.002790e+02 -1.615340e-10
-2.508430e-10 -8.002750e+02 -4.000000e+02
4.000000e+02 -8.002750e+02 -4.000000e+02
1.903030e-10 -4.002790e+02 -4.000000e+02
4.000000e+02 -4.002790e+02 -4.000000e+02
-3.930330e-10 -8.002750e+02 -2.820880e-10
4.000000e+02 -8.002750e+02 -3.661380e-10
-3.486310e-11 -4.002790e+02 -1.615340e-10
4.000000e+02 -4.002790e+02 1.900160e-10
-4.000000e+02 -4.002790e+02 -4.000000e+02
1.903030e-10 -4.002790e+02 -4.000000e+02
-4.000000e+02 -2.803200e-01 -4.000000e+02
1.055130e-10 -2.803130e-01 -4.000000e+02
-4.000000e+02 -4.002790e+02 -2.891370e-10
-3.486310e-11 -4.002790e+02 -1.615340e-10
-4.000000e+02 -2.803130e-01 -2.082270e-10
-7.274220e-12 -2.803060e-01 -2.051160e-10
1.903030e-10 -4.002790e+02 -4.000000e+02
4.000000e+02 -4.002790e+02 -4.000000e+02
1.055130e-10 -2.803130e-01 -4.000000e+02
4.000000e+02 -2.803200e-01 -4.000000e+02
[...]
<PointData>
<DataArray type="Float32" Name="V1" format="ascii">
0.000000e+00
0.000000e+00
5.718900e-08
3.638600e-10
0.000000e+00
0.000000e+00
5.607350e-08
-1.365740e-10
0.000000e+00
0.000000e+00
3.638600e-10
-5.648200e-08
0.000000e+00
0.000000e+00
-1.365740e-10
-5.542930e-08
5.718900e-08
3.638600e-10
-1.247790e-07
-9.615440e-11
5.607350e-08
-1.365740e-10
-1.220920e-07
-6.416520e-10
3.638600e-10
-5.648200e-08
-9.615440e-11
1.238200e-07
-1.365740e-10
-5.542930e-08
-6.416520e-10
1.201280e-07
-1.247790e-07
-9.615440e-11
1.529180e-07
3.527480e-10
-1.220920e-07
-6.416520e-10
1.493510e-07
-1.911500e-10
-9.615440e-11
1.238200e-07
3.527480e-10
-1.521160e-07
-6.416520e-10
1.201280e-07
-1.911500e-10
-1.496030e-07
1.529180e-07
3.527480e-10
1.445440e-09
1.249690e-09
1.493510e-07
-1.911500e-10
1.123350e-08
3.133000e-10
3.527480e-10
-1.521160e-07
1.249690e-09
-3.613590e-10
-1.911500e-10
-1.496030e-07
3.133000e-10
-1.074650e-08
1.445440e-09
1.249690e-09
-4.542280e-07
-1.052570e-10
1.123350e-08
3.133000e-10
-4.742600e-07
-6.599100e-10
1.249690e-09
-3.613590e-10
-1.052570e-10
4.544640e-07
3.133000e-10
-1.074650e-08
-6.599100e-10
4.734740e-07
-4.542280e-07
-1.052570e-10
1.004390e-06
-8.416140e-10
-4.742600e-07
-6.599100e-10
1.031110e-06
8.219660e-10
-1.052570e-10
4.544640e-07
-8.416140e-10
-1.005680e-06
-6.599100e-10
4.734740e-07
8.219660e-10
-1.029430e-06
1.004390e-06
-8.416140e-10
-8.650620e-07
1.672260e-10
1.031110e-06
8.219660e-10
-8.856910e-07
8.810470e-10
-8.416140e-10
-1.005680e-06
1.672260e-10
8.647470e-07
8.219660e-10
-1.029430e-06
8.810470e-10
8.872300e-07
-8.650620e-07
1.672260e-10
-9.216220e-07
2.003830e-10
-8.856910e-07
8.810470e-10
-9.342700e-07
2.259570e-10
1.672260e-10
8.647470e-07
2.003830e-10
9.221880e-07
8.810470e-10
8.872300e-07
2.259570e-10
9.345210e-07
-9.216220e-07
2.003830e-10
3.876890e-06
-1.819150e-10
-9.342700e-07
2.259570e-10
3.981670e-06
5.383870e-10
2.003830e-10
9.221880e-07
-1.819150e-10
-3.877800e-06
2.259570e-10
9.345210e-07
5.383870e-10
-3.980950e-06
3.876890e-06
-1.819150e-10
-4.380800e-06
-6.885270e-10
3.981670e-06
5.383870e-10
-4.643130e-06
-6.155970e-11
-1.819150e-10
-3.877800e-06
-6.885270e-10
4.379620e-06
5.383870e-10
-3.980950e-06
-6.155970e-11
4.642610e-06
-4.380800e-06
-6.885270e-10
-2.073130e-06
1.523380e-11
-4.643130e-06
-6.155970e-11
-1.630250e-06
-1.217850e-10
-6.885270e-10
4.379620e-06
1.523380e-11
2.072860e-06
-6.155970e-11
4.642610e-06
-1.217850e-10
1.629490e-06
-2.073130e-06
1.523380e-11
1.187910e-05
1.591370e-10
-1.630250e-06
-1.217850e-10
1.138860e-05
8.127200e-11
1.523380e-11
2.072860e-06
1.591370e-10
-1.187780e-05
-1.217850e-10
1.629490e-06
8.127200e-11
-1.138860e-05
1.187910e-05
1.591370e-10
-1.161530e-05
-1.985790e-10
1.138860e-05
8.127200e-11
-1.139340e-05
-2.784560e-10
1.591370e-10
-1.187780e-05
-1.985790e-10
1.161470e-05
8.127200e-11
-1.138860e-05
-2.784560e-10
1.139290e-05
-1.161530e-05
-1.985790e-10
-3.856220e-06
-2.489540e-10
-1.139340e-05
-2.784560e-10
-3.668580e-06
1.527620e-10
-1.985790e-10
1.161470e-05
-2.489540e-10
3.855510e-06
-2.784560e-10
1.139290e-05
1.527620e-10
3.668740e-06
-3.856220e-06
-2.489540e-10
1.709210e-05
2.187170e-10
-3.668580e-06
1.527620e-10
1.707340e-05
4.303790e-10
-2.489540e-10
3.855510e-06
2.187170e-10
-1.709110e-05
1.527620e-10
3.668740e-06
4.303790e-10
-1.707290e-05
1.709210e-05
2.187170e-10
-3.715740e-06
3.366730e-11
1.707340e-05
4.303790e-10
-4.067520e-06
1.062880e-10
2.187170e-10
-1.709110e-05
3.366730e-11
3.715900e-06
4.303790e-10
-1.707290e-05
1.062880e-10
4.067610e-06
-3.715740e-06
3.366730e-11
-7.943340e-06
2.202690e-10
-4.067520e-06
1.062880e-10
-8.959920e-06
-1.957800e-10
3.366730e-11
3.715900e-06
2.202690e-10
7.942890e-06
1.062880e-10
4.067610e-06
-1.957800e-10
8.959860e-06
-7.943340e-06
2.202690e-10
-3.528250e-06
-3.262080e-10
-8.959920e-06
-1.957800e-10
-2.091590e-06
4.304370e-12
2.202690e-10
7.942890e-06
-3.262080e-10
3.527620e-06
-1.957800e-10
8.959860e-06
4.304370e-12
2.091110e-06
-3.528250e-06
-3.262080e-10
9.783340e-06
-4.662920e-10
-2.091590e-06
4.304370e-12
9.435130e-06
-1.843080e-10
-3.262080e-10
3.527620e-06
-4.662920e-10
-9.784260e-06
4.304370e-12
2.091110e-06
-1.843080e-10
-9.435570e-06
9.783340e-06
-4.662920e-10
1.241760e-05
-7.102530e-12
9.435130e-06
-1.843080e-10
1.221590e-05
4.298730e-11
-4.662920e-10
-9.784260e-06
-7.102530e-12
-1.241760e-05
-1.843080e-10
-9.435570e-06
4.298730e-11
-1.221580e-05
1.241760e-05
-7.102530e-12
-2.506400e-06
-7.906890e-12
1.221590e-05
4.298730e-11
-2.493380e-06
-7.867090e-12
-7.102530e-12
-1.241760e-05
-7.906890e-12
2.506370e-06
4.298730e-11
-1.221580e-05
-7.867090e-12
2.493280e-06
-2.506400e-06
-7.906890e-12
-2.100810e-05
5.515040e-12
-2.493380e-06
-7.867090e-12
-2.049030e-05
2.852880e-11
-7.906890e-12
2.506370e-06
5.515040e-12
2.100810e-05
-7.867090e-12
2.493280e-06
2.852880e-11
2.049040e-05
-2.100810e-05
5.515040e-12
-4.241410e-06
-4.825880e-12
-2.049030e-05
2.852880e-11
-4.171830e-06
5.501700e-12
5.515040e-12
2.100810e-05
-4.825880e-12
4.241360e-06
2.852880e-11
2.049040e-05
5.501700e-12
4.171870e-06
-4.241410e-06
-4.825880e-12
1.047240e-05
3.458580e-12
-4.171830e-06
5.501700e-12
1.045830e-05
2.891920e-12
-4.825880e-12
4.241360e-06
3.458580e-12
-1.047230e-05
5.501700e-12
4.171870e-06
2.891920e-12
-1.045820e-05
1.047240e-05
3.458580e-12
-4.668440e-07
-1.622290e-11
1.045830e-05
2.891920e-12
-5.906800e-07
-2.579980e-11
3.458580e-12
-1.047230e-05
-1.622290e-11
4.668290e-07
2.891920e-12
-1.045820e-05
-2.579980e-11
5.906650e-07
-4.668440e-07
-1.622290e-11
-8.040500e-06
4.186340e-12
-5.906800e-07
-2.579980e-11
-8.038760e-06
-5.103660e-12
-1.622290e-11
4.668290e-07
4.186340e-12
8.040500e-06
-2.579980e-11
5.906650e-07
-5.103660e-12
8.038760e-06
-8.040500e-06
4.186340e-12
-2.682620e-06
2.486500e-11
-8.038760e-06
-5.103660e-12
-2.552310e-06
2.341290e-11
4.186340e-12
8.040500e-06
2.486500e-11
2.682710e-06
-5.103660e-12
8.038760e-06
2.341290e-11
2.552360e-06
-2.682620e-06
2.486500e-11
1.480440e-06
3.359830e-11
-2.552310e-06
2.341290e-11
1.404700e-06
3.018430e-11
2.486500e-11
2.682710e-06
3.359830e-11
-1.480380e-06
2.341290e-11
2.552360e-06
3.018430e-11
-1.404650e-06
1.480440e-06
3.359830e-11
9.318190e-07
2.390800e-11
1.404700e-06
3.018430e-11
8.224530e-07
1.680090e-11
3.359830e-11
-1.480380e-06
2.390800e-11
-9.317870e-07
3.018430e-11
-1.404650e-06
1.680090e-11
-8.224530e-07
9.318190e-07
2.390800e-11
6.407790e-06
9.509640e-12
8.224530e-07
1.680090e-11
6.469030e-06
9.722870e-12
2.390800e-11
-9.317870e-07
9.509640e-12
-6.407800e-06
1.680090e-11
-8.224530e-07
9.722870e-12
-6.469000e-06
0.000000e+00
0.000000e+00
5.607350e-08
-1.365740e-10
0.000000e+00
0.000000e+00
5.755030e-08
-3.454440e-10
0.000000e+00
0.000000e+00
-1.365740e-10
-5.542930e-08
0.000000e+00
0.000000e+00
-3.454440e-10
-5.888580e-08
5.607350e-08
-1.365740e-10
-1.220920e-07
-6.416520e-10
5.755030e-08
-3.454440e-10
-1.249200e-07
-5.605400e-10
-1.365740e-10
-5.542930e-08
-6.416520e-10
1.201280e-07
-3.454440e-10
-5.888580e-08
-5.605400e-10
1.249990e-07
-1.220920e-07
-6.416520e-10
1.493510e-07
-1.911500e-10
-1.249200e-07
-5.605400e-10
1.541590e-07
3.165680e-10
-6.416520e-10
1.201280e-07
-1.911500e-10
-1.496030e-07
-5.605400e-10
1.249990e-07
3.165680e-10
-1.538290e-07
1.493510e-07
-1.911500e-10
1.123350e-08
3.133000e-10
1.541590e-07
3.165680e-10
8.169850e-10
3.321840e-10
-1.911500e-10
-1.496030e-07
3.133000e-10
-1.074650e-08
3.165680e-10
-1.538290e-07
3.321840e-10
-5.184710e-10
1.123350e-08
3.133000e-10
-4.742600e-07
-6.599100e-10
8.169850e-10
3.321840e-10
-4.550290e-07
9.771930e-11
3.133000e-10
-1.074650e-08
-6.599100e-10
4.734740e-07
3.321840e-10
-5.184710e-10
9.771930e-11
4.553750e-07
-4.742600e-07
-6.599100e-10
1.031110e-06
8.219660e-10
-4.550290e-07
9.771930e-11
1.004530e-06
-3.532410e-10
-6.599100e-10
4.734740e-07
8.219660e-10
-1.029430e-06
9.771930e-11
4.553750e-07
-3.532410e-10
-1.005610e-06
1.031110e-06
8.219660e-10
-8.856910e-07
8.810470e-10
1.004530e-06
-3.532410e-10
-8.646530e-07
-1.093690e-10
8.219660e-10
-1.029430e-06
8.810470e-10
8.872300e-07
-3.532410e-10
-1.005610e-06
-1.093690e-10
8.645900e-07
-8.856910e-07
8.810470e-10
-9.342700e-07
2.259570e-10
-8.646530e-07
-1.093690e-10
-9.211190e-07
-5.042080e-11
8.810470e-10
8.872300e-07
2.259570e-10
9.345210e-07
-1.093690e-10
8.645900e-07
-5.042080e-11
9.210250e-07
-9.342700e-07
2.259570e-10
3.981670e-06
5.383870e-10
-9.211190e-07
-5.042080e-11
3.876050e-06
-8.919560e-10
2.259570e-10
9.345210e-07
5.383870e-10
-3.980950e-06
-5.042080e-11
9.210250e-07
-8.919560e-10
-3.878130e-06
3.981670e-06
5.383870e-10
-4.643130e-06
-6.155970e-11
3.876050e-06
-8.919560e-10
-4.380450e-06
-1.256230e-10
5.383870e-10
-3.980950e-06
-6.155970e-11
4.642610e-06
-8.919560e-10
-3.878130e-06
-1.256230e-10
4.380050e-06
-4.643130e-06
-6.155970e-11
-1.630250e-06
-1.217850e-10
-4.380450e-06
-1.256230e-10
-2.073810e-06
-1.122730e-10
-6.155970e-11
4.642610e-06
-1.217850e-10
1.629490e-06
-1.256230e-10
4.380050e-06
-1.122730e-10
2.073240e-06
-1.630250e-06
-1.217850e-10
1.138860e-05
8.127200e-11
-2.073810e-06
-1.122730e-10
1.187900e-05
1.431510e-10
-1.217850e-10
1.629490e-06
8.127200e-11
-1.138860e-05
-1.122730e-10
2.073240e-06
1.431510e-10
-1.187900e-05
1.138860e-05
8.127200e-11
-1.139340e-05
-2.784560e-10
1.187900e-05
1.431510e-10
-1.161590e-05
2.002920e-10
8.127200e-11
-1.138860e-05
-2.784560e-10
1.139290e-05
1.431510e-10
-1.187900e-05
2.002920e-10
1.161560e-05
-1.139340e-05
-2.784560e-10
-3.668580e-06
1.527620e-10
-1.161590e-05
2.002920e-10
-3.855620e-06
2.479720e-10
-2.784560e-10
1.139290e-05
1.527620e-10
3.668740e-06
2.002920e-10
1.161560e-05
2.479720e-10
3.856140e-06
-3.668580e-06
1.527620e-10
1.707340e-05
4.303790e-10
-3.855620e-06
2.479720e-10
1.709150e-05
6.326610e-10
1.527620e-10
3.668740e-06
4.303790e-10
-1.707290e-05
2.479720e-10
3.856140e-06
6.326610e-10
-1.709070e-05
1.707340e-05
4.303790e-10
-4.067520e-06
1.062880e-10
1.709150e-05
6.326610e-10
-3.716090e-06
1.703870e-10
4.303790e-10
-1.707290e-05
1.062880e-10
4.067610e-06
6.326610e-10
-1.709070e-05
1.703870e-10
3.715880e-06
-4.067520e-06
1.062880e-10
-8.959920e-06
-1.957800e-10
-3.716090e-06
1.703870e-10
-7.943170e-06
-1.694860e-10
1.062880e-10
4.067610e-06
-1.957800e-10
8.959860e-06
1.703870e-10
3.715880e-06
-1.694860e-10
7.942840e-06
-8.959920e-06
-1.957800e-10
-2.091590e-06
4.304370e-12
-7.943170e-06
-1.694860e-10
-3.527840e-06
1.089360e-10
-1.957800e-10
8.959860e-06
4.304370e-12
2.091110e-06
-1.694860e-10
7.942840e-06
1.089360e-10
3.527840e-06
-2.091590e-06
4.304370e-12
9.435130e-06
-1.843080e-10
-3.527840e-06
1.089360e-10
9.783260e-06
-4.461760e-11
4.304370e-12
2.091110e-06
-1.843080e-10
-9.435570e-06
1.089360e-10
3.527840e-06
-4.461760e-11
-9.783350e-06
9.435130e-06
-1.843080e-10
1.221590e-05
4.298730e-11
9.783260e-06
-4.461760e-11
1.241760e-05
5.263600e-11
-1.843080e-10
-9.435570e-06
4.298730e-11
-1.221580e-05
-4.461760e-11
-9.783350e-06
5.263600e-11
-1.241750e-05
1.221590e-05
4.298730e-11
-2.493380e-06
-7.867090e-12
1.241760e-05
5.263600e-11
-2.506370e-06
1.884260e-11
4.298730e-11
-1.221580e-05
-7.867090e-12
2.493280e-06
5.263600e-11
-1.241750e-05
1.884260e-11
2.506370e-06
-2.493380e-06
-7.867090e-12
-2.049030e-05
2.852880e-11
-2.506370e-06
1.884260e-11
-2.100800e-05
3.938850e-11
-7.867090e-12
2.493280e-06
2.852880e-11
2.049040e-05
1.884260e-11
2.506370e-06
3.938850e-11
2.100810e-05
-2.049030e-05
2.852880e-11
-4.171830e-06
5.501700e-12
-2.100800e-05
3.938850e-11
-4.241350e-06
1.827290e-11
2.852880e-11
2.049040e-05
5.501700e-12
4.171870e-06
3.938850e-11
2.100810e-05
1.827290e-11
4.241430e-06
-4.171830e-06
5.501700e-12
1.045830e-05
2.891920e-12
-4.241350e-06
1.827290e-11
1.047240e-05
2.552910e-11
5.501700e-12
4.171870e-06
2.891920e-12
-1.045820e-05
1.827290e-11
4.241430e-06
2.552910e-11
-1.047230e-05
1.045830e-05
2.891920e-12
-5.906800e-07
-2.579980e-11
1.047240e-05
2.552910e-11
-4.668290e-07
-1.929100e-11
2.891920e-12
-1.045820e-05
-2.579980e-11
5.906650e-07
2.552910e-11
-1.047230e-05
-1.929100e-11
4.667810e-07
-5.906800e-07
-2.579980e-11
-8.038760e-06
-5.103660e-12
-4.668290e-07
-1.929100e-11
-8.040490e-06
5.722900e-12
-2.579980e-11
5.906650e-07
-5.103660e-12
8.038760e-06
-1.929100e-11
4.667810e-07
5.722900e-12
8.040500e-06
-8.038760e-06
-5.103660e-12
-2.552310e-06
2.341290e-11
-8.040490e-06
5.722900e-12
-2.682630e-06
3.678540e-11
-5.103660e-12
8.038760e-06
2.341290e-11
2.552360e-06
5.722900e-12
8.040500e-06
3.678540e-11
2.682700e-06
-2.552310e-06
2.341290e-11
1.404700e-06
3.018430e-11
-2.682630e-06
3.678540e-11
1.480420e-06
2.785090e-11
2.341290e-11
2.552360e-06
3.018430e-11
-1.404650e-06
3.678540e-11
2.682700e-06
2.785090e-11
-1.480380e-06
1.404700e-06
3.018430e-11
8.224530e-07
1.680090e-11
1.480420e-06
2.785090e-11
9.318350e-07
1.903520e-11
3.018430e-11
-1.404650e-06
1.680090e-11
-8.224530e-07
2.785090e-11
-1.480380e-06
1.903520e-11
-9.318030e-07
8.224530e-07
1.680090e-11
6.469030e-06
9.722870e-12
9.318350e-07
1.903520e-11
6.407820e-06
4.921260e-12
1.680090e-11
-8.224530e-07
9.722870e-12
-6.469000e-06
1.903520e-11
-9.318030e-07
4.921260e-12
-6.407790e-06
</DataArray>
<DataArray type="Float32" Name="V2" format="ascii">
0.000000e+00
0.000000e+00
3.010190e-05
3.017160e-05
0.000000e+00
0.000000e+00
3.017350e-05
3.022740e-05
0.000000e+00
0.000000e+00
3.017160e-05
3.010750e-05
0.000000e+00
0.000000e+00
3.022740e-05
3.017210e-05
3.010190e-05
3.017160e-05
7.335290e-04
7.334820e-04
3.017350e-05
3.022740e-05
7.334850e-04
7.334440e-04
3.017160e-05
3.010750e-05
7.334820e-04
7.335300e-04
3.022740e-05
3.017210e-05
7.334440e-04
7.334850e-04
7.335290e-04
7.334820e-04
-1.454630e-03
-1.454670e-03
7.334850e-04
7.334440e-04
-1.454670e-03
-1.454720e-03
7.334820e-04
7.335300e-04
-1.454670e-03
-1.454630e-03
7.334440e-04
7.334850e-04
-1.454720e-03
-1.454670e-03
-1.454630e-03
-1.454670e-03
-1.363480e-03
-1.363290e-03
-1.454670e-03
-1.454720e-03
-1.363290e-03
-1.363090e-03
-1.454670e-03
-1.454630e-03
-1.363290e-03
-1.363480e-03
-1.454720e-03
-1.454670e-03
-1.363090e-03
-1.363290e-03
-1.363480e-03
-1.363290e-03
8.569600e-03
8.569320e-03
-1.363290e-03
-1.363090e-03
8.569310e-03
8.569020e-03
-1.363290e-03
-1.363480e-03
8.569320e-03
8.569600e-03
-1.363090e-03
-1.363290e-03
8.569020e-03
8.569320e-03
8.569600e-03
8.569320e-03
2.246100e-03
2.246270e-03
8.569310e-03
8.569020e-03
2.246270e-03
2.246410e-03
8.569320e-03
8.569600e-03
2.246270e-03
2.246090e-03
8.569020e-03
8.569320e-03
2.246410e-03
2.246270e-03
2.246100e-03
2.246270e-03
-3.415950e-02
-3.415960e-02
2.246270e-03
2.246410e-03
-3.415960e-02
-3.415950e-02
2.246270e-03
2.246090e-03
-3.415960e-02
-3.415950e-02
2.246410e-03
2.246270e-03
-3.415950e-02
-3.415960e-02
-3.415950e-02
-3.415960e-02
-5.690850e-02
-5.690800e-02
-3.415960e-02
-3.415950e-02
-5.690800e-02
-5.690770e-02
-3.415960e-02
-3.415950e-02
-5.690800e-02
-5.690850e-02
-3.415950e-02
-3.415960e-02
-5.690770e-02
-5.690800e-02
-5.690850e-02
-5.690800e-02
-4.907030e-02
-4.907140e-02
-5.690800e-02
-5.690770e-02
-4.907140e-02
-4.907200e-02
-5.690800e-02
-5.690850e-02
-4.907140e-02
-4.907030e-02
-5.690770e-02
-5.690800e-02
-4.907200e-02
-4.907140e-02
-4.907030e-02
-4.907140e-02
-3.127110e-02
-3.127280e-02
-4.907140e-02
-4.907200e-02
-3.127280e-02
-3.127490e-02
-4.907140e-02
-4.907030e-02
-3.127280e-02
-3.127110e-02
-4.907200e-02
-4.907140e-02
-3.127490e-02
-3.127280e-02
-3.127110e-02
-3.127280e-02
-1.597610e-02
-1.596770e-02
-3.127280e-02
-3.127490e-02
-1.596770e-02
-1.595890e-02
-3.127280e-02
-3.127110e-02
-1.596770e-02
-1.597610e-02
-3.127490e-02
-3.127280e-02
-1.595890e-02
-1.596770e-02
-1.597610e-02
-1.596770e-02
-8.864740e-03
-8.872940e-03
-1.596770e-02
-1.595890e-02
-8.872940e-03
-8.881280e-03
-1.596770e-02
-1.597610e-02
-8.872940e-03
-8.864740e-03
-1.595890e-02
-1.596770e-02
-8.881280e-03
-8.872940e-03
-8.864740e-03
-8.872940e-03
-4.022730e-03
-4.027060e-03
-8.872940e-03
-8.881280e-03
-4.027060e-03
-4.032170e-03
-8.872940e-03
-8.864740e-03
-4.027060e-03
-4.022730e-03
-8.881280e-03
-8.872940e-03
-4.032170e-03
-4.027060e-03
-4.022730e-03
-4.027060e-03
-1.742710e-03
-1.725400e-03
-4.027060e-03
-4.032170e-03
-1.725400e-03
-1.705760e-03
-4.027060e-03
-4.022730e-03
-1.725400e-03
-1.742710e-03
-4.032170e-03
-4.027060e-03
-1.705760e-03
-1.725400e-03
-1.742710e-03
-1.725400e-03
-6.891110e-04
-6.940870e-04
-1.725400e-03
-1.705760e-03
-6.940860e-04
-7.017020e-04
-1.725400e-03
-1.742710e-03
-6.940870e-04
-6.891110e-04
-1.705760e-03
-1.725400e-03
-7.017020e-04
-6.940850e-04
-6.891110e-04
-6.940870e-04
-7.887380e-04
-8.079670e-04
-6.940860e-04
-7.017020e-04
-8.079670e-04
-8.284920e-04
-6.940870e-04
-6.891110e-04
-8.079670e-04
-7.887380e-04
-7.017020e-04
-6.940850e-04
-8.284920e-04
-8.079680e-04
-7.887380e-04
-8.079670e-04
-6.956930e-04
-7.222610e-04
-8.079670e-04
-8.284920e-04
-7.222620e-04
-7.452510e-04
-8.079670e-04
-7.887380e-04
-7.222610e-04
-6.956930e-04
-8.284920e-04
-8.079680e-04
-7.452510e-04
-7.222620e-04
-6.956930e-04
-7.222610e-04
-1.598200e-04
-1.564740e-04
-7.222620e-04
-7.452510e-04
-1.564740e-04
-1.536230e-04
-7.222610e-04
-6.956930e-04
-1.564740e-04
-1.598220e-04
-7.452510e-04
-7.222620e-04
-1.536230e-04
-1.564750e-04
-1.598200e-04
-1.564740e-04
5.766970e-05
5.027830e-05
-1.564740e-04
-1.536230e-04
5.027750e-05
4.148490e-05
-1.564740e-04
-1.598220e-04
5.027830e-05
5.766870e-05
-1.536230e-04
-1.564750e-04
4.148490e-05
5.027810e-05
5.766970e-05
5.027830e-05
2.066060e-04
2.127340e-04
5.027750e-05
4.148490e-05
2.127330e-04
2.198460e-04
5.027830e-05
5.766870e-05
2.127340e-04
2.066060e-04
4.148490e-05
5.027810e-05
2.198460e-04
2.127340e-04
2.066060e-04
2.127340e-04
1.253230e-04
1.639120e-04
2.127330e-04
2.198460e-04
1.639120e-04
1.950020e-04
2.127340e-04
2.066060e-04
1.639120e-04
1.253240e-04
2.198460e-04
2.127340e-04
1.950020e-04
1.639130e-04
1.253230e-04
1.639120e-04
-3.256930e-05
-2.795370e-05
1.639120e-04
1.950020e-04
-2.795340e-05
-2.754920e-05
1.639120e-04
1.253240e-04
-2.795370e-05
-3.256980e-05
1.950020e-04
1.639130e-04
-2.754920e-05
-2.795350e-05
-3.256930e-05
-2.795370e-05
-1.338940e-04
-1.158250e-04
-2.795340e-05
-2.754920e-05
-1.158250e-04
-1.057050e-04
-2.795370e-05
-3.256980e-05
-1.158250e-04
-1.338940e-04
-2.754920e-05
-2.795350e-05
-1.057050e-04
-1.158250e-04
-1.338940e-04
-1.158250e-04
-3.702510e-04
-3.865630e-04
-1.158250e-04
-1.057050e-04
-3.865640e-04
-3.943120e-04
-1.158250e-04
-1.338940e-04
-3.865630e-04
-3.702500e-04
-1.057050e-04
-1.158250e-04
-3.943120e-04
-3.865630e-04
-3.702510e-04
-3.865630e-04
-7.735720e-04
-7.962560e-04
-3.865640e-04
-3.943120e-04
-7.962560e-04
-8.115780e-04
-3.865630e-04
-3.702500e-04
-7.962560e-04
-7.735730e-04
-3.943120e-04
-3.865630e-04
-8.115780e-04
-7.962560e-04
-7.735720e-04
-7.962560e-04
-1.163340e-04
-7.211920e-05
-7.962560e-04
-8.115780e-04
-7.211960e-05
-3.622650e-05
-7.962560e-04
-7.735730e-04
-7.211920e-05
-1.163340e-04
-8.115780e-04
-7.962560e-04
-3.622650e-05
-7.211980e-05
-1.163340e-04
-7.211920e-05
9.774210e-04
9.938370e-04
-7.211960e-05
-3.622650e-05
9.938370e-04
1.011340e-03
-7.211920e-05
-1.163340e-04
9.938370e-04
9.774210e-04
-3.622650e-05
-7.211980e-05
1.011340e-03
9.938370e-04
9.774210e-04
9.938370e-04
7.605420e-04
7.400580e-04
9.938370e-04
1.011340e-03
7.400580e-04
7.228920e-04
9.938370e-04
9.774210e-04
7.400580e-04
7.605420e-04
1.011340e-03
9.938370e-04
7.228920e-04
7.400580e-04
7.605420e-04
7.400580e-04
-5.002440e-04
-5.212810e-04
7.400580e-04
7.228920e-04
-5.212810e-04
-5.413970e-04
7.400580e-04
7.605420e-04
-5.212810e-04
-5.002440e-04
7.228920e-04
7.400580e-04
-5.413970e-04
-5.212810e-04
-5.002440e-04
-5.212810e-04
-7.433940e-04
-7.621670e-04
-5.212810e-04
-5.413970e-04
-7.621670e-04
-7.801980e-04
-5.212810e-04
-5.002440e-04
-7.621670e-04
-7.433940e-04
-5.413970e-04
-5.212810e-04
-7.801980e-04
-7.621670e-04
0.000000e+00
0.000000e+00
3.017350e-05
3.022740e-05
0.000000e+00
0.000000e+00
3.010100e-05
3.016620e-05
0.000000e+00
0.000000e+00
3.022740e-05
3.017210e-05
0.000000e+00
0.000000e+00
3.016620e-05
3.010190e-05
3.017350e-05
3.022740e-05
7.334850e-04
7.334440e-04
3.010100e-05
3.016620e-05
7.335270e-04
7.334860e-04
3.022740e-05
3.017210e-05
7.334440e-04
7.334850e-04
3.016620e-05
3.010190e-05