MercuryDPM 0.14 name oneDimChain revision 6406 repository https://svn.mercurydpm.org/SourceCode/Branches/OomphlibCouplingExplicit
dataFile    fileType ONE_FILE saveCount 92 counter 103 lastSavedTimeStep 9332
fStatFile   fileType ONE_FILE saveCount 92 counter 103 lastSavedTimeStep 9332
eneFile     fileType ONE_FILE saveCount 92 counter 103 lastSavedTimeStep 9332
restartFile fileType ONE_FILE saveCount 92 counter 103 lastSavedTimeStep 9332
statFile    fileType ONE_FILE saveCount 92 counter 0
interactionFile fileType NO_FILE saveCount 0 counter 0
xMin -500 xMax 500 yMin -5000 yMax 5000 zMin -500 zMax 500
timeStep 0.0107162522263564 time 100.004065776375 ntimeSteps 9332 timeMax 100
systemDimensions 3 particleDimensions 3 gravity 0 0 -0 writeVTK 1 MULTIPLE_FILES NO_FILE 103 103 0 0 random  0 1103515245 12345 1073741824 607 273 784607267
Species 1
LinearViscoelasticReversibleAdhesiveSpecies id 0 density 2500 stiffness 13333333333.3333 dissipation -0 adhesionForceMax 0 adhesionStiffness 13333333333.3333
Walls 0
Boundaries 0
Particles 3240
BaseParticle id 0 indSpecies 0 position -333.333568739774 2066.41102133409 -333.333568201328 orientation 1 0 0 0 velocity 3.18927238973012e-05 0.0296702452764402 3.21166225708769e-05 angularVelocity 0 0 0 force 16916.0803435521 -264644836.443972 17460.0833388924 torque 0 0 0 radius 66.6666666666667 invMass 3.22288759761088e-10
BaseParticle id 1 indSpecies 0 position -333.333363766322 2066.34505594903 -199.999997431905 orientation 1 0 0 0 velocity -6.3784842773784e-05 0.0699660054195518 -1.47069666869059e-05 angularVelocity 0 0 0 force -69229.0070130122 87042692.9683289 12479.9687832125 torque 0 0 0 radius 66.6666666666667 invMass 3.22288759761088e-10
BaseParticle id 2 indSpecies 0 position -333.333390582917 2066.39872677943 -66.6666654676263 orientation 1 0 0 0 velocity -5.14463671049211e-05 0.0708754411968133 -3.60258046526807e-05 angularVelocity 0 0 0 force 18446.1617266346 -307040496.613552 -47361.4582318909 torque 0 0 0 radius 66.6666666666667 invMass 3.22288759761088e-10
BaseParticle id 3 indSpecies 0 position -333.333389872411 2066.39865919373 66.6666639545844 orientation 1 0 0 0 velocity -5.09301182869796e-05 0.07080692198444 3.47514819837485e-05 angularVelocity 0 0 0 force 18347.6274244921 -306817693.865345 48195.6101636463 torque 0 0 0 radius 66.6666666666667 invMass 3.22288759761088e-10
BaseParticle id 4 indSpecies 0 position -333.333364637566 2066.34492026521 199.999998598606 orientation 1 0 0 0 velocity -6.25685313933809e-05 0.0698932344623827 1.42413373981392e-05 angularVelocity 0 0 0 force -69271.1457539555 86992807.3323325 -11624.9176833231 torque 0 0 0 radius 66.6666666666667 invMass 3.22288759761088e-10
BaseParticle id 5 indSpecies 0 position -333.333569013928 2066.41096890415 333.333570692229 orientation 1 0 0 0 velocity 3.18169781330859e-05 0.0300804128701768 -3.28373290453741e-05 angularVelocity 0 0 0 force 16446.5307101734 -264532475.329337 -16553.6969260371 torque 0 0 0 radius 66.6666666666667 invMass 3.22288759761088e-10
BaseParticle id 6 indSpecies 0 position -199.999994161567 2066.34488413052 -333.333363803779 orientation 1 0 0 0 velocity -1.37487813720792e-05 0.069949997677659 -5.37680743113252e-05 angularVelocity 0 0 0 force 11968.9160208458 87046343.6816346 -79373.1033293996 torque 0 0 0 radius 66.6666666666667 invMass 3.22288759761088e-10
BaseParticle id 7 indSpecies 0 position -200.00003803543 2066.36182269898 -200.00003889293 orientation 1 0 0 0 velocity -1.40409236283327e-05 0.00197738676859711 -2.09841881950584e-05 angularVelocity 0 0 0 force 99568.3164307362 85968669.0852981 110702.281984641 torque 0 0 0 radius 66.6666666666667 invMass 3.22288759761088e-10
BaseParticle id 8 indSpecies 0 position -200.000027909362 2066.39001146445 -66.6666892932638 orientation 1 0 0 0 velocity -1.9217949816988e-05 0.0514749944819989 -1.71566419372739e-05 angularVelocity 0 0 0 force 12592.2288514652 -290134594.328321 4775.4556264 torque 0 0 0 radius 66.6666666666667 invMass 3.22288759761088e-10
BaseParticle id 9 indSpecies 0 position -200.000029014619 2066.38977151914 66.6666874829442 orientation 1 0 0 0 velocity -2.00257073753064e-05 0.0519050279596277 8.05710967257261e-06 angularVelocity 0 0 0 force 12492.7282709435 -288312076.2484 -4117.1209170425 torque 0 0 0 radius 66.6666666666667 invMass 3.22288759761088e-10
BaseParticle id 10 indSpecies 0 position -200.000038928303 2066.36200839584 200.000042409775 orientation 1 0 0 0 velocity -1.53501165630571e-05 0.00215242771015615 2.28257784248981e-05 angularVelocity 0 0 0 force 99027.4455724468 85925428.3002329 -156509.141329779 torque 0 0 0 radius 66.6666666666667 invMass 3.22288759761088e-10
BaseParticle id 11 indSpecies 0 position -199.999994853502 2066.34485427267 333.333363807881 orientation 1 0 0 0 velocity -1.39541105880458e-05 0.0698626792067725 5.83777245741067e-05 angularVelocity 0 0 0 force 11511.9499475131 86977303.7334527 126517.854847794 torque 0 0 0 radius 66.6666666666667 invMass 3.22288759761088e-10
BaseParticle id 12 indSpecies 0 position -66.666659966142 2066.39885067291 -333.333387133905 orientation 1 0 0 0 velocity -2.84098530450167e-05 0.0710608640363607 -5.00330317408844e-05 angularVelocity 0 0 0 force -164743.153518701 -307383850.219519 18959.696747264 torque 0 0 0 radius 66.6666666666667 invMass 3.22288759761088e-10
BaseParticle id 13 indSpecies 0 position -66.6666933659942 2066.39001979953 -200.000031701463 orientation 1 0 0 0 velocity -1.58284369271803e-05 0.0514935991641418 -2.19606975660627e-05 angularVelocity 0 0 0 force 4260.17423358743 -290214474.165129 13074.2408968735 torque 0 0 0 radius 66.6666666666667 invMass 3.22288759761088e-10
BaseParticle id 14 indSpecies 0 position -66.6666626744584 2066.36939409241 -66.666661880443 orientation 1 0 0 0 velocity -1.93154861518259e-05 0.038066147515317 -1.86750846776532e-05 angularVelocity 0 0 0 force -102419.117462998 -161793576.289124 -119994.828340607 torque 0 0 0 radius 66.6666666666667 invMass 3.22288759761088e-10
BaseParticle id 15 indSpecies 0 position -66.6666622217907 2066.36936828701 66.666662083971 orientation 1 0 0 0 velocity -1.89917181211344e-05 0.0380582549908607 1.74929795453488e-05 angularVelocity 0 0 0 force -102656.863256999 -161902896.872186 120475.332697636 torque 0 0 0 radius 66.6666666666667 invMass 3.22288759761088e-10
BaseParticle id 16 indSpecies 0 position -66.6666911384942 2066.38963422152 200.000032070598 orientation 1 0 0 0 velocity -1.37725854439911e-05 0.0522650445162063 2.09027218267133e-05 angularVelocity 0 0 0 force 3993.89507292298 -288534806.610409 -12606.0567781037 torque 0 0 0 radius 66.6666666666667 invMass 3.22288759761088e-10
BaseParticle id 17 indSpecies 0 position -66.6666602992793 2066.39903539365 333.333387826092 orientation 1 0 0 0 velocity -2.84225919648397e-05 0.0707602055640082 4.93960794015371e-05 angularVelocity 0 0 0 force -168618.791911128 -305528760.568986 -18477.8151034411 torque 0 0 0 radius 66.6666666666667 invMass 3.22288759761088e-10
BaseParticle id 18 indSpecies 0 position 66.6666606896218 2066.39882848065 -333.333387664506 orientation 1 0 0 0 velocity 2.79935200334918e-05 0.0709586279890601 -5.02375750458472e-05 angularVelocity 0 0 0 force 164487.316346248 -307746712.75039 18891.2071038223 torque 0 0 0 radius 66.6666666666667 invMass 3.22288759761088e-10
BaseParticle id 19 indSpecies 0 position 66.6666930963043 2066.38985052152 -200.000031653019 orientation 1 0 0 0 velocity 1.49568898783056e-05 0.051709381755729 -2.18840314389409e-05 angularVelocity 0 0 0 force -4656.22447798023 -288306352.586658 13002.5717545798 torque 0 0 0 radius 66.6666666666667 invMass 3.22288759761088e-10
BaseParticle id 20 indSpecies 0 position 66.6666626454547 2066.36935472963 -66.6666619355748 orientation 1 0 0 0 velocity 1.90189489962298e-05 0.0380346738033976 -1.84756081228042e-05 angularVelocity 0 0 0 force 101867.649842261 -161770534.092523 -121939.119280889 torque 0 0 0 radius 66.6666666666667 invMass 3.22288759761088e-10
BaseParticle id 21 indSpecies 0 position 66.6666630870911 2066.36933990562 66.666661889361 orientation 1 0 0 0 velocity 1.93782227937916e-05 0.03805651685995 1.70292431927326e-05 angularVelocity 0 0 0 force 101926.840875957 -161923101.735123 122240.186610529 torque 0 0 0 radius 66.6666666666667 invMass 3.22288759761088e-10
BaseParticle id 22 indSpecies 0 position 66.6666925527088 2066.38963483677 200.000032290218 orientation 1 0 0 0 velocity 1.47061139686581e-05 0.0522367922463528 2.10814648570265e-05 angularVelocity 0 0 0 force -4923.51949590112 -288425410.855121 -12708.9795545951 torque 0 0 0 radius 66.6666666666667 invMass 3.22288759761088e-10
BaseParticle id 23 indSpecies 0 position 66.6666600989881 2066.39901892533 333.333387907814 orientation 1 0 0 0 velocity 2.76842423081888e-05 0.0707753573686615 4.93468675478809e-05 angularVelocity 0 0 0 force 167488.353696471 -304207981.537193 -18616.5788140819 torque 0 0 0 radius 66.6666666666667 invMass 3.22288759761088e-10
BaseParticle id 24 indSpecies 0 position 199.999994589978 2066.34486899113 -333.333364236334 orientation 1 0 0 0 velocity 1.3501538818645e-05 0.0699355089820379 -5.23046732126321e-05 angularVelocity 0 0 0 force -12272.3626272602 87013024.9794971 -88718.7146963106 torque 0 0 0 radius 66.6666666666667 invMass 3.22288759761088e-10
BaseParticle id 25 indSpecies 0 position 200.000038814804 2066.36177905303 -200.000040007507 orientation 1 0 0 0 velocity 1.47516386921424e-05 0.00197906277545217 -2.43784937323333e-05 angularVelocity 0 0 0 force -104920.55030308 85941474.5417325 119626.113923539 torque 0 0 0 radius 66.6666666666667 invMass 3.22288759761088e-10
BaseParticle id 26 indSpecies 0 position 200.00002794668 2066.3896568143 -66.6666871678756 orientation 1 0 0 0 velocity 1.8859283850018e-05 0.0522787653113563 -1.61047553620127e-05 angularVelocity 0 0 0 force -13187.4648179788 -289415004.775002 4545.20849643375 torque 0 0 0 radius 66.6666666666667 invMass 3.22288759761088e-10
BaseParticle id 27 indSpecies 0 position 200.000027534661 2066.38964884064 66.6666872588172 orientation 1 0 0 0 velocity 1.86082477522167e-05 0.0522493992801161 7.23192393213108e-06 angularVelocity 0 0 0 force -13277.0533448383 -288801594.049414 -4407.51877473648 torque 0 0 0 radius 66.6666666666667 invMass 3.22288759761088e-10
BaseParticle id 28 indSpecies 0 position 200.000037782665 2066.3619163143 200.000042126966 orientation 1 0 0 0 velocity 1.40914282723219e-05 0.0021424764303948 2.51777226282367e-05 angularVelocity 0 0 0 force -93766.5883356358 85917479.5716327 -171311.385901109 torque 0 0 0 radius 66.6666666666667 invMass 3.22288759761088e-10
BaseParticle id 29 indSpecies 0 position 199.999994629754 2066.34482699352 333.333362448285 orientation 1 0 0 0 velocity 1.3171135005937e-05 0.0698516902549058 5.69387712179868e-05 angularVelocity 0 0 0 force -12714.5794450344 86974755.159374 140587.731532726 torque 0 0 0 radius 66.6666666666667 invMass 3.22288759761088e-10
BaseParticle id 30 indSpecies 0 position 333.333568867201 2066.41113451356 -333.333567985713 orientation 1 0 0 0 velocity -3.22606048468443e-05 0.0300550244143279 3.19343816141968e-05 angularVelocity 0 0 0 force -17291.1872293478 -264570198.979383 17122.4265829358 torque 0 0 0 radius 66.6666666666667 invMass 3.22288759761088e-10
BaseParticle id 31 indSpecies 0 position 333.333364153335 2066.3448261854 -199.999997577184 orientation 1 0 0 0 velocity 6.27207605323906e-05 0.0699147697019524 -1.50270281212173e-05 angularVelocity 0 0 0 force 73645.1358707757 86999606.8615074 12128.2267543649 torque 0 0 0 radius 66.6666666666667 invMass 3.22288759761088e-10
BaseParticle id 32 indSpecies 0 position 333.33339104919 2066.39869247864 -66.6666658497263 orientation 1 0 0 0 velocity 5.06447250823879e-05 0.0708071213366298 -3.61062315454589e-05 angularVelocity 0 0 0 force -19113.2851911734 -306909924.195494 -45348.859774726 torque 0 0 0 radius 66.6666666666667 invMass 3.22288759761088e-10
BaseParticle id 33 indSpecies 0 position 333.333390527339 2066.39910642195 66.6666637520654 orientation 1 0 0 0 velocity 5.02456499390847e-05 0.0706829741384484 3.44859145723161e-05 angularVelocity 0 0 0 force -19207.1477982976 -305799051.699614 45334.5462778605 torque 0 0 0 radius 66.6666666666667 invMass 3.22288759761088e-10
BaseParticle id 34 indSpecies 0 position 333.333363966301 2066.34487350395 199.999997921974 orientation 1 0 0 0 velocity 6.08901040708932e-05 0.0698724441069943 1.40521304053475e-05 angularVelocity 0 0 0 force 61940.6213771535 86980471.6617037 -12171.8774197724 torque 0 0 0 radius 66.6666666666667 invMass 3.22288759761088e-10
BaseParticle id 35 indSpecies 0 position 333.333568615011 2066.41103812443 333.333569803468 orientation 1 0 0 0 velocity -3.26058058150692e-05 0.030436909312003 -3.309860587745e-05 angularVelocity 0 0 0 force -17772.2398342733 -263783372.097523 -17211.1959432687 torque 0 0 0 radius 66.6666666666667 invMass 3.22288759761088e-10
BaseParticle id 36 indSpecies 0 position -333.333366686223 2199.71870348723 -333.333373649267 orientation 1 0 0 0 velocity -2.68963593550202e-05 0.058758514200591 -3.41448383769323e-05 angularVelocity 0 0 0 force 30377.1737553635 165041149.247211 30508.7431066879 torque 0 0 0 radius 66.6666666666667 invMass 3.22288759761088e-10
BaseParticle id 37 indSpecies 0 position -333.33355371449 2199.70136883172 -200.000008043074 orientation 1 0 0 0 velocity -2.95040962422814e-06 0.0209569351740325 2.6136015974846e-05 angularVelocity 0 0 0 force 29887.4458981466 -224015365.2244 3227.9587850692 torque 0 0 0 radius 66.6666666666667 invMass 3.22288759761088e-10
BaseParticle id 38 indSpecies 0 position -333.333440138289 2199.70345331546 -66.6666759523879 orientation 1 0 0 0 velocity -4.42073173867313e-07 0.0322809796423006 4.7448512901829e-05 angularVelocity 0 0 0 force 30045.9801261615 445014274.399578 23005.6452221377 torque 0 0 0 radius 66.6666666666667 invMass 3.22288759761088e-10
BaseParticle id 39 indSpecies 0 position -333.333440332049 2199.70340317934 66.6666794610539 orientation 1 0 0 0 velocity -4.5840332062486e-07 0.032443233562268 -3.88058138751167e-05 angularVelocity 0 0 0 force 29994.4136004423 444782032.97722 -76697.7808783155 torque 0 0 0 radius 66.6666666666667 invMass 3.22288759761088e-10
BaseParticle id 40 indSpecies 0 position -333.333552945455 2199.70135619577 200.000007546471 orientation 1 0 0 0 velocity -2.84836603528909e-06 0.0209344178100788 -3.12479915669883e-05 angularVelocity 0 0 0 force 29746.7375165178 -224599686.842396 49894.1342964615 torque 0 0 0 radius 66.6666666666667 invMass 3.22288759761088e-10
BaseParticle id 41 indSpecies 0 position -333.333368528107 2199.71866498196 333.333367785351 orientation 1 0 0 0 velocity -2.71312739452064e-05 0.0585014571215323 2.80966202227367e-05 angularVelocity 0 0 0 force 30140.6655996952 166411569.31823 -30821.51242866 torque 0 0 0 radius 66.6666666666667 invMass 3.22288759761088e-10
BaseParticle id 42 indSpecies 0 position -200.000011698473 2199.7013654507 -333.333552690186 orientation 1 0 0 0 velocity 2.9233806575603e-05 0.0209325782715388 -2.71247432727503e-06 angularVelocity 0 0 0 force -37079.8467509885 -224123541.029447 30051.3226722525 torque 0 0 0 radius 66.6666666666667 invMass 3.22288759761088e-10
BaseParticle id 43 indSpecies 0 position -200.000109861363 2199.70158688661 -200.00011119128 orientation 1 0 0 0 velocity 4.67346810852309e-06 -0.000133416878444915 4.5305320753196e-06 angularVelocity 0 0 0 force 19518.9881580738 -171388332.716646 19650.6656726258 torque 0 0 0 radius 66.6666666666667 invMass 3.22288759761088e-10
BaseParticle id 44 indSpecies 0 position -200.000102588283 2199.69604241583 -66.6666944352074 orientation 1 0 0 0 velocity 1.42304417332495e-05 0.0484040146818418 1.20764302184651e-06 angularVelocity 0 0 0 force 19258.1331784286 317847041.504319 6690.28193225776 torque 0 0 0 radius 66.6666666666667 invMass 3.22288759761088e-10
BaseParticle id 45 indSpecies 0 position -200.000102997807 2199.69593605127 66.6666932602292 orientation 1 0 0 0 velocity 1.41897623486919e-05 0.0481146955517173 -2.07489656914884e-06 angularVelocity 0 0 0 force 19224.9381395237 317229565.44495 -7043.02453163457 torque 0 0 0 radius 66.6666666666667 invMass 3.22288759761088e-10
BaseParticle id 46 indSpecies 0 position -200.000110735602 2199.70184666637 200.000110769402 orientation 1 0 0 0 velocity 4.56978472505547e-06 1.2839600340592e-05 -5.32280823534393e-06 angularVelocity 0 0 0 force 19412.0286840454 -173262844.939624 -20005.2486269066 torque 0 0 0 radius 66.6666666666667 invMass 3.22288759761088e-10
BaseParticle id 47 indSpecies 0 position -200.000012493134 2199.70136207859 333.333551149855 orientation 1 0 0 0 velocity 3.05968478004238e-05 0.0209555421407668 1.78214414448702e-06 angularVelocity 0 0 0 force -43760.7420234416 -224796267.509765 -30408.1154018442 torque 0 0 0 radius 66.6666666666667 invMass 3.22288759761088e-10
BaseParticle id 48 indSpecies 0 position -66.666682621139 2199.7035516364 -333.333439396767 orientation 1 0 0 0 velocity 3.68275041319129e-05 0.0318505352523476 -3.37781017484704e-07 angularVelocity 0 0 0 force 62984.4732695254 445343550.067672 30208.496437365 torque 0 0 0 radius 66.6666666666667 invMass 3.22288759761088e-10
BaseParticle id 49 indSpecies 0 position -66.6666954481941 2199.69604460866 -200.000103258685 orientation 1 0 0 0 velocity 1.24581635959659e-06 0.0484063570167258 1.42592418515138e-05 angularVelocity 0 0 0 force 6569.25468112764 318065665.117691 19405.0440812059 torque 0 0 0 radius 66.6666666666667 invMass 3.22288759761088e-10
BaseParticle id 50 indSpecies 0 position -66.6667579560745 2199.68479596427 -66.666755973796 orientation 1 0 0 0 velocity -1.1327851248855e-05 0.0162644785431588 -1.13358962458149e-05 angularVelocity 0 0 0 force 6310.31972889405 68480771.0312611 6443.78142250248 torque 0 0 0 radius 66.6666666666667 invMass 3.22288759761088e-10
BaseParticle id 51 indSpecies 0 position -66.6667580530963 2199.68476312397 66.6667542601602 orientation 1 0 0 0 velocity -1.13585360997202e-05 0.0162415079407772 1.04096341116788e-05 angularVelocity 0 0 0 force 6287.40003871289 68599605.1629292 -6851.59126065732 torque 0 0 0 radius 66.6666666666667 invMass 3.22288759761088e-10
BaseParticle id 52 indSpecies 0 position -66.6666960108222 2199.69578380751 200.000104789685 orientation 1 0 0 0 velocity 1.14258711377006e-06 0.0481735176155564 -1.50475176708759e-05 angularVelocity 0 0 0 force 6489.466314892 322119340.377562 -43488.1161255548 torque 0 0 0 radius 66.6666666666667 invMass 3.22288759761088e-10
BaseParticle id 53 indSpecies 0 position -66.6666839095282 2199.70387549521 333.333436101782 orientation 1 0 0 0 velocity 3.5306302732434e-05 0.0326825148228517 -6.6181634920177e-07 angularVelocity 0 0 0 force 69368.4990835752 443527535.094715 -6966.86391740594 torque 0 0 0 radius 66.6666666666667 invMass 3.22288759761088e-10
BaseParticle id 54 indSpecies 0 position 66.6666810626868 2199.70350389883 -333.333439964906 orientation 1 0 0 0 velocity -4.166638393141e-05 0.031895402306107 -3.79193623195818e-07 angularVelocity 0 0 0 force -55397.0260558863 445667098.386128 30201.301808205 torque 0 0 0 radius 66.6666666666667 invMass 3.22288759761088e-10
BaseParticle id 55 indSpecies 0 position 66.6666956860597 2199.69601473654 -200.000104245201 orientation 1 0 0 0 velocity -1.58940731618469e-06 0.048383355157897 1.41163089030482e-05 angularVelocity 0 0 0 force -7195.09425188891 319652441.797056 19396.5122883516 torque 0 0 0 radius 66.6666666666667 invMass 3.22288759761088e-10
BaseParticle id 56 indSpecies 0 position 66.6667574451936 2199.68475879562 -66.6667546191876 orientation 1 0 0 0 velocity 1.08645818329809e-05 0.0163149706119567 -1.12000870991625e-05 angularVelocity 0 0 0 force -6967.90188768096 69083292.7655365 6438.11128843521 torque 0 0 0 radius 66.6666666666667 invMass 3.22288759761088e-10
BaseParticle id 57 indSpecies 0 position 66.6667576847894 2199.6847336286 66.6667544614121 orientation 1 0 0 0 velocity 1.08877962613869e-05 0.0162768757888151 1.03406197176829e-05 angularVelocity 0 0 0 force -6979.40745988573 69200089.3458475 -6870.73481566581 torque 0 0 0 radius 66.6666666666667 invMass 3.22288759761088e-10
BaseParticle id 58 indSpecies 0 position 66.6666957446143 2199.69579257751 200.000102071166 orientation 1 0 0 0 velocity -1.64478188733098e-06 0.0481914625711699 -1.51521612611779e-05 angularVelocity 0 0 0 force -7227.25912973472 321789577.31701 -19849.415251386 torque 0 0 0 radius 66.6666666666667 invMass 3.22288759761088e-10
BaseParticle id 59 indSpecies 0 position 66.6666791821023 2199.70395511804 333.333438421272 orientation 1 0 0 0 velocity -4.54026019534059e-05 0.0331479771669959 -5.84376899988565e-07 angularVelocity 0 0 0 force -8960.817421146 442285512.927359 -30676.8134061681 torque 0 0 0 radius 66.6666666666667 invMass 3.22288759761088e-10
BaseParticle id 60 indSpecies 0 position 200.000010755911 2199.70134742227 -333.333552519544 orientation 1 0 0 0 velocity -2.78780465404741e-05 0.0208058562971605 -2.748754035746e-06 angularVelocity 0 0 0 force 28225.6782150662 -224465340.036618 30031.1610378364 torque 0 0 0 radius 66.6666666666667 invMass 3.22288759761088e-10
BaseParticle id 61 indSpecies 0 position 200.000110177499 2199.70158199539 -200.000111294188 orientation 1 0 0 0 velocity -5.01414566246793e-06 -0.000107524512279669 4.45386255846961e-06 angularVelocity 0 0 0 force -20181.1985803855 -170793538.916827 19624.7657650608 torque 0 0 0 radius 66.6666666666667 invMass 3.22288759761088e-10
BaseParticle id 62 indSpecies 0 position 200.000102999023 2199.6957415884 -66.6666976351971 orientation 1 0 0 0 velocity -1.4577123834575e-05 0.0480590549823004 7.87937308038981e-07 angularVelocity 0 0 0 force -19948.4341006877 323432994.999093 6634.16944372134 torque 0 0 0 radius 66.6666666666667 invMass 3.22288759761088e-10
BaseParticle id 63 indSpecies 0 position 200.000103229736 2199.69577881242 66.6666956641098 orientation 1 0 0 0 velocity -1.45308547263782e-05 0.0481735101272201 -1.84962777100169e-06 angularVelocity 0 0 0 force -19946.3852018707 322859071.112013 -7089.96410970162 torque 0 0 0 radius 66.6666666666667 invMass 3.22288759761088e-10
BaseParticle id 64 indSpecies 0 position 200.000110530877 2199.70185062725 200.00011006922 orientation 1 0 0 0 velocity -5.06993066483192e-06 0.000139297558525736 -5.43798506029814e-06 angularVelocity 0 0 0 force -20186.7440682503 -172759213.72946 -20091.7197241846 torque 0 0 0 radius 66.6666666666667 invMass 3.22288759761088e-10
BaseParticle id 65 indSpecies 0 position 200.000012355262 2199.70136270869 333.333551388009 orientation 1 0 0 0 velocity -2.68797268557612e-05 0.0209444225461589 1.75222033639196e-06 angularVelocity 0 0 0 force -18291.845479794 -224990163.047036 -30530.261708906 torque 0 0 0 radius 66.6666666666667 invMass 3.22288759761088e-10
BaseParticle id 66 indSpecies 0 position 333.333370015575 2199.71882591457 -333.333369991954 orientation 1 0 0 0 velocity 2.94020127105292e-05 0.0586026753177184 -3.02792644681962e-05 angularVelocity 0 0 0 force -31072.6632542299 163011425.382429 30491.42683797 torque 0 0 0 radius 66.6666666666667 invMass 3.22288759761088e-10
BaseParticle id 67 indSpecies 0 position 333.333553626864 2199.70134137474 -200.000007777857 orientation 1 0 0 0 velocity 2.55605423138878e-06 0.0208073236404087 2.78243662628712e-05 angularVelocity 0 0 0 force -30612.8705838719 -224585682.172648 -44288.8924299129 torque 0 0 0 radius 66.6666666666667 invMass 3.22288759761088e-10
BaseParticle id 68 indSpecies 0 position 333.333440311028 2199.70343089958 -66.6666792477948 orientation 1 0 0 0 velocity 4.48255253045612e-08 0.032410219171937 4.16773506594248e-05 angularVelocity 0 0 0 force -30801.7258823997 444843438.908431 70405.3935627073 torque 0 0 0 radius 66.6666666666667 invMass 3.22288759761088e-10
BaseParticle id 69 indSpecies 0 position 333.333440144053 2199.70392609074 66.6666776591495 orientation 1 0 0 0 velocity -7.88199552692143e-08 0.0327521759285043 -4.29018234302477e-05 angularVelocity 0 0 0 force -30793.2684425731 443793861.811025 -70731.3976958445 torque 0 0 0 radius 66.6666666666667 invMass 3.22288759761088e-10
BaseParticle id 70 indSpecies 0 position 333.333552683189 2199.70133571977 200.000006190377 orientation 1 0 0 0 velocity 2.32894088207216e-06 0.0208804125499939 -2.89563446642368e-05 angularVelocity 0 0 0 force -30600.0389951289 -224685567.335001 43673.7931761287 torque 0 0 0 radius 66.6666666666667 invMass 3.22288759761088e-10
BaseParticle id 71 indSpecies 0 position 333.333372256531 2199.71878894498 333.333368372085 orientation 1 0 0 0 velocity 3.17840039568925e-05 0.0583177640336259 2.9354722733416e-05 angularVelocity 0 0 0 force -31048.6447476105 161963408.628245 -31022.7701359434 torque 0 0 0 radius 66.6666666666667 invMass 3.22288759761088e-10
BaseParticle id 72 indSpecies 0 position -333.333408201232 2333.03432681599 -333.333411880071 orientation 1 0 0 0 velocity 1.49641537810876e-05 0.0379436730780497 1.42908222737056e-05 angularVelocity 0 0 0 force 40224.6497528476 296313440.77337 40074.3571776664 torque 0 0 0 radius 66.6666666666667 invMass 3.22288759761088e-10
BaseParticle id 73 indSpecies 0 position -333.333481434854 2333.01289416602 -200.000045926266 orientation 1 0 0 0 velocity 2.28857579177181e-05 0.0500988611307602 2.55611916811991e-05 angularVelocity 0 0 0 force -17039.7557915908 123023756.961691 25603.0049029917 torque 0 0 0 radius 66.6666666666667 invMass 3.22288759761088e-10
BaseParticle id 74 indSpecies 0 position -333.333507715463 2333.03792691646 -66.666710094636 orientation 1 0 0 0 velocity 2.45499368834962e-05 0.0506206113812424 -2.82500728100883e-06 angularVelocity 0 0 0 force 40391.9779589267 -90705977.9929375 8507.65120556116 torque 0 0 0 radius 66.6666666666667 invMass 3.22288759761088e-10
BaseParticle id 75 indSpecies 0 position -333.333508157458 2333.03794033628 66.6667076916773 orientation 1 0 0 0 velocity 2.45450493640681e-05 0.0505411442784265 2.21023093160446e-06 angularVelocity 0 0 0 force 40395.2776864494 -91163522.2267389 -9670.74916281515 torque 0 0 0 radius 66.6666666666667 invMass 3.22288759761088e-10
BaseParticle id 76 indSpecies 0 position -333.333482797926 2333.01284036412 200.000044261681 orientation 1 0 0 0 velocity 2.19222210747611e-05 0.0501198405797132 -2.62489302770476e-05 angularVelocity 0 0 0 force -23565.6533271868 124149760.519295 -26782.6423891757 torque 0 0 0 radius 66.6666666666667 invMass 3.22288759761088e-10
BaseParticle id 77 indSpecies 0 position -333.333410167341 2333.03440352169 333.333410564359 orientation 1 0 0 0 velocity 1.49549087926816e-05 0.0377473755834746 -1.47074738355461e-05 angularVelocity 0 0 0 force 40238.6342375641 294833437.851022 -41252.4034098162 torque 0 0 0 radius 66.6666666666667 invMass 3.22288759761088e-10
BaseParticle id 78 indSpecies 0 position -200.000043358349 2333.01288296205 -333.333485874008 orientation 1 0 0 0 velocity 2.50205497091677e-05 0.0501206168393064 2.49730568539817e-05 angularVelocity 0 0 0 force 25866.3730714994 123776413.298073 7572.09780324574 torque 0 0 0 radius 66.6666666666667 invMass 3.22288759761088e-10
BaseParticle id 79 indSpecies 0 position -200.000152474933 2333.01701014667 -200.000155056148 orientation 1 0 0 0 velocity 1.16689007143796e-05 0.0489416956187218 9.38320336641939e-06 angularVelocity 0 0 0 force 83044.6114479079 -46072896.2006263 58092.443125299 torque 0 0 0 radius 66.6666666666667 invMass 3.22288759761088e-10
BaseParticle id 80 indSpecies 0 position -200.000039461257 2333.02140594198 -66.6667224088337 orientation 1 0 0 0 velocity 3.27920299856958e-06 0.01872548095928 -4.50750725217694e-06 angularVelocity 0 0 0 force -1479.34126456711 -77317007.7903954 8437.4257183439 torque 0 0 0 radius 66.6666666666667 invMass 3.22288759761088e-10
BaseParticle id 81 indSpecies 0 position -200.000039970653 2333.02138082611 66.6667208768444 orientation 1 0 0 0 velocity 2.78467633463762e-06 0.0183069251645898 3.9721953448845e-06 angularVelocity 0 0 0 force -5494.48373109797 -75213229.3347345 -9529.57528834772 torque 0 0 0 radius 66.6666666666667 invMass 3.22288759761088e-10
BaseParticle id 82 indSpecies 0 position -200.000154333005 2333.01713444025 200.000153228963 orientation 1 0 0 0 velocity 1.25256727692888e-05 0.0490223938681676 -1.02133274744973e-05 angularVelocity 0 0 0 force 89628.8681168931 -44961097.5654199 -63782.0120097195 torque 0 0 0 radius 66.6666666666667 invMass 3.22288759761088e-10
BaseParticle id 83 indSpecies 0 position -200.000045360057 2333.01283232251 333.333483697247 orientation 1 0 0 0 velocity 2.49021183780943e-05 0.0501448837379875 -2.52725123892703e-05 angularVelocity 0 0 0 force 25877.5964069156 124481463.723978 -4109.98518080312 torque 0 0 0 radius 66.6666666666667 invMass 3.22288759761088e-10
BaseParticle id 84 indSpecies 0 position -66.6667084733239 2333.03778608751 -333.333512563573 orientation 1 0 0 0 velocity -2.66392547057672e-06 0.0506271477012872 2.44397627080393e-05 angularVelocity 0 0 0 force 8684.91174272048 -88153440.972346 40272.1245203813 torque 0 0 0 radius 66.6666666666667 invMass 3.22288759761088e-10
BaseParticle id 85 indSpecies 0 position -66.666721511134 2333.02141833269 -200.00003995213 orientation 1 0 0 0 velocity -4.36358444875489e-06 0.0186489894094695 1.23001652151283e-06 angularVelocity 0 0 0 force 8623.7665417053 -78138768.3678557 -24330.7316570014 torque 0 0 0 radius 66.6666666666667 invMass 3.22288759761088e-10
BaseParticle id 86 indSpecies 0 position -66.666709758746 2333.00085772219 -66.6667119541635 orientation 1 0 0 0 velocity 8.75424055132994e-06 0.0633861878453134 1.06324626080326e-05 angularVelocity 0 0 0 force 35960.2323456139 -103754751.178949 58473.3461364938 torque 0 0 0 radius 66.6666666666667 invMass 3.22288759761088e-10