<?xml version="1.0"?>
<VTKFile type="UnstructuredGrid" version="0.1" byte_order="LittleEndian" compressor="vtkZLibDataCompressor">
<UnstructuredGrid>
<Piece NumberOfPoints="960" NumberOfCells="120">
<Points>
<DataArray type="Float32" NumberOfComponents="3" format="ascii">
-4.000000e+02 -6.000000e+03 -4.000000e+02
0.000000e+00 -6.000000e+03 -4.000000e+02
-4.000000e+02 -5.600000e+03 -4.000000e+02
-1.913570e-10 -5.600000e+03 -4.000000e+02
-4.000000e+02 -6.000000e+03 0.000000e+00
0.000000e+00 -6.000000e+03 0.000000e+00
-4.000000e+02 -5.600000e+03 -4.528360e-10
-8.477020e-11 -5.600000e+03 -2.920400e-10
0.000000e+00 -6.000000e+03 -4.000000e+02
4.000000e+02 -6.000000e+03 -4.000000e+02
-1.913570e-10 -5.600000e+03 -4.000000e+02
4.000000e+02 -5.600000e+03 -4.000000e+02
0.000000e+00 -6.000000e+03 0.000000e+00
4.000000e+02 -6.000000e+03 0.000000e+00
-8.477020e-11 -5.600000e+03 -2.920400e-10
4.000000e+02 -5.600000e+03 2.297720e-10
-4.000000e+02 -5.600000e+03 -4.000000e+02
-1.913570e-10 -5.600000e+03 -4.000000e+02
-4.000000e+02 -5.200010e+03 -4.000000e+02
3.294290e-10 -5.200010e+03 -4.000000e+02
-4.000000e+02 -5.600000e+03 -4.528360e-10
-8.477020e-11 -5.600000e+03 -2.920400e-10
-4.000000e+02 -5.200010e+03 -1.194990e-09
2.702980e-10 -5.200010e+03 -4.188240e-10
-1.913570e-10 -5.600000e+03 -4.000000e+02
4.000000e+02 -5.600000e+03 -4.000000e+02
3.294290e-10 -5.200010e+03 -4.000000e+02
4.000000e+02 -5.200010e+03 -4.000000e+02
-8.477020e-11 -5.600000e+03 -2.920400e-10
4.000000e+02 -5.600000e+03 2.297720e-10
2.702980e-10 -5.200010e+03 -4.188240e-10
4.000000e+02 -5.200010e+03 3.373440e-11
-4.000000e+02 -5.200010e+03 -4.000000e+02
3.294290e-10 -5.200010e+03 -4.000000e+02
-4.000000e+02 -4.800020e+03 -4.000000e+02
1.056500e-09 -4.800020e+03 -4.000000e+02
-4.000000e+02 -5.200010e+03 -1.194990e-09
2.702980e-10 -5.200010e+03 -4.188240e-10
-4.000000e+02 -4.800020e+03 -1.802340e-12
1.319510e-09 -4.800020e+03 1.694960e-10
3.294290e-10 -5.200010e+03 -4.000000e+02
4.000000e+02 -5.200010e+03 -4.000000e+02
1.056500e-09 -4.800020e+03 -4.000000e+02
4.000000e+02 -4.800020e+03 -4.000000e+02
2.702980e-10 -5.200010e+03 -4.188240e-10
4.000000e+02 -5.200010e+03 3.373440e-11
1.319510e-09 -4.800020e+03 1.694960e-10
4.000000e+02 -4.800020e+03 -5.722720e-11
-4.000000e+02 -4.800020e+03 -4.000000e+02
1.056500e-09 -4.800020e+03 -4.000000e+02
-4.000000e+02 -4.400030e+03 -4.000000e+02
2.161860e-09 -4.400030e+03 -4.000000e+02
-4.000000e+02 -4.800020e+03 -1.802340e-12
1.319510e-09 -4.800020e+03 1.694960e-10
-4.000000e+02 -4.400030e+03 5.905530e-10
1.570730e-09 -4.400030e+03 1.152860e-09
1.056500e-09 -4.800020e+03 -4.000000e+02
4.000000e+02 -4.800020e+03 -4.000000e+02
2.161860e-09 -4.400030e+03 -4.000000e+02
4.000000e+02 -4.400030e+03 -4.000000e+02
1.319510e-09 -4.800020e+03 1.694960e-10
4.000000e+02 -4.800020e+03 -5.722720e-11
1.570730e-09 -4.400030e+03 1.152860e-09
4.000000e+02 -4.400030e+03 1.109570e-09
-4.000000e+02 -4.400030e+03 -4.000000e+02
2.161860e-09 -4.400030e+03 -4.000000e+02
-4.000000e+02 -4.000060e+03 -4.000000e+02
2.950130e-09 -4.000060e+03 -4.000000e+02
-4.000000e+02 -4.400030e+03 5.905530e-10
1.570730e-09 -4.400030e+03 1.152860e-09
-4.000000e+02 -4.000060e+03 1.765990e-09
1.933820e-09 -4.000060e+03 2.100840e-09
2.161860e-09 -4.400030e+03 -4.000000e+02
4.000000e+02 -4.400030e+03 -4.000000e+02
2.950130e-09 -4.000060e+03 -4.000000e+02
4.000000e+02 -4.000060e+03 -4.000000e+02
1.570730e-09 -4.400030e+03 1.152860e-09
4.000000e+02 -4.400030e+03 1.109570e-09
1.933820e-09 -4.000060e+03 2.100840e-09
4.000000e+02 -4.000060e+03 2.451420e-09
-4.000000e+02 -4.000060e+03 -4.000000e+02
2.950130e-09 -4.000060e+03 -4.000000e+02
-4.000000e+02 -3.600120e+03 -4.000000e+02
2.545750e-09 -3.600120e+03 -4.000000e+02
-4.000000e+02 -4.000060e+03 1.765990e-09
1.933820e-09 -4.000060e+03 2.100840e-09
-4.000000e+02 -3.600120e+03 2.814660e-09
2.524150e-09 -3.600120e+03 2.431670e-09
2.950130e-09 -4.000060e+03 -4.000000e+02
4.000000e+02 -4.000060e+03 -4.000000e+02
2.545750e-09 -3.600120e+03 -4.000000e+02
4.000000e+02 -3.600120e+03 -4.000000e+02
1.933820e-09 -4.000060e+03 2.100840e-09
4.000000e+02 -4.000060e+03 2.451420e-09
2.524150e-09 -3.600120e+03 2.431670e-09
4.000000e+02 -3.600120e+03 3.365180e-09
-4.000000e+02 -3.600120e+03 -4.000000e+02
2.545750e-09 -3.600120e+03 -4.000000e+02
-4.000000e+02 -3.200190e+03 -4.000000e+02
2.129330e-09 -3.200190e+03 -4.000000e+02
-4.000000e+02 -3.600120e+03 2.814660e-09
2.524150e-09 -3.600120e+03 2.431670e-09
-4.000000e+02 -3.200190e+03 1.542140e-09
1.869700e-09 -3.200190e+03 2.144860e-09
2.545750e-09 -3.600120e+03 -4.000000e+02
4.000000e+02 -3.600120e+03 -4.000000e+02
2.129330e-09 -3.200190e+03 -4.000000e+02
4.000000e+02 -3.200190e+03 -4.000000e+02
2.524150e-09 -3.600120e+03 2.431670e-09
4.000000e+02 -3.600120e+03 3.365180e-09
1.869700e-09 -3.200190e+03 2.144860e-09
4.000000e+02 -3.200190e+03 2.891030e-09
-4.000000e+02 -3.200190e+03 -4.000000e+02
2.129330e-09 -3.200190e+03 -4.000000e+02
-4.000000e+02 -2.800260e+03 -4.000000e+02
2.571430e-09 -2.800260e+03 -4.000000e+02
-4.000000e+02 -3.200190e+03 1.542140e-09
1.869700e-09 -3.200190e+03 2.144860e-09
-4.000000e+02 -2.800260e+03 1.252860e-09
1.686460e-09 -2.800260e+03 2.001050e-09
2.129330e-09 -3.200190e+03 -4.000000e+02
4.000000e+02 -3.200190e+03 -4.000000e+02
2.571430e-09 -2.800260e+03 -4.000000e+02
4.000000e+02 -2.800260e+03 -4.000000e+02
1.869700e-09 -3.200190e+03 2.144860e-09
4.000000e+02 -3.200190e+03 2.891030e-09
1.686460e-09 -2.800260e+03 2.001050e-09
4.000000e+02 -2.800260e+03 2.664230e-09
-4.000000e+02 -2.800260e+03 -4.000000e+02
2.571430e-09 -2.800260e+03 -4.000000e+02
-4.000000e+02 -2.400310e+03 -4.000000e+02
2.465460e-09 -2.400310e+03 -4.000000e+02
-4.000000e+02 -2.800260e+03 1.252860e-09
1.686460e-09 -2.800260e+03 2.001050e-09
-4.000000e+02 -2.400310e+03 2.014290e-09
1.593120e-09 -2.400310e+03 2.597580e-09
2.571430e-09 -2.800260e+03 -4.000000e+02
4.000000e+02 -2.800260e+03 -4.000000e+02
2.465460e-09 -2.400310e+03 -4.000000e+02
4.000000e+02 -2.400310e+03 -4.000000e+02
1.686460e-09 -2.800260e+03 2.001050e-09
4.000000e+02 -2.800260e+03 2.664230e-09
1.593120e-09 -2.400310e+03 2.597580e-09
4.000000e+02 -2.400310e+03 3.245880e-09
-4.000000e+02 -2.400310e+03 -4.000000e+02
2.465460e-09 -2.400310e+03 -4.000000e+02
-4.000000e+02 -2.000310e+03 -4.000000e+02
1.241620e-09 -2.000310e+03 -4.000000e+02
-4.000000e+02 -2.400310e+03 2.014290e-09
1.593120e-09 -2.400310e+03 2.597580e-09
-4.000000e+02 -2.000310e+03 2.226140e-09
7.426130e-10 -2.000310e+03 2.835640e-09
2.465460e-09 -2.400310e+03 -4.000000e+02
4.000000e+02 -2.400310e+03 -4.000000e+02
1.241620e-09 -2.000310e+03 -4.000000e+02
4.000000e+02 -2.000310e+03 -4.000000e+02
1.593120e-09 -2.400310e+03 2.597580e-09
4.000000e+02 -2.400310e+03 3.245880e-09
7.426130e-10 -2.000310e+03 2.835640e-09
4.000000e+02 -2.000310e+03 3.242730e-09
-4.000000e+02 -2.000310e+03 -4.000000e+02
1.241620e-09 -2.000310e+03 -4.000000e+02
-4.000000e+02 -1.600280e+03 -4.000000e+02
8.925280e-10 -1.600280e+03 -4.000000e+02
-4.000000e+02 -2.000310e+03 2.226140e-09
7.426130e-10 -2.000310e+03 2.835640e-09
-4.000000e+02 -1.600280e+03 1.091610e-09
5.294520e-10 -1.600280e+03 1.591020e-09
1.241620e-09 -2.000310e+03 -4.000000e+02
4.000000e+02 -2.000310e+03 -4.000000e+02
8.925280e-10 -1.600280e+03 -4.000000e+02
4.000000e+02 -1.600280e+03 -4.000000e+02
7.426130e-10 -2.000310e+03 2.835640e-09
4.000000e+02 -2.000310e+03 3.242730e-09
5.294520e-10 -1.600280e+03 1.591020e-09
4.000000e+02 -1.600280e+03 2.048890e-09
-4.000000e+02 -1.600280e+03 -4.000000e+02
8.925280e-10 -1.600280e+03 -4.000000e+02
-4.000000e+02 -1.200260e+03 -4.000000e+02
-2.274900e-10 -1.200260e+03 -4.000000e+02
-4.000000e+02 -1.600280e+03 1.091610e-09
5.294520e-10 -1.600280e+03 1.591020e-09
-4.000000e+02 -1.200260e+03 4.548910e-10
-2.143770e-10 -1.200260e+03 5.414910e-10
8.925280e-10 -1.600280e+03 -4.000000e+02
4.000000e+02 -1.600280e+03 -4.000000e+02
-2.274900e-10 -1.200260e+03 -4.000000e+02
4.000000e+02 -1.200260e+03 -4.000000e+02
5.294520e-10 -1.600280e+03 1.591020e-09
4.000000e+02 -1.600280e+03 2.048890e-09
-2.143770e-10 -1.200260e+03 5.414910e-10
4.000000e+02 -1.200260e+03 1.505080e-09
-4.000000e+02 -1.200260e+03 -4.000000e+02
-2.274900e-10 -1.200260e+03 -4.000000e+02
-4.000000e+02 -8.002680e+02 -4.000000e+02
-3.781430e-10 -8.002680e+02 -4.000000e+02
-4.000000e+02 -1.200260e+03 4.548910e-10
-2.143770e-10 -1.200260e+03 5.414910e-10
-4.000000e+02 -8.002680e+02 3.101960e-11
-5.755230e-10 -8.002680e+02 3.515100e-10
-2.274900e-10 -1.200260e+03 -4.000000e+02
4.000000e+02 -1.200260e+03 -4.000000e+02
-3.781430e-10 -8.002680e+02 -4.000000e+02
4.000000e+02 -8.002680e+02 -4.000000e+02
-2.143770e-10 -1.200260e+03 5.414910e-10
4.000000e+02 -1.200260e+03 1.505080e-09
-5.755230e-10 -8.002680e+02 3.515100e-10
4.000000e+02 -8.002680e+02 8.622530e-10
-4.000000e+02 -8.002680e+02 -4.000000e+02
-3.781430e-10 -8.002680e+02 -4.000000e+02
-4.000000e+02 -4.002840e+02 -4.000000e+02
-2.705280e-10 -4.002840e+02 -4.000000e+02
-4.000000e+02 -8.002680e+02 3.101960e-11
-5.755230e-10 -8.002680e+02 3.515100e-10
-4.000000e+02 -4.002840e+02 -1.589760e-09
-7.472380e-10 -4.002840e+02 -8.806790e-11
-3.781430e-10 -8.002680e+02 -4.000000e+02
4.000000e+02 -8.002680e+02 -4.000000e+02
-2.705280e-10 -4.002840e+02 -4.000000e+02
4.000000e+02 -4.002840e+02 -4.000000e+02
-5.755230e-10 -8.002680e+02 3.515100e-10
4.000000e+02 -8.002680e+02 8.622530e-10
-7.472380e-10 -4.002840e+02 -8.806790e-11
4.000000e+02 -4.002840e+02 -9.277790e-11
-4.000000e+02 -4.002840e+02 -4.000000e+02
-2.705280e-10 -4.002840e+02 -4.000000e+02
-4.000000e+02 -2.800950e-01 -4.000000e+02
-1.618740e-09 -2.800990e-01 -4.000000e+02
-4.000000e+02 -4.002840e+02 -1.589760e-09
-7.472380e-10 -4.002840e+02 -8.806790e-11
-4.000000e+02 -2.800990e-01 4.452520e-10
-1.979860e-09 -2.801020e-01 8.856490e-10
-2.705280e-10 -4.002840e+02 -4.000000e+02
4.000000e+02 -4.002840e+02 -4.000000e+02
-1.618740e-09 -2.800990e-01 -4.000000e+02
4.000000e+02 -2.800950e-01 -4.000000e+02
-7.472380e-10 -4.002840e+02 -8.806790e-11
[...]
<PointData>
<DataArray type="Float32" Name="V1" format="ascii">
0.000000e+00
0.000000e+00
2.980350e-06
1.404150e-09
0.000000e+00
0.000000e+00
2.633650e-06
-4.561930e-11
0.000000e+00
0.000000e+00
1.404150e-09
-2.978270e-06
0.000000e+00
0.000000e+00
-4.561930e-11
-2.633570e-06
2.980350e-06
1.404150e-09
-2.470610e-06
-1.808660e-10
2.633650e-06
-4.561930e-11
-2.121950e-06
-1.056590e-10
1.404150e-09
-2.978270e-06
-1.808660e-10
2.469760e-06
-4.561930e-11
-2.633570e-06
-1.056590e-10
2.122340e-06
-2.470610e-06
-1.808660e-10
4.397530e-06
-2.400920e-10
-2.121950e-06
-1.056590e-10
4.024450e-06
-4.053590e-10
-1.808660e-10
2.469760e-06
-2.400920e-10
-4.397660e-06
-1.056590e-10
2.122340e-06
-4.053590e-10
-4.024990e-06
4.397530e-06
-2.400920e-10
-8.500570e-07
2.460830e-10
4.024450e-06
-4.053590e-10
-6.834080e-07
3.587760e-10
-2.400920e-10
-4.397660e-06
2.460830e-10
8.505760e-07
-4.053590e-10
-4.024990e-06
3.587760e-10
6.833770e-07
-8.500570e-07
2.460830e-10
-6.127530e-06
-5.035030e-10
-6.834080e-07
3.587760e-10
-5.977020e-06
-1.550750e-10
2.460830e-10
8.505760e-07
-5.035030e-10
6.126600e-06
3.587760e-10
6.833770e-07
-1.550750e-10
5.976830e-06
-6.127530e-06
-5.035030e-10
3.793070e-06
2.624780e-10
-5.977020e-06
-1.550750e-10
3.527840e-06
-5.600790e-10
-5.035030e-10
6.126600e-06
2.624780e-10
-3.792190e-06
-1.550750e-10
5.976830e-06
-5.600790e-10
-3.529500e-06
3.793070e-06
2.624780e-10
4.088600e-06
5.571390e-10
3.527840e-06
-5.600790e-10
4.383610e-06
1.839000e-10
2.624780e-10
-3.792190e-06
5.571390e-10
-4.086840e-06
-5.600790e-10
-3.529500e-06
1.839000e-10
-4.382140e-06
4.088600e-06
5.571390e-10
-4.439250e-06
-5.367940e-10
4.383610e-06
1.839000e-10
-4.818030e-06
1.767700e-10
5.571390e-10
-4.086840e-06
-5.367940e-10
4.436230e-06
1.839000e-10
-4.382140e-06
1.767700e-10
4.817860e-06
-4.439250e-06
-5.367940e-10
-1.556840e-06
-3.907500e-10
-4.818030e-06
1.767700e-10
-1.503630e-06
-3.867660e-10
-5.367940e-10
4.436230e-06
-3.907500e-10
1.556720e-06
1.767700e-10
4.817860e-06
-3.867660e-10
1.504070e-06
-1.556840e-06
-3.907500e-10
8.321590e-06
-3.967600e-10
-1.503630e-06
-3.867660e-10
8.735990e-06
1.106020e-09
-3.907500e-10
1.556720e-06
-3.967600e-10
-8.321480e-06
-3.867660e-10
1.504070e-06
1.106020e-09
-8.734390e-06
8.321590e-06
-3.967600e-10
3.669830e-07
4.562260e-10
8.735990e-06
1.106020e-09
4.690600e-07
8.092330e-10
-3.967600e-10
-8.321480e-06
4.562260e-10
-3.672190e-07
1.106020e-09
-8.734390e-06
8.092330e-10
-4.678650e-07
3.669830e-07
4.562260e-10
-1.016740e-05
-9.766610e-10
4.690600e-07
8.092330e-10
-1.006910e-05
-7.016740e-10
4.562260e-10
-3.672190e-07
-9.766610e-10
1.016660e-05
8.092330e-10
-4.678650e-07
-7.016740e-10
1.006790e-05
-1.016740e-05
-9.766610e-10
-1.816760e-06
2.752880e-10
-1.006910e-05
-7.016740e-10
-2.758110e-06
2.114340e-10
-9.766610e-10
1.016660e-05
2.752880e-10
1.817900e-06
-7.016740e-10
1.006790e-05
2.114340e-10
2.758330e-06
-1.816760e-06
2.752880e-10
5.363480e-06
7.450830e-10
-2.758110e-06
2.114340e-10
5.415750e-06
9.571110e-10
2.752880e-10
1.817900e-06
7.450830e-10
-5.360930e-06
2.114340e-10
2.758330e-06
9.571110e-10
-5.414630e-06
5.363480e-06
7.450830e-10
4.096470e-06
-3.057950e-09
5.415750e-06
9.571110e-10
4.009870e-06
-2.261950e-09
7.450830e-10
-5.360930e-06
-3.057950e-09
-4.101780e-06
9.571110e-10
-5.414630e-06
-2.261950e-09
-4.015310e-06
4.096470e-06
-3.057950e-09
-1.887420e-06
-6.399140e-10
4.009870e-06
-2.261950e-09
-1.782320e-06
-5.570900e-10
-3.057950e-09
-4.101780e-06
-6.399140e-10
1.887270e-06
-2.261950e-09
-4.015310e-06
-5.570900e-10
1.782470e-06
-1.887420e-06
-6.399140e-10
-7.776300e-06
4.157090e-09
-1.782320e-06
-5.570900e-10
-8.001770e-06
3.479720e-09
-6.399140e-10
1.887270e-06
4.157090e-09
7.782770e-06
-5.570900e-10
1.782470e-06
3.479720e-09
8.006880e-06
-7.776300e-06
4.157090e-09
-8.021600e-06
4.378760e-10
-8.001770e-06
3.479720e-09
-7.638030e-06
1.110040e-09
4.157090e-09
7.782770e-06
4.378760e-10
8.022340e-06
3.479720e-09
8.006880e-06
1.110040e-09
7.640010e-06
-8.021600e-06
4.378760e-10
-6.571750e-06
2.078280e-09
-7.638030e-06
1.110040e-09
-6.733750e-06
2.396900e-09
4.378760e-10
8.022340e-06
2.078280e-09
6.576810e-06
1.110040e-09
7.640010e-06
2.396900e-09
6.740320e-06
-6.571750e-06
2.078280e-09
-3.670320e-06
4.899240e-09
-6.733750e-06
2.396900e-09
-3.823630e-06
6.067650e-09
2.078280e-09
6.576810e-06
4.899240e-09
3.675550e-06
2.396900e-09
6.740320e-06
6.067650e-09
3.830840e-06
-3.670320e-06
4.899240e-09
2.475150e-07
1.169910e-09
-3.823630e-06
6.067650e-09
3.031170e-07
-5.617210e-10
4.899240e-09
3.675550e-06
1.169910e-09
-2.492280e-07
6.067650e-09
3.830840e-06
-5.617210e-10
-3.094020e-07
2.475150e-07
1.169910e-09
2.793980e-06
-2.608390e-09
3.031170e-07
-5.617210e-10
2.752880e-06
-8.370510e-09
1.169910e-09
-2.492280e-07
-2.608390e-09
-2.800590e-06
-5.617210e-10
-3.094020e-07
-8.370510e-09
-2.771180e-06
2.793980e-06
-2.608390e-09
6.132260e-07
-6.057970e-10
2.752880e-06
-8.370510e-09
5.936650e-07
-2.116520e-11
-2.608390e-09
-2.800590e-06
-6.057970e-10
-6.147190e-07
-8.370510e-09
-2.771180e-06
-2.116520e-11
-5.941210e-07
6.132260e-07
-6.057970e-10
-5.804680e-07
-7.635100e-10
5.936650e-07
-2.116520e-11
-3.895450e-07
4.897600e-09
-6.057970e-10
-6.147190e-07
-7.635100e-10
5.788650e-07
-2.116520e-11
-5.941210e-07
4.897600e-09
3.992070e-07
-5.804680e-07
-7.635100e-10
-1.936260e-07
-1.478000e-09
-3.895450e-07
4.897600e-09
-3.774000e-07
-4.028660e-10
-7.635100e-10
5.788650e-07
-1.478000e-09
1.906560e-07
4.897600e-09
3.992070e-07
-4.028660e-10
3.765830e-07
-1.936260e-07
-1.478000e-09
-3.080980e-07
-1.784120e-09
-3.774000e-07
-4.028660e-10
-4.390040e-07
-2.192050e-09
-1.478000e-09
1.906560e-07
-1.784120e-09
3.045310e-07
-4.028660e-10
3.765830e-07
-2.192050e-09
4.346360e-07
-3.080980e-07
-1.784120e-09
-4.546050e-07
-3.095490e-09
-4.390040e-07
-2.192050e-09
-3.097470e-07
-2.089520e-09
-1.784120e-09
3.045310e-07
-3.095490e-09
4.484620e-07
-2.192050e-09
4.346360e-07
-2.089520e-09
3.056150e-07
-4.546050e-07
-3.095490e-09
-3.572470e-06
-1.227550e-09
-3.097470e-07
-2.089520e-09
-3.622970e-06
-1.080320e-09
-3.095490e-09
4.484620e-07
-1.227550e-09
3.570070e-06
-2.089520e-09
3.056150e-07
-1.080320e-09
3.620830e-06
-3.572470e-06
-1.227550e-09
-9.994090e-07
1.059920e-09
-3.622970e-06
-1.080320e-09
-1.492730e-07
1.999230e-10
-1.227550e-09
3.570070e-06
1.059920e-09
1.001450e-06
-1.080320e-09
3.620830e-06
1.999230e-10
1.496030e-07
-9.994090e-07
1.059920e-09
5.123460e-06
1.738800e-09
-1.492730e-07
1.999230e-10
3.464710e-06
1.627710e-09
1.059920e-09
1.001450e-06
1.738800e-09
-5.120140e-06
1.999230e-10
1.496030e-07
1.627710e-09
-3.461690e-06
0.000000e+00
0.000000e+00
2.633650e-06
-4.561930e-11
0.000000e+00
0.000000e+00
2.977880e-06
3.293900e-10
0.000000e+00
0.000000e+00
-4.561930e-11
-2.633570e-06
0.000000e+00
0.000000e+00
3.293900e-10
-2.978160e-06
2.633650e-06
-4.561930e-11
-2.121950e-06
-1.056590e-10
2.977880e-06
3.293900e-10
-2.469590e-06
5.539190e-10
-4.561930e-11
-2.633570e-06
-1.056590e-10
2.122340e-06
3.293900e-10
-2.978160e-06
5.539190e-10
2.469610e-06
-2.121950e-06
-1.056590e-10
4.024450e-06
-4.053590e-10
-2.469590e-06
5.539190e-10
4.395880e-06
-4.255680e-10
-1.056590e-10
2.122340e-06
-4.053590e-10
-4.024990e-06
5.539190e-10
2.469610e-06
-4.255680e-10
-4.396340e-06
4.024450e-06
-4.053590e-10
-6.834080e-07
3.587760e-10
4.395880e-06
-4.255680e-10
-8.516440e-07
-6.746740e-10
-4.053590e-10
-4.024990e-06
3.587760e-10
6.833770e-07
-4.255680e-10
-4.396340e-06
-6.746740e-10
8.505290e-07
-6.834080e-07
3.587760e-10
-5.977020e-06
-1.550750e-10
-8.516440e-07
-6.746740e-10
-6.126130e-06
8.875290e-10
3.587760e-10
6.833770e-07
-1.550750e-10
5.976830e-06
-6.746740e-10
8.505290e-07
8.875290e-10
6.128030e-06
-5.977020e-06
-1.550750e-10
3.527840e-06
-5.600790e-10
-6.126130e-06
8.875290e-10
3.793700e-06
6.046720e-10
-1.550750e-10
5.976830e-06
-5.600790e-10
-3.529500e-06
8.875290e-10
6.128030e-06
6.046720e-10
-3.791750e-06
3.527840e-06
-5.600790e-10
4.383610e-06
1.839000e-10
3.793700e-06
6.046720e-10
4.087710e-06
-5.413000e-12
-5.600790e-10
-3.529500e-06
1.839000e-10
-4.382140e-06
6.046720e-10
-3.791750e-06
-5.413000e-12
-4.088560e-06
4.383610e-06
1.839000e-10
-4.818030e-06
1.767700e-10
4.087710e-06
-5.413000e-12
-4.439170e-06
-1.576760e-09
1.839000e-10
-4.382140e-06
1.767700e-10
4.817860e-06
-5.413000e-12
-4.088560e-06
-1.576760e-09
4.436400e-06
-4.818030e-06
1.767700e-10
-1.503630e-06
-3.867660e-10
-4.439170e-06
-1.576760e-09
-1.557880e-06
-3.027080e-10
1.767700e-10
4.817860e-06
-3.867660e-10
1.504070e-06
-1.576760e-09
4.436400e-06
-3.027080e-10
1.557470e-06
-1.503630e-06
-3.867660e-10
8.735990e-06
1.106020e-09
-1.557880e-06
-3.027080e-10
8.321290e-06
-7.899850e-10
-3.867660e-10
1.504070e-06
1.106020e-09
-8.734390e-06
-3.027080e-10
1.557470e-06
-7.899850e-10
-8.322940e-06
8.735990e-06
1.106020e-09
4.690600e-07
8.092330e-10
8.321290e-06
-7.899850e-10
3.683030e-07
2.596400e-10
1.106020e-09
-8.734390e-06
8.092330e-10
-4.678650e-07
-7.899850e-10
-8.322940e-06
2.596400e-10
-3.684450e-07
4.690600e-07
8.092330e-10
-1.006910e-05
-7.016740e-10
3.683030e-07
2.596400e-10
-1.016870e-05
-1.561570e-10
8.092330e-10
-4.678650e-07
-7.016740e-10
1.006790e-05
2.596400e-10
-3.684450e-07
-1.561570e-10
1.016790e-05
-1.006910e-05
-7.016740e-10
-2.758110e-06
2.114340e-10
-1.016870e-05
-1.561570e-10
-1.819610e-06
-6.698260e-10
-7.016740e-10
1.006790e-05
2.114340e-10
2.758330e-06
-1.561570e-10
1.016790e-05
-6.698260e-10
1.818170e-06
-2.758110e-06
2.114340e-10
5.415750e-06
9.571110e-10
-1.819610e-06
-6.698260e-10
5.364700e-06
4.389930e-10
2.114340e-10
2.758330e-06
9.571110e-10
-5.414630e-06
-6.698260e-10
1.818170e-06
4.389930e-10
-5.363430e-06
5.415750e-06
9.571110e-10
4.009870e-06
-2.261950e-09
5.364700e-06
4.389930e-10
4.097680e-06
-1.072260e-09
9.571110e-10
-5.414630e-06
-2.261950e-09
-4.015310e-06
4.389930e-10
-5.363430e-06
-1.072260e-09
-4.099850e-06
4.009870e-06
-2.261950e-09
-1.782320e-06
-5.570900e-10
4.097680e-06
-1.072260e-09
-1.886390e-06
4.786760e-10
-2.261950e-09
-4.015310e-06
-5.570900e-10
1.782470e-06
-1.072260e-09
-4.099850e-06
4.786760e-10
1.888600e-06
-1.782320e-06
-5.570900e-10
-8.001770e-06
3.479720e-09
-1.886390e-06
4.786760e-10
-7.777460e-06
3.639660e-09
-5.570900e-10
1.782470e-06
3.479720e-09
8.006880e-06
4.786760e-10
1.888600e-06
3.639660e-09
7.779650e-06
-8.001770e-06
3.479720e-09
-7.638030e-06
1.110040e-09
-7.777460e-06
3.639660e-09
-8.020600e-06
4.252810e-10
3.479720e-09
8.006880e-06
1.110040e-09
7.640010e-06
3.639660e-09
7.779650e-06
4.252810e-10
8.025810e-06
-7.638030e-06
1.110040e-09
-6.733750e-06
2.396900e-09
-8.020600e-06
4.252810e-10
-6.570010e-06
2.752320e-09
1.110040e-09
7.640010e-06
2.396900e-09
6.740320e-06
4.252810e-10
8.025810e-06
2.752320e-09
6.575710e-06
-6.733750e-06
2.396900e-09
-3.823630e-06
6.067650e-09
-6.570010e-06
2.752320e-09
-3.665040e-06
7.384650e-09
2.396900e-09
6.740320e-06
6.067650e-09
3.830840e-06
2.752320e-09
6.575710e-06
7.384650e-09
3.675240e-06
-3.823630e-06
6.067650e-09
3.031170e-07
-5.617210e-10
-3.665040e-06
7.384650e-09
2.435870e-07
-2.544940e-09
6.067650e-09
3.830840e-06
-5.617210e-10
-3.094020e-07
7.384650e-09
3.675240e-06
-2.544940e-09
-2.545850e-07
3.031170e-07
-5.617210e-10
2.752880e-06
-8.370510e-09
2.435870e-07
-2.544940e-09
2.780110e-06
-1.447090e-08
-5.617210e-10
-3.094020e-07
-8.370510e-09
-2.771180e-06
-2.544940e-09
-2.545850e-07
-1.447090e-08
-2.810740e-06
2.752880e-06
-8.370510e-09
5.936650e-07
-2.116520e-11
2.780110e-06
-1.447090e-08
6.155980e-07
1.252780e-09
-8.370510e-09
-2.771180e-06
-2.116520e-11
-5.941210e-07
-1.447090e-08
-2.810740e-06
1.252780e-09
-6.135400e-07
5.936650e-07
-2.116520e-11
-3.895450e-07
4.897600e-09
6.155980e-07
1.252780e-09
-5.678830e-07
1.080180e-08
-2.116520e-11
-5.941210e-07
4.897600e-09
3.992070e-07
1.252780e-09
-6.135400e-07
1.080180e-08
5.892660e-07
-3.895450e-07
4.897600e-09
-3.774000e-07
-4.028660e-10
-5.678830e-07
1.080180e-08
-1.938610e-07
-1.812350e-10
4.897600e-09
3.992070e-07
-4.028660e-10
3.765830e-07
1.080180e-08
5.892660e-07
-1.812350e-10
1.934210e-07
-3.774000e-07
-4.028660e-10
-4.390040e-07
-2.192050e-09
-1.938610e-07
-1.812350e-10
-3.098730e-07
-2.979990e-09
-4.028660e-10
3.765830e-07
-2.192050e-09
4.346360e-07
-1.812350e-10
1.934210e-07
-2.979990e-09
3.039030e-07
-4.390040e-07
-2.192050e-09
-3.097470e-07
-2.089520e-09
-3.098730e-07
-2.979990e-09
-4.516040e-07
-7.887400e-10
-2.192050e-09
4.346360e-07
-2.089520e-09
3.056150e-07
-2.979990e-09
3.039030e-07
-7.887400e-10
4.499860e-07
-3.097470e-07
-2.089520e-09
-3.622970e-06
-1.080320e-09
-4.516040e-07
-7.887400e-10
-3.571940e-06
-8.067060e-10
-2.089520e-09
3.056150e-07
-1.080320e-09
3.620830e-06
-7.887400e-10
4.499860e-07
-8.067060e-10
3.570300e-06
-3.622970e-06
-1.080320e-09
-1.492730e-07
1.999230e-10
-3.571940e-06
-8.067060e-10
-1.001700e-06
-8.208650e-10
-1.080320e-09
3.620830e-06
1.999230e-10
1.496030e-07
-8.067060e-10
3.570300e-06
-8.208650e-10
9.999900e-07
-1.492730e-07
1.999230e-10
3.464710e-06
1.627710e-09
-1.001700e-06
-8.208650e-10
5.123050e-06
1.418350e-09
1.999230e-10
1.496030e-07
1.627710e-09
-3.461690e-06
-8.208650e-10
9.999900e-07
1.418350e-09
-5.120380e-06
</DataArray>
<DataArray type="Float32" Name="V2" format="ascii">
0.000000e+00
0.000000e+00
1.261210e-03
1.288760e-03
0.000000e+00
0.000000e+00
1.288750e-03
1.315510e-03
0.000000e+00
0.000000e+00
1.288760e-03
1.261210e-03
0.000000e+00
0.000000e+00
1.315510e-03
1.288750e-03
1.261210e-03
1.288760e-03
3.249130e-03
3.238410e-03
1.288750e-03
1.315510e-03
3.238420e-03
3.228330e-03
1.288760e-03
1.261210e-03
3.238410e-03
3.249130e-03
1.315510e-03
1.288750e-03
3.228330e-03
3.238410e-03
3.249130e-03
3.238410e-03
6.908110e-03
6.900180e-03
3.238420e-03
3.228330e-03
6.900170e-03
6.892480e-03
3.238410e-03
3.249130e-03
6.900180e-03
6.908110e-03
3.228330e-03
3.238410e-03
6.892480e-03
6.900170e-03
6.908110e-03
6.900180e-03
1.460640e-02
1.461340e-02
6.900170e-03
6.892480e-03
1.461340e-02
1.461930e-02
6.900180e-03
6.908110e-03
1.461340e-02
1.460640e-02
6.892480e-03
6.900170e-03
1.461930e-02
1.461340e-02
1.460640e-02
1.461340e-02
2.745810e-02
2.745420e-02
1.461340e-02
1.461930e-02
2.745420e-02
2.745190e-02
1.461340e-02
1.460640e-02
2.745420e-02
2.745810e-02
1.461930e-02
1.461340e-02
2.745190e-02
2.745420e-02
2.745810e-02
2.745420e-02
4.355380e-02
4.355480e-02
2.745420e-02
2.745190e-02
4.355480e-02
4.355510e-02
2.745420e-02
2.745810e-02
4.355480e-02
4.355370e-02
2.745190e-02
2.745420e-02
4.355510e-02
4.355480e-02
4.355380e-02
4.355480e-02
5.246930e-02
5.248670e-02
4.355480e-02
4.355510e-02
5.248670e-02
5.250280e-02
4.355480e-02
4.355370e-02
5.248670e-02
5.246930e-02
4.355510e-02
4.355480e-02
5.250280e-02
5.248670e-02
5.246930e-02
5.248670e-02
4.551530e-02
4.551090e-02
5.248670e-02
5.250280e-02
4.551090e-02
4.550860e-02
5.248670e-02
5.246930e-02
4.551090e-02
4.551530e-02
5.250280e-02
5.248670e-02
4.550860e-02
4.551090e-02
4.551530e-02
4.551090e-02
1.781100e-02
1.779790e-02
4.551090e-02
4.550860e-02
1.779790e-02
1.778410e-02
4.551090e-02
4.551530e-02
1.779790e-02
1.781100e-02
4.550860e-02
4.551090e-02
1.778410e-02
1.779790e-02
1.781100e-02
1.779790e-02
-1.361580e-02
-1.362150e-02
1.779790e-02
1.778410e-02
-1.362150e-02
-1.362740e-02
1.779790e-02
1.781100e-02
-1.362150e-02
-1.361580e-02
1.778410e-02
1.779790e-02
-1.362740e-02
-1.362150e-02
-1.361580e-02
-1.362150e-02
-2.307530e-02
-2.308660e-02
-1.362150e-02
-1.362740e-02
-2.308660e-02
-2.309700e-02
-1.362150e-02
-1.361580e-02
-2.308660e-02
-2.307530e-02
-1.362740e-02
-1.362150e-02
-2.309700e-02
-2.308660e-02
-2.307530e-02
-2.308660e-02
-4.496880e-03
-4.488270e-03
-2.308660e-02
-2.309700e-02
-4.488270e-03
-4.481400e-03
-2.308660e-02
-2.307530e-02
-4.488270e-03
-4.496880e-03
-2.309700e-02
-2.308660e-02
-4.481400e-03
-4.488270e-03
-4.496880e-03
-4.488270e-03
1.463040e-02
1.462660e-02
-4.488270e-03
-4.481400e-03
1.462660e-02
1.462170e-02
-4.488270e-03
-4.496880e-03
1.462660e-02
1.463040e-02
-4.481400e-03
-4.488270e-03
1.462170e-02
1.462660e-02
1.463040e-02
1.462660e-02
3.540330e-03
3.543880e-03
1.462660e-02
1.462170e-02
3.543880e-03
3.548620e-03
1.462660e-02
1.463040e-02
3.543880e-03
3.540330e-03
1.462170e-02
1.462660e-02
3.548620e-03
3.543880e-03
3.540330e-03
3.543880e-03
-9.569600e-03
-9.557100e-03
3.543880e-03
3.548620e-03
-9.557090e-03
-9.543640e-03
3.543880e-03
3.540330e-03
-9.557100e-03
-9.569610e-03
3.548620e-03
3.543880e-03
-9.543640e-03
-9.557100e-03
-9.569600e-03
-9.557100e-03
-9.273330e-04
-9.163370e-04
-9.557090e-03
-9.543640e-03
-9.163370e-04
-9.062690e-04
-9.557100e-03
-9.569610e-03
-9.163370e-04
-9.273280e-04
-9.543640e-03
-9.557100e-03
-9.062690e-04
-9.163360e-04
-9.273330e-04
-9.163370e-04
3.513760e-03
3.525440e-03
-9.163370e-04
-9.062690e-04
3.525440e-03
3.535750e-03
-9.163370e-04
-9.273280e-04
3.525440e-03
3.513760e-03
-9.062690e-04
-9.163360e-04
3.535750e-03
3.525440e-03
3.513760e-03
3.525440e-03
-1.741170e-03
-1.738940e-03
3.525440e-03
3.535750e-03
-1.738940e-03
-1.735230e-03
3.525440e-03
3.513760e-03
-1.738940e-03
-1.741170e-03
3.535750e-03
3.525440e-03
-1.735230e-03
-1.738940e-03
-1.741170e-03
-1.738940e-03
-1.559610e-03
-1.563240e-03
-1.738940e-03
-1.735230e-03
-1.563240e-03
-1.567460e-03
-1.738940e-03
-1.741170e-03
-1.563240e-03
-1.559610e-03
-1.735230e-03
-1.738940e-03
-1.567460e-03
-1.563230e-03
-1.559610e-03
-1.563240e-03
3.021760e-04
2.987190e-04
-1.563240e-03
-1.567460e-03
2.987190e-04
2.937800e-04
-1.563240e-03
-1.559610e-03
2.987190e-04
3.021650e-04
-1.567460e-03
-1.563230e-03
2.937800e-04
2.987220e-04
3.021760e-04
2.987190e-04
-2.315260e-04
-2.329340e-04
2.987190e-04
2.937800e-04
-2.329060e-04
-2.360030e-04
2.987190e-04
3.021650e-04
-2.329340e-04
-2.315470e-04
2.937800e-04
2.987220e-04
-2.360030e-04
-2.329320e-04
-2.315260e-04
-2.329340e-04
-4.338920e-04
-4.355910e-04
-2.329060e-04
-2.360030e-04
-4.354640e-04
-4.380630e-04
-2.329340e-04
-2.315470e-04
-4.355910e-04
-4.339080e-04
-2.360030e-04
-2.329320e-04
-4.380630e-04
-4.355900e-04
-4.338920e-04
-4.355910e-04
-2.534480e-04
-2.582760e-04
-4.354640e-04
-4.380630e-04
-2.582770e-04
-2.600220e-04
-4.355910e-04
-4.339080e-04
-2.582760e-04
-2.534200e-04
-4.380630e-04
-4.355900e-04
-2.600220e-04
-2.582730e-04
-2.534480e-04
-2.582760e-04
-9.037190e-05
-8.494250e-05
-2.582770e-04
-2.600220e-04
-8.502420e-05
-7.814510e-05
-2.582760e-04
-2.534200e-04
-8.494250e-05
-9.036600e-05
-2.600220e-04
-2.582730e-04
-7.814510e-05
-8.494220e-05
-9.037190e-05
-8.494250e-05
6.770950e-05
6.614490e-05
-8.502420e-05
-7.814510e-05
6.613750e-05
6.651940e-05
-8.494250e-05
-9.036600e-05
6.614490e-05
6.769110e-05
-7.814510e-05
-8.494220e-05
6.651940e-05
6.614240e-05
6.770950e-05
6.614490e-05
-1.723650e-04
-1.631990e-04
6.613750e-05
6.651940e-05
-1.632020e-04
-1.572860e-04
6.614490e-05
6.769110e-05
-1.631990e-04
-1.723600e-04
6.651940e-05
6.614240e-05
-1.572860e-04
-1.632040e-04
-1.723650e-04
-1.631990e-04
-1.528560e-04
-1.422730e-04
-1.632020e-04
-1.572860e-04
-1.422780e-04
-1.330660e-04
-1.631990e-04
-1.723600e-04
-1.422730e-04
-1.528280e-04
-1.572860e-04
-1.632040e-04
-1.330660e-04
-1.422740e-04
-1.528560e-04
-1.422730e-04
-8.911160e-05
-8.536730e-05
-1.422780e-04
-1.330660e-04
-8.532220e-05
-8.197220e-05
-1.422730e-04
-1.528280e-04
-8.536730e-05
-8.914210e-05
-1.330660e-04
-1.422740e-04
-8.197220e-05
-8.536540e-05
-8.911160e-05
-8.536730e-05
-2.117100e-04
-2.205000e-04
-8.532220e-05
-8.197220e-05
-2.205240e-04
-2.288100e-04
-8.536730e-05
-8.914210e-05
-2.205000e-04
-2.117180e-04
-8.197220e-05
-8.536540e-05
-2.288100e-04
-2.204970e-04
-2.117100e-04
-2.205000e-04
-1.420850e-04
-1.400740e-04
-2.205240e-04
-2.288100e-04
-1.400810e-04
-1.274840e-04
-2.205000e-04
-2.117180e-04
-1.400740e-04
-1.420810e-04
-2.288100e-04
-2.204970e-04
-1.274840e-04
-1.400740e-04
0.000000e+00
0.000000e+00
1.288750e-03
1.315510e-03
0.000000e+00
0.000000e+00
1.261210e-03
1.288750e-03
0.000000e+00
0.000000e+00
1.315510e-03
1.288750e-03
0.000000e+00
0.000000e+00
1.288750e-03
1.261210e-03
1.288750e-03
1.315510e-03
3.238420e-03
3.228330e-03
1.261210e-03
1.288750e-03
3.249130e-03
3.238420e-03
1.315510e-03
1.288750e-03
3.228330e-03
3.238410e-03
1.288750e-03
1.261210e-03
3.238420e-03