<?xml version="1.0"?>
<VTKFile type="UnstructuredGrid" version="0.1" byte_order="LittleEndian" compressor="vtkZLibDataCompressor">
<UnstructuredGrid>
<Piece NumberOfPoints="960" NumberOfCells="120">
<Points>
<DataArray type="Float32" NumberOfComponents="3" format="ascii">
-4.000000e+02 -6.000000e+03 -4.000000e+02
0.000000e+00 -6.000000e+03 -4.000000e+02
-4.000000e+02 -5.599990e+03 -4.000000e+02
-1.980450e-10 -5.599990e+03 -4.000000e+02
-4.000000e+02 -6.000000e+03 0.000000e+00
0.000000e+00 -6.000000e+03 0.000000e+00
-4.000000e+02 -5.599990e+03 -2.612810e-10
2.554830e-10 -5.599990e+03 1.867780e-10
0.000000e+00 -6.000000e+03 -4.000000e+02
4.000000e+02 -6.000000e+03 -4.000000e+02
-1.980450e-10 -5.599990e+03 -4.000000e+02
4.000000e+02 -5.599990e+03 -4.000000e+02
0.000000e+00 -6.000000e+03 0.000000e+00
4.000000e+02 -6.000000e+03 0.000000e+00
2.554830e-10 -5.599990e+03 1.867780e-10
4.000000e+02 -5.599990e+03 2.091040e-10
-4.000000e+02 -5.599990e+03 -4.000000e+02
-1.980450e-10 -5.599990e+03 -4.000000e+02
-4.000000e+02 -5.200020e+03 -4.000000e+02
1.844680e-10 -5.200020e+03 -4.000000e+02
-4.000000e+02 -5.599990e+03 -2.612810e-10
2.554830e-10 -5.599990e+03 1.867780e-10
-4.000000e+02 -5.200020e+03 4.151240e-10
-6.588230e-11 -5.200020e+03 3.950430e-10
-1.980450e-10 -5.599990e+03 -4.000000e+02
4.000000e+02 -5.599990e+03 -4.000000e+02
1.844680e-10 -5.200020e+03 -4.000000e+02
4.000000e+02 -5.200020e+03 -4.000000e+02
2.554830e-10 -5.599990e+03 1.867780e-10
4.000000e+02 -5.599990e+03 2.091040e-10
-6.588230e-11 -5.200020e+03 3.950430e-10
4.000000e+02 -5.200020e+03 4.456980e-10
-4.000000e+02 -5.200020e+03 -4.000000e+02
1.844680e-10 -5.200020e+03 -4.000000e+02
-4.000000e+02 -4.800080e+03 -4.000000e+02
-1.617290e-10 -4.800080e+03 -4.000000e+02
-4.000000e+02 -5.200020e+03 4.151240e-10
-6.588230e-11 -5.200020e+03 3.950430e-10
-4.000000e+02 -4.800080e+03 2.173710e-11
-3.076170e-10 -4.800080e+03 5.306540e-10
1.844680e-10 -5.200020e+03 -4.000000e+02
4.000000e+02 -5.200020e+03 -4.000000e+02
-1.617290e-10 -4.800080e+03 -4.000000e+02
4.000000e+02 -4.800080e+03 -4.000000e+02
-6.588230e-11 -5.200020e+03 3.950430e-10
4.000000e+02 -5.200020e+03 4.456980e-10
-3.076170e-10 -4.800080e+03 5.306540e-10
4.000000e+02 -4.800080e+03 3.599900e-10
-4.000000e+02 -4.800080e+03 -4.000000e+02
-1.617290e-10 -4.800080e+03 -4.000000e+02
-4.000000e+02 -4.400140e+03 -4.000000e+02
-1.300320e-10 -4.400140e+03 -4.000000e+02
-4.000000e+02 -4.800080e+03 2.173710e-11
-3.076170e-10 -4.800080e+03 5.306540e-10
-4.000000e+02 -4.400140e+03 4.107000e-10
-3.429560e-10 -4.400140e+03 5.352710e-10
-1.617290e-10 -4.800080e+03 -4.000000e+02
4.000000e+02 -4.800080e+03 -4.000000e+02
-1.300320e-10 -4.400140e+03 -4.000000e+02
4.000000e+02 -4.400140e+03 -4.000000e+02
-3.076170e-10 -4.800080e+03 5.306540e-10
4.000000e+02 -4.800080e+03 3.599900e-10
-3.429560e-10 -4.400140e+03 5.352710e-10
4.000000e+02 -4.400140e+03 3.846060e-10
-4.000000e+02 -4.400140e+03 -4.000000e+02
-1.300320e-10 -4.400140e+03 -4.000000e+02
-4.000000e+02 -4.000190e+03 -4.000000e+02
7.087990e-11 -4.000190e+03 -4.000000e+02
-4.000000e+02 -4.400140e+03 4.107000e-10
-3.429560e-10 -4.400140e+03 5.352710e-10
-4.000000e+02 -4.000190e+03 3.122000e-10
-1.573240e-10 -4.000190e+03 2.967180e-10
-1.300320e-10 -4.400140e+03 -4.000000e+02
4.000000e+02 -4.400140e+03 -4.000000e+02
7.087990e-11 -4.000190e+03 -4.000000e+02
4.000000e+02 -4.000190e+03 -4.000000e+02
-3.429560e-10 -4.400140e+03 5.352710e-10
4.000000e+02 -4.400140e+03 3.846060e-10
-1.573240e-10 -4.000190e+03 2.967180e-10
4.000000e+02 -4.000190e+03 4.267420e-11
-4.000000e+02 -4.000190e+03 -4.000000e+02
7.087990e-11 -4.000190e+03 -4.000000e+02
-4.000000e+02 -3.600220e+03 -4.000000e+02
-1.167200e-10 -3.600220e+03 -4.000000e+02
-4.000000e+02 -4.000190e+03 3.122000e-10
-1.573240e-10 -4.000190e+03 2.967180e-10
-4.000000e+02 -3.600220e+03 -4.179440e-11
2.039240e-11 -3.600220e+03 8.969300e-11
7.087990e-11 -4.000190e+03 -4.000000e+02
4.000000e+02 -4.000190e+03 -4.000000e+02
-1.167200e-10 -3.600220e+03 -4.000000e+02
4.000000e+02 -3.600220e+03 -4.000000e+02
-1.573240e-10 -4.000190e+03 2.967180e-10
4.000000e+02 -4.000190e+03 4.267420e-11
2.039240e-11 -3.600220e+03 8.969300e-11
4.000000e+02 -3.600220e+03 -2.268470e-10
-4.000000e+02 -3.600220e+03 -4.000000e+02
-1.167200e-10 -3.600220e+03 -4.000000e+02
-4.000000e+02 -3.200240e+03 -4.000000e+02
4.233540e-10 -3.200240e+03 -4.000000e+02
-4.000000e+02 -3.600220e+03 -4.179440e-11
2.039240e-11 -3.600220e+03 8.969300e-11
-4.000000e+02 -3.200240e+03 4.820150e-10
3.065690e-10 -3.200240e+03 -7.869410e-11
-1.167200e-10 -3.600220e+03 -4.000000e+02
4.000000e+02 -3.600220e+03 -4.000000e+02
4.233540e-10 -3.200240e+03 -4.000000e+02
4.000000e+02 -3.200240e+03 -4.000000e+02
2.039240e-11 -3.600220e+03 8.969300e-11
4.000000e+02 -3.600220e+03 -2.268470e-10
3.065690e-10 -3.200240e+03 -7.869410e-11
4.000000e+02 -3.200240e+03 -2.316270e-10
-4.000000e+02 -3.200240e+03 -4.000000e+02
4.233540e-10 -3.200240e+03 -4.000000e+02
-4.000000e+02 -2.800240e+03 -4.000000e+02
3.612210e-10 -2.800240e+03 -4.000000e+02
-4.000000e+02 -3.200240e+03 4.820150e-10
3.065690e-10 -3.200240e+03 -7.869410e-11
-4.000000e+02 -2.800240e+03 4.333190e-10
3.566760e-10 -2.800240e+03 2.526950e-10
4.233540e-10 -3.200240e+03 -4.000000e+02
4.000000e+02 -3.200240e+03 -4.000000e+02
3.612210e-10 -2.800240e+03 -4.000000e+02
4.000000e+02 -2.800240e+03 -4.000000e+02
3.065690e-10 -3.200240e+03 -7.869410e-11
4.000000e+02 -3.200240e+03 -2.316270e-10
3.566760e-10 -2.800240e+03 2.526950e-10
4.000000e+02 -2.800240e+03 -5.130040e-11
-4.000000e+02 -2.800240e+03 -4.000000e+02
3.612210e-10 -2.800240e+03 -4.000000e+02
-4.000000e+02 -2.400250e+03 -4.000000e+02
2.772300e-10 -2.400250e+03 -4.000000e+02
-4.000000e+02 -2.800240e+03 4.333190e-10
3.566760e-10 -2.800240e+03 2.526950e-10
-4.000000e+02 -2.400250e+03 3.912150e-10
2.965730e-10 -2.400250e+03 3.968630e-10
3.612210e-10 -2.800240e+03 -4.000000e+02
4.000000e+02 -2.800240e+03 -4.000000e+02
2.772300e-10 -2.400250e+03 -4.000000e+02
4.000000e+02 -2.400250e+03 -4.000000e+02
3.566760e-10 -2.800240e+03 2.526950e-10
4.000000e+02 -2.800240e+03 -5.130040e-11
2.965730e-10 -2.400250e+03 3.968630e-10
4.000000e+02 -2.400250e+03 2.010160e-10
-4.000000e+02 -2.400250e+03 -4.000000e+02
2.772300e-10 -2.400250e+03 -4.000000e+02
-4.000000e+02 -2.000250e+03 -4.000000e+02
7.054830e-11 -2.000250e+03 -4.000000e+02
-4.000000e+02 -2.400250e+03 3.912150e-10
2.965730e-10 -2.400250e+03 3.968630e-10
-4.000000e+02 -2.000250e+03 2.030780e-10
2.145000e-10 -2.000250e+03 2.731210e-10
2.772300e-10 -2.400250e+03 -4.000000e+02
4.000000e+02 -2.400250e+03 -4.000000e+02
7.054830e-11 -2.000250e+03 -4.000000e+02
4.000000e+02 -2.000250e+03 -4.000000e+02
2.965730e-10 -2.400250e+03 3.968630e-10
4.000000e+02 -2.400250e+03 2.010160e-10
2.145000e-10 -2.000250e+03 2.731210e-10
4.000000e+02 -2.000250e+03 1.832410e-10
-4.000000e+02 -2.000250e+03 -4.000000e+02
7.054830e-11 -2.000250e+03 -4.000000e+02
-4.000000e+02 -1.600250e+03 -4.000000e+02
-9.164450e-11 -1.600250e+03 -4.000000e+02
-4.000000e+02 -2.000250e+03 2.030780e-10
2.145000e-10 -2.000250e+03 2.731210e-10
-4.000000e+02 -1.600250e+03 1.503750e-10
9.328470e-11 -1.600250e+03 5.570240e-11
7.054830e-11 -2.000250e+03 -4.000000e+02
4.000000e+02 -2.000250e+03 -4.000000e+02
-9.164450e-11 -1.600250e+03 -4.000000e+02
4.000000e+02 -1.600250e+03 -4.000000e+02
2.145000e-10 -2.000250e+03 2.731210e-10
4.000000e+02 -2.000250e+03 1.832410e-10
9.328470e-11 -1.600250e+03 5.570240e-11
4.000000e+02 -1.600250e+03 6.382820e-12
-4.000000e+02 -1.600250e+03 -4.000000e+02
-9.164450e-11 -1.600250e+03 -4.000000e+02
-4.000000e+02 -1.200250e+03 -4.000000e+02
-1.517390e-10 -1.200250e+03 -4.000000e+02
-4.000000e+02 -1.600250e+03 1.503750e-10
9.328470e-11 -1.600250e+03 5.570240e-11
-4.000000e+02 -1.200250e+03 1.350610e-10
-1.395520e-10 -1.200250e+03 1.053040e-10
-9.164450e-11 -1.600250e+03 -4.000000e+02
4.000000e+02 -1.600250e+03 -4.000000e+02
-1.517390e-10 -1.200250e+03 -4.000000e+02
4.000000e+02 -1.200250e+03 -4.000000e+02
9.328470e-11 -1.600250e+03 5.570240e-11
4.000000e+02 -1.600250e+03 6.382820e-12
-1.395520e-10 -1.200250e+03 1.053040e-10
4.000000e+02 -1.200250e+03 2.302350e-11
-4.000000e+02 -1.200250e+03 -4.000000e+02
-1.517390e-10 -1.200250e+03 -4.000000e+02
-4.000000e+02 -8.002530e+02 -4.000000e+02
-2.675790e-10 -8.002530e+02 -4.000000e+02
-4.000000e+02 -1.200250e+03 1.350610e-10
-1.395520e-10 -1.200250e+03 1.053040e-10
-4.000000e+02 -8.002530e+02 1.995990e-10
-2.690530e-10 -8.002530e+02 1.561700e-10
-1.517390e-10 -1.200250e+03 -4.000000e+02
4.000000e+02 -1.200250e+03 -4.000000e+02
-2.675790e-10 -8.002530e+02 -4.000000e+02
4.000000e+02 -8.002530e+02 -4.000000e+02
-1.395520e-10 -1.200250e+03 1.053040e-10
4.000000e+02 -1.200250e+03 2.302350e-11
-2.690530e-10 -8.002530e+02 1.561700e-10
4.000000e+02 -8.002530e+02 2.734540e-10
-4.000000e+02 -8.002530e+02 -4.000000e+02
-2.675790e-10 -8.002530e+02 -4.000000e+02
-4.000000e+02 -4.002540e+02 -4.000000e+02
-3.442910e-10 -4.002540e+02 -4.000000e+02
-4.000000e+02 -8.002530e+02 1.995990e-10
-2.690530e-10 -8.002530e+02 1.561700e-10
-4.000000e+02 -4.002540e+02 3.909480e-10
-2.221630e-10 -4.002540e+02 2.704270e-10
-2.675790e-10 -8.002530e+02 -4.000000e+02
4.000000e+02 -8.002530e+02 -4.000000e+02
-3.442910e-10 -4.002540e+02 -4.000000e+02
4.000000e+02 -4.002540e+02 -4.000000e+02
-2.690530e-10 -8.002530e+02 1.561700e-10
4.000000e+02 -8.002530e+02 2.734540e-10
-2.221630e-10 -4.002540e+02 2.704270e-10
4.000000e+02 -4.002540e+02 3.030120e-10
-4.000000e+02 -4.002540e+02 -4.000000e+02
-3.442910e-10 -4.002540e+02 -4.000000e+02
-4.000000e+02 -2.541880e-01 -4.000000e+02
-1.687900e-10 -2.541880e-01 -4.000000e+02
-4.000000e+02 -4.002540e+02 3.909480e-10
-2.221630e-10 -4.002540e+02 2.704270e-10
-4.000000e+02 -2.541880e-01 2.148670e-10
-2.472630e-10 -2.541880e-01 3.805030e-10
-3.442910e-10 -4.002540e+02 -4.000000e+02
4.000000e+02 -4.002540e+02 -4.000000e+02
-1.687900e-10 -2.541880e-01 -4.000000e+02
4.000000e+02 -2.541880e-01 -4.000000e+02
[...]
<PointData>
<DataArray type="Float32" Name="V1" format="ascii">
0.000000e+00
0.000000e+00
-4.556260e-10
-1.302530e-10
0.000000e+00
0.000000e+00
4.320600e-10
-7.935500e-11
0.000000e+00
0.000000e+00
-1.302530e-10
4.006370e-10
0.000000e+00
0.000000e+00
-7.935500e-11
-2.985140e-10
-4.556260e-10
-1.302530e-10
8.798300e-10
3.168370e-10
4.320600e-10
-7.935500e-11
1.414010e-10
3.577850e-12
-1.302530e-10
4.006370e-10
3.168370e-10
1.492570e-10
-7.935500e-11
-2.985140e-10
3.577850e-12
-5.027600e-10
8.798300e-10
3.168370e-10
5.656050e-10
1.610530e-10
1.414010e-10
3.577850e-12
-5.498940e-11
6.957990e-11
3.168370e-10
1.492570e-10
1.610530e-10
-3.692140e-10
3.577850e-12
-5.027600e-10
6.957990e-11
-3.142250e-11
5.656050e-10
1.610530e-10
-6.834400e-10
-5.173050e-10
-5.498940e-11
6.957990e-11
1.571130e-11
4.542960e-11
1.610530e-10
-3.692140e-10
-5.173050e-10
-3.927810e-11
6.957990e-11
-3.142250e-11
4.542960e-11
7.070060e-11
-6.834400e-10
-5.173050e-10
7.855630e-12
-3.723700e-12
1.571130e-11
4.542960e-11
5.813160e-10
3.177340e-10
-5.173050e-10
-3.927810e-11
-3.723700e-12
2.356690e-11
4.542960e-11
7.070060e-11
3.177340e-10
-2.749470e-10
7.855630e-12
-3.723700e-12
2.906580e-10
1.599550e-10
5.813160e-10
3.177340e-10
7.619960e-10
2.660050e-10
-3.723700e-12
2.356690e-11
1.599550e-10
8.641190e-11
3.177340e-10
-2.749470e-10
2.660050e-10
-6.991510e-10
2.906580e-10
1.599550e-10
-1.068370e-09
6.496750e-13
7.619960e-10
2.660050e-10
-1.673250e-09
-2.053680e-10
1.599550e-10
8.641190e-11
6.496750e-13
1.005520e-09
2.660050e-10
-6.991510e-10
-2.053680e-10
1.241190e-09
-1.068370e-09
6.496750e-13
1.759660e-09
1.093490e-10
-1.673250e-09
-2.053680e-10
6.363060e-10
-5.083260e-11
6.496750e-13
1.005520e-09
1.093490e-10
-1.406160e-09
-2.053680e-10
1.241190e-09
-5.083260e-11
-8.012740e-10
1.759660e-09
1.093490e-10
7.541400e-10
3.595090e-11
6.363060e-10
-5.083260e-11
3.377920e-10
-1.693100e-11
1.093490e-10
-1.406160e-09
3.595090e-11
-6.205950e-10
-5.083260e-11
-8.012740e-10
-1.693100e-11
-3.142250e-10
7.541400e-10
3.595090e-11
-1.013380e-09
9.692950e-11
3.377920e-10
-1.693100e-11
-1.429720e-09
-7.038240e-11
3.595090e-11
-6.205950e-10
9.692950e-11
8.405520e-10
-1.693100e-11
-3.142250e-10
-7.038240e-11
1.743950e-09
-1.013380e-09
9.692950e-11
1.256900e-10
-1.480490e-10
-1.429720e-09
-7.038240e-11
-2.042460e-10
1.846100e-10
9.692950e-11
8.405520e-10
-1.480490e-10
-3.063690e-10
-7.038240e-11
1.743950e-09
1.846100e-10
-3.456480e-10
1.256900e-10
-1.480490e-10
2.136730e-09
3.893800e-11
-2.042460e-10
1.846100e-10
2.066030e-09
-1.378180e-10
-1.480490e-10
-3.063690e-10
3.893800e-11
-1.743950e-09
1.846100e-10
-3.456480e-10
-1.378180e-10
-1.940340e-09
2.136730e-09
3.893800e-11
-1.688960e-09
2.815700e-10
2.066030e-09
-1.378180e-10
-1.311890e-09
-9.926380e-11
3.893800e-11
-1.743950e-09
2.815700e-10
1.720380e-09
-1.378180e-10
-1.940340e-09
-9.926380e-11
1.241190e-09
-1.688960e-09
2.815700e-10
-2.411680e-09
-1.148190e-10
-1.311890e-09
-9.926380e-11
-2.356690e-09
-8.504590e-11
2.815700e-10
1.720380e-09
-1.148190e-10
2.152440e-09
-9.926380e-11
1.241190e-09
-8.504590e-11
2.026750e-09
-2.411680e-09
-1.148190e-10
1.052650e-09
3.493480e-10
-2.356690e-09
-8.504590e-11
9.505310e-10
2.654360e-10
-1.148190e-10
2.152440e-09
3.493480e-10
-1.076220e-09
-8.504590e-11
2.026750e-09
2.654360e-10
-8.719750e-10
1.052650e-09
3.493480e-10
1.060510e-09
-8.577340e-11
9.505310e-10
2.654360e-10
1.374730e-09
4.276430e-11
3.493480e-10
-1.076220e-09
-8.577340e-11
-1.555410e-09
2.654360e-10
-8.719750e-10
4.276430e-11
-1.571130e-09
1.060510e-09
-8.577340e-11
-1.571130e-11
-4.425210e-11
1.374730e-09
4.276430e-11
2.906580e-10
1.054420e-10
-8.577340e-11
-1.555410e-09
-4.425210e-11
-4.870490e-10
4.276430e-11
-1.571130e-09
1.054420e-10
-3.299360e-10
-1.571130e-11
-4.425210e-11
-1.115500e-09
1.920030e-10
2.906580e-10
1.054420e-10
-1.225480e-09
-1.602890e-10
-4.425210e-11
-4.870490e-10
1.920030e-10
1.091930e-09
1.054420e-10
-3.299360e-10
-1.602890e-10
1.209770e-09
-1.115500e-09
1.920030e-10
-2.828030e-09
7.267760e-11
-1.225480e-09
-1.602890e-10
-2.796600e-09
-4.442650e-12
1.920030e-10
1.091930e-09
7.267760e-11
3.126540e-09
-1.602890e-10
1.209770e-09
-4.442650e-12
2.835880e-09
-2.828030e-09
7.267760e-11
-1.806790e-09
6.572870e-11
-2.796600e-09
-4.442650e-12
-1.893210e-09
1.347270e-11
7.267760e-11
3.126540e-09
6.572870e-11
1.987470e-09
-4.442650e-12
2.835880e-09
1.347270e-11
1.932480e-09
-1.806790e-09
6.572870e-11
1.720380e-09
-4.738640e-12
-1.893210e-09
1.347270e-11
1.696820e-09
-2.720540e-11
6.572870e-11
1.987470e-09
-4.738640e-12
-1.759660e-09
1.347270e-11
1.932480e-09
-2.720540e-11
-1.767520e-09
1.720380e-09
-4.738640e-12
-1.052650e-09
-4.323120e-11
1.696820e-09
-2.720540e-11
-1.044800e-09
-2.184540e-11
-4.738640e-12
-1.759660e-09
-4.323120e-11
9.740980e-10
-2.720540e-11
-1.767520e-09
-2.184540e-11
1.005520e-09
-1.052650e-09
-4.323120e-11
-2.992990e-09
3.883100e-11
-1.044800e-09
-2.184540e-11
-2.898730e-09
8.258070e-11
-4.323120e-11
9.740980e-10
3.883100e-11
3.087260e-09
-2.184540e-11
1.005520e-09
8.258070e-11
3.063690e-09
-2.992990e-09
3.883100e-11
1.571130e-11
5.337090e-11
-2.898730e-09
8.258070e-11
4.713380e-11
5.661360e-11
3.883100e-11
3.087260e-09
5.337090e-11
9.426750e-11
8.258070e-11
3.063690e-09
5.661360e-11
7.855630e-11
1.571130e-11
5.337090e-11
-4.084930e-10
-1.090570e-11
4.713380e-11
5.661360e-11
-7.227180e-10
-5.039150e-11
5.337090e-11
9.426750e-11
-1.090570e-11
3.770700e-10
5.661360e-11
7.855630e-11
-5.039150e-11
5.891720e-10
-4.084930e-10
-1.090570e-11
3.142250e-11
8.887850e-12
-7.227180e-10
-5.039150e-11
3.927810e-11
3.966500e-12
-1.090570e-11
3.770700e-10
8.887850e-12
-2.356690e-11
-5.039150e-11
5.891720e-10
3.966500e-12
-4.713380e-11
3.142250e-11
8.887850e-12
1.901060e-09
1.042250e-11
3.927810e-11
3.966500e-12
2.081740e-09
2.273300e-11
8.887850e-12
-2.356690e-11
1.042250e-11
-1.877490e-09
3.966500e-12
-4.713380e-11
2.273300e-11
-2.034610e-09
1.901060e-09
1.042250e-11
-1.414010e-10
1.398140e-12
2.081740e-09
2.273300e-11
-1.492570e-10
-4.825500e-12
1.042250e-11
-1.877490e-09
1.398140e-12
1.492570e-10
2.273300e-11
-2.034610e-09
-4.825500e-12
1.492570e-10
-1.414010e-10
1.398140e-12
-9.112530e-10
-1.888400e-12
-1.492570e-10
-4.825500e-12
-9.348200e-10
-4.529130e-12
1.398140e-12
1.492570e-10
-1.888400e-12
9.033970e-10
-4.825500e-12
1.492570e-10
-4.529130e-12
9.191080e-10
-9.112530e-10
-1.888400e-12
2.843740e-09
-2.838850e-12
-9.348200e-10
-4.529130e-12
2.867300e-09
5.020270e-12
-1.888400e-12
9.033970e-10
-2.838850e-12
-2.851590e-09
-4.529130e-12
9.191080e-10
5.020270e-12
-2.859450e-09
0.000000e+00
0.000000e+00
4.320600e-10
-7.935500e-11
0.000000e+00
0.000000e+00
-4.713380e-11
2.300980e-10
0.000000e+00
0.000000e+00
-7.935500e-11
-2.985140e-10
0.000000e+00
0.000000e+00
2.300980e-10
1.335460e-10
4.320600e-10
-7.935500e-11
1.414010e-10
3.577850e-12
-4.713380e-11
2.300980e-10
8.484080e-10
5.263130e-10
-7.935500e-11
-2.985140e-10
3.577850e-12
-5.027600e-10
2.300980e-10
1.335460e-10
5.263130e-10
4.399150e-10
1.414010e-10
3.577850e-12
-5.498940e-11
6.957990e-11
8.484080e-10
5.263130e-10
-6.912950e-10
-2.236000e-10
3.577850e-12
-5.027600e-10
6.957990e-11
-3.142250e-11
5.263130e-10
4.399150e-10
-2.236000e-10
2.906580e-10
-5.498940e-11
6.957990e-11
1.571130e-11
4.542960e-11
-6.912950e-10
-2.236000e-10
-1.492570e-10
-8.473670e-11
6.957990e-11
-3.142250e-11
4.542960e-11
7.070060e-11
-2.236000e-10
2.906580e-10
-8.473670e-11
-3.456480e-10
1.571130e-11
4.542960e-11
5.813160e-10
3.177340e-10
-1.492570e-10
-8.473670e-11
-7.305730e-10
-2.465880e-10
4.542960e-11
7.070060e-11
3.177340e-10
-2.749470e-10
-8.473670e-11
-3.456480e-10
-2.465880e-10
-1.414010e-10
5.813160e-10
3.177340e-10
7.619960e-10
2.660050e-10
-7.305730e-10
-2.465880e-10
-1.335460e-10
-1.887170e-10
3.177340e-10
-2.749470e-10
2.660050e-10
-6.991510e-10
-2.465880e-10
-1.414010e-10
-1.887170e-10
-9.426750e-11
7.619960e-10
2.660050e-10
-1.673250e-09
-2.053680e-10
-1.335460e-10
-1.887170e-10
-1.217620e-09
-1.416020e-10
2.660050e-10
-6.991510e-10
-2.053680e-10
1.241190e-09
-1.887170e-10
-9.426750e-11
-1.416020e-10
8.326970e-10
-1.673250e-09
-2.053680e-10
6.363060e-10
-5.083260e-11
-1.217620e-09
-1.416020e-10
7.934180e-10
-1.013640e-10
-2.053680e-10
1.241190e-09
-5.083260e-11
-8.012740e-10
-1.416020e-10
8.326970e-10
-1.013640e-10
-1.052650e-09
6.363060e-10
-5.083260e-11
3.377920e-10
-1.693100e-11
7.934180e-10
-1.013640e-10
6.991510e-10
1.259440e-10
-5.083260e-11
-8.012740e-10
-1.693100e-11
-3.142250e-10
-1.013640e-10
-1.052650e-09
1.259440e-10
-4.713380e-10
3.377920e-10
-1.693100e-11
-1.429720e-09
-7.038240e-11
6.991510e-10
1.259440e-10
-1.351170e-09
-1.833800e-10
-1.693100e-11
-3.142250e-10
-7.038240e-11
1.743950e-09
1.259440e-10
-4.713380e-10
-1.833800e-10
1.382590e-09
-1.429720e-09
-7.038240e-11
-2.042460e-10
1.846100e-10
-1.351170e-09
-1.833800e-10
8.641190e-11
-2.551090e-10
-7.038240e-11
1.743950e-09
1.846100e-10
-3.456480e-10
-1.833800e-10
1.382590e-09
-2.551090e-10
-1.571130e-11
-2.042460e-10
1.846100e-10
2.066030e-09
-1.378180e-10
8.641190e-11
-2.551090e-10
2.238850e-09
1.495760e-10
1.846100e-10
-3.456480e-10
-1.378180e-10
-1.940340e-09
-2.551090e-10
-1.571130e-11
1.495760e-10
-1.995330e-09
2.066030e-09
-1.378180e-10
-1.311890e-09
-9.926380e-11
2.238850e-09
1.495760e-10
-1.641830e-09
-2.850490e-11
-1.378180e-10
-1.940340e-09
-9.926380e-11
1.241190e-09
1.495760e-10
-1.995330e-09
-2.850490e-11
1.743950e-09
-1.311890e-09
-9.926380e-11
-2.356690e-09
-8.504590e-11
-1.641830e-09
-2.850490e-11
-2.545220e-09
1.349170e-10
-9.926380e-11
1.241190e-09
-8.504590e-11
2.026750e-09
-2.850490e-11
1.743950e-09
1.349170e-10
2.647350e-09
-2.356690e-09
-8.504590e-11
9.505310e-10
2.654360e-10
-2.545220e-09
1.349170e-10
7.384290e-10
1.951300e-10
-8.504590e-11
2.026750e-09
2.654360e-10
-8.719750e-10
1.349170e-10
2.647350e-09
1.951300e-10
-1.076220e-09
9.505310e-10
2.654360e-10
1.374730e-09
4.276430e-11
7.384290e-10
1.951300e-10
1.366880e-09
1.038960e-11
2.654360e-10
-8.719750e-10
4.276430e-11
-1.571130e-09
1.951300e-10
-1.076220e-09
1.038960e-11
-1.704670e-09
1.374730e-09
4.276430e-11
2.906580e-10
1.054420e-10
1.366880e-09
1.038960e-11
2.435240e-10
8.158750e-11
4.276430e-11
-1.571130e-09
1.054420e-10
-3.299360e-10
1.038960e-11
-1.704670e-09
8.158750e-11
-2.121020e-10
2.906580e-10
1.054420e-10
-1.225480e-09
-1.602890e-10
2.435240e-10
8.158750e-11
-1.256900e-09
5.990640e-11
1.054420e-10
-3.299360e-10
-1.602890e-10
1.209770e-09
8.158750e-11
-2.121020e-10
5.990640e-11
9.898090e-10
-1.225480e-09
-1.602890e-10
-2.796600e-09
-4.442650e-12
-1.256900e-09
5.990640e-11
-2.765180e-09
-4.514950e-11
-1.602890e-10
1.209770e-09
-4.442650e-12
2.835880e-09
5.990640e-11
9.898090e-10
-4.514950e-11
3.110830e-09
-2.796600e-09
-4.442650e-12
-1.893210e-09
1.347270e-11
-2.765180e-09
-4.514950e-11
-1.901060e-09
3.022810e-11
-4.442650e-12
2.835880e-09
1.347270e-11
1.932480e-09
-4.514950e-11
3.110830e-09
3.022810e-11
1.995330e-09
-1.893210e-09
1.347270e-11
1.696820e-09
-2.720540e-11
-1.901060e-09
3.022810e-11
1.696820e-09
-5.037470e-11
1.347270e-11
1.932480e-09
-2.720540e-11
-1.767520e-09
3.022810e-11
1.995330e-09
-5.037470e-11
-1.806790e-09
1.696820e-09
-2.720540e-11
-1.044800e-09
-2.184540e-11
1.696820e-09
-5.037470e-11
-1.021230e-09
-7.218640e-12
-2.720540e-11
-1.767520e-09
-2.184540e-11
1.005520e-09
-5.037470e-11
-1.806790e-09
-7.218640e-12
1.005520e-09
-1.044800e-09
-2.184540e-11
-2.898730e-09
8.258070e-11
-1.021230e-09
-7.218640e-12
-2.992990e-09
8.837810e-11
-2.184540e-11
1.005520e-09
8.258070e-11
3.063690e-09
-7.218640e-12
1.005520e-09
8.837810e-11
3.189380e-09
-2.898730e-09
8.258070e-11
4.713380e-11
5.661360e-11
-2.992990e-09
8.837810e-11
7.855630e-12
5.453980e-11
8.258070e-11
3.063690e-09
5.661360e-11
7.855630e-11
8.837810e-11
3.189380e-09
5.453980e-11
1.256900e-10
4.713380e-11
5.661360e-11
-7.227180e-10
-5.039150e-11
7.855630e-12
5.453980e-11
-4.163480e-10
-6.229560e-11
5.661360e-11
7.855630e-11
-5.039150e-11
5.891720e-10
5.453980e-11
1.256900e-10
-6.229560e-11
2.749470e-10
-7.227180e-10
-5.039150e-11
3.927810e-11
3.966500e-12
-4.163480e-10
-6.229560e-11
3.927810e-11
-1.743810e-11
-5.039150e-11
5.891720e-10
3.966500e-12
-4.713380e-11
-6.229560e-11
2.749470e-10
-1.743810e-11
-5.498940e-11
3.927810e-11
3.966500e-12
2.081740e-09
2.273300e-11
3.927810e-11
-1.743810e-11
1.885350e-09
1.940770e-11
3.966500e-12
-4.713380e-11
2.273300e-11
-2.034610e-09
-1.743810e-11
-5.498940e-11
1.940770e-11
-1.838220e-09
2.081740e-09
2.273300e-11
-1.492570e-10
-4.825500e-12
1.885350e-09
1.940770e-11
-1.335460e-10
-5.368930e-13
2.273300e-11
-2.034610e-09
-4.825500e-12
1.492570e-10
1.940770e-11
-1.838220e-09
-5.368930e-13
1.492570e-10
-1.492570e-10
-4.825500e-12
-9.348200e-10
-4.529130e-12
-1.335460e-10
-5.368930e-13
-9.191080e-10
-1.706690e-12
-4.825500e-12
1.492570e-10
-4.529130e-12
9.191080e-10
-5.368930e-13
1.492570e-10
-1.706690e-12
9.033970e-10
-9.348200e-10
-4.529130e-12
2.867300e-09
5.020270e-12
-9.191080e-10
-1.706690e-12
2.851590e-09
1.218830e-11
-4.529130e-12
9.191080e-10
5.020270e-12
-2.859450e-09
-1.706690e-12
9.033970e-10
1.218830e-11
-2.835880e-09
</DataArray>
<DataArray type="Float32" Name="V2" format="ascii">
0.000000e+00
0.000000e+00
-1.910310e-02
-1.910310e-02
0.000000e+00
0.000000e+00
-1.910310e-02
-1.910310e-02
0.000000e+00
0.000000e+00
-1.910310e-02
-1.910310e-02
0.000000e+00
0.000000e+00
-1.910310e-02
-1.910310e-02
-1.910310e-02
-1.910310e-02
-3.337660e-02
-3.337660e-02
-1.910310e-02
-1.910310e-02
-3.337660e-02
-3.337660e-02
-1.910310e-02
-1.910310e-02
-3.337660e-02
-3.337660e-02
-1.910310e-02
-1.910310e-02
-3.337660e-02
-3.337660e-02
-3.337660e-02
-3.337660e-02
-4.281840e-02
-4.281840e-02
-3.337660e-02
-3.337660e-02
-4.281840e-02
-4.281840e-02
-3.337660e-02
-3.337660e-02
-4.281840e-02
-4.281840e-02
-3.337660e-02
-3.337660e-02
-4.281840e-02
-4.281840e-02
-4.281840e-02
-4.281840e-02
-4.090270e-02
-4.090270e-02
-4.281840e-02
-4.281840e-02
-4.090270e-02
-4.090270e-02
-4.281840e-02
-4.281840e-02
-4.090270e-02
-4.090270e-02
-4.281840e-02
-4.281840e-02
-4.090270e-02
-4.090270e-02
-4.090270e-02
-4.090270e-02
-2.774250e-02
-2.774250e-02
-4.090270e-02
-4.090270e-02
-2.774250e-02
-2.774250e-02
-4.090270e-02
-4.090270e-02
-2.774250e-02
-2.774250e-02
-4.090270e-02
-4.090270e-02
-2.774250e-02
-2.774250e-02
-2.774250e-02
-2.774250e-02
-1.468280e-02
-1.468280e-02
-2.774250e-02
-2.774250e-02
-1.468280e-02
-1.468280e-02
-2.774250e-02
-2.774250e-02
-1.468280e-02
-1.468280e-02
-2.774250e-02
-2.774250e-02
-1.468280e-02
-1.468280e-02
-1.468280e-02
-1.468280e-02
-7.059860e-03
-7.059860e-03
-1.468280e-02
-1.468280e-02
-7.059870e-03
-7.059870e-03
-1.468280e-02
-1.468280e-02
-7.059860e-03
-7.059860e-03
-1.468280e-02
-1.468280e-02
-7.059870e-03
-7.059870e-03
-7.059860e-03
-7.059860e-03
-3.426180e-03
-3.426180e-03
-7.059870e-03
-7.059870e-03
-3.426180e-03
-3.426180e-03
-7.059860e-03
-7.059860e-03
-3.426180e-03
-3.426180e-03
-7.059870e-03
-7.059870e-03
-3.426180e-03
-3.426180e-03
-3.426180e-03
-3.426180e-03
-1.688720e-03
-1.688720e-03
-3.426180e-03
-3.426180e-03
-1.688720e-03
-1.688720e-03
-3.426180e-03
-3.426180e-03
-1.688720e-03
-1.688720e-03
-3.426180e-03
-3.426180e-03
-1.688720e-03
-1.688720e-03
-1.688720e-03
-1.688720e-03
-1.238060e-03
-1.238060e-03
-1.688720e-03
-1.688720e-03
-1.238060e-03
-1.238060e-03
-1.688720e-03
-1.688720e-03
-1.238060e-03
-1.238060e-03
-1.688720e-03
-1.688720e-03
-1.238060e-03
-1.238060e-03
-1.238060e-03
-1.238060e-03
-6.710450e-04
-6.710480e-04
-1.238060e-03
-1.238060e-03
-6.710490e-04
-6.710510e-04
-1.238060e-03
-1.238060e-03
-6.710480e-04
-6.710470e-04
-1.238060e-03
-1.238060e-03
-6.710510e-04
-6.710500e-04
-6.710450e-04
-6.710480e-04
-5.460640e-04
-5.460640e-04
-6.710490e-04
-6.710510e-04
-5.460640e-04
-5.460650e-04
-6.710480e-04
-6.710470e-04
-5.460640e-04
-5.460630e-04
-6.710510e-04
-6.710500e-04
-5.460650e-04
-5.460630e-04
-5.460640e-04
-5.460640e-04
-7.178070e-04
-7.178050e-04
-5.460640e-04
-5.460650e-04
-7.178050e-04
-7.178020e-04
-5.460640e-04
-5.460630e-04
-7.178050e-04
-7.178070e-04
-5.460650e-04
-5.460630e-04
-7.178020e-04
-7.178050e-04
-7.178070e-04
-7.178050e-04
-2.139970e-04
-2.139940e-04
-7.178050e-04
-7.178020e-04
-2.139970e-04
-2.139940e-04
-7.178050e-04
-7.178070e-04
-2.139940e-04
-2.139950e-04
-7.178020e-04
-7.178050e-04
-2.139940e-04
-2.139950e-04
-2.139970e-04
-2.139940e-04
-1.704250e-04
-1.704240e-04
-2.139970e-04
-2.139940e-04
-1.704250e-04
-1.704240e-04
-2.139940e-04
-2.139950e-04
-1.704240e-04
-1.704260e-04
-2.139940e-04
-2.139950e-04
-1.704240e-04
-1.704250e-04
-1.704250e-04
-1.704240e-04
-2.205840e-04
-2.205840e-04
-1.704250e-04
-1.704240e-04
-2.205830e-04
-2.205820e-04
-1.704240e-04
-1.704260e-04
-2.205840e-04
-2.205840e-04
-1.704240e-04
-1.704250e-04
-2.205820e-04
-2.205830e-04
-2.205840e-04
-2.205840e-04
-8.336810e-05
-8.336690e-05
-2.205830e-04
-2.205820e-04
-8.336720e-05
-8.336620e-05
-2.205840e-04
-2.205840e-04
-8.336690e-05
-8.336820e-05
-2.205820e-04
-2.205830e-04
-8.336620e-05
-8.336680e-05
-8.336810e-05
-8.336690e-05
3.416350e-05
3.416500e-05
-8.336720e-05
-8.336620e-05
3.416580e-05
3.416760e-05
-8.336690e-05
-8.336820e-05
3.416500e-05
3.416280e-05
-8.336620e-05
-8.336680e-05
3.416760e-05
3.416540e-05
3.416350e-05
3.416500e-05
-3.982500e-05
-3.982350e-05
3.416580e-05
3.416760e-05
-3.982390e-05
-3.982230e-05
3.416500e-05
3.416280e-05
-3.982350e-05
-3.982440e-05
3.416760e-05
3.416540e-05
-3.982230e-05
-3.982340e-05
-3.982500e-05
-3.982350e-05
-1.913720e-04
-1.913730e-04
-3.982390e-05
-3.982230e-05
-1.913730e-04
-1.913730e-04
-3.982350e-05
-3.982440e-05
-1.913730e-04
-1.913730e-04
-3.982230e-05
-3.982340e-05
-1.913730e-04
-1.913730e-04
-1.913720e-04
-1.913730e-04
-2.561470e-04
-2.561430e-04
-1.913730e-04
-1.913730e-04
-2.561430e-04
-2.561380e-04
-1.913730e-04
-1.913730e-04
-2.561430e-04
-2.561480e-04
-1.913730e-04
-1.913730e-04
-2.561380e-04
-2.561430e-04
-2.561470e-04
-2.561430e-04
-6.423680e-05
-6.423450e-05
-2.561430e-04
-2.561380e-04
-6.423450e-05
-6.423270e-05
-2.561430e-04
-2.561480e-04
-6.423450e-05
-6.423680e-05
-2.561380e-04
-2.561430e-04
-6.423270e-05
-6.423470e-05
-6.423680e-05
-6.423450e-05
-2.512790e-04
-2.512890e-04
-6.423450e-05
-6.423270e-05
-2.512890e-04
-2.512980e-04
-6.423450e-05
-6.423680e-05
-2.512890e-04
-2.512790e-04
-6.423270e-05
-6.423470e-05
-2.512980e-04
-2.512890e-04
-2.512790e-04
-2.512890e-04
-4.755140e-04
-4.755130e-04
-2.512890e-04
-2.512980e-04
-4.755130e-04
-4.755080e-04
-2.512890e-04
-2.512790e-04
-4.755130e-04
-4.755140e-04
-2.512980e-04
-2.512890e-04
-4.755080e-04
-4.755130e-04
-4.755140e-04
-4.755130e-04
-6.587180e-04
-6.587170e-04
-4.755130e-04
-4.755080e-04
-6.587180e-04
-6.587220e-04
-4.755130e-04
-4.755140e-04
-6.587170e-04
-6.587180e-04
-4.755080e-04
-4.755130e-04
-6.587220e-04
-6.587190e-04
-6.587180e-04
-6.587170e-04
-4.998480e-04
-4.998570e-04
-6.587180e-04
-6.587220e-04
-4.998570e-04
-4.998690e-04
-6.587170e-04
-6.587180e-04
-4.998570e-04
-4.998480e-04
-6.587220e-04
-6.587190e-04
-4.998690e-04
-4.998570e-04
-4.998480e-04
-4.998570e-04
-2.859040e-04
-2.858860e-04
-4.998570e-04
-4.998690e-04
-2.858860e-04
-2.858650e-04
-4.998570e-04
-4.998480e-04
-2.858860e-04
-2.859030e-04
-4.998690e-04
-4.998570e-04
-2.858650e-04
-2.858850e-04
-2.859040e-04
-2.858860e-04
-3.494770e-04
-3.494830e-04
-2.858860e-04
-2.858650e-04
-3.494830e-04
-3.494870e-04
-2.858860e-04
-2.859030e-04
-3.494830e-04
-3.494770e-04
-2.858650e-04
-2.858850e-04
-3.494870e-04
-3.494820e-04
-3.494770e-04
-3.494830e-04
-1.943580e-05
-1.945150e-05
-3.494830e-04
-3.494870e-04
-1.945170e-05
-1.946800e-05
-3.494830e-04
-3.494770e-04
-1.945150e-05
-1.943580e-05
-3.494870e-04
-3.494820e-04
-1.946800e-05
-1.945150e-05
-1.943580e-05
-1.945150e-05
1.389200e-04
1.389270e-04
-1.945170e-05
-1.946800e-05
1.389280e-04
1.389350e-04
-1.945150e-05
-1.943580e-05
1.389270e-04
1.389200e-04
-1.946800e-05
-1.945150e-05
1.389350e-04
1.389280e-04
0.000000e+00
0.000000e+00
-1.910310e-02
-1.910310e-02
0.000000e+00
0.000000e+00
-1.910310e-02
-1.910310e-02
0.000000e+00
0.000000e+00
-1.910310e-02
-1.910310e-02
0.000000e+00
0.000000e+00
-1.910310e-02
-1.910310e-02
-1.910310e-02