MercuryDPM 0.14 name oneDimChain revision 6406 repository https://svn.mercurydpm.org/SourceCode/Branches/OomphlibCouplingExplicit
dataFile    fileType ONE_FILE saveCount 62 counter 102 lastSavedTimeStep 6222
fStatFile   fileType ONE_FILE saveCount 62 counter 102 lastSavedTimeStep 6222
eneFile     fileType ONE_FILE saveCount 62 counter 102 lastSavedTimeStep 6222
restartFile fileType ONE_FILE saveCount 62 counter 102 lastSavedTimeStep 6222
statFile    fileType ONE_FILE saveCount 62 counter 0
interactionFile fileType NO_FILE saveCount 0 counter 0
xMin -500 xMax 500 yMin -5000 yMax 5000 zMin -500 zMax 500
timeStep 0.0160743783395346 time 100.01478202859 ntimeSteps 6222 timeMax 100
systemDimensions 3 particleDimensions 3 gravity 0 0 -0 writeVTK 1 MULTIPLE_FILES NO_FILE 102 102 0 0 random  0 1103515245 12345 1073741824 607 273 784607267
Species 1
LinearViscoelasticReversibleAdhesiveSpecies id 0 density 2500 stiffness 20000000000 dissipation -0 adhesionForceMax 0 adhesionStiffness 20000000000
Walls 0
Boundaries 0
Particles 960
BaseParticle id 0 indSpecies 0 position -300.00000000293 2099.71085241488 -300.000000002778 orientation 1 0 0 0 velocity 3.28340660865866e-09 0.0240852184568344 3.95251720664968e-09 angularVelocity 0 0 0 force -2.72196111690977 154374024.285957 -7.55521757898594 torque 0 0 0 radius 100 invMass 9.54929658551372e-11
BaseParticle id 1 indSpecies 0 position -300.000000004684 2099.71085240151 -100.000000000658 orientation 1 0 0 0 velocity 2.65906367150851e-09 0.0240853374396769 -1.05386869492862e-10 angularVelocity 0 0 0 force -6.50458652557591 154375723.824045 -10.5011511271733 torque 0 0 0 radius 100 invMass 9.54929658551372e-11
BaseParticle id 2 indSpecies 0 position -300.000000003772 2099.71085240127 100.000000001199 orientation 1 0 0 0 velocity 2.68917549045263e-09 0.0240853377365627 8.54665388113987e-10 angularVelocity 0 0 0 force -4.51029088172666 154375726.044125 9.37847166222448 torque 0 0 0 radius 100 invMass 9.54929658551372e-11
BaseParticle id 3 indSpecies 0 position -300.000000003515 2099.71085241398 300.000000005994 orientation 1 0 0 0 velocity 2.79452625563272e-09 0.0240852197217209 -3.12285645389748e-09 angularVelocity 0 0 0 force -0.719500461591779 154374081.801253 6.3872922823186 torque 0 0 0 radius 100 invMass 9.54929658551372e-11
BaseParticle id 4 indSpecies 0 position -100.000000001215 2099.71085240247 -300.000000004085 orientation 1 0 0 0 velocity -2.8434341172734e-10 0.0240853368367493 3.63343887734015e-09 angularVelocity 0 0 0 force -10.7508171205322 154375708.728523 -9.22557904349941 torque 0 0 0 radius 100 invMass 9.54929658551372e-11
BaseParticle id 5 indSpecies 0 position -99.9999999991499 2099.71085240809 -99.9999999999396 orientation 1 0 0 0 velocity -5.7103507226357e-10 0.0240854196466158 -1.3067631148516e-10 angularVelocity 0 0 0 force -11.8206276785275 154376891.270036 -11.0394391981329 torque 0 0 0 radius 100 invMass 9.54929658551372e-11
BaseParticle id 6 indSpecies 0 position -100.000000000327 2099.71085240836 100.000000002789 orientation 1 0 0 0 velocity -4.85072253057664e-10 0.0240854193471334 8.60118566735795e-10 angularVelocity 0 0 0 force -9.8122950762179 154376879.250457 8.33072917420743 torque 0 0 0 radius 100 invMass 9.54929658551372e-11
BaseParticle id 7 indSpecies 0 position -100.000000000371 2099.71085240192 300.000000004213 orientation 1 0 0 0 velocity -5.43059507242382e-10 0.0240853372179307 -2.85919963147721e-09 angularVelocity 0 0 0 force -5.65683966135979 154375729.136584 6.35093605383281 torque 0 0 0 radius 100 invMass 9.54929658551372e-11
BaseParticle id 8 indSpecies 0 position 100.000000000752 2099.71085240237 -300.000000003332 orientation 1 0 0 0 velocity 4.44763946357425e-10 0.024085340356765 3.69768799672061e-09 angularVelocity 0 0 0 force 5.48183290702209 154375708.279021 -8.28438791475186 torque 0 0 0 radius 100 invMass 9.54929658551372e-11
BaseParticle id 9 indSpecies 0 position 100.000000002045 2099.71085240729 -100.000000000552 orientation 1 0 0 0 velocity 2.38938889031797e-10 0.0240854164472618 -8.50397092747238e-11 angularVelocity 0 0 0 force 4.10738873537869 154376895.219748 -10.2050032183907 torque 0 0 0 radius 100 invMass 9.54929658551372e-11
BaseParticle id 10 indSpecies 0 position 100.000000002364 2099.71085240785 100.000000002403 orientation 1 0 0 0 velocity 2.87236386878466e-10 0.0240854175424385 9.13315090556099e-10 angularVelocity 0 0 0 force 5.06890554536534 154376886.469501 9.35991973325944 torque 0 0 0 radius 100 invMass 9.54929658551372e-11
BaseParticle id 11 indSpecies 0 position 100.000000001378 2099.71085240132 300.000000004712 orientation 1 0 0 0 velocity 2.49300985277341e-10 0.0240853391093 -2.81855480377959e-09 angularVelocity 0 0 0 force 9.76300883619498 154375735.997478 7.48734232383197 torque 0 0 0 radius 100 invMass 9.54929658551372e-11
BaseParticle id 12 indSpecies 0 position 300.000000006089 2099.71085241514 -300.000000003959 orientation 1 0 0 0 velocity -3.06972572164902e-09 0.0240852153542013 3.91278640008747e-09 angularVelocity 0 0 0 force -3.80679884660502 154374054.765168 -2.23231034923472 torque 0 0 0 radius 100 invMass 9.54929658551372e-11
BaseParticle id 13 indSpecies 0 position 300.000000005364 2099.71085240357 -100.000000000454 orientation 1 0 0 0 velocity -2.93584230196476e-09 0.0240853405850855 -9.30999169548734e-11 angularVelocity 0 0 0 force -2.27381674728635 154375712.451634 -5.63862308127056 torque 0 0 0 radius 100 invMass 9.54929658551372e-11
BaseParticle id 14 indSpecies 0 position 300.00000000484 2099.71085240305 100.000000001207 orientation 1 0 0 0 velocity -2.8431847609921e-09 0.0240853390623695 8.43353356382914e-10 angularVelocity 0 0 0 force -1.09072119365633 154375719.005384 14.436195520304 torque 0 0 0 radius 100 invMass 9.54929658551372e-11
BaseParticle id 15 indSpecies 0 position 300.000000005719 2099.71085241648 300.000000005265 orientation 1 0 0 0 velocity -3.00900692528371e-09 0.024085216098291 -3.12663165035042e-09 angularVelocity 0 0 0 force 4.28314921874361 154374016.395208 11.4438379882411 torque 0 0 0 radius 100 invMass 9.54929658551372e-11
BaseParticle id 16 indSpecies 0 position -300.000000006643 2299.70003544835 -300.000000005278 orientation 1 0 0 0 velocity 1.91802872188605e-09 0.039928444246175 1.73132718701723e-09 angularVelocity 0 0 0 force -4.55059683679358 -64412726.5227921 -4.09326984528967 torque 0 0 0 radius 100 invMass 9.54929658551372e-11
BaseParticle id 17 indSpecies 0 position -300.000000005142 2299.7000354946 -100.000000002364 orientation 1 0 0 0 velocity 1.86959835405155e-09 0.0399282072696622 -6.43928341925454e-10 angularVelocity 0 0 0 force -3.37391981608648 -64414189.378264 -2.79645269097706 torque 0 0 0 radius 100 invMass 9.54929658551372e-11
BaseParticle id 18 indSpecies 0 position -300.00000000598 2299.70003549443 100.000000004585 orientation 1 0 0 0 velocity 1.87077341199477e-09 0.0399282079194497 4.82102905006398e-10 angularVelocity 0 0 0 force -3.29865117194018 -64414177.4978096 6.42027521628916 torque 0 0 0 radius 100 invMass 9.54929658551372e-11
BaseParticle id 19 indSpecies 0 position -300.000000005449 2299.70003544904 300.000000005801 orientation 1 0 0 0 velocity 1.7949000745783e-09 0.0399284401920848 -1.89154592278333e-09 angularVelocity 0 0 0 force -7.83964443895899 -64412756.5870215 7.82489100471699 torque 0 0 0 radius 100 invMass 9.54929658551372e-11
BaseParticle id 20 indSpecies 0 position -100.000000003543 2299.70003549486 -300.000000005046 orientation 1 0 0 0 velocity -3.0847833201514e-10 0.0399282079683026 1.72260637904659e-09 angularVelocity 0 0 0 force -2.48078888206214 -64414188.6730922 -2.94040716800217 torque 0 0 0 radius 100 invMass 9.54929658551372e-11
BaseParticle id 21 indSpecies 0 position -100.000000004228 2299.70003553668 -100.000000003219 orientation 1 0 0 0 velocity -3.29285594540468e-10 0.0399280011241324 -6.2060297682389e-10 angularVelocity 0 0 0 force -3.06224438816768 -64415647.1359586 -3.66846466379238 torque 0 0 0 radius 100 invMass 9.54929658551372e-11
BaseParticle id 22 indSpecies 0 position -100.000000003682 2299.70003553655 100.000000003212 orientation 1 0 0 0 velocity -3.13875679855433e-10 0.0399280022170998 4.28397881963741e-10 angularVelocity 0 0 0 force -3.31650503047901 -64415636.1439258 3.84869134250872 torque 0 0 0 radius 100 invMass 9.54929658551372e-11
BaseParticle id 23 indSpecies 0 position -100.00000000347 2299.70003549519 300.000000006852 orientation 1 0 0 0 velocity -3.92678444045572e-10 0.0399282064853201 -1.89822356923953e-09 angularVelocity 0 0 0 force -5.24461968214166 -64414208.8080377 3.0945197676878 torque 0 0 0 radius 100 invMass 9.54929658551372e-11
BaseParticle id 24 indSpecies 0 position 100.000000003772 2299.70003549448 -300.000000005392 orientation 1 0 0 0 velocity 6.91741059730611e-10 0.0399282002858187 1.68999060645222e-09 angularVelocity 0 0 0 force 8.26109982042567 -64414219.2295194 -3.28746584856307 torque 0 0 0 radius 100 invMass 9.54929658551372e-11
BaseParticle id 25 indSpecies 0 position 100.000000002908 2299.70003553614 -100.000000002549 orientation 1 0 0 0 velocity 6.50628288095834e-10 0.0399280086429343 -6.56266606919859e-10 angularVelocity 0 0 0 force 5.56566652824437 -64415611.619171 -4.07219813485895 torque 0 0 0 radius 100 invMass 9.54929658551372e-11
BaseParticle id 26 indSpecies 0 position 100.000000002911 2299.70003553605 100.000000003552 orientation 1 0 0 0 velocity 6.20876085072564e-10 0.0399280050526728 3.94544790505549e-10 angularVelocity 0 0 0 force 5.02355706588635 -64415631.3616126 3.64482480707201 torque 0 0 0 radius 100 invMass 9.54929658551372e-11
BaseParticle id 27 indSpecies 0 position 100.000000003752 2299.70003549506 300.000000006753 orientation 1 0 0 0 velocity 6.06694129644632e-10 0.0399282024936661 -1.9493378833432e-09 angularVelocity 0 0 0 force 4.62949234070623 -64414207.9583667 2.92634184849267 torque 0 0 0 radius 100 invMass 9.54929658551372e-11
BaseParticle id 28 indSpecies 0 position 300.000000004222 2299.70003544943 -300.000000005268 orientation 1 0 0 0 velocity -1.49342154046872e-09 0.0399284493479769 1.67465973707141e-09 angularVelocity 0 0 0 force 9.90604133136695 -64412705.8077788 -6.75975961410979 torque 0 0 0 radius 100 invMass 9.54929658551372e-11
BaseParticle id 29 indSpecies 0 position 300.000000005752 2299.70003549565 -100.000000003205 orientation 1 0 0 0 velocity -1.54008440621758e-09 0.0399282013289294 -6.81380666490733e-10 angularVelocity 0 0 0 force 5.8749651827245 -64414200.6382871 -5.68679017691717 torque 0 0 0 radius 100 invMass 9.54929658551372e-11
BaseParticle id 30 indSpecies 0 position 300.000000005509 2299.70003549561 100.000000004012 orientation 1 0 0 0 velocity -1.53903108207042e-09 0.0399282051450374 4.26153160391628e-10 angularVelocity 0 0 0 force 5.08143277747727 -64414183.1160769 3.70911706530525 torque 0 0 0 radius 100 invMass 9.54929658551372e-11
BaseParticle id 31 indSpecies 0 position 300.000000005362 2299.70003544961 300.000000005709 orientation 1 0 0 0 velocity -1.57477024053851e-09 0.0399284475255268 -1.9294615718145e-09 angularVelocity 0 0 0 force 7.20310658277608 -64412727.8932894 4.87614518557062 torque 0 0 0 radius 100 invMass 9.54929658551372e-11
BaseParticle id 32 indSpecies 0 position -300.000000006352 2499.69244250655 -300.00000000568 orientation 1 0 0 0 velocity 1.97643290134865e-09 0.0205921894803041 1.91031655058894e-09 angularVelocity 0 0 0 force 13.1872774064863 -29674723.9316121 16.2599429944447 torque 0 0 0 radius 100 invMass 9.54929658551372e-11
BaseParticle id 33 indSpecies 0 position -300.000000005556 2499.69244254909 -100.000000001314 orientation 1 0 0 0 velocity 2.08434853590299e-09 0.0205922501479532 3.62996218316109e-10 angularVelocity 0 0 0 force 13.2553430914523 -29675972.5176088 0.676512277115507 torque 0 0 0 radius 100 invMass 9.54929658551372e-11
BaseParticle id 34 indSpecies 0 position -300.000000005838 2499.69244254952 100.000000002891 orientation 1 0 0 0 velocity 2.01165006013402e-09 0.0205922502708817 -3.93970103502495e-10 angularVelocity 0 0 0 force 13.2447844174219 -29675979.0827854 5.25651627442914 torque 0 0 0 radius 100 invMass 9.54929658551372e-11
BaseParticle id 35 indSpecies 0 position -300.00000000577 2499.69244250679 300.000000007121 orientation 1 0 0 0 velocity 1.87138886786043e-09 0.0205921882613959 -1.93782059447211e-09 angularVelocity 0 0 0 force 8.54878703107075 -29674735.324596 -10.010887913041 torque 0 0 0 radius 100 invMass 9.54929658551372e-11
BaseParticle id 36 indSpecies 0 position -100.000000002206 2499.69244254892 -300.000000005502 orientation 1 0 0 0 velocity 5.65667800716157e-10 0.0205922491361968 1.99152376763094e-09 angularVelocity 0 0 0 force 0.490985953227405 -29675951.9289036 16.7183229919002 torque 0 0 0 radius 100 invMass 9.54929658551372e-11
BaseParticle id 37 indSpecies 0 position -100.000000002499 2499.69244256862 -100.000000001448 orientation 1 0 0 0 velocity 5.99827794846109e-10 0.0205922536764522 4.04616160689914e-10 angularVelocity 0 0 0 force -1.41133302733147 -29676229.0657271 -0.823384593534996 torque 0 0 0 radius 100 invMass 9.54929658551372e-11
BaseParticle id 38 indSpecies 0 position -100.000000002209 2499.69244256885 100.000000002638 orientation 1 0 0 0 velocity 5.39372851398932e-10 0.0205922540816864 -4.10041531388116e-10 angularVelocity 0 0 0 force -1.35913396949166 -29676229.778077 3.09803389375903 torque 0 0 0 radius 100 invMass 9.54929658551372e-11
BaseParticle id 39 indSpecies 0 position -100.000000001934 2499.69244254876 300.000000006636 orientation 1 0 0 0 velocity 4.38471489302126e-10 0.0205922476435558 -1.99911575873587e-09 angularVelocity 0 0 0 force -3.81322206038027 -29675940.8634969 -14.1664782749964 torque 0 0 0 radius 100 invMass 9.54929658551372e-11
BaseParticle id 40 indSpecies 0 position 100.000000002032 2499.69244254553 -300.000000005519 orientation 1 0 0 0 velocity -1.54763356105505e-10 0.0205922558691953 1.92064890015722e-09 angularVelocity 0 0 0 force 4.44011375219318 -29675947.7989483 16.8550183295697 torque 0 0 0 radius 100 invMass 9.54929658551372e-11
BaseParticle id 41 indSpecies 0 position 100.00000000231 2499.69244257103 -100.000000001389 orientation 1 0 0 0 velocity -1.5420866973961e-10 0.0205922485630997 3.2902394960025e-10 angularVelocity 0 0 0 force 1.85222801859299 -29676244.8525152 -0.717243055919222 torque 0 0 0 radius 100 invMass 9.54929658551372e-11
BaseParticle id 42 indSpecies 0 position 100.000000001837 2499.69244256889 100.000000002711 orientation 1 0 0 0 velocity -2.06008690995935e-10 0.0205922504149964 -4.84577868915889e-10 angularVelocity 0 0 0 force 1.82166273145412 -29676229.0646026 3.47872814764385 torque 0 0 0 radius 100 invMass 9.54929658551372e-11
BaseParticle id 43 indSpecies 0 position 100.000000002698 2499.6924425489 300.000000006895 orientation 1 0 0 0 velocity -2.59889210206488e-10 0.0205922562109327 -2.08530190884744e-09 angularVelocity 0 0 0 force 0.310828921901363 -29676010.8224548 -13.7754175507953 torque 0 0 0 radius 100 invMass 9.54929658551372e-11
BaseParticle id 44 indSpecies 0 position 300.000000005691 2499.69244250991 -300.000000005906 orientation 1 0 0 0 velocity -1.54828332479994e-09 0.0205921814783856 1.81965744163536e-09 angularVelocity 0 0 0 force -8.06328450584122 -29674709.6123404 12.7926318773612 torque 0 0 0 radius 100 invMass 9.54929658551372e-11
BaseParticle id 45 indSpecies 0 position 300.000000006256 2499.69244254784 -100.000000001467 orientation 1 0 0 0 velocity -1.61553272897847e-09 0.0205922556106341 2.92503259009834e-10 angularVelocity 0 0 0 force -12.3220804587352 -29675948.0894284 -2.95844666274926 torque 0 0 0 radius 100 invMass 9.54929658551372e-11
BaseParticle id 46 indSpecies 0 position 300.000000006209 2499.69244254982 100.000000002573 orientation 1 0 0 0 velocity -1.66611217743648e-09 0.0205922536432397 -4.7988381731391e-10 angularVelocity 0 0 0 force -12.1569029677618 -29675968.0897782 1.87420318985433 torque 0 0 0 radius 100 invMass 9.54929658551372e-11
BaseParticle id 47 indSpecies 0 position 300.000000006306 2499.69244250798 300.000000006727 orientation 1 0 0 0 velocity -1.69162892756231e-09 0.0205921828496676 -2.01425695957432e-09 angularVelocity 0 0 0 force -11.6380445895089 -29674675.9887163 -13.655906901775 torque 0 0 0 radius 100 invMass 9.54929658551372e-11
BaseParticle id 48 indSpecies 0 position -300.000000008237 2699.66971166607 -300.000000007253 orientation 1 0 0 0 velocity -2.9444737257539e-09 0.009738963446828 -3.16004797897867e-09 angularVelocity 0 0 0 force 2.59530493924898 368005517.776345 -0.429089659614137 torque 0 0 0 radius 100 invMass 9.54929658551372e-11
BaseParticle id 49 indSpecies 0 position -300.000000010166 2699.66971163867 -100.000000003933 orientation 1 0 0 0 velocity -3.02158374732291e-09 0.00973898751684571 -4.28643700021674e-10 angularVelocity 0 0 0 force 3.00828831242515 368005658.885902 5.96478486040935 torque 0 0 0 radius 100 invMass 9.54929658551372e-11
BaseParticle id 50 indSpecies 0 position -300.000000009434 2699.66971163936 100.000000004444 orientation 1 0 0 0 velocity -3.01033324479075e-09 0.00973898685104141 2.47316795241953e-11 angularVelocity 0 0 0 force 3.18379145649396 368005661.977538 -8.25018979431363 torque 0 0 0 radius 100 invMass 9.54929658551372e-11
BaseParticle id 51 indSpecies 0 position -300.000000008104 2699.66971166644 300.000000007943 orientation 1 0 0 0 velocity -2.88887040302711e-09 0.00973896456998703 2.76440698765191e-09 angularVelocity 0 0 0 force 2.24457375545691 368005506.873323 -1.73298103529582 torque 0 0 0 radius 100 invMass 9.54929658551372e-11
BaseParticle id 52 indSpecies 0 position -100.000000005016 2699.66971163874 -300.000000009223 orientation 1 0 0 0 velocity -1.16708220132512e-10 0.00973898824961822 -3.17601267078923e-09 angularVelocity 0 0 0 force 9.45892816695256 368005644.099622 -0.0559450205529926 torque 0 0 0 radius 100 invMass 9.54929658551372e-11
BaseParticle id 53 indSpecies 0 position -100.000000003183 2699.66971161285 -100.000000003895 orientation 1 0 0 0 velocity -2.90607936043287e-11 0.00973905918905453 -2.71899598791185e-10 angularVelocity 0 0 0 force 9.10839245400846 368004849.842955 5.6083992484945 torque 0 0 0 radius 100 invMass 9.54929658551372e-11
BaseParticle id 54 indSpecies 0 position -100.000000004351 2699.66971161328 100.000000003804 orientation 1 0 0 0 velocity -2.39872205634722e-11 0.00973905856272892 7.39868447735119e-11 angularVelocity 0 0 0 force 9.19816797355869 368004853.841734 -8.598942960681 torque 0 0 0 radius 100 invMass 9.54929658551372e-11
BaseParticle id 55 indSpecies 0 position -100.000000003806 2699.66971163896 300.000000009111 orientation 1 0 0 0 velocity -3.56627220284885e-11 0.00973898961965215 2.97265643073209e-09 angularVelocity 0 0 0 force 8.86945677666222 368005620.504652 -2.72486511736959 torque 0 0 0 radius 100 invMass 9.54929658551372e-11
BaseParticle id 56 indSpecies 0 position 100.000000002834 2699.66971163393 -300.00000000884 orientation 1 0 0 0 velocity 3.02733849358837e-10 0.0097389865748613 -3.1747371152386e-09 angularVelocity 0 0 0 force -5.64133977722116 368005707.189603 -0.14087719374714 torque 0 0 0 radius 100 invMass 9.54929658551372e-11
BaseParticle id 57 indSpecies 0 position 100.000000003962 2699.66971161635 -100.000000003808 orientation 1 0 0 0 velocity 2.96923858765871e-10 0.00973905998500459 -2.82476317811655e-10 angularVelocity 0 0 0 force -6.08459689294968 368004807.995156 5.4528566770187 torque 0 0 0 radius 100 invMass 9.54929658551372e-11
BaseParticle id 58 indSpecies 0 position 100.000000003685 2699.66971161392 100.000000003997 orientation 1 0 0 0 velocity 2.95495831474002e-10 0.00973905971983392 6.28227927011783e-11 angularVelocity 0 0 0 force -5.98459685172117 368004819.762572 -8.47002812853006 torque 0 0 0 radius 100 invMass 9.54929658551372e-11
BaseParticle id 59 indSpecies 0 position 100.000000004118 2699.66971163759 300.00000000916 orientation 1 0 0 0 velocity 3.70817812499711e-10 0.00973898546706216 2.9462269758389e-09 angularVelocity 0 0 0 force -6.35046767788976 368005724.095638 -2.59573150437589 torque 0 0 0 radius 100 invMass 9.54929658551372e-11
BaseParticle id 60 indSpecies 0 position 300.000000007813 2699.66971167119 -300.000000008046 orientation 1 0 0 0 velocity 3.14165189463496e-09 0.00973896583512575 -2.99821976257629e-09 angularVelocity 0 0 0 force 1.53064056276695 368005432.223958 -0.941697200343381 torque 0 0 0 radius 100 invMass 9.54929658551372e-11
BaseParticle id 61 indSpecies 0 position 300.000000008425 2699.66971163686 -100.000000004421 orientation 1 0 0 0 velocity 3.28027095305214e-09 0.00973898580145967 -2.50947873058341e-10 angularVelocity 0 0 0 force 0.500571954067406 368005696.401724 5.08619623016868 torque 0 0 0 radius 100 invMass 9.54929658551372e-11
BaseParticle id 62 indSpecies 0 position 300.000000008434 2699.66971163936 100.000000003937 orientation 1 0 0 0 velocity 3.27851111793327e-09 0.00973898590960636 1.74820984837031e-10 angularVelocity 0 0 0 force 0.555327544959756 368005684.198037 -8.9133297518475 torque 0 0 0 radius 100 invMass 9.54929658551372e-11
BaseParticle id 63 indSpecies 0 position 300.000000007877 2699.66971166927 300.000000007637 orientation 1 0 0 0 velocity 3.2073768920652e-09 0.00973896651335902 2.91806902016525e-09 angularVelocity 0 0 0 force 0.565965997266008 368005428.302532 -2.6744822000738 torque 0 0 0 radius 100 invMass 9.54929658551372e-11
BaseParticle id 64 indSpecies 0 position -300.000000005041 2899.66765139344 -300.000000004031 orientation 1 0 0 0 velocity -2.10888022403736e-09 0.000961479381611688 -2.30010752115057e-09 angularVelocity 0 0 0 force 0.71441676271155 245161530.740221 -2.38043013734885 torque 0 0 0 radius 100 invMass 9.54929658551372e-11
BaseParticle id 65 indSpecies 0 position -300.000000006137 2899.66765135599 -100.000000001326 orientation 1 0 0 0 velocity -2.20340275311673e-09 0.000961498888790962 -3.02631856426864e-10 angularVelocity 0 0 0 force 0.687556893123048 245162197.247469 2.75220401747907 torque 0 0 0 radius 100 invMass 9.54929658551372e-11
BaseParticle id 66 indSpecies 0 position -300.000000005743 2899.66765135692 100.000000002231 orientation 1 0 0 0 velocity -2.16786967669898e-09 0.000961498865904481 2.03960818883836e-11 angularVelocity 0 0 0 force 0.288071367834183 245162194.635921 -5.40390460289179 torque 0 0 0 radius 100 invMass 9.54929658551372e-11
BaseParticle id 67 indSpecies 0 position -300.000000004823 2899.6676513938 300.000000005351 orientation 1 0 0 0 velocity -2.02649800634217e-09 0.000961479648348793 2.02427944306373e-09 angularVelocity 0 0 0 force 0.781184632044428 245161526.176753 -0.321551484096573 torque 0 0 0 radius 100 invMass 9.54929658551372e-11
BaseParticle id 68 indSpecies 0 position -100.00000000227 2899.66765135551 -300.000000005346 orientation 1 0 0 0 velocity -1.26330714452671e-10 0.000961499047717769 -2.30285107886398e-09 angularVelocity 0 0 0 force 5.71631411977916 245162207.205331 -2.78673476455757 torque 0 0 0 radius 100 invMass 9.54929658551372e-11
BaseParticle id 69 indSpecies 0 position -100.000000001684 2899.66765129755 -100.000000001418 orientation 1 0 0 0 velocity -1.07962457169968e-10 0.000961528926396524 -1.98121208322437e-10 angularVelocity 0 0 0 force 5.66639725681104 245163312.340264 2.5384736324605 torque 0 0 0 radius 100 invMass 9.54929658551372e-11
BaseParticle id 70 indSpecies 0 position -100.000000002111 2899.66765129821 100.000000001982 orientation 1 0 0 0 velocity -9.35437166248393e-11 0.000961528908511186 1.63315897296313e-10 angularVelocity 0 0 0 force 5.15799993648817 245163309.450644 -5.35994817446694 torque 0 0 0 radius 100 invMass 9.54929658551372e-11
BaseParticle id 71 indSpecies 0 position -100.000000001681 2899.6676513552 300.000000005613 orientation 1 0 0 0 velocity -3.93129614523008e-11 0.000961499314760777 2.25827749622894e-09 angularVelocity 0 0 0 force 5.20092009649011 245162210.902244 0.00332249154108858 torque 0 0 0 radius 100 invMass 9.54929658551372e-11
BaseParticle id 72 indSpecies 0 position 100.000000000711 2899.66765135261 -300.00000000503 orientation 1 0 0 0 velocity 2.32881220334737e-10 0.000961497400948551 -2.32419924903968e-09 angularVelocity 0 0 0 force -1.83814491154159 245162172.177988 -3.20853330251525 torque 0 0 0 radius 100 invMass 9.54929658551372e-11
BaseParticle id 73 indSpecies 0 position 100.000000001591 2899.66765129974 -100.000000001396 orientation 1 0 0 0 velocity 2.56391449566022e-10 0.000961529691101311 -2.12247039548314e-10 angularVelocity 0 0 0 force -1.69579505648058 245163333.995569 2.08861776776938 torque 0 0 0 radius 100 invMass 9.54929658551372e-11
BaseParticle id 74 indSpecies 0 position 100.00000000123 2899.6676512976 100.000000002156 orientation 1 0 0 0 velocity 2.80226876574879e-10 0.000961528976849391 1.3610800829029e-10 angularVelocity 0 0 0 force -1.92324445705366 245163328.992553 -5.80726051914049 torque 0 0 0 radius 100 invMass 9.54929658551372e-11
BaseParticle id 75 indSpecies 0 position 100.000000001599 2899.66765135707 300.000000005935 orientation 1 0 0 0 velocity 2.86003054257943e-10 0.000961497819603137 2.24075865163502e-09 angularVelocity 0 0 0 force -2.2823148789549 245162159.630225 -0.439662915443686 torque 0 0 0 radius 100 invMass 9.54929658551372e-11
BaseParticle id 76 indSpecies 0 position 300.000000004147 2899.66765139621 -300.000000004791 orientation 1 0 0 0 velocity 2.21883902276959e-09 0.000961480900575246 -2.12685762070557e-09 angularVelocity 0 0 0 force 3.50925899218765 245161561.744087 -2.99076292162905 torque 0 0 0 radius 100 invMass 9.54929658551372e-11
BaseParticle id 77 indSpecies 0 position 300.000000005364 2899.66765135549 -100.000000001593 orientation 1 0 0 0 velocity 2.33607558200555e-09 0.000961498224772259 -1.12644927518265e-10 angularVelocity 0 0 0 force 3.75052034456514 245162176.12495 2.02356477888491 torque 0 0 0 radius 100 invMass 9.54929658551372e-11
BaseParticle id 78 indSpecies 0 position 300.000000004961 2899.66765135771 100.000000001784 orientation 1 0 0 0 velocity 2.33767546456487e-09 0.000961498906368568 2.14091661207524e-10 angularVelocity 0 0 0 force 3.42373732775115 245162181.882815 -6.15351252172703 torque 0 0 0 radius 100 invMass 9.54929658551372e-11
BaseParticle id 79 indSpecies 0 position 300.000000004953 2899.66765139392 300.000000004819 orientation 1 0 0 0 velocity 2.25518160730377e-09 0.000961480681573603 2.22322556363216e-09 angularVelocity 0 0 0 force 2.37451672570553 245161571.204015 -1.11462553241149 torque 0 0 0 radius 100 invMass 9.54929658551372e-11
BaseParticle id 80 indSpecies 0 position -300.000000013783 3099.68769852207 -300.000000013625 orientation 1 0 0 0 velocity -6.42296482396544e-11 -0.0143052291913604 -4.31526085770276e-10 angularVelocity 0 0 0 force 12.7760993259736 -18507092.4320417 13.1706303315942 torque 0 0 0 radius 100 invMass 9.54929658551372e-11
BaseParticle id 81 indSpecies 0 position -300.000000012789 3099.68769874396 -100.000000004738 orientation 1 0 0 0 velocity 2.16837316585898e-10 -0.0143051773527422 5.04286523033324e-10 angularVelocity 0 0 0 force 11.6545739788666 -18506897.9680262 2.53422420280284 torque 0 0 0 radius 100 invMass 9.54929658551372e-11
BaseParticle id 82 indSpecies 0 position -300.000000013158 3099.6876987411 100.000000004279 orientation 1 0 0 0 velocity 2.018003768185e-10 -0.0143051785997232 -8.67766892381853e-10 angularVelocity 0 0 0 force 11.712340059068 -18506898.4836505 0.658590724963743 torque 0 0 0 radius 100 invMass 9.54929658551372e-11
BaseParticle id 83 indSpecies 0 position -300.000000013187 3099.68769852453 300.000000012685 orientation 1 0 0 0 velocity -9.26996834009865e-11 -0.0143052274153261 5.62801158887382e-11 angularVelocity 0 0 0 force 13.1944258758134 -18507088.7135487 -10.3228535500876 torque 0 0 0 radius 100 invMass 9.54929658551372e-11
BaseParticle id 84 indSpecies 0 position -100.000000004862 3099.68769874369 -300.00000001351 orientation 1 0 0 0 velocity 8.35334861732605e-10 -0.0143051776238896 -4.95103851563851e-11 angularVelocity 0 0 0 force 0.0287479298778817 -18506904.7217415 11.9812336851395 torque 0 0 0 radius 100 invMass 9.54929658551372e-11
BaseParticle id 85 indSpecies 0 position -100.000000004185 3099.68769869836 -100.000000004944 orientation 1 0 0 0 velocity 8.83853992841241e-10 -0.014305170104863 5.76618685834831e-10 angularVelocity 0 0 0 force -0.797020491820081 -18506851.4416971 1.98673254753754 torque 0 0 0 radius 100 invMass 9.54929658551372e-11
BaseParticle id 86 indSpecies 0 position -100.000000004218 3099.68769869474 100.000000003262 orientation 1 0 0 0 velocity 8.6263746042624e-10 -0.0143051715848161 -8.55452066602937e-10 angularVelocity 0 0 0 force -1.02493228961935 -18506852.7537327 1.29309383502008 torque 0 0 0 radius 100 invMass 9.54929658551372e-11
BaseParticle id 87 indSpecies 0 position -100.000000003983 3099.6876987477 300.000000012311 orientation 1 0 0 0 velocity 8.67802754375413e-10 -0.0143051744144973 -2.19841243106842e-10 angularVelocity 0 0 0 force -0.621964579868896 -18506899.6342362 -8.98916476317425 torque 0 0 0 radius 100 invMass 9.54929658551372e-11
BaseParticle id 88 indSpecies 0 position 100.000000004303 3099.68769874255 -300.000000013362 orientation 1 0 0 0 velocity -6.35700752630353e-10 -0.0143051767878166 -7.83137259016828e-11 angularVelocity 0 0 0 force -1.91135142701146 -18506915.0197633 11.6792856081296 torque 0 0 0 radius 100 invMass 9.54929658551372e-11
BaseParticle id 89 indSpecies 0 position 100.00000000438 3099.68769870323 -100.000000004721 orientation 1 0 0 0 velocity -6.41923962976358e-10 -0.0143051691562273 5.44778467200713e-10 angularVelocity 0 0 0 force -1.8848754493828 -18506839.9165546 1.8133790407947 torque 0 0 0 radius 100 invMass 9.54929658551372e-11
BaseParticle id 90 indSpecies 0 position 100.000000004196 3099.68769870454 100.000000003714 orientation 1 0 0 0 velocity -6.7964821367591e-10 -0.0143051681225465 -8.63234913461164e-10 angularVelocity 0 0 0 force -1.99754940338797 -18506842.0517789 1.17073076911199 torque 0 0 0 radius 100 invMass 9.54929658551372e-11