<?xml version="1.0"?>
<VTKFile type="UnstructuredGrid" version="0.1" byte_order="LittleEndian" compressor="vtkZLibDataCompressor">
<UnstructuredGrid>
<Piece NumberOfPoints="960" NumberOfCells="120">
<Points>
<DataArray type="Float32" NumberOfComponents="3" format="ascii">
-4.000000e+02 -6.000000e+03 -4.000000e+02
0.000000e+00 -6.000000e+03 -4.000000e+02
-4.000070e+02 -5.600320e+03 -4.002580e+02
4.883060e-02 -5.600320e+03 -4.002570e+02
-4.000000e+02 -6.000000e+03 0.000000e+00
0.000000e+00 -6.000000e+03 0.000000e+00
-3.999920e+02 -5.599970e+03 -2.301450e-01
-6.691520e-03 -5.599960e+03 -2.030440e-01
0.000000e+00 -6.000000e+03 -4.000000e+02
4.000000e+02 -6.000000e+03 -4.000000e+02
4.883060e-02 -5.600320e+03 -4.002570e+02
4.001050e+02 -5.600320e+03 -4.001140e+02
0.000000e+00 -6.000000e+03 0.000000e+00
4.000000e+02 -6.000000e+03 0.000000e+00
-6.691520e-03 -5.599960e+03 -2.030440e-01
3.999790e+02 -5.599960e+03 -1.113620e-01
-4.000070e+02 -5.600320e+03 -4.002580e+02
4.883060e-02 -5.600320e+03 -4.002570e+02
-3.999960e+02 -5.200440e+03 -4.006680e+02
5.653970e-02 -5.200470e+03 -4.006640e+02
-3.999920e+02 -5.599970e+03 -2.301450e-01
-6.691520e-03 -5.599960e+03 -2.030440e-01
-3.999970e+02 -5.199990e+03 -4.910240e-01
-1.046840e-02 -5.199990e+03 -4.819360e-01
4.883060e-02 -5.600320e+03 -4.002570e+02
4.001050e+02 -5.600320e+03 -4.001140e+02
5.653970e-02 -5.200470e+03 -4.006640e+02
4.001090e+02 -5.200460e+03 -4.005270e+02
-6.691520e-03 -5.599960e+03 -2.030440e-01
3.999790e+02 -5.599960e+03 -1.113620e-01
-1.046840e-02 -5.199990e+03 -4.819360e-01
3.999760e+02 -5.199990e+03 -4.038120e-01
-3.999960e+02 -5.200440e+03 -4.006680e+02
5.653970e-02 -5.200470e+03 -4.006640e+02
-3.999590e+02 -4.800510e+03 -4.009950e+02
4.833010e-02 -4.800520e+03 -4.009850e+02
-3.999970e+02 -5.199990e+03 -4.910240e-01
-1.046840e-02 -5.199990e+03 -4.819360e-01
-4.000170e+02 -4.800050e+03 -8.661130e-01
-2.291750e-02 -4.800050e+03 -8.891120e-01
5.653970e-02 -5.200470e+03 -4.006640e+02
4.001090e+02 -5.200460e+03 -4.005270e+02
4.833010e-02 -4.800520e+03 -4.009850e+02
4.000560e+02 -4.800500e+03 -4.009230e+02
-1.046840e-02 -5.199990e+03 -4.819360e-01
3.999760e+02 -5.199990e+03 -4.038120e-01
-2.291750e-02 -4.800050e+03 -8.891120e-01
3.999710e+02 -4.800040e+03 -8.906160e-01
-3.999590e+02 -4.800510e+03 -4.009950e+02
4.833010e-02 -4.800520e+03 -4.009850e+02
-4.000280e+02 -4.400620e+03 -4.014580e+02
-3.816630e-02 -4.400580e+03 -4.014900e+02
-4.000170e+02 -4.800050e+03 -8.661130e-01
-2.291750e-02 -4.800050e+03 -8.891120e-01
-4.000160e+02 -4.400060e+03 -1.485860e+00
-2.266940e-02 -4.400060e+03 -1.534520e+00
4.833010e-02 -4.800520e+03 -4.009850e+02
4.000560e+02 -4.800500e+03 -4.009230e+02
-3.816630e-02 -4.400580e+03 -4.014900e+02
3.999520e+02 -4.400540e+03 -4.015030e+02
-2.291750e-02 -4.800050e+03 -8.891120e-01
3.999710e+02 -4.800040e+03 -8.906160e-01
-2.266940e-02 -4.400060e+03 -1.534520e+00
3.999710e+02 -4.400050e+03 -1.604940e+00
-4.000280e+02 -4.400620e+03 -4.014580e+02
-3.816630e-02 -4.400580e+03 -4.014900e+02
-4.001700e+02 -4.000670e+03 -4.019850e+02
-1.739990e-01 -4.000640e+03 -4.021450e+02
-4.000160e+02 -4.400060e+03 -1.485860e+00
-2.266940e-02 -4.400060e+03 -1.534520e+00
-3.999890e+02 -4.000030e+03 -2.156060e+00
2.449210e-03 -4.000030e+03 -2.282560e+00
-3.816630e-02 -4.400580e+03 -4.014900e+02
3.999520e+02 -4.400540e+03 -4.015030e+02
-1.739990e-01 -4.000640e+03 -4.021450e+02
3.998220e+02 -4.000620e+03 -4.022600e+02
-2.266940e-02 -4.400060e+03 -1.534520e+00
3.999710e+02 -4.400050e+03 -1.604940e+00
2.449210e-03 -4.000030e+03 -2.282560e+00
3.999940e+02 -4.000020e+03 -2.417500e+00
-4.001700e+02 -4.000670e+03 -4.019850e+02
-1.739990e-01 -4.000640e+03 -4.021450e+02
-4.002590e+02 -3.600760e+03 -4.025590e+02
-2.323520e-01 -3.600730e+03 -4.028080e+02
-3.999890e+02 -4.000030e+03 -2.156060e+00
2.449210e-03 -4.000030e+03 -2.282560e+00
-3.999880e+02 -3.599980e+03 -2.731630e+00
1.928990e-03 -3.599980e+03 -2.957490e+00
-1.739990e-01 -4.000640e+03 -4.021450e+02
3.998220e+02 -4.000620e+03 -4.022600e+02
-2.323520e-01 -3.600730e+03 -4.028080e+02
3.997950e+02 -3.600750e+03 -4.029860e+02
2.449210e-03 -4.000030e+03 -2.282560e+00
3.999940e+02 -4.000020e+03 -2.417500e+00
1.928990e-03 -3.599980e+03 -2.957490e+00
3.999920e+02 -3.599970e+03 -3.147330e+00
-4.002590e+02 -3.600760e+03 -4.025590e+02
-2.323520e-01 -3.600730e+03 -4.028080e+02
-4.002780e+02 -3.200790e+03 -4.033480e+02
-2.136240e-01 -3.200810e+03 -4.035950e+02
-3.999880e+02 -3.599980e+03 -2.731630e+00
1.928990e-03 -3.599980e+03 -2.957490e+00
-3.999970e+02 -3.199960e+03 -3.395530e+00
-6.905070e-03 -3.199960e+03 -3.623530e+00
-2.323520e-01 -3.600730e+03 -4.028080e+02
3.997950e+02 -3.600750e+03 -4.029860e+02
-2.136240e-01 -3.200810e+03 -4.035950e+02
3.998510e+02 -3.200830e+03 -4.037320e+02
1.928990e-03 -3.599980e+03 -2.957490e+00
3.999920e+02 -3.599970e+03 -3.147330e+00
-6.905070e-03 -3.199960e+03 -3.623530e+00
3.999840e+02 -3.199970e+03 -3.769830e+00
-4.002780e+02 -3.200790e+03 -4.033480e+02
-2.136240e-01 -3.200810e+03 -4.035950e+02
-4.001540e+02 -2.800670e+03 -4.042010e+02
-1.028230e-01 -2.800730e+03 -4.043250e+02
-3.999970e+02 -3.199960e+03 -3.395530e+00
-6.905070e-03 -3.199960e+03 -3.623530e+00
-4.000150e+02 -2.800000e+03 -4.141130e+00
-2.127640e-02 -2.800010e+03 -4.288840e+00
-2.136240e-01 -3.200810e+03 -4.035950e+02
3.998510e+02 -3.200830e+03 -4.037320e+02
-1.028230e-01 -2.800730e+03 -4.043250e+02
3.999480e+02 -2.800760e+03 -4.043440e+02
-6.905070e-03 -3.199960e+03 -3.623530e+00
3.999840e+02 -3.199970e+03 -3.769830e+00
-2.127640e-02 -2.800010e+03 -4.288840e+00
3.999730e+02 -2.800020e+03 -4.361560e+00
-4.001540e+02 -2.800670e+03 -4.042010e+02
-1.028230e-01 -2.800730e+03 -4.043250e+02
-4.000250e+02 -2.400590e+03 -4.048510e+02
-1.180360e-02 -2.400670e+03 -4.048630e+02
-4.000150e+02 -2.800000e+03 -4.141130e+00
-2.127640e-02 -2.800010e+03 -4.288840e+00
-4.000050e+02 -2.400030e+03 -4.876830e+00
-1.582180e-02 -2.400020e+03 -4.919110e+00
-1.028230e-01 -2.800730e+03 -4.043250e+02
3.999480e+02 -2.800760e+03 -4.043440e+02
-1.180360e-02 -2.400670e+03 -4.048630e+02
4.000010e+02 -2.400700e+03 -4.048310e+02
-2.127640e-02 -2.800010e+03 -4.288840e+00
3.999730e+02 -2.800020e+03 -4.361560e+00
-1.582180e-02 -2.400020e+03 -4.919110e+00
3.999730e+02 -2.400010e+03 -4.948970e+00
-4.000250e+02 -2.400590e+03 -4.048510e+02
-1.180360e-02 -2.400670e+03 -4.048630e+02
-3.999070e+02 -2.000580e+03 -4.056570e+02
6.829570e-02 -2.000630e+03 -4.056250e+02
-4.000050e+02 -2.400030e+03 -4.876830e+00
-1.582180e-02 -2.400020e+03 -4.919110e+00
-3.999930e+02 -2.000020e+03 -5.732530e+00
-5.224510e-03 -2.000000e+03 -5.675310e+00
-1.180360e-02 -2.400670e+03 -4.048630e+02
4.000010e+02 -2.400700e+03 -4.048310e+02
6.829570e-02 -2.000630e+03 -4.056250e+02
4.000440e+02 -2.000670e+03 -4.055750e+02
-1.582180e-02 -2.400020e+03 -4.919110e+00
3.999730e+02 -2.400010e+03 -4.948970e+00
-5.224510e-03 -2.000000e+03 -5.675310e+00
3.999820e+02 -1.999990e+03 -5.657320e+00
-3.999070e+02 -2.000580e+03 -4.056570e+02
6.829570e-02 -2.000630e+03 -4.056250e+02
-3.998290e+02 -1.600560e+03 -4.064040e+02
1.551470e-01 -1.600570e+03 -4.062960e+02
-3.999930e+02 -2.000020e+03 -5.732530e+00
-5.224510e-03 -2.000000e+03 -5.675310e+00
-3.999830e+02 -1.600010e+03 -6.525380e+00
5.094030e-03 -1.600020e+03 -6.368760e+00
6.829570e-02 -2.000630e+03 -4.056250e+02
4.000440e+02 -2.000670e+03 -4.055750e+02
1.551470e-01 -1.600570e+03 -4.062960e+02
4.001390e+02 -1.600610e+03 -4.061770e+02
-5.224510e-03 -2.000000e+03 -5.675310e+00
3.999820e+02 -1.999990e+03 -5.657320e+00
5.094030e-03 -1.600020e+03 -6.368760e+00
3.999930e+02 -1.600010e+03 -6.255480e+00
-3.998290e+02 -1.600560e+03 -4.064040e+02
1.551470e-01 -1.600570e+03 -4.062960e+02
-3.998530e+02 -1.200670e+03 -4.069560e+02
1.629870e-01 -1.200670e+03 -4.068270e+02
-3.999830e+02 -1.600010e+03 -6.525380e+00
5.094030e-03 -1.600020e+03 -6.368760e+00
-4.000010e+02 -1.199980e+03 -7.110890e+00
-5.644470e-03 -1.199990e+03 -6.971440e+00
1.551470e-01 -1.600570e+03 -4.062960e+02
4.001390e+02 -1.600610e+03 -4.061770e+02
1.629870e-01 -1.200670e+03 -4.068270e+02
4.001800e+02 -1.200700e+03 -4.066530e+02
5.094030e-03 -1.600020e+03 -6.368760e+00
3.999930e+02 -1.600010e+03 -6.255480e+00
-5.644470e-03 -1.199990e+03 -6.971440e+00
3.999900e+02 -1.200000e+03 -6.806840e+00
-3.998530e+02 -1.200670e+03 -4.069560e+02
1.629870e-01 -1.200670e+03 -4.068270e+02
-3.998590e+02 -8.008640e+02 -4.078130e+02
1.634250e-01 -8.008660e+02 -4.076330e+02
-4.000010e+02 -1.199980e+03 -7.110890e+00
-5.644470e-03 -1.199990e+03 -6.971440e+00
-4.000180e+02 -7.999520e+02 -7.788720e+00
-2.162640e-02 -7.999510e+02 -7.652590e+00
1.629870e-01 -1.200670e+03 -4.068270e+02
4.001800e+02 -1.200700e+03 -4.066530e+02
1.634250e-01 -8.008660e+02 -4.076330e+02
4.001860e+02 -8.008700e+02 -4.073950e+02
-5.644470e-03 -1.199990e+03 -6.971440e+00
3.999900e+02 -1.200000e+03 -6.806840e+00
-2.162640e-02 -7.999510e+02 -7.652590e+00
3.999750e+02 -7.999530e+02 -7.473110e+00
-3.998590e+02 -8.008640e+02 -4.078130e+02
1.634250e-01 -8.008660e+02 -4.076330e+02
-3.998580e+02 -4.009050e+02 -4.087100e+02
1.615590e-01 -4.009080e+02 -4.085320e+02
-4.000180e+02 -7.999520e+02 -7.788720e+00
-2.162640e-02 -7.999510e+02 -7.652590e+00
-4.000010e+02 -4.000250e+02 -8.603970e+00
-1.069860e-02 -4.000090e+02 -8.433180e+00
1.634250e-01 -8.008660e+02 -4.076330e+02
4.001860e+02 -8.008700e+02 -4.073950e+02
1.615590e-01 -4.009080e+02 -4.085320e+02
4.001820e+02 -4.009040e+02 -4.083010e+02
-2.162640e-02 -7.999510e+02 -7.652590e+00
3.999750e+02 -7.999530e+02 -7.473110e+00
-1.069860e-02 -4.000090e+02 -8.433180e+00
3.999790e+02 -3.999990e+02 -8.237760e+00
-3.998580e+02 -4.009050e+02 -4.087100e+02
1.615590e-01 -4.009080e+02 -4.085320e+02
-3.997890e+02 -8.779830e-01 -4.094850e+02
2.021470e-01 -8.449760e-01 -4.093220e+02
-4.000010e+02 -4.000250e+02 -8.603970e+00
-1.069860e-02 -4.000090e+02 -8.433180e+00
-3.999930e+02 -6.318630e-02 -9.523970e+00
-4.176400e-03 -5.527580e-02 -9.341540e+00
1.615590e-01 -4.009080e+02 -4.085320e+02
4.001820e+02 -4.009040e+02 -4.083010e+02
[...]
<PointData>
<DataArray type="Float32" Name="V1" format="ascii">
0.000000e+00
0.000000e+00
4.526530e-02
2.405930e-02
0.000000e+00
0.000000e+00
-2.248280e-02
9.443860e-03
0.000000e+00
0.000000e+00
2.405930e-02
2.322790e-03
0.000000e+00
0.000000e+00
9.443860e-03
4.154290e-02
4.526530e-02
2.405930e-02
1.581800e-02
-3.527410e-03
-2.248280e-02
9.443860e-03
-2.754060e-02
-1.452920e-02
2.405930e-02
2.322790e-03
-3.527410e-03
-2.268160e-02
9.443860e-03
4.154290e-02
-1.452920e-02
-1.204750e-03
1.581800e-02
-3.527410e-03
-2.375660e-02
-1.641400e-02
-2.754060e-02
-1.452920e-02
-1.625510e-03
-9.842770e-03
-3.527410e-03
-2.268160e-02
-1.641400e-02
-9.680740e-03
-1.452920e-02
-1.204750e-03
-9.842770e-03
-1.772500e-02
-2.375660e-02
-1.641400e-02
4.518300e-02
2.434330e-02
-1.625510e-03
-9.842770e-03
2.435940e-02
1.790200e-02
-1.641400e-02
-9.680740e-03
2.434330e-02
3.567900e-03
-9.842770e-03
-1.772500e-02
1.790200e-02
1.111000e-02
4.518300e-02
2.434330e-02
4.142030e-02
3.929110e-03
2.435940e-02
1.790200e-02
1.307770e-02
1.156620e-02
2.434330e-02
3.567900e-03
3.929110e-03
-3.326800e-02
1.790200e-02
1.111000e-02
1.156620e-02
1.037040e-02
4.142030e-02
3.929110e-03
-2.666130e-03
5.816290e-03
1.307770e-02
1.156620e-02
-1.458940e-03
-3.052510e-03
3.929110e-03
-3.326800e-02
5.816290e-03
1.576450e-02
1.156620e-02
1.037040e-02
-3.052510e-03
-4.582750e-03
-2.666130e-03
5.816290e-03
2.499280e-02
3.728640e-02
-1.458940e-03
-3.052510e-03
-1.207460e-02
-9.634630e-03
5.816290e-03
1.576450e-02
3.728640e-02
4.977160e-02
-3.052510e-03
-4.582750e-03
-9.634630e-03
-7.100170e-03
2.499280e-02
3.728640e-02
4.188850e-02
2.356040e-02
-1.207460e-02
-9.634630e-03
-1.130800e-02
-6.617710e-03
3.728640e-02
4.977160e-02
2.356040e-02
4.065220e-03
-9.634630e-03
-7.100170e-03
-6.617710e-03
-1.815120e-03
4.188850e-02
2.356040e-02
6.078390e-02
8.689320e-03
-1.130800e-02
-6.617710e-03
-2.575060e-02
-3.511170e-03
2.356040e-02
4.065220e-03
8.689320e-03
-4.326420e-02
-6.617710e-03
-1.815120e-03
-3.511170e-03
1.897490e-02
6.078390e-02
8.689320e-03
1.305860e-02
-3.296190e-02
-2.575060e-02
-3.511170e-03
-2.488050e-02
1.777080e-02
8.689320e-03
-4.326420e-02
-3.296190e-02
-7.852440e-02
-3.511170e-03
1.897490e-02
1.777080e-02
6.083320e-02
1.305860e-02
-3.296190e-02
1.874030e-02
-6.323620e-03
-2.488050e-02
1.777080e-02
-3.321230e-02
1.493150e-03
-3.296190e-02
-7.852440e-02
-6.323620e-03
-3.115910e-02
1.777080e-02
6.083320e-02
1.493150e-03
3.674140e-02
1.874030e-02
-6.323620e-03
-8.103640e-03
-1.484860e-02
-3.321230e-02
1.493150e-03
-1.061430e-02
1.093070e-02
-6.323620e-03
-3.115910e-02
-1.484860e-02
-2.112950e-02
1.493150e-03
3.674140e-02
1.093070e-02
3.328440e-02
-8.103640e-03
-1.484860e-02
-2.948250e-02
-2.783440e-02
-1.061430e-02
1.093070e-02
1.485630e-02
2.392350e-02
-1.484860e-02
-2.112950e-02
-2.783440e-02
-2.454460e-02
1.093070e-02
3.328440e-02
2.392350e-02
3.299160e-02
-2.948250e-02
-2.783440e-02
-2.195990e-02
-1.950320e-02
1.485630e-02
2.392350e-02
-1.815610e-02
-1.409180e-02
-2.783440e-02
-2.454460e-02
-1.950320e-02
-1.673460e-02
2.392350e-02
3.299160e-02
-1.409180e-02
-9.611700e-03
-2.195990e-02
-1.950320e-02
3.078600e-02
-7.662250e-03
-1.815610e-02
-1.409180e-02
-2.951960e-02
-2.204280e-02
-1.950320e-02
-1.673460e-02
-7.662250e-03
-4.548260e-02
-1.409180e-02
-9.611700e-03
-2.204280e-02
-1.409030e-02
3.078600e-02
-7.662250e-03
-5.562280e-03
-3.142460e-02
-2.951960e-02
-2.204280e-02
2.529250e-02
2.212420e-02
-7.662250e-03
-4.548260e-02
-3.142460e-02
-5.748380e-02
-2.204280e-02
-1.409030e-02
2.212420e-02
1.852710e-02
-5.562280e-03
-3.142460e-02
-8.788200e-03
1.492130e-02
2.529250e-02
2.212420e-02
4.269790e-02
2.929100e-02
-3.142460e-02
-5.748380e-02
1.492130e-02
3.730890e-02
2.212420e-02
1.852710e-02
2.929100e-02
1.559100e-02
-8.788200e-03
1.492130e-02
-3.371140e-02
9.512880e-03
4.269790e-02
2.929100e-02
3.147530e-02
2.371060e-02
1.492130e-02
3.730890e-02
9.512880e-03
5.352250e-02
2.929100e-02
1.559100e-02
2.371060e-02
1.660310e-02
-3.371140e-02
9.512880e-03
-2.687620e-02
-2.737080e-02
3.147530e-02
2.371060e-02
1.754480e-02
2.431910e-02
9.512880e-03
5.352250e-02
-2.737080e-02
-2.612180e-02
2.371060e-02
1.660310e-02
2.431910e-02
3.145860e-02
-2.687620e-02
-2.737080e-02
-6.082030e-02
-6.448130e-02
1.754480e-02
2.431910e-02
2.031120e-02
2.278440e-02
-2.737080e-02
-2.612180e-02
-6.448130e-02
-6.868650e-02
2.431910e-02
3.145860e-02
2.278440e-02
2.521580e-02
-6.082030e-02
-6.448130e-02
-3.461520e-02
-3.455640e-02
2.031120e-02
2.278440e-02
2.273160e-02
1.096520e-02
-6.448130e-02
-6.868650e-02
-3.455640e-02
-3.447270e-02
2.278440e-02
2.521580e-02
1.096520e-02
-2.389550e-04
-3.461520e-02
-3.455640e-02
6.781090e-02
5.889880e-02
2.273160e-02
1.096520e-02
9.000030e-03
-6.955040e-04
-3.455640e-02
-3.447270e-02
5.889880e-02
5.035460e-02
1.096520e-02
-2.389550e-04
-6.955040e-04
-1.065510e-02
6.781090e-02
5.889880e-02
2.739590e-02
3.309550e-02
9.000030e-03
-6.955040e-04
-1.412660e-02
-1.306790e-02
5.889880e-02
5.035460e-02
3.309550e-02
3.842090e-02
-6.955040e-04
-1.065510e-02
-1.306790e-02
-1.242230e-02
2.739590e-02
3.309550e-02
-7.998690e-02
-5.887960e-02
-1.412660e-02
-1.306790e-02
5.619920e-03
2.155730e-03
3.309550e-02
3.842090e-02
-5.887960e-02
-3.812970e-02
-1.306790e-02
-1.242230e-02
2.155730e-03
-1.326260e-03
-7.998690e-02
-5.887960e-02
-6.962600e-02
-3.236140e-02
5.619920e-03
2.155730e-03
1.310190e-02
-4.233750e-03
-5.887960e-02
-3.812970e-02
-3.236140e-02
4.842620e-03
2.155730e-03
-1.326260e-03
-4.233750e-03
-2.201650e-02
-6.962600e-02
-3.236140e-02
2.221240e-02
1.530970e-02
1.310190e-02
-4.233750e-03
-4.930920e-03
-2.053680e-02
-3.236140e-02
4.842620e-03
1.530970e-02
7.222930e-03
-4.233750e-03
-2.201650e-02
-2.053680e-02
-3.660830e-02
2.221240e-02
1.530970e-02
1.432600e-02
5.825370e-03
-4.930920e-03
-2.053680e-02
5.118340e-06
-1.642500e-03
1.530970e-02
7.222930e-03
5.825370e-03
-2.403560e-03
-2.053680e-02
-3.660830e-02
-1.642500e-03
-3.099920e-03
1.432600e-02
5.825370e-03
1.976180e-02
2.935650e-02
5.118340e-06
-1.642500e-03
-8.338870e-03
-1.353460e-02
5.825370e-03
-2.403560e-03
2.935650e-02
3.772950e-02
-1.642500e-03
-3.099920e-03
-1.353460e-02
-1.858890e-02
1.976180e-02
2.935650e-02
2.339390e-02
3.349370e-02
-8.338870e-03
-1.353460e-02
-6.516250e-03
-5.830310e-03
2.935650e-02
3.772950e-02
3.349370e-02
4.310500e-02
-1.353460e-02
-1.858890e-02
-5.830310e-03
-5.811010e-03
2.339390e-02
3.349370e-02
5.561600e-02
9.476800e-02
-6.516250e-03
-5.830310e-03
-2.289670e-02
-3.154630e-02
3.349370e-02
4.310500e-02
9.476800e-02
1.332880e-01
-5.830310e-03
-5.811010e-03
-3.154630e-02
-4.028170e-02
0.000000e+00
0.000000e+00
-2.248280e-02
9.443860e-03
0.000000e+00
0.000000e+00
7.653800e-04
-4.316920e-02
0.000000e+00
0.000000e+00
9.443860e-03
4.154290e-02
0.000000e+00
0.000000e+00
-4.316920e-02
-8.768760e-02
-2.248280e-02
9.443860e-03
-2.754060e-02
-1.452920e-02
7.653800e-04
-4.316920e-02
4.327220e-02
3.526960e-02
9.443860e-03
4.154290e-02
-1.452920e-02
-1.204750e-03
-4.316920e-02
-8.768760e-02
3.526960e-02
2.692560e-02
-2.754060e-02
-1.452920e-02
-1.625510e-03
-9.842770e-03
4.327220e-02
3.526960e-02
2.562740e-02
3.525680e-02
-1.452920e-02
-1.204750e-03
-9.842770e-03
-1.772500e-02
3.526960e-02
2.692560e-02
3.525680e-02
4.521640e-02
-1.625510e-03
-9.842770e-03
2.435940e-02
1.790200e-02
2.562740e-02
3.525680e-02
-9.788860e-02
-6.116640e-02
-9.842770e-03
-1.772500e-02
1.790200e-02
1.111000e-02
3.525680e-02
4.521640e-02
-6.116640e-02
-2.414550e-02
2.435940e-02
1.790200e-02
1.307770e-02
1.156620e-02
-9.788860e-02
-6.116640e-02
-6.683070e-02
-2.603400e-02
1.790200e-02
1.111000e-02
1.156620e-02
1.037040e-02
-6.116640e-02
-2.414550e-02
-2.603400e-02
1.361270e-02
1.307770e-02
1.156620e-02
-1.458940e-03
-3.052510e-03
-6.683070e-02
-2.603400e-02
4.816830e-03
-1.473600e-03
1.156620e-02
1.037040e-02
-3.052510e-03
-4.582750e-03
-2.603400e-02
1.361270e-02
-1.473600e-03
-7.851130e-03
-1.458940e-03
-3.052510e-03
-1.207460e-02
-9.634630e-03
4.816830e-03
-1.473600e-03
2.077040e-03
-1.400800e-02
-3.052510e-03
-4.582750e-03
-9.634630e-03
-7.100170e-03
-1.473600e-03
-7.851130e-03
-1.400800e-02
-3.012980e-02
-1.207460e-02
-9.634630e-03
-1.130800e-02
-6.617710e-03
2.077040e-03
-1.400800e-02
-2.371200e-02
-1.328760e-02
-9.634630e-03
-7.100170e-03
-6.617710e-03
-1.815120e-03
-1.400800e-02
-3.012980e-02
-1.328760e-02
-2.339900e-03
-1.130800e-02
-6.617710e-03
-2.575060e-02
-3.511170e-03
-2.371200e-02
-1.328760e-02
-7.735910e-03
-1.957580e-03
-6.617710e-03
-1.815120e-03
-3.511170e-03
1.897490e-02
-1.328760e-02
-2.339900e-03
-1.957580e-03
4.544740e-03
-2.575060e-02
-3.511170e-03
-2.488050e-02
1.777080e-02
-7.735910e-03
-1.957580e-03
3.586690e-02
-4.358040e-03
-3.511170e-03
1.897490e-02
1.777080e-02
6.083320e-02
-1.957580e-03
4.544740e-03
-4.358040e-03
-4.371460e-02
-2.488050e-02
1.777080e-02
-3.321230e-02
1.493150e-03
3.586690e-02
-4.358040e-03
4.768670e-02
4.071950e-03
1.777080e-02
6.083320e-02
1.493150e-03
3.674140e-02
-4.358040e-03
-4.371460e-02
4.071950e-03
-3.884910e-02
-3.321230e-02
1.493150e-03
-1.061430e-02
1.093070e-02
4.768670e-02
4.071950e-03
3.236410e-02
-5.557110e-03
1.493150e-03
3.674140e-02
1.093070e-02
3.328440e-02
4.071950e-03
-3.884910e-02
-5.557110e-03
-4.281870e-02
-1.061430e-02
1.093070e-02
1.485630e-02
2.392350e-02
3.236410e-02
-5.557110e-03
1.335040e-04
-2.164380e-02
1.093070e-02
3.328440e-02
2.392350e-02
3.299160e-02
-5.557110e-03
-4.281870e-02
-2.164380e-02
-4.356830e-02
1.485630e-02
2.392350e-02
-1.815610e-02
-1.409180e-02
1.335040e-04
-2.164380e-02
5.708560e-02
4.538400e-02
2.392350e-02
3.299160e-02
-1.409180e-02
-9.611700e-03
-2.164380e-02
-4.356830e-02
4.538400e-02
3.339100e-02
-1.815610e-02
-1.409180e-02
-2.951960e-02
-2.204280e-02
5.708560e-02
4.538400e-02
3.101510e-02
5.376830e-02
-1.409180e-02
-9.611700e-03
-2.204280e-02
-1.409030e-02
4.538400e-02
3.339100e-02
5.376830e-02
7.696560e-02
-2.951960e-02
-2.204280e-02
2.529250e-02
2.212420e-02
3.101510e-02
5.376830e-02
-4.536670e-02
-1.441400e-02
-2.204280e-02
-1.409030e-02
2.212420e-02
1.852710e-02
5.376830e-02
7.696560e-02
-1.441400e-02
1.697740e-02
2.529250e-02
2.212420e-02
4.269790e-02
2.929100e-02
-4.536670e-02
-1.441400e-02
-7.155480e-02
-6.938060e-02
2.212420e-02
1.852710e-02
2.929100e-02
1.559100e-02
-1.441400e-02
1.697740e-02
-6.938060e-02
-6.668270e-02
4.269790e-02
2.929100e-02
3.147530e-02
2.371060e-02
-7.155480e-02
-6.938060e-02
-3.159230e-02
-6.150340e-02
2.929100e-02
1.559100e-02
2.371060e-02
1.660310e-02
-6.938060e-02
-6.668270e-02
-6.150340e-02
-9.160200e-02
3.147530e-02
2.371060e-02
1.754480e-02
2.431910e-02
-3.159230e-02
-6.150340e-02
-6.777640e-03
-1.956950e-02
2.371060e-02
1.660310e-02
2.431910e-02
3.145860e-02
-6.150340e-02
-9.160200e-02
-1.956950e-02
-3.361090e-02
1.754480e-02
2.431910e-02
2.031120e-02
2.278440e-02
-6.777640e-03
-1.956950e-02
2.004250e-02
1.916180e-02
2.431910e-02
3.145860e-02
2.278440e-02
2.521580e-02
-1.956950e-02
-3.361090e-02
1.916180e-02
1.934390e-02
2.031120e-02
2.278440e-02
2.273160e-02
1.096520e-02
2.004250e-02
1.916180e-02
-1.026110e-02
1.000160e-02
2.278440e-02
2.521580e-02
1.096520e-02
-2.389550e-04
1.916180e-02
1.934390e-02
1.000160e-02
2.975100e-02
2.273160e-02
1.096520e-02
9.000030e-03
-6.955040e-04
-1.026110e-02
1.000160e-02
-8.327120e-02
-5.542040e-02
1.096520e-02
-2.389550e-04
-6.955040e-04
-1.065510e-02
1.000160e-02
2.975100e-02
-5.542040e-02
-2.755670e-02
9.000030e-03
-6.955040e-04
-1.412660e-02
-1.306790e-02
-8.327120e-02
-5.542040e-02
-4.366840e-04
-6.828460e-03
-6.955040e-04
-1.065510e-02
-1.306790e-02
-1.242230e-02
-5.542040e-02
-2.755670e-02
-6.828460e-03
-1.196290e-02
-1.412660e-02
-1.306790e-02
5.619920e-03
2.155730e-03
-4.366840e-04
-6.828460e-03
6.561690e-02
5.284590e-02
-1.306790e-02
-1.242230e-02
2.155730e-03
-1.326260e-03
-6.828460e-03
-1.196290e-02
5.284590e-02
4.045700e-02
5.619920e-03
2.155730e-03
1.310190e-02
-4.233750e-03
6.561690e-02
5.284590e-02
4.952510e-02
4.499910e-02
2.155730e-03
-1.326260e-03
-4.233750e-03
-2.201650e-02
5.284590e-02
4.045700e-02
4.499910e-02
3.933360e-02
1.310190e-02
-4.233750e-03
-4.930920e-03
-2.053680e-02
4.952510e-02
4.499910e-02
-1.636730e-02
2.440450e-02
-4.233750e-03
-2.201650e-02
-2.053680e-02
-3.660830e-02
4.499910e-02
3.933360e-02
2.440450e-02
6.419340e-02
-4.930920e-03
-2.053680e-02
5.118340e-06
-1.642500e-03
-1.636730e-02
2.440450e-02
-1.778530e-02
-2.826240e-03
-2.053680e-02
-3.660830e-02
-1.642500e-03
-3.099920e-03
2.440450e-02
6.419340e-02
-2.826240e-03
1.100060e-02
5.118340e-06
-1.642500e-03
-8.338870e-03
-1.353460e-02
-1.778530e-02
-2.826240e-03
-2.267900e-03
-3.047950e-03
-1.642500e-03
-3.099920e-03
-1.353460e-02
-1.858890e-02
-2.826240e-03
1.100060e-02
-3.047950e-03
-3.638840e-03
-8.338870e-03
-1.353460e-02
-6.516250e-03
-5.830310e-03
-2.267900e-03
-3.047950e-03
-1.077940e-02
-1.925570e-02
-1.353460e-02
-1.858890e-02
-5.830310e-03
-5.811010e-03
-3.047950e-03
-3.638840e-03
-1.925570e-02
-2.815430e-02
-6.516250e-03
-5.830310e-03
-2.289670e-02
-3.154630e-02
-1.077940e-02
-1.925570e-02
-1.349080e-02
-3.405590e-02
-5.830310e-03
-5.811010e-03
-3.154630e-02
-4.028170e-02
-1.925570e-02
-2.815430e-02
-3.405590e-02
-5.510420e-02
</DataArray>
<DataArray type="Float32" Name="V2" format="ascii">
0.000000e+00
0.000000e+00
-2.497320e-02
1.262380e-02
0.000000e+00
0.000000e+00
1.233300e-02
1.006780e-02
0.000000e+00
0.000000e+00
1.262380e-02
2.822660e-02
0.000000e+00
0.000000e+00
1.006780e-02
2.039480e-02
-2.497320e-02
1.262380e-02
1.241340e-02
2.977590e-02
1.233300e-02
1.006780e-02
-6.756750e-02
-6.920840e-02
1.262380e-02
2.822660e-02
2.977590e-02
2.154560e-02
1.006780e-02
2.039480e-02
-6.920840e-02
-6.463560e-02
1.241340e-02
2.977590e-02
1.724220e-02
-3.059870e-02
-6.756750e-02
-6.920840e-02
-5.073140e-02
-4.081120e-02
2.977590e-02
2.154560e-02
-3.059870e-02
-5.963460e-02
-6.920840e-02
-6.463560e-02
-4.081120e-02
-4.145470e-02
1.724220e-02
-3.059870e-02
-9.296960e-02
-8.961330e-02
-5.073140e-02
-4.081120e-02
6.387230e-02
5.655830e-02
-3.059870e-02
-5.963460e-02
-8.961330e-02
-4.869120e-02
-4.081120e-02
-4.145470e-02
5.655830e-02
6.413410e-02
-9.296960e-02
-8.961330e-02
-1.357780e-01
-5.498070e-02
6.387230e-02
5.655830e-02
7.565100e-02
6.026890e-02
-8.961330e-02
-4.869120e-02
-5.498070e-02
4.135640e-03
5.655830e-02
6.413410e-02
6.026890e-02
5.975070e-02
-1.357780e-01
-5.498070e-02
2.490170e-02
1.663600e-02
7.565100e-02
6.026890e-02
-3.698300e-02
-1.994580e-02
-5.498070e-02
4.135640e-03
1.663600e-02
5.184270e-03
6.026890e-02
5.975070e-02
-1.994580e-02
-2.954910e-02
2.490170e-02
1.663600e-02
1.071000e-01
6.193090e-02
-3.698300e-02
-1.994580e-02
-9.648770e-02
-8.661550e-02
1.663600e-02
5.184270e-03
6.193090e-02
1.288170e-02
-1.994580e-02
-2.954910e-02
-8.661550e-02
-9.143910e-02
1.071000e-01
6.193090e-02
4.288840e-03
7.670330e-03
-9.648770e-02
-8.661550e-02
-2.595370e-02
-2.774980e-02
6.193090e-02
1.288170e-02
7.670330e-03
-5.244890e-03
-8.661550e-02
-9.143910e-02
-2.774980e-02
-3.217430e-02
4.288840e-03
7.670330e-03
-5.478340e-02
-2.787580e-02
-2.595370e-02
-2.774980e-02
4.653460e-02
5.935720e-02
7.670330e-03
-5.244890e-03
-2.787580e-02
-3.531030e-02
-2.774980e-02
-3.217430e-02
5.935720e-02
3.760590e-02
-5.478340e-02
-2.787580e-02
8.439620e-03
2.852060e-02
4.653460e-02
5.935720e-02
2.160270e-02
4.260800e-03
-2.787580e-02
-3.531030e-02
2.852060e-02
-1.643080e-02
5.935720e-02
3.760590e-02
4.260800e-03
-1.670960e-03
8.439620e-03
2.852060e-02
2.974640e-03
-2.726830e-03
2.160270e-02
4.260800e-03
-2.895390e-03
-3.507430e-02
2.852060e-02
-1.643080e-02
-2.726830e-03
-3.424950e-02
4.260800e-03
-1.670960e-03
-3.507430e-02
-3.343970e-02
2.974640e-03
-2.726830e-03
8.684710e-02
2.612550e-02
-2.895390e-03
-3.507430e-02
-1.513400e-02
-7.431420e-03
-2.726830e-03
-3.424950e-02
2.612550e-02
-8.367580e-03
-3.507430e-02
-3.343970e-02
-7.431420e-03
-2.350350e-02
8.684710e-02
2.612550e-02
1.194760e-01
6.593420e-02
-1.513400e-02
-7.431420e-03
-1.284750e-02
-5.291910e-04
2.612550e-02
-8.367580e-03
6.593420e-02
1.421550e-02
-7.431420e-03
-2.350350e-02
-5.291910e-04
1.655330e-03
1.194760e-01
6.593420e-02
-3.091710e-02
-4.512690e-02
-1.284750e-02
-5.291910e-04
3.002490e-02
2.335580e-02
6.593420e-02
1.421550e-02
-4.512690e-02
-5.505480e-02
-5.291910e-04
1.655330e-03
2.335580e-02
2.405890e-02
-3.091710e-02
-4.512690e-02
-5.191600e-02
-5.456520e-02
3.002490e-02
2.335580e-02
8.643490e-03
2.274410e-02
-4.512690e-02
-5.505480e-02
-5.456520e-02
1.524250e-02
2.335580e-02
2.405890e-02
2.274410e-02
1.482920e-02
-5.191600e-02
-5.456520e-02
-6.354970e-02
-3.568260e-02
8.643490e-03
2.274410e-02
-6.060020e-03
8.394900e-03
-5.456520e-02
1.524250e-02
-3.568260e-02
5.508670e-02
2.274410e-02
1.482920e-02
8.394900e-03
2.502530e-04
-6.354970e-02
-3.568260e-02
-1.308250e-01
-6.705420e-02
-6.060020e-03
8.394900e-03
2.111520e-02
1.715180e-02
-3.568260e-02
5.508670e-02
-6.705420e-02
1.314810e-02
8.394900e-03
2.502530e-04
1.715180e-02
1.677300e-02
-1.308250e-01
-6.705420e-02
-2.101920e-02
-4.719520e-03
2.111520e-02
1.715180e-02
-2.407350e-02
-1.199370e-02
-6.705420e-02
1.314810e-02
-4.719520e-03
3.473760e-02
1.715180e-02
1.677300e-02
-1.199370e-02
-5.288280e-03
-2.101920e-02
-4.719520e-03
-8.924780e-03
2.342400e-02
-2.407350e-02
-1.199370e-02
-2.996520e-02
-4.183250e-02
-4.719520e-03
3.473760e-02
2.342400e-02
2.497920e-02
-1.199370e-02
-5.288280e-03
-4.183250e-02
-4.229280e-02
-8.924780e-03
2.342400e-02
-1.465380e-02
2.756360e-02
-2.996520e-02
-4.183250e-02
1.305580e-02
-1.343720e-02
2.342400e-02
2.497920e-02
2.756360e-02
2.043790e-02
-4.183250e-02
-4.229280e-02
-1.343720e-02
-1.003720e-02
-1.465380e-02
2.756360e-02
-3.591940e-02
-3.274430e-02
1.305580e-02
-1.343720e-02
2.685370e-02
2.423530e-02
2.756360e-02
2.043790e-02
-3.274430e-02
-1.019440e-02
-1.343720e-02
-1.003720e-02
2.423530e-02
1.800490e-02
-3.591940e-02
-3.274430e-02
-5.950400e-02
-5.220580e-02
2.685370e-02
2.423530e-02
-1.005530e-02
-4.691350e-03
-3.274430e-02
-1.019440e-02
-5.220580e-02
-2.390380e-02
2.423530e-02
1.800490e-02
-4.691350e-03
-2.102390e-02
-5.950400e-02
-5.220580e-02
-1.325190e-02
7.939210e-02
-1.005530e-02
-4.691350e-03
-6.889640e-02
-8.357500e-02
-5.220580e-02
-2.390380e-02
7.939210e-02
1.216270e-01
-4.691350e-03
-2.102390e-02
-8.357500e-02
-8.003430e-02
-1.325190e-02
7.939210e-02
8.624050e-02
9.008880e-02
-6.889640e-02
-8.357500e-02
-1.713770e-02
-2.591860e-02
7.939210e-02
1.216270e-01
9.008880e-02
3.069900e-02
-8.357500e-02
-8.003430e-02
-2.591860e-02
-7.342360e-03
8.624050e-02
9.008880e-02
2.592260e-02
-2.104520e-02
-1.713770e-02
-2.591860e-02
6.433800e-02
8.076730e-02
9.008880e-02
3.069900e-02
-2.104520e-02
-3.324030e-02
-2.591860e-02
-7.342360e-03
8.076730e-02
9.257030e-02
2.592260e-02
-2.104520e-02
7.887610e-03
8.843740e-03
6.433800e-02
8.076730e-02
6.204220e-02
5.376000e-02
-2.104520e-02
-3.324030e-02
8.843740e-03
5.741180e-02
8.076730e-02
9.257030e-02
5.376000e-02
5.392030e-02
7.887610e-03
8.843740e-03
9.541900e-02
8.130840e-02
6.204220e-02
5.376000e-02
-2.645510e-02
-3.796380e-02
8.843740e-03
5.741180e-02
8.130840e-02
7.180160e-02
5.376000e-02
5.392030e-02
-3.796380e-02
-3.533250e-02
9.541900e-02
8.130840e-02
5.121230e-03
2.192680e-03
-2.645510e-02
-3.796380e-02
-5.779030e-02
-4.360140e-02
8.130840e-02
7.180160e-02
2.192680e-03
1.595500e-02
-3.796380e-02
-3.533250e-02
-4.360140e-02
-5.642270e-02
5.121230e-03
2.192680e-03
-1.089410e-01
-9.369020e-02
-5.779030e-02
-4.360140e-02
2.496470e-02
4.673870e-02
2.192680e-03
1.595500e-02
-9.369020e-02
-7.849210e-02
-4.360140e-02
-5.642270e-02
4.673870e-02
5.004000e-02
-1.089410e-01
-9.369020e-02
-9.453740e-02
-1.216350e-01
2.496470e-02
4.673870e-02
8.733870e-02
1.040650e-01
-9.369020e-02
-7.849210e-02
-1.216350e-01
-1.850010e-01
4.673870e-02
5.004000e-02
1.040650e-01
1.427850e-01
0.000000e+00
0.000000e+00
1.233300e-02
1.006780e-02
0.000000e+00
0.000000e+00
-2.726710e-03
-3.297990e-02
0.000000e+00
0.000000e+00
1.006780e-02
2.039480e-02
0.000000e+00
0.000000e+00
-3.297990e-02
-6.893010e-02
1.233300e-02
1.006780e-02
-6.756750e-02
-6.920840e-02
-2.726710e-03
-3.297990e-02
1.207660e-01
1.080960e-01
1.006780e-02
2.039480e-02
-6.920840e-02
-6.463560e-02
-3.297990e-02