<?xml version="1.0"?>
<VTKFile type="UnstructuredGrid" version="0.1" byte_order="LittleEndian" compressor="vtkZLibDataCompressor">
<UnstructuredGrid>
<Piece NumberOfPoints="960" NumberOfCells="120">
<Points>
<DataArray type="Float32" NumberOfComponents="3" format="ascii">
-4.000000e+02 -6.000000e+03 -4.000000e+02
0.000000e+00 -6.000000e+03 -4.000000e+02
-4.000000e+02 -5.600020e+03 -4.000330e+02
-2.524980e-10 -5.600020e+03 -4.000330e+02
-4.000000e+02 -6.000000e+03 0.000000e+00
0.000000e+00 -6.000000e+03 0.000000e+00
-4.000000e+02 -5.600000e+03 -3.545520e-02
-4.112190e-10 -5.600000e+03 -3.608380e-02
0.000000e+00 -6.000000e+03 -4.000000e+02
4.000000e+02 -6.000000e+03 -4.000000e+02
-2.524980e-10 -5.600020e+03 -4.000330e+02
4.000000e+02 -5.600020e+03 -4.000330e+02
0.000000e+00 -6.000000e+03 0.000000e+00
4.000000e+02 -6.000000e+03 0.000000e+00
-4.112190e-10 -5.600000e+03 -3.608380e-02
4.000000e+02 -5.600000e+03 -3.545520e-02
-4.000000e+02 -5.600020e+03 -4.000330e+02
-2.524980e-10 -5.600020e+03 -4.000330e+02
-4.000000e+02 -5.200020e+03 -4.000670e+02
-4.622650e-10 -5.200020e+03 -4.000670e+02
-4.000000e+02 -5.600000e+03 -3.545520e-02
-4.112190e-10 -5.600000e+03 -3.608380e-02
-4.000000e+02 -5.200000e+03 -7.003930e-02
-2.726670e-10 -5.200000e+03 -7.032160e-02
-2.524980e-10 -5.600020e+03 -4.000330e+02
4.000000e+02 -5.600020e+03 -4.000330e+02
-4.622650e-10 -5.200020e+03 -4.000670e+02
4.000000e+02 -5.200020e+03 -4.000670e+02
-4.112190e-10 -5.600000e+03 -3.608380e-02
4.000000e+02 -5.600000e+03 -3.545520e-02
-2.726670e-10 -5.200000e+03 -7.032160e-02
4.000000e+02 -5.200000e+03 -7.003930e-02
-4.000000e+02 -5.200020e+03 -4.000670e+02
-4.622650e-10 -5.200020e+03 -4.000670e+02
-4.000000e+02 -4.800020e+03 -4.000910e+02
-4.559670e-10 -4.800020e+03 -4.000910e+02
-4.000000e+02 -5.200000e+03 -7.003930e-02
-2.726670e-10 -5.200000e+03 -7.032160e-02
-4.000000e+02 -4.800000e+03 -9.296750e-02
-7.330720e-10 -4.800000e+03 -9.308720e-02
-4.622650e-10 -5.200020e+03 -4.000670e+02
4.000000e+02 -5.200020e+03 -4.000670e+02
-4.559670e-10 -4.800020e+03 -4.000910e+02
4.000000e+02 -4.800020e+03 -4.000910e+02
-2.726670e-10 -5.200000e+03 -7.032160e-02
4.000000e+02 -5.200000e+03 -7.003930e-02
-7.330720e-10 -4.800000e+03 -9.308720e-02
4.000000e+02 -4.800000e+03 -9.296750e-02
-4.000000e+02 -4.800020e+03 -4.000910e+02
-4.559670e-10 -4.800020e+03 -4.000910e+02
-4.000000e+02 -4.400030e+03 -4.001170e+02
-2.869560e-10 -4.400030e+03 -4.001170e+02
-4.000000e+02 -4.800000e+03 -9.296750e-02
-7.330720e-10 -4.800000e+03 -9.308720e-02
-4.000000e+02 -4.400000e+03 -1.176460e-01
-2.150040e-10 -4.400000e+03 -1.178700e-01
-4.559670e-10 -4.800020e+03 -4.000910e+02
4.000000e+02 -4.800020e+03 -4.000910e+02
-2.869560e-10 -4.400030e+03 -4.001170e+02
4.000000e+02 -4.400030e+03 -4.001170e+02
-7.330720e-10 -4.800000e+03 -9.308720e-02
4.000000e+02 -4.800000e+03 -9.296750e-02
-2.150040e-10 -4.400000e+03 -1.178700e-01
4.000000e+02 -4.400000e+03 -1.176460e-01
-4.000000e+02 -4.400030e+03 -4.001170e+02
-2.869560e-10 -4.400030e+03 -4.001170e+02
-4.000000e+02 -4.000020e+03 -4.001480e+02
-8.868010e-11 -4.000020e+03 -4.001480e+02
-4.000000e+02 -4.400000e+03 -1.176460e-01
-2.150040e-10 -4.400000e+03 -1.178700e-01
-4.000000e+02 -4.000000e+03 -1.444510e-01
-6.055160e-11 -4.000000e+03 -1.442630e-01
-2.869560e-10 -4.400030e+03 -4.001170e+02
4.000000e+02 -4.400030e+03 -4.001170e+02
-8.868010e-11 -4.000020e+03 -4.001480e+02
4.000000e+02 -4.000020e+03 -4.001480e+02
-2.150040e-10 -4.400000e+03 -1.178700e-01
4.000000e+02 -4.400000e+03 -1.176460e-01
-6.055160e-11 -4.000000e+03 -1.442630e-01
4.000000e+02 -4.000000e+03 -1.444510e-01
-4.000000e+02 -4.000020e+03 -4.001480e+02
-8.868010e-11 -4.000020e+03 -4.001480e+02
-4.000000e+02 -3.600020e+03 -4.001650e+02
-1.085240e-10 -3.600020e+03 -4.001650e+02
-4.000000e+02 -4.000000e+03 -1.444510e-01
-6.055160e-11 -4.000000e+03 -1.442630e-01
-4.000000e+02 -3.600000e+03 -1.642950e-01
-2.856090e-10 -3.600000e+03 -1.640850e-01
-8.868010e-11 -4.000020e+03 -4.001480e+02
4.000000e+02 -4.000020e+03 -4.001480e+02
-1.085240e-10 -3.600020e+03 -4.001650e+02
4.000000e+02 -3.600020e+03 -4.001650e+02
-6.055160e-11 -4.000000e+03 -1.442630e-01
4.000000e+02 -4.000000e+03 -1.444510e-01
-2.856090e-10 -3.600000e+03 -1.640850e-01
4.000000e+02 -3.600000e+03 -1.642950e-01
-4.000000e+02 -3.600020e+03 -4.001650e+02
-1.085240e-10 -3.600020e+03 -4.001650e+02
-4.000000e+02 -3.200020e+03 -4.001740e+02
7.754570e-10 -3.200020e+03 -4.001740e+02
-4.000000e+02 -3.600000e+03 -1.642950e-01
-2.856090e-10 -3.600000e+03 -1.640850e-01
-4.000000e+02 -3.200000e+03 -1.793900e-01
4.157800e-10 -3.200000e+03 -1.794730e-01
-1.085240e-10 -3.600020e+03 -4.001650e+02
4.000000e+02 -3.600020e+03 -4.001650e+02
7.754570e-10 -3.200020e+03 -4.001740e+02
4.000000e+02 -3.200020e+03 -4.001740e+02
-2.856090e-10 -3.600000e+03 -1.640850e-01
4.000000e+02 -3.600000e+03 -1.642950e-01
4.157800e-10 -3.200000e+03 -1.794730e-01
4.000000e+02 -3.200000e+03 -1.793900e-01
-4.000000e+02 -3.200020e+03 -4.001740e+02
7.754570e-10 -3.200020e+03 -4.001740e+02
-4.000000e+02 -2.800020e+03 -4.001970e+02
5.148830e-10 -2.800020e+03 -4.001970e+02
-4.000000e+02 -3.200000e+03 -1.793900e-01
4.157800e-10 -3.200000e+03 -1.794730e-01
-4.000000e+02 -2.800000e+03 -1.963070e-01
6.290740e-10 -2.800000e+03 -1.963680e-01
7.754570e-10 -3.200020e+03 -4.001740e+02
4.000000e+02 -3.200020e+03 -4.001740e+02
5.148830e-10 -2.800020e+03 -4.001970e+02
4.000000e+02 -2.800020e+03 -4.001970e+02
4.157800e-10 -3.200000e+03 -1.794730e-01
4.000000e+02 -3.200000e+03 -1.793900e-01
6.290740e-10 -2.800000e+03 -1.963680e-01
4.000000e+02 -2.800000e+03 -1.963070e-01
-4.000000e+02 -2.800020e+03 -4.001970e+02
5.148830e-10 -2.800020e+03 -4.001970e+02
-4.000000e+02 -2.400020e+03 -4.002210e+02
9.664680e-10 -2.400020e+03 -4.002210e+02
-4.000000e+02 -2.800000e+03 -1.963070e-01
6.290740e-10 -2.800000e+03 -1.963680e-01
-4.000000e+02 -2.400000e+03 -2.152780e-01
6.715130e-10 -2.400000e+03 -2.152380e-01
5.148830e-10 -2.800020e+03 -4.001970e+02
4.000000e+02 -2.800020e+03 -4.001970e+02
9.664680e-10 -2.400020e+03 -4.002210e+02
4.000000e+02 -2.400020e+03 -4.002210e+02
6.290740e-10 -2.800000e+03 -1.963680e-01
4.000000e+02 -2.800000e+03 -1.963070e-01
6.715130e-10 -2.400000e+03 -2.152380e-01
4.000000e+02 -2.400000e+03 -2.152780e-01
-4.000000e+02 -2.400020e+03 -4.002210e+02
9.664680e-10 -2.400020e+03 -4.002210e+02
-4.000000e+02 -2.000020e+03 -4.002320e+02
7.810870e-10 -2.000020e+03 -4.002320e+02
-4.000000e+02 -2.400000e+03 -2.152780e-01
6.715130e-10 -2.400000e+03 -2.152380e-01
-4.000000e+02 -2.000000e+03 -2.347130e-01
7.998980e-10 -2.000000e+03 -2.346440e-01
9.664680e-10 -2.400020e+03 -4.002210e+02
4.000000e+02 -2.400020e+03 -4.002210e+02
7.810870e-10 -2.000020e+03 -4.002320e+02
4.000000e+02 -2.000020e+03 -4.002320e+02
6.715130e-10 -2.400000e+03 -2.152380e-01
4.000000e+02 -2.400000e+03 -2.152780e-01
7.998980e-10 -2.000000e+03 -2.346440e-01
4.000000e+02 -2.000000e+03 -2.347130e-01
-4.000000e+02 -2.000020e+03 -4.002320e+02
7.810870e-10 -2.000020e+03 -4.002320e+02
-4.000000e+02 -1.600020e+03 -4.002510e+02
4.199980e-10 -1.600020e+03 -4.002510e+02
-4.000000e+02 -2.000000e+03 -2.347130e-01
7.998980e-10 -2.000000e+03 -2.346440e-01
-4.000000e+02 -1.600000e+03 -2.560880e-01
7.752700e-10 -1.600000e+03 -2.559950e-01
7.810870e-10 -2.000020e+03 -4.002320e+02
4.000000e+02 -2.000020e+03 -4.002320e+02
4.199980e-10 -1.600020e+03 -4.002510e+02
4.000000e+02 -1.600020e+03 -4.002510e+02
7.998980e-10 -2.000000e+03 -2.346440e-01
4.000000e+02 -2.000000e+03 -2.347130e-01
7.752700e-10 -1.600000e+03 -2.559950e-01
4.000000e+02 -1.600000e+03 -2.560880e-01
-4.000000e+02 -1.600020e+03 -4.002510e+02
4.199980e-10 -1.600020e+03 -4.002510e+02
-4.000000e+02 -1.200030e+03 -4.002850e+02
1.274530e-09 -1.200030e+03 -4.002850e+02
-4.000000e+02 -1.600000e+03 -2.560880e-01
7.752700e-10 -1.600000e+03 -2.559950e-01
-4.000000e+02 -1.200000e+03 -2.813780e-01
9.903200e-10 -1.200000e+03 -2.814020e-01
4.199980e-10 -1.600020e+03 -4.002510e+02
4.000000e+02 -1.600020e+03 -4.002510e+02
1.274530e-09 -1.200030e+03 -4.002850e+02
4.000000e+02 -1.200030e+03 -4.002850e+02
7.752700e-10 -1.600000e+03 -2.559950e-01
4.000000e+02 -1.600000e+03 -2.560880e-01
9.903200e-10 -1.200000e+03 -2.814020e-01
4.000000e+02 -1.200000e+03 -2.813780e-01
-4.000000e+02 -1.200030e+03 -4.002850e+02
1.274530e-09 -1.200030e+03 -4.002850e+02
-4.000000e+02 -8.000260e+02 -4.003090e+02
1.050840e-09 -8.000260e+02 -4.003090e+02
-4.000000e+02 -1.200000e+03 -2.813780e-01
9.903200e-10 -1.200000e+03 -2.814020e-01
-4.000000e+02 -8.000020e+02 -3.064580e-01
5.667410e-10 -8.000020e+02 -3.067460e-01
1.274530e-09 -1.200030e+03 -4.002850e+02
4.000000e+02 -1.200030e+03 -4.002850e+02
1.050840e-09 -8.000260e+02 -4.003090e+02
4.000000e+02 -8.000260e+02 -4.003090e+02
9.903200e-10 -1.200000e+03 -2.814020e-01
4.000000e+02 -1.200000e+03 -2.813780e-01
5.667410e-10 -8.000020e+02 -3.067460e-01
4.000000e+02 -8.000020e+02 -3.064580e-01
-4.000000e+02 -8.000260e+02 -4.003090e+02
1.050840e-09 -8.000260e+02 -4.003090e+02
-4.000000e+02 -4.000280e+02 -4.003310e+02
1.028540e-09 -4.000280e+02 -4.003300e+02
-4.000000e+02 -8.000020e+02 -3.064580e-01
5.667410e-10 -8.000020e+02 -3.067460e-01
-4.000000e+02 -4.000010e+02 -3.345250e-01
9.191880e-10 -4.000010e+02 -3.345230e-01
1.050840e-09 -8.000260e+02 -4.003090e+02
4.000000e+02 -8.000260e+02 -4.003090e+02
1.028540e-09 -4.000280e+02 -4.003300e+02
4.000000e+02 -4.000280e+02 -4.003310e+02
5.667410e-10 -8.000020e+02 -3.067460e-01
4.000000e+02 -8.000020e+02 -3.064580e-01
9.191880e-10 -4.000010e+02 -3.345230e-01
4.000000e+02 -4.000010e+02 -3.345250e-01
-4.000000e+02 -4.000280e+02 -4.003310e+02
1.028540e-09 -4.000280e+02 -4.003300e+02
-4.000000e+02 -2.635840e-02 -4.003630e+02
1.316200e-09 -2.616620e-02 -4.003630e+02
-4.000000e+02 -4.000010e+02 -3.345250e-01
9.191880e-10 -4.000010e+02 -3.345230e-01
-4.000000e+02 1.548180e-03 -3.628620e-01
8.669440e-10 1.495660e-03 -3.626780e-01
1.028540e-09 -4.000280e+02 -4.003300e+02
4.000000e+02 -4.000280e+02 -4.003310e+02
[...]
<PointData>
<DataArray type="Float32" Name="V1" format="ascii">
0.000000e+00
0.000000e+00
-1.103720e-04
-1.511180e-10
0.000000e+00
0.000000e+00
1.560950e-04
-6.023980e-11
0.000000e+00
0.000000e+00
-1.511180e-10
1.103720e-04
0.000000e+00
0.000000e+00
-6.023980e-11
-1.560950e-04
-1.103720e-04
-1.511180e-10
6.814710e-05
3.156560e-10
1.560950e-04
-6.023980e-11
1.502640e-04
2.199650e-10
-1.511180e-10
1.103720e-04
3.156560e-10
-6.814630e-05
-6.023980e-11
-1.560950e-04
2.199650e-10
-1.502640e-04
6.814710e-05
3.156560e-10
-1.927160e-04
2.193670e-10
1.502640e-04
2.199650e-10
1.775950e-04
1.887490e-10
3.156560e-10
-6.814630e-05
2.193670e-10
1.927170e-04
2.199650e-10
-1.502640e-04
1.887490e-10
-1.775950e-04
-1.927160e-04
2.193670e-10
-7.525080e-04
-4.655600e-10
1.775950e-04
1.887490e-10
2.337910e-04
-3.670990e-10
2.193670e-10
1.927170e-04
-4.655600e-10
7.525070e-04
1.887490e-10
-1.775950e-04
-3.670990e-10
-2.337910e-04
-7.525080e-04
-4.655600e-10
1.720030e-04
-2.286330e-10
2.337910e-04
-3.670990e-10
8.947820e-05
1.199190e-10
-4.655600e-10
7.525070e-04
-2.286330e-10
-1.720040e-04
-3.670990e-10
-2.337910e-04
1.199190e-10
-8.947820e-05
1.720030e-04
-2.286330e-10
6.495700e-04
4.125440e-10
8.947820e-05
1.199190e-10
-2.506470e-04
-1.695030e-10
-2.286330e-10
-1.720040e-04
4.125440e-10
-6.495700e-04
1.199190e-10
-8.947820e-05
-1.695030e-10
2.506470e-04
6.495700e-04
4.125440e-10
-2.094040e-04
-4.059720e-10
-2.506470e-04
-1.695030e-10
-2.997470e-04
2.175610e-10
4.125440e-10
-6.495700e-04
-4.059720e-10
2.094030e-04
-1.695030e-10
2.506470e-04
2.175610e-10
2.997480e-04
-2.094040e-04
-4.059720e-10
-1.336610e-04
3.947710e-10
-2.997470e-04
2.175610e-10
-3.667380e-04
-6.244830e-10
-4.059720e-10
2.094030e-04
3.947710e-10
1.336610e-04
2.175610e-10
2.997480e-04
-6.244830e-10
3.667360e-04
-1.336610e-04
3.947710e-10
6.128910e-04
8.249650e-11
-3.667380e-04
-6.244830e-10
-3.391000e-04
4.429710e-11
3.947710e-10
1.336610e-04
8.249650e-11
-6.128910e-04
-6.244830e-10
3.667360e-04
4.429710e-11
3.391010e-04
6.128910e-04
8.249650e-11
5.403160e-04
-5.194430e-10
-3.391000e-04
4.429710e-11
1.682690e-04
-1.524300e-11
8.249650e-11
-6.128910e-04
-5.194430e-10
-5.403170e-04
4.429710e-11
3.391010e-04
-1.524300e-11
-1.682700e-04
5.403160e-04
-5.194430e-10
-3.207980e-04
8.749250e-11
1.682690e-04
-1.524300e-11
3.601850e-04
1.013760e-10
-5.194430e-10
-5.403170e-04
8.749250e-11
3.207980e-04
-1.524300e-11
-1.682700e-04
1.013760e-10
-3.601840e-04
-3.207980e-04
8.749250e-11
-5.218930e-04
8.654810e-12
3.601850e-04
1.013760e-10
1.875850e-04
-2.845690e-10
8.749250e-11
3.207980e-04
8.654810e-12
5.218930e-04
1.013760e-10
-3.601840e-04
-2.845690e-10
-1.875860e-04
-5.218930e-04
8.654810e-12
-8.649890e-04
-3.611140e-10
1.875850e-04
-2.845690e-10
2.642630e-04
4.627220e-10
8.654810e-12
5.218930e-04
-3.611140e-10
8.649880e-04
-2.845690e-10
-1.875860e-04
4.627220e-10
-2.642630e-04
-8.649890e-04
-3.611140e-10
1.961060e-05
2.051900e-10
2.642630e-04
4.627220e-10
2.024000e-04
-1.544430e-10
-3.611140e-10
8.649880e-04
2.051900e-10
-1.961010e-05
4.627220e-10
-2.642630e-04
-1.544430e-10
-2.024000e-04
1.961060e-05
2.051900e-10
8.714600e-04
-3.151360e-10
2.024000e-04
-1.544430e-10
-1.848830e-04
-1.838780e-10
2.051900e-10
-1.961010e-05
-3.151360e-10
-8.714600e-04
-1.544430e-10
-2.024000e-04
-1.838780e-10
1.848820e-04
8.714600e-04
-3.151360e-10
-9.122150e-05
-1.502010e-10
-1.848830e-04
-1.838780e-10
-2.109790e-04
3.124910e-10
-3.151360e-10
-8.714600e-04
-1.502010e-10
9.122080e-05
-1.838780e-10
1.848820e-04
3.124910e-10
2.109800e-04
-9.122150e-05
-1.502010e-10
-3.199100e-05
3.810650e-10
-2.109790e-04
3.124910e-10
-2.104840e-04
-4.975400e-10
-1.502010e-10
9.122080e-05
3.810650e-10
3.199110e-05
3.124910e-10
2.109800e-04
-4.975400e-10
2.104840e-04
-3.199100e-05
3.810650e-10
5.918180e-04
-6.938080e-12
-2.104840e-04
-4.975400e-10
-1.917020e-04
2.415980e-11
3.810650e-10
3.199110e-05
-6.938080e-12
-5.918180e-04
-4.975400e-10
2.104840e-04
2.415980e-11
1.917020e-04
5.918180e-04
-6.938080e-12
-2.075010e-04
-4.502120e-10
-1.917020e-04
2.415980e-11
1.282970e-04
4.868300e-10
-6.938080e-12
-5.918180e-04
-4.502120e-10
2.075010e-04
2.415980e-11
1.917020e-04
4.868300e-10
-1.282970e-04
-2.075010e-04
-4.502120e-10
-1.573680e-04
3.592900e-10
1.282970e-04
4.868300e-10
6.723580e-05
1.475010e-10
-4.502120e-10
2.075010e-04
3.592900e-10
1.573690e-04
4.868300e-10
-1.282970e-04
1.475010e-10
-6.723590e-05
-1.573680e-04
3.592900e-10
-7.505640e-05
1.095620e-11
6.723580e-05
1.475010e-10
1.060140e-04
-4.137820e-10
3.592900e-10
1.573690e-04
1.095620e-11
7.505670e-05
1.475010e-10
-6.723590e-05
-4.137820e-10
-1.060150e-04
-7.505640e-05
1.095620e-11
-1.938800e-04
1.689650e-11
1.060140e-04
-4.137820e-10
1.778740e-04
-1.762180e-10
1.095620e-11
7.505670e-05
1.689650e-11
1.938800e-04
-4.137820e-10
-1.060150e-04
-1.762180e-10
-1.778740e-04
-1.938800e-04
1.689650e-11
1.969330e-04
3.699420e-10
1.778740e-04
-1.762180e-10
-2.044540e-05
-2.754250e-10
1.689650e-11
1.938800e-04
3.699420e-10
-1.969330e-04
-1.762180e-10
-1.778740e-04
-2.754250e-10
2.044520e-05
1.969330e-04
3.699420e-10
7.295090e-05
-6.034900e-11
-2.044540e-05
-2.754250e-10
1.021940e-05
-5.539050e-11
3.699420e-10
-1.969330e-04
-6.034900e-11
-7.295200e-05
-2.754250e-10
2.044520e-05
-5.539050e-11
-1.021870e-05
7.295090e-05
-6.034900e-11
-3.121480e-04
-4.910220e-10
1.021940e-05
-5.539050e-11
-1.763880e-04
6.783790e-10
-6.034900e-11
-7.295200e-05
-4.910220e-10
3.121480e-04
-5.539050e-11
-1.021870e-05
6.783790e-10
1.763880e-04
-3.121480e-04
-4.910220e-10
2.375590e-04
1.237430e-10
-1.763880e-04
6.783790e-10
-3.715320e-04
1.816440e-10
-4.910220e-10
3.121480e-04
1.237430e-10
-2.375570e-04
6.783790e-10
1.763880e-04
1.816440e-10
3.715310e-04
2.375590e-04
1.237430e-10
7.390020e-04
1.265660e-10
-3.715320e-04
1.816440e-10
-2.204860e-04
-2.520340e-10
1.237430e-10
-2.375570e-04
1.265660e-10
-7.390030e-04
1.816440e-10
3.715310e-04
-2.520340e-10
2.204860e-04
7.390020e-04
1.265660e-10
2.889280e-06
-1.939940e-10
-2.204860e-04
-2.520340e-10
2.088470e-04
-2.856620e-10
1.265660e-10
-7.390030e-04
-1.939940e-10
-2.890480e-06
-2.520340e-10
2.204860e-04
-2.856620e-10
-2.088470e-04
2.889280e-06
-1.939940e-10
-6.547750e-04
3.662040e-10
2.088470e-04
-2.856620e-10
2.754530e-04
6.439090e-11
-1.939940e-10
-2.890480e-06
3.662040e-10
6.547760e-04
-2.856620e-10
-2.088470e-04
6.439090e-11
-2.754530e-04
-6.547750e-04
3.662040e-10
1.134210e-04
-1.916700e-10
2.754530e-04
6.439090e-11
1.361200e-04
-4.426700e-10
3.662040e-10
6.547760e-04
-1.916700e-10
-1.134220e-04
6.439090e-11
-2.754530e-04
-4.426700e-10
-1.361200e-04
0.000000e+00
0.000000e+00
1.560950e-04
-6.023980e-11
0.000000e+00
0.000000e+00
-2.017770e-04
-4.074630e-11
0.000000e+00
0.000000e+00
-6.023980e-11
-1.560950e-04
0.000000e+00
0.000000e+00
-4.074630e-11
2.017770e-04
1.560950e-04
-6.023980e-11
1.502640e-04
2.199650e-10
-2.017770e-04
-4.074630e-11
-3.681310e-04
1.161620e-10
-6.023980e-11
-1.560950e-04
2.199650e-10
-1.502640e-04
-4.074630e-11
2.017770e-04
1.161620e-10
3.681310e-04
1.502640e-04
2.199650e-10
1.775950e-04
1.887490e-10
-3.681310e-04
1.161620e-10
-1.630890e-04
-5.923030e-11
2.199650e-10
-1.502640e-04
1.887490e-10
-1.775950e-04
1.161620e-10
3.681310e-04
-5.923030e-11
1.630900e-04
1.775950e-04
1.887490e-10
2.337910e-04
-3.670990e-10
-1.630890e-04
-5.923030e-11
2.852580e-04
3.745420e-11
1.887490e-10
-1.775950e-04
-3.670990e-10
-2.337910e-04
-5.923030e-11
1.630900e-04
3.745420e-11
-2.852580e-04
2.337910e-04
-3.670990e-10
8.947820e-05
1.199190e-10
2.852580e-04
3.745420e-11
-3.503630e-04
1.748780e-10
-3.670990e-10
-2.337910e-04
1.199190e-10
-8.947820e-05
3.745420e-11
-2.852580e-04
1.748780e-10
3.503630e-04
8.947820e-05
1.199190e-10
-2.506470e-04
-1.695030e-10
-3.503630e-04
1.748780e-10
-1.489900e-04
3.424190e-10
1.199190e-10
-8.947820e-05
-1.695030e-10
2.506470e-04
1.748780e-10
3.503630e-04
3.424190e-10
1.489910e-04
-2.506470e-04
-1.695030e-10
-2.997470e-04
2.175610e-10
-1.489900e-04
3.424190e-10
8.087440e-04
3.231190e-10
-1.695030e-10
2.506470e-04
2.175610e-10
2.997480e-04
3.424190e-10
1.489910e-04
3.231190e-10
-8.087440e-04
-2.997470e-04
2.175610e-10
-3.667380e-04
-6.244830e-10
8.087440e-04
3.231190e-10
8.679510e-04
-1.362290e-10
2.175610e-10
2.997480e-04
-6.244830e-10
3.667360e-04
3.231190e-10
-8.087440e-04
-1.362290e-10
-8.679510e-04
-3.667380e-04
-6.244830e-10
-3.391000e-04
4.429710e-11
8.679510e-04
-1.362290e-10
6.455820e-05
7.270700e-10
-6.244830e-10
3.667360e-04
4.429710e-11
3.391010e-04
-1.362290e-10
-8.679510e-04
7.270700e-10
-6.455690e-05
-3.391000e-04
4.429710e-11
1.682690e-04
-1.524300e-11
6.455820e-05
7.270700e-10
-8.765230e-04
-4.222800e-11
4.429710e-11
3.391010e-04
-1.524300e-11
-1.682700e-04
7.270700e-10
-6.455690e-05
-4.222800e-11
8.765240e-04
1.682690e-04
-1.524300e-11
3.601850e-04
1.013760e-10
-8.765230e-04
-4.222800e-11
-3.993850e-04
-2.009330e-10
-1.524300e-11
-1.682700e-04
1.013760e-10
-3.601840e-04
-4.222800e-11
8.765240e-04
-2.009330e-10
3.993850e-04
3.601850e-04
1.013760e-10
1.875850e-04
-2.845690e-10
-3.993850e-04
-2.009330e-10
1.460750e-04
2.655610e-10
1.013760e-10
-3.601840e-04
-2.845690e-10
-1.875860e-04
-2.009330e-10
3.993850e-04
2.655610e-10
-1.460740e-04
1.875850e-04
-2.845690e-10
2.642630e-04
4.627220e-10
1.460750e-04
2.655610e-10
3.368980e-04
-1.960640e-10
-2.845690e-10
-1.875860e-04
4.627220e-10
-2.642630e-04
2.655610e-10
-1.460740e-04
-1.960640e-10
-3.368980e-04
2.642630e-04
4.627220e-10
2.024000e-04
-1.544430e-10
3.368980e-04
-1.960640e-10
-4.240230e-04
-2.042580e-10
4.627220e-10
-2.642630e-04
-1.544430e-10
-2.024000e-04
-1.960640e-10
-3.368980e-04
-2.042580e-10
4.240230e-04
2.024000e-04
-1.544430e-10
-1.848830e-04
-1.838780e-10
-4.240230e-04
-2.042580e-10
-5.025870e-04
-1.326750e-10
-1.544430e-10
-2.024000e-04
-1.838780e-10
1.848820e-04
-2.042580e-10
4.240230e-04
-1.326750e-10
5.025870e-04
-1.848830e-04
-1.838780e-10
-2.109790e-04
3.124910e-10
-5.025870e-04
-1.326750e-10
5.129760e-04
1.115570e-10
-1.838780e-10
1.848820e-04
3.124910e-10
2.109800e-04
-1.326750e-10
5.025870e-04
1.115570e-10
-5.129750e-04
-2.109790e-04
3.124910e-10
-2.104840e-04
-4.975400e-10
5.129760e-04
1.115570e-10
4.544520e-04
1.223060e-10
3.124910e-10
2.109800e-04
-4.975400e-10
2.104840e-04
1.115570e-10
-5.129750e-04
1.223060e-10
-4.544530e-04
-2.104840e-04
-4.975400e-10
-1.917020e-04
2.415980e-11
4.544520e-04
1.223060e-10
-2.094710e-04
-1.453520e-10
-4.975400e-10
2.104840e-04
2.415980e-11
1.917020e-04
1.223060e-10
-4.544530e-04
-1.453520e-10
2.094710e-04
-1.917020e-04
2.415980e-11
1.282970e-04
4.868300e-10
-2.094710e-04
-1.453520e-10
-4.952620e-05
-4.177580e-10
2.415980e-11
1.917020e-04
4.868300e-10
-1.282970e-04
-1.453520e-10
2.094710e-04
-4.177580e-10
4.952600e-05
1.282970e-04
4.868300e-10
6.723580e-05
1.475010e-10
-4.952620e-05
-4.177580e-10
2.400390e-05
-1.122550e-10
4.868300e-10
-1.282970e-04
1.475010e-10
-6.723590e-05
-4.177580e-10
4.952600e-05
-1.122550e-10
-2.400370e-05
6.723580e-05
1.475010e-10
1.060140e-04
-4.137820e-10
2.400390e-05
-1.122550e-10
-1.374580e-04
-3.026320e-11
1.475010e-10
-6.723590e-05
-4.137820e-10
-1.060150e-04
-1.122550e-10
-2.400370e-05
-3.026320e-11
1.374580e-04
1.060140e-04
-4.137820e-10
1.778740e-04
-1.762180e-10
-1.374580e-04
-3.026320e-11
-1.622340e-04
2.005610e-10
-4.137820e-10
-1.060150e-04
-1.762180e-10
-1.778740e-04
-3.026320e-11
1.374580e-04
2.005610e-10
1.622340e-04
1.778740e-04
-1.762180e-10
-2.044540e-05
-2.754250e-10
-1.622340e-04
2.005610e-10
-1.556400e-04
3.242190e-10
-1.762180e-10
-1.778740e-04
-2.754250e-10
2.044520e-05
2.005610e-10
1.622340e-04
3.242190e-10
1.556410e-04
-2.044540e-05
-2.754250e-10
1.021940e-05
-5.539050e-11
-1.556400e-04
3.242190e-10
-9.345010e-05
2.767330e-11
-2.754250e-10
2.044520e-05
-5.539050e-11
-1.021870e-05
3.242190e-10
1.556410e-04
2.767330e-11
9.344960e-05
1.021940e-05
-5.539050e-11
-1.763880e-04
6.783790e-10
-9.345010e-05
2.767330e-11
6.650120e-04
-3.809860e-10
-5.539050e-11
-1.021870e-05
6.783790e-10
1.763880e-04
2.767330e-11
9.344960e-05
-3.809860e-10
-6.650110e-04
-1.763880e-04
6.783790e-10
-3.715320e-04
1.816440e-10
6.650120e-04
-3.809860e-10
5.053530e-04
-5.480940e-11
6.783790e-10
1.763880e-04
1.816440e-10
3.715310e-04
-3.809860e-10
-6.650110e-04
-5.480940e-11
-5.053510e-04
-3.715320e-04
1.816440e-10
-2.204860e-04
-2.520340e-10
5.053530e-04
-5.480940e-11
-2.982710e-04
4.656670e-10
1.816440e-10
3.715310e-04
-2.520340e-10
2.204860e-04
-5.480940e-11
-5.053510e-04
4.656670e-10
2.982710e-04
-2.204860e-04
-2.520340e-10
2.088470e-04
-2.856620e-10
-2.982710e-04
4.656670e-10
-4.203950e-04
1.781160e-10
-2.520340e-10
2.204860e-04
-2.856620e-10
-2.088470e-04
4.656670e-10
2.982710e-04
1.781160e-10
4.203950e-04
2.088470e-04
-2.856620e-10
2.754530e-04
6.439090e-11
-4.203950e-04
1.781160e-10
1.038810e-04
-8.727540e-12
-2.856620e-10
-2.088470e-04
6.439090e-11
-2.754530e-04
1.781160e-10
4.203950e-04
-8.727540e-12
-1.038810e-04
2.754530e-04
6.439090e-11
1.361200e-04
-4.426700e-10
1.038810e-04
-8.727540e-12
-3.857800e-04
4.623790e-10
6.439090e-11
-2.754530e-04
-4.426700e-10
-1.361200e-04
-8.727540e-12
-1.038810e-04
4.623790e-10
3.857800e-04
</DataArray>
<DataArray type="Float32" Name="V2" format="ascii">
0.000000e+00
0.000000e+00
2.220210e-04
2.865660e-04
0.000000e+00
0.000000e+00
-4.628130e-04
-3.927470e-04
0.000000e+00
0.000000e+00
2.865660e-04
2.220210e-04
0.000000e+00
0.000000e+00
-3.927470e-04
-4.628140e-04
2.220210e-04
2.865660e-04
5.040140e-03
4.866880e-03
-4.628130e-04
-3.927470e-04
-3.210080e-03
-3.102580e-03
2.865660e-04
2.220210e-04
4.866880e-03
5.040140e-03
-3.927470e-04
-4.628140e-04
-3.102580e-03
-3.210080e-03
5.040140e-03
4.866880e-03
1.825760e-03
2.096170e-03
-3.210080e-03
-3.102580e-03
-8.278040e-04
-8.163890e-04
4.866880e-03
5.040140e-03
2.096170e-03
1.825760e-03
-3.102580e-03
-3.210080e-03
-8.163890e-04
-8.278050e-04
1.825760e-03
2.096170e-03
-1.917250e-03
-1.819490e-03
-8.278040e-04
-8.163890e-04
1.835120e-03
1.885860e-03
2.096170e-03
1.825760e-03
-1.819490e-03
-1.917250e-03
-8.163890e-04
-8.278050e-04
1.885860e-03
1.835120e-03
-1.917250e-03
-1.819490e-03
1.423580e-03
1.254160e-03
1.835120e-03
1.885860e-03
-1.042220e-03
-1.068600e-03
-1.819490e-03
-1.917250e-03
1.254160e-03
1.423590e-03
1.885860e-03
1.835120e-03
-1.068600e-03
-1.042220e-03
1.423580e-03
1.254160e-03
2.913710e-03
3.293300e-03
-1.042220e-03
-1.068600e-03
-1.668300e-03
-1.780950e-03
1.254160e-03
1.423590e-03
3.293300e-03
2.913710e-03
-1.068600e-03
-1.042220e-03
-1.780950e-03
-1.668300e-03
2.913710e-03
3.293300e-03
-3.641710e-04
1.816450e-04
-1.668300e-03
-1.780950e-03
1.527520e-03
1.369090e-03
3.293300e-03
2.913710e-03
1.816450e-04
-3.641690e-04
-1.780950e-03
-1.668300e-03
1.369090e-03
1.527520e-03
-3.641710e-04
1.816450e-04
-1.567210e-03
-1.597700e-03
1.527520e-03
1.369090e-03
1.186970e-03
1.162560e-03
1.816450e-04
-3.641690e-04
-1.597700e-03
-1.567210e-03
1.369090e-03
1.527520e-03
1.162560e-03
1.186970e-03
-1.567210e-03
-1.597700e-03
-2.039650e-05
-2.169640e-04
1.186970e-03
1.162560e-03
-9.709430e-04
-1.016130e-03
-1.597700e-03
-1.567210e-03
-2.169640e-04
-2.039520e-05
1.162560e-03
1.186970e-03
-1.016130e-03
-9.709430e-04
-2.039650e-05
-2.169640e-04
9.311570e-04
1.101440e-03
-9.709430e-04
-1.016130e-03
-9.888650e-04
-1.101370e-03
-2.169640e-04
-2.039520e-05
1.101440e-03
9.311550e-04
-1.016130e-03
-9.709430e-04
-1.101370e-03
-9.888650e-04
9.311570e-04
1.101440e-03
1.280490e-03
1.321030e-03
-9.888650e-04
-1.101370e-03
2.250600e-05
1.357890e-04
1.101440e-03
9.311550e-04
1.321030e-03
1.280490e-03
-1.101370e-03
-9.888650e-04
1.357890e-04
2.250510e-05
1.280490e-03
1.321030e-03
6.717370e-05
-1.130380e-04
2.250600e-05
1.357890e-04
1.218110e-03
1.307300e-03
1.321030e-03
1.280490e-03
-1.130380e-04
6.717280e-05
1.357890e-04
2.250510e-05
1.307300e-03
1.218110e-03
6.717370e-05
-1.130380e-04
1.865590e-04
9.707880e-05
1.218110e-03
1.307300e-03
5.421980e-04
4.786850e-04
-1.130380e-04
6.717280e-05
9.707880e-05
1.865590e-04
1.307300e-03
1.218110e-03
4.786850e-04
5.421980e-04
1.865590e-04
9.707880e-05
2.845010e-03
2.552940e-03
5.421980e-04
4.786850e-04
-2.176800e-03
-2.117280e-03
9.707880e-05
1.865590e-04
2.552940e-03
2.845010e-03
4.786850e-04
5.421980e-04
-2.117280e-03
-2.176800e-03
2.845010e-03
2.552940e-03
-1.078450e-03
-8.397420e-04
-2.176800e-03
-2.117280e-03
2.896130e-04
2.657690e-04
2.552940e-03
2.845010e-03
-8.397420e-04
-1.078450e-03
-2.117280e-03
-2.176800e-03
2.657690e-04
2.896140e-04
-1.078450e-03
-8.397420e-04
-4.237890e-03
-3.920440e-03
2.896130e-04
2.657690e-04
3.180580e-03
3.228540e-03
-8.397420e-04
-1.078450e-03
-3.920440e-03
-4.237880e-03
2.657690e-04
2.896140e-04
3.228540e-03
3.180580e-03
-4.237890e-03
-3.920440e-03
2.357120e-03
1.980830e-03
3.180580e-03
3.228540e-03
-2.338470e-03
-2.178810e-03
-3.920440e-03
-4.237880e-03
1.980830e-03
2.357120e-03
3.228540e-03
3.180580e-03
-2.178810e-03
-2.338470e-03
2.357120e-03
1.980830e-03
3.583040e-03
3.629680e-03
-2.338470e-03
-2.178810e-03
-2.995890e-03
-3.039430e-03
1.980830e-03
2.357120e-03
3.629680e-03
3.583040e-03
-2.178810e-03
-2.338470e-03
-3.039430e-03
-2.995890e-03
3.583040e-03
3.629680e-03
-2.838720e-03
-2.402240e-03
-2.995890e-03
-3.039430e-03
3.339620e-03
3.279930e-03
3.629680e-03
3.583040e-03
-2.402240e-03
-2.838720e-03
-3.039430e-03
-2.995890e-03
3.279930e-03
3.339620e-03
-2.838720e-03
-2.402240e-03
-1.775150e-03
-1.729310e-03
3.339620e-03
3.279930e-03
1.424850e-03
1.409190e-03
-2.402240e-03
-2.838720e-03
-1.729310e-03
-1.775150e-03
3.279930e-03
3.339620e-03
1.409190e-03
1.424850e-03
-1.775150e-03
-1.729310e-03
3.416840e-03
3.503740e-03
1.424850e-03
1.409190e-03
-2.634890e-03
-2.731920e-03
-1.729310e-03
-1.775150e-03
3.503740e-03
3.416840e-03
1.409190e-03
1.424850e-03
-2.731920e-03
-2.634890e-03
3.416840e-03
3.503740e-03
4.794260e-04
4.485160e-04
-2.634890e-03
-2.731920e-03
3.608020e-04
3.288040e-04
3.503740e-03
3.416840e-03
4.485160e-04
4.794240e-04
-2.731920e-03
-2.634890e-03
3.288040e-04
3.608010e-04
4.794260e-04
4.485160e-04
-2.101820e-03
-2.190600e-03
3.608020e-04
3.288040e-04
1.703130e-03
1.721680e-03
4.485160e-04
4.794240e-04
-2.190600e-03
-2.101820e-03
3.288040e-04
3.608010e-04
1.721680e-03
1.703130e-03
-2.101820e-03
-2.190600e-03
3.413870e-04
7.008900e-04
1.703130e-03
1.721680e-03
-5.984990e-04
-6.595860e-04
-2.190600e-03
-2.101820e-03
7.008900e-04
3.413870e-04
1.721680e-03
1.703130e-03
-6.595860e-04
-5.984990e-04
3.413870e-04
7.008900e-04
3.716780e-04
4.124320e-04
-5.984990e-04
-6.595860e-04
-2.949480e-04
-2.629310e-04
7.008900e-04
3.413870e-04
4.124320e-04
3.716770e-04
-6.595860e-04
-5.984990e-04
-2.629310e-04
-2.949470e-04
3.716780e-04
4.124320e-04
4.917260e-04
6.325040e-05
-2.949480e-04
-2.629310e-04
1.291630e-04
2.963550e-04
4.124320e-04
3.716770e-04
6.325040e-05
4.917260e-04
-2.629310e-04
-2.949470e-04
2.963550e-04
1.291610e-04
4.917260e-04
6.325040e-05
2.817940e-04
2.595650e-04
1.291630e-04
2.963550e-04
-4.207910e-05
-1.735580e-05
6.325040e-05
4.917260e-04
2.595650e-04
2.817940e-04
2.963550e-04
1.291610e-04
-1.735580e-05
-4.207870e-05
2.817940e-04
2.595650e-04
-3.371480e-04
-1.924950e-04
-4.207910e-05
-1.735580e-05
-2.024030e-04
-1.806590e-04
2.595650e-04
2.817940e-04
-1.924950e-04
-3.371480e-04
-1.735580e-05
-4.207870e-05
-1.806590e-04
-2.024030e-04
-3.371480e-04
-1.924950e-04
-9.218140e-04
-1.130090e-03
-2.024030e-04
-1.806590e-04
-1.618700e-04
-1.327730e-04
-1.924950e-04
-3.371480e-04
-1.130090e-03
-9.218150e-04
-1.806590e-04
-2.024030e-04
-1.327730e-04
-1.618710e-04
-9.218140e-04
-1.130090e-03
-1.957960e-03
-2.263970e-03
-1.618700e-04
-1.327730e-04
5.889860e-04
4.722180e-04
-1.130090e-03
-9.218150e-04
-2.263970e-03
-1.957960e-03
-1.327730e-04
-1.618710e-04
4.722180e-04
5.889860e-04
0.000000e+00
0.000000e+00
-4.628130e-04
-3.927470e-04
0.000000e+00
0.000000e+00
7.059910e-04
5.010270e-04
0.000000e+00
0.000000e+00
-3.927470e-04
-4.628140e-04
0.000000e+00
0.000000e+00
5.010270e-04
7.059920e-04
-4.628130e-04
-3.927470e-04
-3.210080e-03
-3.102580e-03
7.059910e-04
5.010270e-04
1.375470e-03
1.334590e-03
-3.927470e-04
-4.628140e-04
-3.102580e-03
-3.210080e-03
5.010270e-04
7.059920e-04
1.334590e-03
1.375470e-03
-3.210080e-03
-3.102580e-03