<?xml version="1.0"?>
<VTKFile type="UnstructuredGrid" version="0.1" byte_order="LittleEndian" compressor="vtkZLibDataCompressor">
<UnstructuredGrid>
<Piece NumberOfPoints="960" NumberOfCells="120">
<Points>
<DataArray type="Float32" NumberOfComponents="3" format="ascii">
-4.000000e+02 -6.000000e+03 -4.000000e+02
0.000000e+00 -6.000000e+03 -4.000000e+02
-3.999620e+02 -5.600430e+03 -4.003250e+02
1.904390e-02 -5.600440e+03 -4.002840e+02
-4.000000e+02 -6.000000e+03 0.000000e+00
0.000000e+00 -6.000000e+03 0.000000e+00
-4.000260e+02 -5.599990e+03 -2.269640e-01
-3.385880e-02 -5.599990e+03 -2.315280e-01
0.000000e+00 -6.000000e+03 -4.000000e+02
4.000000e+02 -6.000000e+03 -4.000000e+02
1.904390e-02 -5.600440e+03 -4.002840e+02
4.000020e+02 -5.600490e+03 -4.002010e+02
0.000000e+00 -6.000000e+03 0.000000e+00
4.000000e+02 -6.000000e+03 0.000000e+00
-3.385880e-02 -5.599990e+03 -2.315280e-01
3.999590e+02 -5.599970e+03 -2.565180e-01
-3.999620e+02 -5.600430e+03 -4.003250e+02
1.904390e-02 -5.600440e+03 -4.002840e+02
-4.000320e+02 -5.200850e+03 -4.009290e+02
-1.521130e-02 -5.200870e+03 -4.009940e+02
-4.000260e+02 -5.599990e+03 -2.269640e-01
-3.385880e-02 -5.599990e+03 -2.315280e-01
-3.999910e+02 -5.200030e+03 -8.989720e-01
-1.764620e-03 -5.200030e+03 -9.489620e-01
1.904390e-02 -5.600440e+03 -4.002840e+02
4.000020e+02 -5.600490e+03 -4.002010e+02
-1.521130e-02 -5.200870e+03 -4.009940e+02
3.999990e+02 -5.200920e+03 -4.010290e+02
-3.385880e-02 -5.599990e+03 -2.315280e-01
3.999590e+02 -5.599970e+03 -2.565180e-01
-1.764620e-03 -5.200030e+03 -9.489620e-01
3.999870e+02 -5.200030e+03 -1.003730e+00
-4.000320e+02 -5.200850e+03 -4.009290e+02
-1.521130e-02 -5.200870e+03 -4.009940e+02
-4.001240e+02 -4.801360e+03 -4.017580e+02
-1.282050e-01 -4.801370e+03 -4.019700e+02
-3.999910e+02 -5.200030e+03 -8.989720e-01
-1.764620e-03 -5.200030e+03 -9.489620e-01
-3.999800e+02 -4.799990e+03 -1.890240e+00
1.721540e-02 -4.800010e+03 -2.042120e+00
-1.521130e-02 -5.200870e+03 -4.009940e+02
3.999990e+02 -5.200920e+03 -4.010290e+02
-1.282050e-01 -4.801370e+03 -4.019700e+02
3.998690e+02 -4.801370e+03 -4.021600e+02
-1.764620e-03 -5.200030e+03 -9.489620e-01
3.999870e+02 -5.200030e+03 -1.003730e+00
1.721540e-02 -4.800010e+03 -2.042120e+00
4.000140e+02 -4.800040e+03 -2.210910e+00
-4.001240e+02 -4.801360e+03 -4.017580e+02
-1.282050e-01 -4.801370e+03 -4.019700e+02
-4.003750e+02 -4.401920e+03 -4.032430e+02
-3.276660e-01 -4.401870e+03 -4.036850e+02
-3.999800e+02 -4.799990e+03 -1.890240e+00
1.721540e-02 -4.800010e+03 -2.042120e+00
-3.999730e+02 -4.399930e+03 -3.314970e+00
9.628010e-03 -4.399940e+03 -3.722240e+00
-1.282050e-01 -4.801370e+03 -4.019700e+02
3.998690e+02 -4.801370e+03 -4.021600e+02
-3.276660e-01 -4.401870e+03 -4.036850e+02
3.997230e+02 -4.401840e+03 -4.039770e+02
1.721540e-02 -4.800010e+03 -2.042120e+00
4.000140e+02 -4.800040e+03 -2.210910e+00
9.628010e-03 -4.399940e+03 -3.722240e+00
3.999940e+02 -4.399940e+03 -4.082840e+00
-4.003750e+02 -4.401920e+03 -4.032430e+02
-3.276660e-01 -4.401870e+03 -4.036850e+02
-4.006400e+02 -4.002340e+03 -4.052860e+02
-5.757420e-01 -4.002310e+03 -4.059580e+02
-3.999730e+02 -4.399930e+03 -3.314970e+00
9.628010e-03 -4.399940e+03 -3.722240e+00
-3.999180e+02 -3.999980e+03 -5.191290e+00
3.944240e-02 -3.999960e+03 -5.692270e+00
-3.276660e-01 -4.401870e+03 -4.036850e+02
3.997230e+02 -4.401840e+03 -4.039770e+02
-5.757420e-01 -4.002310e+03 -4.059580e+02
3.994890e+02 -4.002230e+03 -4.064290e+02
9.628010e-03 -4.399940e+03 -3.722240e+00
3.999940e+02 -4.399940e+03 -4.082840e+00
3.944240e-02 -3.999960e+03 -5.692270e+00
3.999980e+02 -3.999940e+03 -6.179150e+00
-4.006400e+02 -4.002340e+03 -4.052860e+02
-5.757420e-01 -4.002310e+03 -4.059580e+02
-4.006520e+02 -3.602800e+03 -4.077330e+02
-5.882450e-01 -3.602840e+03 -4.084010e+02
-3.999180e+02 -3.999980e+03 -5.191290e+00
3.944240e-02 -3.999960e+03 -5.692270e+00
-3.999130e+02 -3.600100e+03 -7.826360e+00
4.148880e-02 -3.600090e+03 -8.254210e+00
-5.757420e-01 -4.002310e+03 -4.059580e+02
3.994890e+02 -4.002230e+03 -4.064290e+02
-5.882450e-01 -3.602840e+03 -4.084010e+02
3.994740e+02 -3.602840e+03 -4.088180e+02
3.944240e-02 -3.999960e+03 -5.692270e+00
3.999980e+02 -3.999940e+03 -6.179150e+00
4.148880e-02 -3.600090e+03 -8.254210e+00
3.999960e+02 -3.600090e+03 -8.635410e+00
-4.006520e+02 -3.602800e+03 -4.077330e+02
-5.882450e-01 -3.602840e+03 -4.084010e+02
-4.004050e+02 -3.203370e+03 -4.109640e+02
-4.189520e-01 -3.203430e+03 -4.113520e+02
-3.999130e+02 -3.600100e+03 -7.826360e+00
4.148880e-02 -3.600090e+03 -8.254210e+00
-3.999620e+02 -3.200040e+03 -1.123700e+01
1.633970e-02 -3.200070e+03 -1.156450e+01
-5.882450e-01 -3.602840e+03 -4.084010e+02
3.994740e+02 -3.602840e+03 -4.088180e+02
-4.189520e-01 -3.203430e+03 -4.113520e+02
3.995650e+02 -3.203480e+03 -4.117120e+02
4.148880e-02 -3.600090e+03 -8.254210e+00
3.999960e+02 -3.600090e+03 -8.635410e+00
1.633970e-02 -3.200070e+03 -1.156450e+01
3.999930e+02 -3.200100e+03 -1.194000e+01
-4.004050e+02 -3.203370e+03 -4.109640e+02
-4.189520e-01 -3.203430e+03 -4.113520e+02
-4.002540e+02 -2.803930e+03 -4.147040e+02
-3.083760e-01 -2.803930e+03 -4.149290e+02
-3.999620e+02 -3.200040e+03 -1.123700e+01
1.633970e-02 -3.200070e+03 -1.156450e+01
-4.000090e+02 -2.799960e+03 -1.480920e+01
-3.959440e-03 -2.799980e+03 -1.507490e+01
-4.189520e-01 -3.203430e+03 -4.113520e+02
3.995650e+02 -3.203480e+03 -4.117120e+02
-3.083760e-01 -2.803930e+03 -4.149290e+02
3.996360e+02 -2.803960e+03 -4.152350e+02
1.633970e-02 -3.200070e+03 -1.156450e+01
3.999930e+02 -3.200100e+03 -1.194000e+01
-3.959440e-03 -2.799980e+03 -1.507490e+01
4.000000e+02 -2.800000e+03 -1.541220e+01
-4.002540e+02 -2.803930e+03 -4.147040e+02
-3.083760e-01 -2.803930e+03 -4.149290e+02
-4.002400e+02 -2.404250e+03 -4.189580e+02
-2.395220e-01 -2.404280e+03 -4.191740e+02
-4.000090e+02 -2.799960e+03 -1.480920e+01
-3.959440e-03 -2.799980e+03 -1.507490e+01
-3.999950e+02 -2.399970e+03 -1.879940e+01
1.094920e-03 -2.399990e+03 -1.900930e+01
-3.083760e-01 -2.803930e+03 -4.149290e+02
3.996360e+02 -2.803960e+03 -4.152350e+02
-2.395220e-01 -2.404280e+03 -4.191740e+02
3.997600e+02 -2.404340e+03 -4.193940e+02
-3.959440e-03 -2.799980e+03 -1.507490e+01
4.000000e+02 -2.800000e+03 -1.541220e+01
1.094920e-03 -2.399990e+03 -1.900930e+01
3.999960e+02 -2.399990e+03 -1.924820e+01
-4.002400e+02 -2.404250e+03 -4.189580e+02
-2.395220e-01 -2.404280e+03 -4.191740e+02
-4.000840e+02 -2.004350e+03 -4.235340e+02
-7.223160e-02 -2.004390e+03 -4.236830e+02
-3.999950e+02 -2.399970e+03 -1.879940e+01
1.094920e-03 -2.399990e+03 -1.900930e+01
-3.999910e+02 -2.000080e+03 -2.320410e+01
-1.026520e-03 -2.000090e+03 -2.336880e+01
-2.395220e-01 -2.404280e+03 -4.191740e+02
3.997600e+02 -2.404340e+03 -4.193940e+02
-7.223160e-02 -2.004390e+03 -4.236830e+02
3.999400e+02 -2.004420e+03 -4.238110e+02
1.094920e-03 -2.399990e+03 -1.900930e+01
3.999960e+02 -2.399990e+03 -1.924820e+01
-1.026520e-03 -2.000090e+03 -2.336880e+01
3.999890e+02 -2.000090e+03 -2.355420e+01
-4.000840e+02 -2.004350e+03 -4.235340e+02
-7.223160e-02 -2.004390e+03 -4.236830e+02
-3.998980e+02 -1.604550e+03 -4.280260e+02
1.034830e-01 -1.604510e+03 -4.280140e+02
-3.999910e+02 -2.000080e+03 -2.320410e+01
-1.026520e-03 -2.000090e+03 -2.336880e+01
-4.000090e+02 -1.600180e+03 -2.785740e+01
3.944280e-03 -1.600170e+03 -2.788850e+01
-7.223160e-02 -2.004390e+03 -4.236830e+02
3.999400e+02 -2.004420e+03 -4.238110e+02
1.034830e-01 -1.604510e+03 -4.280140e+02
4.001060e+02 -1.604480e+03 -4.279880e+02
-1.026520e-03 -2.000090e+03 -2.336880e+01
3.999890e+02 -2.000090e+03 -2.355420e+01
3.944280e-03 -1.600170e+03 -2.788850e+01
4.000160e+02 -1.600160e+03 -2.787650e+01
-3.998980e+02 -1.604550e+03 -4.280260e+02
1.034830e-01 -1.604510e+03 -4.280140e+02
-3.998950e+02 -1.204890e+03 -4.327310e+02
1.057320e-01 -1.204800e+03 -4.325790e+02
-4.000090e+02 -1.600180e+03 -2.785740e+01
3.944280e-03 -1.600170e+03 -2.788850e+01
-4.000040e+02 -1.200200e+03 -3.271560e+01
1.247820e-02 -1.200200e+03 -3.260390e+01
1.034830e-01 -1.604510e+03 -4.280140e+02
4.001060e+02 -1.604480e+03 -4.279880e+02
1.057320e-01 -1.204800e+03 -4.325790e+02
4.001090e+02 -1.204770e+03 -4.324660e+02
3.944280e-03 -1.600170e+03 -2.788850e+01
4.000160e+02 -1.600160e+03 -2.787650e+01
1.247820e-02 -1.200200e+03 -3.260390e+01
4.000300e+02 -1.200190e+03 -3.246270e+01
-3.998950e+02 -1.204890e+03 -4.327310e+02
1.057320e-01 -1.204800e+03 -4.325790e+02
-3.999260e+02 -8.050800e+02 -4.375470e+02
6.601130e-02 -8.050630e+02 -4.374250e+02
-4.000040e+02 -1.200200e+03 -3.271560e+01
1.247820e-02 -1.200200e+03 -3.260390e+01
-4.000200e+02 -8.001880e+02 -3.763470e+01
-2.428680e-02 -8.001930e+02 -3.753830e+01
1.057320e-01 -1.204800e+03 -4.325790e+02
4.001090e+02 -1.204770e+03 -4.324660e+02
6.601130e-02 -8.050630e+02 -4.374250e+02
4.000570e+02 -8.050480e+02 -4.373290e+02
1.247820e-02 -1.200200e+03 -3.260390e+01
4.000300e+02 -1.200190e+03 -3.246270e+01
-2.428680e-02 -8.001930e+02 -3.753830e+01
3.999720e+02 -8.001930e+02 -3.746380e+01
-3.999260e+02 -8.050800e+02 -4.375470e+02
6.601130e-02 -8.050630e+02 -4.374250e+02
-3.998940e+02 -4.051890e+02 -4.423870e+02
6.328260e-02 -4.051500e+02 -4.423130e+02
-4.000200e+02 -8.001880e+02 -3.763470e+01
-2.428680e-02 -8.001930e+02 -3.753830e+01
-3.999920e+02 -4.002070e+02 -4.244150e+01
-1.016950e-02 -4.002050e+02 -4.235830e+01
6.601130e-02 -8.050630e+02 -4.374250e+02
4.000570e+02 -8.050480e+02 -4.373290e+02
6.328260e-02 -4.051500e+02 -4.423130e+02
4.000170e+02 -4.051280e+02 -4.422530e+02
-2.428680e-02 -8.001930e+02 -3.753830e+01
3.999720e+02 -8.001930e+02 -3.746380e+01
-1.016950e-02 -4.002050e+02 -4.235830e+01
3.999710e+02 -4.002070e+02 -4.239100e+01
-3.998940e+02 -4.051890e+02 -4.423870e+02
6.328260e-02 -4.051500e+02 -4.423130e+02
-3.999220e+02 -5.445350e+00 -4.472910e+02
9.569730e-02 -5.351410e+00 -4.472710e+02
-3.999920e+02 -4.002070e+02 -4.244150e+01
-1.016950e-02 -4.002050e+02 -4.235830e+01
-3.999620e+02 -2.475830e-01 -4.739530e+01
1.996870e-03 -2.400790e-01 -4.729630e+01
6.328260e-02 -4.051500e+02 -4.423130e+02
4.000170e+02 -4.051280e+02 -4.422530e+02
[...]
<PointData>
<DataArray type="Float32" Name="V1" format="ascii">
0.000000e+00
0.000000e+00
-1.119480e-02
5.071780e-02
0.000000e+00
0.000000e+00
2.831510e-02
-9.888970e-03
0.000000e+00
0.000000e+00
5.071780e-02
1.133880e-01
0.000000e+00
0.000000e+00
-9.888970e-03
-5.020680e-02
-1.119480e-02
5.071780e-02
2.030020e-03
1.007480e-01
2.831510e-02
-9.888970e-03
3.298920e-02
-3.253880e-02
5.071780e-02
1.133880e-01
1.007480e-01
1.959190e-01
-9.888970e-03
-5.020680e-02
-3.253880e-02
-9.540390e-02
2.030020e-03
1.007480e-01
-3.373350e-02
3.977150e-02
3.298920e-02
-3.253880e-02
6.087420e-02
9.237690e-03
1.007480e-01
1.959190e-01
3.977150e-02
1.059360e-01
-3.253880e-02
-9.540390e-02
9.237690e-03
-4.095130e-02
-3.373350e-02
3.977150e-02
-4.297470e-02
-6.476140e-02
6.087420e-02
9.237690e-03
5.495620e-02
2.641330e-02
3.977150e-02
1.059360e-01
-6.476140e-02
-8.652840e-02
9.237690e-03
-4.095130e-02
2.641330e-02
-2.078100e-03
-4.297470e-02
-6.476140e-02
-8.390580e-02
-1.376740e-01
5.495620e-02
2.641330e-02
-3.580240e-02
-5.609730e-02
-6.476140e-02
-8.652840e-02
-1.376740e-01
-1.886850e-01
2.641330e-02
-2.078100e-03
-5.609730e-02
-7.735110e-02
-8.390580e-02
-1.376740e-01
-7.010760e-02
-2.281630e-02
-3.580240e-02
-5.609730e-02
1.419220e-02
-2.866490e-02
-1.376740e-01
-1.886850e-01
-2.281630e-02
2.808560e-02
-5.609730e-02
-7.735110e-02
-2.866490e-02
-7.401160e-02
-7.010760e-02
-2.281630e-02
4.055610e-02
1.125600e-01
1.419220e-02
-2.866490e-02
2.391240e-02
-3.556740e-02
-2.281630e-02
2.808560e-02
1.125600e-01
1.853620e-01
-2.866490e-02
-7.401160e-02
-3.556740e-02
-9.622150e-02
4.055610e-02
1.125600e-01
9.575900e-02
1.289220e-01
2.391240e-02
-3.556740e-02
9.536480e-03
-4.281470e-02
1.125600e-01
1.853620e-01
1.289220e-01
1.577170e-01
-3.556740e-02
-9.622150e-02
-4.281470e-02
-9.291870e-02
9.575900e-02
1.289220e-01
9.379740e-02
6.064450e-02
9.536480e-03
-4.281470e-02
6.618820e-03
-2.920750e-02
1.289220e-01
1.577170e-01
6.064450e-02
2.819550e-02
-4.281470e-02
-9.291870e-02
-2.920750e-02
-6.364920e-02
9.379740e-02
6.064450e-02
-3.932730e-02
-2.754630e-03
6.618820e-03
-2.920750e-02
2.151260e-02
-9.848330e-03
6.064450e-02
2.819550e-02
-2.754630e-03
3.912290e-02
-2.920750e-02
-6.364920e-02
-9.848330e-03
-4.130900e-02
-3.932730e-02
-2.754630e-03
5.997110e-02
1.201780e-01
2.151260e-02
-9.848330e-03
-2.625220e-03
-4.086300e-02
-2.754630e-03
3.912290e-02
1.201780e-01
1.795380e-01
-9.848330e-03
-4.130900e-02
-4.086300e-02
-7.696060e-02
5.997110e-02
1.201780e-01
7.398650e-02
1.243220e-01
-2.625220e-03
-4.086300e-02
-2.167590e-02
-4.008330e-02
1.201780e-01
1.795380e-01
1.243220e-01
1.726800e-01
-4.086300e-02
-7.696060e-02
-4.008330e-02
-6.098040e-02
7.398650e-02
1.243220e-01
3.590640e-02
9.319400e-02
-2.167590e-02
-4.008330e-02
-2.080370e-02
-2.682060e-02
1.243220e-01
1.726800e-01
9.319400e-02
1.541070e-01
-4.008330e-02
-6.098040e-02
-2.682060e-02
-3.244800e-02
3.590640e-02
9.319400e-02
-4.322070e-02
4.235310e-02
-2.080370e-02
-2.682060e-02
3.097900e-02
1.169350e-04
9.319400e-02
1.541070e-01
4.235310e-02
1.288660e-01
-2.682060e-02
-3.244800e-02
1.169350e-04
-3.000250e-02
-4.322070e-02
4.235310e-02
1.704570e-03
-3.353880e-03
3.097900e-02
1.169350e-04
5.419060e-02
1.350250e-02
4.235310e-02
1.288660e-01
-3.353880e-03
-8.548610e-03
1.169350e-04
-3.000250e-02
1.350250e-02
-2.397650e-02
1.704570e-03
-3.353880e-03
9.775510e-02
2.738170e-02
5.419060e-02
1.350250e-02
7.553740e-03
-3.687830e-02
-3.353880e-03
-8.548610e-03
2.738170e-02
-4.252700e-02
1.350250e-02
-2.397650e-02
-3.687830e-02
-7.736830e-02
9.775510e-02
2.738170e-02
-1.244470e-01
-7.253590e-02
7.553740e-03
-3.687830e-02
1.095620e-01
3.792530e-02
2.738170e-02
-4.252700e-02
-7.253590e-02
-1.723180e-02
-3.687830e-02
-7.736830e-02
3.792530e-02
-3.116760e-02
-1.244470e-01
-7.253590e-02
-1.990050e-01
-1.077080e-01
1.095620e-01
3.792530e-02
7.031740e-02
3.316140e-02
-7.253590e-02
-1.723180e-02
-1.077080e-01
-1.688610e-02
3.792530e-02
-3.116760e-02
3.316140e-02
-3.946550e-03
-1.990050e-01
-1.077080e-01
1.304170e-02
-4.437630e-02
7.031740e-02
3.316140e-02
-1.412670e-02
-3.118510e-03
-1.077080e-01
-1.688610e-02
-4.437630e-02
-1.002950e-01
3.316140e-02
-3.946550e-03
-3.118510e-03
4.685940e-03
1.304170e-02
-4.437630e-02
9.239610e-02
-6.411460e-03
-1.412670e-02
-3.118510e-03
-2.596230e-02
-3.040240e-03
-4.437630e-02
-1.002950e-01
-6.411460e-03
-1.111610e-01
-3.118510e-03
4.685940e-03
-3.040240e-03
1.975520e-02
9.239610e-02
-6.411460e-03
-9.313840e-02
-1.671710e-01
-2.596230e-02
-3.040240e-03
-1.459560e-02
9.478880e-03
-6.411460e-03
-1.111610e-01
-1.671710e-01
-2.426550e-01
-3.040240e-03
1.975520e-02
9.478880e-03
3.177290e-02
-9.313840e-02
-1.671710e-01
-6.306430e-02
-1.654900e-01
-1.459560e-02
9.478880e-03
-2.396550e-02
3.202530e-02
-1.671710e-01
-2.426550e-01
-1.654900e-01
-2.659700e-01
9.478880e-03
3.177290e-02
3.202530e-02
8.715400e-02
-6.306430e-02
-1.654900e-01
5.115610e-02
-2.554210e-03
-2.396550e-02
3.202530e-02
-2.363350e-02
2.486290e-02
-1.654900e-01
-2.659700e-01
-2.554210e-03
-5.806960e-02
3.202530e-02
8.715400e-02
2.486290e-02
7.619060e-02
5.115610e-02
-2.554210e-03
1.369050e-01
1.090940e-01
-2.363350e-02
2.486290e-02
1.793520e-02
4.233480e-02
-2.554210e-03
-5.806960e-02
1.090940e-01
8.478390e-02
2.486290e-02
7.619060e-02
4.233480e-02
6.791880e-02
1.369050e-01
1.090940e-01
-1.916760e-02
-5.093530e-03
1.793520e-02
4.233480e-02
2.341310e-03
2.605030e-03
1.090940e-01
8.478390e-02
-5.093530e-03
1.242390e-02
4.233480e-02
6.791880e-02
2.605030e-03
5.142530e-03
-1.916760e-02
-5.093530e-03
-1.456550e-02
-5.649060e-02
2.341310e-03
2.605030e-03
-3.481890e-02
-2.323850e-02
-5.093530e-03
1.242390e-02
-5.649060e-02
-9.830120e-02
2.605030e-03
5.142530e-03
-2.323850e-02
-1.161740e-02
-1.456550e-02
-5.649060e-02
-1.922550e-02
-8.712620e-02
-3.481890e-02
-2.323850e-02
-1.026420e-02
2.495120e-02
-5.649060e-02
-9.830120e-02
-8.712620e-02
-1.519450e-01
-2.323850e-02
-1.161740e-02
2.495120e-02
5.779690e-02
-1.922550e-02
-8.712620e-02
5.222880e-02
1.171290e-03
-1.026420e-02
2.495120e-02
-3.646540e-02
4.704290e-04
-8.712620e-02
-1.519450e-01
1.171290e-03
-5.066670e-02
2.495120e-02
5.779690e-02
4.704290e-04
3.815210e-02
5.222880e-02
1.171290e-03
6.167180e-02
7.451740e-02
-3.646540e-02
4.704290e-04
-1.393440e-02
2.920700e-02
1.171290e-03
-5.066670e-02
7.451740e-02
8.076520e-02
4.704290e-04
3.815210e-02
2.920700e-02
6.999260e-02
6.167180e-02
7.451740e-02
1.289810e-01
1.102980e-01
-1.393440e-02
2.920700e-02
8.228670e-03
5.324190e-02
7.451740e-02
8.076520e-02
1.102980e-01
9.302960e-02
2.920700e-02
6.999260e-02
5.324190e-02
9.356880e-02
0.000000e+00
0.000000e+00
2.831510e-02
-9.888970e-03
0.000000e+00
0.000000e+00
-3.869820e-02
-1.936250e-02
0.000000e+00
0.000000e+00
-9.888970e-03
-5.020680e-02
0.000000e+00
0.000000e+00
-1.936250e-02
-1.371630e-03
2.831510e-02
-9.888970e-03
3.298920e-02
-3.253880e-02
-3.869820e-02
-1.936250e-02
-8.760030e-02
-4.702150e-02
-9.888970e-03
-5.020680e-02
-3.253880e-02
-9.540390e-02
-1.936250e-02
-1.371630e-03
-4.702150e-02
-8.158160e-03
3.298920e-02
-3.253880e-02
6.087420e-02
9.237690e-03
-8.760030e-02
-4.702150e-02
-8.440450e-02
-5.241690e-02
-3.253880e-02
-9.540390e-02
9.237690e-03
-4.095130e-02
-4.702150e-02
-8.158160e-03
-5.241690e-02
-1.209270e-02
6.087420e-02
9.237690e-03
5.495620e-02
2.641330e-02
-8.440450e-02
-5.241690e-02
-5.533610e-02
1.304790e-02
9.237690e-03
-4.095130e-02
2.641330e-02
-2.078100e-03
-5.241690e-02
-1.209270e-02
1.304790e-02
8.629520e-02
5.495620e-02
2.641330e-02
-3.580240e-02
-5.609730e-02
-5.533610e-02
1.304790e-02
1.462490e-01
2.445370e-01
2.641330e-02
-2.078100e-03
-5.609730e-02
-7.735110e-02
1.304790e-02
8.629520e-02
2.445370e-01
3.303980e-01
-3.580240e-02
-5.609730e-02
1.419220e-02
-2.866490e-02
1.462490e-01
2.445370e-01
4.496120e-02
8.976460e-02
-5.609730e-02
-7.735110e-02
-2.866490e-02
-7.401160e-02
2.445370e-01
3.303980e-01
8.976460e-02
1.291650e-01
1.419220e-02
-2.866490e-02
2.391240e-02
-3.556740e-02
4.496120e-02
8.976460e-02
-9.994010e-02
-5.367790e-02
-2.866490e-02
-7.401160e-02
-3.556740e-02
-9.622150e-02
8.976460e-02
1.291650e-01
-5.367790e-02
-6.131010e-03
2.391240e-02
-3.556740e-02
9.536480e-03
-4.281470e-02
-9.994010e-02
-5.367790e-02
-1.044060e-01
-2.873790e-02
-3.556740e-02
-9.622150e-02
-4.281470e-02
-9.291870e-02
-5.367790e-02
-6.131010e-03
-2.873790e-02
4.818850e-02
9.536480e-03
-4.281470e-02
6.618820e-03
-2.920750e-02
-1.044060e-01
-2.873790e-02
-1.139700e-01
-1.625600e-02
-4.281470e-02
-9.291870e-02
-2.920750e-02
-6.364920e-02
-2.873790e-02
4.818850e-02
-1.625600e-02
8.661060e-02
6.618820e-03
-2.920750e-02
2.151260e-02
-9.848330e-03
-1.139700e-01
-1.625600e-02
1.253360e-02
2.843180e-02
-2.920750e-02
-6.364920e-02
-9.848330e-03
-4.130900e-02
-1.625600e-02
8.661060e-02
2.843180e-02
4.632380e-02
2.151260e-02
-9.848330e-03
-2.625220e-03
-4.086300e-02
1.253360e-02
2.843180e-02
-5.792310e-02
-4.422490e-02
-9.848330e-03
-4.130900e-02
-4.086300e-02
-7.696060e-02
2.843180e-02
4.632380e-02
-4.422490e-02
-3.376020e-02
-2.625220e-03
-4.086300e-02
-2.167590e-02
-4.008330e-02
-5.792310e-02
-4.422490e-02
-4.071880e-02
-4.047880e-02
-4.086300e-02
-7.696060e-02
-4.008330e-02
-6.098040e-02
-4.422490e-02
-3.376020e-02
-4.047880e-02
-4.000000e-02
-2.167590e-02
-4.008330e-02
-2.080370e-02
-2.682060e-02
-4.071880e-02
-4.047880e-02
4.295870e-03
-4.057260e-02
-4.008330e-02
-6.098040e-02
-2.682060e-02
-3.244800e-02
-4.047880e-02
-4.000000e-02
-4.057260e-02
-8.639130e-02
-2.080370e-02
-2.682060e-02
3.097900e-02
1.169350e-04
4.295870e-03
-4.057260e-02
-8.451600e-03
-3.634290e-02
-2.682060e-02
-3.244800e-02
1.169350e-04
-3.000250e-02
-4.057260e-02
-8.639130e-02
-3.634290e-02
-6.479900e-02
3.097900e-02
1.169350e-04
5.419060e-02
1.350250e-02
-8.451600e-03
-3.634290e-02
-1.141470e-01
-3.128090e-02
1.169350e-04
-3.000250e-02
1.350250e-02
-2.397650e-02
-3.634290e-02
-6.479900e-02
-3.128090e-02
5.425230e-02
5.419060e-02
1.350250e-02
7.553740e-03
-3.687830e-02
-1.141470e-01
-3.128090e-02
-9.840010e-02
4.321350e-02
1.350250e-02
-2.397650e-02
-3.687830e-02
-7.736830e-02
-3.128090e-02
5.425230e-02
4.321350e-02
1.898500e-01
7.553740e-03
-3.687830e-02
1.095620e-01
3.792530e-02
-9.840010e-02
4.321350e-02
-9.367750e-02
-9.993900e-04
-3.687830e-02
-7.736830e-02
3.792530e-02
-3.116760e-02
4.321350e-02
1.898500e-01
-9.993900e-04
9.050210e-02
1.095620e-01
3.792530e-02
7.031740e-02
3.316140e-02
-9.367750e-02
-9.993900e-04
6.427170e-02
4.813230e-02
3.792530e-02
-3.116760e-02
3.316140e-02
-3.946550e-03
-9.993900e-04
9.050210e-02
4.813230e-02
3.162220e-02
7.031740e-02
3.316140e-02
-1.412670e-02
-3.118510e-03
6.427170e-02
4.813230e-02
7.924430e-03
3.871860e-02
3.316140e-02
-3.946550e-03
-3.118510e-03
4.685940e-03
4.813230e-02
3.162220e-02
3.871860e-02
6.737070e-02
-1.412670e-02
-3.118510e-03
-2.596230e-02
-3.040240e-03
7.924430e-03
3.871860e-02
-4.235910e-02
2.193900e-02
-3.118510e-03
4.685940e-03
-3.040240e-03
1.975520e-02
3.871860e-02
6.737070e-02
2.193900e-02
8.359540e-02
-2.596230e-02
-3.040240e-03
-1.459560e-02
9.478880e-03
-4.235910e-02
2.193900e-02
1.134090e-01
1.392200e-01
-3.040240e-03
1.975520e-02
9.478880e-03
3.177290e-02
2.193900e-02
8.359540e-02
1.392200e-01
1.640910e-01
-1.459560e-02
9.478880e-03
-2.396550e-02
3.202530e-02
1.134090e-01
1.392200e-01
1.238140e-01
1.138050e-01
9.478880e-03
3.177290e-02
3.202530e-02
8.715400e-02
1.392200e-01
1.640910e-01
1.138050e-01
1.081410e-01
-2.396550e-02
3.202530e-02
-2.363350e-02
2.486290e-02
1.238140e-01
1.138050e-01
-2.242060e-02
-6.809500e-02
3.202530e-02
8.715400e-02
2.486290e-02
7.619060e-02
1.138050e-01
1.081410e-01
-6.809500e-02
-1.103660e-01
-2.363350e-02
2.486290e-02
1.793520e-02
4.233480e-02
-2.242060e-02
-6.809500e-02
-1.633690e-01
-1.850760e-01
2.486290e-02
7.619060e-02
4.233480e-02
6.791880e-02
-6.809500e-02
-1.103660e-01
-1.850760e-01
-2.039400e-01
1.793520e-02
4.233480e-02
2.341310e-03
2.605030e-03
-1.633690e-01
-1.850760e-01
2.364560e-02
2.159090e-03
4.233480e-02
6.791880e-02
2.605030e-03
5.142530e-03
-1.850760e-01
-2.039400e-01
2.159090e-03
-1.815170e-02
2.341310e-03
2.605030e-03
-3.481890e-02
-2.323850e-02
2.364560e-02
2.159090e-03
7.863560e-02
1.021800e-01
2.605030e-03
5.142530e-03
-2.323850e-02
-1.161740e-02
2.159090e-03
-1.815170e-02
1.021800e-01
1.248410e-01
-3.481890e-02
-2.323850e-02
-1.026420e-02
2.495120e-02
7.863560e-02
1.021800e-01
3.677020e-02
3.524230e-02
-2.323850e-02
-1.161740e-02
2.495120e-02
5.779690e-02
1.021800e-01
1.248410e-01
3.524230e-02
2.542520e-02
-1.026420e-02
2.495120e-02
-3.646540e-02
4.704290e-04
3.677020e-02
3.524230e-02
2.766220e-02
3.343040e-03
2.495120e-02
5.779690e-02
4.704290e-04
3.815210e-02
3.524230e-02
2.542520e-02
3.343040e-03
-2.702770e-02
-3.646540e-02
4.704290e-04
-1.393440e-02
2.920700e-02
2.766220e-02
3.343040e-03
-5.134140e-02
-1.391020e-01
4.704290e-04
3.815210e-02
2.920700e-02
6.999260e-02
3.343040e-03
-2.702770e-02
-1.391020e-01
-2.231350e-01
-1.393440e-02
2.920700e-02
8.228670e-03
5.324190e-02
-5.134140e-02
-1.391020e-01
-1.313980e-01
-2.006880e-01
2.920700e-02
6.999260e-02
5.324190e-02
9.356880e-02
-1.391020e-01
-2.231350e-01
-2.006880e-01
-2.694890e-01
</DataArray>
<DataArray type="Float32" Name="V2" format="ascii">
0.000000e+00
0.000000e+00
-6.088670e-02
1.590370e-02
0.000000e+00
0.000000e+00
6.034030e-02
3.460720e-02
0.000000e+00
0.000000e+00
1.590370e-02
9.002430e-04
0.000000e+00
0.000000e+00
3.460720e-02
2.113320e-02
-6.088670e-02
1.590370e-02
-1.067450e-01
-5.698700e-02
6.034030e-02
3.460720e-02
3.655540e-02
4.216970e-02
1.590370e-02
9.002430e-04
-5.698700e-02
-1.362490e-01
3.460720e-02
2.113320e-02
4.216970e-02
7.282920e-02
-1.067450e-01
-5.698700e-02
4.274540e-03
7.121170e-04
3.655540e-02
4.216970e-02
-9.156980e-03
-2.048750e-03
-5.698700e-02
-1.362490e-01
7.121170e-04
-2.825890e-02
4.216970e-02
7.282920e-02
-2.048750e-03
2.223850e-02
4.274540e-03
7.121170e-04
-1.344730e-03
-9.836980e-03
-9.156980e-03
-2.048750e-03
2.722130e-02
-3.519360e-04
7.121170e-04
-2.825890e-02
-9.836980e-03
-3.638210e-02
-2.048750e-03
2.223850e-02
-3.519360e-04
1.648380e-02
-1.344730e-03
-9.836980e-03
-3.230440e-02
-8.505630e-02
2.722130e-02
-3.519360e-04
-6.757590e-02
-5.402910e-02
-9.836980e-03
-3.638210e-02
-8.505630e-02
-2.043070e-01
-3.519360e-04
1.648380e-02
-5.402910e-02
-2.690510e-02
-3.230440e-02
-8.505630e-02
8.677490e-02
1.810710e-02
-6.757590e-02
-5.402910e-02
-2.899000e-02
-3.208240e-02
-8.505630e-02
-2.043070e-01
1.810710e-02
-1.701200e-02
-5.402910e-02
-2.690510e-02
-3.208240e-02
-3.572640e-02
8.677490e-02
1.810710e-02
-1.468110e-01
-9.229430e-02
-2.899000e-02
-3.208240e-02
1.434800e-01
9.546090e-02
1.810710e-02
-1.701200e-02
-9.229430e-02
6.243000e-03
-3.208240e-02
-3.572640e-02
9.546090e-02
5.778280e-02
-1.468110e-01
-9.229430e-02
-1.319190e-01
-6.709330e-02
1.434800e-01
9.546090e-02
8.774280e-02
6.995860e-02
-9.229430e-02
6.243000e-03
-6.709330e-02
2.434000e-02
9.546090e-02
5.778280e-02
6.995860e-02
5.035300e-02
-1.319190e-01
-6.709330e-02
9.494190e-02
8.387420e-02
8.774280e-02
6.995860e-02
-1.252370e-01
-1.055160e-01
-6.709330e-02
2.434000e-02
8.387420e-02
1.048920e-01
6.995860e-02
5.035300e-02
-1.055160e-01
-1.200410e-01
9.494190e-02
8.387420e-02
1.131340e-01
1.516160e-01
-1.252370e-01
-1.055160e-01
-3.951710e-02
-6.499810e-02
8.387420e-02
1.048920e-01
1.516160e-01
1.775600e-01
-1.055160e-01
-1.200410e-01
-6.499810e-02
-9.105180e-02
1.131340e-01
1.516160e-01
8.327010e-02
1.062510e-01
-3.951710e-02
-6.499810e-02
7.706130e-02
6.200760e-02
1.516160e-01
1.775600e-01
1.062510e-01
1.367180e-01
-6.499810e-02
-9.105180e-02
6.200760e-02
7.070620e-02
8.327010e-02
1.062510e-01
1.320560e-01
7.270860e-02
7.706130e-02
6.200760e-02
9.761370e-03
6.984870e-02
1.062510e-01
1.367180e-01
7.270860e-02
4.100420e-02
6.200760e-02
7.070620e-02
6.984870e-02
9.087820e-02
1.320560e-01
7.270860e-02
5.390230e-02
-2.532630e-02
9.761370e-03
6.984870e-02
7.542340e-03
4.084020e-02
7.270860e-02
4.100420e-02
-2.532630e-02
-9.365180e-02
6.984870e-02
9.087820e-02
4.084020e-02
6.333050e-02
5.390230e-02
-2.532630e-02
-6.595380e-02
-7.218030e-02
7.542340e-03
4.084020e-02
5.293430e-02
5.763580e-02
-2.532630e-02
-9.365180e-02
-7.218030e-02
-2.014660e-02
4.084020e-02
6.333050e-02
5.763580e-02
9.170370e-02
-6.595380e-02
-7.218030e-02
5.398460e-02
6.856190e-02
5.293430e-02
5.763580e-02
-6.029150e-02
-4.902530e-02
-7.218030e-02
-2.014660e-02
6.856190e-02
2.108290e-01
5.763580e-02
9.170370e-02
-4.902530e-02
-9.056360e-02
5.398460e-02
6.856190e-02
1.922300e-03
1.195960e-01
-6.029150e-02
-4.902530e-02
-1.144940e-01
-1.242510e-01
6.856190e-02
2.108290e-01
1.195960e-01
1.135540e-01
-4.902530e-02
-9.056360e-02
-1.242510e-01
-1.415250e-01
1.922300e-03
1.195960e-01
-3.713600e-01
-1.738630e-01
-1.144940e-01
-1.242510e-01
8.328340e-02
8.991980e-02
1.195960e-01
1.135540e-01
-1.738630e-01
-1.586750e-01
-1.242510e-01
-1.415250e-01
8.991980e-02
1.376130e-01
-3.713600e-01
-1.738630e-01
-3.746600e-01
-2.611670e-01
8.328340e-02
8.991980e-02
1.719260e-01
1.817710e-01
-1.738630e-01
-1.586750e-01
-2.611670e-01
-3.643220e-02
8.991980e-02
1.376130e-01
1.817710e-01
1.682970e-01
-3.746600e-01
-2.611670e-01
-3.332610e-02
-4.692990e-02
1.719260e-01
1.817710e-01
3.872400e-02
3.138470e-02
-2.611670e-01
-3.643220e-02
-4.692990e-02
6.728710e-02
1.817710e-01
1.682970e-01
3.138470e-02
1.122380e-02
-3.332610e-02
-4.692990e-02
1.662950e-01
1.407650e-01
3.872400e-02
3.138470e-02
-8.173460e-02
-8.268780e-02
-4.692990e-02
6.728710e-02
1.407650e-01
9.600490e-02
3.138470e-02
1.122380e-02
-8.268780e-02
-6.892350e-02
1.662950e-01
1.407650e-01
1.819050e-01
2.066630e-01
-8.173460e-02
-8.268780e-02
-1.048050e-01
-1.080030e-01
1.407650e-01
9.600490e-02
2.066630e-01
2.284340e-01
-8.268780e-02
-6.892350e-02
-1.080030e-01
-1.215190e-01
1.819050e-01
2.066630e-01
1.432500e-01
4.172160e-02
-1.048050e-01
-1.080030e-01
-4.841890e-02
-5.999710e-02
2.066630e-01
2.284340e-01
4.172160e-02
-5.131400e-02
-1.080030e-01
-1.215190e-01
-5.999710e-02
-6.117560e-02
1.432500e-01
4.172160e-02
-2.009890e-02
-1.300130e-01
-4.841890e-02
-5.999710e-02
4.048600e-02
1.074180e-02
4.172160e-02
-5.131400e-02
-1.300130e-01
-2.316720e-01
-5.999710e-02
-6.117560e-02
1.074180e-02
4.000950e-02
-2.009890e-02
-1.300130e-01
-2.260690e-01
-7.087600e-02
4.048600e-02
1.074180e-02
1.154910e-01
7.551880e-02
-1.300130e-01
-2.316720e-01
-7.087600e-02
5.448790e-02
1.074180e-02
4.000950e-02
7.551880e-02
5.775410e-02
-2.260690e-01
-7.087600e-02
-1.117490e-01
3.607210e-02
1.154910e-01
7.551880e-02
2.124730e-03
-4.325380e-03
-7.087600e-02
5.448790e-02
3.607210e-02
1.428280e-01
7.551880e-02
5.775410e-02
-4.325380e-03
-2.382710e-02
-1.117490e-01
3.607210e-02
5.333480e-02
6.822910e-02
2.124730e-03
-4.325380e-03
-7.107730e-02
-4.341390e-02
3.607210e-02
1.428280e-01
6.822910e-02
1.346780e-01
-4.325380e-03
-2.382710e-02
-4.341390e-02
-4.998180e-02
5.333480e-02
6.822910e-02
-3.452370e-02
6.255440e-03
-7.107730e-02
-4.341390e-02
8.782620e-03
3.213250e-02
6.822910e-02
1.346780e-01
6.255440e-03
8.591890e-03
-4.341390e-02
-4.998180e-02
3.213250e-02
5.882610e-02
-3.452370e-02
6.255440e-03
-9.714400e-02
-4.811670e-02
8.782620e-03
3.213250e-02
4.505670e-02
6.575370e-02
6.255440e-03
8.591890e-03
-4.811670e-02
-5.016740e-02
3.213250e-02
5.882610e-02
6.575370e-02
7.305470e-02
-9.714400e-02
-4.811670e-02
1.062890e-02
2.186330e-02
4.505670e-02
6.575370e-02
-6.545250e-02
-5.939310e-02
-4.811670e-02
-5.016740e-02
2.186330e-02
3.369590e-02
6.575370e-02
7.305470e-02
-5.939310e-02
-5.896240e-02
1.062890e-02
2.186330e-02
1.563710e-01
9.867700e-02
-6.545250e-02
-5.939310e-02
-1.166140e-01
-1.179990e-01
2.186330e-02
3.369590e-02
9.867700e-02
4.775190e-02
-5.939310e-02
-5.896240e-02
-1.179990e-01
-1.063070e-01
0.000000e+00
0.000000e+00
6.034030e-02
3.460720e-02
0.000000e+00
0.000000e+00
-6.291660e-02
-8.993140e-02
0.000000e+00
0.000000e+00
3.460720e-02
2.113320e-02
0.000000e+00
0.000000e+00
-8.993140e-02
-7.967350e-02
6.034030e-02
3.460720e-02
3.655540e-02
4.216970e-02
-6.291660e-02
-8.993140e-02
2.373810e-02
-2.096610e-02
3.460720e-02
2.113320e-02
4.216970e-02
7.282920e-02
-8.993140e-02
-7.967350e-02
-2.096610e-02
-5.828590e-03
3.655540e-02