<?xml version="1.0"?>
<VTKFile type="UnstructuredGrid" version="0.1" byte_order="LittleEndian" compressor="vtkZLibDataCompressor">
<UnstructuredGrid>
<Piece NumberOfPoints="960" NumberOfCells="120">
<Points>
<DataArray type="Float32" NumberOfComponents="3" format="ascii">
-4.000000e+02 -6.000000e+03 -4.000000e+02
0.000000e+00 -6.000000e+03 -4.000000e+02
-3.998110e+02 -5.600300e+03 -4.002910e+02
2.047760e-01 -5.600310e+03 -4.001260e+02
-4.000000e+02 -6.000000e+03 0.000000e+00
0.000000e+00 -6.000000e+03 0.000000e+00
-4.000000e+02 -5.599960e+03 -3.223270e-01
-1.478470e-02 -5.599960e+03 -1.410630e-01
0.000000e+00 -6.000000e+03 -4.000000e+02
4.000000e+02 -6.000000e+03 -4.000000e+02
2.047760e-01 -5.600310e+03 -4.001260e+02
4.002210e+02 -5.600280e+03 -3.998530e+02
0.000000e+00 -6.000000e+03 0.000000e+00
4.000000e+02 -6.000000e+03 0.000000e+00
-1.478470e-02 -5.599960e+03 -1.410630e-01
3.999690e+02 -5.599980e+03 4.275710e-02
-3.998110e+02 -5.600300e+03 -4.002910e+02
2.047760e-01 -5.600310e+03 -4.001260e+02
-3.997620e+02 -5.200640e+03 -4.009760e+02
2.651880e-01 -5.200640e+03 -4.007080e+02
-4.000000e+02 -5.599960e+03 -3.223270e-01
-1.478470e-02 -5.599960e+03 -1.410630e-01
-4.000020e+02 -5.199950e+03 -8.536740e-01
-1.715310e-02 -5.199950e+03 -5.896070e-01
2.047760e-01 -5.600310e+03 -4.001260e+02
4.002210e+02 -5.600280e+03 -3.998530e+02
2.651880e-01 -5.200640e+03 -4.007080e+02
4.002920e+02 -5.200650e+03 -4.003240e+02
-1.478470e-02 -5.599960e+03 -1.410630e-01
3.999690e+02 -5.599980e+03 4.275710e-02
-1.715310e-02 -5.199950e+03 -5.896070e-01
3.999680e+02 -5.199940e+03 -3.018660e-01
-3.997620e+02 -5.200640e+03 -4.009760e+02
2.651880e-01 -5.200640e+03 -4.007080e+02
-3.997910e+02 -4.800740e+03 -4.018150e+02
2.527560e-01 -4.800790e+03 -4.015690e+02
-4.000020e+02 -5.199950e+03 -8.536740e-01
-1.715310e-02 -5.199950e+03 -5.896070e-01
-3.999820e+02 -4.800000e+03 -1.644470e+00
6.390880e-03 -4.799990e+03 -1.378840e+00
2.651880e-01 -5.200640e+03 -4.007080e+02
4.002920e+02 -5.200650e+03 -4.003240e+02
2.527560e-01 -4.800790e+03 -4.015690e+02
4.002960e+02 -4.800850e+03 -4.012440e+02
-1.715310e-02 -5.199950e+03 -5.896070e-01
3.999680e+02 -5.199940e+03 -3.018660e-01
6.390880e-03 -4.799990e+03 -1.378840e+00
3.999950e+02 -4.799990e+03 -1.066120e+00
-3.997910e+02 -4.800740e+03 -4.018150e+02
2.527560e-01 -4.800790e+03 -4.015690e+02
-3.997790e+02 -4.400850e+03 -4.022800e+02
2.227010e-01 -4.400930e+03 -4.020310e+02
-3.999820e+02 -4.800000e+03 -1.644470e+00
6.390880e-03 -4.799990e+03 -1.378840e+00
-4.000070e+02 -4.400050e+03 -2.210750e+00
-9.616100e-05 -4.400050e+03 -1.979570e+00
2.527560e-01 -4.800790e+03 -4.015690e+02
4.002960e+02 -4.800850e+03 -4.012440e+02
2.227010e-01 -4.400930e+03 -4.020310e+02
4.002250e+02 -4.401000e+03 -4.018210e+02
6.390880e-03 -4.799990e+03 -1.378840e+00
3.999950e+02 -4.799990e+03 -1.066120e+00
-9.616100e-05 -4.400050e+03 -1.979570e+00
4.000070e+02 -4.400050e+03 -1.769440e+00
-3.997790e+02 -4.400850e+03 -4.022800e+02
2.227010e-01 -4.400930e+03 -4.020310e+02
-3.998780e+02 -4.001120e+03 -4.029770e+02
1.153230e-01 -4.001240e+03 -4.028260e+02
-4.000070e+02 -4.400050e+03 -2.210750e+00
-9.616100e-05 -4.400050e+03 -1.979570e+00
-4.000390e+02 -4.000040e+03 -3.000000e+00
-1.764290e-02 -4.000030e+03 -2.931740e+00
2.227010e-01 -4.400930e+03 -4.020310e+02
4.002250e+02 -4.401000e+03 -4.018210e+02
1.153230e-01 -4.001240e+03 -4.028260e+02
4.001100e+02 -4.001340e+03 -4.027490e+02
-9.616100e-05 -4.400050e+03 -1.979570e+00
4.000070e+02 -4.400050e+03 -1.769440e+00
-1.764290e-02 -4.000030e+03 -2.931740e+00
4.000040e+02 -4.000020e+03 -2.856670e+00
-3.998780e+02 -4.001120e+03 -4.029770e+02
1.153230e-01 -4.001240e+03 -4.028260e+02
-3.999560e+02 -3.601400e+03 -4.042320e+02
3.755570e-02 -3.601490e+03 -4.042570e+02
-4.000390e+02 -4.000040e+03 -3.000000e+00
-1.764290e-02 -4.000030e+03 -2.931740e+00
-4.000290e+02 -3.600000e+03 -4.244120e+00
-7.079140e-03 -3.599990e+03 -4.316680e+00
1.153230e-01 -4.001240e+03 -4.028260e+02
4.001100e+02 -4.001340e+03 -4.027490e+02
3.755570e-02 -3.601490e+03 -4.042570e+02
4.000300e+02 -3.601530e+03 -4.043320e+02
-1.764290e-02 -4.000030e+03 -2.931740e+00
4.000040e+02 -4.000020e+03 -2.856670e+00
-7.079140e-03 -3.599990e+03 -4.316680e+00
4.000150e+02 -3.599990e+03 -4.362440e+00
-3.999560e+02 -3.601400e+03 -4.042320e+02
3.755570e-02 -3.601490e+03 -4.042570e+02
-3.999860e+02 -3.201630e+03 -4.058670e+02
7.479130e-03 -3.201620e+03 -4.059680e+02
-4.000290e+02 -3.600000e+03 -4.244120e+00
-7.079140e-03 -3.599990e+03 -4.316680e+00
-4.000030e+02 -3.199970e+03 -5.859280e+00
1.222920e-02 -3.199970e+03 -5.966180e+00
3.755570e-02 -3.601490e+03 -4.042570e+02
4.000300e+02 -3.601530e+03 -4.043320e+02
7.479130e-03 -3.201620e+03 -4.059680e+02
4.000000e+02 -3.201580e+03 -4.060590e+02
-7.079140e-03 -3.599990e+03 -4.316680e+00
4.000150e+02 -3.599990e+03 -4.362440e+00
1.222920e-02 -3.199970e+03 -5.966180e+00
4.000270e+02 -3.199980e+03 -6.001890e+00
-3.999860e+02 -3.201630e+03 -4.058670e+02
7.479130e-03 -3.201620e+03 -4.059680e+02
-4.000840e+02 -2.801830e+03 -4.076210e+02
-9.219510e-02 -2.801770e+03 -4.077620e+02
-4.000030e+02 -3.199970e+03 -5.859280e+00
1.222920e-02 -3.199970e+03 -5.966180e+00
-4.000040e+02 -2.799960e+03 -7.496370e+00
2.603180e-03 -2.799970e+03 -7.627820e+00
7.479130e-03 -3.201620e+03 -4.059680e+02
4.000000e+02 -3.201580e+03 -4.060590e+02
-9.219510e-02 -2.801770e+03 -4.077620e+02
3.999000e+02 -2.801750e+03 -4.078840e+02
1.222920e-02 -3.199970e+03 -5.966180e+00
4.000270e+02 -3.199980e+03 -6.001890e+00
2.603180e-03 -2.799970e+03 -7.627820e+00
4.000090e+02 -2.799980e+03 -7.714000e+00
-4.000840e+02 -2.801830e+03 -4.076210e+02
-9.219510e-02 -2.801770e+03 -4.077620e+02
-4.002280e+02 -2.401960e+03 -4.094760e+02
-2.025100e-01 -2.401930e+03 -4.097130e+02
-4.000040e+02 -2.799960e+03 -7.496370e+00
2.603180e-03 -2.799970e+03 -7.627820e+00
-3.999980e+02 -2.400000e+03 -9.238210e+00
2.059400e-03 -2.400020e+03 -9.456970e+00
-9.219510e-02 -2.801770e+03 -4.077620e+02
3.999000e+02 -2.801750e+03 -4.078840e+02
-2.025100e-01 -2.401930e+03 -4.097130e+02
3.998230e+02 -2.401930e+03 -4.099350e+02
2.603180e-03 -2.799970e+03 -7.627820e+00
4.000090e+02 -2.799980e+03 -7.714000e+00
2.059400e-03 -2.400020e+03 -9.456970e+00
4.000030e+02 -2.400040e+03 -9.651410e+00
-4.002280e+02 -2.401960e+03 -4.094760e+02
-2.025100e-01 -2.401930e+03 -4.097130e+02
-4.001700e+02 -2.001950e+03 -4.115680e+02
-1.687820e-01 -2.001940e+03 -4.117230e+02
-3.999980e+02 -2.400000e+03 -9.238210e+00
2.059400e-03 -2.400020e+03 -9.456970e+00
-4.000190e+02 -2.000100e+03 -1.136830e+01
-1.136600e-02 -2.000100e+03 -1.155070e+01
-2.025100e-01 -2.401930e+03 -4.097130e+02
3.998230e+02 -2.401930e+03 -4.099350e+02
-1.687820e-01 -2.001940e+03 -4.117230e+02
3.998330e+02 -2.001900e+03 -4.119090e+02
2.059400e-03 -2.400020e+03 -9.456970e+00
4.000030e+02 -2.400040e+03 -9.651410e+00
-1.136600e-02 -2.000100e+03 -1.155070e+01
3.999960e+02 -2.000110e+03 -1.173720e+01
-4.001700e+02 -2.001950e+03 -4.115680e+02
-1.687820e-01 -2.001940e+03 -4.117230e+02
-4.000670e+02 -1.601980e+03 -4.134500e+02
-1.243040e-01 -1.601960e+03 -4.134640e+02
-4.000190e+02 -2.000100e+03 -1.136830e+01
-1.136600e-02 -2.000100e+03 -1.155070e+01
-4.000140e+02 -1.600060e+03 -1.352150e+01
-4.956380e-04 -1.600060e+03 -1.356270e+01
-1.687820e-01 -2.001940e+03 -4.117230e+02
3.998330e+02 -2.001900e+03 -4.119090e+02
-1.243040e-01 -1.601960e+03 -4.134640e+02
3.998190e+02 -1.601930e+03 -4.135950e+02
-1.136600e-02 -2.000100e+03 -1.155070e+01
3.999960e+02 -2.000110e+03 -1.173720e+01
-4.956380e-04 -1.600060e+03 -1.356270e+01
4.000140e+02 -1.600050e+03 -1.366080e+01
-4.000670e+02 -1.601980e+03 -4.134500e+02
-1.243040e-01 -1.601960e+03 -4.134640e+02
-4.000630e+02 -1.202030e+03 -4.155450e+02
-1.162350e-01 -1.202030e+03 -4.155210e+02
-4.000140e+02 -1.600060e+03 -1.352150e+01
-4.956380e-04 -1.600060e+03 -1.356270e+01
-4.000130e+02 -1.199980e+03 -1.550580e+01
5.963630e-03 -1.199960e+03 -1.552610e+01
-1.243040e-01 -1.601960e+03 -4.134640e+02
3.998190e+02 -1.601930e+03 -4.135950e+02
-1.162350e-01 -1.202030e+03 -4.155210e+02
3.998300e+02 -1.202040e+03 -4.156320e+02
-4.956380e-04 -1.600060e+03 -1.356270e+01
4.000140e+02 -1.600050e+03 -1.366080e+01
5.963630e-03 -1.199960e+03 -1.552610e+01
4.000250e+02 -1.199940e+03 -1.558870e+01
-4.000630e+02 -1.202030e+03 -4.155450e+02
-1.162350e-01 -1.202030e+03 -4.155210e+02
-4.000890e+02 -8.019750e+02 -4.175850e+02
-1.415460e-01 -8.019910e+02 -4.176740e+02
-4.000130e+02 -1.199980e+03 -1.550580e+01
5.963630e-03 -1.199960e+03 -1.552610e+01
-4.000020e+02 -7.999860e+02 -1.742850e+01
2.076500e-02 -7.999690e+02 -1.750850e+01
-1.162350e-01 -1.202030e+03 -4.155210e+02
3.998300e+02 -1.202040e+03 -4.156320e+02
-1.415460e-01 -8.019910e+02 -4.176740e+02
3.998070e+02 -8.020310e+02 -4.178940e+02
5.963630e-03 -1.199960e+03 -1.552610e+01
4.000250e+02 -1.199940e+03 -1.558870e+01
2.076500e-02 -7.999690e+02 -1.750850e+01
4.000440e+02 -7.999540e+02 -1.762560e+01
-4.000890e+02 -8.019750e+02 -4.175850e+02
-1.415460e-01 -8.019910e+02 -4.176740e+02
-4.000350e+02 -4.018330e+02 -4.196950e+02
-6.970890e-02 -4.018160e+02 -4.197720e+02
-4.000020e+02 -7.999860e+02 -1.742850e+01
2.076500e-02 -7.999690e+02 -1.750850e+01
-3.999920e+02 -4.000390e+02 -1.943980e+01
3.076570e-02 -4.000330e+02 -1.949010e+01
-1.415460e-01 -8.019910e+02 -4.176740e+02
3.998070e+02 -8.020310e+02 -4.178940e+02
-6.970890e-02 -4.018160e+02 -4.197720e+02
3.998960e+02 -4.018370e+02 -4.199830e+02
2.076500e-02 -7.999690e+02 -1.750850e+01
4.000440e+02 -7.999540e+02 -1.762560e+01
3.076570e-02 -4.000330e+02 -1.949010e+01
4.000540e+02 -4.000300e+02 -1.956490e+01
-4.000350e+02 -4.018330e+02 -4.196950e+02
-6.970890e-02 -4.018160e+02 -4.197720e+02
-4.000310e+02 -1.762920e+00 -4.213720e+02
-3.272170e-02 -1.776470e+00 -4.214400e+02
-3.999920e+02 -4.000390e+02 -1.943980e+01
3.076570e-02 -4.000330e+02 -1.949010e+01
-3.999800e+02 -8.438060e-02 -2.126870e+01
3.977860e-02 -9.117940e-02 -2.128530e+01
-6.970890e-02 -4.018160e+02 -4.197720e+02
3.998960e+02 -4.018370e+02 -4.199830e+02
[...]
<PointData>
<DataArray type="Float32" Name="V1" format="ascii">
0.000000e+00
0.000000e+00
8.602820e-02
5.692230e-02
0.000000e+00
0.000000e+00
1.126320e-02
4.876700e-03
0.000000e+00
0.000000e+00
5.692230e-02
3.269900e-02
0.000000e+00
0.000000e+00
4.876700e-03
-9.913870e-04
8.602820e-02
5.692230e-02
1.823350e-02
-8.985490e-03
1.126320e-02
4.876700e-03
-9.758010e-03
-5.110610e-03
5.692230e-02
3.269900e-02
-8.985490e-03
-3.079650e-02
4.876700e-03
-9.913870e-04
-5.110610e-03
1.426710e-03
1.823350e-02
-8.985490e-03
-8.703360e-02
-8.015470e-02
-9.758010e-03
-5.110610e-03
-5.559120e-02
-2.069300e-02
-8.985490e-03
-3.079650e-02
-8.015470e-02
-7.276830e-02
-5.110610e-03
1.426710e-03
-2.069300e-02
1.365080e-02
-8.703360e-02
-8.015470e-02
9.901740e-03
-6.812460e-03
-5.559120e-02
-2.069300e-02
-9.693660e-02
-6.004090e-02
-8.015470e-02
-7.276830e-02
-6.812460e-03
-2.351480e-02
-2.069300e-02
1.365080e-02
-6.004090e-02
-2.244050e-02
9.901740e-03
-6.812460e-03
9.177990e-02
5.272540e-02
-9.693660e-02
-6.004090e-02
-1.281390e-02
5.092500e-03
-6.812460e-03
-2.351480e-02
5.272540e-02
1.510220e-02
-6.004090e-02
-2.244050e-02
5.092500e-03
2.415670e-02
9.177990e-02
5.272540e-02
7.421950e-02
-4.801630e-03
-1.281390e-02
5.092500e-03
-5.352730e-03
2.613710e-02
5.272540e-02
1.510220e-02
-4.801630e-03
-8.421560e-02
5.092500e-03
2.415670e-02
2.613710e-02
5.791310e-02
7.421950e-02
-4.801630e-03
7.999990e-02
5.244150e-03
-5.352730e-03
2.613710e-02
-4.846520e-02
-1.162790e-02
-4.801630e-03
-8.421560e-02
5.244150e-03
-7.097170e-02
2.613710e-02
5.791310e-02
-1.162790e-02
2.573570e-02
7.999990e-02
5.244150e-03
7.117930e-02
3.733840e-03
-4.846520e-02
-1.162790e-02
-2.805710e-02
-1.088020e-02
5.244150e-03
-7.097170e-02
3.733840e-03
-6.518080e-02
-1.162790e-02
2.573570e-02
-1.088020e-02
6.382060e-03
7.117930e-02
3.733840e-03
5.620530e-02
3.966330e-02
-2.805710e-02
-1.088020e-02
-1.957150e-02
-2.813330e-03
3.733840e-03
-6.518080e-02
3.966330e-02
2.411360e-02
-1.088020e-02
6.382060e-03
-2.813330e-03
1.346850e-02
5.620530e-02
3.966330e-02
6.633670e-02
7.473110e-02
-1.957150e-02
-2.813330e-03
-6.047990e-02
-1.840880e-02
3.966330e-02
2.411360e-02
7.473110e-02
8.286330e-02
-2.813330e-03
1.346850e-02
-1.840880e-02
2.200330e-02
6.633670e-02
7.473110e-02
8.705460e-02
4.069690e-02
-6.047990e-02
-1.840880e-02
-6.577660e-02
-2.046430e-02
7.473110e-02
8.286330e-02
4.069690e-02
-7.217850e-03
-1.840880e-02
2.200330e-02
-2.046430e-02
2.372080e-02
8.705460e-02
4.069690e-02
1.460700e-01
4.112400e-02
-6.577660e-02
-2.046430e-02
-1.636630e-02
4.669420e-03
4.069690e-02
-7.217850e-03
4.112400e-02
-6.461200e-02
-2.046430e-02
2.372080e-02
4.669420e-03
2.602260e-02
1.460700e-01
4.112400e-02
1.051560e-01
6.427130e-02
-1.636630e-02
4.669420e-03
-2.817530e-02
-2.541550e-02
4.112400e-02
-6.461200e-02
6.427130e-02
2.582170e-02
4.669420e-03
2.602260e-02
-2.541550e-02
-2.132950e-02
1.051560e-01
6.427130e-02
1.140810e-02
2.058610e-02
-2.817530e-02
-2.541550e-02
-1.752850e-02
-2.068820e-02
6.427130e-02
2.582170e-02
2.058610e-02
2.809650e-02
-2.541550e-02
-2.132950e-02
-2.068820e-02
-2.268250e-02
1.140810e-02
2.058610e-02
-5.312340e-02
-3.443290e-02
-1.752850e-02
-2.068820e-02
-4.625600e-03
8.160950e-03
2.058610e-02
2.809650e-02
-3.443290e-02
-1.497800e-02
-2.068820e-02
-2.268250e-02
8.160950e-03
2.230850e-02
-5.312340e-02
-3.443290e-02
-1.711410e-02
-3.881250e-02
-4.625600e-03
8.160950e-03
-6.862700e-02
-2.204460e-02
-3.443290e-02
-1.497800e-02
-3.881250e-02
-5.451230e-02
8.160950e-03
2.230850e-02
-2.204460e-02
2.417310e-02
-1.711410e-02
-3.881250e-02
-5.569640e-02
-8.212910e-02
-6.862700e-02
-2.204460e-02
1.270890e-02
4.014650e-02
-3.881250e-02
-5.451230e-02
-8.212910e-02
-1.075060e-01
-2.204460e-02
2.417310e-02
4.014650e-02
6.692250e-02
-5.569640e-02
-8.212910e-02
6.798670e-02
-4.509750e-03
1.270890e-02
4.014650e-02
1.352340e-02
2.896180e-02
-8.212910e-02
-1.075060e-01
-4.509750e-03
-7.873950e-02
4.014650e-02
6.692250e-02
2.896180e-02
4.365760e-02
6.798670e-02
-4.509750e-03
1.142270e-04
-6.604830e-02
1.352340e-02
2.896180e-02
1.656240e-03
2.707690e-02
-4.509750e-03
-7.873950e-02
-6.604830e-02
-1.345780e-01
2.896180e-02
4.365760e-02
2.707690e-02
4.982490e-02
1.142270e-04
-6.604830e-02
-8.249460e-02
-7.898450e-02
1.656240e-03
2.707690e-02
3.768190e-03
2.715550e-02
-6.604830e-02
-1.345780e-01
-7.898450e-02
-7.888250e-02
2.707690e-02
4.982490e-02
2.715550e-02
4.837150e-02
-8.249460e-02
-7.898450e-02
8.095930e-03
4.362220e-02
3.768190e-03
2.715550e-02
1.829330e-02
4.556470e-02
-7.898450e-02
-7.888250e-02
4.362220e-02
7.920860e-02
2.715550e-02
4.837150e-02
4.556470e-02
7.055300e-02
8.095930e-03
4.362220e-02
2.069200e-02
6.833080e-02
1.829330e-02
4.556470e-02
6.346350e-03
-4.122400e-03
4.362220e-02
7.920860e-02
6.833080e-02
1.181400e-01
4.556470e-02
7.055300e-02
-4.122400e-03
-1.420710e-02
2.069200e-02
6.833080e-02
1.269390e-02
3.286360e-02
6.346350e-03
-4.122400e-03
3.736480e-02
-3.504230e-03
6.833080e-02
1.181400e-01
3.286360e-02
5.371770e-02
-4.122400e-03
-1.420710e-02
-3.504230e-03
-4.419610e-02
1.269390e-02
3.286360e-02
-3.974710e-02
-5.252200e-02
3.736480e-02
-3.504230e-03
6.078650e-02
3.389240e-02
3.286360e-02
5.371770e-02
-5.252200e-02
-6.451490e-02
-3.504230e-03
-4.419610e-02
3.389240e-02
8.200190e-03
-3.974710e-02
-5.252200e-02
-6.131480e-02
-4.670670e-02
6.078650e-02
3.389240e-02
6.275050e-03
-4.643570e-03
-5.252200e-02
-6.451490e-02
-4.670670e-02
-3.194460e-02
3.389240e-02
8.200190e-03
-4.643570e-03
-1.443070e-02
-6.131480e-02
-4.670670e-02
-6.106700e-02
-2.533380e-02
6.275050e-03
-4.643570e-03
7.395230e-03
6.470670e-03
-4.670670e-02
-3.194460e-02
-2.533380e-02
1.212540e-02
-4.643570e-03
-1.443070e-02
6.470670e-03
6.407100e-03
-6.106700e-02
-2.533380e-02
-5.540460e-03
4.815570e-02
7.395230e-03
6.470670e-03
2.038780e-02
-5.741060e-03
-2.533380e-02
1.212540e-02
4.815570e-02
1.012670e-01
6.470670e-03
6.407100e-03
-5.741060e-03
-3.132610e-02
-5.540460e-03
4.815570e-02
-3.717290e-02
4.097410e-02
2.038780e-02
-5.741060e-03
2.144920e-02
-2.302060e-02
4.815570e-02
1.012670e-01
4.097410e-02
1.169310e-01
-5.741060e-03
-3.132610e-02
-2.302060e-02
-6.933860e-02
-3.717290e-02
4.097410e-02
-6.011360e-02
-6.048410e-02
2.144920e-02
-2.302060e-02
-6.086310e-03
-2.142130e-02
4.097410e-02
1.169310e-01
-6.048410e-02
-6.136400e-02
-2.302060e-02
-6.933860e-02
-2.142130e-02
-3.783210e-02
-6.011360e-02
-6.048410e-02
1.707230e-02
-6.435330e-02
-6.086310e-03
-2.142130e-02
2.414000e-02
2.804770e-03
-6.048410e-02
-6.136400e-02
-6.435330e-02
-1.423960e-01
-2.142130e-02
-3.783210e-02
2.804770e-03
-1.951000e-02
0.000000e+00
0.000000e+00
1.126320e-02
4.876700e-03
0.000000e+00
0.000000e+00
-1.091340e-01
-6.623400e-02
0.000000e+00
0.000000e+00
4.876700e-03
-9.913870e-04
0.000000e+00
0.000000e+00
-6.623400e-02
-2.728640e-02
1.126320e-02
4.876700e-03
-9.758010e-03
-5.110610e-03
-1.091340e-01
-6.623400e-02
7.547220e-03
2.117760e-02
4.876700e-03
-9.913870e-04
-5.110610e-03
1.426710e-03
-6.623400e-02
-2.728640e-02
2.117760e-02
3.040710e-02
-9.758010e-03
-5.110610e-03
-5.559120e-02
-2.069300e-02
7.547220e-03
2.117760e-02
1.968560e-01
1.214120e-01
-5.110610e-03
1.426710e-03
-2.069300e-02
1.365080e-02
2.117760e-02
3.040710e-02
1.214120e-01
4.782370e-02
-5.559120e-02
-2.069300e-02
-9.693660e-02
-6.004090e-02
1.968560e-01
1.214120e-01
1.850020e-01
1.223950e-01
-2.069300e-02
1.365080e-02
-6.004090e-02
-2.244050e-02
1.214120e-01
4.782370e-02
1.223950e-01
6.506920e-02
-9.693660e-02
-6.004090e-02
-1.281390e-02
5.092500e-03
1.850020e-01
1.223950e-01
-6.157590e-02
-6.213680e-02
-6.004090e-02
-2.244050e-02
5.092500e-03
2.415670e-02
1.223950e-01
6.506920e-02
-6.213680e-02
-6.382890e-02
-1.281390e-02
5.092500e-03
-5.352730e-03
2.613710e-02
-6.157590e-02
-6.213680e-02
-6.057280e-02
-4.928000e-02
5.092500e-03
2.415670e-02
2.613710e-02
5.791310e-02
-6.213680e-02
-6.382890e-02
-4.928000e-02
-3.588220e-02
-5.352730e-03
2.613710e-02
-4.846520e-02
-1.162790e-02
-6.057280e-02
-4.928000e-02
1.727680e-02
1.940950e-02
2.613710e-02
5.791310e-02
-1.162790e-02
2.573570e-02
-4.928000e-02
-3.588220e-02
1.940950e-02
2.381810e-02
-4.846520e-02
-1.162790e-02
-2.805710e-02
-1.088020e-02
1.727680e-02
1.940950e-02
-1.167950e-02
1.962250e-02
-1.162790e-02
2.573570e-02
-1.088020e-02
6.382060e-03
1.940950e-02
2.381810e-02
1.962250e-02
5.107680e-02
-2.805710e-02
-1.088020e-02
-1.957150e-02
-2.813330e-03
-1.167950e-02
1.962250e-02
-2.224080e-02
-3.951500e-02
-1.088020e-02
6.382060e-03
-2.813330e-03
1.346850e-02
1.962250e-02
5.107680e-02
-3.951500e-02
-6.066200e-02
-1.957150e-02
-2.813330e-03
-6.047990e-02
-1.840880e-02
-2.224080e-02
-3.951500e-02
5.439970e-02
-3.383330e-02
-2.813330e-03
1.346850e-02
-1.840880e-02
2.200330e-02
-3.951500e-02
-6.066200e-02
-3.383330e-02
-1.259150e-01
-6.047990e-02
-1.840880e-02
-6.577660e-02
-2.046430e-02
5.439970e-02
-3.383330e-02
4.232480e-02
1.580990e-03
-1.840880e-02
2.200330e-02
-2.046430e-02
2.372080e-02
-3.383330e-02
-1.259150e-01
1.580990e-03
-3.857150e-02
-6.577660e-02
-2.046430e-02
-1.636630e-02
4.669420e-03
4.232480e-02
1.580990e-03
-1.112970e-01
-5.015850e-02
-2.046430e-02
2.372080e-02
4.669420e-03
2.602260e-02
1.580990e-03
-3.857150e-02
-5.015850e-02
1.271030e-02
-1.636630e-02
4.669420e-03
-2.817530e-02
-2.541550e-02
-1.112970e-01
-5.015850e-02
-3.991230e-02
-1.159850e-02
4.669420e-03
2.602260e-02
-2.541550e-02
-2.132950e-02
-5.015850e-02
1.271030e-02
-1.159850e-02
1.826560e-02
-2.817530e-02
-2.541550e-02
-1.752850e-02
-2.068820e-02
-3.991230e-02
-1.159850e-02
2.005460e-02
1.622710e-02
-2.541550e-02
-2.132950e-02
-2.068820e-02
-2.268250e-02
-1.159850e-02
1.826560e-02
1.622710e-02
1.428230e-02
-1.752850e-02
-2.068820e-02
-4.625600e-03
8.160950e-03
2.005460e-02
1.622710e-02
6.153250e-02
1.357180e-02
-2.068820e-02
-2.268250e-02
8.160950e-03
2.230850e-02
1.622710e-02
1.428230e-02
1.357180e-02
-3.049450e-02
-4.625600e-03
8.160950e-03
-6.862700e-02
-2.204460e-02
6.153250e-02
1.357180e-02
1.492450e-01
8.401200e-02
8.160950e-03
2.230850e-02
-2.204460e-02
2.417310e-02
1.357180e-02
-3.049450e-02
8.401200e-02
1.635760e-02
-6.862700e-02
-2.204460e-02
1.270890e-02
4.014650e-02
1.492450e-01
8.401200e-02
3.336170e-02
3.989950e-03
-2.204460e-02
2.417310e-02
4.014650e-02
6.692250e-02
8.401200e-02
1.635760e-02
3.989950e-03
-2.752040e-02
1.270890e-02
4.014650e-02
1.352340e-02
2.896180e-02
3.336170e-02
3.989950e-03
-9.526580e-02
-5.473460e-02
4.014650e-02
6.692250e-02
2.896180e-02
4.365760e-02
3.989950e-03
-2.752040e-02
-5.473460e-02
-1.177480e-02
1.352340e-02
2.896180e-02
1.656240e-03
2.707690e-02
-9.526580e-02
-5.473460e-02
-6.665040e-03
1.482330e-02
2.896180e-02
4.365760e-02
2.707690e-02
4.982490e-02
-5.473460e-02
-1.177480e-02
1.482330e-02
3.920900e-02
1.656240e-03
2.707690e-02
3.768190e-03
2.715550e-02
-6.665040e-03
1.482330e-02
7.788020e-02
2.917550e-02
2.707690e-02
4.982490e-02
2.715550e-02
4.837150e-02
1.482330e-02
3.920900e-02
2.917550e-02
-1.968380e-02
3.768190e-03
2.715550e-02
1.829330e-02
4.556470e-02
7.788020e-02
2.917550e-02
-5.313970e-02
-1.365730e-01
2.715550e-02
4.837150e-02
4.556470e-02
7.055300e-02
2.917550e-02
-1.968380e-02
-1.365730e-01
-2.221720e-01
1.829330e-02
4.556470e-02
6.346350e-03
-4.122400e-03
-5.313970e-02
-1.365730e-01
-3.405990e-02
-5.813430e-02
4.556470e-02
7.055300e-02
-4.122400e-03
-1.420710e-02
-1.365730e-01
-2.221720e-01
-5.813430e-02
-8.499280e-02
6.346350e-03
-4.122400e-03
3.736480e-02
-3.504230e-03
-3.405990e-02
-5.813430e-02
-7.904560e-02
-2.330560e-02
-4.122400e-03
-1.420710e-02
-3.504230e-03
-4.419610e-02
-5.813430e-02
-8.499280e-02
-2.330560e-02
3.308920e-02
3.736480e-02
-3.504230e-03
6.078650e-02
3.389240e-02
-7.904560e-02
-2.330560e-02
-9.267550e-02
-2.574970e-02
-3.504230e-03
-4.419610e-02
3.389240e-02
8.200190e-03
-2.330560e-02
3.308920e-02
-2.574970e-02
4.148060e-02
6.078650e-02
3.389240e-02
6.275050e-03
-4.643570e-03
-9.267550e-02
-2.574970e-02
5.725300e-02
6.112910e-02
3.389240e-02
8.200190e-03
-4.643570e-03
-1.443070e-02
-2.574970e-02
4.148060e-02
6.112910e-02
6.555430e-02
6.275050e-03
-4.643570e-03
7.395230e-03
6.470670e-03
5.725300e-02
6.112910e-02
4.689460e-02
1.054770e-02
-4.643570e-03
-1.443070e-02
6.470670e-03
6.407100e-03
6.112910e-02
6.555430e-02
1.054770e-02
-2.412690e-02
7.395230e-03
6.470670e-03
2.038780e-02
-5.741060e-03
4.689460e-02
1.054770e-02
-3.371350e-02
-3.214320e-02
6.470670e-03
6.407100e-03
-5.741060e-03
-3.132610e-02
1.054770e-02
-2.412690e-02
-3.214320e-02
-2.912890e-02
2.038780e-02
-5.741060e-03
2.144920e-02
-2.302060e-02
-3.371350e-02
-3.214320e-02
-1.122930e-02
-4.210770e-03
-5.741060e-03
-3.132610e-02
-2.302060e-02
-6.933860e-02
-3.214320e-02
-2.912890e-02
-4.210770e-03
6.624590e-03
2.144920e-02
-2.302060e-02
-6.086310e-03
-2.142130e-02
-1.122930e-02
-4.210770e-03
7.646560e-02
1.085260e-01
-2.302060e-02
-6.933860e-02
-2.142130e-02
-3.783210e-02
-4.210770e-03
6.624590e-03
1.085260e-01
1.402660e-01
-6.086310e-03
-2.142130e-02
2.414000e-02
2.804770e-03
7.646560e-02
1.085260e-01
-6.105360e-02
6.149150e-02
-2.142130e-02
-3.783210e-02
2.804770e-03
-1.951000e-02
1.085260e-01
1.402660e-01
6.149150e-02
1.764940e-01
</DataArray>
<DataArray type="Float32" Name="V2" format="ascii">
0.000000e+00
0.000000e+00
-6.059000e-02
-1.146620e-01
0.000000e+00
0.000000e+00
1.461660e-02
2.624810e-02
0.000000e+00
0.000000e+00
-1.146620e-01
-1.741380e-01
0.000000e+00
0.000000e+00
2.624810e-02
7.489380e-02
-6.059000e-02
-1.146620e-01
-5.510110e-02
-4.519620e-02
1.461660e-02
2.624810e-02
-4.233020e-02
-5.136290e-02
-1.146620e-01
-1.741380e-01
-4.519620e-02
-7.828150e-02
2.624810e-02
7.489380e-02
-5.136290e-02
-2.464830e-02
-5.510110e-02
-4.519620e-02
4.628370e-03
-2.331280e-02
-4.233020e-02
-5.136290e-02
-4.398700e-02
-4.635360e-02
-4.519620e-02
-7.828150e-02
-2.331280e-02
-3.648970e-02
-5.136290e-02
-2.464830e-02
-4.635360e-02
-7.090240e-02
4.628370e-03
-2.331280e-02
9.556300e-02
-2.066750e-02
-4.398700e-02
-4.635360e-02
-3.098280e-02
-9.672990e-03
-2.331280e-02
-3.648970e-02
-2.066750e-02
-5.261940e-02
-4.635360e-02
-7.090240e-02
-9.672990e-03
-1.405680e-02
9.556300e-02
-2.066750e-02
5.324090e-03
-7.365670e-02
-3.098280e-02
-9.672990e-03
1.182900e-02
1.161100e-02
-2.066750e-02
-5.261940e-02
-7.365670e-02
-2.873720e-02
-9.672990e-03
-1.405680e-02
1.161100e-02
9.096170e-03
5.324090e-03
-7.365670e-02
-6.485310e-02
-1.079840e-01
1.182900e-02
1.161100e-02
-3.482420e-02
-2.234410e-02
-7.365670e-02
-2.873720e-02
-1.079840e-01
-6.661870e-02
1.161100e-02
9.096170e-03
-2.234410e-02
-3.035240e-02
-6.485310e-02
-1.079840e-01
-1.342220e-02
-2.427010e-02
-3.482420e-02
-2.234410e-02
-4.046060e-02
-4.577250e-02
-1.079840e-01
-6.661870e-02
-2.427010e-02
-5.954580e-02
-2.234410e-02
-3.035240e-02
-4.577250e-02
-4.623850e-02
-1.342220e-02
-2.427010e-02
-6.511270e-02
-4.529110e-03
-4.046060e-02
-4.577250e-02
4.203580e-02
3.160100e-02
-2.427010e-02
-5.954580e-02
-4.529110e-03
-5.018240e-03
-4.577250e-02
-4.623850e-02
3.160100e-02
4.737150e-02
-6.511270e-02
-4.529110e-03
-4.211870e-02
4.150810e-02
4.203580e-02
3.160100e-02
8.101630e-02
8.750170e-02
-4.529110e-03
-5.018240e-03
4.150810e-02
4.789690e-02
3.160100e-02
4.737150e-02
8.750170e-02
8.836450e-02
-4.211870e-02
4.150810e-02
4.736810e-02
6.727920e-02
8.101630e-02
8.750170e-02
2.781770e-02
4.779240e-02
4.150810e-02
4.789690e-02
6.727920e-02
8.910500e-02
8.750170e-02
8.836450e-02
4.779240e-02
4.122990e-02
4.736810e-02
6.727920e-02
1.925710e-01
1.303130e-01
2.781770e-02
4.779240e-02
-1.677450e-02
-2.514030e-02
6.727920e-02
8.910500e-02
1.303130e-01
1.308920e-01
4.779240e-02
4.122990e-02
-2.514030e-02
-2.782030e-02
1.925710e-01
1.303130e-01
4.840800e-02
9.649400e-02
-1.677450e-02
-2.514030e-02
-5.608410e-02
-5.231240e-02
1.303130e-01
1.308920e-01
9.649400e-02
1.257850e-01
-2.514030e-02
-2.782030e-02
-5.231240e-02
-5.011790e-02
4.840800e-02
9.649400e-02
-1.794860e-01
-1.153980e-01
-5.608410e-02
-5.231240e-02
-9.758180e-03
2.216230e-02
9.649400e-02
1.257850e-01
-1.153980e-01
-5.619500e-02
-5.231240e-02
-5.011790e-02
2.216230e-02
3.672860e-03
-1.794860e-01
-1.153980e-01
-1.639290e-01
-1.299330e-01
-9.758180e-03
2.216230e-02
4.338340e-02
2.567540e-02
-1.153980e-01
-5.619500e-02
-1.299330e-01
-9.255760e-02
2.216230e-02
3.672860e-03
2.567540e-02
-1.936420e-04
-1.639290e-01
-1.299330e-01
-1.423890e-02
-2.426730e-02
4.338340e-02
2.567540e-02
-1.811040e-02
-2.649940e-02
-1.299330e-01
-9.255760e-02
-2.426730e-02
-6.715580e-03
2.567540e-02
-1.936420e-04
-2.649940e-02
-3.826590e-02
-1.423890e-02
-2.426730e-02
-1.287270e-02
3.669620e-02
-1.811040e-02
-2.649940e-02
-4.558370e-02
-2.603150e-02
-2.426730e-02
-6.715580e-03
3.669620e-02
6.444860e-02
-2.649940e-02
-3.826590e-02
-2.603150e-02
6.916500e-03
-1.287270e-02
3.669620e-02
-5.196890e-03
-7.394400e-03
-4.558370e-02
-2.603150e-02
1.764910e-02
2.043030e-02
3.669620e-02
6.444860e-02
-7.394400e-03
-9.139910e-02
-2.603150e-02
6.916500e-03
2.043030e-02
6.091240e-02
-5.196890e-03
-7.394400e-03
-4.619420e-02
-5.518360e-02
1.764910e-02
2.043030e-02
1.879660e-02
1.550600e-02
-7.394400e-03
-9.139910e-02
-5.518360e-02
-6.704370e-02
2.043030e-02
6.091240e-02
1.550600e-02
2.244530e-03
-4.619420e-02
-5.518360e-02
-7.882770e-02
-1.119450e-02
1.879660e-02
1.550600e-02
-5.182610e-02
-6.732280e-02
-5.518360e-02
-6.704370e-02
-1.119450e-02
6.472840e-02
1.550600e-02
2.244530e-03
-6.732280e-02
-7.556560e-02
-7.882770e-02
-1.119450e-02
-3.424740e-02
-8.062710e-02
-5.182610e-02
-6.732280e-02
7.931750e-03
4.792510e-02
-1.119450e-02
6.472840e-02
-8.062710e-02
-9.416350e-02
-6.732280e-02
-7.556560e-02
4.792510e-02
6.265920e-02
-3.424740e-02
-8.062710e-02
-9.479950e-03
-1.326610e-01
7.931750e-03
4.792510e-02
6.566160e-02
9.022890e-02
-8.062710e-02
-9.416350e-02
-1.326610e-01
-2.122720e-01
4.792510e-02
6.265920e-02
9.022890e-02
8.954660e-02
-9.479950e-03
-1.326610e-01
5.398800e-02
6.877450e-02
6.566160e-02
9.022890e-02
-3.093210e-02
-5.658820e-02
-1.326610e-01
-2.122720e-01
6.877450e-02
8.037940e-02
9.022890e-02
8.954660e-02
-5.658820e-02
-6.074550e-02
5.398800e-02
6.877450e-02
2.102650e-01
1.926270e-01
-3.093210e-02
-5.658820e-02
-5.331390e-02
-6.090350e-02
6.877450e-02
8.037940e-02
1.926270e-01
1.865940e-01
-5.658820e-02
-6.074550e-02
-6.090350e-02
-5.258370e-02
2.102650e-01
1.926270e-01
-8.387640e-02
-1.205680e-03
-5.331390e-02
-6.090350e-02
3.599910e-02
-3.781940e-03
1.926270e-01
1.865940e-01
-1.205680e-03
2.718890e-02
-6.090350e-02
-5.258370e-02
-3.781940e-03
-5.820090e-03
-8.387640e-02
-1.205680e-03
-2.925610e-01
-2.056600e-01
3.599910e-02
-3.781940e-03
3.756650e-02
2.912690e-02
-1.205680e-03
2.718890e-02
-2.056600e-01
-1.563690e-01
-3.781940e-03
-5.820090e-03
2.912690e-02
2.126390e-02
-2.925610e-01
-2.056600e-01
-3.585500e-02
-6.185040e-02
3.756650e-02
2.912690e-02
-3.494360e-02
9.697560e-03
-2.056600e-01
-1.563690e-01
-6.185040e-02
-1.401650e-02
2.912690e-02
2.126390e-02
9.697560e-03
1.737840e-02
-3.585500e-02
-6.185040e-02
1.761620e-01
1.466750e-01
-3.494360e-02
9.697560e-03
-7.719130e-02
-7.305300e-02
-6.185040e-02
-1.401650e-02
1.466750e-01
1.254660e-01
9.697560e-03
1.737840e-02
-7.305300e-02
-5.329880e-02
1.761620e-01
1.466750e-01
9.129860e-02
1.017520e-01
-7.719130e-02
-7.305300e-02
-5.552500e-02
-4.544590e-02
1.466750e-01
1.254660e-01
1.017520e-01
1.600330e-01
-7.305300e-02
-5.329880e-02
-4.544590e-02
-5.418920e-02
9.129860e-02
1.017520e-01
-1.868290e-03
-7.904630e-02
-5.552500e-02
-4.544590e-02
1.066510e-02
5.126310e-02
1.017520e-01
1.600330e-01
-7.904630e-02
-2.911710e-02
-4.544590e-02
-5.418920e-02
5.126310e-02
5.485630e-02
-1.868290e-03
-7.904630e-02
-6.043670e-02
-1.638820e-01
1.066510e-02
5.126310e-02
8.106540e-02
8.737490e-02
-7.904630e-02
-2.911710e-02
-1.638820e-01
-1.772830e-01
5.126310e-02
5.485630e-02
8.737490e-02
1.293600e-01
0.000000e+00
0.000000e+00
1.461660e-02
2.624810e-02
0.000000e+00
0.000000e+00
2.309240e-02
5.751760e-02
0.000000e+00
0.000000e+00
2.624810e-02
7.489380e-02
0.000000e+00
0.000000e+00
5.751760e-02
3.166940e-02
1.461660e-02
2.624810e-02
-4.233020e-02
-5.136290e-02
2.309240e-02
5.751760e-02
1.459770e-01
1.470580e-01
2.624810e-02
7.489380e-02
-5.136290e-02
-2.464830e-02
5.751760e-02
3.166940e-02