<?xml version="1.0"?>
<VTKFile type="UnstructuredGrid" version="0.1" byte_order="LittleEndian" compressor="vtkZLibDataCompressor">
<UnstructuredGrid>
<Piece NumberOfPoints="960" NumberOfCells="120">
<Points>
<DataArray type="Float32" NumberOfComponents="3" format="ascii">
-4.000000e+02 -6.000000e+03 -4.000000e+02
0.000000e+00 -6.000000e+03 -4.000000e+02
-3.999210e+02 -5.600220e+03 -4.002150e+02
7.172170e-02 -5.600210e+03 -4.000820e+02
-4.000000e+02 -6.000000e+03 0.000000e+00
0.000000e+00 -6.000000e+03 0.000000e+00
-4.000010e+02 -5.600020e+03 -1.674460e-01
-4.052420e-03 -5.600020e+03 -4.597940e-02
0.000000e+00 -6.000000e+03 -4.000000e+02
4.000000e+02 -6.000000e+03 -4.000000e+02
7.172170e-02 -5.600210e+03 -4.000820e+02
4.000630e+02 -5.600210e+03 -3.999670e+02
0.000000e+00 -6.000000e+03 0.000000e+00
4.000000e+02 -6.000000e+03 0.000000e+00
-4.052420e-03 -5.600020e+03 -4.597940e-02
3.999930e+02 -5.600020e+03 5.565780e-02
-3.999210e+02 -5.600220e+03 -4.002150e+02
7.172170e-02 -5.600210e+03 -4.000820e+02
-3.999530e+02 -5.200580e+03 -4.005130e+02
5.777250e-02 -5.200580e+03 -4.004790e+02
-4.000010e+02 -5.600020e+03 -1.674460e-01
-4.052420e-03 -5.600020e+03 -4.597940e-02
-4.000050e+02 -5.200040e+03 -5.954150e-01
2.197390e-03 -5.200030e+03 -5.478270e-01
7.172170e-02 -5.600210e+03 -4.000820e+02
4.000630e+02 -5.600210e+03 -3.999670e+02
5.777250e-02 -5.200580e+03 -4.004790e+02
4.000670e+02 -5.200590e+03 -4.004540e+02
-4.052420e-03 -5.600020e+03 -4.597940e-02
3.999930e+02 -5.600020e+03 5.565780e-02
2.197390e-03 -5.200030e+03 -5.478270e-01
4.000080e+02 -5.200020e+03 -4.686480e-01
-3.999530e+02 -5.200580e+03 -4.005130e+02
5.777250e-02 -5.200580e+03 -4.004790e+02
-4.000460e+02 -4.800960e+03 -4.012270e+02
-5.236690e-02 -4.800970e+03 -4.012890e+02
-4.000050e+02 -5.200040e+03 -5.954150e-01
2.197390e-03 -5.200030e+03 -5.478270e-01
-3.999790e+02 -4.799970e+03 -1.396060e+00
3.791280e-02 -4.799970e+03 -1.403180e+00
5.777250e-02 -5.200580e+03 -4.004790e+02
4.000670e+02 -5.200590e+03 -4.004540e+02
-5.236690e-02 -4.800970e+03 -4.012890e+02
3.999420e+02 -4.800980e+03 -4.014040e+02
2.197390e-03 -5.200030e+03 -5.478270e-01
4.000080e+02 -5.200020e+03 -4.686480e-01
3.791280e-02 -4.799970e+03 -1.403180e+00
4.000550e+02 -4.799960e+03 -1.386470e+00
-4.000460e+02 -4.800960e+03 -4.012270e+02
-5.236690e-02 -4.800970e+03 -4.012890e+02
-4.000820e+02 -4.401210e+03 -4.023960e+02
-1.428830e-01 -4.401300e+03 -4.024860e+02
-3.999790e+02 -4.799970e+03 -1.396060e+00
3.791280e-02 -4.799970e+03 -1.403180e+00
-3.999680e+02 -4.399990e+03 -2.398400e+00
4.609570e-02 -4.399980e+03 -2.416120e+00
-5.236690e-02 -4.800970e+03 -4.012890e+02
3.999420e+02 -4.800980e+03 -4.014040e+02
-1.428830e-01 -4.401300e+03 -4.024860e+02
3.997980e+02 -4.401390e+03 -4.027420e+02
3.791280e-02 -4.799970e+03 -1.403180e+00
4.000550e+02 -4.799960e+03 -1.386470e+00
4.609570e-02 -4.399980e+03 -2.416120e+00
4.000610e+02 -4.399970e+03 -2.529660e+00
-4.000820e+02 -4.401210e+03 -4.023960e+02
-1.428830e-01 -4.401300e+03 -4.024860e+02
-4.000800e+02 -4.001360e+03 -4.038250e+02
-1.314770e-01 -4.001460e+03 -4.040110e+02
-3.999680e+02 -4.399990e+03 -2.398400e+00
4.609570e-02 -4.399980e+03 -2.416120e+00
-3.999890e+02 -4.000030e+03 -3.841410e+00
1.748070e-02 -4.000040e+03 -3.974840e+00
-1.428830e-01 -4.401300e+03 -4.024860e+02
3.997980e+02 -4.401390e+03 -4.027420e+02
-1.314770e-01 -4.001460e+03 -4.040110e+02
3.998170e+02 -4.001590e+03 -4.043190e+02
4.609570e-02 -4.399980e+03 -2.416120e+00
4.000610e+02 -4.399970e+03 -2.529660e+00
1.748070e-02 -4.000040e+03 -3.974840e+00
4.000240e+02 -4.000050e+03 -4.196480e+00
-4.000800e+02 -4.001360e+03 -4.038250e+02
-1.314770e-01 -4.001460e+03 -4.040110e+02
-4.001250e+02 -3.601540e+03 -4.052780e+02
-1.105750e-01 -3.601550e+03 -4.054900e+02
-3.999890e+02 -4.000030e+03 -3.841410e+00
1.748070e-02 -4.000040e+03 -3.974840e+00
-4.000050e+02 -3.600000e+03 -5.322040e+00
3.472630e-03 -3.600010e+03 -5.543500e+00
-1.314770e-01 -4.001460e+03 -4.040110e+02
3.998170e+02 -4.001590e+03 -4.043190e+02
-1.105750e-01 -3.601550e+03 -4.054900e+02
3.999030e+02 -3.601600e+03 -4.057060e+02
1.748070e-02 -4.000040e+03 -3.974840e+00
4.000240e+02 -4.000050e+03 -4.196480e+00
3.472630e-03 -3.600010e+03 -5.543500e+00
4.000120e+02 -3.600010e+03 -5.723280e+00
-4.001250e+02 -3.601540e+03 -4.052780e+02
-1.105750e-01 -3.601550e+03 -4.054900e+02
-4.001200e+02 -3.201780e+03 -4.069640e+02
-8.362360e-02 -3.201740e+03 -4.071580e+02
-4.000050e+02 -3.600000e+03 -5.322040e+00
3.472630e-03 -3.600010e+03 -5.543500e+00
-4.000000e+02 -3.199990e+03 -6.901870e+00
2.531060e-02 -3.199990e+03 -7.077070e+00
-1.105750e-01 -3.601550e+03 -4.054900e+02
3.999030e+02 -3.601600e+03 -4.057060e+02
-8.362360e-02 -3.201740e+03 -4.071580e+02
3.999530e+02 -3.201720e+03 -4.073470e+02
3.472630e-03 -3.600010e+03 -5.543500e+00
4.000120e+02 -3.600010e+03 -5.723280e+00
2.531060e-02 -3.199990e+03 -7.077070e+00
4.000510e+02 -3.199980e+03 -7.151100e+00
-4.001200e+02 -3.201780e+03 -4.069640e+02
-8.362360e-02 -3.201740e+03 -4.071580e+02
-4.000800e+02 -2.801980e+03 -4.088420e+02
-1.009350e-01 -2.801910e+03 -4.089510e+02
-4.000000e+02 -3.199990e+03 -6.901870e+00
2.531060e-02 -3.199990e+03 -7.077070e+00
-4.000050e+02 -2.800060e+03 -8.772210e+00
2.308690e-02 -2.800080e+03 -8.876850e+00
-8.362360e-02 -3.201740e+03 -4.071580e+02
3.999530e+02 -3.201720e+03 -4.073470e+02
-1.009350e-01 -2.801910e+03 -4.089510e+02
3.998790e+02 -2.801850e+03 -4.091650e+02
2.531060e-02 -3.199990e+03 -7.077070e+00
4.000510e+02 -3.199980e+03 -7.151100e+00
2.308690e-02 -2.800080e+03 -8.876850e+00
4.000520e+02 -2.800080e+03 -8.958670e+00
-4.000800e+02 -2.801980e+03 -4.088420e+02
-1.009350e-01 -2.801910e+03 -4.089510e+02
-4.000340e+02 -2.402140e+03 -4.106660e+02
-5.673510e-02 -2.402090e+03 -4.107410e+02
-4.000050e+02 -2.800060e+03 -8.772210e+00
2.308690e-02 -2.800080e+03 -8.876850e+00
-3.999880e+02 -2.400090e+03 -1.091910e+01
3.412170e-02 -2.400080e+03 -1.095530e+01
-1.009350e-01 -2.801910e+03 -4.089510e+02
3.998790e+02 -2.801850e+03 -4.091650e+02
-5.673510e-02 -2.402090e+03 -4.107410e+02
3.999190e+02 -2.402030e+03 -4.108950e+02
2.308690e-02 -2.800080e+03 -8.876850e+00
4.000520e+02 -2.800080e+03 -8.958670e+00
3.412170e-02 -2.400080e+03 -1.095530e+01
4.000570e+02 -2.400070e+03 -1.099060e+01
-4.000340e+02 -2.402140e+03 -4.106660e+02
-5.673510e-02 -2.402090e+03 -4.107410e+02
-3.998890e+02 -2.002450e+03 -4.129280e+02
7.143090e-02 -2.002410e+03 -4.129050e+02
-3.999880e+02 -2.400090e+03 -1.091910e+01
3.412170e-02 -2.400080e+03 -1.095530e+01
-3.999650e+02 -1.999960e+03 -1.317900e+01
5.463200e-02 -1.999950e+03 -1.305640e+01
-5.673510e-02 -2.402090e+03 -4.107410e+02
3.999190e+02 -2.402030e+03 -4.108950e+02
7.143090e-02 -2.002410e+03 -4.129050e+02
4.000330e+02 -2.002310e+03 -4.129950e+02
3.412170e-02 -2.400080e+03 -1.095530e+01
4.000570e+02 -2.400070e+03 -1.099060e+01
5.463200e-02 -1.999950e+03 -1.305640e+01
4.000750e+02 -1.999960e+03 -1.295200e+01
-3.998890e+02 -2.002450e+03 -4.129280e+02
7.143090e-02 -2.002410e+03 -4.129050e+02
-3.997020e+02 -1.602520e+03 -4.159620e+02
2.395230e-01 -1.602480e+03 -4.156450e+02
-3.999650e+02 -1.999960e+03 -1.317900e+01
5.463200e-02 -1.999950e+03 -1.305640e+01
-3.999860e+02 -1.599950e+03 -1.576170e+01
4.343680e-02 -1.599940e+03 -1.542060e+01
7.143090e-02 -2.002410e+03 -4.129050e+02
4.000330e+02 -2.002310e+03 -4.129950e+02
2.395230e-01 -1.602480e+03 -4.156450e+02
4.001830e+02 -1.602410e+03 -4.155020e+02
5.463200e-02 -1.999950e+03 -1.305640e+01
4.000750e+02 -1.999960e+03 -1.295200e+01
4.343680e-02 -1.599940e+03 -1.542060e+01
4.000730e+02 -1.599950e+03 -1.511290e+01
-3.997020e+02 -1.602520e+03 -4.159620e+02
2.395230e-01 -1.602480e+03 -4.156450e+02
-3.995770e+02 -1.202310e+03 -4.183850e+02
3.810710e-01 -1.202300e+03 -4.179520e+02
-3.999860e+02 -1.599950e+03 -1.576170e+01
4.343680e-02 -1.599940e+03 -1.542060e+01
-4.000030e+02 -1.200080e+03 -1.805800e+01
2.624700e-02 -1.200070e+03 -1.763810e+01
2.395230e-01 -1.602480e+03 -4.156450e+02
4.001830e+02 -1.602410e+03 -4.155020e+02
3.810710e-01 -1.202300e+03 -4.179520e+02
4.003400e+02 -1.202280e+03 -4.176550e+02
4.343680e-02 -1.599940e+03 -1.542060e+01
4.000730e+02 -1.599950e+03 -1.511290e+01
2.624700e-02 -1.200070e+03 -1.763810e+01
4.000550e+02 -1.200070e+03 -1.722740e+01
-3.995770e+02 -1.202310e+03 -4.183850e+02
3.810710e-01 -1.202300e+03 -4.179520e+02
-3.996490e+02 -8.024410e+02 -4.202620e+02
3.554620e-01 -8.024010e+02 -4.199450e+02
-4.000030e+02 -1.200080e+03 -1.805800e+01
2.624700e-02 -1.200070e+03 -1.763810e+01
-3.999960e+02 -8.001470e+02 -2.025690e+01
2.809490e-02 -8.001370e+02 -1.992830e+01
3.810710e-01 -1.202300e+03 -4.179520e+02
4.003400e+02 -1.202280e+03 -4.176550e+02
3.554620e-01 -8.024010e+02 -4.199450e+02
4.003600e+02 -8.023910e+02 -4.196570e+02
2.624700e-02 -1.200070e+03 -1.763810e+01
4.000550e+02 -1.200070e+03 -1.722740e+01
2.809490e-02 -8.001370e+02 -1.992830e+01
4.000530e+02 -8.001270e+02 -1.951360e+01
-3.996490e+02 -8.024410e+02 -4.202620e+02
3.554620e-01 -8.024010e+02 -4.199450e+02
-3.997670e+02 -4.026460e+02 -4.226930e+02
2.380350e-01 -4.026290e+02 -4.224410e+02
-3.999960e+02 -8.001470e+02 -2.025690e+01
2.809490e-02 -8.001370e+02 -1.992830e+01
-4.000040e+02 -4.000410e+02 -2.287810e+01
2.914160e-02 -4.000440e+02 -2.260990e+01
3.554620e-01 -8.024010e+02 -4.199450e+02
4.003600e+02 -8.023910e+02 -4.196570e+02
2.380350e-01 -4.026290e+02 -4.224410e+02
4.002430e+02 -4.026120e+02 -4.222490e+02
2.809490e-02 -8.001370e+02 -1.992830e+01
4.000530e+02 -8.001270e+02 -1.951360e+01
2.914160e-02 -4.000440e+02 -2.260990e+01
4.000630e+02 -4.000370e+02 -2.226920e+01
-3.997670e+02 -4.026460e+02 -4.226930e+02
2.380350e-01 -4.026290e+02 -4.224410e+02
-3.998190e+02 -2.566850e+00 -4.253040e+02
1.247180e-01 -2.634600e+00 -4.250790e+02
-4.000040e+02 -4.000410e+02 -2.287810e+01
2.914160e-02 -4.000440e+02 -2.260990e+01
-4.000590e+02 5.740270e-02 -2.520070e+01
-2.156420e-02 4.651320e-02 -2.506700e+01
2.380350e-01 -4.026290e+02 -4.224410e+02
4.002430e+02 -4.026120e+02 -4.222490e+02
1.247180e-01 -2.634600e+00 -4.250790e+02
[...]
<PointData>
<DataArray type="Float32" Name="V1" format="ascii">
0.000000e+00
0.000000e+00
2.359630e-02
6.235800e-02
0.000000e+00
0.000000e+00
-6.076960e-03
-1.275180e-02
0.000000e+00
0.000000e+00
6.235800e-02
1.010640e-01
0.000000e+00
0.000000e+00
-1.275180e-02
-2.061600e-02
2.359630e-02
6.235800e-02
4.916180e-02
6.831230e-02
-6.076960e-03
-1.275180e-02
3.107950e-02
8.504250e-03
6.235800e-02
1.010640e-01
6.831230e-02
8.326180e-02
-1.275180e-02
-2.061600e-02
8.504250e-03
-1.387400e-02
4.916180e-02
6.831230e-02
-4.225180e-02
-1.709430e-02
3.107950e-02
8.504250e-03
-5.664070e-03
-8.023330e-03
6.831230e-02
8.326180e-02
-1.709430e-02
8.892990e-03
8.504250e-03
-1.387400e-02
-8.023330e-03
-1.197930e-02
-4.225180e-02
-1.709430e-02
-9.913360e-04
3.148620e-02
-5.664070e-03
-8.023330e-03
-6.962730e-02
-5.596550e-02
-1.709430e-02
8.892990e-03
3.148620e-02
6.478640e-02
-8.023330e-03
-1.197930e-02
-5.596550e-02
-4.330660e-02
-9.913360e-04
3.148620e-02
-7.966050e-03
1.025910e-02
-6.962730e-02
-5.596550e-02
1.870660e-02
5.171690e-03
3.148620e-02
6.478640e-02
1.025910e-02
2.770980e-02
-5.596550e-02
-4.330660e-02
5.171690e-03
-8.347270e-03
-7.966050e-03
1.025910e-02
-7.429290e-02
-3.684300e-02
1.870660e-02
5.171690e-03
3.192720e-02
4.982810e-03
1.025910e-02
2.770980e-02
-3.684300e-02
1.804070e-04
5.171690e-03
-8.347270e-03
4.982810e-03
-2.291470e-02
-7.429290e-02
-3.684300e-02
-6.136490e-02
-2.070120e-02
3.192720e-02
4.982810e-03
-4.744500e-03
-2.743350e-02
-3.684300e-02
1.804070e-04
-2.070120e-02
2.041540e-02
4.982810e-03
-2.291470e-02
-2.743350e-02
-4.979520e-02
-6.136490e-02
-2.070120e-02
-7.016820e-02
-4.269960e-02
-4.744500e-03
-2.743350e-02
4.269760e-02
8.731040e-03
-2.070120e-02
2.041540e-02
-4.269960e-02
-1.450220e-02
-2.743350e-02
-4.979520e-02
8.731040e-03
-2.280810e-02
-7.016820e-02
-4.269960e-02
-3.066830e-02
-2.889690e-02
4.269760e-02
8.731040e-03
4.267570e-02
1.927260e-02
-4.269960e-02
-1.450220e-02
-2.889690e-02
-2.626550e-02
8.731040e-03
-2.280810e-02
1.927260e-02
-3.935920e-03
-3.066830e-02
-2.889690e-02
-2.695430e-02
2.120290e-02
4.267570e-02
1.927260e-02
2.612630e-02
3.073050e-03
-2.889690e-02
-2.626550e-02
2.120290e-02
6.347970e-02
1.927260e-02
-3.935920e-03
3.073050e-03
-2.014720e-02
-2.695430e-02
2.120290e-02
-7.522380e-02
-4.011520e-02
2.612630e-02
3.073050e-03
5.673760e-02
1.455880e-02
2.120290e-02
6.347970e-02
-4.011520e-02
-6.475470e-03
3.073050e-03
-2.014720e-02
1.455880e-02
-2.885890e-02
-7.522380e-02
-4.011520e-02
6.989330e-02
2.250020e-02
5.673760e-02
1.455880e-02
3.089550e-02
3.653530e-03
-4.011520e-02
-6.475470e-03
2.250020e-02
-1.952700e-02
1.455880e-02
-2.885890e-02
3.653530e-03
-2.259390e-02
6.989330e-02
2.250020e-02
9.726860e-02
8.590060e-02
3.089550e-02
3.653530e-03
4.849160e-03
4.656420e-03
2.250020e-02
-1.952700e-02
8.590060e-02
7.532170e-02
3.653530e-03
-2.259390e-02
4.656420e-03
4.453180e-03
9.726860e-02
8.590060e-02
6.699120e-02
7.669250e-02
4.849160e-03
4.656420e-03
-2.125480e-02
-1.564900e-02
8.590060e-02
7.532170e-02
7.669250e-02
8.492250e-02
4.656420e-03
4.453180e-03
-1.564900e-02
-7.951320e-03
6.699120e-02
7.669250e-02
2.316730e-03
-9.629310e-03
-2.125480e-02
-1.564900e-02
-1.668800e-02
-1.395370e-02
7.669250e-02
8.492250e-02
-9.629310e-03
-2.214140e-02
-1.564900e-02
-7.951320e-03
-1.395370e-02
-1.122280e-02
2.316730e-03
-9.629310e-03
9.764700e-03
-4.792130e-03
-1.668800e-02
-1.395370e-02
-9.254720e-03
-3.632220e-03
-9.629310e-03
-2.214140e-02
-4.792130e-03
-2.008890e-02
-1.395370e-02
-1.122280e-02
-3.632220e-03
2.029050e-03
9.764700e-03
-4.792130e-03
4.144140e-02
3.517660e-03
-9.254720e-03
-3.632220e-03
3.923980e-02
3.318090e-02
-4.792130e-03
-2.008890e-02
3.517660e-03
-3.424500e-02
-3.632220e-03
2.029050e-03
3.318090e-02
2.696740e-02
4.144140e-02
3.517660e-03
1.159280e-01
8.702890e-02
3.923980e-02
3.318090e-02
3.822310e-03
-6.142340e-04
3.517660e-03
-3.424500e-02
8.702890e-02
6.091260e-02
3.318090e-02
2.696740e-02
-6.142340e-04
-6.597440e-03
1.159280e-01
8.702890e-02
3.945670e-02
1.470800e-02
3.822310e-03
-6.142340e-04
-1.430810e-02
-1.703820e-02
8.702890e-02
6.091260e-02
1.470800e-02
-1.138640e-02
-6.142340e-04
-6.597440e-03
-1.703820e-02
-1.962090e-02
3.945670e-02
1.470800e-02
-1.847790e-01
-1.283710e-01
-1.430810e-02
-1.703820e-02
3.282070e-02
1.551270e-02
1.470800e-02
-1.138640e-02
-1.283710e-01
-6.929810e-02
-1.703820e-02
-1.962090e-02
1.551270e-02
-1.071450e-03
-1.847790e-01
-1.283710e-01
-1.363870e-01
-8.087140e-02
3.282070e-02
1.551270e-02
2.522530e-02
6.996410e-03
-1.283710e-01
-6.929810e-02
-8.087140e-02
-2.363010e-02
1.551270e-02
-1.071450e-03
6.996410e-03
-1.019890e-02
-1.363870e-01
-8.087140e-02
-2.942890e-03
-6.716160e-03
2.522530e-02
6.996410e-03
-4.556680e-02
-1.972730e-02
-8.087140e-02
-2.363010e-02
-6.716160e-03
-1.410600e-02
6.996410e-03
-1.019890e-02
-1.972730e-02
5.563570e-03
-2.942890e-03
-6.716160e-03
3.727360e-02
-5.094880e-03
-4.556680e-02
-1.972730e-02
-3.766460e-02
-1.161580e-02
-6.716160e-03
-1.410600e-02
-5.094880e-03
-4.845010e-02
-1.972730e-02
5.563570e-03
-1.161580e-02
1.548340e-02
3.727360e-02
-5.094880e-03
-4.764900e-02
-4.542470e-02
-3.766460e-02
-1.161580e-02
3.070060e-02
2.778190e-02
-5.094880e-03
-4.845010e-02
-4.542470e-02
-4.275400e-02
-1.161580e-02
1.548340e-02
2.778190e-02
2.368870e-02
-4.764900e-02
-4.542470e-02
-2.777310e-02
8.373080e-03
3.070060e-02
2.778190e-02
-9.487230e-03
-1.469110e-02
-4.542470e-02
-4.275400e-02
8.373080e-03
4.271930e-02
2.778190e-02
2.368870e-02
-1.469110e-02
-1.748690e-02
-2.777310e-02
8.373080e-03
-2.814540e-03
2.646060e-02
-9.487230e-03
-1.469110e-02
-4.584970e-02
-3.815120e-02
8.373080e-03
4.271930e-02
2.646060e-02
5.662180e-02
-1.469110e-02
-1.748690e-02
-3.815120e-02
-2.829590e-02
-2.814540e-03
2.646060e-02
-1.189520e-01
-9.873740e-02
-4.584970e-02
-3.815120e-02
1.639760e-02
3.511760e-02
2.646060e-02
5.662180e-02
-9.873740e-02
-8.064690e-02
-3.815120e-02
-2.829590e-02
3.511760e-02
5.202850e-02
-1.189520e-01
-9.873740e-02
1.458390e-02
-2.988310e-02
1.639760e-02
3.511760e-02
-1.737790e-02
-2.005800e-03
-9.873740e-02
-8.064690e-02
-2.988310e-02
-7.348650e-02
3.511760e-02
5.202850e-02
-2.005800e-03
1.175580e-02
1.458390e-02
-2.988310e-02
1.455830e-01
9.565110e-02
-1.737790e-02
-2.005800e-03
-1.896730e-02
8.814570e-03
-2.988310e-02
-7.348650e-02
9.565110e-02
4.514250e-02
-2.005800e-03
1.175580e-02
8.814570e-03
3.491160e-02
1.455830e-01
9.565110e-02
1.748690e-01
1.186120e-01
-1.896730e-02
8.814570e-03
-2.693250e-02
2.892390e-03
9.565110e-02
4.514250e-02
1.186120e-01
6.009820e-02
8.814570e-03
3.491160e-02
2.892390e-03
3.430710e-02
0.000000e+00
0.000000e+00
-6.076960e-03
-1.275180e-02
0.000000e+00
0.000000e+00
-1.175360e-02
-3.572380e-02
0.000000e+00
0.000000e+00
-1.275180e-02
-2.061600e-02
0.000000e+00
0.000000e+00
-3.572380e-02
-6.017410e-02
-6.076960e-03
-1.275180e-02
3.107950e-02
8.504250e-03
-1.175360e-02
-3.572380e-02
-1.084470e-01
-8.061580e-02
-1.275180e-02
-2.061600e-02
8.504250e-03
-1.387400e-02
-3.572380e-02
-6.017410e-02
-8.061580e-02
-4.968150e-02
3.107950e-02
8.504250e-03
-5.664070e-03
-8.023330e-03
-1.084470e-01
-8.061580e-02
5.078440e-02
3.073490e-02
8.504250e-03
-1.387400e-02
-8.023330e-03
-1.197930e-02
-8.061580e-02
-4.968150e-02
3.073490e-02
1.062120e-02
-5.664070e-03
-8.023330e-03
-6.962730e-02
-5.596550e-02
5.078440e-02
3.073490e-02
1.349440e-01
8.171940e-02
-8.023330e-03
-1.197930e-02
-5.596550e-02
-4.330660e-02
3.073490e-02
1.062120e-02
8.171940e-02
2.512910e-02
-6.962730e-02
-5.596550e-02
1.870660e-02
5.171690e-03
1.349440e-01
8.171940e-02
-2.885970e-02
-1.972740e-02
-5.596550e-02
-4.330660e-02
5.171690e-03
-8.347270e-03
8.171940e-02
2.512910e-02
-1.972740e-02
-9.597020e-03
1.870660e-02
5.171690e-03
3.192720e-02
4.982810e-03
-2.885970e-02
-1.972740e-02
8.306240e-03
2.485140e-02
5.171690e-03
-8.347270e-03
4.982810e-03
-2.291470e-02
-1.972740e-02
-9.597020e-03
2.485140e-02
4.006360e-02
3.192720e-02
4.982810e-03
-4.744500e-03
-2.743350e-02
8.306240e-03
2.485140e-02
7.053200e-02
8.073240e-02
4.982810e-03
-2.291470e-02
-2.743350e-02
-4.979520e-02
2.485140e-02
4.006360e-02
8.073240e-02
9.079930e-02
-4.744500e-03
-2.743350e-02
4.269760e-02
8.731040e-03
7.053200e-02
8.073240e-02
-1.218870e-02
2.178960e-02
-2.743350e-02
-4.979520e-02
8.731040e-03
-2.280810e-02
8.073240e-02
9.079930e-02
2.178960e-02
5.750170e-02
4.269760e-02
8.731040e-03
4.267570e-02
1.927260e-02
-1.218870e-02
2.178960e-02
-5.439960e-02
-1.286470e-02
8.731040e-03
-2.280810e-02
1.927260e-02
-3.935920e-03
2.178960e-02
5.750170e-02
-1.286470e-02
2.878990e-02
4.267570e-02
1.927260e-02
2.612630e-02
3.073050e-03
-5.439960e-02
-1.286470e-02
-3.707860e-02
-2.669540e-02
1.927260e-02
-3.935920e-03
3.073050e-03
-2.014720e-02
-1.286470e-02
2.878990e-02
-2.669540e-02
-1.745340e-02
2.612630e-02
3.073050e-03
5.673760e-02
1.455880e-02
-3.707860e-02
-2.669540e-02
-2.864150e-02
1.469740e-02
3.073050e-03
-2.014720e-02
1.455880e-02
-2.885890e-02
-2.669540e-02
-1.745340e-02
1.469740e-02
5.850010e-02
5.673760e-02
1.455880e-02
3.089550e-02
3.653530e-03
-2.864150e-02
1.469740e-02
-1.332780e-01
-3.015560e-02
1.455880e-02
-2.885890e-02
3.653530e-03
-2.259390e-02
1.469740e-02
5.850010e-02
-3.015560e-02
7.107090e-02
3.089550e-02
3.653530e-03
4.849160e-03
4.656420e-03
-1.332780e-01
-3.015560e-02
-1.116010e-01
-1.022260e-01
3.653530e-03
-2.259390e-02
4.656420e-03
4.453180e-03
-3.015560e-02
7.107090e-02
-1.022260e-01
-9.246990e-02
4.849160e-03
4.656420e-03
-2.125480e-02
-1.564900e-02
-1.116010e-01
-1.022260e-01
-1.930250e-02
-4.299720e-02
4.656420e-03
4.453180e-03
-1.564900e-02
-7.951320e-03
-1.022260e-01
-9.246990e-02
-4.299720e-02
-6.716540e-02
-2.125480e-02
-1.564900e-02
-1.668800e-02
-1.395370e-02
-1.930250e-02
-4.299720e-02
3.097750e-02
3.689660e-02
-1.564900e-02
-7.951320e-03
-1.395370e-02
-1.122280e-02
-4.299720e-02
-6.716540e-02
3.689660e-02
4.484270e-02
-1.668800e-02
-1.395370e-02
-9.254720e-03
-3.632220e-03
3.097750e-02
3.689660e-02
1.320840e-02
1.696050e-02
-1.395370e-02
-1.122280e-02
-3.632220e-03
2.029050e-03
3.689660e-02
4.484270e-02
1.696050e-02
2.438950e-02
-9.254720e-03
-3.632220e-03
3.923980e-02
3.318090e-02
1.320840e-02
1.696050e-02
-1.156490e-01
-7.075220e-02
-3.632220e-03
2.029050e-03
3.318090e-02
2.696740e-02
1.696050e-02
2.438950e-02
-7.075220e-02
-2.400380e-02
3.923980e-02
3.318090e-02
3.822310e-03
-6.142340e-04
-1.156490e-01
-7.075220e-02
-1.238550e-01
-8.951000e-02
3.318090e-02
2.696740e-02
-6.142340e-04
-6.597440e-03
-7.075220e-02
-2.400380e-02
-8.951000e-02
-5.565470e-02
3.822310e-03
-6.142340e-04
-1.430810e-02
-1.703820e-02
-1.238550e-01
-8.951000e-02
-1.233820e-02
2.117140e-02
-6.142340e-04
-6.597440e-03
-1.703820e-02
-1.962090e-02
-8.951000e-02
-5.565470e-02
2.117140e-02
5.405670e-02
-1.430810e-02
-1.703820e-02
3.282070e-02
1.551270e-02
-1.233820e-02
2.117140e-02
1.159720e-01
9.330210e-02
-1.703820e-02
-1.962090e-02
1.551270e-02
-1.071450e-03
2.117140e-02
5.405670e-02
9.330210e-02
6.745160e-02
3.282070e-02
1.551270e-02
2.522530e-02
6.996410e-03
1.159720e-01
9.330210e-02
9.403450e-02
7.068680e-02
1.551270e-02
-1.071450e-03
6.996410e-03
-1.019890e-02
9.330210e-02
6.745160e-02
7.068680e-02
4.713450e-02
2.522530e-02
6.996410e-03
-4.556680e-02
-1.972730e-02
9.403450e-02
7.068680e-02
9.505980e-02
4.922470e-02
6.996410e-03
-1.019890e-02
-1.972730e-02
5.563570e-03
7.068680e-02
4.713450e-02
4.922470e-02
1.322570e-03
-4.556680e-02
-1.972730e-02
-3.766460e-02
-1.161580e-02
9.505980e-02
4.922470e-02
3.892150e-02
2.429660e-02
-1.972730e-02
5.563570e-03
-1.161580e-02
1.548340e-02
4.922470e-02
1.322570e-03
2.429660e-02
1.092000e-02
-3.766460e-02
-1.161580e-02
3.070060e-02
2.778190e-02
3.892150e-02
2.429660e-02
-1.667850e-02
-9.481300e-03
-1.161580e-02
1.548340e-02
2.778190e-02
2.368870e-02
2.429660e-02
1.092000e-02
-9.481300e-03
1.787160e-04
3.070060e-02
2.778190e-02
-9.487230e-03
-1.469110e-02
-1.667850e-02
-9.481300e-03
4.961680e-02
2.022560e-02
2.778190e-02
2.368870e-02
-1.469110e-02
-1.748690e-02
-9.481300e-03
1.787160e-04
2.022560e-02
-9.298540e-03
-9.487230e-03
-1.469110e-02
-4.584970e-02
-3.815120e-02
4.961680e-02
2.022560e-02
9.356560e-02
4.756130e-02
-1.469110e-02
-1.748690e-02
-3.815120e-02
-2.829590e-02
2.022560e-02
-9.298540e-03
4.756130e-02
5.899670e-04
-4.584970e-02
-3.815120e-02
1.639760e-02
3.511760e-02
9.356560e-02
4.756130e-02
8.309080e-02
3.032670e-02
-3.815120e-02
-2.829590e-02
3.511760e-02
5.202850e-02
4.756130e-02
5.899670e-04
3.032670e-02
-2.308300e-02
1.639760e-02
3.511760e-02
-1.737790e-02
-2.005800e-03
8.309080e-02
3.032670e-02
1.662930e-02
3.896400e-02
3.511760e-02
5.202850e-02
-2.005800e-03
1.175580e-02
3.032670e-02
-2.308300e-02
3.896400e-02
5.658430e-02
-1.737790e-02
-2.005800e-03
-1.896730e-02
8.814570e-03
1.662930e-02
3.896400e-02
-1.096300e-01
-1.152190e-01
-2.005800e-03
1.175580e-02
8.814570e-03
3.491160e-02
3.896400e-02
5.658430e-02
-1.152190e-01
-1.229840e-01
-1.896730e-02
8.814570e-03
-2.693250e-02
2.892390e-03
-1.096300e-01
-1.152190e-01
-1.213580e-01
-1.256870e-01
8.814570e-03
3.491160e-02
2.892390e-03
3.430710e-02
-1.152190e-01
-1.229840e-01
-1.256870e-01
-1.235930e-01
</DataArray>
<DataArray type="Float32" Name="V2" format="ascii">
0.000000e+00
0.000000e+00
-6.403000e-04
2.782650e-02
0.000000e+00
0.000000e+00
1.905120e-02
1.229880e-02
0.000000e+00
0.000000e+00
2.782650e-02
4.620580e-02
0.000000e+00
0.000000e+00
1.229880e-02
-3.005390e-04
-6.403000e-04
2.782650e-02
-1.951340e-01
-8.195390e-02
1.905120e-02
1.229880e-02
1.022290e-01
6.019700e-02
2.782650e-02
4.620580e-02
-8.195390e-02
-5.605910e-02
1.229880e-02
-3.005390e-04
6.019700e-02
5.400040e-02
-1.951340e-01
-8.195390e-02
-2.488460e-01
-7.683790e-02
1.022290e-01
6.019700e-02
7.924730e-02
5.819980e-02
-8.195390e-02
-5.605910e-02
-7.683790e-02
1.595360e-02
6.019700e-02
5.400040e-02
5.819980e-02
1.880450e-02
-2.488460e-01
-7.683790e-02
-4.072500e-02
-6.552270e-03
7.924730e-02
5.819980e-02
-2.396220e-02
-3.858040e-02
-7.683790e-02
1.595360e-02
-6.552270e-03
-1.012400e-03
5.819980e-02
1.880450e-02
-3.858040e-02
-2.553180e-02
-4.072500e-02
-6.552270e-03
2.158470e-02
-4.819260e-02
-2.396220e-02
-3.858040e-02
-4.355680e-02
-5.774820e-02
-6.552270e-03
-1.012400e-03
-4.819260e-02
-1.190150e-01
-3.858040e-02
-2.553180e-02
-5.774820e-02
-1.707700e-02
2.158470e-02
-4.819260e-02
9.862170e-02
2.051490e-02
-4.355680e-02
-5.774820e-02
-4.743290e-02
-8.722050e-03
-4.819260e-02
-1.190150e-01
2.051490e-02
-6.343930e-03
-5.774820e-02
-1.707700e-02
-8.722050e-03
5.234790e-04
9.862170e-02
2.051490e-02
2.038660e-01
1.751070e-01
-4.743290e-02
-8.722050e-03
-6.280540e-02
-4.623290e-02
2.051490e-02
-6.343930e-03
1.751070e-01
1.361080e-01
-8.722050e-03
5.234790e-04
-4.623290e-02
-4.188660e-02
2.038660e-01
1.751070e-01
7.818230e-02
9.293340e-02
-6.280540e-02
-4.623290e-02
4.550320e-02
3.594070e-02
1.751070e-01
1.361080e-01
9.293340e-02
7.642040e-02
-4.623290e-02
-4.188660e-02
3.594070e-02
2.958960e-02
7.818230e-02
9.293340e-02
-3.240140e-02
-3.713260e-02
4.550320e-02
3.594070e-02
4.602270e-02
7.635860e-02
9.293340e-02
7.642040e-02
-3.713260e-02
-4.479190e-02
3.594070e-02
2.958960e-02
7.635860e-02
6.705150e-02
-3.240140e-02
-3.713260e-02
2.434850e-02
4.443670e-02
4.602270e-02
7.635860e-02
-5.171340e-02
-3.508380e-02
-3.713260e-02
-4.479190e-02
4.443670e-02
8.365620e-02
7.635860e-02
6.705150e-02
-3.508380e-02
-2.948940e-02
2.434850e-02
4.443670e-02
8.071750e-02
7.334440e-02
-5.171340e-02
-3.508380e-02
-1.000400e-01
-8.944020e-02
4.443670e-02
8.365620e-02
7.334440e-02
1.717530e-01
-3.508380e-02
-2.948940e-02
-8.944020e-02
-7.708110e-02
8.071750e-02
7.334440e-02
1.651290e-01
7.912150e-02
-1.000400e-01
-8.944020e-02
-4.597360e-02
-2.333540e-02
7.334440e-02
1.717530e-01
7.912150e-02
8.635870e-02
-8.944020e-02
-7.708110e-02
-2.333540e-02
-1.873040e-02
1.651290e-01
7.912150e-02
2.464440e-01
1.876120e-01
-4.597360e-02
-2.333540e-02
-5.762000e-03
-1.431720e-03
7.912150e-02
8.635870e-02
1.876120e-01
1.270140e-01
-2.333540e-02
-1.873040e-02
-1.431720e-03
2.159040e-02
2.464440e-01
1.876120e-01
1.906050e-01
1.296030e-01
-5.762000e-03
-1.431720e-03
-4.704420e-03
-1.272720e-02
1.876120e-01
1.270140e-01
1.296030e-01
1.115570e-01
-1.431720e-03
2.159040e-02
-1.272720e-02
8.931560e-03
1.906050e-01
1.296030e-01
1.353620e-02
-6.858870e-02
-4.704420e-03
-1.272720e-02
7.481620e-02
6.927230e-02
1.296030e-01
1.115570e-01
-6.858870e-02
-9.987950e-02
-1.272720e-02
8.931560e-03
6.927230e-02
5.489940e-02
1.353620e-02
-6.858870e-02
-1.807590e-01
-2.339470e-01
7.481620e-02
6.927230e-02
9.860260e-02
9.203790e-02
-6.858870e-02
-9.987950e-02
-2.339470e-01
-2.281670e-01
6.927230e-02
5.489940e-02
9.203790e-02
5.927330e-02
-1.807590e-01
-2.339470e-01
-1.671910e-01
-1.776730e-01
9.860260e-02
9.203790e-02
3.777510e-02
3.139850e-02
-2.339470e-01
-2.281670e-01
-1.776730e-01
-1.079060e-01
9.203790e-02
5.927330e-02
3.139850e-02
2.717170e-02
-1.671910e-01
-1.776730e-01
9.604170e-02
1.211580e-01
3.777510e-02
3.139850e-02
-8.219520e-02
-5.942770e-02
-1.776730e-01
-1.079060e-01
1.211580e-01
1.736850e-01
3.139850e-02
2.717170e-02
-5.942770e-02
-4.995910e-02
9.604170e-02
1.211580e-01
1.333320e-01
1.413380e-01
-8.219520e-02
-5.942770e-02
-7.669460e-02
-7.764400e-02
1.211580e-01
1.736850e-01
1.413380e-01
1.308240e-01
-5.942770e-02
-4.995910e-02
-7.764400e-02
-7.920700e-02
1.333320e-01
1.413380e-01
-8.805620e-03
-5.633780e-02
-7.669460e-02
-7.764400e-02
1.620020e-02
-2.461270e-03
1.413380e-01
1.308240e-01
-5.633780e-02
-1.738010e-01
-7.764400e-02
-7.920700e-02
-2.461270e-03
1.082780e-02
-8.805620e-03
-5.633780e-02
-1.472810e-01
-1.602900e-01
1.620020e-02
-2.461270e-03
1.023640e-01
8.973740e-02
-5.633780e-02
-1.738010e-01
-1.602900e-01
-1.212260e-01
-2.461270e-03
1.082780e-02
8.973740e-02
5.414050e-02
-1.472810e-01
-1.602900e-01
-1.485840e-01
-1.831620e-01
1.023640e-01
8.973740e-02
8.209310e-02
7.327030e-02
-1.602900e-01
-1.212260e-01
-1.831620e-01
-9.104290e-02
8.973740e-02
5.414050e-02
7.327030e-02
3.974940e-02
-1.485840e-01
-1.831620e-01
2.967950e-03
2.218420e-02
8.209310e-02
7.327030e-02
-3.335920e-02
-4.159370e-02
-1.831620e-01
-9.104290e-02
2.218420e-02
1.057150e-02
7.327030e-02
3.974940e-02
-4.159370e-02
-9.088080e-03
2.967950e-03
2.218420e-02
6.472100e-02
1.856520e-01
-3.335920e-02
-4.159370e-02
-7.854340e-02
-9.280230e-02
2.218420e-02
1.057150e-02
1.856520e-01
1.633500e-01
-4.159370e-02
-9.088080e-03
-9.280230e-02
-9.650770e-02
6.472100e-02
1.856520e-01
6.897660e-02
1.245020e-01
-7.854340e-02
-9.280230e-02
-2.783260e-02
-3.071730e-02
1.856520e-01
1.633500e-01
1.245020e-01
1.175380e-01
-9.280230e-02
-9.650770e-02
-3.071730e-02
-4.569770e-02
6.897660e-02
1.245020e-01
7.382350e-02
-1.714650e-02
-2.783260e-02
-3.071730e-02
7.140930e-02
5.954550e-02
1.245020e-01
1.175380e-01
-1.714650e-02
-2.570280e-02
-3.071730e-02
-4.569770e-02
5.954550e-02
5.336350e-02
7.382350e-02
-1.714650e-02
5.438380e-03
-1.500880e-01
7.140930e-02
5.954550e-02
1.103240e-01
1.173200e-01
-1.714650e-02
-2.570280e-02
-1.500880e-01
-1.707010e-01
5.954550e-02
5.336350e-02
1.173200e-01
1.264900e-01
5.438380e-03
-1.500880e-01
2.390660e-02
-8.662500e-02
1.103240e-01
1.173200e-01
2.351670e-02
3.979970e-02
-1.500880e-01
-1.707010e-01
-8.662500e-02
-8.704000e-02
1.173200e-01
1.264900e-01
3.979970e-02
2.442800e-02
2.390660e-02
-8.662500e-02
6.672030e-02
5.325400e-02
2.351670e-02
3.979970e-02
-9.154330e-02
-5.408800e-02
-8.662500e-02
-8.704000e-02
5.325400e-02
7.937460e-02
3.979970e-02
2.442800e-02
-5.408800e-02
-4.432550e-02
6.672030e-02
5.325400e-02
1.100690e-01
8.996340e-02
-9.154330e-02
-5.408800e-02
-9.114400e-02
-3.619330e-02
5.325400e-02
7.937460e-02
8.996340e-02
6.409250e-02
-5.408800e-02
-4.432550e-02
-3.619330e-02
5.135180e-02
0.000000e+00
0.000000e+00
1.905120e-02
1.229880e-02
0.000000e+00
0.000000e+00
-3.857530e-02
-4.860880e-02
0.000000e+00
0.000000e+00
1.229880e-02
-3.005390e-04
0.000000e+00
0.000000e+00
-4.860880e-02
-3.555610e-02
1.905120e-02
1.229880e-02
1.022290e-01
6.019700e-02
-3.857530e-02
-4.860880e-02
6.991640e-04
-4.758590e-02
1.229880e-02
-3.005390e-04
6.019700e-02
5.400040e-02
-4.860880e-02
-3.555610e-02
-4.758590e-02
-4.842770e-02
1.022290e-01