<?xml version="1.0"?>
<VTKFile type="UnstructuredGrid" version="0.1" byte_order="LittleEndian" compressor="vtkZLibDataCompressor">
<UnstructuredGrid>
<Piece NumberOfPoints="960" NumberOfCells="120">
<Points>
<DataArray type="Float32" NumberOfComponents="3" format="ascii">
-4.000000e+02 -6.000000e+03 -4.000000e+02
0.000000e+00 -6.000000e+03 -4.000000e+02
-4.000100e+02 -5.600090e+03 -4.001690e+02
-2.528550e-02 -5.600100e+03 -4.001580e+02
-4.000000e+02 -6.000000e+03 0.000000e+00
0.000000e+00 -6.000000e+03 0.000000e+00
-3.999950e+02 -5.599990e+03 -1.125510e-01
7.097450e-03 -5.599990e+03 -8.956710e-02
0.000000e+00 -6.000000e+03 -4.000000e+02
4.000000e+02 -6.000000e+03 -4.000000e+02
-2.528550e-02 -5.600100e+03 -4.001580e+02
3.999590e+02 -5.600100e+03 -4.001840e+02
0.000000e+00 -6.000000e+03 0.000000e+00
4.000000e+02 -6.000000e+03 0.000000e+00
7.097450e-03 -5.599990e+03 -8.956710e-02
4.000090e+02 -5.599990e+03 -9.818440e-02
-4.000100e+02 -5.600090e+03 -4.001690e+02
-2.528550e-02 -5.600100e+03 -4.001580e+02
-3.999980e+02 -5.200200e+03 -4.003060e+02
-1.801220e-02 -5.200220e+03 -4.003010e+02
-3.999950e+02 -5.599990e+03 -1.125510e-01
7.097450e-03 -5.599990e+03 -8.956710e-02
-3.999940e+02 -5.200030e+03 -2.661510e-01
9.461240e-03 -5.200030e+03 -2.484960e-01
-2.528550e-02 -5.600100e+03 -4.001580e+02
3.999590e+02 -5.600100e+03 -4.001840e+02
-1.801220e-02 -5.200220e+03 -4.003010e+02
3.999620e+02 -5.200240e+03 -4.003470e+02
7.097450e-03 -5.599990e+03 -8.956710e-02
4.000090e+02 -5.599990e+03 -9.818440e-02
9.461240e-03 -5.200030e+03 -2.484960e-01
4.000130e+02 -5.200030e+03 -2.702080e-01
-3.999980e+02 -5.200200e+03 -4.003060e+02
-1.801220e-02 -5.200220e+03 -4.003010e+02
-4.000320e+02 -4.800340e+03 -4.004910e+02
-3.089540e-02 -4.800360e+03 -4.005600e+02
-3.999940e+02 -5.200030e+03 -2.661510e-01
9.461240e-03 -5.200030e+03 -2.484960e-01
-3.999930e+02 -4.800040e+03 -5.549590e-01
4.664560e-03 -4.800040e+03 -6.181900e-01
-1.801220e-02 -5.200220e+03 -4.003010e+02
3.999620e+02 -5.200240e+03 -4.003470e+02
-3.089540e-02 -4.800360e+03 -4.005600e+02
3.999700e+02 -4.800370e+03 -4.006320e+02
9.461240e-03 -5.200030e+03 -2.484960e-01
4.000130e+02 -5.200030e+03 -2.702080e-01
4.664560e-03 -4.800040e+03 -6.181900e-01
4.000030e+02 -4.800040e+03 -6.851150e-01
-4.000320e+02 -4.800340e+03 -4.004910e+02
-3.089540e-02 -4.800360e+03 -4.005600e+02
-4.000970e+02 -4.400430e+03 -4.006970e+02
-8.012530e-02 -4.400440e+03 -4.008340e+02
-3.999930e+02 -4.800040e+03 -5.549590e-01
4.664560e-03 -4.800040e+03 -6.181900e-01
-3.999950e+02 -4.400000e+03 -8.646420e-01
-2.758020e-05 -4.400000e+03 -9.844680e-01
-3.089540e-02 -4.800360e+03 -4.005600e+02
3.999700e+02 -4.800370e+03 -4.006320e+02
-8.012530e-02 -4.400440e+03 -4.008340e+02
3.999370e+02 -4.400440e+03 -4.009360e+02
4.664560e-03 -4.800040e+03 -6.181900e-01
4.000030e+02 -4.800040e+03 -6.851150e-01
-2.758020e-05 -4.400000e+03 -9.844680e-01
3.999950e+02 -4.400000e+03 -1.089820e+00
-4.000970e+02 -4.400430e+03 -4.006970e+02
-8.012530e-02 -4.400440e+03 -4.008340e+02
-4.001670e+02 -4.000450e+03 -4.010690e+02
-1.419690e-01 -4.000460e+03 -4.012500e+02
-3.999950e+02 -4.400000e+03 -8.646420e-01
-2.758020e-05 -4.400000e+03 -9.844680e-01
-3.999920e+02 -3.999950e+03 -1.168490e+00
1.608160e-03 -3.999960e+03 -1.326720e+00
-8.012530e-02 -4.400440e+03 -4.008340e+02
3.999370e+02 -4.400440e+03 -4.009360e+02
-1.419690e-01 -4.000460e+03 -4.012500e+02
3.998840e+02 -4.000460e+03 -4.013830e+02
-2.758020e-05 -4.400000e+03 -9.844680e-01
3.999950e+02 -4.400000e+03 -1.089820e+00
1.608160e-03 -3.999960e+03 -1.326720e+00
3.999960e+02 -3.999960e+03 -1.457070e+00
-4.001670e+02 -4.000450e+03 -4.010690e+02
-1.419690e-01 -4.000460e+03 -4.012500e+02
-4.001880e+02 -3.600350e+03 -4.015220e+02
-1.784340e-01 -3.600360e+03 -4.017210e+02
-3.999920e+02 -3.999950e+03 -1.168490e+00
1.608160e-03 -3.999960e+03 -1.326720e+00
-3.999880e+02 -3.599970e+03 -1.493870e+00
9.571800e-03 -3.599980e+03 -1.671560e+00
-1.419690e-01 -4.000460e+03 -4.012500e+02
3.998840e+02 -4.000460e+03 -4.013830e+02
-1.784340e-01 -3.600360e+03 -4.017210e+02
3.998310e+02 -3.600340e+03 -4.019090e+02
1.608160e-03 -3.999960e+03 -1.326720e+00
3.999960e+02 -3.999960e+03 -1.457070e+00
9.571800e-03 -3.599980e+03 -1.671560e+00
4.000080e+02 -3.599980e+03 -1.842700e+00
-4.001880e+02 -3.600350e+03 -4.015220e+02
-1.784340e-01 -3.600360e+03 -4.017210e+02
-4.001580e+02 -3.200280e+03 -4.017940e+02
-1.849260e-01 -3.200270e+03 -4.019520e+02
-3.999880e+02 -3.599970e+03 -1.493870e+00
9.571800e-03 -3.599980e+03 -1.671560e+00
-3.999980e+02 -3.200030e+03 -1.812000e+00
7.046600e-03 -3.200030e+03 -1.966500e+00
-1.784340e-01 -3.600360e+03 -4.017210e+02
3.998310e+02 -3.600340e+03 -4.019090e+02
-1.849260e-01 -3.200270e+03 -4.019520e+02
3.997880e+02 -3.200250e+03 -4.021720e+02
9.571800e-03 -3.599980e+03 -1.671560e+00
4.000080e+02 -3.599980e+03 -1.842700e+00
7.046600e-03 -3.200030e+03 -1.966500e+00
4.000120e+02 -3.200040e+03 -2.165470e+00
-4.001580e+02 -3.200280e+03 -4.017940e+02
-1.849260e-01 -3.200270e+03 -4.019520e+02
-4.001790e+02 -2.800380e+03 -4.020200e+02
-1.997830e-01 -2.800380e+03 -4.021950e+02
-3.999980e+02 -3.200030e+03 -1.812000e+00
7.046600e-03 -3.200030e+03 -1.966500e+00
-4.000040e+02 -2.800020e+03 -2.171760e+00
4.355890e-03 -2.800020e+03 -2.354000e+00
-1.849260e-01 -3.200270e+03 -4.019520e+02
3.997880e+02 -3.200250e+03 -4.021720e+02
-1.997830e-01 -2.800380e+03 -4.021950e+02
3.997800e+02 -2.800370e+03 -4.024290e+02
7.046600e-03 -3.200030e+03 -1.966500e+00
4.000120e+02 -3.200040e+03 -2.165470e+00
4.355890e-03 -2.800020e+03 -2.354000e+00
4.000130e+02 -2.800030e+03 -2.561970e+00
-4.001790e+02 -2.800380e+03 -4.020200e+02
-1.997830e-01 -2.800380e+03 -4.021950e+02
-4.001720e+02 -2.400510e+03 -4.026500e+02
-1.793480e-01 -2.400510e+03 -4.028150e+02
-4.000040e+02 -2.800020e+03 -2.171760e+00
4.355890e-03 -2.800020e+03 -2.354000e+00
-4.000060e+02 -2.399970e+03 -2.756500e+00
3.700450e-05 -2.399970e+03 -2.926950e+00
-1.997830e-01 -2.800380e+03 -4.021950e+02
3.997800e+02 -2.800370e+03 -4.024290e+02
-1.793480e-01 -2.400510e+03 -4.028150e+02
3.998130e+02 -2.400500e+03 -4.030010e+02
4.355890e-03 -2.800020e+03 -2.354000e+00
4.000130e+02 -2.800030e+03 -2.561970e+00
3.700450e-05 -2.399970e+03 -2.926950e+00
4.000060e+02 -2.399970e+03 -3.103100e+00
-4.001720e+02 -2.400510e+03 -4.026500e+02
-1.793480e-01 -2.400510e+03 -4.028150e+02
-4.001300e+02 -2.000480e+03 -4.032880e+02
-1.175330e-01 -2.000490e+03 -4.033960e+02
-4.000060e+02 -2.399970e+03 -2.756500e+00
3.700450e-05 -2.399970e+03 -2.926950e+00
-4.000010e+02 -1.999990e+03 -3.279570e+00
-9.688010e-04 -1.999990e+03 -3.389050e+00
-1.793480e-01 -2.400510e+03 -4.028150e+02
3.998130e+02 -2.400500e+03 -4.030010e+02
-1.175330e-01 -2.000490e+03 -4.033960e+02
3.998940e+02 -2.000510e+03 -4.034750e+02
3.700450e-05 -2.399970e+03 -2.926950e+00
4.000060e+02 -2.399970e+03 -3.103100e+00
-9.688010e-04 -1.999990e+03 -3.389050e+00
4.000000e+02 -1.999980e+03 -3.472860e+00
-4.001300e+02 -2.000480e+03 -4.032880e+02
-1.175330e-01 -2.000490e+03 -4.033960e+02
-4.000380e+02 -1.600440e+03 -4.037780e+02
-2.474460e-02 -1.600440e+03 -4.038290e+02
-4.000010e+02 -1.999990e+03 -3.279570e+00
-9.688010e-04 -1.999990e+03 -3.389050e+00
-3.999950e+02 -1.600020e+03 -3.782200e+00
5.480660e-03 -1.600020e+03 -3.827610e+00
-1.175330e-01 -2.000490e+03 -4.033960e+02
3.998940e+02 -2.000510e+03 -4.034750e+02
-2.474460e-02 -1.600440e+03 -4.038290e+02
3.999880e+02 -1.600450e+03 -4.038630e+02
-9.688010e-04 -1.999990e+03 -3.389050e+00
4.000000e+02 -1.999980e+03 -3.472860e+00
5.480660e-03 -1.600020e+03 -3.827610e+00
4.000060e+02 -1.600010e+03 -3.851620e+00
-4.000380e+02 -1.600440e+03 -4.037780e+02
-2.474460e-02 -1.600440e+03 -4.038290e+02
-3.999670e+02 -1.200390e+03 -4.042590e+02
4.084920e-02 -1.200370e+03 -4.042310e+02
-3.999950e+02 -1.600020e+03 -3.782200e+00
5.480660e-03 -1.600020e+03 -3.827610e+00
-3.999940e+02 -1.200020e+03 -4.319670e+00
1.063130e-02 -1.200010e+03 -4.272430e+00
-2.474460e-02 -1.600440e+03 -4.038290e+02
3.999880e+02 -1.600450e+03 -4.038630e+02
4.084920e-02 -1.200370e+03 -4.042310e+02
4.000480e+02 -1.200340e+03 -4.042080e+02
5.480660e-03 -1.600020e+03 -3.827610e+00
4.000060e+02 -1.600010e+03 -3.851620e+00
1.063130e-02 -1.200010e+03 -4.272430e+00
4.000150e+02 -1.200010e+03 -4.217530e+00
-3.999670e+02 -1.200390e+03 -4.042590e+02
4.084920e-02 -1.200370e+03 -4.042310e+02
-3.998590e+02 -8.003450e+02 -4.046850e+02
1.278690e-01 -8.003530e+02 -4.045420e+02
-3.999940e+02 -1.200020e+03 -4.319670e+00
1.063130e-02 -1.200010e+03 -4.272430e+00
-3.999910e+02 -7.999990e+02 -4.765830e+00
9.614590e-03 -7.999970e+02 -4.593320e+00
4.084920e-02 -1.200370e+03 -4.042310e+02
4.000480e+02 -1.200340e+03 -4.042080e+02
1.278690e-01 -8.003530e+02 -4.045420e+02
4.001150e+02 -8.003340e+02 -4.044290e+02
1.063130e-02 -1.200010e+03 -4.272430e+00
4.000150e+02 -1.200010e+03 -4.217530e+00
9.614590e-03 -7.999970e+02 -4.593320e+00
4.000100e+02 -7.999930e+02 -4.446740e+00
-3.998590e+02 -8.003450e+02 -4.046850e+02
1.278690e-01 -8.003530e+02 -4.045420e+02
-3.997790e+02 -4.003620e+02 -4.052020e+02
2.016310e-01 -4.003750e+02 -4.050230e+02
-3.999910e+02 -7.999990e+02 -4.765830e+00
9.614590e-03 -7.999970e+02 -4.593320e+00
-3.999890e+02 -3.999930e+02 -5.235410e+00
2.764150e-03 -3.999920e+02 -5.035210e+00
1.278690e-01 -8.003530e+02 -4.045420e+02
4.001150e+02 -8.003340e+02 -4.044290e+02
2.016310e-01 -4.003750e+02 -4.050230e+02
4.001820e+02 -4.003890e+02 -4.048430e+02
9.614590e-03 -7.999970e+02 -4.593320e+00
4.000100e+02 -7.999930e+02 -4.446740e+00
2.764150e-03 -3.999920e+02 -5.035210e+00
3.999950e+02 -3.999890e+02 -4.863600e+00
-3.997790e+02 -4.003620e+02 -4.052020e+02
2.016310e-01 -4.003750e+02 -4.050230e+02
-3.997980e+02 -3.394550e-01 -4.055210e+02
2.071450e-01 -3.219350e-01 -4.053670e+02
-3.999890e+02 -3.999930e+02 -5.235410e+00
2.764150e-03 -3.999920e+02 -5.035210e+00
-3.999880e+02 -2.681610e-03 -5.543620e+00
1.956700e-03 9.418020e-04 -5.364640e+00
2.016310e-01 -4.003750e+02 -4.050230e+02
4.001820e+02 -4.003890e+02 -4.048430e+02
[...]
<PointData>
<DataArray type="Float32" Name="V1" format="ascii">
0.000000e+00
0.000000e+00
-3.399660e-02
7.107620e-03
0.000000e+00
0.000000e+00
3.755390e-02
1.533540e-02
0.000000e+00
0.000000e+00
7.107620e-03
4.811290e-02
0.000000e+00
0.000000e+00
1.533540e-02
-7.153500e-03
-3.399660e-02
7.107620e-03
-4.079330e-02
1.884540e-02
3.755390e-02
1.533540e-02
1.434460e-02
-1.178410e-02
7.107620e-03
4.811290e-02
1.884540e-02
7.865050e-02
1.533540e-02
-7.153500e-03
-1.178410e-02
-3.771430e-02
-4.079330e-02
1.884540e-02
-2.743610e-03
1.531300e-02
1.434460e-02
-1.178410e-02
1.710240e-03
-2.635140e-03
1.884540e-02
7.865050e-02
1.531300e-02
3.324260e-02
-1.178410e-02
-3.771430e-02
-2.635140e-03
-6.819550e-03
-2.743610e-03
1.531300e-02
5.303930e-02
1.752290e-02
1.710240e-03
-2.635140e-03
1.338550e-02
7.610720e-03
1.531300e-02
3.324260e-02
1.752290e-02
-1.813360e-02
-2.635140e-03
-6.819550e-03
7.610720e-03
1.799180e-03
5.303930e-02
1.752290e-02
3.104440e-02
3.796730e-02
1.338550e-02
7.610720e-03
1.044240e-02
-8.751180e-03
1.752290e-02
-1.813360e-02
3.796730e-02
4.477590e-02
7.610720e-03
1.799180e-03
-8.751180e-03
-2.774590e-02
3.104440e-02
3.796730e-02
-2.291420e-02
1.427330e-02
1.044240e-02
-8.751180e-03
5.359740e-03
-4.886310e-03
3.796730e-02
4.477590e-02
1.427330e-02
5.168050e-02
-8.751180e-03
-2.774590e-02
-4.886310e-03
-1.502410e-02
-2.291420e-02
1.427330e-02
-4.024160e-02
-1.035470e-03
5.359740e-03
-4.886310e-03
3.173260e-02
2.747320e-02
1.427330e-02
5.168050e-02
-1.035470e-03
3.803800e-02
-4.886310e-03
-1.502410e-02
2.747320e-02
2.355590e-02
-4.024160e-02
-1.035470e-03
-6.496090e-02
-5.499400e-02
3.173260e-02
2.747320e-02
3.214130e-02
2.744350e-02
-1.035470e-03
3.803800e-02
-5.499400e-02
-4.477780e-02
2.747320e-02
2.355590e-02
2.744350e-02
2.306600e-02
-6.496090e-02
-5.499400e-02
-8.099430e-02
-9.990960e-02
3.214130e-02
2.744350e-02
2.286440e-02
2.496240e-02
-5.499400e-02
-4.477780e-02
-9.990960e-02
-1.186040e-01
2.744350e-02
2.306600e-02
2.496240e-02
2.704930e-02
-8.099430e-02
-9.990960e-02
-1.423210e-02
-3.545790e-02
2.286440e-02
2.496240e-02
5.338340e-03
8.062200e-03
-9.990960e-02
-1.186040e-01
-3.545790e-02
-5.688460e-02
2.496240e-02
2.704930e-02
8.062200e-03
1.080550e-02
-1.423210e-02
-3.545790e-02
-5.609930e-03
-2.201150e-02
5.338340e-03
8.062200e-03
-3.648310e-03
-2.803730e-03
-3.545790e-02
-5.688460e-02
-2.201150e-02
-3.849190e-02
8.062200e-03
1.080550e-02
-2.803730e-03
-1.803330e-03
-5.609930e-03
-2.201150e-02
-4.083300e-03
-7.629190e-03
-3.648310e-03
-2.803730e-03
-1.415060e-02
-7.798280e-03
-2.201150e-02
-3.849190e-02
-7.629190e-03
-1.101160e-02
-2.803730e-03
-1.803330e-03
-7.798280e-03
-1.338460e-03
-4.083300e-03
-7.629190e-03
4.534060e-03
2.387600e-02
-1.415060e-02
-7.798280e-03
-1.628090e-02
-6.132980e-03
-7.629190e-03
-1.101160e-02
2.387600e-02
4.314650e-02
-7.798280e-03
-1.338460e-03
-6.132980e-03
3.941760e-03
4.534060e-03
2.387600e-02
5.183420e-02
5.001420e-02
-1.628090e-02
-6.132980e-03
-1.180000e-02
-1.435470e-02
2.387600e-02
4.314650e-02
5.001420e-02
4.784230e-02
-6.132980e-03
3.941760e-03
-1.435470e-02
-1.693640e-02
5.183420e-02
5.001420e-02
6.683210e-02
5.528030e-02
-1.180000e-02
-1.435470e-02
8.087230e-04
-7.238140e-03
5.001420e-02
4.784230e-02
5.528030e-02
4.355710e-02
-1.435470e-02
-1.693640e-02
-7.238140e-03
-1.521830e-02
6.683210e-02
5.528030e-02
4.285700e-02
3.824800e-03
8.087230e-04
-7.238140e-03
-2.833660e-03
5.232220e-03
5.528030e-02
4.355710e-02
3.824800e-03
-3.548210e-02
-7.238140e-03
-1.521830e-02
5.232220e-03
1.333450e-02
4.285700e-02
3.824800e-03
2.796990e-03
-1.083760e-02
-2.833660e-03
5.232220e-03
-1.483590e-02
-5.647880e-03
3.824800e-03
-3.548210e-02
-1.083760e-02
-2.431990e-02
5.232220e-03
1.333450e-02
-5.647880e-03
3.525940e-03
2.796990e-03
-1.083760e-02
-4.656240e-02
-5.545310e-03
-1.483590e-02
-5.647880e-03
4.595070e-03
4.176210e-03
-1.083760e-02
-2.431990e-02
-5.545310e-03
3.510890e-02
-5.647880e-03
3.525940e-03
4.176210e-03
3.915050e-03
-4.656240e-02
-5.545310e-03
-3.639880e-03
1.471970e-02
4.595070e-03
4.176210e-03
-3.437950e-03
-2.071830e-03
-5.545310e-03
3.510890e-02
1.471970e-02
3.273860e-02
4.176210e-03
3.915050e-03
-2.071830e-03
-5.171830e-04
-3.639880e-03
1.471970e-02
1.134140e-02
1.129950e-02
-3.437950e-03
-2.071830e-03
-9.694530e-04
1.128140e-02
1.471970e-02
3.273860e-02
1.129950e-02
1.163000e-02
-2.071830e-03
-5.171830e-04
1.128140e-02
2.356840e-02
1.134140e-02
1.129950e-02
5.181020e-02
1.669640e-02
-9.694530e-04
1.128140e-02
-1.970030e-03
1.596690e-02
1.129950e-02
1.163000e-02
1.669640e-02
-1.812430e-02
1.128140e-02
2.356840e-02
1.596690e-02
3.388690e-02
5.181020e-02
1.669640e-02
3.927020e-02
2.079940e-02
-1.970030e-03
1.596690e-02
-8.669420e-03
3.787470e-03
1.669640e-02
-1.812430e-02
2.079940e-02
1.839320e-03
1.596690e-02
3.388690e-02
3.787470e-03
1.613860e-02
3.927020e-02
2.079940e-02
4.210260e-03
5.979300e-03
-8.669420e-03
3.787470e-03
-2.671120e-03
4.098420e-03
2.079940e-02
1.839320e-03
5.979300e-03
7.393810e-03
3.787470e-03
1.613860e-02
4.098420e-03
1.070520e-02
4.210260e-03
5.979300e-03
-7.916060e-02
-4.438260e-02
-2.671120e-03
4.098420e-03
-4.505290e-03
-2.341510e-03
5.979300e-03
7.393810e-03
-4.438260e-02
-9.588440e-03
4.098420e-03
1.070520e-02
-2.341510e-03
-4.381890e-04
-7.916060e-02
-4.438260e-02
-6.047630e-02
-4.504490e-02
-4.505290e-03
-2.341510e-03
-1.544280e-02
-1.581940e-03
-4.438260e-02
-9.588440e-03
-4.504490e-02
-2.961440e-02
-2.341510e-03
-4.381890e-04
-1.581940e-03
1.195050e-02
-6.047630e-02
-4.504490e-02
2.296430e-02
-7.317310e-03
-1.544280e-02
-1.581940e-03
-2.823900e-02
-1.163820e-02
-4.504490e-02
-2.961440e-02
-7.317310e-03
-3.749270e-02
-1.581940e-03
1.195050e-02
-1.163820e-02
4.882890e-03
2.296430e-02
-7.317310e-03
3.203700e-03
-9.405460e-03
-2.823900e-02
-1.163820e-02
1.041860e-02
-7.255000e-03
-7.317310e-03
-3.749270e-02
-9.405460e-03
-2.177370e-02
-1.163820e-02
4.882890e-03
-7.255000e-03
-2.498630e-02
3.203700e-03
-9.405460e-03
-1.870640e-02
-1.735360e-02
1.041860e-02
-7.255000e-03
4.083180e-02
5.951780e-03
-9.405460e-03
-2.177370e-02
-1.735360e-02
-1.633640e-02
-7.255000e-03
-2.498630e-02
5.951780e-03
-2.922600e-02
-1.870640e-02
-1.735360e-02
-1.113060e-03
1.035250e-02
4.083180e-02
5.951780e-03
-1.695330e-03
-1.052790e-02
-1.735360e-02
-1.633640e-02
1.035250e-02
2.142120e-02
5.951780e-03
-2.922600e-02
-1.052790e-02
-1.953660e-02
-1.113060e-03
1.035250e-02
1.089370e-04
3.152180e-02
-1.695330e-03
-1.052790e-02
-1.748450e-02
-1.821770e-02
1.035250e-02
2.142120e-02
3.152180e-02
6.276970e-02
-1.052790e-02
-1.953660e-02
-1.821770e-02
-1.888830e-02
0.000000e+00
0.000000e+00
3.755390e-02
1.533540e-02
0.000000e+00
0.000000e+00
-4.102860e-02
-3.731530e-02
0.000000e+00
0.000000e+00
1.533540e-02
-7.153500e-03
0.000000e+00
0.000000e+00
-3.731530e-02
-3.377330e-02
3.755390e-02
1.533540e-02
1.434460e-02
-1.178410e-02
-4.102860e-02
-3.731530e-02
1.147010e-02
4.051540e-03
1.533540e-02
-7.153500e-03
-1.178410e-02
-3.771430e-02
-3.731530e-02
-3.377330e-02
4.051540e-03
-3.699500e-03
1.434460e-02
-1.178410e-02
1.710240e-03
-2.635140e-03
1.147010e-02
4.051540e-03
-6.444150e-04
-1.039800e-02
-1.178410e-02
-3.771430e-02
-2.635140e-03
-6.819550e-03
4.051540e-03
-3.699500e-03
-1.039800e-02
-2.017820e-02
1.710240e-03
-2.635140e-03
1.338550e-02
7.610720e-03
-6.444150e-04
-1.039800e-02
-7.798540e-02
-3.263160e-02
-2.635140e-03
-6.819550e-03
7.610720e-03
1.799180e-03
-1.039800e-02
-2.017820e-02
-3.263160e-02
1.282420e-02
1.338550e-02
7.610720e-03
1.044240e-02
-8.751180e-03
-7.798540e-02
-3.263160e-02
-5.092990e-02
-1.983160e-02
7.610720e-03
1.799180e-03
-8.751180e-03
-2.774590e-02
-3.263160e-02
1.282420e-02
-1.983160e-02
1.157390e-02
1.044240e-02
-8.751180e-03
5.359740e-03
-4.886310e-03
-5.092990e-02
-1.983160e-02
1.178640e-02
-5.444300e-03
-8.751180e-03
-2.774590e-02
-4.886310e-03
-1.502410e-02
-1.983160e-02
1.157390e-02
-5.444300e-03
-2.278640e-02
5.359740e-03
-4.886310e-03
3.173260e-02
2.747320e-02
1.178640e-02
-5.444300e-03
-2.196280e-02
-5.393740e-02
-4.886310e-03
-1.502410e-02
2.747320e-02
2.355590e-02
-5.444300e-03
-2.278640e-02
-5.393740e-02
-8.584520e-02
3.173260e-02
2.747320e-02
3.214130e-02
2.744350e-02
-2.196280e-02
-5.393740e-02
-9.529600e-05
-5.333830e-04
2.747320e-02
2.355590e-02
2.744350e-02
2.306600e-02
-5.393740e-02
-8.584520e-02
-5.333830e-04
-1.025490e-03
3.214130e-02
2.744350e-02
2.286440e-02
2.496240e-02
-9.529600e-05
-5.333830e-04
3.630580e-02
4.975890e-02
2.744350e-02
2.306600e-02
2.496240e-02
2.704930e-02
-5.333830e-04
-1.025490e-03
4.975890e-02
6.310600e-02
2.286440e-02
2.496240e-02
5.338340e-03
8.062200e-03
3.630580e-02
4.975890e-02
4.073020e-03
1.992810e-02
2.496240e-02
2.704930e-02
8.062200e-03
1.080550e-02
4.975890e-02
6.310600e-02
1.992810e-02
3.555870e-02
5.338340e-03
8.062200e-03
-3.648310e-03
-2.803730e-03
4.073020e-03
1.992810e-02
1.343320e-02
2.762420e-02
8.062200e-03
1.080550e-02
-2.803730e-03
-1.803330e-03
1.992810e-02
3.555870e-02
2.762420e-02
4.173600e-02
-3.648310e-03
-2.803730e-03
-1.415060e-02
-7.798280e-03
1.343320e-02
2.762420e-02
3.184990e-02
2.312060e-02
-2.803730e-03
-1.803330e-03
-7.798280e-03
-1.338460e-03
2.762420e-02
4.173600e-02
2.312060e-02
1.450500e-02
-1.415060e-02
-7.798280e-03
-1.628090e-02
-6.132980e-03
3.184990e-02
2.312060e-02
2.820250e-02
-1.078150e-02
-7.798280e-03
-1.338460e-03
-6.132980e-03
3.941760e-03
2.312060e-02
1.450500e-02
-1.078150e-02
-5.013900e-02
-1.628090e-02
-6.132980e-03
-1.180000e-02
-1.435470e-02
2.820250e-02
-1.078150e-02
-2.936320e-02
-2.288260e-02
-6.132980e-03
3.941760e-03
-1.435470e-02
-1.693640e-02
-1.078150e-02
-5.013900e-02
-2.288260e-02
-1.650730e-02
-1.180000e-02
-1.435470e-02
8.087230e-04
-7.238140e-03
-2.936320e-02
-2.288260e-02
-6.804650e-02
-4.001220e-02
-1.435470e-02
-1.693640e-02
-7.238140e-03
-1.521830e-02
-2.288260e-02
-1.650730e-02
-4.001220e-02
-1.197680e-02
8.087230e-04
-7.238140e-03
-2.833660e-03
5.232220e-03
-6.804650e-02
-4.001220e-02
-3.733900e-02
-1.335370e-02
-7.238140e-03
-1.521830e-02
5.232220e-03
1.333450e-02
-4.001220e-02
-1.197680e-02
-1.335370e-02
1.055350e-02
-2.833660e-03
5.232220e-03
-1.483590e-02
-5.647880e-03
-3.733900e-02
-1.335370e-02
2.513560e-02
2.108120e-02
5.232220e-03
1.333450e-02
-5.647880e-03
3.525940e-03
-1.335370e-02
1.055350e-02
2.108120e-02
1.707570e-02
-1.483590e-02
-5.647880e-03
4.595070e-03
4.176210e-03
2.513560e-02
2.108120e-02
3.655620e-02
-2.950180e-03
-5.647880e-03
3.525940e-03
4.176210e-03
3.915050e-03
2.108120e-02
1.707570e-02
-2.950180e-03
-4.210450e-02
4.595070e-03
4.176210e-03
-3.437950e-03
-2.071830e-03
3.655620e-02
-2.950180e-03
1.198800e-02
-9.764550e-03
4.176210e-03
3.915050e-03
-2.071830e-03
-5.171830e-04
-2.950180e-03
-4.210450e-02
-9.764550e-03
-3.145710e-02
-3.437950e-03
-2.071830e-03
-9.694530e-04
1.128140e-02
1.198800e-02
-9.764550e-03
-1.113710e-02
-3.551400e-02
-2.071830e-03
-5.171830e-04
1.128140e-02
2.356840e-02
-9.764550e-03
-3.145710e-02
-3.551400e-02
-6.009070e-02
-9.694530e-04
1.128140e-02
-1.970030e-03
1.596690e-02
-1.113710e-02
-3.551400e-02
-4.600300e-02
-4.630200e-02
1.128140e-02
2.356840e-02
1.596690e-02
3.388690e-02
-3.551400e-02
-6.009070e-02
-4.630200e-02
-4.674270e-02
-1.970030e-03
1.596690e-02
-8.669420e-03
3.787470e-03
-4.600300e-02
-4.630200e-02
-2.335330e-02
-2.872700e-02
1.596690e-02
3.388690e-02
3.787470e-03
1.613860e-02
-4.630200e-02
-4.674270e-02
-2.872700e-02
-3.438050e-02
-8.669420e-03
3.787470e-03
-2.671120e-03
4.098420e-03
-2.335330e-02
-2.872700e-02
1.299670e-04
-1.439690e-02
3.787470e-03
1.613860e-02
4.098420e-03
1.070520e-02
-2.872700e-02
-3.438050e-02
-1.439690e-02
-2.914890e-02
-2.671120e-03
4.098420e-03
-4.505290e-03
-2.341510e-03
1.299670e-04
-1.439690e-02
8.739090e-02
4.835460e-02
4.098420e-03
1.070520e-02
-2.341510e-03
-4.381890e-04
-1.439690e-02
-2.914890e-02
4.835460e-02
9.215000e-03
-4.505290e-03
-2.341510e-03
-1.544280e-02
-1.581940e-03
8.739090e-02
4.835460e-02
9.363430e-02
4.979280e-02
-2.341510e-03
-4.381890e-04
-1.581940e-03
1.195050e-02
4.835460e-02
9.215000e-03
4.979280e-02
5.644700e-03
-1.544280e-02
-1.581940e-03
-2.823900e-02
-1.163820e-02
9.363430e-02
4.979280e-02
3.341790e-02
3.035820e-02
-1.581940e-03
1.195050e-02
-1.163820e-02
4.882890e-03
4.979280e-02
5.644700e-03
3.035820e-02
2.704770e-02
-2.823900e-02
-1.163820e-02
1.041860e-02
-7.255000e-03
3.341790e-02
3.035820e-02
-2.380700e-02
2.414580e-02
-1.163820e-02
4.882890e-03
-7.255000e-03
-2.498630e-02
3.035820e-02
2.704770e-02
2.414580e-02
7.213250e-02
1.041860e-02
-7.255000e-03
4.083180e-02
5.951780e-03
-2.380700e-02
2.414580e-02
-6.335630e-02
5.609980e-03
-7.255000e-03
-2.498630e-02
5.951780e-03
-2.922600e-02
2.414580e-02
7.213250e-02
5.609980e-03
7.474470e-02
4.083180e-02
5.951780e-03
-1.695330e-03
-1.052790e-02
-6.335630e-02
5.609980e-03
4.901630e-03
1.147830e-02
5.951780e-03
-2.922600e-02
-1.052790e-02
-1.953660e-02
5.609980e-03
7.474470e-02
1.147830e-02
1.780390e-02
-1.695330e-03
-1.052790e-02
-1.748450e-02
-1.821770e-02
4.901630e-03
1.147830e-02
3.327960e-02
2.926460e-03
-1.052790e-02
-1.953660e-02
-1.821770e-02
-1.888830e-02
1.147830e-02
1.780390e-02
2.926460e-03
-2.785800e-02
</DataArray>
<DataArray type="Float32" Name="V2" format="ascii">
0.000000e+00
0.000000e+00
2.694030e-02
6.697630e-02
0.000000e+00
0.000000e+00
-9.754020e-03
-2.881700e-02
0.000000e+00
0.000000e+00
6.697630e-02
5.036440e-02
0.000000e+00
0.000000e+00
-2.881700e-02
-2.148320e-02
2.694030e-02
6.697630e-02
2.185070e-02
3.045110e-02
-9.754020e-03
-2.881700e-02
-5.714610e-03
-4.886150e-04
6.697630e-02
5.036440e-02
3.045110e-02
5.923930e-02
-2.881700e-02
-2.148320e-02
-4.886150e-04
-1.079590e-02
2.185070e-02
3.045110e-02
-1.878300e-02
-2.060240e-02
-5.714610e-03
-4.886150e-04
1.705950e-02
2.156860e-02
3.045110e-02
5.923930e-02
-2.060240e-02
4.269530e-02
-4.886150e-04
-1.079590e-02
2.156860e-02
1.120930e-02
-1.878300e-02
-2.060240e-02
-3.624270e-02
-1.244050e-02
1.705950e-02
2.156860e-02
-8.821320e-03
-1.836870e-02
-2.060240e-02
4.269530e-02
-1.244050e-02
1.200350e-02
2.156860e-02
1.120930e-02
-1.836870e-02
-1.266130e-02
-3.624270e-02
-1.244050e-02
7.033440e-02
6.982060e-02
-8.821320e-03
-1.836870e-02
-4.202800e-02
-4.085690e-02
-1.244050e-02
1.200350e-02
6.982060e-02
5.614060e-02
-1.836870e-02
-1.266130e-02
-4.085690e-02
-4.333910e-02
7.033440e-02
6.982060e-02
8.414280e-02
4.012050e-02
-4.202800e-02
-4.085690e-02
-4.128610e-03
1.103230e-03
6.982060e-02
5.614060e-02
4.012050e-02
-1.977150e-02
-4.085690e-02
-4.333910e-02
1.103230e-03
7.130920e-03
8.414280e-02
4.012050e-02
-7.709220e-02
-1.035960e-01
-4.128610e-03
1.103230e-03
5.078120e-02
3.939310e-02
4.012050e-02
-1.977150e-02
-1.035960e-01
-1.589200e-01
1.103230e-03
7.130920e-03
3.939310e-02
5.952410e-02
-7.709220e-02
-1.035960e-01
-3.347700e-02
-3.268170e-02
5.078120e-02
3.939310e-02
1.509290e-02
1.176010e-02
-1.035960e-01
-1.589200e-01
-3.268170e-02
-1.974140e-02
3.939310e-02
5.952410e-02
1.176010e-02
1.251420e-02
-3.347700e-02
-3.268170e-02
7.790960e-02
7.944770e-02
1.509290e-02
1.176010e-02
-4.032250e-02
-4.646970e-02
-3.268170e-02
-1.974140e-02
7.944770e-02
7.690900e-02
1.176010e-02
1.251420e-02
-4.646970e-02
-4.978630e-02
7.790960e-02
7.944770e-02
6.062650e-02
6.620180e-02
-4.032250e-02
-4.646970e-02
-2.759510e-02
-4.232230e-02
7.944770e-02
7.690900e-02
6.620180e-02
3.485720e-02
-4.646970e-02
-4.978630e-02
-4.232230e-02
-3.066850e-02
6.062650e-02
6.620180e-02
2.978450e-02
3.283140e-02
-2.759510e-02
-4.232230e-02
-4.141540e-03
-1.711250e-03
6.620180e-02
3.485720e-02
3.283140e-02
1.065060e-02
-4.232230e-02
-3.066850e-02
-1.711250e-03
9.538350e-03
2.978450e-02
3.283140e-02
-3.235060e-02
-3.809640e-02
-4.141540e-03
-1.711250e-03
1.073460e-02
1.652060e-02
3.283140e-02
1.065060e-02
-3.809640e-02
-8.235500e-02
-1.711250e-03
9.538350e-03
1.652060e-02
1.972030e-02
-3.235060e-02
-3.809640e-02
-1.113190e-01
-8.023860e-02
1.073460e-02
1.652060e-02
3.653590e-02
2.150750e-02
-3.809640e-02
-8.235500e-02
-8.023860e-02
-7.877560e-02
1.652060e-02
1.972030e-02
2.150750e-02
1.787950e-02
-1.113190e-01
-8.023860e-02
-7.267810e-02
-4.838970e-02
3.653590e-02
2.150750e-02
2.465580e-02
8.978600e-03
-8.023860e-02
-7.877560e-02
-4.838970e-02
-1.792130e-02
2.150750e-02
1.787950e-02
8.978600e-03
2.014160e-03
-7.267810e-02
-4.838970e-02
4.173610e-02
-1.173290e-02
2.465580e-02
8.978600e-03
-2.736880e-02
-1.468780e-02
-4.838970e-02
-1.792130e-02
-1.173290e-02
-2.019740e-02
8.978600e-03
2.014160e-03
-1.468780e-02
-2.324030e-02
4.173610e-02
-1.173290e-02
9.991590e-02
4.875180e-02
-2.736880e-02
-1.468780e-02
-2.248980e-02
-1.821720e-02
-1.173290e-02
-2.019740e-02
4.875180e-02
2.132680e-02
-1.468780e-02
-2.324030e-02
-1.821720e-02
-2.590060e-02
9.991590e-02
4.875180e-02
5.843220e-02
6.313560e-02
-2.248980e-02
-1.821720e-02
2.566910e-02
5.976470e-03
4.875180e-02
2.132680e-02
6.313560e-02
2.135280e-02
-1.821720e-02
-2.590060e-02
5.976470e-03
5.099480e-03
5.843220e-02
6.313560e-02
-1.191200e-02
-3.141830e-02
2.566910e-02
5.976470e-03
2.872030e-02
3.501360e-02
6.313560e-02
2.135280e-02
-3.141830e-02
-5.900300e-02
5.976470e-03
5.099480e-03
3.501360e-02
3.647440e-02
-1.191200e-02
-3.141830e-02
1.221760e-02
-1.194950e-02
2.872030e-02
3.501360e-02
3.100390e-03
1.667970e-02
-3.141830e-02
-5.900300e-02
-1.194950e-02
-1.381020e-02
3.501360e-02
3.647440e-02
1.667970e-02
1.753890e-02
1.221760e-02
-1.194950e-02
7.113550e-02
5.098820e-02
3.100390e-03
1.667970e-02
-3.286310e-02
-2.278340e-02
-1.194950e-02
-1.381020e-02
5.098820e-02
6.223670e-02
1.667970e-02
1.753890e-02
-2.278340e-02
-5.097170e-03
7.113550e-02
5.098820e-02
6.246230e-02
3.072410e-02
-3.286310e-02
-2.278340e-02
-2.218780e-02
-1.498480e-02
5.098820e-02
6.223670e-02
3.072410e-02
3.978970e-02
-2.278340e-02
-5.097170e-03
-1.498480e-02
-4.362670e-03
6.246230e-02
3.072410e-02
5.744260e-02
3.609630e-02
-2.218780e-02
-1.498480e-02
1.954660e-02
2.222010e-02
3.072410e-02
3.978970e-02
3.609630e-02
1.155850e-02
-1.498480e-02
-4.362670e-03
2.222010e-02
4.466230e-03
5.744260e-02
3.609630e-02
-2.999290e-03
-8.563050e-03
1.954660e-02
2.222010e-02
2.876120e-02
3.427890e-02
3.609630e-02
1.155850e-02
-8.563050e-03
-5.011060e-02
2.222010e-02
4.466230e-03
3.427890e-02
2.412210e-02
-2.999290e-03
-8.563050e-03
-2.719000e-02
-2.273880e-02
2.876120e-02
3.427890e-02
1.745410e-02
5.539970e-03
-8.563050e-03
-5.011060e-02
-2.273880e-02
-3.701180e-02
3.427890e-02
2.412210e-02
5.539970e-03
7.229140e-04
-2.719000e-02
-2.273880e-02
4.626500e-02
-8.890040e-04
1.745410e-02
5.539970e-03
-3.999780e-02
-2.721240e-02
-2.273880e-02
-3.701180e-02
-8.890040e-04
1.712950e-02
5.539970e-03
7.229140e-04
-2.721240e-02
-3.302680e-02
4.626500e-02
-8.890040e-04
-2.491260e-02
-6.675070e-02
-3.999780e-02
-2.721240e-02
-4.419520e-02
-2.365790e-02
-8.890040e-04
1.712950e-02
-6.675070e-02
-5.941110e-02
-2.721240e-02
-3.302680e-02
-2.365790e-02
-1.129400e-02
-2.491260e-02
-6.675070e-02
-8.598400e-02
-6.837370e-02
-4.419520e-02
-2.365790e-02
2.674760e-02
2.096770e-02
-6.675070e-02
-5.941110e-02
-6.837370e-02
-5.489170e-02
-2.365790e-02
-1.129400e-02
2.096770e-02
3.719930e-02
-8.598400e-02
-6.837370e-02
1.863760e-02
2.641160e-02
2.674760e-02
2.096770e-02
3.621910e-02
3.900360e-02
-6.837370e-02
-5.489170e-02
2.641160e-02
5.345130e-02
2.096770e-02
3.719930e-02
3.900360e-02
1.909800e-02
1.863760e-02
2.641160e-02
5.786300e-02
7.957400e-02
3.621910e-02
3.900360e-02
-2.220370e-02
-2.605910e-02
2.641160e-02
5.345130e-02
7.957400e-02
9.930170e-02
3.900360e-02
1.909800e-02
-2.605910e-02
-4.604760e-02
5.786300e-02
7.957400e-02
4.302110e-02
8.865860e-02
-2.220370e-02
-2.605910e-02
-5.791940e-02
-7.740010e-02
7.957400e-02
9.930170e-02
8.865860e-02
9.954300e-02
-2.605910e-02
-4.604760e-02
-7.740010e-02
-6.826520e-02
0.000000e+00
0.000000e+00
-9.754020e-03
-2.881700e-02
0.000000e+00
0.000000e+00
-1.065950e-02
-1.318780e-02
0.000000e+00
0.000000e+00
-2.881700e-02
-2.148320e-02
0.000000e+00
0.000000e+00
-1.318780e-02
-1.498860e-02
-9.754020e-03
-2.881700e-02
-5.714610e-03
-4.886150e-04
-1.065950e-02
-1.318780e-02
-5.445370e-03
-2.435540e-02
-2.881700e-02
-2.148320e-02
-4.886150e-04
-1.079590e-02
-1.318780e-02
-1.498860e-02
-2.435540e-02