<?xml version="1.0"?>
<VTKFile type="UnstructuredGrid" version="0.1" byte_order="LittleEndian" compressor="vtkZLibDataCompressor">
<UnstructuredGrid>
<Piece NumberOfPoints="960" NumberOfCells="120">
<Points>
<DataArray type="Float32" NumberOfComponents="3" format="ascii">
-4.000000e+02 -6.000000e+03 -4.000000e+02
0.000000e+00 -6.000000e+03 -4.000000e+02
-4.000000e+02 -5.600030e+03 -4.000210e+02
-1.405650e-06 -5.600030e+03 -4.000210e+02
-4.000000e+02 -6.000000e+03 0.000000e+00
0.000000e+00 -6.000000e+03 0.000000e+00
-4.000000e+02 -5.600000e+03 -2.590850e-02
-2.161900e-06 -5.600000e+03 -2.635560e-02
0.000000e+00 -6.000000e+03 -4.000000e+02
4.000000e+02 -6.000000e+03 -4.000000e+02
-1.405650e-06 -5.600030e+03 -4.000210e+02
4.000000e+02 -5.600030e+03 -4.000210e+02
0.000000e+00 -6.000000e+03 0.000000e+00
4.000000e+02 -6.000000e+03 0.000000e+00
-2.161900e-06 -5.600000e+03 -2.635560e-02
4.000000e+02 -5.600000e+03 -2.591090e-02
-4.000000e+02 -5.600030e+03 -4.000210e+02
-1.405650e-06 -5.600030e+03 -4.000210e+02
-4.000010e+02 -5.200040e+03 -4.000620e+02
-5.029410e-06 -5.200040e+03 -4.000630e+02
-4.000000e+02 -5.600000e+03 -2.590850e-02
-2.161900e-06 -5.600000e+03 -2.635560e-02
-4.000000e+02 -5.200000e+03 -6.700190e-02
-1.540640e-06 -5.200000e+03 -6.793860e-02
-1.405650e-06 -5.600030e+03 -4.000210e+02
4.000000e+02 -5.600030e+03 -4.000210e+02
-5.029410e-06 -5.200040e+03 -4.000630e+02
4.000010e+02 -5.200040e+03 -4.000620e+02
-2.161900e-06 -5.600000e+03 -2.635560e-02
4.000000e+02 -5.600000e+03 -2.591090e-02
-1.540640e-06 -5.200000e+03 -6.793860e-02
4.000000e+02 -5.200000e+03 -6.700610e-02
-4.000010e+02 -5.200040e+03 -4.000620e+02
-5.029410e-06 -5.200040e+03 -4.000630e+02
-4.000000e+02 -4.800040e+03 -4.001090e+02
-2.144650e-06 -4.800040e+03 -4.001090e+02
-4.000000e+02 -5.200000e+03 -6.700190e-02
-1.540640e-06 -5.200000e+03 -6.793860e-02
-4.000000e+02 -4.800000e+03 -1.089470e-01
-2.051090e-06 -4.800000e+03 -1.092190e-01
-5.029410e-06 -5.200040e+03 -4.000630e+02
4.000010e+02 -5.200040e+03 -4.000620e+02
-2.144650e-06 -4.800040e+03 -4.001090e+02
4.000000e+02 -4.800040e+03 -4.001090e+02
-1.540640e-06 -5.200000e+03 -6.793860e-02
4.000000e+02 -5.200000e+03 -6.700610e-02
-2.051090e-06 -4.800000e+03 -1.092190e-01
4.000000e+02 -4.800000e+03 -1.089530e-01
-4.000000e+02 -4.800040e+03 -4.001090e+02
-2.144650e-06 -4.800040e+03 -4.001090e+02
-4.000000e+02 -4.400030e+03 -4.001450e+02
-2.880000e-06 -4.400030e+03 -4.001450e+02
-4.000000e+02 -4.800000e+03 -1.089470e-01
-2.051090e-06 -4.800000e+03 -1.092190e-01
-4.000000e+02 -4.400000e+03 -1.461890e-01
-2.911120e-07 -4.400000e+03 -1.463040e-01
-2.144650e-06 -4.800040e+03 -4.001090e+02
4.000000e+02 -4.800040e+03 -4.001090e+02
-2.880000e-06 -4.400030e+03 -4.001450e+02
4.000000e+02 -4.400030e+03 -4.001450e+02
-2.051090e-06 -4.800000e+03 -1.092190e-01
4.000000e+02 -4.800000e+03 -1.089530e-01
-2.911120e-07 -4.400000e+03 -1.463040e-01
4.000000e+02 -4.400000e+03 -1.461950e-01
-4.000000e+02 -4.400030e+03 -4.001450e+02
-2.880000e-06 -4.400030e+03 -4.001450e+02
-4.000000e+02 -4.000030e+03 -4.001740e+02
-2.001430e-06 -4.000030e+03 -4.001740e+02
-4.000000e+02 -4.400000e+03 -1.461890e-01
-2.911120e-07 -4.400000e+03 -1.463040e-01
-4.000000e+02 -4.000000e+03 -1.749780e-01
9.370970e-07 -4.000000e+03 -1.751310e-01
-2.880000e-06 -4.400030e+03 -4.001450e+02
4.000000e+02 -4.400030e+03 -4.001450e+02
-2.001430e-06 -4.000030e+03 -4.001740e+02
4.000000e+02 -4.000030e+03 -4.001740e+02
-2.911120e-07 -4.400000e+03 -1.463040e-01
4.000000e+02 -4.400000e+03 -1.461950e-01
9.370970e-07 -4.000000e+03 -1.751310e-01
4.000000e+02 -4.000000e+03 -1.749820e-01
-4.000000e+02 -4.000030e+03 -4.001740e+02
-2.001430e-06 -4.000030e+03 -4.001740e+02
-4.000000e+02 -3.600030e+03 -4.002060e+02
-4.566340e-06 -3.600030e+03 -4.002060e+02
-4.000000e+02 -4.000000e+03 -1.749780e-01
9.370970e-07 -4.000000e+03 -1.751310e-01
-4.000000e+02 -3.600000e+03 -2.031680e-01
2.345230e-06 -3.600000e+03 -2.030750e-01
-2.001430e-06 -4.000030e+03 -4.001740e+02
4.000000e+02 -4.000030e+03 -4.001740e+02
-4.566340e-06 -3.600030e+03 -4.002060e+02
4.000000e+02 -3.600030e+03 -4.002060e+02
9.370970e-07 -4.000000e+03 -1.751310e-01
4.000000e+02 -4.000000e+03 -1.749820e-01
2.345230e-06 -3.600000e+03 -2.030750e-01
4.000000e+02 -3.600000e+03 -2.031690e-01
-4.000000e+02 -3.600030e+03 -4.002060e+02
-4.566340e-06 -3.600030e+03 -4.002060e+02
-3.999990e+02 -3.200020e+03 -4.002330e+02
7.476440e-07 -3.200020e+03 -4.002320e+02
-4.000000e+02 -3.600000e+03 -2.031680e-01
2.345230e-06 -3.600000e+03 -2.030750e-01
-4.000000e+02 -3.200000e+03 -2.333260e-01
6.159000e-07 -3.200000e+03 -2.330190e-01
-4.566340e-06 -3.600030e+03 -4.002060e+02
4.000000e+02 -3.600030e+03 -4.002060e+02
7.476440e-07 -3.200020e+03 -4.002320e+02
3.999990e+02 -3.200020e+03 -4.002330e+02
2.345230e-06 -3.600000e+03 -2.030750e-01
4.000000e+02 -3.600000e+03 -2.031690e-01
6.159000e-07 -3.200000e+03 -2.330190e-01
4.000000e+02 -3.200000e+03 -2.333220e-01
-3.999990e+02 -3.200020e+03 -4.002330e+02
7.476440e-07 -3.200020e+03 -4.002320e+02
-4.000000e+02 -2.800020e+03 -4.002530e+02
9.970690e-06 -2.800020e+03 -4.002530e+02
-4.000000e+02 -3.200000e+03 -2.333260e-01
6.159000e-07 -3.200000e+03 -2.330190e-01
-4.000000e+02 -2.800000e+03 -2.579080e-01
-1.099050e-06 -2.800000e+03 -2.580030e-01
7.476440e-07 -3.200020e+03 -4.002320e+02
3.999990e+02 -3.200020e+03 -4.002330e+02
9.970690e-06 -2.800020e+03 -4.002530e+02
4.000000e+02 -2.800020e+03 -4.002530e+02
6.159000e-07 -3.200000e+03 -2.330190e-01
4.000000e+02 -3.200000e+03 -2.333220e-01
-1.099050e-06 -2.800000e+03 -2.580030e-01
4.000000e+02 -2.800000e+03 -2.578910e-01
-4.000000e+02 -2.800020e+03 -4.002530e+02
9.970690e-06 -2.800020e+03 -4.002530e+02
-4.000000e+02 -2.400020e+03 -4.002780e+02
1.541460e-05 -2.400020e+03 -4.002780e+02
-4.000000e+02 -2.800000e+03 -2.579080e-01
-1.099050e-06 -2.800000e+03 -2.580030e-01
-4.000000e+02 -2.400000e+03 -2.759720e-01
-1.439030e-06 -2.400000e+03 -2.764600e-01
9.970690e-06 -2.800020e+03 -4.002530e+02
4.000000e+02 -2.800020e+03 -4.002530e+02
1.541460e-05 -2.400020e+03 -4.002780e+02
4.000000e+02 -2.400020e+03 -4.002780e+02
-1.099050e-06 -2.800000e+03 -2.580030e-01
4.000000e+02 -2.800000e+03 -2.578910e-01
-1.439030e-06 -2.400000e+03 -2.764600e-01
4.000000e+02 -2.400000e+03 -2.759430e-01
-4.000000e+02 -2.400020e+03 -4.002780e+02
1.541460e-05 -2.400020e+03 -4.002780e+02
-4.000000e+02 -2.000020e+03 -4.003000e+02
1.753110e-05 -2.000020e+03 -4.003000e+02
-4.000000e+02 -2.400000e+03 -2.759720e-01
-1.439030e-06 -2.400000e+03 -2.764600e-01
-4.000000e+02 -2.000000e+03 -2.955530e-01
-7.178940e-07 -2.000000e+03 -2.954330e-01
1.541460e-05 -2.400020e+03 -4.002780e+02
4.000000e+02 -2.400020e+03 -4.002780e+02
1.753110e-05 -2.000020e+03 -4.003000e+02
4.000000e+02 -2.000020e+03 -4.003000e+02
-1.439030e-06 -2.400000e+03 -2.764600e-01
4.000000e+02 -2.400000e+03 -2.759430e-01
-7.178940e-07 -2.000000e+03 -2.954330e-01
4.000000e+02 -2.000000e+03 -2.955240e-01
-4.000000e+02 -2.000020e+03 -4.003000e+02
1.753110e-05 -2.000020e+03 -4.003000e+02
-4.000000e+02 -1.600020e+03 -4.003180e+02
1.670150e-05 -1.600020e+03 -4.003180e+02
-4.000000e+02 -2.000000e+03 -2.955530e-01
-7.178940e-07 -2.000000e+03 -2.954330e-01
-4.000000e+02 -1.600000e+03 -3.210350e-01
3.266700e-08 -1.600000e+03 -3.206510e-01
1.753110e-05 -2.000020e+03 -4.003000e+02
4.000000e+02 -2.000020e+03 -4.003000e+02
1.670150e-05 -1.600020e+03 -4.003180e+02
4.000000e+02 -1.600020e+03 -4.003180e+02
-7.178940e-07 -2.000000e+03 -2.954330e-01
4.000000e+02 -2.000000e+03 -2.955240e-01
3.266700e-08 -1.600000e+03 -3.206510e-01
4.000000e+02 -1.600000e+03 -3.210060e-01
-4.000000e+02 -1.600020e+03 -4.003180e+02
1.670150e-05 -1.600020e+03 -4.003180e+02
-4.000000e+02 -1.200030e+03 -4.003470e+02
1.619110e-05 -1.200030e+03 -4.003480e+02
-4.000000e+02 -1.600000e+03 -3.210350e-01
3.266700e-08 -1.600000e+03 -3.206510e-01
-4.000000e+02 -1.200000e+03 -3.503190e-01
-1.640910e-07 -1.200000e+03 -3.503970e-01
1.670150e-05 -1.600020e+03 -4.003180e+02
4.000000e+02 -1.600020e+03 -4.003180e+02
1.619110e-05 -1.200030e+03 -4.003480e+02
4.000000e+02 -1.200030e+03 -4.003470e+02
3.266700e-08 -1.600000e+03 -3.206510e-01
4.000000e+02 -1.600000e+03 -3.210060e-01
-1.640910e-07 -1.200000e+03 -3.503970e-01
4.000000e+02 -1.200000e+03 -3.502880e-01
-4.000000e+02 -1.200030e+03 -4.003470e+02
1.619110e-05 -1.200030e+03 -4.003480e+02
-4.000000e+02 -8.000280e+02 -4.003810e+02
9.238380e-06 -8.000280e+02 -4.003810e+02
-4.000000e+02 -1.200000e+03 -3.503190e-01
-1.640910e-07 -1.200000e+03 -3.503970e-01
-4.000000e+02 -7.999990e+02 -3.779370e-01
1.041120e-06 -7.999990e+02 -3.780040e-01
1.619110e-05 -1.200030e+03 -4.003480e+02
4.000000e+02 -1.200030e+03 -4.003470e+02
9.238380e-06 -8.000280e+02 -4.003810e+02
4.000000e+02 -8.000280e+02 -4.003810e+02
-1.640910e-07 -1.200000e+03 -3.503970e-01
4.000000e+02 -1.200000e+03 -3.502880e-01
1.041120e-06 -7.999990e+02 -3.780040e-01
4.000000e+02 -7.999990e+02 -3.779080e-01
-4.000000e+02 -8.000280e+02 -4.003810e+02
9.238380e-06 -8.000280e+02 -4.003810e+02
-4.000000e+02 -4.000290e+02 -4.004050e+02
9.978490e-06 -4.000290e+02 -4.004060e+02
-4.000000e+02 -7.999990e+02 -3.779370e-01
1.041120e-06 -7.999990e+02 -3.780040e-01
-4.000000e+02 -4.000010e+02 -4.040940e-01
5.439180e-07 -4.000010e+02 -4.041870e-01
9.238380e-06 -8.000280e+02 -4.003810e+02
4.000000e+02 -8.000280e+02 -4.003810e+02
9.978490e-06 -4.000290e+02 -4.004060e+02
4.000000e+02 -4.000290e+02 -4.004050e+02
1.041120e-06 -7.999990e+02 -3.780040e-01
4.000000e+02 -7.999990e+02 -3.779080e-01
5.439180e-07 -4.000010e+02 -4.041870e-01
4.000000e+02 -4.000010e+02 -4.040710e-01
-4.000000e+02 -4.000290e+02 -4.004050e+02
9.978490e-06 -4.000290e+02 -4.004060e+02
-4.000000e+02 -3.353220e-02 -4.004360e+02
9.596830e-06 -3.372110e-02 -4.004360e+02
-4.000000e+02 -4.000010e+02 -4.040940e-01
5.439180e-07 -4.000010e+02 -4.041870e-01
-4.000000e+02 -4.546840e-04 -4.376620e-01
-2.846370e-07 -4.524370e-04 -4.376020e-01
9.978490e-06 -4.000290e+02 -4.004060e+02
4.000000e+02 -4.000290e+02 -4.004050e+02
[...]
<PointData>
<DataArray type="Float32" Name="V1" format="ascii">
0.000000e+00
0.000000e+00
7.033100e-05
-3.119760e-06
0.000000e+00
0.000000e+00
2.617690e-04
9.511870e-07
0.000000e+00
0.000000e+00
-3.119760e-06
-7.650970e-05
0.000000e+00
0.000000e+00
9.511870e-07
-2.598520e-04
7.033100e-05
-3.119760e-06
1.849720e-04
-3.795460e-06
2.617690e-04
9.511870e-07
3.706180e-04
8.425450e-07
-3.119760e-06
-7.650970e-05
-3.795460e-06
-1.925570e-04
9.511870e-07
-2.598520e-04
8.425450e-07
-3.689340e-04
1.849720e-04
-3.795460e-06
-1.575600e-04
-1.735140e-06
3.706180e-04
8.425450e-07
1.077190e-04
6.736630e-07
-3.795460e-06
-1.925570e-04
-1.735140e-06
1.540310e-04
8.425450e-07
-3.689340e-04
6.736630e-07
-1.063820e-04
-1.575600e-04
-1.735140e-06
-5.910340e-04
-4.630020e-07
1.077190e-04
6.736630e-07
2.242380e-05
6.167520e-07
-1.735140e-06
1.540310e-04
-4.630020e-07
5.900610e-04
6.736630e-07
-1.063820e-04
6.167520e-07
-2.120580e-05
-5.910340e-04
-4.630020e-07
2.496550e-04
-2.363190e-06
2.242380e-05
6.167520e-07
-1.144290e-04
2.846020e-06
-4.630020e-07
5.900610e-04
-2.363190e-06
-2.543260e-04
6.167520e-07
-2.120580e-05
2.846020e-06
1.201320e-04
2.496550e-04
-2.363190e-06
7.076860e-04
3.510150e-07
-1.144290e-04
2.846020e-06
-3.235370e-04
2.494920e-07
-2.363190e-06
-2.543260e-04
3.510150e-07
-7.069390e-04
2.846020e-06
1.201320e-04
2.494920e-07
3.240530e-04
7.076860e-04
3.510150e-07
1.857700e-04
3.288530e-06
-3.235370e-04
2.494920e-07
-2.547800e-04
-1.135120e-06
3.510150e-07
-7.069390e-04
3.288530e-06
-1.792460e-04
2.494920e-07
3.240530e-04
-1.135120e-06
2.524960e-04
1.857700e-04
3.288530e-06
2.485880e-05
5.203160e-07
-2.547800e-04
-1.135120e-06
-2.290330e-04
-4.485110e-07
3.288530e-06
-1.792460e-04
5.203160e-07
-2.390040e-05
-1.135120e-06
2.524960e-04
-4.485110e-07
2.281110e-04
2.485880e-05
5.203160e-07
4.594050e-04
-1.607790e-07
-2.290330e-04
-4.485110e-07
-2.407090e-04
1.422390e-06
5.203160e-07
-2.390040e-05
-1.607790e-07
-4.597010e-04
-4.485110e-07
2.281110e-04
1.422390e-06
2.435580e-04
4.594050e-04
-1.607790e-07
-2.307730e-04
4.452590e-06
-2.407090e-04
1.422390e-06
2.246260e-04
-3.790130e-06
-1.607790e-07
-4.597010e-04
4.452590e-06
2.397620e-04
1.422390e-06
2.435580e-04
-3.790130e-06
-2.321900e-04
-2.307730e-04
4.452590e-06
-5.024590e-04
3.771540e-06
2.246260e-04
-3.790130e-06
4.673200e-04
-1.758930e-06
4.452590e-06
2.397620e-04
3.771540e-06
5.100310e-04
-3.790130e-06
-2.321900e-04
-1.758930e-06
-4.708130e-04
-5.024590e-04
3.771540e-06
-1.375350e-04
-3.919500e-06
4.673200e-04
-1.758930e-06
3.068430e-04
1.912620e-06
3.771540e-06
5.100310e-04
-3.919500e-06
1.296180e-04
-1.758930e-06
-4.708130e-04
1.912620e-06
-3.030330e-04
-1.375350e-04
-3.919500e-06
-1.777160e-04
-6.766920e-06
3.068430e-04
1.912620e-06
9.148890e-05
2.242050e-06
-3.919500e-06
1.296180e-04
-6.766920e-06
1.641610e-04
1.912620e-06
-3.030330e-04
2.242050e-06
-8.701150e-05
-1.777160e-04
-6.766920e-06
1.676390e-04
2.552230e-06
9.148890e-05
2.242050e-06
-4.468440e-05
-2.596200e-06
-6.766920e-06
1.641610e-04
2.552230e-06
-1.624670e-04
2.242050e-06
-8.701150e-05
-2.596200e-06
3.951630e-05
1.676390e-04
2.552230e-06
4.767090e-04
1.315250e-06
-4.468440e-05
-2.596200e-06
-1.880540e-04
1.288570e-06
2.552230e-06
-1.624670e-04
1.315250e-06
-4.740150e-04
-2.596200e-06
3.951630e-05
1.288570e-06
1.906440e-04
4.767090e-04
1.315250e-06
-6.550600e-04
1.570640e-06
-1.880540e-04
1.288570e-06
-2.912650e-04
6.078220e-07
1.315250e-06
-4.740150e-04
1.570640e-06
6.582440e-04
1.288570e-06
1.906440e-04
6.078220e-07
2.924940e-04
-6.550600e-04
1.570640e-06
-9.043070e-05
-1.687080e-06
-2.912650e-04
6.078220e-07
-2.670100e-04
-5.117810e-07
1.570640e-06
6.582440e-04
-1.687080e-06
8.701620e-05
6.078220e-07
2.924940e-04
-5.117810e-07
2.659800e-04
-9.043070e-05
-1.687080e-06
1.248050e-03
2.338710e-06
-2.670100e-04
-5.117810e-07
-3.077210e-04
-3.086570e-06
-1.687080e-06
8.701620e-05
2.338710e-06
-1.243400e-03
-5.117810e-07
2.659800e-04
-3.086570e-06
3.015350e-04
1.248050e-03
2.338710e-06
4.305280e-04
-3.117490e-06
-3.077210e-04
-3.086570e-06
-1.513030e-05
2.629360e-06
2.338710e-06
-1.243400e-03
-3.117490e-06
-4.368150e-04
-3.086570e-06
3.015350e-04
2.629360e-06
2.035570e-05
4.305280e-04
-3.117490e-06
-1.119450e-03
1.297710e-06
-1.513030e-05
2.629360e-06
4.374270e-04
-3.746520e-07
-3.117490e-06
-4.368150e-04
1.297710e-06
1.122040e-03
2.629360e-06
2.035570e-05
-3.746520e-07
-4.382120e-04
-1.119450e-03
1.297710e-06
-9.107080e-04
4.482880e-06
4.374270e-04
-3.746520e-07
4.757420e-04
-2.512070e-06
1.297710e-06
1.122040e-03
4.482880e-06
9.197290e-04
-3.746520e-07
-4.382120e-04
-2.512070e-06
-4.807550e-04
-9.107080e-04
4.482880e-06
1.755600e-04
3.617170e-06
4.757420e-04
-2.512070e-06
1.889390e-04
-7.687840e-07
4.482880e-06
9.197290e-04
3.617170e-06
-1.683410e-04
-2.512070e-06
-4.807550e-04
-7.687840e-07
-1.904440e-04
1.755600e-04
3.617170e-06
7.556060e-04
-9.619810e-07
1.889390e-04
-7.687840e-07
-8.678710e-05
-1.176100e-07
3.617170e-06
-1.683410e-04
-9.619810e-07
-7.575830e-04
-7.687840e-07
-1.904440e-04
-1.176100e-07
8.657050e-05
7.556060e-04
-9.619810e-07
2.387890e-04
-2.866930e-06
-8.678710e-05
-1.176100e-07
-1.825140e-04
-5.535760e-07
-9.619810e-07
-7.575830e-04
-2.866930e-06
-2.445620e-04
-1.176100e-07
8.657050e-05
-5.535760e-07
1.814140e-04
2.387890e-04
-2.866930e-06
-2.638100e-04
6.891070e-06
-1.825140e-04
-5.535760e-07
-3.398440e-04
-4.510510e-06
-2.866930e-06
-2.445620e-04
6.891070e-06
2.776310e-04
-5.535760e-07
1.814140e-04
-4.510510e-06
3.308240e-04
-2.638100e-04
6.891070e-06
2.359510e-04
4.022820e-06
-3.398440e-04
-4.510510e-06
-5.041790e-04
2.057400e-08
6.891070e-06
2.776310e-04
4.022820e-06
-2.278490e-04
-4.510510e-06
3.308240e-04
2.057400e-08
5.042070e-04
2.359510e-04
4.022820e-06
4.937370e-04
1.767290e-06
-5.041790e-04
2.057400e-08
-7.539760e-05
-1.168870e-07
4.022820e-06
-2.278490e-04
1.767290e-06
-4.901480e-04
2.057400e-08
5.042070e-04
-1.168870e-07
7.514760e-05
4.937370e-04
1.767290e-06
4.721430e-04
-3.531560e-06
-7.539760e-05
-1.168870e-07
1.496150e-04
-2.037180e-06
1.767290e-06
-4.901480e-04
-3.531560e-06
-4.791760e-04
-1.168870e-07
7.514760e-05
-2.037180e-06
-1.536860e-04
4.721430e-04
-3.531560e-06
-6.648130e-04
2.999060e-06
1.496150e-04
-2.037180e-06
2.491970e-04
-2.445500e-06
-3.531560e-06
-4.791760e-04
2.999060e-06
6.707590e-04
-2.037180e-06
-1.536860e-04
-2.445500e-06
-2.540820e-04
-6.648130e-04
2.999060e-06
-7.385900e-04
1.567720e-06
2.491970e-04
-2.445500e-06
4.614670e-04
5.325980e-06
2.999060e-06
6.707590e-04
1.567720e-06
7.416330e-04
-2.445500e-06
-2.540820e-04
5.325980e-06
-4.508160e-04
0.000000e+00
0.000000e+00
2.617690e-04
9.511870e-07
0.000000e+00
0.000000e+00
-5.948100e-04
1.146730e-06
0.000000e+00
0.000000e+00
9.511870e-07
-2.598520e-04
0.000000e+00
0.000000e+00
1.146730e-06
5.970860e-04
2.617690e-04
9.511870e-07
3.706180e-04
8.425450e-07
-5.948100e-04
1.146730e-06
-9.252060e-04
2.106770e-06
9.511870e-07
-2.598520e-04
8.425450e-07
-3.689340e-04
1.146730e-06
5.970860e-04
2.106770e-06
9.294180e-04
3.706180e-04
8.425450e-07
1.077190e-04
6.736630e-07
-9.252060e-04
2.106770e-06
-5.813270e-05
2.845900e-07
8.425450e-07
-3.689340e-04
6.736630e-07
-1.063820e-04
2.106770e-06
9.294180e-04
2.845900e-07
5.874050e-05
1.077190e-04
6.736630e-07
2.242380e-05
6.167520e-07
-5.813270e-05
2.845900e-07
5.443640e-04
-7.335570e-07
6.736630e-07
-1.063820e-04
6.167520e-07
-2.120580e-05
2.845900e-07
5.874050e-05
-7.335570e-07
-5.458130e-04
2.242380e-05
6.167520e-07
-1.144290e-04
2.846020e-06
5.443640e-04
-7.335570e-07
-1.852210e-05
-3.226250e-06
6.167520e-07
-2.120580e-05
2.846020e-06
1.201320e-04
-7.335570e-07
-5.458130e-04
-3.226250e-06
1.205600e-05
-1.144290e-04
2.846020e-06
-3.235370e-04
2.494920e-07
-1.852210e-05
-3.226250e-06
-6.039470e-05
-8.970250e-07
2.846020e-06
1.201320e-04
2.494920e-07
3.240530e-04
-3.226250e-06
1.205600e-05
-8.970250e-07
5.861670e-05
-3.235370e-04
2.494920e-07
-2.547800e-04
-1.135120e-06
-6.039470e-05
-8.970250e-07
3.212020e-04
-9.879570e-07
2.494920e-07
3.240530e-04
-1.135120e-06
2.524960e-04
-8.970250e-07
5.861670e-05
-9.879570e-07
-3.231290e-04
-2.547800e-04
-1.135120e-06
-2.290330e-04
-4.485110e-07
3.212020e-04
-9.879570e-07
4.351560e-04
3.500640e-07
-1.135120e-06
2.524960e-04
-4.485110e-07
2.281110e-04
-9.879570e-07
-3.231290e-04
3.500640e-07
-4.344110e-04
-2.290330e-04
-4.485110e-07
-2.407090e-04
1.422390e-06
4.351560e-04
3.500640e-07
2.223880e-05
-2.714670e-06
-4.485110e-07
2.281110e-04
1.422390e-06
2.435580e-04
3.500640e-07
-4.344110e-04
-2.714670e-06
-2.766120e-05
-2.407090e-04
1.422390e-06
2.246260e-04
-3.790130e-06
2.223880e-05
-2.714670e-06
-2.206400e-04
3.051920e-06
1.422390e-06
2.435580e-04
-3.790130e-06
-2.321900e-04
-2.714670e-06
-2.766120e-05
3.051920e-06
2.267290e-04
2.246260e-04
-3.790130e-06
4.673200e-04
-1.758930e-06
-2.206400e-04
3.051920e-06
-4.306590e-04
-3.705710e-07
-3.790130e-06
-2.321900e-04
-1.758930e-06
-4.708130e-04
3.051920e-06
2.267290e-04
-3.705710e-07
4.299610e-04
4.673200e-04
-1.758930e-06
3.068430e-04
1.912620e-06
-4.306590e-04
-3.705710e-07
-4.756830e-04
2.515570e-07
-1.758930e-06
-4.708130e-04
1.912620e-06
-3.030330e-04
-3.705710e-07
4.299610e-04
2.515570e-07
4.762200e-04
3.068430e-04
1.912620e-06
9.148890e-05
2.242050e-06
-4.756830e-04
2.515570e-07
-6.890260e-06
2.369630e-06
1.912620e-06
-3.030330e-04
2.242050e-06
-8.701150e-05
2.515570e-07
4.762200e-04
2.369630e-06
1.159200e-05
9.148890e-05
2.242050e-06
-4.468440e-05
-2.596200e-06
-6.890260e-06
2.369630e-06
-7.662440e-05
2.583530e-06
2.242050e-06
-8.701150e-05
-2.596200e-06
3.951630e-05
2.369630e-06
1.159200e-05
2.583530e-06
8.174920e-05
-4.468440e-05
-2.596200e-06
-1.880540e-04
1.288570e-06
-7.662440e-05
2.583530e-06
-1.010920e-04
-3.946890e-06
-2.596200e-06
3.951630e-05
1.288570e-06
1.906440e-04
2.583530e-06
8.174920e-05
-3.946890e-06
9.314670e-05
-1.880540e-04
1.288570e-06
-2.912650e-04
6.078220e-07
-1.010920e-04
-3.946890e-06
1.236490e-03
-2.793670e-06
1.288570e-06
1.906440e-04
6.078220e-07
2.924940e-04
-3.946890e-06
9.314670e-05
-2.793670e-06
-1.242130e-03
-2.912650e-04
6.078220e-07
-2.670100e-04
-5.117810e-07
1.236490e-03
-2.793670e-06
6.258760e-04
2.667740e-06
6.078220e-07
2.924940e-04
-5.117810e-07
2.659800e-04
-2.793670e-06
-1.242130e-03
2.667740e-06
-6.205660e-04
-2.670100e-04
-5.117810e-07
-3.077210e-04
-3.086570e-06
6.258760e-04
2.667740e-06
-6.329310e-04
3.824890e-06
-5.117810e-07
2.659800e-04
-3.086570e-06
3.015350e-04
2.667740e-06
-6.205660e-04
3.824890e-06
6.405780e-04
-3.077210e-04
-3.086570e-06
-1.513030e-05
2.629360e-06
-6.329310e-04
3.824890e-06
-4.020350e-04
-2.136460e-06
-3.086570e-06
3.015350e-04
2.629360e-06
2.035570e-05
3.824890e-06
6.405780e-04
-2.136460e-06
3.977840e-04
-1.513030e-05
2.629360e-06
4.374270e-04
-3.746520e-07
-4.020350e-04
-2.136460e-06
2.463160e-04
-5.564110e-07
2.629360e-06
2.035570e-05
-3.746520e-07
-4.382120e-04
-2.136460e-06
3.977840e-04
-5.564110e-07
-2.474300e-04
4.374270e-04
-3.746520e-07
4.757420e-04
-2.512070e-06
2.463160e-04
-5.564110e-07
-4.022670e-05
5.725480e-07
-3.746520e-07
-4.382120e-04
-2.512070e-06
-4.807550e-04
-5.564110e-07
-2.474300e-04
5.725480e-07
4.139110e-05
4.757420e-04
-2.512070e-06
1.889390e-04
-7.687840e-07
-4.022670e-05
5.725480e-07
-5.547590e-04
-2.030940e-06
-2.512070e-06
-4.807550e-04
-7.687840e-07
-1.904440e-04
5.725480e-07
4.139110e-05
-2.030940e-06
5.507640e-04
1.889390e-04
-7.687840e-07
-8.678710e-05
-1.176100e-07
-5.547590e-04
-2.030940e-06
-5.815460e-04
1.249150e-06
-7.687840e-07
-1.904440e-04
-1.176100e-07
8.657050e-05
-2.030940e-06
5.507640e-04
1.249150e-06
5.840920e-04
-8.678710e-05
-1.176100e-07
-1.825140e-04
-5.535760e-07
-5.815460e-04
1.249150e-06
1.273310e-04
3.985290e-06
-1.176100e-07
8.657050e-05
-5.535760e-07
1.814140e-04
1.249150e-06
5.840920e-04
3.985290e-06
-1.193530e-04
-1.825140e-04
-5.535760e-07
-3.398440e-04
-4.510510e-06
1.273310e-04
3.985290e-06
9.430870e-04
2.114490e-06
-5.535760e-07
1.814140e-04
-4.510510e-06
3.308240e-04
3.985290e-06
-1.193530e-04
2.114490e-06
-9.388990e-04
-3.398440e-04
-4.510510e-06
-5.041790e-04
2.057400e-08
9.430870e-04
2.114490e-06
7.715010e-04
-4.041840e-06
-4.510510e-06
3.308240e-04
2.057400e-08
5.042070e-04
2.114490e-06
-9.388990e-04
-4.041840e-06
-7.796560e-04
-5.041790e-04
2.057400e-08
-7.539760e-05
-1.168870e-07
7.715010e-04
-4.041840e-06
-3.420010e-04
-1.567740e-06
2.057400e-08
5.042070e-04
-1.168870e-07
7.514760e-05
-4.041840e-06
-7.796560e-04
-1.567740e-06
3.387990e-04
-7.539760e-05
-1.168870e-07
1.496150e-04
-2.037180e-06
-3.420010e-04
-1.567740e-06
-7.711100e-04
7.569350e-06
-1.168870e-07
7.514760e-05
-2.037180e-06
-1.536860e-04
-1.567740e-06
3.387990e-04
7.569350e-06
7.862370e-04
1.496150e-04
-2.037180e-06
2.491970e-04
-2.445500e-06
-7.711100e-04
7.569350e-06
1.656820e-04
1.863990e-06
-2.037180e-06
-1.536860e-04
-2.445500e-06
-2.540820e-04
7.569350e-06
7.862370e-04
1.863990e-06
-1.618950e-04
2.491970e-04
-2.445500e-06
4.614670e-04
5.325980e-06
1.656820e-04
1.863990e-06
-1.840800e-04
-1.215580e-05
-2.445500e-06
-2.540820e-04
5.325980e-06
-4.508160e-04
1.863990e-06
-1.618950e-04
-1.215580e-05
1.598500e-04
</DataArray>
<DataArray type="Float32" Name="V2" format="ascii">
0.000000e+00
0.000000e+00
1.140750e-03
9.274840e-04
0.000000e+00
0.000000e+00
2.714350e-04
2.433960e-04
0.000000e+00
0.000000e+00
9.274840e-04
1.137270e-03
0.000000e+00
0.000000e+00
2.433960e-04
2.734020e-04
1.140750e-03
9.274840e-04
5.062820e-03
4.953150e-03
2.714350e-04
2.433960e-04
-2.957590e-03
-2.824140e-03
9.274840e-04
1.137270e-03
4.953150e-03
5.060250e-03
2.433960e-04
2.734020e-04
-2.824140e-03
-2.954840e-03
5.062820e-03
4.953150e-03
1.431740e-03
1.637860e-03
-2.957590e-03
-2.824140e-03
-1.247700e-03
-1.248450e-03
4.953150e-03
5.060250e-03
1.637860e-03
1.436040e-03
-2.824140e-03
-2.954840e-03
-1.248450e-03
-1.246730e-03
1.431740e-03
1.637860e-03
-3.878140e-03
-3.904980e-03
-1.247700e-03
-1.248450e-03
2.648370e-03
2.529030e-03
1.637860e-03
1.436040e-03
-3.904980e-03
-3.867900e-03
-1.248450e-03
-1.246730e-03
2.529030e-03
2.644730e-03
-3.878140e-03
-3.904980e-03
1.100130e-03
7.573310e-04
2.648370e-03
2.529030e-03
-1.330070e-04
-8.535090e-05
-3.904980e-03
-3.867900e-03
7.573310e-04
1.105490e-03
2.529030e-03
2.644730e-03
-8.535090e-05
-1.347800e-04
1.100130e-03
7.573310e-04
5.586530e-03
5.524920e-03
-1.330070e-04
-8.535090e-05
-3.030030e-03
-3.082470e-03
7.573310e-04
1.105490e-03
5.524920e-03
5.586200e-03
-8.535090e-05
-1.347800e-04
-3.082470e-03
-3.026280e-03
5.586530e-03
5.524920e-03
-1.273280e-03
-1.115380e-03
-3.030030e-03
-3.082470e-03
1.680150e-03
1.528050e-03
5.524920e-03
5.586200e-03
-1.115380e-03
-1.263250e-03
-3.082470e-03
-3.026280e-03
1.528050e-03
1.673050e-03
-1.273280e-03
-1.115380e-03
-4.513990e-03
-4.367960e-03
1.680150e-03
1.528050e-03
2.470830e-03
2.450720e-03
-1.115380e-03
-1.263250e-03
-4.367960e-03
-4.501070e-03
1.528050e-03
1.673050e-03
2.450720e-03
2.459760e-03
-4.513990e-03
-4.367960e-03
8.603230e-04
7.626160e-04
2.470830e-03
2.450720e-03
-2.083040e-03
-2.052960e-03
-4.367960e-03
-4.501070e-03
7.626160e-04
8.590180e-04
2.450720e-03
2.459760e-03
-2.052960e-03
-2.082590e-03
8.603230e-04
7.626160e-04
3.776760e-03
3.849770e-03
-2.083040e-03
-2.052960e-03
-1.904710e-03
-1.954990e-03
7.626160e-04
8.590180e-04
3.849770e-03
3.768350e-03
-2.052960e-03
-2.082590e-03
-1.954990e-03
-1.900460e-03
3.776760e-03
3.849770e-03
-2.155130e-05
-2.834270e-04
-1.904710e-03
-1.954990e-03
2.063650e-03
2.133160e-03
3.849770e-03
3.768350e-03
-2.834270e-04
-2.147640e-05
-1.954990e-03
-1.900460e-03
2.133160e-03
2.063950e-03
-2.155130e-05
-2.834270e-04
-2.305840e-03
-2.563710e-03
2.063650e-03
2.133160e-03
1.323410e-03
1.406830e-03
-2.834270e-04
-2.147640e-05
-2.563710e-03
-2.299280e-03
2.133160e-03
2.063950e-03
1.406830e-03
1.324150e-03
-2.305840e-03
-2.563710e-03
1.052550e-03
1.213590e-03
1.323410e-03
1.406830e-03
-2.861370e-03
-2.865900e-03
-2.563710e-03
-2.299280e-03
1.213590e-03
1.057260e-03
1.406830e-03
1.324150e-03
-2.865900e-03
-2.860770e-03
1.052550e-03
1.213590e-03
1.352640e-03
1.153780e-03
-2.861370e-03
-2.865900e-03
-7.977510e-04
-7.004330e-04
1.213590e-03
1.057260e-03
1.153780e-03
1.354170e-03
-2.865900e-03
-2.860770e-03
-7.004330e-04
-7.990500e-04
1.352640e-03
1.153780e-03
-1.899220e-03
-1.760880e-03
-7.977510e-04
-7.004330e-04
3.447100e-03
3.497350e-03
1.153780e-03
1.354170e-03
-1.760880e-03
-1.901780e-03
-7.004330e-04
-7.990500e-04
3.497350e-03
3.445870e-03
-1.899220e-03
-1.760880e-03
-2.141760e-03
-1.926600e-03
3.447100e-03
3.497350e-03
1.328610e-03
1.263240e-03
-1.760880e-03
-1.901780e-03
-1.926600e-03
-2.141600e-03
3.497350e-03
3.445870e-03
1.263240e-03
1.322560e-03
-2.141760e-03
-1.926600e-03
8.015560e-04
3.900720e-04
1.328610e-03
1.263240e-03
-3.301390e-03
-3.335600e-03
-1.926600e-03
-2.141600e-03
3.900720e-04
7.951740e-04
1.263240e-03
1.322560e-03
-3.335600e-03
-3.302160e-03
8.015560e-04
3.900720e-04
7.158540e-04
7.496430e-04
-3.301390e-03
-3.335600e-03
-1.915660e-03
-1.964750e-03
3.900720e-04
7.951740e-04
7.496430e-04
7.110090e-04
-3.335600e-03
-3.302160e-03
-1.964750e-03
-1.910960e-03
7.158540e-04
7.496430e-04
-3.153390e-03
-2.527950e-03
-1.915660e-03
-1.964750e-03
3.176130e-03
3.254050e-03
7.496430e-04
7.110090e-04
-2.527950e-03
-3.152580e-03
-1.964750e-03
-1.910960e-03
3.254050e-03
3.175290e-03
-3.153390e-03
-2.527950e-03
-1.719620e-03
-1.586550e-03
3.176130e-03
3.254050e-03
2.160220e-03
2.221930e-03
-2.527950e-03
-3.152580e-03
-1.586550e-03
-1.727610e-03
3.254050e-03
3.175290e-03
2.221930e-03
2.161980e-03
-1.719620e-03
-1.586550e-03
3.833940e-03
3.536740e-03
2.160220e-03
2.221930e-03
-3.713990e-03
-3.827840e-03
-1.586550e-03
-1.727610e-03
3.536740e-03
3.821190e-03
2.221930e-03
2.161980e-03
-3.827840e-03
-3.706220e-03
3.833940e-03
3.536740e-03
2.698670e-03
2.360230e-03
-3.713990e-03
-3.827840e-03
-2.530170e-03
-2.560560e-03
3.536740e-03
3.821190e-03
2.360230e-03
2.695060e-03
-3.827840e-03
-3.706220e-03
-2.560560e-03
-2.528950e-03
2.698670e-03
2.360230e-03
-4.110540e-03
-4.032110e-03
-2.530170e-03
-2.560560e-03
4.700390e-03
4.665070e-03
2.360230e-03
2.695060e-03
-4.032110e-03
-4.117810e-03
-2.560560e-03
-2.528950e-03
4.665070e-03
4.704020e-03
-4.110540e-03
-4.032110e-03
-1.238960e-03
-8.500780e-04
4.700390e-03
4.665070e-03
1.649310e-03
1.607070e-03
-4.032110e-03
-4.117810e-03
-8.500780e-04
-1.254440e-03
4.665070e-03
4.704020e-03
1.607070e-03
1.658880e-03
-1.238960e-03
-8.500780e-04
5.954070e-03
5.888150e-03
1.649310e-03
1.607070e-03
-5.114440e-03
-5.068400e-03
-8.500780e-04
-1.254440e-03
5.888150e-03
5.953190e-03
1.607070e-03
1.658880e-03
-5.068400e-03
-5.114360e-03
5.954070e-03
5.888150e-03
-3.313700e-04
-5.760640e-04
-5.114440e-03
-5.068400e-03
4.603780e-04
3.726980e-04
5.888150e-03
5.953190e-03
-5.760640e-04
-3.350910e-04
-5.068400e-03
-5.114360e-03
3.726980e-04
4.572570e-04
-3.313700e-04
-5.760640e-04
-4.621090e-03
-5.064750e-03
4.603780e-04
3.726980e-04
4.236450e-03
4.266740e-03
-5.760640e-04
-3.350910e-04
-5.064750e-03
-4.631450e-03
3.726980e-04
4.572570e-04
4.266740e-03
4.241530e-03
-4.621090e-03
-5.064750e-03
5.499560e-04
3.947300e-04
4.236450e-03
4.266740e-03
-1.233750e-03
-1.136600e-03
-5.064750e-03
-4.631450e-03
3.947300e-04
5.476350e-04
4.266740e-03
4.241530e-03
-1.136600e-03
-1.227290e-03
5.499560e-04
3.947300e-04
-2.508440e-03
-2.382450e-03
-1.233750e-03
-1.136600e-03
2.280310e-04
2.200950e-04
3.947300e-04
5.476350e-04
-2.382450e-03
-2.506480e-03
-1.136600e-03
-1.227290e-03
2.200950e-04
2.280460e-04
-2.508440e-03
-2.382450e-03
-7.838270e-03
-7.952800e-03
2.280310e-04
2.200950e-04
4.852230e-03
4.895640e-03
-2.382450e-03
-2.506480e-03
-7.952800e-03
-7.833220e-03
2.200950e-04
2.280460e-04
4.895640e-03
4.850810e-03
0.000000e+00
0.000000e+00
2.714350e-04
2.433960e-04
0.000000e+00
0.000000e+00
-1.688200e-03
-1.418590e-03
0.000000e+00
0.000000e+00
2.433960e-04
2.734020e-04
0.000000e+00
0.000000e+00
-1.418590e-03
-1.688670e-03
2.714350e-04
2.433960e-04
-2.957590e-03
-2.824140e-03
-1.688200e-03
-1.418590e-03
8.440820e-04
6.854140e-04
2.433960e-04
2.734020e-04
-2.824140e-03
-2.954840e-03
-1.418590e-03
-1.688670e-03
6.854140e-04
8.412770e-04
-2.957590e-03