MercuryDPM 0.14 name SingleSphere revision 5159 repository https://svn.mercurydpm.org/SourceCode/Branches/SCouplingTest
dataFile    fileType ONE_FILE saveCount 549 counter 1003 lastSavedTimeStep 549869
fStatFile   fileType ONE_FILE saveCount 549 counter 1003 lastSavedTimeStep 549869
eneFile     fileType ONE_FILE saveCount 549 counter 1003 lastSavedTimeStep 549869
restartFile fileType ONE_FILE saveCount 549 counter 1003 lastSavedTimeStep 549869
statFile    fileType ONE_FILE saveCount 549 counter 0
interactionFile fileType NO_FILE saveCount 0 counter 0
xMin -500 xMax 500 yMin -5000 yMax 5000 zMin -500 zMax 5000
timeStep 0.090930880724823 time 50000.0724529279 ntimeSteps 549869 timeMax 50000
systemDimensions 3 particleDimensions 3 gravity 0 0 -0.00981 writeVTK 1 MULTIPLE_FILES NO_FILE 1003 1003 0 random  0 1103515245 12345 1073741824 607 273 784607267
Species 1
LinearViscoelasticSpecies id 0 density 20000 stiffness 20000000000 dissipation 185190105.022123
Walls 992
TriangleWall id 0 indSpecies 0 position -199.928862584735 -5933.30015260165 -400.006536606398 orientation 1 0 0 0 velocity 0 0 0 angularVelocity 0 0 0 force 0 0 0 torque 0 0 0 vertexInLabFrame  0.142274830530567 133.399694796694 -0.0130732127963142 -200.071137415265 -66.6998473983476 0.00653660639818554 199.928862584735 -66.6998473983476 0.00653660639818554
TriangleWall id 1 indSpecies 0 position -66.4558625915476 -5799.89163137672 -399.947994640438 orientation 1 0 0 0 velocity 0 0 0 angularVelocity 0 0 0 force 0 0 0 torque 0 0 0 vertexInLabFrame  -133.330725162657 -0.00882642823944479 -0.0716151787560193 66.4558625915476 -200.108368623281 -0.0520053595615195 66.8748625711089 200.117195051521 0.123620538317653
TriangleWall id 2 indSpecies 0 position -199.644312923674 -5666.50076300826 -400.032683031991 orientation 1 0 0 0 velocity 0 0 0 angularVelocity 0 0 0 force 0 0 0 torque 0 0 0 vertexInLabFrame  -0.142274830530539 -133.399694796695 0.0130732127964279 200.063312903235 66.7263266830651 0.2083089298701 -199.921038072704 66.6733681136284 -0.221382142666357
TriangleWall id 3 indSpecies 0 position -333.117312916861 -5799.9092842332 -400.091224997951 orientation 1 0 0 0 velocity 0 0 0 angularVelocity 0 0 0 force 0 0 0 torque 0 0 0 vertexInLabFrame  133.330725162657 0.00882642824035429 0.0716151787560761 -66.4480380795173 200.081889338564 -0.162840176706709 -66.8826870831393 -200.090715766802 0.0912249979505759
TriangleWall id 4 indSpecies 0 position 200.06867041007 -5933.29234281367 -399.939446708078 orientation 1 0 0 0 velocity 0 0 0 angularVelocity 0 0 0 force 0 0 0 torque 0 0 0 vertexInLabFrame  0.137340820139713 133.415314372662 0.121106583844494 -200.06867041007 -66.7076571863299 -0.0605532919221901 199.93132958993 -66.7076571863299 -0.0605532919221901
TriangleWall id 5 indSpecies 0 position 333.537018723829 -5799.87023529328 -399.755775506349 orientation 1 0 0 0 velocity 0 0 0 angularVelocity 0 0 0 force 0 0 0 torque 0 0 0 vertexInLabFrame  -133.331007493619 -0.00679314772696671 -0.0625646178847887 66.4629812761712 -200.129764706719 -0.244224493651473 66.8680262174481 200.136557854446 0.306789111536204
TriangleWall id 6 indSpecies 0 position 200.343352050349 -5666.46171406835 -399.697233540389 orientation 1 0 0 0 velocity 0 0 0 angularVelocity 0 0 0 force 0 0 0 torque 0 0 0 vertexInLabFrame  -0.137340820139684 -133.415314372661 -0.121106583844494 200.061692890928 66.7280366295117 0.248247145576499 -199.924352070788 66.6872777431499 -0.127140561732006
TriangleWall id 7 indSpecies 0 position 66.8750037365903 -5799.88382158873 -399.880904742118 orientation 1 0 0 0 velocity 0 0 0 angularVelocity 0 0 0 force 0 0 0 torque 0 0 0 vertexInLabFrame  133.331007493619 0.00679314772605721 0.0625646178847319 -66.456003757029 200.109385263537 0.0565306399972201 -66.8750037365903 -200.116178411266 -0.119095257881952
TriangleWall id 8 indSpecies 0 position -199.553883165538 -5533.06581159723 -399.997692371211 orientation 1 0 0 0 velocity 0 0 0 angularVelocity 0 0 0 force 0 0 0 torque 0 0 0 vertexInLabFrame  0.0385846857404601 133.470208025381 0.0830545343560516 -200.01146783084 -66.7615832974088 -0.256372803446254 199.972883145099 -66.7086247279722 0.173318269090203
TriangleWall id 9 indSpecies 0 position -66.1941954345126 -5399.57979443506 -399.738688039685 orientation 1 0 0 0 velocity 0 0 0 angularVelocity 0 0 0 force 0 0 0 torque 0 0 0 vertexInLabFrame  -133.321103045285 -0.0158091367893576 -0.175949797169892 66.613195414074 -200.194641890143 -0.085686062435741 66.707907631211 200.210451026935 0.261635859605519
TriangleWall id 10 indSpecies 0 position -199.476713794057 -5266.12539554646 -399.831583302499 orientation 1 0 0 0 velocity 0 0 0 angularVelocity 0 0 0 force 0 0 0 torque 0 0 0 vertexInLabFrame  -0.0385846857404317 -133.470208025381 -0.0830545343559947 199.990425990756 66.756052138343 0.354531122419417 -199.951841305015 66.714155887038 -0.271476588063422
TriangleWall id 11 indSpecies 0 position -332.836401525083 -5399.61141270863 -400.090587634025 orientation 1 0 0 0 velocity 0 0 0 angularVelocity 0 0 0 force 0 0 0 torque 0 0 0 vertexInLabFrame  133.321103045285 0.0158091367893576 0.175949797169892 -66.5921535739897 200.200173049208 -0.012472256537535 -66.7289494712954 -200.215982186 -0.163477540632414
TriangleWall id 12 indSpecies 0 position 200.424233411473 -5533.01922044483 -399.56686200833 orientation 1 0 0 0 velocity 0 0 0 angularVelocity 0 0 0 force 0 0 0 torque 0 0 0 vertexInLabFrame  0.0244219021083438 133.469672874381 0.1396364802726 -200.005233431912 -66.7552158803719 -0.257512093790638 199.980811529804 -66.7144569940101 0.117875613517867
TriangleWall id 13 indSpecies 0 position 333.770188130549 -5399.5346527063 -399.278233786029 orientation 1 0 0 0 velocity 0 0 0 angularVelocity 0 0 0 force 0 0 0 torque 0 0 0 vertexInLabFrame  -133.321532816968 -0.0148948641426614 -0.148991742028329 66.6348568107274 -200.199024732534 -0.170752608783062 66.6866760062403 200.213919596677 0.319744350811447
TriangleWall id 14 indSpecies 0 position 200.47307721569 -5266.07987469606 -399.287589047785 orientation 1 0 0 0 velocity 0 0 0 angularVelocity 0 0 0 force 0 0 0 torque 0 0 0 vertexInLabFrame  -0.0244219021083438 -133.469672874381 -0.139636480272543 199.9837869211 66.7591415864381 0.329099612567234 -199.959365018992 66.710531287943 -0.18946313229452
TriangleWall id 15 indSpecies 0 position 67.1271224966138 -5399.56444243459 -399.576217270086 orientation 1 0 0 0 velocity 0 0 0 angularVelocity 0 0 0 force 0 0 0 torque 0 0 0 vertexInLabFrame  133.321532816968 0.0148948641435709 0.148991742028443 -66.6134102999154 200.195099026468 0.0991650900064656 -66.7081225170524 -200.209993890609 -0.248156832034795
TriangleWall id 16 indSpecies 0 position -199.487402215571 -5132.62689587795 -399.625268725576 orientation 1 0 0 0 velocity 0 0 0 angularVelocity 0 0 0 force 0 0 0 torque 0 0 0 vertexInLabFrame  -0.0599615287683832 133.526791311639 0.329574619489506 -199.941152883501 -66.7843437814709 -0.477791164986229 200.00111441227 -66.7424475301659 0.148216545496609
TriangleWall id 17 indSpecies 0 position -66.2197143360233 -4999.09178907215 -399.139604242186 orientation 1 0 0 0 velocity 0 0 0 angularVelocity 0 0 0 force 0 0 0 torque 0 0 0 vertexInLabFrame  -133.327649408316 -0.00831549416398047 -0.15608986390049 66.7334265327217 -200.277554335968 -0.337447937893387 66.5942228755945 200.285869830132 0.493537801793764
TriangleWall id 18 indSpecies 0 position -199.607325273108 -4865.57331325468 -398.966119486597 orientation 1 0 0 0 velocity 0 0 0 angularVelocity 0 0 0 force 0 0 0 torque 0 0 0 vertexInLabFrame  0.0599615287683832 -133.526791311638 -0.329574619489506 199.981833812679 66.7673940126579 0.320053046204748 -200.041795341447 66.7593972989807 0.00952157328481462
TriangleWall id 19 indSpecies 0 position -332.875013152656 -4999.10842006048 -399.451783969987 orientation 1 0 0 0 velocity 0 0 0 angularVelocity 0 0 0 force 0 0 0 torque 0 0 0 vertexInLabFrame  133.327649408316 0.00831549416307098 0.15608986390049 -66.7741074618996 200.294504104781 0.495186056674811 -66.5535419464166 -200.302819598946 -0.651275920575245
TriangleWall id 20 indSpecies 0 position 200.468841630649 -5132.5895560356 -399.086713356191 orientation 1 0 0 0 velocity 0 0 0 angularVelocity 0 0 0 force 0 0 0 torque 0 0 0 vertexInLabFrame  -0.0328930721895233 133.510964446542 0.262114902914732 -199.955129433951 -66.7797873725185 -0.390338823888271 199.98802250614 -66.7311770740234 0.128223920973483
TriangleWall id 21 indSpecies 0 position 333.763840685343 -4999.07256509839 -398.666624548637 orientation 1 0 0 0 velocity 0 0 0 angularVelocity 0 0 0 force 0 0 0 torque 0 0 0 vertexInLabFrame  -133.327892126883 -0.00602649067423044 -0.157973904639618 66.6930234514466 -200.24816801124 -0.291864886580868 66.6348686754367 200.254194501915 0.449838791220429
TriangleWall id 22 indSpecies 0 position 200.40305548627 -4865.56762714252 -398.562483550362 orientation 1 0 0 0 velocity 0 0 0 angularVelocity 0 0 0 force 0 0 0 torque 0 0 0 vertexInLabFrame  0.0328930721895517 -133.510964446543 -0.262114902914732 199.99565387451 66.7492565460461 0.345697792945316 -200.028546946699 66.7617079004967 -0.0835828900305842
TriangleWall id 23 indSpecies 0 position 67.1080564315764 -4999.08461807973 -398.982572357916 orientation 1 0 0 0 velocity 0 0 0 angularVelocity 0 0 0 force 0 0 0 torque 0 0 0 vertexInLabFrame  133.327892126883 0.00602649067423044 0.157973904639675 -66.7335478920053 200.278698837714 0.336505917523823 -66.5943442348781 -200.284725328386 -0.494479822163328
TriangleWall id 24 indSpecies 0 position -199.665268197632 -4732.07346003922 -398.55335173645 orientation 1 0 0 0 velocity 0 0 0 angularVelocity 0 0 0 force 0 0 0 torque 0 0 0 vertexInLabFrame  -0.0559243202787627 133.472915119282 0.495960880804944 -199.983852416924 -66.7404559164797 -0.40324617686241 200.039776737203 -66.7324592028026 -0.0927147039424767
TriangleWall id 25 indSpecies 0 position -66.3706104563556 -4598.59721032702 -397.998177898483 orientation 1 0 0 0 velocity 0 0 0 angularVelocity 0 0 0 force 0 0 0 torque 0 0 0 vertexInLabFrame  -133.350582061555 -0.00333459291414329 -0.0592129571622309 66.7451189959267 -200.208708914999 -0.647888541909651 66.605463065628 200.212043507912 0.707101499071825
TriangleWall id 26 indSpecies 0 position -199.777116838189 -4465.12762980065 -397.56142997484 orientation 1 0 0 0 velocity 0 0 0 angularVelocity 0 0 0 force 0 0 0 torque 0 0 0 vertexInLabFrame  0.0559243202788196 -133.472915119283 -0.495960880805001 200.011969447462 66.7424629815432 0.270353575429056 -200.06789376774 66.7304521377409 0.225607305375888
TriangleWall id 27 indSpecies 0 position -333.071774579465 -4598.60387951285 -398.116603812807 orientation 1 0 0 0 velocity 0 0 0 angularVelocity 0 0 0 force 0 0 0 torque 0 0 0 vertexInLabFrame  133.350582061555 0.00333459291323379 0.059212957162174 -66.7732360264644 200.206701849937 0.780781143343063 -66.5773460350903 -200.210036442849 -0.83999410050518
TriangleWall id 28 indSpecies 0 position 200.368130698185 -4732.07712291842 -398.212822038862 orientation 1 0 0 0 velocity 0 0 0 angularVelocity 0 0 0 force 0 0 0 torque 0 0 0 vertexInLabFrame  -0.0369565039809174 133.470044001648 0.437208120083994 -199.993622158614 -66.7287963235985 -0.433244401529919 200.030578662595 -66.7412476780491 -0.00396371855401867
TriangleWall id 29 indSpecies 0 position 333.682169940726 -4598.61476950758 -397.646975584696 orientation 1 0 0 0 velocity 0 0 0 angularVelocity 0 0 0 force 0 0 0 torque 0 0 0 vertexInLabFrame  -133.350995746522 0.00769059080630541 -0.128638334082041 66.7165394200541 -200.203601088891 -0.569810172720054 66.6344563264673 200.195910498084 0.698448506802151
TriangleWall id 30 indSpecies 0 position 200.294217690223 -4465.13703491513 -397.338405798695 orientation 1 0 0 0 velocity 0 0 0 angularVelocity 0 0 0 force 0 0 0 torque 0 0 0 vertexInLabFrame  0.036956503980889 -133.470044001648 -0.437208120083938 200.02240857697 66.7181759056302 0.389878720800255 -200.059365080951 66.7518680960175 0.0473293992836261
TriangleWall id 31 indSpecies 0 position 66.9801784476826 -4598.59938832597 -397.904252252861 orientation 1 0 0 0 velocity 0 0 0 angularVelocity 0 0 0 force 0 0 0 torque 0 0 0 vertexInLabFrame  133.350995746522 -0.00769059080630541 0.128638334082154 -66.7453258384101 200.214221506859 0.613175853449718 -66.6056699081114 -200.206530916053 -0.741814187531759
TriangleWall id 32 indSpecies 0 position -199.803356957759 -4331.65207157029 -397.06402290661 orientation 1 0 0 0 velocity 0 0 0 angularVelocity 0 0 0 force 0 0 0 torque 0 0 0 vertexInLabFrame  0.00344408113920736 133.478201341445 0.498853255654694 -200.041653648171 -66.7451060926242 -0.271799762854016 200.038209567031 -66.7330952488219 -0.227053492800849
TriangleWall id 33 indSpecies 0 position -66.4424088420445 -4198.16863785802 -396.520621069161 orientation 1 0 0 0 velocity 0 0 0 angularVelocity 0 0 0 force 0 0 0 torque 0 0 0 vertexInLabFrame  -133.357504034575 -0.00523237082506967 -0.0445485817946292 66.677261451317 -200.216528961092 -0.770455330250172 66.6802425832581 200.221761331918 0.815003912044858
TriangleWall id 34 indSpecies 0 position -199.79646879548 -4064.6956688874 -396.066316395301 orientation 1 0 0 0 velocity 0 0 0 angularVelocity 0 0 0 force 0 0 0 torque 0 0 0 vertexInLabFrame  -0.00344408113929262 -133.478201341446 -0.498853255654751 200.034302536694 66.7487923612962 0.360699238184736 -200.030858455555 66.7294089801494 0.138154017470015
TriangleWall id 35 indSpecies 0 position -333.157416911195 -4198.17910259967 -396.60971823275 orientation 1 0 0 0 velocity 0 0 0 angularVelocity 0 0 0 force 0 0 0 torque 0 0 0 vertexInLabFrame  133.357504034575 0.00523237082506967 0.0445485817946292 -66.6699103398404 200.212842692421 0.681555854919395 -66.6875936947347 -200.218075063244 -0.726104436714081
TriangleWall id 36 indSpecies 0 position 200.274625815728 -4331.66180485698 -396.852058222729 orientation 1 0 0 0 velocity 0 0 0 angularVelocity 0 0 0 force 0 0 0 torque 0 0 0 vertexInLabFrame  -0.00222724500872573 133.480416114638 0.535487031847026 -200.039773206456 -66.7233619621256 -0.439018176681827 200.042000451465 -66.7570541525129 -0.0964688551651989
TriangleWall id 37 indSpecies 0 position 333.629768834371 -4198.19163345551 -396.195387465961 orientation 1 0 0 0 velocity 0 0 0 angularVelocity 0 0 0 force 0 0 0 torque 0 0 0 vertexInLabFrame  -133.357370263651 0.0102447131603185 -0.121183724920854 66.6868574328223 -200.22722555399 -0.753139611933079 66.6705128308289 200.21698084083 0.874323336853934
TriangleWall id 38 indSpecies 0 position 200.270171325711 -4064.70097262771 -395.781084159035 orientation 1 0 0 0 velocity 0 0 0 angularVelocity 0 0 0 force 0 0 0 torque 0 0 0 vertexInLabFrame  0.00222724500869731 -133.480416114639 -0.535487031846969 200.030110339489 66.7263200130305 0.460020029927819 -200.032337584497 66.7540961016075 0.0754670019192076
TriangleWall id 39 indSpecies 0 position 66.9150283070686 -4198.17114402918 -396.437754915803 orientation 1 0 0 0 velocity 0 0 0 angularVelocity 0 0 0 force 0 0 0 torque 0 0 0 vertexInLabFrame  133.357370263651 -0.010244713161228 0.121183724920911 -66.677194565855 200.224267503085 0.732137758687088 -66.6801756977961 -200.214022789924 -0.853321483607942
TriangleWall id 40 indSpecies 0 position -199.788526463862 -3931.19195130441 -395.391502693755 orientation 1 0 0 0 velocity 0 0 0 angularVelocity 0 0 0 force 0 0 0 torque 0 0 0 vertexInLabFrame  0.0124405820964455 133.529233824515 0.850774147437448 -200.038800787173 -66.7743086028318 -0.536659684076085 200.026360205076 -66.754925221685 -0.314114463361364
TriangleWall id 41 indSpecies 0 position -66.4302066298318 -3797.67519172786 -394.450279268517 orientation 1 0 0 0 velocity 0 0 0 angularVelocity 0 0 0 force 0 0 0 torque 0 0 0 vertexInLabFrame  -133.345879251934 0.0124742479647466 -0.0904492777998485 66.6680403710454 -200.271684798236 -1.25533788859866 66.6778388808889 200.25921055027 1.34578716639868
TriangleWall id 42 indSpecies 0 position -199.76364529967 -3664.13348365538 -393.68995439888 orientation 1 0 0 0 velocity 0 0 0 angularVelocity 0 0 0 force 0 0 0 torque 0 0 0 vertexInLabFrame  -0.0124405820964455 -133.529233824515 -0.850774147437392 200.011277550727 66.7175024777898 0.585462296761136 -199.99883696863 66.8117313467255 0.265311850676369
TriangleWall id 43 indSpecies 0 position -333.1219651337 -3797.65024323193 -394.631177824117 orientation 1 0 0 0 velocity 0 0 0 angularVelocity 0 0 0 force 0 0 0 torque 0 0 0 vertexInLabFrame  133.345879251934 -0.0124742479647466 0.0904492777999053 -66.6405171345995 200.328490923276 1.20653527591367 -66.7053621173348 -200.316016675312 -1.29698455371363
TriangleWall id 44 indSpecies 0 position 200.266319480868 -3931.21013014176 -395.086822026552 orientation 1 0 0 0 velocity 0 0 0 angularVelocity 0 0 0 force 0 0 0 torque 0 0 0 vertexInLabFrame  -0.00547644467721398 133.501268857263 0.853037233118982 -200.028485739654 -66.7367463843425 -0.618795130563853 200.033962184332 -66.7645224729195 -0.234242102555243
TriangleWall id 45 indSpecies 0 position 333.606249729561 -3797.72714957293 -394.119604902644 orientation 1 0 0 0 velocity 0 0 0 angularVelocity 0 0 0 force 0 0 0 torque 0 0 0 vertexInLabFrame  -133.34540669337 0.0182882884314495 -0.114179890789558 66.6940319356385 -200.247503041751 -1.20145922646378 66.6513747577317 200.229214753321 1.31563911725328
TriangleWall id 46 indSpecies 0 position 200.255366591514 -3664.20759242723 -393.380747560314 orientation 1 0 0 0 velocity 0 0 0 angularVelocity 0 0 0 force 0 0 0 torque 0 0 0 vertexInLabFrame  0.00547644467718555 -133.501268857263 -0.853037233119153 200.002257895779 66.709657607626 0.576781774923688 -200.007734340456 66.7916112496364 0.276255458195351
TriangleWall id 47 indSpecies 0 position 66.9154363428205 -3797.69057299606 -394.347964684223 orientation 1 0 0 0 velocity 0 0 0 angularVelocity 0 0 0 force 0 0 0 torque 0 0 0 vertexInLabFrame  133.34540669337 -0.0182882884314495 0.114179890789444 -66.6678040917634 200.274591818468 1.24347258210395 -66.6776026016069 -200.256303530037 -1.35765247289339
TriangleWall id 48 indSpecies 0 position -199.75031412991 -3530.6437723438 -392.766227687234 orientation 1 0 0 0 velocity 0 0 0 angularVelocity 0 0 0 force 0 0 0 torque 0 0 0 vertexInLabFrame  0.014221757421808 133.450188798648 0.996679275854774 -200.012168138389 -66.6779799648557 -0.658414860969799 199.997946380968 -66.7722088337914 -0.338264414885032
TriangleWall id 49 indSpecies 0 position -66.4110895536392 -3397.23205645674 -391.669219405732 orientation 1 0 0 0 velocity 0 0 0 angularVelocity 0 0 0 force 0 0 0 torque 0 0 0 vertexInLabFrame  -133.325002818849 0.0384729115894515 -0.100329005647211 66.6587218046964 -200.18392472085 -1.43527269638702 66.666281014153 200.145451809261 1.53560170203417
TriangleWall id 50 indSpecies 0 position -199.721870615067 -3263.74339474651 -390.772869135524 orientation 1 0 0 0 velocity 0 0 0 angularVelocity 0 0 0 force 0 0 0 torque 0 0 0 vertexInLabFrame  -0.0142217574218364 -133.450188798648 -0.996679275854831 199.977062075581 66.656790099024 0.639251431826551 -199.962840318159 66.7933986996227 0.357427844028336
TriangleWall id 51 indSpecies 0 position -333.061095191338 -3397.15511063357 -391.869877417026 orientation 1 0 0 0 velocity 0 0 0 angularVelocity 0 0 0 force 0 0 0 torque 0 0 0 vertexInLabFrame  133.325002818849 -0.038472911588542 0.100329005647154 -66.6236157418876 200.205114586682 1.45443612553032 -66.7013870769619 -200.166641675092 -1.55476513117742
TriangleWall id 52 indSpecies 0 position 200.248143148389 -3530.74186430798 -392.475255727464 orientation 1 0 0 0 velocity 0 0 0 angularVelocity 0 0 0 force 0 0 0 torque 0 0 0 vertexInLabFrame  -0.00897044157187565 133.430187381244 0.957946432581252 -200.000510897332 -66.6741168696171 -0.629236374654852 200.009481338904 -66.7560705116275 -0.328710057926514
TriangleWall id 53 indSpecies 0 position 333.564346607505 -3397.3519329362 -391.449478889532 orientation 1 0 0 0 velocity 0 0 0 angularVelocity 0 0 0 force 0 0 0 torque 0 0 0 vertexInLabFrame  -133.325173900688 0.0402560094630644 -0.0678304053503211 66.693277879788 -200.146001883409 -1.35448689585809 66.6318960208998 200.105745873946 1.42231730120847
TriangleWall id 54 indSpecies 0 position 200.230202265245 -3263.88148954549 -390.559362862301 orientation 1 0 0 0 velocity 0 0 0 angularVelocity 0 0 0 force 0 0 0 torque 0 0 0 vertexInLabFrame  0.0089704415719325 -133.430187381244 -0.957946432581309 199.96604036316 66.6353024832388 0.532201273977478 -199.975010804731 66.7948848980059 0.425745158603775
TriangleWall id 55 indSpecies 0 position 66.9139988061293 -3397.27142091727 -391.585139700233 orientation 1 0 0 0 velocity 0 0 0 angularVelocity 0 0 0 force 0 0 0 torque 0 0 0 vertexInLabFrame  133.325173900688 -0.0402560094626097 0.0678304053503211 -66.6588073456155 200.184816269787 1.4515219965354 -66.6663665550722 -200.144560260324 -1.51935240188578
TriangleWall id 56 indSpecies 0 position -199.697359458898 -3130.30732828028 -389.757576143277 orientation 1 0 0 0 velocity 0 0 0 angularVelocity 0 0 0 force 0 0 0 torque 0 0 0 vertexInLabFrame  0.0348005549153356 133.421944133803 1.03390670863979 -199.987351474327 -66.6426677666022 -0.657865148219003 199.952550919412 -66.779276367201 -0.376041560420788
TriangleWall id 57 indSpecies 0 position -66.3482897334399 -2996.91497867743 -388.617861721909 orientation 1 0 0 0 velocity 0 0 0 angularVelocity 0 0 0 force 0 0 0 torque 0 0 0 vertexInLabFrame  -133.314269170543 0.0295945309499075 -0.105807712728222 66.6034811939537 -200.171625970054 -1.5157559817888 66.7107879765893 200.142031439103 1.62156369451719
TriangleWall id 58 indSpecies 0 position -199.627758349067 -2863.46344001268 -387.689762725997 orientation 1 0 0 0 velocity 0 0 0 angularVelocity 0 0 0 force 0 0 0 torque 0 0 0 vertexInLabFrame  -0.0348005549153925 -133.421944133803 -1.03390670863979 199.990256592217 66.6904927743503 0.693464698605624 -199.955456037302 66.7314513594529 0.34044201003428
TriangleWall id 59 indSpecies 0 position -332.976828074526 -2996.85578961553 -388.829477147365 orientation 1 0 0 0 velocity 0 0 0 angularVelocity 0 0 0 force 0 0 0 torque 0 0 0 vertexInLabFrame  133.314269170543 -0.0295945309503622 0.105807712728222 -66.6063863118433 200.123800962306 1.48015643140229 -66.7078828586997 -200.094206431356 -1.58596414413057
TriangleWall id 60 indSpecies 0 position 200.243964643839 -3130.44065845515 -389.558425554892 orientation 1 0 0 0 velocity 0 0 0 angularVelocity 0 0 0 force 0 0 0 torque 0 0 0 vertexInLabFrame  0.0364951987600648 133.451474799433 1.04392818223607 -199.988773183325 -66.6459461923328 -0.575192148804945 199.952277984565 -66.8055286070999 -0.468736033431242
TriangleWall id 61 indSpecies 0 position 333.594869836445 -2997.02878879759 -388.480857044064 orientation 1 0 0 0 velocity 0 0 0 angularVelocity 0 0 0 force 0 0 0 torque 0 0 0 vertexInLabFrame  -133.314409993845 0.039605141876109 -0.0336403285920142 66.6013727919602 -200.217398264656 -1.54630454425933 66.713037201885 200.177793122782 1.57994487285134
TriangleWall id 62 indSpecies 0 position 200.316955041359 -2863.53770885629 -387.47056919042 orientation 1 0 0 0 velocity 0 0 0 angularVelocity 0 0 0 force 0 0 0 torque 0 0 0 vertexInLabFrame  -0.0364951987601216 -133.451474799433 -1.04392818223613 199.99095199697 66.6867131814729 0.569657019207227 -199.95445679821 66.7647616179597 0.474271163028845
TriangleWall id 63 indSpecies 0 position 66.9660498487542 -2996.94957851384 -388.548137701248 orientation 1 0 0 0 velocity 0 0 0 angularVelocity 0 0 0 force 0 0 0 torque 0 0 0 vertexInLabFrame  133.314409993845 -0.0396051418751995 0.0336403285920142 -66.6035516056047 200.176631275517 1.55183967385699 -66.7108583882404 -200.137026133641 -1.585480002449
TriangleWall id 64 indSpecies 0 position -199.621125325926 -2730.03249386364 -386.583265581331 orientation 1 0 0 0 velocity 0 0 0 angularVelocity 0 0 0 force 0 0 0 torque 0 0 0 vertexInLabFrame  -0.0215345086327261 133.439948164266 1.17908758069279 -199.962089060443 -66.6994947895819 -0.766055134632097 199.983623569076 -66.7404533746844 -0.413032446060754
TriangleWall id 65 indSpecies 0 position -66.3305193109487 -2596.5968739913 -385.278484212795 orientation 1 0 0 0 velocity 0 0 0 angularVelocity 0 0 0 force 0 0 0 torque 0 0 0 vertexInLabFrame  -133.31214052361 0.00432829192914141 -0.125693787842749 66.6930175540982 -200.176073247021 -1.7178138145963 66.619122969512 200.171744955093 1.8435076024391
TriangleWall id 66 indSpecies 0 position -199.664194343192 -2463.15259753511 -384.225090419945 orientation 1 0 0 0 velocity 0 0 0 angularVelocity 0 0 0 force 0 0 0 torque 0 0 0 vertexInLabFrame  0.0215345086327261 -133.439948164266 -1.17908758069285 199.952798001755 66.7274684988979 0.790113809589002 -199.974332510388 66.7124796653675 0.388973771103736
TriangleWall id 67 indSpecies 0 position -332.954800358169 -2596.58821740745 -385.529871788481 orientation 1 0 0 0 velocity 0 0 0 angularVelocity 0 0 0 force 0 0 0 torque 0 0 0 vertexInLabFrame  133.31214052361 -0.00432829192868667 0.125693787842806 -66.6837264954103 200.148099537705 1.69375513963939 -66.6284140282 -200.143771245776 -1.81944892748209
TriangleWall id 68 indSpecies 0 position 200.321658675439 -2730.07681468412 -386.349778507227 orientation 1 0 0 0 velocity 0 0 0 angularVelocity 0 0 0 force 0 0 0 torque 0 0 0 vertexInLabFrame  -0.0270879306006861 133.470313544905 1.19765318415034 -199.95916043229 -66.6961325542093 -0.646519520164304 199.98624836289 -66.7741809906961 -0.551133663985922
TriangleWall id 69 indSpecies 0 position 333.607250607493 -2596.61147647384 -385.109783992545 orientation 1 0 0 0 velocity 0 0 0 angularVelocity 0 0 0 force 0 0 0 torque 0 0 0 vertexInLabFrame  -133.312679862655 0.00497533462794308 -0.0423413305312579 66.7006564308364 -200.239519200974 -1.79112817866752 66.6120234318183 200.234543866345 1.83346950919884
TriangleWall id 70 indSpecies 0 position 200.267482814238 -2463.13618759431 -383.954472138926 orientation 1 0 0 0 velocity 0 0 0 angularVelocity 0 0 0 force 0 0 0 torque 0 0 0 vertexInLabFrame  0.0270879306007146 -133.470313544905 -1.19765318415034 199.951791225074 66.7592549868118 0.678157655579753 -199.978879155674 66.711058558094 0.519495528570417
TriangleWall id 71 indSpecies 0 position 66.9818908821837 -2596.60152580458 -385.194466653608 orientation 1 0 0 0 velocity 0 0 0 angularVelocity 0 0 0 force 0 0 0 torque 0 0 0 vertexInLabFrame  133.312679862655 -0.00497533462839783 0.0423413305312579 -66.6932872236204 200.176396768371 1.75949004325201 -66.6193926390343 -200.171421433743 -1.80183137378339
TriangleWall id 72 indSpecies 0 position -199.710391740444 -2329.70463940564 -383.00060826388 orientation 1 0 0 0 velocity 0 0 0 angularVelocity 0 0 0 force 0 0 0 torque 0 0 0 vertexInLabFrame  -0.0708602858724419 133.455968094681 1.2698767314368 -199.928135113135 -66.7354784641057 -0.835508384961088 199.998995399008 -66.7204896305752 -0.434368346475821
TriangleWall id 73 indSpecies 0 position -66.4644998364279 -2196.24475672973 -381.640386949502 orientation 1 0 0 0 velocity 0 0 0 angularVelocity 0 0 0 force 0 0 0 torque 0 0 0 vertexInLabFrame  -133.316752189889 -0.003914581227491 -0.0903445829418388 66.7531034949912 -200.180372306484 -1.79458966085446 66.5636486948977 200.184286887711 1.88493424379629
TriangleWall id 74 indSpecies 0 position -199.852112312189 -2062.79270321627 -380.460854801006 orientation 1 0 0 0 velocity 0 0 0 angularVelocity 0 0 0 force 0 0 0 torque 0 0 0 vertexInLabFrame  0.0708602858724703 -133.455968094681 -1.26987673143691 199.951261170659 66.7322333742572 0.705402095301224 -200.022121456531 66.7237347204236 0.564474636135571
TriangleWall id 75 indSpecies 0 position -333.098004216206 -2196.25258589218 -381.821076115385 orientation 1 0 0 0 velocity 0 0 0 angularVelocity 0 0 0 force 0 0 0 torque 0 0 0 vertexInLabFrame  133.316752189889 0.003914581227491 0.0903445829418388 -66.776229552515 200.183617396332 1.92469595051432 -66.5405226373738 -200.187531977559 -2.01504053345604
TriangleWall id 76 indSpecies 0 position 200.225705774121 -2329.67745964922 -382.750892784572 orientation 1 0 0 0 velocity 0 0 0 angularVelocity 0 0 0 force 0 0 0 torque 0 0 0 vertexInLabFrame  -0.0564661496326835 133.447142345255 1.20950552455946 -199.937102115558 -66.7476693869867 -0.684083825784398 199.99356826519 -66.6994729582689 -0.525421698775062
TriangleWall id 77 indSpecies 0 position 333.486148535136 -2196.22199588054 -381.505502328 orientation 1 0 0 0 velocity 0 0 0 angularVelocity 0 0 0 force 0 0 0 torque 0 0 0 vertexInLabFrame  -133.316908910648 -0.00832142342960651 -0.0358849320122658 66.7331255041753 -200.154936726953 -1.77081215534679 66.5837834064725 200.163258150382 1.80669708735905
TriangleWall id 78 indSpecies 0 position 200.112773474856 -2062.78317495871 -380.331881735453 orientation 1 0 0 0 velocity 0 0 0 angularVelocity 0 0 0 force 0 0 0 torque 0 0 0 vertexInLabFrame  0.0564661496327119 -133.447142345255 -1.2095055245594 199.957158466753 66.7244372285566 0.633076494811917 -200.013624616386 66.7227051166979 0.576429029747487
TriangleWall id 79 indSpecies 0 position 66.8523307138405 -2196.2386387274 -381.577272192025 orientation 1 0 0 0 velocity 0 0 0 angularVelocity 0 0 0 force 0 0 0 torque 0 0 0 vertexInLabFrame  133.316908910648 0.00832142342960651 0.0358849320123795 -66.7531818553707 200.178168885383 1.82181948631927 -66.5637270552772 -200.186490308812 -1.85770441833148
TriangleWall id 80 indSpecies 0 position -199.899094171071 -1929.31161742297 -379.134721663013 orientation 1 0 0 0 velocity 0 0 0 angularVelocity 0 0 0 force 0 0 0 torque 0 0 0 vertexInLabFrame  -0.0231034318906325 133.506203491927 1.38238954455051 -199.97513959765 -66.7573510728805 -0.761658501858051 199.99824302954 -66.7488524190469 -0.620731042692398