<?xml version="1.0"?>
<VTKFile type="UnstructuredGrid" version="0.1" byte_order="LittleEndian" compressor="vtkZLibDataCompressor">
<UnstructuredGrid>
<Piece NumberOfPoints="960" NumberOfCells="120">
<Points>
<DataArray type="Float32" NumberOfComponents="3" format="ascii">
-4.000000e+02 -6.000000e+03 -4.000000e+02
0.000000e+00 -6.000000e+03 -4.000000e+02
-4.000000e+02 -5.600030e+03 -4.000180e+02
-2.173450e-07 -5.600030e+03 -4.000180e+02
-4.000000e+02 -6.000000e+03 0.000000e+00
0.000000e+00 -6.000000e+03 0.000000e+00
-4.000000e+02 -5.600000e+03 -2.462930e-02
-8.758200e-07 -5.600000e+03 -2.524720e-02
0.000000e+00 -6.000000e+03 -4.000000e+02
4.000000e+02 -6.000000e+03 -4.000000e+02
-2.173450e-07 -5.600030e+03 -4.000180e+02
4.000000e+02 -5.600030e+03 -4.000180e+02
0.000000e+00 -6.000000e+03 0.000000e+00
4.000000e+02 -6.000000e+03 0.000000e+00
-8.758200e-07 -5.600000e+03 -2.524720e-02
4.000000e+02 -5.600000e+03 -2.462960e-02
-4.000000e+02 -5.600030e+03 -4.000180e+02
-2.173450e-07 -5.600030e+03 -4.000180e+02
-4.000000e+02 -5.200050e+03 -4.000680e+02
1.508030e-06 -5.200050e+03 -4.000680e+02
-4.000000e+02 -5.600000e+03 -2.462930e-02
-8.758200e-07 -5.600000e+03 -2.524720e-02
-4.000000e+02 -5.200000e+03 -7.561470e-02
-1.122360e-06 -5.200000e+03 -7.674240e-02
-2.173450e-07 -5.600030e+03 -4.000180e+02
4.000000e+02 -5.600030e+03 -4.000180e+02
1.508030e-06 -5.200050e+03 -4.000680e+02
4.000000e+02 -5.200050e+03 -4.000680e+02
-8.758200e-07 -5.600000e+03 -2.524720e-02
4.000000e+02 -5.600000e+03 -2.462960e-02
-1.122360e-06 -5.200000e+03 -7.674240e-02
4.000000e+02 -5.200000e+03 -7.561900e-02
-4.000000e+02 -5.200050e+03 -4.000680e+02
1.508030e-06 -5.200050e+03 -4.000680e+02
-4.000000e+02 -4.800050e+03 -4.001340e+02
2.925050e-07 -4.800050e+03 -4.001340e+02
-4.000000e+02 -5.200000e+03 -7.561470e-02
-1.122360e-06 -5.200000e+03 -7.674240e-02
-4.000000e+02 -4.800000e+03 -1.357150e-01
6.263020e-07 -4.800000e+03 -1.362470e-01
1.508030e-06 -5.200050e+03 -4.000680e+02
4.000000e+02 -5.200050e+03 -4.000680e+02
2.925050e-07 -4.800050e+03 -4.001340e+02
4.000000e+02 -4.800050e+03 -4.001340e+02
-1.122360e-06 -5.200000e+03 -7.674240e-02
4.000000e+02 -5.200000e+03 -7.561900e-02
6.263020e-07 -4.800000e+03 -1.362470e-01
4.000000e+02 -4.800000e+03 -1.357190e-01
-4.000000e+02 -4.800050e+03 -4.001340e+02
2.925050e-07 -4.800050e+03 -4.001340e+02
-4.000000e+02 -4.400050e+03 -4.001860e+02
2.205450e-06 -4.400050e+03 -4.001860e+02
-4.000000e+02 -4.800000e+03 -1.357150e-01
6.263020e-07 -4.800000e+03 -1.362470e-01
-4.000000e+02 -4.400000e+03 -1.849190e-01
1.448620e-06 -4.400000e+03 -1.850790e-01
2.925050e-07 -4.800050e+03 -4.001340e+02
4.000000e+02 -4.800050e+03 -4.001340e+02
2.205450e-06 -4.400050e+03 -4.001860e+02
4.000000e+02 -4.400050e+03 -4.001860e+02
6.263020e-07 -4.800000e+03 -1.362470e-01
4.000000e+02 -4.800000e+03 -1.357190e-01
1.448620e-06 -4.400000e+03 -1.850790e-01
4.000000e+02 -4.400000e+03 -1.849150e-01
-4.000000e+02 -4.400050e+03 -4.001860e+02
2.205450e-06 -4.400050e+03 -4.001860e+02
-4.000000e+02 -4.000050e+03 -4.002300e+02
-1.412740e-08 -4.000050e+03 -4.002300e+02
-4.000000e+02 -4.400000e+03 -1.849190e-01
1.448620e-06 -4.400000e+03 -1.850790e-01
-4.000000e+02 -4.000000e+03 -2.280930e-01
4.388440e-07 -4.000000e+03 -2.279320e-01
2.205450e-06 -4.400050e+03 -4.001860e+02
4.000000e+02 -4.400050e+03 -4.001860e+02
-1.412740e-08 -4.000050e+03 -4.002300e+02
4.000000e+02 -4.000050e+03 -4.002300e+02
1.448620e-06 -4.400000e+03 -1.850790e-01
4.000000e+02 -4.400000e+03 -1.849150e-01
4.388440e-07 -4.000000e+03 -2.279320e-01
4.000000e+02 -4.000000e+03 -2.280970e-01
-4.000000e+02 -4.000050e+03 -4.002300e+02
-1.412740e-08 -4.000050e+03 -4.002300e+02
-4.000000e+02 -3.600050e+03 -4.002780e+02
-2.579450e-06 -3.600050e+03 -4.002780e+02
-4.000000e+02 -4.000000e+03 -2.280930e-01
4.388440e-07 -4.000000e+03 -2.279320e-01
-4.000000e+02 -3.600000e+03 -2.796420e-01
-9.686520e-08 -3.600000e+03 -2.795680e-01
-1.412740e-08 -4.000050e+03 -4.002300e+02
4.000000e+02 -4.000050e+03 -4.002300e+02
-2.579450e-06 -3.600050e+03 -4.002780e+02
4.000000e+02 -3.600050e+03 -4.002780e+02
4.388440e-07 -4.000000e+03 -2.279320e-01
4.000000e+02 -4.000000e+03 -2.280970e-01
-9.686520e-08 -3.600000e+03 -2.795680e-01
4.000000e+02 -3.600000e+03 -2.796520e-01
-4.000000e+02 -3.600050e+03 -4.002780e+02
-2.579450e-06 -3.600050e+03 -4.002780e+02
-4.000000e+02 -3.200050e+03 -4.003310e+02
-2.604190e-06 -3.200050e+03 -4.003320e+02
-4.000000e+02 -3.600000e+03 -2.796420e-01
-9.686520e-08 -3.600000e+03 -2.795680e-01
-4.000000e+02 -3.200000e+03 -3.353610e-01
-1.034270e-07 -3.200000e+03 -3.355400e-01
-2.579450e-06 -3.600050e+03 -4.002780e+02
4.000000e+02 -3.600050e+03 -4.002780e+02
-2.604190e-06 -3.200050e+03 -4.003320e+02
4.000000e+02 -3.200050e+03 -4.003310e+02
-9.686520e-08 -3.600000e+03 -2.795680e-01
4.000000e+02 -3.600000e+03 -2.796520e-01
-1.034270e-07 -3.200000e+03 -3.355400e-01
4.000000e+02 -3.200000e+03 -3.353660e-01
-4.000000e+02 -3.200050e+03 -4.003310e+02
-2.604190e-06 -3.200050e+03 -4.003320e+02
-4.000000e+02 -2.800050e+03 -4.003880e+02
5.108460e-06 -2.800050e+03 -4.003890e+02
-4.000000e+02 -3.200000e+03 -3.353610e-01
-1.034270e-07 -3.200000e+03 -3.355400e-01
-4.000000e+02 -2.800000e+03 -3.855380e-01
-1.003050e-06 -2.800000e+03 -3.857480e-01
-2.604190e-06 -3.200050e+03 -4.003320e+02
4.000000e+02 -3.200050e+03 -4.003310e+02
5.108460e-06 -2.800050e+03 -4.003890e+02
4.000000e+02 -2.800050e+03 -4.003880e+02
-1.034270e-07 -3.200000e+03 -3.355400e-01
4.000000e+02 -3.200000e+03 -3.353660e-01
-1.003050e-06 -2.800000e+03 -3.857480e-01
4.000000e+02 -2.800000e+03 -3.855390e-01
-4.000000e+02 -2.800050e+03 -4.003880e+02
5.108460e-06 -2.800050e+03 -4.003890e+02
-4.000000e+02 -2.400040e+03 -4.004300e+02
2.905350e-06 -2.400040e+03 -4.004300e+02
-4.000000e+02 -2.800000e+03 -3.855380e-01
-1.003050e-06 -2.800000e+03 -3.857480e-01
-4.000000e+02 -2.400000e+03 -4.258340e-01
-2.766260e-06 -2.400000e+03 -4.257110e-01
5.108460e-06 -2.800050e+03 -4.003890e+02
4.000000e+02 -2.800050e+03 -4.003880e+02
2.905350e-06 -2.400040e+03 -4.004300e+02
4.000000e+02 -2.400040e+03 -4.004300e+02
-1.003050e-06 -2.800000e+03 -3.857480e-01
4.000000e+02 -2.800000e+03 -3.855390e-01
-2.766260e-06 -2.400000e+03 -4.257110e-01
4.000000e+02 -2.400000e+03 -4.258390e-01
-4.000000e+02 -2.400040e+03 -4.004300e+02
2.905350e-06 -2.400040e+03 -4.004300e+02
-4.000000e+02 -2.000040e+03 -4.004590e+02
-5.127760e-06 -2.000040e+03 -4.004590e+02
-4.000000e+02 -2.400000e+03 -4.258340e-01
-2.766260e-06 -2.400000e+03 -4.257110e-01
-4.000000e+02 -2.000000e+03 -4.641530e-01
-3.459360e-07 -2.000000e+03 -4.640770e-01
2.905350e-06 -2.400040e+03 -4.004300e+02
4.000000e+02 -2.400040e+03 -4.004300e+02
-5.127760e-06 -2.000040e+03 -4.004590e+02
4.000000e+02 -2.000040e+03 -4.004590e+02
-2.766260e-06 -2.400000e+03 -4.257110e-01
4.000000e+02 -2.400000e+03 -4.258390e-01
-3.459360e-07 -2.000000e+03 -4.640770e-01
4.000000e+02 -2.000000e+03 -4.641700e-01
-4.000000e+02 -2.000040e+03 -4.004590e+02
-5.127760e-06 -2.000040e+03 -4.004590e+02
-4.000000e+02 -1.600040e+03 -4.005020e+02
-7.216410e-06 -1.600040e+03 -4.005020e+02
-4.000000e+02 -2.000000e+03 -4.641530e-01
-3.459360e-07 -2.000000e+03 -4.640770e-01
-4.000000e+02 -1.600000e+03 -5.055350e-01
2.152180e-07 -1.600000e+03 -5.056200e-01
-5.127760e-06 -2.000040e+03 -4.004590e+02
4.000000e+02 -2.000040e+03 -4.004590e+02
-7.216410e-06 -1.600040e+03 -4.005020e+02
4.000000e+02 -1.600040e+03 -4.005020e+02
-3.459360e-07 -2.000000e+03 -4.640770e-01
4.000000e+02 -2.000000e+03 -4.641700e-01
2.152180e-07 -1.600000e+03 -5.056200e-01
4.000000e+02 -1.600000e+03 -5.055510e-01
-4.000000e+02 -1.600040e+03 -4.005020e+02
-7.216410e-06 -1.600040e+03 -4.005020e+02
-4.000000e+02 -1.200040e+03 -4.005530e+02
-7.540160e-06 -1.200040e+03 -4.005530e+02
-4.000000e+02 -1.600000e+03 -5.055350e-01
2.152180e-07 -1.600000e+03 -5.056200e-01
-4.000000e+02 -1.200000e+03 -5.451070e-01
1.016780e-06 -1.200000e+03 -5.451740e-01
-7.216410e-06 -1.600040e+03 -4.005020e+02
4.000000e+02 -1.600040e+03 -4.005020e+02
-7.540160e-06 -1.200040e+03 -4.005530e+02
4.000000e+02 -1.200040e+03 -4.005530e+02
2.152180e-07 -1.600000e+03 -5.056200e-01
4.000000e+02 -1.600000e+03 -5.055510e-01
1.016780e-06 -1.200000e+03 -5.451740e-01
4.000000e+02 -1.200000e+03 -5.451210e-01
-4.000000e+02 -1.200040e+03 -4.005530e+02
-7.540160e-06 -1.200040e+03 -4.005530e+02
-4.000000e+02 -8.000320e+02 -4.005830e+02
-1.105450e-05 -8.000320e+02 -4.005820e+02
-4.000000e+02 -1.200000e+03 -5.451070e-01
1.016780e-06 -1.200000e+03 -5.451740e-01
-4.000000e+02 -8.000040e+02 -5.810790e-01
1.773750e-06 -8.000040e+02 -5.808520e-01
-7.540160e-06 -1.200040e+03 -4.005530e+02
4.000000e+02 -1.200040e+03 -4.005530e+02
-1.105450e-05 -8.000320e+02 -4.005820e+02
4.000000e+02 -8.000320e+02 -4.005830e+02
1.016780e-06 -1.200000e+03 -5.451740e-01
4.000000e+02 -1.200000e+03 -5.451210e-01
1.773750e-06 -8.000040e+02 -5.808520e-01
4.000000e+02 -8.000040e+02 -5.810970e-01
-4.000000e+02 -8.000320e+02 -4.005830e+02
-1.105450e-05 -8.000320e+02 -4.005820e+02
-4.000000e+02 -4.000370e+02 -4.006070e+02
-1.355860e-05 -4.000360e+02 -4.006070e+02
-4.000000e+02 -8.000040e+02 -5.810790e-01
1.773750e-06 -8.000040e+02 -5.808520e-01
-4.000000e+02 -4.000000e+02 -6.168020e-01
7.077300e-07 -4.000000e+02 -6.167040e-01
-1.105450e-05 -8.000320e+02 -4.005820e+02
4.000000e+02 -8.000320e+02 -4.005830e+02
-1.355860e-05 -4.000360e+02 -4.006070e+02
4.000000e+02 -4.000370e+02 -4.006070e+02
1.773750e-06 -8.000040e+02 -5.808520e-01
4.000000e+02 -8.000040e+02 -5.810970e-01
7.077300e-07 -4.000000e+02 -6.167040e-01
4.000000e+02 -4.000000e+02 -6.168280e-01
-4.000000e+02 -4.000370e+02 -4.006070e+02
-1.355860e-05 -4.000360e+02 -4.006070e+02
-4.000000e+02 -4.095860e-02 -4.006580e+02
-1.135880e-05 -4.081970e-02 -4.006580e+02
-4.000000e+02 -4.000000e+02 -6.168020e-01
7.077300e-07 -4.000000e+02 -6.167040e-01
-4.000000e+02 4.114340e-03 -6.552610e-01
-2.044440e-07 4.056120e-03 -6.554130e-01
-1.355860e-05 -4.000360e+02 -4.006070e+02
4.000000e+02 -4.000370e+02 -4.006070e+02
[...]
<PointData>
<DataArray type="Float32" Name="V1" format="ascii">
0.000000e+00
0.000000e+00
-9.612370e-05
-6.055590e-06
0.000000e+00
0.000000e+00
3.005080e-05
4.938430e-07
0.000000e+00
0.000000e+00
-6.055590e-06
8.401800e-05
0.000000e+00
0.000000e+00
4.938430e-07
-2.905270e-05
-9.612370e-05
-6.055590e-06
9.824390e-04
-6.123190e-06
3.005080e-05
4.938430e-07
-7.546680e-05
5.919590e-06
-6.055590e-06
8.401800e-05
-6.123190e-06
-9.946360e-04
4.938430e-07
-2.905270e-05
5.919590e-06
8.732340e-05
9.824390e-04
-6.123190e-06
1.016620e-03
5.109330e-06
-7.546680e-05
5.919590e-06
-1.522210e-04
5.780590e-07
-6.123190e-06
-9.946360e-04
5.109330e-06
-1.006360e-03
5.919590e-06
8.732340e-05
5.780590e-07
1.533800e-04
1.016620e-03
5.109330e-06
-5.367530e-04
2.836990e-06
-1.522210e-04
5.780590e-07
-8.306580e-05
-1.254840e-06
5.109330e-06
-1.006360e-03
2.836990e-06
5.424170e-04
5.780590e-07
1.533800e-04
-1.254840e-06
8.054820e-05
-5.367530e-04
2.836990e-06
-5.406090e-04
-3.911300e-06
-8.306580e-05
-1.254840e-06
-4.006940e-05
2.364700e-06
2.836990e-06
5.424170e-04
-3.911300e-06
5.327400e-04
-1.254840e-06
8.054820e-05
2.364700e-06
4.479710e-05
-5.406090e-04
-3.911300e-06
-1.174010e-04
-1.457940e-06
-4.006940e-05
2.364700e-06
2.344350e-04
-6.325070e-09
-3.911300e-06
5.327400e-04
-1.457940e-06
1.144780e-04
2.364700e-06
4.479710e-05
-6.325070e-09
-2.344480e-04
-1.174010e-04
-1.457940e-06
8.882230e-05
-1.623110e-06
2.344350e-04
-6.325070e-09
1.936150e-04
-3.110700e-07
-1.457940e-06
1.144780e-04
-1.623110e-06
-9.203350e-05
-6.325070e-09
-2.344480e-04
-3.110700e-07
-1.942610e-04
8.882230e-05
-1.623110e-06
7.676660e-04
-1.506850e-06
1.936150e-04
-3.110700e-07
-8.225910e-05
4.429330e-07
-1.623110e-06
-9.203350e-05
-1.506850e-06
-7.706600e-04
-3.110700e-07
-1.942610e-04
4.429330e-07
8.313310e-05
7.676660e-04
-1.506850e-06
-2.512610e-04
-3.657680e-06
-8.225910e-05
4.429330e-07
9.882780e-05
4.518430e-06
-1.506850e-06
-7.706600e-04
-3.657680e-06
2.439430e-04
4.429330e-07
8.313310e-05
4.518430e-06
-8.977610e-05
-2.512610e-04
-3.657680e-06
-1.241750e-03
1.954850e-06
9.882780e-05
4.518430e-06
6.680490e-05
2.120520e-06
-3.657680e-06
2.439430e-04
1.954850e-06
1.245660e-03
4.518430e-06
-8.977610e-05
2.120520e-06
-6.254280e-05
-1.241750e-03
1.954850e-06
3.511630e-05
2.401620e-06
6.680490e-05
2.120520e-06
-2.928210e-05
-2.285440e-06
1.954850e-06
1.245660e-03
2.401620e-06
-3.029340e-05
2.120520e-06
-6.254280e-05
-2.285440e-06
2.470760e-05
3.511630e-05
2.401620e-06
1.383690e-03
-4.637600e-07
-2.928210e-05
-2.285440e-06
-2.616030e-04
-2.633920e-07
2.401620e-06
-3.029340e-05
-4.637600e-07
-1.384570e-03
-2.285440e-06
2.470760e-05
-2.633920e-07
2.610660e-04
1.383690e-03
-4.637600e-07
2.704320e-04
-2.516540e-06
-2.616030e-04
-2.633920e-07
-3.261150e-04
2.235020e-06
-4.637600e-07
-1.384570e-03
-2.516540e-06
-2.754340e-04
-2.633920e-07
2.610660e-04
2.235020e-06
3.305850e-04
2.704320e-04
-2.516540e-06
-4.103340e-04
4.297320e-06
-3.261150e-04
2.235020e-06
-1.081470e-04
-6.621380e-07
-2.516540e-06
-2.754340e-04
4.297320e-06
4.189290e-04
2.235020e-06
3.305850e-04
-6.621380e-07
1.068230e-04
-4.103340e-04
4.297320e-06
-1.801200e-04
5.283560e-06
-1.081470e-04
-6.621380e-07
1.428640e-04
-4.290580e-07
4.297320e-06
4.189290e-04
5.283560e-06
1.906870e-04
-6.621380e-07
1.068230e-04
-4.290580e-07
-1.437270e-04
-1.801200e-04
5.283560e-06
-1.315990e-04
7.888490e-07
1.428640e-04
-4.290580e-07
8.135400e-05
-5.894440e-07
5.283560e-06
1.906870e-04
7.888490e-07
1.331040e-04
-4.290580e-07
-1.437270e-04
-5.894440e-07
-8.256110e-05
-1.315990e-04
7.888490e-07
2.385070e-04
-4.900150e-06
8.135400e-05
-5.894440e-07
8.264910e-06
1.068080e-06
7.888490e-07
1.331040e-04
-4.900150e-06
-2.483920e-04
-5.894440e-07
-8.256110e-05
1.068080e-06
-6.141560e-06
2.385070e-04
-4.900150e-06
3.753700e-04
1.232430e-06
8.264910e-06
1.068080e-06
1.145750e-04
-9.446530e-07
-4.900150e-06
-2.483920e-04
1.232430e-06
-3.729470e-04
1.068080e-06
-6.141560e-06
-9.446530e-07
-1.164620e-04
3.753700e-04
1.232430e-06
3.210780e-06
-5.096800e-07
1.145750e-04
-9.446530e-07
-1.913080e-04
2.871730e-06
1.232430e-06
-3.729470e-04
-5.096800e-07
-4.173160e-06
-9.446530e-07
-1.164620e-04
2.871730e-06
1.970800e-04
3.210780e-06
-5.096800e-07
-2.161200e-04
2.211090e-06
-1.913080e-04
2.871730e-06
1.129830e-04
-3.176870e-06
-5.096800e-07
-4.173160e-06
2.211090e-06
2.206080e-04
2.871730e-06
1.970800e-04
-3.176870e-06
-1.193160e-04
-2.161200e-04
2.211090e-06
6.939900e-05
-1.663700e-06
1.129830e-04
-3.176870e-06
7.946330e-05
-4.066150e-06
2.211090e-06
2.206080e-04
-1.663700e-06
-7.276660e-05
-3.176870e-06
-1.193160e-04
-4.066150e-06
-8.760650e-05
6.939900e-05
-1.663700e-06
-3.294720e-04
-7.043810e-08
7.946330e-05
-4.066150e-06
-1.479460e-04
-2.496820e-06
-1.663700e-06
-7.276660e-05
-7.043810e-08
3.292980e-04
-4.066150e-06
-8.760650e-05
-2.496820e-06
1.429620e-04
-3.294720e-04
-7.043810e-08
-3.754930e-05
2.714530e-06
-1.479460e-04
-2.496820e-06
7.407730e-06
-2.019990e-07
-7.043810e-08
3.292980e-04
2.714530e-06
4.295590e-05
-2.496820e-06
1.429620e-04
-2.019990e-07
-7.822870e-06
-3.754930e-05
2.714530e-06
6.304420e-04
1.354420e-06
7.407730e-06
-2.019990e-07
5.734070e-05
1.056270e-07
2.714530e-06
4.295590e-05
1.354420e-06
-6.277510e-04
-2.019990e-07
-7.822870e-06
1.056270e-07
-5.714070e-05
6.304420e-04
1.354420e-06
-4.318830e-04
-2.651680e-06
5.734070e-05
1.056270e-07
6.834280e-05
2.600420e-06
1.354420e-06
-6.277510e-04
-2.651680e-06
4.265940e-04
1.056270e-07
-5.714070e-05
2.600420e-06
-6.314860e-05
-4.318830e-04
-2.651680e-06
-9.339110e-04
-2.028790e-06
6.834280e-05
2.600420e-06
1.904650e-04
7.429170e-07
-2.651680e-06
4.265940e-04
-2.028790e-06
9.298620e-04
2.600420e-06
-6.314860e-05
7.429170e-07
-1.889840e-04
-9.339110e-04
-2.028790e-06
6.124370e-04
7.244470e-06
1.904650e-04
7.429170e-07
1.025990e-04
-1.086640e-06
-2.028790e-06
9.298620e-04
7.244470e-06
-5.979700e-04
7.429170e-07
-1.889840e-04
-1.086640e-06
-1.047590e-04
6.124370e-04
7.244470e-06
3.854670e-04
-9.473300e-07
1.025990e-04
-1.086640e-06
1.493240e-05
3.819340e-07
7.244470e-06
-5.979700e-04
-9.473300e-07
-3.874140e-04
-1.086640e-06
-1.047590e-04
3.819340e-07
-1.418070e-05
3.854670e-04
-9.473300e-07
4.761230e-05
-1.849540e-06
1.493240e-05
3.819340e-07
-1.619760e-04
-8.038810e-07
-9.473300e-07
-3.874140e-04
-1.849540e-06
-5.126840e-05
3.819340e-07
-1.418070e-05
-8.038810e-07
1.603710e-04
4.761230e-05
-1.849540e-06
-1.774520e-04
-2.549740e-07
-1.619760e-04
-8.038810e-07
-1.817750e-04
-1.730800e-06
-1.849540e-06
-5.126840e-05
-2.549740e-07
1.770740e-04
-8.038810e-07
1.603710e-04
-1.730800e-06
1.783370e-04
0.000000e+00
0.000000e+00
3.005080e-05
4.938430e-07
0.000000e+00
0.000000e+00
3.566270e-05
5.033210e-06
0.000000e+00
0.000000e+00
4.938430e-07
-2.905270e-05
0.000000e+00
0.000000e+00
5.033210e-06
-2.556030e-05
3.005080e-05
4.938430e-07
-7.546680e-05
5.919590e-06
3.566270e-05
5.033210e-06
-8.310620e-04
-5.722680e-06
4.938430e-07
-2.905270e-05
5.919590e-06
8.732340e-05
5.033210e-06
-2.556030e-05
-5.722680e-06
8.196220e-04
-7.546680e-05
5.919590e-06
-1.522210e-04
5.780590e-07
-8.310620e-04
-5.722680e-06
-7.120930e-04
-6.218860e-06
5.919590e-06
8.732340e-05
5.780590e-07
1.533800e-04
-5.722680e-06
8.196220e-04
-6.218860e-06
6.996280e-04
-1.522210e-04
5.780590e-07
-8.306580e-05
-1.254840e-06
-7.120930e-04
-6.218860e-06
7.021450e-04
-2.777470e-07
5.780590e-07
1.533800e-04
-1.254840e-06
8.054820e-05
-6.218860e-06
6.996280e-04
-2.777470e-07
-7.027240e-04
-8.306580e-05
-1.254840e-06
-4.006940e-05
2.364700e-06
7.021450e-04
-2.777470e-07
6.211350e-04
-8.353090e-07
-1.254840e-06
8.054820e-05
2.364700e-06
4.479710e-05
-2.777470e-07
-7.027240e-04
-8.353090e-07
-6.227710e-04
-4.006940e-05
2.364700e-06
2.344350e-04
-6.325070e-09
6.211350e-04
-8.353090e-07
-3.513970e-04
1.386330e-06
2.364700e-06
4.479710e-05
-6.325070e-09
-2.344480e-04
-8.353090e-07
-6.227710e-04
1.386330e-06
3.541740e-04
2.344350e-04
-6.325070e-09
1.936150e-04
-3.110700e-07
-3.513970e-04
1.386330e-06
-4.768670e-04
2.181290e-06
-6.325070e-09
-2.344480e-04
-3.110700e-07
-1.942610e-04
1.386330e-06
3.541740e-04
2.181290e-06
4.811830e-04
1.936150e-04
-3.110700e-07
-8.225910e-05
4.429330e-07
-4.768670e-04
2.181290e-06
-6.021520e-04
6.285220e-07
-3.110700e-07
-1.942610e-04
4.429330e-07
8.313310e-05
2.181290e-06
4.811830e-04
6.285220e-07
6.034090e-04
-8.225910e-05
4.429330e-07
9.882780e-05
4.518430e-06
-6.021520e-04
6.285220e-07
5.311910e-05
-5.365110e-06
4.429330e-07
8.313310e-05
4.518430e-06
-8.977610e-05
6.285220e-07
6.034090e-04
-5.365110e-06
-6.379620e-05
9.882780e-05
4.518430e-06
6.680490e-05
2.120520e-06
5.311910e-05
-5.365110e-06
1.107030e-03
-6.191940e-06
4.518430e-06
-8.977610e-05
2.120520e-06
-6.254280e-05
-5.365110e-06
-6.379620e-05
-6.191940e-06
-1.119380e-03
6.680490e-05
2.120520e-06
-2.928210e-05
-2.285440e-06
1.107030e-03
-6.191940e-06
2.589480e-05
2.264120e-06
2.120520e-06
-6.254280e-05
-2.285440e-06
2.470760e-05
-6.191940e-06
-1.119380e-03
2.264120e-06
-2.143270e-05
-2.928210e-05
-2.285440e-06
-2.616030e-04
-2.633920e-07
2.589480e-05
2.264120e-06
-8.615620e-04
1.050100e-06
-2.285440e-06
2.470760e-05
-2.633920e-07
2.610660e-04
2.264120e-06
-2.143270e-05
1.050100e-06
8.635750e-04
-2.616030e-04
-2.633920e-07
-3.261150e-04
2.235020e-06
-8.615620e-04
1.050100e-06
3.797300e-04
-1.955260e-06
-2.633920e-07
2.610660e-04
2.235020e-06
3.305850e-04
1.050100e-06
8.635750e-04
-1.955260e-06
-3.836370e-04
-3.261150e-04
2.235020e-06
-1.081470e-04
-6.621380e-07
3.797300e-04
-1.955260e-06
6.300480e-04
-3.004690e-06
2.235020e-06
3.305850e-04
-6.621380e-07
1.068230e-04
-1.955260e-06
-3.836370e-04
-3.004690e-06
-6.359960e-04
-1.081470e-04
-6.621380e-07
1.428640e-04
-4.290580e-07
6.300480e-04
-3.004690e-06
-1.070090e-04
-4.492640e-06
-6.621380e-07
1.068230e-04
-4.290580e-07
-1.437270e-04
-3.004690e-06
-6.359960e-04
-4.492640e-06
9.804360e-05
1.428640e-04
-4.290580e-07
8.135400e-05
-5.894440e-07
-1.070090e-04
-4.492640e-06
-3.284970e-05
3.851480e-07
-4.290580e-07
-1.437270e-04
-5.894440e-07
-8.256110e-05
-4.492640e-06
9.804360e-05
3.851480e-07
3.360670e-05
8.135400e-05
-5.894440e-07
8.264910e-06
1.068080e-06
-3.284970e-05
3.851480e-07
-2.527250e-04
2.887620e-06
-5.894440e-07
-8.256110e-05
1.068080e-06
-6.141560e-06
3.851480e-07
3.360670e-05
2.887620e-06
2.585080e-04
8.264910e-06
1.068080e-06
1.145750e-04
-9.446530e-07
-2.527250e-04
2.887620e-06
-6.049940e-04
6.619930e-07
1.068080e-06
-6.141560e-06
-9.446530e-07
-1.164620e-04
2.887620e-06
2.585080e-04
6.619930e-07
6.063290e-04
1.145750e-04
-9.446530e-07
-1.913080e-04
2.871730e-06
-6.049940e-04
6.619930e-07
3.781940e-04
-5.332880e-06
-9.446530e-07
-1.164620e-04
2.871730e-06
1.970800e-04
6.619930e-07
6.063290e-04
-5.332880e-06
-3.888920e-04
-1.913080e-04
2.871730e-06
1.129830e-04
-3.176870e-06
3.781940e-04
-5.332880e-06
-8.497100e-06
4.149410e-06
2.871730e-06
1.970800e-04
-3.176870e-06
-1.193160e-04
-5.332880e-06
-3.888920e-04
4.149410e-06
1.674390e-05
1.129830e-04
-3.176870e-06
7.946330e-05
-4.066150e-06
-8.497100e-06
4.149410e-06
-2.288910e-04
9.847680e-06
-3.176870e-06
-1.193160e-04
-4.066150e-06
-8.760650e-05
4.149410e-06
1.674390e-05
9.847680e-06
2.485870e-04
7.946330e-05
-4.066150e-06
-1.479460e-04
-2.496820e-06
-2.288910e-04
9.847680e-06
6.251860e-04
5.097410e-06
-4.066150e-06
-8.760650e-05
-2.496820e-06
1.429620e-04
9.847680e-06
2.485870e-04
5.097410e-06
-6.149280e-04
-1.479460e-04
-2.496820e-06
7.407730e-06
-2.019990e-07
6.251860e-04
5.097410e-06
2.429490e-05
-2.347260e-06
-2.496820e-06
1.429620e-04
-2.019990e-07
-7.822870e-06
5.097410e-06
-6.149280e-04
-2.347260e-06
-2.896060e-05
7.407730e-06
-2.019990e-07
5.734070e-05
1.056270e-07
2.429490e-05
-2.347260e-06
-7.470350e-04
-1.527560e-06
-2.019990e-07
-7.822870e-06
1.056270e-07
-5.714070e-05
-2.347260e-06
-2.896060e-05
-1.527560e-06
7.439990e-04
5.734070e-05
1.056270e-07
6.834280e-05
2.600420e-06
-7.470350e-04
-1.527560e-06
2.950740e-04
-2.556100e-06
1.056270e-07
-5.714070e-05
2.600420e-06
-6.314860e-05
-1.527560e-06
7.439990e-04
-2.556100e-06
-3.001850e-04
6.834280e-05
2.600420e-06
1.904650e-04
7.429170e-07
2.950740e-04
-2.556100e-06
5.557550e-04
4.967710e-07
2.600420e-06
-6.314860e-05
7.429170e-07
-1.889840e-04
-2.556100e-06
-3.001850e-04
4.967710e-07
-5.547730e-04
1.904650e-04
7.429170e-07
1.025990e-04
-1.086640e-06
5.557550e-04
4.967710e-07
-8.195280e-04
-5.185400e-06
7.429170e-07
-1.889840e-04
-1.086640e-06
-1.047590e-04
4.967710e-07
-5.547730e-04
-5.185400e-06
8.092010e-04
1.025990e-04
-1.086640e-06
1.493240e-05
3.819340e-07
-8.195280e-04
-5.185400e-06
-4.175220e-04
1.272670e-07
-1.086640e-06
-1.047590e-04
3.819340e-07
-1.418070e-05
-5.185400e-06
8.092010e-04
1.272670e-07
4.177960e-04
1.493240e-05
3.819340e-07
-1.619760e-04
-8.038810e-07
-4.175220e-04
1.272670e-07
2.797620e-04
3.573010e-06
3.819340e-07
-1.418070e-05
-8.038810e-07
1.603710e-04
1.272670e-07
4.177960e-04
3.573010e-06
-2.726580e-04
-1.619760e-04
-8.038810e-07
-1.817750e-04
-1.730800e-06
2.797620e-04
3.573010e-06
5.388400e-04
3.789620e-06
-8.038810e-07
1.603710e-04
-1.730800e-06
1.783370e-04
3.573010e-06
-2.726580e-04
3.789620e-06
-5.313590e-04
</DataArray>
<DataArray type="Float32" Name="V2" format="ascii">
0.000000e+00
0.000000e+00
-2.834550e-03
-3.134980e-03
0.000000e+00
0.000000e+00
2.225480e-03
2.315760e-03
0.000000e+00
0.000000e+00
-3.134980e-03
-2.829030e-03
0.000000e+00
0.000000e+00
2.315760e-03
2.220950e-03
-2.834550e-03
-3.134980e-03
-1.498960e-03
-1.819940e-03
2.225480e-03
2.315760e-03
4.939540e-04
5.554130e-04
-3.134980e-03
-2.829030e-03
-1.819940e-03
-1.501860e-03
2.315760e-03
2.220950e-03
5.554130e-04
4.908540e-04
-1.498960e-03
-1.819940e-03
2.965780e-03
3.394640e-03
4.939540e-04
5.554130e-04
-3.644240e-03
-3.692350e-03
-1.819940e-03
-1.501860e-03
3.394640e-03
2.969550e-03
5.554130e-04
4.908540e-04
-3.692350e-03
-3.646540e-03
2.965780e-03
3.394640e-03
1.514180e-03
1.902810e-03
-3.644240e-03
-3.692350e-03
-1.698160e-03
-1.644650e-03
3.394640e-03
2.969550e-03
1.902810e-03
1.523260e-03
-3.692350e-03
-3.646540e-03
-1.644650e-03
-1.700140e-03
1.514180e-03
1.902810e-03
-2.734780e-03
-2.994420e-03
-1.698160e-03
-1.644650e-03
3.360470e-03
3.391950e-03
1.902810e-03
1.523260e-03
-2.994420e-03
-2.731750e-03
-1.644650e-03
-1.700140e-03
3.391950e-03
3.355340e-03
-2.734780e-03
-2.994420e-03
-1.997880e-03
-2.078280e-03
3.360470e-03
3.391950e-03
1.882680e-03
1.791410e-03
-2.994420e-03
-2.731750e-03
-2.078280e-03
-2.001670e-03
3.391950e-03
3.355340e-03
1.791410e-03
1.877480e-03
-1.997880e-03
-2.078280e-03
3.720740e-03
3.538320e-03
1.882680e-03
1.791410e-03
-3.301150e-03
-3.229830e-03
-2.078280e-03
-2.001670e-03
3.538320e-03
3.707840e-03
1.791410e-03
1.877480e-03
-3.229830e-03
-3.292400e-03
3.720740e-03
3.538320e-03
2.082360e-03
2.079010e-03
-3.301150e-03
-3.229830e-03
-2.018890e-03
-2.016160e-03
3.538320e-03
3.707840e-03
2.079010e-03
2.078380e-03
-3.229830e-03
-3.292400e-03
-2.016160e-03
-2.017390e-03
2.082360e-03
2.079010e-03
-3.139960e-03
-2.742110e-03
-2.018890e-03
-2.016160e-03
2.952700e-03
2.942590e-03
2.079010e-03
2.078380e-03
-2.742110e-03
-3.137760e-03
-2.016160e-03
-2.017390e-03
2.942590e-03
2.943950e-03
-3.139960e-03
-2.742110e-03
3.488310e-04
1.932410e-04
2.952700e-03
2.942590e-03
1.120810e-03
1.231710e-03
-2.742110e-03
-3.137760e-03
1.932410e-04
3.414160e-04
2.942590e-03
2.943950e-03
1.231710e-03
1.124750e-03
3.488310e-04
1.932410e-04
4.118660e-03
3.606900e-03
1.120810e-03
1.231710e-03
-3.686140e-03
-3.648930e-03
1.932410e-04
3.414160e-04
3.606900e-03
4.111010e-03
1.231710e-03
1.124750e-03
-3.648930e-03
-3.681270e-03
4.118660e-03
3.606900e-03
4.622700e-04
3.946440e-04
-3.686140e-03
-3.648930e-03
-1.180520e-03
-1.112300e-03
3.606900e-03
4.111010e-03
3.946440e-04
4.629400e-04
-3.648930e-03
-3.681270e-03
-1.112300e-03
-1.188670e-03
4.622700e-04
3.946440e-04
-4.117290e-03
-3.794250e-03
-1.180520e-03
-1.112300e-03
3.910160e-03
3.927190e-03
3.946440e-04
4.629400e-04
-3.794250e-03
-4.122230e-03
-1.112300e-03
-1.188670e-03
3.927190e-03
3.909270e-03
-4.117290e-03
-3.794250e-03
1.468880e-04
1.485990e-04
3.910160e-03
3.927190e-03
5.454920e-04
4.756740e-04
-3.794250e-03
-4.122230e-03
1.485990e-04
1.361430e-04
3.927190e-03
3.909270e-03
4.756740e-04
5.497180e-04
1.468880e-04
1.485990e-04
4.872160e-03
4.668210e-03
5.454920e-04
4.756740e-04
-3.203710e-03
-3.205030e-03
1.485990e-04
1.361430e-04
4.668210e-03
4.868440e-03
4.756740e-04
5.497180e-04
-3.205030e-03
-3.208490e-03
4.872160e-03
4.668210e-03
2.043560e-04
-1.948230e-05
-3.203710e-03
-3.205030e-03
6.944480e-06
1.673500e-04
4.668210e-03
4.868440e-03
-1.948230e-05
1.938500e-04
-3.205030e-03
-3.208490e-03
1.673500e-04
9.493060e-06
2.043560e-04
-1.948230e-05
-2.172610e-03
-2.361360e-03
6.944480e-06
1.673500e-04
2.157580e-03
2.062470e-03
-1.948230e-05
1.938500e-04
-2.361360e-03
-2.185230e-03
1.673500e-04
9.493060e-06
2.062470e-03
2.163760e-03
-2.172610e-03
-2.361360e-03
1.828810e-03
1.852480e-03
2.157580e-03
2.062470e-03
2.460720e-04
3.174430e-04
-2.361360e-03
-2.185230e-03
1.852480e-03
1.825650e-03
2.062470e-03
2.163760e-03
3.174430e-04
2.434990e-04
1.828810e-03
1.852480e-03
2.790750e-03
3.076130e-03
2.460720e-04
3.174430e-04
-1.868990e-03
-1.896490e-03
1.852480e-03
1.825650e-03
3.076130e-03
2.781120e-03
3.174430e-04
2.434990e-04
-1.896490e-03
-1.866920e-03
2.790750e-03
3.076130e-03
-9.638380e-04
-1.010660e-03
-1.868990e-03
-1.896490e-03
4.295770e-04
2.020500e-04
3.076130e-03
2.781120e-03
-1.010660e-03
-9.802560e-04
-1.896490e-03
-1.866920e-03
2.020500e-04
4.389190e-04
-9.638380e-04
-1.010660e-03
-2.696690e-03
-2.852950e-03
4.295770e-04
2.020500e-04
2.729690e-03
2.863090e-03
-1.010660e-03
-9.802560e-04
-2.852950e-03
-2.706780e-03
2.020500e-04
4.389190e-04
2.863090e-03
2.729140e-03
-2.696690e-03
-2.852950e-03
2.043820e-03
2.139650e-03
2.729690e-03
2.863090e-03
-1.659060e-03
-1.720430e-03
-2.852950e-03
-2.706780e-03
2.139650e-03
2.034900e-03
2.863090e-03
2.729140e-03
-1.720430e-03
-1.663450e-03
2.043820e-03
2.139650e-03
3.881920e-03
3.545950e-03
-1.659060e-03
-1.720430e-03
-2.936350e-03
-2.978580e-03
2.139650e-03
2.034900e-03
3.545950e-03
3.871850e-03
-1.720430e-03
-1.663450e-03
-2.978580e-03
-2.930920e-03
3.881920e-03
3.545950e-03
-4.048780e-03
-4.084820e-03
-2.936350e-03
-2.978580e-03
3.529200e-03
3.630740e-03
3.545950e-03
3.871850e-03
-4.084820e-03
-4.058720e-03
-2.978580e-03
-2.930920e-03
3.630740e-03
3.533870e-03
-4.048780e-03
-4.084820e-03
-3.692970e-03
-3.402930e-03
3.529200e-03
3.630740e-03
2.356840e-03
2.329420e-03
-4.084820e-03
-4.058720e-03
-3.402930e-03
-3.700440e-03
3.630740e-03
3.533870e-03
2.329420e-03
2.359400e-03
-3.692970e-03
-3.402930e-03
5.951450e-03
5.376250e-03
2.356840e-03
2.329420e-03
-5.166480e-03
-5.075060e-03
-3.402930e-03
-3.700440e-03
5.376250e-03
5.941000e-03
2.329420e-03
2.359400e-03
-5.075060e-03
-5.165210e-03
5.951450e-03
5.376250e-03
1.895440e-03
1.656560e-03
-5.166480e-03
-5.075060e-03
-9.957520e-04
-9.850200e-04
5.376250e-03
5.941000e-03
1.656560e-03
1.891300e-03
-5.075060e-03
-5.165210e-03
-9.850200e-04
-1.001110e-03
1.895440e-03
1.656560e-03
-5.070340e-03
-5.016690e-03
-9.957520e-04
-9.850200e-04
5.372360e-03
5.379070e-03
1.656560e-03
1.891300e-03
-5.016690e-03
-5.064850e-03
-9.850200e-04
-1.001110e-03
5.379070e-03
5.367310e-03
-5.070340e-03
-5.016690e-03
2.501130e-03
2.285580e-03
5.372360e-03
5.379070e-03
-2.480230e-03
-2.428720e-03
-5.016690e-03
-5.064850e-03
2.285580e-03
2.504010e-03
5.379070e-03
5.367310e-03
-2.428720e-03
-2.481480e-03
2.501130e-03
2.285580e-03
9.479450e-03
9.651690e-03
-2.480230e-03
-2.428720e-03
-1.012730e-02
-1.029340e-02
2.285580e-03
2.504010e-03
9.651690e-03
9.485320e-03
-2.428720e-03
-2.481480e-03
-1.029340e-02
-1.012810e-02
0.000000e+00
0.000000e+00
2.225480e-03
2.315760e-03
0.000000e+00
0.000000e+00
-1.618660e-03
-1.498800e-03
0.000000e+00
0.000000e+00
2.315760e-03
2.220950e-03
0.000000e+00
0.000000e+00
-1.498800e-03
-1.614990e-03
2.225480e-03
2.315760e-03
4.939540e-04
5.554130e-04
-1.618660e-03
-1.498800e-03
5.130090e-04
7.104870e-04
2.315760e-03
2.220950e-03
5.554130e-04
4.908540e-04
-1.498800e-03
-1.614990e-03
7.104870e-04
5.221340e-04
4.939540e-04
5.554130e-04