<?xml version="1.0"?>
<VTKFile type="UnstructuredGrid" version="0.1" byte_order="LittleEndian" compressor="vtkZLibDataCompressor">
<UnstructuredGrid>
<Piece NumberOfPoints="960" NumberOfCells="120">
<Points>
<DataArray type="Float32" NumberOfComponents="3" format="ascii">
-4.000000e+02 -6.000000e+03 -4.000000e+02
0.000000e+00 -6.000000e+03 -4.000000e+02
-3.999950e+02 -5.600090e+03 -4.001250e+02
5.172080e-06 -5.600090e+03 -4.001160e+02
-4.000000e+02 -6.000000e+03 0.000000e+00
0.000000e+00 -6.000000e+03 0.000000e+00
-4.000000e+02 -5.599990e+03 -7.082780e-02
5.376710e-07 -5.599990e+03 -6.742050e-02
0.000000e+00 -6.000000e+03 -4.000000e+02
4.000000e+02 -6.000000e+03 -4.000000e+02
5.172080e-06 -5.600090e+03 -4.001160e+02
3.999950e+02 -5.600090e+03 -4.001250e+02
0.000000e+00 -6.000000e+03 0.000000e+00
4.000000e+02 -6.000000e+03 0.000000e+00
5.376710e-07 -5.599990e+03 -6.742050e-02
4.000000e+02 -5.599990e+03 -7.082620e-02
-3.999950e+02 -5.600090e+03 -4.001250e+02
5.172080e-06 -5.600090e+03 -4.001160e+02
-3.999980e+02 -5.200100e+03 -4.002180e+02
-5.279730e-07 -5.200100e+03 -4.002100e+02
-4.000000e+02 -5.599990e+03 -7.082780e-02
5.376710e-07 -5.599990e+03 -6.742050e-02
-3.999990e+02 -5.200010e+03 -1.601760e-01
1.489250e-06 -5.200010e+03 -1.570500e-01
5.172080e-06 -5.600090e+03 -4.001160e+02
3.999950e+02 -5.600090e+03 -4.001250e+02
-5.279730e-07 -5.200100e+03 -4.002100e+02
3.999980e+02 -5.200100e+03 -4.002180e+02
5.376710e-07 -5.599990e+03 -6.742050e-02
4.000000e+02 -5.599990e+03 -7.082620e-02
1.489250e-06 -5.200010e+03 -1.570500e-01
3.999990e+02 -5.200010e+03 -1.601790e-01
-3.999980e+02 -5.200100e+03 -4.002180e+02
-5.279730e-07 -5.200100e+03 -4.002100e+02
-4.000010e+02 -4.800080e+03 -4.002880e+02
6.635530e-06 -4.800080e+03 -4.002890e+02
-3.999990e+02 -5.200010e+03 -1.601760e-01
1.489250e-06 -5.200010e+03 -1.570500e-01
-3.999990e+02 -4.800020e+03 -2.877080e-01
-8.581390e-07 -4.800020e+03 -2.864860e-01
-5.279730e-07 -5.200100e+03 -4.002100e+02
3.999980e+02 -5.200100e+03 -4.002180e+02
6.635530e-06 -4.800080e+03 -4.002890e+02
4.000010e+02 -4.800080e+03 -4.002880e+02
1.489250e-06 -5.200010e+03 -1.570500e-01
3.999990e+02 -5.200010e+03 -1.601790e-01
-8.581390e-07 -4.800020e+03 -2.864860e-01
3.999990e+02 -4.800020e+03 -2.876980e-01
-4.000010e+02 -4.800080e+03 -4.002880e+02
6.635530e-06 -4.800080e+03 -4.002890e+02
-4.000010e+02 -4.400060e+03 -4.003150e+02
1.110180e-05 -4.400060e+03 -4.003120e+02
-3.999990e+02 -4.800020e+03 -2.877080e-01
-8.581390e-07 -4.800020e+03 -2.864860e-01
-3.999990e+02 -4.400000e+03 -3.385870e-01
1.890790e-06 -4.400000e+03 -3.382400e-01
6.635530e-06 -4.800080e+03 -4.002890e+02
4.000010e+02 -4.800080e+03 -4.002880e+02
1.110180e-05 -4.400060e+03 -4.003120e+02
4.000010e+02 -4.400060e+03 -4.003150e+02
-8.581390e-07 -4.800020e+03 -2.864860e-01
3.999990e+02 -4.800020e+03 -2.876980e-01
1.890790e-06 -4.400000e+03 -3.382400e-01
3.999990e+02 -4.400000e+03 -3.385570e-01
-4.000010e+02 -4.400060e+03 -4.003150e+02
1.110180e-05 -4.400060e+03 -4.003120e+02
-4.000020e+02 -4.000100e+03 -4.004000e+02
1.414980e-05 -4.000100e+03 -4.003950e+02
-3.999990e+02 -4.400000e+03 -3.385870e-01
1.890790e-06 -4.400000e+03 -3.382400e-01
-4.000000e+02 -3.999990e+03 -3.979410e-01
-7.895550e-07 -3.999990e+03 -3.989900e-01
1.110180e-05 -4.400060e+03 -4.003120e+02
4.000010e+02 -4.400060e+03 -4.003150e+02
1.414980e-05 -4.000100e+03 -4.003950e+02
4.000020e+02 -4.000100e+03 -4.004000e+02
1.890790e-06 -4.400000e+03 -3.382400e-01
3.999990e+02 -4.400000e+03 -3.385570e-01
-7.895550e-07 -3.999990e+03 -3.989900e-01
4.000000e+02 -3.999990e+03 -3.979180e-01
-4.000020e+02 -4.000100e+03 -4.004000e+02
1.414980e-05 -4.000100e+03 -4.003950e+02
-4.000000e+02 -3.600130e+03 -4.005890e+02
5.764800e-06 -3.600130e+03 -4.005870e+02
-4.000000e+02 -3.999990e+03 -3.979410e-01
-7.895550e-07 -3.999990e+03 -3.989900e-01
-4.000000e+02 -3.600000e+03 -5.635750e-01
3.927910e-07 -3.600000e+03 -5.634410e-01
1.414980e-05 -4.000100e+03 -4.003950e+02
4.000020e+02 -4.000100e+03 -4.004000e+02
5.764800e-06 -3.600130e+03 -4.005870e+02
4.000000e+02 -3.600130e+03 -4.005890e+02
-7.895550e-07 -3.999990e+03 -3.989900e-01
4.000000e+02 -3.999990e+03 -3.979180e-01
3.927910e-07 -3.600000e+03 -5.634410e-01
4.000000e+02 -3.600000e+03 -5.635760e-01
-4.000000e+02 -3.600130e+03 -4.005890e+02
5.764800e-06 -3.600130e+03 -4.005870e+02
-4.000020e+02 -3.200110e+03 -4.006900e+02
5.812130e-06 -3.200110e+03 -4.006930e+02
-4.000000e+02 -3.600000e+03 -5.635750e-01
3.927910e-07 -3.600000e+03 -5.634410e-01
-3.999970e+02 -3.200010e+03 -6.836280e-01
-1.418920e-06 -3.200010e+03 -6.827910e-01
5.764800e-06 -3.600130e+03 -4.005870e+02
4.000000e+02 -3.600130e+03 -4.005890e+02
5.812130e-06 -3.200110e+03 -4.006930e+02
4.000020e+02 -3.200110e+03 -4.006900e+02
3.927910e-07 -3.600000e+03 -5.634410e-01
4.000000e+02 -3.600000e+03 -5.635760e-01
-1.418920e-06 -3.200010e+03 -6.827910e-01
3.999970e+02 -3.200010e+03 -6.836270e-01
-4.000020e+02 -3.200110e+03 -4.006900e+02
5.812130e-06 -3.200110e+03 -4.006930e+02
-4.000020e+02 -2.800090e+03 -4.007580e+02
2.901740e-06 -2.800090e+03 -4.007590e+02
-3.999970e+02 -3.200010e+03 -6.836280e-01
-1.418920e-06 -3.200010e+03 -6.827910e-01
-3.999980e+02 -2.800000e+03 -7.639900e-01
-1.537440e-06 -2.800000e+03 -7.643940e-01
5.812130e-06 -3.200110e+03 -4.006930e+02
4.000020e+02 -3.200110e+03 -4.006900e+02
2.901740e-06 -2.800090e+03 -4.007590e+02
4.000020e+02 -2.800090e+03 -4.007580e+02
-1.418920e-06 -3.200010e+03 -6.827910e-01
3.999970e+02 -3.200010e+03 -6.836270e-01
-1.537440e-06 -2.800000e+03 -7.643940e-01
3.999980e+02 -2.800000e+03 -7.639840e-01
-4.000020e+02 -2.800090e+03 -4.007580e+02
2.901740e-06 -2.800090e+03 -4.007590e+02
-3.999990e+02 -2.400070e+03 -4.008480e+02
-2.820980e-06 -2.400070e+03 -4.008450e+02
-3.999980e+02 -2.800000e+03 -7.639900e-01
-1.537440e-06 -2.800000e+03 -7.643940e-01
-4.000020e+02 -2.400000e+03 -8.498980e-01
-5.491210e-07 -2.400000e+03 -8.506700e-01
2.901740e-06 -2.800090e+03 -4.007590e+02
4.000020e+02 -2.800090e+03 -4.007580e+02
-2.820980e-06 -2.400070e+03 -4.008450e+02
3.999990e+02 -2.400070e+03 -4.008480e+02
-1.537440e-06 -2.800000e+03 -7.643940e-01
3.999980e+02 -2.800000e+03 -7.639840e-01
-5.491210e-07 -2.400000e+03 -8.506700e-01
4.000020e+02 -2.400000e+03 -8.499050e-01
-3.999990e+02 -2.400070e+03 -4.008480e+02
-2.820980e-06 -2.400070e+03 -4.008450e+02
-3.999990e+02 -2.000060e+03 -4.009070e+02
-7.129790e-06 -2.000050e+03 -4.009060e+02
-4.000020e+02 -2.400000e+03 -8.498980e-01
-5.491210e-07 -2.400000e+03 -8.506700e-01
-4.000010e+02 -2.000000e+03 -9.106700e-01
-1.428490e-06 -2.000000e+03 -9.115950e-01
-2.820980e-06 -2.400070e+03 -4.008450e+02
3.999990e+02 -2.400070e+03 -4.008480e+02
-7.129790e-06 -2.000050e+03 -4.009060e+02
3.999990e+02 -2.000060e+03 -4.009070e+02
-5.491210e-07 -2.400000e+03 -8.506700e-01
4.000020e+02 -2.400000e+03 -8.499050e-01
-1.428490e-06 -2.000000e+03 -9.115950e-01
4.000010e+02 -2.000000e+03 -9.106870e-01
-3.999990e+02 -2.000060e+03 -4.009070e+02
-7.129790e-06 -2.000050e+03 -4.009060e+02
-4.000030e+02 -1.600080e+03 -4.010000e+02
-1.392580e-05 -1.600080e+03 -4.010030e+02
-4.000010e+02 -2.000000e+03 -9.106700e-01
-1.428490e-06 -2.000000e+03 -9.115950e-01
-3.999980e+02 -1.600000e+03 -1.008420e+00
4.377610e-07 -1.600000e+03 -1.009270e+00
-7.129790e-06 -2.000050e+03 -4.009060e+02
3.999990e+02 -2.000060e+03 -4.009070e+02
-1.392580e-05 -1.600080e+03 -4.010030e+02
4.000030e+02 -1.600080e+03 -4.010000e+02
-1.428490e-06 -2.000000e+03 -9.115950e-01
4.000010e+02 -2.000000e+03 -9.106870e-01
4.377610e-07 -1.600000e+03 -1.009270e+00
3.999980e+02 -1.600000e+03 -1.008440e+00
-4.000030e+02 -1.600080e+03 -4.010000e+02
-1.392580e-05 -1.600080e+03 -4.010030e+02
-4.000000e+02 -1.200100e+03 -4.011270e+02
-1.181900e-05 -1.200100e+03 -4.011290e+02
-3.999980e+02 -1.600000e+03 -1.008420e+00
4.377610e-07 -1.600000e+03 -1.009270e+00
-4.000000e+02 -1.199990e+03 -1.114020e+00
5.033090e-07 -1.199990e+03 -1.114070e+00
-1.392580e-05 -1.600080e+03 -4.010030e+02
4.000030e+02 -1.600080e+03 -4.010000e+02
-1.181900e-05 -1.200100e+03 -4.011290e+02
4.000000e+02 -1.200100e+03 -4.011270e+02
4.377610e-07 -1.600000e+03 -1.009270e+00
3.999980e+02 -1.600000e+03 -1.008440e+00
5.033090e-07 -1.199990e+03 -1.114070e+00
4.000000e+02 -1.199990e+03 -1.114040e+00
-4.000000e+02 -1.200100e+03 -4.011270e+02
-1.181900e-05 -1.200100e+03 -4.011290e+02
-3.999950e+02 -8.001000e+02 -4.012140e+02
-9.647610e-06 -8.001000e+02 -4.012120e+02
-4.000000e+02 -1.199990e+03 -1.114020e+00
5.033090e-07 -1.199990e+03 -1.114070e+00
-4.000030e+02 -8.000040e+02 -1.197810e+00
1.521420e-06 -8.000040e+02 -1.197370e+00
-1.181900e-05 -1.200100e+03 -4.011290e+02
4.000000e+02 -1.200100e+03 -4.011270e+02
-9.647610e-06 -8.001000e+02 -4.012120e+02
3.999950e+02 -8.001000e+02 -4.012140e+02
5.033090e-07 -1.199990e+03 -1.114070e+00
4.000000e+02 -1.199990e+03 -1.114040e+00
1.521420e-06 -8.000040e+02 -1.197370e+00
4.000030e+02 -8.000040e+02 -1.197820e+00
-3.999950e+02 -8.001000e+02 -4.012140e+02
-9.647610e-06 -8.001000e+02 -4.012120e+02
-3.999980e+02 -4.000650e+02 -4.012920e+02
-1.838270e-06 -4.000620e+02 -4.012920e+02
-4.000030e+02 -8.000040e+02 -1.197810e+00
1.521420e-06 -8.000040e+02 -1.197370e+00
-4.000020e+02 -4.000080e+02 -1.298340e+00
-1.249660e-07 -4.000100e+02 -1.299120e+00
-9.647610e-06 -8.001000e+02 -4.012120e+02
3.999950e+02 -8.001000e+02 -4.012140e+02
-1.838270e-06 -4.000620e+02 -4.012920e+02
3.999980e+02 -4.000650e+02 -4.012920e+02
1.521420e-06 -8.000040e+02 -1.197370e+00
4.000030e+02 -8.000040e+02 -1.197820e+00
-1.249660e-07 -4.000100e+02 -1.299120e+00
4.000020e+02 -4.000080e+02 -1.298340e+00
-3.999980e+02 -4.000650e+02 -4.012920e+02
-1.838270e-06 -4.000620e+02 -4.012920e+02
-4.000010e+02 -4.040850e-02 -4.013150e+02
2.436430e-06 -3.895220e-02 -4.013170e+02
-4.000020e+02 -4.000080e+02 -1.298340e+00
-1.249660e-07 -4.000100e+02 -1.299120e+00
-3.999990e+02 -1.680140e-03 -1.332040e+00
1.016230e-06 -1.343010e-03 -1.331950e+00
-1.838270e-06 -4.000620e+02 -4.012920e+02
3.999980e+02 -4.000650e+02 -4.012920e+02
[...]
<PointData>
<DataArray type="Float32" Name="V1" format="ascii">
0.000000e+00
0.000000e+00
-4.642800e-03
1.181380e-06
0.000000e+00
0.000000e+00
-1.164510e-03
-7.516940e-07
0.000000e+00
0.000000e+00
1.181380e-06
4.645220e-03
0.000000e+00
0.000000e+00
-7.516940e-07
1.163020e-03
-4.642800e-03
1.181380e-06
-1.840750e-03
1.396050e-06
-1.164510e-03
-7.516940e-07
-6.428340e-04
6.077130e-07
1.181380e-06
4.645220e-03
1.396050e-06
1.843620e-03
-7.516940e-07
1.163020e-03
6.077130e-07
6.440510e-04
-1.840750e-03
1.396050e-06
-2.866100e-03
1.378180e-06
-6.428340e-04
6.077130e-07
3.001220e-03
-2.062870e-06
1.396050e-06
1.843620e-03
1.378180e-06
2.868880e-03
6.077130e-07
6.440510e-04
-2.062870e-06
-3.005330e-03
-2.866100e-03
1.378180e-06
-5.073340e-04
-3.634710e-06
3.001220e-03
-2.062870e-06
2.947110e-03
1.045380e-06
1.378180e-06
2.868880e-03
-3.634710e-06
5.000190e-04
-2.062870e-06
-3.005330e-03
1.045380e-06
-2.945030e-03
-5.073340e-04
-3.634710e-06
6.220920e-03
2.832080e-06
2.947110e-03
1.045380e-06
-2.806160e-03
-7.136470e-07
-3.634710e-06
5.000190e-04
2.832080e-06
-6.215290e-03
1.045380e-06
-2.945030e-03
-7.136470e-07
2.804720e-03
6.220920e-03
2.832080e-06
2.837380e-04
8.209030e-06
-2.806160e-03
-7.136470e-07
-9.932690e-04
-2.360330e-06
2.832080e-06
-6.215290e-03
8.209030e-06
-2.673140e-04
-7.136470e-07
2.804720e-03
-2.360330e-06
9.885610e-04
2.837380e-04
8.209030e-06
-5.161200e-03
3.765590e-06
-9.932690e-04
-2.360330e-06
2.253630e-03
-1.704680e-06
8.209030e-06
-2.673140e-04
3.765590e-06
5.168780e-03
-2.360330e-06
9.885610e-04
-1.704680e-06
-2.257020e-03
-5.161200e-03
3.765590e-06
1.467180e-03
-8.635040e-06
2.253630e-03
-1.704680e-06
-1.947380e-04
1.104660e-06
3.765590e-06
5.168780e-03
-8.635040e-06
-1.484390e-03
-1.704680e-06
-2.257020e-03
1.104660e-06
1.969820e-04
1.467180e-03
-8.635040e-06
1.651550e-03
-8.584190e-06
-1.947380e-04
1.104660e-06
-1.107130e-03
-4.059600e-07
-8.635040e-06
-1.484390e-03
-8.584190e-06
-1.668710e-03
1.104660e-06
1.969820e-04
-4.059600e-07
1.106350e-03
1.651550e-03
-8.584190e-06
-2.859820e-03
-1.609660e-06
-1.107130e-03
-4.059600e-07
2.288750e-03
1.058110e-08
-8.584190e-06
-1.668710e-03
-1.609660e-06
2.856560e-03
-4.059600e-07
1.106350e-03
1.058110e-08
-2.288740e-03
-2.859820e-03
-1.609660e-06
-2.243430e-03
4.408370e-06
2.288750e-03
1.058110e-08
4.758690e-04
4.067870e-07
-1.609660e-06
2.856560e-03
4.408370e-06
2.252180e-03
1.058110e-08
-2.288740e-03
4.067870e-07
-4.750860e-04
-2.243430e-03
4.408370e-06
-1.189320e-03
2.135890e-06
4.758690e-04
4.067870e-07
-1.819650e-03
-2.989140e-06
4.408370e-06
2.252180e-03
2.135890e-06
1.193600e-03
4.067870e-07
-4.750860e-04
-2.989140e-06
1.813680e-03
-1.189320e-03
2.135890e-06
-4.212490e-04
-3.715530e-06
-1.819650e-03
-2.989140e-06
4.740270e-04
-3.529080e-06
2.135890e-06
1.193600e-03
-3.715530e-06
4.138180e-04
-2.989140e-06
1.813680e-03
-3.529080e-06
-4.810910e-04
-4.212490e-04
-3.715530e-06
3.128440e-03
-5.692240e-06
4.740270e-04
-3.529080e-06
-7.968330e-04
3.354800e-06
-3.715530e-06
4.138180e-04
-5.692240e-06
-3.139860e-03
-3.529080e-06
-4.810910e-04
3.354800e-06
8.035290e-04
3.128440e-03
-5.692240e-06
5.857610e-03
6.585180e-08
-7.968330e-04
3.354800e-06
-2.598010e-03
1.649760e-06
-5.692240e-06
-3.139860e-03
6.585180e-08
-5.857530e-03
3.354800e-06
8.035290e-04
1.649760e-06
2.601280e-03
5.857610e-03
6.585180e-08
-3.000500e-03
6.135300e-06
-2.598010e-03
1.649760e-06
1.183010e-03
-1.909290e-06
6.585180e-08
-5.857530e-03
6.135300e-06
3.012780e-03
1.649760e-06
2.601280e-03
-1.909290e-06
-1.186840e-03
-3.000500e-03
6.135300e-06
-3.665370e-03
1.263700e-06
1.183010e-03
-1.909290e-06
-4.961150e-05
2.941120e-07
6.135300e-06
3.012780e-03
1.263700e-06
3.667980e-03
-1.909290e-06
-1.186840e-03
2.941120e-07
5.023810e-05
-3.665370e-03
1.263700e-06
2.965750e-03
-8.302400e-07
-4.961150e-05
2.941120e-07
-3.672980e-03
2.322580e-07
1.263700e-06
3.667980e-03
-8.302400e-07
-2.967390e-03
2.941120e-07
5.023810e-05
2.322580e-07
3.673470e-03
2.965750e-03
-8.302400e-07
3.732070e-03
-6.432130e-06
-3.672980e-03
2.322580e-07
-3.706720e-04
2.585070e-06
-8.302400e-07
-2.967390e-03
-6.432130e-06
-3.744970e-03
2.322580e-07
3.673470e-03
2.585070e-06
3.758630e-04
3.732070e-03
-6.432130e-06
2.141700e-03
-1.626780e-06
-3.706720e-04
2.585070e-06
5.639710e-05
4.105630e-07
-6.432130e-06
-3.744970e-03
-1.626780e-06
-2.144990e-03
2.585070e-06
3.758630e-04
4.105630e-07
-5.558950e-05
2.141700e-03
-1.626780e-06
3.471660e-03
8.577370e-10
5.639710e-05
4.105630e-07
-1.318710e-03
2.871480e-07
-1.626780e-06
-2.144990e-03
8.577370e-10
-3.471630e-03
4.105630e-07
-5.558950e-05
2.871480e-07
1.319270e-03
3.471660e-03
8.577370e-10
-4.682000e-03
-6.393920e-06
-1.318710e-03
2.871480e-07
1.520020e-03
4.974120e-06
8.577370e-10
-3.471630e-03
-6.393920e-06
4.669220e-03
2.871480e-07
1.319270e-03
4.974120e-06
-1.510060e-03
-4.682000e-03
-6.393920e-06
-2.339840e-03
8.309030e-06
1.520020e-03
4.974120e-06
-2.790730e-04
-4.757620e-06
-6.393920e-06
4.669220e-03
8.309030e-06
2.356410e-03
4.974120e-06
-1.510060e-03
-4.757620e-06
2.695560e-04
-2.339840e-03
8.309030e-06
3.678300e-03
4.620920e-07
-2.790730e-04
-4.757620e-06
-1.501950e-03
-2.644260e-06
8.309030e-06
2.356410e-03
4.620920e-07
-3.677390e-03
-4.757620e-06
2.695560e-04
-2.644260e-06
1.496640e-03
3.678300e-03
4.620920e-07
4.765730e-03
-1.745080e-07
-1.501950e-03
-2.644260e-06
-8.525030e-04
-4.391470e-07
4.620920e-07
-3.677390e-03
-1.745080e-07
-4.766040e-03
-2.644260e-06
1.496640e-03
-4.391470e-07
8.516290e-04
4.765730e-03
-1.745080e-07
-2.540890e-03
-4.861540e-06
-8.525030e-04
-4.391470e-07
1.674970e-04
4.994210e-06
-1.745080e-07
-4.766040e-03
-4.861540e-06
2.531220e-03
-4.391470e-07
8.516290e-04
4.994210e-06
-1.574780e-04
-2.540890e-03
-4.861540e-06
5.045190e-04
-2.439150e-06
1.674970e-04
4.994210e-06
-3.182370e-04
-7.526730e-07
-4.861540e-06
2.531220e-03
-2.439150e-06
-5.093820e-04
4.994210e-06
-1.574780e-04
-7.526730e-07
3.167440e-04
5.045190e-04
-2.439150e-06
-4.777510e-03
-2.444380e-06
-3.182370e-04
-7.526730e-07
1.630050e-03
4.395630e-06
-2.439150e-06
-5.093820e-04
-2.444380e-06
4.772580e-03
-7.526730e-07
3.167440e-04
4.395630e-06
-1.621280e-03
-4.777510e-03
-2.444380e-06
-2.176480e-03
-2.928950e-06
1.630050e-03
4.395630e-06
3.083520e-03
-2.058730e-07
-2.444380e-06
4.772580e-03
-2.928950e-06
2.170620e-03
4.395630e-06
-1.621280e-03
-2.058730e-07
-3.083960e-03
-2.176480e-03
-2.928950e-06
2.899260e-03
-5.487140e-06
3.083520e-03
-2.058730e-07
1.397650e-03
2.325440e-08
-2.928950e-06
2.170620e-03
-5.487140e-06
-2.910250e-03
-2.058730e-07
-3.083960e-03
2.325440e-08
-1.397620e-03
0.000000e+00
0.000000e+00
-1.164510e-03
-7.516940e-07
0.000000e+00
0.000000e+00
6.954730e-03
3.316470e-07
0.000000e+00
0.000000e+00
-7.516940e-07
1.163020e-03
0.000000e+00
0.000000e+00
3.316470e-07
-6.954160e-03
-1.164510e-03
-7.516940e-07
-6.428340e-04
6.077130e-07
6.954730e-03
3.316470e-07
3.143530e-03
-2.555640e-06
-7.516940e-07
1.163020e-03
6.077130e-07
6.440510e-04
3.316470e-07
-6.954160e-03
-2.555640e-06
-3.148720e-03
-6.428340e-04
6.077130e-07
3.001220e-03
-2.062870e-06
3.143530e-03
-2.555640e-06
-3.145750e-03
2.666380e-06
6.077130e-07
6.440510e-04
-2.062870e-06
-3.005330e-03
-2.555640e-06
-3.148720e-03
2.666380e-06
3.151130e-03
3.001220e-03
-2.062870e-06
2.947110e-03
1.045380e-06
-3.145750e-03
2.666380e-06
-5.395800e-03
1.576290e-06
-2.062870e-06
-3.005330e-03
1.045380e-06
-2.945030e-03
2.666380e-06
3.151130e-03
1.576290e-06
5.399050e-03
2.947110e-03
1.045380e-06
-2.806160e-03
-7.136470e-07
-5.395800e-03
1.576290e-06
-6.008960e-04
-1.307380e-06
1.045380e-06
-2.945030e-03
-7.136470e-07
2.804720e-03
1.576290e-06
5.399050e-03
-1.307380e-06
5.983620e-04
-2.806160e-03
-7.136470e-07
-9.932690e-04
-2.360330e-06
-6.008960e-04
-1.307380e-06
1.691760e-03
-3.466130e-06
-7.136470e-07
2.804720e-03
-2.360330e-06
9.885610e-04
-1.307380e-06
5.983620e-04
-3.466130e-06
-1.698700e-03
-9.932690e-04
-2.360330e-06
2.253630e-03
-1.704680e-06
1.691760e-03
-3.466130e-06
6.495520e-04
-4.194320e-07
-2.360330e-06
9.885610e-04
-1.704680e-06
-2.257020e-03
-3.466130e-06
-1.698700e-03
-4.194320e-07
-6.504860e-04
2.253630e-03
-1.704680e-06
-1.947380e-04
1.104660e-06
6.495520e-04
-4.194320e-07
-1.063140e-03
6.374370e-06
-1.704680e-06
-2.257020e-03
1.104660e-06
1.969820e-04
-4.194320e-07
-6.504860e-04
6.374370e-06
1.075840e-03
-1.947380e-04
1.104660e-06
-1.107130e-03
-4.059600e-07
-1.063140e-03
6.374370e-06
5.582060e-04
9.288990e-06
1.104660e-06
1.969820e-04
-4.059600e-07
1.106350e-03
6.374370e-06
1.075840e-03
9.288990e-06
-5.396480e-04
-1.107130e-03
-4.059600e-07
2.288750e-03
1.058110e-08
5.582060e-04
9.288990e-06
-1.714370e-03
1.709530e-06
-4.059600e-07
1.106350e-03
1.058110e-08
-2.288740e-03
9.288990e-06
-5.396480e-04
1.709530e-06
1.717810e-03
2.288750e-03
1.058110e-08
4.758690e-04
4.067870e-07
-1.714370e-03
1.709530e-06
1.321330e-03
-5.229850e-06
1.058110e-08
-2.288740e-03
4.067870e-07
-4.750860e-04
1.709530e-06
1.717810e-03
-5.229850e-06
-1.331780e-03
4.758690e-04
4.067870e-07
-1.819650e-03
-2.989140e-06
1.321330e-03
-5.229850e-06
4.808480e-03
3.943350e-06
4.067870e-07
-4.750860e-04
-2.989140e-06
1.813680e-03
-5.229850e-06
-1.331780e-03
3.943350e-06
-4.800570e-03
-1.819650e-03
-2.989140e-06
4.740270e-04
-3.529080e-06
4.808480e-03
3.943350e-06
-5.391990e-04
1.089040e-05
-2.989140e-06
1.813680e-03
-3.529080e-06
-4.810910e-04
3.943350e-06
-4.800570e-03
1.089040e-05
5.610110e-04
4.740270e-04
-3.529080e-06
-7.968330e-04
3.354800e-06
-5.391990e-04
1.089040e-05
-1.516010e-03
-1.104750e-06
-3.529080e-06
-4.810910e-04
3.354800e-06
8.035290e-04
1.089040e-05
5.610110e-04
-1.104750e-06
1.513860e-03
-7.968330e-04
3.354800e-06
-2.598010e-03
1.649760e-06
-1.516010e-03
-1.104750e-06
-6.528890e-04
-3.369330e-06
3.354800e-06
8.035290e-04
1.649760e-06
2.601280e-03
-1.104750e-06
1.513860e-03
-3.369330e-06
6.461790e-04
-2.598010e-03
1.649760e-06
1.183010e-03
-1.909290e-06
-6.528890e-04
-3.369330e-06
6.231040e-04
-2.327710e-06
1.649760e-06
2.601280e-03
-1.909290e-06
-1.186840e-03
-3.369330e-06
6.461790e-04
-2.327710e-06
-6.277890e-04
1.183010e-03
-1.909290e-06
-4.961150e-05
2.941120e-07
6.231040e-04
-2.327710e-06
3.749510e-03
-1.938060e-06
-1.909290e-06
-1.186840e-03
2.941120e-07
5.023810e-05
-2.327710e-06
-6.277890e-04
-1.938060e-06
-3.753430e-03
-4.961150e-05
2.941120e-07
-3.672980e-03
2.322580e-07
3.749510e-03
-1.938060e-06
4.393820e-03
2.836410e-07
2.941120e-07
5.023810e-05
2.322580e-07
3.673470e-03
-1.938060e-06
-3.753430e-03
2.836410e-07
-4.393230e-03
-3.672980e-03
2.322580e-07
-3.706720e-04
2.585070e-06
4.393820e-03
2.836410e-07
-2.994500e-03
1.282240e-06
2.322580e-07
3.673470e-03
2.585070e-06
3.758630e-04
2.836410e-07
-4.393230e-03
1.282240e-06
2.997150e-03
-3.706720e-04
2.585070e-06
5.639710e-05
4.105630e-07
-2.994500e-03
1.282240e-06
-2.235140e-03
8.418270e-07
2.585070e-06
3.758630e-04
4.105630e-07
-5.558950e-05
1.282240e-06
2.997150e-03
8.418270e-07
2.236800e-03
5.639710e-05
4.105630e-07
-1.318710e-03
2.871480e-07
-2.235140e-03
8.418270e-07
-8.744640e-04
-5.374870e-07
4.105630e-07
-5.558950e-05
2.871480e-07
1.319270e-03
8.418270e-07
2.236800e-03
-5.374870e-07
8.733330e-04
-1.318710e-03
2.871480e-07
1.520020e-03
4.974120e-06
-8.744640e-04
-5.374870e-07
1.643500e-03
-3.625100e-06
2.871480e-07
1.319270e-03
4.974120e-06
-1.510060e-03
-5.374870e-07
8.733330e-04
-3.625100e-06
-1.650750e-03
1.520020e-03
4.974120e-06
-2.790730e-04
-4.757620e-06
1.643500e-03
-3.625100e-06
2.935500e-03
1.213820e-06
4.974120e-06
-1.510060e-03
-4.757620e-06
2.695560e-04
-3.625100e-06
-1.650750e-03
1.213820e-06
-2.933060e-03
-2.790730e-04
-4.757620e-06
-1.501950e-03
-2.644260e-06
2.935500e-03
1.213820e-06
-6.732660e-04
4.884280e-06
-4.757620e-06
2.695560e-04
-2.644260e-06
1.496640e-03
1.213820e-06
-2.933060e-03
4.884280e-06
6.830030e-04
-1.501950e-03
-2.644260e-06
-8.525030e-04
-4.391470e-07
-6.732660e-04
4.884280e-06
-3.092080e-03
1.116690e-06
-2.644260e-06
1.496640e-03
-4.391470e-07
8.516290e-04
4.884280e-06
6.830030e-04
1.116690e-06
3.094260e-03
-8.525030e-04
-4.391470e-07
1.674970e-04
4.994210e-06
-3.092080e-03
1.116690e-06
2.218670e-03
-5.230170e-06
-4.391470e-07
8.516290e-04
4.994210e-06
-1.574780e-04
1.116690e-06
3.094260e-03
-5.230170e-06
-2.229110e-03
1.674970e-04
4.994210e-06
-3.182370e-04
-7.526730e-07
2.218670e-03
-5.230170e-06
1.396560e-04
4.025860e-06
4.994210e-06
-1.574780e-04
-7.526730e-07
3.167440e-04
-5.230170e-06
-2.229110e-03
4.025860e-06
-1.315650e-04
-3.182370e-04
-7.526730e-07
1.630050e-03
4.395630e-06
1.396560e-04
4.025860e-06
1.505290e-03
-6.313250e-06
-7.526730e-07
3.167440e-04
4.395630e-06
-1.621280e-03
4.025860e-06
-1.315650e-04
-6.313250e-06
-1.517920e-03
1.630050e-03
4.395630e-06
3.083520e-03
-2.058730e-07
1.505290e-03
-6.313250e-06
-3.979650e-03
3.324940e-06
4.395630e-06
-1.621280e-03
-2.058730e-07
-3.083960e-03
-6.313250e-06
-1.517920e-03
3.324940e-06
3.986290e-03
3.083520e-03
-2.058730e-07
1.397650e-03
2.325440e-08
-3.979650e-03
3.324940e-06
-5.710540e-03
5.377890e-06
-2.058730e-07
-3.083960e-03
2.325440e-08
-1.397620e-03
3.324940e-06
3.986290e-03
5.377890e-06
5.721320e-03
</DataArray>
<DataArray type="Float32" Name="V2" format="ascii">
0.000000e+00
0.000000e+00
1.680300e-02
7.005450e-03
0.000000e+00
0.000000e+00
-1.574660e-02
-1.033660e-02
0.000000e+00
0.000000e+00
7.005450e-03
1.680140e-02
0.000000e+00
0.000000e+00
-1.033660e-02
-1.574160e-02
1.680300e-02
7.005450e-03
1.537330e-02
9.299190e-03
-1.574660e-02
-1.033660e-02
-1.977430e-02
-1.623450e-02
7.005450e-03
1.680140e-02
9.299190e-03
1.539290e-02
-1.033660e-02
-1.574160e-02
-1.623450e-02
-1.977900e-02
1.537330e-02
9.299190e-03
-1.308090e-02
-8.435000e-03
-1.977430e-02
-1.623450e-02
7.813870e-03
4.283410e-03
9.299190e-03
1.539290e-02
-8.435000e-03
-1.305370e-02
-1.623450e-02
-1.977900e-02
4.283410e-03
7.802330e-03
-1.308090e-02
-8.435000e-03
-3.056670e-02
-3.492610e-02
7.813870e-03
4.283410e-03
2.467330e-02
2.918340e-02
-8.435000e-03
-1.305370e-02
-3.492610e-02
-3.055760e-02
4.283410e-03
7.802330e-03
2.918340e-02
2.467050e-02
-3.056670e-02
-3.492610e-02
-1.220020e-02
-1.706380e-02
2.467330e-02
2.918340e-02
7.313320e-03
1.227770e-02
-3.492610e-02
-3.055760e-02
-1.706380e-02
-1.219560e-02
2.918340e-02
2.467050e-02
1.227770e-02
7.312020e-03
-1.220020e-02
-1.706380e-02
2.523930e-02
3.400580e-02
7.313320e-03
1.227770e-02
-2.270710e-02
-2.848890e-02
-1.706380e-02
-1.219560e-02
3.400580e-02
2.526080e-02
1.227770e-02
7.312020e-03
-2.848890e-02
-2.272160e-02
2.523930e-02
3.400580e-02
1.464450e-02
1.664150e-02
-2.270710e-02
-2.848890e-02
-1.589290e-02
-1.628530e-02
3.400580e-02
2.526080e-02
1.664150e-02
1.467530e-02
-2.848890e-02
-2.272160e-02
-1.628530e-02
-1.590920e-02
1.464450e-02
1.664150e-02
-3.909230e-02
-4.284100e-02
-1.589290e-02
-1.628530e-02
2.665940e-02
3.022410e-02
1.664150e-02
1.467530e-02
-4.284100e-02
-3.906410e-02
-1.628530e-02
-1.590920e-02
3.022410e-02
2.665120e-02
-3.909230e-02
-4.284100e-02
-4.529590e-02
-4.176600e-02
2.665940e-02
3.022410e-02
2.871240e-02
2.465450e-02
-4.284100e-02
-3.906410e-02
-4.176600e-02
-4.526580e-02
3.022410e-02
2.665120e-02
2.465450e-02
2.870500e-02
-4.529590e-02
-4.176600e-02
1.668170e-02
1.969200e-02
2.871240e-02
2.465450e-02
-2.028360e-02
-2.265530e-02
-4.176600e-02
-4.526580e-02
1.969200e-02
1.670410e-02
2.465450e-02
2.870500e-02
-2.265530e-02
-2.029260e-02
1.668170e-02
1.969200e-02
4.316210e-02
4.278410e-02
-2.028360e-02
-2.265530e-02
-3.635040e-02
-3.330440e-02
1.969200e-02
1.670410e-02
4.278410e-02
4.316670e-02
-2.265530e-02
-2.029260e-02
-3.330440e-02
-3.635400e-02
4.316210e-02
4.278410e-02
-9.499950e-03
-6.227070e-03
-3.635040e-02
-3.330440e-02
8.350150e-03
4.435980e-03
4.278410e-02
4.316670e-02
-6.227070e-03
-9.499530e-03
-3.330440e-02
-3.635400e-02
4.435980e-03
8.349110e-03
-9.499950e-03
-6.227070e-03
-5.757170e-02
-5.605860e-02
8.350150e-03
4.435980e-03
4.279940e-02
3.923670e-02
-6.227070e-03
-9.499530e-03
-5.605860e-02
-5.756520e-02
4.435980e-03
8.349110e-03
3.923670e-02
4.279730e-02
-5.757170e-02
-5.605860e-02
-2.362540e-02
-2.935070e-02
4.279940e-02
3.923670e-02
1.214510e-02
1.603810e-02
-5.605860e-02
-5.756520e-02
-2.935070e-02
-2.362050e-02
3.923670e-02
4.279730e-02
1.603810e-02
1.214880e-02
-2.362540e-02
-2.935070e-02
3.715930e-02
4.101860e-02
1.214510e-02
1.603810e-02
-3.520630e-02
-3.756190e-02
-2.935070e-02
-2.362050e-02
4.101860e-02
3.714890e-02
1.603810e-02
1.214880e-02
-3.756190e-02
-3.519040e-02
3.715930e-02
4.101860e-02
3.345380e-02
3.766830e-02
-3.520630e-02
-3.756190e-02
-2.641130e-02
-2.892780e-02
4.101860e-02
3.714890e-02
3.766830e-02
3.343900e-02
-3.756190e-02
-3.519040e-02
-2.892780e-02
-2.640370e-02
3.345380e-02
3.766830e-02
-1.871400e-02
-2.729420e-02
-2.641130e-02
-2.892780e-02
2.450090e-02
3.075220e-02
3.766830e-02
3.343900e-02
-2.729420e-02
-1.870840e-02
-2.892780e-02
-2.640370e-02
3.075220e-02
2.449370e-02
-1.871400e-02
-2.729420e-02
-5.022690e-02
-4.951140e-02
2.450090e-02
3.075220e-02
4.003780e-02
3.887630e-02
-2.729420e-02
-1.870840e-02
-4.951140e-02
-5.022340e-02
3.075220e-02
2.449370e-02
3.887630e-02
4.004260e-02
-5.022690e-02
-4.951140e-02
-4.717850e-03
-7.578490e-04
4.003780e-02
3.887630e-02
-8.703740e-03
-1.240670e-02
-4.951140e-02
-5.022340e-02
-7.578490e-04
-4.733210e-03
3.887630e-02
4.004260e-02
-1.240670e-02
-8.690330e-03
-4.717850e-03
-7.578490e-04
4.167790e-02
3.340010e-02
-8.703740e-03
-1.240670e-02
-4.169970e-02
-3.487070e-02
-7.578490e-04
-4.733210e-03
3.340010e-02
4.167150e-02
-1.240670e-02
-8.690330e-03
-3.487070e-02
-4.170070e-02
4.167790e-02
3.340010e-02
8.735460e-03
7.534050e-03
-4.169970e-02
-3.487070e-02
2.904390e-03
3.324470e-03
3.340010e-02
4.167150e-02
7.534050e-03
8.746890e-03
-3.487070e-02
-4.170070e-02
3.324470e-03
2.897180e-03
8.735460e-03
7.534050e-03
-3.006650e-02
-2.535000e-02
2.904390e-03
3.324470e-03
3.900110e-02
3.565010e-02
7.534050e-03
8.746890e-03
-2.535000e-02
-3.006200e-02
3.324470e-03
2.897180e-03
3.565010e-02
3.899910e-02
-3.006650e-02
-2.535000e-02
-1.357410e-02
-1.741920e-02
3.900110e-02
3.565010e-02
7.435290e-03
1.185620e-02
-2.535000e-02
-3.006200e-02
-1.741920e-02
-1.357510e-02
3.565010e-02
3.899910e-02
1.185620e-02
7.434260e-03
-1.357410e-02
-1.741920e-02
9.696620e-03
7.809730e-03
7.435290e-03
1.185620e-02
-2.329940e-02
-2.220560e-02
-1.741920e-02
-1.357510e-02
7.809730e-03
9.703640e-03
1.185620e-02
7.434260e-03
-2.220560e-02
-2.330160e-02
9.696620e-03
7.809730e-03
1.469050e-03
5.592160e-03
-2.329940e-02
-2.220560e-02
-9.815760e-03
-1.291610e-02
7.809730e-03
9.703640e-03
5.592160e-03
1.478710e-03
-2.220560e-02
-2.330160e-02
-1.291610e-02
-9.816890e-03
1.469050e-03
5.592160e-03
-1.357040e-02
-1.254710e-02
-9.815760e-03
-1.291610e-02
1.638340e-02
1.769520e-02
5.592160e-03
1.478710e-03
-1.254710e-02
-1.356480e-02
-1.291610e-02
-9.816890e-03
1.769520e-02
1.638580e-02
-1.357040e-02
-1.254710e-02
-7.649050e-03
-5.024690e-03
1.638340e-02
1.769520e-02
1.194520e-02
1.354230e-02
-1.254710e-02
-1.356480e-02
-5.024690e-03
-7.647650e-03
1.769520e-02
1.638580e-02
1.354230e-02
1.194430e-02
-7.649050e-03
-5.024690e-03
4.051070e-03
7.887520e-03
1.194520e-02
1.354230e-02
-3.510340e-03
-6.069630e-03
-5.024690e-03
-7.647650e-03
7.887520e-03
4.060010e-03
1.354230e-02
1.194430e-02
-6.069630e-03
-3.518540e-03
4.051070e-03
7.887520e-03
-1.966040e-02
-2.270460e-02
-3.510340e-03
-6.069630e-03
3.150910e-03
2.397800e-03
7.887520e-03
4.060010e-03
-2.270460e-02
-1.965690e-02
-6.069630e-03
-3.518540e-03
2.397800e-03
3.147070e-03
-1.966040e-02
-2.270460e-02
-4.279910e-02
-4.777930e-02
3.150910e-03
2.397800e-03
1.283240e-02
1.435940e-02
-2.270460e-02
-1.965690e-02
-4.777930e-02
-4.280880e-02
2.397800e-03
3.147070e-03
1.435940e-02
1.283600e-02
0.000000e+00
0.000000e+00
-1.574660e-02
-1.033660e-02
0.000000e+00
0.000000e+00
1.465910e-02
1.366340e-02
0.000000e+00
0.000000e+00
-1.033660e-02
-1.574160e-02
0.000000e+00
0.000000e+00
1.366340e-02
1.465100e-02
-1.574660e-02
-1.033660e-02
-1.977430e-02
-1.623450e-02
1.465910e-02
1.366340e-02
2.425660e-02
2.319050e-02
-1.033660e-02
-1.574160e-02
-1.623450e-02
-1.977900e-02
1.366340e-02
1.465100e-02
2.319050e-02
2.424650e-02
-1.977430e-02