<?xml version="1.0"?>
<VTKFile type="UnstructuredGrid" version="0.1" byte_order="LittleEndian" compressor="vtkZLibDataCompressor">
<UnstructuredGrid>
<Piece NumberOfPoints="960" NumberOfCells="120">
<Points>
<DataArray type="Float32" NumberOfComponents="3" format="ascii">
-4.000000e+02 -6.000000e+03 -4.000000e+02
0.000000e+00 -6.000000e+03 -4.000000e+02
-4.001150e+02 -5.600680e+03 -4.004190e+02
-1.047430e-01 -5.600670e+03 -4.005360e+02
-4.000000e+02 -6.000000e+03 0.000000e+00
0.000000e+00 -6.000000e+03 0.000000e+00
-4.000000e+02 -5.599970e+03 -2.585810e-01
-1.417520e-02 -5.600000e+03 -3.811310e-01
0.000000e+00 -6.000000e+03 -4.000000e+02
4.000000e+02 -6.000000e+03 -4.000000e+02
-1.047430e-01 -5.600670e+03 -4.005360e+02
3.999070e+02 -5.600670e+03 -4.006010e+02
0.000000e+00 -6.000000e+03 0.000000e+00
4.000000e+02 -6.000000e+03 0.000000e+00
-1.417520e-02 -5.600000e+03 -3.811310e-01
3.999710e+02 -5.600010e+03 -5.157950e-01
-4.001150e+02 -5.600680e+03 -4.004190e+02
-1.047430e-01 -5.600670e+03 -4.005360e+02
-4.002280e+02 -5.201030e+03 -4.013440e+02
-2.390880e-01 -5.201080e+03 -4.014730e+02
-4.000000e+02 -5.599970e+03 -2.585810e-01
-1.417520e-02 -5.600000e+03 -3.811310e-01
-4.000510e+02 -5.200050e+03 -1.087100e+00
-6.106430e-02 -5.200030e+03 -1.365130e+00
-1.047430e-01 -5.600670e+03 -4.005360e+02
3.999070e+02 -5.600670e+03 -4.006010e+02
-2.390880e-01 -5.201080e+03 -4.014730e+02
3.997460e+02 -5.201140e+03 -4.015970e+02
-1.417520e-02 -5.600000e+03 -3.811310e-01
3.999710e+02 -5.600010e+03 -5.157950e-01
-6.106430e-02 -5.200030e+03 -1.365130e+00
3.999290e+02 -5.200020e+03 -1.679910e+00
-4.002280e+02 -5.201030e+03 -4.013440e+02
-2.390880e-01 -5.201080e+03 -4.014730e+02
-4.004230e+02 -4.801160e+03 -4.022230e+02
-4.085640e-01 -4.801270e+03 -4.026690e+02
-4.000510e+02 -5.200050e+03 -1.087100e+00
-6.106430e-02 -5.200030e+03 -1.365130e+00
-4.000480e+02 -4.800110e+03 -2.186170e+00
-4.976480e-02 -4.800060e+03 -2.708050e+00
-2.390880e-01 -5.201080e+03 -4.014730e+02
3.997460e+02 -5.201140e+03 -4.015970e+02
-4.085640e-01 -4.801270e+03 -4.026690e+02
3.996050e+02 -4.801430e+03 -4.030320e+02
-6.106430e-02 -5.200030e+03 -1.365130e+00
3.999290e+02 -5.200020e+03 -1.679910e+00
-4.976480e-02 -4.800060e+03 -2.708050e+00
3.999480e+02 -4.800020e+03 -3.184430e+00
-4.004230e+02 -4.801160e+03 -4.022230e+02
-4.085640e-01 -4.801270e+03 -4.026690e+02
-4.004820e+02 -4.401610e+03 -4.033590e+02
-4.068310e-01 -4.401630e+03 -4.039890e+02
-4.000480e+02 -4.800110e+03 -2.186170e+00
-4.976480e-02 -4.800060e+03 -2.708050e+00
-3.999970e+02 -4.399990e+03 -3.516080e+00
-5.873120e-03 -4.399970e+03 -4.079900e+00
-4.085640e-01 -4.801270e+03 -4.026690e+02
3.996050e+02 -4.801430e+03 -4.030320e+02
-4.068310e-01 -4.401630e+03 -4.039890e+02
3.996680e+02 -4.401690e+03 -4.044410e+02
-4.976480e-02 -4.800060e+03 -2.708050e+00
3.999480e+02 -4.800020e+03 -3.184430e+00
-5.873120e-03 -4.399970e+03 -4.079900e+00
3.999850e+02 -4.399960e+03 -4.537440e+00
-4.004820e+02 -4.401610e+03 -4.033590e+02
-4.068310e-01 -4.401630e+03 -4.039890e+02
-4.003060e+02 -4.002160e+03 -4.056050e+02
-2.468920e-01 -4.002110e+03 -4.059590e+02
-3.999970e+02 -4.399990e+03 -3.516080e+00
-5.873120e-03 -4.399970e+03 -4.079900e+00
-4.000130e+02 -3.999910e+03 -5.496280e+00
-2.479240e-02 -3.999920e+03 -5.859530e+00
-4.068310e-01 -4.401630e+03 -4.039890e+02
3.996680e+02 -4.401690e+03 -4.044410e+02
-2.468920e-01 -4.002110e+03 -4.059590e+02
3.998100e+02 -4.002020e+03 -4.061900e+02
-5.873120e-03 -4.399970e+03 -4.079900e+00
3.999850e+02 -4.399960e+03 -4.537440e+00
-2.479240e-02 -3.999920e+03 -5.859530e+00
3.999630e+02 -3.999940e+03 -6.151580e+00
-4.003060e+02 -4.002160e+03 -4.056050e+02
-2.468920e-01 -4.002110e+03 -4.059590e+02
-4.001830e+02 -3.602400e+03 -4.080690e+02
-2.037020e-01 -3.602330e+03 -4.081840e+02
-4.000130e+02 -3.999910e+03 -5.496280e+00
-2.479240e-02 -3.999920e+03 -5.859530e+00
-4.000290e+02 -3.599990e+03 -7.790990e+00
-2.748570e-02 -3.600010e+03 -7.963620e+00
-2.468920e-01 -4.002110e+03 -4.059590e+02
3.998100e+02 -4.002020e+03 -4.061900e+02
-2.037020e-01 -3.602330e+03 -4.081840e+02
3.997770e+02 -3.602240e+03 -4.083460e+02
-2.479240e-02 -3.999920e+03 -5.859530e+00
3.999630e+02 -3.999940e+03 -6.151580e+00
-2.748570e-02 -3.600010e+03 -7.963620e+00
3.999730e+02 -3.600050e+03 -8.188090e+00
-4.001830e+02 -3.602400e+03 -4.080690e+02
-2.037020e-01 -3.602330e+03 -4.081840e+02
-4.001050e+02 -3.202610e+03 -4.104520e+02
-1.604690e-01 -3.202570e+03 -4.104460e+02
-4.000290e+02 -3.599990e+03 -7.790990e+00
-2.748570e-02 -3.600010e+03 -7.963620e+00
-4.000140e+02 -3.200100e+03 -1.040810e+01
-1.471550e-02 -3.200110e+03 -1.046820e+01
-2.037020e-01 -3.602330e+03 -4.081840e+02
3.997770e+02 -3.602240e+03 -4.083460e+02
-1.604690e-01 -3.202570e+03 -4.104460e+02
3.997870e+02 -3.202540e+03 -4.105480e+02
-2.748570e-02 -3.600010e+03 -7.963620e+00
3.999730e+02 -3.600050e+03 -8.188090e+00
-1.471550e-02 -3.200110e+03 -1.046820e+01
3.999850e+02 -3.200120e+03 -1.061640e+01
-4.001050e+02 -3.202610e+03 -4.104520e+02
-1.604690e-01 -3.202570e+03 -4.104460e+02
-4.000550e+02 -2.803070e+03 -4.132080e+02
-7.413350e-02 -2.803090e+03 -4.131760e+02
-4.000140e+02 -3.200100e+03 -1.040810e+01
-1.471550e-02 -3.200110e+03 -1.046820e+01
-4.000240e+02 -2.800030e+03 -1.340770e+01
-2.296210e-02 -2.800030e+03 -1.345030e+01
-1.604690e-01 -3.202570e+03 -4.104460e+02
3.997870e+02 -3.202540e+03 -4.105480e+02
-7.413350e-02 -2.803090e+03 -4.131760e+02
3.999060e+02 -2.803100e+03 -4.132090e+02
-1.471550e-02 -3.200110e+03 -1.046820e+01
3.999850e+02 -3.200120e+03 -1.061640e+01
-2.296210e-02 -2.800030e+03 -1.345030e+01
3.999770e+02 -2.800040e+03 -1.352470e+01
-4.000550e+02 -2.803070e+03 -4.132080e+02
-7.413350e-02 -2.803090e+03 -4.131760e+02
-4.000780e+02 -2.403630e+03 -4.166690e+02
-1.133490e-01 -2.403650e+03 -4.166690e+02
-4.000240e+02 -2.800030e+03 -1.340770e+01
-2.296210e-02 -2.800030e+03 -1.345030e+01
-4.000170e+02 -2.399950e+03 -1.668300e+01
-9.648800e-03 -2.399950e+03 -1.672100e+01
-7.413350e-02 -2.803090e+03 -4.131760e+02
3.999060e+02 -2.803100e+03 -4.132090e+02
-1.133490e-01 -2.403650e+03 -4.166690e+02
3.998510e+02 -2.403660e+03 -4.167450e+02
-2.296210e-02 -2.800030e+03 -1.345030e+01
3.999770e+02 -2.800040e+03 -1.352470e+01
-9.648800e-03 -2.399950e+03 -1.672100e+01
3.999980e+02 -2.399950e+03 -1.681840e+01
-4.000780e+02 -2.403630e+03 -4.166690e+02
-1.133490e-01 -2.403650e+03 -4.166690e+02
-4.000530e+02 -2.003950e+03 -4.204580e+02
-7.088900e-02 -2.003970e+03 -4.204810e+02
-4.000170e+02 -2.399950e+03 -1.668300e+01
-9.648800e-03 -2.399950e+03 -1.672100e+01
-4.000130e+02 -2.000010e+03 -2.019600e+01
-9.259650e-03 -2.000030e+03 -2.026130e+01
-1.133490e-01 -2.403650e+03 -4.166690e+02
3.998510e+02 -2.403660e+03 -4.167450e+02
-7.088900e-02 -2.003970e+03 -4.204810e+02
3.999100e+02 -2.003990e+03 -4.205350e+02
-9.648800e-03 -2.399950e+03 -1.672100e+01
3.999980e+02 -2.399950e+03 -1.681840e+01
-9.259650e-03 -2.000030e+03 -2.026130e+01
3.999940e+02 -2.000030e+03 -2.037620e+01
-4.000530e+02 -2.003950e+03 -4.204580e+02
-7.088900e-02 -2.003970e+03 -4.204810e+02
-3.999670e+02 -1.604300e+03 -4.243170e+02
3.446640e-02 -1.604230e+03 -4.243470e+02
-4.000130e+02 -2.000010e+03 -2.019600e+01
-9.259650e-03 -2.000030e+03 -2.026130e+01
-4.000100e+02 -1.600140e+03 -2.419810e+01
-1.028160e-02 -1.600150e+03 -2.425750e+01
-7.088900e-02 -2.003970e+03 -4.204810e+02
3.999100e+02 -2.003990e+03 -4.205350e+02
3.446640e-02 -1.604230e+03 -4.243470e+02
4.000340e+02 -1.604160e+03 -4.244060e+02
-9.259650e-03 -2.000030e+03 -2.026130e+01
3.999940e+02 -2.000030e+03 -2.037620e+01
-1.028160e-02 -1.600150e+03 -2.425750e+01
3.999890e+02 -1.600130e+03 -2.434640e+01
-3.999670e+02 -1.604300e+03 -4.243170e+02
3.446640e-02 -1.604230e+03 -4.243470e+02
-3.998580e+02 -1.204550e+03 -4.287380e+02
1.264780e-01 -1.204450e+03 -4.285650e+02
-4.000100e+02 -1.600140e+03 -2.419810e+01
-1.028160e-02 -1.600150e+03 -2.425750e+01
-4.000210e+02 -1.200170e+03 -2.883730e+01
6.769420e-05 -1.200150e+03 -2.866930e+01
3.446640e-02 -1.604230e+03 -4.243470e+02
4.000340e+02 -1.604160e+03 -4.244060e+02
1.264780e-01 -1.204450e+03 -4.285650e+02
4.001080e+02 -1.204280e+03 -4.285250e+02
-1.028160e-02 -1.600150e+03 -2.425750e+01
3.999890e+02 -1.600130e+03 -2.434640e+01
6.769420e-05 -1.200150e+03 -2.866930e+01
4.000210e+02 -1.200150e+03 -2.852420e+01
-3.998580e+02 -1.204550e+03 -4.287380e+02
1.264780e-01 -1.204450e+03 -4.285650e+02
-3.996810e+02 -8.045940e+02 -4.332320e+02
2.238710e-01 -8.045870e+02 -4.328080e+02
-4.000210e+02 -1.200170e+03 -2.883730e+01
6.769420e-05 -1.200150e+03 -2.866930e+01
-4.000520e+02 -8.001440e+02 -3.327440e+01
-1.217120e-02 -8.001570e+02 -3.291340e+01
1.264780e-01 -1.204450e+03 -4.285650e+02
4.001080e+02 -1.204280e+03 -4.285250e+02
2.238710e-01 -8.045870e+02 -4.328080e+02
4.001290e+02 -8.045210e+02 -4.326150e+02
6.769420e-05 -1.200150e+03 -2.866930e+01
4.000210e+02 -1.200150e+03 -2.852420e+01
-1.217120e-02 -8.001570e+02 -3.291340e+01
4.000280e+02 -8.001850e+02 -3.265150e+01
-3.996810e+02 -8.045940e+02 -4.332320e+02
2.238710e-01 -8.045870e+02 -4.328080e+02
-3.997310e+02 -4.046880e+02 -4.376000e+02
2.305620e-01 -4.046950e+02 -4.373230e+02
-4.000520e+02 -8.001440e+02 -3.327440e+01
-1.217120e-02 -8.001570e+02 -3.291340e+01
-4.000480e+02 -4.001560e+02 -3.762770e+01
-4.064790e-02 -4.001740e+02 -3.745220e+01
2.238710e-01 -8.045870e+02 -4.328080e+02
4.001290e+02 -8.045210e+02 -4.326150e+02
2.305620e-01 -4.046950e+02 -4.373230e+02
4.001930e+02 -4.047580e+02 -4.371040e+02
-1.217120e-02 -8.001570e+02 -3.291340e+01
4.000280e+02 -8.001850e+02 -3.265150e+01
-4.064790e-02 -4.001740e+02 -3.745220e+01
3.999670e+02 -4.001810e+02 -3.730890e+01
-3.997310e+02 -4.046880e+02 -4.376000e+02
2.305620e-01 -4.046950e+02 -4.373230e+02
-3.999720e+02 -4.850480e+00 -4.421590e+02
8.355030e-02 -4.781340e+00 -4.421360e+02
-4.000480e+02 -4.001560e+02 -3.762770e+01
-4.064790e-02 -4.001740e+02 -3.745220e+01
-4.000070e+02 -1.598220e-01 -4.226310e+01
-3.254270e-02 -1.551110e-01 -4.225770e+01
2.305620e-01 -4.046950e+02 -4.373230e+02
[...]
<PointData>
<DataArray type="Float32" Name="V1" format="ascii">
0.000000e+00
0.000000e+00
-1.841490e-01
-1.461560e-01
0.000000e+00
0.000000e+00
4.635420e-02
3.859850e-02
0.000000e+00
0.000000e+00
-1.461560e-01
-1.068410e-01
0.000000e+00
0.000000e+00
3.859850e-02
3.134070e-02
-1.841490e-01
-1.461560e-01
-4.257230e-02
-2.149030e-02
4.635420e-02
3.859850e-02
2.263210e-02
1.839790e-02
-1.461560e-01
-1.068410e-01
-2.149030e-02
3.466950e-03
3.859850e-02
3.134070e-02
1.839790e-02
1.618110e-02
-4.257230e-02
-2.149030e-02
-6.900580e-02
-5.981130e-02
2.263210e-02
1.839790e-02
2.025930e-02
2.354900e-02
-2.149030e-02
3.466950e-03
-5.981130e-02
-5.375340e-02
1.839790e-02
1.618110e-02
2.354900e-02
2.902240e-02
-6.900580e-02
-5.981130e-02
3.777820e-02
-7.144170e-03
2.025930e-02
2.354900e-02
-3.751860e-02
-1.427310e-02
-5.981130e-02
-5.375340e-02
-7.144170e-03
-5.063520e-02
2.354900e-02
2.902240e-02
-1.427310e-02
6.987400e-03
3.777820e-02
-7.144170e-03
-5.184810e-02
-7.334340e-02
-3.751860e-02
-1.427310e-02
-2.248980e-02
1.573610e-02
-7.144170e-03
-5.063520e-02
-7.334340e-02
-9.708990e-02
-1.427310e-02
6.987400e-03
1.573610e-02
5.336220e-02
-5.184810e-02
-7.334340e-02
4.090580e-02
1.872410e-02
-2.248980e-02
1.573610e-02
-3.292220e-02
2.274270e-02
-7.334340e-02
-9.708990e-02
1.872410e-02
-7.862080e-03
1.573610e-02
5.336220e-02
2.274270e-02
7.817990e-02
4.090580e-02
1.872410e-02
1.480830e-01
5.927710e-02
-3.292220e-02
2.274270e-02
-7.369520e-02
-4.039910e-03
1.872410e-02
-7.862080e-03
5.927710e-02
-2.425180e-02
2.274270e-02
7.817990e-02
-4.039910e-03
6.512820e-02
1.480830e-01
5.927710e-02
8.548350e-02
4.921100e-02
-7.369520e-02
-4.039910e-03
-8.776250e-02
-2.219400e-02
5.927710e-02
-2.425180e-02
4.921100e-02
1.839390e-02
-4.039910e-03
6.512820e-02
-2.219400e-02
4.617400e-02
8.548350e-02
4.921100e-02
-4.213630e-02
-2.988230e-02
-8.776250e-02
-2.219400e-02
-1.681180e-02
5.681920e-03
4.921100e-02
1.839390e-02
-2.988230e-02
-1.871220e-02
-2.219400e-02
4.617400e-02
5.681920e-03
2.776430e-02
-4.213630e-02
-2.988230e-02
-3.337960e-02
-7.000300e-02
-1.681180e-02
5.681920e-03
-2.730560e-03
1.202740e-02
-2.988230e-02
-1.871220e-02
-7.000300e-02
-1.083260e-01
5.681920e-03
2.776430e-02
1.202740e-02
2.439950e-02
-3.337960e-02
-7.000300e-02
8.075660e-02
-1.849290e-03
-2.730560e-03
1.202740e-02
-4.729460e-02
-8.120970e-03
-7.000300e-02
-1.083260e-01
-1.849290e-03
-8.315650e-02
1.202740e-02
2.439950e-02
-8.120970e-03
2.653000e-02
8.075660e-02
-1.849290e-03
3.435290e-02
-1.783130e-02
-4.729460e-02
-8.120970e-03
-7.875010e-02
-2.488590e-02
-1.849290e-03
-8.315650e-02
-1.783130e-02
-7.171050e-02
-8.120970e-03
2.653000e-02
-2.488590e-02
2.827350e-02
3.435290e-02
-1.783130e-02
4.631960e-02
2.978450e-02
-7.875010e-02
-2.488590e-02
-1.181230e-01
-5.241680e-02
-1.783130e-02
-7.171050e-02
2.978450e-02
1.114020e-02
-2.488590e-02
2.827350e-02
-5.241680e-02
1.336060e-02
4.631960e-02
2.978450e-02
1.197700e-01
7.880060e-02
-1.181230e-01
-5.241680e-02
-9.840290e-02
-7.237120e-02
2.978450e-02
1.114020e-02
7.880060e-02
3.957000e-02
-5.241680e-02
1.336060e-02
-7.237120e-02
-4.732830e-02
1.197700e-01
7.880060e-02
6.161060e-02
8.146840e-02
-9.840290e-02
-7.237120e-02
-3.549800e-02
-2.823000e-02
7.880060e-02
3.957000e-02
8.146840e-02
1.021300e-01
-7.237120e-02
-4.732830e-02
-2.823000e-02
-1.813530e-02
6.161060e-02
8.146840e-02
1.691170e-01
1.594580e-01
-3.549800e-02
-2.823000e-02
-3.211520e-02
-3.017650e-02
8.146840e-02
1.021300e-01
1.594580e-01
1.516760e-01
-2.823000e-02
-1.813530e-02
-3.017650e-02
-2.570780e-02
1.691170e-01
1.594580e-01
1.441370e-01
1.378700e-01
-3.211520e-02
-3.017650e-02
-4.366670e-02
-5.341600e-02
1.594580e-01
1.516760e-01
1.378700e-01
1.258600e-01
-3.017650e-02
-2.570780e-02
-5.341600e-02
-6.271500e-02
1.441370e-01
1.378700e-01
1.060380e-02
1.461370e-02
-4.366670e-02
-5.341600e-02
-3.149400e-02
-8.288740e-03
1.378700e-01
1.258600e-01
1.461370e-02
1.674650e-02
-5.341600e-02
-6.271500e-02
-8.288740e-03
1.530010e-02
1.060380e-02
1.461370e-02
1.153330e-02
4.396660e-03
-3.149400e-02
-8.288740e-03
-5.863620e-02
4.188170e-03
1.461370e-02
1.674650e-02
4.396660e-03
-1.934020e-03
-8.288740e-03
1.530010e-02
4.188170e-03
6.543310e-02
1.153330e-02
4.396660e-03
5.597380e-02
7.997990e-02
-5.863620e-02
4.188170e-03
-4.959590e-02
-3.136830e-02
4.396660e-03
-1.934020e-03
7.997990e-02
1.048420e-01
4.188170e-03
6.543310e-02
-3.136830e-02
-1.456730e-02
5.597380e-02
7.997990e-02
1.044030e-01
9.125640e-02
-4.959590e-02
-3.136830e-02
5.472490e-03
-1.996800e-02
7.997990e-02
1.048420e-01
9.125640e-02
7.998930e-02
-3.136830e-02
-1.456730e-02
-1.996800e-02
-4.272900e-02
1.044030e-01
9.125640e-02
1.321850e-02
2.656310e-02
5.472490e-03
-1.996800e-02
2.824580e-02
5.406590e-03
9.125640e-02
7.998930e-02
2.656310e-02
4.267390e-02
-1.996800e-02
-4.272900e-02
5.406590e-03
-1.677390e-02
1.321850e-02
2.656310e-02
-4.192290e-02
-5.971580e-02
2.824580e-02
5.406590e-03
7.101130e-03
9.771070e-03
2.656310e-02
4.267390e-02
-5.971580e-02
-8.005060e-02
5.406590e-03
-1.677390e-02
9.771070e-03
1.317350e-02
-4.192290e-02
-5.971580e-02
-1.758540e-02
-2.074530e-03
7.101130e-03
9.771070e-03
4.931210e-03
1.722270e-02
-5.971580e-02
-8.005060e-02
-2.074530e-03
1.306410e-02
9.771070e-03
1.317350e-02
1.722270e-02
2.838250e-02
-1.758540e-02
-2.074530e-03
-1.572460e-01
-3.486250e-02
4.931210e-03
1.722270e-02
8.087370e-02
4.573160e-02
-2.074530e-03
1.306410e-02
-3.486250e-02
8.562280e-02
1.722270e-02
2.838250e-02
4.573160e-02
1.057010e-02
-1.572460e-01
-3.486250e-02
-1.969740e-01
-8.702110e-02
8.087370e-02
4.573160e-02
1.245040e-01
5.808840e-02
-3.486250e-02
8.562280e-02
-8.702110e-02
1.960070e-02
4.573160e-02
1.057010e-02
5.808840e-02
-8.479880e-03
-1.969740e-01
-8.702110e-02
-3.991920e-02
-4.385420e-03
1.245040e-01
5.808840e-02
8.893510e-02
3.295030e-02
-8.702110e-02
1.960070e-02
-4.385420e-03
3.687170e-02
5.808840e-02
-8.479880e-03
3.295030e-02
-2.285340e-02
-3.991920e-02
-4.385420e-03
-9.252560e-02
-7.552800e-02
8.893510e-02
3.295030e-02
6.721210e-02
2.511670e-02
-4.385420e-03
3.687170e-02
-7.552800e-02
-5.435930e-02
3.295030e-02
-2.285340e-02
2.511670e-02
-1.592670e-02
-9.252560e-02
-7.552800e-02
-2.137690e-01
-1.437520e-01
6.721210e-02
2.511670e-02
9.909110e-02
3.263040e-02
-7.552800e-02
-5.435930e-02
-1.437520e-01
-7.316730e-02
2.511670e-02
-1.592670e-02
3.263040e-02
-3.106590e-02
-2.137690e-01
-1.437520e-01
-2.568020e-01
-1.569480e-01
9.909110e-02
3.263040e-02
6.401350e-02
-2.928390e-03
-1.437520e-01
-7.316730e-02
-1.569480e-01
-6.668740e-02
3.263040e-02
-3.106590e-02
-2.928390e-03
-6.694850e-02
0.000000e+00
0.000000e+00
4.635420e-02
3.859850e-02
0.000000e+00
0.000000e+00
9.162610e-02
6.900870e-02
0.000000e+00
0.000000e+00
3.859850e-02
3.134070e-02
0.000000e+00
0.000000e+00
6.900870e-02
3.901280e-02
4.635420e-02
3.859850e-02
2.263210e-02
1.839790e-02
9.162610e-02
6.900870e-02
8.163680e-03
-8.424270e-03
3.859850e-02
3.134070e-02
1.839790e-02
1.618110e-02
6.900870e-02
3.901280e-02
-8.424270e-03
-2.530370e-02
2.263210e-02
1.839790e-02
2.025930e-02
2.354900e-02
8.163680e-03
-8.424270e-03
1.630230e-02
5.051520e-03
1.839790e-02
1.618110e-02
2.354900e-02
2.902240e-02
-8.424270e-03
-2.530370e-02
5.051520e-03
-2.488990e-03
2.025930e-02
2.354900e-02
-3.751860e-02
-1.427310e-02
1.630230e-02
5.051520e-03
4.347860e-02
3.744890e-02
2.354900e-02
2.902240e-02
-1.427310e-02
6.987400e-03
5.051520e-03
-2.488990e-03
3.744890e-02
3.113830e-02
-3.751860e-02
-1.427310e-02
-2.248980e-02
1.573610e-02
4.347860e-02
3.744890e-02
9.284020e-02
3.618530e-02
-1.427310e-02
6.987400e-03
1.573610e-02
5.336220e-02
3.744890e-02
3.113830e-02
3.618530e-02
-1.879250e-02
-2.248980e-02
1.573610e-02
-3.292220e-02
2.274270e-02
9.284020e-02
3.618530e-02
2.856050e-02
-6.108730e-02
1.573610e-02
5.336220e-02
2.274270e-02
7.817990e-02
3.618530e-02
-1.879250e-02
-6.108730e-02
-1.493470e-01
-3.292220e-02
2.274270e-02
-7.369520e-02
-4.039910e-03
2.856050e-02
-6.108730e-02
4.991860e-03
-4.522270e-02
2.274270e-02
7.817990e-02
-4.039910e-03
6.512820e-02
-6.108730e-02
-1.493470e-01
-4.522270e-02
-1.017930e-01
-7.369520e-02
-4.039910e-03
-8.776250e-02
-2.219400e-02
4.991860e-03
-4.522270e-02
7.601490e-02
-1.704690e-02
-4.039910e-03
6.512820e-02
-2.219400e-02
4.617400e-02
-4.522270e-02
-1.017930e-01
-1.704690e-02
-1.124850e-01
-8.776250e-02
-2.219400e-02
-1.681180e-02
5.681920e-03
7.601490e-02
-1.704690e-02
8.024740e-02
1.751370e-02
-2.219400e-02
4.617400e-02
5.681920e-03
2.776430e-02
-1.704690e-02
-1.124850e-01
1.751370e-02
-3.542140e-02
-1.681180e-02
5.681920e-03
-2.730560e-03
1.202740e-02
8.024740e-02
1.751370e-02
4.862740e-02
5.542630e-02
5.681920e-03
2.776430e-02
1.202740e-02
2.439950e-02
1.751370e-02
-3.542140e-02
5.542630e-02
6.092430e-02
-2.730560e-03
1.202740e-02
-4.729460e-02
-8.120970e-03
4.862740e-02
5.542630e-02
7.988490e-03
1.657030e-02
1.202740e-02
2.439950e-02
-8.120970e-03
2.653000e-02
5.542630e-02
6.092430e-02
1.657030e-02
2.388580e-02
-4.729460e-02
-8.120970e-03
-7.875010e-02
-2.488590e-02
7.988490e-03
1.657030e-02
1.225760e-01
7.103740e-02
-8.120970e-03
2.653000e-02
-2.488590e-02
2.827350e-02
1.657030e-02
2.388580e-02
7.103740e-02
2.056480e-02
-7.875010e-02
-2.488590e-02
-1.181230e-01
-5.241680e-02
1.225760e-01
7.103740e-02
1.885440e-01
7.680650e-02
-2.488590e-02
2.827350e-02
-5.241680e-02
1.336060e-02
7.103740e-02
2.056480e-02
7.680650e-02
-3.825990e-02
-1.181230e-01
-5.241680e-02
-9.840290e-02
-7.237120e-02
1.885440e-01
7.680650e-02
7.520100e-02
6.572360e-02
-5.241680e-02
1.336060e-02
-7.237120e-02
-4.732830e-02
7.680650e-02
-3.825990e-02
6.572360e-02
5.188230e-02
-9.840290e-02
-7.237120e-02
-3.549800e-02
-2.823000e-02
7.520100e-02
6.572360e-02
1.017420e-02
-2.811200e-02
-7.237120e-02
-4.732830e-02
-2.823000e-02
-1.813530e-02
6.572360e-02
5.188230e-02
-2.811200e-02
-6.297660e-02
-3.549800e-02
-2.823000e-02
-3.211520e-02
-3.017650e-02
1.017420e-02
-2.811200e-02
-9.503710e-02
-9.458300e-02
-2.823000e-02
-1.813530e-02
-3.017650e-02
-2.570780e-02
-2.811200e-02
-6.297660e-02
-9.458300e-02
-9.056120e-02
-3.211520e-02
-3.017650e-02
-4.366670e-02
-5.341600e-02
-9.503710e-02
-9.458300e-02
-6.003340e-02
-3.830170e-02
-3.017650e-02
-2.570780e-02
-5.341600e-02
-6.271500e-02
-9.458300e-02
-9.056120e-02
-3.830170e-02
-1.085880e-02
-4.366670e-02
-5.341600e-02
-3.149400e-02
-8.288740e-03
-6.003340e-02
-3.830170e-02
5.278380e-02
6.865170e-03
-5.341600e-02
-6.271500e-02
-8.288740e-03
1.530010e-02
-3.830170e-02
-1.085880e-02
6.865170e-03
-3.873000e-02
-3.149400e-02
-8.288740e-03
-5.863620e-02
4.188170e-03
5.278380e-02
6.865170e-03
9.704370e-02
-9.342890e-03
-8.288740e-03
1.530010e-02
4.188170e-03
6.543310e-02
6.865170e-03
-3.873000e-02
-9.342890e-03
-1.218550e-01
-5.863620e-02
4.188170e-03
-4.959590e-02
-3.136830e-02
9.704370e-02
-9.342890e-03
3.584440e-02
-2.532400e-02
4.188170e-03
6.543310e-02
-3.136830e-02
-1.456730e-02
-9.342890e-03
-1.218550e-01
-2.532400e-02
-8.849120e-02
-4.959590e-02
-3.136830e-02
5.472490e-03
-1.996800e-02
3.584440e-02
-2.532400e-02
-1.044110e-01
-4.389450e-02
-3.136830e-02
-1.456730e-02
-1.996800e-02
-4.272900e-02
-2.532400e-02
-8.849120e-02
-4.389450e-02
1.433640e-02
5.472490e-03
-1.996800e-02
2.824580e-02
5.406590e-03
-1.044110e-01
-4.389450e-02
-7.222960e-02
-4.150490e-02
-1.996800e-02
-4.272900e-02
5.406590e-03
-1.677390e-02
-4.389450e-02
1.433640e-02
-4.150490e-02
-9.630310e-03
2.824580e-02
5.406590e-03
7.101130e-03
9.771070e-03
-7.222960e-02
-4.150490e-02
1.916640e-02
3.061980e-02
5.406590e-03
-1.677390e-02
9.771070e-03
1.317350e-02
-4.150490e-02
-9.630310e-03
3.061980e-02
4.445880e-02
7.101130e-03
9.771070e-03
4.931210e-03
1.722270e-02
1.916640e-02
3.061980e-02
1.546320e-02
-2.262050e-02
9.771070e-03
1.317350e-02
1.722270e-02
2.838250e-02
3.061980e-02
4.445880e-02
-2.262050e-02
-6.021500e-02
4.931210e-03
1.722270e-02
8.087370e-02
4.573160e-02
1.546320e-02
-2.262050e-02
-1.188230e-02
-6.515560e-02
1.722270e-02
2.838250e-02
4.573160e-02
1.057010e-02
-2.262050e-02
-6.021500e-02
-6.515560e-02
-1.160220e-01
8.087370e-02
4.573160e-02
1.245040e-01
5.808840e-02
-1.188230e-02
-6.515560e-02
-4.188070e-02
-2.287820e-02
4.573160e-02
1.057010e-02
5.808840e-02
-8.479880e-03
-6.515560e-02
-1.160220e-01
-2.287820e-02
7.702180e-04
1.245040e-01
5.808840e-02
8.893510e-02
3.295030e-02
-4.188070e-02
-2.287820e-02
-1.373320e-01
-5.583590e-02
5.808840e-02
-8.479880e-03
3.295030e-02
-2.285340e-02
-2.287820e-02
7.702180e-04
-5.583590e-02
1.880210e-02
8.893510e-02
3.295030e-02
6.721210e-02
2.511670e-02
-1.373320e-01
-5.583590e-02
-5.558510e-02
1.637040e-02
3.295030e-02
-2.285340e-02
2.511670e-02
-1.592670e-02
-5.583590e-02
1.880210e-02
1.637040e-02
8.190990e-02
6.721210e-02
2.511670e-02
9.909110e-02
3.263040e-02
-5.558510e-02
1.637040e-02
3.563620e-02
8.442050e-02
2.511670e-02
-1.592670e-02
3.263040e-02
-3.106590e-02
1.637040e-02
8.190990e-02
8.442050e-02
1.364330e-01
9.909110e-02
3.263040e-02
6.401350e-02
-2.928390e-03
3.563620e-02
8.442050e-02
1.104900e-01
1.517510e-01
3.263040e-02
-3.106590e-02
-2.928390e-03
-6.694850e-02
8.442050e-02
1.364330e-01
1.517510e-01
2.033450e-01
</DataArray>
<DataArray type="Float32" Name="V2" format="ascii">
0.000000e+00
0.000000e+00
-2.011220e-02
-1.335360e-01
0.000000e+00
0.000000e+00
7.834070e-02
7.527290e-02
0.000000e+00
0.000000e+00
-1.335360e-01
-1.683790e-01
0.000000e+00
0.000000e+00
7.527290e-02
4.072190e-02
-2.011220e-02
-1.335360e-01
-4.664790e-02
-6.833030e-02
7.834070e-02
7.527290e-02
4.616060e-02
2.218300e-02
-1.335360e-01
-1.683790e-01
-6.833030e-02
-1.322110e-01
7.527290e-02
4.072190e-02
2.218300e-02
1.444970e-02
-4.664790e-02
-6.833030e-02
-1.871260e-04
3.824360e-02
4.616060e-02
2.218300e-02
-6.212220e-02
-7.732670e-02
-6.833030e-02
-1.322110e-01
3.824360e-02
2.551400e-02
2.218300e-02
1.444970e-02
-7.732670e-02
-7.841130e-02
-1.871260e-04
3.824360e-02
8.083140e-03
-4.178820e-02
-6.212220e-02
-7.732670e-02
-1.482270e-02
-2.566430e-02
3.824360e-02
2.551400e-02
-4.178820e-02
-8.146290e-02
-7.732670e-02
-7.841130e-02
-2.566430e-02
-3.405890e-02
8.083140e-03
-4.178820e-02
3.212670e-02
1.251260e-02
-1.482270e-02
-2.566430e-02
6.119640e-03
4.644970e-03
-4.178820e-02
-8.146290e-02
1.251260e-02
-3.008100e-02
-2.566430e-02
-3.405890e-02
4.644970e-03
1.877100e-02
3.212670e-02
1.251260e-02
-1.230250e-02
-2.326260e-02
6.119640e-03
4.644970e-03
-8.406770e-02
-4.743760e-02
1.251260e-02
-3.008100e-02
-2.326260e-02
-2.032950e-02
4.644970e-03
1.877100e-02
-4.743760e-02
-2.878260e-02
-1.230250e-02
-2.326260e-02
-1.917100e-01
-1.761090e-01
-8.406770e-02
-4.743760e-02
-8.669790e-03
-1.341500e-02
-2.326260e-02
-2.032950e-02
-1.761090e-01
-1.056070e-01
-4.743760e-02
-2.878260e-02
-1.341500e-02
-4.851880e-02
-1.917100e-01
-1.761090e-01
-1.346810e-01
-9.845440e-02
-8.669790e-03
-1.341500e-02
4.244600e-02
3.207380e-02
-1.761090e-01
-1.056070e-01
-9.845440e-02
-6.812530e-02
-1.341500e-02
-4.851880e-02
3.207380e-02
2.484660e-02
-1.346810e-01
-9.845440e-02
9.235900e-02
1.480300e-01
4.244600e-02
3.207380e-02
-4.694000e-02
-3.603900e-02
-9.845440e-02
-6.812530e-02
1.480300e-01
2.078610e-01
3.207380e-02
2.484660e-02
-3.603900e-02
-3.384470e-02
9.235900e-02
1.480300e-01
1.302770e-01
1.696180e-01
-4.694000e-02
-3.603900e-02
-4.466250e-02
-6.559550e-02
1.480300e-01
2.078610e-01
1.696180e-01
2.223170e-01
-3.603900e-02
-3.384470e-02
-6.559550e-02
-9.117990e-02
1.302770e-01
1.696180e-01
2.527870e-02
3.626990e-03
-4.466250e-02
-6.559550e-02
5.972900e-02
4.556020e-02
1.696180e-01
2.223170e-01
3.626990e-03
-9.122840e-03
-6.559550e-02
-9.117990e-02
4.556020e-02
4.653470e-02
2.527870e-02
3.626990e-03
-2.032510e-02
-6.830920e-02
5.972900e-02
4.556020e-02
7.915900e-02
7.403330e-02
3.626990e-03
-9.122840e-03
-6.830920e-02
-8.337510e-02
4.556020e-02
4.653470e-02
7.403330e-02
5.694280e-02
-2.032510e-02
-6.830920e-02
-9.577840e-02
-1.081010e-01
7.915900e-02
7.403330e-02
8.055390e-02
6.806040e-02
-6.830920e-02
-8.337510e-02
-1.081010e-01
-6.771020e-02
7.403330e-02
5.694280e-02
6.806040e-02
5.945920e-02
-9.577840e-02
-1.081010e-01
-1.367620e-01
-1.265560e-01
8.055390e-02
6.806040e-02
1.179420e-02
3.279030e-02
-1.081010e-01
-6.771020e-02
-1.265560e-01
-6.769140e-02
6.806040e-02
5.945920e-02
3.279030e-02
4.426300e-02
-1.367620e-01
-1.265560e-01
-1.018300e-01
-7.229560e-02
1.179420e-02
3.279030e-02
-4.313730e-02
-5.056160e-02
-1.265560e-01
-6.769140e-02
-7.229560e-02
-1.567210e-02
3.279030e-02
4.426300e-02
-5.056160e-02
-7.310430e-02
-1.018300e-01
-7.229560e-02
-4.177720e-02
2.392930e-02
-4.313730e-02
-5.056160e-02
1.498400e-02
-1.560450e-02
-7.229560e-02
-1.567210e-02
2.392930e-02
5.876390e-02
-5.056160e-02
-7.310430e-02
-1.560450e-02
-2.690540e-02
-4.177720e-02
2.392930e-02
-1.243120e-01
-5.418310e-04
1.498400e-02
-1.560450e-02
6.594370e-02
4.996270e-02
2.392930e-02
5.876390e-02
-5.418310e-04
1.256600e-01
-1.560450e-02
-2.690540e-02
4.996270e-02
1.937700e-02
-1.243120e-01
-5.418310e-04
-1.918540e-01
-1.157040e-01
6.594370e-02
4.996270e-02
4.087590e-02
3.677980e-02
-5.418310e-04
1.256600e-01
-1.157040e-01
-1.406850e-02
4.996270e-02
1.937700e-02
3.677980e-02
2.737810e-02
-1.918540e-01
-1.157040e-01
-1.649990e-01
-1.070850e-01
4.087590e-02
3.677980e-02
3.242430e-03
-2.344890e-02
-1.157040e-01
-1.406850e-02
-1.070850e-01
-7.901810e-02
3.677980e-02
2.737810e-02
-2.344890e-02
-1.772040e-02
-1.649990e-01
-1.070850e-01
1.882920e-03
-9.365760e-02
3.242430e-03
-2.344890e-02
-2.950380e-02
-4.987710e-03
-1.070850e-01
-7.901810e-02
-9.365760e-02
-1.510690e-01
-2.344890e-02
-1.772040e-02
-4.987710e-03
2.341130e-02
1.882920e-03
-9.365760e-02
2.249160e-02
-1.001720e-01
-2.950380e-02
-4.987710e-03
3.234850e-02
6.749440e-02
-9.365760e-02
-1.510690e-01
-1.001720e-01
-1.760700e-01
-4.987710e-03
2.341130e-02
6.749440e-02
7.945860e-02
2.249160e-02
-1.001720e-01
1.026580e-01
3.098490e-02
3.234850e-02
6.749440e-02
8.111760e-02
4.497710e-02
-1.001720e-01
-1.760700e-01
3.098490e-02
-3.182220e-02
6.749440e-02
7.945860e-02
4.497710e-02
5.748150e-02
1.026580e-01
3.098490e-02
5.289530e-02
3.157860e-02
8.111760e-02
4.497710e-02
-3.369540e-03
-4.112130e-04
3.098490e-02
-3.182220e-02
3.157860e-02
-5.804570e-03
4.497710e-02
5.748150e-02
-4.112130e-04
-1.350130e-02
5.289530e-02
3.157860e-02
-1.793270e-02
3.147330e-02
-3.369540e-03
-4.112130e-04
-4.607020e-02
-1.111030e-02
3.157860e-02
-5.804570e-03
3.147330e-02
-2.617670e-03
-4.112130e-04
-1.350130e-02
-1.111030e-02
-2.430240e-02
-1.793270e-02
3.147330e-02
-7.544450e-02
6.691680e-02
-4.607020e-02
-1.111030e-02
-1.459300e-02
-1.370690e-02
3.147330e-02
-2.617670e-03
6.691680e-02
1.389680e-01
-1.111030e-02
-2.430240e-02
-1.370690e-02
3.260620e-02
-7.544450e-02
6.691680e-02
-1.723480e-02
3.791410e-02
-1.459300e-02
-1.370690e-02
-9.222640e-03
-2.194060e-02
6.691680e-02
1.389680e-01
3.791410e-02
9.765050e-02
-1.370690e-02
3.260620e-02
-2.194060e-02
1.712890e-02
-1.723480e-02
3.791410e-02
2.368210e-02
3.113400e-02
-9.222640e-03
-2.194060e-02
-9.374730e-03
-7.393270e-03
3.791410e-02
9.765050e-02
3.113400e-02
8.905890e-02
-2.194060e-02
1.712890e-02
-7.393270e-03
9.029680e-04
2.368210e-02
3.113400e-02
2.356210e-02
9.123590e-02
-9.374730e-03
-7.393270e-03
6.499890e-03
-9.168490e-03
3.113400e-02
8.905890e-02
9.123590e-02
8.984310e-02
-7.393270e-03
9.029680e-04
-9.168490e-03
-3.317390e-03
2.356210e-02
9.123590e-02
-5.859650e-03
6.271900e-02
6.499890e-03
-9.168490e-03
9.797200e-02
4.156860e-02
9.123590e-02
8.984310e-02
6.271900e-02
1.230070e-01
-9.168490e-03
-3.317390e-03
4.156860e-02
4.739690e-03
-5.859650e-03
6.271900e-02
-3.658710e-03
-7.301610e-02
9.797200e-02
4.156860e-02
1.508820e-01
8.531960e-02
6.271900e-02
1.230070e-01
-7.301610e-02
1.054220e-03
4.156860e-02
4.739690e-03
8.531960e-02
1.175420e-02
0.000000e+00
0.000000e+00
7.834070e-02
7.527290e-02
0.000000e+00
0.000000e+00
-1.003420e-01
-2.509830e-02
0.000000e+00
0.000000e+00
7.527290e-02
4.072190e-02
0.000000e+00
0.000000e+00
-2.509830e-02
6.265560e-02
7.834070e-02
7.527290e-02
4.616060e-02
2.218300e-02
-1.003420e-01
-2.509830e-02
-7.384890e-02
6.257030e-03
7.527290e-02
4.072190e-02
2.218300e-02
1.444970e-02
-2.509830e-02
6.265560e-02
6.257030e-03
8.655680e-02
4.616060e-02