<?xml version="1.0"?>
<VTKFile type="UnstructuredGrid" version="0.1" byte_order="LittleEndian" compressor="vtkZLibDataCompressor">
<UnstructuredGrid>
<Piece NumberOfPoints="960" NumberOfCells="120">
<Points>
<DataArray type="Float32" NumberOfComponents="3" format="ascii">
-4.000000e+02 -6.000000e+03 -4.000000e+02
0.000000e+00 -6.000000e+03 -4.000000e+02
-4.000070e+02 -5.600180e+03 -4.001530e+02
4.440110e-03 -5.600160e+03 -4.001350e+02
-4.000000e+02 -6.000000e+03 0.000000e+00
0.000000e+00 -6.000000e+03 0.000000e+00
-3.999990e+02 -5.600000e+03 -1.565230e-01
-3.963080e-03 -5.600000e+03 -1.381990e-01
0.000000e+00 -6.000000e+03 -4.000000e+02
4.000000e+02 -6.000000e+03 -4.000000e+02
4.440110e-03 -5.600160e+03 -4.001350e+02
4.000160e+02 -5.600150e+03 -4.000880e+02
0.000000e+00 -6.000000e+03 0.000000e+00
4.000000e+02 -6.000000e+03 0.000000e+00
-3.963080e-03 -5.600000e+03 -1.381990e-01
3.999910e+02 -5.600000e+03 -1.129170e-01
-4.000070e+02 -5.600180e+03 -4.001530e+02
4.440110e-03 -5.600160e+03 -4.001350e+02
-3.999680e+02 -5.200210e+03 -4.004780e+02
5.438020e-02 -5.200220e+03 -4.004370e+02
-3.999990e+02 -5.600000e+03 -1.565230e-01
-3.963080e-03 -5.600000e+03 -1.381990e-01
-3.999860e+02 -5.199990e+03 -4.914380e-01
2.979340e-03 -5.199990e+03 -4.253510e-01
4.440110e-03 -5.600160e+03 -4.001350e+02
4.000160e+02 -5.600150e+03 -4.000880e+02
5.438020e-02 -5.200220e+03 -4.004370e+02
4.000770e+02 -5.200210e+03 -4.003390e+02
-3.963080e-03 -5.600000e+03 -1.381990e-01
3.999910e+02 -5.600000e+03 -1.129170e-01
2.979340e-03 -5.199990e+03 -4.253510e-01
3.999920e+02 -5.199990e+03 -3.482420e-01
-3.999680e+02 -5.200210e+03 -4.004780e+02
5.438020e-02 -5.200220e+03 -4.004370e+02
-3.998750e+02 -4.800180e+03 -4.007990e+02
1.386990e-01 -4.800190e+03 -4.006950e+02
-3.999860e+02 -5.199990e+03 -4.914380e-01
2.979340e-03 -5.199990e+03 -4.253510e-01
-3.999890e+02 -4.800000e+03 -7.766450e-01
9.636310e-04 -4.800000e+03 -6.567000e-01
5.438020e-02 -5.200220e+03 -4.004370e+02
4.000770e+02 -5.200210e+03 -4.003390e+02
1.386990e-01 -4.800190e+03 -4.006950e+02
4.001520e+02 -4.800200e+03 -4.005490e+02
2.979340e-03 -5.199990e+03 -4.253510e-01
3.999920e+02 -5.199990e+03 -3.482420e-01
9.636310e-04 -4.800000e+03 -6.567000e-01
3.999910e+02 -4.800000e+03 -5.316290e-01
-3.998750e+02 -4.800180e+03 -4.007990e+02
1.386990e-01 -4.800190e+03 -4.006950e+02
-3.998100e+02 -4.400140e+03 -4.010220e+02
1.867820e-01 -4.400140e+03 -4.008560e+02
-3.999890e+02 -4.800000e+03 -7.766450e-01
9.636310e-04 -4.800000e+03 -6.567000e-01
-3.999950e+02 -4.400020e+03 -1.040980e+00
2.455970e-03 -4.400020e+03 -8.695670e-01
1.386990e-01 -4.800190e+03 -4.006950e+02
4.001520e+02 -4.800200e+03 -4.005490e+02
1.867820e-01 -4.400140e+03 -4.008560e+02
4.001830e+02 -4.400140e+03 -4.007090e+02
9.636310e-04 -4.800000e+03 -6.567000e-01
3.999910e+02 -4.800000e+03 -5.316290e-01
2.455970e-03 -4.400020e+03 -8.695670e-01
4.000000e+02 -4.400020e+03 -7.139500e-01
-3.998100e+02 -4.400140e+03 -4.010220e+02
1.867820e-01 -4.400140e+03 -4.008560e+02
-3.997990e+02 -4.000150e+03 -4.010840e+02
1.944230e-01 -4.000150e+03 -4.008910e+02
-3.999950e+02 -4.400020e+03 -1.040980e+00
2.455970e-03 -4.400020e+03 -8.695670e-01
-4.000030e+02 -4.000010e+03 -1.185670e+00
5.862590e-04 -4.000010e+03 -9.955630e-01
1.867820e-01 -4.400140e+03 -4.008560e+02
4.001830e+02 -4.400140e+03 -4.007090e+02
1.944230e-01 -4.000150e+03 -4.008910e+02
4.001880e+02 -4.000140e+03 -4.007260e+02
2.455970e-03 -4.400020e+03 -8.695670e-01
4.000000e+02 -4.400020e+03 -7.139500e-01
5.862590e-04 -4.000010e+03 -9.955630e-01
4.000040e+02 -4.000010e+03 -8.147770e-01
-3.997990e+02 -4.000150e+03 -4.010840e+02
1.944230e-01 -4.000150e+03 -4.008910e+02
-3.998220e+02 -3.600220e+03 -4.012510e+02
1.769550e-01 -3.600230e+03 -4.010630e+02
-4.000030e+02 -4.000010e+03 -1.185670e+00
5.862590e-04 -4.000010e+03 -9.955630e-01
-4.000020e+02 -3.599960e+03 -1.296570e+00
2.736670e-04 -3.599960e+03 -1.116280e+00
1.944230e-01 -4.000150e+03 -4.008910e+02
4.001880e+02 -4.000140e+03 -4.007260e+02
1.769550e-01 -3.600230e+03 -4.010630e+02
4.001760e+02 -3.600230e+03 -4.008800e+02
5.862590e-04 -4.000010e+03 -9.955630e-01
4.000040e+02 -4.000010e+03 -8.147770e-01
2.736670e-04 -3.599960e+03 -1.116280e+00
4.000030e+02 -3.599960e+03 -9.331020e-01
-3.998220e+02 -3.600220e+03 -4.012510e+02
1.769550e-01 -3.600230e+03 -4.010630e+02
-3.998960e+02 -3.200260e+03 -4.015060e+02
1.045210e-01 -3.200260e+03 -4.013840e+02
-4.000020e+02 -3.599960e+03 -1.296570e+00
2.736670e-04 -3.599960e+03 -1.116280e+00
-3.999970e+02 -3.199980e+03 -1.426290e+00
3.303170e-03 -3.199980e+03 -1.307900e+00
1.769550e-01 -3.600230e+03 -4.010630e+02
4.001760e+02 -3.600230e+03 -4.008800e+02
1.045210e-01 -3.200260e+03 -4.013840e+02
4.001050e+02 -3.200250e+03 -4.012620e+02
2.736670e-04 -3.599960e+03 -1.116280e+00
4.000030e+02 -3.599960e+03 -9.331020e-01
3.303170e-03 -3.199980e+03 -1.307900e+00
4.000040e+02 -3.199970e+03 -1.180780e+00
-3.998960e+02 -3.200260e+03 -4.015060e+02
1.045210e-01 -3.200260e+03 -4.013840e+02
-3.999770e+02 -2.800270e+03 -4.016330e+02
1.209180e-02 -2.800260e+03 -4.015930e+02
-3.999970e+02 -3.199980e+03 -1.426290e+00
3.303170e-03 -3.199980e+03 -1.307900e+00
-4.000040e+02 -2.800030e+03 -1.572750e+00
2.817930e-03 -2.800030e+03 -1.537580e+00
1.045210e-01 -3.200260e+03 -4.013840e+02
4.001050e+02 -3.200250e+03 -4.012620e+02
1.209180e-02 -2.800260e+03 -4.015930e+02
4.000010e+02 -2.800250e+03 -4.015780e+02
3.303170e-03 -3.199980e+03 -1.307900e+00
4.000040e+02 -3.199970e+03 -1.180780e+00
2.817930e-03 -2.800030e+03 -1.537580e+00
4.000090e+02 -2.800030e+03 -1.502200e+00
-3.999770e+02 -2.800270e+03 -4.016330e+02
1.209180e-02 -2.800260e+03 -4.015930e+02
-4.000260e+02 -2.400330e+03 -4.018110e+02
-4.032490e-02 -2.400320e+03 -4.018180e+02
-4.000040e+02 -2.800030e+03 -1.572750e+00
2.817930e-03 -2.800030e+03 -1.537580e+00
-4.000090e+02 -2.400030e+03 -1.831720e+00
-4.830670e-04 -2.400040e+03 -1.857760e+00
1.209180e-02 -2.800260e+03 -4.015930e+02
4.000010e+02 -2.800250e+03 -4.015780e+02
-4.032490e-02 -2.400320e+03 -4.018180e+02
3.999450e+02 -2.400320e+03 -4.018690e+02
2.817930e-03 -2.800030e+03 -1.537580e+00
4.000090e+02 -2.800030e+03 -1.502200e+00
-4.830670e-04 -2.400040e+03 -1.857760e+00
4.000080e+02 -2.400030e+03 -1.889850e+00
-4.000260e+02 -2.400330e+03 -4.018110e+02
-4.032490e-02 -2.400320e+03 -4.018180e+02
-4.000650e+02 -2.000370e+03 -4.020700e+02
-7.592660e-02 -2.000360e+03 -4.021420e+02
-4.000090e+02 -2.400030e+03 -1.831720e+00
-4.830670e-04 -2.400040e+03 -1.857760e+00
-4.000000e+02 -2.000000e+03 -2.143930e+00
-1.665880e-03 -1.999990e+03 -2.219610e+00
-4.032490e-02 -2.400320e+03 -4.018180e+02
3.999450e+02 -2.400320e+03 -4.018690e+02
-7.592660e-02 -2.000360e+03 -4.021420e+02
3.999130e+02 -2.000350e+03 -4.022290e+02
-4.830670e-04 -2.400040e+03 -1.857760e+00
4.000080e+02 -2.400030e+03 -1.889850e+00
-1.665880e-03 -1.999990e+03 -2.219610e+00
3.999970e+02 -1.999990e+03 -2.308690e+00
-4.000650e+02 -2.000370e+03 -4.020700e+02
-7.592660e-02 -2.000360e+03 -4.021420e+02
-4.001120e+02 -1.600350e+03 -4.024070e+02
-1.109220e-01 -1.600330e+03 -4.025380e+02
-4.000000e+02 -2.000000e+03 -2.143930e+00
-1.665880e-03 -1.999990e+03 -2.219610e+00
-3.999880e+02 -1.599970e+03 -2.420190e+00
5.779520e-03 -1.599970e+03 -2.520420e+00
-7.592660e-02 -2.000360e+03 -4.021420e+02
3.999130e+02 -2.000350e+03 -4.022290e+02
-1.109220e-01 -1.600330e+03 -4.025380e+02
3.998900e+02 -1.600320e+03 -4.026420e+02
-1.665880e-03 -1.999990e+03 -2.219610e+00
3.999970e+02 -1.999990e+03 -2.308690e+00
5.779520e-03 -1.599970e+03 -2.520420e+00
3.999990e+02 -1.599970e+03 -2.625960e+00
-4.001120e+02 -1.600350e+03 -4.024070e+02
-1.109220e-01 -1.600330e+03 -4.025380e+02
-4.001090e+02 -1.200300e+03 -4.027380e+02
-1.022790e-01 -1.200280e+03 -4.028520e+02
-3.999880e+02 -1.599970e+03 -2.420190e+00
5.779520e-03 -1.599970e+03 -2.520420e+00
-3.999990e+02 -1.199990e+03 -2.648190e+00
1.866840e-03 -1.200000e+03 -2.756240e+00
-1.109220e-01 -1.600330e+03 -4.025380e+02
3.998900e+02 -1.600320e+03 -4.026420e+02
-1.022790e-01 -1.200280e+03 -4.028520e+02
3.999040e+02 -1.200280e+03 -4.029420e+02
5.779520e-03 -1.599970e+03 -2.520420e+00
3.999990e+02 -1.599970e+03 -2.625960e+00
1.866840e-03 -1.200000e+03 -2.756240e+00
4.000030e+02 -1.200000e+03 -2.844110e+00
-4.001090e+02 -1.200300e+03 -4.027380e+02
-1.022790e-01 -1.200280e+03 -4.028520e+02
-4.000570e+02 -8.002720e+02 -4.029990e+02
-6.066290e-02 -8.002690e+02 -4.030670e+02
-3.999990e+02 -1.199990e+03 -2.648190e+00
1.866840e-03 -1.200000e+03 -2.756240e+00
-4.000060e+02 -8.000310e+02 -2.980830e+00
3.299690e-04 -8.000300e+02 -3.059960e+00
-1.022790e-01 -1.200280e+03 -4.028520e+02
3.999040e+02 -1.200280e+03 -4.029420e+02
-6.066290e-02 -8.002690e+02 -4.030670e+02
3.999350e+02 -8.002850e+02 -4.031560e+02
1.866840e-03 -1.200000e+03 -2.756240e+00
4.000030e+02 -1.200000e+03 -2.844110e+00
3.299690e-04 -8.000300e+02 -3.059960e+00
4.000070e+02 -8.000260e+02 -3.134480e+00
-4.000570e+02 -8.002720e+02 -4.029990e+02
-6.066290e-02 -8.002690e+02 -4.030670e+02
-4.000510e+02 -4.002980e+02 -4.032190e+02
-5.207880e-02 -4.002960e+02 -4.032940e+02
-4.000060e+02 -8.000310e+02 -2.980830e+00
3.299690e-04 -8.000300e+02 -3.059960e+00
-3.999960e+02 -4.000060e+02 -3.301580e+00
5.823090e-03 -4.000050e+02 -3.355850e+00
-6.066290e-02 -8.002690e+02 -4.030670e+02
3.999350e+02 -8.002850e+02 -4.031560e+02
-5.207880e-02 -4.002960e+02 -4.032940e+02
3.999470e+02 -4.003100e+02 -4.033750e+02
3.299690e-04 -8.000300e+02 -3.059960e+00
4.000070e+02 -8.000260e+02 -3.134480e+00
5.823090e-03 -4.000050e+02 -3.355850e+00
4.000080e+02 -4.000050e+02 -3.415380e+00
-4.000510e+02 -4.002980e+02 -4.032190e+02
-5.207880e-02 -4.002960e+02 -4.032940e+02
-4.000550e+02 -2.862790e-01 -4.035630e+02
-5.007300e-02 -2.960760e-01 -4.036110e+02
-3.999960e+02 -4.000060e+02 -3.301580e+00
5.823090e-03 -4.000050e+02 -3.355850e+00
-3.999910e+02 3.112740e-02 -3.603920e+00
5.760860e-03 2.340820e-02 -3.626260e+00
-5.207880e-02 -4.002960e+02 -4.032940e+02
3.999470e+02 -4.003100e+02 -4.033750e+02
-5.007300e-02 -2.960760e-01 -4.036110e+02
[...]
<PointData>
<DataArray type="Float32" Name="V1" format="ascii">
0.000000e+00
0.000000e+00
2.789010e-03
1.014410e-03
0.000000e+00
0.000000e+00
-1.375430e-02
4.009670e-03
0.000000e+00
0.000000e+00
1.014410e-03
-8.996060e-04
0.000000e+00
0.000000e+00
4.009670e-03
2.180300e-02
2.789010e-03
1.014410e-03
-1.229530e-02
-5.609370e-03
-1.375430e-02
4.009670e-03
-2.506420e-03
6.231340e-03
1.014410e-03
-8.996060e-04
-5.609370e-03
1.289330e-03
4.009670e-03
2.180300e-02
6.231340e-03
1.498610e-02
-1.229530e-02
-5.609370e-03
-4.959680e-03
-6.354490e-03
-2.506420e-03
6.231340e-03
7.578750e-03
2.989280e-03
-5.609370e-03
1.289330e-03
-6.354490e-03
-7.917440e-03
6.231340e-03
1.498610e-02
2.989280e-03
-1.488360e-03
-4.959680e-03
-6.354490e-03
1.183950e-02
-2.439600e-04
7.578750e-03
2.989280e-03
2.675850e-03
1.106210e-03
-6.354490e-03
-7.917440e-03
-2.439600e-04
-1.224630e-02
2.989280e-03
-1.488360e-03
1.106210e-03
-3.872300e-04
1.183950e-02
-2.439600e-04
1.683560e-02
3.909330e-03
2.675850e-03
1.106210e-03
-1.800810e-02
-7.408350e-03
-2.439600e-04
-1.224630e-02
3.909330e-03
-8.987070e-03
1.106210e-03
-3.872300e-04
-7.408350e-03
3.275990e-03
1.683560e-02
3.909330e-03
2.020370e-02
2.028050e-02
-1.800810e-02
-7.408350e-03
-2.227740e-02
-5.987410e-03
3.909330e-03
-8.987070e-03
2.028050e-02
2.039130e-02
-7.408350e-03
3.275990e-03
-5.987410e-03
1.035950e-02
2.020370e-02
2.028050e-02
-1.601280e-02
8.028360e-03
-2.227740e-02
-5.987410e-03
-7.234570e-03
-8.362950e-03
2.028050e-02
2.039130e-02
8.028360e-03
3.170100e-02
-5.987410e-03
1.035950e-02
-8.362950e-03
-9.393430e-03
-1.601280e-02
8.028360e-03
-7.883070e-03
1.497370e-02
-7.234570e-03
-8.362950e-03
9.394610e-03
-8.100590e-03
8.028360e-03
3.170100e-02
1.497370e-02
3.772300e-02
-8.362950e-03
-9.393430e-03
-8.100590e-03
-2.566740e-02
-7.883070e-03
1.497370e-02
5.328810e-02
5.158860e-02
9.394610e-03
-8.100590e-03
-4.868280e-03
-1.267930e-02
1.497370e-02
3.772300e-02
5.158860e-02
4.969230e-02
-8.100590e-03
-2.566740e-02
-1.267930e-02
-2.060410e-02
5.328810e-02
5.158860e-02
5.023520e-02
3.593690e-02
-4.868280e-03
-1.267930e-02
-9.638160e-03
-8.483460e-03
5.158860e-02
4.969230e-02
3.593690e-02
2.152740e-02
-1.267930e-02
-2.060410e-02
-8.483460e-03
-7.179590e-03
5.023520e-02
3.593690e-02
-9.682770e-03
1.039140e-02
-9.638160e-03
-8.483460e-03
8.416230e-03
-4.365940e-04
3.593690e-02
2.152740e-02
1.039140e-02
3.046840e-02
-8.483460e-03
-7.179590e-03
-4.365940e-04
-9.143840e-03
-9.682770e-03
1.039140e-02
-3.935890e-02
-1.809030e-02
8.416230e-03
-4.365940e-04
1.153170e-02
-1.620180e-03
1.039140e-02
3.046840e-02
-1.809030e-02
3.205070e-03
-4.365940e-04
-9.143840e-03
-1.620180e-03
-1.479660e-02
-3.935890e-02
-1.809030e-02
-2.250440e-02
-2.274560e-02
1.153170e-02
-1.620180e-03
1.161290e-02
6.846730e-03
-1.809030e-02
3.205070e-03
-2.274560e-02
-2.303500e-02
-1.620180e-03
-1.479660e-02
6.846730e-03
2.171050e-03
-2.250440e-02
-2.274560e-02
-1.177320e-02
-2.856870e-02
1.161290e-02
6.846730e-03
3.062250e-03
6.446710e-03
-2.274560e-02
-2.303500e-02
-2.856870e-02
-4.537230e-02
6.846730e-03
2.171050e-03
6.446710e-03
9.829530e-03
-1.177320e-02
-2.856870e-02
9.101690e-03
-1.813530e-02
3.062250e-03
6.446710e-03
3.709000e-04
8.679010e-03
-2.856870e-02
-4.537230e-02
-1.813530e-02
-4.546660e-02
6.446710e-03
9.829530e-03
8.679010e-03
1.694450e-02
9.101690e-03
-1.813530e-02
-1.205250e-02
-2.127410e-02
3.709000e-04
8.679010e-03
5.129890e-03
9.452130e-03
-1.813530e-02
-4.546660e-02
-2.127410e-02
-3.068180e-02
8.679010e-03
1.694450e-02
9.452130e-03
1.372690e-02
-1.205250e-02
-2.127410e-02
-1.758080e-02
-6.124200e-04
5.129890e-03
9.452130e-03
1.265780e-02
1.100880e-02
-2.127410e-02
-3.068180e-02
-6.124200e-04
1.622490e-02
9.452130e-03
1.372690e-02
1.100880e-02
9.379560e-03
-1.758080e-02
-6.124200e-04
2.514680e-02
2.241110e-02
1.265780e-02
1.100880e-02
-1.358590e-02
-5.982580e-03
-6.124200e-04
1.622490e-02
2.241110e-02
1.976870e-02
1.100880e-02
9.379560e-03
-5.982580e-03
1.590410e-03
2.514680e-02
2.241110e-02
3.081950e-02
6.081310e-03
-1.358590e-02
-5.982580e-03
-2.761510e-02
-7.583660e-03
2.241110e-02
1.976870e-02
6.081310e-03
-1.860870e-02
-5.982580e-03
1.590410e-03
-7.583660e-03
1.248810e-02
3.081950e-02
6.081310e-03
1.643780e-02
-5.910460e-03
-2.761510e-02
-7.583660e-03
-9.218590e-03
5.263660e-03
6.081310e-03
-1.860870e-02
-5.910460e-03
-2.805490e-02
-7.583660e-03
1.248810e-02
5.263660e-03
1.970070e-02
1.643780e-02
-5.910460e-03
-7.442440e-03
-1.295970e-02
-9.218590e-03
5.263660e-03
-5.509090e-03
-2.511640e-03
-5.910460e-03
-2.805490e-02
-1.295970e-02
-1.838400e-02
5.263660e-03
1.970070e-02
-2.511640e-03
3.919170e-04
-7.442440e-03
-1.295970e-02
-2.873080e-02
-2.099060e-02
-5.509090e-03
-2.511640e-03
-4.533220e-03
-2.747030e-03
-1.295970e-02
-1.838400e-02
-2.099060e-02
-1.329590e-02
-2.511640e-03
3.919170e-04
-2.747030e-03
-1.039340e-03
-2.873080e-02
-2.099060e-02
-4.085590e-02
-4.428340e-02
-4.533220e-03
-2.747030e-03
1.174870e-03
2.940120e-03
-2.099060e-02
-1.329590e-02
-4.428340e-02
-4.764530e-02
-2.747030e-03
-1.039340e-03
2.940120e-03
4.605630e-03
-4.085590e-02
-4.428340e-02
-6.069730e-02
-4.285850e-02
1.174870e-03
2.940120e-03
1.391370e-02
3.564250e-03
-4.428340e-02
-4.764530e-02
-4.285850e-02
-2.480120e-02
2.940120e-03
4.605630e-03
3.564250e-03
-6.968710e-03
-6.069730e-02
-4.285850e-02
-2.079940e-02
-2.237670e-02
1.391370e-02
3.564250e-03
-2.928870e-03
-8.363480e-03
-4.285850e-02
-2.480120e-02
-2.237670e-02
-2.390770e-02
3.564250e-03
-6.968710e-03
-8.363480e-03
-1.389350e-02
-2.079940e-02
-2.237670e-02
-1.754300e-03
3.629230e-03
-2.928870e-03
-8.363480e-03
1.118360e-03
3.958920e-04
-2.237670e-02
-2.390770e-02
3.629230e-03
9.052760e-03
-8.363480e-03
-1.389350e-02
3.958920e-04
-4.069830e-04
-1.754300e-03
3.629230e-03
9.417460e-03
2.110950e-02
1.118360e-03
3.958920e-04
1.713460e-02
7.619280e-03
3.629230e-03
9.052760e-03
2.110950e-02
3.298720e-02
3.958920e-04
-4.069830e-04
7.619280e-03
-1.899770e-03
9.417460e-03
2.110950e-02
2.612040e-02
3.897420e-02
1.713460e-02
7.619280e-03
1.122240e-02
-1.313940e-04
2.110950e-02
3.298720e-02
3.897420e-02
5.189070e-02
7.619280e-03
-1.899770e-03
-1.313940e-04
-1.157650e-02
2.612040e-02
3.897420e-02
4.516050e-02
3.690200e-02
1.122240e-02
-1.313940e-04
-3.936620e-03
-4.905530e-03
3.897420e-02
5.189070e-02
3.690200e-02
2.883110e-02
-1.313940e-04
-1.157650e-02
-4.905530e-03
-6.070790e-03
4.516050e-02
3.690200e-02
1.196860e-02
1.441890e-02
-3.936620e-03
-4.905530e-03
2.724350e-03
-5.093990e-03
3.690200e-02
2.883110e-02
1.441890e-02
1.682790e-02
-4.905530e-03
-6.070790e-03
-5.093990e-03
-1.299290e-02
0.000000e+00
0.000000e+00
-1.375430e-02
4.009670e-03
0.000000e+00
0.000000e+00
2.520620e-02
-8.500740e-03
0.000000e+00
0.000000e+00
4.009670e-03
2.180300e-02
0.000000e+00
0.000000e+00
-8.500740e-03
-4.211110e-02
-1.375430e-02
4.009670e-03
-2.506420e-03
6.231340e-03
2.520620e-02
-8.500740e-03
1.675360e-02
-6.917570e-03
4.009670e-03
2.180300e-02
6.231340e-03
1.498610e-02
-8.500740e-03
-4.211110e-02
-6.917570e-03
-3.070620e-02
-2.506420e-03
6.231340e-03
7.578750e-03
2.989280e-03
1.675360e-02
-6.917570e-03
-1.083030e-02
9.735000e-05
6.231340e-03
1.498610e-02
2.989280e-03
-1.488360e-03
-6.917570e-03
-3.070620e-02
9.735000e-05
1.099180e-02
7.578750e-03
2.989280e-03
2.675850e-03
1.106210e-03
-1.083030e-02
9.735000e-05
-1.675390e-02
-2.018330e-03
2.989280e-03
-1.488360e-03
1.106210e-03
-3.872300e-04
9.735000e-05
1.099180e-02
-2.018330e-03
1.278180e-02
2.675850e-03
1.106210e-03
-1.800810e-02
-7.408350e-03
-1.675390e-02
-2.018330e-03
1.858550e-02
1.033730e-02
1.106210e-03
-3.872300e-04
-7.408350e-03
3.275990e-03
-2.018330e-03
1.278180e-02
1.033730e-02
1.949230e-03
-1.800810e-02
-7.408350e-03
-2.227740e-02
-5.987410e-03
1.858550e-02
1.033730e-02
2.541880e-02
-7.316060e-03
-7.408350e-03
3.275990e-03
-5.987410e-03
1.035950e-02
1.033730e-02
1.949230e-03
-7.316060e-03
-4.023760e-02
-2.227740e-02
-5.987410e-03
-7.234570e-03
-8.362950e-03
2.541880e-02
-7.316060e-03
2.996580e-02
8.225930e-03
-5.987410e-03
1.035950e-02
-8.362950e-03
-9.393430e-03
-7.316060e-03
-4.023760e-02
8.225930e-03
-1.335650e-02
-7.234570e-03
-8.362950e-03
9.394610e-03
-8.100590e-03
2.996580e-02
8.225930e-03
-1.145400e-02
6.501920e-04
-8.362950e-03
-9.393430e-03
-8.100590e-03
-2.566740e-02
8.225930e-03
-1.335650e-02
6.501920e-04
1.267300e-02
9.394610e-03
-8.100590e-03
-4.868280e-03
-1.267930e-02
-1.145400e-02
6.501920e-04
-4.222920e-02
-2.472670e-02
-8.100590e-03
-2.566740e-02
-1.267930e-02
-2.060410e-02
6.501920e-04
1.267300e-02
-2.472670e-02
-7.187600e-03
-4.868280e-03
-1.267930e-02
-9.638160e-03
-8.483460e-03
-4.222920e-02
-2.472670e-02
-3.279890e-02
-2.070330e-02
-1.267930e-02
-2.060410e-02
-8.483460e-03
-7.179590e-03
-2.472670e-02
-7.187600e-03
-2.070330e-02
-8.570490e-03
-9.638160e-03
-8.483460e-03
8.416230e-03
-4.365940e-04
-3.279890e-02
-2.070330e-02
-6.310910e-03
-8.585030e-03
-8.483460e-03
-7.179590e-03
-4.365940e-04
-9.143840e-03
-2.070330e-02
-8.570490e-03
-8.585030e-03
-1.081550e-02
8.416230e-03
-4.365940e-04
1.153170e-02
-1.620180e-03
-6.310910e-03
-8.585030e-03
1.625450e-02
2.098810e-02
-4.365940e-04
-9.143840e-03
-1.620180e-03
-1.479660e-02
-8.585030e-03
-1.081550e-02
2.098810e-02
2.561290e-02
1.153170e-02
-1.620180e-03
1.161290e-02
6.846730e-03
1.625450e-02
2.098810e-02
-9.459700e-04
8.641700e-03
-1.620180e-03
-1.479660e-02
6.846730e-03
2.171050e-03
2.098810e-02
2.561290e-02
8.641700e-03
1.828530e-02
1.161290e-02
6.846730e-03
3.062250e-03
6.446710e-03
-9.459700e-04
8.641700e-03
6.546270e-03
1.631940e-02
6.846730e-03
2.171050e-03
6.446710e-03
9.829530e-03
8.641700e-03
1.828530e-02
1.631940e-02
2.608450e-02
3.062250e-03
6.446710e-03
3.709000e-04
8.679010e-03
6.546270e-03
1.631940e-02
-1.055970e-02
2.982660e-04
6.446710e-03
9.829530e-03
8.679010e-03
1.694450e-02
1.631940e-02
2.608450e-02
2.982660e-04
1.102540e-02
3.709000e-04
8.679010e-03
5.129890e-03
9.452130e-03
-1.055970e-02
2.982660e-04
2.470650e-03
3.269690e-03
8.679010e-03
1.694450e-02
9.452130e-03
1.372690e-02
2.982660e-04
1.102540e-02
3.269690e-03
4.037160e-03
5.129890e-03
9.452130e-03
1.265780e-02
1.100880e-02
2.470650e-03
3.269690e-03
-8.738370e-03
-2.212670e-02
9.452130e-03
1.372690e-02
1.100880e-02
9.379560e-03
3.269690e-03
4.037160e-03
-2.212670e-02
-3.542600e-02
1.265780e-02
1.100880e-02
-1.358590e-02
-5.982580e-03
-8.738370e-03
-2.212670e-02
2.730190e-03
-1.005750e-02
1.100880e-02
9.379560e-03
-5.982580e-03
1.590410e-03
-2.212670e-02
-3.542600e-02
-1.005750e-02
-2.286620e-02
-1.358590e-02
-5.982580e-03
-2.761510e-02
-7.583660e-03
2.730190e-03
-1.005750e-02
2.484510e-02
9.367010e-03
-5.982580e-03
1.590410e-03
-7.583660e-03
1.248810e-02
-1.005750e-02
-2.286620e-02
9.367010e-03
-6.036460e-03
-2.761510e-02
-7.583660e-03
-9.218590e-03
5.263660e-03
2.484510e-02
9.367010e-03
1.873010e-03
-5.082050e-03
-7.583660e-03
1.248810e-02
5.263660e-03
1.970070e-02
9.367010e-03
-6.036460e-03
-5.082050e-03
-1.184670e-02
-9.218590e-03
5.263660e-03
-5.509090e-03
-2.511640e-03
1.873010e-03
-5.082050e-03
1.795120e-02
1.786240e-02
5.263660e-03
1.970070e-02
-2.511640e-03
3.919170e-04
-5.082050e-03
-1.184670e-02
1.786240e-02
1.771760e-02
-5.509090e-03
-2.511640e-03
-4.533220e-03
-2.747030e-03
1.795120e-02
1.786240e-02
3.839510e-02
2.700400e-02
-2.511640e-03
3.919170e-04
-2.747030e-03
-1.039340e-03
1.786240e-02
1.771760e-02
2.700400e-02
1.580450e-02
-4.533220e-03
-2.747030e-03
1.174870e-03
2.940120e-03
3.839510e-02
2.700400e-02
3.843530e-02
3.835170e-02
-2.747030e-03
-1.039340e-03
2.940120e-03
4.605630e-03
2.700400e-02
1.580450e-02
3.835170e-02
3.832510e-02
1.174870e-03
2.940120e-03
1.391370e-02
3.564250e-03
3.843530e-02
3.835170e-02
3.304100e-02
3.579750e-02
2.940120e-03
4.605630e-03
3.564250e-03
-6.968710e-03
3.835170e-02
3.832510e-02
3.579750e-02
3.868900e-02
1.391370e-02
3.564250e-03
-2.928870e-03
-8.363480e-03
3.304100e-02
3.579750e-02
2.632230e-02
3.882660e-02
3.564250e-03
-6.968710e-03
-8.363480e-03
-1.389350e-02
3.579750e-02
3.868900e-02
3.882660e-02
5.140960e-02
-2.928870e-03
-8.363480e-03
1.118360e-03
3.958920e-04
2.632230e-02
3.882660e-02
-1.293100e-04
-4.243370e-03
-8.363480e-03
-1.389350e-02
3.958920e-04
-4.069830e-04
3.882660e-02
5.140960e-02
-4.243370e-03
-8.200690e-03
1.118360e-03
3.958920e-04
1.713460e-02
7.619280e-03
-1.293100e-04
-4.243370e-03
-4.307090e-02
-3.623360e-02
3.958920e-04
-4.069830e-04
7.619280e-03
-1.899770e-03
-4.243370e-03
-8.200690e-03
-3.623360e-02
-2.927680e-02
1.713460e-02
7.619280e-03
1.122240e-02
-1.313940e-04
-4.307090e-02
-3.623360e-02
-4.892210e-02
-3.882270e-02
7.619280e-03
-1.899770e-03
-1.313940e-04
-1.157650e-02
-3.623360e-02
-2.927680e-02
-3.882270e-02
-2.880190e-02
1.122240e-02
-1.313940e-04
-3.936620e-03
-4.905530e-03
-4.892210e-02
-3.882270e-02
-3.795880e-02
-2.770470e-02
-1.313940e-04
-1.157650e-02
-4.905530e-03
-6.070790e-03
-3.882270e-02
-2.880190e-02
-2.770470e-02
-1.739740e-02
-3.936620e-03
-4.905530e-03
2.724350e-03
-5.093990e-03
-3.795880e-02
-2.770470e-02
-1.647180e-02
-3.357110e-03
-4.905530e-03
-6.070790e-03
-5.093990e-03
-1.299290e-02
-2.770470e-02
-1.739740e-02
-3.357110e-03
9.938760e-03
</DataArray>
<DataArray type="Float32" Name="V2" format="ascii">
0.000000e+00
0.000000e+00
-9.457480e-02
-5.974250e-02
0.000000e+00
0.000000e+00
1.599780e-03
-1.206450e-02
0.000000e+00
0.000000e+00
-5.974250e-02
-3.586380e-02
0.000000e+00
0.000000e+00
-1.206450e-02
-1.153330e-02
-9.457480e-02
-5.974250e-02
-3.265570e-02
-4.052070e-02
1.599780e-03
-1.206450e-02
-3.473870e-03
1.924850e-03
-5.974250e-02
-3.586380e-02
-4.052070e-02
-1.484240e-02
-1.206450e-02
-1.153330e-02
1.924850e-03
-6.398320e-03
-3.265570e-02
-4.052070e-02
4.058010e-02
2.264200e-02
-3.473870e-03
1.924850e-03
7.834580e-03
1.102770e-02
-4.052070e-02
-1.484240e-02
2.264200e-02
3.250780e-02
1.924850e-03
-6.398320e-03
1.102770e-02
1.184490e-02
4.058010e-02
2.264200e-02
2.779680e-02
2.691520e-02
7.834580e-03
1.102770e-02
1.190750e-02
9.021800e-04
2.264200e-02
3.250780e-02
2.691520e-02
2.200350e-02
1.102770e-02
1.184490e-02
9.021800e-04
1.136860e-03
2.779680e-02
2.691520e-02
1.303270e-02
2.107190e-02
1.190750e-02
9.021800e-04
1.285590e-02
8.838620e-03
2.691520e-02
2.200350e-02
2.107190e-02
1.935800e-02
9.021800e-04
1.136860e-03
8.838620e-03
-2.267490e-03
1.303270e-02
2.107190e-02
-7.781600e-02
-5.647150e-02
1.285590e-02
8.838620e-03
1.784110e-02
2.367670e-02
2.107190e-02
1.935800e-02
-5.647150e-02
-4.638410e-02
8.838620e-03
-2.267490e-03
2.367670e-02
1.901210e-02
-7.781600e-02
-5.647150e-02
-1.089590e-01
-9.227270e-02
1.784110e-02
2.367670e-02
-2.558930e-03
-7.424180e-03
-5.647150e-02
-4.638410e-02
-9.227270e-02
-8.750290e-02
2.367670e-02
1.901210e-02
-7.424180e-03
3.893010e-03
-1.089590e-01
-9.227270e-02
7.910180e-03
1.414320e-03
-2.558930e-03
-7.424180e-03
-2.139020e-02
-2.853720e-02
-9.227270e-02
-8.750290e-02
1.414320e-03
4.411240e-03
-7.424180e-03
3.893010e-03
-2.853720e-02
-2.632500e-02
7.910180e-03
1.414320e-03
1.538220e-02
1.574380e-02
-2.139020e-02
-2.853720e-02
2.529630e-03
-2.430900e-03
1.414320e-03
4.411240e-03
1.574380e-02
3.023810e-02
-2.853720e-02
-2.632500e-02
-2.430900e-03
-1.020950e-02
1.538220e-02
1.574380e-02
-2.708360e-02
-1.341960e-02
2.529630e-03
-2.430900e-03
3.221860e-02
2.709690e-02
1.574380e-02
3.023810e-02
-1.341960e-02
-2.301350e-02
-2.430900e-03
-1.020950e-02
2.709690e-02
3.310040e-02
-2.708360e-02
-1.341960e-02
2.841570e-02
1.962970e-02
3.221860e-02
2.709690e-02
2.119040e-02
2.196760e-02
-1.341960e-02
-2.301350e-02
1.962970e-02
-6.440240e-03
2.709690e-02
3.310040e-02
2.196760e-02
2.976270e-02
2.841570e-02
1.962970e-02
-1.694650e-03
-2.441270e-02
2.119040e-02
2.196760e-02
-2.849790e-02
-2.349100e-02
1.962970e-02
-6.440240e-03
-2.441270e-02
-2.576710e-02
2.196760e-02
2.976270e-02
-2.349100e-02
-1.912640e-02
-1.694650e-03
-2.441270e-02
-3.670220e-02
-4.980150e-02
-2.849790e-02
-2.349100e-02
-6.146660e-02
-5.324320e-02
-2.441270e-02
-2.576710e-02
-4.980150e-02
-4.682050e-02
-2.349100e-02
-1.912640e-02
-5.324320e-02
-3.393150e-02
-3.670220e-02
-4.980150e-02
-2.424480e-02
-3.031440e-02
-6.146660e-02
-5.324320e-02
-7.028040e-03
-3.533220e-03
-4.980150e-02
-4.682050e-02
-3.031440e-02
-2.733380e-02
-5.324320e-02
-3.393150e-02
-3.533220e-03
4.325510e-03
-2.424480e-02
-3.031440e-02
-7.459210e-02
-7.700680e-02
-7.028040e-03
-3.533220e-03
5.683450e-02
6.201500e-02
-3.031440e-02
-2.733380e-02
-7.700680e-02
-7.590050e-02
-3.533220e-03
4.325510e-03
6.201500e-02
5.158080e-02
-7.459210e-02
-7.700680e-02
-2.321970e-04
4.436670e-03
5.683450e-02
6.201500e-02
2.838580e-02
3.421010e-02
-7.700680e-02
-7.590050e-02
4.436670e-03
-1.186690e-02
6.201500e-02
5.158080e-02
3.421010e-02
3.601450e-02
-2.321970e-04
4.436670e-03
1.154280e-01
1.221880e-01
2.838580e-02
3.421010e-02
-3.896430e-02
-4.378060e-02
4.436670e-03
-1.186690e-02
1.221880e-01
1.119440e-01
3.421010e-02
3.601450e-02
-4.378060e-02
-4.093950e-02
1.154280e-01
1.221880e-01
5.919040e-02
5.969620e-02
-3.896430e-02
-4.378060e-02
-6.233140e-02
-6.056870e-02
1.221880e-01
1.119440e-01
5.969620e-02
6.905680e-02
-4.378060e-02
-4.093950e-02
-6.056870e-02
-6.269150e-02
5.919040e-02
5.969620e-02
-6.092820e-02
-6.563850e-02
-6.233140e-02
-6.056870e-02
7.133130e-03
1.484490e-02
5.969620e-02
6.905680e-02
-6.563850e-02
-5.350860e-02
-6.056870e-02
-6.269150e-02
1.484490e-02
9.906060e-03
-6.092820e-02
-6.563850e-02
-1.071640e-01
-1.076030e-01
7.133130e-03
1.484490e-02
6.056570e-02
5.336760e-02
-6.563850e-02
-5.350860e-02
-1.076030e-01
-1.116160e-01
1.484490e-02
9.906060e-03
5.336760e-02
4.751290e-02
-1.071640e-01
-1.076030e-01
-1.574080e-02
-6.736770e-03
6.056570e-02
5.336760e-02
8.548730e-03
-4.312730e-03
-1.076030e-01
-1.116160e-01
-6.736770e-03
-3.089180e-02
5.336760e-02
4.751290e-02
-4.312730e-03
-9.187150e-03
-1.574080e-02
-6.736770e-03
1.363780e-01
1.163430e-01
8.548730e-03
-4.312730e-03
-2.899050e-02
-2.600150e-02
-6.736770e-03
-3.089180e-02
1.163430e-01
1.126040e-01
-4.312730e-03
-9.187150e-03
-2.600150e-02
-4.118430e-02
1.363780e-01
1.163430e-01
6.883320e-02
6.757990e-02
-2.899050e-02
-2.600150e-02
-3.305590e-03
-7.994480e-03
1.163430e-01
1.126040e-01
6.757990e-02
8.331720e-02
-2.600150e-02
-4.118430e-02
-7.994480e-03
-1.080130e-02
6.883320e-02
6.757990e-02
-3.676800e-02
-1.374460e-02
-3.305590e-03
-7.994480e-03
7.131830e-03
-7.365600e-04
6.757990e-02
8.331720e-02
-1.374460e-02
-9.838920e-03
-7.994480e-03
-1.080130e-02
-7.365600e-04
5.687300e-03
-3.676800e-02
-1.374460e-02
-3.980680e-03
9.083930e-03
7.131830e-03
-7.365600e-04
9.859010e-03
1.889540e-02
-1.374460e-02
-9.838920e-03
9.083930e-03
2.842690e-02
-7.365600e-04
5.687300e-03
1.889540e-02
8.848490e-03
-3.980680e-03
9.083930e-03
-3.922350e-02
-2.429040e-02
9.859010e-03
1.889540e-02
-2.802080e-04
-7.241120e-04
9.083930e-03
2.842690e-02
-2.429040e-02
-6.446960e-03
1.889540e-02
8.848490e-03
-7.241120e-04
-5.110670e-03
-3.922350e-02
-2.429040e-02
-6.984170e-03
-1.746420e-02
-2.802080e-04
-7.241120e-04
-1.742420e-02
-2.429690e-02
-2.429040e-02
-6.446960e-03
-1.746420e-02
-3.287960e-02
-7.241120e-04
-5.110670e-03
-2.429690e-02
-1.423610e-02
-6.984170e-03
-1.746420e-02
6.007390e-02
3.496350e-02
-1.742420e-02
-2.429690e-02
3.785620e-04
1.048820e-02
-1.746420e-02
-3.287960e-02
3.496350e-02
2.710230e-02
-2.429690e-02
-1.423610e-02
1.048820e-02
-4.751900e-04
6.007390e-02
3.496350e-02
3.078410e-02
3.366450e-02
3.785620e-04
1.048820e-02
-7.895240e-03
-3.895390e-04
3.496350e-02
2.710230e-02
3.366450e-02
3.363110e-02
1.048820e-02
-4.751900e-04
-3.895390e-04
-6.225580e-03
3.078410e-02
3.366450e-02
1.497640e-02
3.485550e-02
-7.895240e-03
-3.895390e-04
-3.278550e-02
-3.928900e-02
3.366450e-02
3.363110e-02
3.485550e-02
1.391590e-02
-3.895390e-04
-6.225580e-03
-3.928900e-02
-2.032820e-02
0.000000e+00
0.000000e+00
1.599780e-03
-1.206450e-02
0.000000e+00
0.000000e+00
8.871750e-02
8.154910e-02
0.000000e+00
0.000000e+00
-1.206450e-02
-1.153330e-02
0.000000e+00
0.000000e+00
8.154910e-02
5.733970e-02
1.599780e-03
-1.206450e-02
-3.473870e-03
1.924850e-03
8.871750e-02
8.154910e-02
4.262410e-02
3.776500e-02
-1.206450e-02
-1.153330e-02
1.924850e-03
-6.398320e-03
8.154910e-02
5.733970e-02
3.776500e-02