<?xml version="1.0"?>
<VTKFile type="UnstructuredGrid" version="0.1" byte_order="LittleEndian" compressor="vtkZLibDataCompressor">
<UnstructuredGrid>
<Piece NumberOfPoints="960" NumberOfCells="120">
<Points>
<DataArray type="Float32" NumberOfComponents="3" format="ascii">
-4.000000e+02 -6.000000e+03 -4.000000e+02
0.000000e+00 -6.000000e+03 -4.000000e+02
-3.999450e+02 -5.600030e+03 -3.999830e+02
5.828510e-02 -5.600030e+03 -3.999530e+02
-4.000000e+02 -6.000000e+03 0.000000e+00
0.000000e+00 -6.000000e+03 0.000000e+00
-3.999910e+02 -5.600030e+03 -1.533440e-01
9.440950e-03 -5.600030e+03 -8.506650e-02
0.000000e+00 -6.000000e+03 -4.000000e+02
4.000000e+02 -6.000000e+03 -4.000000e+02
5.828510e-02 -5.600030e+03 -3.999530e+02
4.000620e+02 -5.600040e+03 -3.999010e+02
0.000000e+00 -6.000000e+03 0.000000e+00
4.000000e+02 -6.000000e+03 0.000000e+00
9.440950e-03 -5.600030e+03 -8.506650e-02
4.000090e+02 -5.600030e+03 -5.011420e-03
-3.999450e+02 -5.600030e+03 -3.999830e+02
5.828510e-02 -5.600030e+03 -3.999530e+02
-3.998970e+02 -5.200280e+03 -4.001060e+02
9.910360e-02 -5.200290e+03 -4.000410e+02
-3.999910e+02 -5.600030e+03 -1.533440e-01
9.440950e-03 -5.600030e+03 -8.506650e-02
-3.999890e+02 -5.199970e+03 -3.241740e-01
1.271910e-02 -5.199970e+03 -2.195320e-01
5.828510e-02 -5.600030e+03 -3.999530e+02
4.000620e+02 -5.600040e+03 -3.999010e+02
9.910360e-02 -5.200290e+03 -4.000410e+02
4.000950e+02 -5.200320e+03 -3.999770e+02
9.440950e-03 -5.600030e+03 -8.506650e-02
4.000090e+02 -5.600030e+03 -5.011420e-03
1.271910e-02 -5.199970e+03 -2.195320e-01
4.000140e+02 -5.199970e+03 -1.197300e-01
-3.998970e+02 -5.200280e+03 -4.001060e+02
9.910360e-02 -5.200290e+03 -4.000410e+02
-3.998500e+02 -4.800560e+03 -4.007550e+02
1.560500e-01 -4.800590e+03 -4.006240e+02
-3.999890e+02 -5.199970e+03 -3.241740e-01
1.271910e-02 -5.199970e+03 -2.195320e-01
-3.999840e+02 -4.799930e+03 -7.917900e-01
1.292830e-02 -4.799930e+03 -6.230500e-01
9.910360e-02 -5.200290e+03 -4.000410e+02
4.000950e+02 -5.200320e+03 -3.999770e+02
1.560500e-01 -4.800590e+03 -4.006240e+02
4.001610e+02 -4.800630e+03 -4.004870e+02
1.271910e-02 -5.199970e+03 -2.195320e-01
4.000140e+02 -5.199970e+03 -1.197300e-01
1.292830e-02 -4.799930e+03 -6.230500e-01
4.000090e+02 -4.799930e+03 -4.542830e-01
-3.998500e+02 -4.800560e+03 -4.007550e+02
1.560500e-01 -4.800590e+03 -4.006240e+02
-3.998240e+02 -4.400650e+03 -4.015540e+02
1.938380e-01 -4.400690e+03 -4.013960e+02
-3.999840e+02 -4.799930e+03 -7.917900e-01
1.292830e-02 -4.799930e+03 -6.230500e-01
-3.999900e+02 -4.399980e+03 -1.401570e+00
1.054090e-02 -4.399980e+03 -1.212370e+00
1.560500e-01 -4.800590e+03 -4.006240e+02
4.001610e+02 -4.800630e+03 -4.004870e+02
1.938380e-01 -4.400690e+03 -4.013960e+02
4.002120e+02 -4.400740e+03 -4.012120e+02
1.292830e-02 -4.799930e+03 -6.230500e-01
4.000090e+02 -4.799930e+03 -4.542830e-01
1.054090e-02 -4.399980e+03 -1.212370e+00
4.000110e+02 -4.399990e+03 -1.011910e+00
-3.998240e+02 -4.400650e+03 -4.015540e+02
1.938380e-01 -4.400690e+03 -4.013960e+02
-3.997520e+02 -4.000690e+03 -4.022660e+02
2.503600e-01 -4.000710e+03 -4.020880e+02
-3.999900e+02 -4.399980e+03 -1.401570e+00
1.054090e-02 -4.399980e+03 -1.212370e+00
-4.000060e+02 -4.000050e+03 -2.147460e+00
3.335300e-04 -4.000050e+03 -1.978070e+00
1.938380e-01 -4.400690e+03 -4.013960e+02
4.002120e+02 -4.400740e+03 -4.012120e+02
2.503600e-01 -4.000710e+03 -4.020880e+02
4.002520e+02 -4.000720e+03 -4.019070e+02
1.054090e-02 -4.399980e+03 -1.212370e+00
4.000110e+02 -4.399990e+03 -1.011910e+00
3.335300e-04 -4.000050e+03 -1.978070e+00
4.000070e+02 -4.000050e+03 -1.792110e+00
-3.997520e+02 -4.000690e+03 -4.022660e+02
2.503600e-01 -4.000710e+03 -4.020880e+02
-3.998000e+02 -3.600690e+03 -4.029400e+02
1.915480e-01 -3.600680e+03 -4.028100e+02
-4.000060e+02 -4.000050e+03 -2.147460e+00
3.335300e-04 -4.000050e+03 -1.978070e+00
-4.000000e+02 -3.600030e+03 -3.000140e+00
7.123910e-03 -3.600020e+03 -2.851380e+00
2.503600e-01 -4.000710e+03 -4.020880e+02
4.002520e+02 -4.000720e+03 -4.019070e+02
1.915480e-01 -3.600680e+03 -4.028100e+02
4.001830e+02 -3.600660e+03 -4.026870e+02
3.335300e-04 -4.000050e+03 -1.978070e+00
4.000070e+02 -4.000050e+03 -1.792110e+00
7.123910e-03 -3.600020e+03 -2.851380e+00
4.000140e+02 -3.600010e+03 -2.693260e+00
-3.998000e+02 -3.600690e+03 -4.029400e+02
1.915480e-01 -3.600680e+03 -4.028100e+02
-3.998840e+02 -3.200560e+03 -4.035380e+02
1.260180e-01 -3.200570e+03 -4.034700e+02
-4.000000e+02 -3.600030e+03 -3.000140e+00
7.123910e-03 -3.600020e+03 -2.851380e+00
-3.999820e+02 -3.199960e+03 -3.575940e+00
1.743250e-02 -3.199950e+03 -3.434200e+00
1.915480e-01 -3.600680e+03 -4.028100e+02
4.001830e+02 -3.600660e+03 -4.026870e+02
1.260180e-01 -3.200570e+03 -4.034700e+02
4.001360e+02 -3.200580e+03 -4.033610e+02
7.123910e-03 -3.600020e+03 -2.851380e+00
4.000140e+02 -3.600010e+03 -2.693260e+00
1.743250e-02 -3.199950e+03 -3.434200e+00
4.000160e+02 -3.199960e+03 -3.281450e+00
-3.998840e+02 -3.200560e+03 -4.035380e+02
1.260180e-01 -3.200570e+03 -4.034700e+02
-3.999730e+02 -2.800420e+03 -4.040530e+02
4.414560e-02 -2.800460e+03 -4.040660e+02
-3.999820e+02 -3.199960e+03 -3.575940e+00
1.743250e-02 -3.199950e+03 -3.434200e+00
-3.999710e+02 -2.799980e+03 -3.940430e+00
2.434110e-02 -2.799990e+03 -3.884370e+00
1.260180e-01 -3.200570e+03 -4.034700e+02
4.001360e+02 -3.200580e+03 -4.033610e+02
4.414560e-02 -2.800460e+03 -4.040660e+02
4.000610e+02 -2.800490e+03 -4.040320e+02
1.743250e-02 -3.199950e+03 -3.434200e+00
4.000160e+02 -3.199960e+03 -3.281450e+00
2.434110e-02 -2.799990e+03 -3.884370e+00
4.000190e+02 -2.800000e+03 -3.811640e+00
-3.999730e+02 -2.800420e+03 -4.040530e+02
4.414560e-02 -2.800460e+03 -4.040660e+02
-4.000920e+02 -2.400440e+03 -4.043750e+02
-9.163150e-02 -2.400450e+03 -4.044990e+02
-3.999710e+02 -2.799980e+03 -3.940430e+00
2.434110e-02 -2.799990e+03 -3.884370e+00
-3.999840e+02 -2.400030e+03 -4.313400e+00
2.062400e-02 -2.400030e+03 -4.403010e+00
4.414560e-02 -2.800460e+03 -4.040660e+02
4.000610e+02 -2.800490e+03 -4.040320e+02
-9.163150e-02 -2.400450e+03 -4.044990e+02
3.999090e+02 -2.400440e+03 -4.046260e+02
2.434110e-02 -2.799990e+03 -3.884370e+00
4.000190e+02 -2.800000e+03 -3.811640e+00
2.062400e-02 -2.400030e+03 -4.403010e+00
4.000250e+02 -2.400040e+03 -4.482130e+00
-4.000920e+02 -2.400440e+03 -4.043750e+02
-9.163150e-02 -2.400450e+03 -4.044990e+02
-4.001800e+02 -2.000660e+03 -4.047680e+02
-1.978700e-01 -2.000630e+03 -4.049400e+02
-3.999840e+02 -2.400030e+03 -4.313400e+00
2.062400e-02 -2.400030e+03 -4.403010e+00
-4.000040e+02 -2.000000e+03 -4.809740e+00
9.268080e-03 -2.000010e+03 -4.976120e+00
-9.163150e-02 -2.400450e+03 -4.044990e+02
3.999090e+02 -2.400440e+03 -4.046260e+02
-1.978700e-01 -2.000630e+03 -4.049400e+02
3.997840e+02 -2.000600e+03 -4.051660e+02
2.062400e-02 -2.400030e+03 -4.403010e+00
4.000250e+02 -2.400040e+03 -4.482130e+00
9.268080e-03 -2.000010e+03 -4.976120e+00
4.000220e+02 -2.000010e+03 -5.151730e+00
-4.001800e+02 -2.000660e+03 -4.047680e+02
-1.978700e-01 -2.000630e+03 -4.049400e+02
-4.001230e+02 -1.600780e+03 -4.056370e+02
-1.257950e-01 -1.600740e+03 -4.057290e+02
-4.000040e+02 -2.000000e+03 -4.809740e+00
9.268080e-03 -2.000010e+03 -4.976120e+00
-4.000170e+02 -1.600010e+03 -5.595150e+00
-1.374290e-02 -1.600010e+03 -5.731070e+00
-1.978700e-01 -2.000630e+03 -4.049400e+02
3.997840e+02 -2.000600e+03 -4.051660e+02
-1.257950e-01 -1.600740e+03 -4.057290e+02
3.998710e+02 -1.600710e+03 -4.058510e+02
9.268080e-03 -2.000010e+03 -4.976120e+00
4.000220e+02 -2.000010e+03 -5.151730e+00
-1.374290e-02 -1.600010e+03 -5.731070e+00
3.999900e+02 -1.600010e+03 -5.867450e+00
-4.001230e+02 -1.600780e+03 -4.056370e+02
-1.257950e-01 -1.600740e+03 -4.057290e+02
-4.000110e+02 -1.200660e+03 -4.064890e+02
-3.724990e-03 -1.200620e+03 -4.065050e+02
-4.000170e+02 -1.600010e+03 -5.595150e+00
-1.374290e-02 -1.600010e+03 -5.731070e+00
-4.000090e+02 -1.200010e+03 -6.466140e+00
-1.983450e-02 -1.200010e+03 -6.508980e+00
-1.257950e-01 -1.600740e+03 -4.057290e+02
3.998710e+02 -1.600710e+03 -4.058510e+02
-3.724990e-03 -1.200620e+03 -4.065050e+02
4.000040e+02 -1.200590e+03 -4.064880e+02
-1.374290e-02 -1.600010e+03 -5.731070e+00
3.999900e+02 -1.600010e+03 -5.867450e+00
-1.983450e-02 -1.200010e+03 -6.508980e+00
3.999690e+02 -1.200010e+03 -6.567150e+00
-4.000110e+02 -1.200660e+03 -4.064890e+02
-3.724990e-03 -1.200620e+03 -4.065050e+02
-3.999280e+02 -8.005200e+02 -4.072370e+02
9.059710e-02 -8.004920e+02 -4.071410e+02
-4.000090e+02 -1.200010e+03 -6.466140e+00
-1.983450e-02 -1.200010e+03 -6.508980e+00
-4.000170e+02 -7.999950e+02 -7.181400e+00
-2.776270e-02 -7.999990e+02 -7.110220e+00
-3.724990e-03 -1.200620e+03 -4.065050e+02
4.000040e+02 -1.200590e+03 -4.064880e+02
9.059710e-02 -8.004920e+02 -4.071410e+02
4.001090e+02 -8.004710e+02 -4.069900e+02
-1.983450e-02 -1.200010e+03 -6.508980e+00
3.999690e+02 -1.200010e+03 -6.567150e+00
-2.776270e-02 -7.999990e+02 -7.110220e+00
3.999610e+02 -8.000040e+02 -7.044930e+00
-3.999280e+02 -8.005200e+02 -4.072370e+02
9.059710e-02 -8.004920e+02 -4.071410e+02
-3.998350e+02 -4.004420e+02 -4.079350e+02
1.650550e-01 -4.004810e+02 -4.077040e+02
-4.000170e+02 -7.999950e+02 -7.181400e+00
-2.776270e-02 -7.999990e+02 -7.110220e+00
-4.000280e+02 -4.000090e+02 -7.835400e+00
-2.849830e-02 -4.000090e+02 -7.670720e+00
9.059710e-02 -8.004920e+02 -4.071410e+02
4.001090e+02 -8.004710e+02 -4.069900e+02
1.650550e-01 -4.004810e+02 -4.077040e+02
4.001660e+02 -4.004920e+02 -4.074960e+02
-2.776270e-02 -7.999990e+02 -7.110220e+00
3.999610e+02 -8.000040e+02 -7.044930e+00
-2.849830e-02 -4.000090e+02 -7.670720e+00
3.999710e+02 -4.000120e+02 -7.526960e+00
-3.998350e+02 -4.004420e+02 -4.079350e+02
1.650550e-01 -4.004810e+02 -4.077040e+02
-3.998340e+02 -4.724090e-01 -4.084090e+02
1.587720e-01 -5.295690e-01 -4.082120e+02
-4.000280e+02 -4.000090e+02 -7.835400e+00
-2.849830e-02 -4.000090e+02 -7.670720e+00
-4.000160e+02 -7.222100e-03 -8.329790e+00
-1.387260e-02 -1.526230e-03 -8.176830e+00
1.650550e-01 -4.004810e+02 -4.077040e+02
4.001660e+02 -4.004920e+02 -4.074960e+02
1.587720e-01 -5.295690e-01 -4.082120e+02
[...]
<PointData>
<DataArray type="Float32" Name="V1" format="ascii">
0.000000e+00
0.000000e+00
5.848910e-02
-2.170540e-03
0.000000e+00
0.000000e+00
1.117460e-02
3.573860e-02
0.000000e+00
0.000000e+00
-2.170540e-03
-6.303060e-02
0.000000e+00
0.000000e+00
3.573860e-02
6.096720e-02
5.848910e-02
-2.170540e-03
3.145680e-02
-2.708900e-03
1.117460e-02
3.573860e-02
-4.834140e-03
1.665680e-02
-2.170540e-03
-6.303060e-02
-2.708900e-03
-3.679160e-02
3.573860e-02
6.096720e-02
1.665680e-02
3.778930e-02
3.145680e-02
-2.708900e-03
-1.626360e-02
-9.463010e-03
-4.834140e-03
1.665680e-02
2.585210e-03
-2.230360e-03
-2.708900e-03
-3.679160e-02
-9.463010e-03
-3.123110e-03
1.665680e-02
3.778930e-02
-2.230360e-03
-6.967020e-03
-1.626360e-02
-9.463010e-03
2.127390e-02
5.307970e-02
2.585210e-03
-2.230360e-03
-4.264880e-04
-5.945430e-03
-9.463010e-03
-3.123110e-03
5.307970e-02
8.479960e-02
-2.230360e-03
-6.967020e-03
-5.945430e-03
-1.129780e-02
2.127390e-02
5.307970e-02
-6.476240e-03
-2.209430e-03
-4.264880e-04
-5.945430e-03
1.313090e-02
1.707710e-02
5.307970e-02
8.479960e-02
-2.209430e-03
2.634740e-03
-5.945430e-03
-1.129780e-02
1.707710e-02
2.080450e-02
-6.476240e-03
-2.209430e-03
-3.906580e-02
-2.891780e-02
1.313090e-02
1.707710e-02
-6.146550e-03
8.633820e-05
-2.209430e-03
2.634740e-03
-2.891780e-02
-1.812300e-02
1.707710e-02
2.080450e-02
8.633820e-05
6.139830e-03
-3.906580e-02
-2.891780e-02
1.064620e-02
-1.977920e-02
-6.146550e-03
8.633820e-05
-2.314640e-02
-1.806410e-02
-2.891780e-02
-1.812300e-02
-1.977920e-02
-4.926540e-02
8.633820e-05
6.139830e-03
-1.806410e-02
-1.250540e-02
1.064620e-02
-1.977920e-02
-3.491800e-02
-6.221530e-02
-2.314640e-02
-1.806410e-02
3.868890e-03
8.374750e-03
-1.977920e-02
-4.926540e-02
-6.221530e-02
-9.004830e-02
-1.806410e-02
-1.250540e-02
8.374750e-03
1.263900e-02
-3.491800e-02
-6.221530e-02
-8.396420e-02
-5.538350e-02
3.868890e-03
8.374750e-03
-4.428070e-04
-4.562660e-03
-6.221530e-02
-9.004830e-02
-5.538350e-02
-2.611700e-02
8.374750e-03
1.263900e-02
-4.562660e-03
-9.148520e-03
-8.396420e-02
-5.538350e-02
-7.350720e-02
-3.901750e-02
-4.428070e-04
-4.562660e-03
1.137610e-02
2.864670e-03
-5.538350e-02
-2.611700e-02
-3.901750e-02
-4.715290e-03
-4.562660e-03
-9.148520e-03
2.864670e-03
-5.071030e-03
-7.350720e-02
-3.901750e-02
-2.815910e-03
-2.083900e-03
1.137610e-02
2.864670e-03
-1.029190e-02
-7.353260e-03
-3.901750e-02
-4.715290e-03
-2.083900e-03
-1.415970e-03
2.864670e-03
-5.071030e-03
-7.353260e-03
-4.341100e-03
-2.815910e-03
-2.083900e-03
8.466280e-03
-1.209520e-02
-1.029190e-02
-7.353260e-03
1.811320e-02
1.537150e-02
-2.083900e-03
-1.415970e-03
-1.209520e-02
-3.291740e-02
-7.353260e-03
-4.341100e-03
1.537150e-02
1.250590e-02
8.466280e-03
-1.209520e-02
1.889700e-02
1.666050e-02
1.811320e-02
1.537150e-02
4.496530e-02
1.692700e-02
-1.209520e-02
-3.291740e-02
1.666050e-02
1.526770e-02
1.537150e-02
1.250590e-02
1.692700e-02
-1.146270e-02
1.889700e-02
1.666050e-02
3.893220e-02
4.540020e-02
4.496530e-02
1.692700e-02
3.011370e-02
-3.581360e-04
1.666050e-02
1.526770e-02
4.540020e-02
5.223910e-02
1.692700e-02
-1.146270e-02
-3.581360e-04
-3.065500e-02
3.893220e-02
4.540020e-02
5.055950e-03
3.513350e-02
3.011370e-02
-3.581360e-04
2.604910e-02
4.161790e-03
4.540020e-02
5.223910e-02
3.513350e-02
6.495770e-02
-3.581360e-04
-3.065500e-02
4.161790e-03
-1.773490e-02
5.055950e-03
3.513350e-02
-5.029120e-02
2.434370e-04
2.604910e-02
4.161790e-03
5.294190e-02
2.000950e-02
3.513350e-02
6.495770e-02
2.434370e-04
5.038250e-02
4.161790e-03
-1.773490e-02
2.000950e-02
-1.246750e-02
-5.029120e-02
2.434370e-04
-6.356230e-02
-6.466330e-03
5.294190e-02
2.000950e-02
4.913090e-02
9.391650e-03
2.434370e-04
5.038250e-02
-6.466330e-03
5.069810e-02
2.000950e-02
-1.246750e-02
9.391650e-03
-3.009070e-02
-6.356230e-02
-6.466330e-03
2.058900e-02
2.744950e-03
4.913090e-02
9.391650e-03
2.165100e-02
-1.346630e-04
-6.466330e-03
5.069810e-02
2.744950e-03
-1.497030e-02
9.391650e-03
-3.009070e-02
-1.346630e-04
-2.187110e-02
2.058900e-02
2.744950e-03
3.215950e-02
-5.731010e-03
2.165100e-02
-1.346630e-04
1.085080e-02
9.967210e-03
2.744950e-03
-1.497030e-02
-5.731010e-03
-4.384130e-02
-1.346630e-04
-2.187110e-02
9.967210e-03
8.823840e-03
3.215950e-02
-5.731010e-03
1.477700e-02
-2.277410e-03
1.085080e-02
9.967210e-03
-1.270350e-02
-9.655030e-03
-5.731010e-03
-4.384130e-02
-2.277410e-03
-1.961490e-02
9.967210e-03
8.823840e-03
-9.655030e-03
-7.107350e-03
1.477700e-02
-2.277410e-03
-6.691400e-03
-1.221630e-03
-1.270350e-02
-9.655030e-03
-8.276610e-03
3.372520e-03
-2.277410e-03
-1.961490e-02
-1.221630e-03
3.691080e-03
-9.655030e-03
-7.107350e-03
3.372520e-03
1.487160e-02
-6.691400e-03
-1.221630e-03
-2.203320e-02
5.115690e-03
-8.276610e-03
3.372520e-03
-2.439060e-03
1.530970e-02
-1.221630e-03
3.691080e-03
5.115690e-03
3.248190e-02
3.372520e-03
1.487160e-02
1.530970e-02
3.303170e-02
-2.203320e-02
5.115690e-03
4.433460e-02
1.355310e-02
-2.439060e-03
1.530970e-02
-2.763720e-02
-5.650420e-03
5.115690e-03
3.248190e-02
1.355310e-02
-1.841690e-02
1.530970e-02
3.303170e-02
-5.650420e-03
1.685360e-02
4.433460e-02
1.355310e-02
7.280130e-02
3.080630e-02
-2.763720e-02
-5.650420e-03
-5.489130e-03
1.542140e-02
1.355310e-02
-1.841690e-02
3.080630e-02
-1.192110e-02
-5.650420e-03
1.685360e-02
1.542140e-02
3.647920e-02
7.280130e-02
3.080630e-02
9.324490e-02
4.015190e-02
-5.489130e-03
1.542140e-02
-2.950990e-02
-5.941280e-03
3.080630e-02
-1.192110e-02
4.015190e-02
-1.326290e-02
1.542140e-02
3.647920e-02
-5.941280e-03
1.742290e-02
9.324490e-02
4.015190e-02
-1.025230e-02
-1.064910e-02
-2.950990e-02
-5.941280e-03
-2.510480e-02
-1.428920e-02
4.015190e-02
-1.326290e-02
-1.064910e-02
-1.009490e-02
-5.941280e-03
1.742290e-02
-1.428920e-02
-3.834930e-03
-1.025230e-02
-1.064910e-02
-3.900720e-02
-2.011920e-02
-2.510480e-02
-1.428920e-02
-2.938890e-02
-2.228260e-02
-1.064910e-02
-1.009490e-02
-2.011920e-02
-5.505850e-04
-1.428920e-02
-3.834930e-03
-2.228260e-02
-1.515880e-02
-3.900720e-02
-2.011920e-02
-7.490090e-02
-4.486060e-02
-2.938890e-02
-2.228260e-02
1.060370e-03
1.280960e-02
-2.011920e-02
-5.505850e-04
-4.486060e-02
-1.479780e-02
-2.228260e-02
-1.515880e-02
1.280960e-02
2.495300e-02
-7.490090e-02
-4.486060e-02
2.607070e-02
1.221220e-02
1.060370e-03
1.280960e-02
-2.007560e-02
-4.665620e-03
-4.486060e-02
-1.479780e-02
1.221220e-02
-1.661890e-03
1.280960e-02
2.495300e-02
-4.665620e-03
1.086530e-02
2.607070e-02
1.221220e-02
1.324320e-01
5.480170e-02
-2.007560e-02
-4.665620e-03
-3.964770e-02
-1.218780e-02
1.221220e-02
-1.661890e-03
5.480170e-02
-2.454030e-02
-4.665620e-03
1.086530e-02
-1.218780e-02
1.584240e-02
0.000000e+00
0.000000e+00
1.117460e-02
3.573860e-02
0.000000e+00
0.000000e+00
-7.853030e-02
-6.701710e-02
0.000000e+00
0.000000e+00
3.573860e-02
6.096720e-02
0.000000e+00
0.000000e+00
-6.701710e-02
-5.536210e-02
1.117460e-02
3.573860e-02
-4.834140e-03
1.665680e-02
-7.853030e-02
-6.701710e-02
-2.695050e-02
-3.396090e-02
3.573860e-02
6.096720e-02
1.665680e-02
3.778930e-02
-6.701710e-02
-5.536210e-02
-3.396090e-02
-4.056920e-02
-4.834140e-03
1.665680e-02
2.585210e-03
-2.230360e-03
-2.695050e-02
-3.396090e-02
1.363130e-02
1.572780e-02
1.665680e-02
3.778930e-02
-2.230360e-03
-6.967020e-03
-3.396090e-02
-4.056920e-02
1.572780e-02
1.733600e-02
2.585210e-03
-2.230360e-03
-4.264880e-04
-5.945430e-03
1.363130e-02
1.572780e-02
-2.197370e-02
-4.197590e-02
-2.230360e-03
-6.967020e-03
-5.945430e-03
-1.129780e-02
1.572780e-02
1.733600e-02
-4.197590e-02
-6.230610e-02
-4.264880e-04
-5.945430e-03
1.313090e-02
1.707710e-02
-2.197370e-02
-4.197590e-02
-2.344170e-02
-3.360160e-02
-5.945430e-03
-1.129780e-02
1.707710e-02
2.080450e-02
-4.197590e-02
-6.230610e-02
-3.360160e-02
-4.412880e-02
1.313090e-02
1.707710e-02
-6.146550e-03
8.633820e-05
-2.344170e-02
-3.360160e-02
5.086400e-02
3.012600e-02
1.707710e-02
2.080450e-02
8.633820e-05
6.139830e-03
-3.360160e-02
-4.412880e-02
3.012600e-02
9.144050e-03
-6.146550e-03
8.633820e-05
-2.314640e-02
-1.806410e-02
5.086400e-02
3.012600e-02
3.591130e-02
5.589500e-02
8.633820e-05
6.139830e-03
-1.806410e-02
-1.250540e-02
3.012600e-02
9.144050e-03
5.589500e-02
7.618200e-02
-2.314640e-02
-1.806410e-02
3.868890e-03
8.374750e-03
3.591130e-02
5.589500e-02
2.553610e-02
4.228950e-02
-1.806410e-02
-1.250540e-02
8.374750e-03
1.263900e-02
5.589500e-02
7.618200e-02
4.228950e-02
6.019140e-02
3.868890e-03
8.374750e-03
-4.428070e-04
-4.562660e-03
2.553610e-02
4.228950e-02
8.432490e-02
6.673780e-02
8.374750e-03
1.263900e-02
-4.562660e-03
-9.148520e-03
4.228950e-02
6.019140e-02
6.673780e-02
4.840590e-02
-4.428070e-04
-4.562660e-03
1.137610e-02
2.864670e-03
8.432490e-02
6.673780e-02
4.945480e-02
3.181410e-02
-4.562660e-03
-9.148520e-03
2.864670e-03
-5.071030e-03
6.673780e-02
4.840590e-02
3.181410e-02
1.478740e-02
1.137610e-02
2.864670e-03
-1.029190e-02
-7.353260e-03
4.945480e-02
3.181410e-02
2.592600e-02
1.582580e-02
2.864670e-03
-5.071030e-03
-7.353260e-03
-4.341100e-03
3.181410e-02
1.478740e-02
1.582580e-02
7.477200e-03
-1.029190e-02
-7.353260e-03
1.811320e-02
1.537150e-02
2.592600e-02
1.582580e-02
-4.473060e-02
-1.657440e-02
-7.353260e-03
-4.341100e-03
1.537150e-02
1.250590e-02
1.582580e-02
7.477200e-03
-1.657440e-02
1.132620e-02
1.811320e-02
1.537150e-02
4.496530e-02
1.692700e-02
-4.473060e-02
-1.657440e-02
-1.095150e-01
-5.019350e-02
1.537150e-02
1.250590e-02
1.692700e-02
-1.146270e-02
-1.657440e-02
1.132620e-02
-5.019350e-02
8.211400e-03
4.496530e-02
1.692700e-02
3.011370e-02
-3.581360e-04
-1.095150e-01
-5.019350e-02
-9.664400e-02
-4.406320e-02
1.692700e-02
-1.146270e-02
-3.581360e-04
-3.065500e-02
-5.019350e-02
8.211400e-03
-4.406320e-02
8.242760e-03
3.011370e-02
-3.581360e-04
2.604910e-02
4.161790e-03
-9.664400e-02
-4.406320e-02
-5.727610e-02
-4.432660e-02
-3.581360e-04
-3.065500e-02
4.161790e-03
-1.773490e-02
-4.406320e-02
8.242760e-03
-4.432660e-02
-3.124730e-02
2.604910e-02
4.161790e-03
5.294190e-02
2.000950e-02
-5.727610e-02
-4.432660e-02
-5.364070e-02
-3.964520e-02
4.161790e-03
-1.773490e-02
2.000950e-02
-1.246750e-02
-4.432660e-02
-3.124730e-02
-3.964520e-02
-2.594600e-02
5.294190e-02
2.000950e-02
4.913090e-02
9.391650e-03
-5.364070e-02
-3.964520e-02
-3.428650e-02
-1.284210e-02
2.000950e-02
-1.246750e-02
9.391650e-03
-3.009070e-02
-3.964520e-02
-2.594600e-02
-1.284210e-02
9.011560e-03
4.913090e-02
9.391650e-03
2.165100e-02
-1.346630e-04
-3.428650e-02
-1.284210e-02
-6.499490e-02
-2.590120e-03
9.391650e-03
-3.009070e-02
-1.346630e-04
-2.187110e-02
-1.284210e-02
9.011560e-03
-2.590120e-03
5.917270e-02
2.165100e-02
-1.346630e-04
1.085080e-02
9.967210e-03
-6.499490e-02
-2.590120e-03
-5.026220e-02
-1.271220e-02
-1.346630e-04
-2.187110e-02
9.967210e-03
8.823840e-03
-2.590120e-03
5.917270e-02
-1.271220e-02
2.399760e-02
1.085080e-02
9.967210e-03
-1.270350e-02
-9.655030e-03
-5.026220e-02
-1.271220e-02
8.085290e-03
2.085730e-02
9.967210e-03
8.823840e-03
-9.655030e-03
-7.107350e-03
-1.271220e-02
2.399760e-02
2.085730e-02
3.417750e-02
-1.270350e-02
-9.655030e-03
-8.276610e-03
3.372520e-03
8.085290e-03
2.085730e-02
2.199550e-02
-5.509360e-03
-9.655030e-03
-7.107350e-03
3.372520e-03
1.487160e-02
2.085730e-02
3.417750e-02
-5.509360e-03
-3.340910e-02
-8.276610e-03
3.372520e-03
-2.439060e-03
1.530970e-02
2.199550e-02
-5.509360e-03
2.731360e-02
-3.491990e-02
3.372520e-03
1.487160e-02
1.530970e-02
3.303170e-02
-5.509360e-03
-3.340910e-02
-3.491990e-02
-9.746910e-02
-2.439060e-03
1.530970e-02
-2.763720e-02
-5.650420e-03
2.731360e-02
-3.491990e-02
1.470860e-02
-2.474200e-03
1.530970e-02
3.303170e-02
-5.650420e-03
1.685360e-02
-3.491990e-02
-9.746910e-02
-2.474200e-03
-1.846550e-02
-2.763720e-02
-5.650420e-03
-5.489130e-03
1.542140e-02
1.470860e-02
-2.474200e-03
-6.245880e-02
-6.272430e-02
-5.650420e-03
1.685360e-02
1.542140e-02
3.647920e-02
-2.474200e-03
-1.846550e-02
-6.272430e-02
-6.206240e-02
-5.489130e-03
1.542140e-02
-2.950990e-02
-5.941280e-03
-6.245880e-02
-6.272430e-02
-3.704300e-02
-2.760260e-02
1.542140e-02
3.647920e-02
-5.941280e-03
1.742290e-02
-6.272430e-02
-6.206240e-02
-2.760260e-02
-1.829160e-02
-2.950990e-02
-5.941280e-03
-2.510480e-02
-1.428920e-02
-3.704300e-02
-2.760260e-02
5.927860e-02
3.844930e-02
-5.941280e-03
1.742290e-02
-1.428920e-02
-3.834930e-03
-2.760260e-02
-1.829160e-02
3.844930e-02
1.707690e-02
-2.510480e-02
-1.428920e-02
-2.938890e-02
-2.228260e-02
5.927860e-02
3.844930e-02
9.714780e-02
6.340370e-02
-1.428920e-02
-3.834930e-03
-2.228260e-02
-1.515880e-02
3.844930e-02
1.707690e-02
6.340370e-02
2.901140e-02
-2.938890e-02
-2.228260e-02
1.060370e-03
1.280960e-02
9.714780e-02
6.340370e-02
7.609250e-02
2.308930e-02
-2.228260e-02
-1.515880e-02
1.280960e-02
2.495300e-02
6.340370e-02
2.901140e-02
2.308930e-02
-2.989890e-02
1.060370e-03
1.280960e-02
-2.007560e-02
-4.665620e-03
7.609250e-02
2.308930e-02
1.036080e-02
-6.525550e-03
1.280960e-02
2.495300e-02
-4.665620e-03
1.086530e-02
2.308930e-02
-2.989890e-02
-6.525550e-03
-2.344080e-02
-2.007560e-02
-4.665620e-03
-3.964770e-02
-1.218780e-02
1.036080e-02
-6.525550e-03
-5.242280e-02
-2.745480e-02
-4.665620e-03
1.086530e-02
-1.218780e-02
1.584240e-02
-6.525550e-03
-2.344080e-02
-2.745480e-02
-2.410380e-03
</DataArray>
<DataArray type="Float32" Name="V2" format="ascii">
0.000000e+00
0.000000e+00
-8.662930e-02
-1.245070e-01
0.000000e+00
0.000000e+00
2.207430e-02
3.567270e-02
0.000000e+00
0.000000e+00
-1.245070e-01
-1.663560e-01
0.000000e+00
0.000000e+00
3.567270e-02
3.459730e-02
-8.662930e-02
-1.245070e-01
-1.256380e-01
-8.132560e-02
2.207430e-02
3.567270e-02
3.641360e-02
1.087820e-02
-1.245070e-01
-1.663560e-01
-8.132560e-02
-5.454910e-02
3.567270e-02
3.459730e-02
1.087820e-02
-4.096290e-03
-1.256380e-01
-8.132560e-02
-5.102640e-02
4.096920e-03
3.641360e-02
1.087820e-02
2.845240e-02
5.802190e-03
-8.132560e-02
-5.454910e-02
4.096920e-03
1.499590e-02
1.087820e-02
-4.096290e-03
5.802190e-03
6.265940e-03
-5.102640e-02
4.096920e-03
-1.424800e-03
1.937820e-02
2.845240e-02
5.802190e-03
-3.693870e-02
-1.109790e-02
4.096920e-03
1.499590e-02
1.937820e-02
4.265190e-02
5.802190e-03
6.265940e-03
-1.109790e-02
-1.127950e-02
-1.424800e-03
1.937820e-02
2.747980e-02
3.740010e-02
-3.693870e-02
-1.109790e-02
-4.628310e-02
-3.111090e-02
1.937820e-02
4.265190e-02
3.740010e-02
6.532140e-02
-1.109790e-02
-1.127950e-02
-3.111090e-02
-2.734030e-02
2.747980e-02
3.740010e-02
3.863730e-02
7.675800e-03
-4.628310e-02
-3.111090e-02
-9.941950e-04
-5.696290e-03
3.740010e-02
6.532140e-02
7.675800e-03
-2.821770e-02
-3.111090e-02
-2.734030e-02
-5.696290e-03
1.933840e-02
3.863730e-02
7.675800e-03
2.812230e-03
-5.648950e-02
-9.941950e-04
-5.696290e-03
2.279750e-02
3.256910e-02
7.675800e-03
-2.821770e-02
-5.648950e-02
-1.228610e-01
-5.696290e-03
1.933840e-02
3.256910e-02
4.740890e-02
2.812230e-03
-5.648950e-02
-1.555740e-02
-5.448660e-02
2.279750e-02
3.256910e-02
-7.089130e-03
1.862900e-02
-5.648950e-02
-1.228610e-01
-5.448660e-02
-1.095530e-01
3.256910e-02
4.740890e-02
1.862900e-02
2.692420e-02
-1.555740e-02
-5.448660e-02
2.605610e-02
2.402800e-02
-7.089130e-03
1.862900e-02
-2.815870e-02
-3.268400e-02
-5.448660e-02
-1.095530e-01
2.402800e-02
6.506350e-03
1.862900e-02
2.692420e-02
-3.268400e-02
-2.645310e-02
2.605610e-02
2.402800e-02
8.535120e-02
7.869880e-02
-2.815870e-02
-3.268400e-02
-4.194120e-02
-6.011550e-02
2.402800e-02
6.506350e-03
7.869880e-02
8.855580e-02
-3.268400e-02
-2.645310e-02
-6.011550e-02
-6.942540e-02
8.535120e-02
7.869880e-02
4.338070e-02
3.852450e-02
-4.194120e-02
-6.011550e-02
-3.623950e-02
-2.058980e-02
7.869880e-02
8.855580e-02
3.852450e-02
8.887470e-02
-6.011550e-02
-6.942540e-02
-2.058980e-02
-2.702280e-02
4.338070e-02
3.852450e-02
-1.031170e-01
-8.953600e-02
-3.623950e-02
-2.058980e-02
3.583920e-02
3.447950e-02
3.852450e-02
8.887470e-02
-8.953600e-02
-6.427840e-02
-2.058980e-02
-2.702280e-02
3.447950e-02
4.780330e-02
-1.031170e-01
-8.953600e-02
-8.515710e-02
-9.563080e-02
3.583920e-02
3.447950e-02
5.068160e-02
3.057930e-02
-8.953600e-02
-6.427840e-02
-9.563080e-02
-1.295070e-01
3.447950e-02
4.780330e-02
3.057930e-02
3.313870e-02
-8.515710e-02
-9.563080e-02
9.201290e-03
-8.024900e-03
5.068160e-02
3.057930e-02
1.381890e-02
1.105630e-02
-9.563080e-02
-1.295070e-01
-8.024900e-03
-2.105410e-02
3.057930e-02
3.313870e-02
1.105630e-02
-1.131470e-02
9.201290e-03
-8.024900e-03
1.167270e-02
1.537230e-02
1.381890e-02
1.105630e-02
-2.195630e-02
-2.074180e-02
-8.024900e-03
-2.105410e-02
1.537230e-02
1.990420e-02
1.105630e-02
-1.131470e-02
-2.074180e-02
-1.440740e-02
1.167270e-02
1.537230e-02
4.773540e-02
6.015020e-02
-2.195630e-02
-2.074180e-02
-2.798560e-02
-3.370220e-02
1.537230e-02
1.990420e-02
6.015020e-02
4.230850e-02
-2.074180e-02
-1.440740e-02
-3.370220e-02
-1.340580e-02
4.773540e-02
6.015020e-02
-1.538030e-04
-6.362530e-03
-2.798560e-02
-3.370220e-02
4.095000e-02
3.654130e-02
6.015020e-02
4.230850e-02
-6.362530e-03
-6.697810e-03
-3.370220e-02
-1.340580e-02
3.654130e-02
3.455070e-02
-1.538030e-04
-6.362530e-03
-7.029450e-02
-7.905470e-02
4.095000e-02
3.654130e-02
6.142640e-02
5.745720e-02
-6.362530e-03
-6.697810e-03
-7.905470e-02
-7.253050e-02
3.654130e-02
3.455070e-02
5.745720e-02
5.952260e-02
-7.029450e-02
-7.905470e-02
3.218120e-02
4.476220e-02
6.142640e-02
5.745720e-02
-1.726250e-02
-1.817190e-02
-7.905470e-02
-7.253050e-02
4.476220e-02
4.008110e-02
5.745720e-02
5.952260e-02
-1.817190e-02
-1.601560e-02
3.218120e-02
4.476220e-02
1.163590e-01
1.016790e-01
-1.726250e-02
-1.817190e-02
-6.374270e-02
-4.317050e-02
4.476220e-02
4.008110e-02
1.016790e-01
1.094680e-01
-1.817190e-02
-1.601560e-02
-4.317050e-02
-5.547430e-02
1.163590e-01
1.016790e-01
3.038630e-02
3.759270e-02
-6.374270e-02
-4.317050e-02
-2.552700e-02
-2.051120e-02
1.016790e-01
1.094680e-01
3.759270e-02
5.239450e-02
-4.317050e-02
-5.547430e-02
-2.051120e-02
-2.689390e-02
3.038630e-02
3.759270e-02
1.853000e-02
3.983930e-02
-2.552700e-02
-2.051120e-02
4.924100e-03
-8.890190e-03
3.759270e-02
5.239450e-02
3.983930e-02
7.239530e-02
-2.051120e-02
-2.689390e-02
-8.890190e-03
-5.826830e-03
1.853000e-02
3.983930e-02
3.602980e-02
3.468750e-03
4.924100e-03
-8.890190e-03
-2.290550e-02
-1.514250e-02
3.983930e-02
7.239530e-02
3.468750e-03
-1.144320e-02
-8.890190e-03
-5.826830e-03
-1.514250e-02
-5.079030e-03
3.602980e-02
3.468750e-03
-3.206970e-02
-7.359760e-02
-2.290550e-02
-1.514250e-02
1.256470e-02
1.586180e-02
3.468750e-03
-1.144320e-02
-7.359760e-02
-1.289520e-01
-1.514250e-02
-5.079030e-03
1.586180e-02
1.226730e-02
-3.206970e-02
-7.359760e-02
-1.023340e-01
-7.070780e-02
1.256470e-02
1.586180e-02
4.035260e-02
2.020510e-02
-7.359760e-02
-1.289520e-01
-7.070780e-02
-6.483270e-02
1.586180e-02
1.226730e-02
2.020510e-02
1.726940e-02
-1.023340e-01
-7.070780e-02
-6.060230e-02
-3.018120e-02
4.035260e-02
2.020510e-02
-1.541550e-02
-2.180890e-02
-7.070780e-02
-6.483270e-02
-3.018120e-02
-3.314270e-02
2.020510e-02
1.726940e-02
-2.180890e-02
-2.871460e-02
-6.060230e-02
-3.018120e-02
8.635440e-03
4.186250e-02
-1.541550e-02
-2.180890e-02
-3.319170e-02
-1.057980e-02
-3.018120e-02
-3.314270e-02
4.186250e-02
2.842540e-02
-2.180890e-02
-2.871460e-02
-1.057980e-02
-4.302890e-03
8.635440e-03
4.186250e-02
1.911060e-02
1.041560e-01
-3.319170e-02
-1.057980e-02
2.072930e-02
7.597180e-03
4.186250e-02
2.842540e-02
1.041560e-01
1.399640e-01
-1.057980e-02
-4.302890e-03
7.597180e-03
1.930790e-02
1.911060e-02
1.041560e-01
7.004710e-02
9.321110e-02
2.072930e-02
7.597180e-03
1.254960e-02
7.217840e-03
1.041560e-01
1.399640e-01
9.321110e-02
1.293140e-01
7.597180e-03
1.930790e-02
7.217840e-03
1.121850e-02
7.004710e-02
9.321110e-02
1.244130e-01
6.760300e-02
1.254960e-02
7.217840e-03
-2.297580e-02
1.862570e-02
9.321110e-02
1.293140e-01
6.760300e-02
5.852980e-02
7.217840e-03
1.121850e-02
1.862570e-02
3.668310e-02
0.000000e+00
0.000000e+00
2.207430e-02
3.567270e-02
0.000000e+00
0.000000e+00
4.850230e-02
5.396060e-02
0.000000e+00
0.000000e+00
3.567270e-02
3.459730e-02
0.000000e+00
0.000000e+00
5.396060e-02
9.261780e-02
2.207430e-02
3.567270e-02
3.641360e-02
1.087820e-02
4.850230e-02
5.396060e-02
4.213800e-02
5.204910e-02
3.567270e-02
3.459730e-02
1.087820e-02
-4.096290e-03
5.396060e-02
9.261780e-02
5.204910e-02
6.954940e-02