<?xml version="1.0"?>
<VTKFile type="UnstructuredGrid" version="0.1" byte_order="LittleEndian" compressor="vtkZLibDataCompressor">
<UnstructuredGrid>
<Piece NumberOfPoints="960" NumberOfCells="120">
<Points>
<DataArray type="Float32" NumberOfComponents="3" format="ascii">
-4.000000e+02 -6.000000e+03 -4.000000e+02
0.000000e+00 -6.000000e+03 -4.000000e+02
-4.000080e+02 -5.600190e+03 -4.001930e+02
-3.958070e-02 -5.600210e+03 -4.002010e+02
-4.000000e+02 -6.000000e+03 0.000000e+00
0.000000e+00 -6.000000e+03 0.000000e+00
-3.999920e+02 -5.600010e+03 -6.555550e-02
2.991430e-03 -5.600000e+03 -7.806420e-02
0.000000e+00 -6.000000e+03 -4.000000e+02
4.000000e+02 -6.000000e+03 -4.000000e+02
-3.958070e-02 -5.600210e+03 -4.002010e+02
3.999290e+02 -5.600240e+03 -4.002600e+02
0.000000e+00 -6.000000e+03 0.000000e+00
4.000000e+02 -6.000000e+03 0.000000e+00
2.991430e-03 -5.600000e+03 -7.806420e-02
3.999980e+02 -5.600010e+03 -1.464930e-01
-4.000080e+02 -5.600190e+03 -4.001930e+02
-3.958070e-02 -5.600210e+03 -4.002010e+02
-4.000590e+02 -5.200390e+03 -4.005110e+02
-5.442380e-02 -5.200410e+03 -4.005790e+02
-3.999920e+02 -5.600010e+03 -6.555550e-02
2.991430e-03 -5.600000e+03 -7.806420e-02
-3.999780e+02 -5.200050e+03 -5.106630e-01
5.004090e-03 -5.200040e+03 -5.264940e-01
-3.958070e-02 -5.600210e+03 -4.002010e+02
3.999290e+02 -5.600240e+03 -4.002600e+02
-5.442380e-02 -5.200410e+03 -4.005790e+02
3.999510e+02 -5.200440e+03 -4.005940e+02
2.991430e-03 -5.600000e+03 -7.806420e-02
3.999980e+02 -5.600010e+03 -1.464930e-01
5.004090e-03 -5.200040e+03 -5.264940e-01
3.999880e+02 -5.200040e+03 -5.796380e-01
-4.000590e+02 -5.200390e+03 -4.005110e+02
-5.442380e-02 -5.200410e+03 -4.005790e+02
-4.000300e+02 -4.800580e+03 -4.011190e+02
2.038570e-02 -4.800610e+03 -4.011500e+02
-3.999780e+02 -5.200050e+03 -5.106630e-01
5.004090e-03 -5.200040e+03 -5.264940e-01
-3.999700e+02 -4.800030e+03 -1.241590e+00
-6.483240e-03 -4.800030e+03 -1.203520e+00
-5.442380e-02 -5.200410e+03 -4.005790e+02
3.999510e+02 -5.200440e+03 -4.005940e+02
2.038570e-02 -4.800610e+03 -4.011500e+02
4.000710e+02 -4.800630e+03 -4.010090e+02
5.004090e-03 -5.200040e+03 -5.264940e-01
3.999880e+02 -5.200040e+03 -5.796380e-01
-6.483240e-03 -4.800030e+03 -1.203520e+00
3.999570e+02 -4.800020e+03 -1.139270e+00
-4.000300e+02 -4.800580e+03 -4.011190e+02
2.038570e-02 -4.800610e+03 -4.011500e+02
-4.000050e+02 -4.400730e+03 -4.018880e+02
4.793090e-02 -4.400760e+03 -4.019320e+02
-3.999700e+02 -4.800030e+03 -1.241590e+00
-6.483240e-03 -4.800030e+03 -1.203520e+00
-3.999700e+02 -4.400000e+03 -2.006940e+00
-1.414140e-03 -4.400000e+03 -1.999590e+00
2.038570e-02 -4.800610e+03 -4.011500e+02
4.000710e+02 -4.800630e+03 -4.010090e+02
4.793090e-02 -4.400760e+03 -4.019320e+02
4.001000e+02 -4.400780e+03 -4.017820e+02
-6.483240e-03 -4.800030e+03 -1.203520e+00
3.999570e+02 -4.800020e+03 -1.139270e+00
-1.414140e-03 -4.400000e+03 -1.999590e+00
3.999670e+02 -4.400000e+03 -1.916750e+00
-4.000050e+02 -4.400730e+03 -4.018880e+02
4.793090e-02 -4.400760e+03 -4.019320e+02
-3.999670e+02 -4.000920e+03 -4.027230e+02
5.778030e-02 -4.000900e+03 -4.027380e+02
-3.999700e+02 -4.400000e+03 -2.006940e+00
-1.414140e-03 -4.400000e+03 -1.999590e+00
-3.999950e+02 -4.000000e+03 -2.758550e+00
-1.729340e-03 -4.000000e+03 -2.760610e+00
4.793090e-02 -4.400760e+03 -4.019320e+02
4.001000e+02 -4.400780e+03 -4.017820e+02
5.778030e-02 -4.000900e+03 -4.027380e+02
4.000830e+02 -4.000910e+03 -4.026510e+02
-1.414140e-03 -4.400000e+03 -1.999590e+00
3.999670e+02 -4.400000e+03 -1.916750e+00
-1.729340e-03 -4.000000e+03 -2.760610e+00
3.999920e+02 -4.000000e+03 -2.707180e+00
-3.999670e+02 -4.000920e+03 -4.027230e+02
5.778030e-02 -4.000900e+03 -4.027380e+02
-3.999610e+02 -3.601040e+03 -4.037520e+02
5.347270e-02 -3.601000e+03 -4.037200e+02
-3.999950e+02 -4.000000e+03 -2.758550e+00
-1.729340e-03 -4.000000e+03 -2.760610e+00
-4.000020e+02 -3.600010e+03 -3.785430e+00
-9.932210e-03 -3.600020e+03 -3.763760e+00
5.778030e-02 -4.000900e+03 -4.027380e+02
4.000830e+02 -4.000910e+03 -4.026510e+02
5.347270e-02 -3.601000e+03 -4.037200e+02
4.000680e+02 -3.601000e+03 -4.036790e+02
-1.729340e-03 -4.000000e+03 -2.760610e+00
3.999920e+02 -4.000000e+03 -2.707180e+00
-9.932210e-03 -3.600020e+03 -3.763760e+00
3.999820e+02 -3.600010e+03 -3.760780e+00
-3.999610e+02 -3.601040e+03 -4.037520e+02
5.347270e-02 -3.601000e+03 -4.037200e+02
-3.998940e+02 -3.201010e+03 -4.048030e+02
9.587400e-02 -3.201020e+03 -4.047000e+02
-4.000020e+02 -3.600010e+03 -3.785430e+00
-9.932210e-03 -3.600020e+03 -3.763760e+00
-4.000000e+02 -3.200040e+03 -4.844490e+00
-1.683270e-02 -3.200030e+03 -4.752620e+00
5.347270e-02 -3.601000e+03 -4.037200e+02
4.000680e+02 -3.601000e+03 -4.036790e+02
9.587400e-02 -3.201020e+03 -4.047000e+02
4.000850e+02 -3.201000e+03 -4.046200e+02
-9.932210e-03 -3.600020e+03 -3.763760e+00
3.999820e+02 -3.600010e+03 -3.760780e+00
-1.683270e-02 -3.200030e+03 -4.752620e+00
3.999660e+02 -3.200030e+03 -4.744630e+00
-3.998940e+02 -3.201010e+03 -4.048030e+02
9.587400e-02 -3.201020e+03 -4.047000e+02
-3.998690e+02 -2.801060e+03 -4.058170e+02
1.197600e-01 -2.801080e+03 -4.057170e+02
-4.000000e+02 -3.200040e+03 -4.844490e+00
-1.683270e-02 -3.200030e+03 -4.752620e+00
-4.000220e+02 -2.800020e+03 -5.905050e+00
-3.159900e-02 -2.800020e+03 -5.838170e+00
9.587400e-02 -3.201020e+03 -4.047000e+02
4.000850e+02 -3.201000e+03 -4.046200e+02
1.197600e-01 -2.801080e+03 -4.057170e+02
4.001080e+02 -2.801090e+03 -4.055770e+02
-1.683270e-02 -3.200030e+03 -4.752620e+00
3.999660e+02 -3.200030e+03 -4.744630e+00
-3.159900e-02 -2.800020e+03 -5.838170e+00
3.999580e+02 -2.800020e+03 -5.789350e+00
-3.998690e+02 -2.801060e+03 -4.058170e+02
1.197600e-01 -2.801080e+03 -4.057170e+02
-3.999910e+02 -2.401130e+03 -4.069150e+02
4.207430e-02 -2.401130e+03 -4.069200e+02
-4.000220e+02 -2.800020e+03 -5.905050e+00
-3.159900e-02 -2.800020e+03 -5.838170e+00
-4.000130e+02 -2.399980e+03 -6.988580e+00
-1.647380e-02 -2.400000e+03 -7.019150e+00
1.197600e-01 -2.801080e+03 -4.057170e+02
4.001080e+02 -2.801090e+03 -4.055770e+02
4.207430e-02 -2.401130e+03 -4.069200e+02
4.000750e+02 -2.401170e+03 -4.068220e+02
-3.159900e-02 -2.800020e+03 -5.838170e+00
3.999580e+02 -2.800020e+03 -5.789350e+00
-1.647380e-02 -2.400000e+03 -7.019150e+00
3.999810e+02 -2.400010e+03 -6.977770e+00
-3.999910e+02 -2.401130e+03 -4.069150e+02
4.207430e-02 -2.401130e+03 -4.069200e+02
-4.000240e+02 -2.001150e+03 -4.080330e+02
1.839370e-02 -2.001190e+03 -4.080130e+02
-4.000130e+02 -2.399980e+03 -6.988580e+00
-1.647380e-02 -2.400000e+03 -7.019150e+00
-4.000040e+02 -2.000000e+03 -8.099100e+00
-7.750350e-03 -2.000010e+03 -8.113030e+00
4.207430e-02 -2.401130e+03 -4.069200e+02
4.000750e+02 -2.401170e+03 -4.068220e+02
1.839370e-02 -2.001190e+03 -4.080130e+02
4.000610e+02 -2.001220e+03 -4.079130e+02
-1.647380e-02 -2.400000e+03 -7.019150e+00
3.999810e+02 -2.400010e+03 -6.977770e+00
-7.750350e-03 -2.000010e+03 -8.113030e+00
3.999890e+02 -2.000030e+03 -8.055130e+00
-4.000240e+02 -2.001150e+03 -4.080330e+02
1.839370e-02 -2.001190e+03 -4.080130e+02
-3.999800e+02 -1.601220e+03 -4.091860e+02
3.431020e-02 -1.601260e+03 -4.091760e+02
-4.000040e+02 -2.000000e+03 -8.099100e+00
-7.750350e-03 -2.000010e+03 -8.113030e+00
-3.999970e+02 -1.600020e+03 -9.286210e+00
-6.230500e-03 -1.600010e+03 -9.283300e+00
1.839370e-02 -2.001190e+03 -4.080130e+02
4.000610e+02 -2.001220e+03 -4.079130e+02
3.431020e-02 -1.601260e+03 -4.091760e+02
4.000480e+02 -1.601280e+03 -4.091210e+02
-7.750350e-03 -2.000010e+03 -8.113030e+00
3.999890e+02 -2.000030e+03 -8.055130e+00
-6.230500e-03 -1.600010e+03 -9.283300e+00
3.999850e+02 -1.600010e+03 -9.282530e+00
-3.999800e+02 -1.601220e+03 -4.091860e+02
3.431020e-02 -1.601260e+03 -4.091760e+02
-4.000270e+02 -1.201270e+03 -4.103740e+02
-2.341020e-02 -1.201260e+03 -4.104600e+02
-3.999970e+02 -1.600020e+03 -9.286210e+00
-6.230500e-03 -1.600010e+03 -9.283300e+00
-3.999740e+02 -1.199990e+03 -1.051740e+01
2.118410e-03 -1.200000e+03 -1.054180e+01
3.431020e-02 -1.601260e+03 -4.091760e+02
4.000480e+02 -1.601280e+03 -4.091210e+02
-2.341020e-02 -1.201260e+03 -4.104600e+02
3.999800e+02 -1.201230e+03 -4.104800e+02
-6.230500e-03 -1.600010e+03 -9.283300e+00
3.999850e+02 -1.600010e+03 -9.282530e+00
2.118410e-03 -1.200000e+03 -1.054180e+01
3.999780e+02 -1.199990e+03 -1.060400e+01
-4.000270e+02 -1.201270e+03 -4.103740e+02
-2.341020e-02 -1.201260e+03 -4.104600e+02
-4.001170e+02 -8.012140e+02 -4.115680e+02
-1.285300e-01 -8.012050e+02 -4.117060e+02
-3.999740e+02 -1.199990e+03 -1.051740e+01
2.118410e-03 -1.200000e+03 -1.054180e+01
-3.999640e+02 -7.999670e+02 -1.169740e+01
6.316280e-03 -7.999750e+02 -1.177080e+01
-2.341020e-02 -1.201260e+03 -4.104600e+02
3.999800e+02 -1.201230e+03 -4.104800e+02
-1.285300e-01 -8.012050e+02 -4.117060e+02
3.998600e+02 -8.011810e+02 -4.117950e+02
2.118410e-03 -1.200000e+03 -1.054180e+01
3.999780e+02 -1.199990e+03 -1.060400e+01
6.316280e-03 -7.999750e+02 -1.177080e+01
3.999770e+02 -7.999810e+02 -1.189730e+01
-4.001170e+02 -8.012140e+02 -4.115680e+02
-1.285300e-01 -8.012050e+02 -4.117060e+02
-4.000640e+02 -4.012120e+02 -4.129460e+02
-7.485970e-02 -4.012060e+02 -4.130350e+02
-3.999640e+02 -7.999670e+02 -1.169740e+01
6.316280e-03 -7.999750e+02 -1.177080e+01
-3.999820e+02 -3.999890e+02 -1.291640e+01
9.017070e-03 -3.999870e+02 -1.296270e+01
-1.285300e-01 -8.012050e+02 -4.117060e+02
3.998600e+02 -8.011810e+02 -4.117950e+02
-7.485970e-02 -4.012060e+02 -4.130350e+02
3.999150e+02 -4.011980e+02 -4.130990e+02
6.316280e-03 -7.999750e+02 -1.177080e+01
3.999770e+02 -7.999810e+02 -1.189730e+01
9.017070e-03 -3.999870e+02 -1.296270e+01
4.000010e+02 -4.000020e+02 -1.302320e+01
-4.000640e+02 -4.012120e+02 -4.129460e+02
-7.485970e-02 -4.012060e+02 -4.130350e+02
-4.000030e+02 -1.212520e+00 -4.142490e+02
-1.426350e-04 -1.175520e+00 -4.142650e+02
-3.999820e+02 -3.999890e+02 -1.291640e+01
9.017070e-03 -3.999870e+02 -1.296270e+01
-4.000050e+02 -5.969530e-02 -1.420740e+01
3.526660e-03 -5.994470e-02 -1.422660e+01
-7.485970e-02 -4.012060e+02 -4.130350e+02
3.999150e+02 -4.011980e+02 -4.130990e+02
[...]
<PointData>
<DataArray type="Float32" Name="V1" format="ascii">
0.000000e+00
0.000000e+00
-6.078840e-03
-2.522070e-02
0.000000e+00
0.000000e+00
-8.226490e-04
-1.654040e-02
0.000000e+00
0.000000e+00
-2.522070e-02
-4.615840e-02
0.000000e+00
0.000000e+00
-1.654040e-02
-3.205630e-02
-6.078840e-03
-2.522070e-02
2.832400e-02
-4.636840e-02
-8.226490e-04
-1.654040e-02
1.036220e-02
1.330650e-02
-2.522070e-02
-4.615840e-02
-4.636840e-02
-1.199770e-01
-1.654040e-02
-3.205630e-02
1.330650e-02
1.692480e-02
2.832400e-02
-4.636840e-02
7.903560e-02
2.896250e-03
1.036220e-02
1.330650e-02
-2.349400e-02
9.075830e-03
-4.636840e-02
-1.199770e-01
2.896250e-03
-7.192000e-02
1.330650e-02
1.692480e-02
9.075830e-03
4.048300e-02
7.903560e-02
2.896250e-03
6.881870e-02
6.027690e-02
-2.349400e-02
9.075830e-03
-3.187350e-02
-1.476950e-02
2.896250e-03
-7.192000e-02
6.027690e-02
5.043500e-02
9.075830e-03
4.048300e-02
-1.476950e-02
2.284620e-03
6.881870e-02
6.027690e-02
-3.819740e-02
5.851340e-04
-3.187350e-02
-1.476950e-02
2.751610e-02
2.992300e-02
6.027690e-02
5.043500e-02
5.851340e-04
4.041120e-02
-1.476950e-02
2.284620e-03
2.992300e-02
3.167040e-02
-3.819740e-02
5.851340e-04
4.122770e-02
1.822210e-02
2.751610e-02
2.992300e-02
-9.994030e-03
-6.777710e-03
5.851340e-04
4.041120e-02
1.822210e-02
-3.281010e-03
2.992300e-02
3.167040e-02
-6.777710e-03
-2.577660e-03
4.122770e-02
1.822210e-02
1.834580e-02
-2.321430e-02
-9.994030e-03
-6.777710e-03
-6.273800e-04
-6.236230e-03
1.822210e-02
-3.281010e-03
-2.321430e-02
-6.393280e-02
-6.777710e-03
-2.577660e-03
-6.236230e-03
-1.029950e-02
1.834580e-02
-2.321430e-02
5.824330e-02
2.836040e-02
-6.273800e-04
-6.236230e-03
1.632060e-03
-7.990850e-03
-2.321430e-02
-6.393280e-02
2.836040e-02
-7.121520e-04
-6.236230e-03
-1.029950e-02
-7.990850e-03
-1.578380e-02
5.824330e-02
2.836040e-02
-2.211390e-03
1.169850e-02
1.632060e-03
-7.990850e-03
-5.784350e-03
-1.804610e-02
2.836040e-02
-7.121520e-04
1.169850e-02
2.854220e-02
-7.990850e-03
-1.578380e-02
-1.804610e-02
-2.960530e-02
-2.211390e-03
1.169850e-02
-2.513560e-02
4.837440e-03
-5.784350e-03
-1.804610e-02
2.211230e-03
-1.520260e-02
1.169850e-02
2.854220e-02
4.837440e-03
3.453840e-02
-1.804610e-02
-2.960530e-02
-1.520260e-02
-3.253020e-02
-2.513560e-02
4.837440e-03
-2.094870e-02
-2.797640e-02
2.211230e-03
-1.520260e-02
1.263050e-03
-8.938640e-03
4.837440e-03
3.453840e-02
-2.797640e-02
-3.620580e-02
-1.520260e-02
-3.253020e-02
-8.938640e-03
-1.882710e-02
-2.094870e-02
-2.797640e-02
9.240520e-03
3.296840e-03
1.263050e-03
-8.938640e-03
2.082420e-02
1.624280e-02
-2.797640e-02
-3.620580e-02
3.296840e-03
-1.748140e-03
-8.938640e-03
-1.882710e-02
1.624280e-02
1.262210e-02
9.240520e-03
3.296840e-03
9.191280e-02
9.821540e-02
2.082420e-02
1.624280e-02
1.443550e-02
5.109440e-03
3.296840e-03
-1.748140e-03
9.821540e-02
1.037360e-01
1.624280e-02
1.262210e-02
5.109440e-03
-3.793880e-03
9.191280e-02
9.821540e-02
-1.390440e-02
-1.435000e-02
1.443550e-02
5.109440e-03
1.834850e-02
7.733680e-03
9.821540e-02
1.037360e-01
-1.435000e-02
-1.710740e-02
5.109440e-03
-3.793880e-03
7.733680e-03
-2.799670e-03
-1.390440e-02
-1.435000e-02
-1.155570e-02
-2.168640e-02
1.834850e-02
7.733680e-03
-1.901900e-02
-9.889010e-03
-1.435000e-02
-1.710740e-02
-2.168640e-02
-3.100420e-02
7.733680e-03
-2.799670e-03
-9.889010e-03
-6.343980e-04
-1.155570e-02
-2.168640e-02
2.423070e-03
5.435160e-03
-1.901900e-02
-9.889010e-03
-5.854810e-02
-3.085670e-02
-2.168640e-02
-3.100420e-02
5.435160e-03
1.179650e-02
-9.889010e-03
-6.343980e-04
-3.085670e-02
-3.097790e-03
2.423070e-03
5.435160e-03
-4.055570e-03
-3.293320e-02
-5.854810e-02
-3.085670e-02
-2.959220e-02
-1.133120e-02
5.435160e-03
1.179650e-02
-3.293320e-02
-6.207790e-02
-3.085670e-02
-3.097790e-03
-1.133120e-02
7.575230e-03
-4.055570e-03
-3.293320e-02
-1.335940e-02
-2.939350e-02
-2.959220e-02
-1.133120e-02
-5.549870e-03
5.260480e-03
-3.293320e-02
-6.207790e-02
-2.939350e-02
-4.429060e-02
-1.133120e-02
7.575230e-03
5.260480e-03
1.533500e-02
-1.335940e-02
-2.939350e-02
-4.990900e-02
-4.615830e-02
-5.549870e-03
5.260480e-03
-1.984300e-02
-9.298460e-03
-2.939350e-02
-4.429060e-02
-4.615830e-02
-4.161600e-02
5.260480e-03
1.533500e-02
-9.298460e-03
1.330380e-03
-4.990900e-02
-4.615830e-02
4.155700e-03
-8.613540e-03
-1.984300e-02
-9.298460e-03
-2.183640e-02
-6.290020e-04
-4.615830e-02
-4.161600e-02
-8.613540e-03
-2.358360e-02
-9.298460e-03
1.330380e-03
-6.290020e-04
2.200230e-02
4.155700e-03
-8.613540e-03
4.208130e-02
-4.926410e-03
-2.183640e-02
-6.290020e-04
-2.488700e-02
-4.211980e-03
-8.613540e-03
-2.358360e-02
-4.926410e-03
-5.358690e-02
-6.290020e-04
2.200230e-02
-4.211980e-03
1.651150e-02
4.208130e-02
-4.926410e-03
3.993270e-02
4.665640e-02
-2.488700e-02
-4.211980e-03
-2.605010e-02
-2.575300e-02
-4.926410e-03
-5.358690e-02
4.665640e-02
5.425210e-02
-4.211980e-03
1.651150e-02
-2.575300e-02
-2.591580e-02
3.993270e-02
4.665640e-02
4.011410e-02
5.656100e-02
-2.605010e-02
-2.575300e-02
7.536940e-03
-3.214580e-03
4.665640e-02
5.425210e-02
5.656100e-02
7.180970e-02
-2.575300e-02
-2.591580e-02
-3.214580e-03
-1.318610e-02
4.011410e-02
5.656100e-02
3.231220e-02
1.612980e-02
7.536940e-03
-3.214580e-03
2.127860e-02
1.111420e-02
5.656100e-02
7.180970e-02
1.612980e-02
4.227020e-04
-3.214580e-03
-1.318610e-02
1.111420e-02
4.070430e-04
3.231220e-02
1.612980e-02
4.955460e-02
4.687930e-02
2.127860e-02
1.111420e-02
1.691350e-02
3.667570e-03
1.612980e-02
4.227020e-04
4.687930e-02
4.473740e-02
1.111420e-02
4.070430e-04
3.667570e-03
-9.495740e-03
4.955460e-02
4.687930e-02
8.508180e-04
4.281640e-02
1.691350e-02
3.667570e-03
2.871280e-02
4.997530e-03
4.687930e-02
4.473740e-02
4.281640e-02
8.155040e-02
3.667570e-03
-9.495740e-03
4.997530e-03
-1.826930e-02
8.508180e-04
4.281640e-02
-1.083320e-01
-4.747880e-02
2.871280e-02
4.997530e-03
7.634140e-02
3.862930e-02
4.281640e-02
8.155040e-02
-4.747880e-02
9.890570e-03
4.997530e-03
-1.826930e-02
3.862930e-02
1.808440e-04
-1.083320e-01
-4.747880e-02
-7.160420e-02
-5.490500e-02
7.634140e-02
3.862930e-02
1.442850e-02
-3.595120e-03
-4.747880e-02
9.890570e-03
-5.490500e-02
-3.642180e-02
3.862930e-02
1.808440e-04
-3.595120e-03
-2.146540e-02
-7.160420e-02
-5.490500e-02
1.637540e-02
1.823100e-02
1.442850e-02
-3.595120e-03
-1.230280e-02
-5.826560e-03
-5.490500e-02
-3.642180e-02
1.823100e-02
2.089780e-02
-3.595120e-03
-2.146540e-02
-5.826560e-03
1.389660e-03
1.637540e-02
1.823100e-02
6.050340e-02
4.872700e-02
-1.230280e-02
-5.826560e-03
-1.921720e-02
-2.461150e-03
1.823100e-02
2.089780e-02
4.872700e-02
3.836280e-02
-5.826560e-03
1.389660e-03
-2.461150e-03
1.385260e-02
0.000000e+00
0.000000e+00
-8.226490e-04
-1.654040e-02
0.000000e+00
0.000000e+00
4.930640e-03
5.413770e-02
0.000000e+00
0.000000e+00
-1.654040e-02
-3.205630e-02
0.000000e+00
0.000000e+00
5.413770e-02
1.049430e-01
-8.226490e-04
-1.654040e-02
1.036220e-02
1.330650e-02
4.930640e-03
5.413770e-02
-4.995580e-02
1.982310e-02
-1.654040e-02
-3.205630e-02
1.330650e-02
1.692480e-02
5.413770e-02
1.049430e-01
1.982310e-02
8.717830e-02
1.036220e-02
1.330650e-02
-2.349400e-02
9.075830e-03
-4.995580e-02
1.982310e-02
-3.209780e-02
-2.145590e-02
1.330650e-02
1.692480e-02
9.075830e-03
4.048300e-02
1.982310e-02
8.717830e-02
-2.145590e-02
-1.149220e-02
-2.349400e-02
9.075830e-03
-3.187350e-02
-1.476950e-02
-3.209780e-02
-2.145590e-02
-5.645180e-03
-3.046620e-02
9.075830e-03
4.048300e-02
-1.476950e-02
2.284620e-03
-2.145590e-02
-1.149220e-02
-3.046620e-02
-5.408320e-02
-3.187350e-02
-1.476950e-02
2.751610e-02
2.992300e-02
-5.645180e-03
-3.046620e-02
-1.224450e-02
-5.954190e-02
-1.476950e-02
2.284620e-03
2.992300e-02
3.167040e-02
-3.046620e-02
-5.408320e-02
-5.954190e-02
-1.063330e-01
2.751610e-02
2.992300e-02
-9.994030e-03
-6.777710e-03
-1.224450e-02
-5.954190e-02
-2.176270e-02
-5.451070e-03
2.992300e-02
3.167040e-02
-6.777710e-03
-2.577660e-03
-5.954190e-02
-1.063330e-01
-5.451070e-03
1.163670e-02
-9.994030e-03
-6.777710e-03
-6.273800e-04
-6.236230e-03
-2.176270e-02
-5.451070e-03
-2.047400e-02
2.975500e-02
-6.777710e-03
-2.577660e-03
-6.236230e-03
-1.029950e-02
-5.451070e-03
1.163670e-02
2.975500e-02
8.243390e-02
-6.273800e-04
-6.236230e-03
1.632060e-03
-7.990850e-03
-2.047400e-02
2.975500e-02
-5.712270e-02
-1.197310e-02
-6.236230e-03
-1.029950e-02
-7.990850e-03
-1.578380e-02
2.975500e-02
8.243390e-02
-1.197310e-02
3.369150e-02
1.632060e-03
-7.990850e-03
-5.784350e-03
-1.804610e-02
-5.712270e-02
-1.197310e-02
1.944140e-02
2.599980e-02
-7.990850e-03
-1.578380e-02
-1.804610e-02
-2.960530e-02
-1.197310e-02
3.369150e-02
2.599980e-02
3.096330e-02
-5.784350e-03
-1.804610e-02
2.211230e-03
-1.520260e-02
1.944140e-02
2.599980e-02
1.841060e-02
2.328660e-02
-1.804610e-02
-2.960530e-02
-1.520260e-02
-3.253020e-02
2.599980e-02
3.096330e-02
2.328660e-02
2.856080e-02
2.211230e-03
-1.520260e-02
1.263050e-03
-8.938640e-03
1.841060e-02
2.328660e-02
2.028660e-02
4.835400e-02
-1.520260e-02
-3.253020e-02
-8.938640e-03
-1.882710e-02
2.328660e-02
2.856080e-02
4.835400e-02
7.906470e-02
1.263050e-03
-8.938640e-03
2.082420e-02
1.624280e-02
2.028660e-02
4.835400e-02
-5.252170e-02
-3.921570e-02
-8.938640e-03
-1.882710e-02
1.624280e-02
1.262210e-02
4.835400e-02
7.906470e-02
-3.921570e-02
-2.555790e-02
2.082420e-02
1.624280e-02
1.443550e-02
5.109440e-03
-5.252170e-02
-3.921570e-02
-1.181080e-01
-1.064220e-01
1.624280e-02
1.262210e-02
5.109440e-03
-3.793880e-03
-3.921570e-02
-2.555790e-02
-1.064220e-01
-9.383130e-02
1.443550e-02
5.109440e-03
1.834850e-02
7.733680e-03
-1.181080e-01
-1.064220e-01
-2.511550e-02
-2.952070e-03
5.109440e-03
-3.793880e-03
7.733680e-03
-2.799670e-03
-1.064220e-01
-9.383130e-02
-2.952070e-03
2.089740e-02
1.834850e-02
7.733680e-03
-1.901900e-02
-9.889010e-03
-2.511550e-02
-2.952070e-03
5.210940e-02
4.404080e-02
7.733680e-03
-2.799670e-03
-9.889010e-03
-6.343980e-04
-2.952070e-03
2.089740e-02
4.404080e-02
3.380830e-02
-1.901900e-02
-9.889010e-03
-5.854810e-02
-3.085670e-02
5.210940e-02
4.404080e-02
1.110280e-01
5.524360e-02
-9.889010e-03
-6.343980e-04
-3.085670e-02
-3.097790e-03
4.404080e-02
3.380830e-02
5.524360e-02
-3.088690e-03
-5.854810e-02
-3.085670e-02
-2.959220e-02
-1.133120e-02
1.110280e-01
5.524360e-02
6.191260e-02
5.248740e-02
-3.085670e-02
-3.097790e-03
-1.133120e-02
7.575230e-03
5.524360e-02
-3.088690e-03
5.248740e-02
4.388690e-02
-2.959220e-02
-1.133120e-02
-5.549870e-03
5.260480e-03
6.191260e-02
5.248740e-02
2.745850e-02
2.216400e-02
-1.133120e-02
7.575230e-03
5.260480e-03
1.533500e-02
5.248740e-02
4.388690e-02
2.216400e-02
1.855550e-02
-5.549870e-03
5.260480e-03
-1.984300e-02
-9.298460e-03
2.745850e-02
2.216400e-02
8.738850e-02
6.293910e-02
5.260480e-03
1.533500e-02
-9.298460e-03
1.330380e-03
2.216400e-02
1.855550e-02
6.293910e-02
3.774360e-02
-1.984300e-02
-9.298460e-03
-2.183640e-02
-6.290020e-04
8.738850e-02
6.293910e-02
3.766990e-02
8.514510e-03
-9.298460e-03
1.330380e-03
-6.290020e-04
2.200230e-02
6.293910e-02
3.774360e-02
8.514510e-03
-2.038240e-02
-2.183640e-02
-6.290020e-04
-2.488700e-02
-4.211980e-03
3.766990e-02
8.514510e-03
9.636440e-03
1.468820e-02
-6.290020e-04
2.200230e-02
-4.211980e-03
1.651150e-02
8.514510e-03
-2.038240e-02
1.468820e-02
2.106100e-02
-2.488700e-02
-4.211980e-03
-2.605010e-02
-2.575300e-02
9.636440e-03
1.468820e-02
7.387350e-03
3.417320e-03
-4.211980e-03
1.651150e-02
-2.575300e-02
-2.591580e-02
1.468820e-02
2.106100e-02
3.417320e-03
-3.703910e-03
-2.605010e-02
-2.575300e-02
7.536940e-03
-3.214580e-03
7.387350e-03
3.417320e-03
-5.402160e-02
-4.888050e-02
-2.575300e-02
-2.591580e-02
-3.214580e-03
-1.318610e-02
3.417320e-03
-3.703910e-03
-4.888050e-02
-4.430540e-02
7.536940e-03
-3.214580e-03
2.127860e-02
1.111420e-02
-5.402160e-02
-4.888050e-02
-7.221660e-02
-3.539540e-02
-3.214580e-03
-1.318610e-02
1.111420e-02
4.070430e-04
-4.888050e-02
-4.430540e-02
-3.539540e-02
-2.543250e-04
2.127860e-02
1.111420e-02
1.691350e-02
3.667570e-03
-7.221660e-02
-3.539540e-02
-8.339550e-02
-5.434580e-02
1.111420e-02
4.070430e-04
3.667570e-03
-9.495740e-03
-3.539540e-02
-2.543250e-04
-5.434580e-02
-2.647510e-02
1.691350e-02
3.667570e-03
2.871280e-02
4.997530e-03
-8.339550e-02
-5.434580e-02
-5.991770e-02
-5.394640e-02
3.667570e-03
-9.495740e-03
4.997530e-03
-1.826930e-02
-5.434580e-02
-2.647510e-02
-5.394640e-02
-4.620370e-02
2.871280e-02
4.997530e-03
7.634140e-02
3.862930e-02
-5.991770e-02
-5.394640e-02
-4.602440e-02
-3.015490e-02
4.997530e-03
-1.826930e-02
3.862930e-02
1.808440e-04
-5.394640e-02
-4.620370e-02
-3.015490e-02
-1.245680e-02
7.634140e-02
3.862930e-02
1.442850e-02
-3.595120e-03
-4.602440e-02
-3.015490e-02
4.267550e-02
6.221150e-02
3.862930e-02
1.808440e-04
-3.595120e-03
-2.146540e-02
-3.015490e-02
-1.245680e-02
6.221150e-02
7.918870e-02
1.442850e-02
-3.595120e-03
-1.230280e-02
-5.826560e-03
4.267550e-02
6.221150e-02
7.673930e-03
-7.384880e-03
-3.595120e-03
-2.146540e-02
-5.826560e-03
1.389660e-03
6.221150e-02
7.918870e-02
-7.384880e-03
-2.316100e-02
-1.230280e-02
-5.826560e-03
-1.921720e-02
-2.461150e-03
7.673930e-03
-7.384880e-03
-1.684120e-02
-4.168110e-02
-5.826560e-03
1.389660e-03
-2.461150e-03
1.385260e-02
-7.384880e-03
-2.316100e-02
-4.168110e-02
-6.510530e-02
</DataArray>
<DataArray type="Float32" Name="V2" format="ascii">
0.000000e+00
0.000000e+00
-1.580270e-03
9.884310e-03
0.000000e+00
0.000000e+00
3.771060e-03
2.338370e-02
0.000000e+00
0.000000e+00
9.884310e-03
9.872240e-02
0.000000e+00
0.000000e+00
2.338370e-02
1.863160e-02
-1.580270e-03
9.884310e-03
-6.387860e-02
-5.028460e-02
3.771060e-03
2.338370e-02
5.256790e-02
8.170170e-02
9.884310e-03
9.872240e-02
-5.028460e-02
-1.578710e-02
2.338370e-02
1.863160e-02
8.170170e-02
8.489670e-02
-6.387860e-02
-5.028460e-02
1.625940e-02
-7.758900e-03
5.256790e-02
8.170170e-02
2.528370e-02
2.703790e-02
-5.028460e-02
-1.578710e-02
-7.758900e-03
-1.130070e-01
8.170170e-02
8.489670e-02
2.703790e-02
4.166550e-02
1.625940e-02
-7.758900e-03
2.566860e-01
1.863890e-01
2.528370e-02
2.703790e-02
-9.780430e-02
-9.249970e-02
-7.758900e-03
-1.130070e-01
1.863890e-01
6.477950e-02
2.703790e-02
4.166550e-02
-9.249970e-02
-8.422090e-02
2.566860e-01
1.863890e-01
2.382240e-01
1.665860e-01
-9.780430e-02
-9.249970e-02
-1.015540e-01
-9.333800e-02
1.863890e-01
6.477950e-02
1.665860e-01
1.251370e-01
-9.249970e-02
-8.422090e-02
-9.333800e-02
-1.044950e-01
2.382240e-01
1.665860e-01
4.930490e-03
3.430020e-02
-1.015540e-01
-9.333800e-02
4.133650e-02
2.450750e-02
1.665860e-01
1.251370e-01
3.430020e-02
7.772650e-02
-9.333800e-02
-1.044950e-01
2.450750e-02
2.959150e-02
4.930490e-03
3.430020e-02
-1.221110e-01
-7.971250e-02
4.133650e-02
2.450750e-02
1.409830e-01
1.106080e-01
3.430020e-02
7.772650e-02
-7.971250e-02
-2.644580e-02
2.450750e-02
2.959150e-02
1.106080e-01
1.095340e-01
-1.221110e-01
-7.971250e-02
-1.870070e-01
-1.548940e-01
1.409830e-01
1.106080e-01
9.395260e-02
9.014210e-02
-7.971250e-02
-2.644580e-02
-1.548940e-01
-9.008280e-02
1.106080e-01
1.095340e-01
9.014210e-02
7.581400e-02
-1.870070e-01
-1.548940e-01
-1.023570e-01
-1.116170e-02
9.395260e-02
9.014210e-02
2.688960e-03
-1.809130e-02
-1.548940e-01
-9.008280e-02
-1.116170e-02
4.509970e-02
9.014210e-02
7.581400e-02
-1.809130e-02
-2.432790e-02
-1.023570e-01
-1.116170e-02
-1.180860e-01
-3.549950e-02
2.688960e-03
-1.809130e-02
-7.285940e-02
-9.108980e-02
-1.116170e-02
4.509970e-02
-3.549950e-02
4.102920e-02
-1.809130e-02
-2.432790e-02
-9.108980e-02
-9.576850e-02
-1.180860e-01
-3.549950e-02
-1.367560e-01
-1.208030e-01
-7.285940e-02
-9.108980e-02
-7.631370e-02
-4.477460e-02
-3.549950e-02
4.102920e-02
-1.208030e-01
-5.772800e-02
-9.108980e-02
-9.576850e-02
-4.477460e-02
-4.847610e-02
-1.367560e-01
-1.208030e-01
-9.693910e-02
-1.267530e-01
-7.631370e-02
-4.477460e-02
3.604020e-02
3.454600e-02
-1.208030e-01
-5.772800e-02
-1.267530e-01
-1.177680e-01
-4.477460e-02
-4.847610e-02
3.454600e-02
3.461960e-02
-9.693910e-02
-1.267530e-01
-2.906550e-02
-8.551260e-02
3.604020e-02
3.454600e-02
5.942540e-02
5.050740e-02
-1.267530e-01
-1.177680e-01
-8.551260e-02
-7.807400e-02
3.454600e-02
3.461960e-02
5.050740e-02
6.620890e-02
-2.906550e-02
-8.551260e-02
2.897060e-02
1.848770e-02
5.942540e-02
5.050740e-02
-3.444890e-02
-2.870650e-02
-8.551260e-02
-7.807400e-02
1.848770e-02
3.844880e-02
5.050740e-02
6.620890e-02
-2.870650e-02
-1.848380e-02
2.897060e-02
1.848770e-02
9.275850e-02
8.905520e-02
-3.444890e-02
-2.870650e-02
-1.925520e-02
-4.916260e-02
1.848770e-02
3.844880e-02
8.905520e-02
3.249180e-02
-2.870650e-02
-1.848380e-02
-4.916260e-02
-6.322000e-02
9.275850e-02
8.905520e-02
5.339340e-02
6.488820e-02
-1.925520e-02
-4.916260e-02
-2.627420e-02
-2.866280e-02
8.905520e-02
3.249180e-02
6.488820e-02
2.151850e-02
-4.916260e-02
-6.322000e-02
-2.866280e-02
-8.252680e-03
5.339340e-02
6.488820e-02
-4.054780e-03
-3.840880e-02
-2.627420e-02
-2.866280e-02
-3.898830e-02
-1.471900e-02
6.488820e-02
2.151850e-02
-3.840880e-02
-3.202800e-02
-2.866280e-02
-8.252680e-03
-1.471900e-02
-1.430070e-02
-4.054780e-03
-3.840880e-02
1.742910e-02
-3.859290e-02
-3.898830e-02
-1.471900e-02
-3.643430e-03
1.203280e-02
-3.840880e-02
-3.202800e-02
-3.859290e-02
-8.006970e-02
-1.471900e-02
-1.430070e-02
1.203280e-02
1.095780e-02
1.742910e-02
-3.859290e-02
8.005130e-03
-4.533550e-02
-3.643430e-03
1.203280e-02
4.933380e-02
4.400250e-02
-3.859290e-02
-8.006970e-02
-4.533550e-02
-1.390150e-01
1.203280e-02
1.095780e-02
4.400250e-02
5.095660e-02
8.005130e-03
-4.533550e-02
-4.991230e-03
-2.131960e-02
4.933380e-02
4.400250e-02
-5.525240e-03
2.357000e-02
-4.533550e-02
-1.390150e-01
-2.131960e-02
6.680080e-03
4.400250e-02
5.095660e-02
2.357000e-02
2.781750e-02
-4.991230e-03
-2.131960e-02
3.870900e-02
6.607920e-02
-5.525240e-03
2.357000e-02
-8.141520e-02
-6.895750e-02
-2.131960e-02
6.680080e-03
6.607920e-02
1.259060e-01
2.357000e-02
2.781750e-02
-6.895750e-02
-7.108530e-02
3.870900e-02
6.607920e-02
-8.908380e-02
-9.726430e-03
-8.141520e-02
-6.895750e-02
-1.707120e-02
-2.505750e-02
6.607920e-02
1.259060e-01
-9.726430e-03
6.910990e-02
-6.895750e-02
-7.108530e-02
-2.505750e-02
-3.419700e-02
-8.908380e-02
-9.726430e-03
-1.852330e-01
-1.374820e-01
-1.707120e-02
-2.505750e-02
8.576060e-02
9.549740e-02
-9.726430e-03
6.910990e-02
-1.374820e-01
-7.152320e-02
-2.505750e-02
-3.419700e-02
9.549740e-02
1.066960e-01
-1.852330e-01
-1.374820e-01
-8.039500e-02
-5.676780e-02
8.576060e-02
9.549740e-02
3.155500e-02
2.658650e-02
-1.374820e-01
-7.152320e-02
-5.676780e-02
-5.419320e-02
9.549740e-02
1.066960e-01
2.658650e-02
3.909790e-02
-8.039500e-02
-5.676780e-02
1.314440e-01
1.154550e-01
3.155500e-02
2.658650e-02
-8.629660e-02
-7.570700e-02
-5.676780e-02
-5.419320e-02
1.154550e-01
1.083920e-01
2.658650e-02
3.909790e-02
-7.570700e-02
-7.715410e-02
1.314440e-01
1.154550e-01
1.186810e-01
9.595840e-02
-8.629660e-02
-7.570700e-02
-3.755230e-02
-1.702320e-02
1.154550e-01
1.083920e-01
9.595840e-02
9.736650e-02
-7.570700e-02
-7.715410e-02
-1.702320e-02
-2.586000e-02
1.186810e-01
9.595840e-02
4.728920e-03
-8.207600e-03
-3.755230e-02
-1.702320e-02
1.442990e-03
1.877720e-02
9.595840e-02
9.736650e-02
-8.207600e-03
-3.512560e-03
-1.702320e-02
-2.586000e-02
1.877720e-02
1.445190e-02
4.728920e-03
-8.207600e-03
-7.709850e-02
-5.302630e-02
1.442990e-03
1.877720e-02
-3.645240e-03
-2.014540e-02
-8.207600e-03
-3.512560e-03
-5.302630e-02
1.433640e-03
1.877720e-02
1.445190e-02
-2.014540e-02
-3.943550e-02
-7.709850e-02
-5.302630e-02
-1.924340e-02
-1.323810e-02
-3.645240e-03
-2.014540e-02
-2.292650e-02
-2.140860e-02
-5.302630e-02
1.433640e-03
-1.323810e-02
-2.016150e-03
-2.014540e-02
-3.943550e-02
-2.140860e-02
-1.054960e-02
-1.924340e-02
-1.323810e-02
6.049340e-02
1.869730e-02
-2.292650e-02
-2.140860e-02
-5.248040e-02
1.218550e-03
-1.323810e-02
-2.016150e-03
1.869730e-02
-1.215770e-02
-2.140860e-02
-1.054960e-02
1.218550e-03
3.430150e-02
0.000000e+00
0.000000e+00
3.771060e-03
2.338370e-02
0.000000e+00
0.000000e+00
-7.123380e-03
-5.853830e-02
0.000000e+00
0.000000e+00
2.338370e-02
1.863160e-02
0.000000e+00
0.000000e+00
-5.853830e-02
-1.430470e-01
3.771060e-03
2.338370e-02
5.256790e-02
8.170170e-02
-7.123380e-03
-5.853830e-02
-4.690160e-02
-1.123290e-01
2.338370e-02
1.863160e-02
8.170170e-02
8.489670e-02
-5.853830e-02