<?xml version="1.0"?>
<VTKFile type="UnstructuredGrid" version="0.1" byte_order="LittleEndian" compressor="vtkZLibDataCompressor">
<UnstructuredGrid>
<Piece NumberOfPoints="960" NumberOfCells="120">
<Points>
<DataArray type="Float32" NumberOfComponents="3" format="ascii">
-4.000000e+02 -6.000000e+03 -4.000000e+02
0.000000e+00 -6.000000e+03 -4.000000e+02
-4.000370e+02 -5.600140e+03 -4.001960e+02
-5.553830e-02 -5.600110e+03 -4.002610e+02
-4.000000e+02 -6.000000e+03 0.000000e+00
0.000000e+00 -6.000000e+03 0.000000e+00
-3.999870e+02 -5.599970e+03 -1.914530e-01
7.118850e-03 -5.599990e+03 -2.494140e-01
0.000000e+00 -6.000000e+03 -4.000000e+02
4.000000e+02 -6.000000e+03 -4.000000e+02
-5.553830e-02 -5.600110e+03 -4.002610e+02
3.999260e+02 -5.600070e+03 -4.003750e+02
0.000000e+00 -6.000000e+03 0.000000e+00
4.000000e+02 -6.000000e+03 0.000000e+00
7.118850e-03 -5.599990e+03 -2.494140e-01
4.000010e+02 -5.599990e+03 -3.447060e-01
-4.000370e+02 -5.600140e+03 -4.001960e+02
-5.553830e-02 -5.600110e+03 -4.002610e+02
-4.000270e+02 -5.200280e+03 -4.005320e+02
-5.922560e-02 -5.200260e+03 -4.005140e+02
-3.999870e+02 -5.599970e+03 -1.914530e-01
7.118850e-03 -5.599990e+03 -2.494140e-01
-4.000020e+02 -5.199980e+03 -4.767180e-01
-1.802290e-03 -5.199980e+03 -4.792850e-01
-5.553830e-02 -5.600110e+03 -4.002610e+02
3.999260e+02 -5.600070e+03 -4.003750e+02
-5.922560e-02 -5.200260e+03 -4.005140e+02
3.999080e+02 -5.200230e+03 -4.005700e+02
7.118850e-03 -5.599990e+03 -2.494140e-01
4.000010e+02 -5.599990e+03 -3.447060e-01
-1.802290e-03 -5.199980e+03 -4.792850e-01
3.999980e+02 -5.199990e+03 -5.220090e-01
-4.000270e+02 -5.200280e+03 -4.005320e+02
-5.922560e-02 -5.200260e+03 -4.005140e+02
-3.999900e+02 -4.800400e+03 -4.010250e+02
1.950750e-03 -4.800420e+03 -4.009550e+02
-4.000020e+02 -5.199980e+03 -4.767180e-01
-1.802290e-03 -5.199980e+03 -4.792850e-01
-4.000270e+02 -4.800000e+03 -9.101080e-01
-1.594260e-02 -4.800000e+03 -8.987020e-01
-5.922560e-02 -5.200260e+03 -4.005140e+02
3.999080e+02 -5.200230e+03 -4.005700e+02
1.950750e-03 -4.800420e+03 -4.009550e+02
3.999940e+02 -4.800470e+03 -4.009350e+02
-1.802290e-03 -5.199980e+03 -4.792850e-01
3.999980e+02 -5.199990e+03 -5.220090e-01
-1.594260e-02 -4.800000e+03 -8.987020e-01
3.999950e+02 -4.800000e+03 -8.903590e-01
-3.999900e+02 -4.800400e+03 -4.010250e+02
1.950750e-03 -4.800420e+03 -4.009550e+02
-3.999720e+02 -4.400460e+03 -4.013930e+02
4.612090e-02 -4.400480e+03 -4.013500e+02
-4.000270e+02 -4.800000e+03 -9.101080e-01
-1.594260e-02 -4.800000e+03 -8.987020e-01
-4.000240e+02 -4.400030e+03 -1.325710e+00
-1.246580e-02 -4.400020e+03 -1.332040e+00
1.950750e-03 -4.800420e+03 -4.009550e+02
3.999940e+02 -4.800470e+03 -4.009350e+02
4.612090e-02 -4.400480e+03 -4.013500e+02
4.000640e+02 -4.400520e+03 -4.013280e+02
-1.594260e-02 -4.800000e+03 -8.987020e-01
3.999950e+02 -4.800000e+03 -8.903590e-01
-1.246580e-02 -4.400020e+03 -1.332040e+00
3.999990e+02 -4.400010e+03 -1.303930e+00
-3.999720e+02 -4.400460e+03 -4.013930e+02
4.612090e-02 -4.400480e+03 -4.013500e+02
-3.999450e+02 -4.000510e+03 -4.018800e+02
6.632870e-02 -4.000520e+03 -4.017960e+02
-4.000240e+02 -4.400030e+03 -1.325710e+00
-1.246580e-02 -4.400020e+03 -1.332040e+00
-4.000080e+02 -4.000010e+03 -1.929410e+00
5.733730e-03 -4.000010e+03 -1.854120e+00
4.612090e-02 -4.400480e+03 -4.013500e+02
4.000640e+02 -4.400520e+03 -4.013280e+02
6.632870e-02 -4.000520e+03 -4.017960e+02
4.000780e+02 -4.000510e+03 -4.017550e+02
-1.246580e-02 -4.400020e+03 -1.332040e+00
3.999990e+02 -4.400010e+03 -1.303930e+00
5.733730e-03 -4.000010e+03 -1.854120e+00
4.000200e+02 -4.000010e+03 -1.749860e+00
-3.999450e+02 -4.000510e+03 -4.018800e+02
6.632870e-02 -4.000520e+03 -4.017960e+02
-3.998180e+02 -3.600480e+03 -4.025800e+02
1.645660e-01 -3.600500e+03 -4.023530e+02
-4.000080e+02 -4.000010e+03 -1.929410e+00
5.733730e-03 -4.000010e+03 -1.854120e+00
-4.000210e+02 -3.599970e+03 -2.557060e+00
-3.115080e-03 -3.599980e+03 -2.379430e+00
6.632870e-02 -4.000520e+03 -4.017960e+02
4.000780e+02 -4.000510e+03 -4.017550e+02
1.645660e-01 -3.600500e+03 -4.023530e+02
4.001470e+02 -3.600500e+03 -4.022050e+02
5.733730e-03 -4.000010e+03 -1.854120e+00
4.000200e+02 -4.000010e+03 -1.749860e+00
-3.115080e-03 -3.599980e+03 -2.379430e+00
4.000140e+02 -3.599990e+03 -2.208260e+00
-3.998180e+02 -3.600480e+03 -4.025800e+02
1.645660e-01 -3.600500e+03 -4.023530e+02
-3.997780e+02 -3.200470e+03 -4.030630e+02
1.828500e-01 -3.200490e+03 -4.028280e+02
-4.000210e+02 -3.599970e+03 -2.557060e+00
-3.115080e-03 -3.599980e+03 -2.379430e+00
-4.000090e+02 -3.200010e+03 -2.980040e+00
6.993930e-04 -3.200000e+03 -2.779760e+00
1.645660e-01 -3.600500e+03 -4.023530e+02
4.001470e+02 -3.600500e+03 -4.022050e+02
1.828500e-01 -3.200490e+03 -4.028280e+02
4.001440e+02 -3.200490e+03 -4.027010e+02
-3.115080e-03 -3.599980e+03 -2.379430e+00
4.000140e+02 -3.599990e+03 -2.208260e+00
6.993930e-04 -3.200000e+03 -2.779760e+00
4.000110e+02 -3.199990e+03 -2.639140e+00
-3.997780e+02 -3.200470e+03 -4.030630e+02
1.828500e-01 -3.200490e+03 -4.028280e+02
-3.998800e+02 -2.800540e+03 -4.034150e+02
8.531450e-02 -2.800540e+03 -4.033240e+02
-4.000090e+02 -3.200010e+03 -2.980040e+00
6.993930e-04 -3.200000e+03 -2.779760e+00
-3.999930e+02 -2.800020e+03 -3.390420e+00
1.357050e-02 -2.800020e+03 -3.267510e+00
1.828500e-01 -3.200490e+03 -4.028280e+02
4.001440e+02 -3.200490e+03 -4.027010e+02
8.531450e-02 -2.800540e+03 -4.033240e+02
4.000510e+02 -2.800540e+03 -4.033230e+02
6.993930e-04 -3.200000e+03 -2.779760e+00
4.000110e+02 -3.199990e+03 -2.639140e+00
1.357050e-02 -2.800020e+03 -3.267510e+00
4.000200e+02 -2.800020e+03 -3.194170e+00
-3.998800e+02 -2.800540e+03 -4.034150e+02
8.531450e-02 -2.800540e+03 -4.033240e+02
-4.000310e+02 -2.400610e+03 -4.039130e+02
-3.356030e-02 -2.400600e+03 -4.039430e+02
-3.999930e+02 -2.800020e+03 -3.390420e+00
1.357050e-02 -2.800020e+03 -3.267510e+00
-4.000020e+02 -2.400000e+03 -3.861950e+00
9.932260e-03 -2.400010e+03 -3.883750e+00
8.531450e-02 -2.800540e+03 -4.033240e+02
4.000510e+02 -2.800540e+03 -4.033230e+02
-3.356030e-02 -2.400600e+03 -4.039430e+02
3.999630e+02 -2.400590e+03 -4.040050e+02
1.357050e-02 -2.800020e+03 -3.267510e+00
4.000200e+02 -2.800020e+03 -3.194170e+00
9.932260e-03 -2.400010e+03 -3.883750e+00
4.000220e+02 -2.400030e+03 -3.887540e+00
-4.000310e+02 -2.400610e+03 -4.039130e+02
-3.356030e-02 -2.400600e+03 -4.039430e+02
-4.001000e+02 -2.000590e+03 -4.044370e+02
-7.607660e-02 -2.000590e+03 -4.045190e+02
-4.000020e+02 -2.400000e+03 -3.861950e+00
9.932260e-03 -2.400010e+03 -3.883750e+00
-4.000160e+02 -2.000030e+03 -4.366770e+00
-7.508890e-03 -2.000040e+03 -4.480700e+00
-3.356030e-02 -2.400600e+03 -4.039430e+02
3.999630e+02 -2.400590e+03 -4.040050e+02
-7.607660e-02 -2.000590e+03 -4.045190e+02
3.999480e+02 -2.000600e+03 -4.045850e+02
9.932260e-03 -2.400010e+03 -3.883750e+00
4.000220e+02 -2.400030e+03 -3.887540e+00
-7.508890e-03 -2.000040e+03 -4.480700e+00
4.000010e+02 -2.000040e+03 -4.539200e+00
-4.001000e+02 -2.000590e+03 -4.044370e+02
-7.607660e-02 -2.000590e+03 -4.045190e+02
-4.001360e+02 -1.600590e+03 -4.048150e+02
-1.082320e-01 -1.600580e+03 -4.049700e+02
-4.000160e+02 -2.000030e+03 -4.366770e+00
-7.508890e-03 -2.000040e+03 -4.480700e+00
-4.000030e+02 -1.600030e+03 -4.857190e+00
-3.201150e-03 -1.600030e+03 -5.022690e+00
-7.607660e-02 -2.000590e+03 -4.045190e+02
3.999480e+02 -2.000600e+03 -4.045850e+02
-1.082320e-01 -1.600580e+03 -4.049700e+02
3.999190e+02 -1.600570e+03 -4.050880e+02
-7.508890e-03 -2.000040e+03 -4.480700e+00
4.000010e+02 -2.000040e+03 -4.539200e+00
-3.201150e-03 -1.600030e+03 -5.022690e+00
3.999960e+02 -1.600010e+03 -5.139520e+00
-4.001360e+02 -1.600590e+03 -4.048150e+02
-1.082320e-01 -1.600580e+03 -4.049700e+02
-4.001700e+02 -1.200590e+03 -4.053610e+02
-1.646940e-01 -1.200590e+03 -4.055620e+02
-4.000030e+02 -1.600030e+03 -4.857190e+00
-3.201150e-03 -1.600030e+03 -5.022690e+00
-3.999810e+02 -1.199980e+03 -5.393490e+00
1.203800e-02 -1.199980e+03 -5.563890e+00
-1.082320e-01 -1.600580e+03 -4.049700e+02
3.999190e+02 -1.600570e+03 -4.050880e+02
-1.646940e-01 -1.200590e+03 -4.055620e+02
3.998410e+02 -1.200560e+03 -4.057400e+02
-3.201150e-03 -1.600030e+03 -5.022690e+00
3.999960e+02 -1.600010e+03 -5.139520e+00
1.203800e-02 -1.199980e+03 -5.563890e+00
4.000050e+02 -1.199970e+03 -5.727350e+00
-4.001700e+02 -1.200590e+03 -4.053610e+02
-1.646940e-01 -1.200590e+03 -4.055620e+02
-4.001270e+02 -8.006050e+02 -4.060760e+02
-1.533510e-01 -8.005890e+02 -4.062540e+02
-3.999810e+02 -1.199980e+03 -5.393490e+00
1.203800e-02 -1.199980e+03 -5.563890e+00
-3.999950e+02 -7.999760e+02 -6.024560e+00
9.722910e-03 -7.999750e+02 -6.171260e+00
-1.646940e-01 -1.200590e+03 -4.055620e+02
3.998410e+02 -1.200560e+03 -4.057400e+02
-1.533510e-01 -8.005890e+02 -4.062540e+02
3.998200e+02 -8.005630e+02 -4.064630e+02
1.203800e-02 -1.199980e+03 -5.563890e+00
4.000050e+02 -1.199970e+03 -5.727350e+00
9.722910e-03 -7.999750e+02 -6.171260e+00
4.000140e+02 -7.999750e+02 -6.343270e+00
-4.001270e+02 -8.006050e+02 -4.060760e+02
-1.533510e-01 -8.005890e+02 -4.062540e+02
-4.001650e+02 -4.006370e+02 -4.068000e+02
-1.922850e-01 -4.005940e+02 -4.069880e+02
-3.999950e+02 -7.999760e+02 -6.024560e+00
9.722910e-03 -7.999750e+02 -6.171260e+00
-4.000040e+02 -4.000040e+02 -6.708470e+00
1.082550e-02 -4.000100e+02 -6.894900e+00
-1.533510e-01 -8.005890e+02 -4.062540e+02
3.998200e+02 -8.005630e+02 -4.064630e+02
-1.922850e-01 -4.005940e+02 -4.069880e+02
3.997800e+02 -4.005610e+02 -4.072420e+02
9.722910e-03 -7.999750e+02 -6.171260e+00
4.000140e+02 -7.999750e+02 -6.343270e+00
1.082550e-02 -4.000100e+02 -6.894900e+00
4.000260e+02 -4.000160e+02 -7.097780e+00
-4.001650e+02 -4.006370e+02 -4.068000e+02
-1.922850e-01 -4.005940e+02 -4.069880e+02
-4.002220e+02 -6.214610e-01 -4.073030e+02
-2.133560e-01 -6.042200e-01 -4.075080e+02
-4.000040e+02 -4.000040e+02 -6.708470e+00
1.082550e-02 -4.000100e+02 -6.894900e+00
-4.000140e+02 -3.266400e-02 -7.278620e+00
-2.963810e-03 -3.268640e-02 -7.504570e+00
-1.922850e-01 -4.005940e+02 -4.069880e+02
3.997800e+02 -4.005610e+02 -4.072420e+02
[...]
<PointData>
<DataArray type="Float32" Name="V1" format="ascii">
0.000000e+00
0.000000e+00
-4.594200e-02
-4.661220e-03
0.000000e+00
0.000000e+00
1.719690e-03
-8.941060e-03
0.000000e+00
0.000000e+00
-4.661220e-03
3.625660e-02
0.000000e+00
0.000000e+00
-8.941060e-03
-2.017140e-02
-4.594200e-02
-4.661220e-03
-5.453500e-03
-9.825110e-03
1.719690e-03
-8.941060e-03
-1.624920e-02
-2.196330e-02
-4.661220e-03
3.625660e-02
-9.825110e-03
-1.402190e-02
-8.941060e-03
-2.017140e-02
-2.196330e-02
-2.805340e-02
-5.453500e-03
-9.825110e-03
-1.302770e-02
-1.237070e-02
-1.624920e-02
-2.196330e-02
-1.680570e-02
-4.753910e-03
-9.825110e-03
-1.402190e-02
-1.237070e-02
-1.290750e-02
-2.196330e-02
-2.805340e-02
-4.753910e-03
7.114820e-03
-1.302770e-02
-1.237070e-02
-7.823120e-03
-2.698820e-02
-1.680570e-02
-4.753910e-03
-1.802320e-02
-1.528280e-02
-1.237070e-02
-1.290750e-02
-2.698820e-02
-4.623520e-02
-4.753910e-03
7.114820e-03
-1.528280e-02
-1.282070e-02
-7.823120e-03
-2.698820e-02
2.593870e-02
3.130650e-02
-1.802320e-02
-1.528280e-02
-3.590600e-02
-4.144110e-02
-2.698820e-02
-4.623520e-02
3.130650e-02
3.560340e-02
-1.528280e-02
-1.282070e-02
-4.144110e-02
-4.696470e-02
2.593870e-02
3.130650e-02
-3.707940e-02
-2.128990e-02
-3.590600e-02
-4.144110e-02
-1.086480e-02
-2.127250e-02
3.130650e-02
3.560340e-02
-2.128990e-02
-5.362140e-03
-4.144110e-02
-4.696470e-02
-2.127250e-02
-3.196210e-02
-3.707940e-02
-2.128990e-02
-8.014530e-02
-6.451840e-02
-1.086480e-02
-2.127250e-02
2.778170e-04
-4.132960e-03
-2.128990e-02
-5.362140e-03
-6.451840e-02
-4.972870e-02
-2.127250e-02
-3.196210e-02
-4.132960e-03
-8.970200e-03
-8.014530e-02
-6.451840e-02
4.492710e-02
4.573430e-02
2.778170e-04
-4.132960e-03
-2.813280e-02
-2.523150e-02
-6.451840e-02
-4.972870e-02
4.573430e-02
4.547930e-02
-4.132960e-03
-8.970200e-03
-2.523150e-02
-2.300330e-02
4.492710e-02
4.573430e-02
8.216300e-02
4.977210e-02
-2.813280e-02
-2.523150e-02
-3.827670e-02
-2.889410e-02
4.573430e-02
4.547930e-02
4.977210e-02
1.658650e-02
-2.523150e-02
-2.300330e-02
-2.889410e-02
-2.022880e-02
8.216300e-02
4.977210e-02
-2.031600e-02
-1.891610e-03
-3.827670e-02
-2.889410e-02
-1.208710e-02
-6.362650e-03
4.977210e-02
1.658650e-02
-1.891610e-03
1.652110e-02
-2.889410e-02
-2.022880e-02
-6.362650e-03
-1.108750e-03
-2.031600e-02
-1.891610e-03
-4.330780e-02
-2.093490e-02
-1.208710e-02
-6.362650e-03
1.019780e-02
1.077290e-02
-1.891610e-03
1.652110e-02
-2.093490e-02
1.346000e-03
-6.362650e-03
-1.108750e-03
1.077290e-02
1.112900e-02
-4.330780e-02
-2.093490e-02
3.454110e-02
1.916100e-02
1.019780e-02
1.077290e-02
-1.323850e-02
7.134910e-03
-2.093490e-02
1.346000e-03
1.916100e-02
2.840590e-03
1.077290e-02
1.112900e-02
7.134910e-03
2.757810e-02
3.454110e-02
1.916100e-02
1.853850e-02
-2.234430e-03
-1.323850e-02
7.134910e-03
-2.225680e-02
1.026150e-02
1.916100e-02
2.840590e-03
-2.234430e-03
-2.359370e-02
7.134910e-03
2.757810e-02
1.026150e-02
4.254630e-02
1.853850e-02
-2.234430e-03
6.183820e-02
3.910190e-02
-2.225680e-02
1.026150e-02
-1.195580e-02
5.126830e-03
-2.234430e-03
-2.359370e-02
3.910190e-02
1.625230e-02
1.026150e-02
4.254630e-02
5.126830e-03
2.231550e-02
6.183820e-02
3.910190e-02
5.384920e-02
6.755730e-02
-1.195580e-02
5.126830e-03
-6.282870e-04
3.114090e-03
3.910190e-02
1.625230e-02
6.755730e-02
8.047180e-02
5.126830e-03
2.231550e-02
3.114090e-03
6.268640e-03
5.384920e-02
6.755730e-02
1.759750e-02
1.711940e-02
-6.282870e-04
3.114090e-03
8.144360e-03
1.156810e-02
6.755730e-02
8.047180e-02
1.711940e-02
1.656660e-02
3.114090e-03
6.268640e-03
1.156810e-02
1.458240e-02
1.759750e-02
1.711940e-02
-2.047350e-02
-1.473110e-02
8.144360e-03
1.156810e-02
6.094810e-03
1.018710e-02
1.711940e-02
1.656660e-02
-1.473110e-02
-9.455920e-03
1.156810e-02
1.458240e-02
1.018710e-02
1.361290e-02
-2.047350e-02
-1.473110e-02
-3.465790e-02
-2.621270e-02
6.094810e-03
1.018710e-02
1.700000e-02
1.581850e-02
-1.473110e-02
-9.455920e-03
-2.621270e-02
-1.814390e-02
1.018710e-02
1.361290e-02
1.581850e-02
1.454980e-02
-3.465790e-02
-2.621270e-02
3.949990e-03
-2.723420e-02
1.700000e-02
1.581850e-02
-6.615240e-03
-1.301740e-02
-2.621270e-02
-1.814390e-02
-2.723420e-02
-5.829820e-02
1.581850e-02
1.454980e-02
-1.301740e-02
-1.960700e-02
3.949990e-03
-2.723420e-02
-9.459060e-03
-1.882560e-02
-6.615240e-03
-1.301740e-02
-2.292990e-02
-1.379860e-02
-2.723420e-02
-5.829820e-02
-1.882560e-02
-2.830020e-02
-1.301740e-02
-1.960700e-02
-1.379860e-02
-4.807090e-03
-9.459060e-03
-1.882560e-02
6.934800e-03
2.165030e-03
-2.292990e-02
-1.379860e-02
-3.943820e-03
6.533820e-03
-1.882560e-02
-2.830020e-02
2.165030e-03
-3.088170e-03
-1.379860e-02
-4.807090e-03
6.533820e-03
1.700760e-02
6.934800e-03
2.165030e-03
-5.621020e-03
6.620380e-03
-3.943820e-03
6.533820e-03
1.452750e-02
9.183170e-03
2.165030e-03
-3.088170e-03
6.620380e-03
1.912130e-02
6.533820e-03
1.700760e-02
9.183170e-03
3.569940e-03
-5.621020e-03
6.620380e-03
-1.837130e-02
-1.034900e-02
1.452750e-02
9.183170e-03
1.828780e-02
-9.127530e-03
6.620380e-03
1.912130e-02
-1.034900e-02
-1.982180e-03
9.183170e-03
3.569940e-03
-9.127530e-03
-3.612940e-02
-1.837130e-02
-1.034900e-02
-4.416100e-02
-3.863560e-02
1.828780e-02
-9.127530e-03
2.689890e-02
1.144060e-02
-1.034900e-02
-1.982180e-03
-3.863560e-02
-3.246410e-02
-9.127530e-03
-3.612940e-02
1.144060e-02
-4.489630e-03
-4.416100e-02
-3.863560e-02
2.182060e-03
-3.092620e-03
2.689890e-02
1.144060e-02
8.280020e-03
2.934670e-03
-3.863560e-02
-3.246410e-02
-3.092620e-03
-8.588470e-03
1.144060e-02
-4.489630e-03
2.934670e-03
-1.974500e-03
2.182060e-03
-3.092620e-03
-2.962430e-02
-4.184280e-02
8.280020e-03
2.934670e-03
3.039880e-02
2.556070e-02
-3.092620e-03
-8.588470e-03
-4.184280e-02
-5.277280e-02
2.934670e-03
-1.974500e-03
2.556070e-02
2.096940e-02
-2.962430e-02
-4.184280e-02
8.878840e-03
2.136480e-02
3.039880e-02
2.556070e-02
1.113260e-02
1.064850e-02
-4.184280e-02
-5.277280e-02
2.136480e-02
3.473040e-02
2.556070e-02
2.096940e-02
1.064850e-02
9.993930e-03
8.878840e-03
2.136480e-02
5.225290e-02
5.553940e-02
1.113260e-02
1.064850e-02
-1.399960e-02
-7.755850e-03
2.136480e-02
3.473040e-02
5.553940e-02
5.939140e-02
1.064850e-02
9.993930e-03
-7.755850e-03
-1.075870e-03
5.225290e-02
5.553940e-02
-5.013630e-03
-2.923410e-02
-1.399960e-02
-7.755850e-03
-1.994770e-02
-6.102560e-03
5.553940e-02
5.939140e-02
-2.923410e-02
-5.330610e-02
-7.755850e-03
-1.075870e-03
-6.102560e-03
8.007030e-03
-5.013630e-03
-2.923410e-02
2.473220e-03
-4.230540e-02
-1.994770e-02
-6.102560e-03
-3.070860e-02
-1.639930e-02
-2.923410e-02
-5.330610e-02
-4.230540e-02
-8.633550e-02
-6.102560e-03
8.007030e-03
-1.639930e-02
-1.964890e-03
0.000000e+00
0.000000e+00
1.719690e-03
-8.941060e-03
0.000000e+00
0.000000e+00
3.955520e-02
2.137910e-02
0.000000e+00
0.000000e+00
-8.941060e-03
-2.017140e-02
0.000000e+00
0.000000e+00
2.137910e-02
3.310620e-03
1.719690e-03
-8.941060e-03
-1.624920e-02
-2.196330e-02
3.955520e-02
2.137910e-02
4.182140e-02
5.794430e-02
-8.941060e-03
-2.017140e-02
-2.196330e-02
-2.805340e-02
2.137910e-02
3.310620e-03
5.794430e-02
7.482010e-02
-1.624920e-02
-2.196330e-02
-1.680570e-02
-4.753910e-03
4.182140e-02
5.794430e-02
4.255360e-02
1.766320e-02
-2.196330e-02
-2.805340e-02
-4.753910e-03
7.114820e-03
5.794430e-02
7.482010e-02
1.766320e-02
-6.634880e-03
-1.680570e-02
-4.753910e-03
-1.802320e-02
-1.528280e-02
4.255360e-02
1.766320e-02
4.456520e-02
5.729680e-02
-4.753910e-03
7.114820e-03
-1.528280e-02
-1.282070e-02
1.766320e-02
-6.634880e-03
5.729680e-02
6.910800e-02
-1.802320e-02
-1.528280e-02
-3.590600e-02
-4.144110e-02
4.456520e-02
5.729680e-02
4.728100e-02
5.467220e-02
-1.528280e-02
-1.282070e-02
-4.144110e-02
-4.696470e-02
5.729680e-02
6.910800e-02
5.467220e-02
6.144250e-02
-3.590600e-02
-4.144110e-02
-1.086480e-02
-2.127250e-02
4.728100e-02
5.467220e-02
5.813270e-02
6.205780e-02
-4.144110e-02
-4.696470e-02
-2.127250e-02
-3.196210e-02
5.467220e-02
6.144250e-02
6.205780e-02
6.551330e-02
-1.086480e-02
-2.127250e-02
2.778170e-04
-4.132960e-03
5.813270e-02
6.205780e-02
8.230740e-02
7.428240e-02
-2.127250e-02
-3.196210e-02
-4.132960e-03
-8.970200e-03
6.205780e-02
6.551330e-02
7.428240e-02
6.594280e-02
2.778170e-04
-4.132960e-03
-2.813280e-02
-2.523150e-02
8.230740e-02
7.428240e-02
1.075540e-02
5.780000e-03
-4.132960e-03
-8.970200e-03
-2.523150e-02
-2.300330e-02
7.428240e-02
6.594280e-02
5.780000e-03
4.242210e-04
-2.813280e-02
-2.523150e-02
-3.827670e-02
-2.889410e-02
1.075540e-02
5.780000e-03
-8.448300e-03
6.819490e-03
-2.523150e-02
-2.300330e-02
-2.889410e-02
-2.022880e-02
5.780000e-03
4.242210e-04
6.819490e-03
2.211390e-02
-3.827670e-02
-2.889410e-02
-1.208710e-02
-6.362650e-03
-8.448300e-03
6.819490e-03
4.631140e-02
1.678080e-02
-2.889410e-02
-2.022880e-02
-6.362650e-03
-1.108750e-03
6.819490e-03
2.211390e-02
1.678080e-02
-1.468500e-02
-1.208710e-02
-6.362650e-03
1.019780e-02
1.077290e-02
4.631140e-02
1.678080e-02
2.554480e-02
6.195330e-04
-6.362650e-03
-1.108750e-03
1.077290e-02
1.112900e-02
1.678080e-02
-1.468500e-02
6.195330e-04
-2.451660e-02
1.019780e-02
1.077290e-02
-1.323850e-02
7.134910e-03
2.554480e-02
6.195330e-04
-1.062730e-02
-3.465770e-02
1.077290e-02
1.112900e-02
7.134910e-03
2.757810e-02
6.195330e-04
-2.451660e-02
-3.465770e-02
-5.870850e-02
-1.323850e-02
7.134910e-03
-2.225680e-02
1.026150e-02
-1.062730e-02
-3.465770e-02
2.500680e-02
-1.845630e-02
7.134910e-03
2.757810e-02
1.026150e-02
4.254630e-02
-3.465770e-02
-5.870850e-02
-1.845630e-02
-6.221820e-02
-2.225680e-02
1.026150e-02
-1.195580e-02
5.126830e-03
2.500680e-02
-1.845630e-02
-3.935980e-02
-4.877090e-02
1.026150e-02
4.254630e-02
5.126830e-03
2.231550e-02
-1.845630e-02
-6.221820e-02
-4.877090e-02
-5.894950e-02
-1.195580e-02
5.126830e-03
-6.282870e-04
3.114090e-03
-3.935980e-02
-4.877090e-02
-5.254310e-02
-7.311720e-02
5.126830e-03
2.231550e-02
3.114090e-03
6.268640e-03
-4.877090e-02
-5.894950e-02
-7.311720e-02
-9.314950e-02
-6.282870e-04
3.114090e-03
8.144360e-03
1.156810e-02
-5.254310e-02
-7.311720e-02
-3.200270e-02
-3.777440e-02
3.114090e-03
6.268640e-03
1.156810e-02
1.458240e-02
-7.311720e-02
-9.314950e-02
-3.777440e-02
-4.421140e-02
8.144360e-03
1.156810e-02
6.094810e-03
1.018710e-02
-3.200270e-02
-3.777440e-02
4.377020e-03
-7.008830e-03
1.156810e-02
1.458240e-02
1.018710e-02
1.361290e-02
-3.777440e-02
-4.421140e-02
-7.008830e-03
-1.897630e-02
6.094810e-03
1.018710e-02
1.700000e-02
1.581850e-02
4.377020e-03
-7.008830e-03
1.954640e-03
-4.122650e-03
1.018710e-02
1.361290e-02
1.581850e-02
1.454980e-02
-7.008830e-03
-1.897630e-02
-4.122650e-03
-9.699520e-03
1.700000e-02
1.581850e-02
-6.615240e-03
-1.301740e-02
1.954640e-03
-4.122650e-03
6.148940e-03
5.106060e-02
1.581850e-02
1.454980e-02
-1.301740e-02
-1.960700e-02
-4.122650e-03
-9.699520e-03
5.106060e-02
9.585770e-02
-6.615240e-03
-1.301740e-02
-2.292990e-02
-1.379860e-02
6.148940e-03
5.106060e-02
5.355680e-02
4.674360e-02
-1.301740e-02
-1.960700e-02
-1.379860e-02
-4.807090e-03
5.106060e-02
9.585770e-02
4.674360e-02
3.983960e-02
-2.292990e-02
-1.379860e-02
-3.943820e-03
6.533820e-03
5.355680e-02
4.674360e-02
2.510820e-03
-1.386870e-02
-1.379860e-02
-4.807090e-03
6.533820e-03
1.700760e-02
4.674360e-02
3.983960e-02
-1.386870e-02
-2.968320e-02
-3.943820e-03
6.533820e-03
1.452750e-02
9.183170e-03
2.510820e-03
-1.386870e-02
-2.469830e-02
-2.488470e-02
6.533820e-03
1.700760e-02
9.183170e-03
3.569940e-03
-1.386870e-02
-2.968320e-02
-2.488470e-02
-2.526810e-02
1.452750e-02
9.183170e-03
1.828780e-02
-9.127530e-03
-2.469830e-02
-2.488470e-02
-1.795910e-02
2.807180e-02
9.183170e-03
3.569940e-03
-9.127530e-03
-3.612940e-02
-2.488470e-02
-2.526810e-02
2.807180e-02
7.375530e-02
1.828780e-02
-9.127530e-03
2.689890e-02
1.144060e-02
-1.795910e-02
2.807180e-02
-9.016210e-03
1.675100e-02
-9.127530e-03
-3.612940e-02
1.144060e-02
-4.489630e-03
2.807180e-02
7.375530e-02
1.675100e-02
4.230070e-02
2.689890e-02
1.144060e-02
8.280020e-03
2.934670e-03
-9.016210e-03
1.675100e-02
-2.190000e-02
-5.899850e-03
1.144060e-02
-4.489630e-03
2.934670e-03
-1.974500e-03
1.675100e-02
4.230070e-02
-5.899850e-03
1.123350e-02
8.280020e-03
2.934670e-03
3.039880e-02
2.556070e-02
-2.190000e-02
-5.899850e-03
-2.867490e-02
-8.207880e-03
2.934670e-03
-1.974500e-03
2.556070e-02
2.096940e-02
-5.899850e-03
1.123350e-02
-8.207880e-03
1.214290e-02
3.039880e-02
2.556070e-02
1.113260e-02
1.064850e-02
-2.867490e-02
-8.207880e-03
-2.994130e-02
-4.337630e-02
2.556070e-02
2.096940e-02
1.064850e-02
9.993930e-03
-8.207880e-03
1.214290e-02
-4.337630e-02
-5.634550e-02
1.113260e-02
1.064850e-02
-1.399960e-02
-7.755850e-03
-2.994130e-02
-4.337630e-02
-2.513780e-02
-4.167950e-02
1.064850e-02
9.993930e-03
-7.755850e-03
-1.075870e-03
-4.337630e-02
-5.634550e-02
-4.167950e-02
-5.757000e-02
-1.399960e-02
-7.755850e-03
-1.994770e-02
-6.102560e-03
-2.513780e-02
-4.167950e-02
4.849940e-02
4.342080e-02
-7.755850e-03
-1.075870e-03
-6.102560e-03
8.007030e-03
-4.167950e-02
-5.757000e-02
4.342080e-02
3.902780e-02
-1.994770e-02
-6.102560e-03
-3.070860e-02
-1.639930e-02
4.849940e-02
4.342080e-02
5.796110e-02
7.372620e-02
-6.102560e-03
8.007030e-03
-1.639930e-02
-1.964890e-03
4.342080e-02
3.902780e-02
7.372620e-02
8.956540e-02
</DataArray>
<DataArray type="Float32" Name="V2" format="ascii">
0.000000e+00
0.000000e+00
-8.554770e-03
1.452020e-02
0.000000e+00
0.000000e+00
2.921130e-02
2.678810e-02
0.000000e+00
0.000000e+00
1.452020e-02
5.960650e-02
0.000000e+00
0.000000e+00
2.678810e-02
3.685120e-02
-8.554770e-03
1.452020e-02
7.385220e-02
6.184500e-02
2.921130e-02
2.678810e-02
-8.256200e-02
-7.207070e-02
1.452020e-02
5.960650e-02
6.184500e-02
8.058650e-02
2.678810e-02
3.685120e-02
-7.207070e-02
-6.672820e-02
7.385220e-02
6.184500e-02
-3.648070e-02
1.512730e-02
-8.256200e-02
-7.207070e-02
-9.107730e-02
-9.330990e-02
6.184500e-02
8.058650e-02
1.512730e-02
2.418630e-02
-7.207070e-02
-6.672820e-02
-9.330990e-02
-7.937230e-02
-3.648070e-02
1.512730e-02
-1.237030e-01
-6.590350e-02
-9.107730e-02
-9.330990e-02
-8.984130e-03
-7.886800e-03
1.512730e-02
2.418630e-02
-6.590350e-02
-4.650510e-02
-9.330990e-02
-7.937230e-02
-7.886800e-03
1.911960e-03
-1.237030e-01
-6.590350e-02
-1.253670e-01
-1.095250e-01
-8.984130e-03
-7.886800e-03
5.443270e-02
6.667960e-02
-6.590350e-02
-4.650510e-02
-1.095250e-01
-8.300580e-02
-7.886800e-03
1.911960e-03
6.667960e-02
5.952880e-02
-1.253670e-01
-1.095250e-01
-9.791180e-02
-3.429740e-02
5.443270e-02
6.667960e-02
3.620520e-02
3.326460e-02
-1.095250e-01
-8.300580e-02
-3.429740e-02
4.508440e-02
6.667960e-02
5.952880e-02
3.326460e-02
3.209140e-02
-9.791180e-02
-3.429740e-02
9.827740e-03
5.259330e-02
3.620520e-02
3.326460e-02
-1.895620e-02
-3.075270e-02
-3.429740e-02
4.508440e-02
5.259330e-02
8.037260e-02
3.326460e-02
3.209140e-02
-3.075270e-02
-3.865770e-02
9.827740e-03
5.259330e-02
7.127300e-02
4.438210e-02
-1.895620e-02
-3.075270e-02
-4.071310e-02
-3.402010e-02
5.259330e-02
8.037260e-02
4.438210e-02
1.507580e-02
-3.075270e-02
-3.865770e-02
-3.402010e-02
-3.367980e-02
7.127300e-02
4.438210e-02
-2.673900e-02
-6.954220e-03
-4.071310e-02
-3.402010e-02
-1.040550e-02
4.394310e-03
4.438210e-02
1.507580e-02
-6.954220e-03
1.228830e-02
-3.402010e-02
-3.367980e-02
4.394310e-03
1.182930e-02
-2.673900e-02
-6.954220e-03
-8.624620e-02
-7.157630e-02
-1.040550e-02
4.394310e-03
4.047700e-03
1.044910e-02
-6.954220e-03
1.228830e-02
-7.157630e-02
-8.182680e-02
4.394310e-03
1.182930e-02
1.044910e-02
1.293790e-02
-8.624620e-02
-7.157630e-02
3.575850e-02
-2.969450e-02
4.047700e-03
1.044910e-02
-2.805760e-02
-2.768210e-02
-7.157630e-02
-8.182680e-02
-2.969450e-02
-9.979290e-02
1.044910e-02
1.293790e-02
-2.768210e-02
-2.561540e-02
3.575850e-02
-2.969450e-02
5.326380e-02
2.933990e-02
-2.805760e-02
-2.768210e-02
-1.983600e-02
-2.084590e-02
-2.969450e-02
-9.979290e-02
2.933990e-02
7.309100e-03
-2.768210e-02
-2.561540e-02
-2.084590e-02
-1.402070e-02
5.326380e-02
2.933990e-02
-4.650990e-02
-1.207940e-02
-1.983600e-02
-2.084590e-02
4.358080e-02
4.335800e-02
2.933990e-02
7.309100e-03
-1.207940e-02
2.327000e-02
-2.084590e-02
-1.402070e-02
4.335800e-02
4.735630e-02
-4.650990e-02
-1.207940e-02
-5.470770e-02
-5.155180e-02
4.358080e-02
4.335800e-02
3.118330e-02
2.973580e-02
-1.207940e-02
2.327000e-02
-5.155180e-02
-6.128670e-02
4.335800e-02
4.735630e-02
2.973580e-02
9.142350e-03
-5.470770e-02
-5.155180e-02
-3.400850e-02
-1.232000e-02
3.118330e-02
2.973580e-02
-4.757430e-02
-5.489200e-02
-5.155180e-02
-6.128670e-02
-1.232000e-02
-5.170900e-03
2.973580e-02
9.142350e-03
-5.489200e-02
-6.282390e-02
-3.400850e-02
-1.232000e-02
-6.264150e-02
-4.072440e-02
-4.757430e-02
-5.489200e-02
-3.442940e-02
-3.260500e-02
-1.232000e-02
-5.170900e-03
-4.072440e-02
-1.621230e-02
-5.489200e-02
-6.282390e-02
-3.260500e-02
-1.116300e-02
-6.264150e-02
-4.072440e-02
-9.318630e-02
-9.556130e-02
-3.442940e-02
-3.260500e-02
2.940030e-02
4.133040e-02
-4.072440e-02
-1.621230e-02
-9.556130e-02
-8.374640e-02
-3.260500e-02
-1.116300e-02
4.133040e-02
5.077530e-02
-9.318630e-02
-9.556130e-02
4.847930e-02
5.002590e-02
2.940030e-02
4.133040e-02
1.317470e-02
-2.035750e-04
-9.556130e-02
-8.374640e-02
5.002590e-02
6.581630e-02
4.133040e-02
5.077530e-02
-2.035750e-04
-1.525770e-02
4.847930e-02
5.002590e-02
9.881520e-02
1.236930e-01
1.317470e-02
-2.035750e-04
-1.809110e-02
-3.313720e-02
5.002590e-02
6.581630e-02
1.236930e-01
1.179630e-01
-2.035750e-04
-1.525770e-02
-3.313720e-02
-4.380010e-02
9.881520e-02
1.236930e-01
5.221180e-02
2.920680e-02
-1.809110e-02
-3.313720e-02
-9.185030e-05
2.419780e-02
1.236930e-01
1.179630e-01
2.920680e-02
-9.891650e-03
-3.313720e-02
-4.380010e-02
2.419780e-02
4.215110e-02
5.221180e-02
2.920680e-02
3.167180e-03
-2.901510e-02
-9.185030e-05
2.419780e-02
-1.551120e-02
1.128860e-02
2.920680e-02
-9.891650e-03
-2.901510e-02
-2.310070e-02
2.419780e-02
4.215110e-02
1.128860e-02
1.766810e-02
3.167180e-03
-2.901510e-02
-7.315640e-03
3.859480e-03
-1.551120e-02
1.128860e-02
-3.734500e-02
-3.758120e-02
-2.901510e-02
-2.310070e-02
3.859480e-03
2.744260e-02
1.128860e-02
1.766810e-02
-3.758120e-02
-4.315630e-02
-7.315640e-03
3.859480e-03
3.638880e-02
5.026020e-02
-3.734500e-02
-3.758120e-02
-1.947660e-02
-2.732750e-02
3.859480e-03
2.744260e-02
5.026020e-02
6.156970e-02
-3.758120e-02
-4.315630e-02
-2.732750e-02
-3.768240e-02
3.638880e-02
5.026020e-02
8.908130e-02
5.628000e-02
-1.947660e-02
-2.732750e-02
3.367350e-04
1.984520e-03
5.026020e-02
6.156970e-02
5.628000e-02
2.979590e-02
-2.732750e-02
-3.768240e-02
1.984520e-03
-9.950830e-03
8.908130e-02
5.628000e-02
4.623920e-02
1.863210e-02
3.367350e-04
1.984520e-03
5.751080e-02
5.889970e-02
5.628000e-02
2.979590e-02
1.863210e-02
-6.837100e-03
1.984520e-03
-9.950830e-03
5.889970e-02
7.475720e-02
4.623920e-02
1.863210e-02
2.120810e-03
1.476520e-02
5.751080e-02
5.889970e-02
3.011150e-02
3.302980e-02
1.863210e-02
-6.837100e-03
1.476520e-02
6.256280e-03
5.889970e-02
7.475720e-02
3.302980e-02
4.771190e-02
2.120810e-03
1.476520e-02
1.022670e-02
3.550920e-02
3.011150e-02
3.302980e-02
-7.511760e-02
-7.943390e-02
1.476520e-02
6.256280e-03
3.550920e-02
5.711380e-02
3.302980e-02
4.771190e-02
-7.943390e-02
-9.299790e-02
1.022670e-02
3.550920e-02
-5.629230e-02
-8.275370e-02
-7.511760e-02
-7.943390e-02
-6.133730e-02
-6.901020e-02
3.550920e-02
5.711380e-02
-8.275370e-02
-5.250760e-02
-7.943390e-02
-9.299790e-02
-6.901020e-02
-8.117330e-02
-5.629230e-02
-8.275370e-02
-1.472200e-01
-1.774890e-01
-6.133730e-02
-6.901020e-02
6.216530e-02
6.189550e-02
-8.275370e-02
-5.250760e-02
-1.774890e-01
-1.820570e-01
-6.901020e-02
-8.117330e-02
6.189550e-02
6.231550e-02
-1.472200e-01
-1.774890e-01
-1.262910e-01
-1.840550e-01
6.216530e-02
6.189550e-02
1.202030e-01
1.281250e-01
-1.774890e-01
-1.820570e-01
-1.840550e-01
-2.403120e-01
6.189550e-02
6.231550e-02
1.281250e-01
1.310800e-01
0.000000e+00
0.000000e+00
2.921130e-02
2.678810e-02
0.000000e+00
0.000000e+00
-4.850900e-02
-6.954150e-02
0.000000e+00
0.000000e+00
2.678810e-02
3.685120e-02
0.000000e+00
0.000000e+00
-6.954150e-02
-1.304540e-01
2.921130e-02
2.678810e-02
-8.256200e-02
-7.207070e-02
-4.850900e-02
-6.954150e-02
9.018370e-02
7.830170e-02
2.678810e-02
3.685120e-02
-7.207070e-02
-6.672820e-02
-6.954150e-02
-1.304540e-01