<?xml version="1.0"?>
<!-- time 24760.8-->
<VTKFile type="UnstructuredGrid" version="0.1" byte_order="LittleEndian">
<UnstructuredGrid>
<Piece NumberOfPoints="2" NumberOfCells="0">
<Points>
  <DataArray type="Float32" Name="Position" NumberOfComponents="3" format="ascii">
	183.055 -2056.26 492.751
	-191.344 -2042.79 491.214
  </DataArray>
</Points>
<PointData  Vectors="vector">
  <DataArray type="Float32" Name="Velocity" NumberOfComponents="3" format="ascii">
 -0.00185701 0.312743 0.081992
 0.00103928 0.313836 0.102538
  </DataArray>
  <DataArray type="Float32" Name="Radius" format="ascii">
	100
	100
  </DataArray>
  <DataArray type="Float32" Name="speciesType" format="ascii">
	0
	0
  </DataArray>
</PointData>
<Cells>
  <DataArray type="Int32" Name="connectivity" format="ascii">
  </DataArray>
  <DataArray type="Int32" Name="offsets" format="ascii">
  </DataArray>
  <DataArray type="UInt8"  Name="types" format="ascii">
  </DataArray>
</Cells>
</Piece>
</UnstructuredGrid>
</VTKFile>
