<?xml version="1.0"?>
<VTKFile type="UnstructuredGrid" version="0.1" byte_order="LittleEndian" compressor="vtkZLibDataCompressor">
<UnstructuredGrid>
<Piece NumberOfPoints="960" NumberOfCells="120">
<Points>
<DataArray type="Float32" NumberOfComponents="3" format="ascii">
-4.000000e+02 -6.000000e+03 -4.000000e+02
0.000000e+00 -6.000000e+03 -4.000000e+02
-4.000230e+02 -5.600450e+03 -4.003820e+02
-2.551490e-02 -5.600440e+03 -4.003180e+02
-4.000000e+02 -6.000000e+03 0.000000e+00
0.000000e+00 -6.000000e+03 0.000000e+00
-4.000250e+02 -5.599970e+03 -3.298580e-01
-1.734900e-02 -5.599990e+03 -3.294390e-01
0.000000e+00 -6.000000e+03 -4.000000e+02
4.000000e+02 -6.000000e+03 -4.000000e+02
-2.551490e-02 -5.600440e+03 -4.003180e+02
3.999690e+02 -5.600440e+03 -4.002930e+02
0.000000e+00 -6.000000e+03 0.000000e+00
4.000000e+02 -6.000000e+03 0.000000e+00
-1.734900e-02 -5.599990e+03 -3.294390e-01
3.999890e+02 -5.600010e+03 -3.380130e-01
-4.000230e+02 -5.600450e+03 -4.003820e+02
-2.551490e-02 -5.600440e+03 -4.003180e+02
-3.999250e+02 -5.200830e+03 -4.010130e+02
4.318760e-02 -5.200840e+03 -4.008490e+02
-4.000250e+02 -5.599970e+03 -3.298580e-01
-1.734900e-02 -5.599990e+03 -3.294390e-01
-4.000550e+02 -5.199960e+03 -8.337320e-01
-2.330990e-02 -5.199980e+03 -7.919140e-01
-2.551490e-02 -5.600440e+03 -4.003180e+02
3.999690e+02 -5.600440e+03 -4.002930e+02
4.318760e-02 -5.200840e+03 -4.008490e+02
4.000110e+02 -5.200840e+03 -4.008040e+02
-1.734900e-02 -5.599990e+03 -3.294390e-01
3.999890e+02 -5.600010e+03 -3.380130e-01
-2.330990e-02 -5.199980e+03 -7.919140e-01
4.000080e+02 -5.200000e+03 -7.671420e-01
-3.999250e+02 -5.200830e+03 -4.010130e+02
4.318760e-02 -5.200840e+03 -4.008490e+02
-3.998610e+02 -4.801320e+03 -4.020960e+02
1.025040e-01 -4.801320e+03 -4.018750e+02
-4.000550e+02 -5.199960e+03 -8.337320e-01
-2.330990e-02 -5.199980e+03 -7.919140e-01
-4.000570e+02 -4.800000e+03 -1.879420e+00
-1.292900e-02 -4.800000e+03 -1.785130e+00
4.318760e-02 -5.200840e+03 -4.008490e+02
4.000110e+02 -5.200840e+03 -4.008040e+02
1.025040e-01 -4.801320e+03 -4.018750e+02
4.000650e+02 -4.801340e+03 -4.017870e+02
-2.330990e-02 -5.199980e+03 -7.919140e-01
4.000080e+02 -5.200000e+03 -7.671420e-01
-1.292900e-02 -4.800000e+03 -1.785130e+00
4.000290e+02 -4.799990e+03 -1.647300e+00
-3.998610e+02 -4.801320e+03 -4.020960e+02
1.025040e-01 -4.801320e+03 -4.018750e+02
-3.999070e+02 -4.401750e+03 -4.035450e+02
8.581030e-02 -4.401770e+03 -4.034240e+02
-4.000570e+02 -4.800000e+03 -1.879420e+00
-1.292900e-02 -4.800000e+03 -1.785130e+00
-4.000330e+02 -4.400060e+03 -3.490030e+00
1.732820e-02 -4.400030e+03 -3.418540e+00
1.025040e-01 -4.801320e+03 -4.018750e+02
4.000650e+02 -4.801340e+03 -4.017870e+02
8.581030e-02 -4.401770e+03 -4.034240e+02
4.000780e+02 -4.401800e+03 -4.034250e+02
-1.292900e-02 -4.800000e+03 -1.785130e+00
4.000290e+02 -4.799990e+03 -1.647300e+00
1.732820e-02 -4.400030e+03 -3.418540e+00
4.000670e+02 -4.400030e+03 -3.290360e+00
-3.999070e+02 -4.401750e+03 -4.035450e+02
8.581030e-02 -4.401770e+03 -4.034240e+02
-4.000120e+02 -4.002150e+03 -4.052930e+02
-1.530110e-02 -4.002120e+03 -4.053600e+02
-4.000330e+02 -4.400060e+03 -3.490030e+00
1.732820e-02 -4.400030e+03 -3.418540e+00
-4.000290e+02 -4.000010e+03 -5.388220e+00
2.139160e-02 -4.000020e+03 -5.454060e+00
8.581030e-02 -4.401770e+03 -4.034240e+02
4.000780e+02 -4.401800e+03 -4.034250e+02
-1.530110e-02 -4.002120e+03 -4.053600e+02
3.999810e+02 -4.002110e+03 -4.055070e+02
1.732820e-02 -4.400030e+03 -3.418540e+00
4.000670e+02 -4.400030e+03 -3.290360e+00
2.139160e-02 -4.000020e+03 -5.454060e+00
4.000730e+02 -4.000030e+03 -5.446250e+00
-4.000120e+02 -4.002150e+03 -4.052930e+02
-1.530110e-02 -4.002120e+03 -4.053600e+02
-4.000280e+02 -3.602510e+03 -4.076110e+02
-8.039530e-02 -3.602420e+03 -4.076170e+02
-4.000290e+02 -4.000010e+03 -5.388220e+00
2.139160e-02 -4.000020e+03 -5.454060e+00
-4.000270e+02 -3.600010e+03 -7.729760e+00
1.175300e-02 -3.600020e+03 -7.771180e+00
-1.530110e-02 -4.002120e+03 -4.053600e+02
3.999810e+02 -4.002110e+03 -4.055070e+02
-8.039530e-02 -3.602420e+03 -4.076170e+02
3.998690e+02 -3.602340e+03 -4.078340e+02
2.139160e-02 -4.000020e+03 -5.454060e+00
4.000730e+02 -4.000030e+03 -5.446250e+00
1.175300e-02 -3.600020e+03 -7.771180e+00
4.000510e+02 -3.600040e+03 -7.847730e+00
-4.000280e+02 -3.602510e+03 -4.076110e+02
-8.039530e-02 -3.602420e+03 -4.076170e+02
-4.000230e+02 -3.202740e+03 -4.103320e+02
-8.237960e-02 -3.202680e+03 -4.102610e+02
-4.000270e+02 -3.600010e+03 -7.729760e+00
1.175300e-02 -3.600020e+03 -7.771180e+00
-4.000240e+02 -3.200020e+03 -1.047620e+01
6.720190e-04 -3.200000e+03 -1.043630e+01
-8.039530e-02 -3.602420e+03 -4.076170e+02
3.998690e+02 -3.602340e+03 -4.078340e+02
-8.237960e-02 -3.202680e+03 -4.102610e+02
3.998600e+02 -3.202610e+03 -4.103690e+02
1.175300e-02 -3.600020e+03 -7.771180e+00
4.000510e+02 -3.600040e+03 -7.847730e+00
6.720190e-04 -3.200000e+03 -1.043630e+01
4.000260e+02 -3.200010e+03 -1.047200e+01
-4.000230e+02 -3.202740e+03 -4.103320e+02
-8.237960e-02 -3.202680e+03 -4.102610e+02
-4.000320e+02 -2.803000e+03 -4.131660e+02
-6.130250e-02 -2.803010e+03 -4.131680e+02
-4.000240e+02 -3.200020e+03 -1.047620e+01
6.720190e-04 -3.200000e+03 -1.043630e+01
-3.999950e+02 -2.799970e+03 -1.321930e+01
1.995310e-02 -2.799980e+03 -1.318580e+01
-8.237960e-02 -3.202680e+03 -4.102610e+02
3.998600e+02 -3.202610e+03 -4.103690e+02
-6.130250e-02 -2.803010e+03 -4.131680e+02
3.999100e+02 -2.803040e+03 -4.132540e+02
6.720190e-04 -3.200000e+03 -1.043630e+01
4.000260e+02 -3.200010e+03 -1.047200e+01
1.995310e-02 -2.799980e+03 -1.318580e+01
4.000360e+02 -2.799970e+03 -1.318920e+01
-4.000320e+02 -2.803000e+03 -4.131660e+02
-6.130250e-02 -2.803010e+03 -4.131680e+02
-4.000160e+02 -2.403330e+03 -4.164010e+02
-2.155320e-02 -2.403330e+03 -4.164720e+02
-3.999950e+02 -2.799970e+03 -1.321930e+01
1.995310e-02 -2.799980e+03 -1.318580e+01
-3.999770e+02 -2.400010e+03 -1.624770e+01
5.092160e-02 -2.400020e+03 -1.627140e+01
-6.130250e-02 -2.803010e+03 -4.131680e+02
3.999100e+02 -2.803040e+03 -4.132540e+02
-2.155320e-02 -2.403330e+03 -4.164720e+02
3.999740e+02 -2.403330e+03 -4.166620e+02
1.995310e-02 -2.799980e+03 -1.318580e+01
4.000360e+02 -2.799970e+03 -1.318920e+01
5.092160e-02 -2.400020e+03 -1.627140e+01
4.000800e+02 -2.400020e+03 -1.627860e+01
-4.000160e+02 -2.403330e+03 -4.164010e+02
-2.155320e-02 -2.403330e+03 -4.164720e+02
-3.998310e+02 -2.003430e+03 -4.199880e+02
1.048560e-01 -2.003410e+03 -4.197970e+02
-3.999770e+02 -2.400010e+03 -1.624770e+01
5.092160e-02 -2.400020e+03 -1.627140e+01
-4.000390e+02 -2.000150e+03 -1.980950e+01
1.144730e-02 -2.000150e+03 -1.968580e+01
-2.155320e-02 -2.403330e+03 -4.164720e+02
3.999740e+02 -2.403330e+03 -4.166620e+02
1.048560e-01 -2.003410e+03 -4.197970e+02
4.000400e+02 -2.003380e+03 -4.198090e+02
5.092160e-02 -2.400020e+03 -1.627140e+01
4.000800e+02 -2.400020e+03 -1.627860e+01
1.144730e-02 -2.000150e+03 -1.968580e+01
4.000620e+02 -2.000150e+03 -1.958350e+01
-3.998310e+02 -2.003430e+03 -4.199880e+02
1.048560e-01 -2.003410e+03 -4.197970e+02
-3.998500e+02 -1.603510e+03 -4.231060e+02
1.177480e-01 -1.603540e+03 -4.228790e+02
-4.000390e+02 -2.000150e+03 -1.980950e+01
1.144730e-02 -2.000150e+03 -1.968580e+01
-4.000140e+02 -1.600180e+03 -2.336390e+01
2.428380e-02 -1.600160e+03 -2.315320e+01
1.048560e-01 -2.003410e+03 -4.197970e+02
4.000400e+02 -2.003380e+03 -4.198090e+02
1.177480e-01 -1.603540e+03 -4.228790e+02
4.000860e+02 -1.603600e+03 -4.228000e+02
1.144730e-02 -2.000150e+03 -1.968580e+01
4.000620e+02 -2.000150e+03 -1.958350e+01
2.428380e-02 -1.600160e+03 -2.315320e+01
4.000640e+02 -1.600130e+03 -2.295340e+01
-3.998500e+02 -1.603510e+03 -4.231060e+02
1.177480e-01 -1.603540e+03 -4.228790e+02
-3.999890e+02 -1.203800e+03 -4.265090e+02
2.661390e-02 -1.203900e+03 -4.265880e+02
-4.000140e+02 -1.600180e+03 -2.336390e+01
2.428380e-02 -1.600160e+03 -2.315320e+01
-3.999650e+02 -1.200080e+03 -2.695630e+01
5.662620e-02 -1.200060e+03 -2.692090e+01
1.177480e-01 -1.603540e+03 -4.228790e+02
4.000860e+02 -1.603600e+03 -4.228000e+02
2.661390e-02 -1.203900e+03 -4.265880e+02
4.000420e+02 -1.203960e+03 -4.267160e+02
2.428380e-02 -1.600160e+03 -2.315320e+01
4.000640e+02 -1.600130e+03 -2.295340e+01
5.662620e-02 -1.200060e+03 -2.692090e+01
4.000780e+02 -1.200050e+03 -2.686920e+01
-3.999890e+02 -1.203800e+03 -4.265090e+02
2.661390e-02 -1.203900e+03 -4.265880e+02
-4.000490e+02 -8.040760e+02 -4.305250e+02
-9.199120e-02 -8.040960e+02 -4.307150e+02
-3.999650e+02 -1.200080e+03 -2.695630e+01
5.662620e-02 -1.200060e+03 -2.692090e+01
-3.999850e+02 -8.000270e+02 -3.071660e+01
3.358770e-02 -8.000360e+02 -3.085970e+01
2.661390e-02 -1.203900e+03 -4.265880e+02
4.000420e+02 -1.203960e+03 -4.267160e+02
-9.199120e-02 -8.040960e+02 -4.307150e+02
3.998650e+02 -8.040390e+02 -4.310170e+02
5.662620e-02 -1.200060e+03 -2.692090e+01
4.000780e+02 -1.200050e+03 -2.686920e+01
3.358770e-02 -8.000360e+02 -3.085970e+01
4.000520e+02 -8.000490e+02 -3.103870e+01
-4.000490e+02 -8.040760e+02 -4.305250e+02
-9.199120e-02 -8.040960e+02 -4.307150e+02
-4.000770e+02 -4.041100e+02 -4.347890e+02
-1.305500e-01 -4.040960e+02 -4.348840e+02
-3.999850e+02 -8.000270e+02 -3.071660e+01
3.358770e-02 -8.000360e+02 -3.085970e+01
-4.000310e+02 -4.001150e+02 -3.467110e+01
-2.036430e-02 -4.001120e+02 -3.483630e+01
-9.199120e-02 -8.040960e+02 -4.307150e+02
3.998650e+02 -8.040390e+02 -4.310170e+02
-1.305500e-01 -4.040960e+02 -4.348840e+02
3.998150e+02 -4.040530e+02 -4.350500e+02
3.358770e-02 -8.000360e+02 -3.085970e+01
4.000520e+02 -8.000490e+02 -3.103870e+01
-2.036430e-02 -4.001120e+02 -3.483630e+01
3.999900e+02 -4.001230e+02 -3.501930e+01
-4.000770e+02 -4.041100e+02 -4.347890e+02
-1.305500e-01 -4.040960e+02 -4.348840e+02
-4.001690e+02 -4.029690e+00 -4.387260e+02
-1.453580e-01 -4.090620e+00 -4.389150e+02
-4.000310e+02 -4.001150e+02 -3.467110e+01
-2.036430e-02 -4.001120e+02 -3.483630e+01
-4.000200e+02 -2.078050e-01 -3.870440e+01
-1.780440e-02 -2.163250e-01 -3.892210e+01
-1.305500e-01 -4.040960e+02 -4.348840e+02
3.998150e+02 -4.040530e+02 -4.350500e+02
[...]
<PointData>
<DataArray type="Float32" Name="V1" format="ascii">
0.000000e+00
0.000000e+00
-2.696600e-02
-3.846580e-03
0.000000e+00
0.000000e+00
2.318910e-02
2.268510e-03
0.000000e+00
0.000000e+00
-3.846580e-03
1.665560e-02
0.000000e+00
0.000000e+00
2.268510e-03
-1.875740e-02
-2.696600e-02
-3.846580e-03
3.748950e-02
3.805440e-02
2.318910e-02
2.268510e-03
-6.223170e-02
-7.344330e-02
-3.846580e-03
1.665560e-02
3.805440e-02
3.690640e-02
2.268510e-03
-1.875740e-02
-7.344330e-02
-8.453110e-02
3.748950e-02
3.805440e-02
5.474860e-02
5.505370e-02
-6.223170e-02
-7.344330e-02
-6.103100e-02
-4.617380e-02
3.805440e-02
3.690640e-02
5.505370e-02
5.554550e-02
-7.344330e-02
-8.453110e-02
-4.617380e-02
-3.213390e-02
5.474860e-02
5.505370e-02
4.035830e-02
1.495750e-02
-6.103100e-02
-4.617380e-02
-2.771960e-02
-3.994620e-03
5.505370e-02
5.554550e-02
1.495750e-02
-8.589120e-03
-4.617380e-02
-3.213390e-02
-3.994620e-03
2.061620e-02
4.035830e-02
1.495750e-02
2.981780e-02
4.750920e-02
-2.771960e-02
-3.994620e-03
-5.618990e-02
-4.636390e-02
1.495750e-02
-8.589120e-03
4.750920e-02
6.480660e-02
-3.994620e-03
2.061620e-02
-4.636390e-02
-3.842250e-02
2.981780e-02
4.750920e-02
-8.894000e-02
-3.247150e-02
-5.618990e-02
-4.636390e-02
-2.963220e-02
-5.536320e-02
4.750920e-02
6.480660e-02
-3.247150e-02
2.306800e-02
-4.636390e-02
-3.842250e-02
-5.536320e-02
-8.262040e-02
-8.894000e-02
-3.247150e-02
-1.740550e-01
-6.419350e-02
-2.963220e-02
-5.536320e-02
1.648660e-02
-3.790850e-02
-3.247150e-02
2.306800e-02
-6.419350e-02
4.580320e-02
-5.536320e-02
-8.262040e-02
-3.790850e-02
-9.193470e-02
-1.740550e-01
-6.419350e-02
-5.550530e-02
-2.134610e-02
1.648660e-02
-3.790850e-02
-3.057180e-02
-4.616230e-02
-6.419350e-02
4.580320e-02
-2.134610e-02
8.883730e-03
-3.790850e-02
-9.193470e-02
-4.616230e-02
-6.203960e-02
-5.550530e-02
-2.134610e-02
1.721850e-01
1.025090e-01
-3.057180e-02
-4.616230e-02
-9.626490e-02
-7.064000e-02
-2.134610e-02
8.883730e-03
1.025090e-01
3.359220e-02
-4.616230e-02
-6.203960e-02
-7.064000e-02
-4.626200e-02
1.721850e-01
1.025090e-01
2.049290e-01
1.304790e-01
-9.626490e-02
-7.064000e-02
-6.569310e-02
-4.290770e-02
1.025090e-01
3.359220e-02
1.304790e-01
6.209050e-02
-7.064000e-02
-4.626200e-02
-4.290770e-02
-2.109100e-02
2.049290e-01
1.304790e-01
8.926480e-02
5.700840e-02
-6.569310e-02
-4.290770e-02
-8.709120e-02
-5.528900e-02
1.304790e-01
6.209050e-02
5.700840e-02
2.514740e-02
-4.290770e-02
-2.109100e-02
-5.528900e-02
-2.148980e-02
8.926480e-02
5.700840e-02
5.695260e-03
1.584850e-03
-8.709120e-02
-5.528900e-02
-6.827240e-02
-4.936610e-02
5.700840e-02
2.514740e-02
1.584850e-03
-5.895470e-03
-5.528900e-02
-2.148980e-02
-4.936610e-02
-3.151870e-02
5.695260e-03
1.584850e-03
-1.519040e-03
-4.094040e-02
-6.827240e-02
-4.936610e-02
1.105880e-02
1.865620e-02
1.584850e-03
-5.895470e-03
-4.094040e-02
-8.373020e-02
-4.936610e-02
-3.151870e-02
1.865620e-02
2.979380e-02
-1.519040e-03
-4.094040e-02
8.000180e-02
2.073870e-02
1.105880e-02
1.865620e-02
-1.964260e-02
8.565590e-03
-4.094040e-02
-8.373020e-02
2.073870e-02
-3.763090e-02
1.865620e-02
2.979380e-02
8.565590e-03
3.707960e-02
8.000180e-02
2.073870e-02
1.045670e-01
4.015130e-02
-1.964260e-02
8.565590e-03
1.321250e-03
2.646510e-03
2.073870e-02
-3.763090e-02
4.015130e-02
-2.271320e-02
8.565590e-03
3.707960e-02
2.646510e-03
3.486630e-04
1.045670e-01
4.015130e-02
2.146160e-02
4.804390e-02
1.321250e-03
2.646510e-03
2.453130e-02
-2.150550e-02
4.015130e-02
-2.271320e-02
4.804390e-02
7.503010e-02
2.646510e-03
3.486630e-04
-2.150550e-02
-6.827230e-02
2.146160e-02
4.804390e-02
-2.083860e-02
2.352720e-02
2.453130e-02
-2.150550e-02
4.954460e-03
-9.984680e-03
4.804390e-02
7.503010e-02
2.352720e-02
7.127430e-02
-2.150550e-02
-6.827230e-02
-9.984680e-03
-2.275390e-02
-2.083860e-02
2.352720e-02
1.704400e-03
3.511190e-02
4.954460e-03
-9.984680e-03
-9.115000e-03
-1.328130e-02
2.352720e-02
7.127430e-02
3.511190e-02
6.824700e-02
-9.984680e-03
-2.275390e-02
-1.328130e-02
-1.935290e-02
1.704400e-03
3.511190e-02
-2.263200e-02
1.085480e-02
-9.115000e-03
-1.328130e-02
9.545600e-03
-3.389220e-03
3.511190e-02
6.824700e-02
1.085480e-02
4.066510e-02
-1.328130e-02
-1.935290e-02
-3.389220e-03
-1.887610e-02
-2.263200e-02
1.085480e-02
-3.552200e-02
-3.292180e-02
9.545600e-03
-3.389220e-03
8.659070e-03
-1.634920e-04
1.085480e-02
4.066510e-02
-3.292180e-02
-3.281510e-02
-3.389220e-03
-1.887610e-02
-1.634920e-04
-7.531980e-03
-3.552200e-02
-3.292180e-02
-5.564980e-02
-3.817630e-02
8.659070e-03
-1.634920e-04
1.274090e-03
2.228000e-02
-3.292180e-02
-3.281510e-02
-3.817630e-02
-2.320740e-02
-1.634920e-04
-7.531980e-03
2.228000e-02
4.186370e-02
-5.564980e-02
-3.817630e-02
5.545990e-02
-2.454310e-02
1.274090e-03
2.228000e-02
-1.861630e-02
2.102730e-02
-3.817630e-02
-2.320740e-02
-2.454310e-02
-1.093060e-01
2.228000e-02
4.186370e-02
2.102730e-02
6.093270e-02
5.545990e-02
-2.454310e-02
-6.124170e-02
-4.405540e-02
-1.861630e-02
2.102730e-02
3.547880e-03
7.077690e-03
-2.454310e-02
-1.093060e-01
-4.405540e-02
-1.789090e-02
2.102730e-02
6.093270e-02
7.077690e-03
1.252960e-02
-6.124170e-02
-4.405540e-02
-2.184720e-01
-1.181790e-01
3.547880e-03
7.077690e-03
4.665410e-02
1.279580e-02
-4.405540e-02
-1.789090e-02
-1.181790e-01
-1.070140e-02
7.077690e-03
1.252960e-02
1.279580e-02
-1.948020e-02
-2.184720e-01
-1.181790e-01
-1.545310e-01
-9.550860e-02
4.665410e-02
1.279580e-02
6.423420e-02
4.555780e-02
-1.181790e-01
-1.070140e-02
-9.550860e-02
-4.019470e-02
1.279580e-02
-1.948020e-02
4.555780e-02
2.960780e-02
-1.545310e-01
-9.550860e-02
1.489790e-02
9.824910e-03
6.423420e-02
4.555780e-02
5.642620e-03
8.112710e-03
-9.550860e-02
-4.019470e-02
9.824910e-03
-8.882660e-04
4.555780e-02
2.960780e-02
8.112710e-03
1.027290e-02
1.489790e-02
9.824910e-03
2.320050e-02
7.284400e-03
5.642620e-03
8.112710e-03
1.645270e-02
2.162760e-02
9.824910e-03
-8.882660e-04
7.284400e-03
-8.997800e-03
8.112710e-03
1.027290e-02
2.162760e-02
2.504950e-02
2.320050e-02
7.284400e-03
-1.630540e-02
2.170340e-02
1.645270e-02
2.162760e-02
9.774050e-03
-8.579120e-03
7.284400e-03
-8.997800e-03
2.170340e-02
5.656830e-02
2.162760e-02
2.504950e-02
-8.579120e-03
-2.721690e-02
-1.630540e-02
2.170340e-02
4.313450e-02
4.315270e-02
9.774050e-03
-8.579120e-03
1.630420e-02
-7.566830e-03
2.170340e-02
5.656830e-02
4.315270e-02
4.371400e-02
-8.579120e-03
-2.721690e-02
-7.566830e-03
-3.259760e-02
4.313450e-02
4.315270e-02
9.123050e-02
1.174320e-01
1.630420e-02
-7.566830e-03
4.296540e-02
8.809790e-03
4.315270e-02
4.371400e-02
1.174320e-01
1.469290e-01
-7.566830e-03
-3.259760e-02
8.809790e-03
-2.690320e-02
0.000000e+00
0.000000e+00
2.318910e-02
2.268510e-03
0.000000e+00
0.000000e+00
-1.409930e-02
2.014760e-03
0.000000e+00
0.000000e+00
2.268510e-03
-1.875740e-02
0.000000e+00
0.000000e+00
2.014760e-03
1.895810e-02
2.318910e-02
2.268510e-03
-6.223170e-02
-7.344330e-02
-1.409930e-02
2.014760e-03
7.708030e-02
1.054240e-01
2.268510e-03
-1.875740e-02
-7.344330e-02
-8.453110e-02
2.014760e-03
1.895810e-02
1.054240e-01
1.315930e-01
-6.223170e-02
-7.344330e-02
-6.103100e-02
-4.617380e-02
7.708030e-02
1.054240e-01
7.654560e-02
4.383830e-02
-7.344330e-02
-8.453110e-02
-4.617380e-02
-3.213390e-02
1.054240e-01
1.315930e-01
4.383830e-02
1.214400e-02
-6.103100e-02
-4.617380e-02
-2.771960e-02
-3.994620e-03
7.654560e-02
4.383830e-02
8.664220e-03
-1.514720e-02
-4.617380e-02
-3.213390e-02
-3.994620e-03
2.061620e-02
4.383830e-02
1.214400e-02
-1.514720e-02
-3.553300e-02
-2.771960e-02
-3.994620e-03
-5.618990e-02
-4.636390e-02
8.664220e-03
-1.514720e-02
8.149800e-02
4.540400e-02
-3.994620e-03
2.061620e-02
-4.636390e-02
-3.842250e-02
-1.514720e-02
-3.553300e-02
4.540400e-02
9.418580e-03
-5.618990e-02
-4.636390e-02
-2.963220e-02
-5.536320e-02
8.149800e-02
4.540400e-02
1.639810e-01
1.560450e-01
-4.636390e-02
-3.842250e-02
-5.536320e-02
-8.262040e-02
4.540400e-02
9.418580e-03
1.560450e-01
1.485110e-01
-2.963220e-02
-5.536320e-02
1.648660e-02
-3.790850e-02
1.639810e-01
1.560450e-01
1.301270e-01
1.322150e-01
-5.536320e-02
-8.262040e-02
-3.790850e-02
-9.193470e-02
1.560450e-01
1.485110e-01
1.322150e-01
1.344870e-01
1.648660e-02
-3.790850e-02
-3.057180e-02
-4.616230e-02
1.301270e-01
1.322150e-01
1.110900e-01
1.108980e-01
-3.790850e-02
-9.193470e-02
-4.616230e-02
-6.203960e-02
1.322150e-01
1.344870e-01
1.108980e-01
1.144500e-01
-3.057180e-02
-4.616230e-02
-9.626490e-02
-7.064000e-02
1.110900e-01
1.108980e-01
2.963670e-02
4.729200e-02
-4.616230e-02
-6.203960e-02
-7.064000e-02
-4.626200e-02
1.108980e-01
1.144500e-01
4.729200e-02
6.188130e-02
-9.626490e-02
-7.064000e-02
-6.569310e-02
-4.290770e-02
2.963670e-02
4.729200e-02
-7.769690e-02
-5.380050e-02
-7.064000e-02
-4.626200e-02
-4.290770e-02
-2.109100e-02
4.729200e-02
6.188130e-02
-5.380050e-02
-3.245580e-02
-6.569310e-02
-4.290770e-02
-8.709120e-02
-5.528900e-02
-7.769690e-02
-5.380050e-02
8.659310e-02
5.572320e-02
-4.290770e-02
-2.109100e-02
-5.528900e-02
-2.148980e-02
-5.380050e-02
-3.245580e-02
5.572320e-02
2.159600e-02
-8.709120e-02
-5.528900e-02
-6.827240e-02
-4.936610e-02
8.659310e-02
5.572320e-02
1.366020e-01
1.047770e-01
-5.528900e-02
-2.148980e-02
-4.936610e-02
-3.151870e-02
5.572320e-02
2.159600e-02
1.047770e-01
7.819820e-02
-6.827240e-02
-4.936610e-02
1.105880e-02
1.865620e-02
1.366020e-01
1.047770e-01
-2.501640e-02
-9.702260e-03
-4.936610e-02
-3.151870e-02
1.865620e-02
2.979380e-02
1.047770e-01
7.819820e-02
-9.702260e-03
1.238780e-02
1.105880e-02
1.865620e-02
-1.964260e-02
8.565590e-03
-2.501640e-02
-9.702260e-03
-3.636860e-02
-3.352730e-02
1.865620e-02
2.979380e-02
8.565590e-03
3.707960e-02
-9.702260e-03
1.238780e-02
-3.352730e-02
-2.942110e-02
-1.964260e-02
8.565590e-03
1.321250e-03
2.646510e-03
-3.636860e-02
-3.352730e-02
-1.147810e-01
-4.897710e-02
8.565590e-03
3.707960e-02
2.646510e-03
3.486630e-04
-3.352730e-02
-2.942110e-02
-4.897710e-02
1.209380e-02
1.321250e-03
2.646510e-03
2.453130e-02
-2.150550e-02
-1.147810e-01
-4.897710e-02
-6.821850e-02
5.120440e-04
2.646510e-03
3.486630e-04
-2.150550e-02
-6.827230e-02
-4.897710e-02
1.209380e-02
5.120440e-04
6.798910e-02
2.453130e-02
-2.150550e-02
4.954460e-03
-9.984680e-03
-6.821850e-02
5.120440e-04
6.242780e-03
-8.482360e-03
-2.150550e-02
-6.827230e-02
-9.984680e-03
-2.275390e-02
5.120440e-04
6.798910e-02
-8.482360e-03
-2.789130e-02
4.954460e-03
-9.984680e-03
-9.115000e-03
-1.328130e-02
6.242780e-03
-8.482360e-03
1.964630e-02
-3.650320e-03
-9.984680e-03
-2.275390e-02
-1.328130e-02
-1.935290e-02
-8.482360e-03
-2.789130e-02
-3.650320e-03
-2.617530e-02
-9.115000e-03
-1.328130e-02
9.545600e-03
-3.389220e-03
1.964630e-02
-3.650320e-03
1.549790e-04
3.039520e-03
-1.328130e-02
-1.935290e-02
-3.389220e-03
-1.887610e-02
-3.650320e-03
-2.617530e-02
3.039520e-03
7.526290e-03
9.545600e-03
-3.389220e-03
8.659070e-03
-1.634920e-04
1.549790e-04
3.039520e-03
1.566950e-02
2.881320e-02
-3.389220e-03
-1.887610e-02
-1.634920e-04
-7.531980e-03
3.039520e-03
7.526290e-03
2.881320e-02
4.049910e-02
8.659070e-03
-1.634920e-04
1.274090e-03
2.228000e-02
1.566950e-02
2.881320e-02
5.605050e-02
-5.168440e-03
-1.634920e-04
-7.531980e-03
2.228000e-02
4.186370e-02
2.881320e-02
4.049910e-02
-5.168440e-03
-5.733000e-02
1.274090e-03
2.228000e-02
-1.861630e-02
2.102730e-02
5.605050e-02
-5.168440e-03
-1.854930e-02
-1.828960e-02
2.228000e-02
4.186370e-02
2.102730e-02
6.093270e-02
-5.168440e-03
-5.733000e-02
-1.828960e-02
-1.535020e-02
-1.861630e-02
2.102730e-02
3.547880e-03
7.077690e-03
-1.854930e-02
-1.828960e-02
5.412110e-02
2.977810e-02
2.102730e-02
6.093270e-02
7.077690e-03
1.252960e-02
-1.828960e-02
-1.535020e-02
2.977810e-02
-4.843660e-03
3.547880e-03
7.077690e-03
4.665410e-02
1.279580e-02
5.412110e-02
2.977810e-02
1.252370e-01
9.374200e-02
7.077690e-03
1.252960e-02
1.279580e-02
-1.948020e-02
2.977810e-02
-4.843660e-03
9.374200e-02
5.786180e-02
4.665410e-02
1.279580e-02
6.423420e-02
4.555780e-02
1.252370e-01
9.374200e-02
3.075740e-02
3.734590e-04
1.279580e-02
-1.948020e-02
4.555780e-02
2.960780e-02
9.374200e-02
5.786180e-02
3.734590e-04
-2.648020e-02
6.423420e-02
4.555780e-02
5.642620e-03
8.112710e-03
3.075740e-02
3.734590e-04
-2.653420e-02
-2.429740e-02
4.555780e-02
2.960780e-02
8.112710e-03
1.027290e-02
3.734590e-04
-2.648020e-02
-2.429740e-02
-1.860070e-02
5.642620e-03
8.112710e-03
1.645270e-02
2.162760e-02
-2.653420e-02
-2.429740e-02
-5.627480e-02
-4.876890e-02
8.112710e-03
1.027290e-02
2.162760e-02
2.504950e-02
-2.429740e-02
-1.860070e-02
-4.876890e-02
-4.365450e-02
1.645270e-02
2.162760e-02
9.774050e-03
-8.579120e-03
-5.627480e-02
-4.876890e-02
-1.223180e-02
-6.577860e-03
2.162760e-02
2.504950e-02
-8.579120e-03
-2.721690e-02
-4.876890e-02
-4.365450e-02
-6.577860e-03
-2.396260e-03
9.774050e-03
-8.579120e-03
1.630420e-02
-7.566830e-03
-1.223180e-02
-6.577860e-03
-8.447680e-02
-3.726620e-02
-8.579120e-03
-2.721690e-02
-7.566830e-03
-3.259760e-02
-6.577860e-03
-2.396260e-03
-3.726620e-02
1.004050e-02
1.630420e-02
-7.566830e-03
4.296540e-02
8.809790e-03
-8.447680e-02
-3.726620e-02
-1.531250e-01
-1.140600e-01
-7.566830e-03
-3.259760e-02
8.809790e-03
-2.690320e-02
-3.726620e-02
1.004050e-02
-1.140600e-01
-7.440340e-02
</DataArray>
<DataArray type="Float32" Name="V2" format="ascii">
0.000000e+00
0.000000e+00
-6.434320e-02
-6.319430e-02
0.000000e+00
0.000000e+00
6.150930e-02
-9.761190e-03
0.000000e+00
0.000000e+00
-6.319430e-02
-5.823630e-02
0.000000e+00
0.000000e+00
-9.761190e-03
-3.884270e-02
-6.434320e-02
-6.319430e-02
3.752800e-02
5.240440e-02
6.150930e-02
-9.761190e-03
-1.119150e-01
-1.156530e-01
-6.319430e-02
-5.823630e-02
5.240440e-02
-4.095120e-03
-9.761190e-03
-3.884270e-02
-1.156530e-01
-1.314500e-01
3.752800e-02
5.240440e-02
7.573840e-02
1.400370e-01
-1.119150e-01
-1.156530e-01
-1.233260e-01
-9.828070e-02
5.240440e-02
-4.095120e-03
1.400370e-01
8.937140e-02
-1.156530e-01
-1.314500e-01
-9.828070e-02
-6.353280e-02
7.573840e-02
1.400370e-01
1.426220e-02
1.330520e-01
-1.233260e-01
-9.828070e-02
-2.718030e-02
-4.997790e-02
1.400370e-01
8.937140e-02
1.330520e-01
1.710200e-01
-9.828070e-02
-6.353280e-02
-4.997790e-02
-3.949520e-02
1.426220e-02
1.330520e-01
-3.766840e-02
1.103820e-01
-2.718030e-02
-4.997790e-02
-1.294040e-02
-2.650880e-02
1.330520e-01
1.710200e-01
1.103820e-01
2.500140e-01
-4.997790e-02
-3.949520e-02
-2.650880e-02
-6.478400e-02
-3.766840e-02
1.103820e-01
-7.512080e-02
1.992690e-02
-1.294040e-02
-2.650880e-02
6.194180e-02
5.396430e-02
1.103820e-01
2.500140e-01
1.992690e-02
9.687710e-02
-2.650880e-02
-6.478400e-02
5.396430e-02
5.739750e-02
-7.512080e-02
1.992690e-02
-1.216610e-01
-8.694680e-02
6.194180e-02
5.396430e-02
9.675980e-02
8.575740e-02
1.992690e-02
9.687710e-02
-8.694680e-02
-2.359770e-02
5.396430e-02
5.739750e-02
8.575740e-02
7.296930e-02
-1.216610e-01
-8.694680e-02
8.366230e-02
-1.338750e-02
9.675980e-02
8.575740e-02
-1.711660e-02
-4.780440e-03
-8.694680e-02
-2.359770e-02
-1.338750e-02
-1.010700e-02
8.575740e-02
7.296930e-02
-4.780440e-03
-4.029060e-02
8.366230e-02
-1.338750e-02
1.792070e-01
1.629220e-02
-1.711660e-02
-4.780440e-03
2.057230e-03
-1.409630e-02
-1.338750e-02
-1.010700e-02
1.629220e-02
-1.279360e-01
-4.780440e-03
-4.029060e-02
-1.409630e-02
2.104450e-02
1.792070e-01
1.629220e-02
8.670380e-02
3.436300e-02
2.057230e-03
-1.409630e-02
-1.966550e-02
-6.165220e-03
1.629220e-02
-1.279360e-01
3.436300e-02
-1.832010e-02
-1.409630e-02
2.104450e-02
-6.165220e-03
1.260980e-03
8.670380e-02
3.436300e-02
4.227840e-02
7.284410e-02
-1.966550e-02
-6.165220e-03
-9.243980e-02
-7.136350e-02
3.436300e-02
-1.832010e-02
7.284410e-02
1.288040e-01
-6.165220e-03
1.260980e-03
-7.136350e-02
-9.566030e-02
4.227840e-02
7.284410e-02
-8.751800e-02
-7.944490e-02
-9.243980e-02
-7.136350e-02
4.169410e-02
-1.595380e-03
7.284410e-02
1.288040e-01
-7.944490e-02
-3.912080e-03
-7.136350e-02
-9.566030e-02
-1.595380e-03
1.125060e-02
-8.751800e-02
-7.944490e-02
-1.970550e-01
-2.068290e-01
4.169410e-02
-1.595380e-03
9.842480e-02
1.183190e-01
-7.944490e-02
-3.912080e-03
-2.068290e-01
-1.378970e-01
-1.595380e-03
1.125060e-02
1.183190e-01
1.491390e-01
-1.970550e-01
-2.068290e-01
-5.164330e-02
-6.051930e-02
9.842480e-02
1.183190e-01
-2.115500e-02
2.821150e-02
-2.068290e-01
-1.378970e-01
-6.051930e-02
-3.419880e-02
1.183190e-01
1.491390e-01
2.821150e-02
5.248790e-02
-5.164330e-02
-6.051930e-02
1.521380e-01
2.095110e-01
-2.115500e-02
2.821150e-02
-1.479650e-01
-1.645170e-01
-6.051930e-02
-3.419880e-02
2.095110e-01
2.000280e-01
2.821150e-02
5.248790e-02
-1.645170e-01
-1.542870e-01
1.521380e-01
2.095110e-01
2.921750e-01
3.342860e-01
-1.479650e-01
-1.645170e-01
-1.337430e-01
-1.312400e-01
2.095110e-01
2.000280e-01
3.342860e-01
3.927450e-01
-1.645170e-01
-1.542870e-01
-1.312400e-01
-1.539580e-01
2.921750e-01
3.342860e-01
2.459900e-01
1.263520e-01
-1.337430e-01
-1.312400e-01
5.064290e-02
6.582260e-02
3.342860e-01
3.927450e-01
1.263520e-01
1.178310e-01
-1.312400e-01
-1.539580e-01
6.582260e-02
5.010990e-02
2.459900e-01
1.263520e-01
-5.527400e-03
-3.980030e-02
5.064290e-02
6.582260e-02
7.823580e-02
7.418470e-02
1.263520e-01
1.178310e-01
-3.980030e-02
-3.653690e-02
6.582260e-02
5.010990e-02
7.418470e-02
8.502410e-02
-5.527400e-03
-3.980030e-02
-3.403130e-02
-4.351560e-02
7.823580e-02
7.418470e-02
-3.524930e-02
-5.181770e-02
-3.980030e-02
-3.653690e-02
-4.351560e-02
-7.059870e-02
7.418470e-02
8.502410e-02
-5.181770e-02
-4.433490e-02
-3.403130e-02
-4.351560e-02
2.055980e-02
-5.268380e-02
-3.524930e-02
-5.181770e-02
-3.285270e-02
-9.421660e-03
-4.351560e-02
-7.059870e-02
-5.268380e-02
-1.449910e-01
-5.181770e-02
-4.433490e-02
-9.421660e-03
2.941120e-02
2.055980e-02
-5.268380e-02
6.107340e-02
-9.274260e-02
-3.285270e-02
-9.421660e-03
9.006400e-02
1.017160e-01
-5.268380e-02
-1.449910e-01
-9.274260e-02
-1.675640e-01
-9.421660e-03
2.941120e-02
1.017160e-01
1.172310e-01
6.107340e-02
-9.274260e-02
1.810410e-01
9.846630e-02
9.006400e-02
1.017160e-01
4.211130e-02
3.840120e-02
-9.274260e-02
-1.675640e-01
9.846630e-02
5.843590e-02
1.017160e-01
1.172310e-01
3.840120e-02
9.028490e-03
1.810410e-01
9.846630e-02
7.880560e-03
1.085340e-02
4.211130e-02
3.840120e-02
-1.601310e-02
-2.736960e-02
9.846630e-02
5.843590e-02
1.085340e-02
-6.735910e-03
3.840120e-02
9.028490e-03
-2.736960e-02
-4.820120e-02
7.880560e-03
1.085340e-02
-1.743430e-01
-1.195760e-01
-1.601310e-02
-2.736960e-02
2.476110e-02
2.819010e-02
1.085340e-02
-6.735910e-03
-1.195760e-01
-5.961880e-02
-2.736960e-02
-4.820120e-02
2.819010e-02
3.115250e-02
-1.743430e-01
-1.195760e-01
-2.227240e-02
-2.785170e-02
2.476110e-02
2.819010e-02
5.506220e-02
5.706030e-02
-1.195760e-01
-5.961880e-02
-2.785170e-02
8.689170e-03
2.819010e-02
3.115250e-02
5.706030e-02
5.520450e-02
-2.227240e-02
-2.785170e-02
-2.223770e-01
-1.336860e-01
5.506220e-02
5.706030e-02
6.502790e-02
4.038690e-02
-2.785170e-02
8.689170e-03
-1.336860e-01
-6.409000e-02
5.706030e-02
5.520450e-02
4.038690e-02
3.641510e-02
-2.223770e-01
-1.336860e-01
-9.348690e-02
-7.437290e-02
6.502790e-02
4.038690e-02
-3.996510e-02
-3.725500e-02
-1.336860e-01
-6.409000e-02
-7.437290e-02
-6.114930e-02
4.038690e-02
3.641510e-02
-3.725500e-02
-2.610390e-02
-9.348690e-02
-7.437290e-02
1.104550e-01
3.321720e-02
-3.996510e-02
-3.725500e-02
-5.658690e-02
-4.419350e-02
-7.437290e-02
-6.114930e-02
3.321720e-02
5.827230e-02
-3.725500e-02
-2.610390e-02
-4.419350e-02
-4.699110e-02
1.104550e-01
3.321720e-02
-1.992830e-02
-1.066600e-02
-5.658690e-02
-4.419350e-02
8.618360e-03
-7.618270e-03
3.321720e-02
5.827230e-02
-1.066600e-02
5.561000e-02
-4.419350e-02
-4.699110e-02
-7.618270e-03
-4.727650e-02
-1.992830e-02
-1.066600e-02
-2.018290e-01
-6.823100e-02
8.618360e-03
-7.618270e-03
-2.540990e-03
-4.280030e-02
-1.066600e-02
5.561000e-02
-6.823100e-02
1.761170e-02
-7.618270e-03
-4.727650e-02
-4.280030e-02
-6.218280e-02
0.000000e+00
0.000000e+00
6.150930e-02
-9.761190e-03
0.000000e+00
0.000000e+00
-4.935960e-02
8.090290e-02
0.000000e+00
0.000000e+00
-9.761190e-03
-3.884270e-02
0.000000e+00
0.000000e+00
8.090290e-02
1.499870e-01
6.150930e-02
-9.761190e-03
-1.119150e-01
-1.156530e-01
-4.935960e-02
8.090290e-02
1.891770e-01
1.743590e-01
-9.761190e-03
-3.884270e-02
-1.156530e-01
-1.314500e-01
8.090290e-02
1.499870e-01
1.743590e-01