<?xml version="1.0"?>
<VTKFile type="UnstructuredGrid" version="0.1" byte_order="LittleEndian" compressor="vtkZLibDataCompressor">
<UnstructuredGrid>
<Piece NumberOfPoints="960" NumberOfCells="120">
<Points>
<DataArray type="Float32" NumberOfComponents="3" format="ascii">
-4.000000e+02 -6.000000e+03 -4.000000e+02
0.000000e+00 -6.000000e+03 -4.000000e+02
-3.999310e+02 -5.600340e+03 -4.002120e+02
4.127690e-02 -5.600370e+03 -4.000790e+02
-4.000000e+02 -6.000000e+03 0.000000e+00
0.000000e+00 -6.000000e+03 0.000000e+00
-4.000110e+02 -5.599980e+03 -8.744360e-02
-5.028510e-03 -5.599970e+03 7.493870e-03
0.000000e+00 -6.000000e+03 -4.000000e+02
4.000000e+02 -6.000000e+03 -4.000000e+02
4.127690e-02 -5.600370e+03 -4.000790e+02
4.000140e+02 -5.600390e+03 -4.000050e+02
0.000000e+00 -6.000000e+03 0.000000e+00
4.000000e+02 -6.000000e+03 0.000000e+00
-5.028510e-03 -5.599970e+03 7.493870e-03
4.000020e+02 -5.599970e+03 5.252400e-02
-3.999310e+02 -5.600340e+03 -4.002120e+02
4.127690e-02 -5.600370e+03 -4.000790e+02
-3.999860e+02 -5.200700e+03 -4.007180e+02
-1.936990e-02 -5.200750e+03 -4.007020e+02
-4.000110e+02 -5.599980e+03 -8.744360e-02
-5.028510e-03 -5.599970e+03 7.493870e-03
-3.999830e+02 -5.200000e+03 -5.883250e-01
2.100200e-02 -5.199990e+03 -5.214820e-01
4.127690e-02 -5.600370e+03 -4.000790e+02
4.000140e+02 -5.600390e+03 -4.000050e+02
-1.936990e-02 -5.200750e+03 -4.007020e+02
3.999470e+02 -5.200760e+03 -4.007670e+02
-5.028510e-03 -5.599970e+03 7.493870e-03
4.000020e+02 -5.599970e+03 5.252400e-02
2.100200e-02 -5.199990e+03 -5.214820e-01
4.000250e+02 -5.199970e+03 -5.402640e-01
-3.999860e+02 -5.200700e+03 -4.007180e+02
-1.936990e-02 -5.200750e+03 -4.007020e+02
-4.000520e+02 -4.801020e+03 -4.013780e+02
-8.120760e-02 -4.801080e+03 -4.014750e+02
-3.999830e+02 -5.200000e+03 -5.883250e-01
2.100200e-02 -5.199990e+03 -5.214820e-01
-3.999730e+02 -4.800040e+03 -1.356780e+00
1.967800e-02 -4.800030e+03 -1.376770e+00
-1.936990e-02 -5.200750e+03 -4.007020e+02
3.999470e+02 -5.200760e+03 -4.007670e+02
-8.120760e-02 -4.801080e+03 -4.014750e+02
3.998890e+02 -4.801120e+03 -4.016020e+02
2.100200e-02 -5.199990e+03 -5.214820e-01
4.000250e+02 -5.199970e+03 -5.402640e-01
1.967800e-02 -4.800030e+03 -1.376770e+00
4.000110e+02 -4.800030e+03 -1.456900e+00
-4.000520e+02 -4.801020e+03 -4.013780e+02
-8.120760e-02 -4.801080e+03 -4.014750e+02
-4.000880e+02 -4.401360e+03 -4.024370e+02
-8.672660e-02 -4.401420e+03 -4.026190e+02
-3.999730e+02 -4.800040e+03 -1.356780e+00
1.967800e-02 -4.800030e+03 -1.376770e+00
-3.999740e+02 -4.400050e+03 -2.498920e+00
1.991340e-02 -4.400050e+03 -2.616340e+00
-8.120760e-02 -4.801080e+03 -4.014750e+02
3.998890e+02 -4.801120e+03 -4.016020e+02
-8.672660e-02 -4.401420e+03 -4.026190e+02
3.999150e+02 -4.401480e+03 -4.027670e+02
1.967800e-02 -4.800030e+03 -1.376770e+00
4.000110e+02 -4.800030e+03 -1.456900e+00
1.991340e-02 -4.400050e+03 -2.616340e+00
4.000130e+02 -4.400050e+03 -2.751460e+00
-4.000880e+02 -4.401360e+03 -4.024370e+02
-8.672660e-02 -4.401420e+03 -4.026190e+02
-4.000840e+02 -4.001640e+03 -4.039660e+02
-9.228400e-02 -4.001620e+03 -4.041370e+02
-3.999740e+02 -4.400050e+03 -2.498920e+00
1.991340e-02 -4.400050e+03 -2.616340e+00
-3.999880e+02 -4.000020e+03 -4.103850e+00
1.557930e-02 -4.000030e+03 -4.241790e+00
-8.672660e-02 -4.401420e+03 -4.026190e+02
3.999150e+02 -4.401480e+03 -4.027670e+02
-9.228400e-02 -4.001620e+03 -4.041370e+02
3.998990e+02 -4.001600e+03 -4.043280e+02
1.991340e-02 -4.400050e+03 -2.616340e+00
4.000130e+02 -4.400050e+03 -2.751460e+00
1.557930e-02 -4.000030e+03 -4.241790e+00
4.000190e+02 -4.000030e+03 -4.395550e+00
-4.000840e+02 -4.001640e+03 -4.039660e+02
-9.228400e-02 -4.001620e+03 -4.041370e+02
-4.000570e+02 -3.601750e+03 -4.057540e+02
-6.157770e-02 -3.601710e+03 -4.057760e+02
-3.999880e+02 -4.000020e+03 -4.103850e+00
1.557930e-02 -4.000030e+03 -4.241790e+00
-4.000010e+02 -3.599980e+03 -5.862360e+00
4.660770e-03 -3.599990e+03 -5.907890e+00
-9.228400e-02 -4.001620e+03 -4.041370e+02
3.998990e+02 -4.001600e+03 -4.043280e+02
-6.157770e-02 -3.601710e+03 -4.057760e+02
3.999340e+02 -3.601670e+03 -4.058390e+02
1.557930e-02 -4.000030e+03 -4.241790e+00
4.000190e+02 -4.000030e+03 -4.395550e+00
4.660770e-03 -3.599990e+03 -5.907890e+00
4.000120e+02 -3.599990e+03 -5.952510e+00
-4.000570e+02 -3.601750e+03 -4.057540e+02
-6.157770e-02 -3.601710e+03 -4.057760e+02
-3.999610e+02 -3.201850e+03 -4.076920e+02
2.755480e-02 -3.201860e+03 -4.076160e+02
-4.000010e+02 -3.599980e+03 -5.862360e+00
4.660770e-03 -3.599990e+03 -5.907890e+00
-4.000130e+02 -3.199980e+03 -7.682040e+00
-4.248740e-03 -3.199970e+03 -7.641770e+00
-6.157770e-02 -3.601710e+03 -4.057760e+02
3.999340e+02 -3.601670e+03 -4.058390e+02
2.755480e-02 -3.201860e+03 -4.076160e+02
4.000170e+02 -3.201860e+03 -4.075600e+02
4.660770e-03 -3.599990e+03 -5.907890e+00
4.000120e+02 -3.599990e+03 -5.952510e+00
-4.248740e-03 -3.199970e+03 -7.641770e+00
4.000050e+02 -3.199960e+03 -7.599340e+00
-3.999610e+02 -3.201850e+03 -4.076920e+02
2.755480e-02 -3.201860e+03 -4.076160e+02
-3.999590e+02 -2.801970e+03 -4.096000e+02
3.140130e-02 -2.801950e+03 -4.095660e+02
-4.000130e+02 -3.199980e+03 -7.682040e+00
-4.248740e-03 -3.199970e+03 -7.641770e+00
-3.999720e+02 -2.800010e+03 -9.601060e+00
2.627770e-02 -2.800000e+03 -9.543050e+00
2.755480e-02 -3.201860e+03 -4.076160e+02
4.000170e+02 -3.201860e+03 -4.075600e+02
3.140130e-02 -2.801950e+03 -4.095660e+02
4.000230e+02 -2.801930e+03 -4.095440e+02
-4.248740e-03 -3.199970e+03 -7.641770e+00
4.000050e+02 -3.199960e+03 -7.599340e+00
2.627770e-02 -2.800000e+03 -9.543050e+00
4.000260e+02 -2.800000e+03 -9.487910e+00
-3.999590e+02 -2.801970e+03 -4.096000e+02
3.140130e-02 -2.801950e+03 -4.095660e+02
-4.000050e+02 -2.401970e+03 -4.114170e+02
-7.005970e-03 -2.401950e+03 -4.113700e+02
-3.999720e+02 -2.800010e+03 -9.601060e+00
2.627770e-02 -2.800000e+03 -9.543050e+00
-3.999830e+02 -2.400060e+03 -1.145040e+01
1.121980e-02 -2.400050e+03 -1.138640e+01
3.140130e-02 -2.801950e+03 -4.095660e+02
4.000230e+02 -2.801930e+03 -4.095440e+02
-7.005970e-03 -2.401950e+03 -4.113700e+02
3.999910e+02 -2.401930e+03 -4.112910e+02
2.627770e-02 -2.800000e+03 -9.543050e+00
4.000260e+02 -2.800000e+03 -9.487910e+00
1.121980e-02 -2.400050e+03 -1.138640e+01
4.000050e+02 -2.400050e+03 -1.133120e+01
-4.000050e+02 -2.401970e+03 -4.114170e+02
-7.005970e-03 -2.401950e+03 -4.113700e+02
-4.000530e+02 -2.002050e+03 -4.131320e+02
-2.289560e-02 -2.002060e+03 -4.131680e+02
-3.999830e+02 -2.400060e+03 -1.145040e+01
1.121980e-02 -2.400050e+03 -1.138640e+01
-3.999780e+02 -2.000060e+03 -1.325100e+01
1.019590e-02 -2.000060e+03 -1.325610e+01
-7.005970e-03 -2.401950e+03 -4.113700e+02
3.999910e+02 -2.401930e+03 -4.112910e+02
-2.289560e-02 -2.002060e+03 -4.131680e+02
4.000080e+02 -2.002090e+03 -4.131140e+02
1.121980e-02 -2.400050e+03 -1.138640e+01
4.000050e+02 -2.400050e+03 -1.133120e+01
1.019590e-02 -2.000060e+03 -1.325610e+01
3.999980e+02 -2.000050e+03 -1.322070e+01
-4.000530e+02 -2.002050e+03 -4.131320e+02
-2.289560e-02 -2.002060e+03 -4.131680e+02
-4.000860e+02 -1.602300e+03 -4.152530e+02
-4.201920e-02 -1.602290e+03 -4.153840e+02
-3.999780e+02 -2.000060e+03 -1.325100e+01
1.019590e-02 -2.000060e+03 -1.325610e+01
-3.999700e+02 -1.600030e+03 -1.538040e+01
1.966020e-02 -1.600030e+03 -1.547850e+01
-2.289560e-02 -2.002060e+03 -4.131680e+02
4.000080e+02 -2.002090e+03 -4.131140e+02
-4.201920e-02 -1.602290e+03 -4.153840e+02
4.000020e+02 -1.602280e+03 -4.154480e+02
1.019590e-02 -2.000060e+03 -1.325610e+01
3.999980e+02 -2.000050e+03 -1.322070e+01
1.966020e-02 -1.600030e+03 -1.547850e+01
4.000100e+02 -1.600050e+03 -1.552150e+01
-4.000860e+02 -1.602300e+03 -4.152530e+02
-4.201920e-02 -1.602290e+03 -4.153840e+02
-4.000770e+02 -1.202530e+03 -4.176790e+02
-8.576440e-02 -1.202460e+03 -4.177410e+02
-3.999700e+02 -1.600030e+03 -1.538040e+01
1.966020e-02 -1.600030e+03 -1.547850e+01
-4.000100e+02 -1.200020e+03 -1.771610e+01
-8.415140e-03 -1.200030e+03 -1.780310e+01
-4.201920e-02 -1.602290e+03 -4.153840e+02
4.000020e+02 -1.602280e+03 -4.154480e+02
-8.576440e-02 -1.202460e+03 -4.177410e+02
3.999050e+02 -1.202390e+03 -4.178040e+02
1.966020e-02 -1.600030e+03 -1.547850e+01
4.000100e+02 -1.600050e+03 -1.552150e+01
-8.415140e-03 -1.200030e+03 -1.780310e+01
3.999930e+02 -1.200050e+03 -1.788990e+01
-4.000770e+02 -1.202530e+03 -4.176790e+02
-8.576440e-02 -1.202460e+03 -4.177410e+02
-4.001350e+02 -8.025140e+02 -4.201010e+02
-1.237620e-01 -8.024200e+02 -4.201600e+02
-4.000100e+02 -1.200020e+03 -1.771610e+01
-8.415140e-03 -1.200030e+03 -1.780310e+01
-4.000030e+02 -8.000420e+02 -2.013480e+01
-1.345650e-02 -8.000570e+02 -2.022960e+01
-8.576440e-02 -1.202460e+03 -4.177410e+02
3.999050e+02 -1.202390e+03 -4.178040e+02
-1.237620e-01 -8.024200e+02 -4.201600e+02
3.998870e+02 -8.023790e+02 -4.202180e+02
-8.415140e-03 -1.200030e+03 -1.780310e+01
3.999930e+02 -1.200050e+03 -1.788990e+01
-1.345650e-02 -8.000570e+02 -2.022960e+01
3.999770e+02 -8.000570e+02 -2.033490e+01
-4.001350e+02 -8.025140e+02 -4.201010e+02
-1.237620e-01 -8.024200e+02 -4.201600e+02
-4.001560e+02 -4.023290e+02 -4.222010e+02
-1.101410e-01 -4.022840e+02 -4.223140e+02
-4.000030e+02 -8.000420e+02 -2.013480e+01
-1.345650e-02 -8.000570e+02 -2.022960e+01
-3.999510e+02 -4.000480e+02 -2.235460e+01
2.309650e-02 -4.000310e+02 -2.239920e+01
-1.237620e-01 -8.024200e+02 -4.201600e+02
3.998870e+02 -8.023790e+02 -4.202180e+02
-1.101410e-01 -4.022840e+02 -4.223140e+02
3.999360e+02 -4.022120e+02 -4.223600e+02
-1.345650e-02 -8.000570e+02 -2.022960e+01
3.999770e+02 -8.000570e+02 -2.033490e+01
2.309650e-02 -4.000310e+02 -2.239920e+01
3.999970e+02 -4.000340e+02 -2.244020e+01
-4.001560e+02 -4.023290e+02 -4.222010e+02
-1.101410e-01 -4.022840e+02 -4.223140e+02
-4.000680e+02 -2.291600e+00 -4.244360e+02
-1.110680e-02 -2.263500e+00 -4.245450e+02
-3.999510e+02 -4.000480e+02 -2.235460e+01
2.309650e-02 -4.000310e+02 -2.239920e+01
-3.999530e+02 -4.286360e-02 -2.453500e+01
2.380480e-02 -3.874010e-02 -2.454520e+01
-1.101410e-01 -4.022840e+02 -4.223140e+02
3.999360e+02 -4.022120e+02 -4.223600e+02
[...]
<PointData>
<DataArray type="Float32" Name="V1" format="ascii">
0.000000e+00
0.000000e+00
-1.386890e-01
-9.879440e-02
0.000000e+00
0.000000e+00
3.859630e-02
4.647520e-02
0.000000e+00
0.000000e+00
-9.879440e-02
-5.995370e-02
0.000000e+00
0.000000e+00
4.647520e-02
5.326180e-02
-1.386890e-01
-9.879440e-02
4.744350e-02
3.946910e-02
3.859630e-02
4.647520e-02
-5.510390e-02
-3.490210e-02
-9.879440e-02
-5.995370e-02
3.946910e-02
3.200450e-02
4.647520e-02
5.326180e-02
-3.490210e-02
-1.455450e-02
4.744350e-02
3.946910e-02
8.246070e-02
7.899870e-02
-5.510390e-02
-3.490210e-02
-3.086630e-02
-2.359310e-02
3.946910e-02
3.200450e-02
7.899870e-02
7.609360e-02
-3.490210e-02
-1.455450e-02
-2.359310e-02
-1.588000e-02
8.246070e-02
7.899870e-02
7.435510e-02
6.285820e-02
-3.086630e-02
-2.359310e-02
-1.170940e-02
1.681180e-02
7.899870e-02
7.609360e-02
6.285820e-02
5.111700e-02
-2.359310e-02
-1.588000e-02
1.681180e-02
4.505140e-02
7.435510e-02
6.285820e-02
9.563410e-02
5.737770e-02
-1.170940e-02
1.681180e-02
-2.166720e-02
2.795210e-02
6.285820e-02
5.111700e-02
5.737770e-02
1.758480e-02
1.681180e-02
4.505140e-02
2.795210e-02
8.028420e-02
9.563410e-02
5.737770e-02
3.766650e-02
-2.997190e-03
-2.166720e-02
2.795210e-02
1.022670e-03
4.245660e-02
5.737770e-02
1.758480e-02
-2.997190e-03
-4.788020e-02
2.795210e-02
8.028420e-02
4.245660e-02
8.292290e-02
3.766650e-02
-2.997190e-03
-4.200870e-02
-2.341930e-02
1.022670e-03
4.245660e-02
3.191850e-02
6.168900e-02
-2.997190e-03
-4.788020e-02
-2.341930e-02
-4.713160e-03
4.245660e-02
8.292290e-02
6.168900e-02
9.149290e-02
-4.200870e-02
-2.341930e-02
-7.621770e-02
-7.507140e-02
3.191850e-02
6.168900e-02
3.255790e-02
5.403930e-02
-2.341930e-02
-4.713160e-03
-7.507140e-02
-7.053210e-02
6.168900e-02
9.149290e-02
5.403930e-02
7.573030e-02
-7.621770e-02
-7.507140e-02
-7.405670e-02
-1.028500e-01
3.255790e-02
5.403930e-02
2.044670e-02
4.729890e-02
-7.507140e-02
-7.053210e-02
-1.028500e-01
-1.316280e-01
5.403930e-02
7.573030e-02
4.729890e-02
7.398850e-02
-7.405670e-02
-1.028500e-01
2.497610e-02
-6.742360e-02
2.044670e-02
4.729890e-02
3.428200e-03
3.981750e-02
-1.028500e-01
-1.316280e-01
-6.742360e-02
-1.576870e-01
4.729890e-02
7.398850e-02
3.981750e-02
7.601020e-02
2.497610e-02
-6.742360e-02
1.065840e-01
4.328000e-02
3.428200e-03
3.981750e-02
-2.153870e-02
2.729510e-02
-6.742360e-02
-1.576870e-01
4.328000e-02
-2.255600e-02
3.981750e-02
7.601020e-02
2.729510e-02
7.763960e-02
1.065840e-01
4.328000e-02
-8.945360e-03
-2.159110e-02
-2.153870e-02
2.729510e-02
-1.566620e-02
4.363790e-02
4.328000e-02
-2.255600e-02
-2.159110e-02
-3.682460e-02
2.729510e-02
7.763960e-02
4.363790e-02
1.024690e-01
-8.945360e-03
-2.159110e-02
-7.718610e-02
-1.452120e-01
-1.566620e-02
4.363790e-02
-1.871890e-02
3.445830e-02
-2.159110e-02
-3.682460e-02
-1.452120e-01
-2.130160e-01
4.363790e-02
1.024690e-01
3.445830e-02
8.753320e-02
-7.718610e-02
-1.452120e-01
-4.337510e-02
-7.995300e-02
-1.871890e-02
3.445830e-02
6.520450e-03
3.475860e-02
-1.452120e-01
-2.130160e-01
-7.995300e-02
-1.143750e-01
3.445830e-02
8.753320e-02
3.475860e-02
6.423350e-02
-4.337510e-02
-7.995300e-02
-5.920040e-02
-9.285990e-02
6.520450e-03
3.475860e-02
2.220730e-02
4.730020e-02
-7.995300e-02
-1.143750e-01
-9.285990e-02
-1.267820e-01
3.475860e-02
6.423350e-02
4.730020e-02
7.235700e-02
-5.920040e-02
-9.285990e-02
2.590890e-02
-1.969390e-02
2.220730e-02
4.730020e-02
-2.103670e-02
-3.682800e-03
-9.285990e-02
-1.267820e-01
-1.969390e-02
-6.307810e-02
4.730020e-02
7.235700e-02
-3.682800e-03
1.352960e-02
2.590890e-02
-1.969390e-02
5.933370e-02
5.047630e-02
-2.103670e-02
-3.682800e-03
-1.947310e-02
-9.616370e-03
-1.969390e-02
-6.307810e-02
5.047630e-02
4.372670e-02
-3.682800e-03
1.352960e-02
-9.616370e-03
3.509390e-03
5.933370e-02
5.047630e-02
6.385980e-02
4.908630e-02
-1.947310e-02
-9.616370e-03
-4.447430e-02
-2.253610e-02
5.047630e-02
4.372670e-02
4.908630e-02
3.434090e-02
-9.616370e-03
3.509390e-03
-2.253610e-02
8.975590e-04
6.385980e-02
4.908630e-02
5.714320e-02
1.014850e-01
-4.447430e-02
-2.253610e-02
-5.481810e-02
-3.974620e-02
4.908630e-02
3.434090e-02
1.014850e-01
1.437380e-01
-2.253610e-02
8.975590e-04
-3.974620e-02
-2.571170e-02
5.714320e-02
1.014850e-01
7.372280e-02
1.066680e-01
-5.481810e-02
-3.974620e-02
-7.785920e-03
-2.641920e-02
1.014850e-01
1.437380e-01
1.066680e-01
1.339980e-01
-3.974620e-02
-2.571170e-02
-2.641920e-02
-4.682550e-02
7.372280e-02
1.066680e-01
8.601230e-02
6.872370e-02
-7.785920e-03
-2.641920e-02
3.614680e-02
-3.764910e-03
1.066680e-01
1.339980e-01
6.872370e-02
5.355750e-02
-2.641920e-02
-4.682550e-02
-3.764910e-03
-4.487440e-02
8.601230e-02
6.872370e-02
3.963670e-04
-1.104270e-02
3.614680e-02
-3.764910e-03
2.477960e-02
-7.032060e-03
6.872370e-02
5.355750e-02
-1.104270e-02
-2.028510e-02
-3.764910e-03
-4.487440e-02
-7.032060e-03
-3.905570e-02
3.963670e-04
-1.104270e-02
-4.490220e-02
1.358440e-02
2.477960e-02
-7.032060e-03
7.890770e-03
-2.305800e-02
-1.104270e-02
-2.028510e-02
1.358440e-02
7.232550e-02
-7.032060e-03
-3.905570e-02
-2.305800e-02
-5.302280e-02
-4.490220e-02
1.358440e-02
-1.271990e-01
-1.878710e-03
7.890770e-03
-2.305800e-02
3.722650e-03
-2.775800e-02
1.358440e-02
7.232550e-02
-1.878710e-03
1.262690e-01
-2.305800e-02
-5.302280e-02
-2.775800e-02
-5.852760e-02
-1.271990e-01
-1.878710e-03
-7.302750e-02
-3.885290e-02
3.722650e-03
-2.775800e-02
1.065220e-02
-3.085240e-02
-1.878710e-03
1.262690e-01
-3.885290e-02
-7.026350e-03
-2.775800e-02
-5.852760e-02
-3.085240e-02
-7.291450e-02
-7.302750e-02
-3.885290e-02
-8.381080e-02
-6.356270e-02
1.065220e-02
-3.085240e-02
4.225500e-02
-1.052730e-02
-3.885290e-02
-7.026350e-03
-6.356270e-02
-4.594860e-02
-3.085240e-02
-7.291450e-02
-1.052730e-02
-6.064710e-02
-8.381080e-02
-6.356270e-02
-9.860660e-03
-6.793490e-03
4.225500e-02
-1.052730e-02
3.386440e-02
-1.236310e-02
-6.356270e-02
-4.594860e-02
-6.793490e-03
-1.735060e-03
-1.052730e-02
-6.064710e-02
-1.236310e-02
-5.740640e-02
-9.860660e-03
-6.793490e-03
9.826620e-02
6.959490e-02
3.386440e-02
-1.236310e-02
3.441960e-02
-7.653600e-03
-6.793490e-03
-1.735060e-03
6.959490e-02
3.833930e-02
-1.236310e-02
-5.740640e-02
-7.653600e-03
-4.990650e-02
9.826620e-02
6.959490e-02
-5.454570e-02
-2.288720e-02
3.441960e-02
-7.653600e-03
4.866940e-02
2.262190e-02
6.959490e-02
3.833930e-02
-2.288720e-02
5.640510e-03
-7.653600e-03
-4.990650e-02
2.262190e-02
-5.782690e-03
-5.454570e-02
-2.288720e-02
-2.190580e-01
-6.940780e-02
4.866940e-02
2.262190e-02
4.284640e-02
2.952070e-02
-2.288720e-02
5.640510e-03
-6.940780e-02
8.125410e-02
2.262190e-02
-5.782690e-03
2.952070e-02
1.373350e-02
0.000000e+00
0.000000e+00
3.859630e-02
4.647520e-02
0.000000e+00
0.000000e+00
6.365360e-02
8.832130e-03
0.000000e+00
0.000000e+00
4.647520e-02
5.326180e-02
0.000000e+00
0.000000e+00
8.832130e-03
-4.670220e-02
3.859630e-02
4.647520e-02
-5.510390e-02
-3.490210e-02
6.365360e-02
8.832130e-03
5.650460e-02
3.253160e-02
4.647520e-02
5.326180e-02
-3.490210e-02
-1.455450e-02
8.832130e-03
-4.670220e-02
3.253160e-02
5.507790e-03
-5.510390e-02
-3.490210e-02
-3.086630e-02
-2.359310e-02
5.650460e-02
3.253160e-02
-1.873900e-02
-3.439200e-02
-3.490210e-02
-1.455450e-02
-2.359310e-02
-1.588000e-02
3.253160e-02
5.507790e-03
-3.439200e-02
-5.099600e-02
-3.086630e-02
-2.359310e-02
-1.170940e-02
1.681180e-02
-1.873900e-02
-3.439200e-02
-4.706750e-02
-9.589320e-02
-2.359310e-02
-1.588000e-02
1.681180e-02
4.505140e-02
-3.439200e-02
-5.099600e-02
-9.589320e-02
-1.442720e-01
-1.170940e-02
1.681180e-02
-2.166720e-02
2.795210e-02
-4.706750e-02
-9.589320e-02
-5.037560e-02
-1.116990e-01
1.681180e-02
4.505140e-02
2.795210e-02
8.028420e-02
-9.589320e-02
-1.442720e-01
-1.116990e-01
-1.730950e-01
-2.166720e-02
2.795210e-02
1.022670e-03
4.245660e-02
-5.037560e-02
-1.116990e-01
-4.304900e-02
-8.346780e-02
2.795210e-02
8.028420e-02
4.245660e-02
8.292290e-02
-1.116990e-01
-1.730950e-01
-8.346780e-02
-1.207410e-01
1.022670e-03
4.245660e-02
3.191850e-02
6.168900e-02
-4.304900e-02
-8.346780e-02
-1.709200e-02
-9.677640e-02
4.245660e-02
8.292290e-02
6.168900e-02
9.149290e-02
-8.346780e-02
-1.207410e-01
-9.677640e-02
-1.775340e-01
3.191850e-02
6.168900e-02
3.255790e-02
5.403930e-02
-1.709200e-02
-9.677640e-02
9.663430e-03
-3.712180e-02
6.168900e-02
9.149290e-02
5.403930e-02
7.573030e-02
-9.677640e-02
-1.775340e-01
-3.712180e-02
-8.574670e-02
3.255790e-02
5.403930e-02
2.044670e-02
4.729890e-02
9.663430e-03
-3.712180e-02
3.369560e-02
9.676380e-03
5.403930e-02
7.573030e-02
4.729890e-02
7.398850e-02
-3.712180e-02
-8.574670e-02
9.676380e-03
-1.573380e-02
2.044670e-02
4.729890e-02
3.428200e-03
3.981750e-02
3.369560e-02
9.676380e-03
-3.201530e-02
-1.303360e-02
4.729890e-02
7.398850e-02
3.981750e-02
7.601020e-02
9.676380e-03
-1.573380e-02
-1.303360e-02
4.626560e-03
3.428200e-03
3.981750e-02
-2.153870e-02
2.729510e-02
-3.201530e-02
-1.303360e-02
-6.626550e-02
-1.015470e-01
3.981750e-02
7.601020e-02
2.729510e-02
7.763960e-02
-1.303360e-02
4.626560e-03
-1.015470e-01
-1.369120e-01
-2.153870e-02
2.729510e-02
-1.566620e-02
4.363790e-02
-6.626550e-02
-1.015470e-01
4.890110e-02
-5.628170e-02
2.729510e-02
7.763960e-02
4.363790e-02
1.024690e-01
-1.015470e-01
-1.369120e-01
-5.628170e-02
-1.569660e-01
-1.566620e-02
4.363790e-02
-1.871890e-02
3.445830e-02
4.890110e-02
-5.628170e-02
1.123450e-01
7.415430e-02
4.363790e-02
1.024690e-01
3.445830e-02
8.753320e-02
-5.628170e-02
-1.569660e-01
7.415430e-02
3.513020e-02
-1.871890e-02
3.445830e-02
6.520450e-03
3.475860e-02
1.123450e-01
7.415430e-02
2.568720e-02
5.304290e-03
3.445830e-02
8.753320e-02
3.475860e-02
6.423350e-02
7.415430e-02
3.513020e-02
5.304290e-03
-1.422780e-02
6.520450e-03
3.475860e-02
2.220730e-02
4.730020e-02
2.568720e-02
5.304290e-03
1.778060e-02
-1.950740e-03
3.475860e-02
6.423350e-02
4.730020e-02
7.235700e-02
5.304290e-03
-1.422780e-02
-1.950740e-03
-1.939350e-02
2.220730e-02
4.730020e-02
-2.103670e-02
-3.682800e-03
1.778060e-02
-1.950740e-03
1.876180e-02
2.949190e-02
4.730020e-02
7.235700e-02
-3.682800e-03
1.352960e-02
-1.950740e-03
-1.939350e-02
2.949190e-02
3.715630e-02
-2.103670e-02
-3.682800e-03
-1.947310e-02
-9.616370e-03
1.876180e-02
2.949190e-02
-2.235480e-02
-3.361440e-02
-3.682800e-03
1.352960e-02
-9.616370e-03
3.509390e-03
2.949190e-02
3.715630e-02
-3.361440e-02
-4.365840e-02
-1.947310e-02
-9.616370e-03
-4.447430e-02
-2.253610e-02
-2.235480e-02
-3.361440e-02
2.128330e-02
-7.833060e-03
-9.616370e-03
3.509390e-03
-2.253610e-02
8.975590e-04
-3.361440e-02
-4.365840e-02
-7.833060e-03
-3.673080e-02
-4.447430e-02
-2.253610e-02
-5.481810e-02
-3.974620e-02
2.128330e-02
-7.833060e-03
5.300750e-02
-2.175330e-02
-2.253610e-02
8.975590e-04
-3.974620e-02
-2.571170e-02
-7.833060e-03
-3.673080e-02
-2.175330e-02
-9.798570e-02
-5.481810e-02
-3.974620e-02
-7.785920e-03
-2.641920e-02
5.300750e-02
-2.175330e-02
-6.572160e-02
-5.156300e-02
-3.974620e-02
-2.571170e-02
-2.641920e-02
-4.682550e-02
-2.175330e-02
-9.798570e-02
-5.156300e-02
-3.476090e-02
-7.785920e-03
-2.641920e-02
3.614680e-02
-3.764910e-03
-6.572160e-02
-5.156300e-02
-1.525680e-01
-5.662450e-02
-2.641920e-02
-4.682550e-02
-3.764910e-03
-4.487440e-02
-5.156300e-02
-3.476090e-02
-5.662450e-02
4.059170e-02
3.614680e-02
-3.764910e-03
2.477960e-02
-7.032060e-03
-1.525680e-01
-5.662450e-02
-5.088160e-02
2.440300e-02
-3.764910e-03
-4.487440e-02
-7.032060e-03
-3.905570e-02
-5.662450e-02
4.059170e-02
2.440300e-02
9.291590e-02
2.477960e-02
-7.032060e-03
7.890770e-03
-2.305800e-02
-5.088160e-02
2.440300e-02
2.049730e-02
3.106700e-02
-7.032060e-03
-3.905570e-02
-2.305800e-02
-5.302280e-02
2.440300e-02
9.291590e-02
3.106700e-02
4.050810e-02
7.890770e-03
-2.305800e-02
3.722650e-03
-2.775800e-02
2.049730e-02
3.106700e-02
1.232060e-01
5.419340e-02
-2.305800e-02
-5.302280e-02
-2.775800e-02
-5.852760e-02
3.106700e-02
4.050810e-02
5.419340e-02
-1.420860e-02
3.722650e-03
-2.775800e-02
1.065220e-02
-3.085240e-02
1.232060e-01
5.419340e-02
5.086650e-02
9.991790e-02
-2.775800e-02
-5.852760e-02
-3.085240e-02
-7.291450e-02
5.419340e-02
-1.420860e-02
9.991790e-02
1.499990e-01
1.065220e-02
-3.085240e-02
4.225500e-02
-1.052730e-02
5.086650e-02
9.991790e-02
6.963410e-03
8.980950e-02
-3.085240e-02
-7.291450e-02
-1.052730e-02
-6.064710e-02
9.991790e-02
1.499990e-01
8.980950e-02
1.748040e-01
4.225500e-02
-1.052730e-02
3.386440e-02
-1.236310e-02
6.963410e-03
8.980950e-02
-5.705090e-02
2.691240e-02
-1.052730e-02
-6.064710e-02
-1.236310e-02
-5.740640e-02
8.980950e-02
1.748040e-01
2.691240e-02
1.137570e-01
3.386440e-02
-1.236310e-02
3.441960e-02
-7.653600e-03
-5.705090e-02
2.691240e-02
-1.679140e-01
-5.587880e-02
-1.236310e-02
-5.740640e-02
-7.653600e-03
-4.990650e-02
2.691240e-02
1.137570e-01
-5.587880e-02
5.687530e-02
3.441960e-02
-7.653600e-03
4.866940e-02
2.262190e-02
-1.679140e-01
-5.587880e-02
-4.586600e-02
-1.663440e-02
-7.653600e-03
-4.990650e-02
2.262190e-02
-5.782690e-03
-5.587880e-02
5.687530e-02
-1.663440e-02
7.314290e-03
4.866940e-02
2.262190e-02
4.284640e-02
2.952070e-02
-4.586600e-02
-1.663440e-02
1.314130e-01
1.038210e-02
2.262190e-02
-5.782690e-03
2.952070e-02
1.373350e-02
-1.663440e-02
7.314290e-03
1.038210e-02
-1.162720e-01
</DataArray>
<DataArray type="Float32" Name="V2" format="ascii">
0.000000e+00
0.000000e+00
-2.498230e-01
-2.104510e-01
0.000000e+00
0.000000e+00
6.387420e-02
6.191720e-02
0.000000e+00
0.000000e+00
-2.104510e-01
-1.971380e-01
0.000000e+00
0.000000e+00
6.191720e-02
4.591610e-02
-2.498230e-01
-2.104510e-01
-1.261180e-01
-4.995710e-02
6.387420e-02
6.191720e-02
-3.129320e-02
-6.213530e-02
-2.104510e-01
-1.971380e-01
-4.995710e-02
1.197420e-02
6.191720e-02
4.591610e-02
-6.213530e-02
-8.275130e-02
-1.261180e-01
-4.995710e-02
1.658130e-01
1.831260e-01
-3.129320e-02
-6.213530e-02
-1.109050e-01
-1.140610e-01
-4.995710e-02
1.197420e-02
1.831260e-01
1.388260e-01
-6.213530e-02
-8.275130e-02
-1.140610e-01
-7.246520e-02
1.658130e-01
1.831260e-01
1.974660e-01
3.137620e-02
-1.109050e-01
-1.140610e-01
-2.006480e-02
4.294520e-02
1.831260e-01
1.388260e-01
3.137620e-02
-1.478110e-01
-1.140610e-01
-7.246520e-02
4.294520e-02
6.720560e-02
1.974660e-01
3.137620e-02
-1.856430e-02
-8.973000e-02
-2.006480e-02
4.294520e-02
1.005220e-01
1.033620e-01
3.137620e-02
-1.478110e-01
-8.973000e-02
-2.367970e-01
4.294520e-02
6.720560e-02
1.033620e-01
9.801640e-02
-1.856430e-02
-8.973000e-02
-7.990140e-02
-2.636420e-03
1.005220e-01
1.033620e-01
6.440480e-02
3.450810e-02
-8.973000e-02
-2.367970e-01
-2.636420e-03
-3.142160e-02
1.033620e-01
9.801640e-02
3.450810e-02
3.100890e-02
-7.990140e-02
-2.636420e-03
1.872490e-02
3.979130e-02
6.440480e-02
3.450810e-02
-7.264920e-02
-6.976220e-02
-2.636420e-03
-3.142160e-02
3.979130e-02
5.724890e-02
3.450810e-02
3.100890e-02
-6.976220e-02
-8.551900e-02
1.872490e-02
3.979130e-02
9.674460e-02
1.018830e-01
-7.264920e-02
-6.976220e-02
-9.132690e-02
-7.249520e-02
3.979130e-02
5.724890e-02
1.018830e-01
1.312360e-01
-6.976220e-02
-8.551900e-02
-7.249520e-02
-5.323980e-02
9.674460e-02
1.018830e-01
-6.628810e-02
-5.073800e-02
-9.132690e-02
-7.249520e-02
1.209890e-03
1.164870e-02
1.018830e-01
1.312360e-01
-5.073800e-02
8.625090e-02
-7.249520e-02
-5.323980e-02
1.164870e-02
3.677400e-02
-6.628810e-02
-5.073800e-02
3.656270e-02
-3.480730e-02
1.209890e-03
1.164870e-02
-3.087840e-02
-5.794530e-03
-5.073800e-02
8.625090e-02
-3.480730e-02
-1.348880e-03
1.164870e-02
3.677400e-02
-5.794530e-03
8.598000e-03
3.656270e-02
-3.480730e-02
4.572190e-02
4.174880e-02
-3.087840e-02
-5.794530e-03
2.141630e-04
-4.235940e-04
-3.480730e-02
-1.348880e-03
4.174880e-02
-1.612200e-02
-5.794530e-03
8.598000e-03
-4.235940e-04
-1.160360e-02
4.572190e-02
4.174880e-02
-1.879500e-01
-1.779910e-01
2.141630e-04
-4.235940e-04
1.266680e-01
1.022800e-01
4.174880e-02
-1.612200e-02
-1.779910e-01
-1.337490e-01
-4.235940e-04
-1.160360e-02
1.022800e-01
5.356980e-02
-1.879500e-01
-1.779910e-01
-6.296660e-02
-1.302290e-01
1.266680e-01
1.022800e-01
5.860690e-02
7.385450e-02
-1.779910e-01
-1.337490e-01
-1.302290e-01
-1.210440e-01
1.022800e-01
5.356980e-02
7.385450e-02
7.935940e-02
-6.296660e-02
-1.302290e-01
1.917690e-01
8.708760e-02
5.860690e-02
7.385450e-02
-9.419890e-02
-7.366960e-02
-1.302290e-01
-1.210440e-01
8.708760e-02
3.272590e-02
7.385450e-02
7.935940e-02
-7.366960e-02
-5.688180e-02
1.917690e-01
8.708760e-02
1.327450e-01
8.161680e-02
-9.419890e-02
-7.366960e-02
-3.263180e-02
-1.991720e-02
8.708760e-02
3.272590e-02
8.161680e-02
6.668240e-02
-7.366960e-02
-5.688180e-02
-1.991720e-02
-1.360410e-02
1.327450e-01
8.161680e-02
1.180980e-01
3.425980e-02
-3.263180e-02
-1.991720e-02
5.827670e-02
3.952020e-02
8.161680e-02
6.668240e-02
3.425980e-02
-1.036080e-01
-1.991720e-02
-1.360410e-02
3.952020e-02
6.354920e-02
1.180980e-01
3.425980e-02
8.630420e-02
5.498240e-03
5.827670e-02
3.952020e-02
1.532200e-02
-6.212180e-03
3.425980e-02
-1.036080e-01
5.498240e-03
-5.853430e-02
3.952020e-02
6.354920e-02
-6.212180e-03
-2.348030e-02
8.630420e-02
5.498240e-03
-9.673040e-02
-1.064420e-01
1.532200e-02
-6.212180e-03
2.242050e-02
1.259390e-02
5.498240e-03
-5.853430e-02
-1.064420e-01
-9.658660e-02
-6.212180e-03
-2.348030e-02
1.259390e-02
-2.487870e-03
-9.673040e-02
-1.064420e-01
-1.683200e-01
-1.508970e-01
2.242050e-02
1.259390e-02
2.369890e-02
2.456220e-02
-1.064420e-01
-9.658660e-02
-1.508970e-01
-1.286270e-01
1.259390e-02
-2.487870e-03
2.456220e-02
3.605980e-02
-1.683200e-01
-1.508970e-01
-1.320460e-02
-5.653580e-02
2.369890e-02
2.456220e-02
-2.645040e-02
-1.524610e-02
-1.508970e-01
-1.286270e-01
-5.653580e-02
-3.707820e-02
2.456220e-02
3.605980e-02
-1.524610e-02
-3.171460e-02
-1.320460e-02
-5.653580e-02
6.552970e-03
5.704600e-03
-2.645040e-02
-1.524610e-02
-8.203730e-02
-6.788690e-02
-5.653580e-02
-3.707820e-02
5.704600e-03
5.160930e-02
-1.524610e-02
-3.171460e-02
-6.788690e-02
-9.228590e-02
6.552970e-03
5.704600e-03
7.452420e-02
9.994200e-02
-8.203730e-02
-6.788690e-02
-5.423240e-02
-4.764690e-02
5.704600e-03
5.160930e-02
9.994200e-02
9.109580e-02
-6.788690e-02
-9.228590e-02
-4.764690e-02
-3.371850e-02
7.452420e-02
9.994200e-02
7.817490e-02
1.591840e-01
-5.423240e-02
-4.764690e-02
-6.847810e-02
-5.796850e-02
9.994200e-02
9.109580e-02
1.591840e-01
1.966570e-01
-4.764690e-02
-3.371850e-02
-5.796850e-02
-4.927580e-02
7.817490e-02
1.591840e-01
2.632860e-02
7.853510e-03
-6.847810e-02
-5.796850e-02
-3.389310e-02
-1.033980e-02
1.591840e-01
1.966570e-01
7.853510e-03
8.162880e-02
-5.796850e-02
-4.927580e-02
-1.033980e-02
-3.591080e-02
2.632860e-02
7.853510e-03
-1.570060e-01
-1.768970e-01
-3.389310e-02
-1.033980e-02
1.143900e-01
1.270240e-01
7.853510e-03
8.162880e-02
-1.768970e-01
-8.305330e-02
-1.033980e-02
-3.591080e-02
1.270240e-01
1.170180e-01
-1.570060e-01
-1.768970e-01
-5.314910e-02
-8.847270e-02
1.143900e-01
1.270240e-01
6.582840e-02
5.506260e-02
-1.768970e-01
-8.305330e-02
-8.847270e-02
-1.225590e-01
1.270240e-01
1.170180e-01
5.506260e-02
6.178630e-02
-5.314910e-02
-8.847270e-02
1.935230e-01
1.520830e-01
6.582840e-02
5.506260e-02
-1.447450e-01
-1.408780e-01
-8.847270e-02
-1.225590e-01
1.520830e-01
5.340660e-02
5.506260e-02
6.178630e-02
-1.408780e-01
-1.269500e-01
1.935230e-01
1.520830e-01
1.187900e-01
6.746220e-02
-1.447450e-01
-1.408780e-01
-1.387210e-01
-1.074510e-01
1.520830e-01
5.340660e-02
6.746220e-02
-5.406510e-02
-1.408780e-01
-1.269500e-01
-1.074510e-01
-7.142200e-02
1.187900e-01
6.746220e-02
-2.140870e-01
-1.643940e-01
-1.387210e-01
-1.074510e-01
1.448380e-01
1.609340e-01
6.746220e-02
-5.406510e-02
-1.643940e-01
-2.513580e-01
-1.074510e-01
-7.142200e-02
1.609340e-01
1.754070e-01
-2.140870e-01
-1.643940e-01
-3.327200e-01
-2.351260e-01
1.448380e-01
1.609340e-01
3.289930e-01
3.233380e-01
-1.643940e-01
-2.513580e-01
-2.351260e-01
-2.993300e-01
1.609340e-01
1.754070e-01
3.233380e-01
3.154930e-01
0.000000e+00
0.000000e+00
6.387420e-02
6.191720e-02
0.000000e+00
0.000000e+00
1.401140e-01
9.717780e-02
0.000000e+00
0.000000e+00
6.191720e-02
4.591610e-02
0.000000e+00
0.000000e+00
9.717780e-02
1.033740e-01
6.387420e-02
6.191720e-02
-3.129320e-02
-6.213530e-02
1.401140e-01
9.717780e-02
1.910070e-01
1.637470e-01
6.191720e-02
4.591610e-02
-6.213530e-02
-8.275130e-02
9.717780e-02
1.033740e-01
1.637470e-01
1.395150e-01