<?xml version="1.0"?>
<VTKFile type="UnstructuredGrid" version="0.1" byte_order="LittleEndian" compressor="vtkZLibDataCompressor">
<UnstructuredGrid>
<Piece NumberOfPoints="960" NumberOfCells="120">
<Points>
<DataArray type="Float32" NumberOfComponents="3" format="ascii">
-4.000000e+02 -6.000000e+03 -4.000000e+02
0.000000e+00 -6.000000e+03 -4.000000e+02
-4.000030e+02 -5.600020e+03 -3.999810e+02
-6.200770e-06 -5.600020e+03 -3.999850e+02
-4.000000e+02 -6.000000e+03 0.000000e+00
0.000000e+00 -6.000000e+03 0.000000e+00
-3.999980e+02 -5.600020e+03 -4.742350e-02
2.345180e-06 -5.600020e+03 -4.840490e-02
0.000000e+00 -6.000000e+03 -4.000000e+02
4.000000e+02 -6.000000e+03 -4.000000e+02
-6.200770e-06 -5.600020e+03 -3.999850e+02
4.000030e+02 -5.600020e+03 -3.999810e+02
0.000000e+00 -6.000000e+03 0.000000e+00
4.000000e+02 -6.000000e+03 0.000000e+00
2.345180e-06 -5.600020e+03 -4.840490e-02
3.999980e+02 -5.600020e+03 -4.744210e-02
-4.000030e+02 -5.600020e+03 -3.999810e+02
-6.200770e-06 -5.600020e+03 -3.999850e+02
-4.000020e+02 -5.200090e+03 -3.999740e+02
-2.756240e-05 -5.200090e+03 -3.999770e+02
-3.999980e+02 -5.600020e+03 -4.742350e-02
2.345180e-06 -5.600020e+03 -4.840490e-02
-3.999970e+02 -5.199990e+03 -1.588230e-01
-5.688870e-07 -5.199990e+03 -1.584950e-01
-6.200770e-06 -5.600020e+03 -3.999850e+02
4.000030e+02 -5.600020e+03 -3.999810e+02
-2.756240e-05 -5.200090e+03 -3.999770e+02
4.000020e+02 -5.200090e+03 -3.999740e+02
2.345180e-06 -5.600020e+03 -4.840490e-02
3.999980e+02 -5.600020e+03 -4.744210e-02
-5.688870e-07 -5.199990e+03 -1.584950e-01
3.999970e+02 -5.199990e+03 -1.588910e-01
-4.000020e+02 -5.200090e+03 -3.999740e+02
-2.756240e-05 -5.200090e+03 -3.999770e+02
-4.000020e+02 -4.800120e+03 -4.002150e+02
-5.970860e-06 -4.800120e+03 -4.002190e+02
-3.999970e+02 -5.199990e+03 -1.588230e-01
-5.688870e-07 -5.199990e+03 -1.584950e-01
-3.999990e+02 -4.799970e+03 -2.154020e-01
-1.586930e-06 -4.799970e+03 -2.161090e-01
-2.756240e-05 -5.200090e+03 -3.999770e+02
4.000020e+02 -5.200090e+03 -3.999740e+02
-5.970860e-06 -4.800120e+03 -4.002190e+02
4.000020e+02 -4.800120e+03 -4.002150e+02
-5.688870e-07 -5.199990e+03 -1.584950e-01
3.999970e+02 -5.199990e+03 -1.588910e-01
-1.586930e-06 -4.799970e+03 -2.161090e-01
3.999990e+02 -4.799970e+03 -2.154350e-01
-4.000020e+02 -4.800120e+03 -4.002150e+02
-5.970860e-06 -4.800120e+03 -4.002190e+02
-4.000020e+02 -4.400070e+03 -4.002970e+02
1.223000e-05 -4.400070e+03 -4.002970e+02
-3.999990e+02 -4.799970e+03 -2.154020e-01
-1.586930e-06 -4.799970e+03 -2.161090e-01
-3.999990e+02 -4.399990e+03 -2.711340e-01
4.941910e-07 -4.399990e+03 -2.726190e-01
-5.970860e-06 -4.800120e+03 -4.002190e+02
4.000020e+02 -4.800120e+03 -4.002150e+02
1.223000e-05 -4.400070e+03 -4.002970e+02
4.000020e+02 -4.400070e+03 -4.002970e+02
-1.586930e-06 -4.799970e+03 -2.161090e-01
3.999990e+02 -4.799970e+03 -2.154350e-01
4.941910e-07 -4.399990e+03 -2.726190e-01
3.999990e+02 -4.399990e+03 -2.711160e-01
-4.000020e+02 -4.400070e+03 -4.002970e+02
1.223000e-05 -4.400070e+03 -4.002970e+02
-3.999970e+02 -4.000040e+03 -4.003080e+02
1.157660e-06 -4.000050e+03 -4.003030e+02
-3.999990e+02 -4.399990e+03 -2.711340e-01
4.941910e-07 -4.399990e+03 -2.726190e-01
-4.000020e+02 -4.000020e+03 -3.235650e-01
-1.747670e-06 -4.000020e+03 -3.227850e-01
1.223000e-05 -4.400070e+03 -4.002970e+02
4.000020e+02 -4.400070e+03 -4.002970e+02
1.157660e-06 -4.000050e+03 -4.003030e+02
3.999970e+02 -4.000040e+03 -4.003080e+02
4.941910e-07 -4.399990e+03 -2.726190e-01
3.999990e+02 -4.399990e+03 -2.711160e-01
-1.747670e-06 -4.000020e+03 -3.227850e-01
4.000020e+02 -4.000020e+03 -3.235440e-01
-3.999970e+02 -4.000040e+03 -4.003080e+02
1.157660e-06 -4.000050e+03 -4.003030e+02
-3.999960e+02 -3.600070e+03 -4.003960e+02
1.393850e-05 -3.600070e+03 -4.003910e+02
-4.000020e+02 -4.000020e+03 -3.235650e-01
-1.747670e-06 -4.000020e+03 -3.227850e-01
-4.000030e+02 -3.599990e+03 -4.377940e-01
-1.312390e-08 -3.599990e+03 -4.365220e-01
1.157660e-06 -4.000050e+03 -4.003030e+02
3.999970e+02 -4.000040e+03 -4.003080e+02
1.393850e-05 -3.600070e+03 -4.003910e+02
3.999960e+02 -3.600070e+03 -4.003960e+02
-1.747670e-06 -4.000020e+03 -3.227850e-01
4.000020e+02 -4.000020e+03 -3.235440e-01
-1.312390e-08 -3.599990e+03 -4.365220e-01
4.000030e+02 -3.599990e+03 -4.377750e-01
-3.999960e+02 -3.600070e+03 -4.003960e+02
1.393850e-05 -3.600070e+03 -4.003910e+02
-3.999990e+02 -3.200100e+03 -4.005210e+02
8.310690e-06 -3.200100e+03 -4.005170e+02
-4.000030e+02 -3.599990e+03 -4.377940e-01
-1.312390e-08 -3.599990e+03 -4.365220e-01
-4.000020e+02 -3.199980e+03 -5.001890e-01
-5.094780e-06 -3.199980e+03 -4.997840e-01
1.393850e-05 -3.600070e+03 -4.003910e+02
3.999960e+02 -3.600070e+03 -4.003960e+02
8.310690e-06 -3.200100e+03 -4.005170e+02
3.999990e+02 -3.200100e+03 -4.005210e+02
-1.312390e-08 -3.599990e+03 -4.365220e-01
4.000030e+02 -3.599990e+03 -4.377750e-01
-5.094780e-06 -3.199980e+03 -4.997840e-01
4.000020e+02 -3.199980e+03 -5.002090e-01
-3.999990e+02 -3.200100e+03 -4.005210e+02
8.310690e-06 -3.200100e+03 -4.005170e+02
-4.000000e+02 -2.800110e+03 -4.006320e+02
-9.133050e-06 -2.800110e+03 -4.006310e+02
-4.000020e+02 -3.199980e+03 -5.001890e-01
-5.094780e-06 -3.199980e+03 -4.997840e-01
-4.000010e+02 -2.800020e+03 -5.865370e-01
-3.455570e-06 -2.800020e+03 -5.865510e-01
8.310690e-06 -3.200100e+03 -4.005170e+02
3.999990e+02 -3.200100e+03 -4.005210e+02
-9.133050e-06 -2.800110e+03 -4.006310e+02
4.000000e+02 -2.800110e+03 -4.006320e+02
-5.094780e-06 -3.199980e+03 -4.997840e-01
4.000020e+02 -3.199980e+03 -5.002090e-01
-3.455570e-06 -2.800020e+03 -5.865510e-01
4.000010e+02 -2.800020e+03 -5.865770e-01
-4.000000e+02 -2.800110e+03 -4.006320e+02
-9.133050e-06 -2.800110e+03 -4.006310e+02
-4.000000e+02 -2.400080e+03 -4.005940e+02
5.613820e-06 -2.400080e+03 -4.005950e+02
-4.000010e+02 -2.800020e+03 -5.865370e-01
-3.455570e-06 -2.800020e+03 -5.865510e-01
-4.000000e+02 -2.400000e+03 -6.838020e-01
5.655150e-06 -2.400000e+03 -6.832910e-01
-9.133050e-06 -2.800110e+03 -4.006310e+02
4.000000e+02 -2.800110e+03 -4.006320e+02
5.613820e-06 -2.400080e+03 -4.005950e+02
4.000000e+02 -2.400080e+03 -4.005940e+02
-3.455570e-06 -2.800020e+03 -5.865510e-01
4.000010e+02 -2.800020e+03 -5.865770e-01
5.655150e-06 -2.400000e+03 -6.832910e-01
4.000000e+02 -2.400000e+03 -6.838100e-01
-4.000000e+02 -2.400080e+03 -4.005940e+02
5.613820e-06 -2.400080e+03 -4.005950e+02
-4.000020e+02 -2.000070e+03 -4.007040e+02
6.174190e-07 -2.000070e+03 -4.007070e+02
-4.000000e+02 -2.400000e+03 -6.838020e-01
5.655150e-06 -2.400000e+03 -6.832910e-01
-3.999990e+02 -1.999970e+03 -6.708930e-01
-3.128820e-06 -1.999970e+03 -6.723690e-01
5.613820e-06 -2.400080e+03 -4.005950e+02
4.000000e+02 -2.400080e+03 -4.005940e+02
6.174190e-07 -2.000070e+03 -4.007070e+02
4.000020e+02 -2.000070e+03 -4.007040e+02
5.655150e-06 -2.400000e+03 -6.832910e-01
4.000000e+02 -2.400000e+03 -6.838100e-01
-3.128820e-06 -1.999970e+03 -6.723690e-01
3.999990e+02 -1.999970e+03 -6.709000e-01
-4.000020e+02 -2.000070e+03 -4.007040e+02
6.174190e-07 -2.000070e+03 -4.007070e+02
-4.000020e+02 -1.600020e+03 -4.008680e+02
-6.244730e-06 -1.600020e+03 -4.008700e+02
-3.999990e+02 -1.999970e+03 -6.708930e-01
-3.128820e-06 -1.999970e+03 -6.723690e-01
-3.999980e+02 -1.600010e+03 -8.067900e-01
3.743030e-06 -1.600010e+03 -8.064220e-01
6.174190e-07 -2.000070e+03 -4.007070e+02
4.000020e+02 -2.000070e+03 -4.007040e+02
-6.244730e-06 -1.600020e+03 -4.008700e+02
4.000020e+02 -1.600020e+03 -4.008680e+02
-3.128820e-06 -1.999970e+03 -6.723690e-01
3.999990e+02 -1.999970e+03 -6.709000e-01
3.743030e-06 -1.600010e+03 -8.064220e-01
3.999980e+02 -1.600010e+03 -8.067660e-01
-4.000020e+02 -1.600020e+03 -4.008680e+02
-6.244730e-06 -1.600020e+03 -4.008700e+02
-4.000000e+02 -1.200040e+03 -4.007770e+02
1.009560e-05 -1.200040e+03 -4.007820e+02
-3.999980e+02 -1.600010e+03 -8.067900e-01
3.743030e-06 -1.600010e+03 -8.064220e-01
-3.999980e+02 -1.200020e+03 -8.468090e-01
2.145290e-06 -1.200020e+03 -8.454990e-01
-6.244730e-06 -1.600020e+03 -4.008700e+02
4.000020e+02 -1.600020e+03 -4.008680e+02
1.009560e-05 -1.200040e+03 -4.007820e+02
4.000000e+02 -1.200040e+03 -4.007770e+02
3.743030e-06 -1.600010e+03 -8.064220e-01
3.999980e+02 -1.600010e+03 -8.067660e-01
2.145290e-06 -1.200020e+03 -8.454990e-01
3.999980e+02 -1.200020e+03 -8.467550e-01
-4.000000e+02 -1.200040e+03 -4.007770e+02
1.009560e-05 -1.200040e+03 -4.007820e+02
-4.000010e+02 -8.001380e+02 -4.008400e+02
4.374690e-06 -8.001360e+02 -4.008440e+02
-3.999980e+02 -1.200020e+03 -8.468090e-01
2.145290e-06 -1.200020e+03 -8.454990e-01
-3.999990e+02 -7.999830e+02 -8.757910e-01
-1.760740e-06 -7.999840e+02 -8.759110e-01
1.009560e-05 -1.200040e+03 -4.007820e+02
4.000000e+02 -1.200040e+03 -4.007770e+02
4.374690e-06 -8.001360e+02 -4.008440e+02
4.000010e+02 -8.001380e+02 -4.008400e+02
2.145290e-06 -1.200020e+03 -8.454990e-01
3.999980e+02 -1.200020e+03 -8.467550e-01
-1.760740e-06 -7.999840e+02 -8.759110e-01
3.999990e+02 -7.999830e+02 -8.757950e-01
-4.000010e+02 -8.001380e+02 -4.008400e+02
4.374690e-06 -8.001360e+02 -4.008440e+02
-4.000020e+02 -4.000870e+02 -4.010240e+02
7.916130e-06 -4.000890e+02 -4.010250e+02
-3.999990e+02 -7.999830e+02 -8.757910e-01
-1.760740e-06 -7.999840e+02 -8.759110e-01
-4.000000e+02 -3.999880e+02 -9.918120e-01
1.737340e-06 -3.999870e+02 -9.931650e-01
4.374690e-06 -8.001360e+02 -4.008440e+02
4.000010e+02 -8.001380e+02 -4.008400e+02
7.916130e-06 -4.000890e+02 -4.010250e+02
4.000020e+02 -4.000870e+02 -4.010240e+02
-1.760740e-06 -7.999840e+02 -8.759110e-01
3.999990e+02 -7.999830e+02 -8.757950e-01
1.737340e-06 -3.999870e+02 -9.931650e-01
4.000000e+02 -3.999880e+02 -9.918240e-01
-4.000020e+02 -4.000870e+02 -4.010240e+02
7.916130e-06 -4.000890e+02 -4.010250e+02
-3.999980e+02 -1.977440e-02 -4.010290e+02
5.790550e-06 -2.052060e-02 -4.010280e+02
-4.000000e+02 -3.999880e+02 -9.918120e-01
1.737340e-06 -3.999870e+02 -9.931650e-01
-4.000020e+02 -1.040620e-02 -1.011530e+00
1.298540e-06 -9.551160e-03 -1.010410e+00
7.916130e-06 -4.000890e+02 -4.010250e+02
4.000020e+02 -4.000870e+02 -4.010240e+02
[...]
<PointData>
<DataArray type="Float32" Name="V1" format="ascii">
0.000000e+00
0.000000e+00
1.812660e-03
7.749980e-06
0.000000e+00
0.000000e+00
1.208010e-03
-3.688120e-06
0.000000e+00
0.000000e+00
7.749980e-06
-1.797180e-03
0.000000e+00
0.000000e+00
-3.688120e-06
-1.215390e-03
1.812660e-03
7.749980e-06
-4.061330e-03
1.998340e-05
1.208010e-03
-3.688120e-06
3.860940e-03
-1.620100e-05
7.749980e-06
-1.797180e-03
1.998340e-05
4.101310e-03
-3.688120e-06
-1.215390e-03
-1.620100e-05
-3.893340e-03
-4.061330e-03
1.998340e-05
-3.048670e-03
1.084170e-05
3.860940e-03
-1.620100e-05
8.297650e-04
-9.624730e-06
1.998340e-05
4.101310e-03
1.084170e-05
3.070370e-03
-1.620100e-05
-3.893340e-03
-9.624730e-06
-8.490250e-04
-3.048670e-03
1.084170e-05
1.224050e-03
-2.574620e-05
8.297650e-04
-9.624730e-06
2.008500e-03
1.391700e-05
1.084170e-05
3.070370e-03
-2.574620e-05
-1.275550e-03
-9.624730e-06
-8.490250e-04
1.391700e-05
-1.980680e-03
1.224050e-03
-2.574620e-05
-2.076240e-03
7.986250e-06
2.008500e-03
1.391700e-05
1.461640e-03
-7.261580e-06
-2.574620e-05
-1.275550e-03
7.986250e-06
2.092230e-03
1.391700e-05
-1.980680e-03
-7.261580e-06
-1.476160e-03
-2.076240e-03
7.986250e-06
-3.614100e-03
2.860540e-06
1.461640e-03
-7.261580e-06
1.349240e-03
-3.013000e-06
7.986250e-06
2.092230e-03
2.860540e-06
3.619820e-03
-7.261580e-06
-1.476160e-03
-3.013000e-06
-1.355260e-03
-3.614100e-03
2.860540e-06
3.123010e-03
5.881200e-06
1.349240e-03
-3.013000e-06
-7.091850e-04
-5.917840e-06
2.860540e-06
3.619820e-03
5.881200e-06
-3.111240e-03
-3.013000e-06
-1.355260e-03
-5.917840e-06
6.973450e-04
3.123010e-03
5.881200e-06
-1.025630e-03
-6.254800e-06
-7.091850e-04
-5.917840e-06
4.270490e-04
4.909540e-06
5.881200e-06
-3.111240e-03
-6.254800e-06
1.013110e-03
-5.917840e-06
6.973450e-04
4.909540e-06
-4.172330e-04
-1.025630e-03
-6.254800e-06
-3.364430e-03
-2.056330e-06
4.270490e-04
4.909540e-06
3.291830e-04
-6.052710e-06
-6.254800e-06
1.013110e-03
-2.056330e-06
3.360310e-03
4.909540e-06
-4.172330e-04
-6.052710e-06
-3.412920e-04
-3.364430e-03
-2.056330e-06
2.167360e-03
2.634200e-05
3.291830e-04
-6.052710e-06
-2.507580e-04
-2.153850e-05
-2.056330e-06
3.360310e-03
2.634200e-05
-2.114690e-03
-6.052710e-06
-3.412920e-04
-2.153850e-05
2.076710e-04
2.167360e-03
2.634200e-05
-6.835970e-04
-2.909850e-05
-2.507580e-04
-2.153850e-05
2.402700e-03
1.940010e-05
2.634200e-05
-2.114690e-03
-2.909850e-05
6.253990e-04
-2.153850e-05
2.076710e-04
1.940010e-05
-2.363890e-03
-6.835970e-04
-2.909850e-05
-1.625200e-03
-5.424950e-08
2.402700e-03
1.940010e-05
2.542360e-05
-4.224880e-06
-2.909850e-05
6.253990e-04
-5.424950e-08
1.625090e-03
1.940010e-05
-2.363890e-03
-4.224880e-06
-3.386840e-05
-1.625200e-03
-5.424950e-08
3.223780e-03
1.897790e-06
2.542360e-05
-4.224880e-06
-1.236050e-03
-4.409080e-07
-5.424950e-08
1.625090e-03
1.897790e-06
-3.219980e-03
-4.224880e-06
-3.386840e-05
-4.409080e-07
1.235170e-03
3.223780e-03
1.897790e-06
4.658860e-03
1.959360e-05
-1.236050e-03
-4.409080e-07
-3.195990e-03
-1.867860e-05
1.897790e-06
-3.219980e-03
1.959360e-05
-4.619680e-03
-4.409080e-07
1.235170e-03
-1.867860e-05
3.158640e-03
4.658860e-03
1.959360e-05
-1.866620e-03
-1.082880e-05
-3.195990e-03
-1.867860e-05
-1.567160e-03
1.425990e-05
1.959360e-05
-4.619680e-03
-1.082880e-05
1.844950e-03
-1.867860e-05
3.158640e-03
1.425990e-05
1.595690e-03
-1.866620e-03
-1.082880e-05
-1.175420e-03
1.200310e-05
-1.567160e-03
1.425990e-05
-1.180510e-04
-4.655750e-06
-1.082880e-05
1.844950e-03
1.200310e-05
1.199430e-03
1.425990e-05
1.595690e-03
-4.655750e-06
1.087350e-04
-1.175420e-03
1.200310e-05
5.348910e-03
-8.053520e-06
-1.180510e-04
-4.655750e-06
-2.038250e-03
1.298840e-06
1.200310e-05
1.199430e-03
-8.053520e-06
-5.365010e-03
-4.655750e-06
1.087350e-04
1.298840e-06
2.040870e-03
5.348910e-03
-8.053520e-06
9.986540e-04
1.062710e-06
-2.038250e-03
1.298840e-06
-1.055770e-03
-3.340820e-06
-8.053520e-06
-5.365010e-03
1.062710e-06
-9.965510e-04
1.298840e-06
2.040870e-03
-3.340820e-06
1.049080e-03
9.986540e-04
1.062710e-06
-3.269170e-03
-1.636780e-06
-1.055770e-03
-3.340820e-06
9.699610e-04
5.767740e-06
1.062710e-06
-9.965510e-04
-1.636780e-06
3.265920e-03
-3.340820e-06
1.049080e-03
5.767740e-06
-9.584260e-04
-3.269170e-03
-1.636780e-06
7.559630e-04
4.922300e-06
9.699610e-04
5.767740e-06
3.355250e-05
-4.819850e-06
-1.636780e-06
3.265920e-03
4.922300e-06
-7.461220e-04
5.767740e-06
-9.584260e-04
-4.819850e-06
-4.318850e-05
7.559630e-04
4.922300e-06
-4.046120e-04
1.732660e-05
3.355250e-05
-4.819850e-06
1.719560e-03
-3.503300e-06
4.922300e-06
-7.461220e-04
1.732660e-05
4.392440e-04
-4.819850e-06
-4.318850e-05
-3.503300e-06
-1.726570e-03
-4.046120e-04
1.732660e-05
-3.888560e-03
-1.200160e-05
1.719560e-03
-3.503300e-06
2.563910e-03
5.403230e-06
1.732660e-05
4.392440e-04
-1.200160e-05
3.864580e-03
-3.503300e-06
-1.726570e-03
5.403230e-06
-2.553100e-03
-3.888560e-03
-1.200160e-05
1.708990e-03
-1.315120e-05
2.563910e-03
5.403230e-06
2.124680e-05
1.208520e-05
-1.200160e-05
3.864580e-03
-1.315120e-05
-1.735290e-03
5.403230e-06
-2.553100e-03
1.208520e-05
2.926450e-06
1.708990e-03
-1.315120e-05
4.770430e-03
1.131360e-05
2.124680e-05
1.208520e-05
-3.823170e-03
1.267730e-06
-1.315120e-05
-1.735290e-03
1.131360e-05
-4.747800e-03
1.208520e-05
2.926450e-06
1.267730e-06
3.825720e-03
4.770430e-03
1.131360e-05
-3.152620e-04
1.661860e-06
-3.823170e-03
1.267730e-06
-2.182710e-03
1.743520e-06
1.131360e-05
-4.747800e-03
1.661860e-06
3.185660e-04
1.267730e-06
3.825720e-03
1.743520e-06
2.186190e-03
-3.152620e-04
1.661860e-06
-8.841650e-04
-9.450180e-06
-2.182710e-03
1.743520e-06
-1.206070e-03
9.749260e-06
1.661860e-06
3.185660e-04
-9.450180e-06
8.652700e-04
1.743520e-06
2.186190e-03
9.749260e-06
1.225570e-03
-8.841650e-04
-9.450180e-06
5.264440e-03
5.060210e-06
-1.206070e-03
9.749260e-06
-1.415380e-03
-1.380540e-05
-9.450180e-06
8.652700e-04
5.060210e-06
-5.254310e-03
9.749260e-06
1.225570e-03
-1.380540e-05
1.387760e-03
5.264440e-03
5.060210e-06
-2.035930e-03
5.736080e-06
-1.415380e-03
-1.380540e-05
2.195740e-03
-5.853400e-06
5.060210e-06
-5.254310e-03
5.736080e-06
2.047420e-03
-1.380540e-05
1.387760e-03
-5.853400e-06
-2.207440e-03
-2.035930e-03
5.736080e-06
-4.621470e-03
-3.816910e-06
2.195740e-03
-5.853400e-06
3.216760e-03
9.966260e-06
5.736080e-06
2.047420e-03
-3.816910e-06
4.613850e-03
-5.853400e-06
-2.207440e-03
9.966260e-06
-3.196830e-03
-4.621470e-03
-3.816910e-06
-3.227410e-03
-1.142110e-05
3.216760e-03
9.966260e-06
3.217530e-03
9.738490e-06
-3.816910e-06
4.613850e-03
-1.142110e-05
3.204550e-03
9.966260e-06
-3.196830e-03
9.738490e-06
-3.198080e-03
0.000000e+00
0.000000e+00
1.208010e-03
-3.688120e-06
0.000000e+00
0.000000e+00
-4.212390e-03
-2.629060e-07
0.000000e+00
0.000000e+00
-3.688120e-06
-1.215390e-03
0.000000e+00
0.000000e+00
-2.629060e-07
4.211890e-03
1.208010e-03
-3.688120e-06
3.860940e-03
-1.620100e-05
-4.212390e-03
-2.629060e-07
-3.663750e-03
1.225100e-05
-3.688120e-06
-1.215390e-03
-1.620100e-05
-3.893340e-03
-2.629060e-07
4.211890e-03
1.225100e-05
3.688240e-03
3.860940e-03
-1.620100e-05
8.297650e-04
-9.624730e-06
-3.663750e-03
1.225100e-05
1.372850e-03
8.464980e-06
-1.620100e-05
-3.893340e-03
-9.624730e-06
-8.490250e-04
1.225100e-05
3.688240e-03
8.464980e-06
-1.355910e-03
8.297650e-04
-9.624730e-06
2.008500e-03
1.391700e-05
1.372850e-03
8.464980e-06
-5.233110e-03
-2.155130e-06
-9.624730e-06
-8.490250e-04
1.391700e-05
-1.980680e-03
8.464980e-06
-1.355910e-03
-2.155130e-06
5.228820e-03
2.008500e-03
1.391700e-05
1.461640e-03
-7.261580e-06
-5.233110e-03
-2.155130e-06
-8.383810e-04
6.573670e-06
1.391700e-05
-1.980680e-03
-7.261580e-06
-1.476160e-03
-2.155130e-06
5.228820e-03
6.573670e-06
8.515150e-04
1.461640e-03
-7.261580e-06
1.349240e-03
-3.013000e-06
-8.383810e-04
6.573670e-06
9.031800e-04
3.176560e-06
-7.261580e-06
-1.476160e-03
-3.013000e-06
-1.355260e-03
6.573670e-06
8.515150e-04
3.176560e-06
-8.968170e-04
1.349240e-03
-3.013000e-06
-7.091850e-04
-5.917840e-06
9.031800e-04
3.176560e-06
-1.699480e-03
5.995850e-06
-3.013000e-06
-1.355260e-03
-5.917840e-06
6.973450e-04
3.176560e-06
-8.968170e-04
5.995850e-06
1.711490e-03
-7.091850e-04
-5.917840e-06
4.270490e-04
4.909540e-06
-1.699480e-03
5.995850e-06
1.779920e-04
-3.616010e-06
-5.917840e-06
6.973450e-04
4.909540e-06
-4.172330e-04
5.995850e-06
1.711490e-03
-3.616010e-06
-1.852210e-04
4.270490e-04
4.909540e-06
3.291830e-04
-6.052710e-06
1.779920e-04
-3.616010e-06
2.697880e-03
1.412030e-05
4.909540e-06
-4.172330e-04
-6.052710e-06
-3.412920e-04
-3.616010e-06
-1.852210e-04
1.412030e-05
-2.669640e-03
3.291830e-04
-6.052710e-06
-2.507580e-04
-2.153850e-05
2.697880e-03
1.412030e-05
-1.656710e-03
1.662930e-05
-6.052710e-06
-3.412920e-04
-2.153850e-05
2.076710e-04
1.412030e-05
-2.669640e-03
1.662930e-05
1.689960e-03
-2.507580e-04
-2.153850e-05
2.402700e-03
1.940010e-05
-1.656710e-03
1.662930e-05
-4.124770e-03
-9.553250e-06
-2.153850e-05
2.076710e-04
1.940010e-05
-2.363890e-03
1.662930e-05
1.689960e-03
-9.553250e-06
4.105640e-03
2.402700e-03
1.940010e-05
2.542360e-05
-4.224880e-06
-4.124770e-03
-9.553250e-06
1.565780e-03
8.585280e-06
1.940010e-05
-2.363890e-03
-4.224880e-06
-3.386840e-05
-9.553250e-06
4.105640e-03
8.585280e-06
-1.548590e-03
2.542360e-05
-4.224880e-06
-1.236050e-03
-4.409080e-07
1.565780e-03
8.585280e-06
-7.327290e-04
-1.053040e-06
-4.224880e-06
-3.386840e-05
-4.409080e-07
1.235170e-03
8.585280e-06
-1.548590e-03
-1.053040e-06
7.306060e-04
-1.236050e-03
-4.409080e-07
-3.195990e-03
-1.867860e-05
-7.327290e-04
-1.053040e-06
1.728240e-03
1.765960e-05
-4.409080e-07
1.235170e-03
-1.867860e-05
3.158640e-03
-1.053040e-06
7.306060e-04
1.765960e-05
-1.692930e-03
-3.195990e-03
-1.867860e-05
-1.567160e-03
1.425990e-05
1.728240e-03
1.765960e-05
4.985540e-03
-1.756930e-05
-1.867860e-05
3.158640e-03
1.425990e-05
1.595690e-03
1.765960e-05
-1.692930e-03
-1.756930e-05
-5.020680e-03
-1.567160e-03
1.425990e-05
-1.180510e-04
-4.655750e-06
4.985540e-03
-1.756930e-05
1.423650e-03
-2.781210e-06
1.425990e-05
1.595690e-03
-4.655750e-06
1.087350e-04
-1.756930e-05
-5.020680e-03
-2.781210e-06
-1.429200e-03
-1.180510e-04
-4.655750e-06
-2.038250e-03
1.298840e-06
1.423650e-03
-2.781210e-06
-1.274890e-03
5.509390e-06
-4.655750e-06
1.087350e-04
1.298840e-06
2.040870e-03
-2.781210e-06
-1.429200e-03
5.509390e-06
1.285900e-03
-2.038250e-03
1.298840e-06
-1.055770e-03
-3.340820e-06
-1.274890e-03
5.509390e-06
1.099620e-03
5.660350e-06
1.298840e-06
2.040870e-03
-3.340820e-06
1.049080e-03
5.509390e-06
1.285900e-03
5.660350e-06
-1.088300e-03
-1.055770e-03
-3.340820e-06
9.699610e-04
5.767740e-06
1.099620e-03
5.660350e-06
1.330990e-03
-9.978380e-06
-3.340820e-06
1.049080e-03
5.767740e-06
-9.584260e-04
5.660350e-06
-1.088300e-03
-9.978380e-06
-1.350960e-03
9.699610e-04
5.767740e-06
3.355250e-05
-4.819850e-06
1.330990e-03
-9.978380e-06
-8.176160e-04
4.687290e-06
5.767740e-06
-9.584260e-04
-4.819850e-06
-4.318850e-05
-9.978380e-06
-1.350960e-03
4.687290e-06
8.269910e-04
3.355250e-05
-4.819850e-06
1.719560e-03
-3.503300e-06
-8.176160e-04
4.687290e-06
-3.029310e-03
-1.027890e-05
-4.819850e-06
-4.318850e-05
-3.503300e-06
-1.726570e-03
4.687290e-06
8.269910e-04
-1.027890e-05
3.008760e-03
1.719560e-03
-3.503300e-06
2.563910e-03
5.403230e-06
-3.029310e-03
-1.027890e-05
-1.247040e-03
1.262630e-06
-3.503300e-06
-1.726570e-03
5.403230e-06
-2.553100e-03
-1.027890e-05
3.008760e-03
1.262630e-06
1.249560e-03
2.563910e-03
5.403230e-06
2.124680e-05
1.208520e-05
-1.247040e-03
1.262630e-06
-1.750750e-03
-1.105920e-05
5.403230e-06
-2.553100e-03
1.208520e-05
2.926450e-06
1.262630e-06
1.249560e-03
-1.105920e-05
1.728620e-03
2.124680e-05
1.208520e-05
-3.823170e-03
1.267730e-06
-1.750750e-03
-1.105920e-05
2.889210e-03
-1.379960e-05
1.208520e-05
2.926450e-06
1.267730e-06
3.825720e-03
-1.105920e-05
1.728620e-03
-1.379960e-05
-2.916800e-03
-3.823170e-03
1.267730e-06
-2.182710e-03
1.743520e-06
2.889210e-03
-1.379960e-05
4.682300e-03
-5.155360e-06
1.267730e-06
3.825720e-03
1.743520e-06
2.186190e-03
-1.379960e-05
-2.916800e-03
-5.155360e-06
-4.692580e-03
-2.182710e-03
1.743520e-06
-1.206070e-03
9.749260e-06
4.682300e-03
-5.155360e-06
3.291540e-03
-1.014860e-05
1.743520e-06
2.186190e-03
9.749260e-06
1.225570e-03
-5.155360e-06
-4.692580e-03
-1.014860e-05
-3.311850e-03
-1.206070e-03
9.749260e-06
-1.415380e-03
-1.380540e-05
3.291540e-03
-1.014860e-05
-2.432660e-03
2.266610e-05
9.749260e-06
1.225570e-03
-1.380540e-05
1.387760e-03
-1.014860e-05
-3.311850e-03
2.266610e-05
2.478010e-03
-1.415380e-03
-1.380540e-05
2.195740e-03
-5.853400e-06
-2.432660e-03
2.266610e-05
-2.363710e-03
5.872900e-06
-1.380540e-05
1.387760e-03
-5.853400e-06
-2.207440e-03
2.266610e-05
2.478010e-03
5.872900e-06
2.375450e-03
2.195740e-03
-5.853400e-06
3.216760e-03
9.966260e-06
-2.363710e-03
5.872900e-06
-1.807650e-03
-1.608020e-05
-5.853400e-06
-2.207440e-03
9.966260e-06
-3.196830e-03
5.872900e-06
2.375450e-03
-1.608020e-05
1.775480e-03
3.216760e-03
9.966260e-06
3.217530e-03
9.738490e-06
-1.807650e-03
-1.608020e-05
-3.211400e-03
-8.095380e-06
9.966260e-06
-3.196830e-03
9.738490e-06
-3.198080e-03
-1.608020e-05
1.775480e-03
-8.095380e-06
3.195250e-03
</DataArray>
<DataArray type="Float32" Name="V2" format="ascii">
0.000000e+00
0.000000e+00
6.332970e-02
7.061380e-02
0.000000e+00
0.000000e+00
-1.691430e-02
-2.100220e-02
0.000000e+00
0.000000e+00
7.061380e-02
6.330210e-02
0.000000e+00
0.000000e+00
-2.100220e-02
-1.689010e-02
6.332970e-02
7.061380e-02
4.439690e-02
4.142600e-02
-1.691430e-02
-2.100220e-02
-5.815150e-02
-5.635650e-02
7.061380e-02
6.330210e-02
4.142600e-02
4.439260e-02
-2.100220e-02
-1.689010e-02
-5.635650e-02
-5.815280e-02
4.439690e-02
4.142600e-02
-5.193620e-02
-5.656030e-02
-5.815150e-02
-5.635650e-02
-1.125660e-02
-9.285710e-03
4.142600e-02
4.439260e-02
-5.656030e-02
-5.192990e-02
-5.635650e-02
-5.815280e-02
-9.285710e-03
-1.124320e-02
-5.193620e-02
-5.656030e-02
-1.540050e-02
-1.190560e-02
-1.125660e-02
-9.285710e-03
1.146200e-02
8.926840e-03
-5.656030e-02
-5.192990e-02
-1.190560e-02
-1.541770e-02
-9.285710e-03
-1.124320e-02
8.926840e-03
1.147950e-02
-1.540050e-02
-1.190560e-02
6.291660e-02
6.339590e-02
1.146200e-02
8.926840e-03
-3.936240e-02
-3.785630e-02
-1.190560e-02
-1.541770e-02
6.339590e-02
6.293320e-02
8.926840e-03
1.147950e-02
-3.785630e-02
-3.940410e-02
6.291660e-02
6.339590e-02
3.889060e-02
3.577510e-02
-3.936240e-02
-3.785630e-02
6.129780e-03
7.512520e-03
6.339590e-02
6.293320e-02
3.577510e-02
3.887720e-02
-3.785630e-02
-3.940410e-02
7.512520e-03
6.144700e-03
3.889060e-02
3.577510e-02
-2.284740e-02
-2.062520e-02
6.129780e-03
7.512520e-03
1.861840e-02
1.637570e-02
3.577510e-02
3.887720e-02
-2.062520e-02
-2.285040e-02
7.512520e-03
6.144700e-03
1.637570e-02
1.865330e-02
-2.284740e-02
-2.062520e-02
-4.735360e-02
-4.222930e-02
1.861840e-02
1.637570e-02
-2.092840e-02
-2.427340e-02
-2.062520e-02
-2.285040e-02
-4.222930e-02
-4.728130e-02
1.637570e-02
1.865330e-02
-2.427340e-02
-2.095210e-02
-4.735360e-02
-4.222930e-02
8.577230e-03
7.169990e-03
-2.092840e-02
-2.427340e-02
-2.422610e-02
-2.208300e-02
-4.222930e-02
-4.728130e-02
7.169990e-03
8.575370e-03
-2.427340e-02
-2.095210e-02
-2.208300e-02
-2.421780e-02
8.577230e-03
7.169990e-03
1.932620e-02
1.835160e-02
-2.422610e-02
-2.208300e-02
1.730240e-02
1.636390e-02
7.169990e-03
8.575370e-03
1.835160e-02
1.930730e-02
-2.208300e-02
-2.421780e-02
1.636390e-02
1.732070e-02
1.932620e-02
1.835160e-02
2.128290e-02
2.373250e-02
1.730240e-02
1.636390e-02
2.620270e-02
2.402780e-02
1.835160e-02
1.930730e-02
2.373250e-02
2.133630e-02
1.636390e-02
1.732070e-02
2.402780e-02
2.619840e-02
2.128290e-02
2.373250e-02
1.328550e-02
1.510790e-02
2.620270e-02
2.402780e-02
-1.631690e-02
-1.745210e-02
2.373250e-02
2.133630e-02
1.510790e-02
1.330640e-02
2.402780e-02
2.619840e-02
-1.745210e-02
-1.629930e-02
1.328550e-02
1.510790e-02
-7.580250e-02
-7.489610e-02
-1.631690e-02
-1.745210e-02
-1.322510e-02
-1.465660e-02
1.510790e-02
1.330640e-02
-7.489610e-02
-7.580180e-02
-1.745210e-02
-1.629930e-02
-1.465660e-02
-1.321670e-02
-7.580250e-02
-7.489610e-02
-2.283010e-03
-4.088830e-03
-1.322510e-02
-1.465660e-02
-1.105570e-02
-9.407800e-03
-7.489610e-02
-7.580180e-02
-4.088830e-03
-2.252010e-03
-1.465660e-02
-1.321670e-02
-9.407800e-03
-1.107430e-02
-2.283010e-03
-4.088830e-03
3.843620e-02
3.994870e-02
-1.105570e-02
-9.407800e-03
3.431790e-02
3.297930e-02
-4.088830e-03
-2.252010e-03
3.994870e-02
3.842290e-02
-9.407800e-03
-1.107430e-02
3.297930e-02
3.433610e-02
3.843620e-02
3.994870e-02
5.022260e-02
4.902760e-02
3.431790e-02
3.297930e-02
1.399010e-02
1.514080e-02
3.994870e-02
3.842290e-02
4.902760e-02
5.018490e-02
3.297930e-02
3.433610e-02
1.514080e-02
1.403440e-02
5.022260e-02
4.902760e-02
1.918820e-02
1.818480e-02
1.399010e-02
1.514080e-02
-4.407990e-02
-4.336100e-02
4.902760e-02
5.018490e-02
1.818480e-02
1.923110e-02
1.514080e-02
1.403440e-02
-4.336100e-02
-4.408220e-02
1.918820e-02
1.818480e-02
-7.985980e-02
-7.727480e-02
-4.407990e-02
-4.336100e-02
-1.635270e-02
-1.955560e-02
1.818480e-02
1.923110e-02
-7.727480e-02
-7.982930e-02
-4.336100e-02
-4.408220e-02
-1.955560e-02
-1.636800e-02
-7.985980e-02
-7.727480e-02
-6.382430e-02
-6.399460e-02
-1.635270e-02
-1.955560e-02
5.340160e-02
5.389270e-02
-7.727480e-02
-7.982930e-02
-6.399460e-02
-6.387340e-02
-1.955560e-02
-1.636800e-02
5.389270e-02
5.343420e-02
-6.382430e-02
-6.399460e-02
1.280570e-02
1.262570e-02
5.340160e-02
5.389270e-02
3.678920e-02
3.870490e-02
-6.399460e-02
-6.387340e-02
1.262570e-02
1.277440e-02
5.389270e-02
5.343420e-02
3.870490e-02
3.680580e-02
1.280570e-02
1.262570e-02
8.621790e-02
8.462960e-02
3.678920e-02
3.870490e-02
-5.540020e-02
-5.522540e-02
1.262570e-02
1.277440e-02
8.462960e-02
8.624750e-02
3.870490e-02
3.680580e-02
-5.522540e-02
-5.542320e-02
8.621790e-02
8.462960e-02
9.360430e-03
9.071070e-03
-5.540020e-02
-5.522540e-02
-2.047760e-02
-2.076840e-02
8.462960e-02
8.624750e-02
9.071070e-03
9.363530e-03
-5.522540e-02
-5.542320e-02
-2.076840e-02
-2.046780e-02
9.360430e-03
9.071070e-03
-1.012840e-01
-1.013340e-01
-2.047760e-02
-2.076840e-02
2.855550e-02
3.061450e-02
9.071070e-03
9.363530e-03
-1.013340e-01
-1.013390e-01
-2.076840e-02
-2.046780e-02
3.061450e-02
2.858130e-02
-1.012840e-01
-1.013340e-01
-4.489940e-02
-4.459360e-02
2.855550e-02
3.061450e-02
2.793380e-02
2.828330e-02
-1.013340e-01
-1.013390e-01
-4.459360e-02
-4.489860e-02
3.061450e-02
2.858130e-02
2.828330e-02
2.790750e-02
-4.489940e-02
-4.459360e-02
7.386010e-02
7.600180e-02
2.793380e-02
2.828330e-02
-2.821190e-02
-3.083240e-02
-4.459360e-02
-4.489860e-02
7.600180e-02
7.388370e-02
2.828330e-02
2.790750e-02
-3.083240e-02
-2.823680e-02
7.386010e-02
7.600180e-02
6.201720e-02
5.722780e-02
-2.821190e-02
-3.083240e-02
-2.236600e-02
-1.856900e-02
7.600180e-02
7.388370e-02
5.722780e-02
6.198640e-02
-3.083240e-02
-2.823680e-02
-1.856900e-02
-2.233850e-02
6.201720e-02
5.722780e-02
-7.262460e-03
-8.694280e-03
-2.236600e-02
-1.856900e-02
1.395050e-02
1.630580e-02
5.722780e-02
6.198640e-02
-8.694280e-03
-7.273680e-03
-1.856900e-02
-2.233850e-02
1.630580e-02
1.393750e-02
-7.262460e-03
-8.694280e-03
-6.919320e-02
-6.608310e-02
1.395050e-02
1.630580e-02
8.625950e-04
-7.650840e-04
-8.694280e-03
-7.273680e-03
-6.608310e-02
-6.921400e-02
1.630580e-02
1.393750e-02
-7.650840e-04
8.518060e-04
-6.919320e-02
-6.608310e-02
-2.630090e-02
-2.801360e-02
8.625950e-04
-7.650840e-04
3.052890e-03
3.223650e-03
-6.608310e-02
-6.921400e-02
-2.801360e-02
-2.633890e-02
-7.650840e-04
8.518060e-04
3.223650e-03
3.095750e-03
-2.630090e-02
-2.801360e-02
5.890170e-02
5.708890e-02
3.052890e-03
3.223650e-03
-7.491860e-03
-7.576980e-03
-2.801360e-02
-2.633890e-02
5.708890e-02
5.886810e-02
3.223650e-03
3.095750e-03
-7.576980e-03
-7.427730e-03
0.000000e+00
0.000000e+00
-1.691430e-02
-2.100220e-02
0.000000e+00
0.000000e+00
-2.926990e-02
-2.837840e-02
0.000000e+00
0.000000e+00
-2.100220e-02
-1.689010e-02
0.000000e+00
0.000000e+00
-2.837840e-02
-2.929130e-02
-1.691430e-02
-2.100220e-02
-5.815150e-02
-5.635650e-02
-2.926990e-02
-2.837840e-02
7.163210e-02
7.104750e-02
-2.100220e-02
-1.689010e-02
-5.635650e-02
-5.815280e-02
-2.837840e-02
-2.929130e-02
7.104750e-02
7.163870e-02