<?xml version="1.0"?>
<!-- time 9734.61-->
<VTKFile type="UnstructuredGrid" version="0.1" byte_order="LittleEndian">
<UnstructuredGrid>
<Piece NumberOfPoints="2" NumberOfCells="0">
<Points>
  <DataArray type="Float32" Name="Position" NumberOfComponents="3" format="ascii">
	198.605 -4766.53 499.736
	-198.636 -4766.52 499.549
  </DataArray>
</Points>
<PointData  Vectors="vector">
  <DataArray type="Float32" Name="Velocity" NumberOfComponents="3" format="ascii">
 -0.000418975 0.119599 0.0288417
 0.000282429 0.119567 0.0938235
  </DataArray>
  <DataArray type="Float32" Name="Radius" format="ascii">
	100
	100
  </DataArray>
  <DataArray type="Float32" Name="speciesType" format="ascii">
	0
	0
  </DataArray>
</PointData>
<Cells>
  <DataArray type="Int32" Name="connectivity" format="ascii">
  </DataArray>
  <DataArray type="Int32" Name="offsets" format="ascii">
  </DataArray>
  <DataArray type="UInt8"  Name="types" format="ascii">
  </DataArray>
</Cells>
</Piece>
</UnstructuredGrid>
</VTKFile>
