<?xml version="1.0"?>
<VTKFile type="UnstructuredGrid" version="0.1" byte_order="LittleEndian" compressor="vtkZLibDataCompressor">
<UnstructuredGrid>
<Piece NumberOfPoints="960" NumberOfCells="120">
<Points>
<DataArray type="Float32" NumberOfComponents="3" format="ascii">
-4.000000e+02 -6.000000e+03 -4.000000e+02
0.000000e+00 -6.000000e+03 -4.000000e+02
-3.999150e+02 -5.600230e+03 -3.998950e+02
6.164110e-02 -5.600190e+03 -3.998430e+02
-4.000000e+02 -6.000000e+03 0.000000e+00
0.000000e+00 -6.000000e+03 0.000000e+00
-3.999960e+02 -5.599970e+03 -2.129780e-01
1.123380e-02 -5.600000e+03 -1.444840e-01
0.000000e+00 -6.000000e+03 -4.000000e+02
4.000000e+02 -6.000000e+03 -4.000000e+02
6.164110e-02 -5.600190e+03 -3.998430e+02
4.000410e+02 -5.600140e+03 -3.998710e+02
0.000000e+00 -6.000000e+03 0.000000e+00
4.000000e+02 -6.000000e+03 0.000000e+00
1.123380e-02 -5.600000e+03 -1.444840e-01
4.000190e+02 -5.599980e+03 -9.184590e-02
-3.999150e+02 -5.600230e+03 -3.998950e+02
6.164110e-02 -5.600190e+03 -3.998430e+02
-3.998730e+02 -5.200780e+03 -4.005570e+02
1.047340e-01 -5.200590e+03 -4.006440e+02
-3.999960e+02 -5.599970e+03 -2.129780e-01
1.123380e-02 -5.600000e+03 -1.444840e-01
-4.000090e+02 -5.199870e+03 -9.379660e-01
1.460080e-03 -5.199940e+03 -8.168850e-01
6.164110e-02 -5.600190e+03 -3.998430e+02
4.000410e+02 -5.600140e+03 -3.998710e+02
1.047340e-01 -5.200590e+03 -4.006440e+02
4.000830e+02 -5.200390e+03 -4.008120e+02
1.123380e-02 -5.600000e+03 -1.444840e-01
4.000190e+02 -5.599980e+03 -9.184590e-02
1.460080e-03 -5.199940e+03 -8.168850e-01
4.000120e+02 -5.200000e+03 -7.183820e-01
-3.998730e+02 -5.200780e+03 -4.005570e+02
1.047340e-01 -5.200590e+03 -4.006440e+02
-3.999210e+02 -4.801020e+03 -4.015320e+02
6.685390e-02 -4.800890e+03 -4.015300e+02
-4.000090e+02 -5.199870e+03 -9.379660e-01
1.460080e-03 -5.199940e+03 -8.168850e-01
-3.999620e+02 -4.799880e+03 -1.803400e+00
5.272510e-02 -4.799940e+03 -1.695610e+00
1.047340e-01 -5.200590e+03 -4.006440e+02
4.000830e+02 -5.200390e+03 -4.008120e+02
6.685390e-02 -4.800890e+03 -4.015300e+02
4.000550e+02 -4.800760e+03 -4.015540e+02
1.460080e-03 -5.199940e+03 -8.168850e-01
4.000120e+02 -5.200000e+03 -7.183820e-01
5.272510e-02 -4.799940e+03 -1.695610e+00
4.000660e+02 -4.800020e+03 -1.568550e+00
-3.999210e+02 -4.801020e+03 -4.015320e+02
6.685390e-02 -4.800890e+03 -4.015300e+02
-3.997340e+02 -4.401050e+03 -4.028670e+02
2.433050e-01 -4.401120e+03 -4.026110e+02
-3.999620e+02 -4.799880e+03 -1.803400e+00
5.272510e-02 -4.799940e+03 -1.695610e+00
-4.001050e+02 -4.399960e+03 -2.574560e+00
-7.385830e-02 -4.399960e+03 -2.362700e+00
6.685390e-02 -4.800890e+03 -4.015300e+02
4.000550e+02 -4.800760e+03 -4.015540e+02
2.433050e-01 -4.401120e+03 -4.026110e+02
4.002180e+02 -4.401190e+03 -4.024260e+02
5.272510e-02 -4.799940e+03 -1.695610e+00
4.000660e+02 -4.800020e+03 -1.568550e+00
-7.385830e-02 -4.399960e+03 -2.362700e+00
3.999560e+02 -4.399940e+03 -2.148710e+00
-3.997340e+02 -4.401050e+03 -4.028670e+02
2.433050e-01 -4.401120e+03 -4.026110e+02
-4.000260e+02 -4.000720e+03 -4.039230e+02
6.205130e-03 -4.000950e+03 -4.037600e+02
-4.001050e+02 -4.399960e+03 -2.574560e+00
-7.385830e-02 -4.399960e+03 -2.362700e+00
-4.000790e+02 -4.000080e+03 -3.557680e+00
-8.388290e-02 -4.000090e+03 -3.549210e+00
2.433050e-01 -4.401120e+03 -4.026110e+02
4.002180e+02 -4.401190e+03 -4.024260e+02
6.205130e-03 -4.000950e+03 -4.037600e+02
4.000370e+02 -4.001190e+03 -4.035540e+02
-7.385830e-02 -4.399960e+03 -2.362700e+00
3.999560e+02 -4.399940e+03 -2.148710e+00
-8.388290e-02 -4.000090e+03 -3.549210e+00
3.999090e+02 -4.000080e+03 -3.490270e+00
-4.000260e+02 -4.000720e+03 -4.039230e+02
6.205130e-03 -4.000950e+03 -4.037600e+02
-4.001270e+02 -3.600800e+03 -4.041880e+02
-1.361590e-01 -3.601050e+03 -4.043460e+02
-4.000790e+02 -4.000080e+03 -3.557680e+00
-8.388290e-02 -4.000090e+03 -3.549210e+00
-4.000250e+02 -3.600070e+03 -4.241380e+00
-2.518230e-02 -3.600040e+03 -4.517770e+00
6.205130e-03 -4.000950e+03 -4.037600e+02
4.000370e+02 -4.001190e+03 -4.035540e+02
-1.361590e-01 -3.601050e+03 -4.043460e+02
3.998550e+02 -3.601280e+03 -4.044980e+02
-8.388290e-02 -4.000090e+03 -3.549210e+00
3.999090e+02 -4.000080e+03 -3.490270e+00
-2.518230e-02 -3.600040e+03 -4.517770e+00
3.999740e+02 -3.600000e+03 -4.748740e+00
-4.001270e+02 -3.600800e+03 -4.041880e+02
-1.361590e-01 -3.601050e+03 -4.043460e+02
-4.003440e+02 -3.201280e+03 -4.053850e+02
-3.570390e-01 -3.201290e+03 -4.056020e+02
-4.000250e+02 -3.600070e+03 -4.241380e+00
-2.518230e-02 -3.600040e+03 -4.517770e+00
-4.000390e+02 -3.199980e+03 -5.331370e+00
-4.246330e-02 -3.200020e+03 -5.760800e+00
-1.361590e-01 -3.601050e+03 -4.043460e+02
3.998550e+02 -3.601280e+03 -4.044980e+02
-3.570390e-01 -3.201290e+03 -4.056020e+02
3.996310e+02 -3.201320e+03 -4.058430e+02
-2.518230e-02 -3.600040e+03 -4.517770e+00
3.999740e+02 -3.600000e+03 -4.748740e+00
-4.246330e-02 -3.200020e+03 -5.760800e+00
3.999530e+02 -3.200030e+03 -6.208370e+00
-4.003440e+02 -3.201280e+03 -4.053850e+02
-3.570390e-01 -3.201290e+03 -4.056020e+02
-4.004110e+02 -2.801410e+03 -4.065680e+02
-4.079740e-01 -2.801340e+03 -4.070290e+02
-4.000390e+02 -3.199980e+03 -5.331370e+00
-4.246330e-02 -3.200020e+03 -5.760800e+00
-4.000370e+02 -2.800050e+03 -6.788160e+00
-3.999110e-02 -2.800050e+03 -7.069040e+00
-3.570390e-01 -3.201290e+03 -4.056020e+02
3.996310e+02 -3.201320e+03 -4.058430e+02
-4.079740e-01 -2.801340e+03 -4.070290e+02
3.995940e+02 -2.801250e+03 -4.075200e+02
-4.246330e-02 -3.200020e+03 -5.760800e+00
3.999530e+02 -3.200030e+03 -6.208370e+00
-3.999110e-02 -2.800050e+03 -7.069040e+00
3.999570e+02 -2.800060e+03 -7.333410e+00
-4.004110e+02 -2.801410e+03 -4.065680e+02
-4.079740e-01 -2.801340e+03 -4.070290e+02
-4.002730e+02 -2.401270e+03 -4.081070e+02
-2.787050e-01 -2.401280e+03 -4.081740e+02
-4.000370e+02 -2.800050e+03 -6.788160e+00
-3.999110e-02 -2.800050e+03 -7.069040e+00
-4.001430e+02 -2.399950e+03 -7.965290e+00
-1.191710e-01 -2.399930e+03 -8.148440e+00
-4.079740e-01 -2.801340e+03 -4.070290e+02
3.995940e+02 -2.801250e+03 -4.075200e+02
-2.787050e-01 -2.401280e+03 -4.081740e+02
3.997130e+02 -2.401280e+03 -4.082550e+02
-3.999110e-02 -2.800050e+03 -7.069040e+00
3.999570e+02 -2.800060e+03 -7.333410e+00
-1.191710e-01 -2.399930e+03 -8.148440e+00
3.999020e+02 -2.399920e+03 -8.313360e+00
-4.002730e+02 -2.401270e+03 -4.081070e+02
-2.787050e-01 -2.401280e+03 -4.081740e+02
-4.002740e+02 -2.001110e+03 -4.097030e+02
-2.676060e-01 -2.001220e+03 -4.097610e+02
-4.001430e+02 -2.399950e+03 -7.965290e+00
-1.191710e-01 -2.399930e+03 -8.148440e+00
-4.001080e+02 -1.999900e+03 -8.985120e+00
-9.229670e-02 -1.999890e+03 -9.236040e+00
-2.787050e-01 -2.401280e+03 -4.081740e+02
3.997130e+02 -2.401280e+03 -4.082550e+02
-2.676060e-01 -2.001220e+03 -4.097610e+02
3.997370e+02 -2.001340e+03 -4.098670e+02
-1.191710e-01 -2.399930e+03 -8.148440e+00
3.999020e+02 -2.399920e+03 -8.313360e+00
-9.229670e-02 -1.999890e+03 -9.236040e+00
3.999200e+02 -1.999880e+03 -9.471990e+00
-4.002740e+02 -2.001110e+03 -4.097030e+02
-2.676060e-01 -2.001220e+03 -4.097610e+02
-4.004690e+02 -1.601250e+03 -4.103300e+02
-4.783390e-01 -1.601170e+03 -4.109500e+02
-4.001080e+02 -1.999900e+03 -8.985120e+00
-9.229670e-02 -1.999890e+03 -9.236040e+00
-3.999020e+02 -1.600030e+03 -1.043930e+01
1.219860e-01 -1.600010e+03 -1.064250e+01
-2.676060e-01 -2.001220e+03 -4.097610e+02
3.997370e+02 -2.001340e+03 -4.098670e+02
-4.783390e-01 -1.601170e+03 -4.109500e+02
3.995100e+02 -1.601060e+03 -4.116250e+02
-9.229670e-02 -1.999890e+03 -9.236040e+00
3.999200e+02 -1.999880e+03 -9.471990e+00
1.219860e-01 -1.600010e+03 -1.064250e+01
4.001440e+02 -1.600010e+03 -1.082120e+01
-4.004690e+02 -1.601250e+03 -4.103300e+02
-4.783390e-01 -1.601170e+03 -4.109500e+02
-4.004390e+02 -1.201290e+03 -4.113460e+02
-4.722070e-01 -1.201140e+03 -4.118630e+02
-3.999020e+02 -1.600030e+03 -1.043930e+01
1.219860e-01 -1.600010e+03 -1.064250e+01
-3.999180e+02 -1.200100e+03 -1.163080e+01
1.010220e-01 -1.200130e+03 -1.190120e+01
-4.783390e-01 -1.601170e+03 -4.109500e+02
3.995100e+02 -1.601060e+03 -4.116250e+02
-4.722070e-01 -1.201140e+03 -4.118630e+02
3.994950e+02 -1.201010e+03 -4.124660e+02
1.219860e-01 -1.600010e+03 -1.064250e+01
4.001440e+02 -1.600010e+03 -1.082120e+01
1.010220e-01 -1.200130e+03 -1.190120e+01
4.001210e+02 -1.200130e+03 -1.217810e+01
-4.004390e+02 -1.201290e+03 -4.113460e+02
-4.722070e-01 -1.201140e+03 -4.118630e+02
-4.001890e+02 -8.012330e+02 -4.130760e+02
-2.029790e-01 -8.011390e+02 -4.130680e+02
-3.999180e+02 -1.200100e+03 -1.163080e+01
1.010220e-01 -1.200130e+03 -1.190120e+01
-3.999990e+02 -8.001060e+02 -1.312690e+01
-1.876210e-02 -8.001220e+02 -1.334550e+01
-4.722070e-01 -1.201140e+03 -4.118630e+02
3.994950e+02 -1.201010e+03 -4.124660e+02
-2.029790e-01 -8.011390e+02 -4.130680e+02
3.997830e+02 -8.010410e+02 -4.130710e+02
1.010220e-01 -1.200130e+03 -1.190120e+01
4.001210e+02 -1.200130e+03 -1.217810e+01
-1.876210e-02 -8.001220e+02 -1.334550e+01
3.999620e+02 -8.001380e+02 -1.359530e+01
-4.001890e+02 -8.012330e+02 -4.130760e+02
-2.029790e-01 -8.011390e+02 -4.130680e+02
-4.003140e+02 -4.014360e+02 -4.139450e+02
-3.043650e-01 -4.014030e+02 -4.141040e+02
-3.999990e+02 -8.001060e+02 -1.312690e+01
-1.876210e-02 -8.001220e+02 -1.334550e+01
-4.000860e+02 -3.998820e+02 -1.413980e+01
-8.045120e-02 -3.998690e+02 -1.449880e+01
-2.029790e-01 -8.011390e+02 -4.130680e+02
3.997830e+02 -8.010410e+02 -4.130710e+02
-3.043650e-01 -4.014030e+02 -4.141040e+02
3.997030e+02 -4.013750e+02 -4.142440e+02
-1.876210e-02 -8.001220e+02 -1.334550e+01
3.999620e+02 -8.001380e+02 -1.359530e+01
-8.045120e-02 -3.998690e+02 -1.449880e+01
3.999240e+02 -3.998670e+02 -1.485060e+01
-4.003140e+02 -4.014360e+02 -4.139450e+02
-3.043650e-01 -4.014030e+02 -4.141040e+02
-4.003580e+02 -1.491100e+00 -4.154430e+02
-3.130670e-01 -1.577310e+00 -4.159680e+02
-4.000860e+02 -3.998820e+02 -1.413980e+01
-8.045120e-02 -3.998690e+02 -1.449880e+01
-3.999610e+02 1.046190e-01 -1.519590e+01
2.753020e-02 1.452660e-01 -1.547470e+01
-3.043650e-01 -4.014030e+02 -4.141040e+02
3.997030e+02 -4.013750e+02 -4.142440e+02
[...]
<PointData>
<DataArray type="Float32" Name="V1" format="ascii">
0.000000e+00
0.000000e+00
-1.797610e-01
-9.505510e-02
0.000000e+00
0.000000e+00
1.281590e-01
8.454570e-02
0.000000e+00
0.000000e+00
-9.505510e-02
-1.100870e-02
0.000000e+00
0.000000e+00
8.454570e-02
5.023930e-02
-1.797610e-01
-9.505510e-02
-6.229590e-02
-2.738050e-02
1.281590e-01
8.454570e-02
9.093840e-02
7.776250e-02
-9.505510e-02
-1.100870e-02
-2.738050e-02
1.446130e-02
8.454570e-02
5.023930e-02
7.776250e-02
6.197220e-02
-6.229590e-02
-2.738050e-02
2.887170e-02
4.140770e-02
9.093840e-02
7.776250e-02
8.632300e-02
5.250880e-02
-2.738050e-02
1.446130e-02
4.140770e-02
5.119700e-02
7.776250e-02
6.197220e-02
5.250880e-02
1.573500e-02
2.887170e-02
4.140770e-02
-2.451730e-01
-2.592420e-01
8.632300e-02
5.250880e-02
2.278070e-01
2.050050e-01
4.140770e-02
5.119700e-02
-2.592420e-01
-2.771820e-01
5.250880e-02
1.573500e-02
2.050050e-01
1.859700e-01
-2.451730e-01
-2.592420e-01
-1.549480e-01
-1.820930e-01
2.278070e-01
2.050050e-01
2.379540e-01
2.682050e-01
-2.592420e-01
-2.771820e-01
-1.820930e-01
-2.065290e-01
2.050050e-01
1.859700e-01
2.682050e-01
2.962170e-01
-1.549480e-01
-1.820930e-01
-1.865210e-01
-1.715480e-01
2.379540e-01
2.682050e-01
1.433790e-01
1.443400e-01
-1.820930e-01
-2.065290e-01
-1.715480e-01
-1.592220e-01
2.682050e-01
2.962170e-01
1.443400e-01
1.513510e-01
-1.865210e-01
-1.715480e-01
-2.738530e-02
-1.597310e-02
1.433790e-01
1.443400e-01
7.373140e-02
7.734750e-02
-1.715480e-01
-1.592220e-01
-1.597310e-02
-1.499610e-03
1.443400e-01
1.513510e-01
7.734750e-02
7.986400e-02
-2.738530e-02
-1.597310e-02
-7.686830e-02
-4.502760e-02
7.373140e-02
7.734750e-02
-3.556330e-03
-1.451370e-02
-1.597310e-02
-1.499610e-03
-4.502760e-02
-1.520190e-02
7.734750e-02
7.986400e-02
-1.451370e-02
-2.513270e-02
-7.686830e-02
-4.502760e-02
2.794600e-01
2.386600e-01
-3.556330e-03
-1.451370e-02
-4.501530e-02
-1.234280e-02
-4.502760e-02
-1.520190e-02
2.386600e-01
2.010650e-01
-1.451370e-02
-2.513270e-02
-1.234280e-02
2.064950e-02
2.794600e-01
2.386600e-01
9.784640e-02
3.602300e-02
-4.501530e-02
-1.234280e-02
-7.967260e-02
-6.018500e-02
2.386600e-01
2.010650e-01
3.602300e-02
-2.481700e-02
-1.234280e-02
2.064950e-02
-6.018500e-02
-4.368010e-02
9.784640e-02
3.602300e-02
4.489420e-02
3.038670e-02
-7.967260e-02
-6.018500e-02
-1.339200e-01
-1.353120e-01
3.602300e-02
-2.481700e-02
3.038670e-02
1.819660e-02
-6.018500e-02
-4.368010e-02
-1.353120e-01
-1.330400e-01
4.489420e-02
3.038670e-02
2.170300e-01
2.399140e-01
-1.339200e-01
-1.353120e-01
-1.264590e-01
-1.040350e-01
3.038670e-02
1.819660e-02
2.399140e-01
2.620470e-01
-1.353120e-01
-1.330400e-01
-1.040350e-01
-8.355680e-02
2.170300e-01
2.399140e-01
-1.621800e-01
-1.690740e-01
-1.264590e-01
-1.040350e-01
9.703820e-03
2.981750e-02
2.399140e-01
2.620470e-01
-1.690740e-01
-1.762420e-01
-1.040350e-01
-8.355680e-02
2.981750e-02
5.324450e-02
-1.621800e-01
-1.690740e-01
-2.306210e-01
-2.002310e-01
9.703820e-03
2.981750e-02
1.363470e-01
1.105120e-01
-1.690740e-01
-1.762420e-01
-2.002310e-01
-1.643900e-01
2.981750e-02
5.324450e-02
1.105120e-01
8.439680e-02
-2.306210e-01
-2.002310e-01
8.661510e-02
1.017630e-01
1.363470e-01
1.105120e-01
1.957520e-02
1.891360e-02
-2.002310e-01
-1.643900e-01
1.017630e-01
1.189160e-01
1.105120e-01
8.439680e-02
1.891360e-02
1.558720e-02
8.661510e-02
1.017630e-01
1.309230e-01
9.323610e-02
1.957520e-02
1.891360e-02
-1.787220e-01
-1.869350e-01
1.017630e-01
1.189160e-01
9.323610e-02
4.996520e-02
1.891360e-02
1.558720e-02
-1.869350e-01
-1.902600e-01
1.309230e-01
9.323610e-02
1.193680e-02
5.452900e-03
-1.787220e-01
-1.869350e-01
3.174940e-02
2.212500e-02
9.323610e-02
4.996520e-02
5.452900e-03
-1.313140e-03
-1.869350e-01
-1.902600e-01
2.212500e-02
1.337930e-02
1.193680e-02
5.452900e-03
1.613280e-01
1.978280e-01
3.174940e-02
2.212500e-02
-1.890610e-02
-4.026300e-02
5.452900e-03
-1.313140e-03
1.978280e-01
2.380740e-01
2.212500e-02
1.337930e-02
-4.026300e-02
-5.987040e-02
1.613280e-01
1.978280e-01
-2.167390e-01
-2.146510e-01
-1.890610e-02
-4.026300e-02
1.319260e-01
1.579130e-01
1.978280e-01
2.380740e-01
-2.146510e-01
-2.174170e-01
-4.026300e-02
-5.987040e-02
1.579130e-01
1.873690e-01
-2.167390e-01
-2.146510e-01
-1.625790e-01
-1.781690e-01
1.319260e-01
1.579130e-01
1.055700e-01
9.314080e-02
-2.146510e-01
-2.174170e-01
-1.781690e-01
-1.896850e-01
1.579130e-01
1.873690e-01
9.314080e-02
7.377010e-02
-1.625790e-01
-1.781690e-01
7.063940e-02
4.741500e-02
1.055700e-01
9.314080e-02
-6.735500e-02
-6.517510e-02
-1.781690e-01
-1.896850e-01
4.741500e-02
1.671270e-02
9.314080e-02
7.377010e-02
-6.517510e-02
-5.569840e-02
7.063940e-02
4.741500e-02
-2.198570e-02
-4.254940e-02
-6.735500e-02
-6.517510e-02
-3.804240e-02
-2.364620e-02
4.741500e-02
1.671270e-02
-4.254940e-02
-6.105100e-02
-6.517510e-02
-5.569840e-02
-2.364620e-02
-1.285790e-02
-2.198570e-02
-4.254940e-02
1.319340e-01
1.343720e-01
-3.804240e-02
-2.364620e-02
-1.119780e-01
-1.101230e-01
-4.254940e-02
-6.105100e-02
1.343720e-01
1.421410e-01
-2.364620e-02
-1.285790e-02
-1.101230e-01
-1.060880e-01
1.319340e-01
1.343720e-01
2.924540e-02
4.616070e-02
-1.119780e-01
-1.101230e-01
1.684490e-02
2.860620e-02
1.343720e-01
1.421410e-01
4.616070e-02
6.279820e-02
-1.101230e-01
-1.060880e-01
2.860620e-02
4.204880e-02
2.924540e-02
4.616070e-02
-9.574490e-02
-6.407090e-02
1.684490e-02
2.860620e-02
7.140210e-03
-8.439350e-04
4.616070e-02
6.279820e-02
-6.407090e-02
-2.913520e-02
2.860620e-02
4.204880e-02
-8.439350e-04
-1.114660e-02
-9.574490e-02
-6.407090e-02
-7.901260e-02
-1.018960e-01
7.140210e-03
-8.439350e-04
-6.121000e-02
-5.780490e-02
-6.407090e-02
-2.913520e-02
-1.018960e-01
-1.319470e-01
-8.439350e-04
-1.114660e-02
-5.780490e-02
-5.142320e-02
-7.901260e-02
-1.018960e-01
4.780750e-02
3.815210e-02
-6.121000e-02
-5.780490e-02
8.933740e-02
7.483830e-02
-1.018960e-01
-1.319470e-01
3.815210e-02
3.404140e-02
-5.780490e-02
-5.142320e-02
7.483830e-02
6.018730e-02
4.780750e-02
3.815210e-02
3.283410e-02
5.728260e-03
8.933740e-02
7.483830e-02
-8.255500e-02
-6.940900e-02
3.815210e-02
3.404140e-02
5.728260e-03
-2.150140e-02
7.483830e-02
6.018730e-02
-6.940900e-02
-5.094190e-02
3.283410e-02
5.728260e-03
-1.185690e-02
-2.346910e-02
-8.255500e-02
-6.940900e-02
4.841950e-02
2.985470e-02
5.728260e-03
-2.150140e-02
-2.346910e-02
-3.155720e-02
-6.940900e-02
-5.094190e-02
2.985470e-02
1.045010e-02
-1.185690e-02
-2.346910e-02
-2.808620e-01
-2.241170e-01
4.841950e-02
2.985470e-02
2.838340e-01
2.566760e-01
-2.346910e-02
-3.155720e-02
-2.241170e-01
-1.660910e-01
2.985470e-02
1.045010e-02
2.566760e-01
2.300370e-01
0.000000e+00
0.000000e+00
1.281590e-01
8.454570e-02
0.000000e+00
0.000000e+00
-6.838240e-02
-7.949700e-02
0.000000e+00
0.000000e+00
8.454570e-02
5.023930e-02
0.000000e+00
0.000000e+00
-7.949700e-02
-9.743140e-02
1.281590e-01
8.454570e-02
9.093840e-02
7.776250e-02
-6.838240e-02
-7.949700e-02
-1.163090e-01
-1.272720e-01
8.454570e-02
5.023930e-02
7.776250e-02
6.197220e-02
-7.949700e-02
-9.743140e-02
-1.272720e-01
-1.353000e-01
9.093840e-02
7.776250e-02
8.632300e-02
5.250880e-02
-1.163090e-01
-1.272720e-01
-1.991500e-01
-1.349270e-01
7.776250e-02
6.197220e-02
5.250880e-02
1.573500e-02
-1.272720e-01
-1.353000e-01
-1.349270e-01
-7.067390e-02
8.632300e-02
5.250880e-02
2.278070e-01
2.050050e-01
-1.991500e-01
-1.349270e-01
-2.176590e-01
-1.698660e-01
5.250880e-02
1.573500e-02
2.050050e-01
1.859700e-01
-1.349270e-01
-7.067390e-02
-1.698660e-01
-1.212690e-01
2.278070e-01
2.050050e-01
2.379540e-01
2.682050e-01
-2.176590e-01
-1.698660e-01
-3.369640e-01
-3.579230e-01
2.050050e-01
1.859700e-01
2.682050e-01
2.962170e-01
-1.698660e-01
-1.212690e-01
-3.579230e-01
-3.798010e-01
2.379540e-01
2.682050e-01
1.433790e-01
1.443400e-01
-3.369640e-01
-3.579230e-01
-8.853470e-02
-1.048470e-01
2.682050e-01
2.962170e-01
1.443400e-01
1.513510e-01
-3.579230e-01
-3.798010e-01
-1.048470e-01
-1.224190e-01
1.433790e-01
1.443400e-01
7.373140e-02
7.734750e-02
-8.853470e-02
-1.048470e-01
-1.155530e-01
-1.376280e-01
1.443400e-01
1.513510e-01
7.734750e-02
7.986400e-02
-1.048470e-01
-1.224190e-01
-1.376280e-01
-1.570300e-01
7.373140e-02
7.734750e-02
-3.556330e-03
-1.451370e-02
-1.155530e-01
-1.376280e-01
8.100930e-02
6.889040e-02
7.734750e-02
7.986400e-02
-1.451370e-02
-2.513270e-02
-1.376280e-01
-1.570300e-01
6.889040e-02
5.601800e-02
-3.556330e-03
-1.451370e-02
-4.501530e-02
-1.234280e-02
8.100930e-02
6.889040e-02
-1.879270e-01
-2.103490e-01
-1.451370e-02
-2.513270e-02
-1.234280e-02
2.064950e-02
6.889040e-02
5.601800e-02
-2.103490e-01
-2.373020e-01
-4.501530e-02
-1.234280e-02
-7.967260e-02
-6.018500e-02
-1.879270e-01
-2.103490e-01
3.981310e-02
7.012920e-02
-1.234280e-02
2.064950e-02
-6.018500e-02
-4.368010e-02
-2.103490e-01
-2.373020e-01
7.012920e-02
1.027480e-01
-7.967260e-02
-6.018500e-02
-1.339200e-01
-1.353120e-01
3.981310e-02
7.012920e-02
2.591810e-01
2.629200e-01
-6.018500e-02
-4.368010e-02
-1.353120e-01
-1.330400e-01
7.012920e-02
1.027480e-01
2.629200e-01
2.700350e-01
-1.339200e-01
-1.353120e-01
-1.264590e-01
-1.040350e-01
2.591810e-01
2.629200e-01
1.575290e-02
-4.458460e-02
-1.353120e-01
-1.330400e-01
-1.040350e-01
-8.355680e-02
2.629200e-01
2.700350e-01
-4.458460e-02
-1.047200e-01
-1.264590e-01
-1.040350e-01
9.703820e-03
2.981750e-02
1.575290e-02
-4.458460e-02
1.388730e-01
1.050450e-01
-1.040350e-01
-8.355680e-02
2.981750e-02
5.324450e-02
-4.458460e-02
-1.047200e-01
1.050450e-01
6.878240e-02
9.703820e-03
2.981750e-02
1.363470e-01
1.105120e-01
1.388730e-01
1.050450e-01
-3.845370e-02
-1.898610e-02
2.981750e-02
5.324450e-02
1.105120e-01
8.439680e-02
1.050450e-01
6.878240e-02
-1.898610e-02
5.053890e-03
1.363470e-01
1.105120e-01
1.957520e-02
1.891360e-02
-3.845370e-02
-1.898610e-02
-1.187490e-01
-1.340670e-01
1.105120e-01
8.439680e-02
1.891360e-02
1.558720e-02
-1.898610e-02
5.053890e-03
-1.340670e-01
-1.517260e-01
1.957520e-02
1.891360e-02
-1.787220e-01
-1.869350e-01
-1.187490e-01
-1.340670e-01
2.236910e-01
2.803200e-01
1.891360e-02
1.558720e-02
-1.869350e-01
-1.902600e-01
-1.340670e-01
-1.517260e-01
2.803200e-01
3.376280e-01
-1.787220e-01
-1.869350e-01
3.174940e-02
2.212500e-02
2.236910e-01
2.803200e-01
-7.631570e-02
-6.177780e-02
-1.869350e-01
-1.902600e-01
2.212500e-02
1.337930e-02
2.803200e-01
3.376280e-01
-6.177780e-02
-4.813710e-02
3.174940e-02
2.212500e-02
-1.890610e-02
-4.026300e-02
-7.631570e-02
-6.177780e-02
-1.049530e-01
-9.645900e-02
2.212500e-02
1.337930e-02
-4.026300e-02
-5.987040e-02
-6.177780e-02
-4.813710e-02
-9.645900e-02
-8.903940e-02
-1.890610e-02
-4.026300e-02
1.319260e-01
1.579130e-01
-1.049530e-01
-9.645900e-02
-6.685230e-02
-1.194960e-01
-4.026300e-02
-5.987040e-02
1.579130e-01
1.873690e-01
-9.645900e-02
-8.903940e-02
-1.194960e-01
-1.745140e-01
1.319260e-01
1.579130e-01
1.055700e-01
9.314080e-02
-6.685230e-02
-1.194960e-01
-4.695860e-02
-5.786090e-03
1.579130e-01
1.873690e-01
9.314080e-02
7.377010e-02
-1.194960e-01
-1.745140e-01
-5.786090e-03
4.315250e-02
1.055700e-01
9.314080e-02
-6.735500e-02
-6.517510e-02
-4.695860e-02
-5.786090e-03
7.661240e-02
8.341890e-02
9.314080e-02
7.377010e-02
-6.517510e-02
-5.569840e-02
-5.786090e-03
4.315250e-02
8.341890e-02
8.298050e-02
-6.735500e-02
-6.517510e-02
-3.804240e-02
-2.364620e-02
7.661240e-02
8.341890e-02
7.897040e-02
9.088390e-02
-6.517510e-02
-5.569840e-02
-2.364620e-02
-1.285790e-02
8.341890e-02
8.298050e-02
9.088390e-02
1.044020e-01
-3.804240e-02
-2.364620e-02
-1.119780e-01
-1.101230e-01
7.897040e-02
9.088390e-02
1.019930e-01
8.566720e-02
-2.364620e-02
-1.285790e-02
-1.101230e-01
-1.060880e-01
9.088390e-02
1.044020e-01
8.566720e-02
7.344540e-02
-1.119780e-01
-1.101230e-01
1.684490e-02
2.860620e-02
1.019930e-01
8.566720e-02
-6.713590e-02
-1.134820e-01
-1.101230e-01
-1.060880e-01
2.860620e-02
4.204880e-02
8.566720e-02
7.344540e-02
-1.134820e-01
-1.623210e-01
1.684490e-02
2.860620e-02
7.140210e-03
-8.439350e-04
-6.713590e-02
-1.134820e-01
9.078410e-02
7.522410e-02
2.860620e-02
4.204880e-02
-8.439350e-04
-1.114660e-02
-1.134820e-01
-1.623210e-01
7.522410e-02
6.522750e-02
7.140210e-03
-8.439350e-04
-6.121000e-02
-5.780490e-02
9.078410e-02
7.522410e-02
2.023010e-01
2.171580e-01
-8.439350e-04
-1.114660e-02
-5.780490e-02
-5.142320e-02
7.522410e-02
6.522750e-02
2.171580e-01
2.344150e-01
-6.121000e-02
-5.780490e-02
8.933740e-02
7.483830e-02
2.023010e-01
2.171580e-01
-2.237310e-01
-1.907350e-01
-5.780490e-02
-5.142320e-02
7.483830e-02
6.018730e-02
2.171580e-01
2.344150e-01
-1.907350e-01
-1.605500e-01
8.933740e-02
7.483830e-02
-8.255500e-02
-6.940900e-02
-2.237310e-01
-1.907350e-01
1.378570e-01
1.326060e-01
7.483830e-02
6.018730e-02
-6.940900e-02
-5.094190e-02
-1.907350e-01
-1.605500e-01
1.326060e-01
1.311630e-01
-8.255500e-02
-6.940900e-02
4.841950e-02
2.985470e-02
1.378570e-01
1.326060e-01
-8.821900e-02
-4.384570e-02
-6.940900e-02
-5.094190e-02
2.985470e-02
1.045010e-02
1.326060e-01
1.311630e-01
-4.384570e-02
1.436850e-03
4.841950e-02
2.985470e-02
2.838340e-01
2.566760e-01
-8.821900e-02
-4.384570e-02
-2.849050e-01
-2.830220e-01
2.985470e-02
1.045010e-02
2.566760e-01
2.300370e-01
-4.384570e-02
1.436850e-03
-2.830220e-01
-2.826810e-01
</DataArray>
<DataArray type="Float32" Name="V2" format="ascii">
0.000000e+00
0.000000e+00
5.055730e-02
1.274400e-01
0.000000e+00
0.000000e+00
-2.421770e-01
-1.143740e-01
0.000000e+00
0.000000e+00
1.274400e-01
2.297660e-01
0.000000e+00
0.000000e+00
-1.143740e-01
-2.160810e-02
5.055730e-02
1.274400e-01
1.567960e-01
2.241380e-01
-2.421770e-01
-1.143740e-01
-1.745660e-01
-1.663200e-01
1.274400e-01
2.297660e-01
2.241380e-01
2.176390e-01
-1.143740e-01
-2.160810e-02
-1.663200e-01
-1.004780e-01
1.567960e-01
2.241380e-01
-8.765520e-02
-2.548510e-02
-1.745660e-01
-1.663200e-01
2.154260e-01
1.402710e-01
2.241380e-01
2.176390e-01
-2.548510e-02
5.378360e-02
-1.663200e-01
-1.004780e-01
1.402710e-01
6.551120e-02
-8.765520e-02
-2.548510e-02
-4.193610e-02
-9.119200e-02
2.154260e-01
1.402710e-01
1.774030e-01
2.223590e-01
-2.548510e-02
5.378360e-02
-9.119200e-02
-2.094690e-01
1.402710e-01
6.551120e-02
2.223590e-01
2.970120e-01
-4.193610e-02
-9.119200e-02
2.809210e-02
-3.658920e-02
1.774030e-01
2.223590e-01
-2.233080e-01
-1.166820e-01
-9.119200e-02
-2.094690e-01
-3.658920e-02
-9.722100e-02
2.223590e-01
2.970120e-01
-1.166820e-01
-6.727790e-02
2.809210e-02
-3.658920e-02
6.558870e-02
1.967250e-01
-2.233080e-01
-1.166820e-01
-1.496510e-01
-1.752040e-01
-3.658920e-02
-9.722100e-02
1.967250e-01
2.783380e-01
-1.166820e-01
-6.727790e-02
-1.752040e-01
-2.151150e-01
6.558870e-02
1.967250e-01
2.265380e-01
1.885340e-01
-1.496510e-01
-1.752040e-01
1.436710e-01
1.256220e-02
1.967250e-01
2.783380e-01
1.885340e-01
4.835270e-02
-1.752040e-01
-2.151150e-01
1.256220e-02
-1.144940e-01
2.265380e-01
1.885340e-01
-2.564630e-01
-1.700660e-01
1.436710e-01
1.256220e-02
3.147080e-01
1.493020e-01
1.885340e-01
4.835270e-02
-1.700660e-01
-2.642880e-02
1.256220e-02
-1.144940e-01
1.493020e-01
1.608180e-03
-2.564630e-01
-1.700660e-01
-3.630750e-01
-2.403080e-01
3.147080e-01
1.493020e-01
3.076370e-01
1.496330e-01
-1.700660e-01
-2.642880e-02
-2.403080e-01
-7.540990e-02
1.493020e-01
1.608180e-03
1.496330e-01
5.028000e-02
-3.630750e-01
-2.403080e-01
1.767590e-01
1.324130e-01
3.076370e-01
1.496330e-01
-1.960140e-01
-9.650120e-02
-2.403080e-01
-7.540990e-02
1.324130e-01
9.549140e-02
1.496330e-01
5.028000e-02
-9.650120e-02
8.224570e-03
1.767590e-01
1.324130e-01
-3.349180e-02
-9.553590e-02
-1.960140e-01
-9.650120e-02
-2.175190e-01
-1.616760e-01
1.324130e-01
9.549140e-02
-9.553590e-02
-2.182860e-01
-9.650120e-02
8.224570e-03
-1.616760e-01
-1.221660e-01
-3.349180e-02
-9.553590e-02
-9.957290e-02
2.296380e-02
-2.175190e-01
-1.616760e-01
5.834620e-02
-3.615490e-02
-9.553590e-02
-2.182860e-01
2.296380e-02
2.011660e-01
-1.616760e-01
-1.221660e-01
-3.615490e-02
-1.327680e-01
-9.957290e-02
2.296380e-02
1.974910e-01
2.051790e-01
5.834620e-02
-3.615490e-02
-9.816040e-02
5.682720e-02
2.296380e-02
2.011660e-01
2.051790e-01
2.397610e-01
-3.615490e-02
-1.327680e-01
5.682720e-02
2.094670e-01
1.974910e-01
2.051790e-01
9.545270e-02
4.600990e-02
-9.816040e-02
5.682720e-02
-8.910420e-02
2.173340e-02
2.051790e-01
2.397610e-01
4.600990e-02
-4.629070e-02
5.682720e-02
2.094670e-01
2.173340e-02
6.211230e-02
9.545270e-02
4.600990e-02
-4.768160e-01
-1.544290e-01
-8.910420e-02
2.173340e-02
1.491610e-02
-5.015910e-02
4.600990e-02
-4.629070e-02
-1.544290e-01
2.044810e-01
2.173340e-02
6.211230e-02
-5.015910e-02
-1.090880e-01
-4.768160e-01
-1.544290e-01
-3.636400e-01
-2.756410e-01
1.491610e-02
-5.015910e-02
7.581370e-02
5.340970e-02
-1.544290e-01
2.044810e-01
-2.756410e-01
-1.293370e-01
-5.015910e-02
-1.090880e-01
5.340970e-02
-1.121370e-02
-3.636400e-01
-2.756410e-01
3.251540e-01
4.540490e-02
7.581370e-02
5.340970e-02
-9.914230e-02
1.890670e-03
-2.756410e-01
-1.293370e-01
4.540490e-02
-2.351160e-01
5.340970e-02
-1.121370e-02
1.890670e-03
1.006570e-01
3.251540e-01
4.540490e-02
5.825840e-01
3.872180e-01
-9.914230e-02
1.890670e-03
-5.144650e-02
-1.214520e-01
4.540490e-02
-2.351160e-01
3.872180e-01
1.747160e-01
1.890670e-03
1.006570e-01
-1.214520e-01
-9.727190e-02
5.825840e-01
3.872180e-01
1.327180e-01
1.598180e-01
-5.144650e-02
-1.214520e-01
3.322070e-02
-2.670520e-02
3.872180e-01
1.747160e-01
1.598180e-01
2.544270e-01
-1.214520e-01
-9.727190e-02
-2.670520e-02
-9.487610e-02
1.327180e-01
1.598180e-01
1.981320e-02
-1.429460e-01
3.322070e-02
-2.670520e-02
-7.977800e-03
7.358300e-02
1.598180e-01
2.544270e-01
-1.429460e-01
-2.611720e-01
-2.670520e-02
-9.487610e-02
7.358300e-02
1.180640e-01
1.981320e-02
-1.429460e-01
-4.593780e-01
-2.877620e-01
-7.977800e-03
7.358300e-02
2.271960e-01
1.234460e-01
-1.429460e-01
-2.611720e-01
-2.877620e-01
-1.282830e-01
7.358300e-02
1.180640e-01
1.234460e-01
1.921670e-03
-4.593780e-01
-2.877620e-01
-3.024080e-01
-1.828150e-01
2.271960e-01
1.234460e-01
1.809410e-02
-2.942070e-02
-2.877620e-01
-1.282830e-01
-1.828150e-01
-9.138780e-02
1.234460e-01
1.921670e-03
-2.942070e-02
-5.242340e-02
-3.024080e-01
-1.828150e-01
1.782080e-01
1.267770e-01
1.809410e-02
-2.942070e-02
-2.482820e-01
-1.067430e-01
-1.828150e-01
-9.138780e-02
1.267770e-01
1.815620e-02
-2.942070e-02
-5.242340e-02
-1.067430e-01
5.429600e-03
1.782080e-01
1.267770e-01
1.721350e-01
3.687210e-02
-2.482820e-01
-1.067430e-01
6.433620e-02
2.361880e-03
1.267770e-01
1.815620e-02
3.687210e-02
-2.003490e-02
-1.067430e-01
5.429600e-03
2.361880e-03
-1.446180e-01
1.721350e-01
3.687210e-02
-1.666440e-01
-1.216950e-01
6.433620e-02
2.361880e-03
1.723780e-01
6.796300e-02
3.687210e-02
-2.003490e-02
-1.216950e-01
-5.435020e-02
2.361880e-03
-1.446180e-01
6.796300e-02
-2.700330e-02
-1.666440e-01
-1.216950e-01
1.754240e-01
8.451370e-02
1.723780e-01
6.796300e-02
-9.369450e-02
-9.174970e-03
-1.216950e-01
-5.435020e-02
8.451370e-02
-5.941350e-02
6.796300e-02
-2.700330e-02
-9.174970e-03
7.029520e-02
1.754240e-01
8.451370e-02
-2.652460e-02
1.761490e-01
-9.369450e-02
-9.174970e-03
1.490870e-01
-5.284820e-02
8.451370e-02
-5.941350e-02
1.761490e-01
4.072160e-01
-9.174970e-03
7.029520e-02
-5.284820e-02
-2.373150e-01
-2.652460e-02
1.761490e-01
-4.388550e-01
-1.156940e-01
1.490870e-01
-5.284820e-02
3.809280e-01
1.833680e-01
1.761490e-01
4.072160e-01
-1.156940e-01
2.329620e-01
-5.284820e-02
-2.373150e-01
1.833680e-01
1.240450e-02
-4.388550e-01
-1.156940e-01
-1.299320e-03
3.240220e-02
3.809280e-01
1.833680e-01
1.346300e-01
1.087020e-01
-1.156940e-01
2.329620e-01
3.240220e-02
-5.101640e-02
1.833680e-01
1.240450e-02
1.087020e-01
1.317520e-01
-1.299320e-03
3.240220e-02
2.232420e-03
7.263240e-02
1.346300e-01
1.087020e-01
-7.179070e-02
-5.987940e-02
3.240220e-02
-5.101640e-02
7.263240e-02
1.246890e-01
1.087020e-01
1.317520e-01
-5.987940e-02
-1.282620e-01
0.000000e+00
0.000000e+00
-2.421770e-01
-1.143740e-01
0.000000e+00
0.000000e+00
4.010750e-01
1.215520e-01
0.000000e+00
0.000000e+00
-1.143740e-01
-2.160810e-02
0.000000e+00
0.000000e+00
1.215520e-01
-1.735920e-01
-2.421770e-01
-1.143740e-01
-1.745660e-01
-1.663200e-01
4.010750e-01
1.215520e-01
3.002460e-01
1.458750e-01
-1.143740e-01
-2.160810e-02
-1.663200e-01
-1.004780e-01
1.215520e-01
-1.735920e-01
1.458750e-01
-5.759330e-03
-1.745660e-01