<?xml version="1.0"?>
<VTKFile type="UnstructuredGrid" version="0.1" byte_order="LittleEndian" compressor="vtkZLibDataCompressor">
<UnstructuredGrid>
<Piece NumberOfPoints="960" NumberOfCells="120">
<Points>
<DataArray type="Float32" NumberOfComponents="3" format="ascii">
-4.000000e+02 -6.000000e+03 -4.000000e+02
0.000000e+00 -6.000000e+03 -4.000000e+02
-3.999140e+02 -5.600030e+03 -4.004980e+02
8.253260e-02 -5.600210e+03 -4.001700e+02
-4.000000e+02 -6.000000e+03 0.000000e+00
0.000000e+00 -6.000000e+03 0.000000e+00
-4.000590e+02 -5.600040e+03 -1.873320e-01
-7.335140e-02 -5.600030e+03 -1.439230e-01
0.000000e+00 -6.000000e+03 -4.000000e+02
4.000000e+02 -6.000000e+03 -4.000000e+02
8.253260e-02 -5.600210e+03 -4.001700e+02
4.000790e+02 -5.600350e+03 -3.998250e+02
0.000000e+00 -6.000000e+03 0.000000e+00
4.000000e+02 -6.000000e+03 0.000000e+00
-7.335140e-02 -5.600030e+03 -1.439230e-01
3.999120e+02 -5.600020e+03 -1.277700e-01
-3.999140e+02 -5.600030e+03 -4.004980e+02
8.253260e-02 -5.600210e+03 -4.001700e+02
-3.998770e+02 -5.200190e+03 -4.002600e+02
1.147970e-01 -5.200470e+03 -4.004170e+02
-4.000590e+02 -5.600040e+03 -1.873320e-01
-7.335140e-02 -5.600030e+03 -1.439230e-01
-3.999480e+02 -5.199990e+03 -5.030790e-01
4.336230e-02 -5.199940e+03 -3.485850e-01
8.253260e-02 -5.600210e+03 -4.001700e+02
4.000790e+02 -5.600350e+03 -3.998250e+02
1.147970e-01 -5.200470e+03 -4.004170e+02
4.001080e+02 -5.200710e+03 -4.006000e+02
-7.335140e-02 -5.600030e+03 -1.439230e-01
3.999120e+02 -5.600020e+03 -1.277700e-01
4.336230e-02 -5.199940e+03 -3.485850e-01
4.000320e+02 -5.199910e+03 -1.985880e-01
-3.998770e+02 -5.200190e+03 -4.002600e+02
1.147970e-01 -5.200470e+03 -4.004170e+02
-4.002480e+02 -4.800610e+03 -4.004770e+02
-2.591050e-01 -4.800640e+03 -4.010900e+02
-3.999480e+02 -5.199990e+03 -5.030790e-01
4.336230e-02 -5.199940e+03 -3.485850e-01
-3.998660e+02 -4.800070e+03 -5.820820e-01
1.341910e-01 -4.800040e+03 -8.119870e-01
1.147970e-01 -5.200470e+03 -4.004170e+02
4.001080e+02 -5.200710e+03 -4.006000e+02
-2.591050e-01 -4.800640e+03 -4.010900e+02
3.997320e+02 -4.800720e+03 -4.017090e+02
4.336230e-02 -5.199940e+03 -3.485850e-01
4.000320e+02 -5.199910e+03 -1.985880e-01
1.341910e-01 -4.800040e+03 -8.119870e-01
4.001350e+02 -4.800020e+03 -1.065980e+00
-4.002480e+02 -4.800610e+03 -4.004770e+02
-2.591050e-01 -4.800640e+03 -4.010900e+02
-4.003560e+02 -4.401070e+03 -4.012970e+02
-3.770320e-01 -4.400980e+03 -4.017170e+02
-3.998660e+02 -4.800070e+03 -5.820820e-01
1.341910e-01 -4.800040e+03 -8.119870e-01
-4.000150e+02 -4.400040e+03 -1.488590e+00
1.529770e-02 -4.400070e+03 -1.856460e+00
-2.591050e-01 -4.800640e+03 -4.010900e+02
3.997320e+02 -4.800720e+03 -4.017090e+02
-3.770320e-01 -4.400980e+03 -4.017170e+02
3.996050e+02 -4.400910e+03 -4.022470e+02
1.341910e-01 -4.800040e+03 -8.119870e-01
4.001350e+02 -4.800020e+03 -1.065980e+00
1.529770e-02 -4.400070e+03 -1.856460e+00
4.000450e+02 -4.400080e+03 -2.253590e+00
-4.003560e+02 -4.401070e+03 -4.012970e+02
-3.770320e-01 -4.400980e+03 -4.017170e+02
-4.005760e+02 -4.001300e+03 -4.024130e+02
-5.817940e-01 -4.001220e+03 -4.029910e+02
-4.000150e+02 -4.400040e+03 -1.488590e+00
1.529770e-02 -4.400070e+03 -1.856460e+00
-3.999690e+02 -3.999880e+03 -2.762820e+00
3.890440e-02 -3.999930e+03 -3.243870e+00
-3.770320e-01 -4.400980e+03 -4.017170e+02
3.996050e+02 -4.400910e+03 -4.022470e+02
-5.817940e-01 -4.001220e+03 -4.029910e+02
3.994120e+02 -4.001100e+03 -4.036560e+02
1.529770e-02 -4.400070e+03 -1.856460e+00
4.000450e+02 -4.400080e+03 -2.253590e+00
3.890440e-02 -3.999930e+03 -3.243870e+00
4.000470e+02 -4.000000e+03 -3.712340e+00
-4.005760e+02 -4.001300e+03 -4.024130e+02
-5.817940e-01 -4.001220e+03 -4.029910e+02
-4.005640e+02 -3.601280e+03 -4.038780e+02
-5.890710e-01 -3.601340e+03 -4.042550e+02
-3.999690e+02 -3.999880e+03 -2.762820e+00
3.890440e-02 -3.999930e+03 -3.243870e+00
-4.001340e+02 -3.599890e+03 -3.876560e+00
-1.147840e-01 -3.599870e+03 -4.457240e+00
-5.817940e-01 -4.001220e+03 -4.029910e+02
3.994120e+02 -4.001100e+03 -4.036560e+02
-5.890710e-01 -3.601340e+03 -4.042550e+02
3.993860e+02 -3.601340e+03 -4.046780e+02
3.890440e-02 -3.999930e+03 -3.243870e+00
4.000470e+02 -4.000000e+03 -3.712340e+00
-1.147840e-01 -3.599870e+03 -4.457240e+00
3.999050e+02 -3.599870e+03 -5.051950e+00
-4.005640e+02 -3.601280e+03 -4.038780e+02
-5.890710e-01 -3.601340e+03 -4.042550e+02
-4.004280e+02 -3.201370e+03 -4.056180e+02
-4.242920e-01 -3.201500e+03 -4.059400e+02
-4.001340e+02 -3.599890e+03 -3.876560e+00
-1.147840e-01 -3.599870e+03 -4.457240e+00
-4.000310e+02 -3.200000e+03 -5.313570e+00
-1.683840e-02 -3.200000e+03 -5.744240e+00
-5.890710e-01 -3.601340e+03 -4.042550e+02
3.993860e+02 -3.601340e+03 -4.046780e+02
-4.242920e-01 -3.201500e+03 -4.059400e+02
3.995810e+02 -3.201660e+03 -4.062980e+02
-1.147840e-01 -3.599870e+03 -4.457240e+00
3.999050e+02 -3.599870e+03 -5.051950e+00
-1.683840e-02 -3.200000e+03 -5.744240e+00
3.999990e+02 -3.199980e+03 -6.091400e+00
-4.004280e+02 -3.201370e+03 -4.056180e+02
-4.242920e-01 -3.201500e+03 -4.059400e+02
-4.003730e+02 -2.801640e+03 -4.069340e+02
-3.662110e-01 -2.801740e+03 -4.072250e+02
-4.000310e+02 -3.200000e+03 -5.313570e+00
-1.683840e-02 -3.200000e+03 -5.744240e+00
-3.999210e+02 -2.800160e+03 -7.060630e+00
7.459400e-02 -2.800110e+03 -7.337600e+00
-4.242920e-01 -3.201500e+03 -4.059400e+02
3.995810e+02 -3.201660e+03 -4.062980e+02
-3.662110e-01 -2.801740e+03 -4.072250e+02
3.996440e+02 -2.801870e+03 -4.075230e+02
-1.683840e-02 -3.200000e+03 -5.744240e+00
3.999990e+02 -3.199980e+03 -6.091400e+00
7.459400e-02 -2.800110e+03 -7.337600e+00
4.000710e+02 -2.800050e+03 -7.557960e+00
-4.003730e+02 -2.801640e+03 -4.069340e+02
-3.662110e-01 -2.801740e+03 -4.072250e+02
-4.004880e+02 -2.401820e+03 -4.081940e+02
-4.739940e-01 -2.401940e+03 -4.087120e+02
-3.999210e+02 -2.800160e+03 -7.060630e+00
7.459400e-02 -2.800110e+03 -7.337600e+00
-3.999320e+02 -2.400050e+03 -8.828830e+00
6.710710e-02 -2.400030e+03 -9.034530e+00
-3.662110e-01 -2.801740e+03 -4.072250e+02
3.996440e+02 -2.801870e+03 -4.075230e+02
-4.739940e-01 -2.401940e+03 -4.087120e+02
3.995430e+02 -2.402050e+03 -4.092360e+02
7.459400e-02 -2.800110e+03 -7.337600e+00
4.000710e+02 -2.800050e+03 -7.557960e+00
6.710710e-02 -2.400030e+03 -9.034530e+00
4.000690e+02 -2.400020e+03 -9.209700e+00
-4.004880e+02 -2.401820e+03 -4.081940e+02
-4.739940e-01 -2.401940e+03 -4.087120e+02
-4.003730e+02 -2.001880e+03 -4.104040e+02
-3.676010e-01 -2.001860e+03 -4.108460e+02
-3.999320e+02 -2.400050e+03 -8.828830e+00
6.710710e-02 -2.400030e+03 -9.034530e+00
-3.998910e+02 -2.000010e+03 -1.059310e+01
1.166430e-01 -2.000020e+03 -1.074570e+01
-4.739940e-01 -2.401940e+03 -4.087120e+02
3.995430e+02 -2.402050e+03 -4.092360e+02
-3.676010e-01 -2.001860e+03 -4.108460e+02
3.996390e+02 -2.001860e+03 -4.113830e+02
6.710710e-02 -2.400030e+03 -9.034530e+00
4.000690e+02 -2.400020e+03 -9.209700e+00
1.166430e-01 -2.000020e+03 -1.074570e+01
4.001280e+02 -2.000030e+03 -1.087580e+01
-4.003730e+02 -2.001880e+03 -4.104040e+02
-3.676010e-01 -2.001860e+03 -4.108460e+02
-4.001750e+02 -1.601790e+03 -4.127430e+02
-1.556780e-01 -1.601750e+03 -4.128840e+02
-3.998910e+02 -2.000010e+03 -1.059310e+01
1.166430e-01 -2.000020e+03 -1.074570e+01
-3.998770e+02 -1.599980e+03 -1.260790e+01
1.508360e-01 -1.599980e+03 -1.272460e+01
-3.676010e-01 -2.001860e+03 -4.108460e+02
3.996390e+02 -2.001860e+03 -4.113830e+02
-1.556780e-01 -1.601750e+03 -4.128840e+02
3.998620e+02 -1.601700e+03 -4.131330e+02
1.166430e-01 -2.000020e+03 -1.074570e+01
4.001280e+02 -2.000030e+03 -1.087580e+01
1.508360e-01 -1.599980e+03 -1.272460e+01
4.001810e+02 -1.599990e+03 -1.276370e+01
-4.001750e+02 -1.601790e+03 -4.127430e+02
-1.556780e-01 -1.601750e+03 -4.128840e+02
-3.999850e+02 -1.201820e+03 -4.146350e+02
2.057800e-02 -1.201740e+03 -4.146900e+02
-3.998770e+02 -1.599980e+03 -1.260790e+01
1.508360e-01 -1.599980e+03 -1.272460e+01
-4.000310e+02 -1.200010e+03 -1.452310e+01
-3.115990e-03 -1.200040e+03 -1.443780e+01
-1.556780e-01 -1.601750e+03 -4.128840e+02
3.998620e+02 -1.601700e+03 -4.131330e+02
2.057800e-02 -1.201740e+03 -4.146900e+02
4.000290e+02 -1.201580e+03 -4.148100e+02
1.508360e-01 -1.599980e+03 -1.272460e+01
4.001810e+02 -1.599990e+03 -1.276370e+01
-3.115990e-03 -1.200040e+03 -1.443780e+01
4.000240e+02 -1.200080e+03 -1.430660e+01
-3.999850e+02 -1.201820e+03 -4.146350e+02
2.057800e-02 -1.201740e+03 -4.146900e+02
-4.000980e+02 -8.017900e+02 -4.164070e+02
-1.107850e-01 -8.017630e+02 -4.163800e+02
-4.000310e+02 -1.200010e+03 -1.452310e+01
-3.115990e-03 -1.200040e+03 -1.443780e+01
-4.000460e+02 -8.000270e+02 -1.615720e+01
-4.413200e-02 -8.000530e+02 -1.631710e+01
2.057800e-02 -1.201740e+03 -4.146900e+02
4.000290e+02 -1.201580e+03 -4.148100e+02
-1.107850e-01 -8.017630e+02 -4.163800e+02
3.998740e+02 -8.016990e+02 -4.164240e+02
-3.115990e-03 -1.200040e+03 -1.443780e+01
4.000240e+02 -1.200080e+03 -1.430660e+01
-4.413200e-02 -8.000530e+02 -1.631710e+01
3.999590e+02 -8.000670e+02 -1.646080e+01
-4.000980e+02 -8.017900e+02 -4.164070e+02
-1.107850e-01 -8.017630e+02 -4.163800e+02
-3.999480e+02 -4.015600e+02 -4.179970e+02
5.499290e-02 -4.016310e+02 -4.178460e+02
-4.000460e+02 -8.000270e+02 -1.615720e+01
-4.413200e-02 -8.000530e+02 -1.631710e+01
-4.000600e+02 -4.000480e+02 -1.780770e+01
-5.454050e-02 -4.000860e+02 -1.785180e+01
-1.107850e-01 -8.017630e+02 -4.163800e+02
3.998740e+02 -8.016990e+02 -4.164240e+02
5.499290e-02 -4.016310e+02 -4.178460e+02
4.000570e+02 -4.017040e+02 -4.177460e+02
-4.413200e-02 -8.000530e+02 -1.631710e+01
3.999590e+02 -8.000670e+02 -1.646080e+01
-5.454050e-02 -4.000860e+02 -1.785180e+01
3.999520e+02 -4.001150e+02 -1.789030e+01
-3.999480e+02 -4.015600e+02 -4.179970e+02
5.499290e-02 -4.016310e+02 -4.178460e+02
-3.999580e+02 -1.812760e+00 -4.189740e+02
5.342340e-02 -1.860580e+00 -4.189180e+02
-4.000600e+02 -4.000480e+02 -1.780770e+01
-5.454050e-02 -4.000860e+02 -1.785180e+01
-3.999900e+02 1.363660e-03 -1.924580e+01
1.493900e-02 -3.340320e-02 -1.929040e+01
5.499290e-02 -4.016310e+02 -4.178460e+02
4.000570e+02 -4.017040e+02 -4.177460e+02
[...]
<PointData>
<DataArray type="Float32" Name="V1" format="ascii">
0.000000e+00
0.000000e+00
-1.909260e-01
-1.853550e-01
0.000000e+00
0.000000e+00
9.049360e-02
1.195510e-01
0.000000e+00
0.000000e+00
-1.853550e-01
-1.780100e-01
0.000000e+00
0.000000e+00
1.195510e-01
1.488450e-01
-1.909260e-01
-1.853550e-01
9.719840e-02
-9.879400e-03
9.049360e-02
1.195510e-01
1.344170e-02
6.677050e-02
-1.853550e-01
-1.780100e-01
-9.879400e-03
-1.114110e-01
1.195510e-01
1.488450e-01
6.677050e-02
1.201780e-01
9.719840e-02
-9.879400e-03
-1.490940e-01
-2.290930e-01
1.344170e-02
6.677050e-02
3.570740e-02
1.045570e-01
-9.879400e-03
-1.114110e-01
-2.290930e-01
-3.029460e-01
6.677050e-02
1.201780e-01
1.045570e-01
1.724700e-01
-1.490940e-01
-2.290930e-01
-1.545600e-01
-1.676920e-01
3.570740e-02
1.045570e-01
1.330980e-01
1.784070e-01
-2.290930e-01
-3.029460e-01
-1.676920e-01
-1.839900e-01
1.045570e-01
1.724700e-01
1.784070e-01
2.272030e-01
-1.545600e-01
-1.676920e-01
5.579890e-02
7.415400e-02
1.330980e-01
1.784070e-01
-7.787640e-02
-6.875710e-02
-1.676920e-01
-1.839900e-01
7.415400e-02
9.481250e-02
1.784070e-01
2.272030e-01
-6.875710e-02
-6.531110e-02
5.579890e-02
7.415400e-02
1.272660e-01
1.029900e-01
-7.787640e-02
-6.875710e-02
-1.708590e-02
-2.430200e-02
7.415400e-02
9.481250e-02
1.029900e-01
8.146640e-02
-6.875710e-02
-6.531110e-02
-2.430200e-02
-2.930460e-02
1.272660e-01
1.029900e-01
-3.191480e-01
-2.584870e-01
-1.708590e-02
-2.430200e-02
3.071000e-01
2.540520e-01
1.029900e-01
8.146640e-02
-2.584870e-01
-1.965940e-01
-2.430200e-02
-2.930460e-02
2.540520e-01
2.107630e-01
-3.191480e-01
-2.584870e-01
-2.141510e-01
-2.230440e-01
3.071000e-01
2.540520e-01
1.493370e-01
1.551390e-01
-2.584870e-01
-1.965940e-01
-2.230440e-01
-2.263920e-01
2.540520e-01
2.107630e-01
1.551390e-01
1.616950e-01
-2.141510e-01
-2.230440e-01
1.989830e-01
1.927190e-01
1.493370e-01
1.551390e-01
-8.388580e-02
-7.910780e-02
-2.230440e-01
-2.263920e-01
1.927190e-01
1.967090e-01
1.551390e-01
1.616950e-01
-7.910780e-02
-7.321560e-02
1.989830e-01
1.927190e-01
7.918750e-02
1.496820e-01
-8.388580e-02
-7.910780e-02
2.952310e-03
-4.750190e-02
1.927190e-01
1.967090e-01
1.496820e-01
2.176410e-01
-7.910780e-02
-7.321560e-02
-4.750190e-02
-9.728220e-02
7.918750e-02
1.496820e-01
-1.598310e-03
9.271920e-02
2.952310e-03
-4.750190e-02
-1.235650e-02
-8.017120e-02
1.496820e-01
2.176410e-01
9.271920e-02
1.841430e-01
-4.750190e-02
-9.728220e-02
-8.017120e-02
-1.467540e-01
-1.598310e-03
9.271920e-02
2.016500e-01
1.727820e-01
-1.235650e-02
-8.017120e-02
-1.358870e-01
-1.167270e-01
9.271920e-02
1.841430e-01
1.727820e-01
1.442150e-01
-8.017120e-02
-1.467540e-01
-1.167270e-01
-9.026320e-02
2.016500e-01
1.727820e-01
-1.324970e-01
-1.183020e-01
-1.358870e-01
-1.167270e-01
6.529870e-02
6.598690e-02
1.727820e-01
1.442150e-01
-1.183020e-01
-9.213780e-02
-1.167270e-01
-9.026320e-02
6.598690e-02
6.641410e-02
-1.324970e-01
-1.183020e-01
5.504840e-02
1.239750e-02
6.529870e-02
6.598690e-02
-8.484380e-02
-8.872810e-02
-1.183020e-01
-9.213780e-02
1.239750e-02
-2.588230e-02
6.598690e-02
6.641410e-02
-8.872810e-02
-9.246180e-02
5.504840e-02
1.239750e-02
3.384460e-01
3.362960e-01
-8.484380e-02
-8.872810e-02
-8.720220e-02
-1.047220e-01
1.239750e-02
-2.588230e-02
3.362960e-01
3.307640e-01
-8.872810e-02
-9.246180e-02
-1.047220e-01
-1.179860e-01
3.384460e-01
3.362960e-01
-9.679330e-02
-1.187910e-01
-8.720220e-02
-1.047220e-01
3.642530e-02
7.081350e-03
3.362960e-01
3.307640e-01
-1.187910e-01
-1.347740e-01
-1.047220e-01
-1.179860e-01
7.081350e-03
-2.288190e-02
-9.679330e-02
-1.187910e-01
-1.688940e-01
-1.679120e-01
3.642530e-02
7.081350e-03
1.119670e-01
1.023460e-01
-1.187910e-01
-1.347740e-01
-1.679120e-01
-1.637220e-01
7.081350e-03
-2.288190e-02
1.023460e-01
9.196170e-02
-1.688940e-01
-1.679120e-01
2.092760e-01
1.990880e-01
1.119670e-01
1.023460e-01
-1.331460e-01
-1.262440e-01
-1.679120e-01
-1.637220e-01
1.990880e-01
1.807430e-01
1.023460e-01
9.196170e-02
-1.262440e-01
-1.161950e-01
2.092760e-01
1.990880e-01
-2.540780e-02
-1.004460e-02
-1.331460e-01
-1.262440e-01
3.399810e-03
2.981290e-02
1.990880e-01
1.807430e-01
-1.004460e-02
2.602820e-03
-1.262440e-01
-1.161950e-01
2.981290e-02
6.242990e-02
-2.540780e-02
-1.004460e-02
6.788940e-02
2.091830e-02
3.399810e-03
2.981290e-02
-9.065070e-02
-8.696850e-02
-1.004460e-02
2.602820e-03
2.091830e-02
-1.972580e-02
2.981290e-02
6.242990e-02
-8.696850e-02
-8.939310e-02
6.788940e-02
2.091830e-02
7.195070e-02
8.056630e-02
-9.065070e-02
-8.696850e-02
-7.009690e-02
-7.131440e-02
2.091830e-02
-1.972580e-02
8.056630e-02
8.639280e-02
-8.696850e-02
-8.939310e-02
-7.131440e-02
-7.335620e-02
7.195070e-02
8.056630e-02
1.076910e-01
1.074610e-01
-7.009690e-02
-7.131440e-02
-6.000400e-02
-5.948990e-02
8.056630e-02
8.639280e-02
1.074610e-01
1.063740e-01
-7.131440e-02
-7.335620e-02
-5.948990e-02
-5.753800e-02
1.076910e-01
1.074610e-01
1.131100e-02
6.194870e-02
-6.000400e-02
-5.948990e-02
3.414190e-02
1.145450e-02
1.074610e-01
1.063740e-01
6.194870e-02
1.121350e-01
-5.948990e-02
-5.753800e-02
1.145450e-02
-1.155400e-02
1.131100e-02
6.194870e-02
-1.729820e-01
-1.199960e-01
3.414190e-02
1.145450e-02
2.738640e-02
7.411620e-03
6.194870e-02
1.121350e-01
-1.199960e-01
-6.968600e-02
1.145450e-02
-1.155400e-02
7.411620e-03
-1.321410e-02
-1.729820e-01
-1.199960e-01
-6.099620e-02
1.048960e-02
2.738640e-02
7.411620e-03
-1.151330e-02
-8.156330e-02
-1.199960e-01
-6.968600e-02
1.048960e-02
7.886230e-02
7.411620e-03
-1.321410e-02
-8.156330e-02
-1.519040e-01
-6.099620e-02
1.048960e-02
6.427380e-02
1.256070e-01
-1.151330e-02
-8.156330e-02
-9.055730e-02
-1.333230e-01
1.048960e-02
7.886230e-02
1.256070e-01
1.885490e-01
-8.156330e-02
-1.519040e-01
-1.333230e-01
-1.748320e-01
6.427380e-02
1.256070e-01
1.020600e-01
1.918460e-02
-9.055730e-02
-1.333230e-01
-6.255200e-02
-4.272560e-02
1.256070e-01
1.885490e-01
1.918460e-02
-6.977760e-02
-1.333230e-01
-1.748320e-01
-4.272560e-02
-2.581910e-02
1.020600e-01
1.918460e-02
-1.448030e-02
-2.223650e-03
-6.255200e-02
-4.272560e-02
1.106320e-02
2.276380e-03
1.918460e-02
-6.977760e-02
-2.223650e-03
6.471510e-03
-4.272560e-02
-2.581910e-02
2.276380e-03
-6.166210e-03
-1.448030e-02
-2.223650e-03
8.033170e-02
3.274890e-02
1.106320e-02
2.276380e-03
5.606230e-02
1.291540e-01
-2.223650e-03
6.471510e-03
3.274890e-02
-2.103920e-02
2.276380e-03
-6.166210e-03
1.291540e-01
2.051220e-01
8.033170e-02
3.274890e-02
3.369470e-02
4.196090e-02
5.606230e-02
1.291540e-01
5.669670e-02
9.014560e-02
3.274890e-02
-2.103920e-02
4.196090e-02
6.070370e-02
1.291540e-01
2.051220e-01
9.014560e-02
1.288290e-01
0.000000e+00
0.000000e+00
9.049360e-02
1.195510e-01
0.000000e+00
0.000000e+00
4.194810e-02
-3.669380e-02
0.000000e+00
0.000000e+00
1.195510e-01
1.488450e-01
0.000000e+00
0.000000e+00
-3.669380e-02
-1.082470e-01
9.049360e-02
1.195510e-01
1.344170e-02
6.677050e-02
4.194810e-02
-3.669380e-02
-1.516190e-01
-1.344430e-01
1.195510e-01
1.488450e-01
6.677050e-02
1.201780e-01
-3.669380e-02
-1.082470e-01
-1.344430e-01
-1.203450e-01
1.344170e-02
6.677050e-02
3.570740e-02
1.045570e-01
-1.516190e-01
-1.344430e-01
8.442540e-02
2.917530e-02
6.677050e-02
1.201780e-01
1.045570e-01
1.724700e-01
-1.344430e-01
-1.203450e-01
2.917530e-02
-2.658280e-02
3.570740e-02
1.045570e-01
1.330980e-01
1.784070e-01
8.442540e-02
2.917530e-02
-1.040820e-01
-1.933610e-01
1.045570e-01
1.724700e-01
1.784070e-01
2.272030e-01
2.917530e-02
-2.658280e-02
-1.933610e-01
-2.802270e-01
1.330980e-01
1.784070e-01
-7.787640e-02
-6.875710e-02
-1.040820e-01
-1.933610e-01
8.808320e-02
5.771330e-02
1.784070e-01
2.272030e-01
-6.875710e-02
-6.531110e-02
-1.933610e-01
-2.802270e-01
5.771330e-02
3.625620e-02
-7.787640e-02
-6.875710e-02
-1.708590e-02
-2.430200e-02
8.808320e-02
5.771330e-02
-5.678010e-02
-4.217470e-02
-6.875710e-02
-6.531110e-02
-2.430200e-02
-2.930460e-02
5.771330e-02
3.625620e-02
-4.217470e-02
-2.326750e-02
-1.708590e-02
-2.430200e-02
3.071000e-01
2.540520e-01
-5.678010e-02
-4.217470e-02
-3.092630e-01
-2.685370e-01
-2.430200e-02
-2.930460e-02
2.540520e-01
2.107630e-01
-4.217470e-02
-2.326750e-02
-2.685370e-01
-2.275480e-01
3.071000e-01
2.540520e-01
1.493370e-01
1.551390e-01
-3.092630e-01
-2.685370e-01
-8.487730e-02
-9.627990e-02
2.540520e-01
2.107630e-01
1.551390e-01
1.616950e-01
-2.685370e-01
-2.275480e-01
-9.627990e-02
-1.028850e-01
1.493370e-01
1.551390e-01
-8.388580e-02
-7.910780e-02
-8.487730e-02
-9.627990e-02
-2.902650e-02
-2.320360e-02
1.551390e-01
1.616950e-01
-7.910780e-02
-7.321560e-02
-9.627990e-02
-1.028850e-01
-2.320360e-02
-1.331380e-02
-8.388580e-02
-7.910780e-02
2.952310e-03
-4.750190e-02
-2.902650e-02
-2.320360e-02
-8.964380e-02
-7.829980e-02
-7.910780e-02
-7.321560e-02
-4.750190e-02
-9.728220e-02
-2.320360e-02
-1.331380e-02
-7.829980e-02
-6.611090e-02
2.952310e-03
-4.750190e-02
-1.235650e-02
-8.017120e-02
-8.964380e-02
-7.829980e-02
3.304490e-02
9.075490e-02
-4.750190e-02
-9.728220e-02
-8.017120e-02
-1.467540e-01
-7.829980e-02
-6.611090e-02
9.075490e-02
1.499750e-01
-1.235650e-02
-8.017120e-02
-1.358870e-01
-1.167270e-01
3.304490e-02
9.075490e-02
8.089420e-02
4.636660e-02
-8.017120e-02
-1.467540e-01
-1.167270e-01
-9.026320e-02
9.075490e-02
1.499750e-01
4.636660e-02
1.337560e-02
-1.358870e-01
-1.167270e-01
6.529870e-02
6.598690e-02
8.089420e-02
4.636660e-02
4.865100e-03
-1.160730e-02
-1.167270e-01
-9.026320e-02
6.598690e-02
6.641410e-02
4.636660e-02
1.337560e-02
-1.160730e-02
-2.039090e-02
6.529870e-02
6.598690e-02
-8.484380e-02
-8.872810e-02
4.865100e-03
-1.160730e-02
1.148890e-01
1.524310e-01
6.598690e-02
6.641410e-02
-8.872810e-02
-9.246180e-02
-1.160730e-02
-2.039090e-02
1.524310e-01
1.983960e-01
-8.484380e-02
-8.872810e-02
-8.720220e-02
-1.047220e-01
1.148890e-01
1.524310e-01
-1.620350e-01
-1.220230e-01
-8.872810e-02
-9.246180e-02
-1.047220e-01
-1.179860e-01
1.524310e-01
1.983960e-01
-1.220230e-01
-8.283810e-02
-8.720220e-02
-1.047220e-01
3.642530e-02
7.081350e-03
-1.620350e-01
-1.220230e-01
2.196910e-02
1.030860e-01
-1.047220e-01
-1.179860e-01
7.081350e-03
-2.288190e-02
-1.220230e-01
-8.283810e-02
1.030860e-01
1.845890e-01
3.642530e-02
7.081350e-03
1.119670e-01
1.023460e-01
2.196910e-02
1.030860e-01
-6.590680e-02
-3.572070e-02
7.081350e-03
-2.288190e-02
1.023460e-01
9.196170e-02
1.030860e-01
1.845890e-01
-3.572070e-02
-8.071210e-03
1.119670e-01
1.023460e-01
-1.331460e-01
-1.262440e-01
-6.590680e-02
-3.572070e-02
7.706190e-02
5.739960e-02
1.023460e-01
9.196170e-02
-1.262440e-01
-1.161950e-01
-3.572070e-02
-8.071210e-03
5.739960e-02
4.095010e-02
-1.331460e-01
-1.262440e-01
3.399810e-03
2.981290e-02
7.706190e-02
5.739960e-02
6.088270e-03
-5.781970e-02
-1.262440e-01
-1.161950e-01
2.981290e-02
6.242990e-02
5.739960e-02
4.095010e-02
-5.781970e-02
-1.200650e-01
3.399810e-03
2.981290e-02
-9.065070e-02
-8.696850e-02
6.088270e-03
-5.781970e-02
1.157210e-01
1.431250e-01
2.981290e-02
6.242990e-02
-8.696850e-02
-8.939310e-02
-5.781970e-02
-1.200650e-01
1.431250e-01
1.757110e-01
-9.065070e-02
-8.696850e-02
-7.009690e-02
-7.131440e-02
1.157210e-01
1.431250e-01
6.868000e-02
7.684900e-02
-8.696850e-02
-8.939310e-02
-7.131440e-02
-7.335620e-02
1.431250e-01
1.757110e-01
7.684900e-02
8.227500e-02
-7.009690e-02
-7.131440e-02
-6.000400e-02
-5.948990e-02
6.868000e-02
7.684900e-02
1.244540e-02
1.052620e-02
-7.131440e-02
-7.335620e-02
-5.948990e-02
-5.753800e-02
7.684900e-02
8.227500e-02
1.052620e-02
1.829660e-03
-6.000400e-02
-5.948990e-02
3.414190e-02
1.145450e-02
1.244540e-02
1.052620e-02
-8.265720e-02
-8.533790e-02
-5.948990e-02
-5.753800e-02
1.145450e-02
-1.155400e-02
1.052620e-02
1.829660e-03
-8.533790e-02
-8.852180e-02
3.414190e-02
1.145450e-02
2.738640e-02
7.411620e-03
-8.265720e-02
-8.533790e-02
1.321450e-01
1.171760e-01
1.145450e-02
-1.155400e-02
7.411620e-03
-1.321410e-02
-8.533790e-02
-8.852180e-02
1.171760e-01
1.037020e-01
2.738640e-02
7.411620e-03
-1.151330e-02
-8.156330e-02
1.321450e-01
1.171760e-01
7.763810e-02
1.451480e-01
7.411620e-03
-1.321410e-02
-8.156330e-02
-1.519040e-01
1.171760e-01
1.037020e-01
1.451480e-01
2.210230e-01
-1.151330e-02
-8.156330e-02
-9.055730e-02
-1.333230e-01
7.763810e-02
1.451480e-01
1.145420e-01
1.401810e-01
-8.156330e-02
-1.519040e-01
-1.333230e-01
-1.748320e-01
1.451480e-01
2.210230e-01
1.401810e-01
1.544390e-01
-9.055730e-02
-1.333230e-01
-6.255200e-02
-4.272560e-02
1.145420e-01
1.401810e-01
1.206100e-02
6.362000e-02
-1.333230e-01
-1.748320e-01
-4.272560e-02
-2.581910e-02
1.401810e-01
1.544390e-01
6.362000e-02
1.088180e-01
-6.255200e-02
-4.272560e-02
1.106320e-02
2.276380e-03
1.206100e-02
6.362000e-02
-1.683000e-03
1.059440e-02
-4.272560e-02
-2.581910e-02
2.276380e-03
-6.166210e-03
6.362000e-02
1.088180e-01
1.059440e-02
1.778260e-02
1.106320e-02
2.276380e-03
5.606230e-02
1.291540e-01
-1.683000e-03
1.059440e-02
-2.006470e-01
-3.031880e-01
2.276380e-03
-6.166210e-03
1.291540e-01
2.051220e-01
1.059440e-02
1.778260e-02
-3.031880e-01
-4.054130e-01
5.606230e-02
1.291540e-01
5.669670e-02
9.014560e-02
-2.006470e-01
-3.031880e-01
-1.257860e-01
-2.111500e-01
1.291540e-01
2.051220e-01
9.014560e-02
1.288290e-01
-3.031880e-01
-4.054130e-01
-2.111500e-01
-3.031350e-01
</DataArray>
<DataArray type="Float32" Name="V2" format="ascii">
0.000000e+00
0.000000e+00
2.076900e-01
3.241800e-02
0.000000e+00
0.000000e+00
8.049690e-02
6.098590e-02
0.000000e+00
0.000000e+00
3.241800e-02
-2.932460e-01
0.000000e+00
0.000000e+00
6.098590e-02
1.521020e-01
2.076900e-01
3.241800e-02
3.985860e-01
1.348430e-01
8.049690e-02
6.098590e-02
6.254700e-02
1.865440e-01
3.241800e-02
-2.932460e-01
1.348430e-01
-1.254240e-01
6.098590e-02
1.521020e-01
1.865440e-01
3.174290e-01
3.985860e-01
1.348430e-01
2.862440e-02
2.594560e-01
6.254700e-02
1.865440e-01
-1.482300e-01
-1.504560e-01
1.348430e-01
-1.254240e-01
2.594560e-01
5.142410e-01
1.865440e-01
3.174290e-01
-1.504560e-01
-1.714580e-01
2.862440e-02
2.594560e-01
2.869420e-01
1.610220e-01
-1.482300e-01
-1.504560e-01
-2.190840e-01
-2.599160e-01
2.594560e-01
5.142410e-01
1.610220e-01
-3.708530e-02
-1.504560e-01
-1.714580e-01
-2.599160e-01
-3.248430e-01
2.869420e-01
1.610220e-01
-2.348120e-02
-2.605390e-01
-2.190840e-01
-2.599160e-01
-8.031150e-03
1.789740e-01
1.610220e-01
-3.708530e-02
-2.605390e-01
-3.567550e-01
-2.599160e-01
-3.248430e-01
1.789740e-01
2.658050e-01
-2.348120e-02
-2.605390e-01
-2.250890e-01
-3.615770e-01
-8.031150e-03
1.789740e-01
1.044990e-01
2.766600e-01
-2.605390e-01
-3.567550e-01
-3.615770e-01
-4.215870e-01
1.789740e-01
2.658050e-01
2.766600e-01
3.665110e-01
-2.250890e-01
-3.615770e-01
1.077040e-01
1.278250e-01
1.044990e-01
2.766600e-01
-2.040050e-01
-2.162050e-01
-3.615770e-01
-4.215870e-01
1.278250e-01
1.499310e-03
2.766600e-01
3.665110e-01
-2.162050e-01
-1.672420e-01
1.077040e-01
1.278250e-01
-1.177730e-02
1.178380e-01
-2.040050e-01
-2.162050e-01
3.577190e-02
-2.045680e-01
1.278250e-01
1.499310e-03
1.178380e-01
1.360460e-01
-2.162050e-01
-1.672420e-01
-2.045680e-01
-3.353030e-01
-1.177730e-02
1.178380e-01
-1.206430e-01
9.125810e-02
3.577190e-02
-2.045680e-01
7.885530e-02
-8.791460e-02
1.178380e-01
1.360460e-01
9.125810e-02
1.129420e-01
-2.045680e-01
-3.353030e-01
-8.791460e-02
-1.142020e-01
-1.206430e-01
9.125810e-02
4.048860e-01
3.057640e-01
7.885530e-02
-8.791460e-02
6.461590e-02
-4.787380e-03
9.125810e-02
1.129420e-01
3.057640e-01
3.276300e-01
-8.791460e-02
-1.142020e-01
-4.787380e-03
-1.169670e-01
4.048860e-01
3.057640e-01
-6.722050e-03
-8.324320e-02
6.461590e-02
-4.787380e-03
2.477880e-01
1.139760e-01
3.057640e-01
3.276300e-01
-8.324320e-02
5.866040e-03
-4.787380e-03
-1.169670e-01
1.139760e-01
-5.647920e-02
-6.722050e-03
-8.324320e-02
-2.203480e-01
-1.469050e-01
2.477880e-01
1.139760e-01
-1.360080e-02
6.036810e-02
-8.324320e-02
5.866040e-03
-1.469050e-01
-1.265830e-01
1.139760e-01
-5.647920e-02
6.036810e-02
7.578250e-02
-2.203480e-01
-1.469050e-01
-6.221530e-02
-1.137430e-01
-1.360080e-02
6.036810e-02
-6.959420e-02
8.905730e-02
-1.469050e-01
-1.265830e-01
-1.137430e-01
-9.762570e-02
6.036810e-02
7.578250e-02
8.905730e-02
2.370530e-01
-6.221530e-02
-1.137430e-01
1.412110e-01
7.650900e-02
-6.959420e-02
8.905730e-02
-5.375300e-02
-8.477970e-02
-1.137430e-01
-9.762570e-02
7.650900e-02
-2.637170e-02
8.905730e-02
2.370530e-01
-8.477970e-02
-3.816370e-02
1.412110e-01
7.650900e-02
-1.577370e-01
4.648860e-03
-5.375300e-02
-8.477970e-02
-1.135860e-01
-1.024710e-01
7.650900e-02
-2.637170e-02
4.648860e-03
8.394640e-02
-8.477970e-02
-3.816370e-02
-1.024710e-01
-8.199890e-02
-1.577370e-01
4.648860e-03
-5.934030e-01
-2.541420e-01
-1.135860e-01
-1.024710e-01
2.771790e-02
7.984030e-02
4.648860e-03
8.394640e-02
-2.541420e-01
9.561890e-02
-1.024710e-01
-8.199890e-02
7.984030e-02
6.189540e-02
-5.934030e-01
-2.541420e-01
-3.268330e-01
-9.583490e-02
2.771790e-02
7.984030e-02
6.309560e-02
6.245850e-02
-2.541420e-01
9.561890e-02
-9.583490e-02
2.066830e-01
7.984030e-02
6.189540e-02
6.245850e-02
4.351630e-02
-3.268330e-01
-9.583490e-02
-1.142420e-01
-1.850720e-02
6.309560e-02
6.245850e-02
1.336320e-01
1.004250e-01
-9.583490e-02
2.066830e-01
-1.850720e-02
1.638960e-01
6.245850e-02
4.351630e-02
1.004250e-01
2.552370e-02
-1.142420e-01
-1.850720e-02
5.965310e-03
3.801420e-02
1.336320e-01
1.004250e-01
8.081920e-02
-7.762500e-02
-1.850720e-02
1.638960e-01
3.801420e-02
5.259160e-02
1.004250e-01
2.552370e-02
-7.762500e-02
-1.568880e-01
5.965310e-03
3.801420e-02
1.025760e-01
-3.465480e-02
8.081920e-02
-7.762500e-02
4.078190e-02
6.775220e-03
3.801420e-02
5.259160e-02
-3.465480e-02
-6.109740e-02
-7.762500e-02
-1.568880e-01
6.775220e-03
4.066360e-02
1.025760e-01
-3.465480e-02
4.107090e-01
8.186410e-02
4.078190e-02
6.775220e-03
2.947380e-02
9.308720e-02
-3.465480e-02
-6.109740e-02
8.186410e-02
-1.556360e-01
6.775220e-03
4.066360e-02
9.308720e-02
1.117690e-02
4.107090e-01
8.186410e-02
1.547620e-01
1.988030e-01
2.947380e-02
9.308720e-02
4.860900e-02
2.059000e-02
8.186410e-02
-1.556360e-01
1.988030e-01
6.144140e-02
9.308720e-02
1.117690e-02
2.059000e-02
7.733790e-02
1.547620e-01
1.988030e-01
7.203460e-02
3.068340e-01
4.860900e-02
2.059000e-02
5.117530e-02
-5.513900e-02
1.988030e-01
6.144140e-02
3.068340e-01
4.973580e-01
2.059000e-02
7.733790e-02
-5.513900e-02
-1.990390e-01
7.203460e-02
3.068340e-01
-9.764850e-02
-1.158590e-02
5.117530e-02
-5.513900e-02
5.877100e-02
2.740130e-02
3.068340e-01
4.973580e-01
-1.158590e-02
9.007440e-03
-5.513900e-02
-1.990390e-01
2.740130e-02
-3.911060e-03
-9.764850e-02
-1.158590e-02
-7.647050e-02
-1.527410e-01
5.877100e-02
2.740130e-02
-7.033520e-02
-1.981750e-02
-1.158590e-02
9.007440e-03
-1.527410e-01
-1.699530e-01
2.740130e-02
-3.911060e-03
-1.981750e-02
7.456320e-02
-7.647050e-02
-1.527410e-01
-4.790080e-02
1.389780e-01
-7.033520e-02
-1.981750e-02
-2.197380e-02
-1.542460e-01
-1.527410e-01
-1.699530e-01
1.389780e-01
3.442570e-01
-1.981750e-02
7.456320e-02
-1.542460e-01
-2.599740e-01
-4.790080e-02
1.389780e-01
-3.726760e-01
-1.387920e-01
-2.197380e-02
-1.542460e-01
2.550810e-01
2.028350e-01
1.389780e-01
3.442570e-01
-1.387920e-01
4.390280e-02
-1.542460e-01
-2.599740e-01
2.028350e-01
1.860730e-01
-3.726760e-01
-1.387920e-01
3.435090e-01
1.775160e-01
2.550810e-01
2.028350e-01
-1.038270e-01
4.657870e-02
-1.387920e-01
4.390280e-02
1.775160e-01
-1.090860e-02
2.028350e-01
1.860730e-01
4.657870e-02
1.644630e-01
3.435090e-01
1.775160e-01
-8.189150e-02
2.682380e-02
-1.038270e-01
4.657870e-02
-1.253610e-01
-3.509830e-02
1.775160e-01
-1.090860e-02
2.682380e-02
1.899490e-01
4.657870e-02
1.644630e-01
-3.509830e-02
-8.017050e-02
-8.189150e-02
2.682380e-02
-6.819510e-01
-4.612410e-01
-1.253610e-01
-3.509830e-02
3.022380e-01
1.671010e-01
2.682380e-02
1.899490e-01
-4.612410e-01
-3.781130e-01
-3.509830e-02
-8.017050e-02
1.671010e-01
1.370950e-01
0.000000e+00
0.000000e+00
8.049690e-02
6.098590e-02
0.000000e+00
0.000000e+00
-4.322260e-01
-1.545570e-01
0.000000e+00
0.000000e+00
6.098590e-02
1.521020e-01
0.000000e+00
0.000000e+00
-1.545570e-01
4.647290e-02
8.049690e-02
6.098590e-02
6.254700e-02
1.865440e-01
-4.322260e-01
-1.545570e-01
-4.053730e-01
-5.282640e-01
6.098590e-02
1.521020e-01
1.865440e-01
3.174290e-01
-1.545570e-01
4.647290e-02
-5.282640e-01
-6.157000e-01
6.254700e-02
1.865440e-01
-1.482300e-01