<?xml version="1.0"?>
<VTKFile type="UnstructuredGrid" version="0.1" byte_order="LittleEndian" compressor="vtkZLibDataCompressor">
<UnstructuredGrid>
<Piece NumberOfPoints="960" NumberOfCells="120">
<Points>
<DataArray type="Float32" NumberOfComponents="3" format="ascii">
-4.000000e+02 -6.000000e+03 -4.000000e+02
0.000000e+00 -6.000000e+03 -4.000000e+02
-3.999000e+02 -5.600130e+03 -4.004310e+02
7.572830e-02 -5.600200e+03 -4.003500e+02
-4.000000e+02 -6.000000e+03 0.000000e+00
0.000000e+00 -6.000000e+03 0.000000e+00
-4.000700e+02 -5.600000e+03 -1.200880e-02
-6.645440e-02 -5.600000e+03 -4.488310e-02
0.000000e+00 -6.000000e+03 -4.000000e+02
4.000000e+02 -6.000000e+03 -4.000000e+02
7.572830e-02 -5.600200e+03 -4.003500e+02
4.000520e+02 -5.600280e+03 -4.003070e+02
0.000000e+00 -6.000000e+03 0.000000e+00
4.000000e+02 -6.000000e+03 0.000000e+00
-6.645440e-02 -5.600000e+03 -4.488310e-02
3.999360e+02 -5.599990e+03 -1.240290e-01
-3.999000e+02 -5.600130e+03 -4.004310e+02
7.572830e-02 -5.600200e+03 -4.003500e+02
-4.000310e+02 -5.200280e+03 -4.006010e+02
-4.667800e-02 -5.200220e+03 -4.005620e+02
-4.000700e+02 -5.600000e+03 -1.200880e-02
-6.645440e-02 -5.600000e+03 -4.488310e-02
-4.000150e+02 -5.200000e+03 -3.516890e-01
-1.167710e-02 -5.199990e+03 -4.175880e-01
7.572830e-02 -5.600200e+03 -4.003500e+02
4.000520e+02 -5.600280e+03 -4.003070e+02
-4.667800e-02 -5.200220e+03 -4.005620e+02
3.999370e+02 -5.200170e+03 -4.005890e+02
-6.645440e-02 -5.600000e+03 -4.488310e-02
3.999360e+02 -5.599990e+03 -1.240290e-01
-1.167710e-02 -5.199990e+03 -4.175880e-01
3.999910e+02 -5.199970e+03 -5.129530e-01
-4.000310e+02 -5.200280e+03 -4.006010e+02
-4.667800e-02 -5.200220e+03 -4.005620e+02
-4.000270e+02 -4.800400e+03 -4.008390e+02
-3.550180e-02 -4.800260e+03 -4.007580e+02
-4.000150e+02 -5.200000e+03 -3.516890e-01
-1.167710e-02 -5.199990e+03 -4.175880e-01
-4.000620e+02 -4.799960e+03 -6.259710e-01
-6.109600e-02 -4.800010e+03 -6.673150e-01
-4.667800e-02 -5.200220e+03 -4.005620e+02
3.999370e+02 -5.200170e+03 -4.005890e+02
-3.550180e-02 -4.800260e+03 -4.007580e+02
3.999560e+02 -4.800160e+03 -4.006760e+02
-1.167710e-02 -5.199990e+03 -4.175880e-01
3.999910e+02 -5.199970e+03 -5.129530e-01
-6.109600e-02 -4.800010e+03 -6.673150e-01
3.999400e+02 -4.800060e+03 -7.070300e-01
-4.000270e+02 -4.800400e+03 -4.008390e+02
-3.550180e-02 -4.800260e+03 -4.007580e+02
-3.998970e+02 -4.400440e+03 -4.012350e+02
1.203240e-01 -4.400460e+03 -4.010020e+02
-4.000620e+02 -4.799960e+03 -6.259710e-01
-6.109600e-02 -4.800010e+03 -6.673150e-01
-4.000400e+02 -4.400050e+03 -1.247170e+00
-4.033940e-02 -4.400060e+03 -1.136190e+00
-3.550180e-02 -4.800260e+03 -4.007580e+02
3.999560e+02 -4.800160e+03 -4.006760e+02
1.203240e-01 -4.400460e+03 -4.010020e+02
4.001380e+02 -4.400480e+03 -4.007710e+02
-6.109600e-02 -4.800010e+03 -6.673150e-01
3.999400e+02 -4.800060e+03 -7.070300e-01
-4.033940e-02 -4.400060e+03 -1.136190e+00
3.999600e+02 -4.400070e+03 -1.005860e+00
-3.998970e+02 -4.400440e+03 -4.012350e+02
1.203240e-01 -4.400460e+03 -4.010020e+02
-3.997760e+02 -4.000500e+03 -4.020630e+02
2.310210e-01 -4.000610e+03 -4.018250e+02
-4.000400e+02 -4.400050e+03 -1.247170e+00
-4.033940e-02 -4.400060e+03 -1.136190e+00
-4.000380e+02 -4.000060e+03 -2.014030e+00
-3.510400e-02 -4.000030e+03 -1.754300e+00
1.203240e-01 -4.400460e+03 -4.010020e+02
4.001380e+02 -4.400480e+03 -4.007710e+02
2.310210e-01 -4.000610e+03 -4.018250e+02
4.002370e+02 -4.000700e+03 -4.015630e+02
-4.033940e-02 -4.400060e+03 -1.136190e+00
3.999600e+02 -4.400070e+03 -1.005860e+00
-3.510400e-02 -4.000030e+03 -1.754300e+00
3.999680e+02 -3.999990e+03 -1.468360e+00
-3.997760e+02 -4.000500e+03 -4.020630e+02
2.310210e-01 -4.000610e+03 -4.018250e+02
-3.999220e+02 -3.600720e+03 -4.024630e+02
7.280870e-02 -3.600790e+03 -4.023520e+02
-4.000380e+02 -4.000060e+03 -2.014030e+00
-3.510400e-02 -4.000030e+03 -1.754300e+00
-3.999800e+02 -3.599960e+03 -2.229460e+00
2.000410e-02 -3.599950e+03 -2.211700e+00
2.310210e-01 -4.000610e+03 -4.018250e+02
4.002370e+02 -4.000700e+03 -4.015630e+02
7.280870e-02 -3.600790e+03 -4.023520e+02
4.000670e+02 -3.600850e+03 -4.022620e+02
-3.510400e-02 -4.000030e+03 -1.754300e+00
3.999680e+02 -3.999990e+03 -1.468360e+00
2.000410e-02 -3.599950e+03 -2.211700e+00
4.000190e+02 -3.599930e+03 -2.206930e+00
-3.999220e+02 -3.600720e+03 -4.024630e+02
7.280870e-02 -3.600790e+03 -4.023520e+02
-3.999710e+02 -3.201170e+03 -4.029920e+02
1.003050e-02 -3.201010e+03 -4.032960e+02
-3.999800e+02 -3.599960e+03 -2.229460e+00
2.000410e-02 -3.599950e+03 -2.211700e+00
-3.999370e+02 -3.199910e+03 -2.960700e+00
6.098720e-02 -3.199900e+03 -2.983290e+00
7.280870e-02 -3.600790e+03 -4.023520e+02
4.000670e+02 -3.600850e+03 -4.022620e+02
1.003050e-02 -3.201010e+03 -4.032960e+02
3.999910e+02 -3.200810e+03 -4.036420e+02
2.000410e-02 -3.599950e+03 -2.211700e+00
4.000190e+02 -3.599930e+03 -2.206930e+00
6.098720e-02 -3.199900e+03 -2.983290e+00
4.000580e+02 -3.199920e+03 -3.033740e+00
-3.999710e+02 -3.201170e+03 -4.029920e+02
1.003050e-02 -3.201010e+03 -4.032960e+02
-4.001180e+02 -2.801000e+03 -4.039260e+02
-1.283260e-01 -2.800840e+03 -4.039100e+02
-3.999370e+02 -3.199910e+03 -2.960700e+00
6.098720e-02 -3.199900e+03 -2.983290e+00
-4.000080e+02 -2.800020e+03 -3.435180e+00
-3.817850e-03 -2.800000e+03 -3.638980e+00
1.003050e-02 -3.201010e+03 -4.032960e+02
3.999910e+02 -3.200810e+03 -4.036420e+02
-1.283260e-01 -2.800840e+03 -4.039100e+02
3.998600e+02 -2.800710e+03 -4.039090e+02
6.098720e-02 -3.199900e+03 -2.983290e+00
4.000580e+02 -3.199920e+03 -3.033740e+00
-3.817850e-03 -2.800000e+03 -3.638980e+00
4.000000e+02 -2.799980e+03 -3.852160e+00
-4.001180e+02 -2.801000e+03 -4.039260e+02
-1.283260e-01 -2.800840e+03 -4.039100e+02
-3.999690e+02 -2.400790e+03 -4.044970e+02
4.758230e-02 -2.400710e+03 -4.046110e+02
-4.000080e+02 -2.800020e+03 -3.435180e+00
-3.817850e-03 -2.800000e+03 -3.638980e+00
-4.000230e+02 -2.400080e+03 -4.591120e+00
-3.293930e-02 -2.400050e+03 -4.594210e+00
-1.283260e-01 -2.800840e+03 -4.039100e+02
3.998600e+02 -2.800710e+03 -4.039090e+02
4.758230e-02 -2.400710e+03 -4.046110e+02
4.000640e+02 -2.400650e+03 -4.047020e+02
-3.817850e-03 -2.800000e+03 -3.638980e+00
4.000000e+02 -2.799980e+03 -3.852160e+00
-3.293930e-02 -2.400050e+03 -4.594210e+00
3.999560e+02 -2.400020e+03 -4.575220e+00
-3.999690e+02 -2.400790e+03 -4.044970e+02
4.758230e-02 -2.400710e+03 -4.046110e+02
-4.000690e+02 -2.000730e+03 -4.054110e+02
-3.893840e-02 -2.000680e+03 -4.057620e+02
-4.000230e+02 -2.400080e+03 -4.591120e+00
-3.293930e-02 -2.400050e+03 -4.594210e+00
-3.999690e+02 -2.000110e+03 -5.623400e+00
1.811480e-02 -2.000080e+03 -5.576570e+00
4.758230e-02 -2.400710e+03 -4.046110e+02
4.000640e+02 -2.400650e+03 -4.047020e+02
-3.893840e-02 -2.000680e+03 -4.057620e+02
3.999930e+02 -2.000630e+03 -4.060290e+02
-3.293930e-02 -2.400050e+03 -4.594210e+00
3.999560e+02 -2.400020e+03 -4.575220e+00
1.811480e-02 -2.000080e+03 -5.576570e+00
4.000050e+02 -2.000050e+03 -5.488250e+00
-4.000690e+02 -2.000730e+03 -4.054110e+02
-3.893840e-02 -2.000680e+03 -4.057620e+02
-4.000320e+02 -1.600680e+03 -4.065240e+02
4.108400e-04 -1.600710e+03 -4.065090e+02
-3.999690e+02 -2.000110e+03 -5.623400e+00
1.811480e-02 -2.000080e+03 -5.576570e+00
-4.000070e+02 -1.600100e+03 -6.615870e+00
-2.126360e-02 -1.600100e+03 -6.619790e+00
-3.893840e-02 -2.000680e+03 -4.057620e+02
3.999930e+02 -2.000630e+03 -4.060290e+02
4.108400e-04 -1.600710e+03 -4.065090e+02
4.000330e+02 -1.600760e+03 -4.064030e+02
1.811480e-02 -2.000080e+03 -5.576570e+00
4.000050e+02 -2.000050e+03 -5.488250e+00
-2.126360e-02 -1.600100e+03 -6.619790e+00
3.999650e+02 -1.600080e+03 -6.605650e+00
-4.000320e+02 -1.600680e+03 -4.065240e+02
4.108400e-04 -1.600710e+03 -4.065090e+02
-3.998900e+02 -1.200770e+03 -4.072020e+02
1.085980e-01 -1.200790e+03 -4.071460e+02
-4.000070e+02 -1.600100e+03 -6.615870e+00
-2.126360e-02 -1.600100e+03 -6.619790e+00
-3.999560e+02 -1.199930e+03 -7.398720e+00
4.488400e-02 -1.199990e+03 -7.293140e+00
4.108400e-04 -1.600710e+03 -4.065090e+02
4.000330e+02 -1.600760e+03 -4.064030e+02
1.085980e-01 -1.200790e+03 -4.071460e+02
4.001070e+02 -1.200820e+03 -4.070680e+02
-2.126360e-02 -1.600100e+03 -6.619790e+00
3.999650e+02 -1.600080e+03 -6.605650e+00
4.488400e-02 -1.199990e+03 -7.293140e+00
4.000460e+02 -1.200040e+03 -7.185700e+00
-3.998900e+02 -1.200770e+03 -4.072020e+02
1.085980e-01 -1.200790e+03 -4.071460e+02
-3.999430e+02 -8.008230e+02 -4.079570e+02
3.921120e-02 -8.007810e+02 -4.079130e+02
-3.999560e+02 -1.199930e+03 -7.398720e+00
4.488400e-02 -1.199990e+03 -7.293140e+00
-3.999380e+02 -7.998570e+02 -7.796500e+00
6.461440e-02 -7.998680e+02 -7.813920e+00
1.085980e-01 -1.200790e+03 -4.071460e+02
4.001070e+02 -1.200820e+03 -4.070680e+02
3.921120e-02 -8.007810e+02 -4.079130e+02
4.000220e+02 -8.007440e+02 -4.079030e+02
4.488400e-02 -1.199990e+03 -7.293140e+00
4.000460e+02 -1.200040e+03 -7.185700e+00
6.461440e-02 -7.998680e+02 -7.813920e+00
4.000670e+02 -7.998800e+02 -7.850500e+00
-3.999430e+02 -8.008230e+02 -4.079570e+02
3.921120e-02 -8.007810e+02 -4.079130e+02
-4.000020e+02 -4.007130e+02 -4.087290e+02
-1.274590e-02 -4.006470e+02 -4.087930e+02
-3.999380e+02 -7.998570e+02 -7.796500e+00
6.461440e-02 -7.998680e+02 -7.813920e+00
-4.000740e+02 -3.999320e+02 -8.367390e+00
-7.147890e-02 -3.999340e+02 -8.348000e+00
3.921120e-02 -8.007810e+02 -4.079130e+02
4.000220e+02 -8.007440e+02 -4.079030e+02
-1.274590e-02 -4.006470e+02 -4.087930e+02
3.999760e+02 -4.005970e+02 -4.088630e+02
6.461440e-02 -7.998680e+02 -7.813920e+00
4.000670e+02 -7.998800e+02 -7.850500e+00
-7.147890e-02 -3.999340e+02 -8.348000e+00
3.999310e+02 -3.999460e+02 -8.355000e+00
-4.000020e+02 -4.007130e+02 -4.087290e+02
-1.274590e-02 -4.006470e+02 -4.087930e+02
-3.999980e+02 -6.600010e-01 -4.091970e+02
6.345750e-03 -6.524300e-01 -4.091910e+02
-4.000740e+02 -3.999320e+02 -8.367390e+00
-7.147890e-02 -3.999340e+02 -8.348000e+00
-3.999270e+02 -8.736270e-02 -9.136670e+00
8.122920e-02 -1.015570e-01 -9.059300e+00
-1.274590e-02 -4.006470e+02 -4.087930e+02
3.999760e+02 -4.005970e+02 -4.088630e+02
[...]
<PointData>
<DataArray type="Float32" Name="V1" format="ascii">
0.000000e+00
0.000000e+00
6.517090e-02
2.070140e-02
0.000000e+00
0.000000e+00
-3.215780e-02
-1.807530e-02
0.000000e+00
0.000000e+00
2.070140e-02
-2.327200e-02
0.000000e+00
0.000000e+00
-1.807530e-02
-2.904560e-03
6.517090e-02
2.070140e-02
2.418300e-02
6.604070e-03
-3.215780e-02
-1.807530e-02
4.693990e-02
4.287350e-02
2.070140e-02
-2.327200e-02
6.604070e-03
-9.097440e-03
-1.807530e-02
-2.904560e-03
4.287350e-02
3.798740e-02
2.418300e-02
6.604070e-03
2.514460e-02
3.319800e-02
4.693990e-02
4.287350e-02
-7.869860e-03
-1.386150e-02
6.604070e-03
-9.097440e-03
3.319800e-02
4.033390e-02
4.287350e-02
3.798740e-02
-1.386150e-02
-1.965390e-02
2.514460e-02
3.319800e-02
1.547250e-01
1.641580e-01
-7.869860e-03
-1.386150e-02
-1.147820e-01
-1.051450e-01
3.319800e-02
4.033390e-02
1.641580e-01
1.743600e-01
-1.386150e-02
-1.965390e-02
-1.051450e-01
-9.862790e-02
1.547250e-01
1.641580e-01
2.593220e-02
2.290850e-02
-1.147820e-01
-1.051450e-01
-1.626990e-01
-1.665940e-01
1.641580e-01
1.743600e-01
2.290850e-02
1.979000e-02
-1.051450e-01
-9.862790e-02
-1.665940e-01
-1.703800e-01
2.593220e-02
2.290850e-02
1.111120e-01
1.055910e-01
-1.626990e-01
-1.665940e-01
-1.010350e-01
-9.716670e-02
2.290850e-02
1.979000e-02
1.055910e-01
1.007460e-01
-1.665940e-01
-1.703800e-01
-9.716670e-02
-9.279320e-02
1.111120e-01
1.055910e-01
-3.170340e-02
-5.809380e-02
-1.010350e-01
-9.716670e-02
1.366380e-02
8.016600e-03
1.055910e-01
1.007460e-01
-5.809380e-02
-8.407410e-02
-9.716670e-02
-9.279320e-02
8.016600e-03
3.165050e-03
-3.170340e-02
-5.809380e-02
6.956510e-02
5.902280e-02
1.366380e-02
8.016600e-03
6.687280e-02
6.831480e-02
-5.809380e-02
-8.407410e-02
5.902280e-02
4.929990e-02
8.016600e-03
3.165050e-03
6.831480e-02
6.998890e-02
6.956510e-02
5.902280e-02
-1.789580e-02
-2.691710e-02
6.687280e-02
6.831480e-02
1.344480e-02
2.348220e-02
5.902280e-02
4.929990e-02
-2.691710e-02
-3.471380e-02
6.831480e-02
6.998890e-02
2.348220e-02
3.298830e-02
-1.789580e-02
-2.691710e-02
-1.121020e-01
-1.180060e-01
1.344480e-02
2.348220e-02
5.440160e-03
3.254300e-02
-2.691710e-02
-3.471380e-02
-1.180060e-01
-1.248270e-01
2.348220e-02
3.298830e-02
3.254300e-02
5.894330e-02
-1.121020e-01
-1.180060e-01
-7.987570e-02
-7.916480e-02
5.440160e-03
3.254300e-02
6.654530e-02
8.352820e-02
-1.180060e-01
-1.248270e-01
-7.916480e-02
-7.792370e-02
3.254300e-02
5.894330e-02
8.352820e-02
1.002440e-01
-7.987570e-02
-7.916480e-02
2.011360e-02
-6.452290e-03
6.654530e-02
8.352820e-02
-5.234310e-02
-3.819810e-02
-7.916480e-02
-7.792370e-02
-6.452290e-03
-3.084650e-02
8.352820e-02
1.002440e-01
-3.819810e-02
-2.401650e-02
2.011360e-02
-6.452290e-03
1.813840e-01
1.713780e-01
-5.234310e-02
-3.819810e-02
-8.395620e-02
-9.499340e-02
-6.452290e-03
-3.084650e-02
1.713780e-01
1.629300e-01
-3.819810e-02
-2.401650e-02
-9.499340e-02
-1.049730e-01
1.813840e-01
1.713780e-01
-1.519530e-02
-2.777450e-03
-8.395620e-02
-9.499340e-02
-8.162420e-02
-9.610100e-02
1.713780e-01
1.629300e-01
-2.777450e-03
9.839070e-03
-9.499340e-02
-1.049730e-01
-9.610100e-02
-1.104960e-01
-1.519530e-02
-2.777450e-03
1.150830e-01
1.216190e-01
-8.162420e-02
-9.610100e-02
-9.719750e-03
-9.422920e-03
-2.777450e-03
9.839070e-03
1.216190e-01
1.278200e-01
-9.610100e-02
-1.104960e-01
-9.422920e-03
-9.527440e-03
1.150830e-01
1.216190e-01
-1.210380e-01
-8.726980e-02
-9.719750e-03
-9.422920e-03
3.611190e-02
3.198220e-02
1.216190e-01
1.278200e-01
-8.726980e-02
-5.515680e-02
-9.422920e-03
-9.527440e-03
3.198220e-02
2.906580e-02
-1.210380e-01
-8.726980e-02
-4.508540e-02
-4.493460e-02
3.611190e-02
3.198220e-02
5.065870e-02
5.210810e-02
-8.726980e-02
-5.515680e-02
-4.493460e-02
-4.292610e-02
3.198220e-02
2.906580e-02
5.210810e-02
5.096770e-02
-4.508540e-02
-4.493460e-02
-4.584140e-02
-4.771930e-02
5.065870e-02
5.210810e-02
1.088410e-01
1.059670e-01
-4.493460e-02
-4.292610e-02
-4.771930e-02
-5.024980e-02
5.210810e-02
5.096770e-02
1.059670e-01
1.040870e-01
-4.584140e-02
-4.771930e-02
-5.510640e-02
-6.243720e-02
1.088410e-01
1.059670e-01
1.195890e-02
5.352730e-03
-4.771930e-02
-5.024980e-02
-6.243720e-02
-6.961480e-02
1.059670e-01
1.040870e-01
5.352730e-03
3.628960e-04
-5.510640e-02
-6.243720e-02
-2.513860e-01
-2.500450e-01
1.195890e-02
5.352730e-03
1.018870e-01
9.227780e-02
-6.243720e-02
-6.961480e-02
-2.500450e-01
-2.464960e-01
5.352730e-03
3.628960e-04
9.227780e-02
8.265580e-02
-2.513860e-01
-2.500450e-01
-3.081410e-02
-3.682770e-03
1.018870e-01
9.227780e-02
4.017570e-02
3.889860e-02
-2.500450e-01
-2.464960e-01
-3.682770e-03
2.187340e-02
9.227780e-02
8.265580e-02
3.889860e-02
3.780860e-02
-3.081410e-02
-3.682770e-03
-8.113450e-02
-7.064020e-02
4.017570e-02
3.889860e-02
2.670120e-02
2.456210e-02
-3.682770e-03
2.187340e-02
-7.064020e-02
-6.324470e-02
3.889860e-02
3.780860e-02
2.456210e-02
2.266450e-02
-8.113450e-02
-7.064020e-02
9.390810e-03
2.560670e-02
2.670120e-02
2.456210e-02
3.738870e-02
2.522070e-02
-7.064020e-02
-6.324470e-02
2.560670e-02
4.389350e-02
2.456210e-02
2.266450e-02
2.522070e-02
1.218360e-02
9.390810e-03
2.560670e-02
6.359830e-02
3.396900e-02
3.738870e-02
2.522070e-02
7.757240e-03
1.030440e-02
2.560670e-02
4.389350e-02
3.396900e-02
4.105630e-03
2.522070e-02
1.218360e-02
1.030440e-02
1.473710e-02
6.359830e-02
3.396900e-02
4.505090e-02
2.269830e-02
7.757240e-03
1.030440e-02
-8.811850e-02
-7.823760e-02
3.396900e-02
4.105630e-03
2.269830e-02
6.564480e-04
1.030440e-02
1.473710e-02
-7.823760e-02
-6.939850e-02
4.505090e-02
2.269830e-02
-2.211340e-02
-6.975530e-03
-8.811850e-02
-7.823760e-02
4.893340e-03
2.292850e-05
2.269830e-02
6.564480e-04
-6.975530e-03
8.676030e-03
-7.823760e-02
-6.939850e-02
2.292850e-05
-5.101630e-03
-2.211340e-02
-6.975530e-03
-9.179470e-02
-8.052130e-02
4.893340e-03
2.292850e-05
6.563440e-03
3.372740e-03
-6.975530e-03
8.676030e-03
-8.052130e-02
-7.140790e-02
2.292850e-05
-5.101630e-03
3.372740e-03
1.534510e-03
-9.179470e-02
-8.052130e-02
1.589350e-01
1.623100e-01
6.563440e-03
3.372740e-03
-8.453350e-02
-7.856570e-02
-8.052130e-02
-7.140790e-02
1.623100e-01
1.664330e-01
3.372740e-03
1.534510e-03
-7.856570e-02
-7.321120e-02
1.589350e-01
1.623100e-01
4.534150e-02
5.343590e-02
-8.453350e-02
-7.856570e-02
-1.218440e-01
-1.218760e-01
1.623100e-01
1.664330e-01
5.343590e-02
6.076010e-02
-7.856570e-02
-7.321120e-02
-1.218760e-01
-1.213730e-01
4.534150e-02
5.343590e-02
1.664970e-01
1.290490e-01
-1.218440e-01
-1.218760e-01
-5.425220e-02
-4.585040e-02
5.343590e-02
6.076010e-02
1.290490e-01
9.364670e-02
-1.218760e-01
-1.213730e-01
-4.585040e-02
-3.778390e-02
0.000000e+00
0.000000e+00
-3.215780e-02
-1.807530e-02
0.000000e+00
0.000000e+00
-4.027040e-03
1.749040e-02
0.000000e+00
0.000000e+00
-1.807530e-02
-2.904560e-03
0.000000e+00
0.000000e+00
1.749040e-02
3.911290e-02
-3.215780e-02
-1.807530e-02
4.693990e-02
4.287350e-02
-4.027040e-03
1.749040e-02
-1.238720e-01
-1.007340e-01
-1.807530e-02
-2.904560e-03
4.287350e-02
3.798740e-02
1.749040e-02
3.911290e-02
-1.007340e-01
-7.620960e-02
4.693990e-02
4.287350e-02
-7.869860e-03
-1.386150e-02
-1.238720e-01
-1.007340e-01
7.256080e-03
4.682680e-03
4.287350e-02
3.798740e-02
-1.386150e-02
-1.965390e-02
-1.007340e-01
-7.620960e-02
4.682680e-03
1.221880e-03
-7.869860e-03
-1.386150e-02
-1.147820e-01
-1.051450e-01
7.256080e-03
4.682680e-03
5.585660e-02
3.937640e-02
-1.386150e-02
-1.965390e-02
-1.051450e-01
-9.862790e-02
4.682680e-03
1.221880e-03
3.937640e-02
2.355020e-02
-1.147820e-01
-1.051450e-01
-1.626990e-01
-1.665940e-01
5.585660e-02
3.937640e-02
3.093570e-01
3.121090e-01
-1.051450e-01
-9.862790e-02
-1.665940e-01
-1.703800e-01
3.937640e-02
2.355020e-02
3.121090e-01
3.169440e-01
-1.626990e-01
-1.665940e-01
-1.010350e-01
-9.716670e-02
3.093570e-01
3.121090e-01
8.680170e-02
8.629380e-02
-1.665940e-01
-1.703800e-01
-9.716670e-02
-9.279320e-02
3.121090e-01
3.169440e-01
8.629380e-02
8.427930e-02
-1.010350e-01
-9.716670e-02
1.366380e-02
8.016600e-03
8.680170e-02
8.629380e-02
1.437990e-02
4.608510e-02
-9.716670e-02
-9.279320e-02
8.016600e-03
3.165050e-03
8.629380e-02
8.427930e-02
4.608510e-02
7.928920e-02
1.366380e-02
8.016600e-03
6.687280e-02
6.831480e-02
1.437990e-02
4.608510e-02
-2.012980e-01
-1.950760e-01
8.016600e-03
3.165050e-03
6.831480e-02
6.998890e-02
4.608510e-02
7.928920e-02
-1.950760e-01
-1.874350e-01
6.687280e-02
6.831480e-02
1.344480e-02
2.348220e-02
-2.012980e-01
-1.950760e-01
-4.614490e-03
-2.111190e-02
6.831480e-02
6.998890e-02
2.348220e-02
3.298830e-02
-1.950760e-01
-1.874350e-01
-2.111190e-02
-3.683100e-02
1.344480e-02
2.348220e-02
5.440160e-03
3.254300e-02
-4.614490e-03
-2.111190e-02
9.555250e-02
5.046040e-02
2.348220e-02
3.298830e-02
3.254300e-02
5.894330e-02
-2.111190e-02
-3.683100e-02
5.046040e-02
5.939060e-03
5.440160e-03
3.254300e-02
6.654530e-02
8.352820e-02
9.555250e-02
5.046040e-02
-5.389540e-02
-8.960730e-02
3.254300e-02
5.894330e-02
8.352820e-02
1.002440e-01
5.046040e-02
5.939060e-03
-8.960730e-02
-1.261340e-01
6.654530e-02
8.352820e-02
-5.234310e-02
-3.819810e-02
-5.389540e-02
-8.960730e-02
8.641110e-02
8.385920e-02
8.352820e-02
1.002440e-01
-3.819810e-02
-2.401650e-02
-8.960730e-02
-1.261340e-01
8.385920e-02
8.249210e-02
-5.234310e-02
-3.819810e-02
-8.395620e-02
-9.499340e-02
8.641110e-02
8.385920e-02
-1.488040e-02
1.505590e-02
-3.819810e-02
-2.401650e-02
-9.499340e-02
-1.049730e-01
8.385920e-02
8.249210e-02
1.505590e-02
4.564810e-02
-8.395620e-02
-9.499340e-02
-8.162420e-02
-9.610100e-02
-1.488040e-02
1.505590e-02
1.872830e-01
2.046760e-01
-9.499340e-02
-1.049730e-01
-9.610100e-02
-1.104960e-01
1.505590e-02
4.564810e-02
2.046760e-01
2.233600e-01
-8.162420e-02
-9.610100e-02
-9.719750e-03
-9.422920e-03
1.872830e-01
2.046760e-01
-9.607550e-02
-1.079850e-01
-9.610100e-02
-1.104960e-01
-9.422920e-03
-9.527440e-03
2.046760e-01
2.233600e-01
-1.079850e-01
-1.184270e-01
-9.719750e-03
-9.422920e-03
3.611190e-02
3.198220e-02
-9.607550e-02
-1.079850e-01
3.744840e-02
1.482480e-02
-9.422920e-03
-9.527440e-03
3.198220e-02
2.906580e-02
-1.079850e-01
-1.184270e-01
1.482480e-02
-1.056100e-02
3.611190e-02
3.198220e-02
5.065870e-02
5.210810e-02
3.744840e-02
1.482480e-02
-4.009460e-02
-4.097590e-02
3.198220e-02
2.906580e-02
5.210810e-02
5.096770e-02
1.482480e-02
-1.056100e-02
-4.097590e-02
-4.182910e-02
5.065870e-02
5.210810e-02
1.088410e-01
1.059670e-01
-4.009460e-02
-4.097590e-02
-1.827870e-01
-1.787710e-01
5.210810e-02
5.096770e-02
1.059670e-01
1.040870e-01
-4.097590e-02
-4.182910e-02
-1.787710e-01
-1.739160e-01
1.088410e-01
1.059670e-01
1.195890e-02
5.352730e-03
-1.827870e-01
-1.787710e-01
3.530480e-02
5.424930e-02
1.059670e-01
1.040870e-01
5.352730e-03
3.628960e-04
-1.787710e-01
-1.739160e-01
5.424930e-02
7.483730e-02
1.195890e-02
5.352730e-03
1.018870e-01
9.227780e-02
3.530480e-02
5.424930e-02
4.739670e-02
7.206920e-02
5.352730e-03
3.628960e-04
9.227780e-02
8.265580e-02
5.424930e-02
7.483730e-02
7.206920e-02
9.718820e-02
1.018870e-01
9.227780e-02
4.017570e-02
3.889860e-02
4.739670e-02
7.206920e-02
-6.015690e-02
-8.958850e-02
9.227780e-02
8.265580e-02
3.889860e-02
3.780860e-02
7.206920e-02
9.718820e-02
-8.958850e-02
-1.203740e-01
4.017570e-02
3.889860e-02
2.670120e-02
2.456210e-02
-6.015690e-02
-8.958850e-02
3.499870e-02
3.209990e-02
3.889860e-02
3.780860e-02
2.456210e-02
2.266450e-02
-8.958850e-02
-1.203740e-01
3.209990e-02
2.795790e-02
2.670120e-02
2.456210e-02
3.738870e-02
2.522070e-02
3.499870e-02
3.209990e-02
-8.590290e-02
-7.300350e-02
2.456210e-02
2.266450e-02
2.522070e-02
1.218360e-02
3.209990e-02
2.795790e-02
-7.300350e-02
-6.169350e-02
3.738870e-02
2.522070e-02
7.757240e-03
1.030440e-02
-8.590290e-02
-7.300350e-02
-7.765290e-02
-5.693830e-02
2.522070e-02
1.218360e-02
1.030440e-02
1.473710e-02
-7.300350e-02
-6.169350e-02
-5.693830e-02
-3.754180e-02
7.757240e-03
1.030440e-02
-8.811850e-02
-7.823760e-02
-7.765290e-02
-5.693830e-02
1.295990e-01
1.363400e-01
1.030440e-02
1.473710e-02
-7.823760e-02
-6.939850e-02
-5.693830e-02
-3.754180e-02
1.363400e-01
1.453450e-01
-8.811850e-02
-7.823760e-02
4.893340e-03
2.292850e-05
1.295990e-01
1.363400e-01
1.390580e-02
6.427560e-03
-7.823760e-02
-6.939850e-02
2.292850e-05
-5.101630e-03
1.363400e-01
1.453450e-01
6.427560e-03
-6.219640e-04
4.893340e-03
2.292850e-05
6.563440e-03
3.372740e-03
1.390580e-02
6.427560e-03
7.470770e-02
6.840610e-02
2.292850e-05
-5.101630e-03
3.372740e-03
1.534510e-03
6.427560e-03
-6.219640e-04
6.840610e-02
5.939730e-02
6.563440e-03
3.372740e-03
-8.453350e-02
-7.856570e-02
7.470770e-02
6.840610e-02
1.471280e-02
-2.967080e-03
3.372740e-03
1.534510e-03
-7.856570e-02
-7.321120e-02
6.840610e-02
5.939730e-02
-2.967080e-03
-2.103150e-02
-8.453350e-02
-7.856570e-02
-1.218440e-01
-1.218760e-01
1.471280e-02
-2.967080e-03
1.951580e-01
1.896440e-01
-7.856570e-02
-7.321120e-02
-1.218760e-01
-1.213730e-01
-2.967080e-03
-2.103150e-02
1.896440e-01
1.829610e-01
-1.218440e-01
-1.218760e-01
-5.425220e-02
-4.585040e-02
1.951580e-01
1.896440e-01
-5.203560e-02
-3.538640e-02
-1.218760e-01
-1.213730e-01
-4.585040e-02
-3.778390e-02
1.896440e-01
1.829610e-01
-3.538640e-02
-1.640410e-02
</DataArray>
<DataArray type="Float32" Name="V2" format="ascii">
0.000000e+00
0.000000e+00
-1.049590e-01
-1.156250e-01
0.000000e+00
0.000000e+00
4.305770e-02
3.935890e-02
0.000000e+00
0.000000e+00
-1.156250e-01
-1.167720e-01
0.000000e+00
0.000000e+00
3.935890e-02
3.822480e-02
-1.049590e-01
-1.156250e-01
-6.349080e-02
-2.489150e-02
4.305770e-02
3.935890e-02
-1.469080e-02
-1.214920e-02
-1.156250e-01
-1.167720e-01
-2.489150e-02
-1.019720e-02
3.935890e-02
3.822480e-02
-1.214920e-02
-2.269100e-02
-6.349080e-02
-2.489150e-02
1.729400e-01
1.066540e-01
-1.469080e-02
-1.214920e-02
-1.204050e-02
-6.373150e-02
-2.489150e-02
-1.019720e-02
1.066540e-01
6.042740e-02
-1.214920e-02
-2.269100e-02
-6.373150e-02
-1.187130e-01
1.729400e-01
1.066540e-01
2.672530e-01
2.382800e-01
-1.204050e-02
-6.373150e-02
-1.639490e-01
-9.270110e-02
1.066540e-01
6.042740e-02
2.382800e-01
1.925220e-01
-6.373150e-02
-1.187130e-01
-9.270110e-02
-2.878840e-02
2.672530e-01
2.382800e-01
-2.461490e-02
2.349910e-02
-1.639490e-01
-9.270110e-02
1.481990e-01
1.250150e-01
2.382800e-01
1.925220e-01
2.349910e-02
5.598680e-02
-9.270110e-02
-2.878840e-02
1.250150e-01
1.148280e-01
-2.461490e-02
2.349910e-02
-1.686020e-01
-1.285660e-01
1.481990e-01
1.250150e-01
2.064750e-01
1.425290e-01
2.349910e-02
5.598680e-02
-1.285660e-01
-2.448330e-02
1.250150e-01
1.148280e-01
1.425290e-01
8.017800e-02
-1.686020e-01
-1.285660e-01
-3.605200e-02
-3.975600e-02
2.064750e-01
1.425290e-01
-1.150800e-01
-4.347180e-02
-1.285660e-01
-2.448330e-02
-3.975600e-02
-3.897570e-02
1.425290e-01
8.017800e-02
-4.347180e-02
1.099280e-02
-3.605200e-02
-3.975600e-02
-1.129340e-01
-1.896600e-01
-1.150800e-01
-4.347180e-02
-2.524510e-02
1.678300e-02
-3.975600e-02
-3.897570e-02
-1.896600e-01
-2.583580e-01
-4.347180e-02
1.099280e-02
1.678300e-02
8.625260e-02
-1.129340e-01
-1.896600e-01
-4.648150e-02
7.449300e-02
-2.524510e-02
1.678300e-02
-7.981920e-02
-9.830680e-02
-1.896600e-01
-2.583580e-01
7.449300e-02
1.976500e-01
1.678300e-02
8.625260e-02
-9.830680e-02
-1.266440e-01
-4.648150e-02
7.449300e-02
3.246340e-01
2.518340e-01
-7.981920e-02
-9.830680e-02
-3.901770e-02
-6.495280e-02
7.449300e-02
1.976500e-01
2.518340e-01
1.773950e-01
-9.830680e-02
-1.266440e-01
-6.495280e-02
-7.709030e-02
3.246340e-01
2.518340e-01
2.227680e-01
5.624480e-02
-3.901770e-02
-6.495280e-02
-2.232150e-02
6.720090e-02
2.518340e-01
1.773950e-01
5.624480e-02
-8.287170e-02
-6.495280e-02
-7.709030e-02
6.720090e-02
1.590310e-01
2.227680e-01
5.624480e-02
-1.577650e-01
-1.418180e-01
-2.232150e-02
6.720090e-02
9.233360e-02
1.788930e-02
5.624480e-02
-8.287170e-02
-1.418180e-01
-1.117690e-01
6.720090e-02
1.590310e-01
1.788930e-02
-6.850510e-02
-1.577650e-01
-1.418180e-01
-2.319790e-01
-2.485350e-01
9.233360e-02
1.788930e-02
-4.670250e-02
-4.814290e-02
-1.418180e-01
-1.117690e-01
-2.485350e-01
-2.312880e-01
1.788930e-02
-6.850510e-02
-4.814290e-02
-6.033530e-02
-2.319790e-01
-2.485350e-01
-3.344690e-02
1.316780e-02
-4.670250e-02
-4.814290e-02
-1.731520e-01
-1.132380e-01
-2.485350e-01
-2.312880e-01
1.316780e-02
5.003480e-02
-4.814290e-02
-6.033530e-02
-1.132380e-01
-6.202260e-02
-3.344690e-02
1.316780e-02
-1.590780e-02
1.542330e-02
-1.731520e-01
-1.132380e-01
-3.654890e-02
-8.819990e-02
1.316780e-02
5.003480e-02
1.542330e-02
2.857390e-02
-1.132380e-01
-6.202260e-02
-8.819990e-02
-1.336760e-01
-1.590780e-02
1.542330e-02
-2.316430e-02
9.741950e-02
-3.654890e-02
-8.819990e-02
7.664320e-02
7.659340e-02
1.542330e-02
2.857390e-02
9.741950e-02
1.371230e-01
-8.819990e-02
-1.336760e-01
7.659340e-02
1.153430e-01
-2.316430e-02
9.741950e-02
-8.949350e-02
1.043730e-02
7.664320e-02
7.659340e-02
1.926930e-01
1.964440e-01
9.741950e-02
1.371230e-01
1.043730e-02
1.153210e-01
7.659340e-02
1.153430e-01
1.964440e-01
2.004430e-01
-8.949350e-02
1.043730e-02
-2.400930e-01
-1.458430e-01
1.926930e-01
1.964440e-01
-3.380080e-02
6.509260e-04
1.043730e-02
1.153210e-01
-1.458430e-01
-7.352500e-02
1.964440e-01
2.004430e-01
6.509260e-04
6.380930e-02
-2.400930e-01
-1.458430e-01
1.798210e-02
6.580460e-02
-3.380080e-02
6.509260e-04
-2.314600e-01
-2.067390e-01
-1.458430e-01
-7.352500e-02
6.580460e-02
1.604530e-01
6.509260e-04
6.380930e-02
-2.067390e-01
-2.028850e-01
1.798210e-02
6.580460e-02
1.220910e-01
1.668790e-01
-2.314600e-01
-2.067390e-01
-5.713510e-03
-7.271150e-03
6.580460e-02
1.604530e-01
1.668790e-01
2.601030e-01
-2.067390e-01
-2.028850e-01
-7.271150e-03
-6.146510e-02
1.220910e-01
1.668790e-01
1.096450e-01
1.190980e-01
-5.713510e-03
-7.271150e-03
6.478460e-02
5.508850e-02
1.668790e-01
2.601030e-01
1.190980e-01
1.036300e-01
-7.271150e-03
-6.146510e-02
5.508850e-02
5.752890e-02
1.096450e-01
1.190980e-01
-1.306810e-01
-1.270910e-02
6.478460e-02
5.508850e-02
8.108500e-02
-2.636210e-03
1.190980e-01
1.036300e-01
-1.270910e-02
5.548850e-02
5.508850e-02
5.752890e-02
-2.636210e-03
-1.250550e-02
-1.306810e-01
-1.270910e-02
-4.090970e-01
-3.415270e-01
8.108500e-02
-2.636210e-03
1.296330e-01
9.925200e-02
-1.270910e-02
5.548850e-02
-3.415270e-01
-2.817680e-01
-2.636210e-03
-1.250550e-02
9.925200e-02
7.362100e-02
-4.090970e-01
-3.415270e-01
-1.582300e-01
-1.788540e-01
1.296330e-01
9.925200e-02
-5.885890e-02
-9.534750e-02
-3.415270e-01
-2.817680e-01
-1.788540e-01
-2.112790e-01
9.925200e-02
7.362100e-02
-9.534750e-02
-8.982260e-02
-1.582300e-01
-1.788540e-01
-2.117370e-02
-7.868900e-02
-5.885890e-02
-9.534750e-02
-3.729180e-02
-6.921790e-02
-1.788540e-01
-2.112790e-01
-7.868900e-02
-1.348130e-01
-9.534750e-02
-8.982260e-02
-6.921790e-02
-8.922470e-02
-2.117370e-02
-7.868900e-02
-1.430410e-01
-1.351850e-01
-3.729180e-02
-6.921790e-02
1.455810e-01
8.301370e-02
-7.868900e-02
-1.348130e-01
-1.351850e-01
-1.221730e-01
-6.921790e-02
-8.922470e-02
8.301370e-02
-3.376270e-03
-1.430410e-01
-1.351850e-01
1.187710e-03
3.501940e-02
1.455810e-01
8.301370e-02
1.204920e-01
6.904390e-02
-1.351850e-01
-1.221730e-01
3.501940e-02
1.128210e-01
8.301370e-02
-3.376270e-03
6.904390e-02
-3.852940e-02
1.187710e-03
3.501940e-02
3.885060e-02
-9.059440e-02
1.204920e-01
6.904390e-02
-1.656030e-02
5.831780e-02
3.501940e-02
1.128210e-01
-9.059440e-02
-2.473010e-01
6.904390e-02
-3.852940e-02
5.831780e-02
1.678970e-01
3.885060e-02
-9.059440e-02
4.995320e-02
-5.654570e-02
-1.656030e-02
5.831780e-02
-1.325720e-01
-5.515060e-02
-9.059440e-02
-2.473010e-01
-5.654570e-02
-1.612010e-01
5.831780e-02
1.678970e-01
-5.515060e-02
3.552150e-02
4.995320e-02
-5.654570e-02
-1.024650e-03
5.122650e-02
-1.325720e-01
-5.515060e-02
-3.963050e-02
-1.343060e-01
-5.654570e-02
-1.612010e-01
5.122650e-02
1.595120e-01
-5.515060e-02
3.552150e-02
-1.343060e-01
-2.238340e-01
0.000000e+00
0.000000e+00
4.305770e-02
3.935890e-02
0.000000e+00
0.000000e+00
5.075270e-02
5.757200e-02
0.000000e+00
0.000000e+00
3.935890e-02
3.822480e-02
0.000000e+00
0.000000e+00
5.757200e-02
3.770260e-02
4.305770e-02
3.935890e-02
-1.469080e-02
-1.214920e-02
5.075270e-02
5.757200e-02
4.363270e-02
5.616590e-02
3.935890e-02
3.822480e-02
-1.214920e-02
-2.269100e-02
5.757200e-02
3.770260e-02
5.616590e-02
1.083290e-01
-1.469080e-02
-1.214920e-02
-1.204050e-02