<?xml version="1.0"?>
<VTKFile type="UnstructuredGrid" version="0.1" byte_order="LittleEndian" compressor="vtkZLibDataCompressor">
<UnstructuredGrid>
<Piece NumberOfPoints="960" NumberOfCells="120">
<Points>
<DataArray type="Float32" NumberOfComponents="3" format="ascii">
-4.000000e+02 -6.000000e+03 -4.000000e+02
0.000000e+00 -6.000000e+03 -4.000000e+02
-4.000000e+02 -5.600050e+03 -3.999640e+02
6.417910e-06 -5.600050e+03 -3.999650e+02
-4.000000e+02 -6.000000e+03 0.000000e+00
0.000000e+00 -6.000000e+03 0.000000e+00
-3.999990e+02 -5.599990e+03 -3.248060e-02
-2.072990e-06 -5.599990e+03 -3.211160e-02
0.000000e+00 -6.000000e+03 -4.000000e+02
4.000000e+02 -6.000000e+03 -4.000000e+02
6.417910e-06 -5.600050e+03 -3.999650e+02
4.000000e+02 -5.600050e+03 -3.999640e+02
0.000000e+00 -6.000000e+03 0.000000e+00
4.000000e+02 -6.000000e+03 0.000000e+00
-2.072990e-06 -5.599990e+03 -3.211160e-02
3.999990e+02 -5.599990e+03 -3.246700e-02
-4.000000e+02 -5.600050e+03 -3.999640e+02
6.417910e-06 -5.600050e+03 -3.999650e+02
-4.000010e+02 -5.200070e+03 -4.001000e+02
3.300740e-06 -5.200070e+03 -4.001020e+02
-3.999990e+02 -5.599990e+03 -3.248060e-02
-2.072990e-06 -5.599990e+03 -3.211160e-02
-3.999990e+02 -5.199980e+03 -1.017570e-01
-1.249440e-06 -5.199980e+03 -1.018880e-01
6.417910e-06 -5.600050e+03 -3.999650e+02
4.000000e+02 -5.600050e+03 -3.999640e+02
3.300740e-06 -5.200070e+03 -4.001020e+02
4.000010e+02 -5.200070e+03 -4.001000e+02
-2.072990e-06 -5.599990e+03 -3.211160e-02
3.999990e+02 -5.599990e+03 -3.246700e-02
-1.249440e-06 -5.199980e+03 -1.018880e-01
3.999990e+02 -5.199980e+03 -1.017270e-01
-4.000010e+02 -5.200070e+03 -4.001000e+02
3.300740e-06 -5.200070e+03 -4.001020e+02
-4.000010e+02 -4.800030e+03 -4.001590e+02
-4.726080e-06 -4.800030e+03 -4.001600e+02
-3.999990e+02 -5.199980e+03 -1.017570e-01
-1.249440e-06 -5.199980e+03 -1.018880e-01
-4.000000e+02 -4.800010e+03 -1.304560e-01
-1.096890e-07 -4.800010e+03 -1.307630e-01
3.300740e-06 -5.200070e+03 -4.001020e+02
4.000010e+02 -5.200070e+03 -4.001000e+02
-4.726080e-06 -4.800030e+03 -4.001600e+02
4.000010e+02 -4.800030e+03 -4.001590e+02
-1.249440e-06 -5.199980e+03 -1.018880e-01
3.999990e+02 -5.199980e+03 -1.017270e-01
-1.096890e-07 -4.800010e+03 -1.307630e-01
4.000000e+02 -4.800010e+03 -1.304510e-01
-4.000010e+02 -4.800030e+03 -4.001590e+02
-4.726080e-06 -4.800030e+03 -4.001600e+02
-4.000000e+02 -4.400040e+03 -4.001550e+02
-4.429220e-06 -4.400040e+03 -4.001550e+02
-4.000000e+02 -4.800010e+03 -1.304560e-01
-1.096890e-07 -4.800010e+03 -1.307630e-01
-4.000000e+02 -4.400010e+03 -1.889230e-01
3.243150e-06 -4.400010e+03 -1.885520e-01
-4.726080e-06 -4.800030e+03 -4.001600e+02
4.000010e+02 -4.800030e+03 -4.001590e+02
-4.429220e-06 -4.400040e+03 -4.001550e+02
4.000000e+02 -4.400040e+03 -4.001550e+02
-1.096890e-07 -4.800010e+03 -1.307630e-01
4.000000e+02 -4.800010e+03 -1.304510e-01
3.243150e-06 -4.400010e+03 -1.885520e-01
4.000000e+02 -4.400010e+03 -1.889520e-01
-4.000000e+02 -4.400040e+03 -4.001550e+02
-4.429220e-06 -4.400040e+03 -4.001550e+02
-4.000000e+02 -4.000060e+03 -4.002380e+02
-2.778680e-06 -4.000060e+03 -4.002380e+02
-4.000000e+02 -4.400010e+03 -1.889230e-01
3.243150e-06 -4.400010e+03 -1.885520e-01
-4.000000e+02 -3.999990e+03 -2.439240e-01
2.710700e-06 -3.999990e+03 -2.439050e-01
-4.429220e-06 -4.400040e+03 -4.001550e+02
4.000000e+02 -4.400040e+03 -4.001550e+02
-2.778680e-06 -4.000060e+03 -4.002380e+02
4.000000e+02 -4.000060e+03 -4.002380e+02
3.243150e-06 -4.400010e+03 -1.885520e-01
4.000000e+02 -4.400010e+03 -1.889520e-01
2.710700e-06 -3.999990e+03 -2.439050e-01
4.000000e+02 -3.999990e+03 -2.439510e-01
-4.000000e+02 -4.000060e+03 -4.002380e+02
-2.778680e-06 -4.000060e+03 -4.002380e+02
-4.000010e+02 -3.600050e+03 -4.002990e+02
4.151470e-06 -3.600050e+03 -4.002990e+02
-4.000000e+02 -3.999990e+03 -2.439240e-01
2.710700e-06 -3.999990e+03 -2.439050e-01
-4.000000e+02 -3.600000e+03 -2.694180e-01
-1.160250e-06 -3.600000e+03 -2.697100e-01
-2.778680e-06 -4.000060e+03 -4.002380e+02
4.000000e+02 -4.000060e+03 -4.002380e+02
4.151470e-06 -3.600050e+03 -4.002990e+02
4.000010e+02 -3.600050e+03 -4.002990e+02
2.710700e-06 -3.999990e+03 -2.439050e-01
4.000000e+02 -3.999990e+03 -2.439510e-01
-1.160250e-06 -3.600000e+03 -2.697100e-01
4.000000e+02 -3.600000e+03 -2.694030e-01
-4.000010e+02 -3.600050e+03 -4.002990e+02
4.151470e-06 -3.600050e+03 -4.002990e+02
-4.000000e+02 -3.200040e+03 -4.003110e+02
8.895980e-06 -3.200040e+03 -4.003110e+02
-4.000000e+02 -3.600000e+03 -2.694180e-01
-1.160250e-06 -3.600000e+03 -2.697100e-01
-4.000000e+02 -3.200000e+03 -3.337180e-01
-4.042760e-06 -3.200000e+03 -3.336450e-01
4.151470e-06 -3.600050e+03 -4.002990e+02
4.000010e+02 -3.600050e+03 -4.002990e+02
8.895980e-06 -3.200040e+03 -4.003110e+02
4.000000e+02 -3.200040e+03 -4.003110e+02
-1.160250e-06 -3.600000e+03 -2.697100e-01
4.000000e+02 -3.600000e+03 -2.694030e-01
-4.042760e-06 -3.200000e+03 -3.336450e-01
4.000000e+02 -3.200000e+03 -3.336900e-01
-4.000000e+02 -3.200040e+03 -4.003110e+02
8.895980e-06 -3.200040e+03 -4.003110e+02
-3.999990e+02 -2.800040e+03 -4.003640e+02
5.647540e-06 -2.800040e+03 -4.003620e+02
-4.000000e+02 -3.200000e+03 -3.337180e-01
-4.042760e-06 -3.200000e+03 -3.336450e-01
-4.000000e+02 -2.799990e+03 -3.622110e-01
-6.713940e-07 -2.799990e+03 -3.618900e-01
8.895980e-06 -3.200040e+03 -4.003110e+02
4.000000e+02 -3.200040e+03 -4.003110e+02
5.647540e-06 -2.800040e+03 -4.003620e+02
3.999990e+02 -2.800040e+03 -4.003640e+02
-4.042760e-06 -3.200000e+03 -3.336450e-01
4.000000e+02 -3.200000e+03 -3.336900e-01
-6.713940e-07 -2.799990e+03 -3.618900e-01
4.000000e+02 -2.799990e+03 -3.622190e-01
-3.999990e+02 -2.800040e+03 -4.003640e+02
5.647540e-06 -2.800040e+03 -4.003620e+02
-4.000000e+02 -2.400040e+03 -4.004230e+02
8.149520e-07 -2.400040e+03 -4.004230e+02
-4.000000e+02 -2.799990e+03 -3.622110e-01
-6.713940e-07 -2.799990e+03 -3.618900e-01
-4.000000e+02 -2.400000e+03 -3.973570e-01
1.035300e-06 -2.400000e+03 -3.979290e-01
5.647540e-06 -2.800040e+03 -4.003620e+02
3.999990e+02 -2.800040e+03 -4.003640e+02
8.149520e-07 -2.400040e+03 -4.004230e+02
4.000000e+02 -2.400040e+03 -4.004230e+02
-6.713940e-07 -2.799990e+03 -3.618900e-01
4.000000e+02 -2.799990e+03 -3.622190e-01
1.035300e-06 -2.400000e+03 -3.979290e-01
4.000000e+02 -2.400000e+03 -3.973930e-01
-4.000000e+02 -2.400040e+03 -4.004230e+02
8.149520e-07 -2.400040e+03 -4.004230e+02
-4.000000e+02 -2.000040e+03 -4.004270e+02
5.703500e-06 -2.000040e+03 -4.004270e+02
-4.000000e+02 -2.400000e+03 -3.973570e-01
1.035300e-06 -2.400000e+03 -3.979290e-01
-4.000000e+02 -2.000000e+03 -4.533010e-01
-2.012100e-07 -2.000000e+03 -4.532240e-01
8.149520e-07 -2.400040e+03 -4.004230e+02
4.000000e+02 -2.400040e+03 -4.004230e+02
5.703500e-06 -2.000040e+03 -4.004270e+02
4.000000e+02 -2.000040e+03 -4.004270e+02
1.035300e-06 -2.400000e+03 -3.979290e-01
4.000000e+02 -2.400000e+03 -3.973930e-01
-2.012100e-07 -2.000000e+03 -4.532240e-01
4.000000e+02 -2.000000e+03 -4.533240e-01
-4.000000e+02 -2.000040e+03 -4.004270e+02
5.703500e-06 -2.000040e+03 -4.004270e+02
-4.000000e+02 -1.600050e+03 -4.004700e+02
6.023270e-06 -1.600050e+03 -4.004700e+02
-4.000000e+02 -2.000000e+03 -4.533010e-01
-2.012100e-07 -2.000000e+03 -4.532240e-01
-4.000000e+02 -1.599990e+03 -4.765840e-01
-3.666160e-07 -1.599990e+03 -4.760210e-01
5.703500e-06 -2.000040e+03 -4.004270e+02
4.000000e+02 -2.000040e+03 -4.004270e+02
6.023270e-06 -1.600050e+03 -4.004700e+02
4.000000e+02 -1.600050e+03 -4.004700e+02
-2.012100e-07 -2.000000e+03 -4.532240e-01
4.000000e+02 -2.000000e+03 -4.533240e-01
-3.666160e-07 -1.599990e+03 -4.760210e-01
4.000000e+02 -1.599990e+03 -4.765810e-01
-4.000000e+02 -1.600050e+03 -4.004700e+02
6.023270e-06 -1.600050e+03 -4.004700e+02
-4.000010e+02 -1.200040e+03 -4.005550e+02
4.643230e-06 -1.200040e+03 -4.005560e+02
-4.000000e+02 -1.599990e+03 -4.765840e-01
-3.666160e-07 -1.599990e+03 -4.760210e-01
-4.000000e+02 -1.200000e+03 -5.231900e-01
6.297830e-07 -1.200000e+03 -5.233750e-01
6.023270e-06 -1.600050e+03 -4.004700e+02
4.000000e+02 -1.600050e+03 -4.004700e+02
4.643230e-06 -1.200040e+03 -4.005560e+02
4.000010e+02 -1.200040e+03 -4.005550e+02
-3.666160e-07 -1.599990e+03 -4.760210e-01
4.000000e+02 -1.599990e+03 -4.765810e-01
6.297830e-07 -1.200000e+03 -5.233750e-01
4.000000e+02 -1.200000e+03 -5.231510e-01
-4.000010e+02 -1.200040e+03 -4.005550e+02
4.643230e-06 -1.200040e+03 -4.005560e+02
-4.000010e+02 -8.000280e+02 -4.005450e+02
-1.047340e-07 -8.000280e+02 -4.005450e+02
-4.000000e+02 -1.200000e+03 -5.231900e-01
6.297830e-07 -1.200000e+03 -5.233750e-01
-4.000000e+02 -8.000090e+02 -5.643970e-01
-1.775870e-06 -8.000090e+02 -5.648500e-01
4.643230e-06 -1.200040e+03 -4.005560e+02
4.000010e+02 -1.200040e+03 -4.005550e+02
-1.047340e-07 -8.000280e+02 -4.005450e+02
4.000010e+02 -8.000280e+02 -4.005450e+02
6.297830e-07 -1.200000e+03 -5.233750e-01
4.000000e+02 -1.200000e+03 -5.231510e-01
-1.775870e-06 -8.000090e+02 -5.648500e-01
4.000000e+02 -8.000090e+02 -5.643780e-01
-4.000010e+02 -8.000280e+02 -4.005450e+02
-1.047340e-07 -8.000280e+02 -4.005450e+02
-3.999990e+02 -4.000590e+02 -4.005940e+02
1.477790e-06 -4.000590e+02 -4.005930e+02
-4.000000e+02 -8.000090e+02 -5.643970e-01
-1.775870e-06 -8.000090e+02 -5.648500e-01
-4.000000e+02 -3.999890e+02 -6.093100e-01
-4.961690e-06 -3.999890e+02 -6.088070e-01
-1.047340e-07 -8.000280e+02 -4.005450e+02
4.000010e+02 -8.000280e+02 -4.005450e+02
1.477790e-06 -4.000590e+02 -4.005930e+02
3.999990e+02 -4.000590e+02 -4.005940e+02
-1.775870e-06 -8.000090e+02 -5.648500e-01
4.000000e+02 -8.000090e+02 -5.643780e-01
-4.961690e-06 -3.999890e+02 -6.088070e-01
4.000000e+02 -3.999890e+02 -6.093330e-01
-3.999990e+02 -4.000590e+02 -4.005940e+02
1.477790e-06 -4.000590e+02 -4.005930e+02
-4.000000e+02 -5.346660e-02 -4.007050e+02
-3.399370e-06 -5.321000e-02 -4.007050e+02
-4.000000e+02 -3.999890e+02 -6.093100e-01
-4.961690e-06 -3.999890e+02 -6.088070e-01
-4.000000e+02 1.701520e-03 -6.738120e-01
2.974290e-07 1.767380e-03 -6.738960e-01
1.477790e-06 -4.000590e+02 -4.005930e+02
3.999990e+02 -4.000590e+02 -4.005940e+02
[...]
<PointData>
<DataArray type="Float32" Name="V1" format="ascii">
0.000000e+00
0.000000e+00
-4.712690e-03
1.499250e-05
0.000000e+00
0.000000e+00
2.299840e-03
-1.081280e-05
0.000000e+00
0.000000e+00
1.499250e-05
4.742670e-03
0.000000e+00
0.000000e+00
-1.081280e-05
-2.321450e-03
-4.712690e-03
1.499250e-05
-2.832840e-03
-3.087380e-06
2.299840e-03
-1.081280e-05
3.619650e-03
7.466310e-07
1.499250e-05
4.742670e-03
-3.087380e-06
2.826660e-03
-1.081280e-05
-2.321450e-03
7.466310e-07
-3.618160e-03
-2.832840e-03
-3.087380e-06
-1.994420e-03
3.261570e-06
3.619650e-03
7.466310e-07
3.083800e-03
-4.654410e-06
-3.087380e-06
2.826660e-03
3.261570e-06
2.000930e-03
7.466310e-07
-3.618160e-03
-4.654410e-06
-3.093110e-03
-1.994420e-03
3.261570e-06
-2.970450e-03
-3.689110e-06
3.083800e-03
-4.654410e-06
1.309550e-03
2.522880e-07
3.261570e-06
2.000930e-03
-3.689110e-06
2.963070e-03
-4.654410e-06
-3.093110e-03
2.522880e-07
-1.309060e-03
-2.970450e-03
-3.689110e-06
5.440240e-04
9.321690e-06
1.309550e-03
2.522880e-07
-5.298380e-04
-8.300410e-06
-3.689110e-06
2.963070e-03
9.321690e-06
-5.253780e-04
2.522880e-07
-1.309060e-03
-8.300410e-06
5.132340e-04
5.440240e-04
9.321690e-06
3.517270e-03
2.303650e-06
-5.298380e-04
-8.300410e-06
-2.002250e-03
-2.437350e-06
9.321690e-06
-5.253780e-04
2.303650e-06
-3.512650e-03
-8.300410e-06
5.132340e-04
-2.437350e-06
1.997370e-03
3.517270e-03
2.303650e-06
1.927040e-03
-2.653650e-06
-2.002250e-03
-2.437350e-06
-3.152420e-03
2.326180e-06
2.303650e-06
-3.512650e-03
-2.653650e-06
-1.932340e-03
-2.437350e-06
1.997370e-03
2.326180e-06
3.157070e-03
1.927040e-03
-2.653650e-06
2.188410e-03
1.569030e-07
-3.152420e-03
2.326180e-06
-2.626400e-03
-2.344550e-07
-2.653650e-06
-1.932340e-03
1.569030e-07
-2.188090e-03
2.326180e-06
3.157070e-03
-2.344550e-07
2.625930e-03
2.188410e-03
1.569030e-07
2.274420e-03
5.251820e-06
-2.626400e-03
-2.344550e-07
-4.615610e-04
-2.462930e-06
1.569030e-07
-2.188090e-03
5.251820e-06
-2.263920e-03
-2.344550e-07
2.625930e-03
-2.462930e-06
4.566360e-04
2.274420e-03
5.251820e-06
-2.358450e-03
1.069350e-06
-4.615610e-04
-2.462930e-06
1.467570e-03
-2.224730e-06
5.251820e-06
-2.263920e-03
1.069350e-06
2.360590e-03
-2.462930e-06
4.566360e-04
-2.224730e-06
-1.472020e-03
-2.358450e-03
1.069350e-06
-4.828360e-03
-5.929520e-06
1.467570e-03
-2.224730e-06
3.189090e-03
3.444460e-07
1.069350e-06
2.360590e-03
-5.929520e-06
4.816490e-03
-2.224730e-06
-1.472020e-03
3.444460e-07
-3.188410e-03
-4.828360e-03
-5.929520e-06
-5.795690e-04
-5.435260e-06
3.189090e-03
3.444460e-07
2.754330e-03
3.811220e-06
-5.929520e-06
4.816490e-03
-5.435260e-06
5.686870e-04
3.444460e-07
-3.188410e-03
3.811220e-06
-2.746710e-03
-5.795690e-04
-5.435260e-06
-5.254600e-04
1.897680e-06
2.754330e-03
3.811220e-06
1.096290e-03
-6.351390e-07
-5.435260e-06
5.686870e-04
1.897680e-06
5.292500e-04
3.811220e-06
-2.746710e-03
-6.351390e-07
-1.097550e-03
-5.254600e-04
1.897680e-06
-2.290630e-03
5.033600e-06
1.096290e-03
-6.351390e-07
-1.013980e-04
-6.708650e-06
1.897680e-06
5.292500e-04
5.033600e-06
2.300710e-03
-6.351390e-07
-1.097550e-03
-6.708650e-06
8.797810e-05
-2.290630e-03
5.033600e-06
1.976190e-03
-2.885530e-06
-1.013980e-04
-6.708650e-06
-1.404730e-03
1.086990e-06
5.033600e-06
2.300710e-03
-2.885530e-06
-1.981970e-03
-6.708650e-06
8.797810e-05
1.086990e-06
1.406900e-03
1.976190e-03
-2.885530e-06
4.048550e-03
3.317520e-07
-1.404730e-03
1.086990e-06
-2.244540e-03
3.361500e-06
-2.885530e-06
-1.981970e-03
3.317520e-07
-4.047890e-03
1.086990e-06
1.406900e-03
3.361500e-06
2.251260e-03
4.048550e-03
3.317520e-07
9.641330e-04
7.263640e-06
-2.244540e-03
3.361500e-06
-2.495530e-03
-4.533240e-06
3.317520e-07
-4.047890e-03
7.263640e-06
-9.495910e-04
3.361500e-06
2.251260e-03
-4.533240e-06
2.486470e-03
9.641330e-04
7.263640e-06
1.083040e-03
-4.364000e-06
-2.495530e-03
-4.533240e-06
-1.773370e-03
3.461910e-06
7.263640e-06
-9.495910e-04
-4.364000e-06
-1.091770e-03
-4.533240e-06
2.486470e-03
3.461910e-06
1.780310e-03
1.083040e-03
-4.364000e-06
1.379380e-03
-1.663740e-06
-1.773370e-03
3.461910e-06
3.934060e-04
8.629270e-07
-4.364000e-06
-1.091770e-03
-1.663740e-06
-1.382710e-03
3.461910e-06
1.780310e-03
8.629270e-07
-3.916730e-04
1.379380e-03
-1.663740e-06
-3.438260e-03
-2.489830e-06
3.934060e-04
8.629270e-07
2.584890e-03
1.782290e-06
-1.663740e-06
-1.382710e-03
-2.489830e-06
3.433270e-03
8.629270e-07
-3.916730e-04
1.782290e-06
-2.581330e-03
-3.438260e-03
-2.489830e-06
-4.254860e-03
3.673430e-06
2.584890e-03
1.782290e-06
3.447830e-03
3.296150e-06
-2.489830e-06
3.433270e-03
3.673430e-06
4.262210e-03
1.782290e-06
-2.581330e-03
3.296150e-06
-3.441240e-03
-4.254860e-03
3.673430e-06
-2.956810e-04
5.425810e-07
3.447830e-03
3.296150e-06
2.003910e-03
4.472990e-06
3.673430e-06
4.262210e-03
5.425810e-07
2.967730e-04
3.296150e-06
-3.441240e-03
4.472990e-06
-1.994970e-03
-2.956810e-04
5.425810e-07
-1.744320e-04
4.674650e-07
2.003910e-03
4.472990e-06
-4.609150e-04
-7.406650e-06
5.425810e-07
2.967730e-04
4.674650e-07
1.753690e-04
4.472990e-06
-1.994970e-03
-7.406650e-06
4.461100e-04
-1.744320e-04
4.674650e-07
1.258960e-04
-6.451050e-06
-4.609150e-04
-7.406650e-06
-1.848050e-03
1.745790e-06
4.674650e-07
1.753690e-04
-6.451050e-06
-1.387960e-04
-7.406650e-06
4.461100e-04
1.745790e-06
1.851560e-03
1.258960e-04
-6.451050e-06
4.243390e-03
1.927850e-06
-1.848050e-03
1.745790e-06
-2.565180e-03
6.157110e-07
-6.451050e-06
-1.387960e-04
1.927850e-06
-4.239550e-03
1.745790e-06
1.851560e-03
6.157110e-07
2.566410e-03
4.243390e-03
1.927850e-06
3.389870e-03
-1.068110e-06
-2.565180e-03
6.157110e-07
-2.442480e-03
4.840390e-06
1.927850e-06
-4.239550e-03
-1.068110e-06
-3.392010e-03
6.157110e-07
2.566410e-03
4.840390e-06
2.452160e-03
3.389870e-03
-1.068110e-06
-1.218840e-03
5.002450e-06
-2.442480e-03
4.840390e-06
-1.116250e-03
-1.114940e-06
-1.068110e-06
-3.392010e-03
5.002450e-06
1.228840e-03
4.840390e-06
2.452160e-03
-1.114940e-06
1.114030e-03
-1.218840e-03
5.002450e-06
-5.936180e-05
1.552070e-06
-1.116250e-03
-1.114940e-06
6.541630e-04
1.770270e-06
5.002450e-06
1.228840e-03
1.552070e-06
6.247470e-05
-1.114940e-06
1.114030e-03
1.770270e-06
-6.506250e-04
-5.936180e-05
1.552070e-06
-1.126080e-04
-8.577060e-07
6.541630e-04
1.770270e-06
2.039820e-03
-5.982680e-06
1.552070e-06
6.247470e-05
-8.577060e-07
1.108930e-04
1.770270e-06
-6.506250e-04
-5.982680e-06
-2.051780e-03
-1.126080e-04
-8.577060e-07
-5.720400e-03
6.046610e-06
2.039820e-03
-5.982680e-06
2.928340e-03
-6.402960e-07
-8.577060e-07
1.108930e-04
6.046610e-06
5.732480e-03
-5.982680e-06
-2.051780e-03
-6.402960e-07
-2.929620e-03
0.000000e+00
0.000000e+00
2.299840e-03
-1.081280e-05
0.000000e+00
0.000000e+00
1.136960e-04
6.515550e-06
0.000000e+00
0.000000e+00
-1.081280e-05
-2.321450e-03
0.000000e+00
0.000000e+00
6.515550e-06
-1.006660e-04
2.299840e-03
-1.081280e-05
3.619650e-03
7.466310e-07
1.136960e-04
6.515550e-06
-4.408790e-03
1.655210e-06
-1.081280e-05
-2.321450e-03
7.466310e-07
-3.618160e-03
6.515550e-06
-1.006660e-04
1.655210e-06
4.412100e-03
3.619650e-03
7.466310e-07
3.083800e-03
-4.654410e-06
-4.408790e-03
1.655210e-06
-4.173450e-03
6.056550e-06
7.466310e-07
-3.618160e-03
-4.654410e-06
-3.093110e-03
1.655210e-06
4.412100e-03
6.056550e-06
4.185570e-03
3.083800e-03
-4.654410e-06
1.309550e-03
2.522880e-07
-4.173450e-03
6.056550e-06
3.543870e-04
3.271530e-06
-4.654410e-06
-3.093110e-03
2.522880e-07
-1.309060e-03
6.056550e-06
4.185570e-03
3.271530e-06
-3.478460e-04
1.309550e-03
2.522880e-07
-5.298380e-04
-8.300410e-06
3.543870e-04
3.271530e-06
5.132900e-04
7.240210e-06
2.522880e-07
-1.309060e-03
-8.300410e-06
5.132340e-04
3.271530e-06
-3.478460e-04
7.240210e-06
-4.988150e-04
-5.298380e-04
-8.300410e-06
-2.002250e-03
-2.437350e-06
5.132900e-04
7.240210e-06
4.852910e-04
2.507360e-06
-8.300410e-06
5.132340e-04
-2.437350e-06
1.997370e-03
7.240210e-06
-4.988150e-04
2.507360e-06
-4.802700e-04
-2.002250e-03
-2.437350e-06
-3.152420e-03
2.326180e-06
4.852910e-04
2.507360e-06
4.381870e-03
-1.937070e-06
-2.437350e-06
1.997370e-03
2.326180e-06
3.157070e-03
2.507360e-06
-4.802700e-04
-1.937070e-06
-4.385740e-03
-3.152420e-03
2.326180e-06
-2.626400e-03
-2.344550e-07
4.381870e-03
-1.937070e-06
3.064040e-03
2.360310e-07
2.326180e-06
3.157070e-03
-2.344550e-07
2.625930e-03
-1.937070e-06
-4.385740e-03
2.360310e-07
-3.063570e-03
-2.626400e-03
-2.344550e-07
-4.615610e-04
-2.462930e-06
3.064040e-03
2.360310e-07
-1.355530e-03
-3.102300e-07
-2.344550e-07
2.625930e-03
-2.462930e-06
4.566360e-04
2.360310e-07
-3.063570e-03
-3.102300e-07
1.354900e-03
-4.615610e-04
-2.462930e-06
1.467570e-03
-2.224730e-06
-1.355530e-03
-3.102300e-07
-5.740750e-04
3.457650e-06
-2.462930e-06
4.566360e-04
-2.224730e-06
-1.472020e-03
-3.102300e-07
1.354900e-03
3.457650e-06
5.809840e-04
1.467570e-03
-2.224730e-06
3.189090e-03
3.444460e-07
-5.740750e-04
3.457650e-06
-1.547830e-03
5.206170e-06
-2.224730e-06
-1.472020e-03
3.444460e-07
-3.188410e-03
3.457650e-06
5.809840e-04
5.206170e-06
1.558250e-03
3.189090e-03
3.444460e-07
2.754330e-03
3.811220e-06
-1.547830e-03
5.206170e-06
-4.931570e-03
-2.132980e-06
3.444460e-07
-3.188410e-03
3.811220e-06
-2.746710e-03
5.206170e-06
1.558250e-03
-2.132980e-06
4.927310e-03
2.754330e-03
3.811220e-06
1.096290e-03
-6.351390e-07
-4.931570e-03
-2.132980e-06
-1.667780e-03
-6.366570e-07
3.811220e-06
-2.746710e-03
-6.351390e-07
-1.097550e-03
-2.132980e-06
4.927310e-03
-6.366570e-07
1.666510e-03
1.096290e-03
-6.351390e-07
-1.013980e-04
-6.708650e-06
-1.667780e-03
-6.366570e-07
2.495000e-03
8.306400e-06
-6.351390e-07
-1.097550e-03
-6.708650e-06
8.797810e-05
-6.366570e-07
1.666510e-03
8.306400e-06
-2.478390e-03
-1.013980e-04
-6.708650e-06
-1.404730e-03
1.086990e-06
2.495000e-03
8.306400e-06
8.342130e-04
7.516230e-07
-6.708650e-06
8.797810e-05
1.086990e-06
1.406900e-03
8.306400e-06
-2.478390e-03
7.516230e-07
-8.327080e-04
-1.404730e-03
1.086990e-06
-2.244540e-03
3.361500e-06
8.342130e-04
7.516230e-07
4.378810e-04
-7.101810e-06
1.086990e-06
1.406900e-03
3.361500e-06
2.251260e-03
7.516230e-07
-8.327080e-04
-7.101810e-06
-4.520860e-04
-2.244540e-03
3.361500e-06
-2.495530e-03
-4.533240e-06
4.378810e-04
-7.101810e-06
4.026970e-03
1.767430e-06
3.361500e-06
2.251260e-03
-4.533240e-06
2.486470e-03
-7.101810e-06
-4.520860e-04
1.767430e-06
-4.023440e-03
-2.495530e-03
-4.533240e-06
-1.773370e-03
3.461910e-06
4.026970e-03
1.767430e-06
2.466430e-03
-2.549870e-06
-4.533240e-06
2.486470e-03
3.461910e-06
1.780310e-03
1.767430e-06
-4.023440e-03
-2.549870e-06
-2.471530e-03
-1.773370e-03
3.461910e-06
3.934060e-04
8.629270e-07
2.466430e-03
-2.549870e-06
-2.166820e-03
-6.898110e-08
3.461910e-06
1.780310e-03
8.629270e-07
-3.916730e-04
-2.549870e-06
-2.471530e-03
-6.898110e-08
2.166680e-03
3.934060e-04
8.629270e-07
2.584890e-03
1.782290e-06
-2.166820e-03
-6.898110e-08
-1.734350e-03
-1.042630e-06
8.629270e-07
-3.916730e-04
1.782290e-06
-2.581330e-03
-6.898110e-08
2.166680e-03
-1.042630e-06
1.732270e-03
2.584890e-03
1.782290e-06
3.447830e-03
3.296150e-06
-1.734350e-03
-1.042630e-06
-2.638650e-03
-1.024400e-05
1.782290e-06
-2.581330e-03
3.296150e-06
-3.441240e-03
-1.042630e-06
1.732270e-03
-1.024400e-05
2.618160e-03
3.447830e-03
3.296150e-06
2.003910e-03
4.472990e-06
-2.638650e-03
-1.024400e-05
-3.710320e-03
-9.404590e-06
3.296150e-06
-3.441240e-03
4.472990e-06
-1.994970e-03
-1.024400e-05
2.618160e-03
-9.404590e-06
3.691510e-03
2.003910e-03
4.472990e-06
-4.609150e-04
-7.406650e-06
-3.710320e-03
-9.404590e-06
1.092170e-03
1.431810e-05
4.472990e-06
-1.994970e-03
-7.406650e-06
4.461100e-04
-9.404590e-06
3.691510e-03
1.431810e-05
-1.063550e-03
-4.609150e-04
-7.406650e-06
-1.848050e-03
1.745790e-06
1.092170e-03
1.431810e-05
3.572090e-03
2.914070e-06
-7.406650e-06
4.461100e-04
1.745790e-06
1.851560e-03
1.431810e-05
-1.063550e-03
2.914070e-06
-3.566290e-03
-1.848050e-03
1.745790e-06
-2.565180e-03
6.157110e-07
3.572090e-03
2.914070e-06
8.893460e-04
-3.237450e-06
1.745790e-06
1.851560e-03
6.157110e-07
2.566410e-03
2.914070e-06
-3.566290e-03
-3.237450e-06
-8.958110e-04
-2.565180e-03
6.157110e-07
-2.442480e-03
4.840390e-06
8.893460e-04
-3.237450e-06
1.491300e-03
-8.596840e-06
6.157110e-07
2.566410e-03
4.840390e-06
2.452160e-03
-3.237450e-06
-8.958110e-04
-8.596840e-06
-1.508470e-03
-2.442480e-03
4.840390e-06
-1.116250e-03
-1.114940e-06
1.491300e-03
-8.596840e-06
3.452830e-03
-2.756950e-06
4.840390e-06
2.452160e-03
-1.114940e-06
1.114030e-03
-8.596840e-06
-1.508470e-03
-2.756950e-06
-3.458340e-03
-1.116250e-03
-1.114940e-06
6.541630e-04
1.770270e-06
3.452830e-03
-2.756950e-06
-1.247330e-03
-5.029440e-06
-1.114940e-06
1.114030e-03
1.770270e-06
-6.506250e-04
-2.756950e-06
-3.458340e-03
-5.029440e-06
1.237270e-03
6.541630e-04
1.770270e-06
2.039820e-03
-5.982680e-06
-1.247330e-03
-5.029440e-06
-3.968580e-03
1.286720e-05
1.770270e-06
-6.506250e-04
-5.982680e-06
-2.051780e-03
-5.029440e-06
1.237270e-03
1.286720e-05
3.994300e-03
2.039820e-03
-5.982680e-06
2.928340e-03
-6.402960e-07
-3.968580e-03
1.286720e-05
-1.360200e-04
-4.901250e-06
-5.982680e-06
-2.051780e-03
-6.402960e-07
-2.929620e-03
1.286720e-05
3.994300e-03
-4.901250e-06
1.262240e-04
</DataArray>
<DataArray type="Float32" Name="V2" format="ascii">
0.000000e+00
0.000000e+00
-2.685800e-02
-2.749980e-02
0.000000e+00
0.000000e+00
7.470760e-03
7.636170e-03
0.000000e+00
0.000000e+00
-2.749980e-02
-2.688940e-02
0.000000e+00
0.000000e+00
7.636170e-03
7.491220e-03
-2.685800e-02
-2.749980e-02
-4.104870e-02
-4.161430e-02
7.470760e-03
7.636170e-03
3.806000e-02
3.796530e-02
-2.749980e-02
-2.688940e-02
-4.161430e-02
-4.103540e-02
7.636170e-03
7.491220e-03
3.796530e-02
3.803840e-02
-4.104870e-02
-4.161430e-02
1.588090e-02
1.669240e-02
3.806000e-02
3.796530e-02
2.264650e-03
2.153580e-03
-4.161430e-02
-4.103540e-02
1.669240e-02
1.587650e-02
3.796530e-02
3.803840e-02
2.153580e-03
2.260530e-03
1.588090e-02
1.669240e-02
2.173240e-02
2.193670e-02
2.264650e-03
2.153580e-03
-1.358000e-02
-1.357830e-02
1.669240e-02
1.587650e-02
2.193670e-02
2.169860e-02
2.153580e-03
2.260530e-03
-1.357830e-02
-1.355500e-02
2.173240e-02
2.193670e-02
-1.105890e-02
-1.196970e-02
-1.358000e-02
-1.357830e-02
4.295810e-03
4.353880e-03
2.193670e-02
2.169860e-02
-1.196970e-02
-1.106140e-02
-1.357830e-02
-1.355500e-02
4.353880e-03
4.290750e-03
-1.105890e-02
-1.196970e-02
-3.051630e-02
-3.019520e-02
4.295810e-03
4.353880e-03
1.579990e-02
1.587980e-02
-1.196970e-02
-1.106140e-02
-3.019520e-02
-3.049270e-02
4.353880e-03
4.290750e-03
1.587980e-02
1.578340e-02
-3.051630e-02
-3.019520e-02
-4.310690e-03
-4.126030e-03
1.579990e-02
1.587980e-02
1.889140e-04
4.670600e-04
-3.019520e-02
-3.049270e-02
-4.126030e-03
-4.335120e-03
1.587980e-02
1.578340e-02
4.670600e-04
2.074590e-04
-4.310690e-03
-4.126030e-03
4.156990e-02
4.110010e-02
1.889140e-04
4.670600e-04
-2.116160e-02
-2.138600e-02
-4.126030e-03
-4.335120e-03
4.110010e-02
4.155330e-02
4.670600e-04
2.074590e-04
-2.138600e-02
-2.116440e-02
4.156990e-02
4.110010e-02
8.235920e-03
8.160400e-03
-2.116160e-02
-2.138600e-02
-3.127380e-03
-2.947820e-03
4.110010e-02
4.155330e-02
8.160400e-03
8.256090e-03
-2.138600e-02
-2.116440e-02
-2.947820e-03
-3.154910e-03
8.235920e-03
8.160400e-03
-3.820370e-02
-3.752140e-02
-3.127380e-03
-2.947820e-03
2.921140e-02
2.917030e-02
8.160400e-03
8.256090e-03
-3.752140e-02
-3.821800e-02
-2.947820e-03
-3.154910e-03
2.917030e-02
2.923230e-02
-3.820370e-02
-3.752140e-02
-6.676240e-03
-7.008780e-03
2.921140e-02
2.917030e-02
-6.761290e-03
-7.036990e-03
-3.752140e-02
-3.821800e-02
-7.008780e-03
-6.694560e-03
2.917030e-02
2.923230e-02
-7.036990e-03
-6.750180e-03
-6.676240e-03
-7.008780e-03
3.152200e-02
3.101560e-02
-6.761290e-03
-7.036990e-03
-3.505600e-02
-3.482570e-02
-7.008780e-03
-6.694560e-03
3.101560e-02
3.154060e-02
-7.036990e-03
-6.750180e-03
-3.482570e-02
-3.507680e-02
3.152200e-02
3.101560e-02
1.901140e-03
3.094500e-03
-3.505600e-02
-3.482570e-02
2.413980e-02
2.393000e-02
3.101560e-02
3.154060e-02
3.094500e-03
1.901710e-03
-3.482570e-02
-3.507680e-02
2.393000e-02
2.414750e-02
1.901140e-03
3.094500e-03
-2.243470e-02
-2.240130e-02
2.413980e-02
2.393000e-02
2.780050e-02
2.755970e-02
3.094500e-03
1.901710e-03
-2.240130e-02
-2.244840e-02
2.393000e-02
2.414750e-02
2.755970e-02
2.781800e-02
-2.243470e-02
-2.240130e-02
1.739690e-02
1.633490e-02
2.780050e-02
2.755970e-02
-3.579270e-02
-3.558510e-02
-2.240130e-02
-2.244840e-02
1.633490e-02
1.739910e-02
2.755970e-02
2.781800e-02
-3.558510e-02
-3.579280e-02
1.739690e-02
1.633490e-02
4.225800e-04
1.044240e-03
-3.579270e-02
-3.558510e-02
-1.397270e-02
-1.406780e-02
1.633490e-02
1.739910e-02
1.044240e-03
4.143680e-04
-3.558510e-02
-3.579280e-02
-1.406780e-02
-1.396990e-02
4.225800e-04
1.044240e-03
-3.460830e-02
-3.389260e-02
-1.397270e-02
-1.406780e-02
4.018390e-02
3.996120e-02
1.044240e-03
4.143680e-04
-3.389260e-02
-3.463840e-02
-1.406780e-02
-1.396990e-02
3.996120e-02
4.021040e-02
-3.460830e-02
-3.389260e-02
2.362110e-02
2.279270e-02
4.018390e-02
3.996120e-02
3.412010e-03
3.512810e-03
-3.389260e-02
-3.463840e-02
2.279270e-02
2.361730e-02
3.996120e-02
4.021040e-02
3.512810e-03
3.414710e-03
2.362110e-02
2.279270e-02
3.486120e-02
3.476730e-02
3.412010e-03
3.512810e-03
-3.710390e-02
-3.694620e-02
2.279270e-02
2.361730e-02
3.476730e-02
3.488400e-02
3.512810e-03
3.414710e-03
-3.694620e-02
-3.711920e-02
3.486120e-02
3.476730e-02
-3.354200e-02
-3.311980e-02
-3.710390e-02
-3.694620e-02
9.278190e-03
9.217070e-03
3.476730e-02
3.488400e-02
-3.311980e-02
-3.355920e-02
-3.694620e-02
-3.711920e-02
9.217070e-03
9.296020e-03
-3.354200e-02
-3.311980e-02
-2.755700e-02
-2.813390e-02
9.278190e-03
9.217070e-03
2.496540e-02
2.485390e-02
-3.311980e-02
-3.355920e-02
-2.813390e-02
-2.757300e-02
9.217070e-03
9.296020e-03
2.485390e-02
2.497220e-02
-2.755700e-02
-2.813390e-02
3.348160e-02
3.343040e-02
2.496540e-02
2.485390e-02
-2.239390e-02
-2.220340e-02
-2.813390e-02
-2.757300e-02
3.343040e-02
3.349690e-02
2.485390e-02
2.497220e-02
-2.220340e-02
-2.241270e-02
3.348160e-02
3.343040e-02
2.809910e-02
2.899810e-02
-2.239390e-02
-2.220340e-02
-1.189330e-02
-1.206990e-02
3.343040e-02
3.349690e-02
2.899810e-02
2.809520e-02
-2.220340e-02
-2.241270e-02
-1.206990e-02
-1.188370e-02
2.809910e-02
2.899810e-02
-2.887940e-02
-2.986900e-02
-1.189330e-02
-1.206990e-02
2.351490e-02
2.365910e-02
2.899810e-02
2.809520e-02
-2.986900e-02
-2.889850e-02
-1.206990e-02
-1.188370e-02
2.365910e-02
2.353460e-02
-2.887940e-02
-2.986900e-02
-2.353380e-02
-2.443870e-02
2.351490e-02
2.365910e-02
5.056300e-04
8.711850e-04
-2.986900e-02
-2.889850e-02
-2.443870e-02
-2.354630e-02
2.365910e-02
2.353460e-02
8.711850e-04
5.068400e-04
-2.353380e-02
-2.443870e-02
1.446550e-02
1.573510e-02
5.056300e-04
8.711850e-04
-1.403160e-02
-1.412180e-02
-2.443870e-02
-2.354630e-02
1.573510e-02
1.446180e-02
8.711850e-04
5.068400e-04
-1.412180e-02
-1.401950e-02
1.446550e-02
1.573510e-02
1.658200e-03
1.749460e-03
-1.403160e-02
-1.412180e-02
9.835460e-03
9.616520e-03
1.573510e-02
1.446180e-02
1.749460e-03
1.687110e-03
-1.412180e-02
-1.401950e-02
9.616520e-03
9.809660e-03
1.658200e-03
1.749460e-03
4.870500e-03
3.685980e-03
9.835460e-03
9.616520e-03
7.591560e-03
7.711320e-03
1.749460e-03
1.687110e-03
3.685980e-03
4.882800e-03
9.616520e-03
9.809660e-03
7.711320e-03
7.571650e-03
4.870500e-03
3.685980e-03
2.739100e-03
4.434710e-03
7.591560e-03
7.711320e-03
-6.179700e-03
-6.074170e-03
3.685980e-03
4.882800e-03
4.434710e-03
2.718790e-03
7.711320e-03
7.571650e-03
-6.074170e-03
-6.157410e-03
2.739100e-03
4.434710e-03
-2.046400e-02
-1.620010e-02
-6.179700e-03
-6.074170e-03
-5.010940e-03
-5.394640e-03
4.434710e-03
2.718790e-03
-1.620010e-02
-2.046240e-02
-6.074170e-03
-6.157410e-03
-5.394640e-03
-5.011260e-03
0.000000e+00
0.000000e+00
7.470760e-03
7.636170e-03
0.000000e+00
0.000000e+00
1.187110e-02
1.218310e-02
0.000000e+00
0.000000e+00
7.636170e-03
7.491220e-03
0.000000e+00
0.000000e+00
1.218310e-02
1.186140e-02
7.470760e-03
7.636170e-03
3.806000e-02
3.796530e-02
1.187110e-02
1.218310e-02
-3.505830e-02
-3.430050e-02
7.636170e-03
7.491220e-03
3.796530e-02
3.803840e-02
1.218310e-02
1.186140e-02
-3.430050e-02
-3.502850e-02
3.806000e-02
3.796530e-02
2.264650e-03
2.153580e-03
-3.505830e-02