<?xml version="1.0"?>
<VTKFile type="UnstructuredGrid" version="0.1" byte_order="LittleEndian" compressor="vtkZLibDataCompressor">
<UnstructuredGrid>
<Piece NumberOfPoints="960" NumberOfCells="120">
<Points>
<DataArray type="Float32" NumberOfComponents="3" format="ascii">
-4.000000e+02 -6.000000e+03 -4.000000e+02
0.000000e+00 -6.000000e+03 -4.000000e+02
-4.000400e+02 -5.600340e+03 -4.001390e+02
-3.091500e-02 -5.600690e+03 -4.004450e+02
-4.000000e+02 -6.000000e+03 0.000000e+00
0.000000e+00 -6.000000e+03 0.000000e+00
-3.999350e+02 -5.600070e+03 7.324080e-02
8.053210e-02 -5.600030e+03 5.828040e-02
0.000000e+00 -6.000000e+03 -4.000000e+02
4.000000e+02 -6.000000e+03 -4.000000e+02
-3.091500e-02 -5.600690e+03 -4.004450e+02
3.999780e+02 -5.601010e+03 -4.007710e+02
0.000000e+00 -6.000000e+03 0.000000e+00
4.000000e+02 -6.000000e+03 0.000000e+00
8.053210e-02 -5.600030e+03 5.828040e-02
4.001000e+02 -5.599990e+03 1.175660e-01
-4.000400e+02 -5.600340e+03 -4.001390e+02
-3.091500e-02 -5.600690e+03 -4.004450e+02
-3.999990e+02 -5.200790e+03 -4.004880e+02
-2.667660e-02 -5.200910e+03 -4.007970e+02
-3.999350e+02 -5.600070e+03 7.324080e-02
8.053210e-02 -5.600030e+03 5.828040e-02
-3.999580e+02 -5.199990e+03 -5.671480e-01
6.135460e-02 -5.200020e+03 -8.496900e-01
-3.091500e-02 -5.600690e+03 -4.004450e+02
3.999780e+02 -5.601010e+03 -4.007710e+02
-2.667660e-02 -5.200910e+03 -4.007970e+02
3.999490e+02 -5.201020e+03 -4.011540e+02
8.053210e-02 -5.600030e+03 5.828040e-02
4.001000e+02 -5.599990e+03 1.175660e-01
6.135460e-02 -5.200020e+03 -8.496900e-01
4.000810e+02 -5.200050e+03 -1.123970e+00
-3.999990e+02 -5.200790e+03 -4.004880e+02
-2.667660e-02 -5.200910e+03 -4.007970e+02
-3.999100e+02 -4.800880e+03 -4.014670e+02
6.655080e-02 -4.800760e+03 -4.015400e+02
-3.999580e+02 -5.199990e+03 -5.671480e-01
6.135460e-02 -5.200020e+03 -8.496900e-01
-4.000230e+02 -4.799940e+03 -1.664270e+00
-6.787950e-03 -4.799970e+03 -1.651710e+00
-2.667660e-02 -5.200910e+03 -4.007970e+02
3.999490e+02 -5.201020e+03 -4.011540e+02
6.655080e-02 -4.800760e+03 -4.015400e+02
4.000410e+02 -4.800630e+03 -4.016990e+02
6.135460e-02 -5.200020e+03 -8.496900e-01
4.000810e+02 -5.200050e+03 -1.123970e+00
-6.787950e-03 -4.799970e+03 -1.651710e+00
4.000080e+02 -4.800010e+03 -1.683990e+00
-3.999100e+02 -4.800880e+03 -4.014670e+02
6.655080e-02 -4.800760e+03 -4.015400e+02
-4.002300e+02 -4.400910e+03 -4.022540e+02
-1.926550e-01 -4.400900e+03 -4.023770e+02
-4.000230e+02 -4.799940e+03 -1.664270e+00
-6.787950e-03 -4.799970e+03 -1.651710e+00
-3.999560e+02 -4.400040e+03 -2.530510e+00
2.986780e-02 -4.400020e+03 -2.397190e+00
6.655080e-02 -4.800760e+03 -4.015400e+02
4.000410e+02 -4.800630e+03 -4.016990e+02
-1.926550e-01 -4.400900e+03 -4.023770e+02
3.998420e+02 -4.400860e+03 -4.024320e+02
-6.787950e-03 -4.799970e+03 -1.651710e+00
4.000080e+02 -4.800010e+03 -1.683990e+00
2.986780e-02 -4.400020e+03 -2.397190e+00
4.000140e+02 -4.400010e+03 -2.279710e+00
-4.002300e+02 -4.400910e+03 -4.022540e+02
-1.926550e-01 -4.400900e+03 -4.023770e+02
-4.000420e+02 -4.001300e+03 -4.042580e+02
-3.594850e-02 -4.001350e+03 -4.037940e+02
-3.999560e+02 -4.400040e+03 -2.530510e+00
2.986780e-02 -4.400020e+03 -2.397190e+00
-3.999780e+02 -3.999900e+03 -3.679750e+00
1.460080e-02 -3.999920e+03 -3.623600e+00
-1.926550e-01 -4.400900e+03 -4.023770e+02
3.998420e+02 -4.400860e+03 -4.024320e+02
-3.594850e-02 -4.001350e+03 -4.037940e+02
3.999670e+02 -4.001380e+03 -4.033340e+02
2.986780e-02 -4.400020e+03 -2.397190e+00
4.000140e+02 -4.400010e+03 -2.279710e+00
1.460080e-02 -3.999920e+03 -3.623600e+00
4.000060e+02 -3.999960e+03 -3.574740e+00
-4.000420e+02 -4.001300e+03 -4.042580e+02
-3.594850e-02 -4.001350e+03 -4.037940e+02
-3.998990e+02 -3.601350e+03 -4.049100e+02
8.379720e-02 -3.601350e+03 -4.049270e+02
-3.999780e+02 -3.999900e+03 -3.679750e+00
1.460080e-02 -3.999920e+03 -3.623600e+00
-3.999110e+02 -3.600020e+03 -5.136050e+00
9.993440e-02 -3.599990e+03 -4.910900e+00
-3.594850e-02 -4.001350e+03 -4.037940e+02
3.999670e+02 -4.001380e+03 -4.033340e+02
8.379720e-02 -3.601350e+03 -4.049270e+02
4.000660e+02 -3.601360e+03 -4.049020e+02
1.460080e-02 -3.999920e+03 -3.623600e+00
4.000060e+02 -3.999960e+03 -3.574740e+00
9.993440e-02 -3.599990e+03 -4.910900e+00
4.001100e+02 -3.599960e+03 -4.671290e+00
-3.998990e+02 -3.601350e+03 -4.049100e+02
8.379720e-02 -3.601350e+03 -4.049270e+02
-4.001310e+02 -3.201380e+03 -4.055010e+02
-1.100530e-01 -3.201250e+03 -4.060330e+02
-3.999110e+02 -3.600020e+03 -5.136050e+00
9.993440e-02 -3.599990e+03 -4.910900e+00
-3.998470e+02 -3.200100e+03 -6.396750e+00
1.535140e-01 -3.200110e+03 -6.223030e+00
8.379720e-02 -3.601350e+03 -4.049270e+02
4.000660e+02 -3.601360e+03 -4.049020e+02
-1.100530e-01 -3.201250e+03 -4.060330e+02
3.999100e+02 -3.201210e+03 -4.065060e+02
9.993440e-02 -3.599990e+03 -4.910900e+00
4.001100e+02 -3.599960e+03 -4.671290e+00
1.535140e-01 -3.200110e+03 -6.223030e+00
4.001550e+02 -3.200090e+03 -6.029020e+00
-4.001310e+02 -3.201380e+03 -4.055010e+02
-1.100530e-01 -3.201250e+03 -4.060330e+02
-3.998190e+02 -2.801400e+03 -4.074610e+02
1.755450e-01 -2.801480e+03 -4.071570e+02
-3.998470e+02 -3.200100e+03 -6.396750e+00
1.535140e-01 -3.200110e+03 -6.223030e+00
-3.999670e+02 -2.799900e+03 -7.592690e+00
3.220780e-02 -2.799900e+03 -7.382450e+00
-1.100530e-01 -3.201250e+03 -4.060330e+02
3.999100e+02 -3.201210e+03 -4.065060e+02
1.755450e-01 -2.801480e+03 -4.071570e+02
4.001730e+02 -2.801560e+03 -4.067950e+02
1.535140e-01 -3.200110e+03 -6.223030e+00
4.001550e+02 -3.200090e+03 -6.029020e+00
3.220780e-02 -2.799900e+03 -7.382450e+00
4.000300e+02 -2.799910e+03 -7.158890e+00
-3.998190e+02 -2.801400e+03 -4.074610e+02
1.755450e-01 -2.801480e+03 -4.071570e+02
-3.996860e+02 -2.401410e+03 -4.095510e+02
3.048800e-01 -2.401500e+03 -4.092110e+02
-3.999670e+02 -2.799900e+03 -7.592690e+00
3.220780e-02 -2.799900e+03 -7.382450e+00
-4.000660e+02 -2.400020e+03 -8.720170e+00
-6.960280e-02 -2.399990e+03 -8.585710e+00
1.755450e-01 -2.801480e+03 -4.071570e+02
4.001730e+02 -2.801560e+03 -4.067950e+02
3.048800e-01 -2.401500e+03 -4.092110e+02
4.002920e+02 -2.401670e+03 -4.089120e+02
3.220780e-02 -2.799900e+03 -7.382450e+00
4.000300e+02 -2.799910e+03 -7.158890e+00
-6.960280e-02 -2.399990e+03 -8.585710e+00
3.999260e+02 -2.399920e+03 -8.447860e+00
-3.996860e+02 -2.401410e+03 -4.095510e+02
3.048800e-01 -2.401500e+03 -4.092110e+02
-3.998430e+02 -2.001260e+03 -4.106340e+02
1.690070e-01 -2.001380e+03 -4.104170e+02
-4.000660e+02 -2.400020e+03 -8.720170e+00
-6.960280e-02 -2.399990e+03 -8.585710e+00
-3.999730e+02 -2.000180e+03 -1.038020e+01
1.782590e-02 -2.000160e+03 -1.026690e+01
3.048800e-01 -2.401500e+03 -4.092110e+02
4.002920e+02 -2.401670e+03 -4.089120e+02
1.690070e-01 -2.001380e+03 -4.104170e+02
4.001810e+02 -2.001480e+03 -4.101590e+02
-6.960280e-02 -2.399990e+03 -8.585710e+00
3.999260e+02 -2.399920e+03 -8.447860e+00
1.782590e-02 -2.000160e+03 -1.026690e+01
4.000060e+02 -2.000150e+03 -1.012620e+01
-3.998430e+02 -2.001260e+03 -4.106340e+02
1.690070e-01 -2.001380e+03 -4.104170e+02
-3.996780e+02 -1.601400e+03 -4.119260e+02
3.521750e-01 -1.601400e+03 -4.118990e+02
-3.999730e+02 -2.000180e+03 -1.038020e+01
1.782590e-02 -2.000160e+03 -1.026690e+01
-3.999770e+02 -1.600010e+03 -1.221800e+01
8.512220e-03 -1.600030e+03 -1.203490e+01
1.690070e-01 -2.001380e+03 -4.104170e+02
4.001810e+02 -2.001480e+03 -4.101590e+02
3.521750e-01 -1.601400e+03 -4.118990e+02
4.003790e+02 -1.601380e+03 -4.117280e+02
1.782590e-02 -2.000160e+03 -1.026690e+01
4.000060e+02 -2.000150e+03 -1.012620e+01
8.512220e-03 -1.600030e+03 -1.203490e+01
3.999910e+02 -1.600060e+03 -1.185280e+01
-3.996780e+02 -1.601400e+03 -4.119260e+02
3.521750e-01 -1.601400e+03 -4.118990e+02
-3.998310e+02 -1.201650e+03 -4.134600e+02
1.913370e-01 -1.201510e+03 -4.133440e+02
-3.999770e+02 -1.600010e+03 -1.221800e+01
8.512220e-03 -1.600030e+03 -1.203490e+01
-3.999490e+02 -1.199940e+03 -1.337090e+01
1.773620e-02 -1.199970e+03 -1.319260e+01
3.521750e-01 -1.601400e+03 -4.118990e+02
4.003790e+02 -1.601380e+03 -4.117280e+02
1.913370e-01 -1.201510e+03 -4.133440e+02
4.002130e+02 -1.201340e+03 -4.130890e+02
8.512220e-03 -1.600030e+03 -1.203490e+01
3.999910e+02 -1.600060e+03 -1.185280e+01
1.773620e-02 -1.199970e+03 -1.319260e+01
3.999850e+02 -1.199990e+03 -1.302440e+01
-3.998310e+02 -1.201650e+03 -4.134600e+02
1.913370e-01 -1.201510e+03 -4.133440e+02
-3.998100e+02 -8.017680e+02 -4.149030e+02
1.833830e-01 -8.017100e+02 -4.147250e+02
-3.999490e+02 -1.199940e+03 -1.337090e+01
1.773620e-02 -1.199970e+03 -1.319260e+01
-3.999890e+02 -7.999910e+02 -1.501690e+01
1.099360e-03 -8.000400e+02 -1.478920e+01
1.913370e-01 -1.201510e+03 -4.133440e+02
4.002130e+02 -1.201340e+03 -4.130890e+02
1.833830e-01 -8.017100e+02 -4.147250e+02
4.001750e+02 -8.016210e+02 -4.144330e+02
1.773620e-02 -1.199970e+03 -1.319260e+01
3.999850e+02 -1.199990e+03 -1.302440e+01
1.099360e-03 -8.000400e+02 -1.478920e+01
3.999920e+02 -8.001060e+02 -1.458040e+01
-3.998100e+02 -8.017680e+02 -4.149030e+02
1.833830e-01 -8.017100e+02 -4.147250e+02
-3.997880e+02 -4.018550e+02 -4.168140e+02
2.388890e-01 -4.017120e+02 -4.163720e+02
-3.999890e+02 -7.999910e+02 -1.501690e+01
1.099360e-03 -8.000400e+02 -1.478920e+01
-4.000640e+02 -3.999220e+02 -1.675510e+01
-8.680190e-02 -4.000340e+02 -1.654070e+01
1.833830e-01 -8.017100e+02 -4.147250e+02
4.001750e+02 -8.016210e+02 -4.144330e+02
2.388890e-01 -4.017120e+02 -4.163720e+02
4.002660e+02 -4.016390e+02 -4.158020e+02
1.099360e-03 -8.000400e+02 -1.478920e+01
3.999920e+02 -8.001060e+02 -1.458040e+01
-8.680190e-02 -4.000340e+02 -1.654070e+01
3.998890e+02 -4.001310e+02 -1.633040e+01
-3.997880e+02 -4.018550e+02 -4.168140e+02
2.388890e-01 -4.017120e+02 -4.163720e+02
-3.996220e+02 -1.702770e+00 -4.189750e+02
3.617870e-01 -1.711180e+00 -4.180230e+02
-4.000640e+02 -3.999220e+02 -1.675510e+01
-8.680190e-02 -4.000340e+02 -1.654070e+01
-4.002240e+02 3.185220e-02 -1.867210e+01
-2.193410e-01 2.460130e-02 -1.833230e+01
2.388890e-01 -4.017120e+02 -4.163720e+02
4.002660e+02 -4.016390e+02 -4.158020e+02
3.617870e-01 -1.711180e+00 -4.180230e+02
[...]
<PointData>
<DataArray type="Float32" Name="V1" format="ascii">
0.000000e+00
0.000000e+00
-1.734600e-02
-9.445560e-02
0.000000e+00
0.000000e+00
3.865380e-02
6.184930e-02
0.000000e+00
0.000000e+00
-9.445560e-02
-1.745730e-01
0.000000e+00
0.000000e+00
6.184930e-02
8.434630e-02
-1.734600e-02
-9.445560e-02
2.156930e-03
-1.889700e-02
3.865380e-02
6.184930e-02
-1.319320e-02
2.441960e-04
-9.445560e-02
-1.745730e-01
-1.889700e-02
-3.888800e-02
6.184930e-02
8.434630e-02
2.441960e-04
1.247400e-02
2.156930e-03
-1.889700e-02
-1.205280e-01
-1.370070e-01
-1.319320e-02
2.441960e-04
1.155310e-01
1.066360e-01
-1.889700e-02
-3.888800e-02
-1.370070e-01
-1.514880e-01
2.441960e-04
1.247400e-02
1.066360e-01
9.416730e-02
-1.205280e-01
-1.370070e-01
-8.866360e-02
-8.581050e-02
1.155310e-01
1.066360e-01
1.213760e-01
1.145680e-01
-1.370070e-01
-1.514880e-01
-8.581050e-02
-9.009120e-02
1.066360e-01
9.416730e-02
1.145680e-01
1.085530e-01
-8.866360e-02
-8.581050e-02
4.944810e-02
2.077770e-02
1.213760e-01
1.145680e-01
-6.935750e-03
-4.919130e-03
-8.581050e-02
-9.009120e-02
2.077770e-02
-1.178510e-02
1.145680e-01
1.085530e-01
-4.919130e-03
1.747120e-03
4.944810e-02
2.077770e-02
-1.729330e-01
-1.657370e-01
-6.935750e-03
-4.919130e-03
1.039670e-01
1.103910e-01
2.077770e-02
-1.178510e-02
-1.657370e-01
-1.537920e-01
-4.919130e-03
1.747120e-03
1.103910e-01
1.122450e-01
-1.729330e-01
-1.657370e-01
-5.314470e-02
-1.002410e-01
1.039670e-01
1.103910e-01
1.452730e-01
1.599630e-01
-1.657370e-01
-1.537920e-01
-1.002410e-01
-1.565880e-01
1.103910e-01
1.122450e-01
1.599630e-01
1.753940e-01
-5.314470e-02
-1.002410e-01
-1.608870e-01
-1.192910e-01
1.452730e-01
1.599630e-01
3.156190e-02
1.643950e-02
-1.002410e-01
-1.565880e-01
-1.192910e-01
-7.603210e-02
1.599630e-01
1.753940e-01
1.643950e-02
-7.858940e-03
-1.608870e-01
-1.192910e-01
-4.245490e-02
-3.133680e-04
3.156190e-02
1.643950e-02
2.647050e-02
-1.397490e-02
-1.192910e-01
-7.603210e-02
-3.133680e-04
3.571190e-02
1.643950e-02
-7.858940e-03
-1.397490e-02
-5.145770e-02
-4.245490e-02
-3.133680e-04
-2.895640e-02
-1.305800e-02
2.647050e-02
-1.397490e-02
2.618070e-02
2.137680e-02
-3.133680e-04
3.571190e-02
-1.305800e-02
-2.121930e-04
-1.397490e-02
-5.145770e-02
2.137680e-02
1.200260e-02
-2.895640e-02
-1.305800e-02
7.385980e-02
8.295290e-02
2.618070e-02
2.137680e-02
2.018190e-02
1.383650e-04
-1.305800e-02
-2.121930e-04
8.295290e-02
8.972340e-02
2.137680e-02
1.200260e-02
1.383650e-04
-2.389400e-02
7.385980e-02
8.295290e-02
-4.965020e-02
2.172330e-02
2.018190e-02
1.383650e-04
1.348680e-01
1.022940e-01
8.295290e-02
8.972340e-02
2.172330e-02
7.876320e-02
1.383650e-04
-2.389400e-02
1.022940e-01
7.102020e-02
-4.965020e-02
2.172330e-02
4.363030e-02
-4.537030e-03
1.348680e-01
1.022940e-01
-5.083530e-02
-2.304380e-02
2.172330e-02
7.876320e-02
-4.537030e-03
-4.990330e-02
1.022940e-01
7.102020e-02
-2.304380e-02
-7.238350e-06
4.363030e-02
-4.537030e-03
-1.763370e-01
-1.631210e-01
-5.083530e-02
-2.304380e-02
4.688750e-02
2.912210e-02
-4.537030e-03
-4.990330e-02
-1.631210e-01
-1.552670e-01
-2.304380e-02
-7.238350e-06
2.912210e-02
9.893770e-03
-1.763370e-01
-1.631210e-01
-1.367480e-01
-2.200560e-01
4.688750e-02
2.912210e-02
1.388730e-01
1.537900e-01
-1.631210e-01
-1.552670e-01
-2.200560e-01
-3.054030e-01
2.912210e-02
9.893770e-03
1.537900e-01
1.670660e-01
-1.367480e-01
-2.200560e-01
1.344930e-01
9.201050e-02
1.388730e-01
1.537900e-01
8.845650e-02
1.120820e-01
-2.200560e-01
-3.054030e-01
9.201050e-02
4.746160e-02
1.537900e-01
1.670660e-01
1.120820e-01
1.321360e-01
1.344930e-01
9.201050e-02
5.264110e-02
2.717500e-02
8.845650e-02
1.120820e-01
-1.827220e-01
-1.712200e-01
9.201050e-02
4.746160e-02
2.717500e-02
4.765320e-03
1.120820e-01
1.321360e-01
-1.712200e-01
-1.630420e-01
5.264110e-02
2.717500e-02
-1.033920e-01
-1.021710e-01
-1.827220e-01
-1.712200e-01
1.037670e-01
1.162970e-01
2.717500e-02
4.765320e-03
-1.021710e-01
-1.024580e-01
-1.712200e-01
-1.630420e-01
1.162970e-01
1.277220e-01
-1.033920e-01
-1.021710e-01
3.749970e-02
-1.380100e-03
1.037670e-01
1.162970e-01
-3.823620e-02
-4.417350e-02
-1.021710e-01
-1.024580e-01
-1.380100e-03
-3.817240e-02
1.162970e-01
1.277220e-01
-4.417350e-02
-5.464880e-02
3.749970e-02
-1.380100e-03
2.811630e-01
2.789270e-01
-3.823620e-02
-4.417350e-02
-4.935480e-02
-4.925040e-02
-1.380100e-03
-3.817240e-02
2.789270e-01
2.707360e-01
-4.417350e-02
-5.464880e-02
-4.925040e-02
-4.985140e-02
2.811630e-01
2.789270e-01
2.075670e-01
2.080170e-01
-4.935480e-02
-4.925040e-02
-1.590600e-01
-1.553870e-01
2.789270e-01
2.707360e-01
2.080170e-01
2.097630e-01
-4.925040e-02
-4.985140e-02
-1.553870e-01
-1.556390e-01
2.075670e-01
2.080170e-01
1.128640e-02
3.517230e-02
-1.590600e-01
-1.553870e-01
-1.640110e-01
-1.579280e-01
2.080170e-01
2.097630e-01
3.517230e-02
5.440680e-02
-1.553870e-01
-1.556390e-01
-1.579280e-01
-1.500970e-01
1.128640e-02
3.517230e-02
6.744950e-02
9.880170e-02
-1.640110e-01
-1.579280e-01
-1.336740e-01
-1.531000e-01
3.517230e-02
5.440680e-02
9.880170e-02
1.345940e-01
-1.579280e-01
-1.500970e-01
-1.531000e-01
-1.737080e-01
6.744950e-02
9.880170e-02
-2.115820e-02
6.739960e-03
-1.336740e-01
-1.531000e-01
-2.719490e-03
-3.194950e-04
9.880170e-02
1.345940e-01
6.739960e-03
3.229350e-02
-1.531000e-01
-1.737080e-01
-3.194950e-04
6.729230e-03
-2.115820e-02
6.739960e-03
-5.982620e-02
-4.873270e-02
-2.719490e-03
-3.194950e-04
7.961420e-03
-1.026930e-03
6.739960e-03
3.229350e-02
-4.873270e-02
-3.736530e-02
-3.194950e-04
6.729230e-03
-1.026930e-03
-5.786420e-03
-5.982620e-02
-4.873270e-02
1.398460e-01
1.411840e-01
7.961420e-03
-1.026930e-03
-5.841420e-02
-5.644140e-02
-4.873270e-02
-3.736530e-02
1.411840e-01
1.516960e-01
-1.026930e-03
-5.786420e-03
-5.644140e-02
-5.473170e-02
1.398460e-01
1.411840e-01
6.575680e-02
8.239060e-02
-5.841420e-02
-5.644140e-02
2.077530e-01
2.050480e-01
1.411840e-01
1.516960e-01
8.239060e-02
1.023700e-01
-5.644140e-02
-5.473170e-02
2.050480e-01
2.059930e-01
6.575680e-02
8.239060e-02
-2.618340e-01
-2.803250e-01
2.077530e-01
2.050480e-01
1.222710e-01
1.282440e-01
8.239060e-02
1.023700e-01
-2.803250e-01
-2.974210e-01
2.050480e-01
2.059930e-01
1.282440e-01
1.375540e-01
-2.618340e-01
-2.803250e-01
-5.262920e-02
-1.869250e-03
1.222710e-01
1.282440e-01
2.440510e-02
2.608140e-03
-2.803250e-01
-2.974210e-01
-1.869250e-03
5.205210e-02
1.282440e-01
1.375540e-01
2.608140e-03
-1.625840e-02
-5.262920e-02
-1.869250e-03
-1.812550e-01
-1.813410e-01
2.440510e-02
2.608140e-03
2.550110e-01
2.449510e-01
-1.869250e-03
5.205210e-02
-1.813410e-01
-1.770260e-01
2.608140e-03
-1.625840e-02
2.449510e-01
2.354160e-01
0.000000e+00
0.000000e+00
3.865380e-02
6.184930e-02
0.000000e+00
0.000000e+00
-8.115000e-02
-4.228390e-02
0.000000e+00
0.000000e+00
6.184930e-02
8.434630e-02
0.000000e+00
0.000000e+00
-4.228390e-02
-1.512200e-03
3.865380e-02
6.184930e-02
-1.319320e-02
2.441960e-04
-8.115000e-02
-4.228390e-02
6.440740e-02
4.429060e-02
6.184930e-02
8.434630e-02
2.441960e-04
1.247400e-02
-4.228390e-02
-1.512200e-03
4.429060e-02
2.376560e-02
-1.319320e-02
2.441960e-04
1.155310e-01
1.066360e-01
6.440740e-02
4.429060e-02
-1.524420e-01
-1.035560e-01
2.441960e-04
1.247400e-02
1.066360e-01
9.416730e-02
4.429060e-02
2.376560e-02
-1.035560e-01
-5.473730e-02
1.155310e-01
1.066360e-01
1.213760e-01
1.145680e-01
-1.524420e-01
-1.035560e-01
-1.405640e-01
-1.224640e-01
1.066360e-01
9.416730e-02
1.145680e-01
1.085530e-01
-1.035560e-01
-5.473730e-02
-1.224640e-01
-1.110750e-01
1.213760e-01
1.145680e-01
-6.935750e-03
-4.919130e-03
-1.405640e-01
-1.224640e-01
-2.617370e-02
-6.632730e-03
1.145680e-01
1.085530e-01
-4.919130e-03
1.747120e-03
-1.224640e-01
-1.110750e-01
-6.632730e-03
6.693270e-03
-6.935750e-03
-4.919130e-03
1.039670e-01
1.103910e-01
-2.617370e-02
-6.632730e-03
-5.067320e-02
-7.151710e-02
-4.919130e-03
1.747120e-03
1.103910e-01
1.122450e-01
-6.632730e-03
6.693270e-03
-7.151710e-02
-8.668460e-02
1.039670e-01
1.103910e-01
1.452730e-01
1.599630e-01
-5.067320e-02
-7.151710e-02
-2.064920e-01
-1.918540e-01
1.103910e-01
1.122450e-01
1.599630e-01
1.753940e-01
-7.151710e-02
-8.668460e-02
-1.918540e-01
-1.789730e-01
1.452730e-01
1.599630e-01
3.156190e-02
1.643950e-02
-2.064920e-01
-1.918540e-01
7.432530e-02
7.715650e-02
1.599630e-01
1.753940e-01
1.643950e-02
-7.858940e-03
-1.918540e-01
-1.789730e-01
7.715650e-02
8.422000e-02
3.156190e-02
1.643950e-02
2.647050e-02
-1.397490e-02
7.432530e-02
7.715650e-02
-1.090380e-02
2.757720e-02
1.643950e-02
-7.858940e-03
-1.397490e-02
-5.145770e-02
7.715650e-02
8.422000e-02
2.757720e-02
5.222920e-02
2.647050e-02
-1.397490e-02
2.618070e-02
2.137680e-02
-1.090380e-02
2.757720e-02
-2.570560e-02
-2.097770e-02
-1.397490e-02
-5.145770e-02
2.137680e-02
1.200260e-02
2.757720e-02
5.222920e-02
-2.097770e-02
-2.088130e-02
2.618070e-02
2.137680e-02
2.018190e-02
1.383650e-04
-2.570560e-02
-2.097770e-02
-9.764130e-02
-7.527760e-02
2.137680e-02
1.200260e-02
1.383650e-04
-2.389400e-02
-2.097770e-02
-2.088130e-02
-7.527760e-02
-5.237930e-02
2.018190e-02
1.383650e-04
1.348680e-01
1.022940e-01
-9.764130e-02
-7.527760e-02
-2.432390e-01
-2.249550e-01
1.383650e-04
-2.389400e-02
1.022940e-01
7.102020e-02
-7.527760e-02
-5.237930e-02
-2.249550e-01
-2.151310e-01
1.348680e-01
1.022940e-01
-5.083530e-02
-2.304380e-02
-2.432390e-01
-2.249550e-01
6.775320e-02
5.054620e-02
1.022940e-01
7.102020e-02
-2.304380e-02
-7.238350e-06
-2.249550e-01
-2.151310e-01
5.054620e-02
3.106760e-02
-5.083530e-02
-2.304380e-02
4.688750e-02
2.912210e-02
6.775320e-02
5.054620e-02
9.007840e-02
1.188820e-01
-2.304380e-02
-7.238350e-06
2.912210e-02
9.893770e-03
5.054620e-02
3.106760e-02
1.188820e-01
1.483640e-01
4.688750e-02
2.912210e-02
1.388730e-01
1.537900e-01
9.007840e-02
1.188820e-01
-1.725610e-01
-1.133900e-01
2.912210e-02
9.893770e-03
1.537900e-01
1.670660e-01
1.188820e-01
1.483640e-01
-1.133900e-01
-5.066440e-02
1.388730e-01
1.537900e-01
8.845650e-02
1.120820e-01
-1.725610e-01
-1.133900e-01
-3.033940e-01
-2.957380e-01
1.537900e-01
1.670660e-01
1.120820e-01
1.321360e-01
-1.133900e-01
-5.066440e-02
-2.957380e-01
-2.882760e-01
8.845650e-02
1.120820e-01
-1.827220e-01
-1.712200e-01
-3.033940e-01
-2.957380e-01
3.191280e-01
3.198260e-01
1.120820e-01
1.321360e-01
-1.712200e-01
-1.630420e-01
-2.957380e-01
-2.882760e-01
3.198260e-01
3.114290e-01
-1.827220e-01
-1.712200e-01
1.037670e-01
1.162970e-01
3.191280e-01
3.198260e-01
-1.139720e-01
-1.342750e-01
-1.712200e-01
-1.630420e-01
1.162970e-01
1.277220e-01
3.198260e-01
3.114290e-01
-1.342750e-01
-1.538480e-01
1.037670e-01
1.162970e-01
-3.823620e-02
-4.417350e-02
-1.139720e-01
-1.342750e-01
3.650710e-02
7.951060e-02
1.162970e-01
1.277220e-01
-4.417350e-02
-5.464880e-02
-1.342750e-01
-1.538480e-01
7.951060e-02
1.233790e-01
-3.823620e-02
-4.417350e-02
-4.935480e-02
-4.925040e-02
3.650710e-02
7.951060e-02
-1.838610e-01
-1.602100e-01
-4.417350e-02
-5.464880e-02
-4.925040e-02
-4.985140e-02
7.951060e-02
1.233790e-01
-1.602100e-01
-1.394960e-01
-4.935480e-02
-4.925040e-02
-1.590600e-01
-1.553870e-01
-1.838610e-01
-1.602100e-01
1.077030e-01
9.658170e-02
-4.925040e-02
-4.985140e-02
-1.553870e-01
-1.556390e-01
-1.602100e-01
-1.394960e-01
9.658170e-02
8.732370e-02
-1.590600e-01
-1.553870e-01
-1.640110e-01
-1.579280e-01
1.077030e-01
9.658170e-02
3.102070e-01
2.847390e-01
-1.553870e-01
-1.556390e-01
-1.579280e-01
-1.500970e-01
9.658170e-02
8.732370e-02
2.847390e-01
2.556930e-01
-1.640110e-01
-1.579280e-01
-1.336740e-01
-1.531000e-01
3.102070e-01
2.847390e-01
2.018040e-01
2.066480e-01
-1.579280e-01
-1.500970e-01
-1.531000e-01
-1.737080e-01
2.847390e-01
2.556930e-01
2.066480e-01
2.114020e-01
-1.336740e-01
-1.531000e-01
-2.719490e-03
-3.194950e-04
2.018040e-01
2.066480e-01
1.435160e-02
-1.130090e-02
-1.531000e-01
-1.737080e-01
-3.194950e-04
6.729230e-03
2.066480e-01
2.114020e-01
-1.130090e-02
-3.905640e-02
-2.719490e-03
-3.194950e-04
7.961420e-03
-1.026930e-03
1.435160e-02
-1.130090e-02
5.042580e-02
4.312480e-02
-3.194950e-04
6.729230e-03
-1.026930e-03
-5.786420e-03
-1.130090e-02
-3.905640e-02
4.312480e-02
3.373120e-02
7.961420e-03
-1.026930e-03
-5.841420e-02
-5.644140e-02
5.042580e-02
4.312480e-02
3.722290e-03
-1.609700e-02
-1.026930e-03
-5.786420e-03
-5.644140e-02
-5.473170e-02
4.312480e-02
3.373120e-02
-1.609700e-02
-3.012940e-02
-5.841420e-02
-5.644140e-02
2.077530e-01
2.050480e-01
3.722290e-03
-1.609700e-02
-5.089370e-01
-5.150390e-01
-5.644140e-02
-5.473170e-02
2.050480e-01
2.059930e-01
-1.609700e-02
-3.012940e-02
-5.150390e-01
-5.191180e-01
2.077530e-01
2.050480e-01
1.222710e-01
1.282440e-01
-5.089370e-01
-5.150390e-01
6.106520e-02
3.898590e-02
2.050480e-01
2.059930e-01
1.282440e-01
1.375540e-01
-5.150390e-01
-5.191180e-01
3.898590e-02
2.325450e-02
1.222710e-01
1.282440e-01
2.440510e-02
2.608140e-03
6.106520e-02
3.898590e-02
-3.798570e-02
-2.417330e-02
1.282440e-01
1.375540e-01
2.608140e-03
-1.625840e-02
3.898590e-02
2.325450e-02
-2.417330e-02
-1.342520e-02
2.440510e-02
2.608140e-03
2.550110e-01
2.449510e-01
-3.798570e-02
-2.417330e-02
-2.691630e-01
-2.879600e-01
2.608140e-03
-1.625840e-02
2.449510e-01
2.354160e-01
-2.417330e-02
-1.342520e-02
-2.879600e-01
-2.993320e-01
</DataArray>
<DataArray type="Float32" Name="V2" format="ascii">
0.000000e+00
0.000000e+00
1.667880e-01
2.268970e-01
0.000000e+00
0.000000e+00
-6.831270e-02
-1.138590e-03
0.000000e+00
0.000000e+00
2.268970e-01
2.354340e-01
0.000000e+00
0.000000e+00
-1.138590e-03
4.955840e-02
1.667880e-01
2.268970e-01
7.348190e-02
1.109810e-01
-6.831270e-02
-1.138590e-03
-2.433560e-01
-8.560420e-02
2.268970e-01
2.354340e-01
1.109810e-01
1.035450e-01
-1.138590e-03
4.955840e-02
-8.560420e-02
8.298040e-02
7.348190e-02
1.109810e-01
-4.931770e-02
-2.209000e-01
-2.433560e-01
-8.560420e-02
-7.866910e-02
-2.589540e-02
1.109810e-01
1.035450e-01
-2.209000e-01
-3.456750e-01
-8.560420e-02
8.298040e-02
-2.589540e-02
2.887820e-02
-4.931770e-02
-2.209000e-01
-1.225330e-02
-1.312550e-01
-7.866910e-02
-2.589540e-02
3.801270e-02
8.568520e-02
-2.209000e-01
-3.456750e-01
-1.312550e-01
-2.728740e-01
-2.589540e-02
2.887820e-02
8.568520e-02
1.651360e-01
-1.225330e-02
-1.312550e-01
7.945280e-02
8.755930e-04
3.801270e-02
8.568520e-02
1.185670e-02
5.728860e-02
-1.312550e-01
-2.728740e-01
8.755930e-04
-8.734100e-02
8.568520e-02
1.651360e-01
5.728860e-02
1.184170e-01
7.945280e-02
8.755930e-04
3.328070e-02
1.795730e-01
1.185670e-02
5.728860e-02
-1.468810e-01
-1.201430e-01
8.755930e-04
-8.734100e-02
1.795730e-01
4.117590e-01
5.728860e-02
1.184170e-01
-1.201430e-01
-1.443560e-01
3.328070e-02
1.795730e-01
1.737400e-01
1.908230e-01
-1.468810e-01
-1.201430e-01
1.000850e-02
-1.068080e-01
1.795730e-01
4.117590e-01
1.908230e-01
1.321370e-01
-1.201430e-01
-1.443560e-01
-1.068080e-01
-1.744010e-01
1.737400e-01
1.908230e-01
-1.216440e-01
-1.148230e-01
1.000850e-02
-1.068080e-01
9.189430e-02
9.818280e-02
1.908230e-01
1.321370e-01
-1.148230e-01
-1.558850e-01
-1.068080e-01
-1.744010e-01
9.818280e-02
1.063200e-01
-1.216440e-01
-1.148230e-01
-5.132670e-02
-9.371990e-02
9.189430e-02
9.818280e-02
2.023930e-01
1.137500e-01
-1.148230e-01
-1.558850e-01
-9.371990e-02
-9.262240e-02
9.818280e-02
1.063200e-01
1.137500e-01
3.756160e-03
-5.132670e-02
-9.371990e-02
-3.282020e-01
-2.776110e-01
2.023930e-01
1.137500e-01
1.605640e-01
9.279620e-02
-9.371990e-02
-9.262240e-02
-2.776110e-01
-2.925870e-01
1.137500e-01
3.756160e-03
9.279620e-02
4.361500e-02
-3.282020e-01
-2.776110e-01
-1.485020e-01
-1.579790e-01
1.605640e-01
9.279620e-02
-6.933450e-02
-1.008870e-01
-2.776110e-01
-2.925870e-01
-1.579790e-01
-1.880200e-01
9.279620e-02
4.361500e-02
-1.008870e-01
-1.036010e-01
-1.485020e-01
-1.579790e-01
-2.920240e-01
-1.615720e-01
-6.933450e-02
-1.008870e-01
1.502030e-01
2.872130e-02
-1.579790e-01
-1.880200e-01
-1.615720e-01
5.170470e-02
-1.008870e-01
-1.036010e-01
2.872130e-02
-8.143930e-02
-2.920240e-01
-1.615720e-01
-1.254740e-01
2.508870e-02
1.502030e-01
2.872130e-02
-5.856500e-02
-5.981420e-02
-1.615720e-01
5.170470e-02
2.508870e-02
1.130700e-01
2.872130e-02
-8.143930e-02
-5.981420e-02
-1.969110e-02
-1.254740e-01
2.508870e-02
3.177040e-01
1.120600e-01
-5.856500e-02
-5.981420e-02
-1.274940e-01
-1.813150e-02
2.508870e-02
1.130700e-01
1.120600e-01
-3.620470e-02
-5.981420e-02
-1.969110e-02
-1.813150e-02
6.877650e-02
3.177040e-01
1.120600e-01
2.042580e-01
-8.968220e-02
-1.274940e-01
-1.813150e-02
1.069760e-02
1.562180e-01
1.120600e-01
-3.620470e-02
-8.968220e-02
-4.649380e-01
-1.813150e-02
6.877650e-02
1.562180e-01
2.894770e-01
2.042580e-01
-8.968220e-02
2.110360e-02
6.472380e-02
1.069760e-02
1.562180e-01
-5.005350e-02
-9.208220e-02
-8.968220e-02
-4.649380e-01
6.472380e-02
7.515510e-02
1.562180e-01
2.894770e-01
-9.208220e-02
-1.694450e-01
2.110360e-02
6.472380e-02
-2.025540e-01
2.323830e-02
-5.005350e-02
-9.208220e-02
1.614110e-01
-9.031530e-02
6.472380e-02
7.515510e-02
2.323830e-02
2.510810e-01
-9.208220e-02
-1.694450e-01
-9.031530e-02
-3.210190e-01
-2.025540e-01
2.323830e-02
-1.468030e-01
-8.532750e-02
1.614110e-01
-9.031530e-02
9.839010e-02
2.793980e-02
2.323830e-02
2.510810e-01
-8.532750e-02
-1.077980e-01
-9.031530e-02
-3.210190e-01
2.793980e-02
2.459160e-02
-1.468030e-01
-8.532750e-02
4.848170e-02
-7.145110e-02
9.839010e-02
2.793980e-02
1.170960e-01
1.095610e-01
-8.532750e-02
-1.077980e-01
-7.145110e-02
-1.600110e-01
2.793980e-02
2.459160e-02
1.095610e-01
9.757170e-02
4.848170e-02
-7.145110e-02
1.146390e-01
7.843440e-02
1.170960e-01
1.095610e-01
1.398010e-01
1.031990e-01
-7.145110e-02
-1.600110e-01
7.843440e-02
-5.233930e-02
1.095610e-01
9.757170e-02
1.031990e-01
4.428690e-02
1.146390e-01
7.843440e-02
3.127080e-02
-4.209480e-03
1.398010e-01
1.031990e-01
1.158830e-01
6.999290e-02
7.843440e-02
-5.233930e-02
-4.209480e-03
-8.390800e-02
1.031990e-01
4.428690e-02
6.999290e-02
9.495880e-03
3.127080e-02
-4.209480e-03
2.456370e-01
1.115530e-01
1.158830e-01
6.999290e-02
-3.231980e-01
-3.179510e-01
-4.209480e-03
-8.390800e-02
1.115530e-01
-5.106560e-02
6.999290e-02
9.495880e-03
-3.179510e-01
-2.841250e-01
2.456370e-01
1.115530e-01
5.263220e-02
-3.237990e-02
-3.231980e-01
-3.179510e-01
-2.360330e-01
-1.548900e-01
1.115530e-01
-5.106560e-02
-3.237990e-02
-1.754640e-03
-3.179510e-01
-2.841250e-01
-1.548900e-01
-1.155050e-01
5.263220e-02
-3.237990e-02
1.053690e-01
-1.056780e-01
-2.360330e-01
-1.548900e-01
2.131140e-01
1.953370e-01
-3.237990e-02
-1.754640e-03
-1.056780e-01
-2.992780e-01
-1.548900e-01
-1.155050e-01
1.953370e-01
2.187350e-01
1.053690e-01
-1.056780e-01
1.092060e-01
-7.781080e-02
2.131140e-01
1.953370e-01
-3.457300e-02
2.756130e-02
-1.056780e-01
-2.992780e-01
-7.781080e-02
-2.154720e-01
1.953370e-01
2.187350e-01
2.756130e-02
9.452510e-02
1.092060e-01
-7.781080e-02
-9.132720e-02
-1.060730e-01
-3.457300e-02
2.756130e-02
-9.086450e-02
2.298750e-02
-7.781080e-02
-2.154720e-01
-1.060730e-01
-8.312210e-02
2.756130e-02
9.452510e-02
2.298750e-02
1.008320e-01
-9.132720e-02
-1.060730e-01
2.108600e-01
1.027590e-01
-9.086450e-02
2.298750e-02
-2.551970e-01
-1.631350e-01
-1.060730e-01
-8.312210e-02
1.027590e-01
7.870120e-02
2.298750e-02
1.008320e-01
-1.631350e-01
-1.194200e-01
2.108600e-01
1.027590e-01
3.777460e-02
-1.246310e-01
-2.551970e-01
-1.631350e-01
-1.787980e-01
-9.420570e-02
1.027590e-01
7.870120e-02
-1.246310e-01
-3.339670e-01
-1.631350e-01
-1.194200e-01
-9.420570e-02
3.095630e-02
3.777460e-02
-1.246310e-01
1.646370e-02
-1.169700e-01
-1.787980e-01
-9.420570e-02
2.317000e-02
1.291590e-01
-1.246310e-01
-3.339670e-01
-1.169700e-01
-3.209390e-01
-9.420570e-02
3.095630e-02
1.291590e-01
2.385290e-01
1.646370e-02
-1.169700e-01
-9.958530e-02
2.689920e-01
2.317000e-02
1.291590e-01
1.284730e-01
8.110900e-02
-1.169700e-01
-3.209390e-01
2.689920e-01
6.127220e-01
1.291590e-01
2.385290e-01
8.110900e-02
-6.671010e-03
0.000000e+00
0.000000e+00
-6.831270e-02
-1.138590e-03
0.000000e+00
0.000000e+00
-2.305460e-02
-1.918110e-01
0.000000e+00
0.000000e+00
-1.138590e-03
4.955840e-02
0.000000e+00
0.000000e+00
-1.918110e-01
-3.515260e-01
-6.831270e-02
-1.138590e-03
-2.433560e-01
-8.560420e-02
-2.305460e-02
-1.918110e-01
4.305000e-01
6.184160e-02
-1.138590e-03
4.955840e-02
-8.560420e-02
8.298040e-02
-1.918110e-01
-3.515260e-01
6.184160e-02
-2.160510e-01
-2.433560e-01