<?xml version="1.0"?>
<VTKFile type="UnstructuredGrid" version="0.1" byte_order="LittleEndian" compressor="vtkZLibDataCompressor">
<UnstructuredGrid>
<Piece NumberOfPoints="960" NumberOfCells="120">
<Points>
<DataArray type="Float32" NumberOfComponents="3" format="ascii">
-4.000000e+02 -6.000000e+03 -4.000000e+02
0.000000e+00 -6.000000e+03 -4.000000e+02
-4.000010e+02 -5.600090e+03 -3.999540e+02
-2.158550e-06 -5.600090e+03 -3.999560e+02
-4.000000e+02 -6.000000e+03 0.000000e+00
0.000000e+00 -6.000000e+03 0.000000e+00
-3.999990e+02 -5.600000e+03 -2.482070e-02
-5.367880e-07 -5.600000e+03 -2.539990e-02
0.000000e+00 -6.000000e+03 -4.000000e+02
4.000000e+02 -6.000000e+03 -4.000000e+02
-2.158550e-06 -5.600090e+03 -3.999560e+02
4.000010e+02 -5.600090e+03 -3.999540e+02
0.000000e+00 -6.000000e+03 0.000000e+00
4.000000e+02 -6.000000e+03 0.000000e+00
-5.367880e-07 -5.600000e+03 -2.539990e-02
3.999990e+02 -5.600000e+03 -2.484910e-02
-4.000010e+02 -5.600090e+03 -3.999540e+02
-2.158550e-06 -5.600090e+03 -3.999560e+02
-4.000010e+02 -5.200080e+03 -4.001220e+02
6.802300e-06 -5.200080e+03 -4.001240e+02
-3.999990e+02 -5.600000e+03 -2.482070e-02
-5.367880e-07 -5.600000e+03 -2.539990e-02
-3.999990e+02 -5.199980e+03 -1.223660e-01
7.963040e-07 -5.199980e+03 -1.226750e-01
-2.158550e-06 -5.600090e+03 -3.999560e+02
4.000010e+02 -5.600090e+03 -3.999540e+02
6.802300e-06 -5.200080e+03 -4.001240e+02
4.000010e+02 -5.200080e+03 -4.001220e+02
-5.367880e-07 -5.600000e+03 -2.539990e-02
3.999990e+02 -5.600000e+03 -2.484910e-02
7.963040e-07 -5.199980e+03 -1.226750e-01
3.999990e+02 -5.199980e+03 -1.223810e-01
-4.000010e+02 -5.200080e+03 -4.001220e+02
6.802300e-06 -5.200080e+03 -4.001240e+02
-4.000010e+02 -4.800010e+03 -4.001570e+02
2.987300e-06 -4.800010e+03 -4.001580e+02
-3.999990e+02 -5.199980e+03 -1.223660e-01
7.963040e-07 -5.199980e+03 -1.226750e-01
-3.999990e+02 -4.800000e+03 -1.383750e-01
1.608260e-06 -4.800000e+03 -1.384100e-01
6.802300e-06 -5.200080e+03 -4.001240e+02
4.000010e+02 -5.200080e+03 -4.001220e+02
2.987300e-06 -4.800010e+03 -4.001580e+02
4.000010e+02 -4.800010e+03 -4.001570e+02
7.963040e-07 -5.199980e+03 -1.226750e-01
3.999990e+02 -5.199980e+03 -1.223810e-01
1.608260e-06 -4.800000e+03 -1.384100e-01
3.999990e+02 -4.800000e+03 -1.383770e-01
-4.000010e+02 -4.800010e+03 -4.001570e+02
2.987300e-06 -4.800010e+03 -4.001580e+02
-4.000000e+02 -4.400040e+03 -4.002020e+02
7.106730e-06 -4.400040e+03 -4.002020e+02
-3.999990e+02 -4.800000e+03 -1.383750e-01
1.608260e-06 -4.800000e+03 -1.384100e-01
-4.000000e+02 -4.400010e+03 -2.374030e-01
1.469420e-07 -4.400010e+03 -2.375520e-01
2.987300e-06 -4.800010e+03 -4.001580e+02
4.000010e+02 -4.800010e+03 -4.001570e+02
7.106730e-06 -4.400040e+03 -4.002020e+02
4.000000e+02 -4.400040e+03 -4.002020e+02
1.608260e-06 -4.800000e+03 -1.384100e-01
3.999990e+02 -4.800000e+03 -1.383770e-01
1.469420e-07 -4.400010e+03 -2.375520e-01
4.000000e+02 -4.400010e+03 -2.373740e-01
-4.000000e+02 -4.400040e+03 -4.002020e+02
7.106730e-06 -4.400040e+03 -4.002020e+02
-4.000000e+02 -4.000090e+03 -4.002600e+02
8.076490e-06 -4.000090e+03 -4.002590e+02
-4.000000e+02 -4.400010e+03 -2.374030e-01
1.469420e-07 -4.400010e+03 -2.375520e-01
-4.000000e+02 -3.999980e+03 -2.985140e-01
-1.499360e-06 -3.999980e+03 -2.983550e-01
7.106730e-06 -4.400040e+03 -4.002020e+02
4.000000e+02 -4.400040e+03 -4.002020e+02
8.076490e-06 -4.000090e+03 -4.002590e+02
4.000000e+02 -4.000090e+03 -4.002600e+02
1.469420e-07 -4.400010e+03 -2.375520e-01
4.000000e+02 -4.400010e+03 -2.373740e-01
-1.499360e-06 -3.999980e+03 -2.983550e-01
4.000000e+02 -3.999980e+03 -2.984980e-01
-4.000000e+02 -4.000090e+03 -4.002600e+02
8.076490e-06 -4.000090e+03 -4.002590e+02
-3.999990e+02 -3.600110e+03 -4.003520e+02
-3.106940e-06 -3.600110e+03 -4.003510e+02
-4.000000e+02 -3.999980e+03 -2.985140e-01
-1.499360e-06 -3.999980e+03 -2.983550e-01
-4.000000e+02 -3.599980e+03 -3.127350e-01
2.387730e-06 -3.599980e+03 -3.123580e-01
8.076490e-06 -4.000090e+03 -4.002590e+02
4.000000e+02 -4.000090e+03 -4.002600e+02
-3.106940e-06 -3.600110e+03 -4.003510e+02
3.999990e+02 -3.600110e+03 -4.003520e+02
-1.499360e-06 -3.999980e+03 -2.983550e-01
4.000000e+02 -3.999980e+03 -2.984980e-01
2.387730e-06 -3.599980e+03 -3.123580e-01
4.000000e+02 -3.599980e+03 -3.127520e-01
-3.999990e+02 -3.600110e+03 -4.003520e+02
-3.106940e-06 -3.600110e+03 -4.003510e+02
-4.000000e+02 -3.200040e+03 -4.004650e+02
2.621770e-06 -3.200040e+03 -4.004650e+02
-4.000000e+02 -3.599980e+03 -3.127350e-01
2.387730e-06 -3.599980e+03 -3.123580e-01
-4.000000e+02 -3.200020e+03 -4.190430e-01
9.231030e-07 -3.200020e+03 -4.191070e-01
-3.106940e-06 -3.600110e+03 -4.003510e+02
3.999990e+02 -3.600110e+03 -4.003520e+02
2.621770e-06 -3.200040e+03 -4.004650e+02
4.000000e+02 -3.200040e+03 -4.004650e+02
2.387730e-06 -3.599980e+03 -3.123580e-01
4.000000e+02 -3.599980e+03 -3.127520e-01
9.231030e-07 -3.200020e+03 -4.191070e-01
4.000000e+02 -3.200020e+03 -4.190530e-01
-4.000000e+02 -3.200040e+03 -4.004650e+02
2.621770e-06 -3.200040e+03 -4.004650e+02
-4.000000e+02 -2.800000e+03 -4.004000e+02
3.536190e-06 -2.800000e+03 -4.004010e+02
-4.000000e+02 -3.200020e+03 -4.190430e-01
9.231030e-07 -3.200020e+03 -4.191070e-01
-4.000000e+02 -2.800020e+03 -4.480060e-01
-2.462890e-06 -2.800010e+03 -4.482470e-01
2.621770e-06 -3.200040e+03 -4.004650e+02
4.000000e+02 -3.200040e+03 -4.004650e+02
3.536190e-06 -2.800000e+03 -4.004010e+02
4.000000e+02 -2.800000e+03 -4.004000e+02
9.231030e-07 -3.200020e+03 -4.191070e-01
4.000000e+02 -3.200020e+03 -4.190530e-01
-2.462890e-06 -2.800010e+03 -4.482470e-01
4.000000e+02 -2.800020e+03 -4.480280e-01
-4.000000e+02 -2.800000e+03 -4.004000e+02
3.536190e-06 -2.800000e+03 -4.004010e+02
-4.000000e+02 -2.400080e+03 -4.004820e+02
-8.800210e-06 -2.400080e+03 -4.004820e+02
-4.000000e+02 -2.800020e+03 -4.480060e-01
-2.462890e-06 -2.800010e+03 -4.482470e-01
-4.000000e+02 -2.399980e+03 -5.172930e-01
-1.240880e-06 -2.399980e+03 -5.171510e-01
3.536190e-06 -2.800000e+03 -4.004010e+02
4.000000e+02 -2.800000e+03 -4.004000e+02
-8.800210e-06 -2.400080e+03 -4.004820e+02
4.000000e+02 -2.400080e+03 -4.004820e+02
-2.462890e-06 -2.800010e+03 -4.482470e-01
4.000000e+02 -2.800020e+03 -4.480280e-01
-1.240880e-06 -2.399980e+03 -5.171510e-01
4.000000e+02 -2.399980e+03 -5.173400e-01
-4.000000e+02 -2.400080e+03 -4.004820e+02
-8.800210e-06 -2.400080e+03 -4.004820e+02
-4.000000e+02 -2.000100e+03 -4.006420e+02
1.869370e-06 -2.000100e+03 -4.006410e+02
-4.000000e+02 -2.399980e+03 -5.172930e-01
-1.240880e-06 -2.399980e+03 -5.171510e-01
-4.000000e+02 -1.999990e+03 -6.106300e-01
-6.097050e-06 -1.999990e+03 -6.105830e-01
-8.800210e-06 -2.400080e+03 -4.004820e+02
4.000000e+02 -2.400080e+03 -4.004820e+02
1.869370e-06 -2.000100e+03 -4.006410e+02
4.000000e+02 -2.000100e+03 -4.006420e+02
-1.240880e-06 -2.399980e+03 -5.171510e-01
4.000000e+02 -2.399980e+03 -5.173400e-01
-6.097050e-06 -1.999990e+03 -6.105830e-01
4.000000e+02 -1.999990e+03 -6.106650e-01
-4.000000e+02 -2.000100e+03 -4.006420e+02
1.869370e-06 -2.000100e+03 -4.006410e+02
-4.000000e+02 -1.600080e+03 -4.006490e+02
-1.430350e-05 -1.600080e+03 -4.006500e+02
-4.000000e+02 -1.999990e+03 -6.106300e-01
-6.097050e-06 -1.999990e+03 -6.105830e-01
-4.000000e+02 -1.600010e+03 -6.276740e-01
4.192100e-06 -1.600010e+03 -6.280000e-01
1.869370e-06 -2.000100e+03 -4.006410e+02
4.000000e+02 -2.000100e+03 -4.006420e+02
-1.430350e-05 -1.600080e+03 -4.006500e+02
4.000000e+02 -1.600080e+03 -4.006490e+02
-6.097050e-06 -1.999990e+03 -6.105830e-01
4.000000e+02 -1.999990e+03 -6.106650e-01
4.192100e-06 -1.600010e+03 -6.280000e-01
4.000000e+02 -1.600010e+03 -6.276650e-01
-4.000000e+02 -1.600080e+03 -4.006490e+02
-1.430350e-05 -1.600080e+03 -4.006500e+02
-4.000000e+02 -1.200070e+03 -4.007250e+02
-1.942440e-05 -1.200070e+03 -4.007250e+02
-4.000000e+02 -1.600010e+03 -6.276740e-01
4.192100e-06 -1.600010e+03 -6.280000e-01
-4.000000e+02 -1.200010e+03 -7.494200e-01
5.835570e-06 -1.200010e+03 -7.494370e-01
-1.430350e-05 -1.600080e+03 -4.006500e+02
4.000000e+02 -1.600080e+03 -4.006490e+02
-1.942440e-05 -1.200070e+03 -4.007250e+02
4.000000e+02 -1.200070e+03 -4.007250e+02
4.192100e-06 -1.600010e+03 -6.280000e-01
4.000000e+02 -1.600010e+03 -6.276650e-01
5.835570e-06 -1.200010e+03 -7.494370e-01
4.000000e+02 -1.200010e+03 -7.494100e-01
-4.000000e+02 -1.200070e+03 -4.007250e+02
-1.942440e-05 -1.200070e+03 -4.007250e+02
-4.000000e+02 -8.000500e+02 -4.008200e+02
3.102530e-07 -8.000500e+02 -4.008190e+02
-4.000000e+02 -1.200010e+03 -7.494200e-01
5.835570e-06 -1.200010e+03 -7.494370e-01
-4.000000e+02 -7.999940e+02 -8.236130e-01
2.746160e-06 -7.999930e+02 -8.231840e-01
-1.942440e-05 -1.200070e+03 -4.007250e+02
4.000000e+02 -1.200070e+03 -4.007250e+02
3.102530e-07 -8.000500e+02 -4.008190e+02
4.000000e+02 -8.000500e+02 -4.008200e+02
5.835570e-06 -1.200010e+03 -7.494370e-01
4.000000e+02 -1.200010e+03 -7.494100e-01
2.746160e-06 -7.999930e+02 -8.231840e-01
4.000000e+02 -7.999940e+02 -8.236150e-01
-4.000000e+02 -8.000500e+02 -4.008200e+02
3.102530e-07 -8.000500e+02 -4.008190e+02
-4.000000e+02 -4.000810e+02 -4.009010e+02
5.936220e-06 -4.000800e+02 -4.009020e+02
-4.000000e+02 -7.999940e+02 -8.236130e-01
2.746160e-06 -7.999930e+02 -8.231840e-01
-4.000000e+02 -3.999990e+02 -8.842670e-01
-4.980440e-06 -3.999990e+02 -8.850540e-01
3.102530e-07 -8.000500e+02 -4.008190e+02
4.000000e+02 -8.000500e+02 -4.008200e+02
5.936220e-06 -4.000800e+02 -4.009020e+02
4.000000e+02 -4.000810e+02 -4.009010e+02
2.746160e-06 -7.999930e+02 -8.231840e-01
4.000000e+02 -7.999940e+02 -8.236150e-01
-4.980440e-06 -3.999990e+02 -8.850540e-01
4.000000e+02 -3.999990e+02 -8.843020e-01
-4.000000e+02 -4.000810e+02 -4.009010e+02
5.936220e-06 -4.000800e+02 -4.009020e+02
-4.000000e+02 -8.542770e-02 -4.010040e+02
5.156520e-06 -8.550680e-02 -4.010030e+02
-4.000000e+02 -3.999990e+02 -8.842670e-01
-4.980440e-06 -3.999990e+02 -8.850540e-01
-4.000000e+02 -7.741970e-03 -1.000060e+00
-1.244790e-06 -8.272830e-03 -9.999100e-01
5.936220e-06 -4.000800e+02 -4.009020e+02
4.000000e+02 -4.000810e+02 -4.009010e+02
[...]
<PointData>
<DataArray type="Float32" Name="V1" format="ascii">
0.000000e+00
0.000000e+00
-1.268770e-03
1.339320e-05
0.000000e+00
0.000000e+00
1.909700e-03
-6.839870e-06
0.000000e+00
0.000000e+00
1.339320e-05
1.295560e-03
0.000000e+00
0.000000e+00
-6.839870e-06
-1.923390e-03
-1.268770e-03
1.339320e-05
-6.201310e-03
1.259840e-05
1.909700e-03
-6.839870e-06
4.014750e-03
-7.945460e-06
1.339320e-05
1.295560e-03
1.259840e-05
6.226500e-03
-6.839870e-06
-1.923390e-03
-7.945460e-06
-4.030650e-03
-6.201310e-03
1.259840e-05
-3.762690e-03
4.338210e-06
4.014750e-03
-7.945460e-06
2.613960e-03
-3.634590e-06
1.259840e-05
6.226500e-03
4.338210e-06
3.771370e-03
-7.945460e-06
-4.030650e-03
-3.634590e-06
-2.621220e-03
-3.762690e-03
4.338210e-06
1.390590e-03
-7.544240e-06
2.613960e-03
-3.634590e-06
7.085140e-04
7.825610e-06
4.338210e-06
3.771370e-03
-7.544240e-06
-1.405680e-03
-3.634590e-06
-2.621220e-03
7.825610e-06
-6.928630e-04
1.390590e-03
-7.544240e-06
1.467930e-03
3.671470e-06
7.085140e-04
7.825610e-06
-1.258470e-03
-3.471980e-06
-7.544240e-06
-1.405680e-03
3.671470e-06
-1.460580e-03
7.825610e-06
-6.928630e-04
-3.471980e-06
1.251530e-03
1.467930e-03
3.671470e-06
1.092480e-03
-9.565950e-06
-1.258470e-03
-3.471980e-06
-2.962940e-03
3.876160e-06
3.671470e-06
-1.460580e-03
-9.565950e-06
-1.111600e-03
-3.471980e-06
1.251530e-03
3.876160e-06
2.970690e-03
1.092480e-03
-9.565950e-06
4.022880e-03
6.958510e-06
-2.962940e-03
3.876160e-06
-2.786230e-03
-5.032470e-06
-9.565950e-06
-1.111600e-03
6.958510e-06
-4.008970e-03
3.876160e-06
2.970690e-03
-5.032470e-06
2.776170e-03
4.022880e-03
6.958510e-06
3.807330e-03
4.087200e-07
-2.786230e-03
-5.032470e-06
-2.667020e-03
2.333890e-06
6.958510e-06
-4.008970e-03
4.087200e-07
-3.806520e-03
-5.032470e-06
2.776170e-03
2.333890e-06
2.671690e-03
3.807330e-03
4.087200e-07
-1.666650e-03
8.421800e-06
-2.667020e-03
2.333890e-06
1.441860e-04
-8.836880e-06
4.087200e-07
-3.806520e-03
8.421800e-06
1.683500e-03
2.333890e-06
2.671690e-03
-8.836880e-06
-1.618630e-04
-1.666650e-03
8.421800e-06
-1.636830e-03
1.268010e-05
1.441860e-04
-8.836880e-06
2.489130e-03
-5.481280e-06
8.421800e-06
1.683500e-03
1.268010e-05
1.662210e-03
-8.836880e-06
-1.618630e-04
-5.481280e-06
-2.500090e-03
-1.636830e-03
1.268010e-05
-3.302020e-03
-2.847500e-06
2.489130e-03
-5.481280e-06
4.183880e-03
-1.586340e-06
1.268010e-05
1.662210e-03
-2.847500e-06
3.296320e-03
-5.481280e-06
-2.500090e-03
-1.586340e-06
-4.187060e-03
-3.302020e-03
-2.847500e-06
-6.501360e-03
8.244750e-07
4.183880e-03
-1.586340e-06
4.021710e-03
2.001440e-06
-2.847500e-06
3.296320e-03
8.244750e-07
6.503000e-03
-1.586340e-06
-4.187060e-03
2.001440e-06
-4.017710e-03
-6.501360e-03
8.244750e-07
-1.444710e-03
-3.077770e-06
4.021710e-03
2.001440e-06
1.562750e-03
2.487480e-07
8.244750e-07
6.503000e-03
-3.077770e-06
1.438560e-03
2.001440e-06
-4.017710e-03
2.487480e-07
-1.562250e-03
-1.444710e-03
-3.077770e-06
3.537360e-03
-1.043710e-05
1.562750e-03
2.487480e-07
-1.262170e-03
6.261200e-06
-3.077770e-06
1.438560e-03
-1.043710e-05
-3.558240e-03
2.487480e-07
-1.562250e-03
6.261200e-06
1.274700e-03
3.537360e-03
-1.043710e-05
3.225330e-03
5.421730e-07
-1.262170e-03
6.261200e-06
-4.042550e-03
1.971390e-06
-1.043710e-05
-3.558240e-03
5.421730e-07
-3.224260e-03
6.261200e-06
1.274700e-03
1.971390e-06
4.046490e-03
3.225330e-03
5.421730e-07
2.237690e-03
4.463670e-06
-4.042550e-03
1.971390e-06
-3.825670e-03
-2.013900e-06
5.421730e-07
-3.224260e-03
4.463670e-06
-2.228770e-03
1.971390e-06
4.046490e-03
-2.013900e-06
3.821650e-03
2.237690e-03
4.463670e-06
4.647940e-03
-1.499570e-05
-3.825670e-03
-2.013900e-06
-3.216830e-03
1.050020e-05
4.463670e-06
-2.228770e-03
-1.499570e-05
-4.677930e-03
-2.013900e-06
3.821650e-03
1.050020e-05
3.237830e-03
4.647940e-03
-1.499570e-05
1.300300e-03
-1.431870e-05
-3.216830e-03
1.050020e-05
-1.074920e-03
6.870210e-06
-1.499570e-05
-4.677930e-03
-1.431870e-05
-1.328930e-03
1.050020e-05
3.237830e-03
6.870210e-06
1.088660e-03
1.300300e-03
-1.431870e-05
-2.901960e-03
1.360020e-05
-1.074920e-03
6.870210e-06
1.905230e-03
-1.171170e-05
-1.431870e-05
-1.328930e-03
1.360020e-05
2.929170e-03
6.870210e-06
1.088660e-03
-1.171170e-05
-1.928660e-03
-2.901960e-03
1.360020e-05
-2.571060e-03
3.142130e-06
1.905230e-03
-1.171170e-05
3.456770e-03
-2.907620e-06
1.360020e-05
2.929170e-03
3.142130e-06
2.577330e-03
-1.171170e-05
-1.928660e-03
-2.907620e-06
-3.462580e-03
-2.571060e-03
3.142130e-06
-3.898800e-03
2.037900e-06
3.456770e-03
-2.907620e-06
4.085690e-03
-7.306350e-07
3.142130e-06
2.577330e-03
2.037900e-06
3.902870e-03
-2.907620e-06
-3.462580e-03
-7.306350e-07
-4.087160e-03
-3.898800e-03
2.037900e-06
-4.294880e-03
-4.716570e-06
4.085690e-03
-7.306350e-07
2.444360e-03
1.142560e-06
2.037900e-06
3.902870e-03
-4.716570e-06
4.285450e-03
-7.306350e-07
-4.087160e-03
1.142560e-06
-2.442080e-03
-4.294880e-03
-4.716570e-06
5.122720e-04
-3.156050e-07
2.444360e-03
1.142560e-06
-9.221870e-05
-1.251320e-06
-4.716570e-06
4.285450e-03
-3.156050e-07
-5.128990e-04
1.142560e-06
-2.442080e-03
-1.251320e-06
8.970960e-05
5.122720e-04
-3.156050e-07
3.868980e-03
-1.071020e-05
-9.221870e-05
-1.251320e-06
-1.838170e-03
7.705650e-06
-3.156050e-07
-5.128990e-04
-1.071020e-05
-3.890380e-03
-1.251320e-06
8.970960e-05
7.705650e-06
1.853570e-03
3.868980e-03
-1.071020e-05
2.055800e-03
1.202600e-05
-1.838170e-03
7.705650e-06
-3.466580e-03
-5.475850e-06
-1.071020e-05
-3.890380e-03
1.202600e-05
-2.031750e-03
7.705650e-06
1.853570e-03
-5.475850e-06
3.455640e-03
2.055800e-03
1.202600e-05
2.599270e-03
7.919240e-07
-3.466580e-03
-5.475850e-06
-2.804380e-03
5.035210e-06
1.202600e-05
-2.031750e-03
7.919240e-07
-2.597700e-03
-5.475850e-06
3.455640e-03
5.035210e-06
2.814460e-03
2.599270e-03
7.919240e-07
3.742030e-03
1.909290e-06
-2.804380e-03
5.035210e-06
-2.270830e-03
-3.387830e-06
7.919240e-07
-2.597700e-03
1.909290e-06
-3.738220e-03
5.035210e-06
2.814460e-03
-3.387830e-06
2.264060e-03
3.742030e-03
1.909290e-06
-9.297000e-04
-5.022840e-07
-2.270830e-03
-3.387830e-06
5.813760e-04
2.252290e-06
1.909290e-06
-3.738220e-03
-5.022840e-07
9.286920e-04
-3.387830e-06
2.264060e-03
2.252290e-06
-5.768770e-04
-9.297000e-04
-5.022840e-07
-4.350300e-03
6.423960e-06
5.813760e-04
2.252290e-06
2.594680e-03
-2.505810e-06
-5.022840e-07
9.286920e-04
6.423960e-06
4.363160e-03
2.252290e-06
-5.768770e-04
-2.505810e-06
-2.599700e-03
-4.350300e-03
6.423960e-06
-2.064290e-03
-2.510200e-06
2.594680e-03
-2.505810e-06
4.051300e-03
4.585380e-06
6.423960e-06
4.363160e-03
-2.510200e-06
2.059290e-03
-2.505810e-06
-2.599700e-03
4.585380e-06
-4.042140e-03
0.000000e+00
0.000000e+00
1.909700e-03
-6.839870e-06
0.000000e+00
0.000000e+00
-2.546350e-03
3.538880e-07
0.000000e+00
0.000000e+00
-6.839870e-06
-1.923390e-03
0.000000e+00
0.000000e+00
3.538880e-07
2.547060e-03
1.909700e-03
-6.839870e-06
4.014750e-03
-7.945460e-06
-2.546350e-03
3.538880e-07
-1.831420e-03
3.300950e-06
-6.839870e-06
-1.923390e-03
-7.945460e-06
-4.030650e-03
3.538880e-07
2.547060e-03
3.300950e-06
1.838030e-03
4.014750e-03
-7.945460e-06
2.613960e-03
-3.634590e-06
-1.831420e-03
3.300950e-06
-1.467480e-03
2.928120e-06
-7.945460e-06
-4.030650e-03
-3.634590e-06
-2.621220e-03
3.300950e-06
1.838030e-03
2.928120e-06
1.473320e-03
2.613960e-03
-3.634590e-06
7.085140e-04
7.825610e-06
-1.467480e-03
2.928120e-06
-2.802580e-03
-8.162480e-06
-3.634590e-06
-2.621220e-03
7.825610e-06
-6.928630e-04
2.928120e-06
1.473320e-03
-8.162480e-06
2.786260e-03
7.085140e-04
7.825610e-06
-1.258470e-03
-3.471980e-06
-2.802580e-03
-8.162480e-06
1.049860e-03
3.305970e-06
7.825610e-06
-6.928630e-04
-3.471980e-06
1.251530e-03
-8.162480e-06
2.786260e-03
3.305970e-06
-1.043260e-03
-1.258470e-03
-3.471980e-06
-2.962940e-03
3.876160e-06
1.049860e-03
3.305970e-06
4.825710e-03
1.836770e-06
-3.471980e-06
1.251530e-03
3.876160e-06
2.970690e-03
3.305970e-06
-1.043260e-03
1.836770e-06
-4.822040e-03
-2.962940e-03
3.876160e-06
-2.786230e-03
-5.032470e-06
4.825710e-03
1.836770e-06
1.554270e-03
3.164470e-06
3.876160e-06
2.970690e-03
-5.032470e-06
2.776170e-03
1.836770e-06
-4.822040e-03
3.164470e-06
-1.547940e-03
-2.786230e-03
-5.032470e-06
-2.667020e-03
2.333890e-06
1.554270e-03
3.164470e-06
1.532470e-03
-5.178190e-06
-5.032470e-06
2.776170e-03
2.333890e-06
2.671690e-03
3.164470e-06
-1.547940e-03
-5.178190e-06
-1.542830e-03
-2.667020e-03
2.333890e-06
1.441860e-04
-8.836880e-06
1.532470e-03
-5.178190e-06
1.368410e-03
9.237670e-06
2.333890e-06
2.671690e-03
-8.836880e-06
-1.618630e-04
-5.178190e-06
-1.542830e-03
9.237670e-06
-1.349930e-03
1.441860e-04
-8.836880e-06
2.489130e-03
-5.481280e-06
1.368410e-03
9.237670e-06
-3.338210e-03
-1.661980e-06
-8.836880e-06
-1.618630e-04
-5.481280e-06
-2.500090e-03
9.237670e-06
-1.349930e-03
-1.661980e-06
3.334880e-03
2.489130e-03
-5.481280e-06
4.183880e-03
-1.586340e-06
-3.338210e-03
-1.661980e-06
-5.059570e-03
5.984320e-06
-5.481280e-06
-2.500090e-03
-1.586340e-06
-4.187060e-03
-1.661980e-06
3.334880e-03
5.984320e-06
5.071540e-03
4.183880e-03
-1.586340e-06
4.021710e-03
2.001440e-06
-5.059570e-03
5.984320e-06
-1.550900e-03
-4.879310e-06
-1.586340e-06
-4.187060e-03
2.001440e-06
-4.017710e-03
5.984320e-06
5.071540e-03
-4.879310e-06
1.541150e-03
4.021710e-03
2.001440e-06
1.562750e-03
2.487480e-07
-1.550900e-03
-4.879310e-06
-1.678080e-03
2.575340e-06
2.001440e-06
-4.017710e-03
2.487480e-07
-1.562250e-03
-4.879310e-06
1.541150e-03
2.575340e-06
1.683240e-03
1.562750e-03
2.487480e-07
-1.262170e-03
6.261200e-06
-1.678080e-03
2.575340e-06
-1.006370e-03
-2.041240e-06
2.487480e-07
-1.562250e-03
6.261200e-06
1.274700e-03
2.575340e-06
1.683240e-03
-2.041240e-06
1.002280e-03
-1.262170e-03
6.261200e-06
-4.042550e-03
1.971390e-06
-1.006370e-03
-2.041240e-06
4.851800e-03
-4.517780e-06
6.261200e-06
1.274700e-03
1.971390e-06
4.046490e-03
-2.041240e-06
1.002280e-03
-4.517780e-06
-4.860840e-03
-4.042550e-03
1.971390e-06
-3.825670e-03
-2.013900e-06
4.851800e-03
-4.517780e-06
5.415680e-03
-3.459700e-07
1.971390e-06
4.046490e-03
-2.013900e-06
3.821650e-03
-4.517780e-06
-4.860840e-03
-3.459700e-07
-5.416370e-03
-3.825670e-03
-2.013900e-06
-3.216830e-03
1.050020e-05
5.415680e-03
-3.459700e-07
1.790910e-03
-5.940750e-06
-2.013900e-06
3.821650e-03
1.050020e-05
3.237830e-03
-3.459700e-07
-5.416370e-03
-5.940750e-06
-1.802790e-03
-3.216830e-03
1.050020e-05
-1.074920e-03
6.870210e-06
1.790910e-03
-5.940750e-06
8.439130e-04
5.313300e-07
1.050020e-05
3.237830e-03
6.870210e-06
1.088660e-03
-5.940750e-06
-1.802790e-03
5.313300e-07
-8.428570e-04
-1.074920e-03
6.870210e-06
1.905230e-03
-1.171170e-05
8.439130e-04
5.313300e-07
-9.103790e-04
9.759990e-06
6.870210e-06
1.088660e-03
-1.171170e-05
-1.928660e-03
5.313300e-07
-8.428570e-04
9.759990e-06
9.298870e-04
1.905230e-03
-1.171170e-05
3.456770e-03
-2.907620e-06
-9.103790e-04
9.759990e-06
-4.336010e-03
2.658630e-06
-1.171170e-05
-1.928660e-03
-2.907620e-06
-3.462580e-03
9.759990e-06
9.298870e-04
2.658630e-06
4.341340e-03
3.456770e-03
-2.907620e-06
4.085690e-03
-7.306350e-07
-4.336010e-03
2.658630e-06
-4.275710e-03
-6.016210e-07
-2.907620e-06
-3.462580e-03
-7.306350e-07
-4.087160e-03
2.658630e-06
4.341340e-03
-6.016210e-07
4.274530e-03
4.085690e-03
-7.306350e-07
2.444360e-03
1.142560e-06
-4.275710e-03
-6.016210e-07
-5.971150e-04
2.557330e-06
-7.306350e-07
-4.087160e-03
1.142560e-06
-2.442080e-03
-6.016210e-07
4.274530e-03
2.557330e-06
6.022220e-04
2.444360e-03
1.142560e-06
-9.221870e-05
-1.251320e-06
-5.971150e-04
2.557330e-06
-3.223220e-04
2.817570e-06
1.142560e-06
-2.442080e-03
-1.251320e-06
8.970960e-05
2.557330e-06
6.022220e-04
2.817570e-06
3.279440e-04
-9.221870e-05
-1.251320e-06
-1.838170e-03
7.705650e-06
-3.223220e-04
2.817570e-06
-1.946700e-04
-4.777440e-06
-1.251320e-06
8.970960e-05
7.705650e-06
1.853570e-03
2.817570e-06
3.279440e-04
-4.777440e-06
1.851100e-04
-1.838170e-03
7.705650e-06
-3.466580e-03
-5.475850e-06
-1.946700e-04
-4.777440e-06
4.874250e-03
-1.021530e-06
7.705650e-06
1.853570e-03
-5.475850e-06
3.455640e-03
-4.777440e-06
1.851100e-04
-1.021530e-06
-4.876280e-03
-3.466580e-03
-5.475850e-06
-2.804380e-03
5.035210e-06
4.874250e-03
-1.021530e-06
3.013610e-03
-1.099290e-05
-5.475850e-06
3.455640e-03
5.035210e-06
2.814460e-03
-1.021530e-06
-4.876280e-03
-1.099290e-05
-3.035590e-03
-2.804380e-03
5.035210e-06
-2.270830e-03
-3.387830e-06
3.013610e-03
-1.099290e-05
8.000040e-04
4.851390e-06
5.035210e-06
2.814460e-03
-3.387830e-06
2.264060e-03
-1.099290e-05
-3.035590e-03
4.851390e-06
-7.902990e-04
-2.270830e-03
-3.387830e-06
5.813760e-04
2.252290e-06
8.000040e-04
4.851390e-06
-2.376210e-04
-3.887640e-06
-3.387830e-06
2.264060e-03
2.252290e-06
-5.768770e-04
4.851390e-06
-7.902990e-04
-3.887640e-06
2.298430e-04
5.813760e-04
2.252290e-06
2.594680e-03
-2.505810e-06
-2.376210e-04
-3.887640e-06
-8.353630e-04
-1.450130e-06
2.252290e-06
-5.768770e-04
-2.505810e-06
-2.599700e-03
-3.887640e-06
2.298430e-04
-1.450130e-06
8.324570e-04
2.594680e-03
-2.505810e-06
4.051300e-03
4.585380e-06
-8.353630e-04
-1.450130e-06
-6.040200e-03
-6.617640e-06
-2.505810e-06
-2.599700e-03
4.585380e-06
-4.042140e-03
-1.450130e-06
8.324570e-04
-6.617640e-06
6.026970e-03
</DataArray>
<DataArray type="Float32" Name="V2" format="ascii">
0.000000e+00
0.000000e+00
2.207330e-02
2.137360e-02
0.000000e+00
0.000000e+00
-1.713330e-02
-1.673470e-02
0.000000e+00
0.000000e+00
2.137360e-02
2.203440e-02
0.000000e+00
0.000000e+00
-1.673470e-02
-1.709080e-02
2.207330e-02
2.137360e-02
-1.328350e-02
-1.161150e-02
-1.713330e-02
-1.673470e-02
5.726060e-03
5.705900e-03
2.137360e-02
2.203440e-02
-1.161150e-02
-1.323920e-02
-1.673470e-02
-1.709080e-02
5.705900e-03
5.693880e-03
-1.328350e-02
-1.161150e-02
-3.082830e-02
-3.179200e-02
5.726060e-03
5.705900e-03
2.689040e-02
2.640570e-02
-1.161150e-02
-1.323920e-02
-3.179200e-02
-3.080930e-02
5.705900e-03
5.693880e-03
2.640570e-02
2.689760e-02
-3.082830e-02
-3.179200e-02
8.785890e-03
8.582230e-03
2.689040e-02
2.640570e-02
-6.965390e-03
-8.041140e-03
-3.179200e-02
-3.080930e-02
8.582230e-03
8.734740e-03
2.640570e-02
2.689760e-02
-8.041140e-03
-6.907710e-03
8.785890e-03
8.582230e-03
8.842320e-03
9.367670e-03
-6.965390e-03
-8.041140e-03
-1.855250e-02
-1.748940e-02
8.582230e-03
8.734740e-03
9.367670e-03
8.864040e-03
-8.041140e-03
-6.907710e-03
-1.748940e-02
-1.857200e-02
8.842320e-03
9.367670e-03
-9.509890e-03
-1.006910e-02
-1.855250e-02
-1.748940e-02
2.026060e-02
2.078060e-02
9.367670e-03
8.864040e-03
-1.006910e-02
-9.456300e-03
-1.748940e-02
-1.857200e-02
2.078060e-02
2.022130e-02
-9.509890e-03
-1.006910e-02
-1.151980e-02
-1.320050e-02
2.026060e-02
2.078060e-02
1.678710e-02
1.650140e-02
-1.006910e-02
-9.456300e-03
-1.320050e-02
-1.153540e-02
2.078060e-02
2.022130e-02
1.650140e-02
1.680600e-02
-1.151980e-02
-1.320050e-02
1.369540e-02
1.518730e-02
1.678710e-02
1.650140e-02
-2.790810e-02
-2.864200e-02
-1.320050e-02
-1.153540e-02
1.518730e-02
1.370170e-02
1.650140e-02
1.680600e-02
-2.864200e-02
-2.790980e-02
1.369540e-02
1.518730e-02
8.460320e-04
1.995770e-03
-2.790810e-02
-2.864200e-02
-3.336210e-04
-7.599550e-04
1.518730e-02
1.370170e-02
1.995770e-03
8.778170e-04
-2.864200e-02
-2.790980e-02
-7.599550e-04
-3.699440e-04
8.460320e-04
1.995770e-03
-9.377040e-03
-1.122300e-02
-3.336210e-04
-7.599550e-04
1.193990e-02
1.246150e-02
1.995770e-03
8.778170e-04
-1.122300e-02
-9.381660e-03
-7.599550e-04
-3.699440e-04
1.246150e-02
1.194400e-02
-9.377040e-03
-1.122300e-02
2.543820e-02
2.634440e-02
1.193990e-02
1.246150e-02
-1.225530e-02
-1.250620e-02
-1.122300e-02
-9.381660e-03
2.634440e-02
2.541210e-02
1.246150e-02
1.194400e-02
-1.250620e-02
-1.222240e-02
2.543820e-02
2.634440e-02
-9.662090e-03
-8.316830e-03
-1.225530e-02
-1.250620e-02
9.083380e-03
8.756180e-03
2.634440e-02
2.541210e-02
-8.316830e-03
-9.669710e-03
-1.250620e-02
-1.222240e-02
8.756180e-03
9.080270e-03
-9.662090e-03
-8.316830e-03
-2.732220e-02
-2.801570e-02
9.083380e-03
8.756180e-03
2.699350e-03
2.198100e-03
-8.316830e-03
-9.669710e-03
-2.801570e-02
-2.730180e-02
8.756180e-03
9.080270e-03
2.198100e-03
2.683180e-03
-2.732220e-02
-2.801570e-02
1.998310e-02
1.896330e-02
2.699350e-03
2.198100e-03
-1.365850e-02
-1.300110e-02
-2.801570e-02
-2.730180e-02
1.896330e-02
1.998290e-02
2.198100e-03
2.683180e-03
-1.300110e-02
-1.364520e-02
1.998310e-02
1.896330e-02
2.794080e-03
4.257240e-03
-1.365850e-02
-1.300110e-02
8.734070e-03
8.888450e-03
1.896330e-02
1.998290e-02
4.257240e-03
2.783460e-03
-1.300110e-02
-1.364520e-02
8.888450e-03
8.746490e-03
2.794080e-03
4.257240e-03
-1.413130e-03
-1.942020e-03
8.734070e-03
8.888450e-03
1.052030e-02
1.074840e-02
4.257240e-03
2.783460e-03
-1.942020e-03
-1.403000e-03
8.888450e-03
8.746490e-03
1.074840e-02
1.049950e-02
-1.413130e-03
-1.942020e-03
2.448130e-02
2.323310e-02
1.052030e-02
1.074840e-02
-2.463930e-02
-2.453660e-02
-1.942020e-03
-1.403000e-03
2.323310e-02
2.449870e-02
1.074840e-02
1.049950e-02
-2.453660e-02
-2.464020e-02
2.448130e-02
2.323310e-02
-3.416670e-02
-3.139220e-02
-2.463930e-02
-2.453660e-02
1.002780e-02
8.278330e-03
2.323310e-02
2.449870e-02
-3.139220e-02
-3.414840e-02
-2.453660e-02
-2.464020e-02
8.278330e-03
1.002840e-02
-3.416670e-02
-3.139220e-02
-9.487720e-03
-1.041130e-02
1.002780e-02
8.278330e-03
1.803390e-02
1.896030e-02
-3.139220e-02
-3.414840e-02
-1.041130e-02
-9.485760e-03
8.278330e-03
1.002840e-02
1.896030e-02
1.802540e-02
-9.487720e-03
-1.041130e-02
4.134870e-02
3.921610e-02
1.803390e-02
1.896030e-02
-2.210290e-02
-2.087050e-02
-1.041130e-02
-9.485760e-03
3.921610e-02
4.136770e-02
1.896030e-02
1.802540e-02
-2.087050e-02
-2.210970e-02
4.134870e-02
3.921610e-02
-6.115180e-03
-4.286590e-03
-2.210290e-02
-2.087050e-02
6.539140e-03
5.604110e-03
3.921610e-02
4.136770e-02
-4.286590e-03
-6.105960e-03
-2.087050e-02
-2.210970e-02
5.604110e-03
6.550530e-03
-6.115180e-03
-4.286590e-03
-1.735140e-02
-1.674820e-02
6.539140e-03
5.604110e-03
1.061910e-02
1.014980e-02
-4.286590e-03
-6.105960e-03
-1.674820e-02
-1.736010e-02
5.604110e-03
6.550530e-03
1.014980e-02
1.064330e-02
-1.735140e-02
-1.674820e-02
-1.011570e-02
-1.236000e-02
1.061910e-02
1.014980e-02
-1.385270e-02
-1.340070e-02
-1.674820e-02
-1.736010e-02
-1.236000e-02
-1.013400e-02
1.014980e-02
1.064330e-02
-1.340070e-02
-1.383380e-02
-1.011570e-02
-1.236000e-02
4.552710e-03
3.658830e-03
-1.385270e-02
-1.340070e-02
3.838130e-04
1.810520e-03
-1.236000e-02
-1.013400e-02
3.658830e-03
4.571100e-03
-1.340070e-02
-1.383380e-02
1.810520e-03
3.787940e-04
4.552710e-03
3.658830e-03
9.889030e-03
1.061090e-02
3.838130e-04
1.810520e-03
1.580130e-02
1.596700e-02
3.658830e-03
4.571100e-03
1.061090e-02
9.924250e-03
1.810520e-03
3.787940e-04
1.596700e-02
1.578510e-02
9.889030e-03
1.061090e-02
1.771500e-02
1.691740e-02
1.580130e-02
1.596700e-02
-1.401640e-02
-1.432500e-02
1.061090e-02
9.924250e-03
1.691740e-02
1.769510e-02
1.596700e-02
1.578510e-02
-1.432500e-02
-1.399330e-02
1.771500e-02
1.691740e-02
-2.668820e-03
-1.926010e-03
-1.401640e-02
-1.432500e-02
-8.077570e-03
-9.123520e-03
1.691740e-02
1.769510e-02
-1.926010e-03
-2.686810e-03
-1.432500e-02
-1.399330e-02
-9.123520e-03
-8.065490e-03
-2.668820e-03
-1.926010e-03
-4.351720e-02
-4.248000e-02
-8.077570e-03
-9.123520e-03
1.984210e-02
1.952170e-02
-1.926010e-03
-2.686810e-03
-4.248000e-02
-4.349330e-02
-9.123520e-03
-8.065490e-03
1.952170e-02
1.982540e-02
-4.351720e-02
-4.248000e-02
1.218530e-02
1.032840e-02
1.984210e-02
1.952170e-02
-1.272600e-02
-1.171130e-02
-4.248000e-02
-4.349330e-02
1.032840e-02
1.217360e-02
1.952170e-02
1.982540e-02
-1.171130e-02
-1.270940e-02
1.218530e-02
1.032840e-02
6.398260e-02
6.165230e-02
-1.272600e-02
-1.171130e-02
-3.298080e-02
-3.360220e-02
1.032840e-02
1.217360e-02
6.165230e-02
6.393240e-02
-1.171130e-02
-1.270940e-02
-3.360220e-02
-3.294520e-02
0.000000e+00
0.000000e+00
-1.713330e-02
-1.673470e-02
0.000000e+00
0.000000e+00
1.223570e-02
1.213900e-02
0.000000e+00
0.000000e+00
-1.673470e-02
-1.709080e-02
0.000000e+00
0.000000e+00
1.213900e-02
1.218940e-02
-1.713330e-02
-1.673470e-02
5.726060e-03
5.705900e-03
1.223570e-02
1.213900e-02
1.806280e-03
1.776620e-04
-1.673470e-02
-1.709080e-02
5.705900e-03
5.693880e-03
1.213900e-02
1.218940e-02
1.776620e-04
1.826540e-03
5.726060e-03
5.705900e-03