<?xml version="1.0"?>
<VTKFile type="UnstructuredGrid" version="0.1" byte_order="LittleEndian" compressor="vtkZLibDataCompressor">
<UnstructuredGrid>
<Piece NumberOfPoints="960" NumberOfCells="120">
<Points>
<DataArray type="Float32" NumberOfComponents="3" format="ascii">
-4.000000e+02 -6.000000e+03 -4.000000e+02
0.000000e+00 -6.000000e+03 -4.000000e+02
-4.000680e+02 -5.600220e+03 -4.002400e+02
-6.762260e-02 -5.600170e+03 -4.003100e+02
-4.000000e+02 -6.000000e+03 0.000000e+00
0.000000e+00 -6.000000e+03 0.000000e+00
-3.999710e+02 -5.600000e+03 -4.376800e-02
3.189200e-02 -5.600010e+03 -1.130610e-01
0.000000e+00 -6.000000e+03 -4.000000e+02
4.000000e+02 -6.000000e+03 -4.000000e+02
-6.762260e-02 -5.600170e+03 -4.003100e+02
3.999320e+02 -5.600110e+03 -4.003920e+02
0.000000e+00 -6.000000e+03 0.000000e+00
4.000000e+02 -6.000000e+03 0.000000e+00
3.189200e-02 -5.600010e+03 -1.130610e-01
4.000350e+02 -5.600000e+03 -1.761190e-01
-4.000680e+02 -5.600220e+03 -4.002400e+02
-6.762260e-02 -5.600170e+03 -4.003100e+02
-4.000000e+02 -5.200310e+03 -4.003410e+02
7.882450e-05 -5.200280e+03 -4.002990e+02
-3.999710e+02 -5.600000e+03 -4.376800e-02
3.189200e-02 -5.600010e+03 -1.130610e-01
-4.000110e+02 -5.200040e+03 -2.208470e-01
-7.953020e-03 -5.200030e+03 -2.159510e-01
-6.762260e-02 -5.600170e+03 -4.003100e+02
3.999320e+02 -5.600110e+03 -4.003920e+02
7.882450e-05 -5.200280e+03 -4.002990e+02
4.000010e+02 -5.200240e+03 -4.002720e+02
3.189200e-02 -5.600010e+03 -1.130610e-01
4.000350e+02 -5.600000e+03 -1.761190e-01
-7.953020e-03 -5.200030e+03 -2.159510e-01
3.999950e+02 -5.200020e+03 -2.069250e-01
-4.000000e+02 -5.200310e+03 -4.003410e+02
7.882450e-05 -5.200280e+03 -4.002990e+02
-4.000050e+02 -4.800230e+03 -4.004960e+02
-6.410390e-03 -4.800230e+03 -4.005270e+02
-4.000110e+02 -5.200040e+03 -2.208470e-01
-7.953020e-03 -5.200030e+03 -2.159510e-01
-4.000050e+02 -4.800020e+03 -5.195150e-01
-4.729660e-03 -4.800000e+03 -5.319420e-01
7.882450e-05 -5.200280e+03 -4.002990e+02
4.000010e+02 -5.200240e+03 -4.002720e+02
-6.410390e-03 -4.800230e+03 -4.005270e+02
3.999920e+02 -4.800230e+03 -4.005720e+02
-7.953020e-03 -5.200030e+03 -2.159510e-01
3.999950e+02 -5.200020e+03 -2.069250e-01
-4.729660e-03 -4.800000e+03 -5.319420e-01
3.999950e+02 -4.799990e+03 -5.435560e-01
-4.000050e+02 -4.800230e+03 -4.004960e+02
-6.410390e-03 -4.800230e+03 -4.005270e+02
-3.999090e+02 -4.400080e+03 -4.007650e+02
6.970050e-02 -4.400080e+03 -4.006550e+02
-4.000050e+02 -4.800020e+03 -5.195150e-01
-4.729660e-03 -4.800000e+03 -5.319420e-01
-3.999850e+02 -4.399990e+03 -7.930250e-01
2.988210e-02 -4.399980e+03 -7.232670e-01
-6.410390e-03 -4.800230e+03 -4.005270e+02
3.999920e+02 -4.800230e+03 -4.005720e+02
6.970050e-02 -4.400080e+03 -4.006550e+02
4.000480e+02 -4.400080e+03 -4.005960e+02
-4.729660e-03 -4.800000e+03 -5.319420e-01
3.999950e+02 -4.799990e+03 -5.435560e-01
2.988210e-02 -4.399980e+03 -7.232670e-01
4.000450e+02 -4.399970e+03 -6.566170e-01
-3.999090e+02 -4.400080e+03 -4.007650e+02
6.970050e-02 -4.400080e+03 -4.006550e+02
-3.998510e+02 -4.000050e+03 -4.011050e+02
1.430290e-01 -4.000050e+03 -4.009220e+02
-3.999850e+02 -4.399990e+03 -7.930250e-01
2.988210e-02 -4.399980e+03 -7.232670e-01
-3.999790e+02 -4.000020e+03 -9.517140e-01
2.486220e-02 -4.000030e+03 -7.917510e-01
6.970050e-02 -4.400080e+03 -4.006550e+02
4.000480e+02 -4.400080e+03 -4.005960e+02
1.430290e-01 -4.000050e+03 -4.009220e+02
4.001370e+02 -4.000070e+03 -4.007690e+02
2.988210e-02 -4.399980e+03 -7.232670e-01
4.000450e+02 -4.399970e+03 -6.566170e-01
2.486220e-02 -4.000030e+03 -7.917510e-01
4.000280e+02 -4.000040e+03 -6.372200e-01
-3.998510e+02 -4.000050e+03 -4.011050e+02
1.430290e-01 -4.000050e+03 -4.009220e+02
-3.998050e+02 -3.600250e+03 -4.010090e+02
1.996670e-01 -3.600270e+03 -4.007970e+02
-3.999790e+02 -4.000020e+03 -9.517140e-01
2.486220e-02 -4.000030e+03 -7.917510e-01
-4.000040e+02 -3.600010e+03 -1.215350e+00
-5.833210e-03 -3.600030e+03 -9.769480e-01
1.430290e-01 -4.000050e+03 -4.009220e+02
4.001370e+02 -4.000070e+03 -4.007690e+02
1.996670e-01 -3.600270e+03 -4.007970e+02
4.002040e+02 -3.600280e+03 -4.005770e+02
2.486220e-02 -4.000030e+03 -7.917510e-01
4.000280e+02 -4.000040e+03 -6.372200e-01
-5.833210e-03 -3.600030e+03 -9.769480e-01
3.999920e+02 -3.600040e+03 -7.351740e-01
-3.998050e+02 -3.600250e+03 -4.010090e+02
1.996670e-01 -3.600270e+03 -4.007970e+02
-3.997480e+02 -3.200510e+03 -4.013900e+02
2.558010e-01 -3.200510e+03 -4.011170e+02
-4.000040e+02 -3.600010e+03 -1.215350e+00
-5.833210e-03 -3.600030e+03 -9.769480e-01
-4.000160e+02 -3.199940e+03 -1.583530e+00
-2.163940e-02 -3.199940e+03 -1.311520e+00
1.996670e-01 -3.600270e+03 -4.007970e+02
4.002040e+02 -3.600280e+03 -4.005770e+02
2.558010e-01 -3.200510e+03 -4.011170e+02
4.002600e+02 -3.200520e+03 -4.008090e+02
-5.833210e-03 -3.600030e+03 -9.769480e-01
3.999920e+02 -3.600040e+03 -7.351740e-01
-2.163940e-02 -3.199940e+03 -1.311520e+00
3.999720e+02 -3.199940e+03 -1.041640e+00
-3.997480e+02 -3.200510e+03 -4.013900e+02
2.558010e-01 -3.200510e+03 -4.011170e+02
-3.998760e+02 -2.800360e+03 -4.018370e+02
1.351830e-01 -2.800350e+03 -4.017010e+02
-4.000160e+02 -3.199940e+03 -1.583530e+00
-2.163940e-02 -3.199940e+03 -1.311520e+00
-4.000080e+02 -2.799970e+03 -1.670650e+00
-1.189140e-02 -2.799980e+03 -1.494190e+00
2.558010e-01 -3.200510e+03 -4.011170e+02
4.002600e+02 -3.200520e+03 -4.008090e+02
1.351830e-01 -2.800350e+03 -4.017010e+02
4.001460e+02 -2.800340e+03 -4.015370e+02
-2.163940e-02 -3.199940e+03 -1.311520e+00
3.999720e+02 -3.199940e+03 -1.041640e+00
-1.189140e-02 -2.799980e+03 -1.494190e+00
3.999840e+02 -2.799990e+03 -1.304310e+00
-3.998760e+02 -2.800360e+03 -4.018370e+02
1.351830e-01 -2.800350e+03 -4.017010e+02
-3.999070e+02 -2.400170e+03 -4.018100e+02
9.427120e-02 -2.400160e+03 -4.017280e+02
-4.000080e+02 -2.799970e+03 -1.670650e+00
-1.189140e-02 -2.799980e+03 -1.494190e+00
-4.000000e+02 -2.400030e+03 -1.784560e+00
-1.299710e-03 -2.400060e+03 -1.677560e+00
1.351830e-01 -2.800350e+03 -4.017010e+02
4.001460e+02 -2.800340e+03 -4.015370e+02
9.427120e-02 -2.400160e+03 -4.017280e+02
4.000950e+02 -2.400140e+03 -4.016540e+02
-1.189140e-02 -2.799980e+03 -1.494190e+00
3.999840e+02 -2.799990e+03 -1.304310e+00
-1.299710e-03 -2.400060e+03 -1.677560e+00
3.999980e+02 -2.400090e+03 -1.568500e+00
-3.999070e+02 -2.400170e+03 -4.018100e+02
9.427120e-02 -2.400160e+03 -4.017280e+02
-3.999160e+02 -2.000210e+03 -4.021590e+02
7.727750e-02 -2.000210e+03 -4.020380e+02
-4.000000e+02 -2.400030e+03 -1.784560e+00
-1.299710e-03 -2.400060e+03 -1.677560e+00
-4.000280e+02 -2.000020e+03 -2.216370e+00
-2.937430e-02 -2.000050e+03 -2.211900e+00
9.427120e-02 -2.400160e+03 -4.017280e+02
4.000950e+02 -2.400140e+03 -4.016540e+02
7.727750e-02 -2.000210e+03 -4.020380e+02
4.000700e+02 -2.000200e+03 -4.019420e+02
-1.299710e-03 -2.400060e+03 -1.677560e+00
3.999980e+02 -2.400090e+03 -1.568500e+00
-2.937430e-02 -2.000050e+03 -2.211900e+00
3.999700e+02 -2.000070e+03 -2.226700e+00
-3.999160e+02 -2.000210e+03 -4.021590e+02
7.727750e-02 -2.000210e+03 -4.020380e+02
-4.000260e+02 -1.600270e+03 -4.025560e+02
-3.228580e-02 -1.600290e+03 -4.025180e+02
-4.000280e+02 -2.000020e+03 -2.216370e+00
-2.937430e-02 -2.000050e+03 -2.211900e+00
-4.000070e+02 -1.599950e+03 -2.542110e+00
-3.749350e-03 -1.599950e+03 -2.561640e+00
7.727750e-02 -2.000210e+03 -4.020380e+02
4.000700e+02 -2.000200e+03 -4.019420e+02
-3.228580e-02 -1.600290e+03 -4.025180e+02
3.999620e+02 -1.600310e+03 -4.024920e+02
-2.937430e-02 -2.000050e+03 -2.211900e+00
3.999700e+02 -2.000070e+03 -2.226700e+00
-3.749350e-03 -1.599950e+03 -2.561640e+00
4.000000e+02 -1.599960e+03 -2.590390e+00
-4.000260e+02 -1.600270e+03 -4.025560e+02
-3.228580e-02 -1.600290e+03 -4.025180e+02
-4.000950e+02 -1.200290e+03 -4.028120e+02
-9.222740e-02 -1.200300e+03 -4.028960e+02
-4.000070e+02 -1.599950e+03 -2.542110e+00
-3.749350e-03 -1.599950e+03 -2.561640e+00
-3.999980e+02 -1.199960e+03 -2.730800e+00
3.897680e-03 -1.199970e+03 -2.787340e+00
-3.228580e-02 -1.600290e+03 -4.025180e+02
3.999620e+02 -1.600310e+03 -4.024920e+02
-9.222740e-02 -1.200300e+03 -4.028960e+02
3.999110e+02 -1.200320e+03 -4.029730e+02
-3.749350e-03 -1.599950e+03 -2.561640e+00
4.000000e+02 -1.599960e+03 -2.590390e+00
3.897680e-03 -1.199970e+03 -2.787340e+00
4.000060e+02 -1.199970e+03 -2.843220e+00
-4.000950e+02 -1.200290e+03 -4.028120e+02
-9.222740e-02 -1.200300e+03 -4.028960e+02
-4.000320e+02 -8.002630e+02 -4.030810e+02
-3.191380e-02 -8.002510e+02 -4.030440e+02
-3.999980e+02 -1.199960e+03 -2.730800e+00
3.897680e-03 -1.199970e+03 -2.787340e+00
-4.000380e+02 -8.000380e+02 -2.869630e+00
-3.585760e-02 -8.000260e+02 -2.944630e+00
-9.222740e-02 -1.200300e+03 -4.028960e+02
3.999110e+02 -1.200320e+03 -4.029730e+02
-3.191380e-02 -8.002510e+02 -4.030440e+02
3.999680e+02 -8.002260e+02 -4.030240e+02
3.897680e-03 -1.199970e+03 -2.787340e+00
4.000060e+02 -1.199970e+03 -2.843220e+00
-3.585760e-02 -8.000260e+02 -2.944630e+00
3.999670e+02 -8.000200e+02 -3.013950e+00
-4.000320e+02 -8.002630e+02 -4.030810e+02
-3.191380e-02 -8.002510e+02 -4.030440e+02
-4.001190e+02 -4.001840e+02 -4.030690e+02
-1.220920e-01 -4.002090e+02 -4.031310e+02
-4.000380e+02 -8.000380e+02 -2.869630e+00
-3.585760e-02 -8.000260e+02 -2.944630e+00
-4.000310e+02 -4.000330e+02 -3.031170e+00
-2.477390e-02 -4.000090e+02 -3.185190e+00
-3.191380e-02 -8.002510e+02 -4.030440e+02
3.999680e+02 -8.002260e+02 -4.030240e+02
-1.220920e-01 -4.002090e+02 -4.031310e+02
3.998750e+02 -4.002340e+02 -4.031890e+02
-3.585760e-02 -8.000260e+02 -2.944630e+00
3.999670e+02 -8.000200e+02 -3.013950e+00
-2.477390e-02 -4.000090e+02 -3.185190e+00
3.999810e+02 -3.999880e+02 -3.341670e+00
-4.001190e+02 -4.001840e+02 -4.030690e+02
-1.220920e-01 -4.002090e+02 -4.031310e+02
-4.001520e+02 -1.617030e-01 -4.030680e+02
-1.546480e-01 -1.749380e-01 -4.032850e+02
-4.000310e+02 -4.000330e+02 -3.031170e+00
-2.477390e-02 -4.000090e+02 -3.185190e+00
-3.999920e+02 7.872970e-03 -3.194340e+00
6.741640e-03 3.167280e-03 -3.391470e+00
-1.220920e-01 -4.002090e+02 -4.031310e+02
3.998750e+02 -4.002340e+02 -4.031890e+02
[...]
<PointData>
<DataArray type="Float32" Name="V1" format="ascii">
0.000000e+00
0.000000e+00
7.863420e-02
8.141580e-02
0.000000e+00
0.000000e+00
-6.270120e-02
-6.751170e-02
0.000000e+00
0.000000e+00
8.141580e-02
8.425050e-02
0.000000e+00
0.000000e+00
-6.751170e-02
-7.215310e-02
7.863420e-02
8.141580e-02
-1.042290e-01
-1.009460e-01
-6.270120e-02
-6.751170e-02
6.163040e-02
5.877130e-02
8.141580e-02
8.425050e-02
-1.009460e-01
-9.800690e-02
-6.751170e-02
-7.215310e-02
5.877130e-02
5.605250e-02
-1.042290e-01
-1.009460e-01
-1.440330e-02
-7.243540e-03
6.163040e-02
5.877130e-02
-1.108250e-02
-1.147790e-02
-1.009460e-01
-9.800690e-02
-7.243540e-03
1.076660e-04
5.877130e-02
5.605250e-02
-1.147790e-02
-1.183070e-02
-1.440330e-02
-7.243540e-03
-9.491530e-04
-1.330430e-02
-1.108250e-02
-1.147790e-02
-7.630750e-02
-7.161170e-02
-7.243540e-03
1.076660e-04
-1.330430e-02
-2.567700e-02
-1.147790e-02
-1.183070e-02
-7.161170e-02
-6.691290e-02
-9.491530e-04
-1.330430e-02
1.041620e-02
1.397760e-02
-7.630750e-02
-7.161170e-02
-2.358600e-02
-2.150640e-02
-1.330430e-02
-2.567700e-02
1.397760e-02
1.723650e-02
-7.161170e-02
-6.691290e-02
-2.150640e-02
-1.945060e-02
1.041620e-02
1.397760e-02
-1.171510e-02
-1.472800e-02
-2.358600e-02
-2.150640e-02
1.056880e-02
1.484680e-02
1.397760e-02
1.723650e-02
-1.472800e-02
-1.765380e-02
-2.150640e-02
-1.945060e-02
1.484680e-02
1.905570e-02
-1.171510e-02
-1.472800e-02
1.100850e-01
9.511770e-02
1.056880e-02
1.484680e-02
-7.287480e-02
-6.741110e-02
-1.472800e-02
-1.765380e-02
9.511770e-02
7.987990e-02
1.484680e-02
1.905570e-02
-6.741110e-02
-6.182140e-02
1.100850e-01
9.511770e-02
1.147090e-01
1.144400e-01
-7.287480e-02
-6.741110e-02
7.339910e-04
3.881640e-04
9.511770e-02
7.987990e-02
1.144400e-01
1.140000e-01
-6.741110e-02
-6.182140e-02
3.881640e-04
-1.880850e-05
1.147090e-01
1.144400e-01
-5.365310e-02
-6.297920e-02
7.339910e-04
3.881640e-04
3.595580e-02
4.561460e-02
1.144400e-01
1.140000e-01
-6.297920e-02
-7.196420e-02
3.881640e-04
-1.880850e-05
4.561460e-02
5.523460e-02
-5.365310e-02
-6.297920e-02
-1.469080e-03
3.413610e-03
3.595580e-02
4.561460e-02
-1.157030e-02
-1.641010e-02
-6.297920e-02
-7.196420e-02
3.413610e-03
8.286270e-03
4.561460e-02
5.523460e-02
-1.641010e-02
-2.134340e-02
-1.469080e-03
3.413610e-03
7.890840e-02
6.770950e-02
-1.157030e-02
-1.641010e-02
-4.232330e-02
-3.465200e-02
3.413610e-03
8.286270e-03
6.770950e-02
5.673060e-02
-1.641010e-02
-2.134340e-02
-3.465200e-02
-2.707670e-02
7.890840e-02
6.770950e-02
-3.509840e-02
-3.208390e-02
-4.232330e-02
-3.465200e-02
-5.760980e-04
2.192110e-03
6.770950e-02
5.673060e-02
-3.208390e-02
-2.929040e-02
-3.465200e-02
-2.707670e-02
2.192110e-03
5.051300e-03
-3.509840e-02
-3.208390e-02
1.922750e-03
1.631990e-02
-5.760980e-04
2.192110e-03
6.803570e-02
5.406070e-02
-3.208390e-02
-2.929040e-02
1.631990e-02
3.078540e-02
2.192110e-03
5.051300e-03
5.406070e-02
4.032310e-02
1.922750e-03
1.631990e-02
-2.894360e-02
-1.890560e-02
6.803570e-02
5.406070e-02
-1.092950e-02
-1.863980e-02
1.631990e-02
3.078540e-02
-1.890560e-02
-8.930460e-03
5.406070e-02
4.032310e-02
-1.863980e-02
-2.640710e-02
-2.894360e-02
-1.890560e-02
-7.911340e-03
-4.272970e-05
-1.092950e-02
-1.863980e-02
-1.556490e-02
-1.701950e-02
-1.890560e-02
-8.930460e-03
-4.272970e-05
7.740890e-03
-1.863980e-02
-2.640710e-02
-1.701950e-02
-1.833900e-02
-7.911340e-03
-4.272970e-05
5.278460e-02
3.920720e-02
-1.556490e-02
-1.701950e-02
-1.778580e-02
-4.912250e-03
-4.272970e-05
7.740890e-03
3.920720e-02
2.559860e-02
-1.701950e-02
-1.833900e-02
-4.912250e-03
7.938150e-03
5.278460e-02
3.920720e-02
-4.747260e-02
-5.066090e-02
-1.778580e-02
-4.912250e-03
1.611260e-02
1.793680e-02
3.920720e-02
2.559860e-02
-5.066090e-02
-5.364760e-02
-4.912250e-03
7.938150e-03
1.793680e-02
1.971370e-02
-4.747260e-02
-5.066090e-02
6.024080e-03
-8.962320e-03
1.611260e-02
1.793680e-02
-3.356310e-02
-2.284020e-02
-5.066090e-02
-5.364760e-02
-8.962320e-03
-2.436320e-02
1.793680e-02
1.971370e-02
-2.284020e-02
-1.188000e-02
6.024080e-03
-8.962320e-03
-5.113570e-02
-4.543710e-02
-3.356310e-02
-2.284020e-02
1.730100e-02
1.480480e-02
-8.962320e-03
-2.436320e-02
-4.543710e-02
-3.930580e-02
-2.284020e-02
-1.188000e-02
1.480480e-02
1.227850e-02
-5.113570e-02
-4.543710e-02
-2.985860e-04
6.458660e-03
1.730100e-02
1.480480e-02
1.033260e-02
3.656990e-03
-4.543710e-02
-3.930580e-02
6.458660e-03
1.270560e-02
1.480480e-02
1.227850e-02
3.656990e-03
-2.912390e-03
-2.985860e-04
6.458660e-03
2.634170e-02
2.685810e-02
1.033260e-02
3.656990e-03
8.290260e-03
7.571290e-03
6.458660e-03
1.270560e-02
2.685810e-02
2.723380e-02
3.656990e-03
-2.912390e-03
7.571290e-03
6.786280e-03
2.634170e-02
2.685810e-02
-1.597980e-03
6.695150e-03
8.290260e-03
7.571290e-03
-1.823820e-02
-2.055400e-02
2.685810e-02
2.723380e-02
6.695150e-03
1.548980e-02
7.571290e-03
6.786280e-03
-2.055400e-02
-2.297960e-02
-1.597980e-03
6.695150e-03
-2.091090e-02
-1.815870e-02
-1.823820e-02
-2.055400e-02
9.363660e-03
1.856180e-03
6.695150e-03
1.548980e-02
-1.815870e-02
-1.515240e-02
-2.055400e-02
-2.297960e-02
1.856180e-03
-5.919310e-03
-2.091090e-02
-1.815870e-02
-7.858350e-02
-7.013740e-02
9.363660e-03
1.856180e-03
3.838220e-02
2.862780e-02
-1.815870e-02
-1.515240e-02
-7.013740e-02
-6.123090e-02
1.856180e-03
-5.919310e-03
2.862780e-02
1.851590e-02
-7.858350e-02
-7.013740e-02
-2.606260e-02
-2.785220e-02
3.838220e-02
2.862780e-02
2.166080e-02
2.365620e-02
-7.013740e-02
-6.123090e-02
-2.785220e-02
-2.994000e-02
2.862780e-02
1.851590e-02
2.365620e-02
2.579630e-02
-2.606260e-02
-2.785220e-02
8.911980e-02
8.120940e-02
2.166080e-02
2.365620e-02
1.859910e-02
2.897390e-02
-2.785220e-02
-2.994000e-02
8.120940e-02
7.300180e-02
2.365620e-02
2.579630e-02
2.897390e-02
3.951880e-02
8.911980e-02
8.120940e-02
3.048000e-02
1.665780e-02
1.859910e-02
2.897390e-02
-4.977190e-02
-3.611580e-02
8.120940e-02
7.300180e-02
1.665780e-02
2.722770e-03
2.897390e-02
3.951880e-02
-3.611580e-02
-2.231220e-02
3.048000e-02
1.665780e-02
-8.884940e-02
-8.839060e-02
-4.977190e-02
-3.611580e-02
1.617790e-02
1.376990e-02
1.665780e-02
2.722770e-03
-8.839060e-02
-8.753470e-02
-3.611580e-02
-2.231220e-02
1.376990e-02
1.132700e-02
-8.884940e-02
-8.839060e-02
2.593150e-02
3.474840e-02
1.617790e-02
1.376990e-02
2.619660e-02
1.469580e-02
-8.839060e-02
-8.753470e-02
3.474840e-02
4.351120e-02
1.376990e-02
1.132700e-02
1.469580e-02
3.269930e-03
2.593150e-02
3.474840e-02
1.233420e-01
1.352000e-01
2.619660e-02
1.469580e-02
-9.143380e-02
-1.082770e-01
3.474840e-02
4.351120e-02
1.352000e-01
1.471010e-01
1.469580e-02
3.269930e-03
-1.082770e-01
-1.255090e-01
0.000000e+00
0.000000e+00
-6.270120e-02
-6.751170e-02
0.000000e+00
0.000000e+00
4.520200e-02
5.168030e-02
0.000000e+00
0.000000e+00
-6.751170e-02
-7.215310e-02
0.000000e+00
0.000000e+00
5.168030e-02
5.790450e-02
-6.270120e-02
-6.751170e-02
6.163040e-02
5.877130e-02
4.520200e-02
5.168030e-02
-1.563110e-02
-1.466910e-02
-6.751170e-02
-7.215310e-02
5.877130e-02
5.605250e-02
5.168030e-02
5.790450e-02
-1.466910e-02
-1.362050e-02
6.163040e-02
5.877130e-02
-1.108250e-02
-1.147790e-02
-1.563110e-02
-1.466910e-02
3.521000e-02
2.953820e-02
5.877130e-02
5.605250e-02
-1.147790e-02
-1.183070e-02
-1.466910e-02
-1.362050e-02
2.953820e-02
2.355130e-02
-1.108250e-02
-1.147790e-02
-7.630750e-02
-7.161170e-02
3.521000e-02
2.953820e-02
1.510480e-01
1.550550e-01
-1.147790e-02
-1.183070e-02
-7.161170e-02
-6.691290e-02
2.953820e-02
2.355130e-02
1.550550e-01
1.586510e-01
-7.630750e-02
-7.161170e-02
-2.358600e-02
-2.150640e-02
1.510480e-01
1.550550e-01
3.916970e-02
3.111600e-02
-7.161170e-02
-6.691290e-02
-2.150640e-02
-1.945060e-02
1.550550e-01
1.586510e-01
3.111600e-02
2.298620e-02
-2.358600e-02
-2.150640e-02
1.056880e-02
1.484680e-02
3.916970e-02
3.111600e-02
-8.684560e-03
-1.594100e-02
-2.150640e-02
-1.945060e-02
1.484680e-02
1.905570e-02
3.111600e-02
2.298620e-02
-1.594100e-02
-2.302830e-02
1.056880e-02
1.484680e-02
-7.287480e-02
-6.741110e-02
-8.684560e-03
-1.594100e-02
3.556340e-02
3.984130e-02
1.484680e-02
1.905570e-02
-6.741110e-02
-6.182140e-02
-1.594100e-02
-2.302830e-02
3.984130e-02
4.404500e-02
-7.287480e-02
-6.741110e-02
7.339910e-04
3.881640e-04
3.556340e-02
3.984130e-02
-1.164110e-01
-1.146560e-01
-6.741110e-02
-6.182140e-02
3.881640e-04
-1.880850e-05
3.984130e-02
4.404500e-02
-1.146560e-01
-1.127640e-01
7.339910e-04
3.881640e-04
3.595580e-02
4.561460e-02
-1.164110e-01
-1.146560e-01
-1.725600e-02
-2.730230e-02
3.881640e-04
-1.880850e-05
4.561460e-02
5.523460e-02
-1.146560e-01
-1.127640e-01
-2.730230e-02
-3.734890e-02
3.595580e-02
4.561460e-02
-1.157030e-02
-1.641010e-02
-1.725600e-02
-2.730230e-02
2.436880e-02
2.824760e-02
4.561460e-02
5.523460e-02
-1.641010e-02
-2.134340e-02
-2.730230e-02
-3.734890e-02
2.824760e-02
3.235600e-02
-1.157030e-02
-1.641010e-02
-4.232330e-02
-3.465200e-02
2.436880e-02
2.824760e-02
7.334850e-03
2.165540e-03
-1.641010e-02
-2.134340e-02
-3.465200e-02
-2.707670e-02
2.824760e-02
3.235600e-02
2.165540e-03
-3.199660e-03
-4.232330e-02
-3.465200e-02
-5.760980e-04
2.192110e-03
7.334850e-03
2.165540e-03
3.643200e-02
2.907230e-02
-3.465200e-02
-2.707670e-02
2.192110e-03
5.051300e-03
2.165540e-03
-3.199660e-03
2.907230e-02
2.180140e-02
-5.760980e-04
2.192110e-03
6.803570e-02
5.406070e-02
3.643200e-02
2.907230e-02
-1.402770e-01
-1.271470e-01
2.192110e-03
5.051300e-03
5.406070e-02
4.032310e-02
2.907230e-02
2.180140e-02
-1.271470e-01
-1.142500e-01
6.803570e-02
5.406070e-02
-1.092950e-02
-1.863980e-02
-1.402770e-01
-1.271470e-01
5.097350e-02
5.668140e-02
5.406070e-02
4.032310e-02
-1.863980e-02
-2.640710e-02
-1.271470e-01
-1.142500e-01
5.668140e-02
6.253850e-02
-1.092950e-02
-1.863980e-02
-1.556490e-02
-1.701950e-02
5.097350e-02
5.668140e-02
4.065980e-02
3.549620e-02
-1.863980e-02
-2.640710e-02
-1.701950e-02
-1.833900e-02
5.668140e-02
6.253850e-02
3.549620e-02
2.999820e-02
-1.556490e-02
-1.701950e-02
-1.778580e-02
-4.912250e-03
4.065980e-02
3.549620e-02
-1.772390e-02
-3.091450e-02
-1.701950e-02
-1.833900e-02
-4.912250e-03
7.938150e-03
3.549620e-02
2.999820e-02
-3.091450e-02
-4.375950e-02
-1.778580e-02
-4.912250e-03
1.611260e-02
1.793680e-02
-1.772390e-02
-3.091450e-02
1.561990e-02
1.591410e-02
-4.912250e-03
7.938150e-03
1.793680e-02
1.971370e-02
-3.091450e-02
-4.375950e-02
1.591410e-02
1.607030e-02
1.611260e-02
1.793680e-02
-3.356310e-02
-2.284020e-02
1.561990e-02
1.591410e-02
6.105850e-02
5.493990e-02
1.793680e-02
1.971370e-02
-2.284020e-02
-1.188000e-02
1.591410e-02
1.607030e-02
5.493990e-02
4.898920e-02
-3.356310e-02
-2.284020e-02
1.730100e-02
1.480480e-02
6.105850e-02
5.493990e-02
1.572020e-02
1.481870e-02
-2.284020e-02
-1.188000e-02
1.480480e-02
1.227850e-02
5.493990e-02
4.898920e-02
1.481870e-02
1.377740e-02
1.730100e-02
1.480480e-02
1.033260e-02
3.656990e-03
1.572020e-02
1.481870e-02
-1.988760e-02
-1.277440e-02
1.480480e-02
1.227850e-02
3.656990e-03
-2.912390e-03
1.481870e-02
1.377740e-02
-1.277440e-02
-5.667870e-03
1.033260e-02
3.656990e-03
8.290260e-03
7.571290e-03
-1.988760e-02
-1.277440e-02
-4.359800e-02
-4.275980e-02
3.656990e-03
-2.912390e-03
7.571290e-03
6.786280e-03
-1.277440e-02
-5.667870e-03
-4.275980e-02
-4.183400e-02
8.290260e-03
7.571290e-03
-1.823820e-02
-2.055400e-02
-4.359800e-02
-4.275980e-02
3.702900e-02
3.363840e-02
7.571290e-03
6.786280e-03
-2.055400e-02
-2.297960e-02
-4.275980e-02
-4.183400e-02
3.363840e-02
3.004920e-02
-1.823820e-02
-2.055400e-02
9.363660e-03
1.856180e-03
3.702900e-02
3.363840e-02
4.066480e-03
1.652330e-02
-2.055400e-02
-2.297960e-02
1.856180e-03
-5.919310e-03
3.363840e-02
3.004920e-02
1.652330e-02
2.917150e-02
9.363660e-03
1.856180e-03
3.838220e-02
2.862780e-02
4.066480e-03
1.652330e-02
2.364050e-04
1.210020e-02
1.856180e-03
-5.919310e-03
2.862780e-02
1.851590e-02
1.652330e-02
2.917150e-02
1.210020e-02
2.413250e-02
3.838220e-02
2.862780e-02
2.166080e-02
2.365620e-02
2.364050e-04
1.210020e-02
-1.823970e-02
-2.061530e-02
2.862780e-02
1.851590e-02
2.365620e-02
2.579630e-02
1.210020e-02
2.413250e-02
-2.061530e-02
-2.276900e-02
2.166080e-02
2.365620e-02
1.859910e-02
2.897390e-02
-1.823970e-02
-2.061530e-02
-1.256800e-01
-1.382170e-01
2.365620e-02
2.579630e-02
2.897390e-02
3.951880e-02
-2.061530e-02
-2.276900e-02
-1.382170e-01
-1.511900e-01
1.859910e-02
2.897390e-02
-4.977190e-02
-3.611580e-02
-1.256800e-01
-1.382170e-01
6.806500e-02
5.480980e-02
2.897390e-02
3.951880e-02
-3.611580e-02
-2.231220e-02
-1.382170e-01
-1.511900e-01
5.480980e-02
4.151660e-02
-4.977190e-02
-3.611580e-02
1.617790e-02
1.376990e-02
6.806500e-02
5.480980e-02
5.679560e-02
6.007550e-02
-3.611580e-02
-2.231220e-02
1.376990e-02
1.132700e-02
5.480980e-02
4.151660e-02
6.007550e-02
6.350620e-02
1.617790e-02
1.376990e-02
2.619660e-02
1.469580e-02
5.679560e-02
6.007550e-02
-7.880730e-02
-6.307280e-02
1.376990e-02
1.132700e-02
1.469580e-02
3.269930e-03
6.007550e-02
6.350620e-02
-6.307280e-02
-4.728230e-02
2.619660e-02
1.469580e-02
-9.143380e-02
-1.082770e-01
-7.880730e-02
-6.307280e-02
6.216120e-02
8.123710e-02
1.469580e-02
3.269930e-03
-1.082770e-01
-1.255090e-01
-6.307280e-02
-4.728230e-02
8.123710e-02
1.009530e-01
</DataArray>
<DataArray type="Float32" Name="V2" format="ascii">
0.000000e+00
0.000000e+00
3.027590e-01
2.806160e-01
0.000000e+00
0.000000e+00
-8.617000e-02
-8.923300e-02
0.000000e+00
0.000000e+00
2.806160e-01
2.254930e-01
0.000000e+00
0.000000e+00
-8.923300e-02
-7.529520e-02
3.027590e-01
2.806160e-01
-5.653470e-02
-6.084390e-02
-8.617000e-02
-8.923300e-02
1.961380e-01
2.012930e-01
2.806160e-01
2.254930e-01
-6.084390e-02
-6.169880e-02
-8.923300e-02
-7.529520e-02
2.012930e-01
1.977140e-01
-5.653470e-02
-6.084390e-02
-1.723120e-01
-1.553850e-01
1.961380e-01
2.012930e-01
1.855160e-01
1.524480e-01
-6.084390e-02
-6.169880e-02
-1.553850e-01
-1.306760e-01
2.012930e-01
1.977140e-01
1.524480e-01
1.087360e-01
-1.723120e-01
-1.553850e-01
-1.808140e-03
1.510660e-02
1.855160e-01
1.524480e-01
-3.715610e-02
-7.459480e-02
-1.553850e-01
-1.306760e-01
1.510660e-02
1.876310e-02
1.524480e-01
1.087360e-01
-7.459480e-02
-9.559100e-02
-1.808140e-03
1.510660e-02
-1.181660e-02
-3.731620e-02
-3.715610e-02
-7.459480e-02
-5.579620e-02
-5.010280e-02
1.510660e-02
1.876310e-02
-3.731620e-02
-4.186730e-02
-7.459480e-02
-9.559100e-02
-5.010280e-02
-6.510560e-02
-1.181660e-02
-3.731620e-02
3.184710e-02
4.603960e-02
-5.579620e-02
-5.010280e-02
-6.892280e-02
-5.880520e-02
-3.731620e-02
-4.186730e-02
4.603960e-02
7.964580e-02
-5.010280e-02
-6.510560e-02
-5.880520e-02
-5.858610e-02
3.184710e-02
4.603960e-02
2.656950e-04
5.712930e-02
-6.892280e-02
-5.880520e-02
2.475910e-02
1.556530e-02
4.603960e-02
7.964580e-02
5.712930e-02
1.001100e-01
-5.880520e-02
-5.858610e-02
1.556530e-02
2.267850e-02
2.656950e-04
5.712930e-02
-8.993520e-02
-1.050540e-01
2.475910e-02
1.556530e-02
8.482040e-02
9.559820e-02
5.712930e-02
1.001100e-01
-1.050540e-01
-9.241550e-02
1.556530e-02
2.267850e-02
9.559820e-02
8.960300e-02
-8.993520e-02
-1.050540e-01
1.958440e-02
-2.734700e-02
8.482040e-02
9.559820e-02
-1.769570e-02
-6.809710e-03
-1.050540e-01
-9.241550e-02
-2.734700e-02
-8.971930e-02
9.559820e-02
8.960300e-02
-6.809710e-03
1.039030e-02
1.958440e-02
-2.734700e-02
9.124760e-02
5.485680e-02
-1.769570e-02
-6.809710e-03
-1.040720e-01
-1.189300e-01
-2.734700e-02
-8.971930e-02
5.485680e-02
1.421200e-02
-6.809710e-03
1.039030e-02
-1.189300e-01
-1.250700e-01
9.124760e-02
5.485680e-02
2.586270e-02
-3.397660e-02
-1.040720e-01
-1.189300e-01
-4.750510e-02
-3.155780e-02
5.485680e-02
1.421200e-02
-3.397660e-02
-5.881900e-02
-1.189300e-01
-1.250700e-01
-3.155780e-02
-3.678930e-02
2.586270e-02
-3.397660e-02
-9.591690e-03
-6.126190e-02
-4.750510e-02
-3.155780e-02
1.680490e-02
7.440270e-02
-3.397660e-02
-5.881900e-02
-6.126190e-02
-1.087730e-01
-3.155780e-02
-3.678930e-02
7.440270e-02
1.236670e-01
-9.591690e-03
-6.126190e-02
1.893880e-02
6.348380e-03
1.680490e-02
7.440270e-02
3.334790e-02
3.012460e-02
-6.126190e-02
-1.087730e-01
6.348380e-03
-1.800500e-02
7.440270e-02
1.236670e-01
3.012460e-02
4.402350e-02
1.893880e-02
6.348380e-03
-1.722610e-01
-1.240180e-01
3.334790e-02
3.012460e-02
1.966930e-01
1.465180e-01
6.348380e-03
-1.800500e-02
-1.240180e-01
-9.482900e-02
3.012460e-02
4.402350e-02
1.465180e-01
1.078660e-01
-1.722610e-01
-1.240180e-01
1.956070e-03
-6.004730e-02
1.966930e-01
1.465180e-01
-8.668610e-02
-1.877590e-02
-1.240180e-01
-9.482900e-02
-6.004730e-02
-1.282910e-01
1.465180e-01
1.078660e-01
-1.877590e-02
4.767210e-02
1.956070e-03
-6.004730e-02
1.531720e-01
1.156810e-01
-8.668610e-02
-1.877590e-02
-2.357080e-01
-2.207830e-01
-6.004730e-02
-1.282910e-01
1.156810e-01
6.851330e-02
-1.877590e-02
4.767210e-02
-2.207830e-01
-1.883940e-01
1.531720e-01
1.156810e-01
-1.290300e-01
-3.668290e-02
-2.357080e-01
-2.207830e-01
2.699620e-04
-3.809000e-02
1.156810e-01
6.851330e-02
-3.668290e-02
6.977760e-02
-2.207830e-01
-1.883940e-01
-3.809000e-02
-8.558710e-02
-1.290300e-01
-3.668290e-02
-1.452290e-01
-1.077040e-01
2.699620e-04
-3.809000e-02
9.019490e-02
9.853330e-02
-3.668290e-02
6.977760e-02
-1.077040e-01
-5.055190e-02
-3.809000e-02
-8.558710e-02
9.853330e-02
1.009560e-01
-1.452290e-01
-1.077040e-01
-1.314500e-01
-7.171990e-02
9.019490e-02
9.853330e-02
1.027390e-01
9.322980e-02
-1.077040e-01
-5.055190e-02
-7.171990e-02
-1.003640e-02
9.853330e-02
1.009560e-01
9.322980e-02
8.906530e-02
-1.314500e-01
-7.171990e-02
7.216610e-05
-1.179680e-02
1.027390e-01
9.322980e-02
1.854340e-02
4.151790e-02
-7.171990e-02
-1.003640e-02
-1.179680e-02
-1.913420e-02
9.322980e-02
8.906530e-02
4.151790e-02
5.803500e-02
7.216610e-05
-1.179680e-02
8.170760e-02
3.376450e-02
1.854340e-02
4.151790e-02
-1.073780e-01
-1.094670e-01
-1.179680e-02
-1.913420e-02
3.376450e-02
-3.627680e-02
4.151790e-02
5.803500e-02
-1.094670e-01
-1.025590e-01
8.170760e-02
3.376450e-02
1.714590e-02
-1.036440e-01
-1.073780e-01
-1.094670e-01
-9.298570e-02
-9.238690e-02
3.376450e-02
-3.627680e-02
-1.036440e-01
-1.990980e-01
-1.094670e-01
-1.025590e-01
-9.238690e-02
-1.038610e-01
1.714590e-02
-1.036440e-01
-1.109680e-01
-1.305100e-01
-9.298570e-02
-9.238690e-02
5.024850e-02
3.854460e-02
-1.036440e-01
-1.990980e-01
-1.305100e-01
-1.408240e-01
-9.238690e-02
-1.038610e-01
3.854460e-02
1.677710e-02
-1.109680e-01
-1.305100e-01
-2.422920e-02
4.827730e-02
5.024850e-02
3.854460e-02
4.800280e-02
5.714190e-02
-1.305100e-01
-1.408240e-01
4.827730e-02
8.973130e-02
3.854460e-02
1.677710e-02
5.714190e-02
8.408670e-02
-2.422920e-02
4.827730e-02
5.245330e-02
6.237650e-02
4.800280e-02
5.714190e-02
-5.828110e-04
1.917120e-02
4.827730e-02
8.973130e-02
6.237650e-02
8.474130e-02
5.714190e-02
8.408670e-02
1.917120e-02
3.220080e-02
5.245330e-02
6.237650e-02
-2.728770e-02
9.965300e-03
-5.828110e-04
1.917120e-02
3.726110e-02
-4.425770e-03
6.237650e-02
8.474130e-02
9.965300e-03
5.566880e-02
1.917120e-02
3.220080e-02
-4.425770e-03
-4.820200e-02
-2.728770e-02
9.965300e-03
-9.377630e-03
-3.484710e-02
3.726110e-02
-4.425770e-03
-9.366950e-02
-4.007080e-02
9.965300e-03
5.566880e-02
-3.484710e-02
-5.457820e-02
-4.425770e-03
-4.820200e-02
-4.007080e-02
5.752900e-03
-9.377630e-03
-3.484710e-02
3.582260e-02
-4.916440e-02
-9.366950e-02
-4.007080e-02
-1.332890e-01
-9.275760e-02
-3.484710e-02
-5.457820e-02
-4.916440e-02
-1.064630e-01
-4.007080e-02
5.752900e-03
-9.275760e-02
-7.977640e-02
3.582260e-02
-4.916440e-02
4.037440e-02
1.250760e-02
-1.332890e-01
-9.275760e-02
8.237810e-03
-2.224510e-03
-4.916440e-02
-1.064630e-01
1.250760e-02
5.234250e-04
-9.275760e-02
-7.977640e-02
-2.224510e-03
-2.571480e-02
4.037440e-02
1.250760e-02
-4.695350e-02
1.398810e-02
8.237810e-03
-2.224510e-03
6.108640e-02
8.811430e-02
1.250760e-02
5.234250e-04
1.398810e-02
4.029470e-02
-2.224510e-03
-2.571480e-02
8.811430e-02
1.423080e-01
0.000000e+00
0.000000e+00
-8.617000e-02
-8.923300e-02
0.000000e+00
0.000000e+00
-1.244780e-01
-9.984140e-02
0.000000e+00
0.000000e+00
-8.923300e-02
-7.529520e-02
0.000000e+00
0.000000e+00
-9.984140e-02
-8.113990e-02
-8.617000e-02
-8.923300e-02
1.961380e-01
2.012930e-01
-1.244780e-01
-9.984140e-02
-3.451960e-01
-3.394640e-01
-8.923300e-02
-7.529520e-02
2.012930e-01
1.977140e-01
-9.984140e-02
-8.113990e-02
-3.394640e-01
-3.193830e-01
1.961380e-01
2.012930e-01