MercuryDPM 0.14 name SingleSphere revision 5159 repository https://svn.mercurydpm.org/SourceCode/Branches/SCouplingTest
dataFile    fileType ONE_FILE saveCount 549 counter 1003 lastSavedTimeStep 549869
fStatFile   fileType ONE_FILE saveCount 549 counter 1003 lastSavedTimeStep 549869
eneFile     fileType ONE_FILE saveCount 549 counter 1003 lastSavedTimeStep 549869
restartFile fileType ONE_FILE saveCount 549 counter 1003 lastSavedTimeStep 549869
statFile    fileType ONE_FILE saveCount 549 counter 0
interactionFile fileType NO_FILE saveCount 0 counter 0
xMin -500 xMax 500 yMin -5000 yMax 5000 zMin -500 zMax 5000
timeStep 0.090930880724823 time 50000.0724529279 ntimeSteps 549869 timeMax 50000
systemDimensions 3 particleDimensions 3 gravity 0 0 -0.00981 writeVTK 1 MULTIPLE_FILES NO_FILE 1003 1003 0 random  0 1103515245 12345 1073741824 607 273 784607267
Species 1
LinearViscoelasticSpecies id 0 density 20000 stiffness 20000000000 dissipation 185190105.022123
Walls 992
TriangleWall id 0 indSpecies 0 position -199.94473902375 -5933.2986366665 -400.048445826758 orientation 1 0 0 0 velocity 0 0 0 angularVelocity 0 0 0 force 0 0 0 torque 0 0 0 vertexInLabFrame  0.110521952499056 133.402726666995 -0.0968916535155131 -200.05526097625 -66.7013633334973 0.0484458267578134 199.94473902375 -66.7013633334973 0.0484458267578134
TriangleWall id 1 indSpecies 0 position -66.5264491053131 -5799.87787442162 -400.111712374832 orientation 1 0 0 0 velocity 0 0 0 angularVelocity 0 0 0 force 0 0 0 torque 0 0 0 vertexInLabFrame  -133.307767965938 -0.0180355778848025 -0.0336251054417858 66.5264491053131 -200.122125578378 0.111712374831541 66.7813188606251 200.140161156263 -0.078087269389755
TriangleWall id 2 indSpecies 0 position -199.723695118752 -5666.49318333251 -400.242229133789 orientation 1 0 0 0 velocity 0 0 0 angularVelocity 0 0 0 force 0 0 0 torque 0 0 0 vertexInLabFrame  -0.110521952499084 -133.402726666995 0.0968916535155699 199.978564874064 66.7554700671535 0.0524294895676007 -199.868042921565 66.6472565998429 -0.149321143083284
TriangleWall id 3 indSpecies 0 position -333.14198503719 -5799.91394557739 -400.178962585715 orientation 1 0 0 0 velocity 0 0 0 angularVelocity 0 0 0 force 0 0 0 torque 0 0 0 vertexInLabFrame  133.307767965938 0.0180355778848025 0.0336251054418426 -66.4497530031279 200.068018844722 -0.212587691157012 -66.8580149628103 -200.086054422608 0.178962585715169
TriangleWall id 4 indSpecies 0 position 200.029537956932 -5933.26794890287 -400.036700231941 orientation 1 0 0 0 velocity 0 0 0 angularVelocity 0 0 0 force 0 0 0 torque 0 0 0 vertexInLabFrame  0.0590759138641772 133.46410219425 -0.0734004638822512 -200.029537956932 -66.7320510971258 0.0367002319410972 199.970462043068 -66.7320510971258 0.0367002319410972
TriangleWall id 5 indSpecies 0 position 333.39606653289 -5799.76050675925 -400.120234611632 orientation 1 0 0 0 velocity 0 0 0 angularVelocity 0 0 0 force 0 0 0 torque 0 0 0 vertexInLabFrame  -133.307452662094 -0.0433399493695106 0.0101339158084102 66.6039334671102 -200.239493240745 0.120234611631759 66.7035191949833 200.282833190116 -0.130368527440226
TriangleWall id 6 indSpecies 0 position 200.14768978466 -5666.33974451437 -400.183501159705 orientation 1 0 0 0 velocity 0 0 0 angularVelocity 0 0 0 force 0 0 0 torque 0 0 0 vertexInLabFrame  -0.0590759138641772 -133.46410219425 0.0734004638821375 199.951895943213 66.8620709452352 -0.0671019793664982 -199.892820029348 66.6020312490155 -0.00629848451580983
TriangleWall id 7 indSpecies 0 position 66.7811612087028 -5799.84718665799 -400.099966780015 orientation 1 0 0 0 velocity 0 0 0 angularVelocity 0 0 0 force 0 0 0 torque 0 0 0 vertexInLabFrame  133.307452662094 0.0433399493695106 -0.010133915808467 -66.5262914533908 200.109473392635 -0.0898328642064143 -66.7811612087028 -200.152813342006 0.0999667800148814
TriangleWall id 8 indSpecies 0 position -199.672248449237 -5533.06958258002 -400.282454680199 orientation 1 0 0 0 velocity 0 0 0 angularVelocity 0 0 0 force 0 0 0 torque 0 0 0 vertexInLabFrame  -0.00762861346916566 133.444474837991 0.0164405606960827 -199.91948959108 -66.7763441526513 -0.109095596673512 199.927118204549 -66.6681306853407 0.0926550359773728
TriangleWall id 9 indSpecies 0 position -66.3279677433492 -5399.62133949191 -400.183365979701 orientation 1 0 0 0 velocity 0 0 0 angularVelocity 0 0 0 force 0 0 0 torque 0 0 0 vertexInLabFrame  -133.351909319357 -0.00376825011790061 -0.082648139801222 66.5828374986612 -200.11637377345 -0.00643366451993188 66.7690718206961 200.120142023569 0.089081804321097
TriangleWall id 10 indSpecies 0 position -199.687505676176 -5266.18063290404 -400.249573558806 orientation 1 0 0 0 velocity 0 0 0 angularVelocity 0 0 0 force 0 0 0 torque 0 0 0 vertexInLabFrame  0.00762861346916566 -133.44447483799 -0.0164405606961964 200.128609753523 66.6794354356971 0.155289383426123 -200.136238366992 66.765039402293 -0.138848822730097
TriangleWall id 11 indSpecies 0 position -333.031786382064 -5399.62887599215 -400.348662259304 orientation 1 0 0 0 velocity 0 0 0 angularVelocity 0 0 0 force 0 0 0 torque 0 0 0 vertexInLabFrame  133.351909319357 0.0037682501197196 0.082648139801222 -66.7919576611037 200.213282490403 -0.0397601222326784 -66.5599516582538 -200.217050740523 -0.042888017568373
TriangleWall id 12 indSpecies 0 position 200.24484955637 -5532.91134003024 -400.125327240765 orientation 1 0 0 0 velocity 0 0 0 angularVelocity 0 0 0 force 0 0 0 torque 0 0 0 vertexInLabFrame  0.135243629554139 133.392706774016 0.189748301764155 -199.989979801058 -66.826373235117 -0.0644724034567616 199.854736171503 -66.5663335388972 -0.12527589830745
TriangleWall id 13 indSpecies 0 position 333.734830698987 -5399.45141851581 -399.797936958467 orientation 1 0 0 0 velocity 0 0 0 angularVelocity 0 0 0 force 0 0 0 torque 0 0 0 vertexInLabFrame  -133.354737513063 -0.0672147404147836 -0.137641980533715 66.3647550288865 -200.026255053328 -0.45266618060532 66.9899824841763 200.093469793744 0.590308161138921
TriangleWall id 14 indSpecies 0 position 200.515336815478 -5266.12592648221 -399.745830637236 orientation 1 0 0 0 velocity 0 0 0 angularVelocity 0 0 0 force 0 0 0 torque 0 0 0 vertexInLabFrame  -0.135243629554111 -133.392706774015 -0.189748301764268 200.209476367685 66.7679777601434 0.538201839908368 -200.074232738131 66.6247290138708 -0.348453538144156
TriangleWall id 15 indSpecies 0 position 67.0253556728609 -5399.58584799664 -400.073220919534 orientation 1 0 0 0 velocity 0 0 0 angularVelocity 0 0 0 force 0 0 0 torque 0 0 0 vertexInLabFrame  133.354737513063 0.0672147404156931 0.137641980533601 -66.584251595514 200.084650528302 -0.0210632558462862 -66.7704859175489 -200.151865268717 -0.116578724687315
TriangleWall id 16 indSpecies 0 position -199.667157814197 -5132.74367183719 -400.167600680899 orientation 1 0 0 0 velocity 0 0 0 angularVelocity 0 0 0 force 0 0 0 torque 0 0 0 vertexInLabFrame  0.0483243374267772 133.429447295698 0.147505195117958 -200.156586228971 -66.6719216645506 -0.220821700637146 200.108261891544 -66.7575256311466 0.0733165055190739
TriangleWall id 17 indSpecies 0 position -66.2047762171785 -4999.3373884502 -399.955586176366 orientation 1 0 0 0 velocity 0 0 0 angularVelocity 0 0 0 force 0 0 0 torque 0 0 0 vertexInLabFrame  -133.414057259592 0.0231639087014628 -0.0645093094150297 66.6458802945254 -200.163809018143 -0.138697999013914 66.7681769650662 200.140645109444 0.20320730842883
TriangleWall id 18 indSpecies 0 position -199.570509139343 -4865.8847772458 -399.872590290663 orientation 1 0 0 0 velocity 0 0 0 angularVelocity 0 0 0 force 0 0 0 torque 0 0 0 vertexInLabFrame  -0.0483243374267772 -133.429447295697 -0.147505195118015 200.133909887231 66.6880339050449 0.120211422725845 -200.085585549804 66.7414133906532 0.0272937723920563
TriangleWall id 19 indSpecies 0 position -333.032890736362 -4999.2910606328 -400.084604795196 orientation 1 0 0 0 velocity 0 0 0 angularVelocity 0 0 0 force 0 0 0 torque 0 0 0 vertexInLabFrame  133.414057259592 -0.0231639087005533 0.0645093094149729 -66.6232039527858 200.14769677765 0.239308276925044 -66.7908533068057 -200.124532868949 -0.303817586340131
TriangleWall id 20 indSpecies 0 position 200.595575182162 -5132.72632455889 -399.599422579123 orientation 1 0 0 0 velocity 0 0 0 angularVelocity 0 0 0 force 0 0 0 torque 0 0 0 vertexInLabFrame  0.025233103814486 133.406497072628 0.103067814462634 -200.154471104815 -66.7748729094501 -0.494861596257635 200.129238001001 -66.6316241631775 0.391793781794888
TriangleWall id 21 indSpecies 0 position 334.033178868216 -4999.30039887407 -399.211703593327 orientation 1 0 0 0 velocity 0 0 0 angularVelocity 0 0 0 force 0 0 0 torque 0 0 0 vertexInLabFrame  -133.41237058224 -0.0194286121904952 -0.284651171332541 66.6916343149467 -200.057549847996 0.00407479599971339 66.720736267293 200.076978460183 0.280576375332885
TriangleWall id 22 indSpecies 0 position 200.646041389791 -4865.91333041363 -399.393286950197 orientation 1 0 0 0 velocity 0 0 0 angularVelocity 0 0 0 force 0 0 0 torque 0 0 0 vertexInLabFrame  -0.0252331038145144 -133.406497072628 -0.103067814462634 200.107873745718 66.6899099997463 0.462159732202792 -200.082640641903 66.7165870728813 -0.359091917740159
TriangleWall id 23 indSpecies 0 position 67.2084377037371 -4999.33925609845 -399.781005935993 orientation 1 0 0 0 velocity 0 0 0 angularVelocity 0 0 0 force 0 0 0 torque 0 0 0 vertexInLabFrame  133.41237058224 0.0194286121895857 0.284651171332655 -66.6450369558494 200.142512757699 0.0286270680551297 -66.7673336263902 -200.161941369888 -0.313278239387614
TriangleWall id 24 indSpecies 0 position -199.525293695254 -4732.51643229372 -399.651272885491 orientation 1 0 0 0 velocity 0 0 0 angularVelocity 0 0 0 force 0 0 0 torque 0 0 0 vertexInLabFrame  0.042106550751015 133.307242608468 0.295129615226244 -200.130800993893 -66.62693156143 -0.194023632780102 200.088694443142 -66.6803110470382 -0.101105982446313
TriangleWall id 25 indSpecies 0 position -66.1330404698445 -4599.22497891071 -399.279522734951 orientation 1 0 0 0 velocity 0 0 0 angularVelocity 0 0 0 force 0 0 0 torque 0 0 0 vertexInLabFrame  -133.350146674659 0.0157892254592298 -0.076620535314305 66.6964412177322 -199.971764430047 -0.472856132986863 66.6537054569267 199.955975204588 0.549476668301054
TriangleWall id 26 indSpecies 0 position -199.441080593752 -4465.90194707678 -399.061013655039 orientation 1 0 0 0 velocity 0 0 0 angularVelocity 0 0 0 force 0 0 0 torque 0 0 0 vertexInLabFrame  -0.0421065507509866 -133.307242608468 -0.295129615226358 199.961745580835 66.6329433706605 0.330967588389001 -199.919639030084 66.6742992378067 -0.0358379731626428
TriangleWall id 27 indSpecies 0 position -332.833333819162 -4599.19340045979 -399.432763805579 orientation 1 0 0 0 velocity 0 0 0 angularVelocity 0 0 0 force 0 0 0 torque 0 0 0 vertexInLabFrame  133.350146674659 -0.0157892254583203 0.0766205353141345 -66.5273858046737 199.965752620817 0.33591217737785 -66.8227608699852 -199.949963395356 -0.412532712692212
TriangleWall id 28 indSpecies 0 position 200.631684986024 -4732.56573954483 -399.234617748907 orientation 1 0 0 0 velocity 0 0 0 angularVelocity 0 0 0 force 0 0 0 torque 0 0 0 vertexInLabFrame  -0.0539459113495866 133.288684664983 0.214270588117472 -200.068284238136 -66.6310037959238 -0.51776111903024 200.122230149486 -66.6576808690588 0.303490530912711
TriangleWall id 29 indSpecies 0 position 333.934876546134 -4599.30650911745 -398.873103623121 orientation 1 0 0 0 velocity 0 0 0 angularVelocity 0 0 0 force 0 0 0 torque 0 0 0 vertexInLabFrame  -133.35713747146 0.0294542376077516 -0.147243537669169 66.8190385893756 -199.916911296434 -0.0580235948739301 66.5380988820838 199.887457058823 0.205267132543042
TriangleWall id 30 indSpecies 0 position 200.523793163325 -4465.98837021487 -398.806076572672 orientation 1 0 0 0 velocity 0 0 0 angularVelocity 0 0 0 force 0 0 0 torque 0 0 0 vertexInLabFrame  0.0539459113495298 -133.288684664982 -0.214270588117529 199.949182264893 66.5693181562337 0.138240082094683 -200.003128176242 66.719366508747 0.0760305060226756
TriangleWall id 31 indSpecies 0 position 67.2206016032147 -4599.24760064224 -399.167590698459 orientation 1 0 0 0 velocity 0 0 0 angularVelocity 0 0 0 force 0 0 0 torque 0 0 0 vertexInLabFrame  133.357137471459 -0.0294542376077516 0.147243537669169 -66.6999366161325 199.978596936121 0.437544631809374 -66.6572008553269 -199.949142698514 -0.584788169478543
TriangleWall id 32 indSpecies 0 position -199.466518744122 -4332.67125428046 -398.81607927826 orientation 1 0 0 0 velocity 0 0 0 angularVelocity 0 0 0 force 0 0 0 torque 0 0 0 vertexInLabFrame  -0.0929828514898361 133.154142984179 0.194739138330419 -199.894200879714 -66.5563935585169 -0.280772349941003 199.987183731204 -66.5977494256631 0.0860332116106406
TriangleWall id 33 indSpecies 0 position -66.2402442000291 -4199.49779850496 -398.527900321013 orientation 1 0 0 0 velocity 0 0 0 angularVelocity 0 0 0 force 0 0 0 torque 0 0 0 vertexInLabFrame  -133.319257395583 -0.0193127913189528 -0.0934398189165222 66.7609091871113 -199.771205201161 -0.202145745636301 66.5583482084714 199.79051799248 0.295585564552766
TriangleWall id 34 indSpecies 0 position -199.652484447102 -4066.3629683121 -398.426601001599 orientation 1 0 0 0 velocity 0 0 0 angularVelocity 0 0 0 force 0 0 0 torque 0 0 0 vertexInLabFrame  0.0929828514898929 -133.15414298418 -0.194739138330533 199.970588455544 66.6556877996195 0.194286245138755 -200.063571307034 66.4984551845591 0.000452893191607018
TriangleWall id 35 indSpecies 0 position -332.878758991194 -4199.5364240876 -398.714779958846 orientation 1 0 0 0 velocity 0 0 0 angularVelocity 0 0 0 force 0 0 0 torque 0 0 0 vertexInLabFrame  133.319257395583 0.0193127913189528 0.0934398189164085 -66.837296762941 199.671910960058 0.288631850438549 -66.4819606326416 -199.691223751377 -0.382071669355014
TriangleWall id 36 indSpecies 0 position 200.47059118557 -4332.74539280966 -398.611477535804 orientation 1 0 0 0 velocity 0 0 0 angularVelocity 0 0 0 force 0 0 0 torque 0 0 0 vertexInLabFrame  -0.0524580441592661 133.197270145436 0.174927485619037 -199.949926198488 -66.5236108964609 -0.118568530845494 200.002384242647 -66.6736592489742 -0.0563589547734864
TriangleWall id 37 indSpecies 0 position 333.750632237177 -4199.58810970084 -398.406796475938 orientation 1 0 0 0 velocity 0 0 0 angularVelocity 0 0 0 force 0 0 0 torque 0 0 0 vertexInLabFrame  -133.332499095766 0.0399870366163668 -0.0297535742466835 66.7223431910407 -199.830942357794 -0.261040014639207 66.610155904725 199.790955321179 0.290793588885833
TriangleWall id 38 indSpecies 0 position 200.365675097252 -4066.35085251879 -398.261622564566 orientation 1 0 0 0 velocity 0 0 0 angularVelocity 0 0 0 force 0 0 0 torque 0 0 0 vertexInLabFrame  0.0524580441592661 -133.197270145436 -0.174927485619037 199.99511304465 66.5536981391269 0.14561967751348 -200.047571088809 66.6435720063087 0.0293078081055
TriangleWall id 39 indSpecies 0 position 67.0856340456451 -4199.50813562761 -398.466303624432 orientation 1 0 0 0 velocity 0 0 0 angularVelocity 0 0 0 force 0 0 0 torque 0 0 0 vertexInLabFrame  133.332499095766 -0.0399870366154573 0.0297535742466835 -66.7675300372028 199.800855115129 0.23398886797122 -66.5649690585629 -199.760868078512 -0.263742442217847
TriangleWall id 40 indSpecies 0 position -199.668222763941 -3933.11322957414 -398.26652150471 orientation 1 0 0 0 velocity 0 0 0 angularVelocity 0 0 0 force 0 0 0 torque 0 0 0 vertexInLabFrame  0.0615062178104893 133.345334491744 0.125419855448058 -200.047832990194 -66.7512835534021 -0.159626603697632 199.986326772383 -66.5940509383418 0.0342067482495167
TriangleWall id 41 indSpecies 0 position -66.2739836316495 -3799.74226769911 -397.999276485565 orientation 1 0 0 0 velocity 0 0 0 angularVelocity 0 0 0 force 0 0 0 torque 0 0 0 vertexInLabFrame  -133.332732914481 -0.0256273832815168 -0.141825163697376 66.5920876400917 -199.965012813368 -0.233038270895918 66.7406452743896 199.99064019665 0.374863434593351
TriangleWall id 42 indSpecies 0 position -199.54521032832 -3666.42256059065 -398.015681793814 orientation 1 0 0 0 velocity 0 0 0 angularVelocity 0 0 0 force 0 0 0 torque 0 0 0 vertexInLabFrame  -0.0615062178105461 -133.345334491744 -0.125419855448058 200.01187197106 66.6709330881872 0.391268742842669 -199.95036575325 66.6744014035567 -0.265848887394725
TriangleWall id 43 indSpecies 0 position -332.939449460612 -3799.79352246567 -398.282926812959 orientation 1 0 0 0 velocity 0 0 0 angularVelocity 0 0 0 force 0 0 0 torque 0 0 0 vertexInLabFrame  133.332732914481 0.0256273832815168 0.141825163697433 -66.556126620958 200.045363278582 0.00139613175076647 -66.7766062935233 -200.070990661865 -0.143221295448257
TriangleWall id 44 indSpecies 0 position 200.358719694886 -3933.09197210693 -398.049872398807 orientation 1 0 0 0 velocity 0 0 0 angularVelocity 0 0 0 force 0 0 0 torque 0 0 0 vertexInLabFrame  0.0385472394286808 133.320490678278 0.248572845898821 -200.040615686444 -66.6153084055481 -0.182442357653429 200.002068447015 -66.7051822727299 -0.0661304882454488
TriangleWall id 45 indSpecies 0 position 333.733856340131 -3799.79949970944 -397.716589985703 orientation 1 0 0 0 velocity 0 0 0 angularVelocity 0 0 0 force 0 0 0 torque 0 0 0 vertexInLabFrame  -133.336589405816 0.0280182807882738 -0.0847095672050955 66.6269318017709 -199.99765467022 -0.399412901349365 66.7096576040449 199.96963638943 0.484122468554517
TriangleWall id 46 indSpecies 0 position 200.435814173744 -3666.45099075037 -397.552726707009 orientation 1 0 0 0 velocity 0 0 0 angularVelocity 0 0 0 force 0 0 0 torque 0 0 0 vertexInLabFrame  -0.0385472394286523 -133.320490678278 -0.248572845898877 200.007699770432 66.6211274303641 0.320259189860735 -199.969152531004 66.6993632479134 -0.0716863439618578
TriangleWall id 47 indSpecies 0 position 67.0606775284991 -3799.74346314786 -397.886009120113 orientation 1 0 0 0 velocity 0 0 0 angularVelocity 0 0 0 force 0 0 0 torque 0 0 0 vertexInLabFrame  133.336589405816 -0.0280182807882738 0.0847095672050955 -66.594015885759 199.991835645403 0.261596069142115 -66.7425735200569 -199.963817364614 -0.346305636347154
TriangleWall id 48 indSpecies 0 position -199.492806158308 -3533.10059305823 -397.980078803929 orientation 1 0 0 0 velocity 0 0 0 angularVelocity 0 0 0 force 0 0 0 torque 0 0 0 vertexInLabFrame  0.0433021222146976 133.298600573089 -0.0542138756771351 -200.002769923262 -66.6475661288596 -0.301451877280158 199.959467801048 -66.651034444229 0.355665752957236
TriangleWall id 49 indSpecies 0 position -66.136690140378 -3399.80176392108 -397.822576126481 orientation 1 0 0 0 velocity 0 0 0 angularVelocity 0 0 0 force 0 0 0 torque 0 0 0 vertexInLabFrame  -133.312813895715 -0.000228564063945669 -0.211716553124461 66.603351783118 -199.949863581382 0.19816307550991 66.709462112597 199.950092145445 0.0135534776144937
TriangleWall id 50 indSpecies 0 position -199.406201913878 -3266.50339191205 -398.088506555283 orientation 1 0 0 0 velocity 0 0 0 angularVelocity 0 0 0 force 0 0 0 torque 0 0 0 vertexInLabFrame  -0.0433021222147261 -133.298600573088 0.0542138756770214 199.978973886097 66.6517201364213 0.279483906415976 -199.935671763882 66.6468804366677 -0.333697782093054
TriangleWall id 51 indSpecies 0 position -332.762317931808 -3399.80222104921 -398.24600923273 orientation 1 0 0 0 velocity 0 0 0 angularVelocity 0 0 0 force 0 0 0 torque 0 0 0 vertexInLabFrame  133.312813895715 0.000228564064855163 0.21171655312429 -66.5795557459527 199.94570957382 -0.176195104645785 -66.7332581497622 -199.945938137883 -0.0355214484787325
TriangleWall id 52 indSpecies 0 position 200.469995498875 -3533.14295520345 -397.450309048809 orientation 1 0 0 0 velocity 0 0 0 angularVelocity 0 0 0 force 0 0 0 torque 0 0 0 vertexInLabFrame  0.0298154108349991 133.295580415577 -0.0437375294973776 -200.003333856135 -66.6086722990135 -0.174104002162551 199.9735184453 -66.6869081165628 0.217841531660042
TriangleWall id 53 indSpecies 0 position 333.819873644531 -3399.87785822042 -397.345599063898 orientation 1 0 0 0 velocity 0 0 0 angularVelocity 0 0 0 force 0 0 0 torque 0 0 0 vertexInLabFrame  -133.320062734821 0.0304834325488628 -0.148447514408474 66.6236402996447 -199.952005099591 0.113131546748946 66.6964224351759 199.921521667041 0.035315967659642
TriangleWall id 54 indSpecies 0 position 200.529626320546 -3266.55179437229 -397.537784107804 orientation 1 0 0 0 velocity 0 0 0 angularVelocity 0 0 0 force 0 0 0 torque 0 0 0 vertexInLabFrame  -0.0298154108350275 -133.295580415576 0.0437375294974913 199.986669759161 66.5954578189157 0.227501011565607 -199.956854348327 66.7001225966601 -0.271238541063099
TriangleWall id 55 indSpecies 0 position 67.1797481748898 -3399.81689135532 -397.642494092715 orientation 1 0 0 0 velocity 0 0 0 angularVelocity 0 0 0 force 0 0 0 torque 0 0 0 vertexInLabFrame  133.320062734821 -0.0304834325488628 0.148447514408588 -66.6069762026709 199.965219579688 -0.166528556152002 -66.7130865321498 -199.934736147139 0.0180810417434145
TriangleWall id 56 indSpecies 0 position -199.452349462695 -3133.25446566069 -398.150443984903 orientation 1 0 0 0 velocity 0 0 0 angularVelocity 0 0 0 force 0 0 0 torque 0 0 0 vertexInLabFrame  -0.135597219848393 133.199251929637 -0.0696609835629829 -199.889524215066 -66.602045814695 -0.271760352473052 200.025121434914 -66.5972061149414 0.341421336035978
TriangleWall id 57 indSpecies 0 position -66.237578480457 -3000.0447044231 -398.049015231944 orientation 1 0 0 0 velocity 0 0 0 angularVelocity 0 0 0 force 0 0 0 torque 0 0 0 vertexInLabFrame  -133.350368202086 -0.010509307952816 -0.171089736521992 66.810350452676 -199.806967352531 0.239992583076969 66.5400177494104 199.817476660485 -0.06890284655492
TriangleWall id 58 indSpecies 0 position -199.723543902392 -2866.85596180142 -398.289765952029 orientation 1 0 0 0 velocity 0 0 0 angularVelocity 0 0 0 force 0 0 0 torque 0 0 0 vertexInLabFrame  0.135597219848364 -133.199251929637 0.069660983562926 200.025983171345 66.6287340388003 0.171847873529998 -200.161580391193 66.5705178908361 -0.241508857092924
TriangleWall id 59 indSpecies 0 position -332.93831488463 -3000.06572303901 -398.391194704988 orientation 1 0 0 0 velocity 0 0 0 angularVelocity 0 0 0 force 0 0 0 torque 0 0 0 vertexInLabFrame  133.350368202086 0.010509307952816 0.171089736521935 -66.9468094089555 199.780279128426 -0.140080104133915 -66.4035587931309 -199.790788436379 -0.0310096323881339
TriangleWall id 60 indSpecies 0 position 200.514794131545 -3133.28533292648 -397.617006053701 orientation 1 0 0 0 velocity 0 0 0 angularVelocity 0 0 0 force 0 0 0 torque 0 0 0 vertexInLabFrame  -0.0594797888359153 133.237342476045 -0.114706362297056 -199.942022159326 -66.5663388491507 -0.192016595165796 200.001501948162 -66.6710036268951 0.30672295746291
TriangleWall id 61 indSpecies 0 position 333.800453490791 -3000.05368423798 -397.577207117541 orientation 1 0 0 0 velocity 0 0 0 angularVelocity 0 0 0 force 0 0 0 torque 0 0 0 vertexInLabFrame  -133.345139148082 0.00569378754198624 -0.154505298456456 66.7158425889159 -199.902652315398 0.26692402130351 66.6292965591661 199.896958527857 -0.112418722847053
TriangleWall id 62 indSpecies 0 position 200.395834553873 -2866.81064797439 -397.846418778295 orientation 1 0 0 0 velocity 0 0 0 angularVelocity 0 0 0 force 0 0 0 torque 0 0 0 vertexInLabFrame  0.0594797888358585 -133.237342476045 0.114706362297056 200.033915496084 66.65392226427 0.156792937906459 -200.09339528492 66.5834202117753 -0.271499300203573
TriangleWall id 63 indSpecies 0 position 67.1101751946272 -3000.0422966629 -397.886217714454 orientation 1 0 0 0 velocity 0 0 0 angularVelocity 0 0 0 force 0 0 0 torque 0 0 0 vertexInLabFrame  133.345139148082 -0.00569378754153149 0.154505298456456 -66.8077359256738 199.815068900279 -0.231700364044173 -66.5374032224082 -199.809375112737 0.0771950655877163
TriangleWall id 64 indSpecies 0 position -199.709904713504 -2733.62280788057 -398.443239874116 orientation 1 0 0 0 velocity 0 0 0 angularVelocity 0 0 0 force 0 0 0 torque 0 0 0 vertexInLabFrame  0.162875597624577 133.267055912047 -0.237286860612755 -200.175219580082 -66.6626360300065 -0.0880349350050551 200.012343982457 -66.6044198820423 0.325321795617867
TriangleWall id 65 indSpecies 0 position -66.1807747661157 -2600.35534672038 -398.516824497296 orientation 1 0 0 0 velocity 0 0 0 angularVelocity 0 0 0 force 0 0 0 torque 0 0 0 vertexInLabFrame  -133.366254349763 -0.000405248147217208 -0.163702237433426 66.4832140350691 -199.871881042237 0.398906418797196 66.8830403146943 199.872286290383 -0.235204181363827
TriangleWall id 66 indSpecies 0 position -199.384153518254 -2467.08869605648 -398.917813595342 orientation 1 0 0 0 velocity 0 0 0 angularVelocity 0 0 0 force 0 0 0 torque 0 0 0 vertexInLabFrame  -0.162875597624577 -133.267055912047 0.237286860612812 200.086419066833 66.605635626483 0.165784916682412 -199.923543469208 66.6614202855649 -0.403071777295111
TriangleWall id 67 indSpecies 0 position -332.913283465642 -2600.35615721668 -398.844228972163 orientation 1 0 0 0 velocity 0 0 0 angularVelocity 0 0 0 force 0 0 0 torque 0 0 0 vertexInLabFrame  133.366254349763 0.000405248147217208 0.163702237433426 -66.3944135218205 199.92888144576 -0.476656400474496 -66.9718408279429 -199.929286693906 0.312954163041127
TriangleWall id 68 indSpecies 0 position 200.420417175246 -2733.58744393065 -397.978624603315 orientation 1 0 0 0 velocity 0 0 0 angularVelocity 0 0 0 force 0 0 0 torque 0 0 0 vertexInLabFrame  0.108645031582228 133.209065611441 -0.14970528774279 -200.117977906293 -66.6397838319672 -0.139293475183592 200.009332874711 -66.5692817794725 0.28899876292644
TriangleWall id 69 indSpecies 0 position 333.880202072204 -2600.39386780114 -397.923900899377 orientation 1 0 0 0 velocity 0 0 0 angularVelocity 0 0 0 force 0 0 0 torque 0 0 0 vertexInLabFrame  -133.351139865375 0.0154894819347646 -0.204428991680913 66.5495479777535 -199.762857908978 0.234275058988317 66.8015918876216 199.747368427044 -0.0298460673074032
TriangleWall id 70 indSpecies 0 position 200.637707238411 -2467.16931270777 -398.278035178801 orientation 1 0 0 0 velocity 0 0 0 angularVelocity 0 0 0 force 0 0 0 torque 0 0 0 vertexInLabFrame  -0.108645031582199 -133.209065611441 0.14970528774279 200.044086721414 66.5228133336686 0.324288212116301 -199.935441689832 66.6862522777715 -0.473993499859034
TriangleWall id 71 indSpecies 0 position 67.1779223414535 -2600.36288883727 -398.332758882739 orientation 1 0 0 0 velocity 0 0 0 angularVelocity 0 0 0 force 0 0 0 torque 0 0 0 vertexInLabFrame  133.351139865375 -0.0154894819347646 0.204428991680913 -66.4756567928749 199.879828407277 -0.419269795920911 -66.8754830725001 -199.864338925343 0.214840804240112
TriangleWall id 72 indSpecies 0 position -199.247542263251 -2333.7494571029 -399.091157294849 orientation 1 0 0 0 velocity 0 0 0 angularVelocity 0 0 0 force 0 0 0 torque 0 0 0 vertexInLabFrame  0.110346912382681 133.411421995105 -0.109400538401644 -200.060154724212 -66.6778186680117 -0.229728077787911 199.949807811829 -66.7336033270935 0.339128616189612
TriangleWall id 73 indSpecies 0 position -65.8188733147449 -2200.3660022798 -398.93034982809 orientation 1 0 0 0 velocity 0 0 0 angularVelocity 0 0 0 force 0 0 0 torque 0 0 0 vertexInLabFrame  -133.318322036123 0.0279671719999897 -0.270208005160953 66.5211388633235 -200.117058150198 0.178321149430303 66.7971831727997 200.089090978198 0.0918868557307064
TriangleWall id 74 indSpecies 0 position -199.026848438486 -2066.92661311269 -399.309958371652 orientation 1 0 0 0 velocity 0 0 0 angularVelocity 0 0 0 force 0 0 0 torque 0 0 0 vertexInLabFrame  -0.110346912382624 -133.411421995105 0.109400538401644 200.00515829654 66.6497018110927 0.471495399293303 -199.894811384158 66.7617201840126 -0.580895937694777
TriangleWall id 75 indSpecies 0 position -332.455517386991 -2200.3100679358 -399.470765838412 orientation 1 0 0 0 velocity 0 0 0 angularVelocity 0 0 0 force 0 0 0 torque 0 0 0 vertexInLabFrame  133.318322036123 -0.0279671720008992 0.270208005160896 -66.4661424356518 200.145175007117 -0.420088470935525 -66.8521796004715 -200.117207835117 0.149880465774629
TriangleWall id 76 indSpecies 0 position 200.732422348721 -2333.85584161585 -398.345468342506 orientation 1 0 0 0 velocity 0 0 0 angularVelocity 0 0 0 force 0 0 0 torque 0 0 0 vertexInLabFrame  0.0807851890384086 133.417876572397 0.0148389603309056 -200.030156800143 -66.627218814147 -0.406560336153177 199.949371611104 -66.7906577582498 0.391721375822158
TriangleWall id 77 indSpecies 0 position 334.128487427388 -2200.47661782856 -398.02088508662 orientation 1 0 0 0 velocity 0 0 0 angularVelocity 0 0 0 force 0 0 0 torque 0 0 0 vertexInLabFrame  -133.315279889629 0.0386527851032952 -0.309744295556015 66.5533065324371 -200.169881545543 0.0671381199352368 66.7619733571916 200.13122876044 0.242606175620665
TriangleWall id 78 indSpecies 0 position 200.893992726798 -2067.02008847106 -398.315790421844 orientation 1 0 0 0 velocity 0 0 0 angularVelocity 0 0 0 force 0 0 0 torque 0 0 0 vertexInLabFrame  -0.0807851890384654 -133.417876572396 -0.0148389603310193 199.996468057782 66.6746994029406 0.537511510845661 -199.915682868743 66.743177169456 -0.522672550514699
TriangleWall id 79 indSpecies 0 position 67.497927648131 -2200.39931225835 -398.640373677731 orientation 1 0 0 0 velocity 0 0 0 angularVelocity 0 0 0 force 0 0 0 torque 0 0 0 vertexInLabFrame  133.315279889629 -0.0386527851028404 0.309744295555959 -66.5196177900762 200.12240095675 -0.198089294627721 -66.7956620995524 -200.083748171647 -0.111655000928124
TriangleWall id 80 indSpecies 0 position -199.008595634627 -1933.49846448195 -399.292895117433 orientation 1 0 0 0 velocity 0 0 0 angularVelocity 0 0 0 force 0 0 0 torque 0 0 0 vertexInLabFrame  -0.0738413046664732 133.444875266384 0.143527046839893 -199.913064188016 -66.6664284467317 -0.597959191914015 199.986905492682 -66.7784468196517 0.454432145074065