<?xml version="1.0"?>
<VTKFile type="UnstructuredGrid" version="0.1" byte_order="LittleEndian" compressor="vtkZLibDataCompressor">
<UnstructuredGrid>
<Piece NumberOfPoints="960" NumberOfCells="120">
<Points>
<DataArray type="Float32" NumberOfComponents="3" format="ascii">
-4.000000e+02 -6.000000e+03 -4.000000e+02
0.000000e+00 -6.000000e+03 -4.000000e+02
-4.000010e+02 -5.600030e+03 -4.000910e+02
-4.830780e-06 -5.600030e+03 -4.000920e+02
-4.000000e+02 -6.000000e+03 0.000000e+00
0.000000e+00 -6.000000e+03 0.000000e+00
-4.000000e+02 -5.599990e+03 -3.724310e-02
-8.099030e-07 -5.599990e+03 -3.779990e-02
0.000000e+00 -6.000000e+03 -4.000000e+02
4.000000e+02 -6.000000e+03 -4.000000e+02
-4.830780e-06 -5.600030e+03 -4.000920e+02
4.000010e+02 -5.600030e+03 -4.000910e+02
0.000000e+00 -6.000000e+03 0.000000e+00
4.000000e+02 -6.000000e+03 0.000000e+00
-8.099030e-07 -5.599990e+03 -3.779990e-02
4.000000e+02 -5.599990e+03 -3.723140e-02
-4.000010e+02 -5.600030e+03 -4.000910e+02
-4.830780e-06 -5.600030e+03 -4.000920e+02
-3.999990e+02 -5.200020e+03 -4.001250e+02
-7.674130e-06 -5.200020e+03 -4.001260e+02
-4.000000e+02 -5.599990e+03 -3.724310e-02
-8.099030e-07 -5.599990e+03 -3.779990e-02
-4.000000e+02 -5.200020e+03 -8.663990e-02
5.213490e-06 -5.200020e+03 -8.599430e-02
-4.830780e-06 -5.600030e+03 -4.000920e+02
4.000010e+02 -5.600030e+03 -4.000910e+02
-7.674130e-06 -5.200020e+03 -4.001260e+02
3.999990e+02 -5.200020e+03 -4.001250e+02
-8.099030e-07 -5.599990e+03 -3.779990e-02
4.000000e+02 -5.599990e+03 -3.723140e-02
5.213490e-06 -5.200020e+03 -8.599430e-02
4.000000e+02 -5.200020e+03 -8.664470e-02
-3.999990e+02 -5.200020e+03 -4.001250e+02
-7.674130e-06 -5.200020e+03 -4.001260e+02
-3.999990e+02 -4.800030e+03 -4.001150e+02
-1.628520e-06 -4.800030e+03 -4.001150e+02
-4.000000e+02 -5.200020e+03 -8.663990e-02
5.213490e-06 -5.200020e+03 -8.599430e-02
-4.000000e+02 -4.800010e+03 -1.316070e-01
6.049150e-08 -4.800010e+03 -1.309740e-01
-7.674130e-06 -5.200020e+03 -4.001260e+02
3.999990e+02 -5.200020e+03 -4.001250e+02
-1.628520e-06 -4.800030e+03 -4.001150e+02
3.999990e+02 -4.800030e+03 -4.001150e+02
5.213490e-06 -5.200020e+03 -8.599430e-02
4.000000e+02 -5.200020e+03 -8.664470e-02
6.049150e-08 -4.800010e+03 -1.309740e-01
4.000000e+02 -4.800010e+03 -1.316100e-01
-3.999990e+02 -4.800030e+03 -4.001150e+02
-1.628520e-06 -4.800030e+03 -4.001150e+02
-4.000010e+02 -4.400060e+03 -4.001530e+02
3.781630e-06 -4.400060e+03 -4.001540e+02
-4.000000e+02 -4.800010e+03 -1.316070e-01
6.049150e-08 -4.800010e+03 -1.309740e-01
-4.000000e+02 -4.399990e+03 -1.727160e-01
-3.334980e-06 -4.399990e+03 -1.734920e-01
-1.628520e-06 -4.800030e+03 -4.001150e+02
3.999990e+02 -4.800030e+03 -4.001150e+02
3.781630e-06 -4.400060e+03 -4.001540e+02
4.000010e+02 -4.400060e+03 -4.001530e+02
6.049150e-08 -4.800010e+03 -1.309740e-01
4.000000e+02 -4.800010e+03 -1.316100e-01
-3.334980e-06 -4.399990e+03 -1.734920e-01
4.000000e+02 -4.399990e+03 -1.727150e-01
-4.000010e+02 -4.400060e+03 -4.001530e+02
3.781630e-06 -4.400060e+03 -4.001540e+02
-4.000000e+02 -4.000050e+03 -4.002300e+02
4.285250e-06 -4.000050e+03 -4.002300e+02
-4.000000e+02 -4.399990e+03 -1.727160e-01
-3.334980e-06 -4.399990e+03 -1.734920e-01
-4.000000e+02 -3.999990e+03 -2.062550e-01
1.189450e-06 -3.999990e+03 -2.064150e-01
3.781630e-06 -4.400060e+03 -4.001540e+02
4.000010e+02 -4.400060e+03 -4.001530e+02
4.285250e-06 -4.000050e+03 -4.002300e+02
4.000000e+02 -4.000050e+03 -4.002300e+02
-3.334980e-06 -4.399990e+03 -1.734920e-01
4.000000e+02 -4.399990e+03 -1.727150e-01
1.189450e-06 -3.999990e+03 -2.064150e-01
4.000000e+02 -3.999990e+03 -2.062530e-01
-4.000000e+02 -4.000050e+03 -4.002300e+02
4.285250e-06 -4.000050e+03 -4.002300e+02
-3.999990e+02 -3.600020e+03 -4.002810e+02
6.229910e-06 -3.600020e+03 -4.002800e+02
-4.000000e+02 -3.999990e+03 -2.062550e-01
1.189450e-06 -3.999990e+03 -2.064150e-01
-4.000000e+02 -3.600010e+03 -2.630510e-01
1.341150e-06 -3.600010e+03 -2.621890e-01
4.285250e-06 -4.000050e+03 -4.002300e+02
4.000000e+02 -4.000050e+03 -4.002300e+02
6.229910e-06 -3.600020e+03 -4.002800e+02
3.999990e+02 -3.600020e+03 -4.002810e+02
1.189450e-06 -3.999990e+03 -2.064150e-01
4.000000e+02 -3.999990e+03 -2.062530e-01
1.341150e-06 -3.600010e+03 -2.621890e-01
4.000000e+02 -3.600010e+03 -2.630510e-01
-3.999990e+02 -3.600020e+03 -4.002810e+02
6.229910e-06 -3.600020e+03 -4.002800e+02
-4.000000e+02 -3.200020e+03 -4.002690e+02
8.423180e-06 -3.200020e+03 -4.002690e+02
-4.000000e+02 -3.600010e+03 -2.630510e-01
1.341150e-06 -3.600010e+03 -2.621890e-01
-4.000000e+02 -3.200010e+03 -2.919400e-01
-1.252410e-07 -3.200010e+03 -2.923680e-01
6.229910e-06 -3.600020e+03 -4.002800e+02
3.999990e+02 -3.600020e+03 -4.002810e+02
8.423180e-06 -3.200020e+03 -4.002690e+02
4.000000e+02 -3.200020e+03 -4.002690e+02
1.341150e-06 -3.600010e+03 -2.621890e-01
4.000000e+02 -3.600010e+03 -2.630510e-01
-1.252410e-07 -3.200010e+03 -2.923680e-01
4.000000e+02 -3.200010e+03 -2.919230e-01
-4.000000e+02 -3.200020e+03 -4.002690e+02
8.423180e-06 -3.200020e+03 -4.002690e+02
-4.000000e+02 -2.800060e+03 -4.003190e+02
8.557440e-06 -2.800060e+03 -4.003180e+02
-4.000000e+02 -3.200010e+03 -2.919400e-01
-1.252410e-07 -3.200010e+03 -2.923680e-01
-4.000010e+02 -2.799990e+03 -3.336030e-01
-9.311680e-07 -2.799990e+03 -3.340780e-01
8.423180e-06 -3.200020e+03 -4.002690e+02
4.000000e+02 -3.200020e+03 -4.002690e+02
8.557440e-06 -2.800060e+03 -4.003180e+02
4.000000e+02 -2.800060e+03 -4.003190e+02
-1.252410e-07 -3.200010e+03 -2.923680e-01
4.000000e+02 -3.200010e+03 -2.919230e-01
-9.311680e-07 -2.799990e+03 -3.340780e-01
4.000010e+02 -2.799990e+03 -3.335730e-01
-4.000000e+02 -2.800060e+03 -4.003190e+02
8.557440e-06 -2.800060e+03 -4.003180e+02
-3.999990e+02 -2.400050e+03 -4.004090e+02
9.324970e-06 -2.400050e+03 -4.004080e+02
-4.000010e+02 -2.799990e+03 -3.336030e-01
-9.311680e-07 -2.799990e+03 -3.340780e-01
-4.000000e+02 -2.399990e+03 -3.801180e-01
-2.687330e-06 -2.399990e+03 -3.794480e-01
8.557440e-06 -2.800060e+03 -4.003180e+02
4.000000e+02 -2.800060e+03 -4.003190e+02
9.324970e-06 -2.400050e+03 -4.004080e+02
3.999990e+02 -2.400050e+03 -4.004090e+02
-9.311680e-07 -2.799990e+03 -3.340780e-01
4.000010e+02 -2.799990e+03 -3.335730e-01
-2.687330e-06 -2.399990e+03 -3.794480e-01
4.000000e+02 -2.399990e+03 -3.800940e-01
-3.999990e+02 -2.400050e+03 -4.004090e+02
9.324970e-06 -2.400050e+03 -4.004080e+02
-4.000000e+02 -2.000010e+03 -4.004110e+02
3.110460e-06 -2.000010e+03 -4.004110e+02
-4.000000e+02 -2.399990e+03 -3.801180e-01
-2.687330e-06 -2.399990e+03 -3.794480e-01
-4.000000e+02 -2.000020e+03 -4.004530e-01
3.604510e-06 -2.000020e+03 -4.004690e-01
9.324970e-06 -2.400050e+03 -4.004080e+02
3.999990e+02 -2.400050e+03 -4.004090e+02
3.110460e-06 -2.000010e+03 -4.004110e+02
4.000000e+02 -2.000010e+03 -4.004110e+02
-2.687330e-06 -2.399990e+03 -3.794480e-01
4.000000e+02 -2.399990e+03 -3.800940e-01
3.604510e-06 -2.000020e+03 -4.004690e-01
4.000000e+02 -2.000020e+03 -4.004560e-01
-4.000000e+02 -2.000010e+03 -4.004110e+02
3.110460e-06 -2.000010e+03 -4.004110e+02
-4.000020e+02 -1.600020e+03 -4.003980e+02
5.886590e-06 -1.600020e+03 -4.004000e+02
-4.000000e+02 -2.000020e+03 -4.004530e-01
3.604510e-06 -2.000020e+03 -4.004690e-01
-3.999990e+02 -1.600000e+03 -4.421760e-01
1.934740e-06 -1.600000e+03 -4.428700e-01
3.110460e-06 -2.000010e+03 -4.004110e+02
4.000000e+02 -2.000010e+03 -4.004110e+02
5.886590e-06 -1.600020e+03 -4.004000e+02
4.000020e+02 -1.600020e+03 -4.003980e+02
3.604510e-06 -2.000020e+03 -4.004690e-01
4.000000e+02 -2.000020e+03 -4.004560e-01
1.934740e-06 -1.600000e+03 -4.428700e-01
3.999990e+02 -1.600000e+03 -4.421670e-01
-4.000020e+02 -1.600020e+03 -4.003980e+02
5.886590e-06 -1.600020e+03 -4.004000e+02
-4.000000e+02 -1.200050e+03 -4.004770e+02
9.805740e-06 -1.200050e+03 -4.004780e+02
-3.999990e+02 -1.600000e+03 -4.421760e-01
1.934740e-06 -1.600000e+03 -4.428700e-01
-3.999990e+02 -1.199980e+03 -4.693030e-01
-2.989370e-06 -1.199980e+03 -4.688030e-01
5.886590e-06 -1.600020e+03 -4.004000e+02
4.000020e+02 -1.600020e+03 -4.003980e+02
9.805740e-06 -1.200050e+03 -4.004780e+02
4.000000e+02 -1.200050e+03 -4.004770e+02
1.934740e-06 -1.600000e+03 -4.428700e-01
3.999990e+02 -1.600000e+03 -4.421670e-01
-2.989370e-06 -1.199980e+03 -4.688030e-01
3.999990e+02 -1.199980e+03 -4.692900e-01
-4.000000e+02 -1.200050e+03 -4.004770e+02
9.805740e-06 -1.200050e+03 -4.004780e+02
-4.000000e+02 -8.000390e+02 -4.005520e+02
3.550090e-06 -8.000390e+02 -4.005530e+02
-3.999990e+02 -1.199980e+03 -4.693030e-01
-2.989370e-06 -1.199980e+03 -4.688030e-01
-4.000000e+02 -8.000090e+02 -5.021010e-01
-3.633740e-06 -8.000090e+02 -5.018930e-01
9.805740e-06 -1.200050e+03 -4.004780e+02
4.000000e+02 -1.200050e+03 -4.004770e+02
3.550090e-06 -8.000390e+02 -4.005530e+02
4.000000e+02 -8.000390e+02 -4.005520e+02
-2.989370e-06 -1.199980e+03 -4.688030e-01
3.999990e+02 -1.199980e+03 -4.692900e-01
-3.633740e-06 -8.000090e+02 -5.018930e-01
4.000000e+02 -8.000090e+02 -5.020880e-01
-4.000000e+02 -8.000390e+02 -4.005520e+02
3.550090e-06 -8.000390e+02 -4.005530e+02
-4.000010e+02 -4.000170e+02 -4.005010e+02
-1.000070e-05 -4.000170e+02 -4.005010e+02
-4.000000e+02 -8.000090e+02 -5.021010e-01
-3.633740e-06 -8.000090e+02 -5.018930e-01
-4.000000e+02 -4.000170e+02 -5.364750e-01
6.713000e-06 -4.000170e+02 -5.372040e-01
3.550090e-06 -8.000390e+02 -4.005530e+02
4.000000e+02 -8.000390e+02 -4.005520e+02
-1.000070e-05 -4.000170e+02 -4.005010e+02
4.000010e+02 -4.000170e+02 -4.005010e+02
-3.633740e-06 -8.000090e+02 -5.018930e-01
4.000000e+02 -8.000090e+02 -5.020880e-01
6.713000e-06 -4.000170e+02 -5.372040e-01
4.000000e+02 -4.000170e+02 -5.364780e-01
-4.000010e+02 -4.000170e+02 -4.005010e+02
-1.000070e-05 -4.000170e+02 -4.005010e+02
-3.999990e+02 -4.039700e-02 -4.005210e+02
-4.282930e-06 -4.089510e-02 -4.005200e+02
-4.000000e+02 -4.000170e+02 -5.364750e-01
6.713000e-06 -4.000170e+02 -5.372040e-01
-4.000000e+02 1.957590e-02 -5.568710e-01
1.437790e-06 1.961750e-02 -5.564320e-01
-1.000070e-05 -4.000170e+02 -4.005010e+02
4.000010e+02 -4.000170e+02 -4.005010e+02
[...]
<PointData>
<DataArray type="Float32" Name="V1" format="ascii">
0.000000e+00
0.000000e+00
7.140150e-04
-4.979970e-06
0.000000e+00
0.000000e+00
-1.832420e-03
6.085970e-06
0.000000e+00
0.000000e+00
-4.979970e-06
-7.239870e-04
0.000000e+00
0.000000e+00
6.085970e-06
1.844590e-03
7.140150e-04
-4.979970e-06
3.762380e-03
1.203580e-06
-1.832420e-03
6.085970e-06
-2.842220e-03
1.933250e-06
-4.979970e-06
-7.239870e-04
1.203580e-06
-3.759980e-03
6.085970e-06
1.844590e-03
1.933250e-06
2.846090e-03
3.762380e-03
1.203580e-06
3.318990e-03
-5.607710e-06
-2.842220e-03
1.933250e-06
-2.697650e-03
1.228580e-06
1.203580e-06
-3.759980e-03
-5.607710e-06
-3.330200e-03
1.933250e-06
2.846090e-03
1.228580e-06
2.700100e-03
3.318990e-03
-5.607710e-06
1.486400e-04
-1.769380e-06
-2.697650e-03
1.228580e-06
-1.412810e-03
4.633090e-06
-5.607710e-06
-3.330200e-03
-1.769380e-06
-1.521730e-04
1.228580e-06
2.700100e-03
4.633090e-06
1.422080e-03
1.486400e-04
-1.769380e-06
-7.584760e-04
4.547280e-06
-1.412810e-03
4.633090e-06
7.762910e-04
-2.013610e-06
-1.769380e-06
-1.521730e-04
4.547280e-06
7.675750e-04
4.633090e-06
1.422080e-03
-2.013610e-06
-7.803170e-04
-7.584760e-04
4.547280e-06
-1.408130e-03
-3.978370e-06
7.762910e-04
-2.013610e-06
2.587980e-03
5.015870e-06
4.547280e-06
7.675750e-04
-3.978370e-06
1.400180e-03
-2.013610e-06
-7.803170e-04
5.015870e-06
-2.577940e-03
-1.408130e-03
-3.978370e-06
-3.810370e-03
7.393020e-06
2.587980e-03
5.015870e-06
2.926410e-03
-1.955630e-06
-3.978370e-06
1.400180e-03
7.393020e-06
3.825160e-03
5.015870e-06
-2.577940e-03
-1.955630e-06
-2.930320e-03
-3.810370e-03
7.393020e-06
-2.653010e-03
-2.052230e-06
2.926410e-03
-1.955630e-06
2.154100e-03
-1.153570e-06
7.393020e-06
3.825160e-03
-2.052230e-06
2.648900e-03
-1.955630e-06
-2.930320e-03
-1.153570e-06
-2.156400e-03
-2.653010e-03
-2.052230e-06
9.855620e-04
-2.319540e-07
2.154100e-03
-1.153570e-06
3.096590e-04
-4.054200e-07
-2.052230e-06
2.648900e-03
-2.319540e-07
-9.860270e-04
-1.153570e-06
-2.156400e-03
-4.054200e-07
-3.104710e-04
9.855620e-04
-2.319540e-07
1.477170e-03
1.388180e-06
3.096590e-04
-4.054200e-07
-1.742490e-03
4.624540e-07
-2.319540e-07
-9.860270e-04
1.388180e-06
-1.474400e-03
-4.054200e-07
-3.104710e-04
4.624540e-07
1.743410e-03
1.477170e-03
1.388180e-06
1.732890e-03
1.640330e-06
-1.742490e-03
4.624540e-07
-2.701010e-03
-1.078550e-06
1.388180e-06
-1.474400e-03
1.640330e-06
-1.729610e-03
4.624540e-07
1.743410e-03
-1.078550e-06
2.698850e-03
1.732890e-03
1.640330e-06
3.686460e-03
-2.042150e-06
-2.701010e-03
-1.078550e-06
-2.607890e-03
2.727740e-07
1.640330e-06
-1.729610e-03
-2.042150e-06
-3.690550e-03
-1.078550e-06
2.698850e-03
2.727740e-07
2.608440e-03
3.686460e-03
-2.042150e-06
1.439610e-03
-7.409260e-06
-2.607890e-03
2.727740e-07
-1.343070e-03
6.079060e-06
-2.042150e-06
-3.690550e-03
-7.409260e-06
-1.454440e-03
2.727740e-07
2.608440e-03
6.079060e-06
1.355240e-03
1.439610e-03
-7.409260e-06
-1.393190e-03
-3.565220e-06
-1.343070e-03
6.079060e-06
4.422050e-04
2.819400e-06
-7.409260e-06
-1.454440e-03
-3.565220e-06
1.386060e-03
6.079060e-06
1.355240e-03
2.819400e-06
-4.365620e-04
-1.393190e-03
-3.565220e-06
-1.516680e-03
5.088890e-06
4.422050e-04
2.819400e-06
2.097330e-03
-3.952030e-06
-3.565220e-06
1.386060e-03
5.088890e-06
1.526860e-03
2.819400e-06
-4.365620e-04
-3.952030e-06
-2.105240e-03
-1.516680e-03
5.088890e-06
-2.294010e-03
-5.121890e-06
2.097330e-03
-3.952030e-06
2.948930e-03
4.159500e-06
5.088890e-06
1.526860e-03
-5.121890e-06
2.283770e-03
-3.952030e-06
-2.105240e-03
4.159500e-06
-2.940620e-03
-2.294010e-03
-5.121890e-06
-3.494070e-03
-6.646220e-06
2.948930e-03
4.159500e-06
2.302290e-03
6.827300e-06
-5.121890e-06
2.283770e-03
-6.646220e-06
3.480780e-03
4.159500e-06
-2.940620e-03
6.827300e-06
-2.288620e-03
-3.494070e-03
-6.646220e-06
-7.133710e-04
7.316190e-06
2.302290e-03
6.827300e-06
8.314210e-04
-1.002690e-05
-6.646220e-06
3.480780e-03
7.316190e-06
7.279840e-04
6.827300e-06
-2.288620e-03
-1.002690e-05
-8.514760e-04
-7.133710e-04
7.316190e-06
2.501000e-03
-1.826470e-06
8.314210e-04
-1.002690e-05
-1.103680e-03
-1.654130e-06
7.316190e-06
7.279840e-04
-1.826470e-06
-2.504660e-03
-1.002690e-05
-8.514760e-04
-1.654130e-06
1.100360e-03
2.501000e-03
-1.826470e-06
1.519730e-03
-2.003710e-06
-1.103680e-03
-1.654130e-06
-2.720200e-03
4.631100e-06
-1.826470e-06
-2.504660e-03
-2.003710e-06
-1.523730e-03
-1.654130e-06
1.100360e-03
4.631100e-06
2.729460e-03
1.519730e-03
-2.003710e-06
2.290610e-03
2.305350e-06
-2.720200e-03
4.631100e-06
-3.012160e-03
-4.830380e-06
-2.003710e-06
-1.523730e-03
2.305350e-06
-2.286000e-03
4.631100e-06
2.729460e-03
-4.830380e-06
3.002500e-03
2.290610e-03
2.305350e-06
3.405080e-03
3.822330e-06
-3.012160e-03
-4.830380e-06
-2.099290e-03
-6.260010e-06
2.305350e-06
-2.286000e-03
3.822330e-06
-3.397430e-03
-4.830380e-06
3.002500e-03
-6.260010e-06
2.086780e-03
3.405080e-03
3.822330e-06
9.898550e-06
-5.712230e-06
-2.099290e-03
-6.260010e-06
-1.183750e-05
4.461580e-06
3.822330e-06
-3.397430e-03
-5.712230e-06
-2.133060e-05
-6.260010e-06
2.086780e-03
4.461580e-06
2.076410e-05
9.898550e-06
-5.712230e-06
-3.318280e-03
-1.448050e-06
-1.183750e-05
4.461580e-06
2.039790e-03
3.057080e-06
-5.712230e-06
-2.133060e-05
-1.448050e-06
3.315390e-03
4.461580e-06
2.076410e-05
3.057080e-06
-2.033680e-03
-3.318280e-03
-1.448050e-06
-2.258640e-03
-3.594800e-06
2.039790e-03
3.057080e-06
3.035480e-03
1.103850e-06
-1.448050e-06
3.315390e-03
-3.594800e-06
2.251460e-03
3.057080e-06
-2.033680e-03
1.103850e-06
-3.033280e-03
-2.258640e-03
-3.594800e-06
-2.158650e-03
3.476050e-06
3.035480e-03
1.103850e-06
2.724810e-03
-5.293720e-06
-3.594800e-06
2.251460e-03
3.476050e-06
2.165620e-03
1.103850e-06
-3.033280e-03
-5.293720e-06
-2.735400e-03
-2.158650e-03
3.476050e-06
-2.239740e-03
-4.512980e-06
2.724810e-03
-5.293720e-06
1.157600e-03
8.807660e-07
3.476050e-06
2.165620e-03
-4.512980e-06
2.230720e-03
-5.293720e-06
-2.735400e-03
8.807660e-07
-1.155840e-03
-2.239740e-03
-4.512980e-06
1.166990e-03
-5.286470e-06
1.157600e-03
8.807660e-07
-8.076040e-04
3.174260e-06
-4.512980e-06
2.230720e-03
-5.286470e-06
-1.177580e-03
8.807660e-07
-1.155840e-03
3.174260e-06
8.139580e-04
1.166990e-03
-5.286470e-06
3.372230e-03
1.619310e-05
-8.076040e-04
3.174260e-06
-2.220390e-03
-1.186790e-05
-5.286470e-06
-1.177580e-03
1.619310e-05
-3.339840e-03
3.174260e-06
8.139580e-04
-1.186790e-05
2.196660e-03
3.372230e-03
1.619310e-05
1.089680e-03
-7.919590e-06
-2.220390e-03
-1.186790e-05
-2.856460e-03
7.635220e-06
1.619310e-05
-3.339840e-03
-7.919590e-06
-1.105530e-03
-1.186790e-05
2.196660e-03
7.635220e-06
2.871730e-03
0.000000e+00
0.000000e+00
-1.832420e-03
6.085970e-06
0.000000e+00
0.000000e+00
2.946860e-03
-7.186100e-06
0.000000e+00
0.000000e+00
6.085970e-06
1.844590e-03
0.000000e+00
0.000000e+00
-7.186100e-06
-2.961230e-03
-1.832420e-03
6.085970e-06
-2.842220e-03
1.933250e-06
2.946860e-03
-7.186100e-06
1.924730e-03
-5.080100e-06
6.085970e-06
1.844590e-03
1.933250e-06
2.846090e-03
-7.186100e-06
-2.961230e-03
-5.080100e-06
-1.934900e-03
-2.842220e-03
1.933250e-06
-2.697650e-03
1.228580e-06
1.924730e-03
-5.080100e-06
2.078340e-03
3.133660e-06
1.933250e-06
2.846090e-03
1.228580e-06
2.700100e-03
-5.080100e-06
-1.934900e-03
3.133660e-06
-2.072080e-03
-2.697650e-03
1.228580e-06
-1.412810e-03
4.633090e-06
2.078340e-03
3.133660e-06
2.673170e-03
-7.453230e-06
1.228580e-06
2.700100e-03
4.633090e-06
1.422080e-03
3.133660e-06
-2.072080e-03
-7.453230e-06
-2.688080e-03
-1.412810e-03
4.633090e-06
7.762910e-04
-2.013610e-06
2.673170e-03
-7.453230e-06
-7.931490e-04
-4.318110e-07
4.633090e-06
1.422080e-03
-2.013610e-06
-7.803170e-04
-7.453230e-06
-2.688080e-03
-4.318110e-07
7.922990e-04
7.762910e-04
-2.013610e-06
2.587980e-03
5.015870e-06
-7.931490e-04
-4.318110e-07
-3.764840e-03
-6.174120e-06
-2.013610e-06
-7.803170e-04
5.015870e-06
-2.577940e-03
-4.318110e-07
7.922990e-04
-6.174120e-06
3.752500e-03
2.587980e-03
5.015870e-06
2.926410e-03
-1.955630e-06
-3.764840e-03
-6.174120e-06
-2.045730e-03
-3.504490e-06
5.015870e-06
-2.577940e-03
-1.955630e-06
-2.930320e-03
-6.174120e-06
3.752500e-03
-3.504490e-06
2.038710e-03
2.926410e-03
-1.955630e-06
2.154100e-03
-1.153570e-06
-2.045730e-03
-3.504490e-06
-1.655210e-03
4.368520e-06
-1.955630e-06
-2.930320e-03
-1.153570e-06
-2.156400e-03
-3.504490e-06
2.038710e-03
4.368520e-06
1.663940e-03
2.154100e-03
-1.153570e-06
3.096590e-04
-4.054200e-07
-1.655210e-03
4.368520e-06
-1.601770e-03
1.162010e-06
-1.153570e-06
-2.156400e-03
-4.054200e-07
-3.104710e-04
4.368520e-06
1.663940e-03
1.162010e-06
1.604090e-03
3.096590e-04
-4.054200e-07
-1.742490e-03
4.624540e-07
-1.601770e-03
1.162010e-06
2.005110e-03
-2.259570e-06
-4.054200e-07
-3.104710e-04
4.624540e-07
1.743410e-03
1.162010e-06
1.604090e-03
-2.259570e-06
-2.009620e-03
-1.742490e-03
4.624540e-07
-2.701010e-03
-1.078550e-06
2.005110e-03
-2.259570e-06
3.668490e-03
4.453090e-07
4.624540e-07
1.743410e-03
-1.078550e-06
2.698850e-03
-2.259570e-06
-2.009620e-03
4.453090e-07
-3.667590e-03
-2.701010e-03
-1.078550e-06
-2.607890e-03
2.727740e-07
3.668490e-03
4.453090e-07
1.532270e-03
1.488790e-06
-1.078550e-06
2.698850e-03
2.727740e-07
2.608440e-03
4.453090e-07
-3.667590e-03
1.488790e-06
-1.529290e-03
-2.607890e-03
2.727740e-07
-1.343070e-03
6.079060e-06
1.532270e-03
1.488790e-06
1.244160e-03
-4.829590e-06
2.727740e-07
2.608440e-03
6.079060e-06
1.355240e-03
1.488790e-06
-1.529290e-03
-4.829590e-06
-1.253820e-03
-1.343070e-03
6.079060e-06
4.422050e-04
2.819400e-06
1.244160e-03
-4.829590e-06
5.084810e-04
-2.104460e-06
6.079060e-06
1.355240e-03
2.819400e-06
-4.365620e-04
-4.829590e-06
-1.253820e-03
-2.104460e-06
-5.126920e-04
4.422050e-04
2.819400e-06
2.097330e-03
-3.952030e-06
5.084810e-04
-2.104460e-06
-2.675970e-03
2.828620e-06
2.819400e-06
-4.365620e-04
-3.952030e-06
-2.105240e-03
-2.104460e-06
-5.126920e-04
2.828620e-06
2.681610e-03
2.097330e-03
-3.952030e-06
2.948930e-03
4.159500e-06
-2.675970e-03
2.828620e-06
-3.605250e-03
-3.203470e-06
-3.952030e-06
-2.105240e-03
4.159500e-06
-2.940620e-03
2.828620e-06
2.681610e-03
-3.203470e-06
3.598840e-03
2.948930e-03
4.159500e-06
2.302290e-03
6.827300e-06
-3.605250e-03
-3.203470e-06
-1.110890e-03
-6.935100e-06
4.159500e-06
-2.940620e-03
6.827300e-06
-2.288620e-03
-3.203470e-06
3.598840e-03
-6.935100e-06
1.097010e-03
2.302290e-03
6.827300e-06
8.314210e-04
-1.002690e-05
-1.110890e-03
-6.935100e-06
-9.478180e-04
1.272270e-05
6.827300e-06
-2.288620e-03
-1.002690e-05
-8.514760e-04
-6.935100e-06
1.097010e-03
1.272270e-05
9.732780e-04
8.314210e-04
-1.002690e-05
-1.103680e-03
-1.654130e-06
-9.478180e-04
1.272270e-05
-2.942550e-04
5.128950e-06
-1.002690e-05
-8.514760e-04
-1.654130e-06
1.100360e-03
1.272270e-05
9.732780e-04
5.128950e-06
3.045230e-04
-1.103680e-03
-1.654130e-06
-2.720200e-03
4.631100e-06
-2.942550e-04
5.128950e-06
3.919160e-03
-7.239390e-06
-1.654130e-06
1.100360e-03
4.631100e-06
2.729460e-03
5.128950e-06
3.045230e-04
-7.239390e-06
-3.933640e-03
-2.720200e-03
4.631100e-06
-3.012160e-03
-4.830380e-06
3.919160e-03
-7.239390e-06
3.735830e-03
7.367830e-06
4.631100e-06
2.729460e-03
-4.830380e-06
3.002500e-03
-7.239390e-06
-3.933640e-03
7.367830e-06
-3.721100e-03
-3.012160e-03
-4.830380e-06
-2.099290e-03
-6.260010e-06
3.735830e-03
7.367830e-06
7.929800e-04
8.727330e-06
-4.830380e-06
3.002500e-03
-6.260010e-06
2.086780e-03
7.367830e-06
-3.721100e-03
8.727330e-06
-7.755260e-04
-2.099290e-03
-6.260010e-06
-1.183750e-05
4.461580e-06
7.929800e-04
8.727330e-06
1.216940e-05
-3.238320e-06
-6.260010e-06
2.086780e-03
4.461580e-06
2.076410e-05
8.727330e-06
-7.755260e-04
-3.238320e-06
-1.863410e-05
-1.183750e-05
4.461580e-06
2.039790e-03
3.057080e-06
1.216940e-05
-3.238320e-06
-7.590240e-04
-4.648400e-06
4.461580e-06
2.076410e-05
3.057080e-06
-2.033680e-03
-3.238320e-06
-1.863410e-05
-4.648400e-06
7.497220e-04
2.039790e-03
3.057080e-06
3.035480e-03
1.103850e-06
-7.590240e-04
-4.648400e-06
-3.812660e-03
1.333040e-06
3.057080e-06
-2.033680e-03
1.103850e-06
-3.033280e-03
-4.648400e-06
7.497220e-04
1.333040e-06
3.815310e-03
3.035480e-03
1.103850e-06
2.724810e-03
-5.293720e-06
-3.812660e-03
1.333040e-06
-3.292830e-03
7.109340e-06
1.103850e-06
-3.033280e-03
-5.293720e-06
-2.735400e-03
1.333040e-06
3.815310e-03
7.109340e-06
3.307040e-03
2.724810e-03
-5.293720e-06
1.157600e-03
8.807660e-07
-3.292830e-03
7.109340e-06
-7.422020e-05
2.762080e-06
-5.293720e-06
-2.735400e-03
8.807660e-07
-1.155840e-03
7.109340e-06
3.307040e-03
2.762080e-06
7.975600e-05
1.157600e-03
8.807660e-07
-8.076040e-04
3.174260e-06
-7.422020e-05
2.762080e-06
4.494680e-04
-1.055760e-06
8.807660e-07
-1.155840e-03
3.174260e-06
8.139580e-04
2.762080e-06
7.975600e-05
-1.055760e-06
-4.515690e-04
-8.076040e-04
3.174260e-06
-2.220390e-03
-1.186790e-05
4.494680e-04
-1.055760e-06
1.066660e-03
7.575560e-06
3.174260e-06
8.139580e-04
-1.186790e-05
2.196660e-03
-1.055760e-06
-4.515690e-04
7.575560e-06
-1.051510e-03
-2.220390e-03
-1.186790e-05
-2.856460e-03
7.635220e-06
1.066660e-03
7.575560e-06
4.624350e-03
-7.398850e-06
-1.186790e-05
2.196660e-03
7.635220e-06
2.871730e-03
7.575560e-06
-1.051510e-03
-7.398850e-06
-4.639150e-03
</DataArray>
<DataArray type="Float32" Name="V2" format="ascii">
0.000000e+00
0.000000e+00
-2.206970e-02
-2.225350e-02
0.000000e+00
0.000000e+00
1.741930e-02
1.726910e-02
0.000000e+00
0.000000e+00
-2.225350e-02
-2.206720e-02
0.000000e+00
0.000000e+00
1.726910e-02
1.742350e-02
-2.206970e-02
-2.225350e-02
-3.090490e-02
-3.118370e-02
1.741930e-02
1.726910e-02
2.513680e-02
2.497380e-02
-2.225350e-02
-2.206720e-02
-3.118370e-02
-3.090160e-02
1.726910e-02
1.742350e-02
2.497380e-02
2.514540e-02
-3.090490e-02
-3.118370e-02
1.985720e-02
2.045740e-02
2.513680e-02
2.497380e-02
-1.842910e-02
-1.840220e-02
-3.118370e-02
-3.090160e-02
2.045740e-02
1.984540e-02
2.497380e-02
2.514540e-02
-1.840220e-02
-1.842140e-02
1.985720e-02
2.045740e-02
1.335920e-02
1.338790e-02
-1.842910e-02
-1.840220e-02
-5.054970e-03
-4.922000e-03
2.045740e-02
1.984540e-02
1.338790e-02
1.336530e-02
-1.840220e-02
-1.842140e-02
-4.922000e-03
-5.059300e-03
1.335920e-02
1.338790e-02
-2.573770e-02
-2.637480e-02
-5.054970e-03
-4.922000e-03
2.505530e-02
2.499440e-02
1.338790e-02
1.336530e-02
-2.637480e-02
-2.571660e-02
-4.922000e-03
-5.059300e-03
2.499440e-02
2.505270e-02
-2.573770e-02
-2.637480e-02
3.449840e-03
3.468290e-03
2.505530e-02
2.499440e-02
-1.092080e-02
-1.065840e-02
-2.637480e-02
-2.571660e-02
3.468290e-03
3.452420e-03
2.499440e-02
2.505270e-02
-1.065840e-02
-1.092120e-02
3.449840e-03
3.468290e-03
1.302910e-02
1.351560e-02
-1.092080e-02
-1.065840e-02
-1.506140e-02
-1.498340e-02
3.468290e-03
3.452420e-03
1.351560e-02
1.304750e-02
-1.065840e-02
-1.092120e-02
-1.498340e-02
-1.507780e-02
1.302910e-02
1.351560e-02
-1.335140e-02
-1.358930e-02
-1.506140e-02
-1.498340e-02
1.917310e-02
1.889320e-02
1.351560e-02
1.304750e-02
-1.358930e-02
-1.333310e-02
-1.498340e-02
-1.507780e-02
1.889320e-02
1.916740e-02
-1.335140e-02
-1.358930e-02
1.766500e-03
1.704410e-03
1.917310e-02
1.889320e-02
1.780020e-03
1.797240e-03
-1.358930e-02
-1.333310e-02
1.704410e-03
1.749280e-03
1.889320e-02
1.916740e-02
1.797240e-03
1.794210e-03
1.766500e-03
1.704410e-03
1.231530e-02
1.285830e-02
1.780020e-03
1.797240e-03
-1.879200e-02
-1.879650e-02
1.704410e-03
1.749280e-03
1.285830e-02
1.230290e-02
1.797240e-03
1.794210e-03
-1.879650e-02
-1.879130e-02
1.231530e-02
1.285830e-02
-1.461270e-02
-1.492650e-02
-1.879200e-02
-1.879650e-02
7.988670e-03
7.966140e-03
1.285830e-02
1.230290e-02
-1.492650e-02
-1.459110e-02
-1.879650e-02
-1.879130e-02
7.966140e-03
7.970320e-03
-1.461270e-02
-1.492650e-02
-9.463740e-03
-9.980540e-03
7.988670e-03
7.966140e-03
1.171560e-02
1.193990e-02
-1.492650e-02
-1.459110e-02
-9.980540e-03
-9.448920e-03
7.966140e-03
7.970320e-03
1.193990e-02
1.170490e-02
-9.463740e-03
-9.980540e-03
1.858060e-02
1.899410e-02
1.171560e-02
1.193990e-02
-1.522610e-02
-1.519800e-02
-9.980540e-03
-9.448920e-03
1.899410e-02
1.857590e-02
1.193990e-02
1.170490e-02
-1.519800e-02
-1.522630e-02
1.858060e-02
1.899410e-02
-9.838460e-04
-1.035080e-03
-1.522610e-02
-1.519800e-02
1.320310e-03
1.241060e-03
1.899410e-02
1.857590e-02
-1.035080e-03
-9.669630e-04
-1.519800e-02
-1.522630e-02
1.241060e-03
1.305680e-03
-9.838460e-04
-1.035080e-03
-2.054480e-02
-2.082880e-02
1.320310e-03
1.241060e-03
1.618920e-02
1.600940e-02
-1.035080e-03
-9.669630e-04
-2.082880e-02
-2.054830e-02
1.241060e-03
1.305680e-03
1.600940e-02
1.619070e-02
-2.054480e-02
-2.082880e-02
6.979730e-03
7.341670e-03
1.618920e-02
1.600940e-02
-9.369930e-03
-9.460490e-03
-2.082880e-02
-2.054830e-02
7.341670e-03
6.984270e-03
1.600940e-02
1.619070e-02
-9.460490e-03
-9.372920e-03
6.979730e-03
7.341670e-03
1.002020e-02
1.023300e-02
-9.369930e-03
-9.460490e-03
-6.567160e-03
-6.502280e-03
7.341670e-03
6.984270e-03
1.023300e-02
1.006670e-02
-9.460490e-03
-9.372920e-03
-6.502280e-03
-6.606730e-03
1.002020e-02
1.023300e-02
-8.190480e-03
-8.796460e-03
-6.567160e-03
-6.502280e-03
1.114580e-02
1.120450e-02
1.023300e-02
1.006670e-02
-8.796460e-03
-8.200690e-03
-6.502280e-03
-6.606730e-03
1.120450e-02
1.115160e-02
-8.190480e-03
-8.796460e-03
5.630190e-03
5.557380e-03
1.114580e-02
1.120450e-02
-5.174170e-03
-4.999580e-03
-8.796460e-03
-8.200690e-03
5.557380e-03
5.623900e-03
1.120450e-02
1.115160e-02
-4.999580e-03
-5.167920e-03
5.630190e-03
5.557380e-03
1.323160e-03
1.799020e-03
-5.174170e-03
-4.999580e-03
-5.760610e-03
-5.807730e-03
5.557380e-03
5.623900e-03
1.799020e-03
1.360450e-03
-4.999580e-03
-5.167920e-03
-5.807730e-03
-5.787830e-03
1.323160e-03
1.799020e-03
-8.755790e-03
-9.229570e-03
-5.760610e-03
-5.807730e-03
7.574270e-03
7.519160e-03
1.799020e-03
1.360450e-03
-9.229570e-03
-8.747590e-03
-5.807730e-03
-5.787830e-03
7.519160e-03
7.570050e-03
-8.755790e-03
-9.229570e-03
9.415000e-03
9.321150e-03
7.574270e-03
7.519160e-03
-6.985930e-03
-6.992080e-03
-9.229570e-03
-8.747590e-03
9.321150e-03
9.386920e-03
7.519160e-03
7.570050e-03
-6.992080e-03
-6.966410e-03
9.415000e-03
9.321150e-03
8.189090e-04
1.451890e-03
-6.985930e-03
-6.992080e-03
-3.078790e-04
-4.352550e-04
9.321150e-03
9.386920e-03
1.451890e-03
8.120040e-04
-6.992080e-03
-6.966410e-03
-4.352550e-04
-3.076580e-04
8.189090e-04
1.451890e-03
-1.091790e-02
-1.128930e-02
-3.078790e-04
-4.352550e-04
8.513990e-03
8.663620e-03
1.451890e-03
8.120040e-04
-1.128930e-02
-1.092870e-02
-4.352550e-04
-3.076580e-04
8.663620e-03
8.520750e-03
-1.091790e-02
-1.128930e-02
8.049060e-03
7.597770e-03
8.513990e-03
8.663620e-03
-1.219920e-02
-1.211190e-02
-1.128930e-02
-1.092870e-02
7.597770e-03
8.039810e-03
8.663620e-03
8.520750e-03
-1.211190e-02
-1.218840e-02
8.049060e-03
7.597770e-03
-2.008690e-03
-1.484320e-03
-1.219920e-02
-1.211190e-02
3.593300e-03
3.475460e-03
7.597770e-03
8.039810e-03
-1.484320e-03
-1.991550e-03
-1.211190e-02
-1.218840e-02
3.475460e-03
3.584800e-03
-2.008690e-03
-1.484320e-03
-1.225910e-02
-1.237050e-02
3.593300e-03
3.475460e-03
1.675120e-02
1.689950e-02
-1.484320e-03
-1.991550e-03
-1.237050e-02
-1.225210e-02
3.475460e-03
3.584800e-03
1.689950e-02
1.674910e-02
-1.225910e-02
-1.237050e-02
7.258960e-03
6.925550e-03
1.675120e-02
1.689950e-02
-7.485460e-03
-7.554090e-03
-1.237050e-02
-1.225210e-02
6.925550e-03
7.252630e-03
1.689950e-02
1.674910e-02
-7.554090e-03
-7.479850e-03
7.258960e-03
6.925550e-03
-7.407930e-03
-6.344160e-03
-7.485460e-03
-7.554090e-03
5.793130e-03
5.653560e-03
6.925550e-03
7.252630e-03
-6.344160e-03
-7.400810e-03
-7.554090e-03
-7.479850e-03
5.653560e-03
5.785500e-03
-7.407930e-03
-6.344160e-03
-3.137250e-02
-2.947540e-02
5.793130e-03
5.653560e-03
3.128800e-02
3.148960e-02
-6.344160e-03
-7.400810e-03
-2.947540e-02
-3.132950e-02
5.653560e-03
5.785500e-03
3.148960e-02
3.125170e-02
0.000000e+00
0.000000e+00
1.741930e-02
1.726910e-02
0.000000e+00
0.000000e+00
-1.277460e-02
-1.229330e-02
0.000000e+00
0.000000e+00
1.726910e-02
1.742350e-02
0.000000e+00
0.000000e+00
-1.229330e-02
-1.278580e-02
1.741930e-02
1.726910e-02
2.513680e-02
2.497380e-02
-1.277460e-02
-1.229330e-02
-1.935220e-02
-1.874870e-02
1.726910e-02
1.742350e-02
2.497380e-02
2.514540e-02
-1.229330e-02
-1.278580e-02
-1.874870e-02
-1.937300e-02
2.513680e-02
2.497380e-02