<?xml version="1.0"?>
<VTKFile type="UnstructuredGrid" version="0.1" byte_order="LittleEndian" compressor="vtkZLibDataCompressor">
<UnstructuredGrid>
<Piece NumberOfPoints="960" NumberOfCells="120">
<Points>
<DataArray type="Float32" NumberOfComponents="3" format="ascii">
-4.000000e+02 -6.000000e+03 -4.000000e+02
0.000000e+00 -6.000000e+03 -4.000000e+02
-4.000990e+02 -5.600820e+03 -4.002360e+02
-5.049120e-02 -5.600870e+03 -4.002590e+02
-4.000000e+02 -6.000000e+03 0.000000e+00
0.000000e+00 -6.000000e+03 0.000000e+00
-3.998430e+02 -5.600250e+03 -5.279620e-01
1.149130e-01 -5.600090e+03 -5.619860e-01
0.000000e+00 -6.000000e+03 -4.000000e+02
4.000000e+02 -6.000000e+03 -4.000000e+02
-5.049120e-02 -5.600870e+03 -4.002590e+02
3.999690e+02 -5.600790e+03 -4.003860e+02
0.000000e+00 -6.000000e+03 0.000000e+00
4.000000e+02 -6.000000e+03 0.000000e+00
1.149130e-01 -5.600090e+03 -5.619860e-01
4.000660e+02 -5.600020e+03 -6.585620e-01
-4.000990e+02 -5.600820e+03 -4.002360e+02
-5.049120e-02 -5.600870e+03 -4.002590e+02
-4.000880e+02 -5.201480e+03 -4.009080e+02
-4.005790e-02 -5.201450e+03 -4.011610e+02
-3.998430e+02 -5.600250e+03 -5.279620e-01
1.149130e-01 -5.600090e+03 -5.619860e-01
-3.998840e+02 -5.200000e+03 -1.189330e+00
6.262980e-02 -5.200040e+03 -1.378230e+00
-5.049120e-02 -5.600870e+03 -4.002590e+02
3.999690e+02 -5.600790e+03 -4.003860e+02
-4.005790e-02 -5.201450e+03 -4.011610e+02
3.999980e+02 -5.201490e+03 -4.011820e+02
1.149130e-01 -5.600090e+03 -5.619860e-01
4.000660e+02 -5.600020e+03 -6.585620e-01
6.262980e-02 -5.200040e+03 -1.378230e+00
4.000140e+02 -5.200100e+03 -1.373100e+00
-4.000880e+02 -5.201480e+03 -4.009080e+02
-4.005790e-02 -5.201450e+03 -4.011610e+02
-3.997810e+02 -4.802050e+03 -4.028880e+02
1.929670e-01 -4.802000e+03 -4.028290e+02
-3.998840e+02 -5.200000e+03 -1.189330e+00
6.262980e-02 -5.200040e+03 -1.378230e+00
-3.999230e+02 -4.799690e+03 -2.917310e+00
2.895590e-02 -4.799880e+03 -2.721020e+00
-4.005790e-02 -5.201450e+03 -4.011610e+02
3.999980e+02 -5.201490e+03 -4.011820e+02
1.929670e-01 -4.802000e+03 -4.028290e+02
4.001700e+02 -4.802070e+03 -4.027530e+02
6.262980e-02 -5.200040e+03 -1.378230e+00
4.000140e+02 -5.200100e+03 -1.373100e+00
2.895590e-02 -4.799880e+03 -2.721020e+00
3.999880e+02 -4.799880e+03 -2.790500e+00
-3.997810e+02 -4.802050e+03 -4.028880e+02
1.929670e-01 -4.802000e+03 -4.028290e+02
-3.994250e+02 -4.402610e+03 -4.058090e+02
5.292410e-01 -4.402530e+03 -4.051980e+02
-3.999230e+02 -4.799690e+03 -2.917310e+00
2.895590e-02 -4.799880e+03 -2.721020e+00
-4.000870e+02 -4.399810e+03 -5.504030e+00
-9.233020e-02 -4.399910e+03 -5.007990e+00
1.929670e-01 -4.802000e+03 -4.028290e+02
4.001700e+02 -4.802070e+03 -4.027530e+02
5.292410e-01 -4.402530e+03 -4.051980e+02
4.004970e+02 -4.402440e+03 -4.047130e+02
2.895590e-02 -4.799880e+03 -2.721020e+00
3.999880e+02 -4.799880e+03 -2.790500e+00
-9.233020e-02 -4.399910e+03 -5.007990e+00
3.999060e+02 -4.399900e+03 -4.540500e+00
-3.994250e+02 -4.402610e+03 -4.058090e+02
5.292410e-01 -4.402530e+03 -4.051980e+02
-3.995140e+02 -4.003110e+03 -4.085250e+02
4.366010e-01 -4.003070e+03 -4.078000e+02
-4.000870e+02 -4.399810e+03 -5.504030e+00
-9.233020e-02 -4.399910e+03 -5.007990e+00
-4.001810e+02 -3.999920e+03 -8.439020e+00
-9.321850e-02 -3.999990e+03 -7.721960e+00
5.292410e-01 -4.402530e+03 -4.051980e+02
4.004970e+02 -4.402440e+03 -4.047130e+02
4.366010e-01 -4.003070e+03 -4.078000e+02
4.003480e+02 -4.003060e+03 -4.073950e+02
-9.233020e-02 -4.399910e+03 -5.007990e+00
3.999060e+02 -4.399900e+03 -4.540500e+00
-9.321850e-02 -3.999990e+03 -7.721960e+00
4.000190e+02 -4.000090e+03 -7.038240e+00
-3.995140e+02 -4.003110e+03 -4.085250e+02
4.366010e-01 -4.003070e+03 -4.078000e+02
-3.997060e+02 -3.603720e+03 -4.116060e+02
1.898370e-01 -3.603800e+03 -4.110660e+02
-4.001810e+02 -3.999920e+03 -8.439020e+00
-9.321850e-02 -3.999990e+03 -7.721960e+00
-4.000010e+02 -3.600050e+03 -1.136120e+01
9.218850e-03 -3.600090e+03 -1.110800e+01
4.366010e-01 -4.003070e+03 -4.078000e+02
4.003480e+02 -4.003060e+03 -4.073950e+02
1.898370e-01 -3.603800e+03 -4.110660e+02
4.000780e+02 -3.603760e+03 -4.107210e+02
-9.321850e-02 -3.999990e+03 -7.721960e+00
4.000190e+02 -4.000090e+03 -7.038240e+00
9.218850e-03 -3.600090e+03 -1.110800e+01
4.000040e+02 -3.600160e+03 -1.099090e+01
-3.997060e+02 -3.603720e+03 -4.116060e+02
1.898370e-01 -3.603800e+03 -4.110660e+02
-3.996120e+02 -3.204310e+03 -4.155640e+02
3.005780e-01 -3.204270e+03 -4.151020e+02
-4.000010e+02 -3.600050e+03 -1.136120e+01
9.218850e-03 -3.600090e+03 -1.110800e+01
-4.000940e+02 -3.200070e+03 -1.557350e+01
-1.052660e-01 -3.200120e+03 -1.524100e+01
1.898370e-01 -3.603800e+03 -4.110660e+02
4.000780e+02 -3.603760e+03 -4.107210e+02
3.005780e-01 -3.204270e+03 -4.151020e+02
4.002150e+02 -3.204170e+03 -4.147860e+02
9.218850e-03 -3.600090e+03 -1.110800e+01
4.000040e+02 -3.600160e+03 -1.099090e+01
-1.052660e-01 -3.200120e+03 -1.524100e+01
3.998980e+02 -3.200110e+03 -1.498440e+01
-3.996120e+02 -3.204310e+03 -4.155640e+02
3.005780e-01 -3.204270e+03 -4.151020e+02
-4.001880e+02 -2.804700e+03 -4.196340e+02
-8.649880e-02 -2.804770e+03 -4.195370e+02
-4.000940e+02 -3.200070e+03 -1.557350e+01
-1.052660e-01 -3.200120e+03 -1.524100e+01
-3.999360e+02 -2.800160e+03 -1.966670e+01
1.973220e-02 -2.800090e+03 -1.970730e+01
3.005780e-01 -3.204270e+03 -4.151020e+02
4.002150e+02 -3.204170e+03 -4.147860e+02
-8.649880e-02 -2.804770e+03 -4.195370e+02
4.000370e+02 -2.804630e+03 -4.193050e+02
-1.052660e-01 -3.200120e+03 -1.524100e+01
3.998980e+02 -3.200110e+03 -1.498440e+01
1.973220e-02 -2.800090e+03 -1.970730e+01
3.999780e+02 -2.799990e+03 -1.959600e+01
-4.001880e+02 -2.804700e+03 -4.196340e+02
-8.649880e-02 -2.804770e+03 -4.195370e+02
-3.999980e+02 -2.404700e+03 -4.247770e+02
5.126060e-02 -2.404940e+03 -4.249020e+02
-3.999360e+02 -2.800160e+03 -1.966670e+01
1.973220e-02 -2.800090e+03 -1.970730e+01
-3.999020e+02 -2.400150e+03 -2.469220e+01
6.534400e-02 -2.400160e+03 -2.472580e+01
-8.649880e-02 -2.804770e+03 -4.195370e+02
4.000370e+02 -2.804630e+03 -4.193050e+02
5.126060e-02 -2.404940e+03 -4.249020e+02
4.000890e+02 -2.405010e+03 -4.248950e+02
1.973220e-02 -2.800090e+03 -1.970730e+01
3.999780e+02 -2.799990e+03 -1.959600e+01
6.534400e-02 -2.400160e+03 -2.472580e+01
4.000410e+02 -2.400150e+03 -2.464500e+01
-3.999980e+02 -2.404700e+03 -4.247770e+02
5.126060e-02 -2.404940e+03 -4.249020e+02
-3.994310e+02 -2.005260e+03 -4.300180e+02
3.737840e-01 -2.005260e+03 -4.292590e+02
-3.999020e+02 -2.400150e+03 -2.469220e+01
6.534400e-02 -2.400160e+03 -2.472580e+01
-4.001740e+02 -2.000220e+03 -2.978710e+01
-5.473270e-02 -2.000170e+03 -2.948390e+01
5.126060e-02 -2.404940e+03 -4.249020e+02
4.000890e+02 -2.405010e+03 -4.248950e+02
3.737840e-01 -2.005260e+03 -4.292590e+02
4.001960e+02 -2.005210e+03 -4.293340e+02
6.534400e-02 -2.400160e+03 -2.472580e+01
4.000410e+02 -2.400150e+03 -2.464500e+01
-5.473270e-02 -2.000170e+03 -2.948390e+01
4.000570e+02 -2.000140e+03 -2.945150e+01
-3.994310e+02 -2.005260e+03 -4.300180e+02
3.737840e-01 -2.005260e+03 -4.292590e+02
-3.998070e+02 -1.606150e+03 -4.356380e+02
8.018040e-02 -1.606100e+03 -4.352200e+02
-4.001740e+02 -2.000220e+03 -2.978710e+01
-5.473270e-02 -2.000170e+03 -2.948390e+01
-4.002110e+02 -1.600160e+03 -3.502050e+01
2.702560e-02 -1.600060e+03 -3.507290e+01
3.737840e-01 -2.005260e+03 -4.292590e+02
4.001960e+02 -2.005210e+03 -4.293340e+02
8.018040e-02 -1.606100e+03 -4.352200e+02
3.999650e+02 -1.606010e+03 -4.355300e+02
-5.473270e-02 -2.000170e+03 -2.948390e+01
4.000570e+02 -2.000140e+03 -2.945150e+01
2.702560e-02 -1.600060e+03 -3.507290e+01
4.002590e+02 -1.600040e+03 -3.488730e+01
-3.998070e+02 -1.606150e+03 -4.356380e+02
8.018040e-02 -1.606100e+03 -4.352200e+02
-4.000770e+02 -1.206690e+03 -4.412340e+02
-1.309640e-01 -1.206540e+03 -4.414660e+02
-4.002110e+02 -1.600160e+03 -3.502050e+01
2.702560e-02 -1.600060e+03 -3.507290e+01
-3.998830e+02 -1.200260e+03 -4.146460e+01
1.571140e-01 -1.200270e+03 -4.148100e+01
8.018040e-02 -1.606100e+03 -4.352200e+02
3.999650e+02 -1.606010e+03 -4.355300e+02
-1.309640e-01 -1.206540e+03 -4.414660e+02
3.998170e+02 -1.206570e+03 -4.417760e+02
2.702560e-02 -1.600060e+03 -3.507290e+01
4.002590e+02 -1.600040e+03 -3.488730e+01
1.571140e-01 -1.200270e+03 -4.148100e+01
4.002120e+02 -1.200170e+03 -4.143890e+01
-4.000770e+02 -1.206690e+03 -4.412340e+02
-1.309640e-01 -1.206540e+03 -4.414660e+02
-3.998780e+02 -8.071370e+02 -4.474980e+02
8.667220e-02 -8.067840e+02 -4.475010e+02
-3.998830e+02 -1.200260e+03 -4.146460e+01
1.571140e-01 -1.200270e+03 -4.148100e+01
-3.998650e+02 -8.003850e+02 -4.808680e+01
1.021210e-01 -8.003240e+02 -4.787660e+01
-1.309640e-01 -1.206540e+03 -4.414660e+02
3.998170e+02 -1.206570e+03 -4.417760e+02
8.667220e-02 -8.067840e+02 -4.475010e+02
4.000500e+02 -8.067020e+02 -4.478410e+02
1.571140e-01 -1.200270e+03 -4.148100e+01
4.002120e+02 -1.200170e+03 -4.143890e+01
1.021210e-01 -8.003240e+02 -4.787660e+01
4.000680e+02 -8.003040e+02 -4.786730e+01
-3.998780e+02 -8.071370e+02 -4.474980e+02
8.667220e-02 -8.067840e+02 -4.475010e+02
-4.000230e+02 -4.075180e+02 -4.547260e+02
1.889730e-01 -4.075440e+02 -4.546350e+02
-3.998650e+02 -8.003850e+02 -4.808680e+01
1.021210e-01 -8.003240e+02 -4.787660e+01
-4.000040e+02 -4.001470e+02 -5.498030e+01
-1.031540e-01 -4.001380e+02 -5.472040e+01
8.667220e-02 -8.067840e+02 -4.475010e+02
4.000500e+02 -8.067020e+02 -4.478410e+02
1.889730e-01 -4.075440e+02 -4.546350e+02
4.003860e+02 -4.073250e+02 -4.539870e+02
1.021210e-01 -8.003240e+02 -4.787660e+01
4.000680e+02 -8.003040e+02 -4.786730e+01
-1.031540e-01 -4.001380e+02 -5.472040e+01
3.998170e+02 -4.003310e+02 -5.443880e+01
-4.000230e+02 -4.075180e+02 -4.547260e+02
1.889730e-01 -4.075440e+02 -4.546350e+02
-3.998720e+02 -7.968670e+00 -4.631660e+02
1.772250e-01 -8.103020e+00 -4.628480e+02
-4.000040e+02 -4.001470e+02 -5.498030e+01
-1.031540e-01 -4.001380e+02 -5.472040e+01
-4.001150e+02 -2.366420e-01 -6.237050e+01
-8.346880e-02 -2.468710e-01 -6.241120e+01
1.889730e-01 -4.075440e+02 -4.546350e+02
4.003860e+02 -4.073250e+02 -4.539870e+02
1.772250e-01 -8.103020e+00 -4.628480e+02
[...]
<PointData>
<DataArray type="Float32" Name="V1" format="ascii">
0.000000e+00
0.000000e+00
2.175370e-01
-1.217690e-02
0.000000e+00
0.000000e+00
-5.013030e-02
2.049050e-02
0.000000e+00
0.000000e+00
-1.217690e-02
-2.131550e-01
0.000000e+00
0.000000e+00
2.049050e-02
1.085280e-01
2.175370e-01
-1.217690e-02
1.890200e-01
-3.756100e-02
-5.013030e-02
2.049050e-02
-1.323490e-01
3.233900e-02
-1.217690e-02
-2.131550e-01
-3.756100e-02
-1.905890e-01
2.049050e-02
1.085280e-01
3.233900e-02
1.447850e-01
1.890200e-01
-3.756100e-02
2.469610e-01
6.820460e-02
-1.323490e-01
3.233900e-02
-1.548640e-01
-5.268500e-02
-3.756100e-02
-1.905890e-01
6.820460e-02
-1.209270e-01
3.233900e-02
1.447850e-01
-5.268500e-02
7.726320e-02
2.469610e-01
6.820460e-02
-9.106900e-02
-2.000690e-01
-1.548640e-01
-5.268500e-02
1.147910e-02
8.170660e-02
6.820460e-02
-1.209270e-01
-2.000690e-01
-3.419470e-01
-5.268500e-02
7.726320e-02
8.170660e-02
1.287870e-01
-9.106900e-02
-2.000690e-01
-3.567620e-01
9.886790e-03
1.147910e-02
8.170660e-02
3.865700e-01
1.266550e-01
-2.000690e-01
-3.419470e-01
9.886790e-03
4.021720e-01
8.170660e-02
1.287870e-01
1.266550e-01
-1.004520e-01
-3.567620e-01
9.886790e-03
-1.209020e-03
3.595320e-01
3.865700e-01
1.266550e-01
9.768670e-02
-9.011440e-02
9.886790e-03
4.021720e-01
3.595320e-01
7.279660e-01
1.266550e-01
-1.004520e-01
-9.011440e-02
-2.992910e-01
-1.209020e-03
3.595320e-01
8.878770e-03
1.125870e-02
9.768670e-02
-9.011440e-02
1.233810e-01
8.831030e-02
3.595320e-01
7.279660e-01
1.125870e-02
2.337820e-02
-9.011440e-02
-2.992910e-01
8.831030e-02
6.602000e-02
8.878770e-03
1.125870e-02
-4.103870e-01
-1.537400e-01
1.233810e-01
8.831030e-02
1.737320e-01
7.691340e-02
1.125870e-02
2.337820e-02
-1.537400e-01
1.093000e-01
8.831030e-02
6.602000e-02
7.691340e-02
-1.991190e-02
-4.103870e-01
-1.537400e-01
-7.005960e-02
3.683880e-02
1.737320e-01
7.691340e-02
8.050950e-02
3.429840e-02
-1.537400e-01
1.093000e-01
3.683880e-02
1.426290e-01
7.691340e-02
-1.991190e-02
3.429840e-02
1.121340e-02
-7.005960e-02
3.683880e-02
-6.199480e-02
-5.956800e-02
8.050950e-02
3.429840e-02
1.088870e-01
1.079210e-01
3.683880e-02
1.426290e-01
-5.956800e-02
1.510640e-02
3.429840e-02
1.121340e-02
1.079210e-01
9.118030e-02
-6.199480e-02
-5.956800e-02
-2.782620e-01
-8.853020e-02
1.088870e-01
1.079210e-01
1.470000e-01
4.247360e-02
-5.956800e-02
1.510640e-02
-8.853020e-02
4.515720e-02
1.079210e-01
9.118030e-02
4.247360e-02
4.199610e-03
-2.782620e-01
-8.853020e-02
-4.964490e-01
-3.379040e-01
1.470000e-01
4.247360e-02
2.920860e-01
2.440440e-01
-8.853020e-02
4.515720e-02
-3.379040e-01
-2.135230e-01
4.247360e-02
4.199610e-03
2.440440e-01
2.079880e-01
-4.964490e-01
-3.379040e-01
3.520470e-01
3.373850e-02
2.920860e-01
2.440440e-01
-2.099530e-01
2.600590e-02
-3.379040e-01
-2.135230e-01
3.373850e-02
-3.287990e-01
2.440440e-01
2.079880e-01
2.600590e-02
2.494920e-01
3.520470e-01
3.373850e-02
2.314490e-01
1.424190e-01
-2.099530e-01
2.600590e-02
-4.405450e-02
-8.276540e-02
3.373850e-02
-3.287990e-01
1.424190e-01
4.918490e-02
2.600590e-02
2.494920e-01
-8.276540e-02
-8.600700e-02
2.314490e-01
1.424190e-01
-7.018960e-03
8.441900e-03
-4.405450e-02
-8.276540e-02
-1.043950e-01
-1.804370e-01
1.424190e-01
4.918490e-02
8.441900e-03
5.612760e-02
-8.276540e-02
-8.600700e-02
-1.804370e-01
-2.662890e-01
-7.018960e-03
8.441900e-03
1.780330e-01
1.091350e-02
-1.043950e-01
-1.804370e-01
1.580460e-01
9.636160e-02
8.441900e-03
5.612760e-02
1.091350e-02
-1.390530e-01
-1.804370e-01
-2.662890e-01
9.636160e-02
5.989660e-02
1.780330e-01
1.091350e-02
6.732070e-02
3.167770e-02
1.580460e-01
9.636160e-02
-4.206920e-02
-8.018630e-03
1.091350e-02
-1.390530e-01
3.167770e-02
6.372990e-02
9.636160e-02
5.989660e-02
-8.018630e-03
-3.476590e-02
6.732070e-02
3.167770e-02
-4.650090e-02
1.852530e-01
-4.206920e-02
-8.018630e-03
-8.242010e-02
-1.927100e-01
3.167770e-02
6.372990e-02
1.852530e-01
3.615580e-01
-8.018630e-03
-3.476590e-02
-1.927100e-01
-2.671600e-01
-4.650090e-02
1.852530e-01
-1.913910e-01
5.201590e-02
-8.242010e-02
-1.927100e-01
5.160120e-02
-1.451390e-01
1.852530e-01
3.615580e-01
5.201590e-02
3.448540e-01
-1.927100e-01
-2.671600e-01
-1.451390e-01
-3.554510e-01
-1.913910e-01
5.201590e-02
-7.539860e-02
-8.399710e-02
5.160120e-02
-1.451390e-01
2.486220e-01
1.557530e-01
5.201590e-02
3.448540e-01
-8.399710e-02
-1.581460e-01
-1.451390e-01
-3.554510e-01
1.557530e-01
7.505720e-02
-7.539860e-02
-8.399710e-02
3.846930e-01
1.828840e-01
2.486220e-01
1.557530e-01
-3.478300e-01
-2.514090e-01
-8.399710e-02
-1.581460e-01
1.828840e-01
1.573630e-02
1.557530e-01
7.505720e-02
-2.514090e-01
-1.789570e-01
3.846930e-01
1.828840e-01
4.161550e-01
2.120230e-01
-3.478300e-01
-2.514090e-01
-3.244260e-01
-7.424850e-02
1.828840e-01
1.573630e-02
2.120230e-01
4.566400e-04
-2.514090e-01
-1.789570e-01
-7.424850e-02
1.837530e-01
4.161550e-01
2.120230e-01
2.543240e-01
2.100640e-01
-3.244260e-01
-7.424850e-02
-2.893570e-02
7.579950e-02
2.120230e-01
4.566400e-04
2.100640e-01
2.244400e-01
-7.424850e-02
1.837530e-01
7.579950e-02
1.608690e-01
2.543240e-01
2.100640e-01
-1.856430e-01
1.734740e-01
-2.893570e-02
7.579950e-02
-1.684930e-01
-1.162420e-01
2.100640e-01
2.244400e-01
1.734740e-01
4.775870e-01
7.579950e-02
1.608690e-01
-1.162420e-01
-5.019790e-02
-1.856430e-01
1.734740e-01
-1.252480e-01
-3.238410e-01
-1.684930e-01
-1.162420e-01
7.971100e-02
1.477640e-01
1.734740e-01
4.775870e-01
-3.238410e-01
-5.099380e-01
-1.162420e-01
-5.019790e-02
1.477640e-01
1.990010e-01
-1.252480e-01
-3.238410e-01
2.223180e-01
-1.183230e-01
7.971100e-02
1.477640e-01
8.109670e-02
1.790030e-01
-3.238410e-01
-5.099380e-01
-1.183230e-01
-4.438650e-01
1.477640e-01
1.990010e-01
1.790030e-01
2.475610e-01
2.223180e-01
-1.183230e-01
-3.654030e-01
-1.394110e-01
8.109670e-02
1.790030e-01
1.712420e-01
-8.445970e-03
-1.183230e-01
-4.438650e-01
-1.394110e-01
6.414820e-02
1.790030e-01
2.475610e-01
-8.445970e-03
-1.868170e-01
-3.654030e-01
-1.394110e-01
-5.871310e-02
5.018520e-04
1.712420e-01
-8.445970e-03
3.795110e-02
2.765010e-02
-1.394110e-01
6.414820e-02
5.018520e-04
9.788870e-02
-8.445970e-03
-1.868170e-01
2.765010e-02
-1.543640e-02
-5.871310e-02
5.018520e-04
-1.280240e-01
8.534140e-02
3.795110e-02
2.765010e-02
7.514540e-02
6.691400e-03
5.018520e-04
9.788870e-02
8.534140e-02
2.847660e-01
2.765010e-02
-1.543640e-02
6.691400e-03
-6.425630e-02
-1.280240e-01
8.534140e-02
-3.637490e-01
-2.584090e-01
7.514540e-02
6.691400e-03
3.397960e-02
-7.126840e-04
8.534140e-02
2.847660e-01
-2.584090e-01
-2.689760e-02
6.691400e-03
-6.425630e-02
-7.126840e-04
-1.541650e-01
0.000000e+00
0.000000e+00
-5.013030e-02
2.049050e-02
0.000000e+00
0.000000e+00
-8.140580e-02
-3.151390e-02
0.000000e+00
0.000000e+00
2.049050e-02
1.085280e-01
0.000000e+00
0.000000e+00
-3.151390e-02
-8.705690e-04
-5.013030e-02
2.049050e-02
-1.323490e-01
3.233900e-02
-8.140580e-02
-3.151390e-02
8.084180e-02
4.710430e-03
2.049050e-02
1.085280e-01
3.233900e-02
1.447850e-01
-3.151390e-02
-8.705690e-04
4.710430e-03
-5.508980e-02
-1.323490e-01
3.233900e-02
-1.548640e-01
-5.268500e-02
8.084180e-02
4.710430e-03
-5.078790e-02
-3.416930e-02
3.233900e-02
1.447850e-01
-5.268500e-02
7.726320e-02
4.710430e-03
-5.508980e-02
-3.416930e-02
-6.994070e-02
-1.548640e-01
-5.268500e-02
1.147910e-02
8.170660e-02
-5.078790e-02
-3.416930e-02
1.901910e-01
8.058330e-02
-5.268500e-02
7.726320e-02
8.170660e-02
1.287870e-01
-3.416930e-02
-6.994070e-02
8.058330e-02
3.547610e-02
1.147910e-02
8.170660e-02
3.865700e-01
1.266550e-01
1.901910e-01
8.058330e-02
-3.870810e-01
-2.469570e-01
8.170660e-02
1.287870e-01
1.266550e-01
-1.004520e-01
8.058330e-02
3.547610e-02
-2.469570e-01
-9.375340e-02
3.865700e-01
1.266550e-01
9.768670e-02
-9.011440e-02
-3.870810e-01
-2.469570e-01
-2.801620e-01
-2.374490e-01
1.266550e-01
-1.004520e-01
-9.011440e-02
-2.992910e-01
-2.469570e-01
-9.375340e-02
-2.374490e-01
-1.067190e-01
9.768670e-02
-9.011440e-02
1.233810e-01
8.831030e-02
-2.801620e-01
-2.374490e-01
-2.388780e-01
-1.991630e-01
-9.011440e-02
-2.992910e-01
8.831030e-02
6.602000e-02
-2.374490e-01
-1.067190e-01
-1.991630e-01
-1.864260e-01
1.233810e-01
8.831030e-02
1.737320e-01
7.691340e-02
-2.388780e-01
-1.991630e-01
3.442760e-02
1.336350e-02
8.831030e-02
6.602000e-02
7.691340e-02
-1.991190e-02
-1.991630e-01
-1.864260e-01
1.336350e-02
-7.854010e-03
1.737320e-01
7.691340e-02
8.050950e-02
3.429840e-02
3.442760e-02
1.336350e-02
-9.760610e-02
-1.340310e-01
7.691340e-02
-1.991190e-02
3.429840e-02
1.121340e-02
1.336350e-02
-7.854010e-03
-1.340310e-01
-2.025420e-01
8.050950e-02
3.429840e-02
1.088870e-01
1.079210e-01
-9.760610e-02
-1.340310e-01
-1.283600e-01
-1.745120e-01
3.429840e-02
1.121340e-02
1.079210e-01
9.118030e-02
-1.340310e-01
-2.025420e-01
-1.745120e-01
-2.073320e-01
1.088870e-01
1.079210e-01
1.470000e-01
4.247360e-02
-1.283600e-01
-1.745120e-01
-5.211720e-03
3.020550e-02
1.079210e-01
9.118030e-02
4.247360e-02
4.199610e-03
-1.745120e-01
-2.073320e-01
3.020550e-02
3.205100e-02
1.470000e-01
4.247360e-02
2.920860e-01
2.440440e-01
-5.211720e-03
3.020550e-02
-1.101920e-01
-1.851020e-01
4.247360e-02
4.199610e-03
2.440440e-01
2.079880e-01
3.020550e-02
3.205100e-02
-1.851020e-01
-2.388400e-01
2.920860e-01
2.440440e-01
-2.099530e-01
2.600590e-02
-1.101920e-01
-1.851020e-01
8.977530e-02
-6.441180e-02
2.440440e-01
2.079880e-01
2.600590e-02
2.494920e-01
-1.851020e-01
-2.388400e-01
-6.441180e-02
-1.740700e-01
-2.099530e-01
2.600590e-02
-4.405450e-02
-8.276540e-02
8.977530e-02
-6.441180e-02
-1.450070e-01
8.325370e-03
2.600590e-02
2.494920e-01
-8.276540e-02
-8.600700e-02
-6.441180e-02
-1.740700e-01
8.325370e-03
1.755630e-01
-4.405450e-02
-8.276540e-02
-1.043950e-01
-1.804370e-01
-1.450070e-01
8.325370e-03
2.252200e-01
3.252050e-01
-8.276540e-02
-8.600700e-02
-1.804370e-01
-2.662890e-01
8.325370e-03
1.755630e-01
3.252050e-01
4.494320e-01
-1.043950e-01
-1.804370e-01
1.580460e-01
9.636160e-02
2.252200e-01
3.252050e-01
-3.745200e-01
-1.411980e-01
-1.804370e-01
-2.662890e-01
9.636160e-02
5.989660e-02
3.252050e-01
4.494320e-01
-1.411980e-01
2.918400e-02
1.580460e-01
9.636160e-02
-4.206920e-02
-8.018630e-03
-3.745200e-01
-1.411980e-01
-1.159970e-01
-7.843700e-02
9.636160e-02
5.989660e-02
-8.018630e-03
-3.476590e-02
-1.411980e-01
2.918400e-02
-7.843700e-02
-2.739960e-02
-4.206920e-02
-8.018630e-03
-8.242010e-02
-1.927100e-01
-1.159970e-01
-7.843700e-02
2.882620e-01
2.567450e-01
-8.018630e-03
-3.476590e-02
-1.927100e-01
-2.671600e-01
-7.843700e-02
-2.739960e-02
2.567450e-01
2.180390e-01
-8.242010e-02
-1.927100e-01
5.160120e-02
-1.451390e-01
2.882620e-01
2.567450e-01
9.240040e-02
1.996350e-01
-1.927100e-01
-2.671600e-01
-1.451390e-01
-3.554510e-01
2.567450e-01
2.180390e-01
1.996350e-01
3.463660e-01
5.160120e-02
-1.451390e-01
2.486220e-01
1.557530e-01
9.240040e-02
1.996350e-01
-5.157100e-01
-2.874160e-01
-1.451390e-01
-3.554510e-01
1.557530e-01
7.505720e-02
1.996350e-01
3.463660e-01
-2.874160e-01
-2.495050e-02
2.486220e-01
1.557530e-01
-3.478300e-01
-2.514090e-01
-5.157100e-01
-2.874160e-01
4.695310e-01
4.327650e-01
1.557530e-01
7.505720e-02
-2.514090e-01
-1.789570e-01
-2.874160e-01
-2.495050e-02
4.327650e-01
3.885500e-01
-3.478300e-01
-2.514090e-01
-3.244260e-01
-7.424850e-02
4.695310e-01
4.327650e-01
1.412130e-01
-1.445100e-01
-2.514090e-01
-1.789570e-01
-7.424850e-02
1.837530e-01
4.327650e-01
3.885500e-01
-1.445100e-01
-4.536920e-01
-3.244260e-01
-7.424850e-02
-2.893570e-02
7.579950e-02
1.412130e-01
-1.445100e-01
-2.065460e-01
-3.474100e-01
-7.424850e-02
1.837530e-01
7.579950e-02
1.608690e-01
-1.445100e-01
-4.536920e-01
-3.474100e-01
-4.829930e-01
-2.893570e-02
7.579950e-02
-1.684930e-01
-1.162420e-01
-2.065460e-01
-3.474100e-01
5.261840e-01
7.764530e-02
7.579950e-02
1.608690e-01
-1.162420e-01
-5.019790e-02
-3.474100e-01
-4.829930e-01
7.764530e-02
-3.798260e-01
-1.684930e-01
-1.162420e-01
7.971100e-02
1.477640e-01
5.261840e-01
7.764530e-02
-5.716860e-02
3.963360e-03
-1.162420e-01
-5.019790e-02
1.477640e-01
1.990010e-01
7.764530e-02
-3.798260e-01
3.963360e-03
8.840820e-03
7.971100e-02
1.477640e-01
8.109670e-02
1.790030e-01
-5.716860e-02
3.963360e-03
-3.500890e-01
-1.638170e-01
1.477640e-01
1.990010e-01
1.790030e-01
2.475610e-01
3.963360e-03
8.840820e-03
-1.638170e-01
4.194200e-02
8.109670e-02
1.790030e-01
1.712420e-01
-8.445970e-03
-3.500890e-01
-1.638170e-01
-1.937400e-02
1.197200e-01
1.790030e-01
2.475610e-01
-8.445970e-03
-1.868170e-01
-1.638170e-01
4.194200e-02
1.197200e-01
2.892600e-01
1.712420e-01
-8.445970e-03
3.795110e-02
2.765010e-02
-1.937400e-02
1.197200e-01
5.999710e-02
-3.678570e-02
-8.445970e-03
-1.868170e-01
2.765010e-02
-1.543640e-02
1.197200e-01
2.892600e-01
-3.678570e-02
-8.034160e-02
3.795110e-02
2.765010e-02
7.514540e-02
6.691400e-03
5.999710e-02
-3.678570e-02
-7.821670e-02
-9.687720e-02
2.765010e-02
-1.543640e-02
6.691400e-03
-6.425630e-02
-3.678570e-02
-8.034160e-02
-9.687720e-02
-1.193860e-01
7.514540e-02
6.691400e-03
3.397960e-02
-7.126840e-04
-7.821670e-02
-9.687720e-02
2.666690e-01
2.558190e-01
6.691400e-03
-6.425630e-02
-7.126840e-04
-1.541650e-01
-9.687720e-02
-1.193860e-01
2.558190e-01
2.479310e-01
</DataArray>
<DataArray type="Float32" Name="V2" format="ascii">
0.000000e+00
0.000000e+00
1.305670e-01
6.522840e-02
0.000000e+00
0.000000e+00
-5.408960e-01
-3.248550e-01
0.000000e+00
0.000000e+00
6.522840e-02
-3.609390e-01
0.000000e+00
0.000000e+00
-3.248550e-01
-1.893760e-01
1.305670e-01
6.522840e-02
-5.885010e-02
-6.483030e-01
-5.408960e-01
-3.248550e-01
1.647270e-01
1.957150e-01
6.522840e-02
-3.609390e-01
-6.483030e-01
-5.550730e-01
-3.248550e-01
-1.893760e-01
1.957150e-01
7.455640e-02
-5.885010e-02
-6.483030e-01
4.940920e-01
1.381640e-01
1.647270e-01
1.957150e-01
-2.945890e-01
-9.027050e-02
-6.483030e-01
-5.550730e-01
1.381640e-01
2.897000e-01
1.957150e-01
7.455640e-02
-9.027050e-02
-5.121640e-02
4.940920e-01
1.381640e-01
-2.083040e-02
8.209720e-02
-2.945890e-01
-9.027050e-02
2.235080e-01
1.316610e-01
1.381640e-01
2.897000e-01
8.209720e-02
-2.180270e-01
-9.027050e-02
-5.121640e-02
1.316610e-01
1.414820e-01
-2.083040e-02
8.209720e-02
3.983050e-01
1.319280e-01
2.235080e-01
1.316610e-01
1.804890e-01
-5.865660e-02
8.209720e-02
-2.180270e-01
1.319280e-01
-2.396510e-01
1.316610e-01
1.414820e-01
-5.865660e-02
2.095050e-01
3.983050e-01
1.319280e-01
2.139030e-01
-1.466080e-01
1.804890e-01
-5.865660e-02
-2.010810e-02
-7.434400e-03
1.319280e-01
-2.396510e-01
-1.466080e-01
-7.656350e-02
-5.865660e-02
2.095050e-01
-7.434400e-03
-6.679420e-02
2.139030e-01
-1.466080e-01
-1.374260e-01
3.233910e-02
-2.010810e-02
-7.434400e-03
-6.422420e-02
-1.376850e-01
-1.466080e-01
-7.656350e-02
3.233910e-02
3.117230e-01
-7.434400e-03
-6.679420e-02
-1.376850e-01
-4.416290e-01
-1.374260e-01
3.233910e-02
-6.208690e-03
4.436630e-01
-6.422420e-02
-1.376850e-01
-1.041500e-01
-2.235630e-01
3.233910e-02
3.117230e-01
4.436630e-01
2.059230e-01
-1.376850e-01
-4.416290e-01
-2.235630e-01
6.680680e-02
-6.208690e-03
4.436630e-01
9.680860e-02
-1.236780e-01
-1.041500e-01
-2.235630e-01
2.567720e-01
1.649510e-01
4.436630e-01
2.059230e-01
-1.236780e-01
-1.386850e-01
-2.235630e-01
6.680680e-02
1.649510e-01
1.622010e-01
9.680860e-02
-1.236780e-01
-2.562760e-01
-3.196380e-01
2.567720e-01
1.649510e-01
4.094250e-02
1.233220e-01
-1.236780e-01
-1.386850e-01
-3.196380e-01
-6.296060e-01
1.649510e-01
1.622010e-01
1.233220e-01
2.186670e-01
-2.562760e-01
-3.196380e-01
1.442720e-01
2.789070e-01
4.094250e-02
1.233220e-01
-2.133140e-01
-1.465540e-01
-3.196380e-01
-6.296060e-01
2.789070e-01
-1.457250e-01
1.233220e-01
2.186670e-01
-1.465540e-01
3.126970e-01
1.442720e-01
2.789070e-01
6.134170e-01
1.458400e-01
-2.133140e-01
-1.465540e-01
-3.516860e-01
-2.640860e-01
2.789070e-01
-1.457250e-01
1.458400e-01
3.081000e-01
-1.465540e-01
3.126970e-01
-2.640860e-01
-3.177820e-01
6.134170e-01
1.458400e-01
-4.554450e-01
-2.677220e-01
-3.516860e-01
-2.640860e-01
8.889130e-02
5.576560e-02
1.458400e-01
3.081000e-01
-2.677220e-01
1.815740e-02
-2.640860e-01
-3.177820e-01
5.576560e-02
-1.063120e-01
-4.554450e-01
-2.677220e-01
-3.071140e-01
-2.050430e-01
8.889130e-02
5.576560e-02
2.006680e-01
1.163030e-01
-2.677220e-01
1.815740e-02
-2.050430e-01
-1.051890e-01
5.576560e-02
-1.063120e-01
1.163030e-01
9.686010e-02
-3.071140e-01
-2.050430e-01
4.634810e-01
1.296560e-01
2.006680e-01
1.163030e-01
-3.623810e-02
1.514240e-01
-2.050430e-01
-1.051890e-01
1.296560e-01
3.159440e-01
1.163030e-01
9.686010e-02
1.514240e-01
-1.591270e-02
4.634810e-01
1.296560e-01
3.397040e-01
3.675090e-01
-3.623810e-02
1.514240e-01
-1.575660e-02
-3.490700e-03
1.296560e-01
3.159440e-01
3.675090e-01
1.870040e-01
1.514240e-01
-1.591270e-02
-3.490700e-03
2.480920e-02
3.397040e-01
3.675090e-01
-2.262450e-01
-2.858630e-01
-1.575660e-02
-3.490700e-03
8.862720e-02
3.829030e-03
3.675090e-01
1.870040e-01
-2.858630e-01
-1.108040e-01
-3.490700e-03
2.480920e-02
3.829030e-03
-7.817040e-02
-2.262450e-01
-2.858630e-01
-8.678270e-01
-4.255880e-01
8.862720e-02
3.829030e-03
1.963990e-01
6.153910e-02
-2.858630e-01
-1.108040e-01
-4.255880e-01
2.672200e-02
3.829030e-03
-7.817040e-02
6.153910e-02
1.575480e-01
-8.678270e-01
-4.255880e-01
-1.193230e-01
1.086080e-01
1.963990e-01
6.153910e-02
2.249350e-02
-1.136420e-01
-4.255880e-01
2.672200e-02
1.086080e-01
1.094030e-01
6.153910e-02
1.575480e-01
-1.136420e-01
-1.555770e-01
-1.193230e-01
1.086080e-01
-1.364370e-01
1.509930e-01
2.249350e-02
-1.136420e-01
-1.914850e-01
-2.074430e-01
1.086080e-01
1.094030e-01
1.509930e-01
8.284380e-01
-1.136420e-01
-1.555770e-01
-2.074430e-01
-3.454330e-01
-1.364370e-01
1.509930e-01
-3.605800e-01
-2.326280e-01
-1.914850e-01
-2.074430e-01
1.253540e-01
1.763140e-01
1.509930e-01
8.284380e-01
-2.326280e-01
9.179070e-02
-2.074430e-01
-3.454330e-01
1.763140e-01
5.136450e-02
-3.605800e-01
-2.326280e-01
5.708600e-01
2.784950e-01
1.253540e-01
1.763140e-01
4.955880e-02
8.979530e-02
-2.326280e-01
9.179070e-02
2.784950e-01
-2.294100e-01
1.763140e-01
5.136450e-02
8.979530e-02
1.916700e-01
5.708600e-01
2.784950e-01
5.966280e-01
4.498620e-01
4.955880e-02
8.979530e-02
-3.637950e-01
-1.013630e-01
2.784950e-01
-2.294100e-01
4.498620e-01
1.872000e-01
8.979530e-02
1.916700e-01
-1.013630e-01
-7.592390e-02
5.966280e-01
4.498620e-01
4.655130e-02
-5.986400e-02
-3.637950e-01
-1.013630e-01
1.844310e-01
6.542570e-02
4.498620e-01
1.872000e-01
-5.986400e-02
-1.113780e-01
-1.013630e-01
-7.592390e-02
6.542570e-02
-1.037540e-01
4.655130e-02
-5.986400e-02
1.086820e-01
-2.271990e-01
1.844310e-01
6.542570e-02
1.625280e-02
1.447930e-01
-5.986400e-02
-1.113780e-01
-2.271990e-01
4.795760e-02
6.542570e-02
-1.037540e-01
1.447930e-01
1.595040e-01
1.086820e-01
-2.271990e-01
-4.565750e-02
-1.421840e-02
1.625280e-02
1.447930e-01
3.666020e-02
3.184040e-02
-2.271990e-01
4.795760e-02
-1.421840e-02
-3.940070e-01
1.447930e-01
1.595040e-01
3.184040e-02
2.180080e-01
-4.565750e-02
-1.421840e-02
-1.046140e-02
9.381420e-02
3.666020e-02
3.184040e-02
9.902960e-02
1.116890e-01
-1.421840e-02
-3.940070e-01
9.381420e-02
1.554880e-01
3.184040e-02
2.180080e-01
1.116890e-01
1.526120e-01
-1.046140e-02
9.381420e-02
-4.625580e-02
7.958970e-02
9.902960e-02
1.116890e-01
-1.984580e-02
-4.077790e-02
9.381420e-02
1.554880e-01
7.958970e-02
2.302390e-01
1.116890e-01
1.526120e-01
-4.077790e-02
-1.285030e-01
-4.625580e-02
7.958970e-02
-4.328070e-01
1.623570e-01
-1.984580e-02
-4.077790e-02
4.664660e-01
-1.060100e-02
7.958970e-02
2.302390e-01
1.623570e-01
4.501120e-02
-4.077790e-02
-1.285030e-01
-1.060100e-02
-3.341610e-01
-4.328070e-01
1.623570e-01
-6.278920e-01
-4.305030e-01
4.664660e-01
-1.060100e-02
4.767710e-01
3.295040e-01
1.623570e-01
4.501120e-02
-4.305030e-01
2.187750e-01
-1.060100e-02
-3.341610e-01
3.295040e-01
-1.484670e-01
0.000000e+00
0.000000e+00
-5.408960e-01
-3.248550e-01
0.000000e+00
0.000000e+00
8.634150e-01
5.899240e-01
0.000000e+00
0.000000e+00
-3.248550e-01
-1.893760e-01
0.000000e+00
0.000000e+00
5.899240e-01
5.592990e-01
-5.408960e-01
-3.248550e-01
1.647270e-01
1.957150e-01
8.634150e-01
5.899240e-01
-9.903720e-02
1.897720e-01
-3.248550e-01
-1.893760e-01
1.957150e-01
7.455640e-02
5.899240e-01
5.592990e-01
1.897720e-01
2.041930e-01
1.647270e-01
1.957150e-01
-2.945890e-01
-9.027050e-02
-9.903720e-02