<?xml version="1.0"?>
<VTKFile type="UnstructuredGrid" version="0.1" byte_order="LittleEndian" compressor="vtkZLibDataCompressor">
<UnstructuredGrid>
<Piece NumberOfPoints="960" NumberOfCells="120">
<Points>
<DataArray type="Float32" NumberOfComponents="3" format="ascii">
-4.000000e+02 -6.000000e+03 -4.000000e+02
0.000000e+00 -6.000000e+03 -4.000000e+02
-4.000450e+02 -5.600040e+03 -4.003860e+02
-1.911350e-02 -5.599950e+03 -4.004550e+02
-4.000000e+02 -6.000000e+03 0.000000e+00
0.000000e+00 -6.000000e+03 0.000000e+00
-3.999180e+02 -5.600010e+03 -2.190820e-01
7.489470e-02 -5.600010e+03 -2.193810e-01
0.000000e+00 -6.000000e+03 -4.000000e+02
4.000000e+02 -6.000000e+03 -4.000000e+02
-1.911350e-02 -5.599950e+03 -4.004550e+02
4.000060e+02 -5.599840e+03 -4.004740e+02
0.000000e+00 -6.000000e+03 0.000000e+00
4.000000e+02 -6.000000e+03 0.000000e+00
7.489470e-02 -5.600010e+03 -2.193810e-01
4.000670e+02 -5.600040e+03 -1.906660e-01
-4.000450e+02 -5.600040e+03 -4.003860e+02
-1.911350e-02 -5.599950e+03 -4.004550e+02
-4.002290e+02 -5.200280e+03 -4.006310e+02
-2.099390e-01 -5.200180e+03 -4.007150e+02
-3.999180e+02 -5.600010e+03 -2.190820e-01
7.489470e-02 -5.600010e+03 -2.193810e-01
-4.000180e+02 -5.199950e+03 -2.352180e-01
-2.198590e-02 -5.200000e+03 -2.966100e-01
-1.911350e-02 -5.599950e+03 -4.004550e+02
4.000060e+02 -5.599840e+03 -4.004740e+02
-2.099390e-01 -5.200180e+03 -4.007150e+02
3.998090e+02 -5.200050e+03 -4.007550e+02
7.489470e-02 -5.600010e+03 -2.193810e-01
4.000670e+02 -5.600040e+03 -1.906660e-01
-2.198590e-02 -5.200000e+03 -2.966100e-01
3.999730e+02 -5.200060e+03 -3.419800e-01
-4.002290e+02 -5.200280e+03 -4.006310e+02
-2.099390e-01 -5.200180e+03 -4.007150e+02
-4.001330e+02 -4.800490e+03 -4.008690e+02
-1.230410e-01 -4.800530e+03 -4.009250e+02
-4.000180e+02 -5.199950e+03 -2.352180e-01
-2.198590e-02 -5.200000e+03 -2.966100e-01
-4.000030e+02 -4.800100e+03 -7.077500e-01
-1.407080e-02 -4.800050e+03 -7.867660e-01
-2.099390e-01 -5.200180e+03 -4.007150e+02
3.998090e+02 -5.200050e+03 -4.007550e+02
-1.230410e-01 -4.800530e+03 -4.009250e+02
3.998870e+02 -4.800570e+03 -4.009620e+02
-2.198590e-02 -5.200000e+03 -2.966100e-01
3.999730e+02 -5.200060e+03 -3.419800e-01
-1.407080e-02 -4.800050e+03 -7.867660e-01
3.999750e+02 -4.800010e+03 -8.602250e-01
-4.001330e+02 -4.800490e+03 -4.008690e+02
-1.230410e-01 -4.800530e+03 -4.009250e+02
-4.000580e+02 -4.400750e+03 -4.008880e+02
-5.296120e-02 -4.400860e+03 -4.011220e+02
-4.000030e+02 -4.800100e+03 -7.077500e-01
-1.407080e-02 -4.800050e+03 -7.867660e-01
-3.998890e+02 -4.400050e+03 -1.459810e+00
1.046000e-01 -4.400030e+03 -1.416240e+00
-1.230410e-01 -4.800530e+03 -4.009250e+02
3.998870e+02 -4.800570e+03 -4.009620e+02
-5.296120e-02 -4.400860e+03 -4.011220e+02
3.999530e+02 -4.400960e+03 -4.013550e+02
-1.407080e-02 -4.800050e+03 -7.867660e-01
3.999750e+02 -4.800010e+03 -8.602250e-01
1.046000e-01 -4.400030e+03 -1.416240e+00
4.000980e+02 -4.400020e+03 -1.393910e+00
-4.000580e+02 -4.400750e+03 -4.008880e+02
-5.296120e-02 -4.400860e+03 -4.011220e+02
-3.998640e+02 -4.000950e+03 -4.020190e+02
1.390520e-01 -4.000950e+03 -4.020030e+02
-3.998890e+02 -4.400050e+03 -1.459810e+00
1.046000e-01 -4.400030e+03 -1.416240e+00
-3.999370e+02 -3.999980e+03 -2.266920e+00
5.893040e-02 -4.000010e+03 -2.135860e+00
-5.296120e-02 -4.400860e+03 -4.011220e+02
3.999530e+02 -4.400960e+03 -4.013550e+02
1.390520e-01 -4.000950e+03 -4.020030e+02
4.001420e+02 -4.000930e+03 -4.019830e+02
1.046000e-01 -4.400030e+03 -1.416240e+00
4.000980e+02 -4.400020e+03 -1.393910e+00
5.893040e-02 -4.000010e+03 -2.135860e+00
4.000540e+02 -4.000030e+03 -1.999510e+00
-3.998640e+02 -4.000950e+03 -4.020190e+02
1.390520e-01 -4.000950e+03 -4.020030e+02
-3.997870e+02 -3.600740e+03 -4.028270e+02
2.038000e-01 -3.600800e+03 -4.026300e+02
-3.999370e+02 -3.999980e+03 -2.266920e+00
5.893040e-02 -4.000010e+03 -2.135860e+00
-3.999550e+02 -3.600030e+03 -3.237930e+00
5.918910e-02 -3.599990e+03 -2.870110e+00
1.390520e-01 -4.000950e+03 -4.020030e+02
4.001420e+02 -4.000930e+03 -4.019830e+02
2.038000e-01 -3.600800e+03 -4.026300e+02
4.001930e+02 -3.600860e+03 -4.025100e+02
5.893040e-02 -4.000010e+03 -2.135860e+00
4.000540e+02 -4.000030e+03 -1.999510e+00
5.918910e-02 -3.599990e+03 -2.870110e+00
4.000730e+02 -3.599950e+03 -2.519650e+00
-3.997870e+02 -3.600740e+03 -4.028270e+02
2.038000e-01 -3.600800e+03 -4.026300e+02
-3.997640e+02 -3.200720e+03 -4.036880e+02
2.272360e-01 -3.200680e+03 -4.036410e+02
-3.999550e+02 -3.600030e+03 -3.237930e+00
5.918910e-02 -3.599990e+03 -2.870110e+00
-3.999460e+02 -3.199940e+03 -3.974070e+00
6.906520e-02 -3.199960e+03 -3.677120e+00
2.038000e-01 -3.600800e+03 -4.026300e+02
4.001930e+02 -3.600860e+03 -4.025100e+02
2.272360e-01 -3.200680e+03 -4.036410e+02
4.002190e+02 -3.200640e+03 -4.036400e+02
5.918910e-02 -3.599990e+03 -2.870110e+00
4.000730e+02 -3.599950e+03 -2.519650e+00
6.906520e-02 -3.199960e+03 -3.677120e+00
4.000830e+02 -3.199990e+03 -3.362890e+00
-3.997640e+02 -3.200720e+03 -4.036880e+02
2.272360e-01 -3.200680e+03 -4.036410e+02
-3.998060e+02 -2.800660e+03 -4.047140e+02
2.027170e-01 -2.800540e+03 -4.043510e+02
-3.999460e+02 -3.199940e+03 -3.974070e+00
6.906520e-02 -3.199960e+03 -3.677120e+00
-3.999480e+02 -2.799990e+03 -4.504110e+00
5.319220e-02 -2.800020e+03 -4.227400e+00
2.272360e-01 -3.200680e+03 -4.036410e+02
4.002190e+02 -3.200640e+03 -4.036400e+02
2.027170e-01 -2.800540e+03 -4.043510e+02
4.002110e+02 -2.800420e+03 -4.039930e+02
6.906520e-02 -3.199960e+03 -3.677120e+00
4.000830e+02 -3.199990e+03 -3.362890e+00
5.319220e-02 -2.800020e+03 -4.227400e+00
4.000550e+02 -2.800050e+03 -3.932020e+00
-3.998060e+02 -2.800660e+03 -4.047140e+02
2.027170e-01 -2.800540e+03 -4.043510e+02
-3.997720e+02 -2.400600e+03 -4.050400e+02
2.153020e-01 -2.400650e+03 -4.047160e+02
-3.999480e+02 -2.799990e+03 -4.504110e+00
5.319220e-02 -2.800020e+03 -4.227400e+00
-4.000660e+02 -2.400140e+03 -5.011170e+00
-6.235340e-02 -2.400050e+03 -4.861910e+00
2.027170e-01 -2.800540e+03 -4.043510e+02
4.002110e+02 -2.800420e+03 -4.039930e+02
2.153020e-01 -2.400650e+03 -4.047160e+02
4.002030e+02 -2.400700e+03 -4.044410e+02
5.319220e-02 -2.800020e+03 -4.227400e+00
4.000550e+02 -2.800050e+03 -3.932020e+00
-6.235340e-02 -2.400050e+03 -4.861910e+00
3.999420e+02 -2.399960e+03 -4.712520e+00
-3.997720e+02 -2.400600e+03 -4.050400e+02
2.153020e-01 -2.400650e+03 -4.047160e+02
-3.999280e+02 -2.000830e+03 -4.054050e+02
6.715730e-02 -2.000920e+03 -4.054080e+02
-4.000660e+02 -2.400140e+03 -5.011170e+00
-6.235340e-02 -2.400050e+03 -4.861910e+00
-3.999860e+02 -2.000050e+03 -5.881870e+00
5.602890e-03 -1.999980e+03 -5.712680e+00
2.153020e-01 -2.400650e+03 -4.047160e+02
4.002030e+02 -2.400700e+03 -4.044410e+02
6.715730e-02 -2.000920e+03 -4.054080e+02
4.000630e+02 -2.001010e+03 -4.053920e+02
-6.235340e-02 -2.400050e+03 -4.861910e+00
3.999420e+02 -2.399960e+03 -4.712520e+00
5.602890e-03 -1.999980e+03 -5.712680e+00
3.999980e+02 -1.999920e+03 -5.562880e+00
-3.999280e+02 -2.000830e+03 -4.054050e+02
6.715730e-02 -2.000920e+03 -4.054080e+02
-3.999970e+02 -1.600920e+03 -4.066920e+02
5.905780e-03 -1.601000e+03 -4.067060e+02
-3.999860e+02 -2.000050e+03 -5.881870e+00
5.602890e-03 -1.999980e+03 -5.712680e+00
-3.999170e+02 -1.599930e+03 -6.934010e+00
7.312220e-02 -1.599910e+03 -6.814420e+00
6.715730e-02 -2.000920e+03 -4.054080e+02
4.000630e+02 -2.001010e+03 -4.053920e+02
5.905780e-03 -1.601000e+03 -4.067060e+02
4.000090e+02 -1.601070e+03 -4.066900e+02
5.602890e-03 -1.999980e+03 -5.712680e+00
3.999980e+02 -1.999920e+03 -5.562880e+00
7.312220e-02 -1.599910e+03 -6.814420e+00
4.000640e+02 -1.599880e+03 -6.682450e+00
-3.999970e+02 -1.600920e+03 -4.066920e+02
5.905780e-03 -1.601000e+03 -4.067060e+02
-3.999430e+02 -1.200760e+03 -4.078920e+02
5.649160e-02 -1.200810e+03 -4.078300e+02
-3.999170e+02 -1.599930e+03 -6.934010e+00
7.312220e-02 -1.599910e+03 -6.814420e+00
-4.000680e+02 -1.199970e+03 -7.649270e+00
-7.365860e-02 -1.199950e+03 -7.650460e+00
5.905780e-03 -1.601000e+03 -4.067060e+02
4.000090e+02 -1.601070e+03 -4.066900e+02
5.649160e-02 -1.200810e+03 -4.078300e+02
4.000560e+02 -1.200850e+03 -4.077840e+02
7.312220e-02 -1.599910e+03 -6.814420e+00
4.000640e+02 -1.599880e+03 -6.682450e+00
-7.365860e-02 -1.199950e+03 -7.650460e+00
3.999210e+02 -1.199940e+03 -7.653370e+00
-3.999430e+02 -1.200760e+03 -4.078920e+02
5.649160e-02 -1.200810e+03 -4.078300e+02
-4.000160e+02 -8.008300e+02 -4.087210e+02
-5.860900e-03 -8.007790e+02 -4.087710e+02
-4.000680e+02 -1.199970e+03 -7.649270e+00
-7.365860e-02 -1.199950e+03 -7.650460e+00
-4.000100e+02 -8.000150e+02 -8.581760e+00
-1.410600e-02 -8.000600e+02 -8.515920e+00
5.649160e-02 -1.200810e+03 -4.078300e+02
4.000560e+02 -1.200850e+03 -4.077840e+02
-5.860900e-03 -8.007790e+02 -4.087710e+02
4.000040e+02 -8.007260e+02 -4.087830e+02
-7.365860e-02 -1.199950e+03 -7.650460e+00
3.999210e+02 -1.199940e+03 -7.653370e+00
-1.410600e-02 -8.000600e+02 -8.515920e+00
3.999820e+02 -8.001290e+02 -8.437580e+00
-4.000160e+02 -8.008300e+02 -4.087210e+02
-5.860900e-03 -8.007790e+02 -4.087710e+02
-4.000280e+02 -4.009720e+02 -4.094220e+02
-1.153450e-02 -4.008910e+02 -4.094300e+02
-4.000100e+02 -8.000150e+02 -8.581760e+00
-1.410600e-02 -8.000600e+02 -8.515920e+00
-4.000210e+02 -4.000090e+02 -9.513270e+00
-2.812560e-02 -4.000980e+02 -9.582610e+00
-5.860900e-03 -8.007790e+02 -4.087710e+02
4.000040e+02 -8.007260e+02 -4.087830e+02
-1.153450e-02 -4.008910e+02 -4.094300e+02
4.000040e+02 -4.008040e+02 -4.093740e+02
-1.410600e-02 -8.000600e+02 -8.515920e+00
3.999820e+02 -8.001290e+02 -8.437580e+00
-2.812560e-02 -4.000980e+02 -9.582610e+00
3.999640e+02 -4.001730e+02 -9.629470e+00
-4.000280e+02 -4.009720e+02 -4.094220e+02
-1.153450e-02 -4.008910e+02 -4.094300e+02
-4.000280e+02 -9.282010e-01 -4.102460e+02
-3.302350e-02 -9.538750e-01 -4.099880e+02
-4.000210e+02 -4.000090e+02 -9.513270e+00
-2.812560e-02 -4.000980e+02 -9.582610e+00
-4.000550e+02 -7.011210e-02 -1.047280e+01
-5.525190e-02 -7.796670e-02 -1.050300e+01
-1.153450e-02 -4.008910e+02 -4.094300e+02
4.000040e+02 -4.008040e+02 -4.093740e+02
[...]
<PointData>
<DataArray type="Float32" Name="V1" format="ascii">
0.000000e+00
0.000000e+00
-1.859390e-01
-1.470940e-01
0.000000e+00
0.000000e+00
-2.972030e-03
-9.663920e-03
0.000000e+00
0.000000e+00
-1.470940e-01
-1.100030e-01
0.000000e+00
0.000000e+00
-9.663920e-03
-1.665320e-02
-1.859390e-01
-1.470940e-01
-6.206630e-02
-3.477230e-03
-2.972030e-03
-9.663920e-03
3.974160e-02
2.472190e-02
-1.470940e-01
-1.100030e-01
-3.477230e-03
5.537860e-02
-9.663920e-03
-1.665320e-02
2.472190e-02
8.576830e-03
-6.206630e-02
-3.477230e-03
2.825180e-02
4.942190e-02
3.974160e-02
2.472190e-02
2.542930e-02
3.144250e-03
-3.477230e-03
5.537860e-02
4.942190e-02
6.812480e-02
2.472190e-02
8.576830e-03
3.144250e-03
-1.891530e-02
2.825180e-02
4.942190e-02
8.054430e-02
4.410160e-02
2.542930e-02
3.144250e-03
-1.356320e-01
-1.402390e-01
4.942190e-02
6.812480e-02
4.410160e-02
9.912530e-03
3.144250e-03
-1.891530e-02
-1.402390e-01
-1.441250e-01
8.054430e-02
4.410160e-02
-9.806090e-02
-1.283170e-01
-1.356320e-01
-1.402390e-01
1.378370e-01
1.420110e-01
4.410160e-02
9.912530e-03
-1.283170e-01
-1.562430e-01
-1.402390e-01
-1.441250e-01
1.420110e-01
1.476800e-01
-9.806090e-02
-1.283170e-01
-2.449950e-01
-2.290260e-01
1.378370e-01
1.420110e-01
5.778880e-02
6.182370e-02
-1.283170e-01
-1.562430e-01
-2.290260e-01
-2.125590e-01
1.420110e-01
1.476800e-01
6.182370e-02
6.650410e-02
-2.449950e-01
-2.290260e-01
-4.163330e-02
-2.275300e-02
5.778880e-02
6.182370e-02
2.622780e-02
4.246480e-02
-2.290260e-01
-2.125590e-01
-2.275300e-02
-4.011110e-03
6.182370e-02
6.650410e-02
4.246480e-02
5.812080e-02
-4.163330e-02
-2.275300e-02
-3.285920e-01
-3.051140e-01
2.622780e-02
4.246480e-02
2.122270e-01
2.139380e-01
-2.275300e-02
-4.011110e-03
-3.051140e-01
-2.827470e-01
4.246480e-02
5.812080e-02
2.139380e-01
2.188750e-01
-3.285920e-01
-3.051140e-01
1.541240e-01
1.289730e-01
2.122270e-01
2.139380e-01
-3.589830e-02
-2.950010e-02
-3.051140e-01
-2.827470e-01
1.289730e-01
1.069370e-01
2.139380e-01
2.188750e-01
-2.950010e-02
-2.248360e-02
1.541240e-01
1.289730e-01
1.550840e-01
8.121040e-02
-3.589830e-02
-2.950010e-02
-1.841650e-01
-1.513850e-01
1.289730e-01
1.069370e-01
8.121040e-02
1.147030e-02
-2.950010e-02
-2.248360e-02
-1.513850e-01
-1.172330e-01
1.550840e-01
8.121040e-02
6.624710e-02
4.149650e-02
-1.841650e-01
-1.513850e-01
-4.882510e-02
-4.129250e-02
8.121040e-02
1.147030e-02
4.149650e-02
1.648640e-02
-1.513850e-01
-1.172330e-01
-4.129250e-02
-3.114490e-02
6.624710e-02
4.149650e-02
6.984360e-02
6.270110e-02
-4.882510e-02
-4.129250e-02
3.613390e-02
4.906150e-02
4.149650e-02
1.648640e-02
6.270110e-02
5.629940e-02
-4.129250e-02
-3.114490e-02
4.906150e-02
6.048530e-02
6.984360e-02
6.270110e-02
-7.788510e-03
2.662200e-02
3.613390e-02
4.906150e-02
-1.448590e-01
-1.386690e-01
6.270110e-02
5.629940e-02
2.662200e-02
6.153440e-02
4.906150e-02
6.048530e-02
-1.386690e-01
-1.326930e-01
-7.788510e-03
2.662200e-02
-2.890850e-03
2.531400e-02
-1.448590e-01
-1.386690e-01
-1.046560e-01
-1.112720e-01
2.662200e-02
6.153440e-02
2.531400e-02
5.149900e-02
-1.386690e-01
-1.326930e-01
-1.112720e-01
-1.157320e-01
-2.890850e-03
2.531400e-02
-2.134350e-02
-6.462880e-02
-1.046560e-01
-1.112720e-01
2.879090e-03
5.432820e-04
2.531400e-02
5.149900e-02
-6.462880e-02
-1.077400e-01
-1.112720e-01
-1.157320e-01
5.432820e-04
7.302690e-04
-2.134350e-02
-6.462880e-02
1.825290e-01
1.310720e-01
2.879090e-03
5.432820e-04
-2.214160e-02
-1.276930e-02
-6.462880e-02
-1.077400e-01
1.310720e-01
8.278940e-02
5.432820e-04
7.302690e-04
-1.276930e-02
-2.555330e-03
1.825290e-01
1.310720e-01
-5.699690e-06
-1.205010e-02
-2.214160e-02
-1.276930e-02
-1.142790e-02
-3.913770e-03
1.310720e-01
8.278940e-02
-1.205010e-02
-2.394170e-02
-1.276930e-02
-2.555330e-03
-3.913770e-03
2.764140e-03
-5.699690e-06
-1.205010e-02
-3.567000e-03
3.136480e-02
-1.142790e-02
-3.913770e-03
-2.566540e-02
-1.594350e-02
-1.205010e-02
-2.394170e-02
3.136480e-02
6.700600e-02
-3.913770e-03
2.764140e-03
-1.594350e-02
-7.254980e-03
-3.567000e-03
3.136480e-02
-9.002430e-02
-7.029210e-02
-2.566540e-02
-1.594350e-02
-1.131240e-02
-1.094490e-02
3.136480e-02
6.700600e-02
-7.029210e-02
-5.204090e-02
-1.594350e-02
-7.254980e-03
-1.094490e-02
-1.255850e-02
-9.002430e-02
-7.029210e-02
1.693750e-01
1.986750e-01
-1.131240e-02
-1.094490e-02
-5.988420e-03
-3.364310e-02
-7.029210e-02
-5.204090e-02
1.986750e-01
2.271590e-01
-1.094490e-02
-1.255850e-02
-3.364310e-02
-6.060110e-02
1.693750e-01
1.986750e-01
-6.881160e-02
-1.076640e-01
-5.988420e-03
-3.364310e-02
4.835210e-02
5.434130e-02
1.986750e-01
2.271590e-01
-1.076640e-01
-1.448170e-01
-3.364310e-02
-6.060110e-02
5.434130e-02
6.055450e-02
-6.881160e-02
-1.076640e-01
1.241280e-01
9.184290e-02
4.835210e-02
5.434130e-02
-4.917480e-02
-6.451390e-02
-1.076640e-01
-1.448170e-01
9.184290e-02
6.044770e-02
5.434130e-02
6.055450e-02
-6.451390e-02
-8.016980e-02
1.241280e-01
9.184290e-02
-8.575450e-02
-8.288870e-02
-4.917480e-02
-6.451390e-02
4.179880e-02
4.575540e-02
9.184290e-02
6.044770e-02
-8.288870e-02
-8.291510e-02
-6.451390e-02
-8.016980e-02
4.575540e-02
4.978030e-02
-8.575450e-02
-8.288870e-02
-1.745740e-01
-1.336250e-01
4.179880e-02
4.575540e-02
6.628400e-02
6.170710e-02
-8.288870e-02
-8.291510e-02
-1.336250e-01
-9.328020e-02
4.575540e-02
4.978030e-02
6.170710e-02
5.516590e-02
-1.745740e-01
-1.336250e-01
3.271780e-01
3.559240e-01
6.628400e-02
6.170710e-02
-2.192070e-01
-2.144690e-01
-1.336250e-01
-9.328020e-02
3.559240e-01
3.830230e-01
6.170710e-02
5.516590e-02
-2.144690e-01
-2.114550e-01
3.271780e-01
3.559240e-01
-5.646000e-02
-7.071380e-02
-2.192070e-01
-2.144690e-01
-4.978850e-02
-4.637160e-02
3.559240e-01
3.830230e-01
-7.071380e-02
-8.582820e-02
-2.144690e-01
-2.114550e-01
-4.637160e-02
-4.243310e-02
-5.646000e-02
-7.071380e-02
-1.691940e-02
-4.808970e-02
-4.978850e-02
-4.637160e-02
8.378090e-02
6.930790e-02
-7.071380e-02
-8.582820e-02
-4.808970e-02
-7.444370e-02
-4.637160e-02
-4.243310e-02
6.930790e-02
5.327750e-02
-1.691940e-02
-4.808970e-02
1.596820e-02
-2.331010e-04
8.378090e-02
6.930790e-02
7.031800e-02
6.362650e-02
-4.808970e-02
-7.444370e-02
-2.331010e-04
-1.699240e-02
6.930790e-02
5.327750e-02
6.362650e-02
5.659430e-02
1.596820e-02
-2.331010e-04
-1.015320e-01
-7.759520e-02
7.031800e-02
6.362650e-02
6.078770e-02
5.401010e-02
-2.331010e-04
-1.699240e-02
-7.759520e-02
-5.696250e-02
6.362650e-02
5.659430e-02
5.401010e-02
4.753150e-02
-1.015320e-01
-7.759520e-02
-3.289200e-02
1.694790e-02
6.078770e-02
5.401010e-02
-1.489380e-01
-1.378920e-01
-7.759520e-02
-5.696250e-02
1.694790e-02
6.697330e-02
5.401010e-02
4.753150e-02
-1.378920e-01
-1.303980e-01
0.000000e+00
0.000000e+00
-2.972030e-03
-9.663920e-03
0.000000e+00
0.000000e+00
1.932650e-01
1.726450e-01
0.000000e+00
0.000000e+00
-9.663920e-03
-1.665320e-02
0.000000e+00
0.000000e+00
1.726450e-01
1.508180e-01
-2.972030e-03
-9.663920e-03
3.974160e-02
2.472190e-02
1.932650e-01
1.726450e-01
-2.635530e-02
-4.964390e-02
-9.663920e-03
-1.665320e-02
2.472190e-02
8.576830e-03
1.726450e-01
1.508180e-01
-4.964390e-02
-7.525440e-02
3.974160e-02
2.472190e-02
2.542930e-02
3.144250e-03
-2.635530e-02
-4.964390e-02
-7.577980e-02
-5.567920e-02
2.472190e-02
8.576830e-03
3.144250e-03
-1.891530e-02
-4.964390e-02
-7.525440e-02
-5.567920e-02
-3.576920e-02
2.542930e-02
3.144250e-03
-1.356320e-01
-1.402390e-01
-7.577980e-02
-5.567920e-02
1.859150e-01
2.339530e-01
3.144250e-03
-1.891530e-02
-1.402390e-01
-1.441250e-01
-5.567920e-02
-3.576920e-02
2.339530e-01
2.859990e-01
-1.356320e-01
-1.402390e-01
1.378370e-01
1.420110e-01
1.859150e-01
2.339530e-01
-1.743500e-01
-1.649940e-01
-1.402390e-01
-1.441250e-01
1.420110e-01
1.476800e-01
2.339530e-01
2.859990e-01
-1.649940e-01
-1.562870e-01
1.378370e-01
1.420110e-01
5.778880e-02
6.182370e-02
-1.743500e-01
-1.649940e-01
1.446870e-01
1.238680e-01
1.420110e-01
1.476800e-01
6.182370e-02
6.650410e-02
-1.649940e-01
-1.562870e-01
1.238680e-01
1.033590e-01
5.778880e-02
6.182370e-02
2.622780e-02
4.246480e-02
1.446870e-01
1.238680e-01
-2.414520e-02
-7.534130e-02
6.182370e-02
6.650410e-02
4.246480e-02
5.812080e-02
1.238680e-01
1.033590e-01
-7.534130e-02
-1.221400e-01
2.622780e-02
4.246480e-02
2.122270e-01
2.139380e-01
-2.414520e-02
-7.534130e-02
-1.023980e-01
-1.297720e-01
4.246480e-02
5.812080e-02
2.139380e-01
2.188750e-01
-7.534130e-02
-1.221400e-01
-1.297720e-01
-1.587380e-01
2.122270e-01
2.139380e-01
-3.589830e-02
-2.950010e-02
-1.023980e-01
-1.297720e-01
-5.552050e-02
-5.467960e-02
2.139380e-01
2.188750e-01
-2.950010e-02
-2.248360e-02
-1.297720e-01
-1.587380e-01
-5.467960e-02
-5.349560e-02
-3.589830e-02
-2.950010e-02
-1.841650e-01
-1.513850e-01
-5.552050e-02
-5.467960e-02
2.010140e-01
2.098470e-01
-2.950010e-02
-2.248360e-02
-1.513850e-01
-1.172330e-01
-5.467960e-02
-5.349560e-02
2.098470e-01
2.190340e-01
-1.841650e-01
-1.513850e-01
-4.882510e-02
-4.129250e-02
2.010140e-01
2.098470e-01
3.631290e-02
4.908720e-02
-1.513850e-01
-1.172330e-01
-4.129250e-02
-3.114490e-02
2.098470e-01
2.190340e-01
4.908720e-02
6.041510e-02
-4.882510e-02
-4.129250e-02
3.613390e-02
4.906150e-02
3.631290e-02
4.908720e-02
-1.370280e-01
-1.615950e-01
-4.129250e-02
-3.114490e-02
4.906150e-02
6.048530e-02
4.908720e-02
6.041510e-02
-1.615950e-01
-1.821570e-01
3.613390e-02
4.906150e-02
-1.448590e-01
-1.386690e-01
-1.370280e-01
-1.615950e-01
2.914320e-01
2.443510e-01
4.906150e-02
6.048530e-02
-1.386690e-01
-1.326930e-01
-1.615950e-01
-1.821570e-01
2.443510e-01
1.958970e-01
-1.448590e-01
-1.386690e-01
-1.046560e-01
-1.112720e-01
2.914320e-01
2.443510e-01
2.066940e-01
1.973450e-01
-1.386690e-01
-1.326930e-01
-1.112720e-01
-1.157320e-01
2.443510e-01
1.958970e-01
1.973450e-01
1.865140e-01
-1.046560e-01
-1.112720e-01
2.879090e-03
5.432820e-04
2.066940e-01
1.973450e-01
1.851090e-02
5.483140e-02
-1.112720e-01
-1.157320e-01
5.432820e-04
7.302690e-04
1.973450e-01
1.865140e-01
5.483140e-02
9.401020e-02
2.879090e-03
5.432820e-04
-2.214160e-02
-1.276930e-02
1.851090e-02
5.483140e-02
-1.290700e-01
-8.713800e-02
5.432820e-04
7.302690e-04
-1.276930e-02
-2.555330e-03
5.483140e-02
9.401020e-02
-8.713800e-02
-4.483900e-02
-2.214160e-02
-1.276930e-02
-1.142790e-02
-3.913770e-03
-1.290700e-01
-8.713800e-02
7.010860e-03
-2.184450e-03
-1.276930e-02
-2.555330e-03
-3.913770e-03
2.764140e-03
-8.713800e-02
-4.483900e-02
-2.184450e-03
-6.876160e-03
-1.142790e-02
-3.913770e-03
-2.566540e-02
-1.594350e-02
7.010860e-03
-2.184450e-03
7.369040e-02
2.328920e-02
-3.913770e-03
2.764140e-03
-1.594350e-02
-7.254980e-03
-2.184450e-03
-6.876160e-03
2.328920e-02
-2.740290e-02
-2.566540e-02
-1.594350e-02
-1.131240e-02
-1.094490e-02
7.369040e-02
2.328920e-02
9.670530e-02
7.995870e-02
-1.594350e-02
-7.254980e-03
-1.094490e-02
-1.255850e-02
2.328920e-02
-2.740290e-02
7.995870e-02
6.224600e-02
-1.131240e-02
-1.094490e-02
-5.988420e-03
-3.364310e-02
9.670530e-02
7.995870e-02
-1.733480e-01
-1.454320e-01
-1.094490e-02
-1.255850e-02
-3.364310e-02
-6.060110e-02
7.995870e-02
6.224600e-02
-1.454320e-01
-1.193500e-01
-5.988420e-03
-3.364310e-02
4.835210e-02
5.434130e-02
-1.733480e-01
-1.454320e-01
-1.861860e-03
2.435360e-02
-3.364310e-02
-6.060110e-02
5.434130e-02
6.055450e-02
-1.454320e-01
-1.193500e-01
2.435360e-02
5.031990e-02
4.835210e-02
5.434130e-02
-4.917480e-02
-6.451390e-02
-1.861860e-03
2.435360e-02
-4.314410e-02
1.726180e-02
5.434130e-02
6.055450e-02
-6.451390e-02
-8.016980e-02
2.435360e-02
5.031990e-02
1.726180e-02
7.767430e-02
-4.917480e-02
-6.451390e-02
4.179880e-02
4.575540e-02
-4.314410e-02
1.726180e-02
8.455120e-04
-2.739260e-03
-6.451390e-02
-8.016980e-02
4.575540e-02
4.978030e-02
1.726180e-02
7.767430e-02
-2.739260e-03
-7.442690e-03
4.179880e-02
4.575540e-02
6.628400e-02
6.170710e-02
8.455120e-04
-2.739260e-03
5.442370e-02
2.115570e-02
4.575540e-02
4.978030e-02
6.170710e-02
5.516590e-02
-2.739260e-03
-7.442690e-03
2.115570e-02
-1.417970e-02
6.628400e-02
6.170710e-02
-2.192070e-01
-2.144690e-01
5.442370e-02
2.115570e-02
9.717130e-02
6.141190e-02
6.170710e-02
5.516590e-02
-2.144690e-01
-2.114550e-01
2.115570e-02
-1.417970e-02
6.141190e-02
2.592710e-02
-2.192070e-01
-2.144690e-01
-4.978850e-02
-4.637160e-02
9.717130e-02
6.141190e-02
1.553260e-01
1.692060e-01
-2.144690e-01
-2.114550e-01
-4.637160e-02
-4.243310e-02
6.141190e-02
2.592710e-02
1.692060e-01
1.813400e-01
-4.978850e-02
-4.637160e-02
8.378090e-02
6.930790e-02
1.553260e-01
1.692060e-01
-1.351170e-01
-8.678210e-02
-4.637160e-02
-4.243310e-02
6.930790e-02
5.327750e-02
1.692060e-01
1.813400e-01
-8.678210e-02
-3.466830e-02
8.378090e-02
6.930790e-02
7.031800e-02
6.362650e-02
-1.351170e-01
-8.678210e-02
-1.553360e-01
-1.254010e-01
6.930790e-02
5.327750e-02
6.362650e-02
5.659430e-02
-8.678210e-02
-3.466830e-02
-1.254010e-01
-9.479640e-02
7.031800e-02
6.362650e-02
6.078770e-02
5.401010e-02
-1.553360e-01
-1.254010e-01
-3.519080e-02
-4.392190e-02
6.362650e-02
5.659430e-02
5.401010e-02
4.753150e-02
-1.254010e-01
-9.479640e-02
-4.392190e-02
-5.408900e-02
6.078770e-02
5.401010e-02
-1.489380e-01
-1.378920e-01
-3.519080e-02
-4.392190e-02
3.451210e-01
2.796910e-01
5.401010e-02
4.753150e-02
-1.378920e-01
-1.303980e-01
-4.392190e-02
-5.408900e-02
2.796910e-01
2.147540e-01
</DataArray>
<DataArray type="Float32" Name="V2" format="ascii">
0.000000e+00
0.000000e+00
-3.661630e-02
-1.914260e-01
0.000000e+00
0.000000e+00
-5.557210e-02
1.413540e-02
0.000000e+00
0.000000e+00
-1.914260e-01
-2.778480e-01
0.000000e+00
0.000000e+00
1.413540e-02
3.112950e-02
-3.661630e-02
-1.914260e-01
1.253390e-01
-1.609750e-02
-5.557210e-02
1.413540e-02
-1.015370e-01
-9.829160e-02
-1.914260e-01
-2.778480e-01
-1.609750e-02
-1.739020e-01
1.413540e-02
3.112950e-02
-9.829160e-02
-1.140550e-01
1.253390e-01
-1.609750e-02
1.466330e-01
1.089810e-01
-1.015370e-01
-9.829160e-02
-3.936460e-03
-1.027600e-03
-1.609750e-02
-1.739020e-01
1.089810e-01
7.271370e-02
-9.829160e-02
-1.140550e-01
-1.027600e-03
6.521390e-03
1.466330e-01
1.089810e-01
-1.202850e-01
-5.531280e-02
-3.936460e-03
-1.027600e-03
1.928730e-01
1.680220e-01
1.089810e-01
7.271370e-02
-5.531280e-02
-1.680990e-02
-1.027600e-03
6.521390e-03
1.680220e-01
1.693240e-01
-1.202850e-01
-5.531280e-02
1.329680e-01
5.475530e-02
1.928730e-01
1.680220e-01
-6.034950e-02
-4.637190e-02
-5.531280e-02
-1.680990e-02
5.475530e-02
-1.071560e-02
1.680220e-01
1.693240e-01
-4.637190e-02
-4.930300e-02
1.329680e-01
5.475530e-02
3.521110e-02
-1.805710e-02
-6.034950e-02
-4.637190e-02
-1.344820e-01
-8.850810e-02
5.475530e-02
-1.071560e-02
-1.805710e-02
-1.056350e-01
-4.637190e-02
-4.930300e-02
-8.850810e-02
-1.918190e-02
3.521110e-02
-1.805710e-02
-2.176730e-01
-2.207160e-01
-1.344820e-01
-8.850810e-02
3.249270e-04
1.738240e-02
-1.805710e-02
-1.056350e-01
-2.207160e-01
-2.529510e-01
-8.850810e-02
-1.918190e-02
1.738240e-02
5.174680e-02
-2.176730e-01
-2.207160e-01
-6.302920e-02
7.979190e-02
3.249270e-04
1.738240e-02
1.040180e-02
1.560970e-03
-2.207160e-01
-2.529510e-01
7.979190e-02
2.732640e-01
1.738240e-02
5.174680e-02
1.560970e-03
-2.326940e-02
-6.302920e-02
7.979190e-02
4.965290e-02
1.364470e-01
1.040180e-02
1.560970e-03
1.450290e-01
5.791510e-02
7.979190e-02
2.732640e-01
1.364470e-01
2.452950e-01
1.560970e-03
-2.326940e-02
5.791510e-02
-3.104880e-02
4.965290e-02
1.364470e-01
1.446030e-01
2.384610e-01
1.450290e-01
5.791510e-02
-5.359340e-02
-1.118650e-01
1.364470e-01
2.452950e-01
2.384610e-01
3.553090e-01
5.791510e-02
-3.104880e-02
-1.118650e-01
-1.788200e-01
1.446030e-01
2.384610e-01
1.925310e-01
1.100760e-01
-5.359340e-02
-1.118650e-01
-4.912940e-02
-5.055600e-02
2.384610e-01
3.553090e-01
1.100760e-01
-1.662130e-02
-1.118650e-01
-1.788200e-01
-5.055600e-02
-5.096990e-02
1.925310e-01
1.100760e-01
-1.207040e-02
-1.134100e-01
-4.912940e-02
-5.055600e-02
3.442600e-02
5.561510e-02
1.100760e-01
-1.662130e-02
-1.134100e-01
-2.033900e-01
-5.055600e-02
-5.096990e-02
5.561510e-02
3.801750e-02
-1.207040e-02
-1.134100e-01
-2.641550e-01
-1.051650e-01
3.442600e-02
5.561510e-02
3.925990e-02
4.390500e-02
-1.134100e-01
-2.033900e-01
-1.051650e-01
4.756500e-02
5.561510e-02
3.801750e-02
4.390500e-02
7.335170e-02
-2.641550e-01
-1.051650e-01
-1.759090e-01
9.057790e-03
3.925990e-02
4.390500e-02
1.753540e-02
-2.114460e-02
-1.051650e-01
4.756500e-02
9.057790e-03
1.968660e-01
4.390500e-02
7.335170e-02
-2.114460e-02
-8.150560e-02
-1.759090e-01
9.057790e-03
7.700620e-02
3.220100e-03
1.753540e-02
-2.114460e-02
-1.071810e-01
-1.635080e-02
9.057790e-03
1.968660e-01
3.220100e-03
-6.195390e-03
-2.114460e-02
-8.150560e-02
-1.635080e-02
5.452290e-02
7.700620e-02
3.220100e-03
-3.394670e-03
-3.381100e-02
-1.071810e-01
-1.635080e-02
8.001720e-02
6.606330e-02
3.220100e-03
-6.195390e-03
-3.381100e-02
-1.492300e-01
-1.635080e-02
5.452290e-02
6.606330e-02
8.599850e-02
-3.394670e-03
-3.381100e-02
-7.349750e-02
1.944230e-03
8.001720e-02
6.606330e-02
-1.076810e-02
-4.042790e-02
-3.381100e-02
-1.492300e-01
1.944230e-03
6.300530e-02
6.606330e-02
8.599850e-02
-4.042790e-02
-4.848180e-02
-7.349750e-02
1.944230e-03
4.395940e-02
6.594910e-02
-1.076810e-02
-4.042790e-02
5.859500e-02
-4.418830e-02
1.944230e-03
6.300530e-02
6.594910e-02
9.631250e-02
-4.042790e-02
-4.848180e-02
-4.418830e-02
-1.749020e-01
4.395940e-02
6.594910e-02
-8.188030e-02
2.157100e-03
5.859500e-02
-4.418830e-02
2.020020e-01
9.585010e-02
6.594910e-02
9.631250e-02
2.157100e-03
4.131840e-02
-4.418830e-02
-1.749020e-01
9.585010e-02
-2.507620e-02
-8.188030e-02
2.157100e-03
6.337350e-02
-1.480310e-01
2.020020e-01
9.585010e-02
-4.611110e-02
4.331620e-02
2.157100e-03
4.131840e-02
-1.480310e-01
-2.716070e-01
9.585010e-02
-2.507620e-02
4.331620e-02
1.158660e-01
6.337350e-02
-1.480310e-01
-2.048930e-01
-1.715080e-01
-4.611110e-02
4.331620e-02
-1.492620e-01
-1.292830e-01
-1.480310e-01
-2.716070e-01
-1.715080e-01
-1.718190e-01
4.331620e-02
1.158660e-01
-1.292830e-01
-9.988410e-02
-2.048930e-01
-1.715080e-01
-8.889630e-02
-1.418770e-02
-1.492620e-01
-1.292830e-01
7.463630e-02
5.553090e-02
-1.715080e-01
-1.718190e-01
-1.418770e-02
1.935650e-02
-1.292830e-01
-9.988410e-02
5.553090e-02
3.137160e-02
-8.889630e-02
-1.418770e-02
1.025760e-01
2.504420e-01
7.463630e-02
5.553090e-02
4.473570e-02
2.642260e-02
-1.418770e-02
1.935650e-02
2.504420e-01
3.705720e-01
5.553090e-02
3.137160e-02
2.642260e-02
1.710740e-02
1.025760e-01
2.504420e-01
2.250630e-01
2.680460e-01
4.473570e-02
2.642260e-02
-8.803960e-02
-1.217110e-01
2.504420e-01
3.705720e-01
2.680460e-01
3.169060e-01
2.642260e-02
1.710740e-02
-1.217110e-01
-1.528150e-01
2.250630e-01
2.680460e-01
-5.409040e-02
-1.542060e-02
-8.803960e-02
-1.217110e-01
6.830940e-02
2.418160e-02
2.680460e-01
3.169060e-01
-1.542060e-02
6.839910e-02
-1.217110e-01
-1.528150e-01
2.418160e-02
-2.558110e-02
-5.409040e-02
-1.542060e-02
-3.407550e-01
-3.162220e-01
6.830940e-02
2.418160e-02
1.991770e-01
2.058880e-01
-1.542060e-02
6.839910e-02
-3.162220e-01
-2.962120e-01
2.418160e-02
-2.558110e-02
2.058880e-01
2.027980e-01
-3.407550e-01
-3.162220e-01
2.477470e-01
6.612540e-02
1.991770e-01
2.058880e-01
-5.550480e-02
1.624760e-02
-3.162220e-01
-2.962120e-01
6.612540e-02
-4.766990e-02
2.058880e-01
2.027980e-01
1.624760e-02
4.709940e-02
2.477470e-01
6.612540e-02
5.564120e-01
4.216380e-01
-5.550480e-02
1.624760e-02
-1.820860e-01
-7.501500e-02
6.612540e-02
-4.766990e-02
4.216380e-01
2.777370e-01
1.624760e-02
4.709940e-02
-7.501500e-02
1.997360e-02
5.564120e-01
4.216380e-01
-3.410530e-02
-1.086730e-01
-1.820860e-01
-7.501500e-02
3.092470e-02
1.447600e-01
4.216380e-01
2.777370e-01
-1.086730e-01
-2.757510e-01
-7.501500e-02
1.997360e-02
1.447600e-01
2.831250e-01
-3.410530e-02
-1.086730e-01
-4.979310e-01
-5.255850e-01
3.092470e-02
1.447600e-01
5.654570e-02
2.039020e-01
-1.086730e-01
-2.757510e-01
-5.255850e-01
-5.575440e-01
1.447600e-01
2.831250e-01
2.039020e-01
3.307600e-01
0.000000e+00
0.000000e+00
-5.557210e-02
1.413540e-02
0.000000e+00
0.000000e+00
1.605210e-01
1.668660e-01
0.000000e+00
0.000000e+00
1.413540e-02
3.112950e-02
0.000000e+00
0.000000e+00
1.668660e-01
2.219560e-01
-5.557210e-02
1.413540e-02
-1.015370e-01
-9.829160e-02
1.605210e-01
1.668660e-01
1.183340e-01
2.278070e-01
1.413540e-02
3.112950e-02
-9.829160e-02
-1.140550e-01
1.668660e-01
2.219560e-01
2.278070e-01
3.863940e-01