<?xml version="1.0"?>
<VTKFile type="UnstructuredGrid" version="0.1" byte_order="LittleEndian" compressor="vtkZLibDataCompressor">
<UnstructuredGrid>
<Piece NumberOfPoints="960" NumberOfCells="120">
<Points>
<DataArray type="Float32" NumberOfComponents="3" format="ascii">
-4.000000e+02 -6.000000e+03 -4.000000e+02
0.000000e+00 -6.000000e+03 -4.000000e+02
-4.000000e+02 -5.600010e+03 -4.000000e+02
8.455450e-10 -5.600010e+03 -4.000000e+02
-4.000000e+02 -6.000000e+03 0.000000e+00
0.000000e+00 -6.000000e+03 0.000000e+00
-4.000000e+02 -5.600010e+03 6.252520e-10
-6.699100e-11 -5.600010e+03 2.125940e-10
0.000000e+00 -6.000000e+03 -4.000000e+02
4.000000e+02 -6.000000e+03 -4.000000e+02
8.455450e-10 -5.600010e+03 -4.000000e+02
4.000000e+02 -5.600010e+03 -4.000000e+02
0.000000e+00 -6.000000e+03 0.000000e+00
4.000000e+02 -6.000000e+03 0.000000e+00
-6.699100e-11 -5.600010e+03 2.125940e-10
4.000000e+02 -5.600010e+03 -4.242450e-10
-4.000000e+02 -5.600010e+03 -4.000000e+02
8.455450e-10 -5.600010e+03 -4.000000e+02
-4.000000e+02 -5.200030e+03 -4.000000e+02
1.381580e-09 -5.200030e+03 -4.000000e+02
-4.000000e+02 -5.600010e+03 6.252520e-10
-6.699100e-11 -5.600010e+03 2.125940e-10
-4.000000e+02 -5.200030e+03 6.214860e-10
7.836270e-10 -5.200030e+03 7.286250e-10
8.455450e-10 -5.600010e+03 -4.000000e+02
4.000000e+02 -5.600010e+03 -4.000000e+02
1.381580e-09 -5.200030e+03 -4.000000e+02
4.000000e+02 -5.200030e+03 -4.000000e+02
-6.699100e-11 -5.600010e+03 2.125940e-10
4.000000e+02 -5.600010e+03 -4.242450e-10
7.836270e-10 -5.200030e+03 7.286250e-10
4.000000e+02 -5.200030e+03 6.443580e-10
-4.000000e+02 -5.200030e+03 -4.000000e+02
1.381580e-09 -5.200030e+03 -4.000000e+02
-4.000000e+02 -4.800050e+03 -4.000000e+02
-8.442250e-10 -4.800050e+03 -4.000000e+02
-4.000000e+02 -5.200030e+03 6.214860e-10
7.836270e-10 -5.200030e+03 7.286250e-10
-4.000000e+02 -4.800050e+03 6.126480e-11
-6.487090e-10 -4.800050e+03 7.786490e-10
1.381580e-09 -5.200030e+03 -4.000000e+02
4.000000e+02 -5.200030e+03 -4.000000e+02
-8.442250e-10 -4.800050e+03 -4.000000e+02
4.000000e+02 -4.800050e+03 -4.000000e+02
7.836270e-10 -5.200030e+03 7.286250e-10
4.000000e+02 -5.200030e+03 6.443580e-10
-6.487090e-10 -4.800050e+03 7.786490e-10
4.000000e+02 -4.800050e+03 2.050580e-09
-4.000000e+02 -4.800050e+03 -4.000000e+02
-8.442250e-10 -4.800050e+03 -4.000000e+02
-4.000000e+02 -4.400100e+03 -4.000000e+02
4.306050e-10 -4.400100e+03 -4.000000e+02
-4.000000e+02 -4.800050e+03 6.126480e-11
-6.487090e-10 -4.800050e+03 7.786490e-10
-4.000000e+02 -4.400100e+03 4.027960e-10
-5.899050e-10 -4.400100e+03 5.827090e-10
-8.442250e-10 -4.800050e+03 -4.000000e+02
4.000000e+02 -4.800050e+03 -4.000000e+02
4.306050e-10 -4.400100e+03 -4.000000e+02
4.000000e+02 -4.400100e+03 -4.000000e+02
-6.487090e-10 -4.800050e+03 7.786490e-10
4.000000e+02 -4.800050e+03 2.050580e-09
-5.899050e-10 -4.400100e+03 5.827090e-10
4.000000e+02 -4.400100e+03 3.388590e-10
-4.000000e+02 -4.400100e+03 -4.000000e+02
4.306050e-10 -4.400100e+03 -4.000000e+02
-4.000000e+02 -4.000160e+03 -4.000000e+02
5.951630e-10 -4.000160e+03 -4.000000e+02
-4.000000e+02 -4.400100e+03 4.027960e-10
-5.899050e-10 -4.400100e+03 5.827090e-10
-4.000000e+02 -4.000160e+03 9.887790e-10
8.816410e-10 -4.000160e+03 1.224660e-09
4.306050e-10 -4.400100e+03 -4.000000e+02
4.000000e+02 -4.400100e+03 -4.000000e+02
5.951630e-10 -4.000160e+03 -4.000000e+02
4.000000e+02 -4.000160e+03 -4.000000e+02
-5.899050e-10 -4.400100e+03 5.827090e-10
4.000000e+02 -4.400100e+03 3.388590e-10
8.816410e-10 -4.000160e+03 1.224660e-09
4.000000e+02 -4.000160e+03 7.607460e-10
-4.000000e+02 -4.000160e+03 -4.000000e+02
5.951630e-10 -4.000160e+03 -4.000000e+02
-4.000000e+02 -3.600230e+03 -4.000000e+02
-3.457560e-10 -3.600230e+03 -4.000000e+02
-4.000000e+02 -4.000160e+03 9.887790e-10
8.816410e-10 -4.000160e+03 1.224660e-09
-4.000000e+02 -3.600230e+03 8.843140e-10
4.747650e-10 -3.600230e+03 9.511270e-10
5.951630e-10 -4.000160e+03 -4.000000e+02
4.000000e+02 -4.000160e+03 -4.000000e+02
-3.457560e-10 -3.600230e+03 -4.000000e+02
4.000000e+02 -3.600230e+03 -4.000000e+02
8.816410e-10 -4.000160e+03 1.224660e-09
4.000000e+02 -4.000160e+03 7.607460e-10
4.747650e-10 -3.600230e+03 9.511270e-10
4.000000e+02 -3.600230e+03 8.126460e-10
-4.000000e+02 -3.600230e+03 -4.000000e+02
-3.457560e-10 -3.600230e+03 -4.000000e+02
-4.000000e+02 -3.200300e+03 -4.000000e+02
-8.273230e-10 -3.200300e+03 -4.000000e+02
-4.000000e+02 -3.600230e+03 8.843140e-10
4.747650e-10 -3.600230e+03 9.511270e-10
-4.000000e+02 -3.200300e+03 2.098280e-10
-1.605700e-10 -3.200300e+03 -3.573220e-10
-3.457560e-10 -3.600230e+03 -4.000000e+02
4.000000e+02 -3.600230e+03 -4.000000e+02
-8.273230e-10 -3.200300e+03 -4.000000e+02
4.000000e+02 -3.200300e+03 -4.000000e+02
4.747650e-10 -3.600230e+03 9.511270e-10
4.000000e+02 -3.600230e+03 8.126460e-10
-1.605700e-10 -3.200300e+03 -3.573220e-10
4.000000e+02 -3.200300e+03 -1.648120e-09
-4.000000e+02 -3.200300e+03 -4.000000e+02
-8.273230e-10 -3.200300e+03 -4.000000e+02
-4.000000e+02 -2.800340e+03 -4.000000e+02
-4.716140e-10 -2.800340e+03 -4.000000e+02
-4.000000e+02 -3.200300e+03 2.098280e-10
-1.605700e-10 -3.200300e+03 -3.573220e-10
-4.000000e+02 -2.800340e+03 -5.343580e-10
-4.020890e-10 -2.800340e+03 -1.055610e-09
-8.273230e-10 -3.200300e+03 -4.000000e+02
4.000000e+02 -3.200300e+03 -4.000000e+02
-4.716140e-10 -2.800340e+03 -4.000000e+02
4.000000e+02 -2.800340e+03 -4.000000e+02
-1.605700e-10 -3.200300e+03 -3.573220e-10
4.000000e+02 -3.200300e+03 -1.648120e-09
-4.020890e-10 -2.800340e+03 -1.055610e-09
4.000000e+02 -2.800340e+03 -1.229200e-09
-4.000000e+02 -2.800340e+03 -4.000000e+02
-4.716140e-10 -2.800340e+03 -4.000000e+02
-4.000000e+02 -2.400330e+03 -4.000000e+02
2.000290e-10 -2.400330e+03 -4.000000e+02
-4.000000e+02 -2.800340e+03 -5.343580e-10
-4.020890e-10 -2.800340e+03 -1.055610e-09
-4.000000e+02 -2.400330e+03 -3.498630e-10
1.404230e-09 -2.400330e+03 -8.402110e-10
-4.716140e-10 -2.800340e+03 -4.000000e+02
4.000000e+02 -2.800340e+03 -4.000000e+02
2.000290e-10 -2.400330e+03 -4.000000e+02
4.000000e+02 -2.400330e+03 -4.000000e+02
-4.020890e-10 -2.800340e+03 -1.055610e-09
4.000000e+02 -2.800340e+03 -1.229200e-09
1.404230e-09 -2.400330e+03 -8.402110e-10
4.000000e+02 -2.400330e+03 -4.543010e-10
-4.000000e+02 -2.400330e+03 -4.000000e+02
2.000290e-10 -2.400330e+03 -4.000000e+02
-4.000000e+02 -2.000290e+03 -4.000000e+02
1.700060e-09 -2.000290e+03 -4.000000e+02
-4.000000e+02 -2.400330e+03 -3.498630e-10
1.404230e-09 -2.400330e+03 -8.402110e-10
-4.000000e+02 -2.000290e+03 -1.605500e-09
2.222890e-09 -2.000290e+03 -5.921990e-10
2.000290e-10 -2.400330e+03 -4.000000e+02
4.000000e+02 -2.400330e+03 -4.000000e+02
1.700060e-09 -2.000290e+03 -4.000000e+02
4.000000e+02 -2.000290e+03 -4.000000e+02
1.404230e-09 -2.400330e+03 -8.402110e-10
4.000000e+02 -2.400330e+03 -4.543010e-10
2.222890e-09 -2.000290e+03 -5.921990e-10
4.000000e+02 -2.000290e+03 -1.536100e-09
-4.000000e+02 -2.000290e+03 -4.000000e+02
1.700060e-09 -2.000290e+03 -4.000000e+02
-4.000000e+02 -1.600280e+03 -4.000000e+02
1.105620e-09 -1.600280e+03 -4.000000e+02
-4.000000e+02 -2.000290e+03 -1.605500e-09
2.222890e-09 -2.000290e+03 -5.921990e-10
-4.000000e+02 -1.600280e+03 -8.001580e-10
1.032130e-09 -1.600280e+03 -1.091870e-09
1.700060e-09 -2.000290e+03 -4.000000e+02
4.000000e+02 -2.000290e+03 -4.000000e+02
1.105620e-09 -1.600280e+03 -4.000000e+02
4.000000e+02 -1.600280e+03 -4.000000e+02
2.222890e-09 -2.000290e+03 -5.921990e-10
4.000000e+02 -2.000290e+03 -1.536100e-09
1.032130e-09 -1.600280e+03 -1.091870e-09
4.000000e+02 -1.600280e+03 -9.201520e-10
-4.000000e+02 -1.600280e+03 -4.000000e+02
1.105620e-09 -1.600280e+03 -4.000000e+02
-4.000000e+02 -1.200290e+03 -4.000000e+02
5.342780e-10 -1.200290e+03 -4.000000e+02
-4.000000e+02 -1.600280e+03 -8.001580e-10
1.032130e-09 -1.600280e+03 -1.091870e-09
-4.000000e+02 -1.200290e+03 1.048110e-09
1.293810e-09 -1.200290e+03 4.031960e-10
1.105620e-09 -1.600280e+03 -4.000000e+02
4.000000e+02 -1.600280e+03 -4.000000e+02
5.342780e-10 -1.200290e+03 -4.000000e+02
4.000000e+02 -1.200290e+03 -4.000000e+02
1.032130e-09 -1.600280e+03 -1.091870e-09
4.000000e+02 -1.600280e+03 -9.201520e-10
1.293810e-09 -1.200290e+03 4.031960e-10
4.000000e+02 -1.200290e+03 2.427120e-10
-4.000000e+02 -1.200290e+03 -4.000000e+02
5.342780e-10 -1.200290e+03 -4.000000e+02
-4.000000e+02 -8.003100e+02 -4.000000e+02
3.852070e-10 -8.003100e+02 -4.000000e+02
-4.000000e+02 -1.200290e+03 1.048110e-09
1.293810e-09 -1.200290e+03 4.031960e-10
-4.000000e+02 -8.003100e+02 6.325430e-10
7.064060e-10 -8.003100e+02 -8.377740e-11
5.342780e-10 -1.200290e+03 -4.000000e+02
4.000000e+02 -1.200290e+03 -4.000000e+02
3.852070e-10 -8.003100e+02 -4.000000e+02
4.000000e+02 -8.003100e+02 -4.000000e+02
1.293810e-09 -1.200290e+03 4.031960e-10
4.000000e+02 -1.200290e+03 2.427120e-10
7.064060e-10 -8.003100e+02 -8.377740e-11
4.000000e+02 -8.003100e+02 -8.001350e-10
-4.000000e+02 -8.003100e+02 -4.000000e+02
3.852070e-10 -8.003100e+02 -4.000000e+02
-4.000000e+02 -4.003000e+02 -4.000000e+02
1.165160e-09 -4.003000e+02 -4.000000e+02
-4.000000e+02 -8.003100e+02 6.325430e-10
7.064060e-10 -8.003100e+02 -8.377740e-11
-4.000000e+02 -4.003000e+02 4.310400e-10
6.733040e-10 -4.003000e+02 -9.893060e-10
3.852070e-10 -8.003100e+02 -4.000000e+02
4.000000e+02 -8.003100e+02 -4.000000e+02
1.165160e-09 -4.003000e+02 -4.000000e+02
4.000000e+02 -4.003000e+02 -4.000000e+02
7.064060e-10 -8.003100e+02 -8.377740e-11
4.000000e+02 -8.003100e+02 -8.001350e-10
6.733040e-10 -4.003000e+02 -9.893060e-10
4.000000e+02 -4.003000e+02 -1.817440e-09
-4.000000e+02 -4.003000e+02 -4.000000e+02
1.165160e-09 -4.003000e+02 -4.000000e+02
-4.000000e+02 -2.911220e-01 -4.000000e+02
5.254600e-10 -2.911220e-01 -4.000000e+02
-4.000000e+02 -4.003000e+02 4.310400e-10
6.733040e-10 -4.003000e+02 -9.893060e-10
-4.000000e+02 -2.911220e-01 8.300110e-10
8.185620e-10 -2.911220e-01 -2.030940e-10
1.165160e-09 -4.003000e+02 -4.000000e+02
4.000000e+02 -4.003000e+02 -4.000000e+02
5.254600e-10 -2.911220e-01 -4.000000e+02
4.000000e+02 -2.911220e-01 -4.000000e+02
[...]
<PointData>
<DataArray type="Float32" Name="V1" format="ascii">
0.000000e+00
0.000000e+00
-1.492570e-09
-1.021690e-09
0.000000e+00
0.000000e+00
3.456480e-10
-9.358470e-10
0.000000e+00
0.000000e+00
-1.021690e-09
7.855630e-11
0.000000e+00
0.000000e+00
-9.358470e-10
-1.571130e-10
-1.492570e-09
-1.021690e-09
8.169850e-10
1.065570e-09
3.456480e-10
-9.358470e-10
-7.855630e-11
-2.367310e-11
-1.021690e-09
7.855630e-11
1.065570e-09
2.309550e-09
-9.358470e-10
-1.571130e-10
-2.367310e-11
-9.112530e-10
8.169850e-10
1.065570e-09
-2.309550e-09
-1.539080e-09
-7.855630e-11
-2.367310e-11
2.733760e-09
2.793770e-09
1.065570e-09
2.309550e-09
-1.539080e-09
-1.021230e-09
-2.367310e-11
-9.112530e-10
2.793770e-09
1.445440e-09
-2.309550e-09
-1.539080e-09
-1.209770e-09
-9.227780e-10
2.733760e-09
2.793770e-09
1.099790e-09
5.187410e-10
-1.539080e-09
-1.021230e-09
-9.227780e-10
1.351170e-09
2.793770e-09
1.445440e-09
5.187410e-10
-9.269640e-10
-1.209770e-09
-9.227780e-10
9.426750e-10
5.612110e-10
1.099790e-09
5.187410e-10
8.012740e-10
6.187010e-10
-9.227780e-10
1.351170e-09
5.612110e-10
-1.649680e-09
5.187410e-10
-9.269640e-10
6.187010e-10
-1.571130e-10
9.426750e-10
5.612110e-10
2.073890e-09
1.434060e-10
8.012740e-10
6.187010e-10
8.012740e-10
1.093200e-09
5.612110e-10
-1.649680e-09
1.434060e-10
-7.227180e-10
6.187010e-10
-1.571130e-10
1.093200e-09
8.169850e-10
2.073890e-09
1.434060e-10
3.142250e-11
-4.571870e-10
8.012740e-10
1.093200e-09
0.000000e+00
-2.561710e-10
1.434060e-10
-7.227180e-10
-4.571870e-10
-1.885350e-10
1.093200e-09
8.169850e-10
-2.561710e-10
-3.613590e-10
3.142250e-11
-4.571870e-10
6.127390e-10
2.079110e-09
0.000000e+00
-2.561710e-10
-7.541400e-10
-3.826170e-10
-4.571870e-10
-1.885350e-10
2.079110e-09
-7.855630e-11
-2.561710e-10
-3.613590e-10
-3.826170e-10
1.351170e-09
6.127390e-10
2.079110e-09
1.571130e-10
4.820540e-11
-7.541400e-10
-3.826170e-10
-1.335460e-09
-4.879820e-10
2.079110e-09
-7.855630e-11
4.820540e-11
-7.384290e-10
-3.826170e-10
1.351170e-09
-4.879820e-10
-1.288320e-09
1.571130e-10
4.820540e-11
-2.309550e-09
-1.048050e-09
-1.335460e-09
-4.879820e-10
-4.242040e-10
4.164940e-10
4.820540e-11
-7.384290e-10
-1.048050e-09
0.000000e+00
-4.879820e-10
-1.288320e-09
4.164940e-10
6.127390e-10
-2.309550e-09
-1.048050e-09
-5.184710e-10
-6.399300e-10
-4.242040e-10
4.164940e-10
-4.399150e-10
-4.803860e-10
-1.048050e-09
0.000000e+00
-6.399300e-10
1.366880e-09
4.164940e-10
6.127390e-10
-4.803860e-10
7.698510e-10
-5.184710e-10
-6.399300e-10
-1.021230e-09
-3.449880e-10
-4.399150e-10
-4.803860e-10
7.541400e-10
2.098780e-10
-6.399300e-10
1.366880e-09
-3.449880e-10
-4.713380e-11
-4.803860e-10
7.698510e-10
2.098780e-10
0.000000e+00
-1.021230e-09
-3.449880e-10
-1.351170e-09
-1.059020e-09
7.541400e-10
2.098780e-10
-1.225480e-09
-5.181170e-10
-3.449880e-10
-4.713380e-11
-1.059020e-09
-3.142250e-10
2.098780e-10
0.000000e+00
-5.181170e-10
0.000000e+00
-1.351170e-09
-1.059020e-09
1.304030e-09
1.597500e-10
-1.225480e-09
-5.181170e-10
3.613590e-10
4.401960e-10
-1.059020e-09
-3.142250e-10
1.597500e-10
-9.426750e-11
-5.181170e-10
0.000000e+00
4.401960e-10
-1.414010e-09
1.304030e-09
1.597500e-10
6.284500e-10
-1.017110e-09
3.613590e-10
4.401960e-10
3.456480e-10
-1.307070e-09
1.597500e-10
-9.426750e-11
-1.017110e-09
-3.126540e-09
4.401960e-10
-1.414010e-09
-1.307070e-09
1.728240e-10
6.284500e-10
-1.017110e-09
-2.356690e-10
3.139570e-09
3.456480e-10
-1.307070e-09
2.121020e-09
2.521480e-09
-1.017110e-09
-3.126540e-09
3.139570e-09
4.242040e-09
-1.307070e-09
1.728240e-10
2.521480e-09
1.979620e-09
-2.356690e-10
3.139570e-09
4.619110e-09
1.374670e-09
2.121020e-09
2.521480e-09
1.366880e-09
1.334810e-09
3.139570e-09
4.242040e-09
1.374670e-09
-9.112530e-10
2.521480e-09
1.979620e-09
1.334810e-09
7.855630e-10
4.619110e-09
1.374670e-09
-6.724420e-09
-2.954140e-09
1.366880e-09
1.334810e-09
-3.377920e-09
-1.907540e-09
1.374670e-09
-9.112530e-10
-2.954140e-09
-1.571130e-10
1.334810e-09
7.855630e-10
-1.907540e-09
-1.319750e-09
-6.724420e-09
-2.954140e-09
7.729940e-09
5.505560e-09
-3.377920e-09
-1.907540e-09
-7.227180e-09
-5.576820e-09
-2.954140e-09
-1.571130e-10
5.505560e-09
2.545220e-09
-1.907540e-09
-1.319750e-09
-5.576820e-09
-4.933330e-09
7.729940e-09
5.505560e-09
-1.069940e-08
-1.792570e-09
-7.227180e-09
-5.576820e-09
6.614440e-09
2.680940e-09
5.505560e-09
2.545220e-09
-1.792570e-09
7.368580e-09
-5.576820e-09
-4.933330e-09
2.680940e-09
-1.131210e-09
-1.069940e-08
-1.792570e-09
-1.885350e-10
-3.590280e-09
6.614440e-09
2.680940e-09
-3.927810e-10
3.655270e-09
-1.792570e-09
7.368580e-09
-3.590280e-09
-6.991510e-09
2.680940e-09
-1.131210e-09
3.655270e-09
7.651380e-09
-1.885350e-10
-3.590280e-09
1.605690e-08
8.099160e-09
-3.927810e-10
3.655270e-09
1.806790e-09
1.055490e-09
-3.590280e-09
-6.991510e-09
8.099160e-09
1.414010e-10
3.655270e-09
7.651380e-09
1.055490e-09
3.613590e-10
1.605690e-08
8.099160e-09
-2.073890e-08
-1.006880e-08
1.806790e-09
1.055490e-09
-2.042460e-10
-2.330630e-09
8.099160e-09
1.414010e-10
-1.006880e-08
5.970280e-10
1.055490e-09
3.613590e-10
-2.330630e-09
-4.509130e-09
-2.073890e-08
-1.006880e-08
-2.356690e-10
-3.810530e-09
-2.042460e-10
-2.330630e-09
-3.692140e-09
-3.150860e-09
-1.006880e-08
5.970280e-10
-3.810530e-09
-7.400000e-09
-2.330630e-09
-4.509130e-09
-3.150860e-09
-2.718050e-09
-2.356690e-10
-3.810530e-09
1.434440e-08
8.604790e-09
-3.692140e-09
-3.150860e-09
8.955420e-10
-1.473790e-09
-3.810530e-09
-7.400000e-09
8.604790e-09
2.828030e-09
-3.150860e-09
-2.718050e-09
-1.473790e-09
-3.880680e-09
1.434440e-08
8.604790e-09
-6.127390e-09
-1.572350e-09
8.955420e-10
-1.473790e-09
4.242040e-10
3.221350e-09
8.604790e-09
2.828030e-09
-1.572350e-09
2.969430e-09
-1.473790e-09
-3.880680e-09
3.221350e-09
6.143100e-09
-6.127390e-09
-1.572350e-09
5.153290e-09
3.759800e-09
4.242040e-10
3.221350e-09
4.006370e-09
2.386480e-09
-1.572350e-09
2.969430e-09
3.759800e-09
2.419530e-09
3.221350e-09
6.143100e-09
2.386480e-09
7.384290e-10
5.153290e-09
3.759800e-09
-4.713380e-11
-1.431970e-10
4.006370e-09
2.386480e-09
-1.885350e-10
-1.770540e-10
3.759800e-09
2.419530e-09
-1.431970e-10
-2.670910e-10
2.386480e-09
7.384290e-10
-1.770540e-10
-1.728240e-10
-4.713380e-11
-1.431970e-10
-1.853930e-09
-1.337620e-09
-1.885350e-10
-1.770540e-10
-1.304030e-09
-4.951780e-10
-1.431970e-10
-2.670910e-10
-1.337620e-09
-8.169850e-10
-1.770540e-10
-1.728240e-10
-4.951780e-10
2.985140e-10
-1.853930e-09
-1.337620e-09
-1.838220e-09
-1.640900e-09
-1.304030e-09
-4.951780e-10
-1.256900e-09
-1.039030e-09
-1.337620e-09
-8.169850e-10
-1.640900e-09
-1.461150e-09
-4.951780e-10
2.985140e-10
-1.039030e-09
-8.169850e-10
0.000000e+00
0.000000e+00
3.456480e-10
-9.358470e-10
0.000000e+00
0.000000e+00
-1.586840e-09
-2.151390e-10
0.000000e+00
0.000000e+00
-9.358470e-10
-1.571130e-10
0.000000e+00
0.000000e+00
-2.151390e-10
1.618260e-09
3.456480e-10
-9.358470e-10
-7.855630e-11
-2.367310e-11
-1.586840e-09
-2.151390e-10
-2.890870e-09
-9.231030e-10
-9.358470e-10
-1.571130e-10
-2.367310e-11
-9.112530e-10
-2.151390e-10
1.618260e-09
-9.231030e-10
1.932480e-09
-7.855630e-11
-2.367310e-11
2.733760e-09
2.793770e-09
-2.890870e-09
-9.231030e-10
1.036940e-09
-7.501340e-10
-2.367310e-11
-9.112530e-10
2.793770e-09
1.445440e-09
-9.231030e-10
1.932480e-09
-7.501340e-10
-3.079410e-09
2.733760e-09
2.793770e-09
1.099790e-09
5.187410e-10
1.036940e-09
-7.501340e-10
0.000000e+00
-1.044130e-09
2.793770e-09
1.445440e-09
5.187410e-10
-9.269640e-10
-7.501340e-10
-3.079410e-09
-1.044130e-09
1.523990e-09
1.099790e-09
5.187410e-10
8.012740e-10
6.187010e-10
0.000000e+00
-1.044130e-09
-9.898090e-10
1.841780e-10
5.187410e-10
-9.269640e-10
6.187010e-10
-1.571130e-10
-1.044130e-09
1.523990e-09
1.841780e-10
1.571130e-11
8.012740e-10
6.187010e-10
8.012740e-10
1.093200e-09
-9.898090e-10
1.841780e-10
3.032270e-09
9.540440e-10
6.187010e-10
-1.571130e-10
1.093200e-09
8.169850e-10
1.841780e-10
1.571130e-11
9.540440e-10
-2.089600e-09
8.012740e-10
1.093200e-09
0.000000e+00
-2.561710e-10
3.032270e-09
9.540440e-10
4.084930e-10
7.395680e-11
1.093200e-09
8.169850e-10
-2.561710e-10
-3.613590e-10
9.540440e-10
-2.089600e-09
7.395680e-11
-5.656050e-10
0.000000e+00
-2.561710e-10
-7.541400e-10
-3.826170e-10
4.084930e-10
7.395680e-11
6.598730e-10
-6.113290e-11
-2.561710e-10
-3.613590e-10
-3.826170e-10
1.351170e-09
7.395680e-11
-5.656050e-10
-6.113290e-11
-1.209770e-09
-7.541400e-10
-3.826170e-10
-1.335460e-09
-4.879820e-10
6.598730e-10
-6.113290e-11
8.012740e-10
1.898910e-09
-3.826170e-10
1.351170e-09
-4.879820e-10
-1.288320e-09
-6.113290e-11
-1.209770e-09
1.898910e-09
-6.441610e-10
-1.335460e-09
-4.879820e-10
-4.242040e-10
4.164940e-10
8.012740e-10
1.898910e-09
-1.476860e-09
3.506930e-10
-4.879820e-10
-1.288320e-09
4.164940e-10
6.127390e-10
1.898910e-09
-6.441610e-10
3.506930e-10
2.089600e-09
-4.242040e-10
4.164940e-10
-4.399150e-10
-4.803860e-10
-1.476860e-09
3.506930e-10
4.556260e-10
5.759080e-10
4.164940e-10
6.127390e-10
-4.803860e-10
7.698510e-10
3.506930e-10
2.089600e-09
5.759080e-10
-1.241190e-09
-4.399150e-10
-4.803860e-10
7.541400e-10
2.098780e-10
4.556260e-10
5.759080e-10
0.000000e+00
-3.129430e-10
-4.803860e-10
7.698510e-10
2.098780e-10
0.000000e+00
5.759080e-10
-1.241190e-09
-3.129430e-10
-1.256900e-10
7.541400e-10
2.098780e-10
-1.225480e-09
-5.181170e-10
0.000000e+00
-3.129430e-10
6.755840e-10
3.932660e-10
2.098780e-10
0.000000e+00
-5.181170e-10
0.000000e+00
-3.129430e-10
-1.256900e-10
3.932660e-10
-1.414010e-10
-1.225480e-09
-5.181170e-10
3.613590e-10
4.401960e-10
6.755840e-10
3.932660e-10
-7.698510e-10
-3.879250e-10
-5.181170e-10
0.000000e+00
4.401960e-10
-1.414010e-09
3.932660e-10
-1.414010e-10
-3.879250e-10
3.142250e-10
3.613590e-10
4.401960e-10
3.456480e-10
-1.307070e-09
-7.698510e-10
-3.879250e-10
1.162630e-09
1.143040e-09
4.401960e-10
-1.414010e-09
-1.307070e-09
1.728240e-10
-3.879250e-10
3.142250e-10
1.143040e-09
-8.955420e-10
3.456480e-10
-1.307070e-09
2.121020e-09
2.521480e-09
1.162630e-09
1.143040e-09
-7.227180e-10
6.699940e-10
-1.307070e-09
1.728240e-10
2.521480e-09
1.979620e-09
1.143040e-09
-8.955420e-10
6.699940e-10
-1.256900e-09
2.121020e-09
2.521480e-09
1.366880e-09
1.334810e-09
-7.227180e-10
6.699940e-10
-1.209770e-09
5.656970e-09
2.521480e-09
1.979620e-09
1.334810e-09
7.855630e-10
6.699940e-10
-1.256900e-09
5.656970e-09
1.013380e-08
1.366880e-09
1.334810e-09
-3.377920e-09
-1.907540e-09
-1.209770e-09
5.656970e-09
6.174520e-09
-1.172300e-08
1.334810e-09
7.855630e-10
-1.907540e-09
-1.319750e-09
5.656970e-09
1.013380e-08
-1.172300e-08
-2.886160e-08
-3.377920e-09
-1.907540e-09
-7.227180e-09
-5.576820e-09
6.174520e-09
-1.172300e-08
-1.205050e-08
7.540700e-09
-1.907540e-09
-1.319750e-09
-5.576820e-09
-4.933330e-09
-1.172300e-08
-2.886160e-08
7.540700e-09
2.703910e-08
-7.227180e-09
-5.576820e-09
6.614440e-09
2.680940e-09
-1.205050e-08
7.540700e-09
4.446290e-09
-8.846280e-09
-5.576820e-09
-4.933330e-09
2.680940e-09
-1.131210e-09
7.540700e-09
2.703910e-08
-8.846280e-09
-2.193290e-08
6.614440e-09
2.680940e-09
-3.927810e-10
3.655270e-09
4.446290e-09
-8.846280e-09
1.571130e-11
1.293390e-08
2.680940e-09
-1.131210e-09
3.655270e-09
7.651380e-09
-8.846280e-09
-2.193290e-08
1.293390e-08
2.557790e-08
-3.927810e-10
3.655270e-09
1.806790e-09
1.055490e-09
1.571130e-11
1.293390e-08
4.257750e-09
1.757400e-09
3.655270e-09
7.651380e-09
1.055490e-09
3.613590e-10
1.293390e-08
2.557790e-08
1.757400e-09
-6.284500e-10
1.806790e-09
1.055490e-09
-2.042460e-10
-2.330630e-09
4.257750e-09
1.757400e-09
-4.116350e-09
1.323380e-10
1.055490e-09
3.613590e-10
-2.330630e-09
-4.509130e-09
1.757400e-09
-6.284500e-10
1.323380e-10
4.336310e-09
-2.042460e-10
-2.330630e-09
-3.692140e-09
-3.150860e-09
-4.116350e-09
1.323380e-10
-3.645010e-09
-2.611790e-09
-2.330630e-09
-4.509130e-09
-3.150860e-09
-2.718050e-09
1.323380e-10
4.336310e-09
-2.611790e-09
-1.743950e-09
-3.692140e-09
-3.150860e-09
8.955420e-10
-1.473790e-09
-3.645010e-09
-2.611790e-09
4.069220e-09
-1.403280e-08
-3.150860e-09
-2.718050e-09
-1.473790e-09
-3.880680e-09
-2.611790e-09
-1.743950e-09
-1.403280e-08
-3.216090e-08
8.955420e-10
-1.473790e-09
4.242040e-10
3.221350e-09
4.069220e-09
-1.403280e-08
3.927810e-10
9.223310e-09
-1.473790e-09
-3.880680e-09
3.221350e-09
6.143100e-09
-1.403280e-08
-3.216090e-08
9.223310e-09
1.811510e-08
4.242040e-10
3.221350e-09
4.006370e-09
2.386480e-09
3.927810e-10
9.223310e-09
2.199580e-09
1.642490e-09
3.221350e-09
6.143100e-09
2.386480e-09
7.384290e-10
9.223310e-09
1.811510e-08
1.642490e-09
1.099790e-09
4.006370e-09
2.386480e-09
-1.885350e-10
-1.770540e-10
2.199580e-09
1.642490e-09
-2.513800e-10
-3.224440e-11
2.386480e-09
7.384290e-10
-1.770540e-10
-1.728240e-10
1.642490e-09
1.099790e-09
-3.224440e-11
1.728240e-10
-1.885350e-10
-1.770540e-10
-1.304030e-09
-4.951780e-10
-2.513800e-10
-3.224440e-11
-4.713380e-10
3.465050e-10
-1.770540e-10
-1.728240e-10
-4.951780e-10
2.985140e-10
-3.224440e-11
1.728240e-10
3.465050e-10
1.131210e-09
-1.304030e-09
-4.951780e-10
-1.256900e-09
-1.039030e-09
-4.713380e-10
3.465050e-10
-9.112530e-10
-3.765360e-10
-4.951780e-10
2.985140e-10
-1.039030e-09
-8.169850e-10
3.465050e-10
1.131210e-09
-3.765360e-10
1.571130e-10
</DataArray>
<DataArray type="Float32" Name="V2" format="ascii">
0.000000e+00
0.000000e+00
3.933090e-03
3.933100e-03
0.000000e+00
0.000000e+00
3.933090e-03
3.933090e-03
0.000000e+00
0.000000e+00
3.933100e-03
3.933090e-03
0.000000e+00
0.000000e+00
3.933090e-03
3.933090e-03
3.933090e-03
3.933100e-03
1.224670e-02
1.224670e-02
3.933090e-03
3.933090e-03
1.224670e-02
1.224670e-02
3.933100e-03
3.933090e-03
1.224670e-02
1.224670e-02
3.933090e-03
3.933090e-03
1.224670e-02
1.224670e-02
1.224670e-02
1.224670e-02
2.069120e-02
2.069120e-02
1.224670e-02
1.224670e-02
2.069120e-02
2.069120e-02
1.224670e-02
1.224670e-02
2.069120e-02
2.069120e-02
1.224670e-02
1.224670e-02
2.069120e-02
2.069120e-02
2.069120e-02
2.069120e-02
3.597110e-02
3.597110e-02
2.069120e-02
2.069120e-02
3.597110e-02
3.597110e-02
2.069120e-02
2.069120e-02
3.597110e-02
3.597110e-02
2.069120e-02
2.069120e-02
3.597110e-02
3.597110e-02
3.597110e-02
3.597110e-02
4.828190e-02
4.828190e-02
3.597110e-02
3.597110e-02
4.828190e-02
4.828190e-02
3.597110e-02
3.597110e-02
4.828190e-02
4.828190e-02
3.597110e-02
3.597110e-02
4.828190e-02
4.828190e-02
4.828190e-02
4.828190e-02
5.257720e-02
5.257720e-02
4.828190e-02
4.828190e-02
5.257720e-02
5.257720e-02
4.828190e-02
4.828190e-02
5.257720e-02
5.257720e-02
4.828190e-02
4.828190e-02
5.257720e-02
5.257720e-02
5.257720e-02
5.257720e-02
3.932340e-02
3.932340e-02
5.257720e-02
5.257720e-02
3.932340e-02
3.932340e-02
5.257720e-02
5.257720e-02
3.932340e-02
3.932340e-02
5.257720e-02
5.257720e-02
3.932340e-02
3.932340e-02
3.932340e-02
3.932340e-02
6.249420e-03
6.249420e-03
3.932340e-02
3.932340e-02
6.249420e-03
6.249410e-03
3.932340e-02
3.932340e-02
6.249420e-03
6.249420e-03
3.932340e-02
3.932340e-02
6.249410e-03
6.249410e-03
6.249420e-03
6.249420e-03
-2.002410e-02
-2.002410e-02
6.249420e-03
6.249410e-03
-2.002410e-02
-2.002410e-02
6.249420e-03
6.249420e-03
-2.002410e-02
-2.002410e-02
6.249410e-03
6.249410e-03
-2.002410e-02
-2.002410e-02
-2.002410e-02
-2.002410e-02
-2.244680e-02
-2.244680e-02
-2.002410e-02
-2.002410e-02
-2.244680e-02
-2.244680e-02
-2.002410e-02
-2.002410e-02
-2.244680e-02
-2.244680e-02
-2.002410e-02
-2.002410e-02
-2.244680e-02
-2.244680e-02
-2.244680e-02
-2.244680e-02
-2.667700e-04
-2.667740e-04
-2.244680e-02
-2.244680e-02
-2.667730e-04
-2.667690e-04
-2.244680e-02
-2.244680e-02
-2.667740e-04
-2.667710e-04
-2.244680e-02
-2.244680e-02
-2.667690e-04
-2.667730e-04
-2.667700e-04
-2.667740e-04
1.898990e-02
1.898990e-02
-2.667730e-04
-2.667690e-04
1.898990e-02
1.898990e-02
-2.667740e-04
-2.667710e-04
1.898990e-02
1.898990e-02
-2.667690e-04
-2.667730e-04
1.898990e-02
1.898990e-02
1.898990e-02
1.898990e-02
2.048960e-03
2.048950e-03
1.898990e-02
1.898990e-02
2.048950e-03
2.048950e-03
1.898990e-02
1.898990e-02
2.048950e-03
2.048950e-03
1.898990e-02
1.898990e-02
2.048950e-03
2.048940e-03
2.048960e-03
2.048950e-03
-1.300310e-02
-1.300310e-02
2.048950e-03
2.048950e-03
-1.300310e-02
-1.300310e-02
2.048950e-03
2.048950e-03
-1.300310e-02
-1.300310e-02
2.048950e-03
2.048940e-03
-1.300310e-02
-1.300310e-02
-1.300310e-02
-1.300310e-02
1.072140e-03
1.072150e-03
-1.300310e-02
-1.300310e-02
1.072150e-03
1.072160e-03
-1.300310e-02
-1.300310e-02
1.072150e-03
1.072160e-03
-1.300310e-02
-1.300310e-02
1.072160e-03
1.072160e-03
1.072140e-03
1.072150e-03
6.039050e-03
6.039040e-03
1.072150e-03
1.072160e-03
6.039040e-03
6.039030e-03
1.072150e-03
1.072160e-03
6.039040e-03
6.039040e-03
1.072160e-03
1.072160e-03
6.039030e-03
6.039030e-03
6.039050e-03
6.039040e-03
-3.147260e-03
-3.147260e-03
6.039040e-03
6.039030e-03
-3.147250e-03
-3.147270e-03
6.039040e-03
6.039040e-03
-3.147260e-03
-3.147270e-03
6.039030e-03
6.039030e-03
-3.147270e-03
-3.147270e-03
-3.147260e-03
-3.147260e-03
-2.194910e-03
-2.194930e-03
-3.147250e-03
-3.147270e-03
-2.194930e-03
-2.194900e-03
-3.147260e-03
-3.147270e-03
-2.194930e-03
-2.194910e-03
-3.147270e-03
-3.147270e-03
-2.194900e-03
-2.194910e-03
-2.194910e-03
-2.194930e-03
1.630620e-03
1.630660e-03
-2.194930e-03
-2.194900e-03
1.630670e-03
1.630630e-03
-2.194930e-03
-2.194910e-03
1.630660e-03
1.630650e-03
-2.194900e-03
-2.194910e-03
1.630630e-03
1.630620e-03
1.630620e-03
1.630660e-03
-7.065430e-04
-7.065870e-04
1.630670e-03
1.630630e-03
-7.065760e-04
-7.065310e-04
1.630660e-03
1.630650e-03
-7.065870e-04
-7.065510e-04
1.630630e-03
1.630620e-03
-7.065310e-04
-7.065410e-04
-7.065430e-04
-7.065870e-04
-1.053240e-03
-1.053350e-03
-7.065760e-04
-7.065310e-04
-1.053360e-03
-1.053300e-03
-7.065870e-04
-7.065510e-04
-1.053350e-03
-1.053290e-03
-7.065310e-04
-7.065410e-04
-1.053300e-03
-1.053330e-03
-1.053240e-03
-1.053350e-03
-5.250640e-05
-5.227550e-05
-1.053360e-03
-1.053300e-03
-5.226250e-05
-5.235070e-05
-1.053350e-03
-1.053290e-03
-5.227550e-05
-5.234050e-05
-1.053300e-03
-1.053330e-03
-5.235070e-05
-5.229410e-05
-5.250640e-05
-5.227550e-05
-5.848110e-05
-5.865680e-05
-5.226250e-05
-5.235070e-05
-5.866460e-05
-5.863390e-05
-5.227550e-05
-5.234050e-05
-5.865680e-05
-5.866670e-05
-5.235070e-05
-5.229410e-05
-5.863390e-05
-5.869550e-05
-5.848110e-05
-5.865680e-05
-1.838800e-05
-1.848810e-05
-5.866460e-05
-5.863390e-05
-1.848330e-05
-1.843870e-05
-5.865680e-05
-5.866670e-05
-1.848810e-05
-1.847980e-05
-5.863390e-05
-5.869550e-05
-1.843870e-05
-1.847820e-05
-1.838800e-05
-1.848810e-05
2.016570e-06
2.090480e-06
-1.848330e-05
-1.843870e-05
2.093620e-06
2.099900e-06
-1.848810e-05
-1.847980e-05
2.090480e-06
2.094250e-06
-1.843870e-05
-1.847820e-05
2.099900e-06
2.106820e-06
2.016570e-06
2.090480e-06
-4.216980e-05
-4.213140e-05
2.093620e-06
2.099900e-06
-4.214060e-05
-4.217790e-05
2.090480e-06
2.094250e-06
-4.213140e-05
-4.213120e-05
2.099900e-06
2.106820e-06
-4.217790e-05
-4.214420e-05
-4.216980e-05
-4.213140e-05
-8.411550e-05
-8.409140e-05
-4.214060e-05
-4.217790e-05
-8.408990e-05
-8.408610e-05
-4.213140e-05
-4.213120e-05
-8.409140e-05
-8.410300e-05
-4.217790e-05
-4.214420e-05
-8.408610e-05
-8.411660e-05
-8.411550e-05
-8.409140e-05
-2.919480e-05
-2.921560e-05
-8.408990e-05
-8.408610e-05
-2.921560e-05
-2.920910e-05
-8.409140e-05
-8.410300e-05
-2.921560e-05
-2.919350e-05
-8.408610e-05
-8.411660e-05
-2.920910e-05
-2.917420e-05
-2.919480e-05
-2.921560e-05
4.119720e-05
4.120220e-05
-2.921560e-05
-2.920910e-05
4.120270e-05
4.120170e-05
-2.921560e-05
-2.919350e-05
4.120220e-05
4.120140e-05
-2.920910e-05
-2.917420e-05
4.120170e-05
4.119840e-05
4.119720e-05
4.120220e-05
1.892750e-04
1.892770e-04
4.120270e-05
4.120170e-05
1.892760e-04
1.892770e-04
4.120220e-05
4.120140e-05
1.892770e-04
1.892760e-04
4.120170e-05
4.119840e-05
1.892770e-04
1.892740e-04
0.000000e+00
0.000000e+00
3.933090e-03
3.933090e-03
0.000000e+00
0.000000e+00
3.933090e-03
3.933090e-03
0.000000e+00
0.000000e+00
3.933090e-03
3.933090e-03
0.000000e+00
0.000000e+00
3.933090e-03
3.933090e-03
3.933090e-03
3.933090e-03
1.224670e-02
1.224670e-02
3.933090e-03
3.933090e-03
1.224670e-02
1.224670e-02
3.933090e-03
3.933090e-03
1.224670e-02
1.224670e-02
3.933090e-03
3.933090e-03
1.224670e-02
1.224670e-02
1.224670e-02
1.224670e-02