<?xml version="1.0"?>
<VTKFile type="UnstructuredGrid" version="0.1" byte_order="LittleEndian" compressor="vtkZLibDataCompressor">
<UnstructuredGrid>
<Piece NumberOfPoints="960" NumberOfCells="120">
<Points>
<DataArray type="Float32" NumberOfComponents="3" format="ascii">
-4.000000e+02 -6.000000e+03 -4.000000e+02
0.000000e+00 -6.000000e+03 -4.000000e+02
-4.000000e+02 -5.600140e+03 -4.000000e+02
-8.265140e-10 -5.600140e+03 -4.000000e+02
-4.000000e+02 -6.000000e+03 0.000000e+00
0.000000e+00 -6.000000e+03 0.000000e+00
-4.000000e+02 -5.600140e+03 6.313740e-10
2.209280e-11 -5.600140e+03 1.234450e-09
0.000000e+00 -6.000000e+03 -4.000000e+02
4.000000e+02 -6.000000e+03 -4.000000e+02
-8.265140e-10 -5.600140e+03 -4.000000e+02
4.000000e+02 -5.600140e+03 -4.000000e+02
0.000000e+00 -6.000000e+03 0.000000e+00
4.000000e+02 -6.000000e+03 0.000000e+00
2.209280e-11 -5.600140e+03 1.234450e-09
4.000000e+02 -5.600140e+03 1.595760e-09
-4.000000e+02 -5.600140e+03 -4.000000e+02
-8.265140e-10 -5.600140e+03 -4.000000e+02
-4.000000e+02 -5.200250e+03 -4.000000e+02
-5.751600e-10 -5.200250e+03 -4.000000e+02
-4.000000e+02 -5.600140e+03 6.313740e-10
2.209280e-11 -5.600140e+03 1.234450e-09
-4.000000e+02 -5.200250e+03 2.037790e-09
-5.384330e-10 -5.200250e+03 1.976420e-09
-8.265140e-10 -5.600140e+03 -4.000000e+02
4.000000e+02 -5.600140e+03 -4.000000e+02
-5.751600e-10 -5.200250e+03 -4.000000e+02
4.000000e+02 -5.200250e+03 -4.000000e+02
2.209280e-11 -5.600140e+03 1.234450e-09
4.000000e+02 -5.600140e+03 1.595760e-09
-5.384330e-10 -5.200250e+03 1.976420e-09
4.000000e+02 -5.200250e+03 2.467010e-09
-4.000000e+02 -5.200250e+03 -4.000000e+02
-5.751600e-10 -5.200250e+03 -4.000000e+02
-4.000000e+02 -4.800310e+03 -4.000000e+02
-6.025180e-10 -4.800310e+03 -4.000000e+02
-4.000000e+02 -5.200250e+03 2.037790e-09
-5.384330e-10 -5.200250e+03 1.976420e-09
-4.000000e+02 -4.800310e+03 1.726600e-09
-1.231560e-09 -4.800310e+03 1.223260e-09
-5.751600e-10 -5.200250e+03 -4.000000e+02
4.000000e+02 -5.200250e+03 -4.000000e+02
-6.025180e-10 -4.800310e+03 -4.000000e+02
4.000000e+02 -4.800310e+03 -4.000000e+02
-5.384330e-10 -5.200250e+03 1.976420e-09
4.000000e+02 -5.200250e+03 2.467010e-09
-1.231560e-09 -4.800310e+03 1.223260e-09
4.000000e+02 -4.800310e+03 7.943980e-10
-4.000000e+02 -4.800310e+03 -4.000000e+02
-6.025180e-10 -4.800310e+03 -4.000000e+02
-4.000000e+02 -4.400310e+03 -4.000000e+02
-1.231130e-09 -4.400310e+03 -4.000000e+02
-4.000000e+02 -4.800310e+03 1.726600e-09
-1.231560e-09 -4.800310e+03 1.223260e-09
-4.000000e+02 -4.400310e+03 4.940020e-10
-8.257560e-10 -4.400310e+03 8.887520e-10
-6.025180e-10 -4.800310e+03 -4.000000e+02
4.000000e+02 -4.800310e+03 -4.000000e+02
-1.231130e-09 -4.400310e+03 -4.000000e+02
4.000000e+02 -4.400310e+03 -4.000000e+02
-1.231560e-09 -4.800310e+03 1.223260e-09
4.000000e+02 -4.800310e+03 7.943980e-10
-8.257560e-10 -4.400310e+03 8.887520e-10
4.000000e+02 -4.400310e+03 3.149940e-10
-4.000000e+02 -4.400310e+03 -4.000000e+02
-1.231130e-09 -4.400310e+03 -4.000000e+02
-4.000000e+02 -4.000280e+03 -4.000000e+02
-6.658980e-10 -4.000280e+03 -4.000000e+02
-4.000000e+02 -4.400310e+03 4.940020e-10
-8.257560e-10 -4.400310e+03 8.887520e-10
-4.000000e+02 -4.000280e+03 4.960140e-10
-9.742660e-10 -4.000280e+03 6.346790e-10
-1.231130e-09 -4.400310e+03 -4.000000e+02
4.000000e+02 -4.400310e+03 -4.000000e+02
-6.658980e-10 -4.000280e+03 -4.000000e+02
4.000000e+02 -4.000280e+03 -4.000000e+02
-8.257560e-10 -4.400310e+03 8.887520e-10
4.000000e+02 -4.400310e+03 3.149940e-10
-9.742660e-10 -4.000280e+03 6.346790e-10
4.000000e+02 -4.000280e+03 -4.557530e-10
-4.000000e+02 -4.000280e+03 -4.000000e+02
-6.658980e-10 -4.000280e+03 -4.000000e+02
-4.000000e+02 -3.600270e+03 -4.000000e+02
3.657030e-11 -3.600270e+03 -4.000000e+02
-4.000000e+02 -4.000280e+03 4.960140e-10
-9.742660e-10 -4.000280e+03 6.346790e-10
-4.000000e+02 -3.600270e+03 7.253400e-10
-3.740030e-10 -3.600270e+03 1.591570e-10
-6.658980e-10 -4.000280e+03 -4.000000e+02
4.000000e+02 -4.000280e+03 -4.000000e+02
3.657030e-11 -3.600270e+03 -4.000000e+02
4.000000e+02 -3.600270e+03 -4.000000e+02
-9.742660e-10 -4.000280e+03 6.346790e-10
4.000000e+02 -4.000280e+03 -4.557530e-10
-3.740030e-10 -3.600270e+03 1.591570e-10
4.000000e+02 -3.600270e+03 7.971520e-11
-4.000000e+02 -3.600270e+03 -4.000000e+02
3.657030e-11 -3.600270e+03 -4.000000e+02
-4.000000e+02 -3.200290e+03 -4.000000e+02
3.111150e-11 -3.200290e+03 -4.000000e+02
-4.000000e+02 -3.600270e+03 7.253400e-10
-3.740030e-10 -3.600270e+03 1.591570e-10
-4.000000e+02 -3.200290e+03 -1.063020e-11
-1.464260e-10 -3.200290e+03 -1.113590e-09
3.657030e-11 -3.600270e+03 -4.000000e+02
4.000000e+02 -3.600270e+03 -4.000000e+02
3.111150e-11 -3.200290e+03 -4.000000e+02
4.000000e+02 -3.200290e+03 -4.000000e+02
-3.740030e-10 -3.600270e+03 1.591570e-10
4.000000e+02 -3.600270e+03 7.971520e-11
-1.464260e-10 -3.200290e+03 -1.113590e-09
4.000000e+02 -3.200290e+03 -5.160380e-10
-4.000000e+02 -3.200290e+03 -4.000000e+02
3.111150e-11 -3.200290e+03 -4.000000e+02
-4.000000e+02 -2.800300e+03 -4.000000e+02
-2.821810e-10 -2.800300e+03 -4.000000e+02
-4.000000e+02 -3.200290e+03 -1.063020e-11
-1.464260e-10 -3.200290e+03 -1.113590e-09
-4.000000e+02 -2.800300e+03 6.026870e-10
8.825000e-11 -2.800300e+03 2.999050e-10
3.111150e-11 -3.200290e+03 -4.000000e+02
4.000000e+02 -3.200290e+03 -4.000000e+02
-2.821810e-10 -2.800300e+03 -4.000000e+02
4.000000e+02 -2.800300e+03 -4.000000e+02
-1.464260e-10 -3.200290e+03 -1.113590e-09
4.000000e+02 -3.200290e+03 -5.160380e-10
8.825000e-11 -2.800300e+03 2.999050e-10
4.000000e+02 -2.800300e+03 1.906800e-10
-4.000000e+02 -2.800300e+03 -4.000000e+02
-2.821810e-10 -2.800300e+03 -4.000000e+02
-4.000000e+02 -2.400290e+03 -4.000000e+02
3.881460e-11 -2.400290e+03 -4.000000e+02
-4.000000e+02 -2.800300e+03 6.026870e-10
8.825000e-11 -2.800300e+03 2.999050e-10
-4.000000e+02 -2.400290e+03 5.912580e-10
1.645060e-10 -2.400290e+03 7.329140e-10
-2.821810e-10 -2.800300e+03 -4.000000e+02
4.000000e+02 -2.800300e+03 -4.000000e+02
3.881460e-11 -2.400290e+03 -4.000000e+02
4.000000e+02 -2.400290e+03 -4.000000e+02
8.825000e-11 -2.800300e+03 2.999050e-10
4.000000e+02 -2.800300e+03 1.906800e-10
1.645060e-10 -2.400290e+03 7.329140e-10
4.000000e+02 -2.400290e+03 7.068040e-10
-4.000000e+02 -2.400290e+03 -4.000000e+02
3.881460e-11 -2.400290e+03 -4.000000e+02
-4.000000e+02 -2.000290e+03 -4.000000e+02
-8.876200e-10 -2.000290e+03 -4.000000e+02
-4.000000e+02 -2.400290e+03 5.912580e-10
1.645060e-10 -2.400290e+03 7.329140e-10
-4.000000e+02 -2.000290e+03 9.615340e-10
-7.005780e-10 -2.000290e+03 -1.671180e-10
3.881460e-11 -2.400290e+03 -4.000000e+02
4.000000e+02 -2.400290e+03 -4.000000e+02
-8.876200e-10 -2.000290e+03 -4.000000e+02
4.000000e+02 -2.000290e+03 -4.000000e+02
1.645060e-10 -2.400290e+03 7.329140e-10
4.000000e+02 -2.400290e+03 7.068040e-10
-7.005780e-10 -2.000290e+03 -1.671180e-10
4.000000e+02 -2.000290e+03 -1.386160e-10
-4.000000e+02 -2.000290e+03 -4.000000e+02
-8.876200e-10 -2.000290e+03 -4.000000e+02
-4.000000e+02 -1.600300e+03 -4.000000e+02
-4.752850e-10 -1.600300e+03 -4.000000e+02
-4.000000e+02 -2.000290e+03 9.615340e-10
-7.005780e-10 -2.000290e+03 -1.671180e-10
-4.000000e+02 -1.600300e+03 1.972800e-10
-6.248390e-11 -1.600300e+03 -2.298800e-10
-8.876200e-10 -2.000290e+03 -4.000000e+02
4.000000e+02 -2.000290e+03 -4.000000e+02
-4.752850e-10 -1.600300e+03 -4.000000e+02
4.000000e+02 -1.600300e+03 -4.000000e+02
-7.005780e-10 -2.000290e+03 -1.671180e-10
4.000000e+02 -2.000290e+03 -1.386160e-10
-6.248390e-11 -1.600300e+03 -2.298800e-10
4.000000e+02 -1.600300e+03 -8.900030e-10
-4.000000e+02 -1.600300e+03 -4.000000e+02
-4.752850e-10 -1.600300e+03 -4.000000e+02
-4.000000e+02 -1.200300e+03 -4.000000e+02
6.315310e-10 -1.200300e+03 -4.000000e+02
-4.000000e+02 -1.600300e+03 1.972800e-10
-6.248390e-11 -1.600300e+03 -2.298800e-10
-4.000000e+02 -1.200300e+03 3.073620e-10
1.554190e-09 -1.200300e+03 -5.733250e-10
-4.752850e-10 -1.600300e+03 -4.000000e+02
4.000000e+02 -1.600300e+03 -4.000000e+02
6.315310e-10 -1.200300e+03 -4.000000e+02
4.000000e+02 -1.200300e+03 -4.000000e+02
-6.248390e-11 -1.600300e+03 -2.298800e-10
4.000000e+02 -1.600300e+03 -8.900030e-10
1.554190e-09 -1.200300e+03 -5.733250e-10
4.000000e+02 -1.200300e+03 -1.018320e-09
-4.000000e+02 -1.200300e+03 -4.000000e+02
6.315310e-10 -1.200300e+03 -4.000000e+02
-4.000000e+02 -8.002960e+02 -4.000000e+02
1.077640e-09 -8.002960e+02 -4.000000e+02
-4.000000e+02 -1.200300e+03 3.073620e-10
1.554190e-09 -1.200300e+03 -5.733250e-10
-4.000000e+02 -8.002960e+02 -2.623000e-10
6.416860e-10 -8.002960e+02 -2.795010e-10
6.315310e-10 -1.200300e+03 -4.000000e+02
4.000000e+02 -1.200300e+03 -4.000000e+02
1.077640e-09 -8.002960e+02 -4.000000e+02
4.000000e+02 -8.002960e+02 -4.000000e+02
1.554190e-09 -1.200300e+03 -5.733250e-10
4.000000e+02 -1.200300e+03 -1.018320e-09
6.416860e-10 -8.002960e+02 -2.795010e-10
4.000000e+02 -8.002960e+02 -7.636950e-10
-4.000000e+02 -8.002960e+02 -4.000000e+02
1.077640e-09 -8.002960e+02 -4.000000e+02
-4.000000e+02 -4.002970e+02 -4.000000e+02
-8.171200e-10 -4.002970e+02 -4.000000e+02
-4.000000e+02 -8.002960e+02 -2.623000e-10
6.416860e-10 -8.002960e+02 -2.795010e-10
-4.000000e+02 -4.002970e+02 -6.657190e-10
-3.896130e-10 -4.002970e+02 -4.043810e-10
1.077640e-09 -8.002960e+02 -4.000000e+02
4.000000e+02 -8.002960e+02 -4.000000e+02
-8.171200e-10 -4.002970e+02 -4.000000e+02
4.000000e+02 -4.002970e+02 -4.000000e+02
6.416860e-10 -8.002960e+02 -2.795010e-10
4.000000e+02 -8.002960e+02 -7.636950e-10
-3.896130e-10 -4.002970e+02 -4.043810e-10
4.000000e+02 -4.002970e+02 -3.882980e-12
-4.000000e+02 -4.002970e+02 -4.000000e+02
-8.171200e-10 -4.002970e+02 -4.000000e+02
-4.000000e+02 -2.969040e-01 -4.000000e+02
-6.533890e-10 -2.969040e-01 -4.000000e+02
-4.000000e+02 -4.002970e+02 -6.657190e-10
-3.896130e-10 -4.002970e+02 -4.043810e-10
-4.000000e+02 -2.969040e-01 2.918190e-10
-8.882630e-11 -2.969040e-01 2.717670e-10
-8.171200e-10 -4.002970e+02 -4.000000e+02
4.000000e+02 -4.002970e+02 -4.000000e+02
-6.533890e-10 -2.969040e-01 -4.000000e+02
[...]
<PointData>
<DataArray type="Float32" Name="V1" format="ascii">
0.000000e+00
0.000000e+00
-1.304030e-09
-1.101710e-10
0.000000e+00
0.000000e+00
1.084080e-09
-7.662060e-10
0.000000e+00
0.000000e+00
-1.101710e-10
1.382590e-09
0.000000e+00
0.000000e+00
-7.662060e-10
-2.513800e-09
-1.304030e-09
-1.101710e-10
7.541400e-10
1.027300e-09
1.084080e-09
-7.662060e-10
-2.105310e-09
-1.298520e-10
-1.101710e-10
1.382590e-09
1.027300e-09
-1.131210e-09
-7.662060e-10
-2.513800e-09
-1.298520e-10
1.319750e-09
7.541400e-10
1.027300e-09
8.798300e-10
1.025310e-09
-2.105310e-09
-1.298520e-10
-6.127390e-10
-5.754080e-11
1.027300e-09
-1.131210e-09
1.025310e-09
6.598730e-10
-1.298520e-10
1.319750e-09
-5.754080e-11
1.414010e-10
8.798300e-10
1.025310e-09
-1.602550e-09
-3.181990e-10
-6.127390e-10
-5.754080e-11
1.649680e-09
6.393030e-11
1.025310e-09
6.598730e-10
-3.181990e-10
-1.696820e-09
-5.754080e-11
1.414010e-10
6.393030e-11
1.775370e-09
-1.602550e-09
-3.181990e-10
-1.178340e-09
-6.592820e-10
1.649680e-09
6.393030e-11
-1.775370e-09
2.520240e-10
-3.181990e-10
-1.696820e-09
-6.592820e-10
3.142250e-10
6.393030e-11
1.775370e-09
2.520240e-10
6.755840e-10
-1.178340e-09
-6.592820e-10
2.985140e-10
-2.079080e-10
-1.775370e-09
2.520240e-10
1.555410e-09
-4.793910e-10
-6.592820e-10
3.142250e-10
-2.079080e-10
6.598730e-10
2.520240e-10
6.755840e-10
-4.793910e-10
2.513800e-10
2.985140e-10
-2.079080e-10
2.183860e-09
4.285410e-10
1.555410e-09
-4.793910e-10
1.256900e-10
2.707630e-10
-2.079080e-10
6.598730e-10
4.285410e-10
-3.770700e-10
-4.793910e-10
2.513800e-10
2.707630e-10
4.242040e-10
2.183860e-09
4.285410e-10
1.241190e-09
4.642080e-10
1.256900e-10
2.707630e-10
3.770700e-10
-2.625340e-10
4.285410e-10
-3.770700e-10
4.642080e-10
5.027600e-10
2.707630e-10
4.242040e-10
-2.625340e-10
0.000000e+00
1.241190e-09
4.642080e-10
-6.284500e-10
2.302750e-10
3.770700e-10
-2.625340e-10
1.571130e-10
3.261190e-10
4.642080e-10
5.027600e-10
2.302750e-10
7.384290e-10
-2.625340e-10
0.000000e+00
3.261190e-10
0.000000e+00
-6.284500e-10
2.302750e-10
-1.288320e-09
-3.620720e-10
1.571130e-10
3.261190e-10
2.136730e-09
-1.911760e-10
2.302750e-10
7.384290e-10
-3.620720e-10
7.070060e-10
3.261190e-10
0.000000e+00
-1.911760e-10
-4.713380e-11
-1.288320e-09
-3.620720e-10
7.070060e-10
-1.200830e-09
2.136730e-09
-1.911760e-10
-1.351170e-09
-4.255850e-10
-3.620720e-10
7.070060e-10
-1.200830e-09
-7.384290e-10
-1.911760e-10
-4.713380e-11
-4.255850e-10
0.000000e+00
7.070060e-10
-1.200830e-09
-3.456480e-10
-2.544310e-10
-1.351170e-09
-4.255850e-10
5.970280e-10
1.604770e-10
-1.200830e-09
-7.384290e-10
-2.544310e-10
1.602550e-09
-4.255850e-10
0.000000e+00
1.604770e-10
0.000000e+00
-3.456480e-10
-2.544310e-10
2.042460e-09
5.427250e-10
5.970280e-10
1.604770e-10
9.898090e-10
-1.435670e-10
-2.544310e-10
1.602550e-09
5.427250e-10
-6.284500e-11
1.604770e-10
0.000000e+00
-1.435670e-10
1.351170e-09
2.042460e-09
5.427250e-10
0.000000e+00
1.524510e-09
9.898090e-10
-1.435670e-10
0.000000e+00
1.940090e-10
5.427250e-10
-6.284500e-11
1.524510e-09
9.112530e-10
-1.435670e-10
1.351170e-09
1.940090e-10
1.225480e-09
0.000000e+00
1.524510e-09
-3.142250e-10
-2.113120e-10
0.000000e+00
1.940090e-10
-1.571130e-11
-3.149920e-10
1.524510e-09
9.112530e-10
-2.113120e-10
2.670910e-10
1.940090e-10
1.225480e-09
-3.149920e-10
3.613590e-10
-3.142250e-10
-2.113120e-10
-4.713380e-10
-1.311780e-10
-1.571130e-11
-3.149920e-10
0.000000e+00
7.051970e-11
-2.113120e-10
2.670910e-10
-1.311780e-10
-9.269640e-10
-3.149920e-10
3.613590e-10
7.051970e-11
-4.870490e-10
-4.713380e-10
-1.311780e-10
1.838220e-09
-3.967250e-10
0.000000e+00
7.051970e-11
0.000000e+00
-1.029370e-09
-1.311780e-10
-9.269640e-10
-3.967250e-10
5.184710e-10
7.051970e-11
-4.870490e-10
-1.029370e-09
4.242040e-10
1.838220e-09
-3.967250e-10
0.000000e+00
-1.036340e-09
0.000000e+00
-1.029370e-09
0.000000e+00
1.807890e-10
-3.967250e-10
5.184710e-10
-1.036340e-09
-9.269640e-10
-1.029370e-09
4.242040e-10
1.807890e-10
1.492570e-09
0.000000e+00
-1.036340e-09
3.142250e-11
-7.505500e-11
0.000000e+00
1.807890e-10
7.855630e-10
5.347770e-10
-1.036340e-09
-9.269640e-10
-7.505500e-11
1.021230e-09
1.807890e-10
1.492570e-09
5.347770e-10
1.398300e-09
3.142250e-11
-7.505500e-11
0.000000e+00
-1.871950e-10
7.855630e-10
5.347770e-10
-5.970280e-10
-7.924990e-10
-7.505500e-11
1.021230e-09
-1.871950e-10
-5.656050e-10
5.347770e-10
1.398300e-09
-7.924990e-10
-1.146920e-09
0.000000e+00
-1.871950e-10
-4.242040e-10
4.531300e-10
-5.970280e-10
-7.924990e-10
2.985140e-10
6.716440e-10
-1.871950e-10
-5.656050e-10
4.531300e-10
9.740980e-10
-7.924990e-10
-1.146920e-09
6.716440e-10
9.269640e-10
-4.242040e-10
4.531300e-10
-3.613590e-10
-4.393590e-11
2.985140e-10
6.716440e-10
0.000000e+00
2.714250e-10
4.531300e-10
9.740980e-10
-4.393590e-11
-7.855630e-11
6.716440e-10
9.269640e-10
2.714250e-10
1.728240e-10
-3.613590e-10
-4.393590e-11
-7.698510e-10
-8.873100e-10
0.000000e+00
2.714250e-10
-8.955420e-10
-8.186830e-10
-4.393590e-11
-7.855630e-11
-8.873100e-10
-1.272610e-09
2.714250e-10
1.728240e-10
-8.186830e-10
-1.005520e-09
-7.698510e-10
-8.873100e-10
4.226330e-09
2.357390e-09
-8.955420e-10
-8.186830e-10
5.184710e-10
-5.142860e-10
-8.873100e-10
-1.272610e-09
2.357390e-09
4.870490e-10
-8.186830e-10
-1.005520e-09
-5.142860e-10
-1.681100e-09
4.226330e-09
2.357390e-09
-3.126540e-09
-2.223100e-09
5.184710e-10
-5.142860e-10
-5.813160e-10
-2.077600e-10
2.357390e-09
4.870490e-10
-2.223100e-09
-1.241190e-09
-5.142860e-10
-1.681100e-09
-2.077600e-10
1.728240e-10
-3.126540e-09
-2.223100e-09
-3.440760e-09
-1.502520e-09
-5.813160e-10
-2.077600e-10
6.755840e-10
1.633820e-09
-2.223100e-09
-1.241190e-09
-1.502520e-09
4.242040e-10
-2.077600e-10
1.728240e-10
1.633820e-09
2.608070e-09
-3.440760e-09
-1.502520e-09
2.246710e-09
1.618760e-09
6.755840e-10
1.633820e-09
1.068370e-09
7.750300e-10
-1.502520e-09
4.242040e-10
1.618760e-09
9.740980e-10
1.633820e-09
2.608070e-09
7.750300e-10
4.713380e-10
2.246710e-09
1.618760e-09
4.870490e-10
1.090930e-10
1.068370e-09
7.750300e-10
-5.184710e-10
-6.768750e-10
1.618760e-09
9.740980e-10
1.090930e-10
-2.985140e-10
7.750300e-10
4.713380e-10
-6.768750e-10
-8.955420e-10
4.870490e-10
1.090930e-10
6.127390e-10
5.471410e-10
-5.184710e-10
-6.768750e-10
0.000000e+00
-6.467340e-12
1.090930e-10
-2.985140e-10
5.471410e-10
5.184710e-10
-6.768750e-10
-8.955420e-10
-6.467340e-12
0.000000e+00
6.127390e-10
5.471410e-10
3.299360e-10
2.327290e-10
0.000000e+00
-6.467340e-12
9.426750e-11
-2.682180e-11
5.471410e-10
5.184710e-10
2.327290e-10
2.042460e-10
-6.467340e-12
0.000000e+00
-2.682180e-11
-1.099790e-10
0.000000e+00
0.000000e+00
1.084080e-09
-7.662060e-10
0.000000e+00
0.000000e+00
6.284500e-11
-1.027070e-10
0.000000e+00
0.000000e+00
-7.662060e-10
-2.513800e-09
0.000000e+00
0.000000e+00
-1.027070e-10
7.227180e-10
1.084080e-09
-7.662060e-10
-2.105310e-09
-1.298520e-10
6.284500e-11
-1.027070e-10
-6.127390e-10
-8.597040e-10
-7.662060e-10
-2.513800e-09
-1.298520e-10
1.319750e-09
-1.027070e-10
7.227180e-10
-8.597040e-10
-1.649680e-09
-2.105310e-09
-1.298520e-10
-6.127390e-10
-5.754080e-11
-6.127390e-10
-8.597040e-10
2.278130e-09
1.339430e-09
-1.298520e-10
1.319750e-09
-5.754080e-11
1.414010e-10
-8.597040e-10
-1.649680e-09
1.339430e-09
-1.241190e-09
-6.127390e-10
-5.754080e-11
1.649680e-09
6.393030e-11
2.278130e-09
1.339430e-09
2.623780e-09
5.445560e-10
-5.754080e-11
1.414010e-10
6.393030e-11
1.775370e-09
1.339430e-09
-1.241190e-09
5.445560e-10
-6.284500e-10
1.649680e-09
6.393030e-11
-1.775370e-09
2.520240e-10
2.623780e-09
5.445560e-10
-3.299360e-10
2.999240e-10
6.393030e-11
1.775370e-09
2.520240e-10
6.755840e-10
5.445560e-10
-6.284500e-10
2.999240e-10
9.426750e-11
-1.775370e-09
2.520240e-10
1.555410e-09
-4.793910e-10
-3.299360e-10
2.999240e-10
-6.755840e-10
-3.935480e-10
2.520240e-10
6.755840e-10
-4.793910e-10
2.513800e-10
2.999240e-10
9.426750e-11
-3.935480e-10
-8.484080e-10
1.555410e-09
-4.793910e-10
1.256900e-10
2.707630e-10
-6.755840e-10
-3.935480e-10
1.901060e-09
-6.126670e-10
-4.793910e-10
2.513800e-10
2.707630e-10
4.242040e-10
-3.935480e-10
-8.484080e-10
-6.126670e-10
-1.021230e-09
1.256900e-10
2.707630e-10
3.770700e-10
-2.625340e-10
1.901060e-09
-6.126670e-10
4.713380e-11
-1.487710e-10
2.707630e-10
4.242040e-10
-2.625340e-10
0.000000e+00
-6.126670e-10
-1.021230e-09
-1.487710e-10
2.152440e-09
3.770700e-10
-2.625340e-10
1.571130e-10
3.261190e-10
4.713380e-11
-1.487710e-10
7.384290e-10
7.596570e-10
-2.625340e-10
0.000000e+00
3.261190e-10
0.000000e+00
-1.487710e-10
2.152440e-09
7.596570e-10
-5.498940e-10
1.571130e-10
3.261190e-10
2.136730e-09
-1.911760e-10
7.384290e-10
7.596570e-10
-8.798300e-10
-4.101970e-10
3.261190e-10
0.000000e+00
-1.911760e-10
-4.713380e-11
7.596570e-10
-5.498940e-10
-4.101970e-10
0.000000e+00
2.136730e-09
-1.911760e-10
-1.351170e-09
-4.255850e-10
-8.798300e-10
-4.101970e-10
-9.740980e-10
-9.154170e-10
-1.911760e-10
-4.713380e-11
-4.255850e-10
0.000000e+00
-4.101970e-10
0.000000e+00
-9.154170e-10
-8.798300e-10
-1.351170e-09
-4.255850e-10
5.970280e-10
1.604770e-10
-9.740980e-10
-9.154170e-10
-1.068370e-09
-2.761900e-10
-4.255850e-10
0.000000e+00
1.604770e-10
0.000000e+00
-9.154170e-10
-8.798300e-10
-2.761900e-10
7.855630e-11
5.970280e-10
1.604770e-10
9.898090e-10
-1.435670e-10
-1.068370e-09
-2.761900e-10
3.032270e-09
4.587130e-10
1.604770e-10
0.000000e+00
-1.435670e-10
1.351170e-09
-2.761900e-10
7.855630e-11
4.587130e-10
-1.304030e-09
9.898090e-10
-1.435670e-10
0.000000e+00
1.940090e-10
3.032270e-09
4.587130e-10
0.000000e+00
8.267660e-10
-1.435670e-10
1.351170e-09
1.940090e-10
1.225480e-09
4.587130e-10
-1.304030e-09
8.267660e-10
-1.241190e-09
0.000000e+00
1.940090e-10
-1.571130e-11
-3.149920e-10
0.000000e+00
8.267660e-10
-4.084930e-10
-6.943410e-10
1.940090e-10
1.225480e-09
-3.149920e-10
3.613590e-10
8.267660e-10
-1.241190e-09
-6.943410e-10
9.112530e-10
-1.571130e-11
-3.149920e-10
0.000000e+00
7.051970e-11
-4.084930e-10
-6.943410e-10
8.326970e-10
1.315130e-09
-3.149920e-10
3.613590e-10
7.051970e-11
-4.870490e-10
-6.943410e-10
9.112530e-10
1.315130e-09
0.000000e+00
0.000000e+00
7.051970e-11
0.000000e+00
-1.029370e-09
8.326970e-10
1.315130e-09
-8.012740e-10
-1.162290e-09
7.051970e-11
-4.870490e-10
-1.029370e-09
4.242040e-10
1.315130e-09
0.000000e+00
-1.162290e-09
-1.429720e-09
0.000000e+00
-1.029370e-09
0.000000e+00
1.807890e-10
-8.012740e-10
-1.162290e-09
0.000000e+00
7.998260e-10
-1.029370e-09
4.242040e-10
1.807890e-10
1.492570e-09
-1.162290e-09
-1.429720e-09
7.998260e-10
2.325270e-09
0.000000e+00
1.807890e-10
7.855630e-10
5.347770e-10
0.000000e+00
7.998260e-10
9.583870e-10
-3.086840e-10
1.807890e-10
1.492570e-09
5.347770e-10
1.398300e-09
7.998260e-10
2.325270e-09
-3.086840e-10
-1.885350e-10
7.855630e-10
5.347770e-10
-5.970280e-10
-7.924990e-10
9.583870e-10
-3.086840e-10
-8.484080e-10
-8.309330e-10
5.347770e-10
1.398300e-09
-7.924990e-10
-1.146920e-09
-3.086840e-10
-1.885350e-10
-8.309330e-10
-8.169850e-10
-5.970280e-10
-7.924990e-10
2.985140e-10
6.716440e-10
-8.484080e-10
-8.309330e-10
0.000000e+00
3.087580e-10
-7.924990e-10
-1.146920e-09
6.716440e-10
9.269640e-10
-8.309330e-10
-8.169850e-10
3.087580e-10
4.713380e-10
2.985140e-10
6.716440e-10
0.000000e+00
2.714250e-10
0.000000e+00
3.087580e-10
-1.099790e-10
1.496360e-10
6.716440e-10
9.269640e-10
2.714250e-10
1.728240e-10
3.087580e-10
4.713380e-10
1.496360e-10
1.728240e-10
0.000000e+00
2.714250e-10
-8.955420e-10
-8.186830e-10
-1.099790e-10
1.496360e-10
-2.042460e-10
-1.780530e-10
2.714250e-10
1.728240e-10
-8.186830e-10
-1.005520e-09
1.496360e-10
1.728240e-10
-1.780530e-10
-2.828030e-10
-8.955420e-10
-8.186830e-10
5.184710e-10
-5.142860e-10
-2.042460e-10
-1.780530e-10
-6.284500e-11
-3.652980e-09
-8.186830e-10
-1.005520e-09
-5.142860e-10
-1.681100e-09
-1.780530e-10
-2.828030e-10
-3.652980e-09
-7.290020e-09
5.184710e-10
-5.142860e-10
-5.813160e-10
-2.077600e-10
-6.284500e-11
-3.652980e-09
-7.227180e-10
2.001060e-09
-5.142860e-10
-1.681100e-09
-2.077600e-10
1.728240e-10
-3.652980e-09
-7.290020e-09
2.001060e-09
4.697670e-09
-5.813160e-10
-2.077600e-10
6.755840e-10
1.633820e-09
-7.227180e-10
2.001060e-09
1.712530e-09
4.969620e-09
-2.077600e-10
1.728240e-10
1.633820e-09
2.608070e-09
2.001060e-09
4.697670e-09
4.969620e-09
8.279830e-09
6.755840e-10
1.633820e-09
1.068370e-09
7.750300e-10
1.712530e-09
4.969620e-09
1.382590e-09
-3.359150e-10
1.633820e-09
2.608070e-09
7.750300e-10
4.713380e-10
4.969620e-09
8.279830e-09
-3.359150e-10
-2.089600e-09
1.068370e-09
7.750300e-10
-5.184710e-10
-6.768750e-10
1.382590e-09
-3.359150e-10
-9.426750e-10
-1.561770e-09
7.750300e-10
4.713380e-10
-6.768750e-10
-8.955420e-10
-3.359150e-10
-2.089600e-09
-1.561770e-09
-2.168150e-09
-5.184710e-10
-6.768750e-10
0.000000e+00
-6.467340e-12
-9.426750e-10
-1.561770e-09
-2.670910e-10
-5.727710e-10
-6.768750e-10
-8.955420e-10
-6.467340e-12
0.000000e+00
-1.561770e-09
-2.168150e-09
-5.727710e-10
-8.955420e-10
0.000000e+00
-6.467340e-12
9.426750e-11
-2.682180e-11
-2.670910e-10
-5.727710e-10
-2.513800e-10
-2.548660e-10
-6.467340e-12
0.000000e+00
-2.682180e-11
-1.099790e-10
-5.727710e-10
-8.955420e-10
-2.548660e-10
-2.199580e-10
</DataArray>
<DataArray type="Float32" Name="V2" format="ascii">
0.000000e+00
0.000000e+00
2.148180e-02
2.148180e-02
0.000000e+00
0.000000e+00
2.148180e-02
2.148180e-02
0.000000e+00
0.000000e+00
2.148180e-02
2.148180e-02
0.000000e+00
0.000000e+00
2.148180e-02
2.148180e-02
2.148180e-02
2.148180e-02
1.876280e-02
1.876280e-02
2.148180e-02
2.148180e-02
1.876280e-02
1.876280e-02
2.148180e-02
2.148180e-02
1.876280e-02
1.876280e-02
2.148180e-02
2.148180e-02
1.876280e-02
1.876280e-02
1.876280e-02
1.876280e-02
-2.929580e-03
-2.929570e-03
1.876280e-02
1.876280e-02
-2.929570e-03
-2.929570e-03
1.876280e-02
1.876280e-02
-2.929570e-03
-2.929580e-03
1.876280e-02
1.876280e-02
-2.929570e-03
-2.929570e-03
-2.929580e-03
-2.929570e-03
-2.680690e-02
-2.680690e-02
-2.929570e-03
-2.929570e-03
-2.680690e-02
-2.680690e-02
-2.929570e-03
-2.929580e-03
-2.680690e-02
-2.680690e-02
-2.929570e-03
-2.929570e-03
-2.680690e-02
-2.680690e-02
-2.680690e-02
-2.680690e-02
-2.414600e-02
-2.414600e-02
-2.680690e-02
-2.680690e-02
-2.414600e-02
-2.414600e-02
-2.680690e-02
-2.680690e-02
-2.414600e-02
-2.414600e-02
-2.680690e-02
-2.680690e-02
-2.414600e-02
-2.414600e-02
-2.414600e-02
-2.414600e-02
5.410580e-03
5.410580e-03
-2.414600e-02
-2.414600e-02
5.410580e-03
5.410580e-03
-2.414600e-02
-2.414600e-02
5.410580e-03
5.410580e-03
-2.414600e-02
-2.414600e-02
5.410580e-03
5.410590e-03
5.410580e-03
5.410580e-03
1.419980e-02
1.419980e-02
5.410580e-03
5.410580e-03
1.419980e-02
1.419980e-02
5.410580e-03
5.410580e-03
1.419980e-02
1.419980e-02
5.410580e-03
5.410590e-03
1.419980e-02
1.419980e-02
1.419980e-02
1.419980e-02
-6.297150e-03
-6.297160e-03
1.419980e-02
1.419980e-02
-6.297160e-03
-6.297160e-03
1.419980e-02
1.419980e-02
-6.297160e-03
-6.297160e-03
1.419980e-02
1.419980e-02
-6.297160e-03
-6.297160e-03
-6.297150e-03
-6.297160e-03
-7.616130e-03
-7.616140e-03
-6.297160e-03
-6.297160e-03
-7.616130e-03
-7.616130e-03
-6.297160e-03
-6.297160e-03
-7.616140e-03
-7.616130e-03
-6.297160e-03
-6.297160e-03
-7.616130e-03
-7.616130e-03
-7.616130e-03
-7.616140e-03
3.964290e-03
3.964290e-03
-7.616130e-03
-7.616130e-03
3.964290e-03
3.964290e-03
-7.616140e-03
-7.616130e-03
3.964290e-03
3.964290e-03
-7.616130e-03
-7.616130e-03
3.964290e-03
3.964290e-03
3.964290e-03
3.964290e-03
1.335170e-03
1.335170e-03
3.964290e-03
3.964290e-03
1.335170e-03
1.335170e-03
3.964290e-03
3.964290e-03
1.335170e-03
1.335170e-03
3.964290e-03
3.964290e-03
1.335170e-03
1.335170e-03
1.335170e-03
1.335170e-03
-2.177400e-03
-2.177400e-03
1.335170e-03
1.335170e-03
-2.177400e-03
-2.177390e-03
1.335170e-03
1.335170e-03
-2.177400e-03
-2.177390e-03
1.335170e-03
1.335170e-03
-2.177390e-03
-2.177390e-03
-2.177400e-03
-2.177400e-03
2.265570e-04
2.265610e-04
-2.177400e-03
-2.177390e-03
2.265600e-04
2.265620e-04
-2.177400e-03
-2.177390e-03
2.265610e-04
2.265580e-04
-2.177390e-03
-2.177390e-03
2.265620e-04
2.265610e-04
2.265570e-04
2.265610e-04
7.446280e-04
7.446240e-04
2.265600e-04
2.265620e-04
7.446260e-04
7.446240e-04
2.265610e-04
2.265580e-04
7.446240e-04
7.446280e-04
2.265620e-04
2.265610e-04
7.446240e-04
7.446250e-04
7.446280e-04
7.446240e-04
-5.074780e-04
-5.074780e-04
7.446260e-04
7.446240e-04
-5.074810e-04
-5.074780e-04
7.446240e-04
7.446280e-04
-5.074780e-04
-5.074820e-04
7.446240e-04
7.446250e-04
-5.074780e-04
-5.074800e-04
-5.074780e-04
-5.074780e-04
-3.790520e-04
-3.790530e-04
-5.074810e-04
-5.074780e-04
-3.790530e-04
-3.790530e-04
-5.074780e-04
-5.074820e-04
-3.790530e-04
-3.790540e-04
-5.074780e-04
-5.074800e-04
-3.790530e-04
-3.790540e-04
-3.790520e-04
-3.790530e-04
-2.123700e-04
-2.123660e-04
-3.790530e-04
-3.790530e-04
-2.123650e-04
-2.123670e-04
-3.790530e-04
-3.790540e-04
-2.123660e-04
-2.123660e-04
-3.790530e-04
-3.790540e-04
-2.123670e-04
-2.123690e-04
-2.123700e-04
-2.123660e-04
2.516640e-05
2.516190e-05
-2.123650e-04
-2.123670e-04
2.516040e-05
2.516440e-05
-2.123660e-04
-2.123660e-04
2.516190e-05
2.516550e-05
-2.123670e-04
-2.123690e-04
2.516440e-05
2.516570e-05
2.516640e-05
2.516190e-05
-1.678330e-04
-1.678290e-04
2.516040e-05
2.516440e-05
-1.678300e-04
-1.678320e-04
2.516190e-05
2.516550e-05
-1.678290e-04
-1.678310e-04
2.516440e-05
2.516570e-05
-1.678320e-04
-1.678300e-04
-1.678330e-04
-1.678290e-04
-2.023920e-04
-2.023930e-04
-1.678300e-04
-1.678320e-04
-2.023920e-04
-2.023930e-04
-1.678290e-04
-1.678310e-04
-2.023930e-04
-2.023950e-04
-1.678320e-04
-1.678300e-04
-2.023930e-04
-2.023970e-04
-2.023920e-04
-2.023930e-04
-4.053990e-04
-4.053910e-04
-2.023920e-04
-2.023930e-04
-4.053930e-04
-4.053990e-04
-2.023930e-04
-2.023950e-04
-4.053910e-04
-4.053960e-04
-2.023930e-04
-2.023970e-04
-4.053990e-04
-4.053930e-04
-4.053990e-04
-4.053910e-04
-4.564030e-04
-4.563970e-04
-4.053930e-04
-4.053990e-04
-4.563980e-04
-4.563980e-04
-4.053910e-04
-4.053960e-04
-4.563970e-04
-4.563980e-04
-4.053990e-04
-4.053930e-04
-4.563980e-04
-4.563980e-04
-4.564030e-04
-4.563970e-04
-2.907460e-04
-2.907860e-04
-4.563980e-04
-4.563980e-04
-2.907860e-04
-2.907790e-04
-4.563970e-04
-4.563980e-04
-2.907860e-04
-2.907800e-04
-4.563980e-04
-4.563980e-04
-2.907790e-04
-2.907780e-04
-2.907460e-04
-2.907860e-04
-5.043970e-04
-5.043440e-04
-2.907860e-04
-2.907790e-04
-5.043480e-04
-5.043580e-04
-2.907860e-04
-2.907800e-04
-5.043440e-04
-5.043420e-04
-2.907790e-04
-2.907780e-04
-5.043580e-04
-5.043600e-04
-5.043970e-04
-5.043440e-04
-6.278970e-04
-6.278940e-04
-5.043480e-04
-5.043580e-04
-6.278960e-04
-6.278830e-04
-5.043440e-04
-5.043420e-04
-6.278940e-04
-6.278980e-04
-5.043580e-04
-5.043600e-04
-6.278830e-04
-6.278950e-04
-6.278970e-04
-6.278940e-04
-5.474850e-04
-5.475210e-04
-6.278960e-04
-6.278830e-04
-5.475200e-04
-5.475270e-04
-6.278940e-04
-6.278980e-04
-5.475210e-04
-5.475240e-04
-6.278830e-04
-6.278950e-04
-5.475270e-04
-5.475050e-04
-5.474850e-04
-5.475210e-04
1.011430e-04
1.011750e-04
-5.475200e-04
-5.475270e-04
1.011760e-04
1.011780e-04
-5.475210e-04
-5.475240e-04
1.011750e-04
1.011850e-04
-5.475270e-04
-5.475050e-04
1.011780e-04
1.011770e-04
1.011430e-04
1.011750e-04
-1.026950e-04
-1.027310e-04
1.011760e-04
1.011780e-04
-1.027290e-04
-1.027350e-04
1.011750e-04
1.011850e-04
-1.027310e-04
-1.027490e-04
1.011780e-04
1.011770e-04
-1.027350e-04
-1.027500e-04
-1.026950e-04
-1.027310e-04
2.197290e-05
2.196960e-05
-1.027290e-04
-1.027350e-04
2.197010e-05
2.197510e-05
-1.027310e-04
-1.027490e-04
2.196960e-05
2.197460e-05
-1.027350e-04
-1.027500e-04
2.197510e-05
2.198020e-05
2.197290e-05
2.196960e-05
2.882920e-04
2.883050e-04
2.197010e-05
2.197510e-05
2.883050e-04
2.883010e-04
2.196960e-05
2.197460e-05
2.883050e-04
2.883020e-04
2.197510e-05
2.198020e-05
2.883010e-04
2.883010e-04
0.000000e+00
0.000000e+00
2.148180e-02
2.148180e-02
0.000000e+00
0.000000e+00
2.148180e-02
2.148180e-02
0.000000e+00
0.000000e+00
2.148180e-02
2.148180e-02
0.000000e+00
0.000000e+00
2.148180e-02
2.148180e-02
2.148180e-02
2.148180e-02
1.876280e-02
1.876280e-02
2.148180e-02
2.148180e-02
1.876280e-02
1.876280e-02
2.148180e-02
2.148180e-02
1.876280e-02
1.876280e-02
2.148180e-02
2.148180e-02
1.876280e-02