<?xml version="1.0"?>
<!-- time 62.7865-->
<VTKFile type="UnstructuredGrid" version="0.1" byte_order="LittleEndian">
<UnstructuredGrid>
<Piece NumberOfPoints="7680" NumberOfCells="0">
<Points>
  <DataArray type="Float32" Name="Position" NumberOfComponents="3" format="ascii">
	-350 2049.59 -350
	-350 2049.59 -250
	-350 2049.59 -150
	-350 2049.59 -50
	-350 2049.59 50
	-350 2049.59 150
	-350 2049.59 250
	-350 2049.59 350
	-250 2049.59 -350
	-250 2049.59 -250
	-250 2049.59 -150
	-250 2049.59 -50
	-250 2049.59 50
	-250 2049.59 150
	-250 2049.59 250
	-250 2049.59 350
	-150 2049.59 -350
	-150 2049.59 -250
	-150 2049.59 -150
	-150 2049.59 -50
	-150 2049.59 50
	-150 2049.59 150
	-150 2049.59 250
	-150 2049.59 350
	-50 2049.59 -350
	-50 2049.59 -250
	-50 2049.59 -150
	-50 2049.59 -50
	-50 2049.59 50
	-50 2049.59 150
	-50 2049.59 250
	-50 2049.59 350
	50 2049.59 -350
	50 2049.59 -250
	50 2049.59 -150
	50 2049.59 -50
	50 2049.59 50
	50 2049.59 150
	50 2049.59 250
	50 2049.59 350
	150 2049.59 -350
	150 2049.59 -250
	150 2049.59 -150
	150 2049.59 -50
	150 2049.59 50
	150 2049.59 150
	150 2049.59 250
	150 2049.59 350
	250 2049.59 -350
	250 2049.59 -250
	250 2049.59 -150
	250 2049.59 -50
	250 2049.59 50
	250 2049.59 150
	250 2049.59 250
	250 2049.59 350
	350 2049.59 -350
	350 2049.59 -250
	350 2049.59 -150
	350 2049.59 -50
	350 2049.59 50
	350 2049.59 150
	350 2049.59 250
	350 2049.59 350
	-350 2149.66 -350
	-350 2149.66 -250
	-350 2149.66 -150
	-350 2149.66 -50
	-350 2149.66 50
	-350 2149.66 150
	-350 2149.66 250
	-350 2149.66 350
	-250 2149.66 -350
	-250 2149.66 -250
	-250 2149.66 -150
	-250 2149.66 -50
	-250 2149.66 50
	-250 2149.66 150
	-250 2149.66 250
	-250 2149.66 350
	-150 2149.66 -350
	-150 2149.66 -250
	-150 2149.66 -150
	-150 2149.66 -50
	-150 2149.66 50
	-150 2149.66 150
	-150 2149.66 250
	-150 2149.66 350
	-50 2149.66 -350
	-50 2149.66 -250
	-50 2149.66 -150
	-50 2149.66 -50
	-50 2149.66 50
	-50 2149.66 150
	-50 2149.66 250
	-50 2149.66 350
	50 2149.66 -350
	50 2149.66 -250
	50 2149.66 -150
	50 2149.66 -50
	50 2149.66 50
	50 2149.66 150
	50 2149.66 250
	50 2149.66 350
	150 2149.66 -350
	150 2149.66 -250
	150 2149.66 -150
	150 2149.66 -50
	150 2149.66 50
	150 2149.66 150
	150 2149.66 250
	150 2149.66 350
	250 2149.66 -350
	250 2149.66 -250
	250 2149.66 -150
	250 2149.66 -50
	250 2149.66 50
	250 2149.66 150
	250 2149.66 250
	250 2149.66 350
	350 2149.66 -350
	350 2149.66 -250
	350 2149.66 -150
	350 2149.66 -50
	350 2149.66 50
	350 2149.66 150
	350 2149.66 250
	350 2149.66 350
	-350 2249.66 -350
	-350 2249.66 -250
	-350 2249.66 -150
	-350 2249.66 -50
	-350 2249.66 50
	-350 2249.66 150
	-350 2249.66 250
	-350 2249.66 350
	-250 2249.66 -350
	-250 2249.66 -250
	-250 2249.66 -150
	-250 2249.66 -50
	-250 2249.66 50
	-250 2249.66 150
	-250 2249.66 250
	-250 2249.66 350
	-150 2249.66 -350
	-150 2249.66 -250
	-150 2249.66 -150
	-150 2249.66 -50
	-150 2249.66 50
	-150 2249.66 150
	-150 2249.66 250
	-150 2249.66 350
	-50 2249.66 -350
	-50 2249.66 -250
	-50 2249.66 -150
	-50 2249.66 -50
	-50 2249.66 50
	-50 2249.66 150
	-50 2249.66 250
	-50 2249.66 350
	50 2249.66 -350
	50 2249.66 -250
	50 2249.66 -150
	50 2249.66 -50
	50 2249.66 50
	50 2249.66 150
	50 2249.66 250
	50 2249.66 350
	150 2249.66 -350
	150 2249.66 -250
	150 2249.66 -150
	150 2249.66 -50
	150 2249.66 50
	150 2249.66 150
	150 2249.66 250
	150 2249.66 350
	250 2249.66 -350
	250 2249.66 -250
	250 2249.66 -150
	250 2249.66 -50
	250 2249.66 50
	250 2249.66 150
	250 2249.66 250
	250 2249.66 350
	350 2249.66 -350
	350 2249.66 -250
	350 2249.66 -150
	350 2249.66 -50
	350 2249.66 50
	350 2249.66 150
	350 2249.66 250
	350 2249.66 350
	-350 2349.66 -350
	-350 2349.66 -250
	-350 2349.66 -150
	-350 2349.66 -50
	-350 2349.66 50
	-350 2349.66 150
	-350 2349.66 250
	-350 2349.66 350
	-250 2349.66 -350
	-250 2349.66 -250
	-250 2349.66 -150
	-250 2349.66 -50
	-250 2349.66 50
	-250 2349.66 150
	-250 2349.66 250
	-250 2349.66 350
	-150 2349.66 -350
	-150 2349.66 -250
	-150 2349.66 -150
	-150 2349.66 -50
	-150 2349.66 50
	-150 2349.66 150
	-150 2349.66 250
	-150 2349.66 350
	-50 2349.66 -350
	-50 2349.66 -250
	-50 2349.66 -150
	-50 2349.66 -50
	-50 2349.66 50
	-50 2349.66 150
	-50 2349.66 250
	-50 2349.66 350
	50 2349.66 -350
	50 2349.66 -250
	50 2349.66 -150
	50 2349.66 -50
	50 2349.66 50
	50 2349.66 150
	50 2349.66 250
	50 2349.66 350
	150 2349.66 -350
	150 2349.66 -250
	150 2349.66 -150
	150 2349.66 -50
	150 2349.66 50
	150 2349.66 150
	150 2349.66 250
	150 2349.66 350
	250 2349.66 -350
	250 2349.66 -250
	250 2349.66 -150
	250 2349.66 -50
	250 2349.66 50
	250 2349.66 150
	250 2349.66 250
	250 2349.66 350
	350 2349.66 -350
	350 2349.66 -250
	350 2349.66 -150
	350 2349.66 -50
	350 2349.66 50
	350 2349.66 150
	350 2349.66 250
	350 2349.66 350
	-350 2449.66 -350
	-350 2449.66 -250
	-350 2449.66 -150
	-350 2449.66 -50
	-350 2449.66 50
	-350 2449.66 150
	-350 2449.66 250
	-350 2449.66 350
	-250 2449.66 -350
	-250 2449.66 -250
	-250 2449.66 -150
	-250 2449.66 -50
	-250 2449.66 50
	-250 2449.66 150
	-250 2449.66 250
	-250 2449.66 350
	-150 2449.66 -350
	-150 2449.66 -250
	-150 2449.66 -150
	-150 2449.66 -50
	-150 2449.66 50
	-150 2449.66 150
	-150 2449.66 250
	-150 2449.66 350
	-50 2449.66 -350
	-50 2449.66 -250
	-50 2449.66 -150
	-50 2449.66 -50
	-50 2449.66 50
	-50 2449.66 150
	-50 2449.66 250
	-50 2449.66 350
	50 2449.66 -350
	50 2449.66 -250
	50 2449.66 -150
	50 2449.66 -50
	50 2449.66 50
	50 2449.66 150
	50 2449.66 250
	50 2449.66 350
	150 2449.66 -350
	150 2449.66 -250
	150 2449.66 -150
	150 2449.66 -50
	150 2449.66 50
	150 2449.66 150
	150 2449.66 250
	150 2449.66 350
	250 2449.66 -350
	250 2449.66 -250
	250 2449.66 -150
	250 2449.66 -50
	250 2449.66 50
	250 2449.66 150
	250 2449.66 250
	250 2449.66 350
	350 2449.66 -350
	350 2449.66 -250
	350 2449.66 -150
	350 2449.66 -50
	350 2449.66 50
	350 2449.66 150
	350 2449.66 250
	350 2449.66 350
	-350 2549.66 -350
	-350 2549.66 -250
	-350 2549.66 -150
	-350 2549.66 -50
	-350 2549.66 50
	-350 2549.66 150
	-350 2549.66 250
	-350 2549.66 350
	-250 2549.66 -350
	-250 2549.66 -250
	-250 2549.66 -150
	-250 2549.66 -50
	-250 2549.66 50
	-250 2549.66 150
	-250 2549.66 250
	-250 2549.66 350
	-150 2549.66 -350
	-150 2549.66 -250
	-150 2549.66 -150
	-150 2549.66 -50
	-150 2549.66 50
	-150 2549.66 150
	-150 2549.66 250
	-150 2549.66 350
	-50 2549.66 -350
	-50 2549.66 -250
	-50 2549.66 -150
	-50 2549.66 -50
	-50 2549.66 50
	-50 2549.66 150
	-50 2549.66 250
	-50 2549.66 350
	50 2549.66 -350
	50 2549.66 -250
	50 2549.66 -150
	50 2549.66 -50
	50 2549.66 50
	50 2549.66 150
	50 2549.66 250
	50 2549.66 350
	150 2549.66 -350
	150 2549.66 -250
	150 2549.66 -150
	150 2549.66 -50
	150 2549.66 50
	150 2549.66 150
	150 2549.66 250
	150 2549.66 350
	250 2549.66 -350
	250 2549.66 -250
	250 2549.66 -150
	250 2549.66 -50
	250 2549.66 50
	250 2549.66 150
	250 2549.66 250
	250 2549.66 350
	350 2549.66 -350
	350 2549.66 -250
	350 2549.66 -150
	350 2549.66 -50
	350 2549.66 50
	350 2549.66 150
	350 2549.66 250
	350 2549.66 350
	-350 2649.66 -350
	-350 2649.66 -250
	-350 2649.66 -150
	-350 2649.66 -50
	-350 2649.66 50
	-350 2649.66 150
	-350 2649.66 250
	-350 2649.66 350
	-250 2649.66 -350
	-250 2649.66 -250
	-250 2649.66 -150
	-250 2649.66 -50
	-250 2649.66 50
	-250 2649.66 150
	-250 2649.66 250
	-250 2649.66 350
	-150 2649.66 -350
	-150 2649.66 -250
	-150 2649.66 -150
	-150 2649.66 -50
	-150 2649.66 50
	-150 2649.66 150
	-150 2649.66 250
	-150 2649.66 350
	-50 2649.66 -350
	-50 2649.66 -250
	-50 2649.66 -150
	-50 2649.66 -50
	-50 2649.66 50
	-50 2649.66 150
	-50 2649.66 250
	-50 2649.66 350
	50 2649.66 -350
	50 2649.66 -250
	50 2649.66 -150
	50 2649.66 -50
	50 2649.66 50
	50 2649.66 150
	50 2649.66 250
	50 2649.66 350
	150 2649.66 -350
	150 2649.66 -250
	150 2649.66 -150
	150 2649.66 -50
	150 2649.66 50
	150 2649.66 150
	150 2649.66 250
	150 2649.66 350
	250 2649.66 -350
	250 2649.66 -250
	250 2649.66 -150
	250 2649.66 -50
	250 2649.66 50
	250 2649.66 150
	250 2649.66 250
	250 2649.66 350
	350 2649.66 -350
	350 2649.66 -250
	350 2649.66 -150
	350 2649.66 -50
	350 2649.66 50
	350 2649.66 150
	350 2649.66 250
	350 2649.66 350
	-350 2749.66 -350
	-350 2749.66 -250
	-350 2749.66 -150
	-350 2749.66 -50
	-350 2749.66 50
	-350 2749.66 150
	-350 2749.66 250
	-350 2749.66 350
	-250 2749.66 -350
	-250 2749.66 -250
	-250 2749.66 -150
	-250 2749.66 -50
	-250 2749.66 50
	-250 2749.66 150
	-250 2749.66 250
	-250 2749.66 350
	-150 2749.66 -350
	-150 2749.66 -250
	-150 2749.66 -150
	-150 2749.66 -50
	-150 2749.66 50
	-150 2749.66 150
	-150 2749.66 250
	-150 2749.66 350
	-50 2749.66 -350
	-50 2749.66 -250
	-50 2749.66 -150
	-50 2749.66 -50
	-50 2749.66 50
	-50 2749.66 150
	-50 2749.66 250
	-50 2749.66 350
	50 2749.66 -350
	50 2749.66 -250
	50 2749.66 -150
	50 2749.66 -50
	50 2749.66 50
	50 2749.66 150
	50 2749.66 250
	50 2749.66 350
	150 2749.66 -350
	150 2749.66 -250
	150 2749.66 -150
	150 2749.66 -50
	150 2749.66 50
	150 2749.66 150
	150 2749.66 250
	150 2749.66 350
	250 2749.66 -350
	250 2749.66 -250
	250 2749.66 -150
	250 2749.66 -50
	250 2749.66 50
	250 2749.66 150
	250 2749.66 250
	250 2749.66 350
	350 2749.66 -350
	350 2749.66 -250
	350 2749.66 -150
	350 2749.66 -50
	350 2749.66 50
	350 2749.66 150
	350 2749.66 250
	350 2749.66 350
	-350 2849.66 -350
	-350 2849.66 -250
	-350 2849.66 -150
	-350 2849.66 -50
	-350 2849.66 50
	-350 2849.66 150
	-350 2849.66 250
	-350 2849.66 350
	-250 2849.66 -350
	-250 2849.66 -250
	-250 2849.66 -150
	-250 2849.66 -50
	-250 2849.66 50
	-250 2849.66 150
	-250 2849.66 250
	-250 2849.66 350
	-150 2849.66 -350
	-150 2849.66 -250
	-150 2849.66 -150
	-150 2849.66 -50
	-150 2849.66 50
	-150 2849.66 150
	-150 2849.66 250
	-150 2849.66 350
	-50 2849.66 -350
	-50 2849.66 -250
	-50 2849.66 -150
	-50 2849.66 -50
	-50 2849.66 50
	-50 2849.66 150
	-50 2849.66 250
	-50 2849.66 350
	50 2849.66 -350
	50 2849.66 -250
	50 2849.66 -150
	50 2849.66 -50
	50 2849.66 50
	50 2849.66 150
	50 2849.66 250
	50 2849.66 350
	150 2849.66 -350
	150 2849.66 -250
	150 2849.66 -150
[...]
<PointData  Vectors="vector">
  <DataArray type="Float32" Name="Velocity" NumberOfComponents="3" format="ascii">
 -6.04896e-10 -0.000164354 -2.13958e-10
 -4.70483e-10 -0.000164354 7.77283e-11
 -3.1752e-10 -0.000164353 -5.16187e-10
 7.95985e-11 -0.000164353 3.01329e-11
 1.27974e-11 -0.000164358 -1.53623e-10
 -1.16307e-11 -0.000164352 -1.02359e-10
 1.53501e-10 -0.000164347 -2.16045e-10
 -1.00008e-10 -0.000164341 2.61789e-10
 -6.68237e-10 -0.000164353 -9.84667e-11
 -1.58059e-10 -0.000164351 -1.40362e-10
 -3.26173e-10 -0.000164349 -3.28978e-10
 5.13103e-12 -0.000164346 -3.03064e-11
 -1.98339e-10 -0.000164354 -2.69249e-10
 3.09601e-10 -0.00016435 8.5136e-11
 -1.46549e-10 -0.000164345 3.56985e-12
 1.83962e-10 -0.00016434 3.13461e-11
 -5.38412e-10 -0.000164353 -4.17867e-11
 -8.73502e-11 -0.000164348 5.8574e-11
 8.71199e-11 -0.000164344 -2.99557e-10
 -1.61903e-12 -0.00016434 -2.42949e-10
 1.97365e-10 -0.00016435 1.94381e-11
 -2.4361e-10 -0.000164346 -1.78375e-10
 5.86889e-11 -0.000164343 -1.61738e-10
 -1.55156e-11 -0.000164339 1.84305e-10
 -2.83057e-10 -0.000164352 -3.45528e-11
 -1.88064e-10 -0.000164346 4.89366e-11
 2.7537e-11 -0.00016434 -1.89291e-12
 8.93291e-11 -0.000164333 -1.64978e-10
 1.61874e-10 -0.000164346 -1.76678e-10
 -1.03329e-10 -0.000164343 -3.28314e-10
 1.06727e-10 -0.000164341 -1.43243e-10
 4.67166e-11 -0.000164338 2.23853e-10
 -1.25505e-10 -0.000164357 2.85032e-11
 -3.45645e-10 -0.000164352 8.44922e-11
 1.26382e-10 -0.000164348 2.38556e-11
 1.29662e-10 -0.000164344 -3.17697e-10
 6.24595e-11 -0.000164344 -3.87182e-10
 1.55452e-10 -0.000164344 -1.8598e-10
 -1.34386e-10 -0.000164343 -2.68879e-11
 2.28803e-10 -0.000164342 3.3353e-10
 1.06075e-10 -0.000164352 -2.04483e-12
 -2.38664e-10 -0.000164349 -5.28284e-11
 -6.3142e-11 -0.000164345 9.82554e-11
 3.87136e-12 -0.000164342 -2.87361e-10
 3.46736e-11 -0.000164344 -1.81756e-10
 -1.73996e-10 -0.000164343 3.76289e-11
 5.9522e-12 -0.000164343 5.81734e-12
 -5.27398e-11 -0.000164343 -1.26441e-10
 -9.88705e-12 -0.000164347 9.34792e-11
 4.23015e-11 -0.000164345 1.09433e-10
 -1.43114e-10 -0.000164342 -5.21394e-11
 -1.34931e-10 -0.00016434 -4.69328e-10
 -1.40366e-10 -0.000164344 -2.23973e-10
 1.39037e-11 -0.000164344 -1.19958e-10
 -2.44134e-11 -0.000164343 -1.13554e-10
 -1.16703e-10 -0.000164343 2.05952e-10
 8.08376e-11 -0.000164342 8.0175e-11
 2.13965e-10 -0.000164341 -2.71322e-11
 1.88026e-10 -0.00016434 -1.89053e-10
 2.19166e-10 -0.000164338 -2.35357e-10
 1.52289e-10 -0.000164344 -1.2768e-10
 3.19912e-10 -0.000164344 -1.19927e-10
 2.30348e-10 -0.000164344 -1.53174e-10
 5.88939e-11 -0.000164343 1.40666e-10
 -5.10108e-10 0.000222071 -1.07858e-10
 -3.26062e-10 0.00022208 -3.01584e-10
 -1.12145e-10 0.000222082 5.93473e-11
 3.58473e-12 0.000222129 -2.98326e-10
 3.09713e-11 0.000222109 -1.38403e-10
 2.59786e-11 0.000222086 -1.87096e-11
 -3.27775e-11 0.000222034 3.57903e-11
 -2.58715e-11 0.000222009 1.30787e-10
 -5.18603e-10 0.000222067 -4.56898e-11
 -1.84444e-10 0.000222043 -1.024e-10
 7.93685e-11 0.000222026 -2.73064e-10
 -1.66919e-10 0.000222042 -2.43547e-10
 -1.66168e-10 0.000222089 -1.3966e-10
 1.7657e-11 0.000222096 -1.69544e-11
 -1.21587e-10 0.000222019 6.66284e-11
 6.16082e-11 0.000221969 5.08254e-11
 -2.27802e-11 0.000222059 2.58995e-11
 -3.99341e-10 0.000222011 -1.37276e-10
 -1.25029e-10 0.000222013 -2.92326e-10
 7.12772e-11 0.000221961 -8.84984e-11
 -1.69911e-10 0.000222077 -1.76709e-10
 1.13805e-10 0.000222008 -1.86759e-10
 3.00972e-11 0.00022199 -9.85825e-11
 -6.87515e-11 0.000221919 1.85553e-10
 -1.21286e-10 0.000222087 -4.05582e-11
 3.26058e-11 0.000222013 -3.84759e-11
 -7.29717e-11 0.000221944 -1.87113e-10
 5.96682e-11 0.000221846 -1.55081e-10
 -6.90909e-11 0.00022205 -1.81479e-10
 -6.35363e-12 0.000221983 -1.17153e-10
 8.41385e-11 0.000221965 -1.77106e-10
 2.70784e-11 0.000221886 6.34431e-11
 -3.10572e-10 0.000222066 -5.66231e-11
 -5.45464e-11 0.00022207 -7.25715e-11
 -1.40586e-10 0.000222077 -4.03874e-10
 6.62954e-11 0.000222065 -6.19676e-11
 4.98731e-11 0.000222028 -2.38938e-10
 2.80588e-12 0.000222035 -2.09917e-10
 1.60144e-11 0.000222016 -6.6295e-11
 4.31124e-11 0.000222009 2.10272e-10
 -1.04511e-10 0.00022206 5.59481e-11
 -1.64526e-10 0.000222076 -2.08384e-11
 -6.72775e-11 0.000222004 -3.77196e-10
 -3.63864e-11 0.000221978 -1.87973e-10
 -1.33223e-10 0.000222021 -2.08734e-10
 -1.14433e-10 0.00022201 -1.43682e-10
 -8.0791e-11 0.000221987 3.45688e-11
 8.20064e-11 0.000222012 1.38099e-10
 -1.13769e-10 0.00022203 9.93034e-12
 -1.03797e-10 0.000222009 9.41564e-11
 -1.80567e-10 0.000221979 -2.12656e-10
 -1.28961e-10 0.000221947 -8.50182e-11
 -6.21933e-11 0.000221991 -1.03867e-10
 -1.49008e-10 0.000221975 -1.75174e-10
 1.17388e-10 0.000221988 -8.08939e-11
 1.5659e-11 0.000221993 3.37789e-11
 2.79632e-10 0.000222023 3.02082e-11
 2.25916e-10 0.000221961 1.06839e-10
 9.28728e-11 0.000221899 -1.89305e-10
 5.30323e-11 0.000221851 -7.79159e-12
 1.40139e-10 0.000221974 -1.41004e-10
 -9.62354e-11 0.000221989 -6.04633e-11
 -4.45634e-11 0.000221982 9.40913e-13
 6.89306e-12 0.000221986 -6.90019e-11
 -8.7425e-11 0.000341267 1.60347e-11
 -1.41714e-10 0.00034128 -2.28127e-10
 -7.37869e-11 0.000341259 -1.80134e-10
 -5.03714e-11 0.000341225 6.80297e-11
 -4.10152e-10 0.000341229 -4.70446e-11
 -8.13295e-11 0.000341266 -1.12903e-10
 3.52719e-11 0.000341299 -8.80516e-11
 6.85414e-11 0.000341325 1.09893e-10
 -5.93381e-11 0.000341292 -9.04676e-11
 -2.711e-10 0.000341294 -2.61436e-10
 -2.42068e-12 0.000341312 -1.26728e-10
 -2.82731e-10 0.000341299 -2.55647e-11
 -2.70405e-10 0.00034125 -5.86866e-11
 -1.19545e-10 0.000341265 -1.17388e-10
 -1.05046e-10 0.000341329 -2.78138e-11
 -1.87076e-10 0.000341367 4.41947e-11
 -3.24503e-10 0.000341283 -3.17039e-10
 1.15233e-10 0.000341326 -1.74525e-11
 -1.69873e-10 0.000341327 -2.5488e-10
 -1.63607e-10 0.000341377 -7.79416e-11
 -5.66229e-11 0.000341265 -1.49105e-10
 -2.44138e-10 0.000341325 -1.10794e-10
 -8.93722e-11 0.000341344 -4.1435e-11
 7.21994e-11 0.000341409 1.02946e-10
 -8.14097e-11 0.000341265 -3.38596e-10
 -1.56289e-10 0.000341327 -2.55981e-10
 -1.74721e-10 0.000341392 -1.75137e-10
 5.99584e-12 0.00034148 -1.65669e-10
 4.45233e-11 0.000341302 -2.14177e-10
 -2.47466e-10 0.000341351 -1.26651e-10
 -1.09621e-10 0.00034137 1.7552e-11
 -2.75911e-11 0.000341433 1.91238e-10
 -1.73604e-10 0.000341267 -3.2597e-10
 -1.00412e-10 0.000341267 -3.12948e-10
 -1.18454e-11 0.000341266 -1.85208e-10
 -3.58849e-12 0.00034129 -2.40276e-10
 -1.18466e-10 0.000341316 -1.70658e-10
 -1.23114e-10 0.000341302 -2.04463e-10
 -1.01815e-10 0.000341315 1.97667e-11
 1.73313e-10 0.00034133 1.07075e-10
 -5.82867e-11 0.00034129 -1.04946e-10
 -1.93275e-10 0.000341282 -1.98972e-10
 -2.39088e-10 0.00034133 -7.56442e-11
 -1.87697e-10 0.000341355 -1.5727e-10
 -1.85104e-10 0.000341315 -1.68954e-10
 -7.80735e-11 0.000341335 -1.37156e-10
 -7.02625e-11 0.000341337 -6.04955e-11
 -3.44867e-11 0.000341321 1.02052e-11
 -1.0956e-10 0.000341303 -2.08161e-11
 -1.19542e-10 0.000341338 -4.58935e-11
 -7.68756e-11 0.000341356 -1.38344e-10
 3.48334e-12 0.000341386 -1.74216e-10
 -8.46905e-11 0.000341339 -1.2977e-10
 8.88659e-12 0.000341349 -8.88868e-11
 5.29744e-11 0.000341333 1.08839e-11
 -9.57536e-11 0.000341355 1.13317e-10
 3.86402e-11 0.000341314 5.65343e-11
 1.2833e-10 0.000341375 6.40912e-11
 1.2635e-10 0.000341426 2.09067e-11
 1.72777e-10 0.000341465 -1.34718e-10
 9.71657e-11 0.000341363 -2.09353e-10
 2.48265e-10 0.000341342 -3.43836e-11
 9.87595e-11 0.000341366 7.42335e-11
 8.89525e-11 0.000341354 1.08368e-10
 -1.52593e-10 -0.000835011 7.63012e-11
 -7.41956e-12 -0.000834994 -1.45205e-10
 -3.37694e-10 -0.000834998 -3.13559e-11
 -3.69219e-10 -0.00083498 -8.44615e-11
 -2.60862e-10 -0.000834964 -7.34699e-11
 -2.22777e-10 -0.000834984 -1.90888e-10
 -2.12548e-10 -0.000835014 -9.76828e-11
 8.269e-11 -0.000835037 2.46883e-10
 -9.67831e-11 -0.000834995 -9.7898e-11
 -2.84124e-10 -0.000835007 3.04842e-11
 -4.5382e-11 -0.000835005 -1.30826e-10
 -7.24816e-11 -0.000835009 -7.16539e-11
 -3.73075e-10 -0.00083499 -1.83629e-10
 -2.54552e-10 -0.000834991 -5.90503e-11
 -1.22767e-10 -0.000835001 -1.99454e-10
 1.19785e-10 -0.000835023 8.4939e-11
 2.87437e-10 -0.000834998 -4.36909e-10
 -1.13469e-10 -0.000835005 -5.51984e-11
 -8.72027e-11 -0.000835015 -2.35221e-10
 -3.73895e-10 -0.00083503 -1.93977e-10
 -3.67088e-10 -0.00083501 -7.35874e-11
 -3.10251e-10 -0.000835011 -1.13045e-10
 -6.07721e-11 -0.000835008 1.28165e-11
 2.8906e-11 -0.000835011 1.41097e-10
 -4.65639e-11 -0.000834982 -4.08985e-10
 2.77264e-11 -0.000835009 -2.27665e-10
 -5.32173e-11 -0.000835031 -2.10094e-10
 -1.53094e-10 -0.000835056 -1.60916e-10
 -1.06764e-10 -0.000835033 1.25993e-11
 -1.64675e-10 -0.000835026 -2.65399e-10
 -5.80084e-11 -0.000835007 -6.4688e-11
 -1.23571e-10 -0.000835003 4.38569e-11
 -2.3173e-10 -0.000834966 -5.27107e-10
 3.49944e-12 -0.00083499 -2.9717e-10
 -1.09579e-10 -0.000835011 -2.20355e-10
 5.16208e-11 -0.000835033 -1.98345e-10
 -1.10452e-10 -0.000835005 -3.49551e-10
 -1.218e-10 -0.000835008 -1.09478e-10
 9.87242e-11 -0.000835011 -7.1705e-11
 -3.45031e-11 -0.000835006 8.33966e-11
 -1.22526e-10 -0.000834985 -2.00041e-10
 -2.30506e-10 -0.000834993 -2.26161e-10
 -6.59709e-11 -0.000835011 -1.81144e-10
 -9.92164e-11 -0.000835027 -1.36789e-10
 -2.83092e-10 -0.000835009 -1.253e-10
 -5.03093e-11 -0.000835006 -9.37787e-11
 -1.54302e-10 -0.000835012 9.87529e-12
 -5.50096e-11 -0.000835007 -1.07628e-10
 -1.09162e-10 -0.000835014 -8.49758e-11
 -1.24637e-10 -0.000835003 -1.47724e-10
 -2.11762e-10 -0.00083501 -1.59894e-10
 9.7882e-12 -0.000835009 -2.77378e-11
 -1.2683e-10 -0.000835013 2.83272e-11
 -2.81878e-11 -0.000835012 -4.70058e-11
 -2.03157e-11 -0.000835008 8.32815e-11
 2.12258e-11 -0.000834996 -7.57261e-11
 1.3553e-10 -0.000835037 5.85769e-11
 2.05432e-10 -0.000835025 1.26812e-10
 2.0031e-10 -0.000835014 -3.44859e-12
 1.08738e-10 -0.000835006 2.41385e-11
 9.04469e-11 -0.000835009 1.17634e-12
 1.20924e-10 -0.000835009 -7.69449e-11
 4.52904e-12 -0.000834996 -8.29769e-12
 -5.87892e-11 -0.000835004 7.58736e-11
 9.73473e-11 -0.00237711 2.05975e-10
 2.89682e-11 -0.00237701 1.80651e-10
 -6.61481e-11 -0.00237699 -7.67803e-11
 -2.43697e-10 -0.00237689 -1.5733e-10
 -2.83606e-10 -0.00237694 -1.55499e-10
 -2.47652e-10 -0.00237697 -2.92103e-11
 -6.55171e-11 -0.002377 -4.17616e-11
 3.45164e-11 -0.002377 1.71408e-10
 3.94959e-11 -0.00237701 5.44884e-11
 6.77043e-12 -0.00237701 -1.88527e-10
 -2.38933e-10 -0.00237698 2.45713e-11
 -2.75005e-10 -0.00237694 -8.93938e-11
 -3.79272e-10 -0.00237697 -3.91948e-11
 -2.74978e-10 -0.00237697 -1.82182e-10
 -9.56928e-12 -0.00237695 -4.38911e-11
 9.39753e-11 -0.00237698 7.17813e-11
 -1.7605e-10 -0.00237699 -2.97314e-10
 -1.50651e-10 -0.00237698 -2.80131e-10
 -2.56556e-10 -0.00237699 -1.37474e-10
 -3.27959e-10 -0.00237697 -7.71475e-11
 -1.21486e-10 -0.00237697 -8.18577e-11
 -9.09349e-11 -0.00237697 -1.40837e-10
 1.11967e-11 -0.00237697 2.35829e-12
 -1.93165e-11 -0.00237695 1.2999e-10
 -1.95394e-10 -0.00237689 -2.36733e-10
 -1.92634e-11 -0.00237694 -2.90441e-10
 -1.31615e-10 -0.00237697 -2.40614e-10
 -1.66429e-10 -0.00237699 -1.05029e-10
 -1.83157e-10 -0.00237697 -1.78046e-10
 -1.67356e-10 -0.00237696 -1.2806e-10
 -1.18976e-10 -0.00237695 -2.08202e-10
 -1.1286e-10 -0.00237693 1.50173e-11
 -9.75159e-11 -0.00237695 -2.64599e-10
 -2.43699e-10 -0.00237697 -3.77967e-10
 -2.81428e-11 -0.00237697 -2.47013e-10
 -1.62758e-10 -0.00237696 -3.39978e-10
 -2.06271e-10 -0.00237694 -2.76066e-10
 -1.91402e-10 -0.00237696 -2.00842e-10
 -1.63433e-10 -0.00237695 -4.83739e-11
 -4.06223e-11 -0.00237694 1.75679e-10
 -3.2793e-11 -0.00237697 -2.82789e-10
 -2.26835e-10 -0.00237697 -2.02156e-10
 -1.10351e-10 -0.00237698 -1.98623e-10
 -1.50807e-10 -0.00237696 -2.05594e-10
 -2.54368e-10 -0.00237696 -7.53399e-11
 -1.00012e-10 -0.00237694 -3.63212e-11
 -1.12059e-10 -0.00237695 -3.51715e-11
 -5.00149e-11 -0.00237697 1.0028e-10
 6.69161e-11 -0.002377 -1.76064e-11
 3.48678e-12 -0.00237695 -3.66473e-12
 -1.86846e-10 -0.00237697 -2.3597e-11
 -6.35103e-11 -0.00237696 -7.46835e-11
 -8.81701e-11 -0.00237696 -8.92598e-11
 -4.82324e-11 -0.00237696 -6.24871e-11
 1.7864e-11 -0.00237697 4.03938e-11
 8.29289e-11 -0.00237696 -6.19175e-11
 8.97683e-11 -0.00237699 1.32382e-10
 5.16473e-11 -0.00237698 1.73767e-10
 1.2763e-10 -0.00237696 1.16669e-10
 1.58151e-10 -0.00237694 -5.10078e-12
 1.1905e-10 -0.00237695 -3.25019e-11
 1.86627e-10 -0.00237697 -1.69095e-11
 -3.05406e-11 -0.00237696 -8.94116e-11
 3.64382e-12 -0.002377 7.18569e-11
 -9.02538e-11 0.00194857 1.75655e-10
 -2.47471e-10 0.00194844 -8.99547e-11
 -3.29214e-10 0.00194843 -1.06324e-10
 -4.20369e-10 0.00194829 -2.44872e-11
 -3.24149e-10 0.00194832 -4.64293e-11
 -2.24526e-10 0.00194838 -1.00692e-11
 -1.73732e-11 0.00194846 -5.23536e-11
 9.39361e-11 0.00194849 6.99709e-11
 1.28626e-10 0.00194844 -1.87042e-10
 -2.19923e-11 0.00194846 7.42855e-11
 -1.00599e-10 0.00194842 -1.09528e-10
 -2.52366e-10 0.00194839 -2.39511e-11
 -3.86183e-10 0.00194839 -1.19288e-10
 -1.39812e-10 0.0019484 -1.39636e-10
 -6.20877e-11 0.00194839 -2.16084e-10
 4.64039e-11 0.00194845 1.115e-10
 -9.40059e-11 0.00194843 -2.95533e-10
 -1.4682e-10 0.00194842 -1.59846e-10
 -1.21433e-10 0.00194845 -2.73745e-10
 -1.84674e-10 0.00194846 -5.00124e-11
 -2.03884e-10 0.00194843 -2.46288e-10
 -1.65859e-10 0.00194843 -1.86523e-10
 -9.83063e-11 0.00194842 -3.53542e-11
 5.88617e-11 0.0019484 1.11882e-10
 3.31376e-11 0.0019483 -5.49097e-10
 5.56574e-11 0.00194839 -3.96299e-10
 -1.4814e-10 0.00194846 -1.77676e-10
 -2.24275e-10 0.00194851 -2.34143e-10
 -1.69739e-10 0.00194846 -2.43283e-10
 -1.47585e-10 0.00194843 -1.39017e-10
 -6.92765e-11 0.0019484 -2.73801e-11
 -5.7847e-11 0.00194837 1.05819e-10
 -4.82663e-11 0.00194833 -4.19431e-10
 -1.40202e-10 0.00194839 -4.15417e-10
 -7.61999e-11 0.00194843 -2.03564e-10
 -1.02166e-10 0.00194845 -2.07831e-10
 -2.42977e-10 0.00194839 -2.41989e-10
 -1.22494e-10 0.0019484 -2.66957e-10
 -8.33185e-11 0.0019484 -1.33261e-10
 -3.68122e-11 0.00194838 4.87874e-11
 -1.30571e-10 0.00194838 -1.67823e-10
 -1.27957e-10 0.0019484 -2.45426e-10
 -1.52575e-10 0.00194843 -1.62706e-10
 -1.45837e-10 0.00194843 -1.81309e-10
 -1.67482e-10 0.00194841 -1.2661e-10
 -1.50172e-10 0.00194838 -1.07451e-10
 -1.38922e-10 0.0019484 -1.47309e-10
 -2.70447e-11 0.00194841 -1.7823e-11
 -3.13997e-11 0.00194846 -3.7683e-11
 -3.40431e-11 0.00194839 -9.83683e-11
 -1.18122e-10 0.00194842 -2.70051e-11
 -4.26238e-11 0.0019484 -1.03327e-10
 -6.60944e-11 0.00194841 -6.87651e-12
 -2.3178e-11 0.0019484 -1.75432e-10
 9.16965e-12 0.00194843 -6.05851e-11
 5.39373e-11 0.0019484 3.65502e-11
 6.90821e-11 0.00194848 9.31865e-11
 1.18986e-10 0.00194845 1.97381e-11
 1.22216e-10 0.00194841 1.20778e-10
 6.79981e-11 0.00194838 -4.19599e-11
 8.70769e-11 0.00194839 -2.91603e-11
 3.49778e-11 0.00194842 -8.35359e-12
 5.66354e-11 0.0019484 8.90242e-12
 -1.34772e-13 0.00194846 4.72349e-11
 1.53189e-10 -0.00103802 1.90339e-10
 1.81157e-11 -0.00103797 -6.04514e-11
 -3.15907e-10 -0.00103797 -1.87013e-10
 -5.51614e-10 -0.00103792 4.41785e-11
 -4.83695e-10 -0.00103788 -1.58592e-10
 -3.66345e-10 -0.00103794 -1.63406e-10
 -1.17904e-10 -0.00103803 -3.72636e-11
 6.03816e-11 -0.00103809 1.39546e-10
 -4.61138e-11 -0.00103797 -1.73881e-12
 -1.36902e-10 -0.001038 -5.27383e-11
 -2.20702e-10 -0.00103798 -2.21157e-10
 -3.63192e-10 -0.001038 -2.80918e-10
 -3.1358e-10 -0.00103795 -1.17665e-10
 -1.88185e-10 -0.00103797 -1.60987e-10
 -9.9512e-11 -0.00103799 -3.06703e-11
 5.59787e-11 -0.00103805 7.83311e-11
 -6.452e-11 -0.00103797 -3.34546e-10
 -1.16194e-10 -0.00103798 -1.49757e-10
 -6.39395e-11 -0.00103802 -2.12947e-10
 -1.50356e-10 -0.00103805 -2.35245e-10
 -1.44324e-10 -0.00103801 -1.18908e-10
 -1.79381e-10 -0.00103801 -3.03613e-10
 -1.77883e-12 -0.001038 -7.32554e-11
 9.02765e-11 -0.001038 8.60649e-11
 4.16587e-13 -0.00103792 -6.94491e-10
 -7.34299e-11 -0.00103799 -4.09777e-10
 -8.66442e-11 -0.00103805 -2.74904e-10
 -7.64864e-11 -0.00103812 -2.15416e-10
 -1.7885e-10 -0.00103807 -2.19556e-10
 -5.91665e-11 -0.00103804 -4.76134e-11
 -1.082e-10 -0.001038 -5.15092e-11
 3.88066e-11 -0.00103797 1.60065e-11
 -7.99157e-11 -0.00103788 -4.24689e-10
 -5.8579e-11 -0.00103795 -4.75432e-10
 -2.14884e-10 -0.00103801 -3.68927e-10
 -1.61649e-10 -0.00103807 -3.52051e-10
 -2.03822e-10 -0.00103801 -3.53107e-10
 -4.43119e-11 -0.00103801 -2.15078e-10
 4.55041e-12 -0.00103801 9.14315e-11
 4.09373e-11 -0.00103799 4.55517e-11
 -1.09733e-10 -0.00103794 -3.71151e-10
 -1.06871e-10 -0.00103797 -1.65622e-10
 -3.4095e-11 -0.00103801 -1.76442e-10
 -4.4445e-11 -0.00103804 -2.66161e-10
 -1.98989e-10 -0.00103801 -2.46428e-10
 -1.15789e-10 -0.001038 -9.49861e-11
 -5.03422e-11 -0.001038 -5.11079e-11
 -1.01694e-11 -0.00103799 3.57349e-11
 -3.57541e-11 -0.00103802 -1.60891e-10
 -7.88485e-11 -0.00103799 -1.07222e-10
 -6.45335e-11 -0.001038 -1.55161e-10
 -4.05604e-11 -0.00103799 -7.52454e-11
 -2.63056e-11 -0.00103801 -1.00373e-10
 -4.37259e-11 -0.001038 -1.78527e-11
 2.54927e-11 -0.00103799 -4.09582e-11
 -7.55223e-11 -0.00103797 3.76856e-11
 5.58793e-11 -0.00103808 9.10418e-11
 1.40276e-11 -0.00103804 7.73652e-11
 5.0205e-11 -0.001038 -5.08937e-11
 2.56718e-11 -0.00103797 -3.176e-11
 1.47029e-11 -0.00103799 -2.20919e-11
 5.56665e-11 -0.00103799 -3.90871e-11
 1.23251e-13 -0.00103797 2.24382e-11
 4.54847e-11 -0.00103799 4.9143e-11
 1.80912e-10 0.000459781 1.66527e-10
 -8.42683e-11 0.000459802 -1.09133e-10
 -4.24906e-10 0.000459796 8.5487e-12
 -4.04767e-10 0.000459818 -1.10922e-10
 -4.23392e-10 0.000459803 -1.27179e-10
 -2.10474e-10 0.000459805 -8.91052e-11
 -1.16636e-10 0.000459818 -1.24562e-10
 4.48205e-11 0.000459835 2.92134e-11
 -9.23951e-11 0.000459802 -2.6084e-10
 -7.56763e-11 0.000459801 -1.13522e-10
 -1.46199e-10 0.000459802 5.60155e-12
 -3.04917e-10 0.000459811 -2.70003e-10
 -4.26832e-10 0.000459793 -2.64806e-10
 -3.25505e-10 0.000459794 -6.22197e-11
 -2.54157e-11 0.000459815 -6.50997e-11
 6.47822e-11 0.000459824 9.52408e-11
 -1.23444e-10 0.000459796 -2.8858e-10
 -2.19658e-10 0.000459802 -3.38028e-10
 -9.17137e-11 0.000459799 -1.77234e-10
 -1.50262e-10 0.000459807 -3.47786e-10
 -2.24855e-10 0.000459802 -2.45667e-10
 -1.93225e-10 0.000459802 -1.5045e-10
 -4.86613e-11 0.000459803 -6.51147e-11
 3.75769e-11 0.000459819 9.78195e-11
 2.1213e-11 0.000459818 -7.10092e-10
 -1.50741e-10 0.000459811 -3.67022e-10
 -1.73487e-10 0.000459807 -2.6932e-10
 -1.99714e-10 0.000459825 -3.62472e-10
 -1.73129e-10 0.000459816 -1.82505e-10
 -4.29954e-11 0.000459814 -1.47601e-10
 -6.79068e-11 0.000459808 -3.00104e-11
 6.36179e-11 0.000459812 -2.51713e-11
 -5.79275e-11 0.000459805 -6.30503e-10
 -7.75488e-11 0.000459796 -4.62317e-10
 -7.50916e-12 0.000459805 -3.61425e-10
 -1.99443e-10 0.000459818 -3.55755e-10
 -1.95973e-10 0.000459819 -2.5516e-10
 -1.47165e-10 0.000459819 -2.1484e-10
 -5.78562e-13 0.000459821 2.64475e-12
 5.12625e-11 0.000459828 4.76192e-11
 -1.05326e-10 0.000459803 -2.70014e-10
 -1.69107e-10 0.000459793 -2.3819e-10
 -1.17187e-10 0.000459803 -2.51265e-10
 -1.28326e-10 0.000459815 -2.97497e-10
 -1.13256e-10 0.000459818 -2.44874e-10
 -1.04461e-10 0.000459825 -2.33217e-10
 -1.20572e-11 0.000459822 -5.12777e-11
 1.86321e-11 0.000459799 1.0004e-10
 -2.24405e-11 0.000459811 -2.49989e-10
 2.67371e-11 0.00045981 -1.45827e-10
 -9.81373e-11 0.000459801 -1.62366e-10
 2.07638e-11 0.000459807 -1.34926e-10
 -1.22244e-10 0.000459817 1.95813e-11
 -5.83899e-11 0.00045982 -8.73206e-11
 -2.61506e-11 0.000459796 -4.03286e-11
 1.76329e-12 0.000459783 5.81523e-11
 1.0295e-10 0.000459824 6.75643e-11
 2.1562e-10 0.000459815 9.291e-11
 8.59017e-11 0.000459813 9.01016e-12
 -4.50668e-11 0.00045981 3.85504e-11
 9.3035e-11 0.000459822 -6.72716e-11
 1.3815e-10 0.000459796 -1.26387e-10
 -4.27149e-12 0.000459781 -6.6473e-11
 5.8405e-11 0.000459759 5.26286e-11
 1.028e-10 -0.000363477 -1.30556e-11
 -2.35491e-10 -0.000363484 -1.48113e-10
 -2.07118e-10 -0.000363504 2.03462e-11
 -6.3364e-10 -0.000363506 -2.74003e-10
 -3.63277e-10 -0.000363565 -1.53772e-10
 -3.86439e-10 -0.00036351 -1.40564e-10
 -2.38903e-10 -0.000363436 -8.12333e-11
 2.6459e-14 -0.000363359 1.26182e-11