<?xml version="1.0"?>
<VTKFile type="UnstructuredGrid" version="0.1" byte_order="LittleEndian" compressor="vtkZLibDataCompressor">
<UnstructuredGrid>
<Piece NumberOfPoints="960" NumberOfCells="120">
<Points>
<DataArray type="Float32" NumberOfComponents="3" format="ascii">
-4.000000e+02 -6.000000e+03 -4.000000e+02
0.000000e+00 -6.000000e+03 -4.000000e+02
-4.000000e+02 -5.600110e+03 -4.000000e+02
-3.799320e-10 -5.600110e+03 -4.000000e+02
-4.000000e+02 -6.000000e+03 0.000000e+00
0.000000e+00 -6.000000e+03 0.000000e+00
-4.000000e+02 -5.600110e+03 9.197650e-10
-8.530710e-10 -5.600110e+03 7.557520e-11
0.000000e+00 -6.000000e+03 -4.000000e+02
4.000000e+02 -6.000000e+03 -4.000000e+02
-3.799320e-10 -5.600110e+03 -4.000000e+02
4.000000e+02 -5.600110e+03 -4.000000e+02
0.000000e+00 -6.000000e+03 0.000000e+00
4.000000e+02 -6.000000e+03 0.000000e+00
-8.530710e-10 -5.600110e+03 7.557520e-11
4.000000e+02 -5.600110e+03 7.570960e-10
-4.000000e+02 -5.600110e+03 -4.000000e+02
-3.799320e-10 -5.600110e+03 -4.000000e+02
-4.000000e+02 -5.200220e+03 -4.000000e+02
-4.461030e-10 -5.200220e+03 -4.000000e+02
-4.000000e+02 -5.600110e+03 9.197650e-10
-8.530710e-10 -5.600110e+03 7.557520e-11
-4.000000e+02 -5.200220e+03 2.440750e-09
-3.098840e-10 -5.200220e+03 2.118640e-09
-3.799320e-10 -5.600110e+03 -4.000000e+02
4.000000e+02 -5.600110e+03 -4.000000e+02
-4.461030e-10 -5.200220e+03 -4.000000e+02
4.000000e+02 -5.200220e+03 -4.000000e+02
-8.530710e-10 -5.600110e+03 7.557520e-11
4.000000e+02 -5.600110e+03 7.570960e-10
-3.098840e-10 -5.200220e+03 2.118640e-09
4.000000e+02 -5.200220e+03 6.443640e-10
-4.000000e+02 -5.200220e+03 -4.000000e+02
-4.461030e-10 -5.200220e+03 -4.000000e+02
-4.000000e+02 -4.800300e+03 -4.000000e+02
-6.839330e-10 -4.800300e+03 -4.000000e+02
-4.000000e+02 -5.200220e+03 2.440750e-09
-3.098840e-10 -5.200220e+03 2.118640e-09
-4.000000e+02 -4.800300e+03 2.458830e-09
-7.896420e-11 -4.800300e+03 1.991490e-09
-4.461030e-10 -5.200220e+03 -4.000000e+02
4.000000e+02 -5.200220e+03 -4.000000e+02
-6.839330e-10 -4.800300e+03 -4.000000e+02
4.000000e+02 -4.800300e+03 -4.000000e+02
-3.098840e-10 -5.200220e+03 2.118640e-09
4.000000e+02 -5.200220e+03 6.443640e-10
-7.896420e-11 -4.800300e+03 1.991490e-09
4.000000e+02 -4.800300e+03 1.674710e-09
-4.000000e+02 -4.800300e+03 -4.000000e+02
-6.839330e-10 -4.800300e+03 -4.000000e+02
-4.000000e+02 -4.400320e+03 -4.000000e+02
-1.472830e-09 -4.400320e+03 -4.000000e+02
-4.000000e+02 -4.800300e+03 2.458830e-09
-7.896420e-11 -4.800300e+03 1.991490e-09
-4.000000e+02 -4.400320e+03 7.929320e-10
-5.326170e-10 -4.400320e+03 8.090010e-10
-6.839330e-10 -4.800300e+03 -4.000000e+02
4.000000e+02 -4.800300e+03 -4.000000e+02
-1.472830e-09 -4.400320e+03 -4.000000e+02
4.000000e+02 -4.400320e+03 -4.000000e+02
-7.896420e-11 -4.800300e+03 1.991490e-09
4.000000e+02 -4.800300e+03 1.674710e-09
-5.326170e-10 -4.400320e+03 8.090010e-10
4.000000e+02 -4.400320e+03 9.052350e-10
-4.000000e+02 -4.400320e+03 -4.000000e+02
-1.472830e-09 -4.400320e+03 -4.000000e+02
-4.000000e+02 -4.000310e+03 -4.000000e+02
-1.327770e-09 -4.000310e+03 -4.000000e+02
-4.000000e+02 -4.400320e+03 7.929320e-10
-5.326170e-10 -4.400320e+03 8.090010e-10
-4.000000e+02 -4.000310e+03 5.607100e-10
-7.399970e-10 -4.000310e+03 1.102440e-10
-1.472830e-09 -4.400320e+03 -4.000000e+02
4.000000e+02 -4.400320e+03 -4.000000e+02
-1.327770e-09 -4.000310e+03 -4.000000e+02
4.000000e+02 -4.000310e+03 -4.000000e+02
-5.326170e-10 -4.400320e+03 8.090010e-10
4.000000e+02 -4.400320e+03 9.052350e-10
-7.399970e-10 -4.000310e+03 1.102440e-10
4.000000e+02 -4.000310e+03 9.316320e-10
-4.000000e+02 -4.000310e+03 -4.000000e+02
-1.327770e-09 -4.000310e+03 -4.000000e+02
-4.000000e+02 -3.600280e+03 -4.000000e+02
-1.371090e-10 -3.600280e+03 -4.000000e+02
-4.000000e+02 -4.000310e+03 5.607100e-10
-7.399970e-10 -4.000310e+03 1.102440e-10
-4.000000e+02 -3.600280e+03 1.100710e-10
-4.378330e-10 -3.600280e+03 2.234330e-10
-1.327770e-09 -4.000310e+03 -4.000000e+02
4.000000e+02 -4.000310e+03 -4.000000e+02
-1.371090e-10 -3.600280e+03 -4.000000e+02
4.000000e+02 -3.600280e+03 -4.000000e+02
-7.399970e-10 -4.000310e+03 1.102440e-10
4.000000e+02 -4.000310e+03 9.316320e-10
-4.378330e-10 -3.600280e+03 2.234330e-10
4.000000e+02 -3.600280e+03 -3.683700e-10
-4.000000e+02 -3.600280e+03 -4.000000e+02
-1.371090e-10 -3.600280e+03 -4.000000e+02
-4.000000e+02 -3.200280e+03 -4.000000e+02
4.356320e-10 -3.200280e+03 -4.000000e+02
-4.000000e+02 -3.600280e+03 1.100710e-10
-4.378330e-10 -3.600280e+03 2.234330e-10
-4.000000e+02 -3.200280e+03 -5.648080e-10
-8.886580e-11 -3.200280e+03 -1.549310e-10
-1.371090e-10 -3.600280e+03 -4.000000e+02
4.000000e+02 -3.600280e+03 -4.000000e+02
4.356320e-10 -3.200280e+03 -4.000000e+02
4.000000e+02 -3.200280e+03 -4.000000e+02
-4.378330e-10 -3.600280e+03 2.234330e-10
4.000000e+02 -3.600280e+03 -3.683700e-10
-8.886580e-11 -3.200280e+03 -1.549310e-10
4.000000e+02 -3.200280e+03 -1.208700e-09
-4.000000e+02 -3.200280e+03 -4.000000e+02
4.356320e-10 -3.200280e+03 -4.000000e+02
-4.000000e+02 -2.800300e+03 -4.000000e+02
9.918900e-10 -2.800300e+03 -4.000000e+02
-4.000000e+02 -3.200280e+03 -5.648080e-10
-8.886580e-11 -3.200280e+03 -1.549310e-10
-4.000000e+02 -2.800300e+03 -5.831180e-10
2.085410e-10 -2.800300e+03 -4.498360e-10
4.356320e-10 -3.200280e+03 -4.000000e+02
4.000000e+02 -3.200280e+03 -4.000000e+02
9.918900e-10 -2.800300e+03 -4.000000e+02
4.000000e+02 -2.800300e+03 -4.000000e+02
-8.886580e-11 -3.200280e+03 -1.549310e-10
4.000000e+02 -3.200280e+03 -1.208700e-09
2.085410e-10 -2.800300e+03 -4.498360e-10
4.000000e+02 -2.800300e+03 -9.938670e-10
-4.000000e+02 -2.800300e+03 -4.000000e+02
9.918900e-10 -2.800300e+03 -4.000000e+02
-4.000000e+02 -2.400300e+03 -4.000000e+02
-1.381100e-10 -2.400300e+03 -4.000000e+02
-4.000000e+02 -2.800300e+03 -5.831180e-10
2.085410e-10 -2.800300e+03 -4.498360e-10
-4.000000e+02 -2.400300e+03 1.342400e-09
-9.861140e-11 -2.400300e+03 1.212250e-09
9.918900e-10 -2.800300e+03 -4.000000e+02
4.000000e+02 -2.800300e+03 -4.000000e+02
-1.381100e-10 -2.400300e+03 -4.000000e+02
4.000000e+02 -2.400300e+03 -4.000000e+02
2.085410e-10 -2.800300e+03 -4.498360e-10
4.000000e+02 -2.800300e+03 -9.938670e-10
-9.861140e-11 -2.400300e+03 1.212250e-09
4.000000e+02 -2.400300e+03 1.995590e-10
-4.000000e+02 -2.400300e+03 -4.000000e+02
-1.381100e-10 -2.400300e+03 -4.000000e+02
-4.000000e+02 -2.000290e+03 -4.000000e+02
-1.146460e-09 -2.000290e+03 -4.000000e+02
-4.000000e+02 -2.400300e+03 1.342400e-09
-9.861140e-11 -2.400300e+03 1.212250e-09
-4.000000e+02 -2.000290e+03 5.108440e-10
-3.906670e-10 -2.000290e+03 8.820220e-10
-1.381100e-10 -2.400300e+03 -4.000000e+02
4.000000e+02 -2.400300e+03 -4.000000e+02
-1.146460e-09 -2.000290e+03 -4.000000e+02
4.000000e+02 -2.000290e+03 -4.000000e+02
-9.861140e-11 -2.400300e+03 1.212250e-09
4.000000e+02 -2.400300e+03 1.995590e-10
-3.906670e-10 -2.000290e+03 8.820220e-10
4.000000e+02 -2.000290e+03 -5.858660e-10
-4.000000e+02 -2.000290e+03 -4.000000e+02
-1.146460e-09 -2.000290e+03 -4.000000e+02
-4.000000e+02 -1.600290e+03 -4.000000e+02
-4.850920e-10 -1.600290e+03 -4.000000e+02
-4.000000e+02 -2.000290e+03 5.108440e-10
-3.906670e-10 -2.000290e+03 8.820220e-10
-4.000000e+02 -1.600290e+03 3.210520e-10
3.212160e-11 -1.600290e+03 -1.272590e-10
-1.146460e-09 -2.000290e+03 -4.000000e+02
4.000000e+02 -2.000290e+03 -4.000000e+02
-4.850920e-10 -1.600290e+03 -4.000000e+02
4.000000e+02 -1.600290e+03 -4.000000e+02
-3.906670e-10 -2.000290e+03 8.820220e-10
4.000000e+02 -2.000290e+03 -5.858660e-10
3.212160e-11 -1.600290e+03 -1.272590e-10
4.000000e+02 -1.600290e+03 -9.349480e-10
-4.000000e+02 -1.600290e+03 -4.000000e+02
-4.850920e-10 -1.600290e+03 -4.000000e+02
-4.000000e+02 -1.200300e+03 -4.000000e+02
1.012930e-09 -1.200300e+03 -4.000000e+02
-4.000000e+02 -1.600290e+03 3.210520e-10
3.212160e-11 -1.600290e+03 -1.272590e-10
-4.000000e+02 -1.200300e+03 -2.074000e-10
9.748680e-10 -1.200300e+03 -1.924490e-10
-4.850920e-10 -1.600290e+03 -4.000000e+02
4.000000e+02 -1.600290e+03 -4.000000e+02
1.012930e-09 -1.200300e+03 -4.000000e+02
4.000000e+02 -1.200300e+03 -4.000000e+02
3.212160e-11 -1.600290e+03 -1.272590e-10
4.000000e+02 -1.600290e+03 -9.349480e-10
9.748680e-10 -1.200300e+03 -1.924490e-10
4.000000e+02 -1.200300e+03 -3.487850e-10
-4.000000e+02 -1.200300e+03 -4.000000e+02
1.012930e-09 -1.200300e+03 -4.000000e+02
-4.000000e+02 -8.002970e+02 -4.000000e+02
6.212800e-10 -8.002970e+02 -4.000000e+02
-4.000000e+02 -1.200300e+03 -2.074000e-10
9.748680e-10 -1.200300e+03 -1.924490e-10
-4.000000e+02 -8.002970e+02 -5.736580e-10
1.063810e-09 -8.002970e+02 -6.676110e-10
1.012930e-09 -1.200300e+03 -4.000000e+02
4.000000e+02 -1.200300e+03 -4.000000e+02
6.212800e-10 -8.002970e+02 -4.000000e+02
4.000000e+02 -8.002970e+02 -4.000000e+02
9.748680e-10 -1.200300e+03 -1.924490e-10
4.000000e+02 -1.200300e+03 -3.487850e-10
1.063810e-09 -8.002970e+02 -6.676110e-10
4.000000e+02 -8.002970e+02 -6.286320e-10
-4.000000e+02 -8.002970e+02 -4.000000e+02
6.212800e-10 -8.002970e+02 -4.000000e+02
-4.000000e+02 -4.002960e+02 -4.000000e+02
7.974340e-10 -4.002960e+02 -4.000000e+02
-4.000000e+02 -8.002970e+02 -5.736580e-10
1.063810e-09 -8.002970e+02 -6.676110e-10
-4.000000e+02 -4.002960e+02 1.911380e-10
3.077610e-10 -4.002960e+02 1.337940e-10
6.212800e-10 -8.002970e+02 -4.000000e+02
4.000000e+02 -8.002970e+02 -4.000000e+02
7.974340e-10 -4.002960e+02 -4.000000e+02
4.000000e+02 -4.002960e+02 -4.000000e+02
1.063810e-09 -8.002970e+02 -6.676110e-10
4.000000e+02 -8.002970e+02 -6.286320e-10
3.077610e-10 -4.002960e+02 1.337940e-10
4.000000e+02 -4.002960e+02 -6.214310e-10
-4.000000e+02 -4.002960e+02 -4.000000e+02
7.974340e-10 -4.002960e+02 -4.000000e+02
-4.000000e+02 -2.972770e-01 -4.000000e+02
-9.579890e-11 -2.972770e-01 -4.000000e+02
-4.000000e+02 -4.002960e+02 1.911380e-10
3.077610e-10 -4.002960e+02 1.337940e-10
-4.000000e+02 -2.972770e-01 2.168270e-10
-4.788120e-10 -2.972770e-01 4.883940e-10
7.974340e-10 -4.002960e+02 -4.000000e+02
4.000000e+02 -4.002960e+02 -4.000000e+02
-9.579890e-11 -2.972770e-01 -4.000000e+02
[...]
<PointData>
<DataArray type="Float32" Name="V1" format="ascii">
0.000000e+00
0.000000e+00
2.152440e-09
7.472590e-10
0.000000e+00
0.000000e+00
-2.026750e-09
-8.512960e-10
0.000000e+00
0.000000e+00
7.472590e-10
-1.272610e-09
0.000000e+00
0.000000e+00
-8.512960e-10
1.256900e-10
2.152440e-09
7.472590e-10
3.770700e-10
-8.707280e-10
-2.026750e-09
-8.512960e-10
2.340980e-09
3.517470e-10
7.472590e-10
-1.272610e-09
-8.707280e-10
1.099790e-10
-8.512960e-10
1.256900e-10
3.517470e-10
-1.335460e-09
3.770700e-10
-8.707280e-10
1.162630e-09
-6.268200e-10
2.340980e-09
3.517470e-10
1.853930e-09
1.542560e-09
-8.707280e-10
1.099790e-10
-6.268200e-10
-1.901060e-09
3.517470e-10
-1.335460e-09
1.542560e-09
1.398300e-09
1.162630e-09
-6.268200e-10
5.813160e-10
8.787210e-11
1.853930e-09
1.542560e-09
-2.372400e-09
8.309310e-10
-6.268200e-10
-1.901060e-09
8.787210e-11
2.796600e-09
1.542560e-09
1.398300e-09
8.309310e-10
6.755840e-10
5.813160e-10
8.787210e-11
-1.681100e-09
-5.298110e-10
-2.372400e-09
8.309310e-10
6.755840e-10
-1.211080e-10
8.787210e-11
2.796600e-09
-5.298110e-10
-2.199580e-10
8.309310e-10
6.755840e-10
-1.211080e-10
4.713380e-10
-1.681100e-09
-5.298110e-10
-3.456480e-10
9.272840e-11
6.755840e-10
-1.211080e-10
-1.429720e-09
2.561040e-10
-5.298110e-10
-2.199580e-10
9.272840e-11
-3.456480e-10
-1.211080e-10
4.713380e-10
2.561040e-10
-5.027600e-10
-3.456480e-10
9.272840e-11
-5.341830e-10
5.913490e-10
-1.429720e-09
2.561040e-10
1.476860e-09
1.803220e-10
9.272840e-11
-3.456480e-10
5.913490e-10
1.178340e-09
2.561040e-10
-5.027600e-10
1.803220e-10
-7.855630e-10
-5.341830e-10
5.913490e-10
-2.356690e-10
7.683440e-10
1.476860e-09
1.803220e-10
0.000000e+00
6.601180e-10
5.913490e-10
1.178340e-09
7.683440e-10
-2.356690e-10
1.803220e-10
-7.855630e-10
6.601180e-10
0.000000e+00
-2.356690e-10
7.683440e-10
-1.099790e-10
-3.097570e-10
0.000000e+00
6.601180e-10
7.227180e-10
-1.098770e-10
7.683440e-10
-2.356690e-10
-3.097570e-10
4.713380e-10
6.601180e-10
0.000000e+00
-1.098770e-10
0.000000e+00
-1.099790e-10
-3.097570e-10
6.127390e-10
2.377620e-10
7.227180e-10
-1.098770e-10
-3.299360e-10
6.383800e-10
-3.097570e-10
4.713380e-10
2.377620e-10
5.341830e-10
-1.098770e-10
0.000000e+00
6.383800e-10
6.284500e-11
6.127390e-10
2.377620e-10
-1.476860e-09
8.003900e-10
-3.299360e-10
6.383800e-10
4.242040e-10
4.175150e-10
2.377620e-10
5.341830e-10
8.003900e-10
-6.284500e-10
6.383800e-10
6.284500e-11
4.175150e-10
0.000000e+00
-1.476860e-09
8.003900e-10
-3.613590e-10
2.709430e-10
4.242040e-10
4.175150e-10
-1.445440e-09
-7.473890e-10
8.003900e-10
-6.284500e-10
2.709430e-10
-1.005520e-09
4.175150e-10
0.000000e+00
-7.473890e-10
-5.341830e-10
-3.613590e-10
2.709430e-10
-1.335460e-09
-1.151320e-10
-1.445440e-09
-7.473890e-10
6.284500e-11
6.880520e-10
2.709430e-10
-1.005520e-09
-1.151320e-10
1.162630e-09
-7.473890e-10
-5.341830e-10
6.880520e-10
-9.740980e-10
-1.335460e-09
-1.151320e-10
0.000000e+00
3.118870e-10
6.284500e-11
6.880520e-10
5.184710e-10
1.108610e-09
-1.151320e-10
1.162630e-09
3.118870e-10
1.665390e-09
6.880520e-10
-9.740980e-10
1.108610e-09
9.426750e-11
0.000000e+00
3.118870e-10
2.356690e-10
6.885870e-10
5.184710e-10
1.108610e-09
2.985140e-10
2.166550e-10
3.118870e-10
1.665390e-09
6.885870e-10
-3.456480e-10
1.108610e-09
9.426750e-11
2.166550e-10
-1.571130e-10
2.356690e-10
6.885870e-10
-4.713380e-11
-6.449750e-10
2.985140e-10
2.166550e-10
0.000000e+00
-8.831070e-10
6.885870e-10
-3.456480e-10
-6.449750e-10
-4.713380e-10
2.166550e-10
-1.571130e-10
-8.831070e-10
-2.670910e-10
-4.713380e-11
-6.449750e-10
-1.005520e-09
6.553560e-10
0.000000e+00
-8.831070e-10
0.000000e+00
1.030130e-09
-6.449750e-10
-4.713380e-10
6.553560e-10
5.027600e-10
-8.831070e-10
-2.670910e-10
1.030130e-09
6.127390e-10
-1.005520e-09
6.553560e-10
0.000000e+00
6.447710e-10
0.000000e+00
1.030130e-09
2.670910e-10
9.404650e-10
6.553560e-10
5.027600e-10
6.447710e-10
1.241190e-09
1.030130e-09
6.127390e-10
9.404650e-10
1.335460e-09
0.000000e+00
6.447710e-10
1.571130e-10
1.022380e-10
2.670910e-10
9.404650e-10
-8.484080e-10
-1.550960e-09
6.447710e-10
1.241190e-09
1.022380e-10
-6.127390e-10
9.404650e-10
1.335460e-09
-1.550960e-09
-3.393630e-09
1.571130e-10
1.022380e-10
0.000000e+00
-1.402660e-10
-8.484080e-10
-1.550960e-09
-4.084930e-10
1.095990e-09
1.022380e-10
-6.127390e-10
-1.402660e-10
-3.927810e-10
-1.550960e-09
-3.393630e-09
1.095990e-09
2.356690e-09
0.000000e+00
-1.402660e-10
7.070060e-10
6.311410e-10
-4.084930e-10
1.095990e-09
-1.256900e-10
-7.248890e-10
-1.402660e-10
-3.927810e-10
6.311410e-10
5.498940e-10
1.095990e-09
2.356690e-09
-7.248890e-10
-1.241190e-09
7.070060e-10
6.311410e-10
-3.487900e-09
-1.697320e-09
-1.256900e-10
-7.248890e-10
0.000000e+00
3.300330e-10
6.311410e-10
5.498940e-10
-1.697320e-09
2.670910e-10
-7.248890e-10
-1.241190e-09
3.300330e-10
9.112530e-10
-3.487900e-09
-1.697320e-09
3.016560e-09
1.294260e-09
0.000000e+00
3.300330e-10
-2.513800e-10
-7.822050e-10
-1.697320e-09
2.670910e-10
1.294260e-09
-3.770700e-10
3.300330e-10
9.112530e-10
-7.822050e-10
-1.366880e-09
3.016560e-09
1.294260e-09
1.539700e-09
-1.893150e-10
-2.513800e-10
-7.822050e-10
4.242040e-10
-1.637120e-09
1.294260e-09
-3.770700e-10
-1.893150e-10
-1.963910e-09
-7.822050e-10
-1.366880e-09
-1.637120e-09
-3.770700e-09
1.539700e-09
-1.893150e-10
-5.498940e-09
-2.763730e-09
4.242040e-10
-1.637120e-09
-6.755840e-10
1.542050e-09
-1.893150e-10
-1.963910e-09
-2.763730e-09
-6.284500e-11
-1.637120e-09
-3.770700e-09
1.542050e-09
3.723570e-09
-5.498940e-09
-2.763730e-09
8.798300e-10
1.247810e-09
-6.755840e-10
1.542050e-09
5.341830e-10
1.445090e-09
-2.763730e-09
-6.284500e-11
1.247810e-09
1.665390e-09
1.542050e-09
3.723570e-09
1.445090e-09
2.356690e-09
8.798300e-10
1.247810e-09
1.979620e-09
1.024840e-09
5.341830e-10
1.445090e-09
1.194060e-09
1.357650e-10
1.247810e-09
1.665390e-09
1.024840e-09
7.855630e-11
1.445090e-09
2.356690e-09
1.357650e-10
-9.269640e-10
1.979620e-09
1.024840e-09
-4.713380e-11
-8.341210e-11
1.194060e-09
1.357650e-10
-2.670910e-10
-3.595410e-10
1.024840e-09
7.855630e-11
-8.341210e-11
-6.284500e-11
1.357650e-10
-9.269640e-10
-3.595410e-10
-4.556260e-10
-4.713380e-11
-8.341210e-11
8.955420e-10
7.544670e-10
-2.670910e-10
-3.595410e-10
9.426750e-11
5.557780e-11
-8.341210e-11
-6.284500e-11
7.544670e-10
6.441610e-10
-3.595410e-10
-4.556260e-10
5.557780e-11
0.000000e+00
8.955420e-10
7.544670e-10
2.670910e-10
1.552140e-10
9.426750e-11
5.557780e-11
-1.571130e-10
-1.775220e-10
7.544670e-10
6.441610e-10
1.552140e-10
0.000000e+00
5.557780e-11
0.000000e+00
-1.775220e-10
-2.670910e-10
0.000000e+00
0.000000e+00
-2.026750e-09
-8.512960e-10
0.000000e+00
0.000000e+00
-3.613590e-10
-6.177550e-10
0.000000e+00
0.000000e+00
-8.512960e-10
1.256900e-10
0.000000e+00
0.000000e+00
-6.177550e-10
-1.712530e-09
-2.026750e-09
-8.512960e-10
2.340980e-09
3.517470e-10
-3.613590e-10
-6.177550e-10
-2.356690e-10
-1.712900e-09
-8.512960e-10
1.256900e-10
3.517470e-10
-1.335460e-09
-6.177550e-10
-1.712530e-09
-1.712900e-09
-2.168150e-09
2.340980e-09
3.517470e-10
1.853930e-09
1.542560e-09
-2.356690e-10
-1.712900e-09
6.598730e-10
-9.061960e-10
3.517470e-10
-1.335460e-09
1.542560e-09
1.398300e-09
-1.712900e-09
-2.168150e-09
-9.061960e-10
-8.169850e-10
1.853930e-09
1.542560e-09
-2.372400e-09
8.309310e-10
6.598730e-10
-9.061960e-10
-1.398300e-09
8.202480e-10
1.542560e-09
1.398300e-09
8.309310e-10
6.755840e-10
-9.061960e-10
-8.169850e-10
8.202480e-10
2.466670e-09
-2.372400e-09
8.309310e-10
6.755840e-10
-1.211080e-10
-1.398300e-09
8.202480e-10
1.571130e-10
2.276870e-10
8.309310e-10
6.755840e-10
-1.211080e-10
4.713380e-10
8.202480e-10
2.466670e-09
2.276870e-10
2.670910e-10
6.755840e-10
-1.211080e-10
-1.429720e-09
2.561040e-10
1.571130e-10
2.276870e-10
-2.356690e-10
-4.907960e-10
-1.211080e-10
4.713380e-10
2.561040e-10
-5.027600e-10
2.276870e-10
2.670910e-10
-4.907960e-10
7.855630e-11
-1.429720e-09
2.561040e-10
1.476860e-09
1.803220e-10
-2.356690e-10
-4.907960e-10
1.445440e-09
1.948940e-09
2.561040e-10
-5.027600e-10
1.803220e-10
-7.855630e-10
-4.907960e-10
7.855630e-11
1.948940e-09
7.698510e-10
1.476860e-09
1.803220e-10
0.000000e+00
6.601180e-10
1.445440e-09
1.948940e-09
5.498940e-10
8.828440e-10
1.803220e-10
-7.855630e-10
6.601180e-10
0.000000e+00
1.948940e-09
7.698510e-10
8.828440e-10
-1.523990e-09
0.000000e+00
6.601180e-10
7.227180e-10
-1.098770e-10
5.498940e-10
8.828440e-10
-3.456480e-10
-1.066840e-10
6.601180e-10
0.000000e+00
-1.098770e-10
0.000000e+00
8.828440e-10
-1.523990e-09
-1.066840e-10
1.775370e-09
7.227180e-10
-1.098770e-10
-3.299360e-10
6.383800e-10
-3.456480e-10
-1.066840e-10
3.362210e-09
1.155540e-09
-1.098770e-10
0.000000e+00
6.383800e-10
6.284500e-11
-1.066840e-10
1.775370e-09
1.155540e-09
0.000000e+00
-3.299360e-10
6.383800e-10
4.242040e-10
4.175150e-10
3.362210e-09
1.155540e-09
-6.441610e-10
5.450950e-10
6.383800e-10
6.284500e-11
4.175150e-10
0.000000e+00
1.155540e-09
0.000000e+00
5.450950e-10
8.169850e-10
4.242040e-10
4.175150e-10
-1.445440e-09
-7.473890e-10
-6.441610e-10
5.450950e-10
-1.241190e-09
-9.633010e-10
4.175150e-10
0.000000e+00
-7.473890e-10
-5.341830e-10
5.450950e-10
8.169850e-10
-9.633010e-10
-4.870490e-10
-1.445440e-09
-7.473890e-10
6.284500e-11
6.880520e-10
-1.241190e-09
-9.633010e-10
-1.241190e-09
6.484280e-10
-7.473890e-10
-5.341830e-10
6.880520e-10
-9.740980e-10
-9.633010e-10
-4.870490e-10
6.484280e-10
1.115500e-09
6.284500e-11
6.880520e-10
5.184710e-10
1.108610e-09
-1.241190e-09
6.484280e-10
0.000000e+00
-6.116670e-10
6.880520e-10
-9.740980e-10
1.108610e-09
9.426750e-11
6.484280e-10
1.115500e-09
-6.116670e-10
1.445440e-09
5.184710e-10
1.108610e-09
2.985140e-10
2.166550e-10
0.000000e+00
-6.116670e-10
2.985140e-10
4.401660e-10
1.108610e-09
9.426750e-11
2.166550e-10
-1.571130e-10
-6.116670e-10
1.445440e-09
4.401660e-10
-3.927810e-10
2.985140e-10
2.166550e-10
0.000000e+00
-8.831070e-10
2.985140e-10
4.401660e-10
-7.384290e-10
-1.561990e-09
2.166550e-10
-1.571130e-10
-8.831070e-10
-2.670910e-10
4.401660e-10
-3.927810e-10
-1.561990e-09
0.000000e+00
0.000000e+00
-8.831070e-10
0.000000e+00
1.030130e-09
-7.384290e-10
-1.561990e-09
1.319750e-09
1.272960e-09
-8.831070e-10
-2.670910e-10
1.030130e-09
6.127390e-10
-1.561990e-09
0.000000e+00
1.272960e-09
1.162630e-09
0.000000e+00
1.030130e-09
2.670910e-10
9.404650e-10
1.319750e-09
1.272960e-09
0.000000e+00
-4.844040e-11
1.030130e-09
6.127390e-10
9.404650e-10
1.335460e-09
1.272960e-09
1.162630e-09
-4.844040e-11
-1.728240e-10
2.670910e-10
9.404650e-10
-8.484080e-10
-1.550960e-09
0.000000e+00
-4.844040e-11
-1.492570e-09
-6.454110e-10
9.404650e-10
1.335460e-09
-1.550960e-09
-3.393630e-09
-4.844040e-11
-1.728240e-10
-6.454110e-10
-1.366880e-09
-8.484080e-10
-1.550960e-09
-4.084930e-10
1.095990e-09
-1.492570e-09
-6.454110e-10
9.426750e-11
3.483580e-09
-1.550960e-09
-3.393630e-09
1.095990e-09
2.356690e-09
-6.454110e-10
-1.366880e-09
3.483580e-09
6.630150e-09
-4.084930e-10
1.095990e-09
-1.256900e-10
-7.248890e-10
9.426750e-11
3.483580e-09
0.000000e+00
-3.260460e-09
1.095990e-09
2.356690e-09
-7.248890e-10
-1.241190e-09
3.483580e-09
6.630150e-09
-3.260460e-09
-6.425900e-09
-1.256900e-10
-7.248890e-10
0.000000e+00
3.300330e-10
0.000000e+00
-3.260460e-09
2.513800e-10
2.038770e-09
-7.248890e-10
-1.241190e-09
3.300330e-10
9.112530e-10
-3.260460e-09
-6.425900e-09
2.038770e-09
3.927810e-09
0.000000e+00
3.300330e-10
-2.513800e-10
-7.822050e-10
2.513800e-10
2.038770e-09
-1.351170e-09
-2.221150e-09
3.300330e-10
9.112530e-10
-7.822050e-10
-1.366880e-09
2.038770e-09
3.927810e-09
-2.221150e-09
-3.157960e-09
-2.513800e-10
-7.822050e-10
4.242040e-10
-1.637120e-09
-1.351170e-09
-2.221150e-09
-1.162630e-09
-3.339310e-09
-7.822050e-10
-1.366880e-09
-1.637120e-09
-3.770700e-09
-2.221150e-09
-3.157960e-09
-3.339310e-09
-5.593210e-09
4.242040e-10
-1.637120e-09
-6.755840e-10
1.542050e-09
-1.162630e-09
-3.339310e-09
1.461150e-09
6.035730e-09
-1.637120e-09
-3.770700e-09
1.542050e-09
3.723570e-09
-3.339310e-09
-5.593210e-09
6.035730e-09
1.068370e-08
-6.755840e-10
1.542050e-09
5.341830e-10
1.445090e-09
1.461150e-09
6.035730e-09
1.696820e-09
1.457710e-09
1.542050e-09
3.723570e-09
1.445090e-09
2.356690e-09
6.035730e-09
1.068370e-08
1.457710e-09
1.241190e-09
5.341830e-10
1.445090e-09
1.194060e-09
1.357650e-10
1.696820e-09
1.457710e-09
3.456480e-10
-8.154290e-10
1.445090e-09
2.356690e-09
1.357650e-10
-9.269640e-10
1.457710e-09
1.241190e-09
-8.154290e-10
-1.995330e-09
1.194060e-09
1.357650e-10
-2.670910e-10
-3.595410e-10
3.456480e-10
-8.154290e-10
-8.326970e-10
-7.050470e-10
1.357650e-10
-9.269640e-10
-3.595410e-10
-4.556260e-10
-8.154290e-10
-1.995330e-09
-7.050470e-10
-5.498940e-10
-2.670910e-10
-3.595410e-10
9.426750e-11
5.557780e-11
-8.326970e-10
-7.050470e-10
-1.256900e-10
-6.163790e-10
-3.595410e-10
-4.556260e-10
5.557780e-11
0.000000e+00
-7.050470e-10
-5.498940e-10
-6.163790e-10
-1.115500e-09
9.426750e-11
5.557780e-11
-1.571130e-10
-1.775220e-10
-1.256900e-10
-6.163790e-10
-3.927810e-10
-4.996970e-10
5.557780e-11
0.000000e+00
-1.775220e-10
-2.670910e-10
-6.163790e-10
-1.115500e-09
-4.996970e-10
-6.284500e-10
</DataArray>
<DataArray type="Float32" Name="V2" format="ascii">
0.000000e+00
0.000000e+00
2.663770e-02
2.663770e-02
0.000000e+00
0.000000e+00
2.663770e-02
2.663770e-02
0.000000e+00
0.000000e+00
2.663770e-02
2.663770e-02
0.000000e+00
0.000000e+00
2.663770e-02
2.663770e-02
2.663770e-02
2.663770e-02
4.144010e-02
4.144010e-02
2.663770e-02
2.663770e-02
4.144010e-02
4.144010e-02
2.663770e-02
2.663770e-02
4.144010e-02
4.144010e-02
2.663770e-02
2.663770e-02
4.144010e-02
4.144010e-02
4.144010e-02
4.144010e-02
2.349640e-02
2.349640e-02
4.144010e-02
4.144010e-02
2.349640e-02
2.349640e-02
4.144010e-02
4.144010e-02
2.349640e-02
2.349640e-02
4.144010e-02
4.144010e-02
2.349640e-02
2.349640e-02
2.349640e-02
2.349640e-02
-5.041940e-03
-5.041950e-03
2.349640e-02
2.349640e-02
-5.041940e-03
-5.041940e-03
2.349640e-02
2.349640e-02
-5.041950e-03
-5.041940e-03
2.349640e-02
2.349640e-02
-5.041940e-03
-5.041940e-03
-5.041940e-03
-5.041950e-03
-2.696730e-02
-2.696730e-02
-5.041940e-03
-5.041940e-03
-2.696730e-02
-2.696730e-02
-5.041950e-03
-5.041940e-03
-2.696730e-02
-2.696730e-02
-5.041940e-03
-5.041940e-03
-2.696730e-02
-2.696730e-02
-2.696730e-02
-2.696730e-02
-1.693080e-02
-1.693080e-02
-2.696730e-02
-2.696730e-02
-1.693080e-02
-1.693080e-02
-2.696730e-02
-2.696730e-02
-1.693080e-02
-1.693080e-02
-2.696730e-02
-2.696730e-02
-1.693080e-02
-1.693080e-02
-1.693080e-02
-1.693080e-02
1.297850e-02
1.297850e-02
-1.693080e-02
-1.693080e-02
1.297850e-02
1.297850e-02
-1.693080e-02
-1.693080e-02
1.297850e-02
1.297850e-02
-1.693080e-02
-1.693080e-02
1.297850e-02
1.297850e-02
1.297850e-02
1.297850e-02
1.024390e-02
1.024390e-02
1.297850e-02
1.297850e-02
1.024390e-02
1.024390e-02
1.297850e-02
1.297850e-02
1.024390e-02
1.024390e-02
1.297850e-02
1.297850e-02
1.024390e-02
1.024390e-02
1.024390e-02
1.024390e-02
-9.422550e-03
-9.422550e-03
1.024390e-02
1.024390e-02
-9.422550e-03
-9.422550e-03
1.024390e-02
1.024390e-02
-9.422550e-03
-9.422550e-03
1.024390e-02
1.024390e-02
-9.422550e-03
-9.422550e-03
-9.422550e-03
-9.422550e-03
-4.143650e-03
-4.143650e-03
-9.422550e-03
-9.422550e-03
-4.143640e-03
-4.143650e-03
-9.422550e-03
-9.422550e-03
-4.143650e-03
-4.143650e-03
-9.422550e-03
-9.422550e-03
-4.143650e-03
-4.143640e-03
-4.143650e-03
-4.143650e-03
5.352190e-03
5.352190e-03
-4.143640e-03
-4.143650e-03
5.352200e-03
5.352200e-03
-4.143650e-03
-4.143650e-03
5.352190e-03
5.352190e-03
-4.143650e-03
-4.143640e-03
5.352200e-03
5.352190e-03
5.352190e-03
5.352190e-03
-3.253260e-04
-3.253260e-04
5.352200e-03
5.352200e-03
-3.253240e-04
-3.253290e-04
5.352190e-03
5.352190e-03
-3.253260e-04
-3.253270e-04
5.352200e-03
5.352190e-03
-3.253290e-04
-3.253270e-04
-3.253260e-04
-3.253260e-04
-1.857830e-03
-1.857830e-03
-3.253240e-04
-3.253290e-04
-1.857830e-03
-1.857830e-03
-3.253260e-04
-3.253270e-04
-1.857830e-03
-1.857830e-03
-3.253290e-04
-3.253270e-04
-1.857830e-03
-1.857830e-03
-1.857830e-03
-1.857830e-03
8.454130e-04
8.454190e-04
-1.857830e-03
-1.857830e-03
8.454170e-04
8.454200e-04
-1.857830e-03
-1.857830e-03
8.454190e-04
8.454150e-04
-1.857830e-03
-1.857830e-03
8.454200e-04
8.454200e-04
8.454130e-04
8.454190e-04
-2.274720e-05
-2.275000e-05
8.454170e-04
8.454200e-04
-2.274610e-05
-2.275140e-05
8.454190e-04
8.454150e-04
-2.275000e-05
-2.274760e-05
8.454200e-04
8.454200e-04
-2.275140e-05
-2.274870e-05
-2.274720e-05
-2.275000e-05
-8.457960e-04
-8.457950e-04
-2.274610e-05
-2.275140e-05
-8.457980e-04
-8.457980e-04
-2.275000e-05
-2.274760e-05
-8.457950e-04
-8.457960e-04
-2.275140e-05
-2.274870e-05
-8.457980e-04
-8.457980e-04
-8.457960e-04
-8.457950e-04
1.766210e-04
1.766160e-04
-8.457980e-04
-8.457980e-04
1.766170e-04
1.766200e-04
-8.457950e-04
-8.457960e-04
1.766160e-04
1.766200e-04
-8.457980e-04
-8.457980e-04
1.766200e-04
1.766230e-04
1.766210e-04
1.766160e-04
-6.070900e-05
-6.070400e-05
1.766170e-04
1.766200e-04
-6.070260e-05
-6.070340e-05
1.766160e-04
1.766200e-04
-6.070400e-05
-6.070670e-05
1.766200e-04
1.766230e-04
-6.070340e-05
-6.070460e-05
-6.070900e-05
-6.070400e-05
-2.477120e-04
-2.477110e-04
-6.070260e-05
-6.070340e-05
-2.477150e-04
-2.477170e-04
-6.070400e-05
-6.070670e-05
-2.477110e-04
-2.477110e-04
-6.070340e-05
-6.070460e-05
-2.477170e-04
-2.477220e-04
-2.477120e-04
-2.477110e-04
-3.229900e-04
-3.230020e-04
-2.477150e-04
-2.477170e-04
-3.230020e-04
-3.229950e-04
-2.477110e-04
-2.477110e-04
-3.230020e-04
-3.229950e-04
-2.477170e-04
-2.477220e-04
-3.229950e-04
-3.229880e-04
-3.229900e-04
-3.230020e-04
-4.436350e-04
-4.436170e-04
-3.230020e-04
-3.229950e-04
-4.436180e-04
-4.436270e-04
-3.230020e-04
-3.229950e-04
-4.436170e-04
-4.436230e-04
-3.229950e-04
-3.229880e-04
-4.436270e-04
-4.436290e-04
-4.436350e-04
-4.436170e-04
-3.370120e-04
-3.370300e-04
-4.436180e-04
-4.436270e-04
-3.370300e-04
-3.370300e-04
-4.436170e-04
-4.436230e-04
-3.370300e-04
-3.370380e-04
-4.436270e-04
-4.436290e-04
-3.370300e-04
-3.370280e-04
-3.370120e-04
-3.370300e-04
-5.235730e-04
-5.235570e-04
-3.370300e-04
-3.370300e-04
-5.235600e-04
-5.235620e-04
-3.370300e-04
-3.370380e-04
-5.235570e-04
-5.235530e-04
-3.370300e-04
-3.370280e-04
-5.235620e-04
-5.235710e-04
-5.235730e-04
-5.235570e-04
-3.210610e-04
-3.210950e-04
-5.235600e-04
-5.235620e-04
-3.210950e-04
-3.210990e-04
-5.235570e-04
-5.235530e-04
-3.210950e-04
-3.211010e-04
-5.235620e-04
-5.235710e-04
-3.210990e-04
-3.211070e-04
-3.210610e-04
-3.210950e-04
-7.925350e-04
-7.925240e-04
-3.210950e-04
-3.210990e-04
-7.925210e-04
-7.925080e-04
-3.210950e-04
-3.211010e-04
-7.925240e-04
-7.925180e-04
-3.210990e-04
-3.211070e-04
-7.925080e-04
-7.924940e-04
-7.925350e-04
-7.925240e-04
-2.652030e-04
-2.651910e-04
-7.925210e-04
-7.925080e-04
-2.651940e-04
-2.651960e-04
-7.925240e-04
-7.925180e-04
-2.651910e-04
-2.651890e-04
-7.925080e-04
-7.924940e-04
-2.651960e-04
-2.651930e-04
-2.652030e-04
-2.651910e-04
1.292820e-04
1.292740e-04
-2.651940e-04
-2.651960e-04
1.292770e-04
1.292660e-04
-2.651910e-04
-2.651890e-04
1.292740e-04
1.292640e-04
-2.651960e-04
-2.651930e-04
1.292660e-04
1.292670e-04
1.292820e-04
1.292740e-04
-6.916550e-05
-6.915970e-05
1.292770e-04
1.292660e-04
-6.916040e-05
-6.915720e-05
1.292740e-04
1.292640e-04
-6.915970e-05
-6.915420e-05
1.292660e-04
1.292670e-04
-6.915720e-05
-6.915640e-05
-6.916550e-05
-6.915970e-05
-8.758630e-05
-8.759740e-05
-6.916040e-05
-6.915720e-05
-8.759590e-05
-8.759010e-05
-6.915970e-05
-6.915420e-05
-8.759740e-05
-8.759770e-05
-6.915720e-05
-6.915640e-05
-8.759010e-05
-8.759640e-05
-8.758630e-05
-8.759740e-05
5.478760e-04
5.478750e-04
-8.759590e-05
-8.759010e-05
5.478750e-04
5.478760e-04
-8.759740e-05
-8.759770e-05
5.478750e-04
5.478750e-04
-8.759010e-05
-8.759640e-05
5.478760e-04
5.478770e-04
0.000000e+00
0.000000e+00
2.663770e-02
2.663770e-02
0.000000e+00
0.000000e+00
2.663770e-02
2.663770e-02
0.000000e+00
0.000000e+00
2.663770e-02
2.663770e-02
0.000000e+00
0.000000e+00
2.663770e-02
2.663770e-02
2.663770e-02
2.663770e-02
4.144010e-02
4.144010e-02
2.663770e-02
2.663770e-02
4.144010e-02
4.144010e-02
2.663770e-02
2.663770e-02
4.144010e-02
4.144010e-02
2.663770e-02
2.663770e-02
4.144010e-02
4.144010e-02