<?xml version="1.0"?>
<VTKFile type="UnstructuredGrid" version="0.1" byte_order="LittleEndian" compressor="vtkZLibDataCompressor">
<UnstructuredGrid>
<Piece NumberOfPoints="960" NumberOfCells="120">
<Points>
<DataArray type="Float32" NumberOfComponents="3" format="ascii">
-4.000000e+02 -6.000000e+03 -4.000000e+02
0.000000e+00 -6.000000e+03 -4.000000e+02
-4.000000e+02 -5.600070e+03 -4.000000e+02
-1.050720e-09 -5.600070e+03 -4.000000e+02
-4.000000e+02 -6.000000e+03 0.000000e+00
0.000000e+00 -6.000000e+03 0.000000e+00
-4.000000e+02 -5.600070e+03 1.563680e-09
-6.819980e-10 -5.600070e+03 1.032190e-09
0.000000e+00 -6.000000e+03 -4.000000e+02
4.000000e+02 -6.000000e+03 -4.000000e+02
-1.050720e-09 -5.600070e+03 -4.000000e+02
4.000000e+02 -5.600070e+03 -4.000000e+02
0.000000e+00 -6.000000e+03 0.000000e+00
4.000000e+02 -6.000000e+03 0.000000e+00
-6.819980e-10 -5.600070e+03 1.032190e-09
4.000000e+02 -5.600070e+03 -1.109560e-09
-4.000000e+02 -5.600070e+03 -4.000000e+02
-1.050720e-09 -5.600070e+03 -4.000000e+02
-4.000000e+02 -5.200150e+03 -4.000000e+02
-3.937190e-10 -5.200150e+03 -4.000000e+02
-4.000000e+02 -5.600070e+03 1.563680e-09
-6.819980e-10 -5.600070e+03 1.032190e-09
-4.000000e+02 -5.200150e+03 1.557090e-09
-8.342070e-10 -5.200150e+03 8.018220e-10
-1.050720e-09 -5.600070e+03 -4.000000e+02
4.000000e+02 -5.600070e+03 -4.000000e+02
-3.937190e-10 -5.200150e+03 -4.000000e+02
4.000000e+02 -5.200150e+03 -4.000000e+02
-6.819980e-10 -5.600070e+03 1.032190e-09
4.000000e+02 -5.600070e+03 -1.109560e-09
-8.342070e-10 -5.200150e+03 8.018220e-10
4.000000e+02 -5.200150e+03 9.608580e-10
-4.000000e+02 -5.200150e+03 -4.000000e+02
-3.937190e-10 -5.200150e+03 -4.000000e+02
-4.000000e+02 -4.800240e+03 -4.000000e+02
1.084670e-10 -4.800240e+03 -4.000000e+02
-4.000000e+02 -5.200150e+03 1.557090e-09
-8.342070e-10 -5.200150e+03 8.018220e-10
-4.000000e+02 -4.800240e+03 2.209720e-09
2.967680e-10 -4.800240e+03 1.822460e-09
-3.937190e-10 -5.200150e+03 -4.000000e+02
4.000000e+02 -5.200150e+03 -4.000000e+02
1.084670e-10 -4.800240e+03 -4.000000e+02
4.000000e+02 -4.800240e+03 -4.000000e+02
-8.342070e-10 -5.200150e+03 8.018220e-10
4.000000e+02 -5.200150e+03 9.608580e-10
2.967680e-10 -4.800240e+03 1.822460e-09
4.000000e+02 -4.800240e+03 1.747180e-09
-4.000000e+02 -4.800240e+03 -4.000000e+02
1.084670e-10 -4.800240e+03 -4.000000e+02
-4.000000e+02 -4.400300e+03 -4.000000e+02
-3.332790e-11 -4.400300e+03 -4.000000e+02
-4.000000e+02 -4.800240e+03 2.209720e-09
2.967680e-10 -4.800240e+03 1.822460e-09
-4.000000e+02 -4.400300e+03 1.429310e-09
-4.387320e-11 -4.400300e+03 9.218600e-10
1.084670e-10 -4.800240e+03 -4.000000e+02
4.000000e+02 -4.800240e+03 -4.000000e+02
-3.332790e-11 -4.400300e+03 -4.000000e+02
4.000000e+02 -4.400300e+03 -4.000000e+02
2.967680e-10 -4.800240e+03 1.822460e-09
4.000000e+02 -4.800240e+03 1.747180e-09
-4.387320e-11 -4.400300e+03 9.218600e-10
4.000000e+02 -4.400300e+03 1.189680e-09
-4.000000e+02 -4.400300e+03 -4.000000e+02
-3.332790e-11 -4.400300e+03 -4.000000e+02
-4.000000e+02 -4.000330e+03 -4.000000e+02
-7.769440e-10 -4.000330e+03 -4.000000e+02
-4.000000e+02 -4.400300e+03 1.429310e-09
-4.387320e-11 -4.400300e+03 9.218600e-10
-4.000000e+02 -4.000330e+03 -5.590930e-11
-9.675730e-10 -4.000330e+03 -2.990870e-11
-3.332790e-11 -4.400300e+03 -4.000000e+02
4.000000e+02 -4.400300e+03 -4.000000e+02
-7.769440e-10 -4.000330e+03 -4.000000e+02
4.000000e+02 -4.000330e+03 -4.000000e+02
-4.387320e-11 -4.400300e+03 9.218600e-10
4.000000e+02 -4.400300e+03 1.189680e-09
-9.675730e-10 -4.000330e+03 -2.990870e-11
4.000000e+02 -4.000330e+03 1.548980e-10
-4.000000e+02 -4.000330e+03 -4.000000e+02
-7.769440e-10 -4.000330e+03 -4.000000e+02
-4.000000e+02 -3.600310e+03 -4.000000e+02
-9.511530e-10 -3.600310e+03 -4.000000e+02
-4.000000e+02 -4.000330e+03 -5.590930e-11
-9.675730e-10 -4.000330e+03 -2.990870e-11
-4.000000e+02 -3.600310e+03 -3.068360e-11
-1.068150e-09 -3.600310e+03 2.276280e-10
-7.769440e-10 -4.000330e+03 -4.000000e+02
4.000000e+02 -4.000330e+03 -4.000000e+02
-9.511530e-10 -3.600310e+03 -4.000000e+02
4.000000e+02 -3.600310e+03 -4.000000e+02
-9.675730e-10 -4.000330e+03 -2.990870e-11
4.000000e+02 -4.000330e+03 1.548980e-10
-1.068150e-09 -3.600310e+03 2.276280e-10
4.000000e+02 -3.600310e+03 3.384270e-10
-4.000000e+02 -3.600310e+03 -4.000000e+02
-9.511530e-10 -3.600310e+03 -4.000000e+02
-4.000000e+02 -3.200280e+03 -4.000000e+02
5.287200e-10 -3.200280e+03 -4.000000e+02
-4.000000e+02 -3.600310e+03 -3.068360e-11
-1.068150e-09 -3.600310e+03 2.276280e-10
-4.000000e+02 -3.200280e+03 4.684480e-10
9.454550e-10 -3.200280e+03 1.753550e-10
-9.511530e-10 -3.600310e+03 -4.000000e+02
4.000000e+02 -3.600310e+03 -4.000000e+02
5.287200e-10 -3.200280e+03 -4.000000e+02
4.000000e+02 -3.200280e+03 -4.000000e+02
-1.068150e-09 -3.600310e+03 2.276280e-10
4.000000e+02 -3.600310e+03 3.384270e-10
9.454550e-10 -3.200280e+03 1.753550e-10
4.000000e+02 -3.200280e+03 7.403370e-10
-4.000000e+02 -3.200280e+03 -4.000000e+02
5.287200e-10 -3.200280e+03 -4.000000e+02
-4.000000e+02 -2.800280e+03 -4.000000e+02
-3.099960e-11 -2.800280e+03 -4.000000e+02
-4.000000e+02 -3.200280e+03 4.684480e-10
9.454550e-10 -3.200280e+03 1.753550e-10
-4.000000e+02 -2.800280e+03 -8.178930e-10
8.972450e-10 -2.800280e+03 -6.749760e-10
5.287200e-10 -3.200280e+03 -4.000000e+02
4.000000e+02 -3.200280e+03 -4.000000e+02
-3.099960e-11 -2.800280e+03 -4.000000e+02
4.000000e+02 -2.800280e+03 -4.000000e+02
9.454550e-10 -3.200280e+03 1.753550e-10
4.000000e+02 -3.200280e+03 7.403370e-10
8.972450e-10 -2.800280e+03 -6.749760e-10
4.000000e+02 -2.800280e+03 -4.288250e-10
-4.000000e+02 -2.800280e+03 -4.000000e+02
-3.099960e-11 -2.800280e+03 -4.000000e+02
-4.000000e+02 -2.400300e+03 -4.000000e+02
-7.533990e-11 -2.400300e+03 -4.000000e+02
-4.000000e+02 -2.800280e+03 -8.178930e-10
8.972450e-10 -2.800280e+03 -6.749760e-10
-4.000000e+02 -2.400300e+03 -2.163030e-10
5.753520e-10 -2.400300e+03 -6.760780e-10
-3.099960e-11 -2.800280e+03 -4.000000e+02
4.000000e+02 -2.800280e+03 -4.000000e+02
-7.533990e-11 -2.400300e+03 -4.000000e+02
4.000000e+02 -2.400300e+03 -4.000000e+02
8.972450e-10 -2.800280e+03 -6.749760e-10
4.000000e+02 -2.800280e+03 -4.288250e-10
5.753520e-10 -2.400300e+03 -6.760780e-10
4.000000e+02 -2.400300e+03 -1.234300e-09
-4.000000e+02 -2.400300e+03 -4.000000e+02
-7.533990e-11 -2.400300e+03 -4.000000e+02
-4.000000e+02 -2.000310e+03 -4.000000e+02
1.699010e-10 -2.000310e+03 -4.000000e+02
-4.000000e+02 -2.400300e+03 -2.163030e-10
5.753520e-10 -2.400300e+03 -6.760780e-10
-4.000000e+02 -2.000310e+03 6.085060e-10
4.865110e-10 -2.000310e+03 -6.067480e-11
-7.533990e-11 -2.400300e+03 -4.000000e+02
4.000000e+02 -2.400300e+03 -4.000000e+02
1.699010e-10 -2.000310e+03 -4.000000e+02
4.000000e+02 -2.000310e+03 -4.000000e+02
5.753520e-10 -2.400300e+03 -6.760780e-10
4.000000e+02 -2.400300e+03 -1.234300e-09
4.865110e-10 -2.000310e+03 -6.067480e-11
4.000000e+02 -2.000310e+03 3.117210e-10
-4.000000e+02 -2.000310e+03 -4.000000e+02
1.699010e-10 -2.000310e+03 -4.000000e+02
-4.000000e+02 -1.600290e+03 -4.000000e+02
-1.531160e-10 -1.600290e+03 -4.000000e+02
-4.000000e+02 -2.000310e+03 6.085060e-10
4.865110e-10 -2.000310e+03 -6.067480e-11
-4.000000e+02 -1.600290e+03 -4.327240e-10
4.644710e-10 -1.600290e+03 -4.724580e-10
1.699010e-10 -2.000310e+03 -4.000000e+02
4.000000e+02 -2.000310e+03 -4.000000e+02
-1.531160e-10 -1.600290e+03 -4.000000e+02
4.000000e+02 -1.600290e+03 -4.000000e+02
4.865110e-10 -2.000310e+03 -6.067480e-11
4.000000e+02 -2.000310e+03 3.117210e-10
4.644710e-10 -1.600290e+03 -4.724580e-10
4.000000e+02 -1.600290e+03 2.544440e-10
-4.000000e+02 -1.600290e+03 -4.000000e+02
-1.531160e-10 -1.600290e+03 -4.000000e+02
-4.000000e+02 -1.200290e+03 -4.000000e+02
1.115390e-10 -1.200290e+03 -4.000000e+02
-4.000000e+02 -1.600290e+03 -4.327240e-10
4.644710e-10 -1.600290e+03 -4.724580e-10
-4.000000e+02 -1.200290e+03 -5.095830e-11
2.900710e-10 -1.200290e+03 -7.155470e-10
-1.531160e-10 -1.600290e+03 -4.000000e+02
4.000000e+02 -1.600290e+03 -4.000000e+02
1.115390e-10 -1.200290e+03 -4.000000e+02
4.000000e+02 -1.200290e+03 -4.000000e+02
4.644710e-10 -1.600290e+03 -4.724580e-10
4.000000e+02 -1.600290e+03 2.544440e-10
2.900710e-10 -1.200290e+03 -7.155470e-10
4.000000e+02 -1.200290e+03 -8.040020e-10
-4.000000e+02 -1.200290e+03 -4.000000e+02
1.115390e-10 -1.200290e+03 -4.000000e+02
-4.000000e+02 -8.002990e+02 -4.000000e+02
8.285720e-10 -8.002990e+02 -4.000000e+02
-4.000000e+02 -1.200290e+03 -5.095830e-11
2.900710e-10 -1.200290e+03 -7.155470e-10
-4.000000e+02 -8.002990e+02 4.713590e-10
8.021340e-10 -8.002990e+02 -2.077630e-11
1.115390e-10 -1.200290e+03 -4.000000e+02
4.000000e+02 -1.200290e+03 -4.000000e+02
8.285720e-10 -8.002990e+02 -4.000000e+02
4.000000e+02 -8.002990e+02 -4.000000e+02
2.900710e-10 -1.200290e+03 -7.155470e-10
4.000000e+02 -1.200290e+03 -8.040020e-10
8.021340e-10 -8.002990e+02 -2.077630e-11
4.000000e+02 -8.002990e+02 -2.409170e-10
-4.000000e+02 -8.002990e+02 -4.000000e+02
8.285720e-10 -8.002990e+02 -4.000000e+02
-4.000000e+02 -4.002970e+02 -4.000000e+02
8.670910e-11 -4.002970e+02 -4.000000e+02
-4.000000e+02 -8.002990e+02 4.713590e-10
8.021340e-10 -8.002990e+02 -2.077630e-11
-4.000000e+02 -4.002970e+02 4.279920e-11
3.993250e-10 -4.002970e+02 -4.661720e-10
8.285720e-10 -8.002990e+02 -4.000000e+02
4.000000e+02 -8.002990e+02 -4.000000e+02
8.670910e-11 -4.002970e+02 -4.000000e+02
4.000000e+02 -4.002970e+02 -4.000000e+02
8.021340e-10 -8.002990e+02 -2.077630e-11
4.000000e+02 -8.002990e+02 -2.409170e-10
3.993250e-10 -4.002970e+02 -4.661720e-10
4.000000e+02 -4.002970e+02 4.511710e-10
-4.000000e+02 -4.002970e+02 -4.000000e+02
8.670910e-11 -4.002970e+02 -4.000000e+02
-4.000000e+02 -2.965610e-01 -4.000000e+02
-2.996840e-10 -2.965610e-01 -4.000000e+02
-4.000000e+02 -4.002970e+02 4.279920e-11
3.993250e-10 -4.002970e+02 -4.661720e-10
-4.000000e+02 -2.965610e-01 1.018410e-09
-8.439260e-11 -2.965610e-01 9.577350e-12
8.670910e-11 -4.002970e+02 -4.000000e+02
4.000000e+02 -4.002970e+02 -4.000000e+02
-2.996840e-10 -2.965610e-01 -4.000000e+02
[...]
<PointData>
<DataArray type="Float32" Name="V1" format="ascii">
0.000000e+00
0.000000e+00
-2.136730e-09
-1.067470e-09
0.000000e+00
0.000000e+00
8.484080e-10
8.560390e-10
0.000000e+00
0.000000e+00
-1.067470e-09
6.912950e-10
0.000000e+00
0.000000e+00
8.560390e-10
1.256900e-10
-2.136730e-09
-1.067470e-09
-7.070060e-10
5.825220e-10
8.484080e-10
8.560390e-10
-1.791080e-09
-3.038950e-10
-1.067470e-09
6.912950e-10
5.825220e-10
-3.142250e-11
8.560390e-10
1.256900e-10
-3.038950e-10
9.269640e-10
-7.070060e-10
5.825220e-10
1.665390e-09
1.482560e-09
-1.791080e-09
-3.038950e-10
-3.126540e-09
-7.343500e-10
5.825220e-10
-3.142250e-11
1.482560e-09
9.583870e-10
-3.038950e-10
9.269640e-10
-7.343500e-10
1.414010e-10
1.665390e-09
1.482560e-09
1.335460e-09
4.042880e-10
-3.126540e-09
-7.343500e-10
3.000850e-09
5.295300e-11
1.482560e-09
9.583870e-10
4.042880e-10
1.256900e-10
-7.343500e-10
1.414010e-10
5.295300e-11
-1.618260e-09
1.335460e-09
4.042880e-10
1.351170e-09
1.185380e-09
3.000850e-09
5.295300e-11
8.798300e-10
6.432270e-11
4.042880e-10
1.256900e-10
1.185380e-09
-2.670910e-10
5.295300e-11
-1.618260e-09
6.432270e-11
-1.036940e-09
1.351170e-09
1.185380e-09
-1.099790e-09
-1.700930e-09
8.798300e-10
6.432270e-11
9.740980e-10
1.711950e-11
1.185380e-09
-2.670910e-10
-1.700930e-09
-2.042460e-10
6.432270e-11
-1.036940e-09
1.711950e-11
-4.713380e-11
-1.099790e-09
-1.700930e-09
1.916770e-09
-8.342720e-10
9.740980e-10
1.711950e-11
-1.319750e-09
-2.750070e-10
-1.700930e-09
-2.042460e-10
-8.342720e-10
-1.791080e-09
1.711950e-11
-4.713380e-11
-2.750070e-10
2.529510e-09
1.916770e-09
-8.342720e-10
-2.828030e-10
2.726610e-10
-1.319750e-09
-2.750070e-10
1.099790e-10
-5.398440e-11
-8.342720e-10
-1.791080e-09
2.726610e-10
-9.112530e-10
-2.750070e-10
2.529510e-09
-5.398440e-11
1.194060e-09
-2.828030e-10
2.726610e-10
-1.099790e-09
-1.265080e-10
1.099790e-10
-5.398440e-11
8.955420e-10
-2.330070e-10
2.726610e-10
-9.112530e-10
-1.265080e-10
7.698510e-10
-5.398440e-11
1.194060e-09
-2.330070e-10
0.000000e+00
-1.099790e-09
-1.265080e-10
5.184710e-10
1.038770e-10
8.955420e-10
-2.330070e-10
1.649680e-09
1.157790e-09
-1.265080e-10
7.698510e-10
1.038770e-10
7.698510e-10
-2.330070e-10
0.000000e+00
1.157790e-09
1.523990e-09
5.184710e-10
1.038770e-10
2.026750e-09
8.057910e-10
1.649680e-09
1.157790e-09
9.898090e-10
1.162900e-10
1.038770e-10
7.698510e-10
8.057910e-10
5.341830e-10
1.157790e-09
1.523990e-09
1.162900e-10
0.000000e+00
2.026750e-09
8.057910e-10
-3.142250e-10
-4.066180e-10
9.898090e-10
1.162900e-10
7.384290e-10
-4.452610e-10
8.057910e-10
5.341830e-10
-4.066180e-10
-8.326970e-10
1.162900e-10
0.000000e+00
-4.452610e-10
7.541400e-10
-3.142250e-10
-4.066180e-10
1.806790e-09
-1.352110e-09
7.384290e-10
-4.452610e-10
-6.912950e-10
-7.137480e-10
-4.066180e-10
-8.326970e-10
-1.352110e-09
-3.142250e-10
-4.452610e-10
7.541400e-10
-7.137480e-10
2.828030e-10
1.806790e-09
-1.352110e-09
0.000000e+00
2.065860e-10
-6.912950e-10
-7.137480e-10
-8.798300e-10
-4.878780e-10
-1.352110e-09
-3.142250e-10
2.065860e-10
-2.231000e-09
-7.137480e-10
2.828030e-10
-4.878780e-10
2.513800e-10
0.000000e+00
2.065860e-10
-1.492570e-09
-2.786530e-11
-8.798300e-10
-4.878780e-10
2.670910e-10
-8.461500e-10
2.065860e-10
-2.231000e-09
-2.786530e-11
4.242040e-10
-4.878780e-10
2.513800e-10
-8.461500e-10
3.770700e-10
-1.492570e-09
-2.786530e-11
2.513800e-10
6.731670e-10
2.670910e-10
-8.461500e-10
0.000000e+00
1.178440e-09
-2.786530e-11
4.242040e-10
6.731670e-10
-1.256900e-09
-8.461500e-10
3.770700e-10
1.178440e-09
1.414010e-09
2.513800e-10
6.731670e-10
1.838220e-09
6.228610e-10
0.000000e+00
1.178440e-09
2.105310e-09
-1.152840e-10
6.731670e-10
-1.256900e-09
6.228610e-10
2.733760e-09
1.178440e-09
1.414010e-09
-1.152840e-10
-2.042460e-10
1.838220e-09
6.228610e-10
1.539700e-09
-9.483700e-10
2.105310e-09
-1.152840e-10
-1.539700e-09
-1.656460e-09
6.228610e-10
2.733760e-09
-9.483700e-10
-1.743950e-09
-1.152840e-10
-2.042460e-10
-1.656460e-09
-4.084930e-10
1.539700e-09
-9.483700e-10
-3.126540e-09
-7.223640e-10
-1.539700e-09
-1.656460e-09
2.246710e-09
2.289500e-09
-9.483700e-10
-1.743950e-09
-7.223640e-10
3.377920e-09
-1.656460e-09
-4.084930e-10
2.289500e-09
1.869640e-09
-3.126540e-09
-7.223640e-10
3.566450e-09
5.781910e-10
2.246710e-09
2.289500e-09
-5.498940e-10
-3.427610e-10
-7.223640e-10
3.377920e-09
5.781910e-10
-2.372400e-09
2.289500e-09
1.869640e-09
-3.427610e-10
-4.713380e-11
3.566450e-09
5.781910e-10
-2.058170e-09
-2.481800e-09
-5.498940e-10
-3.427610e-10
-1.492570e-09
-5.780790e-10
5.781910e-10
-2.372400e-09
-2.481800e-09
-2.828030e-09
-3.427610e-10
-4.713380e-11
-5.780790e-10
2.513800e-10
-2.058170e-09
-2.481800e-09
3.456480e-10
8.218270e-10
-1.492570e-09
-5.780790e-10
0.000000e+00
-1.434640e-09
-2.481800e-09
-2.828030e-09
8.218270e-10
1.241190e-09
-5.780790e-10
2.513800e-10
-1.434640e-09
-2.953720e-09
3.456480e-10
8.218270e-10
1.838220e-09
4.608630e-10
0.000000e+00
-1.434640e-09
-4.870490e-10
-1.025070e-09
8.218270e-10
1.241190e-09
4.608630e-10
-1.005520e-09
-1.434640e-09
-2.953720e-09
-1.025070e-09
-1.492570e-09
1.838220e-09
4.608630e-10
-8.154140e-09
-3.552110e-09
-4.870490e-10
-1.025070e-09
-9.269640e-10
1.681200e-09
4.608630e-10
-1.005520e-09
-3.552110e-09
1.068370e-09
-1.025070e-09
-1.492570e-09
1.681200e-09
4.336310e-09
-8.154140e-09
-3.552110e-09
3.456480e-09
2.279680e-09
-9.269640e-10
1.681200e-09
1.272610e-09
8.810100e-10
-3.552110e-09
1.068370e-09
2.279680e-09
1.256900e-09
1.681200e-09
4.336310e-09
8.810100e-10
5.341830e-10
3.456480e-09
2.279680e-09
3.833550e-09
1.921370e-09
1.272610e-09
8.810100e-10
7.855630e-10
2.416160e-11
2.279680e-09
1.256900e-09
1.921370e-09
0.000000e+00
8.810100e-10
5.341830e-10
2.416160e-11
-6.598730e-10
3.833550e-09
1.921370e-09
-3.770700e-10
1.653510e-10
7.855630e-10
2.416160e-11
7.855630e-10
6.130800e-10
1.921370e-09
0.000000e+00
1.653510e-10
6.912950e-10
2.416160e-11
-6.598730e-10
6.130800e-10
4.084930e-10
-3.770700e-10
1.653510e-10
1.178340e-09
9.806440e-10
7.855630e-10
6.130800e-10
4.084930e-10
1.390130e-10
1.653510e-10
6.912950e-10
9.806440e-10
7.070060e-10
6.130800e-10
4.084930e-10
1.390130e-10
-1.728240e-10
1.178340e-09
9.806440e-10
0.000000e+00
3.091500e-11
4.084930e-10
1.390130e-10
-5.027600e-10
-2.394690e-10
9.806440e-10
7.070060e-10
3.091500e-11
4.713380e-11
1.390130e-10
-1.728240e-10
-2.394690e-10
0.000000e+00
0.000000e+00
3.091500e-11
-7.855630e-11
-1.179400e-10
-5.027600e-10
-2.394690e-10
-3.613590e-10
-3.842990e-10
3.091500e-11
4.713380e-11
-1.179400e-10
-1.099790e-10
-2.394690e-10
0.000000e+00
-3.842990e-10
-4.084930e-10
0.000000e+00
0.000000e+00
8.484080e-10
8.560390e-10
0.000000e+00
0.000000e+00
-1.728240e-09
-4.026990e-10
0.000000e+00
0.000000e+00
8.560390e-10
1.256900e-10
0.000000e+00
0.000000e+00
-4.026990e-10
1.853930e-09
8.484080e-10
8.560390e-10
-1.791080e-09
-3.038950e-10
-1.728240e-09
-4.026990e-10
1.414010e-10
9.987360e-10
8.560390e-10
1.256900e-10
-3.038950e-10
9.269640e-10
-4.026990e-10
1.853930e-09
9.987360e-10
1.995330e-09
-1.791080e-09
-3.038950e-10
-3.126540e-09
-7.343500e-10
1.414010e-10
9.987360e-10
1.649680e-09
1.455680e-09
-3.038950e-10
9.269640e-10
-7.343500e-10
1.414010e-10
9.987360e-10
1.995330e-09
1.455680e-09
2.985140e-10
-3.126540e-09
-7.343500e-10
3.000850e-09
5.295300e-11
1.649680e-09
1.455680e-09
1.398300e-09
-1.554030e-09
-7.343500e-10
1.414010e-10
5.295300e-11
-1.618260e-09
1.455680e-09
2.985140e-10
-1.554030e-09
-8.955420e-10
3.000850e-09
5.295300e-11
8.798300e-10
6.432270e-11
1.398300e-09
-1.554030e-09
-1.304030e-09
3.085680e-10
5.295300e-11
-1.618260e-09
6.432270e-11
-1.036940e-09
-1.554030e-09
-8.955420e-10
3.085680e-10
-1.084080e-09
8.798300e-10
6.432270e-11
9.740980e-10
1.711950e-11
-1.304030e-09
3.085680e-10
5.027600e-10
2.958870e-12
6.432270e-11
-1.036940e-09
1.711950e-11
-4.713380e-11
3.085680e-10
-1.084080e-09
2.958870e-12
9.112530e-10
9.740980e-10
1.711950e-11
-1.319750e-09
-2.750070e-10
5.027600e-10
2.958870e-12
-3.142250e-10
-1.088410e-09
1.711950e-11
-4.713380e-11
-2.750070e-10
2.529510e-09
2.958870e-12
9.112530e-10
-1.088410e-09
-9.583870e-10
-1.319750e-09
-2.750070e-10
1.099790e-10
-5.398440e-11
-3.142250e-10
-1.088410e-09
8.798300e-10
-2.833320e-10
-2.750070e-10
2.529510e-09
-5.398440e-11
1.194060e-09
-1.088410e-09
-9.583870e-10
-2.833320e-10
5.970280e-10
1.099790e-10
-5.398440e-11
8.955420e-10
-2.330070e-10
8.798300e-10
-2.833320e-10
1.131210e-09
1.854480e-09
-5.398440e-11
1.194060e-09
-2.330070e-10
0.000000e+00
-2.833320e-10
5.970280e-10
1.854480e-09
-8.641190e-10
8.955420e-10
-2.330070e-10
1.649680e-09
1.157790e-09
1.131210e-09
1.854480e-09
-7.541400e-10
-5.829530e-10
-2.330070e-10
0.000000e+00
1.157790e-09
1.523990e-09
1.854480e-09
-8.641190e-10
-5.829530e-10
1.696820e-09
1.649680e-09
1.157790e-09
9.898090e-10
1.162900e-10
-7.541400e-10
-5.829530e-10
1.508280e-09
1.181310e-09
1.157790e-09
1.523990e-09
1.162900e-10
0.000000e+00
-5.829530e-10
1.696820e-09
1.181310e-09
-1.036940e-09
9.898090e-10
1.162900e-10
7.384290e-10
-4.452610e-10
1.508280e-09
1.181310e-09
4.084930e-10
6.904280e-10
1.162900e-10
0.000000e+00
-4.452610e-10
7.541400e-10
1.181310e-09
-1.036940e-09
6.904280e-10
8.012740e-10
7.384290e-10
-4.452610e-10
-6.912950e-10
-7.137480e-10
4.084930e-10
6.904280e-10
2.042460e-10
-9.534940e-10
-4.452610e-10
7.541400e-10
-7.137480e-10
2.828030e-10
6.904280e-10
8.012740e-10
-9.534940e-10
-5.341830e-10
-6.912950e-10
-7.137480e-10
-8.798300e-10
-4.878780e-10
2.042460e-10
-9.534940e-10
1.759660e-09
1.066110e-09
-7.137480e-10
2.828030e-10
-4.878780e-10
2.513800e-10
-9.534940e-10
-5.341830e-10
1.066110e-09
-2.121020e-09
-8.798300e-10
-4.878780e-10
2.670910e-10
-8.461500e-10
1.759660e-09
1.066110e-09
-9.583870e-10
2.188090e-10
-4.878780e-10
2.513800e-10
-8.461500e-10
3.770700e-10
1.066110e-09
-2.121020e-09
2.188090e-10
1.146920e-09
2.670910e-10
-8.461500e-10
0.000000e+00
1.178440e-09
-9.583870e-10
2.188090e-10
1.366880e-09
1.188960e-09
-8.461500e-10
3.770700e-10
1.178440e-09
1.414010e-09
2.188090e-10
1.146920e-09
1.188960e-09
-8.012740e-10
0.000000e+00
1.178440e-09
2.105310e-09
-1.152840e-10
1.366880e-09
1.188960e-09
-2.168150e-09
2.485330e-11
1.178440e-09
1.414010e-09
-1.152840e-10
-2.042460e-10
1.188960e-09
-8.012740e-10
2.485330e-11
1.099790e-09
2.105310e-09
-1.152840e-10
-1.539700e-09
-1.656460e-09
-2.168150e-09
2.485330e-11
2.199580e-09
-7.871400e-10
-1.152840e-10
-2.042460e-10
-1.656460e-09
-4.084930e-10
2.485330e-11
1.099790e-09
-7.871400e-10
-3.032270e-09
-1.539700e-09
-1.656460e-09
2.246710e-09
2.289500e-09
2.199580e-09
-7.871400e-10
-3.142250e-11
2.227720e-09
-1.656460e-09
-4.084930e-10
2.289500e-09
1.869640e-09
-7.871400e-10
-3.032270e-09
2.227720e-09
6.221660e-09
2.246710e-09
2.289500e-09
-5.498940e-10
-3.427610e-10
-3.142250e-11
2.227720e-09
4.556260e-10
-1.794200e-09
2.289500e-09
1.869640e-09
-3.427610e-10
-4.713380e-11
2.227720e-09
6.221660e-09
-1.794200e-09
-3.754990e-09
-5.498940e-10
-3.427610e-10
-1.492570e-09
-5.780790e-10
4.556260e-10
-1.794200e-09
9.740980e-10
1.759570e-09
-3.427610e-10
-4.713380e-11
-5.780790e-10
2.513800e-10
-1.794200e-09
-3.754990e-09
1.759570e-09
2.325270e-09
-1.492570e-09
-5.780790e-10
0.000000e+00
-1.434640e-09
9.740980e-10
1.759570e-09
-2.403820e-09
-3.942220e-09
-5.780790e-10
2.513800e-10
-1.434640e-09
-2.953720e-09
1.759570e-09
2.325270e-09
-3.942220e-09
-5.624630e-09
0.000000e+00
-1.434640e-09
-4.870490e-10
-1.025070e-09
-2.403820e-09
-3.942220e-09
-7.070060e-10
-3.380640e-09
-1.434640e-09
-2.953720e-09
-1.025070e-09
-1.492570e-09
-3.942220e-09
-5.624630e-09
-3.380640e-09
-6.080260e-09
-4.870490e-10
-1.025070e-09
-9.269640e-10
1.681200e-09
-7.070060e-10
-3.380640e-09
2.670910e-10
7.332120e-09
-1.025070e-09
-1.492570e-09
1.681200e-09
4.336310e-09
-3.380640e-09
-6.080260e-09
7.332120e-09
1.447010e-08
-9.269640e-10
1.681200e-09
1.272610e-09
8.810100e-10
2.670910e-10
7.332120e-09
1.351170e-09
-5.974250e-10
1.681200e-09
4.336310e-09
8.810100e-10
5.341830e-10
7.332120e-09
1.447010e-08
-5.974250e-10
-2.545220e-09
1.272610e-09
8.810100e-10
7.855630e-10
2.416160e-11
1.351170e-09
-5.974250e-10
4.242040e-10
-1.704000e-09
8.810100e-10
5.341830e-10
2.416160e-11
-6.598730e-10
-5.974250e-10
-2.545220e-09
-1.704000e-09
-3.802120e-09
7.855630e-10
2.416160e-11
7.855630e-10
6.130800e-10
4.242040e-10
-1.704000e-09
9.426750e-11
1.011490e-09
2.416160e-11
-6.598730e-10
6.130800e-10
4.084930e-10
-1.704000e-09
-3.802120e-09
1.011490e-09
1.853930e-09
7.855630e-10
6.130800e-10
4.084930e-10
1.390130e-10
9.426750e-11
1.011490e-09
-2.199580e-10
-7.802590e-10
6.130800e-10
4.084930e-10
1.390130e-10
-1.728240e-10
1.011490e-09
1.853930e-09
-7.802590e-10
-1.335460e-09
4.084930e-10
1.390130e-10
-5.027600e-10
-2.394690e-10
-2.199580e-10
-7.802590e-10
-3.142250e-10
-4.214380e-10
1.390130e-10
-1.728240e-10
-2.394690e-10
0.000000e+00
-7.802590e-10
-1.335460e-09
-4.214380e-10
-5.341830e-10
-5.027600e-10
-2.394690e-10
-3.613590e-10
-3.842990e-10
-3.142250e-10
-4.214380e-10
-6.284500e-10
-5.839330e-10
-2.394690e-10
0.000000e+00
-3.842990e-10
-4.084930e-10
-4.214380e-10
-5.341830e-10
-5.839330e-10
-5.184710e-10
</DataArray>
<DataArray type="Float32" Name="V2" format="ascii">
0.000000e+00
0.000000e+00
2.599800e-02
2.599800e-02
0.000000e+00
0.000000e+00
2.599800e-02
2.599800e-02
0.000000e+00
0.000000e+00
2.599800e-02
2.599800e-02
0.000000e+00
0.000000e+00
2.599800e-02
2.599800e-02
2.599800e-02
2.599800e-02
4.322850e-02
4.322850e-02
2.599800e-02
2.599800e-02
4.322850e-02
4.322850e-02
2.599800e-02
2.599800e-02
4.322850e-02
4.322850e-02
2.599800e-02
2.599800e-02
4.322850e-02
4.322850e-02
4.322850e-02
4.322850e-02
5.130920e-02
5.130920e-02
4.322850e-02
4.322850e-02
5.130920e-02
5.130920e-02
4.322850e-02
4.322850e-02
5.130920e-02
5.130920e-02
4.322850e-02
4.322850e-02
5.130920e-02
5.130920e-02
5.130920e-02
5.130920e-02
3.066600e-02
3.066600e-02
5.130920e-02
5.130920e-02
3.066600e-02
3.066600e-02
5.130920e-02
5.130920e-02
3.066600e-02
3.066600e-02
5.130920e-02
5.130920e-02
3.066600e-02
3.066600e-02
3.066600e-02
3.066600e-02
-1.157640e-03
-1.157640e-03
3.066600e-02
3.066600e-02
-1.157640e-03
-1.157640e-03
3.066600e-02
3.066600e-02
-1.157640e-03
-1.157640e-03
3.066600e-02
3.066600e-02
-1.157640e-03
-1.157640e-03
-1.157640e-03
-1.157640e-03
-2.402450e-02
-2.402450e-02
-1.157640e-03
-1.157640e-03
-2.402450e-02
-2.402450e-02
-1.157640e-03
-1.157640e-03
-2.402450e-02
-2.402450e-02
-1.157640e-03
-1.157640e-03
-2.402450e-02
-2.402450e-02
-2.402450e-02
-2.402450e-02
-1.933900e-02
-1.933900e-02
-2.402450e-02
-2.402450e-02
-1.933900e-02
-1.933900e-02
-2.402450e-02
-2.402450e-02
-1.933900e-02
-1.933900e-02
-2.402450e-02
-2.402450e-02
-1.933900e-02
-1.933900e-02
-1.933900e-02
-1.933900e-02
1.026690e-02
1.026690e-02
-1.933900e-02
-1.933900e-02
1.026690e-02
1.026690e-02
-1.933900e-02
-1.933900e-02
1.026690e-02
1.026690e-02
-1.933900e-02
-1.933900e-02
1.026690e-02
1.026690e-02
1.026690e-02
1.026690e-02
1.448630e-02
1.448630e-02
1.026690e-02
1.026690e-02
1.448630e-02
1.448630e-02
1.026690e-02
1.026690e-02
1.448630e-02
1.448630e-02
1.026690e-02
1.026690e-02
1.448630e-02
1.448630e-02
1.448630e-02
1.448630e-02
-7.464070e-03
-7.464070e-03
1.448630e-02
1.448630e-02
-7.464070e-03
-7.464070e-03
1.448630e-02
1.448630e-02
-7.464070e-03
-7.464070e-03
1.448630e-02
1.448630e-02
-7.464070e-03
-7.464070e-03
-7.464070e-03
-7.464070e-03
-6.839450e-03
-6.839450e-03
-7.464070e-03
-7.464070e-03
-6.839450e-03
-6.839450e-03
-7.464070e-03
-7.464070e-03
-6.839450e-03
-6.839450e-03
-7.464070e-03
-7.464070e-03
-6.839450e-03
-6.839450e-03
-6.839450e-03
-6.839450e-03
5.617110e-03
5.617110e-03
-6.839450e-03
-6.839450e-03
5.617110e-03
5.617110e-03
-6.839450e-03
-6.839450e-03
5.617110e-03
5.617110e-03
-6.839450e-03
-6.839450e-03
5.617110e-03
5.617110e-03
5.617110e-03
5.617110e-03
1.127480e-03
1.127480e-03
5.617110e-03
5.617110e-03
1.127480e-03
1.127480e-03
5.617110e-03
5.617110e-03
1.127480e-03
1.127480e-03
5.617110e-03
5.617110e-03
1.127480e-03
1.127480e-03
1.127480e-03
1.127480e-03
-3.042030e-03
-3.042040e-03
1.127480e-03
1.127480e-03
-3.042040e-03
-3.042040e-03
1.127480e-03
1.127480e-03
-3.042040e-03
-3.042030e-03
1.127480e-03
1.127480e-03
-3.042040e-03
-3.042040e-03
-3.042030e-03
-3.042040e-03
2.758390e-04
2.758430e-04
-3.042040e-03
-3.042040e-03
2.758370e-04
2.758450e-04
-3.042040e-03
-3.042030e-03
2.758430e-04
2.758440e-04
-3.042040e-03
-3.042040e-03
2.758450e-04
2.758430e-04
2.758390e-04
2.758430e-04
7.527920e-04
7.527970e-04
2.758370e-04
2.758450e-04
7.527980e-04
7.528000e-04
2.758430e-04
2.758440e-04
7.527970e-04
7.527940e-04
2.758450e-04
2.758430e-04
7.528000e-04
7.528030e-04
7.527920e-04
7.527970e-04
-6.991370e-04
-6.991380e-04
7.527980e-04
7.528000e-04
-6.991380e-04
-6.991390e-04
7.527970e-04
7.527940e-04
-6.991380e-04
-6.991340e-04
7.528000e-04
7.528030e-04
-6.991390e-04
-6.991460e-04
-6.991370e-04
-6.991380e-04
-1.147150e-04
-1.147140e-04
-6.991380e-04
-6.991390e-04
-1.147160e-04
-1.147220e-04
-6.991380e-04
-6.991340e-04
-1.147140e-04
-1.147230e-04
-6.991390e-04
-6.991460e-04
-1.147220e-04
-1.147130e-04
-1.147150e-04
-1.147140e-04
-2.290040e-04
-2.290170e-04
-1.147160e-04
-1.147220e-04
-2.290120e-04
-2.289960e-04
-1.147140e-04
-1.147230e-04
-2.290170e-04
-2.289990e-04
-1.147220e-04
-1.147130e-04
-2.289960e-04
-2.290030e-04
-2.290040e-04
-2.290170e-04
-4.957220e-04
-4.957030e-04
-2.290120e-04
-2.289960e-04
-4.957030e-04
-4.957220e-04
-2.290170e-04
-2.289990e-04
-4.957030e-04
-4.957190e-04
-2.289960e-04
-2.290030e-04
-4.957220e-04
-4.957130e-04
-4.957220e-04
-4.957030e-04
-3.281170e-04
-3.281600e-04
-4.957030e-04
-4.957220e-04
-3.281610e-04
-3.281290e-04
-4.957030e-04
-4.957190e-04
-3.281600e-04
-3.281360e-04
-4.957220e-04
-4.957130e-04
-3.281290e-04
-3.281440e-04
-3.281170e-04
-3.281600e-04
-4.748060e-04
-4.747720e-04
-3.281610e-04
-3.281290e-04
-4.747740e-04
-4.748020e-04
-3.281600e-04
-3.281360e-04
-4.747720e-04
-4.748130e-04
-3.281290e-04
-3.281440e-04
-4.748020e-04
-4.748020e-04
-4.748060e-04
-4.747720e-04
-3.234760e-04
-3.234320e-04
-4.747740e-04
-4.748020e-04
-3.234290e-04
-3.234320e-04
-4.747720e-04
-4.748130e-04
-3.234320e-04
-3.234260e-04
-4.748020e-04
-4.748020e-04
-3.234320e-04
-3.234270e-04
-3.234760e-04
-3.234320e-04
-7.836220e-04
-7.836580e-04
-3.234290e-04
-3.234320e-04
-7.836580e-04
-7.836420e-04
-3.234320e-04
-3.234260e-04
-7.836580e-04
-7.836480e-04
-3.234320e-04
-3.234270e-04
-7.836420e-04
-7.836420e-04
-7.836220e-04
-7.836580e-04
-2.764510e-04
-2.764560e-04
-7.836580e-04
-7.836420e-04
-2.764560e-04
-2.764710e-04
-7.836580e-04
-7.836480e-04
-2.764560e-04
-2.764640e-04
-7.836420e-04
-7.836420e-04
-2.764710e-04
-2.764490e-04
-2.764510e-04
-2.764560e-04
6.483340e-06
6.453930e-06
-2.764560e-04
-2.764710e-04
6.454560e-06
6.452680e-06
-2.764560e-04
-2.764640e-04
6.453930e-06
6.447650e-06
-2.764710e-04
-2.764490e-04
6.452680e-06
6.449410e-06
6.483340e-06
6.453930e-06
1.610620e-05
1.610640e-05
6.454560e-06
6.452680e-06
1.610590e-05
1.611400e-05
6.453930e-06
6.447650e-06
1.610640e-05
1.611470e-05
6.452680e-06
6.449410e-06
1.611400e-05
1.611020e-05
1.610620e-05
1.610640e-05
-7.222150e-06
-7.213600e-06
1.610590e-05
1.611400e-05
-7.213600e-06
-7.210590e-06
1.610640e-05
1.611470e-05
-7.213600e-06
-7.215110e-06
1.611400e-05
1.611020e-05
-7.210590e-06
-7.223410e-06
-7.222150e-06
-7.213600e-06
-8.890480e-05
-8.889960e-05
-7.213600e-06
-7.210590e-06
-8.889910e-05
-8.889910e-05
-7.213600e-06
-7.215110e-06
-8.889960e-05
-8.889750e-05
-7.210590e-06
-7.223410e-06
-8.889910e-05
-8.889860e-05
-8.890480e-05
-8.889960e-05
4.162030e-04
4.162030e-04
-8.889910e-05
-8.889910e-05
4.162040e-04
4.162040e-04
-8.889960e-05
-8.889750e-05
4.162030e-04
4.162040e-04
-8.889910e-05
-8.889860e-05
4.162040e-04
4.162060e-04
0.000000e+00
0.000000e+00
2.599800e-02
2.599800e-02
0.000000e+00
0.000000e+00
2.599800e-02
2.599800e-02
0.000000e+00
0.000000e+00
2.599800e-02
2.599800e-02
0.000000e+00
0.000000e+00
2.599800e-02
2.599800e-02
2.599800e-02
2.599800e-02
4.322850e-02
4.322850e-02
2.599800e-02
2.599800e-02
4.322850e-02
4.322850e-02
2.599800e-02
2.599800e-02
4.322850e-02
4.322850e-02
2.599800e-02
2.599800e-02
4.322850e-02
4.322850e-02
4.322850e-02
4.322850e-02