<?xml version="1.0"?>
<VTKFile type="UnstructuredGrid" version="0.1" byte_order="LittleEndian" compressor="vtkZLibDataCompressor">
<UnstructuredGrid>
<Piece NumberOfPoints="960" NumberOfCells="120">
<Points>
<DataArray type="Float32" NumberOfComponents="3" format="ascii">
-4.000000e+02 -6.000000e+03 -4.000000e+02
0.000000e+00 -6.000000e+03 -4.000000e+02
-4.000000e+02 -5.600000e+03 -4.000000e+02
1.121280e-09 -5.600000e+03 -4.000000e+02
-4.000000e+02 -6.000000e+03 0.000000e+00
0.000000e+00 -6.000000e+03 0.000000e+00
-4.000000e+02 -5.600000e+03 9.161000e-10
1.687470e-09 -5.600000e+03 3.447300e-10
0.000000e+00 -6.000000e+03 -4.000000e+02
4.000000e+02 -6.000000e+03 -4.000000e+02
1.121280e-09 -5.600000e+03 -4.000000e+02
4.000000e+02 -5.600000e+03 -4.000000e+02
0.000000e+00 -6.000000e+03 0.000000e+00
4.000000e+02 -6.000000e+03 0.000000e+00
1.687470e-09 -5.600000e+03 3.447300e-10
4.000000e+02 -5.600000e+03 -1.172550e-09
-4.000000e+02 -5.600000e+03 -4.000000e+02
1.121280e-09 -5.600000e+03 -4.000000e+02
-4.000000e+02 -5.200000e+03 -4.000000e+02
-2.769290e-11 -5.200000e+03 -4.000000e+02
-4.000000e+02 -5.600000e+03 9.161000e-10
1.687470e-09 -5.600000e+03 3.447300e-10
-4.000000e+02 -5.200000e+03 2.537600e-10
8.186270e-10 -5.200000e+03 -6.747640e-10
1.121280e-09 -5.600000e+03 -4.000000e+02
4.000000e+02 -5.600000e+03 -4.000000e+02
-2.769290e-11 -5.200000e+03 -4.000000e+02
4.000000e+02 -5.200000e+03 -4.000000e+02
1.687470e-09 -5.600000e+03 3.447300e-10
4.000000e+02 -5.600000e+03 -1.172550e-09
8.186270e-10 -5.200000e+03 -6.747640e-10
4.000000e+02 -5.200000e+03 -1.351580e-09
-4.000000e+02 -5.200000e+03 -4.000000e+02
-2.769290e-11 -5.200000e+03 -4.000000e+02
-4.000000e+02 -4.800000e+03 -4.000000e+02
7.201640e-10 -4.800000e+03 -4.000000e+02
-4.000000e+02 -5.200000e+03 2.537600e-10
8.186270e-10 -5.200000e+03 -6.747640e-10
-4.000000e+02 -4.800000e+03 9.599780e-10
1.450130e-09 -4.800000e+03 2.068270e-09
-2.769290e-11 -5.200000e+03 -4.000000e+02
4.000000e+02 -5.200000e+03 -4.000000e+02
7.201640e-10 -4.800000e+03 -4.000000e+02
4.000000e+02 -4.800000e+03 -4.000000e+02
8.186270e-10 -5.200000e+03 -6.747640e-10
4.000000e+02 -5.200000e+03 -1.351580e-09
1.450130e-09 -4.800000e+03 2.068270e-09
4.000000e+02 -4.800000e+03 5.938130e-10
-4.000000e+02 -4.800000e+03 -4.000000e+02
7.201640e-10 -4.800000e+03 -4.000000e+02
-4.000000e+02 -4.400000e+03 -4.000000e+02
1.087130e-09 -4.400000e+03 -4.000000e+02
-4.000000e+02 -4.800000e+03 9.599780e-10
1.450130e-09 -4.800000e+03 2.068270e-09
-4.000000e+02 -4.400000e+03 1.856520e-09
5.231060e-10 -4.400000e+03 2.414130e-09
7.201640e-10 -4.800000e+03 -4.000000e+02
4.000000e+02 -4.800000e+03 -4.000000e+02
1.087130e-09 -4.400000e+03 -4.000000e+02
4.000000e+02 -4.400000e+03 -4.000000e+02
1.450130e-09 -4.800000e+03 2.068270e-09
4.000000e+02 -4.800000e+03 5.938130e-10
5.231060e-10 -4.400000e+03 2.414130e-09
4.000000e+02 -4.400000e+03 2.285540e-09
-4.000000e+02 -4.400000e+03 -4.000000e+02
1.087130e-09 -4.400000e+03 -4.000000e+02
-4.000000e+02 -4.000010e+03 -4.000000e+02
1.393890e-09 -4.000010e+03 -4.000000e+02
-4.000000e+02 -4.400000e+03 1.856520e-09
5.231060e-10 -4.400000e+03 2.414130e-09
-4.000000e+02 -4.000010e+03 1.602760e-09
1.049760e-09 -4.000010e+03 1.201220e-09
1.087130e-09 -4.400000e+03 -4.000000e+02
4.000000e+02 -4.400000e+03 -4.000000e+02
1.393890e-09 -4.000010e+03 -4.000000e+02
4.000000e+02 -4.000010e+03 -4.000000e+02
5.231060e-10 -4.400000e+03 2.414130e-09
4.000000e+02 -4.400000e+03 2.285540e-09
1.049760e-09 -4.000010e+03 1.201220e-09
4.000000e+02 -4.000010e+03 1.870100e-09
-4.000000e+02 -4.000010e+03 -4.000000e+02
1.393890e-09 -4.000010e+03 -4.000000e+02
-4.000000e+02 -3.600010e+03 -4.000000e+02
2.684470e-09 -3.600010e+03 -4.000000e+02
-4.000000e+02 -4.000010e+03 1.602760e-09
1.049760e-09 -4.000010e+03 1.201220e-09
-4.000000e+02 -3.600010e+03 3.819250e-09
1.942210e-09 -3.600010e+03 3.348670e-09
1.393890e-09 -4.000010e+03 -4.000000e+02
4.000000e+02 -4.000010e+03 -4.000000e+02
2.684470e-09 -3.600010e+03 -4.000000e+02
4.000000e+02 -3.600010e+03 -4.000000e+02
1.049760e-09 -4.000010e+03 1.201220e-09
4.000000e+02 -4.000010e+03 1.870100e-09
1.942210e-09 -3.600010e+03 3.348670e-09
4.000000e+02 -3.600010e+03 3.050370e-09
-4.000000e+02 -3.600010e+03 -4.000000e+02
2.684470e-09 -3.600010e+03 -4.000000e+02
-4.000000e+02 -3.200010e+03 -4.000000e+02
5.020410e-11 -3.200010e+03 -4.000000e+02
-4.000000e+02 -3.600010e+03 3.819250e-09
1.942210e-09 -3.600010e+03 3.348670e-09
-4.000000e+02 -3.200010e+03 2.062260e-09
9.671700e-10 -3.200010e+03 2.373090e-09
2.684470e-09 -3.600010e+03 -4.000000e+02
4.000000e+02 -3.600010e+03 -4.000000e+02
5.020410e-11 -3.200010e+03 -4.000000e+02
4.000000e+02 -3.200010e+03 -4.000000e+02
1.942210e-09 -3.600010e+03 3.348670e-09
4.000000e+02 -3.600010e+03 3.050370e-09
9.671700e-10 -3.200010e+03 2.373090e-09
4.000000e+02 -3.200010e+03 2.630070e-09
-4.000000e+02 -3.200010e+03 -4.000000e+02
5.020410e-11 -3.200010e+03 -4.000000e+02
-4.000000e+02 -2.800020e+03 -4.000000e+02
-1.728130e-10 -2.800020e+03 -4.000000e+02
-4.000000e+02 -3.200010e+03 2.062260e-09
9.671700e-10 -3.200010e+03 2.373090e-09
-4.000000e+02 -2.800020e+03 3.208390e-09
-8.324870e-10 -2.800020e+03 6.724950e-10
5.020410e-11 -3.200010e+03 -4.000000e+02
4.000000e+02 -3.200010e+03 -4.000000e+02
-1.728130e-10 -2.800020e+03 -4.000000e+02
4.000000e+02 -2.800020e+03 -4.000000e+02
9.671700e-10 -3.200010e+03 2.373090e-09
4.000000e+02 -3.200010e+03 2.630070e-09
-8.324870e-10 -2.800020e+03 6.724950e-10
4.000000e+02 -2.800020e+03 1.219850e-09
-4.000000e+02 -2.800020e+03 -4.000000e+02
-1.728130e-10 -2.800020e+03 -4.000000e+02
-4.000000e+02 -2.400040e+03 -4.000000e+02
4.702390e-10 -2.400040e+03 -4.000000e+02
-4.000000e+02 -2.800020e+03 3.208390e-09
-8.324870e-10 -2.800020e+03 6.724950e-10
-4.000000e+02 -2.400040e+03 3.069190e-09
2.128270e-09 -2.400040e+03 2.529940e-09
-1.728130e-10 -2.800020e+03 -4.000000e+02
4.000000e+02 -2.800020e+03 -4.000000e+02
4.702390e-10 -2.400040e+03 -4.000000e+02
4.000000e+02 -2.400040e+03 -4.000000e+02
-8.324870e-10 -2.800020e+03 6.724950e-10
4.000000e+02 -2.800020e+03 1.219850e-09
2.128270e-09 -2.400040e+03 2.529940e-09
4.000000e+02 -2.400040e+03 9.778230e-10
-4.000000e+02 -2.400040e+03 -4.000000e+02
4.702390e-10 -2.400040e+03 -4.000000e+02
-4.000000e+02 -2.000060e+03 -4.000000e+02
-3.625180e-09 -2.000060e+03 -4.000000e+02
-4.000000e+02 -2.400040e+03 3.069190e-09
2.128270e-09 -2.400040e+03 2.529940e-09
-4.000000e+02 -2.000060e+03 -4.319820e-09
-2.495650e-09 -2.000060e+03 -3.364430e-09
4.702390e-10 -2.400040e+03 -4.000000e+02
4.000000e+02 -2.400040e+03 -4.000000e+02
-3.625180e-09 -2.000060e+03 -4.000000e+02
4.000000e+02 -2.000060e+03 -4.000000e+02
2.128270e-09 -2.400040e+03 2.529940e-09
4.000000e+02 -2.400040e+03 9.778230e-10
-2.495650e-09 -2.000060e+03 -3.364430e-09
4.000000e+02 -2.000060e+03 -2.718170e-09
-4.000000e+02 -2.000060e+03 -4.000000e+02
-3.625180e-09 -2.000060e+03 -4.000000e+02
-4.000000e+02 -1.600110e+03 -4.000000e+02
2.039100e-09 -1.600110e+03 -4.000000e+02
-4.000000e+02 -2.000060e+03 -4.319820e-09
-2.495650e-09 -2.000060e+03 -3.364430e-09
-4.000000e+02 -1.600110e+03 2.228480e-09
2.128990e-10 -1.600110e+03 -4.377210e-10
-3.625180e-09 -2.000060e+03 -4.000000e+02
4.000000e+02 -2.000060e+03 -4.000000e+02
2.039100e-09 -1.600110e+03 -4.000000e+02
4.000000e+02 -1.600110e+03 -4.000000e+02
-2.495650e-09 -2.000060e+03 -3.364430e-09
4.000000e+02 -2.000060e+03 -2.718170e-09
2.128990e-10 -1.600110e+03 -4.377210e-10
4.000000e+02 -1.600110e+03 -1.181710e-09
-4.000000e+02 -1.600110e+03 -4.000000e+02
2.039100e-09 -1.600110e+03 -4.000000e+02
-4.000000e+02 -1.200170e+03 -4.000000e+02
1.851540e-09 -1.200170e+03 -4.000000e+02
-4.000000e+02 -1.600110e+03 2.228480e-09
2.128990e-10 -1.600110e+03 -4.377210e-10
-4.000000e+02 -1.200170e+03 -4.315470e-10
4.191260e-09 -1.200170e+03 2.286970e-09
2.039100e-09 -1.600110e+03 -4.000000e+02
4.000000e+02 -1.600110e+03 -4.000000e+02
1.851540e-09 -1.200170e+03 -4.000000e+02
4.000000e+02 -1.200170e+03 -4.000000e+02
2.128990e-10 -1.600110e+03 -4.377210e-10
4.000000e+02 -1.600110e+03 -1.181710e-09
4.191260e-09 -1.200170e+03 2.286970e-09
4.000000e+02 -1.200170e+03 -7.385480e-10
-4.000000e+02 -1.200170e+03 -4.000000e+02
1.851540e-09 -1.200170e+03 -4.000000e+02
-4.000000e+02 -8.002410e+02 -4.000000e+02
-1.960730e-09 -8.002410e+02 -4.000000e+02
-4.000000e+02 -1.200170e+03 -4.315470e-10
4.191260e-09 -1.200170e+03 2.286970e-09
-4.000000e+02 -8.002410e+02 -3.454540e-09
-2.680060e-09 -8.002410e+02 -5.446080e-09
1.851540e-09 -1.200170e+03 -4.000000e+02
4.000000e+02 -1.200170e+03 -4.000000e+02
-1.960730e-09 -8.002410e+02 -4.000000e+02
4.000000e+02 -8.002410e+02 -4.000000e+02
4.191260e-09 -1.200170e+03 2.286970e-09
4.000000e+02 -1.200170e+03 -7.385480e-10
-2.680060e-09 -8.002410e+02 -5.446080e-09
4.000000e+02 -8.002410e+02 -1.255940e-09
-4.000000e+02 -8.002410e+02 -4.000000e+02
-1.960730e-09 -8.002410e+02 -4.000000e+02
-4.000000e+02 -4.003070e+02 -4.000000e+02
7.603750e-09 -4.003070e+02 -4.000000e+02
-4.000000e+02 -8.002410e+02 -3.454540e-09
-2.680060e-09 -8.002410e+02 -5.446080e-09
-4.000000e+02 -4.003070e+02 7.482380e-09
4.943070e-09 -4.003070e+02 3.184140e-09
-1.960730e-09 -8.002410e+02 -4.000000e+02
4.000000e+02 -8.002410e+02 -4.000000e+02
7.603750e-09 -4.003070e+02 -4.000000e+02
4.000000e+02 -4.003070e+02 -4.000000e+02
-2.680060e-09 -8.002410e+02 -5.446080e-09
4.000000e+02 -8.002410e+02 -1.255940e-09
4.943070e-09 -4.003070e+02 3.184140e-09
4.000000e+02 -4.003070e+02 3.341640e-09
-4.000000e+02 -4.003070e+02 -4.000000e+02
7.603750e-09 -4.003070e+02 -4.000000e+02
-4.000000e+02 -3.433300e-01 -4.000000e+02
-6.005890e-09 -3.433300e-01 -4.000000e+02
-4.000000e+02 -4.003070e+02 7.482380e-09
4.943070e-09 -4.003070e+02 3.184140e-09
-4.000000e+02 -3.433300e-01 -5.969100e-09
6.956970e-09 -3.433300e-01 7.259750e-09
7.603750e-09 -4.003070e+02 -4.000000e+02
4.000000e+02 -4.003070e+02 -4.000000e+02
-6.005890e-09 -3.433300e-01 -4.000000e+02
4.000000e+02 -3.433300e-01 -4.000000e+02
4.943070e-09 -4.003070e+02 3.184140e-09
[...]
<PointData>
<DataArray type="Float32" Name="V1" format="ascii">
0.000000e+00
0.000000e+00
-1.304030e-09
-2.085910e-09
0.000000e+00
0.000000e+00
1.728240e-09
1.050540e-09
0.000000e+00
0.000000e+00
-2.085910e-09
8.326970e-10
0.000000e+00
0.000000e+00
1.050540e-09
1.398300e-09
-1.304030e-09
-2.085910e-09
-1.948200e-09
8.227560e-10
1.728240e-09
1.050540e-09
-8.955420e-10
-1.189270e-09
-2.085910e-09
8.326970e-10
8.227560e-10
1.681100e-09
1.050540e-09
1.398300e-09
-1.189270e-09
-4.870490e-10
-1.948200e-09
8.227560e-10
-1.178340e-09
-2.012700e-10
-8.955420e-10
-1.189270e-09
1.822510e-09
5.745170e-10
8.227560e-10
1.681100e-09
-2.012700e-10
7.855630e-11
-1.189270e-09
-4.870490e-10
5.745170e-10
-9.112530e-10
-1.178340e-09
-2.012700e-10
-4.823360e-09
-1.688570e-09
1.822510e-09
5.745170e-10
3.095120e-09
-3.187410e-10
-2.012700e-10
7.855630e-11
-1.688570e-09
-1.099790e-09
5.745170e-10
-9.112530e-10
-3.187410e-10
-5.027600e-10
-4.823360e-09
-1.688570e-09
3.440760e-09
-7.143230e-10
3.095120e-09
-3.187410e-10
1.571130e-11
7.273150e-10
-1.688570e-09
-1.099790e-09
-7.143230e-10
-5.184710e-09
-3.187410e-10
-5.027600e-10
7.273150e-10
1.115500e-09
3.440760e-09
-7.143230e-10
1.445440e-09
2.653950e-09
1.571130e-11
7.273150e-10
1.099790e-10
1.137290e-09
-7.143230e-10
-5.184710e-09
2.653950e-09
8.484080e-10
7.273150e-10
1.115500e-09
1.137290e-09
2.529510e-09
1.445440e-09
2.653950e-09
-7.855630e-11
-3.180890e-09
1.099790e-10
1.137290e-09
-8.012740e-10
-2.631320e-10
2.653950e-09
8.484080e-10
-3.180890e-09
-2.796600e-09
1.137290e-09
2.529510e-09
-2.631320e-10
-2.152440e-09
-7.855630e-11
-3.180890e-09
2.183860e-09
3.812750e-09
-8.012740e-10
-2.631320e-10
1.885350e-09
5.410310e-10
-3.180890e-09
-2.796600e-09
3.812750e-09
1.476860e-09
-2.631320e-10
-2.152440e-09
5.410310e-10
-1.476860e-09
2.183860e-09
3.812750e-09
1.885350e-09
9.498780e-10
1.885350e-09
5.410310e-10
-5.907430e-09
-4.303790e-10
3.812750e-09
1.476860e-09
9.498780e-10
7.384290e-10
5.410310e-10
-1.476860e-09
-4.303790e-10
2.702340e-09
1.885350e-09
9.498780e-10
-1.633970e-09
-2.847750e-09
-5.907430e-09
-4.303790e-10
1.036940e-09
-3.560350e-09
9.498780e-10
7.384290e-10
-2.847750e-09
-2.906580e-09
-4.303790e-10
2.702340e-09
-3.560350e-09
-7.509980e-09
-1.633970e-09
-2.847750e-09
2.670910e-10
6.199700e-09
1.036940e-09
-3.560350e-09
4.823360e-09
7.395680e-09
-2.847750e-09
-2.906580e-09
6.199700e-09
1.005520e-08
-3.560350e-09
-7.509980e-09
7.395680e-09
9.033970e-09
2.670910e-10
6.199700e-09
-5.797450e-09
-6.303780e-09
4.823360e-09
7.395680e-09
-8.452660e-09
-4.860860e-09
6.199700e-09
1.005520e-08
-6.303780e-09
-8.656900e-09
7.395680e-09
9.033970e-09
-4.860860e-09
-1.241190e-09
-5.797450e-09
-6.303780e-09
4.619110e-09
2.289100e-09
-8.452660e-09
-4.860860e-09
9.615290e-09
-4.238190e-09
-6.303780e-09
-8.656900e-09
2.289100e-09
1.602550e-09
-4.860860e-09
-1.241190e-09
-4.238190e-09
-1.932480e-08
4.619110e-09
2.289100e-09
-5.750320e-09
-9.763480e-10
9.615290e-09
-4.238190e-09
-7.745650e-09
9.668400e-09
2.289100e-09
1.602550e-09
-9.763480e-10
1.429720e-09
-4.238190e-09
-1.932480e-08
9.668400e-09
2.653630e-08
-5.750320e-09
-9.763480e-10
-2.513800e-09
1.967140e-09
-7.745650e-09
9.668400e-09
6.912950e-09
-8.875340e-10
-9.763480e-10
1.429720e-09
1.967140e-09
5.593210e-09
9.668400e-09
2.653630e-08
-8.875340e-10
-7.777070e-09
-2.513800e-09
1.967140e-09
1.527130e-08
1.122400e-08
6.912950e-09
-8.875340e-10
-1.335460e-08
-1.251540e-08
1.967140e-09
5.593210e-09
1.122400e-08
6.740130e-09
-8.875340e-10
-7.777070e-09
-1.251540e-08
-1.186200e-08
1.527130e-08
1.122400e-08
-2.769890e-08
-3.779920e-08
-1.335460e-08
-1.251540e-08
1.662250e-08
1.345380e-08
1.122400e-08
6.740130e-09
-3.779920e-08
-4.570400e-08
-1.251540e-08
-1.186200e-08
1.345380e-08
7.180040e-09
-2.769890e-08
-3.779920e-08
-2.513800e-10
1.982660e-08
1.662250e-08
1.345380e-08
3.679580e-08
1.223300e-08
-3.779920e-08
-4.570400e-08
1.982660e-08
4.003230e-08
1.345380e-08
7.180040e-09
1.223300e-08
-1.250620e-08
-2.513800e-10
1.982660e-08
8.053590e-08
6.417220e-08
3.679580e-08
1.223300e-08
-6.861110e-08
-2.296110e-09
1.982660e-08
4.003230e-08
6.417220e-08
4.582970e-08
1.223300e-08
-1.250620e-08
-2.296110e-09
6.224800e-08
8.053590e-08
6.417220e-08
1.141580e-07
2.132860e-08
-6.861110e-08
-2.296110e-09
3.679580e-08
-3.105800e-08
6.417220e-08
4.582970e-08
2.132860e-08
-7.081060e-08
-2.296110e-09
6.224800e-08
-3.105800e-08
-9.989220e-08
1.141580e-07
2.132860e-08
5.315120e-08
2.444820e-08
3.679580e-08
-3.105800e-08
-1.041500e-07
-2.784070e-08
2.132860e-08
-7.081060e-08
2.444820e-08
-4.666240e-09
-3.105800e-08
-9.989220e-08
-2.784070e-08
4.873630e-08
5.315120e-08
2.444820e-08
-2.438230e-07
-1.425350e-07
-1.041500e-07
-2.784070e-08
-5.228710e-08
-2.838630e-08
2.444820e-08
-4.666240e-09
-1.425350e-07
-4.028370e-08
-2.784070e-08
4.873630e-08
-2.838630e-08
-4.493420e-09
-2.438230e-07
-1.425350e-07
-3.208240e-08
-6.448320e-10
-5.228710e-08
-2.838630e-08
1.272450e-07
3.261780e-08
-1.425350e-07
-4.028370e-08
-6.448320e-10
3.087260e-08
-2.838630e-08
-4.493420e-09
3.261780e-08
-6.207520e-08
-3.208240e-08
-6.448320e-10
2.619540e-07
1.521260e-07
1.272450e-07
3.261780e-08
8.688320e-08
4.743290e-08
-6.448320e-10
3.087260e-08
1.521260e-07
4.191760e-08
3.261780e-08
-6.207520e-08
4.743290e-08
7.745650e-09
2.619540e-07
1.521260e-07
-6.828110e-08
-3.280480e-08
8.688320e-08
4.743290e-08
-9.715840e-08
-1.852650e-08
1.521260e-07
4.191760e-08
-3.280480e-08
3.000850e-09
4.743290e-08
7.745650e-09
-1.852650e-08
5.990700e-08
-6.828110e-08
-3.280480e-08
-1.413540e-07
-5.231220e-08
-9.715840e-08
-1.852650e-08
-5.612060e-08
-8.290070e-09
-3.280480e-08
3.000850e-09
-5.231220e-08
3.696860e-08
-1.852650e-08
5.990700e-08
-8.290070e-09
3.943520e-08
-1.413540e-07
-5.231220e-08
3.014990e-08
2.355320e-09
-5.612060e-08
-8.290070e-09
3.448620e-08
-1.799100e-09
-5.231220e-08
3.696860e-08
2.355320e-09
-2.546790e-08
-8.290070e-09
3.943520e-08
-1.799100e-09
-3.802120e-08
3.014990e-08
2.355320e-09
3.982800e-08
1.761480e-08
3.448620e-08
-1.799100e-09
7.729940e-09
4.941730e-10
2.355320e-09
-2.546790e-08
1.761480e-08
-4.619110e-09
-1.799100e-09
-3.802120e-08
4.941730e-10
-6.802970e-09
3.982800e-08
1.761480e-08
-6.174520e-09
-3.775460e-09
7.729940e-09
4.941730e-10
-5.216140e-09
-1.723260e-09
1.761480e-08
-4.619110e-09
-3.775460e-09
-1.366880e-09
4.941730e-10
-6.802970e-09
-1.723260e-09
1.791080e-09
-6.174520e-09
-3.775460e-09
3.126540e-09
2.203700e-09
-5.216140e-09
-1.723260e-09
2.388110e-09
1.391270e-09
-3.775460e-09
-1.366880e-09
2.203700e-09
1.319750e-09
-1.723260e-09
1.791080e-09
1.391270e-09
4.084930e-10
0.000000e+00
0.000000e+00
1.728240e-09
1.050540e-09
0.000000e+00
0.000000e+00
-1.256900e-10
-6.494370e-10
0.000000e+00
0.000000e+00
1.050540e-09
1.398300e-09
0.000000e+00
0.000000e+00
-6.494370e-10
-4.399150e-10
1.728240e-09
1.050540e-09
-8.955420e-10
-1.189270e-09
-1.256900e-10
-6.494370e-10
-1.743950e-09
8.801720e-10
1.050540e-09
1.398300e-09
-1.189270e-09
-4.870490e-10
-6.494370e-10
-4.399150e-10
8.801720e-10
2.890870e-09
-8.955420e-10
-1.189270e-09
1.822510e-09
5.745170e-10
-1.743950e-09
8.801720e-10
3.315070e-09
9.860190e-10
-1.189270e-09
-4.870490e-10
5.745170e-10
-9.112530e-10
8.801720e-10
2.890870e-09
9.860190e-10
-1.885350e-09
1.822510e-09
5.745170e-10
3.095120e-09
-3.187410e-10
3.315070e-09
9.860190e-10
-5.498940e-10
-1.192930e-09
5.745170e-10
-9.112530e-10
-3.187410e-10
-5.027600e-10
9.860190e-10
-1.885350e-09
-1.192930e-09
-2.246710e-09
3.095120e-09
-3.187410e-10
1.571130e-11
7.273150e-10
-5.498940e-10
-1.192930e-09
0.000000e+00
8.227240e-10
-3.187410e-10
-5.027600e-10
7.273150e-10
1.115500e-09
-1.192930e-09
-2.246710e-09
8.227240e-10
-1.838220e-09
1.571130e-11
7.273150e-10
1.099790e-10
1.137290e-09
0.000000e+00
8.227240e-10
-3.299360e-10
8.022800e-10
7.273150e-10
1.115500e-09
1.137290e-09
2.529510e-09
8.227240e-10
-1.838220e-09
8.022800e-10
8.641190e-10
1.099790e-10
1.137290e-09
-8.012740e-10
-2.631320e-10
-3.299360e-10
8.022800e-10
-3.660720e-09
-3.310900e-09
1.137290e-09
2.529510e-09
-2.631320e-10
-2.152440e-09
8.022800e-10
8.641190e-10
-3.310900e-09
-1.523990e-09
-8.012740e-10
-2.631320e-10
1.885350e-09
5.410310e-10
-3.660720e-09
-3.310900e-09
4.556260e-10
2.347920e-09
-2.631320e-10
-2.152440e-09
5.410310e-10
-1.476860e-09
-3.310900e-09
-1.523990e-09
2.347920e-09
0.000000e+00
1.885350e-09
5.410310e-10
-5.907430e-09
-4.303790e-10
4.556260e-10
2.347920e-09
-1.602550e-09
4.093550e-10
5.410310e-10
-1.476860e-09
-4.303790e-10
2.702340e-09
2.347920e-09
0.000000e+00
4.093550e-10
1.571130e-10
-5.907430e-09
-4.303790e-10
1.036940e-09
-3.560350e-09
-1.602550e-09
4.093550e-10
-1.586840e-09
-2.041650e-09
-4.303790e-10
2.702340e-09
-3.560350e-09
-7.509980e-09
4.093550e-10
1.571130e-10
-2.041650e-09
-1.681100e-09
1.036940e-09
-3.560350e-09
4.823360e-09
7.395680e-09
-1.586840e-09
-2.041650e-09
2.262420e-09
3.003530e-09
-3.560350e-09
-7.509980e-09
7.395680e-09
9.033970e-09
-2.041650e-09
-1.681100e-09
3.003530e-09
1.932480e-09
4.823360e-09
7.395680e-09
-8.452660e-09
-4.860860e-09
2.262420e-09
3.003530e-09
-3.990660e-09
3.662850e-10
7.395680e-09
9.033970e-09
-4.860860e-09
-1.241190e-09
3.003530e-09
1.932480e-09
3.662850e-10
4.729090e-09
-8.452660e-09
-4.860860e-09
9.615290e-09
-4.238190e-09
-3.990660e-09
3.662850e-10
1.239620e-08
1.625150e-09
-4.860860e-09
-1.241190e-09
-4.238190e-09
-1.932480e-08
3.662850e-10
4.729090e-09
1.625150e-09
-1.192480e-08
9.615290e-09
-4.238190e-09
-7.745650e-09
9.668400e-09
1.239620e-08
1.625150e-09
-1.635540e-08
-9.197020e-10
-4.238190e-09
-1.932480e-08
9.668400e-09
2.653630e-08
1.625150e-09
-1.192480e-08
-9.197020e-10
1.407730e-08
-7.745650e-09
9.668400e-09
6.912950e-09
-8.875340e-10
-1.635540e-08
-9.197020e-10
-7.227180e-10
-3.900180e-09
9.668400e-09
2.653630e-08
-8.875340e-10
-7.777070e-09
-9.197020e-10
1.407730e-08
-3.900180e-09
-7.729940e-09
6.912950e-09
-8.875340e-10
-1.335460e-08
-1.251540e-08
-7.227180e-10
-3.900180e-09
1.886920e-08
-4.041070e-09
-8.875340e-10
-7.777070e-09
-1.251540e-08
-1.186200e-08
-3.900180e-09
-7.729940e-09
-4.041070e-09
-2.784030e-08
-1.335460e-08
-1.251540e-08
1.662250e-08
1.345380e-08
1.886920e-08
-4.041070e-09
-1.597830e-08
-1.982510e-09
-1.251540e-08
-1.186200e-08
1.345380e-08
7.180040e-09
-4.041070e-09
-2.784030e-08
-1.982510e-09
9.819530e-09
1.662250e-08
1.345380e-08
3.679580e-08
1.223300e-08
-1.597830e-08
-1.982510e-09
2.130450e-08
5.308280e-08
1.345380e-08
7.180040e-09
1.223300e-08
-1.250620e-08
-1.982510e-09
9.819530e-09
5.308280e-08
8.380380e-08
3.679580e-08
1.223300e-08
-6.861110e-08
-2.296110e-09
2.130450e-08
5.308280e-08
2.425820e-08
-3.814720e-08
1.223300e-08
-1.250620e-08
-2.296110e-09
6.224800e-08
5.308280e-08
8.380380e-08
-3.814720e-08
-1.019820e-07
-6.861110e-08
-2.296110e-09
3.679580e-08
-3.105800e-08
2.425820e-08
-3.814720e-08
8.028450e-09
-5.755420e-08
-2.296110e-09
6.224800e-08
-3.105800e-08
-9.989220e-08
-3.814720e-08
-1.019820e-07
-5.755420e-08
-1.229720e-07
3.679580e-08
-3.105800e-08
-1.041500e-07
-2.784070e-08
8.028450e-09
-5.755420e-08
-1.338760e-07
3.776940e-08
-3.105800e-08
-9.989220e-08
-2.784070e-08
4.873630e-08
-5.755420e-08
-1.229720e-07
3.776940e-08
2.087400e-07
-1.041500e-07
-2.784070e-08
-5.228710e-08
-2.838630e-08
-1.338760e-07
3.776940e-08
4.741660e-08
3.330480e-08
-2.784070e-08
4.873630e-08
-2.838630e-08
-4.493420e-09
3.776940e-08
2.087400e-07
3.330480e-08
1.948200e-08
-5.228710e-08
-2.838630e-08
1.272450e-07
3.261780e-08
4.741660e-08
3.330480e-08
6.036260e-08
8.502000e-11
-2.838630e-08
-4.493420e-09
3.261780e-08
-6.207520e-08
3.330480e-08
1.948200e-08
8.502000e-11
-6.034690e-08
1.272450e-07
3.261780e-08
8.688320e-08
4.743290e-08
6.036260e-08
8.502000e-11
9.473890e-09
-5.446560e-09
3.261780e-08
-6.207520e-08
4.743290e-08
7.745650e-09
8.502000e-11
-6.034690e-08
-5.446560e-09
-2.051890e-08
8.688320e-08
4.743290e-08
-9.715840e-08
-1.852650e-08
9.473890e-09
-5.446560e-09
-6.328490e-08
-1.111600e-08
4.743290e-08
7.745650e-09
-1.852650e-08
5.990700e-08
-5.446560e-09
-2.051890e-08
-1.111600e-08
4.196480e-08
-9.715840e-08
-1.852650e-08
-5.612060e-08
-8.290070e-09
-6.328490e-08
-1.111600e-08
-3.495750e-08
1.164050e-08
-1.852650e-08
5.990700e-08
-8.290070e-09
3.943520e-08
-1.111600e-08
4.196480e-08
1.164050e-08
5.825730e-08
-5.612060e-08
-8.290070e-09
3.448620e-08
-1.799100e-09
-3.495750e-08
1.164050e-08
4.455710e-08
-2.639870e-09
-8.290070e-09
3.943520e-08
-1.799100e-09
-3.802120e-08
1.164050e-08
5.825730e-08
-2.639870e-09
-4.978900e-08
3.448620e-08
-1.799100e-09
7.729940e-09
4.941730e-10
4.455710e-08
-2.639870e-09
-2.765180e-09
-6.411580e-09
-1.799100e-09
-3.802120e-08
4.941730e-10
-6.802970e-09
-2.639870e-09
-4.978900e-08
-6.411580e-09
-1.007090e-08
7.729940e-09
4.941730e-10
-5.216140e-09
-1.723260e-09
-2.765180e-09
-6.411580e-09
-2.686620e-09
7.187580e-10
4.941730e-10
-6.802970e-09
-1.723260e-09
1.791080e-09
-6.411580e-09
-1.007090e-08
7.187580e-10
4.116350e-09
-5.216140e-09
-1.723260e-09
2.388110e-09
1.391270e-09
-2.686620e-09
7.187580e-10
1.304030e-09
5.478870e-10
-1.723260e-09
1.791080e-09
1.391270e-09
4.084930e-10
7.187580e-10
4.116350e-09
5.478870e-10
-1.571130e-10
</DataArray>
<DataArray type="Float32" Name="V2" format="ascii">
0.000000e+00
0.000000e+00
6.370140e-04
6.370130e-04
0.000000e+00
0.000000e+00
6.370240e-04
6.370200e-04
0.000000e+00
0.000000e+00
6.370130e-04
6.370140e-04
0.000000e+00
0.000000e+00
6.370200e-04
6.370130e-04
6.370140e-04
6.370130e-04
1.404510e-04
1.404600e-04
6.370240e-04
6.370200e-04
1.404570e-04
1.404600e-04
6.370130e-04
6.370140e-04
1.404600e-04
1.404590e-04
6.370200e-04
6.370130e-04
1.404600e-04
1.404550e-04
1.404510e-04
1.404600e-04
5.466460e-04
5.466510e-04
1.404570e-04
1.404600e-04
5.466440e-04
5.466520e-04
1.404600e-04
1.404590e-04
5.466510e-04
5.466480e-04
1.404600e-04
1.404550e-04
5.466520e-04
5.466470e-04
5.466460e-04
5.466510e-04
8.751810e-04
8.751760e-04
5.466440e-04
5.466520e-04
8.751750e-04
8.751730e-04
5.466510e-04
5.466480e-04
8.751760e-04
8.751740e-04
5.466520e-04
5.466470e-04
8.751730e-04
8.751660e-04
8.751810e-04
8.751760e-04
1.399190e-03
1.399200e-03
8.751750e-04
8.751730e-04
1.399200e-03
1.399200e-03
8.751760e-04
8.751740e-04
1.399200e-03
1.399200e-03
8.751730e-04
8.751660e-04
1.399200e-03
1.399210e-03
1.399190e-03
1.399200e-03
2.042740e-03
2.042740e-03
1.399200e-03
1.399200e-03
2.042730e-03
2.042730e-03
1.399200e-03
1.399200e-03
2.042740e-03
2.042740e-03
1.399200e-03
1.399210e-03
2.042730e-03
2.042740e-03
2.042740e-03
2.042740e-03
3.948880e-03
3.948880e-03
2.042730e-03
2.042730e-03
3.948870e-03
3.948870e-03
2.042740e-03
2.042740e-03
3.948880e-03
3.948870e-03
2.042730e-03
2.042740e-03
3.948870e-03
3.948870e-03
3.948880e-03
3.948880e-03
7.759850e-03
7.759860e-03
3.948870e-03
3.948870e-03
7.759850e-03
7.759860e-03
3.948880e-03
3.948870e-03
7.759860e-03
7.759870e-03
3.948870e-03
3.948870e-03
7.759860e-03
7.759860e-03
7.759850e-03
7.759860e-03
1.260990e-02
1.260990e-02
7.759850e-03
7.759860e-03
1.260990e-02
1.260990e-02
7.759860e-03
7.759870e-03
1.260990e-02
1.260990e-02
7.759860e-03
7.759860e-03
1.260990e-02
1.260990e-02
1.260990e-02
1.260990e-02
2.336310e-02
2.336310e-02
1.260990e-02
1.260990e-02
2.336310e-02
2.336310e-02
1.260990e-02
1.260990e-02
2.336310e-02
2.336310e-02
1.260990e-02
1.260990e-02
2.336310e-02
2.336310e-02
2.336310e-02
2.336310e-02
3.552210e-02
3.552210e-02
2.336310e-02
2.336310e-02
3.552210e-02
3.552210e-02
2.336310e-02
2.336310e-02
3.552210e-02
3.552220e-02
2.336310e-02
2.336310e-02
3.552210e-02
3.552220e-02
3.552210e-02
3.552210e-02
4.679140e-02
4.679140e-02
3.552210e-02
3.552210e-02
4.679140e-02
4.679140e-02
3.552210e-02
3.552220e-02
4.679140e-02
4.679140e-02
3.552210e-02
3.552220e-02
4.679140e-02
4.679140e-02
4.679140e-02
4.679140e-02
5.009750e-02
5.009760e-02
4.679140e-02
4.679140e-02
5.009760e-02
5.009760e-02
4.679140e-02
4.679140e-02
5.009760e-02
5.009760e-02
4.679140e-02
4.679140e-02
5.009760e-02
5.009760e-02
5.009750e-02
5.009760e-02
3.769980e-02
3.769980e-02
5.009760e-02
5.009760e-02
3.769980e-02
3.769980e-02
5.009760e-02
5.009760e-02
3.769980e-02
3.769990e-02
5.009760e-02
5.009760e-02
3.769980e-02
3.769990e-02
3.769980e-02
3.769980e-02
1.164740e-02
1.164740e-02
3.769980e-02
3.769980e-02
1.164740e-02
1.164740e-02
3.769980e-02
3.769990e-02
1.164740e-02
1.164720e-02
3.769980e-02
3.769990e-02
1.164740e-02
1.164730e-02
1.164740e-02
1.164740e-02
-1.918480e-02
-1.918470e-02
1.164740e-02
1.164740e-02
-1.918470e-02
-1.918470e-02
1.164740e-02
1.164720e-02
-1.918470e-02
-1.918470e-02
1.164740e-02
1.164730e-02
-1.918470e-02
-1.918480e-02
-1.918480e-02
-1.918470e-02
-2.467420e-02
-2.467420e-02
-1.918470e-02
-1.918470e-02
-2.467420e-02
-2.467420e-02
-1.918470e-02
-1.918470e-02
-2.467420e-02
-2.467410e-02
-1.918470e-02
-1.918480e-02
-2.467420e-02
-2.467400e-02
-2.467420e-02
-2.467420e-02
-6.052130e-03
-6.052120e-03
-2.467420e-02
-2.467420e-02
-6.052030e-03
-6.052120e-03
-2.467420e-02
-2.467410e-02
-6.052120e-03
-6.052030e-03
-2.467420e-02
-2.467400e-02
-6.052120e-03
-6.052250e-03
-6.052130e-03
-6.052120e-03
1.243740e-02
1.243700e-02
-6.052030e-03
-6.052120e-03
1.243690e-02
1.243680e-02
-6.052120e-03
-6.052030e-03
1.243700e-02
1.243670e-02
-6.052120e-03
-6.052250e-03
1.243680e-02
1.243730e-02
1.243740e-02
1.243700e-02
1.546380e-02
1.546510e-02
1.243690e-02
1.243680e-02
1.546540e-02
1.546520e-02
1.243700e-02
1.243670e-02
1.546510e-02
1.546610e-02
1.243680e-02
1.243730e-02
1.546520e-02
1.546430e-02
1.546380e-02
1.546510e-02
-8.960420e-03
-8.961110e-03
1.546540e-02
1.546520e-02
-8.961030e-03
-8.960910e-03
1.546510e-02
1.546610e-02
-8.961110e-03
-8.961030e-03
1.546520e-02
1.546430e-02
-8.960910e-03
-8.960460e-03
-8.960420e-03
-8.961110e-03
-8.934480e-03
-8.931520e-03
-8.961030e-03
-8.960910e-03
-8.931770e-03
-8.932750e-03
-8.961110e-03
-8.961030e-03
-8.931520e-03
-8.932450e-03
-8.960910e-03
-8.960460e-03
-8.932750e-03
-8.932050e-03
-8.934480e-03
-8.931520e-03
6.114800e-03
6.112860e-03
-8.931770e-03
-8.932750e-03
6.112910e-03
6.113390e-03
-8.931520e-03
-8.932450e-03
6.112860e-03
6.112980e-03
-8.932750e-03
-8.932050e-03
6.113390e-03
6.112950e-03
6.114800e-03
6.112860e-03
2.415530e-03
2.415520e-03
6.112910e-03
6.113390e-03
2.415560e-03
2.415890e-03
6.112860e-03
6.112980e-03
2.415520e-03
2.415230e-03
6.113390e-03
6.112950e-03
2.415890e-03
2.415380e-03
2.415530e-03
2.415520e-03
-2.153700e-03
-2.152230e-03
2.415560e-03
2.415890e-03
-2.152140e-03
-2.151350e-03
2.415520e-03
2.415230e-03
-2.152230e-03
-2.152080e-03
2.415890e-03
2.415380e-03
-2.151350e-03
-2.151790e-03
-2.153700e-03
-2.152230e-03
2.052570e-04
2.082490e-04
-2.152140e-03
-2.151350e-03
2.082640e-04
2.083510e-04
-2.152230e-03
-2.152080e-03
2.082490e-04
2.088470e-04
-2.151350e-03
-2.151790e-03
2.083510e-04
2.082840e-04
2.052570e-04
2.082490e-04
5.021960e-04
4.973910e-04
2.082640e-04
2.083510e-04
4.972660e-04
4.961100e-04
2.082490e-04
2.088470e-04
4.973910e-04
4.968280e-04
2.083510e-04
2.082840e-04
4.961100e-04
4.970390e-04
5.021960e-04
4.973910e-04
-2.766190e-05
-2.727550e-05
4.972660e-04
4.961100e-04
-2.725810e-05
-2.703390e-05
4.973910e-04
4.968280e-04
-2.727550e-05
-2.730490e-05
4.961100e-04
4.970390e-04
-2.703390e-05
-2.723280e-05
-2.766190e-05
-2.727550e-05
-1.354410e-04
-1.354190e-04
-2.725810e-05
-2.703390e-05
-1.354190e-04
-1.354090e-04
-2.727550e-05
-2.730490e-05
-1.354190e-04
-1.353960e-04
-2.703390e-05
-2.723280e-05
-1.354090e-04
-1.353950e-04
-1.354410e-04
-1.354190e-04
-2.239530e-04
-2.239580e-04
-1.354190e-04
-1.354090e-04
-2.239570e-04
-2.239590e-04
-1.354190e-04
-1.353960e-04
-2.239580e-04
-2.239580e-04
-1.354090e-04
-1.353950e-04
-2.239590e-04
-2.239580e-04
0.000000e+00
0.000000e+00
6.370240e-04
6.370200e-04
0.000000e+00
0.000000e+00
6.370130e-04
6.370090e-04
0.000000e+00
0.000000e+00
6.370200e-04
6.370130e-04
0.000000e+00
0.000000e+00
6.370090e-04
6.370120e-04
6.370240e-04
6.370200e-04
1.404570e-04
1.404600e-04
6.370130e-04
6.370090e-04
1.404530e-04
1.404610e-04
6.370200e-04
6.370130e-04
1.404600e-04
1.404550e-04
6.370090e-04
6.370120e-04
1.404610e-04
1.404600e-04
1.404570e-04
1.404600e-04
5.466440e-04
5.466520e-04
1.404530e-04
1.404610e-04
5.466490e-04
5.466480e-04
1.404600e-04