<?xml version="1.0"?>
<!-- time 71.756-->
<VTKFile type="UnstructuredGrid" version="0.1" byte_order="LittleEndian">
<UnstructuredGrid>
<Piece NumberOfPoints="7680" NumberOfCells="0">
<Points>
  <DataArray type="Float32" Name="Position" NumberOfComponents="3" format="ascii">
	-350 2049.62 -350
	-350 2049.62 -250
	-350 2049.62 -150
	-350 2049.62 -50
	-350 2049.62 50
	-350 2049.62 150
	-350 2049.62 250
	-350 2049.62 350
	-250 2049.62 -350
	-250 2049.62 -250
	-250 2049.62 -150
	-250 2049.62 -50
	-250 2049.62 50
	-250 2049.62 150
	-250 2049.62 250
	-250 2049.62 350
	-150 2049.62 -350
	-150 2049.62 -250
	-150 2049.62 -150
	-150 2049.62 -50
	-150 2049.62 50
	-150 2049.62 150
	-150 2049.62 250
	-150 2049.62 350
	-50 2049.62 -350
	-50 2049.62 -250
	-50 2049.62 -150
	-50 2049.62 -50
	-50 2049.62 50
	-50 2049.62 150
	-50 2049.62 250
	-50 2049.62 350
	50 2049.62 -350
	50 2049.62 -250
	50 2049.62 -150
	50 2049.62 -50
	50 2049.62 50
	50 2049.62 150
	50 2049.62 250
	50 2049.62 350
	150 2049.62 -350
	150 2049.62 -250
	150 2049.62 -150
	150 2049.62 -50
	150 2049.62 50
	150 2049.62 150
	150 2049.62 250
	150 2049.62 350
	250 2049.62 -350
	250 2049.62 -250
	250 2049.62 -150
	250 2049.62 -50
	250 2049.62 50
	250 2049.62 150
	250 2049.62 250
	250 2049.62 350
	350 2049.62 -350
	350 2049.62 -250
	350 2049.62 -150
	350 2049.62 -50
	350 2049.62 50
	350 2049.62 150
	350 2049.62 250
	350 2049.62 350
	-350 2149.68 -350
	-350 2149.68 -250
	-350 2149.68 -150
	-350 2149.68 -50
	-350 2149.68 50
	-350 2149.68 150
	-350 2149.68 250
	-350 2149.68 350
	-250 2149.68 -350
	-250 2149.68 -250
	-250 2149.68 -150
	-250 2149.68 -50
	-250 2149.68 50
	-250 2149.68 150
	-250 2149.68 250
	-250 2149.68 350
	-150 2149.68 -350
	-150 2149.68 -250
	-150 2149.68 -150
	-150 2149.68 -50
	-150 2149.68 50
	-150 2149.68 150
	-150 2149.68 250
	-150 2149.68 350
	-50 2149.68 -350
	-50 2149.68 -250
	-50 2149.68 -150
	-50 2149.68 -50
	-50 2149.68 50
	-50 2149.68 150
	-50 2149.68 250
	-50 2149.68 350
	50 2149.68 -350
	50 2149.68 -250
	50 2149.68 -150
	50 2149.68 -50
	50 2149.68 50
	50 2149.68 150
	50 2149.68 250
	50 2149.68 350
	150 2149.68 -350
	150 2149.68 -250
	150 2149.68 -150
	150 2149.68 -50
	150 2149.68 50
	150 2149.68 150
	150 2149.68 250
	150 2149.68 350
	250 2149.68 -350
	250 2149.68 -250
	250 2149.68 -150
	250 2149.68 -50
	250 2149.68 50
	250 2149.68 150
	250 2149.68 250
	250 2149.68 350
	350 2149.68 -350
	350 2149.68 -250
	350 2149.68 -150
	350 2149.68 -50
	350 2149.68 50
	350 2149.68 150
	350 2149.68 250
	350 2149.68 350
	-350 2249.68 -350
	-350 2249.68 -250
	-350 2249.68 -150
	-350 2249.68 -50
	-350 2249.68 50
	-350 2249.68 150
	-350 2249.68 250
	-350 2249.68 350
	-250 2249.68 -350
	-250 2249.68 -250
	-250 2249.68 -150
	-250 2249.68 -50
	-250 2249.68 50
	-250 2249.68 150
	-250 2249.68 250
	-250 2249.68 350
	-150 2249.68 -350
	-150 2249.68 -250
	-150 2249.68 -150
	-150 2249.68 -50
	-150 2249.68 50
	-150 2249.68 150
	-150 2249.68 250
	-150 2249.68 350
	-50 2249.68 -350
	-50 2249.68 -250
	-50 2249.68 -150
	-50 2249.68 -50
	-50 2249.68 50
	-50 2249.68 150
	-50 2249.68 250
	-50 2249.68 350
	50 2249.68 -350
	50 2249.68 -250
	50 2249.68 -150
	50 2249.68 -50
	50 2249.68 50
	50 2249.68 150
	50 2249.68 250
	50 2249.68 350
	150 2249.68 -350
	150 2249.68 -250
	150 2249.68 -150
	150 2249.68 -50
	150 2249.68 50
	150 2249.68 150
	150 2249.68 250
	150 2249.68 350
	250 2249.68 -350
	250 2249.68 -250
	250 2249.68 -150
	250 2249.68 -50
	250 2249.68 50
	250 2249.68 150
	250 2249.68 250
	250 2249.68 350
	350 2249.68 -350
	350 2249.68 -250
	350 2249.68 -150
	350 2249.68 -50
	350 2249.68 50
	350 2249.68 150
	350 2249.68 250
	350 2249.68 350
	-350 2349.68 -350
	-350 2349.68 -250
	-350 2349.68 -150
	-350 2349.68 -50
	-350 2349.68 50
	-350 2349.68 150
	-350 2349.68 250
	-350 2349.68 350
	-250 2349.68 -350
	-250 2349.68 -250
	-250 2349.68 -150
	-250 2349.68 -50
	-250 2349.68 50
	-250 2349.68 150
	-250 2349.68 250
	-250 2349.68 350
	-150 2349.68 -350
	-150 2349.68 -250
	-150 2349.68 -150
	-150 2349.68 -50
	-150 2349.68 50
	-150 2349.68 150
	-150 2349.68 250
	-150 2349.68 350
	-50 2349.68 -350
	-50 2349.68 -250
	-50 2349.68 -150
	-50 2349.68 -50
	-50 2349.68 50
	-50 2349.68 150
	-50 2349.68 250
	-50 2349.68 350
	50 2349.68 -350
	50 2349.68 -250
	50 2349.68 -150
	50 2349.68 -50
	50 2349.68 50
	50 2349.68 150
	50 2349.68 250
	50 2349.68 350
	150 2349.68 -350
	150 2349.68 -250
	150 2349.68 -150
	150 2349.68 -50
	150 2349.68 50
	150 2349.68 150
	150 2349.68 250
	150 2349.68 350
	250 2349.68 -350
	250 2349.68 -250
	250 2349.68 -150
	250 2349.68 -50
	250 2349.68 50
	250 2349.68 150
	250 2349.68 250
	250 2349.68 350
	350 2349.68 -350
	350 2349.68 -250
	350 2349.68 -150
	350 2349.68 -50
	350 2349.68 50
	350 2349.68 150
	350 2349.68 250
	350 2349.68 350
	-350 2449.68 -350
	-350 2449.68 -250
	-350 2449.68 -150
	-350 2449.68 -50
	-350 2449.68 50
	-350 2449.68 150
	-350 2449.68 250
	-350 2449.68 350
	-250 2449.68 -350
	-250 2449.68 -250
	-250 2449.68 -150
	-250 2449.68 -50
	-250 2449.68 50
	-250 2449.68 150
	-250 2449.68 250
	-250 2449.68 350
	-150 2449.68 -350
	-150 2449.68 -250
	-150 2449.68 -150
	-150 2449.68 -50
	-150 2449.68 50
	-150 2449.68 150
	-150 2449.68 250
	-150 2449.68 350
	-50 2449.68 -350
	-50 2449.68 -250
	-50 2449.68 -150
	-50 2449.68 -50
	-50 2449.68 50
	-50 2449.68 150
	-50 2449.68 250
	-50 2449.68 350
	50 2449.68 -350
	50 2449.68 -250
	50 2449.68 -150
	50 2449.68 -50
	50 2449.68 50
	50 2449.68 150
	50 2449.68 250
	50 2449.68 350
	150 2449.68 -350
	150 2449.68 -250
	150 2449.68 -150
	150 2449.68 -50
	150 2449.68 50
	150 2449.68 150
	150 2449.68 250
	150 2449.68 350
	250 2449.68 -350
	250 2449.68 -250
	250 2449.68 -150
	250 2449.68 -50
	250 2449.68 50
	250 2449.68 150
	250 2449.68 250
	250 2449.68 350
	350 2449.68 -350
	350 2449.68 -250
	350 2449.68 -150
	350 2449.68 -50
	350 2449.68 50
	350 2449.68 150
	350 2449.68 250
	350 2449.68 350
	-350 2549.68 -350
	-350 2549.68 -250
	-350 2549.68 -150
	-350 2549.68 -50
	-350 2549.68 50
	-350 2549.68 150
	-350 2549.68 250
	-350 2549.68 350
	-250 2549.68 -350
	-250 2549.68 -250
	-250 2549.68 -150
	-250 2549.68 -50
	-250 2549.68 50
	-250 2549.68 150
	-250 2549.68 250
	-250 2549.68 350
	-150 2549.68 -350
	-150 2549.68 -250
	-150 2549.68 -150
	-150 2549.68 -50
	-150 2549.68 50
	-150 2549.68 150
	-150 2549.68 250
	-150 2549.68 350
	-50 2549.68 -350
	-50 2549.68 -250
	-50 2549.68 -150
	-50 2549.68 -50
	-50 2549.68 50
	-50 2549.68 150
	-50 2549.68 250
	-50 2549.68 350
	50 2549.68 -350
	50 2549.68 -250
	50 2549.68 -150
	50 2549.68 -50
	50 2549.68 50
	50 2549.68 150
	50 2549.68 250
	50 2549.68 350
	150 2549.68 -350
	150 2549.68 -250
	150 2549.68 -150
	150 2549.68 -50
	150 2549.68 50
	150 2549.68 150
	150 2549.68 250
	150 2549.68 350
	250 2549.68 -350
	250 2549.68 -250
	250 2549.68 -150
	250 2549.68 -50
	250 2549.68 50
	250 2549.68 150
	250 2549.68 250
	250 2549.68 350
	350 2549.68 -350
	350 2549.68 -250
	350 2549.68 -150
	350 2549.68 -50
	350 2549.68 50
	350 2549.68 150
	350 2549.68 250
	350 2549.68 350
	-350 2649.68 -350
	-350 2649.68 -250
	-350 2649.68 -150
	-350 2649.68 -50
	-350 2649.68 50
	-350 2649.68 150
	-350 2649.68 250
	-350 2649.68 350
	-250 2649.68 -350
	-250 2649.68 -250
	-250 2649.68 -150
	-250 2649.68 -50
	-250 2649.68 50
	-250 2649.68 150
	-250 2649.68 250
	-250 2649.68 350
	-150 2649.68 -350
	-150 2649.68 -250
	-150 2649.68 -150
	-150 2649.68 -50
	-150 2649.68 50
	-150 2649.68 150
	-150 2649.68 250
	-150 2649.68 350
	-50 2649.68 -350
	-50 2649.68 -250
	-50 2649.68 -150
	-50 2649.68 -50
	-50 2649.68 50
	-50 2649.68 150
	-50 2649.68 250
	-50 2649.68 350
	50 2649.68 -350
	50 2649.68 -250
	50 2649.68 -150
	50 2649.68 -50
	50 2649.68 50
	50 2649.68 150
	50 2649.68 250
	50 2649.68 350
	150 2649.68 -350
	150 2649.68 -250
	150 2649.68 -150
	150 2649.68 -50
	150 2649.68 50
	150 2649.68 150
	150 2649.68 250
	150 2649.68 350
	250 2649.68 -350
	250 2649.68 -250
	250 2649.68 -150
	250 2649.68 -50
	250 2649.68 50
	250 2649.68 150
	250 2649.68 250
	250 2649.68 350
	350 2649.68 -350
	350 2649.68 -250
	350 2649.68 -150
	350 2649.68 -50
	350 2649.68 50
	350 2649.68 150
	350 2649.68 250
	350 2649.68 350
	-350 2749.68 -350
	-350 2749.68 -250
	-350 2749.68 -150
	-350 2749.68 -50
	-350 2749.68 50
	-350 2749.68 150
	-350 2749.68 250
	-350 2749.68 350
	-250 2749.68 -350
	-250 2749.68 -250
	-250 2749.68 -150
	-250 2749.68 -50
	-250 2749.68 50
	-250 2749.68 150
	-250 2749.68 250
	-250 2749.68 350
	-150 2749.68 -350
	-150 2749.68 -250
	-150 2749.68 -150
	-150 2749.68 -50
	-150 2749.68 50
	-150 2749.68 150
	-150 2749.68 250
	-150 2749.68 350
	-50 2749.68 -350
	-50 2749.68 -250
	-50 2749.68 -150
	-50 2749.68 -50
	-50 2749.68 50
	-50 2749.68 150
	-50 2749.68 250
	-50 2749.68 350
	50 2749.68 -350
	50 2749.68 -250
	50 2749.68 -150
	50 2749.68 -50
	50 2749.68 50
	50 2749.68 150
	50 2749.68 250
	50 2749.68 350
	150 2749.68 -350
	150 2749.68 -250
	150 2749.68 -150
	150 2749.68 -50
	150 2749.68 50
	150 2749.68 150
	150 2749.68 250
	150 2749.68 350
	250 2749.68 -350
	250 2749.68 -250
	250 2749.68 -150
	250 2749.68 -50
	250 2749.68 50
	250 2749.68 150
	250 2749.68 250
	250 2749.68 350
	350 2749.68 -350
	350 2749.68 -250
	350 2749.68 -150
	350 2749.68 -50
	350 2749.68 50
	350 2749.68 150
	350 2749.68 250
	350 2749.68 350
	-350 2849.68 -350
	-350 2849.68 -250
	-350 2849.68 -150
	-350 2849.68 -50
	-350 2849.68 50
	-350 2849.68 150
	-350 2849.68 250
	-350 2849.68 350
	-250 2849.68 -350
	-250 2849.68 -250
	-250 2849.68 -150
	-250 2849.68 -50
	-250 2849.68 50
	-250 2849.68 150
	-250 2849.68 250
	-250 2849.68 350
	-150 2849.68 -350
	-150 2849.68 -250
	-150 2849.68 -150
	-150 2849.68 -50
	-150 2849.68 50
	-150 2849.68 150
	-150 2849.68 250
	-150 2849.68 350
	-50 2849.68 -350
	-50 2849.68 -250
	-50 2849.68 -150
	-50 2849.68 -50
	-50 2849.68 50
	-50 2849.68 150
	-50 2849.68 250
	-50 2849.68 350
	50 2849.68 -350
	50 2849.68 -250
	50 2849.68 -150
	50 2849.68 -50
	50 2849.68 50
	50 2849.68 150
	50 2849.68 250
	50 2849.68 350
	150 2849.68 -350
	150 2849.68 -250
	150 2849.68 -150
[...]
<PointData  Vectors="vector">
  <DataArray type="Float32" Name="Velocity" NumberOfComponents="3" format="ascii">
 -1.28022e-10 -9.41957e-05 5.40938e-11
 1.20821e-12 -9.41965e-05 -7.62382e-11
 2.38438e-11 -9.41973e-05 2.85604e-11
 -6.47264e-11 -9.41982e-05 1.25061e-10
 -9.1399e-11 -9.4198e-05 7.79933e-11
 2.6976e-11 -9.4198e-05 -1.50812e-11
 -5.62153e-11 -9.4198e-05 1.25146e-11
 -8.19492e-11 -9.4198e-05 -1.09595e-11
 6.73447e-11 -9.41964e-05 6.75925e-11
 -3.94275e-11 -9.4197e-05 -4.04236e-11
 -3.19064e-11 -9.41977e-05 1.24732e-11
 3.14255e-11 -9.41984e-05 3.79697e-11
 5.36843e-11 -9.41982e-05 1.65936e-11
 -2.74981e-11 -9.41981e-05 1.16265e-10
 1.93357e-11 -9.41981e-05 1.81946e-12
 9.37739e-11 -9.4198e-05 -2.17238e-12
 6.4735e-11 -9.41971e-05 7.30219e-11
 7.81679e-11 -9.41976e-05 -4.88351e-11
 5.41877e-11 -9.41981e-05 -1.08743e-11
 3.31451e-11 -9.41986e-05 6.85137e-11
 8.44652e-11 -9.41984e-05 8.98652e-11
 4.67556e-11 -9.41983e-05 5.5555e-11
 6.53193e-11 -9.41982e-05 6.99327e-12
 8.58059e-11 -9.41981e-05 -9.94908e-12
 1.14568e-10 -9.41978e-05 -1.00328e-10
 1.2509e-10 -9.41981e-05 5.93407e-11
 9.46631e-11 -9.41984e-05 9.42965e-11
 1.0219e-10 -9.41987e-05 6.50419e-11
 9.08225e-11 -9.41985e-05 8.40027e-11
 1.11888e-10 -9.41984e-05 3.91094e-11
 1.29802e-10 -9.41983e-05 2.92522e-12
 9.3043e-11 -9.41981e-05 -5.92441e-12
 9.61603e-11 -9.41976e-05 6.1032e-11
 1.07432e-10 -9.4198e-05 -1.66898e-11
 1.04648e-10 -9.41983e-05 2.41408e-11
 1.47573e-10 -9.41987e-05 1.19016e-10
 1.24419e-10 -9.41986e-05 8.91325e-11
 1.65256e-10 -9.41986e-05 3.49961e-11
 1.70586e-10 -9.41985e-05 -1.08417e-11
 1.10658e-10 -9.41984e-05 2.65259e-12
 7.3607e-11 -9.41974e-05 6.51351e-11
 4.27914e-11 -9.41977e-05 -7.9287e-11
 8.03922e-11 -9.4198e-05 3.25271e-11
 6.19525e-11 -9.41983e-05 8.93672e-11
 7.37669e-11 -9.41983e-05 1.03302e-10
 4.43145e-11 -9.41982e-05 4.04652e-11
 4.70494e-11 -9.4198e-05 3.22346e-11
 4.44959e-11 -9.41979e-05 1.08272e-11
 2.12674e-11 -9.41972e-05 -4.97539e-11
 3.91081e-12 -9.41974e-05 -6.05818e-12
 2.0231e-11 -9.41976e-05 7.71257e-11
 -4.58136e-12 -9.41978e-05 1.18989e-10
 5.25205e-11 -9.4198e-05 1.0217e-10
 3.5515e-11 -9.41978e-05 1.78982e-11
 3.16103e-13 -9.41976e-05 2.9627e-11
 2.11939e-12 -9.41973e-05 -4.29331e-12
 3.03712e-11 -9.4197e-05 -5.10224e-11
 1.26711e-11 -9.41971e-05 -1.27808e-12
 -2.24025e-11 -9.41973e-05 8.82598e-11
 8.49199e-12 -9.41974e-05 1.24715e-10
 7.70827e-13 -9.41977e-05 9.37635e-11
 -1.59274e-11 -9.41974e-05 2.1038e-11
 9.3165e-12 -9.41971e-05 6.18363e-12
 3.57924e-11 -9.41968e-05 -4.82217e-12
 -3.24221e-11 -0.000208356 -2.29995e-11
 1.0282e-11 -0.000208356 1.16257e-11
 1.11747e-11 -0.000208356 3.97818e-12
 5.89646e-12 -0.000208356 4.838e-11
 1.85333e-11 -0.000208357 4.10635e-11
 3.95582e-13 -0.000208357 7.94469e-11
 -3.57024e-11 -0.000208356 -7.80969e-12
 -3.87072e-11 -0.000208356 1.57803e-11
 6.08941e-11 -0.000208356 -1.07605e-10
 -2.3231e-11 -0.000208357 7.07424e-11
 9.50106e-12 -0.000208357 8.57134e-11
 -1.34073e-11 -0.000208357 5.50712e-11
 -2.00261e-11 -0.000208357 2.61607e-11
 2.46093e-11 -0.000208357 4.86855e-11
 1.45468e-11 -0.000208357 -7.7489e-12
 2.97095e-11 -0.000208357 1.58455e-11
 1.91158e-11 -0.000208357 -5.50907e-11
 4.89405e-11 -0.000208357 7.15947e-12
 3.30598e-11 -0.000208357 7.49492e-11
 1.57494e-11 -0.000208358 1.0726e-10
 2.50817e-11 -0.000208358 4.4359e-11
 4.09143e-11 -0.000208358 2.99546e-11
 5.48678e-11 -0.000208357 -7.80626e-12
 4.74346e-11 -0.000208357 3.47796e-12
 5.40425e-11 -0.000208357 9.3556e-12
 8.78888e-11 -0.000208357 -1.215e-11
 3.78813e-11 -0.000208358 2.7033e-11
 8.69169e-11 -0.000208358 7.03161e-11
 9.43469e-11 -0.000208358 1.1728e-10
 8.55534e-11 -0.000208358 3.06752e-11
 6.27022e-11 -0.000208358 -8.11322e-12
 1.34335e-10 -0.000208358 -1.27335e-11
 2.75873e-11 -0.000208357 -8.80101e-11
 5.9081e-11 -0.000208357 6.24316e-11
 8.70911e-11 -0.000208357 9.23559e-11
 9.98634e-11 -0.000208357 7.69719e-11
 9.3217e-11 -0.000208357 4.81233e-11
 7.41157e-11 -0.000208357 3.63526e-11
 1.21576e-10 -0.000208357 7.27057e-12
 4.52016e-11 -0.000208357 6.791e-12
 9.13509e-11 -0.000208357 -1.59851e-11
 5.53993e-11 -0.000208357 1.63906e-11
 6.82702e-11 -0.000208357 1.71641e-11
 3.69991e-11 -0.000208358 9.97486e-11
 3.49019e-11 -0.000208358 6.85734e-11
 2.37982e-11 -0.000208358 5.62625e-11
 6.07177e-11 -0.000208357 -8.76156e-12
 4.09758e-11 -0.000208357 8.35975e-12
 -1.09881e-11 -0.000208357 -1.97543e-11
 -2.95743e-12 -0.000208357 6.19659e-12
 -1.2041e-11 -0.000208358 6.20975e-11
 -4.32577e-12 -0.000208358 8.93333e-11
 1.44348e-11 -0.000208358 5.79888e-11
 2.35295e-11 -0.000208358 4.07938e-11
 -1.40517e-11 -0.000208358 1.33745e-11
 -1.18854e-11 -0.000208358 -8.81221e-12
 -1.30395e-11 -0.000208357 -1.93368e-11
 -3.34609e-11 -0.000208357 1.13805e-11
 -2.75939e-11 -0.000208358 2.88067e-11
 -1.49474e-11 -0.000208358 6.2464e-11
 -2.15034e-11 -0.000208358 1.35737e-10
 -3.1471e-11 -0.000208358 1.12344e-11
 -2.0753e-11 -0.000208358 1.48895e-11
 -7.01768e-13 -0.000208358 -4.49128e-12
 -2.33021e-11 0.00030555 -3.03134e-11
 -1.16977e-11 0.00030555 3.67388e-12
 -9.32524e-12 0.000305549 1.94325e-11
 8.97923e-13 0.000305549 7.96335e-11
 -2.58573e-12 0.00030555 9.95947e-11
 1.31139e-13 0.000305549 2.34478e-11
 -9.26629e-12 0.000305548 -2.71829e-11
 -8.45843e-12 0.000305548 -2.29689e-11
 2.36307e-11 0.000305551 -1.16057e-11
 -1.35904e-12 0.00030555 1.11331e-11
 4.0453e-12 0.000305549 3.8227e-11
 5.79379e-12 0.000305549 1.56817e-11
 -1.79035e-11 0.00030555 1.20681e-10
 2.00534e-12 0.000305549 5.87772e-11
 1.2241e-11 0.000305548 -3.05914e-11
 6.96607e-12 0.000305548 -3.66441e-11
 3.55062e-11 0.000305551 -1.88859e-11
 4.57212e-11 0.00030555 3.17792e-11
 1.50389e-11 0.00030555 3.15419e-11
 -8.01268e-12 0.000305549 1.79205e-11
 2.80953e-11 0.00030555 7.63215e-11
 1.95051e-11 0.00030555 7.56369e-11
 1.56792e-11 0.000305549 4.47113e-12
 3.69033e-11 0.000305548 -3.27839e-11
 6.6906e-12 0.000305551 -1.61205e-11
 5.32107e-11 0.000305551 1.26561e-11
 2.78204e-11 0.00030555 1.76063e-11
 4.5502e-11 0.00030555 4.79942e-11
 5.29563e-11 0.00030555 7.27334e-11
 3.35311e-11 0.00030555 3.27946e-11
 3.48341e-11 0.000305549 6.15414e-11
 1.01225e-11 0.000305548 -2.2863e-11
 2.52889e-11 0.000305551 -1.1766e-11
 1.89086e-11 0.000305551 -8.24125e-12
 8.28941e-11 0.00030555 2.53004e-11
 7.56064e-11 0.000305549 2.09669e-11
 6.82708e-11 0.00030555 1.32171e-10
 5.29585e-11 0.000305549 7.04896e-11
 3.29678e-11 0.000305548 -1.33892e-11
 5.81188e-11 0.000305547 -2.90219e-11
 3.75993e-11 0.000305551 -2.82943e-11
 6.27781e-12 0.000305551 2.78028e-11
 1.66825e-11 0.00030555 2.28257e-11
 1.1351e-11 0.00030555 2.1725e-11
 2.03245e-11 0.00030555 8.8254e-11
 2.65044e-11 0.000305549 5.68407e-11
 1.25178e-11 0.000305549 2.72282e-11
 2.31511e-11 0.000305548 -2.28078e-11
 -1.37891e-11 0.000305551 -2.60882e-11
 5.9528e-12 0.000305551 1.75459e-11
 -8.3792e-12 0.00030555 6.17621e-12
 1.47449e-11 0.00030555 6.7176e-11
 -1.73023e-11 0.00030555 6.19396e-11
 -3.24343e-11 0.00030555 4.87527e-11
 4.38499e-11 0.00030555 4.87663e-11
 2.88643e-11 0.000305549 -2.36308e-11
 -2.59839e-11 0.000305551 -2.04973e-12
 -3.35764e-11 0.000305551 4.78394e-12
 -2.75427e-11 0.000305551 2.3086e-12
 -2.68517e-11 0.000305551 4.41062e-11
 -2.97673e-11 0.000305551 1.38226e-10
 6.20001e-12 0.00030555 3.22285e-11
 -2.81074e-11 0.00030555 1.04374e-12
 -3.4636e-11 0.00030555 -1.29448e-11
 -4.73317e-11 -0.000218242 -5.31199e-11
 -3.53069e-11 -0.000218242 -2.10075e-11
 -3.73866e-11 -0.000218242 3.51216e-11
 -4.26046e-11 -0.000218243 5.44757e-11
 -5.31201e-11 -0.000218243 5.04121e-11
 -4.65725e-11 -0.000218243 1.23281e-10
 -4.08054e-11 -0.000218243 -3.59322e-11
 -2.0948e-11 -0.000218243 -3.00493e-11
 1.59692e-11 -0.000218242 -5.18588e-11
 7.43422e-12 -0.000218243 -1.81102e-11
 1.79726e-11 -0.000218243 5.62477e-11
 1.76621e-11 -0.000218243 5.09419e-11
 3.93103e-11 -0.000218243 2.73861e-11
 8.0238e-12 -0.000218243 1.38427e-10
 8.52344e-12 -0.000218243 -3.28309e-11
 -1.78824e-12 -0.000218243 -2.39826e-11
 -6.38301e-12 -0.000218243 -5.53889e-11
 2.13351e-11 -0.000218243 -6.47091e-12
 2.1572e-11 -0.000218244 6.04227e-11
 9.74466e-13 -0.000218244 1.05566e-10
 1.27369e-11 -0.000218243 4.43035e-11
 2.02546e-12 -0.000218243 5.48751e-11
 3.5476e-12 -0.000218243 -1.95419e-11
 3.96829e-12 -0.000218243 -1.45083e-11
 -9.56277e-12 -0.000218244 -6.30918e-11
 -1.07219e-11 -0.000218244 4.99681e-12
 1.23548e-11 -0.000218244 7.48354e-11
 8.2845e-12 -0.000218244 1.16048e-10
 -2.00381e-12 -0.000218243 3.4089e-11
 1.84418e-11 -0.000218243 6.16882e-11
 4.94603e-12 -0.000218243 -2.78575e-11
 1.55552e-12 -0.000218243 -8.41284e-12
 -1.63732e-11 -0.000218243 -7.27894e-11
 2.76265e-12 -0.000218243 -6.62361e-12
 4.28452e-12 -0.000218244 5.6102e-11
 3.07702e-11 -0.000218244 1.10003e-10
 -1.11332e-11 -0.000218243 2.4245e-11
 3.61762e-11 -0.000218243 8.4814e-11
 -2.7012e-11 -0.000218243 -3.30621e-11
 -7.46848e-12 -0.000218243 -2.73025e-11
 3.44066e-13 -0.000218244 -5.51607e-11
 -1.96833e-13 -0.000218244 -8.3207e-12
 -2.1217e-11 -0.000218244 5.05603e-11
 3.1461e-11 -0.000218244 1.23805e-10
 4.86831e-11 -0.000218243 -2.06365e-12
 -3.22201e-11 -0.000218243 1.04541e-10
 4.65491e-11 -0.000218243 -4.03217e-11
 -6.40177e-12 -0.000218243 -2.36249e-11
 2.53273e-11 -0.000218244 -5.01061e-11
 1.77254e-11 -0.000218244 -9.89649e-12
 2.8819e-11 -0.000218244 4.44911e-11
 4.30449e-12 -0.000218244 7.75129e-11
 -2.46355e-11 -0.000218244 5.60102e-11
 2.12374e-11 -0.000218243 1.0411e-10
 3.56991e-11 -0.000218243 -3.00575e-11
 6.98413e-11 -0.000218243 -2.86195e-11
 -1.631e-11 -0.000218245 -4.44693e-11
 -2.81962e-11 -0.000218245 -1.20152e-12
 -2.24034e-11 -0.000218244 5.10166e-11
 -1.77004e-11 -0.000218244 9.46556e-11
 -3.31971e-11 -0.000218244 3.05437e-11
 -2.06274e-11 -0.000218244 1.04069e-10
 -3.51205e-11 -0.000218243 -2.75669e-11
 -3.25902e-11 -0.000218243 -2.95777e-11
 -2.36154e-11 -0.000419565 -5.39761e-12
 -3.12389e-11 -0.000419565 -1.36548e-11
 -3.90339e-11 -0.000419565 -1.09075e-11
 -3.71656e-11 -0.000419565 5.84977e-11
 -3.57925e-11 -0.000419565 7.3505e-11
 -3.0396e-11 -0.000419565 3.3322e-12
 -3.41892e-11 -0.000419565 5.96964e-12
 -4.14734e-11 -0.000419566 -2.00357e-11
 5.01285e-11 -0.000419565 -4.41826e-12
 3.47432e-11 -0.000419565 -1.69909e-11
 2.14082e-12 -0.000419565 -1.94052e-11
 1.86013e-11 -0.000419565 6.32655e-11
 1.63156e-11 -0.000419565 7.56473e-11
 7.59714e-12 -0.000419565 4.2192e-11
 1.19427e-11 -0.000419566 -2.43114e-11
 1.72339e-11 -0.000419566 -1.95984e-11
 9.98498e-12 -0.000419565 -5.39458e-12
 2.5446e-11 -0.000419565 -1.92948e-11
 7.42346e-11 -0.000419565 -1.83802e-11
 2.34429e-11 -0.000419565 5.16458e-11
 2.03236e-11 -0.000419565 7.51874e-11
 4.95213e-11 -0.000419565 7.6671e-11
 5.7391e-11 -0.000419566 -3.18659e-11
 5.14382e-11 -0.000419566 -2.71175e-11
 1.6496e-11 -0.000419565 -6.93339e-12
 1.66872e-11 -0.000419565 -1.2061e-11
 1.12938e-11 -0.000419565 -1.35664e-11
 5.64458e-11 -0.000419566 8.09691e-11
 5.89191e-11 -0.000419565 6.20735e-11
 3.94577e-11 -0.000419565 5.53442e-11
 2.319e-11 -0.000419566 -3.6898e-11
 4.06288e-11 -0.000419566 -2.24039e-11
 1.20876e-11 -0.000419565 -5.7942e-12
 2.14543e-11 -0.000419565 -1.13792e-11
 7.31634e-11 -0.000419566 -6.88997e-12
 2.60616e-11 -0.000419566 4.68525e-11
 2.38472e-11 -0.000419565 8.32857e-11
 3.0599e-11 -0.000419566 7.66286e-11
 2.77161e-11 -0.000419566 -3.73002e-11
 6.88066e-12 -0.000419566 -2.7563e-11
 4.30513e-11 -0.000419565 -4.01022e-12
 5.94162e-11 -0.000419565 -1.70669e-11
 1.54246e-11 -0.000419565 -1.83185e-11
 6.35392e-11 -0.000419565 7.56428e-11
 7.61899e-11 -0.000419565 7.44063e-11
 6.84594e-11 -0.000419565 5.80114e-11
 7.1835e-11 -0.000419566 -3.59833e-11
 8.69723e-11 -0.000419566 -2.13419e-11
 -6.67192e-12 -0.000419566 -1.76222e-11
 -1.0683e-11 -0.000419565 -1.08104e-11
 -1.65552e-11 -0.000419565 -6.46272e-12
 -2.35744e-11 -0.000419565 7.2204e-11
 -1.68738e-11 -0.000419565 6.53639e-11
 -2.30674e-11 -0.000419565 5.76122e-11
 -1.48838e-11 -0.000419565 -3.30642e-11
 -1.62865e-11 -0.000419566 -2.238e-11
 -1.23533e-11 -0.000419566 -2.21054e-11
 -1.67782e-11 -0.000419566 -7.04513e-13
 -1.16867e-11 -0.000419565 2.20872e-11
 -8.43962e-12 -0.000419565 7.0995e-11
 -1.71721e-11 -0.000419565 2.26058e-11
 -2.56815e-11 -0.000419565 3.50989e-11
 -3.57853e-11 -0.000419565 -2.194e-12
 -4.74502e-11 -0.000419565 -2.74365e-11
 1.56392e-13 0.000435678 -2.22194e-11
 -1.51588e-13 0.000435678 -1.29201e-11
 -9.17028e-12 0.000435677 3.84829e-11
 -9.12016e-12 0.000435677 8.36923e-11
 -1.23555e-11 0.000435677 4.20512e-11
 2.31189e-12 0.000435677 7.94062e-11
 1.11751e-11 0.000435677 -2.29245e-11
 7.91733e-12 0.000435677 -1.75019e-11
 -3.30875e-12 0.000435678 -2.31197e-11
 1.16271e-12 0.000435678 -8.08367e-12
 1.05647e-11 0.000435677 4.4691e-11
 1.49111e-11 0.000435677 7.99104e-11
 8.76242e-13 0.000435678 5.02288e-11
 1.13254e-11 0.000435677 5.94862e-11
 1.32104e-11 0.000435677 -8.88617e-12
 8.33526e-12 0.000435677 -2.46838e-11
 1.41607e-11 0.000435678 -3.04135e-11
 -1.7393e-12 0.000435678 -1.61697e-12
 -6.86225e-12 0.000435677 3.41861e-11
 -1.53206e-11 0.000435677 5.75217e-11
 1.40442e-12 0.000435678 8.56919e-11
 -2.21163e-12 0.000435678 6.7474e-11
 -1.78457e-11 0.000435677 -1.5338e-11
 -1.79502e-11 0.000435677 -2.64815e-11
 -7.38602e-12 0.000435678 -2.66752e-11
 -1.81969e-12 0.000435678 2.32319e-12
 -9.71701e-12 0.000435677 2.74617e-11
 2.06201e-12 0.000435677 5.88798e-11
 8.3165e-12 0.000435678 9.1125e-11
 -1.76546e-11 0.000435678 7.56221e-11
 -3.42308e-11 0.000435677 -2.73723e-11
 -2.16918e-11 0.000435677 -2.88658e-11
 2.95902e-11 0.000435678 -2.74436e-11
 -3.27158e-12 0.000435678 1.78839e-12
 -5.58932e-12 0.000435678 4.85261e-11
 -3.5195e-12 0.000435677 4.6353e-11
 3.67828e-12 0.000435678 8.15782e-11
 -2.06332e-11 0.000435678 8.09341e-11
 -2.42031e-11 0.000435678 -2.72438e-11
 -3.8564e-11 0.000435677 -2.62638e-11
 2.48183e-13 0.000435678 -2.69511e-11
 7.6627e-13 0.000435678 3.97465e-13
 -2.3605e-11 0.000435677 4.60348e-11
 -2.5326e-11 0.000435677 3.46499e-11
 -1.53811e-11 0.000435678 7.70956e-11
 -2.4394e-11 0.000435677 8.20112e-11
 -7.55648e-12 0.000435677 -2.29547e-11
 -1.37081e-11 0.000435677 -2.67167e-11
 -2.90332e-11 0.000435677 -2.9915e-11
 1.98686e-11 0.000435677 -2.00039e-12
 3.26215e-11 0.000435677 3.44613e-11
 2.31405e-12 0.000435677 2.77312e-11
 -7.00374e-12 0.000435677 7.53549e-11
 1.08702e-11 0.000435677 7.91509e-11
 2.4636e-11 0.000435677 -1.04987e-11
 1.83173e-11 0.000435677 -2.53792e-11
 2.07441e-11 0.000435677 -2.70769e-11
 8.81902e-12 0.000435677 1.66388e-12
 3.38628e-11 0.000435676 1.68234e-11
 5.45798e-11 0.000435676 3.03397e-11
 4.4983e-11 0.000435677 9.41387e-11
 5.40888e-11 0.000435677 4.22115e-11
 3.77079e-11 0.000435677 -1.16199e-12
 4.94352e-11 0.000435677 -2.26982e-11
 1.30292e-11 -0.00030347 -5.44033e-11
 1.85256e-11 -0.00030347 9.57632e-13
 2.10345e-11 -0.00030347 6.9098e-11
 2.20396e-11 -0.000303471 1.0342e-10
 4.32344e-12 -0.00030347 3.36958e-11
 2.37971e-11 -0.00030347 1.03002e-10
 1.94644e-11 -0.000303471 -3.14477e-12
 1.20356e-11 -0.000303471 -2.18527e-11
 -2.01062e-11 -0.00030347 -4.76073e-11
 -2.58444e-11 -0.00030347 4.31087e-12
 -2.31195e-11 -0.00030347 5.45418e-11
 -2.73e-11 -0.00030347 8.26091e-11
 -4.79988e-12 -0.00030347 5.28921e-11
 -4.37408e-11 -0.00030347 1.14746e-10
 3.15789e-12 -0.000303471 -5.09692e-12
 -2.45033e-12 -0.000303471 -2.70827e-11
 2.87336e-12 -0.00030347 -3.39443e-11
 -1.5101e-11 -0.00030347 4.63521e-12
 -9.03182e-12 -0.00030347 4.92737e-11
 -1.40186e-11 -0.00030347 5.72761e-11
 -8.90771e-12 -0.00030347 7.81735e-11
 -5.48455e-12 -0.00030347 1.11366e-10
 -2.77651e-11 -0.00030347 -8.27385e-12
 -1.165e-12 -0.000303471 -3.06569e-11
 -1.55994e-11 -0.00030347 -1.35939e-11
 7.74069e-12 -0.00030347 6.87312e-12
 -7.55163e-12 -0.00030347 3.1252e-11
 -4.37406e-12 -0.00030347 5.24386e-11
 -1.74416e-11 -0.00030347 1.02913e-10
 -1.50989e-12 -0.00030347 9.01275e-11
 -4.68637e-11 -0.00030347 -8.96863e-12
 -7.185e-11 -0.000303471 -3.46477e-11
 2.83225e-12 -0.000303469 -4.10161e-11
 -5.25689e-12 -0.00030347 1.93115e-11
 -1.01408e-11 -0.00030347 3.07821e-11
 -1.66104e-11 -0.00030347 8.4699e-11
 -1.32647e-11 -0.000303469 5.58129e-11
 -1.95798e-11 -0.00030347 1.07735e-10
 -1.40564e-11 -0.00030347 -9.01757e-12
 -1.41592e-11 -0.000303471 -2.07477e-11
 -1.05128e-11 -0.00030347 -3.96432e-11
 -4.99321e-12 -0.00030347 1.39499e-11
 -1.33814e-11 -0.00030347 3.57281e-11
 -2.04731e-11 -0.00030347 5.02773e-11
 -9.23621e-12 -0.00030347 9.13586e-11
 -2.50849e-11 -0.00030347 8.99944e-11
 -1.11042e-11 -0.00030347 -9.33234e-12
 -1.31868e-11 -0.000303471 -2.61001e-11
 -3.98326e-12 -0.00030347 -3.11291e-11
 -1.06508e-11 -0.00030347 1.41752e-11
 -1.0996e-11 -0.00030347 1.48976e-11
 -3.71198e-12 -0.00030347 5.37992e-11
 -9.70607e-12 -0.00030347 9.9271e-11
 -4.44084e-12 -0.00030347 7.28995e-11
 -1.49031e-11 -0.00030347 -1.20829e-11
 -1.51569e-11 -0.000303471 -2.69259e-11
 4.4169e-12 -0.00030347 -2.0549e-11
 -2.36053e-12 -0.00030347 1.42909e-11
 4.34036e-12 -0.00030347 1.12473e-11
 4.7037e-12 -0.00030347 5.12064e-11
 8.35612e-13 -0.00030347 9.78672e-11
 5.79125e-12 -0.00030347 5.41263e-11
 9.76755e-12 -0.000303471 -1.296e-11
 1.1568e-11 -0.000303471 -3.16491e-11
 -8.94573e-12 -0.000207321 -5.68085e-11
 -1.05241e-11 -0.000207321 1.05676e-11
 -1.34387e-11 -0.000207321 7.33946e-11
 -1.49357e-11 -0.000207321 1.16345e-10
 -6.28884e-12 -0.00020732 2.71744e-11
 -9.18847e-12 -0.000207321 1.14496e-10
 -1.40086e-11 -0.000207321 5.59338e-12
 -1.58072e-11 -0.000207322 -7.83948e-12
 5.67973e-12 -0.000207321 -5.50285e-11
 9.74805e-13 -0.000207321 1.64539e-11
 1.28048e-12 -0.000207321 5.87697e-11
 -6.23339e-13 -0.000207321 1.11157e-10
 3.36373e-12 -0.00020732 4.28494e-11
 -1.2621e-12 -0.000207321 1.14081e-10
 -7.69712e-12 -0.000207321 1.30307e-12
 -1.79245e-11 -0.000207321 -1.0565e-11
 -2.73465e-11 -0.000207321 -3.69196e-11
 -3.08199e-11 -0.000207321 1.40699e-11
 -4.00107e-11 -0.000207321 3.72155e-11
 -1.78408e-11 -0.00020732 9.20111e-11
 -4.66487e-11 -0.00020732 7.75139e-11
 -1.90542e-11 -0.00020732 1.0729e-10
 -5.38143e-11 -0.000207321 1.1741e-13
 -5.71756e-11 -0.000207321 -1.61792e-11
 5.61458e-13 -0.000207321 -2.85275e-11
 -2.21893e-11 -0.000207321 1.46908e-11
 -1.42413e-11 -0.00020732 2.95415e-11
 -3.17638e-11 -0.00020732 7.84645e-11
 -3.87489e-12 -0.00020732 1.02799e-10
 -4.46608e-11 -0.00020732 1.00489e-10
 -8.6908e-12 -0.000207321 -3.89918e-12
 -2.05117e-11 -0.000207321 -2.23463e-11
 -2.99376e-11 -0.000207321 -5.19269e-11
 -1.40345e-11 -0.000207321 1.20441e-11
 -9.09642e-12 -0.000207321 5.74236e-11
 -1.41025e-11 -0.000207321 1.14005e-10
 -2.73501e-11 -0.00020732 4.21844e-11
 -4.65678e-11 -0.000207321 1.00326e-10
 -2.1873e-11 -0.000207321 -2.53198e-12
 -9.61108e-12 -0.000207322 -2.9402e-12
 -3.1937e-11 -0.000207321 -4.33678e-11
 -4.12701e-11 -0.000207321 2.06074e-11
 -4.13896e-11 -0.00020732 4.88997e-11
 -4.64084e-11 -0.00020732 9.49246e-11
 -7.71478e-11 -0.00020732 4.36542e-11
 -6.79265e-11 -0.00020732 9.62309e-11
 -6.6161e-11 -0.000207321 -9.90102e-12
 -8.81849e-11 -0.000207321 -9.33445e-12
 -7.32373e-12 -0.00020732 -2.97965e-11
 -9.54513e-12 -0.00020732 1.88466e-11
 -2.45122e-11 -0.00020732 4.55766e-11
 -4.14475e-11 -0.00020732 9.27551e-11
 3.01377e-12 -0.00020732 3.38108e-11
 1.51271e-11 -0.00020732 7.61601e-11
 -2.3593e-11 -0.000207321 -7.2371e-12
 -1.60478e-12 -0.000207321 -1.52718e-11
 2.87559e-11 -0.00020732 -1.01029e-11
 3.82142e-11 -0.00020732 1.28661e-11
 3.35222e-11 -0.00020732 2.53672e-11
 4.05396e-11 -0.000207319 7.67875e-11
 2.79175e-11 -0.000207319 4.99207e-11
 3.34294e-11 -0.00020732 6.34367e-11
 4.26424e-11 -0.000207321 -1.35671e-11
 4.4539e-11 -0.000207321 -1.67435e-11
 1.08692e-11 -0.000279234 -7.89073e-11
 1.24887e-11 -0.000279234 2.69029e-12
 9.60631e-12 -0.000279234 8.55352e-11
 9.7771e-12 -0.000279234 1.13896e-10
 1.60235e-11 -0.000279234 1.09796e-10
 1.09188e-11 -0.000279234 3.0408e-11
 1.08414e-11 -0.000279234 8.78813e-13
 5.28397e-12 -0.000279234 9.51311e-12
 -1.20145e-11 -0.000279234 -7.94857e-11