<?xml version="1.0"?>
<VTKFile type="UnstructuredGrid" version="0.1" byte_order="LittleEndian" compressor="vtkZLibDataCompressor">
<UnstructuredGrid>
<Piece NumberOfPoints="960" NumberOfCells="120">
<Points>
<DataArray type="Float32" NumberOfComponents="3" format="ascii">
-4.000000e+02 -6.000000e+03 -4.000000e+02
0.000000e+00 -6.000000e+03 -4.000000e+02
-4.000000e+02 -5.599960e+03 -4.000000e+02
-7.419200e-10 -5.599960e+03 -4.000000e+02
-4.000000e+02 -6.000000e+03 0.000000e+00
0.000000e+00 -6.000000e+03 0.000000e+00
-4.000000e+02 -5.599960e+03 -7.209860e-10
-5.228200e-10 -5.599960e+03 -5.350020e-10
0.000000e+00 -6.000000e+03 -4.000000e+02
4.000000e+02 -6.000000e+03 -4.000000e+02
-7.419200e-10 -5.599960e+03 -4.000000e+02
4.000000e+02 -5.599960e+03 -4.000000e+02
0.000000e+00 -6.000000e+03 0.000000e+00
4.000000e+02 -6.000000e+03 0.000000e+00
-5.228200e-10 -5.599960e+03 -5.350020e-10
4.000000e+02 -5.599960e+03 -1.475020e-10
-4.000000e+02 -5.599960e+03 -4.000000e+02
-7.419200e-10 -5.599960e+03 -4.000000e+02
-4.000000e+02 -5.199990e+03 -4.000000e+02
-1.828800e-09 -5.199990e+03 -4.000000e+02
-4.000000e+02 -5.599960e+03 -7.209860e-10
-5.228200e-10 -5.599960e+03 -5.350020e-10
-4.000000e+02 -5.199990e+03 -5.012430e-10
-9.288230e-10 -5.199990e+03 -1.547300e-10
-7.419200e-10 -5.599960e+03 -4.000000e+02
4.000000e+02 -5.599960e+03 -4.000000e+02
-1.828800e-09 -5.199990e+03 -4.000000e+02
4.000000e+02 -5.199990e+03 -4.000000e+02
-5.228200e-10 -5.599960e+03 -5.350020e-10
4.000000e+02 -5.599960e+03 -1.475020e-10
-9.288230e-10 -5.199990e+03 -1.547300e-10
4.000000e+02 -5.199990e+03 6.376590e-10
-4.000000e+02 -5.199990e+03 -4.000000e+02
-1.828800e-09 -5.199990e+03 -4.000000e+02
-4.000000e+02 -4.800080e+03 -4.000000e+02
-1.265580e-09 -4.800080e+03 -4.000000e+02
-4.000000e+02 -5.199990e+03 -5.012430e-10
-9.288230e-10 -5.199990e+03 -1.547300e-10
-4.000000e+02 -4.800080e+03 3.669850e-10
-9.255850e-10 -4.800080e+03 1.553060e-09
-1.828800e-09 -5.199990e+03 -4.000000e+02
4.000000e+02 -5.199990e+03 -4.000000e+02
-1.265580e-09 -4.800080e+03 -4.000000e+02
4.000000e+02 -4.800080e+03 -4.000000e+02
-9.288230e-10 -5.199990e+03 -1.547300e-10
4.000000e+02 -5.199990e+03 6.376590e-10
-9.255850e-10 -4.800080e+03 1.553060e-09
4.000000e+02 -4.800080e+03 6.750930e-10
-4.000000e+02 -4.800080e+03 -4.000000e+02
-1.265580e-09 -4.800080e+03 -4.000000e+02
-4.000000e+02 -4.400160e+03 -4.000000e+02
-5.102670e-10 -4.400160e+03 -4.000000e+02
-4.000000e+02 -4.800080e+03 3.669850e-10
-9.255850e-10 -4.800080e+03 1.553060e-09
-4.000000e+02 -4.400160e+03 3.096310e-11
-9.555820e-10 -4.400160e+03 1.102530e-10
-1.265580e-09 -4.800080e+03 -4.000000e+02
4.000000e+02 -4.800080e+03 -4.000000e+02
-5.102670e-10 -4.400160e+03 -4.000000e+02
4.000000e+02 -4.400160e+03 -4.000000e+02
-9.255850e-10 -4.800080e+03 1.553060e-09
4.000000e+02 -4.800080e+03 6.750930e-10
-9.555820e-10 -4.400160e+03 1.102530e-10
4.000000e+02 -4.400160e+03 -7.580150e-10
-4.000000e+02 -4.400160e+03 -4.000000e+02
-5.102670e-10 -4.400160e+03 -4.000000e+02
-4.000000e+02 -4.000210e+03 -4.000000e+02
-5.951690e-10 -4.000210e+03 -4.000000e+02
-4.000000e+02 -4.400160e+03 3.096310e-11
-9.555820e-10 -4.400160e+03 1.102530e-10
-4.000000e+02 -4.000210e+03 7.482140e-10
1.539460e-10 -4.000210e+03 -5.903260e-10
-5.102670e-10 -4.400160e+03 -4.000000e+02
4.000000e+02 -4.400160e+03 -4.000000e+02
-5.951690e-10 -4.000210e+03 -4.000000e+02
4.000000e+02 -4.000210e+03 -4.000000e+02
-9.555820e-10 -4.400160e+03 1.102530e-10
4.000000e+02 -4.400160e+03 -7.580150e-10
1.539460e-10 -4.000210e+03 -5.903260e-10
4.000000e+02 -4.000210e+03 -3.362230e-10
-4.000000e+02 -4.000210e+03 -4.000000e+02
-5.951690e-10 -4.000210e+03 -4.000000e+02
-4.000000e+02 -3.600250e+03 -4.000000e+02
6.736310e-10 -3.600250e+03 -4.000000e+02
-4.000000e+02 -4.000210e+03 7.482140e-10
1.539460e-10 -4.000210e+03 -5.903260e-10
-4.000000e+02 -3.600250e+03 2.228060e-10
2.195120e-10 -3.600250e+03 4.684260e-10
-5.951690e-10 -4.000210e+03 -4.000000e+02
4.000000e+02 -4.000210e+03 -4.000000e+02
6.736310e-10 -3.600250e+03 -4.000000e+02
4.000000e+02 -3.600250e+03 -4.000000e+02
1.539460e-10 -4.000210e+03 -5.903260e-10
4.000000e+02 -4.000210e+03 -3.362230e-10
2.195120e-10 -3.600250e+03 4.684260e-10
4.000000e+02 -3.600250e+03 -5.218520e-10
-4.000000e+02 -3.600250e+03 -4.000000e+02
6.736310e-10 -3.600250e+03 -4.000000e+02
-4.000000e+02 -3.200280e+03 -4.000000e+02
5.309750e-10 -3.200280e+03 -4.000000e+02
-4.000000e+02 -3.600250e+03 2.228060e-10
2.195120e-10 -3.600250e+03 4.684260e-10
-4.000000e+02 -3.200280e+03 7.510760e-10
1.258380e-10 -3.200280e+03 3.553090e-10
6.736310e-10 -3.600250e+03 -4.000000e+02
4.000000e+02 -3.600250e+03 -4.000000e+02
5.309750e-10 -3.200280e+03 -4.000000e+02
4.000000e+02 -3.200280e+03 -4.000000e+02
2.195120e-10 -3.600250e+03 4.684260e-10
4.000000e+02 -3.600250e+03 -5.218520e-10
1.258380e-10 -3.200280e+03 3.553090e-10
4.000000e+02 -3.200280e+03 -8.338150e-10
-4.000000e+02 -3.200280e+03 -4.000000e+02
5.309750e-10 -3.200280e+03 -4.000000e+02
-4.000000e+02 -2.800280e+03 -4.000000e+02
-3.655390e-10 -2.800280e+03 -4.000000e+02
-4.000000e+02 -3.200280e+03 7.510760e-10
1.258380e-10 -3.200280e+03 3.553090e-10
-4.000000e+02 -2.800280e+03 4.341960e-10
-6.163100e-10 -2.800280e+03 9.600440e-10
5.309750e-10 -3.200280e+03 -4.000000e+02
4.000000e+02 -3.200280e+03 -4.000000e+02
-3.655390e-10 -2.800280e+03 -4.000000e+02
4.000000e+02 -2.800280e+03 -4.000000e+02
1.258380e-10 -3.200280e+03 3.553090e-10
4.000000e+02 -3.200280e+03 -8.338150e-10
-6.163100e-10 -2.800280e+03 9.600440e-10
4.000000e+02 -2.800280e+03 -1.340690e-10
-4.000000e+02 -2.800280e+03 -4.000000e+02
-3.655390e-10 -2.800280e+03 -4.000000e+02
-4.000000e+02 -2.400290e+03 -4.000000e+02
-1.915020e-12 -2.400290e+03 -4.000000e+02
-4.000000e+02 -2.800280e+03 4.341960e-10
-6.163100e-10 -2.800280e+03 9.600440e-10
-4.000000e+02 -2.400290e+03 3.837170e-10
9.387190e-11 -2.400290e+03 9.278070e-10
-3.655390e-10 -2.800280e+03 -4.000000e+02
4.000000e+02 -2.800280e+03 -4.000000e+02
-1.915020e-12 -2.400290e+03 -4.000000e+02
4.000000e+02 -2.400290e+03 -4.000000e+02
-6.163100e-10 -2.800280e+03 9.600440e-10
4.000000e+02 -2.800280e+03 -1.340690e-10
9.387190e-11 -2.400290e+03 9.278070e-10
4.000000e+02 -2.400290e+03 6.232010e-11
-4.000000e+02 -2.400290e+03 -4.000000e+02
-1.915020e-12 -2.400290e+03 -4.000000e+02
-4.000000e+02 -2.000290e+03 -4.000000e+02
8.135850e-10 -2.000290e+03 -4.000000e+02
-4.000000e+02 -2.400290e+03 3.837170e-10
9.387190e-11 -2.400290e+03 9.278070e-10
-4.000000e+02 -2.000290e+03 2.054370e-10
3.728140e-10 -2.000290e+03 -3.310840e-11
-1.915020e-12 -2.400290e+03 -4.000000e+02
4.000000e+02 -2.400290e+03 -4.000000e+02
8.135850e-10 -2.000290e+03 -4.000000e+02
4.000000e+02 -2.000290e+03 -4.000000e+02
9.387190e-11 -2.400290e+03 9.278070e-10
4.000000e+02 -2.400290e+03 6.232010e-11
3.728140e-10 -2.000290e+03 -3.310840e-11
4.000000e+02 -2.000290e+03 -2.638380e-10
-4.000000e+02 -2.000290e+03 -4.000000e+02
8.135850e-10 -2.000290e+03 -4.000000e+02
-4.000000e+02 -1.600290e+03 -4.000000e+02
4.863120e-10 -1.600290e+03 -4.000000e+02
-4.000000e+02 -2.000290e+03 2.054370e-10
3.728140e-10 -2.000290e+03 -3.310840e-11
-4.000000e+02 -1.600290e+03 -3.985970e-10
4.072900e-10 -1.600290e+03 -2.228610e-10
8.135850e-10 -2.000290e+03 -4.000000e+02
4.000000e+02 -2.000290e+03 -4.000000e+02
4.863120e-10 -1.600290e+03 -4.000000e+02
4.000000e+02 -1.600290e+03 -4.000000e+02
3.728140e-10 -2.000290e+03 -3.310840e-11
4.000000e+02 -2.000290e+03 -2.638380e-10
4.072900e-10 -1.600290e+03 -2.228610e-10
4.000000e+02 -1.600290e+03 -4.849180e-10
-4.000000e+02 -1.600290e+03 -4.000000e+02
4.863120e-10 -1.600290e+03 -4.000000e+02
-4.000000e+02 -1.200290e+03 -4.000000e+02
4.249630e-12 -1.200290e+03 -4.000000e+02
-4.000000e+02 -1.600290e+03 -3.985970e-10
4.072900e-10 -1.600290e+03 -2.228610e-10
-4.000000e+02 -1.200290e+03 -3.674080e-10
-2.519360e-10 -1.200290e+03 -2.423850e-10
4.863120e-10 -1.600290e+03 -4.000000e+02
4.000000e+02 -1.600290e+03 -4.000000e+02
4.249630e-12 -1.200290e+03 -4.000000e+02
4.000000e+02 -1.200290e+03 -4.000000e+02
4.072900e-10 -1.600290e+03 -2.228610e-10
4.000000e+02 -1.600290e+03 -4.849180e-10
-2.519360e-10 -1.200290e+03 -2.423850e-10
4.000000e+02 -1.200290e+03 2.226310e-10
-4.000000e+02 -1.200290e+03 -4.000000e+02
4.249630e-12 -1.200290e+03 -4.000000e+02
-4.000000e+02 -8.002950e+02 -4.000000e+02
-1.304760e-10 -8.002950e+02 -4.000000e+02
-4.000000e+02 -1.200290e+03 -3.674080e-10
-2.519360e-10 -1.200290e+03 -2.423850e-10
-4.000000e+02 -8.002950e+02 -4.651830e-10
-1.013530e-10 -8.002950e+02 -1.789370e-10
4.249630e-12 -1.200290e+03 -4.000000e+02
4.000000e+02 -1.200290e+03 -4.000000e+02
-1.304760e-10 -8.002950e+02 -4.000000e+02
4.000000e+02 -8.002950e+02 -4.000000e+02
-2.519360e-10 -1.200290e+03 -2.423850e-10
4.000000e+02 -1.200290e+03 2.226310e-10
-1.013530e-10 -8.002950e+02 -1.789370e-10
4.000000e+02 -8.002950e+02 -3.089540e-10
-4.000000e+02 -8.002950e+02 -4.000000e+02
-1.304760e-10 -8.002950e+02 -4.000000e+02
-4.000000e+02 -4.002970e+02 -4.000000e+02
-6.241380e-11 -4.002970e+02 -4.000000e+02
-4.000000e+02 -8.002950e+02 -4.651830e-10
-1.013530e-10 -8.002950e+02 -1.789370e-10
-4.000000e+02 -4.002970e+02 4.324220e-11
-2.070030e-10 -4.002970e+02 -2.459710e-10
-1.304760e-10 -8.002950e+02 -4.000000e+02
4.000000e+02 -8.002950e+02 -4.000000e+02
-6.241380e-11 -4.002970e+02 -4.000000e+02
4.000000e+02 -4.002970e+02 -4.000000e+02
-1.013530e-10 -8.002950e+02 -1.789370e-10
4.000000e+02 -8.002950e+02 -3.089540e-10
-2.070030e-10 -4.002970e+02 -2.459710e-10
4.000000e+02 -4.002970e+02 -6.095710e-10
-4.000000e+02 -4.002970e+02 -4.000000e+02
-6.241380e-11 -4.002970e+02 -4.000000e+02
-4.000000e+02 -2.968140e-01 -4.000000e+02
3.778510e-12 -2.968140e-01 -4.000000e+02
-4.000000e+02 -4.002970e+02 4.324220e-11
-2.070030e-10 -4.002970e+02 -2.459710e-10
-4.000000e+02 -2.968140e-01 3.566710e-10
9.199510e-11 -2.968140e-01 -1.920080e-10
-6.241380e-11 -4.002970e+02 -4.000000e+02
4.000000e+02 -4.002970e+02 -4.000000e+02
3.778510e-12 -2.968140e-01 -4.000000e+02
[...]
<PointData>
<DataArray type="Float32" Name="V1" format="ascii">
0.000000e+00
0.000000e+00
1.304030e-09
-6.713160e-10
0.000000e+00
0.000000e+00
9.740980e-10
1.043620e-09
0.000000e+00
0.000000e+00
-6.713160e-10
-2.089600e-09
0.000000e+00
0.000000e+00
1.043620e-09
1.885350e-10
1.304030e-09
-6.713160e-10
-3.770700e-10
7.503670e-10
9.740980e-10
1.043620e-09
3.142250e-10
-1.187840e-09
-6.713160e-10
-2.089600e-09
7.503670e-10
1.492570e-09
1.043620e-09
1.885350e-10
-1.187840e-09
-1.932480e-09
-3.770700e-10
7.503670e-10
1.099790e-09
-1.712520e-09
3.142250e-10
-1.187840e-09
-1.256900e-09
1.474370e-10
7.503670e-10
1.492570e-09
-1.712520e-09
-2.655200e-09
-1.187840e-09
-1.932480e-09
1.474370e-10
-3.142250e-10
1.099790e-09
-1.712520e-09
-9.112530e-10
-6.187710e-10
-1.256900e-09
1.474370e-10
-3.613590e-10
7.417950e-10
-1.712520e-09
-2.655200e-09
-6.187710e-10
1.885350e-10
1.474370e-10
-3.142250e-10
7.417950e-10
4.242040e-10
-9.112530e-10
-6.187710e-10
4.713380e-10
-2.175940e-10
-3.613590e-10
7.417950e-10
-4.870490e-10
-1.194350e-10
-6.187710e-10
1.885350e-10
-2.175940e-10
1.901060e-09
7.417950e-10
4.242040e-10
-1.194350e-10
6.755840e-10
4.713380e-10
-2.175940e-10
-3.157960e-09
-5.607840e-11
-4.870490e-10
-1.194350e-10
1.414010e-10
4.476470e-10
-2.175940e-10
1.901060e-09
-5.607840e-11
1.241190e-09
-1.194350e-10
6.755840e-10
4.476470e-10
7.227180e-10
-3.157960e-09
-5.607840e-11
2.152440e-09
-1.118710e-10
1.414010e-10
4.476470e-10
1.335460e-09
7.769670e-10
-5.607840e-11
1.241190e-09
-1.118710e-10
1.916770e-09
4.476470e-10
7.227180e-10
7.769670e-10
2.199580e-10
2.152440e-09
-1.118710e-10
3.613590e-10
1.006250e-09
1.335460e-09
7.769670e-10
8.012740e-10
-4.963620e-10
-1.118710e-10
1.916770e-09
1.006250e-09
1.414010e-09
7.769670e-10
2.199580e-10
-4.963620e-10
3.456480e-10
3.613590e-10
1.006250e-09
-9.426750e-10
-9.894140e-10
8.012740e-10
-4.963620e-10
6.598730e-10
-5.142340e-10
1.006250e-09
1.414010e-09
-9.894140e-10
-2.985140e-10
-4.963620e-10
3.456480e-10
-5.142340e-10
-1.712530e-09
-9.426750e-10
-9.894140e-10
1.916770e-09
2.309620e-10
6.598730e-10
-5.142340e-10
-1.508280e-09
4.346660e-10
-9.894140e-10
-2.985140e-10
2.309620e-10
-1.304030e-09
-5.142340e-10
-1.712530e-09
4.346660e-10
-1.728240e-10
1.916770e-09
2.309620e-10
1.901060e-09
-4.235440e-10
-1.508280e-09
4.346660e-10
0.000000e+00
-4.421430e-10
2.309620e-10
-1.304030e-09
-4.235440e-10
4.084930e-10
4.346660e-10
-1.728240e-10
-4.421430e-10
1.084080e-09
1.901060e-09
-4.235440e-10
-9.112530e-10
-7.159010e-10
0.000000e+00
-4.421430e-10
0.000000e+00
-3.876900e-10
-4.235440e-10
4.084930e-10
-7.159010e-10
-2.859450e-09
-4.421430e-10
1.084080e-09
-3.876900e-10
4.242040e-10
-9.112530e-10
-7.159010e-10
0.000000e+00
-1.023890e-09
0.000000e+00
-3.876900e-10
0.000000e+00
6.331970e-10
-7.159010e-10
-2.859450e-09
-1.023890e-09
0.000000e+00
-3.876900e-10
4.242040e-10
6.331970e-10
-6.127390e-10
0.000000e+00
-1.023890e-09
2.121020e-09
4.812240e-10
0.000000e+00
6.331970e-10
0.000000e+00
8.493690e-12
-1.023890e-09
0.000000e+00
4.812240e-10
9.269640e-10
6.331970e-10
-6.127390e-10
8.493690e-12
4.713380e-11
2.121020e-09
4.812240e-10
6.598730e-10
-9.514920e-10
0.000000e+00
8.493690e-12
0.000000e+00
9.737170e-10
4.812240e-10
9.269640e-10
-9.514920e-10
-1.728240e-10
8.493690e-12
4.713380e-11
9.737170e-10
0.000000e+00
6.598730e-10
-9.514920e-10
0.000000e+00
-5.522810e-10
0.000000e+00
9.737170e-10
0.000000e+00
-4.617540e-10
-9.514920e-10
-1.728240e-10
-5.522810e-10
0.000000e+00
9.737170e-10
0.000000e+00
-4.617540e-10
0.000000e+00
0.000000e+00
-5.522810e-10
5.184710e-10
5.351510e-10
0.000000e+00
-4.617540e-10
0.000000e+00
1.806290e-10
-5.522810e-10
0.000000e+00
5.351510e-10
0.000000e+00
-4.617540e-10
0.000000e+00
1.806290e-10
0.000000e+00
5.184710e-10
5.351510e-10
0.000000e+00
-2.047400e-10
0.000000e+00
1.806290e-10
0.000000e+00
-4.447480e-10
5.351510e-10
0.000000e+00
-2.047400e-10
-1.005520e-09
1.806290e-10
0.000000e+00
-4.447480e-10
0.000000e+00
0.000000e+00
-2.047400e-10
4.399150e-10
5.681920e-10
0.000000e+00
-4.447480e-10
0.000000e+00
1.885980e-12
-2.047400e-10
-1.005520e-09
5.681920e-10
0.000000e+00
-4.447480e-10
0.000000e+00
1.885980e-12
-2.356690e-10
4.399150e-10
5.681920e-10
-1.099790e-10
7.521050e-11
0.000000e+00
1.885980e-12
0.000000e+00
-6.899860e-11
5.681920e-10
0.000000e+00
7.521050e-11
5.027600e-10
1.885980e-12
-2.356690e-10
-6.899860e-11
0.000000e+00
-1.099790e-10
7.521050e-11
0.000000e+00
-1.229350e-10
0.000000e+00
-6.899860e-11
-1.571130e-10
-1.918280e-10
7.521050e-11
5.027600e-10
-1.229350e-10
0.000000e+00
-6.899860e-11
0.000000e+00
-1.918280e-10
0.000000e+00
0.000000e+00
-1.229350e-10
4.084930e-10
7.919150e-12
-1.571130e-10
-1.918280e-10
-2.985140e-10
-2.445790e-10
-1.229350e-10
0.000000e+00
7.919150e-12
0.000000e+00
-1.918280e-10
0.000000e+00
-2.445790e-10
0.000000e+00
4.084930e-10
7.919150e-12
0.000000e+00
-2.011660e-10
-2.985140e-10
-2.445790e-10
0.000000e+00
-7.046020e-11
7.919150e-12
0.000000e+00
-2.011660e-10
-2.513800e-10
-2.445790e-10
0.000000e+00
-7.046020e-11
0.000000e+00
0.000000e+00
-2.011660e-10
0.000000e+00
9.692330e-11
0.000000e+00
-7.046020e-11
5.184710e-10
2.260950e-10
-2.011660e-10
-2.513800e-10
9.692330e-11
0.000000e+00
-7.046020e-11
0.000000e+00
2.260950e-10
-1.256900e-10
0.000000e+00
9.692330e-11
6.598730e-10
5.563700e-10
5.184710e-10
2.260950e-10
4.713380e-10
2.382280e-10
9.692330e-11
0.000000e+00
5.563700e-10
5.184710e-10
2.260950e-10
-1.256900e-10
2.382280e-10
0.000000e+00
6.598730e-10
5.563700e-10
3.142250e-11
-1.869410e-10
4.713380e-10
2.382280e-10
-4.713380e-10
-5.260940e-10
5.563700e-10
5.184710e-10
-1.869410e-10
-3.927810e-10
2.382280e-10
0.000000e+00
-5.260940e-10
-5.970280e-10
3.142250e-11
-1.869410e-10
-4.556260e-10
-2.940690e-10
-4.713380e-10
-5.260940e-10
0.000000e+00
-2.084320e-11
-1.869410e-10
-3.927810e-10
-2.940690e-10
-1.414010e-10
-5.260940e-10
-5.970280e-10
-2.084320e-11
0.000000e+00
-4.556260e-10
-2.940690e-10
-2.042460e-10
-8.730160e-11
0.000000e+00
-2.084320e-11
0.000000e+00
1.290960e-10
-2.940690e-10
-1.414010e-10
-8.730160e-11
3.142250e-11
-2.084320e-11
0.000000e+00
1.290960e-10
2.199580e-10
-2.042460e-10
-8.730160e-11
2.356690e-10
1.059750e-10
0.000000e+00
1.290960e-10
3.142250e-11
4.331880e-12
-8.730160e-11
3.142250e-11
1.059750e-10
0.000000e+00
1.290960e-10
2.199580e-10
4.331880e-12
0.000000e+00
2.356690e-10
1.059750e-10
4.399150e-10
5.169940e-10
3.142250e-11
4.331880e-12
5.970280e-10
5.524310e-10
1.059750e-10
0.000000e+00
5.169940e-10
6.127390e-10
4.331880e-12
0.000000e+00
5.524310e-10
4.870490e-10
0.000000e+00
0.000000e+00
9.740980e-10
1.043620e-09
0.000000e+00
0.000000e+00
9.269640e-10
-7.447270e-12
0.000000e+00
0.000000e+00
1.043620e-09
1.885350e-10
0.000000e+00
0.000000e+00
-7.447270e-12
-6.755840e-10
9.740980e-10
1.043620e-09
3.142250e-10
-1.187840e-09
9.269640e-10
-7.447270e-12
-8.798300e-10
3.188080e-10
1.043620e-09
1.885350e-10
-1.187840e-09
-1.932480e-09
-7.447270e-12
-6.755840e-10
3.188080e-10
-8.484080e-10
3.142250e-10
-1.187840e-09
-1.256900e-09
1.474370e-10
-8.798300e-10
3.188080e-10
1.194060e-09
1.301980e-10
-1.187840e-09
-1.932480e-09
1.474370e-10
-3.142250e-10
3.188080e-10
-8.484080e-10
1.301980e-10
1.366880e-09
-1.256900e-09
1.474370e-10
-3.613590e-10
7.417950e-10
1.194060e-09
1.301980e-10
-5.656050e-10
4.413550e-10
1.474370e-10
-3.142250e-10
7.417950e-10
4.242040e-10
1.301980e-10
1.366880e-09
4.413550e-10
4.556260e-10
-3.613590e-10
7.417950e-10
-4.870490e-10
-1.194350e-10
-5.656050e-10
4.413550e-10
1.304030e-09
-2.441000e-11
7.417950e-10
4.242040e-10
-1.194350e-10
6.755840e-10
4.413550e-10
4.556260e-10
-2.441000e-11
1.602550e-09
-4.870490e-10
-1.194350e-10
1.414010e-10
4.476470e-10
1.304030e-09
-2.441000e-11
-5.341830e-10
-1.711320e-10
-1.194350e-10
6.755840e-10
4.476470e-10
7.227180e-10
-2.441000e-11
1.602550e-09
-1.711320e-10
8.169850e-10
1.414010e-10
4.476470e-10
1.335460e-09
7.769670e-10
-5.341830e-10
-1.711320e-10
0.000000e+00
-4.249520e-11
4.476470e-10
7.227180e-10
7.769670e-10
2.199580e-10
-1.711320e-10
8.169850e-10
-4.249520e-11
9.426750e-10
1.335460e-09
7.769670e-10
8.012740e-10
-4.963620e-10
0.000000e+00
-4.249520e-11
-1.021230e-09
-8.922280e-10
7.769670e-10
2.199580e-10
-4.963620e-10
3.456480e-10
-4.249520e-11
9.426750e-10
-8.922280e-10
-5.027600e-10
8.012740e-10
-4.963620e-10
6.598730e-10
-5.142340e-10
-1.021230e-09
-8.922280e-10
2.199580e-10
-4.738460e-10
-4.963620e-10
3.456480e-10
-5.142340e-10
-1.712530e-09
-8.922280e-10
-5.027600e-10
-4.738460e-10
-1.209770e-09
6.598730e-10
-5.142340e-10
-1.508280e-09
4.346660e-10
2.199580e-10
-4.738460e-10
4.870490e-10
-4.000320e-10
-5.142340e-10
-1.712530e-09
4.346660e-10
-1.728240e-10
-4.738460e-10
-1.209770e-09
-4.000320e-10
-1.178340e-09
-1.508280e-09
4.346660e-10
0.000000e+00
-4.421430e-10
4.870490e-10
-4.000320e-10
0.000000e+00
3.554780e-10
4.346660e-10
-1.728240e-10
-4.421430e-10
1.084080e-09
-4.000320e-10
-1.178340e-09
3.554780e-10
0.000000e+00
0.000000e+00
-4.421430e-10
0.000000e+00
-3.876900e-10
0.000000e+00
3.554780e-10
-1.256900e-10
-5.852780e-10
-4.421430e-10
1.084080e-09
-3.876900e-10
4.242040e-10
3.554780e-10
0.000000e+00
-5.852780e-10
-1.461150e-09
0.000000e+00
-3.876900e-10
0.000000e+00
6.331970e-10
-1.256900e-10
-5.852780e-10
-5.184710e-10
-8.838970e-10
-3.876900e-10
4.242040e-10
6.331970e-10
-6.127390e-10
-5.852780e-10
-1.461150e-09
-8.838970e-10
1.288320e-09
0.000000e+00
6.331970e-10
0.000000e+00
8.493690e-12
-5.184710e-10
-8.838970e-10
1.194060e-09
2.080380e-10
6.331970e-10
-6.127390e-10
8.493690e-12
4.713380e-11
-8.838970e-10
1.288320e-09
2.080380e-10
1.602550e-09
0.000000e+00
8.493690e-12
0.000000e+00
9.737170e-10
1.194060e-09
2.080380e-10
0.000000e+00
4.495290e-10
8.493690e-12
4.713380e-11
9.737170e-10
0.000000e+00
2.080380e-10
1.602550e-09
4.495290e-10
-2.199580e-09
0.000000e+00
9.737170e-10
0.000000e+00
-4.617540e-10
0.000000e+00
4.495290e-10
-6.755840e-10
-1.074940e-09
9.737170e-10
0.000000e+00
-4.617540e-10
0.000000e+00
4.495290e-10
-2.199580e-09
-1.074940e-09
0.000000e+00
0.000000e+00
-4.617540e-10
0.000000e+00
1.806290e-10
-6.755840e-10
-1.074940e-09
5.341830e-10
2.078920e-10
-4.617540e-10
0.000000e+00
1.806290e-10
0.000000e+00
-1.074940e-09
0.000000e+00
2.078920e-10
9.112530e-10
0.000000e+00
1.806290e-10
0.000000e+00
-4.447480e-10
5.341830e-10
2.078920e-10
0.000000e+00
-2.599460e-11
1.806290e-10
0.000000e+00
-4.447480e-10
0.000000e+00
2.078920e-10
9.112530e-10
-2.599460e-11
0.000000e+00
0.000000e+00
-4.447480e-10
0.000000e+00
1.885980e-12
0.000000e+00
-2.599460e-11
3.456480e-10
-1.160050e-10
-4.447480e-10
0.000000e+00
1.885980e-12
-2.356690e-10
-2.599460e-11
0.000000e+00
-1.160050e-10
-1.256900e-10
0.000000e+00
1.885980e-12
0.000000e+00
-6.899860e-11
3.456480e-10
-1.160050e-10
0.000000e+00
8.410410e-12
1.885980e-12
-2.356690e-10
-6.899860e-11
0.000000e+00
-1.160050e-10
-1.256900e-10
8.410410e-12
0.000000e+00
0.000000e+00
-6.899860e-11
-1.571130e-10
-1.918280e-10
0.000000e+00
8.410410e-12
-2.513800e-10
-2.609000e-10
-6.899860e-11
0.000000e+00
-1.918280e-10
0.000000e+00
8.410410e-12
0.000000e+00
-2.609000e-10
0.000000e+00
-1.571130e-10
-1.918280e-10
-2.985140e-10
-2.445790e-10
-2.513800e-10
-2.609000e-10
1.571130e-10
-6.298650e-11
-1.918280e-10
0.000000e+00
-2.445790e-10
0.000000e+00
-2.609000e-10
0.000000e+00
-6.298650e-11
-6.284500e-11
-2.985140e-10
-2.445790e-10
0.000000e+00
-7.046020e-11
1.571130e-10
-6.298650e-11
0.000000e+00
3.562820e-10
-2.445790e-10
0.000000e+00
-7.046020e-11
0.000000e+00
-6.298650e-11
-6.284500e-11
3.562820e-10
6.284500e-10
0.000000e+00
-7.046020e-11
5.184710e-10
2.260950e-10
0.000000e+00
3.562820e-10
3.927810e-10
3.112350e-10
-7.046020e-11
0.000000e+00
2.260950e-10
-1.256900e-10
3.562820e-10
6.284500e-10
3.112350e-10
1.728240e-10
5.184710e-10
2.260950e-10
4.713380e-10
2.382280e-10
3.927810e-10
3.112350e-10
5.184710e-10
-6.020680e-11
2.260950e-10
-1.256900e-10
2.382280e-10
0.000000e+00
3.112350e-10
1.728240e-10
-6.020680e-11
-4.556260e-10
4.713380e-10
2.382280e-10
-4.713380e-10
-5.260940e-10
5.184710e-10
-6.020680e-11
-6.598730e-10
-7.578000e-10
2.382280e-10
0.000000e+00
-5.260940e-10
-5.970280e-10
-6.020680e-11
-4.556260e-10
-7.578000e-10
-8.955420e-10
-4.713380e-10
-5.260940e-10
0.000000e+00
-2.084320e-11
-6.598730e-10
-7.578000e-10
0.000000e+00
2.447240e-10
-5.260940e-10
-5.970280e-10
-2.084320e-11
0.000000e+00
-7.578000e-10
-8.955420e-10
2.447240e-10
5.184710e-10
0.000000e+00
-2.084320e-11
0.000000e+00
1.290960e-10
0.000000e+00
2.447240e-10
1.885350e-10
2.869570e-10
-2.084320e-11
0.000000e+00
1.290960e-10
2.199580e-10
2.447240e-10
5.184710e-10
2.869570e-10
3.299360e-10
0.000000e+00
1.290960e-10
3.142250e-11
4.331880e-12
1.885350e-10
2.869570e-10
0.000000e+00
-1.003720e-10
1.290960e-10
2.199580e-10
4.331880e-12
0.000000e+00
2.869570e-10
3.299360e-10
-1.003720e-10
-1.885350e-10
3.142250e-11
4.331880e-12
5.970280e-10
5.524310e-10
0.000000e+00
-1.003720e-10
5.656050e-10
5.129970e-10
4.331880e-12
0.000000e+00
5.524310e-10
4.870490e-10
-1.003720e-10
-1.885350e-10
5.129970e-10
4.242040e-10
</DataArray>
<DataArray type="Float32" Name="V2" format="ascii">
0.000000e+00
0.000000e+00
-2.977260e-02
-2.977260e-02
0.000000e+00
0.000000e+00
-2.977260e-02
-2.977260e-02
0.000000e+00
0.000000e+00
-2.977260e-02
-2.977260e-02
0.000000e+00
0.000000e+00
-2.977260e-02
-2.977260e-02
-2.977260e-02
-2.977260e-02
-3.229210e-02
-3.229210e-02
-2.977260e-02
-2.977260e-02
-3.229210e-02
-3.229210e-02
-2.977260e-02
-2.977260e-02
-3.229210e-02
-3.229210e-02
-2.977260e-02
-2.977260e-02
-3.229210e-02
-3.229210e-02
-3.229210e-02
-3.229210e-02
-4.834060e-02
-4.834060e-02
-3.229210e-02
-3.229210e-02
-4.834060e-02
-4.834060e-02
-3.229210e-02
-3.229210e-02
-4.834060e-02
-4.834060e-02
-3.229210e-02
-3.229210e-02
-4.834060e-02
-4.834060e-02
-4.834060e-02
-4.834060e-02
-5.563840e-02
-5.563840e-02
-4.834060e-02
-4.834060e-02
-5.563840e-02
-5.563840e-02
-4.834060e-02
-4.834060e-02
-5.563840e-02
-5.563840e-02
-4.834060e-02
-4.834060e-02
-5.563840e-02
-5.563840e-02
-5.563840e-02
-5.563840e-02
-3.376090e-02
-3.376090e-02
-5.563840e-02
-5.563840e-02
-3.376090e-02
-3.376090e-02
-5.563840e-02
-5.563840e-02
-3.376090e-02
-3.376090e-02
-5.563840e-02
-5.563840e-02
-3.376090e-02
-3.376090e-02
-3.376090e-02
-3.376090e-02
-1.611500e-02
-1.611500e-02
-3.376090e-02
-3.376090e-02
-1.611500e-02
-1.611500e-02
-3.376090e-02
-3.376090e-02
-1.611500e-02
-1.611500e-02
-3.376090e-02
-3.376090e-02
-1.611500e-02
-1.611500e-02
-1.611500e-02
-1.611500e-02
-8.945930e-03
-8.945930e-03
-1.611500e-02
-1.611500e-02
-8.945930e-03
-8.945930e-03
-1.611500e-02
-1.611500e-02
-8.945930e-03
-8.945930e-03
-1.611500e-02
-1.611500e-02
-8.945930e-03
-8.945930e-03
-8.945930e-03
-8.945930e-03
-5.704140e-03
-5.704140e-03
-8.945930e-03
-8.945930e-03
-5.704130e-03
-5.704140e-03
-8.945930e-03
-8.945930e-03
-5.704140e-03
-5.704140e-03
-8.945930e-03
-8.945930e-03
-5.704140e-03
-5.704140e-03
-5.704140e-03
-5.704140e-03
-2.041300e-03
-2.041290e-03
-5.704130e-03
-5.704140e-03
-2.041290e-03
-2.041290e-03
-5.704140e-03
-5.704140e-03
-2.041290e-03
-2.041300e-03
-5.704140e-03
-5.704140e-03
-2.041290e-03
-2.041300e-03
-2.041300e-03
-2.041290e-03
-1.355290e-03
-1.355300e-03
-2.041290e-03
-2.041290e-03
-1.355290e-03
-1.355300e-03
-2.041290e-03
-2.041300e-03
-1.355300e-03
-1.355290e-03
-2.041290e-03
-2.041300e-03
-1.355300e-03
-1.355290e-03
-1.355290e-03
-1.355300e-03
-1.562650e-03
-1.562650e-03
-1.355290e-03
-1.355300e-03
-1.562660e-03
-1.562650e-03
-1.355300e-03
-1.355290e-03
-1.562650e-03
-1.562650e-03
-1.355300e-03
-1.355290e-03
-1.562650e-03
-1.562650e-03
-1.562650e-03
-1.562650e-03
-2.764890e-04
-2.764900e-04
-1.562660e-03
-1.562650e-03
-2.764880e-04
-2.764860e-04
-1.562650e-03
-1.562650e-03
-2.764900e-04
-2.764880e-04
-1.562650e-03
-1.562650e-03
-2.764860e-04
-2.764900e-04
-2.764890e-04
-2.764900e-04
-9.143480e-04
-9.143470e-04
-2.764880e-04
-2.764860e-04
-9.143460e-04
-9.143470e-04
-2.764900e-04
-2.764880e-04
-9.143470e-04
-9.143440e-04
-2.764860e-04
-2.764900e-04
-9.143470e-04
-9.143460e-04
-9.143480e-04
-9.143470e-04
-4.542670e-04
-4.542670e-04
-9.143460e-04
-9.143470e-04
-4.542690e-04
-4.542650e-04
-9.143470e-04
-9.143440e-04
-4.542670e-04
-4.542650e-04
-9.143470e-04
-9.143460e-04
-4.542650e-04
-4.542660e-04
-4.542670e-04
-4.542670e-04
1.249560e-06
1.246930e-06
-4.542690e-04
-4.542650e-04
1.249730e-06
1.245830e-06
-4.542670e-04
-4.542650e-04
1.246930e-06
1.245170e-06
-4.542650e-04
-4.542660e-04
1.245830e-06
1.247740e-06
1.249560e-06
1.246930e-06
1.380990e-04
1.380980e-04
1.249730e-06
1.245830e-06
1.380970e-04
1.380980e-04
1.246930e-06
1.245170e-06
1.380980e-04
1.381010e-04
1.245830e-06
1.247740e-06
1.380980e-04
1.381010e-04
1.380990e-04
1.380980e-04
-2.035500e-04
-2.035500e-04
1.380970e-04
1.380980e-04
-2.035480e-04
-2.035480e-04
1.380980e-04
1.381010e-04
-2.035500e-04
-2.035480e-04
1.380980e-04
1.381010e-04
-2.035480e-04
-2.035490e-04
-2.035500e-04
-2.035500e-04
6.183240e-05
6.183080e-05
-2.035480e-04
-2.035480e-04
6.182970e-05
6.182830e-05
-2.035500e-04
-2.035480e-04
6.183080e-05
6.182930e-05
-2.035480e-04
-2.035490e-04
6.182830e-05
6.182870e-05
6.183240e-05
6.183080e-05
-3.604870e-05
-3.604440e-05
6.182970e-05
6.182830e-05
-3.604290e-05
-3.604120e-05
6.183080e-05
6.182930e-05
-3.604440e-05
-3.604360e-05
6.182830e-05
6.182870e-05
-3.604120e-05
-3.604060e-05
-3.604870e-05
-3.604440e-05
-3.850330e-04
-3.850400e-04
-3.604290e-05
-3.604120e-05
-3.850410e-04
-3.850380e-04
-3.604440e-05
-3.604360e-05
-3.850400e-04
-3.850370e-04
-3.604120e-05
-3.604060e-05
-3.850380e-04
-3.850390e-04
-3.850330e-04
-3.850400e-04
-3.674030e-04
-3.673950e-04
-3.850410e-04
-3.850380e-04
-3.673960e-04
-3.673980e-04
-3.850400e-04
-3.850370e-04
-3.673950e-04
-3.674000e-04
-3.850380e-04
-3.850390e-04
-3.673980e-04
-3.673960e-04
-3.674030e-04
-3.673950e-04
5.991270e-05
5.990690e-05
-3.673960e-04
-3.673980e-04
5.990640e-05
5.990950e-05
-3.673950e-04
-3.674000e-04
5.990690e-05
5.991130e-05
-3.673980e-04
-3.673960e-04
5.990950e-05
5.990980e-05
5.991270e-05
5.990690e-05
-1.783060e-04
-1.783040e-04
5.990640e-05
5.990950e-05
-1.783030e-04
-1.783070e-04
5.990690e-05
5.991130e-05
-1.783040e-04
-1.783060e-04
5.990950e-05
5.990980e-05
-1.783070e-04
-1.783070e-04
-1.783060e-04
-1.783040e-04
-3.515930e-04
-3.515940e-04
-1.783030e-04
-1.783070e-04
-3.515940e-04
-3.515850e-04
-1.783040e-04
-1.783060e-04
-3.515940e-04
-3.515910e-04
-1.783070e-04
-1.783070e-04
-3.515850e-04
-3.515880e-04
-3.515930e-04
-3.515940e-04
-5.542340e-04
-5.542350e-04
-3.515940e-04
-3.515850e-04
-5.542360e-04
-5.542390e-04
-3.515940e-04
-3.515910e-04
-5.542350e-04
-5.542340e-04
-3.515850e-04
-3.515880e-04
-5.542390e-04
-5.542360e-04
-5.542340e-04
-5.542350e-04
-5.111200e-04
-5.111180e-04
-5.542360e-04
-5.542390e-04
-5.111190e-04
-5.111200e-04
-5.542350e-04
-5.542340e-04
-5.111180e-04
-5.111200e-04
-5.542390e-04
-5.542360e-04
-5.111200e-04
-5.111200e-04
-5.111200e-04
-5.111180e-04
-7.164930e-04
-7.164820e-04
-5.111190e-04
-5.111200e-04
-7.164840e-04
-7.164850e-04
-5.111180e-04
-5.111200e-04
-7.164820e-04
-7.164840e-04
-5.111200e-04
-5.111200e-04
-7.164850e-04
-7.164870e-04
-7.164930e-04
-7.164820e-04
-8.133000e-04
-8.133100e-04
-7.164840e-04
-7.164850e-04
-8.133100e-04
-8.133070e-04
-7.164820e-04
-7.164840e-04
-8.133100e-04
-8.133070e-04
-7.164850e-04
-7.164870e-04
-8.133070e-04
-8.133040e-04
-8.133000e-04
-8.133100e-04
1.700210e-04
1.700210e-04
-8.133100e-04
-8.133070e-04
1.700210e-04
1.700200e-04
-8.133100e-04
-8.133070e-04
1.700210e-04
1.700200e-04
-8.133070e-04
-8.133040e-04
1.700200e-04
1.700200e-04
1.700210e-04
1.700210e-04
-1.712280e-05
-1.712200e-05
1.700210e-04
1.700200e-04
-1.712230e-05
-1.712430e-05
1.700210e-04
1.700200e-04
-1.712200e-05
-1.712400e-05
1.700200e-04
1.700200e-04
-1.712430e-05
-1.712550e-05
0.000000e+00
0.000000e+00
-2.977260e-02
-2.977260e-02
0.000000e+00
0.000000e+00
-2.977260e-02
-2.977260e-02
0.000000e+00
0.000000e+00
-2.977260e-02
-2.977260e-02
0.000000e+00
0.000000e+00
-2.977260e-02
-2.977260e-02
-2.977260e-02
-2.977260e-02
-3.229210e-02
-3.229210e-02
-2.977260e-02
-2.977260e-02
-3.229210e-02
-3.229210e-02
-2.977260e-02
-2.977260e-02