<?xml version="1.0"?>
<!-- time 59.2984-->
<VTKFile type="UnstructuredGrid" version="0.1" byte_order="LittleEndian">
<UnstructuredGrid>
<Piece NumberOfPoints="7680" NumberOfCells="0">
<Points>
  <DataArray type="Float32" Name="Position" NumberOfComponents="3" format="ascii">
	-350 2049.59 -350
	-350 2049.59 -250
	-350 2049.59 -150
	-350 2049.59 -50
	-350 2049.59 50
	-350 2049.59 150
	-350 2049.59 250
	-350 2049.59 350
	-250 2049.59 -350
	-250 2049.59 -250
	-250 2049.59 -150
	-250 2049.59 -50
	-250 2049.59 50
	-250 2049.59 150
	-250 2049.59 250
	-250 2049.59 350
	-150 2049.59 -350
	-150 2049.59 -250
	-150 2049.59 -150
	-150 2049.59 -50
	-150 2049.59 50
	-150 2049.59 150
	-150 2049.59 250
	-150 2049.59 350
	-50 2049.59 -350
	-50 2049.59 -250
	-50 2049.59 -150
	-50 2049.59 -50
	-50 2049.59 50
	-50 2049.59 150
	-50 2049.59 250
	-50 2049.59 350
	50 2049.59 -350
	50 2049.59 -250
	50 2049.59 -150
	50 2049.59 -50
	50 2049.59 50
	50 2049.59 150
	50 2049.59 250
	50 2049.59 350
	150 2049.59 -350
	150 2049.59 -250
	150 2049.59 -150
	150 2049.59 -50
	150 2049.59 50
	150 2049.59 150
	150 2049.59 250
	150 2049.59 350
	250 2049.59 -350
	250 2049.59 -250
	250 2049.59 -150
	250 2049.59 -50
	250 2049.59 50
	250 2049.59 150
	250 2049.59 250
	250 2049.59 350
	350 2049.59 -350
	350 2049.59 -250
	350 2049.59 -150
	350 2049.59 -50
	350 2049.59 50
	350 2049.59 150
	350 2049.59 250
	350 2049.59 350
	-350 2149.66 -350
	-350 2149.66 -250
	-350 2149.66 -150
	-350 2149.66 -50
	-350 2149.66 50
	-350 2149.66 150
	-350 2149.66 250
	-350 2149.66 350
	-250 2149.66 -350
	-250 2149.66 -250
	-250 2149.66 -150
	-250 2149.66 -50
	-250 2149.66 50
	-250 2149.66 150
	-250 2149.66 250
	-250 2149.66 350
	-150 2149.66 -350
	-150 2149.66 -250
	-150 2149.66 -150
	-150 2149.66 -50
	-150 2149.66 50
	-150 2149.66 150
	-150 2149.66 250
	-150 2149.66 350
	-50 2149.66 -350
	-50 2149.66 -250
	-50 2149.66 -150
	-50 2149.66 -50
	-50 2149.66 50
	-50 2149.66 150
	-50 2149.66 250
	-50 2149.66 350
	50 2149.66 -350
	50 2149.66 -250
	50 2149.66 -150
	50 2149.66 -50
	50 2149.66 50
	50 2149.66 150
	50 2149.66 250
	50 2149.66 350
	150 2149.66 -350
	150 2149.66 -250
	150 2149.66 -150
	150 2149.66 -50
	150 2149.66 50
	150 2149.66 150
	150 2149.66 250
	150 2149.66 350
	250 2149.66 -350
	250 2149.66 -250
	250 2149.66 -150
	250 2149.66 -50
	250 2149.66 50
	250 2149.66 150
	250 2149.66 250
	250 2149.66 350
	350 2149.66 -350
	350 2149.66 -250
	350 2149.66 -150
	350 2149.66 -50
	350 2149.66 50
	350 2149.66 150
	350 2149.66 250
	350 2149.66 350
	-350 2249.66 -350
	-350 2249.66 -250
	-350 2249.66 -150
	-350 2249.66 -50
	-350 2249.66 50
	-350 2249.66 150
	-350 2249.66 250
	-350 2249.66 350
	-250 2249.66 -350
	-250 2249.66 -250
	-250 2249.66 -150
	-250 2249.66 -50
	-250 2249.66 50
	-250 2249.66 150
	-250 2249.66 250
	-250 2249.66 350
	-150 2249.66 -350
	-150 2249.66 -250
	-150 2249.66 -150
	-150 2249.66 -50
	-150 2249.66 50
	-150 2249.66 150
	-150 2249.66 250
	-150 2249.66 350
	-50 2249.66 -350
	-50 2249.66 -250
	-50 2249.66 -150
	-50 2249.66 -50
	-50 2249.66 50
	-50 2249.66 150
	-50 2249.66 250
	-50 2249.66 350
	50 2249.66 -350
	50 2249.66 -250
	50 2249.66 -150
	50 2249.66 -50
	50 2249.66 50
	50 2249.66 150
	50 2249.66 250
	50 2249.66 350
	150 2249.66 -350
	150 2249.66 -250
	150 2249.66 -150
	150 2249.66 -50
	150 2249.66 50
	150 2249.66 150
	150 2249.66 250
	150 2249.66 350
	250 2249.66 -350
	250 2249.66 -250
	250 2249.66 -150
	250 2249.66 -50
	250 2249.66 50
	250 2249.66 150
	250 2249.66 250
	250 2249.66 350
	350 2249.66 -350
	350 2249.66 -250
	350 2249.66 -150
	350 2249.66 -50
	350 2249.66 50
	350 2249.66 150
	350 2249.66 250
	350 2249.66 350
	-350 2349.66 -350
	-350 2349.66 -250
	-350 2349.66 -150
	-350 2349.66 -50
	-350 2349.66 50
	-350 2349.66 150
	-350 2349.66 250
	-350 2349.66 350
	-250 2349.66 -350
	-250 2349.66 -250
	-250 2349.66 -150
	-250 2349.66 -50
	-250 2349.66 50
	-250 2349.66 150
	-250 2349.66 250
	-250 2349.66 350
	-150 2349.66 -350
	-150 2349.66 -250
	-150 2349.66 -150
	-150 2349.66 -50
	-150 2349.66 50
	-150 2349.66 150
	-150 2349.66 250
	-150 2349.66 350
	-50 2349.66 -350
	-50 2349.66 -250
	-50 2349.66 -150
	-50 2349.66 -50
	-50 2349.66 50
	-50 2349.66 150
	-50 2349.66 250
	-50 2349.66 350
	50 2349.66 -350
	50 2349.66 -250
	50 2349.66 -150
	50 2349.66 -50
	50 2349.66 50
	50 2349.66 150
	50 2349.66 250
	50 2349.66 350
	150 2349.66 -350
	150 2349.66 -250
	150 2349.66 -150
	150 2349.66 -50
	150 2349.66 50
	150 2349.66 150
	150 2349.66 250
	150 2349.66 350
	250 2349.66 -350
	250 2349.66 -250
	250 2349.66 -150
	250 2349.66 -50
	250 2349.66 50
	250 2349.66 150
	250 2349.66 250
	250 2349.66 350
	350 2349.66 -350
	350 2349.66 -250
	350 2349.66 -150
	350 2349.66 -50
	350 2349.66 50
	350 2349.66 150
	350 2349.66 250
	350 2349.66 350
	-350 2449.66 -350
	-350 2449.66 -250
	-350 2449.66 -150
	-350 2449.66 -50
	-350 2449.66 50
	-350 2449.66 150
	-350 2449.66 250
	-350 2449.66 350
	-250 2449.66 -350
	-250 2449.66 -250
	-250 2449.66 -150
	-250 2449.66 -50
	-250 2449.66 50
	-250 2449.66 150
	-250 2449.66 250
	-250 2449.66 350
	-150 2449.66 -350
	-150 2449.66 -250
	-150 2449.66 -150
	-150 2449.66 -50
	-150 2449.66 50
	-150 2449.66 150
	-150 2449.66 250
	-150 2449.66 350
	-50 2449.66 -350
	-50 2449.66 -250
	-50 2449.66 -150
	-50 2449.66 -50
	-50 2449.66 50
	-50 2449.66 150
	-50 2449.66 250
	-50 2449.66 350
	50 2449.66 -350
	50 2449.66 -250
	50 2449.66 -150
	50 2449.66 -50
	50 2449.66 50
	50 2449.66 150
	50 2449.66 250
	50 2449.66 350
	150 2449.66 -350
	150 2449.66 -250
	150 2449.66 -150
	150 2449.66 -50
	150 2449.66 50
	150 2449.66 150
	150 2449.66 250
	150 2449.66 350
	250 2449.66 -350
	250 2449.66 -250
	250 2449.66 -150
	250 2449.66 -50
	250 2449.66 50
	250 2449.66 150
	250 2449.66 250
	250 2449.66 350
	350 2449.66 -350
	350 2449.66 -250
	350 2449.66 -150
	350 2449.66 -50
	350 2449.66 50
	350 2449.66 150
	350 2449.66 250
	350 2449.66 350
	-350 2549.66 -350
	-350 2549.66 -250
	-350 2549.66 -150
	-350 2549.66 -50
	-350 2549.66 50
	-350 2549.66 150
	-350 2549.66 250
	-350 2549.66 350
	-250 2549.66 -350
	-250 2549.66 -250
	-250 2549.66 -150
	-250 2549.66 -50
	-250 2549.66 50
	-250 2549.66 150
	-250 2549.66 250
	-250 2549.66 350
	-150 2549.66 -350
	-150 2549.66 -250
	-150 2549.66 -150
	-150 2549.66 -50
	-150 2549.66 50
	-150 2549.66 150
	-150 2549.66 250
	-150 2549.66 350
	-50 2549.66 -350
	-50 2549.66 -250
	-50 2549.66 -150
	-50 2549.66 -50
	-50 2549.66 50
	-50 2549.66 150
	-50 2549.66 250
	-50 2549.66 350
	50 2549.66 -350
	50 2549.66 -250
	50 2549.66 -150
	50 2549.66 -50
	50 2549.66 50
	50 2549.66 150
	50 2549.66 250
	50 2549.66 350
	150 2549.66 -350
	150 2549.66 -250
	150 2549.66 -150
	150 2549.66 -50
	150 2549.66 50
	150 2549.66 150
	150 2549.66 250
	150 2549.66 350
	250 2549.66 -350
	250 2549.66 -250
	250 2549.66 -150
	250 2549.66 -50
	250 2549.66 50
	250 2549.66 150
	250 2549.66 250
	250 2549.66 350
	350 2549.66 -350
	350 2549.66 -250
	350 2549.66 -150
	350 2549.66 -50
	350 2549.66 50
	350 2549.66 150
	350 2549.66 250
	350 2549.66 350
	-350 2649.66 -350
	-350 2649.66 -250
	-350 2649.66 -150
	-350 2649.66 -50
	-350 2649.66 50
	-350 2649.66 150
	-350 2649.66 250
	-350 2649.66 350
	-250 2649.66 -350
	-250 2649.66 -250
	-250 2649.66 -150
	-250 2649.66 -50
	-250 2649.66 50
	-250 2649.66 150
	-250 2649.66 250
	-250 2649.66 350
	-150 2649.66 -350
	-150 2649.66 -250
	-150 2649.66 -150
	-150 2649.66 -50
	-150 2649.66 50
	-150 2649.66 150
	-150 2649.66 250
	-150 2649.66 350
	-50 2649.66 -350
	-50 2649.66 -250
	-50 2649.66 -150
	-50 2649.66 -50
	-50 2649.66 50
	-50 2649.66 150
	-50 2649.66 250
	-50 2649.66 350
	50 2649.66 -350
	50 2649.66 -250
	50 2649.66 -150
	50 2649.66 -50
	50 2649.66 50
	50 2649.66 150
	50 2649.66 250
	50 2649.66 350
	150 2649.66 -350
	150 2649.66 -250
	150 2649.66 -150
	150 2649.66 -50
	150 2649.66 50
	150 2649.66 150
	150 2649.66 250
	150 2649.66 350
	250 2649.66 -350
	250 2649.66 -250
	250 2649.66 -150
	250 2649.66 -50
	250 2649.66 50
	250 2649.66 150
	250 2649.66 250
	250 2649.66 350
	350 2649.66 -350
	350 2649.66 -250
	350 2649.66 -150
	350 2649.66 -50
	350 2649.66 50
	350 2649.66 150
	350 2649.66 250
	350 2649.66 350
	-350 2749.66 -350
	-350 2749.66 -250
	-350 2749.66 -150
	-350 2749.66 -50
	-350 2749.66 50
	-350 2749.66 150
	-350 2749.66 250
	-350 2749.66 350
	-250 2749.66 -350
	-250 2749.66 -250
	-250 2749.66 -150
	-250 2749.66 -50
	-250 2749.66 50
	-250 2749.66 150
	-250 2749.66 250
	-250 2749.66 350
	-150 2749.66 -350
	-150 2749.66 -250
	-150 2749.66 -150
	-150 2749.66 -50
	-150 2749.66 50
	-150 2749.66 150
	-150 2749.66 250
	-150 2749.66 350
	-50 2749.66 -350
	-50 2749.66 -250
	-50 2749.66 -150
	-50 2749.66 -50
	-50 2749.66 50
	-50 2749.66 150
	-50 2749.66 250
	-50 2749.66 350
	50 2749.66 -350
	50 2749.66 -250
	50 2749.66 -150
	50 2749.66 -50
	50 2749.66 50
	50 2749.66 150
	50 2749.66 250
	50 2749.66 350
	150 2749.66 -350
	150 2749.66 -250
	150 2749.66 -150
	150 2749.66 -50
	150 2749.66 50
	150 2749.66 150
	150 2749.66 250
	150 2749.66 350
	250 2749.66 -350
	250 2749.66 -250
	250 2749.66 -150
	250 2749.66 -50
	250 2749.66 50
	250 2749.66 150
	250 2749.66 250
	250 2749.66 350
	350 2749.66 -350
	350 2749.66 -250
	350 2749.66 -150
	350 2749.66 -50
	350 2749.66 50
	350 2749.66 150
	350 2749.66 250
	350 2749.66 350
	-350 2849.66 -350
	-350 2849.66 -250
	-350 2849.66 -150
	-350 2849.66 -50
	-350 2849.66 50
	-350 2849.66 150
	-350 2849.66 250
	-350 2849.66 350
	-250 2849.66 -350
	-250 2849.66 -250
	-250 2849.66 -150
	-250 2849.66 -50
	-250 2849.66 50
	-250 2849.66 150
	-250 2849.66 250
	-250 2849.66 350
	-150 2849.66 -350
	-150 2849.66 -250
	-150 2849.66 -150
	-150 2849.66 -50
	-150 2849.66 50
	-150 2849.66 150
	-150 2849.66 250
	-150 2849.66 350
	-50 2849.66 -350
	-50 2849.66 -250
	-50 2849.66 -150
	-50 2849.66 -50
	-50 2849.66 50
	-50 2849.66 150
	-50 2849.66 250
	-50 2849.66 350
	50 2849.66 -350
	50 2849.66 -250
	50 2849.66 -150
	50 2849.66 -50
	50 2849.66 50
	50 2849.66 150
	50 2849.66 250
	50 2849.66 350
	150 2849.66 -350
	150 2849.66 -250
	150 2849.66 -150
[...]
<PointData  Vectors="vector">
  <DataArray type="Float32" Name="Velocity" NumberOfComponents="3" format="ascii">
 1.21198e-10 -7.14581e-05 5.57278e-12
 4.42199e-11 -7.14559e-05 -4.20759e-11
 1.24888e-10 -7.14539e-05 -1.75955e-10
 -1.65255e-11 -7.1452e-05 -8.45567e-11
 -1.84102e-10 -7.14582e-05 -2.0582e-10
 5.66558e-11 -7.14547e-05 -7.07511e-11
 8.03325e-11 -7.14514e-05 -1.53995e-10
 1.33205e-10 -7.14481e-05 9.6824e-11
 -1.57433e-10 -7.14563e-05 -1.67578e-10
 -1.90525e-10 -7.14538e-05 -2.3166e-11
 -1.09347e-10 -7.14512e-05 -1.11989e-10
 5.68364e-11 -7.14486e-05 -1.84327e-10
 1.85957e-10 -7.14545e-05 -2.51282e-11
 -1.51113e-10 -7.14526e-05 -7.04913e-11
 1.57275e-12 -7.14506e-05 -7.59768e-11
 -3.88379e-12 -7.14485e-05 1.05848e-10
 -2.72447e-11 -7.14547e-05 3.35717e-11
 -1.75149e-10 -7.14516e-05 -1.10776e-10
 -2.92204e-11 -7.14486e-05 -9.59199e-11
 4.04708e-11 -7.14455e-05 -4.33649e-11
 -1.27378e-11 -7.14509e-05 -8.97958e-11
 7.00768e-11 -7.14502e-05 -1.24362e-10
 -5.9802e-11 -7.14496e-05 -1.17323e-10
 -1.88865e-12 -7.1449e-05 7.31221e-11
 2.40901e-11 -7.14532e-05 4.41681e-11
 9.64805e-11 -7.14494e-05 -1.59742e-10
 1.24863e-10 -7.14459e-05 6.32912e-11
 4.46333e-11 -7.14421e-05 -9.7912e-11
 9.53801e-12 -7.14472e-05 -1.32241e-10
 2.97485e-10 -7.14479e-05 -7.60088e-11
 1.30242e-10 -7.14488e-05 -7.85345e-11
 5.03213e-11 -7.14495e-05 4.00899e-11
 -3.12753e-11 -7.14593e-05 3.44749e-11
 1.58253e-10 -7.14552e-05 -1.57786e-10
 9.49621e-11 -7.14512e-05 5.87866e-11
 1.64807e-10 -7.14471e-05 -1.10568e-10
 1.45838e-10 -7.14493e-05 -1.21271e-10
 1.21027e-10 -7.14495e-05 -4.57159e-11
 1.48405e-10 -7.14496e-05 -7.81662e-11
 3.28473e-11 -7.14497e-05 -5.15362e-12
 1.29054e-11 -7.1455e-05 4.50816e-11
 -3.79238e-11 -7.14528e-05 -2.02178e-10
 1.85358e-11 -7.14503e-05 -6.47991e-11
 8.14855e-11 -7.14478e-05 -7.39927e-11
 1.43911e-10 -7.14496e-05 -7.09618e-11
 4.82139e-11 -7.14499e-05 -3.04462e-11
 8.81889e-11 -7.14505e-05 -1.51168e-11
 2.14606e-10 -7.14509e-05 1.23787e-10
 -6.81458e-12 -7.14509e-05 2.70584e-11
 3.33903e-11 -7.14502e-05 -6.87525e-11
 -1.38248e-10 -7.14494e-05 -4.38814e-11
 7.11126e-12 -7.14488e-05 8.01883e-11
 -2.25696e-11 -7.14497e-05 -5.1106e-11
 -6.78365e-11 -7.14505e-05 -3.16538e-11
 2.84215e-11 -7.14514e-05 -9.41291e-12
 -1.57345e-11 -7.14521e-05 -5.42863e-11
 -9.23354e-11 -7.14467e-05 -6.54114e-11
 9.20709e-11 -7.14476e-05 9.29763e-11
 1.12141e-10 -7.14485e-05 -2.60967e-11
 -2.50979e-12 -7.14496e-05 -7.22402e-11
 8.51901e-11 -7.14498e-05 4.08057e-11
 1.0735e-11 -7.1451e-05 4.77085e-11
 2.12247e-12 -7.14522e-05 -8.44475e-11
 4.42235e-11 -7.14532e-05 5.16021e-11
 8.3085e-11 -2.68739e-05 8.10641e-11
 -2.34675e-10 -2.68673e-05 1.37568e-10
 8.0484e-11 -2.68688e-05 -9.66743e-11
 1.39051e-11 -2.68655e-05 -1.38353e-11
 8.05956e-11 -2.68675e-05 -5.52583e-12
 6.97057e-11 -2.68662e-05 8.75624e-12
 -2.02777e-10 -2.68696e-05 -2.65805e-11
 -2.52804e-10 -2.68705e-05 -6.07069e-11
 -1.36352e-10 -2.68668e-05 -1.03526e-10
 -1.05684e-10 -2.68688e-05 8.91347e-11
 -1.09838e-10 -2.68662e-05 -2.57059e-11
 -4.11473e-11 -2.68655e-05 1.44522e-11
 -7.59746e-12 -2.68675e-05 5.07187e-12
 3.34095e-11 -2.68653e-05 1.10911e-10
 1.12202e-10 -2.68646e-05 1.39162e-11
 -7.92555e-11 -2.68669e-05 -6.45533e-11
 2.02366e-10 -2.68678e-05 -9.08434e-13
 1.45586e-10 -2.68656e-05 -3.10724e-11
 1.54789e-10 -2.68654e-05 1.30637e-11
 4.64953e-11 -2.68636e-05 3.75768e-11
 1.4902e-10 -2.68668e-05 -1.15303e-11
 1.48818e-11 -2.68658e-05 1.42965e-11
 6.34969e-12 -2.68657e-05 2.71039e-11
 2.25008e-10 -2.68641e-05 6.87351e-12
 1.01747e-10 -2.68639e-05 -1.00637e-11
 1.89921e-10 -2.68645e-05 3.97725e-11
 1.30886e-10 -2.68632e-05 -1.60999e-12
 1.54564e-10 -2.68619e-05 -2.32606e-11
 4.41887e-11 -2.68648e-05 3.75344e-11
 4.93279e-11 -2.6865e-05 4.023e-11
 2.17e-10 -2.68637e-05 -8.45116e-11
 6.03439e-11 -2.6863e-05 7.30289e-11
 9.28537e-11 -2.68666e-05 2.83586e-11
 1.88493e-10 -2.68671e-05 5.26878e-11
 1.73506e-11 -2.6867e-05 3.024e-11
 1.32875e-10 -2.68653e-05 -2.14024e-11
 1.9701e-10 -2.68645e-05 -1.65288e-11
 2.50817e-11 -2.68665e-05 3.11515e-11
 4.06313e-11 -2.68669e-05 8.06346e-12
 1.27331e-10 -2.68652e-05 -4.69547e-11
 2.91624e-11 -2.68647e-05 3.61142e-11
 1.1946e-10 -2.68642e-05 -1.12553e-11
 8.82025e-11 -2.68651e-05 7.35881e-11
 6.2388e-11 -2.68646e-05 -4.66021e-12
 6.68536e-11 -2.68655e-05 2.35589e-11
 7.50103e-11 -2.68636e-05 1.82198e-11
 6.17958e-11 -2.68667e-05 -1.62174e-11
 1.47206e-10 -2.68667e-05 -5.47696e-11
 -6.10294e-11 -2.68676e-05 -4.78747e-11
 1.49876e-11 -2.68629e-05 3.49773e-11
 3.03579e-11 -2.68639e-05 1.39588e-11
 7.93552e-11 -2.68623e-05 9.78273e-12
 -2.61078e-12 -2.68649e-05 -5.20083e-12
 6.68638e-11 -2.68655e-05 6.66297e-11
 1.78997e-11 -2.68669e-05 -2.14696e-11
 3.28974e-11 -2.68624e-05 1.26957e-11
 7.50073e-12 -2.68677e-05 -1.8672e-11
 7.69708e-11 -2.68642e-05 -5.44877e-11
 7.8611e-11 -2.6862e-05 1.24518e-11
 9.82579e-11 -2.68606e-05 7.6687e-12
 1.47946e-11 -2.68622e-05 4.86688e-11
 1.44505e-10 -2.68647e-05 6.00107e-11
 1.62098e-10 -2.68613e-05 -5.45077e-11
 9.09994e-11 -2.68643e-05 6.13882e-11
 -9.44395e-11 -0.000998455 -2.23315e-11
 6.87009e-11 -0.000998442 8.53841e-11
 6.18305e-11 -0.000998441 1.41902e-10
 -5.81321e-11 -0.000998428 1.91163e-10
 8.72913e-11 -0.000998436 1.14332e-10
 -1.22788e-10 -0.000998437 1.25891e-10
 4.84082e-11 -0.000998444 -5.03023e-11
 1.4959e-10 -0.000998444 3.55421e-11
 -6.63025e-12 -0.000998442 -1.42597e-11
 -3.9345e-11 -0.000998443 5.99096e-11
 -5.54835e-11 -0.000998437 1.22105e-10
 1.52215e-10 -0.000998432 9.57454e-11
 -7.1815e-12 -0.000998437 1.66884e-10
 -1.10512e-11 -0.000998436 5.64727e-11
 -8.93516e-11 -0.000998436 1.61817e-10
 -8.22582e-11 -0.000998441 -6.80899e-11
 2.37376e-10 -0.00099844 1.01755e-11
 8.49677e-11 -0.000998436 7.49254e-11
 9.18951e-11 -0.000998436 1.08528e-10
 1.57199e-10 -0.000998434 1.49962e-10
 1.11926e-10 -0.000998436 1.73762e-10
 1.8897e-10 -0.000998438 4.09696e-11
 2.50779e-10 -0.000998438 -3.87496e-11
 3.87844e-11 -0.000998439 1.97923e-11
 1.91435e-10 -0.000998428 3.33321e-11
 1.76534e-10 -0.000998432 8.097e-11
 2.06432e-10 -0.000998434 1.22766e-10
 1.61554e-10 -0.000998436 1.40934e-10
 1.28645e-10 -0.000998434 1.03724e-10
 2.09483e-10 -0.000998436 5.62956e-11
 1.32776e-10 -0.000998435 -1.32679e-11
 8.07494e-11 -0.000998438 -2.65161e-11
 1.35038e-10 -0.000998436 6.48433e-11
 1.56623e-10 -0.000998436 3.28397e-11
 2.12737e-10 -0.000998435 1.06705e-10
 2.24741e-10 -0.000998433 5.88045e-11
 1.39491e-10 -0.000998434 1.21532e-10
 2.73704e-10 -0.000998436 6.6105e-11
 9.05487e-11 -0.000998437 -4.36549e-12
 1.4367e-10 -0.000998434 6.70671e-11
 2.8001e-10 -0.000998436 2.58751e-11
 1.17069e-10 -0.000998434 1.61657e-11
 1.8537e-10 -0.000998436 7.4593e-11
 1.08784e-10 -0.000998434 7.08241e-11
 2.79962e-10 -0.000998435 6.28166e-11
 1.03894e-10 -0.000998433 5.76634e-11
 4.82307e-11 -0.000998437 5.70986e-11
 7.47808e-12 -0.000998438 2.17248e-11
 4.14756e-12 -0.00099844 -1.41685e-11
 1.60735e-10 -0.000998433 -2.39446e-11
 -2.93404e-11 -0.000998435 8.71802e-11
 8.16004e-13 -0.000998433 2.82387e-11
 7.43011e-11 -0.000998435 1.36504e-10
 1.70102e-11 -0.000998436 7.02564e-11
 2.33154e-11 -0.000998439 4.62658e-11
 7.43179e-13 -0.000998436 -7.02829e-11
 6.91614e-12 -0.00099844 -4.21547e-12
 1.1484e-11 -0.000998438 -4.16826e-11
 4.60357e-11 -0.000998436 8.55182e-11
 -4.4979e-11 -0.000998435 -1.56453e-11
 -9.77584e-11 -0.000998433 1.1038e-10
 -9.52504e-11 -0.000998436 1.03268e-10
 -9.32747e-11 -0.000998436 -8.23614e-11
 -8.00582e-11 -0.000998442 -2.20245e-11
 6.72769e-11 -0.00196764 -8.0754e-11
 -1.49614e-10 -0.00196768 1.1205e-10
 -9.35928e-11 -0.00196768 1.67607e-10
 9.59533e-11 -0.0019677 3.02273e-10
 -1.24284e-10 -0.0019676 3.39478e-10
 -8.95505e-11 -0.00196767 2.42981e-10
 5.30032e-11 -0.0019677 1.30187e-10
 2.42708e-11 -0.00196776 -4.42984e-11
 7.40813e-11 -0.00196768 -2.60769e-11
 1.5699e-10 -0.00196768 -1.84724e-11
 5.90949e-11 -0.0019677 2.3429e-10
 -6.32581e-11 -0.00196774 2.27131e-10
 1.38057e-10 -0.00196767 2.40829e-10
 1.30711e-10 -0.00196771 1.51539e-10
 4.8524e-11 -0.00196772 2.28481e-10
 -6.05579e-11 -0.00196774 3.85802e-11
 2.59483e-10 -0.00196768 5.18454e-12
 1.78114e-10 -0.0019677 8.52369e-11
 2.18457e-10 -0.00196773 1.97786e-10
 1.44232e-10 -0.00196777 2.14081e-10
 1.02968e-10 -0.00196773 2.90724e-10
 1.59203e-10 -0.00196771 1.26517e-10
 4.03902e-11 -0.00196771 6.60469e-11
 1.71915e-11 -0.00196771 -2.22318e-12
 2.95991e-10 -0.0019677 9.22848e-11
 2.66419e-10 -0.00196773 7.0561e-11
 2.08825e-10 -0.00196777 1.7986e-10
 2.82148e-10 -0.00196781 1.82673e-10
 1.54929e-10 -0.00196781 1.99537e-10
 1.64448e-10 -0.00196776 5.26227e-11
 1.67739e-10 -0.00196772 9.7384e-11
 9.57251e-11 -0.00196768 1.51511e-11
 1.64443e-10 -0.0019676 5.55856e-11
 3.21051e-10 -0.00196767 1.57896e-10
 3.9676e-10 -0.00196773 1.58334e-10
 1.38032e-10 -0.00196781 2.0066e-10
 2.25282e-10 -0.00196772 1.40779e-10
 2.09113e-10 -0.00196772 1.04717e-10
 7.74674e-11 -0.00196772 1.02327e-10
 1.19882e-10 -0.00196773 4.27901e-12
 2.97081e-10 -0.00196768 -5.15597e-12
 2.22005e-10 -0.00196771 1.24755e-10
 8.11349e-11 -0.00196772 1.27917e-10
 1.69372e-10 -0.00196776 9.43169e-11
 2.61613e-10 -0.00196772 1.53347e-10
 4.17083e-11 -0.00196773 4.8057e-11
 2.60459e-11 -0.00196771 9.8309e-11
 3.30207e-11 -0.00196771 4.07766e-11
 -2.83776e-11 -0.00196771 -4.07354e-11
 4.52019e-11 -0.00196772 1.14024e-10
 2.2225e-11 -0.00196772 6.58792e-11
 1.02433e-10 -0.00196772 1.53618e-10
 7.50011e-11 -0.00196773 7.2276e-11
 4.37146e-11 -0.00196771 9.94853e-11
 2.07867e-11 -0.00196769 -4.84143e-11
 1.04621e-11 -0.00196771 2.4091e-11
 2.18651e-11 -0.00196778 3.02501e-11
 9.17775e-12 -0.00196775 -3.32863e-11
 5.40467e-11 -0.00196771 6.35316e-11
 -2.46167e-11 -0.00196768 3.14431e-11
 4.26356e-11 -0.00196774 9.28233e-11
 -1.76974e-11 -0.00196772 4.03098e-12
 -2.67788e-11 -0.00196771 3.0999e-11
 -6.72619e-11 -0.0019677 -2.1832e-11
 -9.01082e-11 -0.000329518 -8.72449e-11
 -1.85097e-11 -0.000329486 3.3346e-11
 -2.69447e-11 -0.000329493 1.38937e-10
 -1.31078e-10 -0.000329475 2.42521e-10
 3.23377e-13 -0.000329524 2.04136e-10
 3.28326e-11 -0.000329489 1.93801e-10
 2.59988e-11 -0.000329491 -6.67991e-12
 3.15471e-11 -0.000329468 -5.94213e-11
 4.80966e-11 -0.000329486 -7.86454e-11
 6.40457e-11 -0.000329496 1.64921e-10
 1.05e-10 -0.000329489 6.09477e-11
 3.48901e-11 -0.000329468 1.46529e-10
 1.07799e-10 -0.000329496 1.78362e-10
 1.44247e-11 -0.000329469 1.26439e-10
 2.35717e-11 -0.000329477 -6.77439e-11
 -6.35781e-11 -0.000329476 6.81756e-11
 1.88531e-10 -0.000329493 5.53774e-11
 2.5471e-11 -0.000329489 6.90186e-11
 1.77993e-10 -0.000329473 1.23654e-10
 1.08995e-10 -0.000329459 1.4545e-10
 3.11502e-11 -0.000329468 7.66369e-11
 1.23075e-10 -0.000329482 3.30152e-11
 -2.34667e-11 -0.000329486 1.52484e-10
 1.99289e-11 -0.000329494 -1.17327e-10
 1.66385e-10 -0.000329473 -4.97699e-11
 1.52931e-10 -0.000329469 1.3656e-10
 1.54163e-10 -0.00032946 8.50252e-11
 1.27009e-10 -0.000329454 1.02971e-10
 1.06842e-10 -0.000329429 6.95763e-11
 1.07639e-10 -0.000329464 8.45072e-11
 2.68024e-11 -0.000329482 6.5339e-11
 1.70258e-12 -0.00032951 -1.62055e-11
 2.30024e-10 -0.000329528 -1.7977e-11
 9.74968e-11 -0.000329498 1.3785e-10
 1.35499e-10 -0.000329468 1.11755e-10
 1.89036e-10 -0.000329428 9.10932e-11
 1.10054e-10 -0.000329473 1.85546e-10
 1.23826e-10 -0.000329478 6.09628e-11
 6.86972e-11 -0.00032948 5.03369e-11
 4.15934e-11 -0.000329472 -4.95621e-11
 1.33911e-10 -0.000329488 1.07439e-10
 1.67806e-10 -0.000329468 1.17272e-10
 5.01465e-11 -0.000329481 6.66067e-12
 8.50577e-11 -0.000329463 8.52307e-11
 1.58908e-10 -0.000329476 1.04624e-11
 2.59034e-12 -0.000329467 7.09169e-11
 2.85626e-11 -0.00032949 -1.3613e-11
 2.89029e-13 -0.000329484 8.58437e-12
 2.88945e-11 -0.000329483 -5.27093e-11
 9.23082e-11 -0.000329472 -5.93843e-12
 -7.33228e-12 -0.000329481 8.36182e-11
 5.96664e-11 -0.000329482 9.96407e-11
 1.95443e-11 -0.000329477 -3.0831e-11
 5.63284e-11 -0.000329487 1.06248e-10
 1.35262e-11 -0.000329499 1.03145e-12
 -5.22302e-11 -0.000329477 1.42949e-11
 -1.1928e-11 -0.000329453 2.59909e-11
 4.63881e-11 -0.000329466 -2.89942e-11
 -2.64945e-11 -0.00032949 2.63734e-11
 2.28816e-11 -0.000329508 3.18036e-11
 4.76561e-11 -0.000329467 -1.84402e-11
 -5.1857e-11 -0.000329481 -6.51749e-11
 7.13202e-11 -0.000329475 1.03537e-10
 8.22874e-11 -0.000329484 -3.66711e-11
 -2.67701e-11 0.00261075 -9.86419e-11
 -1.53864e-12 0.00261075 1.43106e-10
 -6.03397e-12 0.00261076 1.13397e-10
 -5.14666e-12 0.00261077 1.11533e-10
 6.01959e-12 0.00261073 1.45698e-10
 -4.68418e-12 0.00261076 2.78125e-11
 -5.83308e-12 0.00261079 9.95982e-11
 -9.59148e-12 0.00261082 -1.07778e-10
 4.21463e-11 0.00261075 -2.08151e-11
 2.6913e-11 0.00261077 5.50245e-11
 2.44721e-11 0.00261077 9.78677e-11
 -1.92377e-11 0.00261079 7.47701e-11
 -2.04464e-11 0.00261076 9.1569e-11
 4.52508e-11 0.00261077 7.17817e-11
 -3.84201e-11 0.00261079 6.22115e-11
 -1.90554e-11 0.00261081 -5.40299e-11
 9.25251e-11 0.00261076 -2.01098e-11
 1.06522e-10 0.00261077 -1.15007e-11
 4.39003e-11 0.00261079 1.06608e-10
 7.61705e-11 0.00261081 1.0599e-10
 1.05216e-10 0.00261078 1.4026e-11
 1.06211e-10 0.00261079 1.64296e-10
 1.28636e-11 0.00261079 7.04981e-11
 -3.2445e-11 0.0026108 -1.07697e-10
 9.4007e-11 0.00261077 1.2035e-12
 1.38429e-10 0.00261079 5.4149e-11
 1.33912e-10 0.00261081 5.32371e-11
 7.61626e-11 0.00261084 1.04443e-11
 9.65049e-11 0.00261081 8.08099e-11
 1.94849e-11 0.00261081 1.15356e-10
 5.34817e-11 0.0026108 1.28257e-11
 -1.41125e-11 0.00261079 -6.21703e-11
 1.26657e-10 0.00261072 -5.2705e-11
 1.4657e-10 0.00261075 2.43032e-11
 1.27761e-10 0.00261078 8.15466e-11
 7.73042e-11 0.00261081 8.56084e-11
 1.35763e-10 0.00261078 8.10202e-11
 7.48839e-11 0.00261079 5.6679e-11
 -4.3502e-11 0.0026108 1.59539e-10
 2.23809e-12 0.0026108 -1.70682e-11
 1.50634e-10 0.00261075 -2.96858e-11
 5.96777e-11 0.00261077 1.0075e-10
 -7.27167e-11 0.00261079 9.48914e-11
 2.20556e-11 0.00261081 5.34463e-11
 5.09717e-11 0.00261079 7.10156e-11
 1.13556e-11 0.00261079 -1.46482e-11
 7.61004e-11 0.0026108 2.76784e-11
 4.88366e-11 0.00261079 -3.83676e-11
 -1.59213e-11 0.00261078 -5.2953e-11
 -8.80207e-11 0.00261078 5.62065e-11
 1.80449e-12 0.00261079 -3.532e-11
 1.94275e-11 0.0026108 3.76422e-11
 -3.41378e-11 0.0026108 5.09567e-11
 -1.17548e-11 0.0026108 6.54609e-12
 3.39639e-11 0.00261079 8.75006e-11
 -4.01587e-11 0.00261078 -3.88288e-11
 -4.71067e-11 0.00261082 -7.54527e-11
 -3.53219e-11 0.00261081 2.47357e-11
 3.71588e-11 0.0026108 3.32782e-11
 -1.94738e-11 0.00261079 -6.03731e-11
 3.68745e-11 0.0026108 2.32658e-11
 -8.04291e-12 0.00261079 -1.01595e-12
 3.69346e-13 0.00261078 -7.44635e-11
 9.24817e-12 0.00261078 8.78209e-11
 -8.84808e-11 -0.00104924 -6.37684e-11
 -4.46345e-11 -0.00104924 1.41634e-11
 -2.68252e-11 -0.00104925 6.70034e-11
 8.00004e-12 -0.00104926 -1.91274e-11
 -3.0466e-11 -0.00104923 4.02255e-11
 6.81703e-12 -0.00104925 1.30878e-10
 -1.42068e-12 -0.00104927 -9.06872e-11
 -3.60601e-11 -0.00104931 1.72046e-10
 3.94458e-11 -0.00104924 -9.32214e-11
 6.0127e-12 -0.00104926 -5.27181e-11
 1.90914e-11 -0.00104926 8.55472e-11
 3.48415e-12 -0.00104928 3.59886e-11
 1.07149e-11 -0.00104924 -1.35492e-11
 -1.55013e-11 -0.00104926 1.76706e-10
 1.09485e-11 -0.00104927 1.58794e-10
 -1.77491e-11 -0.0010493 -9.96097e-11
 4.61967e-11 -0.00104925 -7.26988e-11
 7.11466e-11 -0.00104926 3.31907e-11
 2.83286e-11 -0.00104928 1.8151e-11
 4.09896e-11 -0.00104929 -4.39178e-11
 8.71813e-11 -0.00104926 3.809e-11
 2.10281e-11 -0.00104927 8.59221e-11
 -4.31945e-11 -0.00104929 1.34826e-10
 2.60903e-11 -0.00104929 -4.82105e-11
 2.55845e-11 -0.00104927 3.68484e-11
 4.82599e-11 -0.00104928 -3.67244e-12
 -1.22106e-11 -0.00104929 5.07805e-11
 2.76683e-11 -0.0010493 6.25712e-11
 2.18678e-11 -0.00104926 -1.07364e-10
 5.50272e-11 -0.00104928 7.98788e-11
 4.84528e-11 -0.00104929 8.61043e-11
 -3.48475e-11 -0.00104929 -1.12758e-10
 -3.66215e-11 -0.00104923 -7.45698e-11
 7.10593e-11 -0.00104925 8.68007e-11
 6.91311e-11 -0.00104926 7.40279e-11
 -9.12045e-11 -0.00104926 6.39709e-11
 8.68634e-12 -0.00104924 6.76602e-11
 -3.80445e-11 -0.00104927 8.01165e-11
 5.46394e-11 -0.00104928 5.78429e-11
 -3.32305e-11 -0.00104929 -6.02253e-11
 1.20145e-10 -0.00104925 -8.98604e-12
 8.91094e-11 -0.00104926 3.69383e-11
 2.06328e-11 -0.00104927 4.56441e-11
 1.97188e-11 -0.00104928 7.45409e-11
 7.48822e-11 -0.00104927 9.084e-11
 3.70677e-11 -0.00104927 2.74016e-12
 -6.20143e-11 -0.00104929 -1.40707e-11
 4.48387e-11 -0.0010493 -6.64552e-11
 1.44408e-10 -0.00104927 -1.41993e-11
 -5.73628e-11 -0.00104927 4.85581e-11
 2.78259e-11 -0.00104929 1.24939e-11
 7.65475e-11 -0.00104929 -2.40363e-11
 5.32829e-11 -0.00104928 -6.42156e-11
 5.51422e-11 -0.00104929 5.79556e-11
 -6.50802e-11 -0.00104929 1.53543e-11
 -3.21974e-11 -0.00104928 -5.14222e-12
 -6.06356e-11 -0.0010493 -7.16222e-11
 -5.43197e-11 -0.0010493 6.16231e-12
 -5.71692e-11 -0.00104929 5.09646e-11
 -7.71699e-11 -0.00104929 -2.07039e-11
 -1.65574e-11 -0.00104929 -2.00754e-11
 -3.15268e-11 -0.0010493 -6.90829e-11
 2.81393e-11 -0.00104928 5.80028e-11
 -6.58411e-11 -0.00104928 -4.12748e-11
 -7.38277e-11 -0.000758619 -7.94082e-11
 -1.70133e-10 -0.000758593 8.9654e-12
 -4.5441e-11 -0.000758584 1.04005e-10
 -4.8962e-11 -0.000758558 9.42875e-11
 -7.77482e-11 -0.000758625 4.30987e-11
 -4.02507e-11 -0.000758581 5.35447e-11
 -7.1662e-12 -0.000758548 -9.45161e-11
 -3.86922e-11 -0.000758496 -3.25441e-11
 4.17455e-11 -0.000758593 -4.72762e-11
 -1.01548e-10 -0.000758576 -6.62443e-11
 -3.2557e-11 -0.000758559 1.34582e-10
 -5.55977e-11 -0.000758527 -4.34579e-11
 -3.22142e-11 -0.000758587 -1.25049e-10
 -6.98524e-11 -0.000758559 1.21344e-10
 3.49563e-11 -0.000758538 1.99418e-10
 -7.25174e-12 -0.000758504 -1.25637e-10
 7.76986e-11 -0.000758584 -1.94345e-10
 1.89609e-11 -0.00075856 -5.05949e-11
 -2.14477e-11 -0.000758532 4.80496e-11
 7.55344e-11 -0.000758504 -5.82477e-11
 7.49621e-11 -0.000758549 2.59638e-11
 -2.28077e-11 -0.000758543 1.0457e-10
 -2.99543e-11 -0.000758527 2.14731e-10
 -6.82137e-11 -0.000758517 -9.25479e-11
 5.14087e-11 -0.000758556 -3.35898e-11
 -5.16089e-11 -0.000758527 6.15047e-12
 3.25464e-12 -0.000758503 5.874e-11
 -4.8186e-11 -0.000758472 6.33976e-12
 2.61353e-11 -0.00075851 -4.8276e-11
 3.01018e-11 -0.000758513 -2.958e-11
 2.43185e-11 -0.00075852 9.81437e-11
 -3.66148e-11 -0.000758526 -1.10222e-10
 -9.70804e-11 -0.000758626 -5.06586e-11
 -6.46816e-11 -0.000758589 -7.59244e-12
 -9.84464e-11 -0.00075855 1.18901e-10
 1.77714e-11 -0.000758512 1.27297e-11
 -3.57102e-11 -0.000758554 5.02343e-11
 -7.16845e-11 -0.000758539 -2.82785e-11
 -8.32034e-12 -0.000758529 1.70789e-10
 -6.89575e-11 -0.000758516 -7.354e-11
 -3.56932e-11 -0.000758584 -8.3459e-11
 1.1875e-10 -0.000758561 -4.19897e-11
 -3.00946e-11 -0.000758544 1.29934e-11
 3.00729e-11 -0.000758514 9.69692e-11
 -3.89021e-11 -0.000758537 1.4376e-12
 -3.56383e-11 -0.000758529 -3.64345e-11
 -2.65393e-11 -0.000758526 1.9836e-10
 -1.28426e-11 -0.000758523 -7.36692e-11
 -3.72845e-11 -0.000758549 1.85656e-11
 2.26965e-10 -0.000758539 -2.77361e-11
 1.29429e-10 -0.000758527 -1.8452e-11
 -1.12962e-10 -0.00075852 -4.46579e-11
 1.56498e-10 -0.000758527 -8.8164e-11
 5.87662e-11 -0.000758525 -6.11213e-12
 -3.13804e-11 -0.000758538 -1.60988e-12
 -2.72393e-11 -0.00075854 1.23823e-10
 7.42205e-11 -0.000758498 -9.00294e-11
 -3.39597e-11 -0.000758505 -1.75434e-11
 -2.07948e-11 -0.000758517 -1.89939e-13
 -3.25174e-11 -0.000758525 -1.14138e-11
 -3.10377e-12 -0.000758514 -3.18281e-11
 1.22045e-10 -0.000758522 7.48141e-11
 -8.46622e-11 -0.00075854 -3.42198e-11
 3.17865e-11 -0.000758543 -5.21999e-11
 -3.42794e-11 -2.85855e-05 -1.60027e-10
 -2.98956e-11 -2.86005e-05 2.34488e-11
 -4.20496e-11 -2.86078e-05 5.67048e-11
 -1.0948e-11 -2.86095e-05 1.52401e-10
 -5.26318e-11 -2.85811e-05 7.58752e-11
 -1.75292e-11 -2.8606e-05 2.45704e-11
 -4.99792e-12 -2.8621e-05 5.6838e-11
 2.05712e-11 -2.86398e-05 -7.04339e-11
 1.56507e-11 -2.86011e-05 -2.60371e-11
 -7.81469e-12 -2.86104e-05 5.39657e-12
 1.01824e-11 -2.86203e-05 8.9718e-12
 9.50539e-12 -2.86354e-05 6.39389e-11