<?xml version="1.0"?>
<VTKFile type="UnstructuredGrid" version="0.1" byte_order="LittleEndian" compressor="vtkZLibDataCompressor">
<UnstructuredGrid>
<Piece NumberOfPoints="960" NumberOfCells="120">
<Points>
<DataArray type="Float32" NumberOfComponents="3" format="ascii">
-4.000000e+02 -6.000000e+03 -4.000000e+02
0.000000e+00 -6.000000e+03 -4.000000e+02
-4.000000e+02 -5.600000e+03 -4.000000e+02
3.544250e-10 -5.600000e+03 -4.000000e+02
-4.000000e+02 -6.000000e+03 0.000000e+00
0.000000e+00 -6.000000e+03 0.000000e+00
-4.000000e+02 -5.600000e+03 5.782860e-10
-2.861330e-10 -5.600000e+03 7.703430e-10
0.000000e+00 -6.000000e+03 -4.000000e+02
4.000000e+02 -6.000000e+03 -4.000000e+02
3.544250e-10 -5.600000e+03 -4.000000e+02
4.000000e+02 -5.600000e+03 -4.000000e+02
0.000000e+00 -6.000000e+03 0.000000e+00
4.000000e+02 -6.000000e+03 0.000000e+00
-2.861330e-10 -5.600000e+03 7.703430e-10
4.000000e+02 -5.600000e+03 1.461490e-10
-4.000000e+02 -5.600000e+03 -4.000000e+02
3.544250e-10 -5.600000e+03 -4.000000e+02
-4.000000e+02 -5.200000e+03 -4.000000e+02
1.308450e-09 -5.200000e+03 -4.000000e+02
-4.000000e+02 -5.600000e+03 5.782860e-10
-2.861330e-10 -5.600000e+03 7.703430e-10
-4.000000e+02 -5.200000e+03 -5.709550e-10
6.815380e-10 -5.200000e+03 -9.030300e-10
3.544250e-10 -5.600000e+03 -4.000000e+02
4.000000e+02 -5.600000e+03 -4.000000e+02
1.308450e-09 -5.200000e+03 -4.000000e+02
4.000000e+02 -5.200000e+03 -4.000000e+02
-2.861330e-10 -5.600000e+03 7.703430e-10
4.000000e+02 -5.600000e+03 1.461490e-10
6.815380e-10 -5.200000e+03 -9.030300e-10
4.000000e+02 -5.200000e+03 1.934880e-10
-4.000000e+02 -5.200000e+03 -4.000000e+02
1.308450e-09 -5.200000e+03 -4.000000e+02
-4.000000e+02 -4.800010e+03 -4.000000e+02
1.637530e-09 -4.800010e+03 -4.000000e+02
-4.000000e+02 -5.200000e+03 -5.709550e-10
6.815380e-10 -5.200000e+03 -9.030300e-10
-4.000000e+02 -4.800010e+03 -3.614850e-10
4.336930e-10 -4.800010e+03 -3.141680e-10
1.308450e-09 -5.200000e+03 -4.000000e+02
4.000000e+02 -5.200000e+03 -4.000000e+02
1.637530e-09 -4.800010e+03 -4.000000e+02
4.000000e+02 -4.800010e+03 -4.000000e+02
6.815380e-10 -5.200000e+03 -9.030300e-10
4.000000e+02 -5.200000e+03 1.934880e-10
4.336930e-10 -4.800010e+03 -3.141680e-10
4.000000e+02 -4.800010e+03 5.627400e-10
-4.000000e+02 -4.800010e+03 -4.000000e+02
1.637530e-09 -4.800010e+03 -4.000000e+02
-4.000000e+02 -4.400010e+03 -4.000000e+02
6.487640e-10 -4.400010e+03 -4.000000e+02
-4.000000e+02 -4.800010e+03 -3.614850e-10
4.336930e-10 -4.800010e+03 -3.141680e-10
-4.000000e+02 -4.400010e+03 9.904860e-10
5.309950e-10 -4.400010e+03 8.536010e-10
1.637530e-09 -4.800010e+03 -4.000000e+02
4.000000e+02 -4.800010e+03 -4.000000e+02
6.487640e-10 -4.400010e+03 -4.000000e+02
4.000000e+02 -4.400010e+03 -4.000000e+02
4.336930e-10 -4.800010e+03 -3.141680e-10
4.000000e+02 -4.800010e+03 5.627400e-10
5.309950e-10 -4.400010e+03 8.536010e-10
4.000000e+02 -4.400010e+03 1.321500e-09
-4.000000e+02 -4.400010e+03 -4.000000e+02
6.487640e-10 -4.400010e+03 -4.000000e+02
-4.000000e+02 -4.000020e+03 -4.000000e+02
6.515110e-10 -4.000020e+03 -4.000000e+02
-4.000000e+02 -4.400010e+03 9.904860e-10
5.309950e-10 -4.400010e+03 8.536010e-10
-4.000000e+02 -4.000020e+03 2.648830e-09
1.331370e-09 -4.000020e+03 1.887900e-09
6.487640e-10 -4.400010e+03 -4.000000e+02
4.000000e+02 -4.400010e+03 -4.000000e+02
6.515110e-10 -4.000020e+03 -4.000000e+02
4.000000e+02 -4.000020e+03 -4.000000e+02
5.309950e-10 -4.400010e+03 8.536010e-10
4.000000e+02 -4.400010e+03 1.321500e-09
1.331370e-09 -4.000020e+03 1.887900e-09
4.000000e+02 -4.000020e+03 1.554460e-09
-4.000000e+02 -4.000020e+03 -4.000000e+02
6.515110e-10 -4.000020e+03 -4.000000e+02
-4.000000e+02 -3.600040e+03 -4.000000e+02
-5.395190e-11 -3.600040e+03 -4.000000e+02
-4.000000e+02 -4.000020e+03 2.648830e-09
1.331370e-09 -4.000020e+03 1.887900e-09
-4.000000e+02 -3.600040e+03 3.133530e-09
-2.873530e-10 -3.600040e+03 2.595750e-09
6.515110e-10 -4.000020e+03 -4.000000e+02
4.000000e+02 -4.000020e+03 -4.000000e+02
-5.395190e-11 -3.600040e+03 -4.000000e+02
4.000000e+02 -3.600040e+03 -4.000000e+02
1.331370e-09 -4.000020e+03 1.887900e-09
4.000000e+02 -4.000020e+03 1.554460e-09
-2.873530e-10 -3.600040e+03 2.595750e-09
4.000000e+02 -3.600040e+03 1.211990e-09
-4.000000e+02 -3.600040e+03 -4.000000e+02
-5.395190e-11 -3.600040e+03 -4.000000e+02
-4.000000e+02 -3.200070e+03 -4.000000e+02
-5.639200e-10 -3.200070e+03 -4.000000e+02
-4.000000e+02 -3.600040e+03 3.133530e-09
-2.873530e-10 -3.600040e+03 2.595750e-09
-4.000000e+02 -3.200070e+03 1.542900e-09
-2.053120e-10 -3.200070e+03 1.260970e-09
-5.395190e-11 -3.600040e+03 -4.000000e+02
4.000000e+02 -3.600040e+03 -4.000000e+02
-5.639200e-10 -3.200070e+03 -4.000000e+02
4.000000e+02 -3.200070e+03 -4.000000e+02
-2.873530e-10 -3.600040e+03 2.595750e-09
4.000000e+02 -3.600040e+03 1.211990e-09
-2.053120e-10 -3.200070e+03 1.260970e-09
4.000000e+02 -3.200070e+03 2.601220e-10
-4.000000e+02 -3.200070e+03 -4.000000e+02
-5.639200e-10 -3.200070e+03 -4.000000e+02
-4.000000e+02 -2.800110e+03 -4.000000e+02
1.061070e-09 -2.800110e+03 -4.000000e+02
-4.000000e+02 -3.200070e+03 1.542900e-09
-2.053120e-10 -3.200070e+03 1.260970e-09
-4.000000e+02 -2.800110e+03 1.234420e-09
2.199030e-09 -2.800110e+03 1.441160e-09
-5.639200e-10 -3.200070e+03 -4.000000e+02
4.000000e+02 -3.200070e+03 -4.000000e+02
1.061070e-09 -2.800110e+03 -4.000000e+02
4.000000e+02 -2.800110e+03 -4.000000e+02
-2.053120e-10 -3.200070e+03 1.260970e-09
4.000000e+02 -3.200070e+03 2.601220e-10
2.199030e-09 -2.800110e+03 1.441160e-09
4.000000e+02 -2.800110e+03 -5.432670e-10
-4.000000e+02 -2.800110e+03 -4.000000e+02
1.061070e-09 -2.800110e+03 -4.000000e+02
-4.000000e+02 -2.400170e+03 -4.000000e+02
3.423580e-10 -2.400170e+03 -4.000000e+02
-4.000000e+02 -2.800110e+03 1.234420e-09
2.199030e-09 -2.800110e+03 1.441160e-09
-4.000000e+02 -2.400170e+03 -1.055370e-09
8.361840e-10 -2.400170e+03 -4.856120e-10
1.061070e-09 -2.800110e+03 -4.000000e+02
4.000000e+02 -2.800110e+03 -4.000000e+02
3.423580e-10 -2.400170e+03 -4.000000e+02
4.000000e+02 -2.400170e+03 -4.000000e+02
2.199030e-09 -2.800110e+03 1.441160e-09
4.000000e+02 -2.800110e+03 -5.432670e-10
8.361840e-10 -2.400170e+03 -4.856120e-10
4.000000e+02 -2.400170e+03 -6.645160e-10
-4.000000e+02 -2.400170e+03 -4.000000e+02
3.423580e-10 -2.400170e+03 -4.000000e+02
-4.000000e+02 -2.000250e+03 -4.000000e+02
-1.687130e-09 -2.000250e+03 -4.000000e+02
-4.000000e+02 -2.400170e+03 -1.055370e-09
8.361840e-10 -2.400170e+03 -4.856120e-10
-4.000000e+02 -2.000250e+03 -2.052530e-09
-6.406600e-11 -2.000250e+03 -2.762790e-09
3.423580e-10 -2.400170e+03 -4.000000e+02
4.000000e+02 -2.400170e+03 -4.000000e+02
-1.687130e-09 -2.000250e+03 -4.000000e+02
4.000000e+02 -2.000250e+03 -4.000000e+02
8.361840e-10 -2.400170e+03 -4.856120e-10
4.000000e+02 -2.400170e+03 -6.645160e-10
-6.406600e-11 -2.000250e+03 -2.762790e-09
4.000000e+02 -2.000250e+03 -2.225730e-09
-4.000000e+02 -2.000250e+03 -4.000000e+02
-1.687130e-09 -2.000250e+03 -4.000000e+02
-4.000000e+02 -1.600310e+03 -4.000000e+02
1.646230e-09 -1.600310e+03 -4.000000e+02
-4.000000e+02 -2.000250e+03 -2.052530e-09
-6.406600e-11 -2.000250e+03 -2.762790e-09
-4.000000e+02 -1.600310e+03 1.961150e-09
2.428960e-09 -1.600310e+03 4.688470e-10
-1.687130e-09 -2.000250e+03 -4.000000e+02
4.000000e+02 -2.000250e+03 -4.000000e+02
1.646230e-09 -1.600310e+03 -4.000000e+02
4.000000e+02 -1.600310e+03 -4.000000e+02
-6.406600e-11 -2.000250e+03 -2.762790e-09
4.000000e+02 -2.000250e+03 -2.225730e-09
2.428960e-09 -1.600310e+03 4.688470e-10
4.000000e+02 -1.600310e+03 -3.013450e-10
-4.000000e+02 -1.600310e+03 -4.000000e+02
1.646230e-09 -1.600310e+03 -4.000000e+02
-4.000000e+02 -1.200340e+03 -4.000000e+02
4.990660e-10 -1.200340e+03 -4.000000e+02
-4.000000e+02 -1.600310e+03 1.961150e-09
2.428960e-09 -1.600310e+03 4.688470e-10
-4.000000e+02 -1.200340e+03 2.707440e-11
1.075970e-09 -1.200340e+03 -3.609190e-10
1.646230e-09 -1.600310e+03 -4.000000e+02
4.000000e+02 -1.600310e+03 -4.000000e+02
4.990660e-10 -1.200340e+03 -4.000000e+02
4.000000e+02 -1.200340e+03 -4.000000e+02
2.428960e-09 -1.600310e+03 4.688470e-10
4.000000e+02 -1.600310e+03 -3.013450e-10
1.075970e-09 -1.200340e+03 -3.609190e-10
4.000000e+02 -1.200340e+03 3.253610e-10
-4.000000e+02 -1.200340e+03 -4.000000e+02
4.990660e-10 -1.200340e+03 -4.000000e+02
-4.000000e+02 -8.003280e+02 -4.000000e+02
-3.013710e-09 -8.003280e+02 -4.000000e+02
-4.000000e+02 -1.200340e+03 2.707440e-11
1.075970e-09 -1.200340e+03 -3.609190e-10
-4.000000e+02 -8.003280e+02 -4.422470e-09
-6.612720e-11 -8.003280e+02 -2.230810e-09
4.990660e-10 -1.200340e+03 -4.000000e+02
4.000000e+02 -1.200340e+03 -4.000000e+02
-3.013710e-09 -8.003280e+02 -4.000000e+02
4.000000e+02 -8.003280e+02 -4.000000e+02
1.075970e-09 -1.200340e+03 -3.609190e-10
4.000000e+02 -1.200340e+03 3.253610e-10
-6.612720e-11 -8.003280e+02 -2.230810e-09
4.000000e+02 -8.003280e+02 -3.150630e-09
-4.000000e+02 -8.003280e+02 -4.000000e+02
-3.013710e-09 -8.003280e+02 -4.000000e+02
-4.000000e+02 -4.002950e+02 -4.000000e+02
6.939830e-09 -4.002950e+02 -4.000000e+02
-4.000000e+02 -8.003280e+02 -4.422470e-09
-6.612720e-11 -8.003280e+02 -2.230810e-09
-4.000000e+02 -4.002950e+02 6.395340e-09
1.646360e-09 -4.002950e+02 3.186190e-10
-3.013710e-09 -8.003280e+02 -4.000000e+02
4.000000e+02 -8.003280e+02 -4.000000e+02
6.939830e-09 -4.002950e+02 -4.000000e+02
4.000000e+02 -4.002950e+02 -4.000000e+02
-6.612720e-11 -8.003280e+02 -2.230810e-09
4.000000e+02 -8.003280e+02 -3.150630e-09
1.646360e-09 -4.002950e+02 3.186190e-10
4.000000e+02 -4.002950e+02 -1.383230e-09
-4.000000e+02 -4.002950e+02 -4.000000e+02
6.939830e-09 -4.002950e+02 -4.000000e+02
-4.000000e+02 -2.784790e-01 -4.000000e+02
-4.359870e-09 -2.784790e-01 -4.000000e+02
-4.000000e+02 -4.002950e+02 6.395340e-09
1.646360e-09 -4.002950e+02 3.186190e-10
-4.000000e+02 -2.784790e-01 -4.637080e-09
9.954060e-10 -2.784790e-01 -6.489510e-10
6.939830e-09 -4.002950e+02 -4.000000e+02
4.000000e+02 -4.002950e+02 -4.000000e+02
-4.359870e-09 -2.784790e-01 -4.000000e+02
4.000000e+02 -2.784790e-01 -4.000000e+02
[...]
<PointData>
<DataArray type="Float32" Name="V1" format="ascii">
0.000000e+00
0.000000e+00
-3.142250e-10
1.977640e-11
0.000000e+00
0.000000e+00
-9.583870e-10
-3.444280e-10
0.000000e+00
0.000000e+00
1.977640e-11
7.855630e-10
0.000000e+00
0.000000e+00
-3.444280e-10
1.256900e-10
-3.142250e-10
1.977640e-11
-1.461150e-09
-1.762240e-10
-9.583870e-10
-3.444280e-10
1.021230e-09
-2.576050e-10
1.977640e-11
7.855630e-10
-1.762240e-10
-1.571130e-10
-3.444280e-10
1.256900e-10
-2.576050e-10
-2.183860e-09
-1.461150e-09
-1.762240e-10
-2.168150e-09
3.578670e-10
1.021230e-09
-2.576050e-10
1.869640e-09
5.804970e-10
-1.762240e-10
-1.571130e-10
3.578670e-10
4.556260e-10
-2.576050e-10
-2.183860e-09
5.804970e-10
1.461150e-09
-2.168150e-09
3.578670e-10
1.775370e-09
8.264980e-10
1.869640e-09
5.804970e-10
-8.326970e-10
-1.136080e-09
3.578670e-10
4.556260e-10
8.264980e-10
-1.162630e-09
5.804970e-10
1.461150e-09
-1.136080e-09
-1.948200e-09
1.775370e-09
8.264980e-10
8.484080e-10
1.050150e-09
-8.326970e-10
-1.136080e-09
-4.399150e-10
-4.228090e-10
8.264980e-10
-1.162630e-09
1.050150e-09
1.414010e-10
-1.136080e-09
-1.948200e-09
-4.228090e-10
6.284500e-10
8.484080e-10
1.050150e-09
2.670910e-10
-1.565660e-10
-4.399150e-10
-4.228090e-10
-7.855630e-10
1.177780e-09
1.050150e-09
1.414010e-10
-1.565660e-10
-1.146920e-09
-4.228090e-10
6.284500e-10
1.177780e-09
2.890870e-09
2.670910e-10
-1.565660e-10
3.770700e-10
3.799900e-10
-7.855630e-10
1.177780e-09
2.513800e-10
-7.073340e-10
-1.565660e-10
-1.146920e-09
3.799900e-10
2.246710e-09
1.177780e-09
2.890870e-09
-7.073340e-10
-9.898090e-10
3.770700e-10
3.799900e-10
-1.382590e-09
-9.060470e-10
2.513800e-10
-7.073340e-10
-1.728240e-10
1.517450e-09
3.799900e-10
2.246710e-09
-9.060470e-10
-8.955420e-10
-7.073340e-10
-9.898090e-10
1.517450e-09
1.351170e-09
-1.382590e-09
-9.060470e-10
-1.099790e-09
-9.477420e-10
-1.728240e-10
1.517450e-09
-9.426750e-11
1.526710e-10
-9.060470e-10
-8.955420e-10
-9.477420e-10
0.000000e+00
1.517450e-09
1.351170e-09
1.526710e-10
0.000000e+00
-1.099790e-09
-9.477420e-10
1.461150e-09
-5.774610e-10
-9.426750e-11
1.526710e-10
-6.598730e-10
-3.730310e-11
-9.477420e-10
0.000000e+00
-5.774610e-10
4.399150e-10
1.526710e-10
0.000000e+00
-3.730310e-11
7.855630e-11
1.461150e-09
-5.774610e-10
-2.042460e-10
1.122800e-09
-6.598730e-10
-3.730310e-11
1.901060e-09
1.300840e-09
-5.774610e-10
4.399150e-10
1.122800e-09
-1.571130e-11
-3.730310e-11
7.855630e-11
1.300840e-09
-2.042460e-10
-2.042460e-10
1.122800e-09
-3.833550e-09
-5.156490e-09
1.901060e-09
1.300840e-09
-3.110830e-09
-2.810480e-09
1.122800e-09
-1.571130e-11
-5.156490e-09
-4.760510e-09
1.300840e-09
-2.042460e-10
-2.810480e-09
-6.284500e-10
-3.833550e-09
-5.156490e-09
3.487900e-09
1.727530e-09
-3.110830e-09
-2.810480e-09
4.414860e-09
5.687360e-10
-5.156490e-09
-4.760510e-09
1.727530e-09
4.336310e-09
-2.810480e-09
-6.284500e-10
5.687360e-10
-1.084080e-09
3.487900e-09
1.727530e-09
5.938850e-09
4.414050e-09
4.414860e-09
5.687360e-10
-3.566450e-09
-1.777040e-09
1.727530e-09
4.336310e-09
4.414050e-09
2.576650e-09
5.687360e-10
-1.084080e-09
-1.777040e-09
1.304030e-09
5.938850e-09
4.414050e-09
-1.916770e-08
-1.499120e-08
-3.566450e-09
-1.777040e-09
4.886200e-09
5.704070e-09
4.414050e-09
2.576650e-09
-1.499120e-08
-1.352740e-08
-1.777040e-09
1.304030e-09
5.704070e-09
5.153290e-09
-1.916770e-08
-1.499120e-08
4.342590e-08
3.132410e-08
4.886200e-09
5.704070e-09
2.828030e-10
5.696430e-10
-1.499120e-08
-1.352740e-08
3.132410e-08
2.143020e-08
5.704070e-09
5.153290e-09
5.696430e-10
-2.073890e-09
4.342590e-08
3.132410e-08
-2.886160e-08
-1.555480e-08
2.828030e-10
5.696430e-10
-1.945050e-08
-1.147500e-08
3.132410e-08
2.143020e-08
-1.555480e-08
-2.011040e-09
5.696430e-10
-2.073890e-09
-1.147500e-08
-3.252230e-09
-2.886160e-08
-1.555480e-08
-3.503610e-08
-3.400020e-08
-1.945050e-08
-1.147500e-08
2.810740e-08
1.960030e-08
-1.555480e-08
-2.011040e-09
-3.400020e-08
-3.069980e-08
-1.147500e-08
-3.252230e-09
1.960030e-08
1.266330e-08
-3.503610e-08
-3.400020e-08
3.952950e-08
3.082900e-08
2.810740e-08
1.960030e-08
1.167350e-08
4.305130e-09
-3.400020e-08
-3.069980e-08
3.082900e-08
2.249850e-08
1.960030e-08
1.266330e-08
4.305130e-09
-4.100640e-09
3.952950e-08
3.082900e-08
-2.670910e-10
-8.257740e-09
1.167350e-08
4.305130e-09
-2.350400e-08
-1.889740e-08
3.082900e-08
2.249850e-08
-8.257740e-09
-1.684250e-08
4.305130e-09
-4.100640e-09
-1.889740e-08
-1.403020e-08
-2.670910e-10
-8.257740e-09
-4.201190e-08
-6.106240e-09
-2.350400e-08
-1.889740e-08
4.634820e-09
1.040110e-08
-8.257740e-09
-1.684250e-08
-6.106240e-09
2.949000e-08
-1.889740e-08
-1.403020e-08
1.040110e-08
1.616690e-08
-4.201190e-08
-6.106240e-09
3.853970e-08
1.844460e-08
4.634820e-09
1.040110e-08
4.744800e-09
5.723240e-09
-6.106240e-09
2.949000e-08
1.844460e-08
-1.822510e-09
1.040110e-08
1.616690e-08
5.723240e-09
6.677280e-09
3.853970e-08
1.844460e-08
2.553080e-08
-4.845830e-09
4.744800e-09
5.723240e-09
-2.056600e-08
-1.654230e-08
1.844460e-08
-1.822510e-09
-4.845830e-09
-3.568030e-08
5.723240e-09
6.677280e-09
-1.654230e-08
-1.252190e-08
2.553080e-08
-4.845830e-09
-4.479280e-08
-1.006930e-08
-2.056600e-08
-1.654230e-08
5.420380e-09
9.089340e-09
-4.845830e-09
-3.568030e-08
-1.006930e-08
2.435240e-08
-1.654230e-08
-1.252190e-08
9.089340e-09
1.266330e-08
-4.479280e-08
-1.006930e-08
5.137580e-09
3.245310e-09
5.420380e-09
9.089340e-09
1.175200e-08
3.729850e-09
-1.006930e-08
2.435240e-08
3.245310e-09
1.225480e-09
9.089340e-09
1.266330e-08
3.729850e-09
-4.242040e-09
5.137580e-09
3.245310e-09
1.855500e-08
6.416140e-10
1.175200e-08
3.729850e-09
8.484080e-10
-5.745890e-09
3.245310e-09
1.225480e-09
6.416140e-10
-1.709380e-08
3.729850e-09
-4.242040e-09
-5.745890e-09
-1.220760e-08
1.855500e-08
6.416140e-10
-9.002550e-09
-5.950960e-10
8.484080e-10
-5.745890e-09
-9.065390e-09
-3.461880e-11
6.416140e-10
-1.709380e-08
-5.950960e-10
7.777070e-09
-5.745890e-09
-1.220760e-08
-3.461880e-11
8.986840e-09
-9.002550e-09
-5.950960e-10
-9.081110e-09
-2.831580e-09
-9.065390e-09
-3.461880e-11
-3.236520e-09
-5.825080e-12
-5.950960e-10
7.777070e-09
-2.831580e-09
3.440760e-09
-3.461880e-11
8.986840e-09
-5.825080e-12
3.205100e-09
-9.081110e-09
-2.831580e-09
-2.199580e-10
-1.251310e-10
-3.236520e-09
-5.825080e-12
8.169850e-10
8.163600e-10
-2.831580e-09
3.440760e-09
-1.251310e-10
0.000000e+00
-5.825080e-12
3.205100e-09
8.163600e-10
8.326970e-10
-2.199580e-10
-1.251310e-10
-2.985140e-10
-3.163720e-10
8.169850e-10
8.163600e-10
-1.571130e-10
-2.175140e-10
-1.251310e-10
0.000000e+00
-3.163720e-10
-3.142250e-10
8.163600e-10
8.326970e-10
-2.175140e-10
-2.985140e-10
0.000000e+00
0.000000e+00
-9.583870e-10
-3.444280e-10
0.000000e+00
0.000000e+00
-2.466670e-09
4.524110e-10
0.000000e+00
0.000000e+00
-3.444280e-10
1.256900e-10
0.000000e+00
0.000000e+00
4.524110e-10
3.330790e-09
-9.583870e-10
-3.444280e-10
1.021230e-09
-2.576050e-10
-2.466670e-09
4.524110e-10
1.162630e-09
1.588610e-10
-3.444280e-10
1.256900e-10
-2.576050e-10
-2.183860e-09
4.524110e-10
3.330790e-09
1.588610e-10
2.828030e-10
1.021230e-09
-2.576050e-10
1.869640e-09
5.804970e-10
1.162630e-09
1.588610e-10
-1.492570e-09
1.112140e-09
-2.576050e-10
-2.183860e-09
5.804970e-10
1.461150e-09
1.588610e-10
2.828030e-10
1.112140e-09
2.073890e-09
1.869640e-09
5.804970e-10
-8.326970e-10
-1.136080e-09
-1.492570e-09
1.112140e-09
3.330790e-09
1.226190e-09
5.804970e-10
1.461150e-09
-1.136080e-09
-1.948200e-09
1.112140e-09
2.073890e-09
1.226190e-09
-1.728240e-09
-8.326970e-10
-1.136080e-09
-4.399150e-10
-4.228090e-10
3.330790e-09
1.226190e-09
2.105310e-09
1.974220e-09
-1.136080e-09
-1.948200e-09
-4.228090e-10
6.284500e-10
1.226190e-09
-1.728240e-09
1.974220e-09
-2.608070e-09
-4.399150e-10
-4.228090e-10
-7.855630e-10
1.177780e-09
2.105310e-09
1.974220e-09
2.199580e-10
-8.719500e-10
-4.228090e-10
6.284500e-10
1.177780e-09
2.890870e-09
1.974220e-09
-2.608070e-09
-8.719500e-10
-5.341830e-10
-7.855630e-10
1.177780e-09
2.513800e-10
-7.073340e-10
2.199580e-10
-8.719500e-10
3.456480e-10
-1.350690e-11
1.177780e-09
2.890870e-09
-7.073340e-10
-9.898090e-10
-8.719500e-10
-5.341830e-10
-1.350690e-11
7.227180e-10
2.513800e-10
-7.073340e-10
-1.728240e-10
1.517450e-09
3.456480e-10
-1.350690e-11
-2.718050e-09
-1.480930e-09
-7.073340e-10
-9.898090e-10
1.517450e-09
1.351170e-09
-1.350690e-11
7.227180e-10
-1.480930e-09
-2.152440e-09
-1.728240e-10
1.517450e-09
-9.426750e-11
1.526710e-10
-2.718050e-09
-1.480930e-09
-1.429720e-09
-8.763050e-11
1.517450e-09
1.351170e-09
1.526710e-10
0.000000e+00
-1.480930e-09
-2.152440e-09
-8.763050e-11
7.541400e-10
-9.426750e-11
1.526710e-10
-6.598730e-10
-3.730310e-11
-1.429720e-09
-8.763050e-11
-5.184710e-10
-1.193750e-09
1.526710e-10
0.000000e+00
-3.730310e-11
7.855630e-11
-8.763050e-11
7.541400e-10
-1.193750e-09
-1.445440e-09
-6.598730e-10
-3.730310e-11
1.901060e-09
1.300840e-09
-5.184710e-10
-1.193750e-09
1.728240e-09
1.699370e-09
-3.730310e-11
7.855630e-11
1.300840e-09
-2.042460e-10
-1.193750e-09
-1.445440e-09
1.699370e-09
2.985140e-10
1.901060e-09
1.300840e-09
-3.110830e-09
-2.810480e-09
1.728240e-09
1.699370e-09
-2.702340e-09
-1.274770e-09
1.300840e-09
-2.042460e-10
-2.810480e-09
-6.284500e-10
1.699370e-09
2.985140e-10
-1.274770e-09
1.445440e-09
-3.110830e-09
-2.810480e-09
4.414860e-09
5.687360e-10
-2.702340e-09
-1.274770e-09
1.131210e-09
-1.683820e-09
-2.810480e-09
-6.284500e-10
5.687360e-10
-1.084080e-09
-1.274770e-09
1.445440e-09
-1.683820e-09
-4.462000e-09
4.414860e-09
5.687360e-10
-3.566450e-09
-1.777040e-09
1.131210e-09
-1.683820e-09
1.995330e-09
3.936030e-09
5.687360e-10
-1.084080e-09
-1.777040e-09
1.304030e-09
-1.683820e-09
-4.462000e-09
3.936030e-09
5.373250e-09
-3.566450e-09
-1.777040e-09
4.886200e-09
5.704070e-09
1.995330e-09
3.936030e-09
-1.115500e-09
2.289440e-09
-1.777040e-09
1.304030e-09
5.704070e-09
5.153290e-09
3.936030e-09
5.373250e-09
2.289440e-09
3.723570e-09
4.886200e-09
5.704070e-09
2.828030e-10
5.696430e-10
-1.115500e-09
2.289440e-09
5.043310e-09
-5.334780e-09
5.704070e-09
5.153290e-09
5.696430e-10
-2.073890e-09
2.289440e-09
3.723570e-09
-5.334780e-09
-1.297750e-08
2.828030e-10
5.696430e-10
-1.945050e-08
-1.147500e-08
5.043310e-09
-5.334780e-09
-1.013380e-08
6.747530e-09
5.696430e-10
-2.073890e-09
-1.147500e-08
-3.252230e-09
-5.334780e-09
-1.297750e-08
6.747530e-09
2.144590e-08
-1.945050e-08
-1.147500e-08
2.810740e-08
1.960030e-08
-1.013380e-08
6.747530e-09
-8.107010e-09
-1.049940e-08
-1.147500e-08
-3.252230e-09
1.960030e-08
1.266330e-08
6.747530e-09
2.144590e-08
-1.049940e-08
-1.428150e-08
2.810740e-08
1.960030e-08
1.167350e-08
4.305130e-09
-8.107010e-09
-1.049940e-08
3.831980e-08
-2.418910e-08
1.960030e-08
1.266330e-08
4.305130e-09
-4.100640e-09
-1.049940e-08
-1.428150e-08
-2.418910e-08
-8.658470e-08
1.167350e-08
4.305130e-09
-2.350400e-08
-1.889740e-08
3.831980e-08
-2.418910e-08
-2.444670e-08
8.092500e-09
4.305130e-09
-4.100640e-09
-1.889740e-08
-1.403020e-08
-2.418910e-08
-8.658470e-08
8.092500e-09
4.020510e-08
-2.350400e-08
-1.889740e-08
4.634820e-09
1.040110e-08
-2.444670e-08
8.092500e-09
-1.403020e-08
3.445930e-08
-1.889740e-08
-1.403020e-08
1.040110e-08
1.616690e-08
8.092500e-09
4.020510e-08
3.445930e-08
8.279830e-08
4.634820e-09
1.040110e-08
4.744800e-09
5.723240e-09
-1.403020e-08
3.445930e-08
1.930910e-08
-1.474750e-08
1.040110e-08
1.616690e-08
5.723240e-09
6.677280e-09
3.445930e-08
8.279830e-08
-1.474750e-08
-4.867350e-08
4.744800e-09
5.723240e-09
-2.056600e-08
-1.654230e-08
1.930910e-08
-1.474750e-08
-1.853930e-09
-2.376640e-08
5.723240e-09
6.677280e-09
-1.654230e-08
-1.252190e-08
-1.474750e-08
-4.867350e-08
-2.376640e-08
-4.592400e-08
-2.056600e-08
-1.654230e-08
5.420380e-09
9.089340e-09
-1.853930e-09
-2.376640e-08
-8.845440e-09
2.195350e-08
-1.654230e-08
-1.252190e-08
9.089340e-09
1.266330e-08
-2.376640e-08
-4.592400e-08
2.195350e-08
5.266410e-08
5.420380e-09
9.089340e-09
1.175200e-08
3.729850e-09
-8.845440e-09
2.195350e-08
2.435240e-09
5.423740e-09
9.089340e-09
1.266330e-08
3.729850e-09
-4.242040e-09
2.195350e-08
5.266410e-08
5.423740e-09
8.405520e-09
1.175200e-08
3.729850e-09
8.484080e-10
-5.745890e-09
2.435240e-09
5.423740e-09
1.033800e-08
-6.777110e-09
3.729850e-09
-4.242040e-09
-5.745890e-09
-1.220760e-08
5.423740e-09
8.405520e-09
-6.777110e-09
-2.359830e-08
8.484080e-10
-5.745890e-09
-9.065390e-09
-3.461880e-11
1.033800e-08
-6.777110e-09
-4.571980e-09
-3.284180e-10
-5.745890e-09
-1.220760e-08
-3.461880e-11
8.986840e-09
-6.777110e-09
-2.359830e-08
-3.284180e-10
3.927810e-09
-9.065390e-09
-3.461880e-11
-3.236520e-09
-5.825080e-12
-4.571980e-09
-3.284180e-10
-5.907430e-09
1.383530e-09
-3.461880e-11
8.986840e-09
-5.825080e-12
3.205100e-09
-3.284180e-10
3.927810e-09
1.383530e-09
8.609770e-09
-3.236520e-09
-5.825080e-12
8.169850e-10
8.163600e-10
-5.907430e-09
1.383530e-09
1.869640e-09
1.729110e-09
-5.825080e-12
3.205100e-09
8.163600e-10
8.326970e-10
1.383530e-09
8.609770e-09
1.729110e-09
1.523990e-09
8.169850e-10
8.163600e-10
-1.571130e-10
-2.175140e-10
1.869640e-09
1.729110e-09
0.000000e+00
-1.420020e-10
8.163600e-10
8.326970e-10
-2.175140e-10
-2.985140e-10
1.729110e-09
1.523990e-09
-1.420020e-10
-3.142250e-10
</DataArray>
<DataArray type="Float32" Name="V2" format="ascii">
0.000000e+00
0.000000e+00
7.316420e-04
7.316430e-04
0.000000e+00
0.000000e+00
7.316410e-04
7.316380e-04
0.000000e+00
0.000000e+00
7.316430e-04
7.316430e-04
0.000000e+00
0.000000e+00
7.316380e-04
7.316370e-04
7.316420e-04
7.316430e-04
1.392180e-03
1.392170e-03
7.316410e-04
7.316380e-04
1.392160e-03
1.392170e-03
7.316430e-04
7.316430e-04
1.392170e-03
1.392170e-03
7.316380e-04
7.316370e-04
1.392170e-03
1.392170e-03
1.392180e-03
1.392170e-03
1.624120e-03
1.624110e-03
1.392160e-03
1.392170e-03
1.624120e-03
1.624120e-03
1.392170e-03
1.392170e-03
1.624110e-03
1.624120e-03
1.392170e-03
1.392170e-03
1.624120e-03
1.624120e-03
1.624120e-03
1.624110e-03
5.097090e-03
5.097090e-03
1.624120e-03
1.624120e-03
5.097090e-03
5.097090e-03
1.624110e-03
1.624120e-03
5.097090e-03
5.097100e-03
1.624120e-03
1.624120e-03
5.097090e-03
5.097100e-03
5.097090e-03
5.097090e-03
7.372330e-03
7.372330e-03
5.097090e-03
5.097090e-03
7.372340e-03
7.372330e-03
5.097090e-03
5.097100e-03
7.372330e-03
7.372330e-03
5.097090e-03
5.097100e-03
7.372330e-03
7.372320e-03
7.372330e-03
7.372330e-03
1.435520e-02
1.435520e-02
7.372340e-03
7.372330e-03
1.435520e-02
1.435520e-02
7.372330e-03
7.372330e-03
1.435520e-02
1.435520e-02
7.372330e-03
7.372320e-03
1.435520e-02
1.435520e-02
1.435520e-02
1.435520e-02
2.450090e-02
2.450090e-02
1.435520e-02
1.435520e-02
2.450090e-02
2.450090e-02
1.435520e-02
1.435520e-02
2.450090e-02
2.450090e-02
1.435520e-02
1.435520e-02
2.450090e-02
2.450090e-02
2.450090e-02
2.450090e-02
3.753560e-02
3.753560e-02
2.450090e-02
2.450090e-02
3.753560e-02
3.753560e-02
2.450090e-02
2.450090e-02
3.753560e-02
3.753560e-02
2.450090e-02
2.450090e-02
3.753560e-02
3.753560e-02
3.753560e-02
3.753560e-02
4.985450e-02
4.985450e-02
3.753560e-02
3.753560e-02
4.985450e-02
4.985450e-02
3.753560e-02
3.753560e-02
4.985450e-02
4.985450e-02
3.753560e-02
3.753560e-02
4.985450e-02
4.985450e-02
4.985450e-02
4.985450e-02
4.988950e-02
4.988950e-02
4.985450e-02
4.985450e-02
4.988950e-02
4.988950e-02
4.985450e-02
4.985450e-02
4.988950e-02
4.988950e-02
4.985450e-02
4.985450e-02
4.988950e-02
4.988950e-02
4.988950e-02
4.988950e-02
3.545860e-02
3.545860e-02
4.988950e-02
4.988950e-02
3.545860e-02
3.545860e-02
4.988950e-02
4.988950e-02
3.545860e-02
3.545860e-02
4.988950e-02
4.988950e-02
3.545860e-02
3.545860e-02
3.545860e-02
3.545860e-02
4.358980e-03
4.358980e-03
3.545860e-02
3.545860e-02
4.358980e-03
4.358980e-03
3.545860e-02
3.545860e-02
4.358980e-03
4.358980e-03
3.545860e-02
3.545860e-02
4.358980e-03
4.358980e-03
4.358980e-03
4.358980e-03
-2.301240e-02
-2.301240e-02
4.358980e-03
4.358980e-03
-2.301240e-02
-2.301240e-02
4.358980e-03
4.358980e-03
-2.301240e-02
-2.301240e-02
4.358980e-03
4.358980e-03
-2.301240e-02
-2.301240e-02
-2.301240e-02
-2.301240e-02
-2.170710e-02
-2.170710e-02
-2.301240e-02
-2.301240e-02
-2.170710e-02
-2.170710e-02
-2.301240e-02
-2.301240e-02
-2.170710e-02
-2.170710e-02
-2.301240e-02
-2.301240e-02
-2.170710e-02
-2.170710e-02
-2.170710e-02
-2.170710e-02
-1.025510e-03
-1.025470e-03
-2.170710e-02
-2.170710e-02
-1.025470e-03
-1.025460e-03
-2.170710e-02
-2.170710e-02
-1.025470e-03
-1.025460e-03
-2.170710e-02
-2.170710e-02
-1.025460e-03
-1.025460e-03
-1.025510e-03
-1.025470e-03
1.721130e-02
1.721130e-02
-1.025470e-03
-1.025460e-03
1.721130e-02
1.721130e-02
-1.025470e-03
-1.025460e-03
1.721130e-02
1.721130e-02
-1.025460e-03
-1.025460e-03
1.721130e-02
1.721130e-02
1.721130e-02
1.721130e-02
6.887940e-03
6.887880e-03
1.721130e-02
1.721130e-02
6.887880e-03
6.887930e-03
1.721130e-02
1.721130e-02
6.887880e-03
6.887800e-03
1.721130e-02
1.721130e-02
6.887930e-03
6.887890e-03
6.887940e-03
6.887880e-03
-1.386350e-02
-1.386340e-02
6.887880e-03
6.887930e-03
-1.386340e-02
-1.386340e-02
6.887880e-03
6.887800e-03
-1.386340e-02
-1.386340e-02
6.887930e-03
6.887890e-03
-1.386340e-02
-1.386340e-02
-1.386350e-02
-1.386340e-02
-4.475660e-03
-4.475680e-03
-1.386340e-02
-1.386340e-02
-4.475700e-03
-4.475700e-03
-1.386340e-02
-1.386340e-02
-4.475680e-03
-4.475710e-03
-1.386340e-02
-1.386340e-02
-4.475700e-03
-4.475680e-03
-4.475660e-03
-4.475680e-03
9.975310e-03
9.975140e-03
-4.475700e-03
-4.475700e-03
9.975220e-03
9.975030e-03
-4.475680e-03
-4.475710e-03
9.975140e-03
9.975320e-03
-4.475700e-03
-4.475680e-03
9.975030e-03
9.975240e-03
9.975310e-03
9.975140e-03
-1.373150e-03
-1.373060e-03
9.975220e-03
9.975030e-03
-1.373110e-03
-1.373100e-03
9.975140e-03
9.975320e-03
-1.373060e-03
-1.373350e-03
9.975030e-03
9.975240e-03
-1.373100e-03
-1.373050e-03
-1.373150e-03
-1.373060e-03
-2.972160e-03
-2.972200e-03
-1.373110e-03
-1.373100e-03
-2.972210e-03
-2.972150e-03
-1.373060e-03
-1.373350e-03
-2.972200e-03
-2.972050e-03
-1.373100e-03
-1.373050e-03
-2.972150e-03
-2.972190e-03
-2.972160e-03
-2.972200e-03
1.515270e-03
1.515530e-03
-2.972210e-03
-2.972150e-03
1.515600e-03
1.515350e-03
-2.972200e-03
-2.972050e-03
1.515530e-03
1.515320e-03
-2.972150e-03
-2.972190e-03
1.515350e-03
1.515450e-03
1.515270e-03
1.515530e-03
4.008010e-04
4.007150e-04
1.515600e-03
1.515350e-03
4.006840e-04
4.007920e-04
1.515530e-03
1.515320e-03
4.007150e-04
4.007840e-04
1.515350e-03
1.515450e-03
4.007920e-04
4.006910e-04
4.008010e-04
4.007150e-04
-4.358050e-04
-4.363610e-04
4.006840e-04
4.007920e-04
-4.364120e-04
-4.367330e-04
4.007150e-04
4.007840e-04
-4.363610e-04
-4.361320e-04
4.007920e-04
4.006910e-04
-4.367330e-04
-4.362870e-04
-4.358050e-04
-4.363610e-04
9.251040e-06
9.061250e-06
-4.364120e-04
-4.367330e-04
9.050560e-06
9.202650e-06
-4.363610e-04
-4.361320e-04
9.061250e-06
9.154760e-06
-4.367330e-04
-4.362870e-04
9.202650e-06
9.065140e-06
9.251040e-06
9.061250e-06
5.015990e-05
5.077650e-05
9.050560e-06
9.202650e-06
5.082000e-05
5.097380e-05
9.061250e-06
9.154760e-06
5.077650e-05
5.056110e-05
9.202650e-06
9.065140e-06
5.097380e-05
5.076040e-05
5.015990e-05
5.077650e-05
1.386060e-05
1.386210e-05
5.082000e-05
5.097380e-05
1.386160e-05
1.386030e-05
5.077650e-05
5.056110e-05
1.386210e-05
1.384980e-05
5.097380e-05
5.076040e-05
1.386030e-05
1.386690e-05
1.386060e-05
1.386210e-05
-1.524950e-05
-1.524390e-05
1.386160e-05
1.386030e-05
-1.524470e-05
-1.523590e-05
1.386210e-05
1.384980e-05
-1.524390e-05
-1.522730e-05
1.386030e-05
1.386690e-05
-1.523590e-05
-1.523540e-05
-1.524950e-05
-1.524390e-05
-2.037150e-04
-2.037180e-04
-1.524470e-05
-1.523590e-05
-2.037170e-04
-2.037190e-04
-1.524390e-05
-1.522730e-05
-2.037180e-04
-2.037200e-04
-1.523590e-05
-1.523540e-05
-2.037190e-04
-2.037240e-04
0.000000e+00
0.000000e+00
7.316410e-04
7.316380e-04
0.000000e+00
0.000000e+00
7.316380e-04
7.316420e-04
0.000000e+00
0.000000e+00
7.316380e-04
7.316370e-04
0.000000e+00
0.000000e+00
7.316420e-04
7.316380e-04
7.316410e-04
7.316380e-04
1.392160e-03
1.392170e-03
7.316380e-04
7.316420e-04
1.392170e-03
1.392160e-03
7.316380e-04
7.316370e-04
1.392170e-03
1.392170e-03
7.316420e-04
7.316380e-04
1.392160e-03
1.392170e-03
1.392160e-03
1.392170e-03
1.624120e-03
1.624120e-03
1.392170e-03
1.392160e-03
1.624110e-03
1.624120e-03