<?xml version="1.0"?>
<VTKFile type="UnstructuredGrid" version="0.1" byte_order="LittleEndian" compressor="vtkZLibDataCompressor">
<UnstructuredGrid>
<Piece NumberOfPoints="960" NumberOfCells="120">
<Points>
<DataArray type="Float32" NumberOfComponents="3" format="ascii">
-4.000000e+02 -6.000000e+03 -4.000000e+02
0.000000e+00 -6.000000e+03 -4.000000e+02
-4.000000e+02 -5.599990e+03 -4.000000e+02
-9.247950e-10 -5.599990e+03 -4.000000e+02
-4.000000e+02 -6.000000e+03 0.000000e+00
0.000000e+00 -6.000000e+03 0.000000e+00
-4.000000e+02 -5.599990e+03 2.222120e-10
-5.523100e-10 -5.599990e+03 5.374880e-10
0.000000e+00 -6.000000e+03 -4.000000e+02
4.000000e+02 -6.000000e+03 -4.000000e+02
-9.247950e-10 -5.599990e+03 -4.000000e+02
4.000000e+02 -5.599990e+03 -4.000000e+02
0.000000e+00 -6.000000e+03 0.000000e+00
4.000000e+02 -6.000000e+03 0.000000e+00
-5.523100e-10 -5.599990e+03 5.374880e-10
4.000000e+02 -5.599990e+03 3.900260e-10
-4.000000e+02 -5.599990e+03 -4.000000e+02
-9.247950e-10 -5.599990e+03 -4.000000e+02
-4.000000e+02 -5.199970e+03 -4.000000e+02
-1.345900e-10 -5.199970e+03 -4.000000e+02
-4.000000e+02 -5.599990e+03 2.222120e-10
-5.523100e-10 -5.599990e+03 5.374880e-10
-4.000000e+02 -5.199970e+03 8.903060e-10
-9.951900e-10 -5.199970e+03 3.337680e-10
-9.247950e-10 -5.599990e+03 -4.000000e+02
4.000000e+02 -5.599990e+03 -4.000000e+02
-1.345900e-10 -5.199970e+03 -4.000000e+02
4.000000e+02 -5.199970e+03 -4.000000e+02
-5.523100e-10 -5.599990e+03 5.374880e-10
4.000000e+02 -5.599990e+03 3.900260e-10
-9.951900e-10 -5.199970e+03 3.337680e-10
4.000000e+02 -5.199970e+03 3.645290e-10
-4.000000e+02 -5.199970e+03 -4.000000e+02
-1.345900e-10 -5.199970e+03 -4.000000e+02
-4.000000e+02 -4.799990e+03 -4.000000e+02
-4.878710e-10 -4.799990e+03 -4.000000e+02
-4.000000e+02 -5.199970e+03 8.903060e-10
-9.951900e-10 -5.199970e+03 3.337680e-10
-4.000000e+02 -4.799990e+03 1.944470e-10
-5.916910e-10 -4.799990e+03 -8.089480e-10
-1.345900e-10 -5.199970e+03 -4.000000e+02
4.000000e+02 -5.199970e+03 -4.000000e+02
-4.878710e-10 -4.799990e+03 -4.000000e+02
4.000000e+02 -4.799990e+03 -4.000000e+02
-9.951900e-10 -5.199970e+03 3.337680e-10
4.000000e+02 -5.199970e+03 3.645290e-10
-5.916910e-10 -4.799990e+03 -8.089480e-10
4.000000e+02 -4.799990e+03 -2.479380e-11
-4.000000e+02 -4.799990e+03 -4.000000e+02
-4.878710e-10 -4.799990e+03 -4.000000e+02
-4.000000e+02 -4.400050e+03 -4.000000e+02
-6.936680e-10 -4.400050e+03 -4.000000e+02
-4.000000e+02 -4.799990e+03 1.944470e-10
-5.916910e-10 -4.799990e+03 -8.089480e-10
-4.000000e+02 -4.400050e+03 3.364720e-10
-4.589200e-10 -4.400050e+03 -6.239550e-10
-4.878710e-10 -4.799990e+03 -4.000000e+02
4.000000e+02 -4.799990e+03 -4.000000e+02
-6.936680e-10 -4.400050e+03 -4.000000e+02
4.000000e+02 -4.400050e+03 -4.000000e+02
-5.916910e-10 -4.799990e+03 -8.089480e-10
4.000000e+02 -4.799990e+03 -2.479380e-11
-4.589200e-10 -4.400050e+03 -6.239550e-10
4.000000e+02 -4.400050e+03 -1.836900e-10
-4.000000e+02 -4.400050e+03 -4.000000e+02
-6.936680e-10 -4.400050e+03 -4.000000e+02
-4.000000e+02 -4.000130e+03 -4.000000e+02
-1.325520e-10 -4.000130e+03 -4.000000e+02
-4.000000e+02 -4.400050e+03 3.364720e-10
-4.589200e-10 -4.400050e+03 -6.239550e-10
-4.000000e+02 -4.000130e+03 3.112350e-10
-8.858590e-11 -4.000130e+03 2.653450e-10
-6.936680e-10 -4.400050e+03 -4.000000e+02
4.000000e+02 -4.400050e+03 -4.000000e+02
-1.325520e-10 -4.000130e+03 -4.000000e+02
4.000000e+02 -4.000130e+03 -4.000000e+02
-4.589200e-10 -4.400050e+03 -6.239550e-10
4.000000e+02 -4.400050e+03 -1.836900e-10
-8.858590e-11 -4.000130e+03 2.653450e-10
4.000000e+02 -4.000130e+03 -9.801550e-10
-4.000000e+02 -4.000130e+03 -4.000000e+02
-1.325520e-10 -4.000130e+03 -4.000000e+02
-4.000000e+02 -3.600200e+03 -4.000000e+02
-1.519930e-09 -3.600200e+03 -4.000000e+02
-4.000000e+02 -4.000130e+03 3.112350e-10
-8.858590e-11 -4.000130e+03 2.653450e-10
-4.000000e+02 -3.600200e+03 -2.491470e-10
-7.376490e-10 -3.600200e+03 7.579840e-11
-1.325520e-10 -4.000130e+03 -4.000000e+02
4.000000e+02 -4.000130e+03 -4.000000e+02
-1.519930e-09 -3.600200e+03 -4.000000e+02
4.000000e+02 -3.600200e+03 -4.000000e+02
-8.858590e-11 -4.000130e+03 2.653450e-10
4.000000e+02 -4.000130e+03 -9.801550e-10
-7.376490e-10 -3.600200e+03 7.579840e-11
4.000000e+02 -3.600200e+03 -3.997740e-10
-4.000000e+02 -3.600200e+03 -4.000000e+02
-1.519930e-09 -3.600200e+03 -4.000000e+02
-4.000000e+02 -3.200240e+03 -4.000000e+02
-2.062270e-09 -3.200240e+03 -4.000000e+02
-4.000000e+02 -3.600200e+03 -2.491470e-10
-7.376490e-10 -3.600200e+03 7.579840e-11
-4.000000e+02 -3.200240e+03 -1.137870e-11
-1.081010e-09 -3.200240e+03 9.167990e-13
-1.519930e-09 -3.600200e+03 -4.000000e+02
4.000000e+02 -3.600200e+03 -4.000000e+02
-2.062270e-09 -3.200240e+03 -4.000000e+02
4.000000e+02 -3.200240e+03 -4.000000e+02
-7.376490e-10 -3.600200e+03 7.579840e-11
4.000000e+02 -3.600200e+03 -3.997740e-10
-1.081010e-09 -3.200240e+03 9.167990e-13
4.000000e+02 -3.200240e+03 5.344880e-10
-4.000000e+02 -3.200240e+03 -4.000000e+02
-2.062270e-09 -3.200240e+03 -4.000000e+02
-4.000000e+02 -2.800270e+03 -4.000000e+02
5.528670e-11 -2.800270e+03 -4.000000e+02
-4.000000e+02 -3.200240e+03 -1.137870e-11
-1.081010e-09 -3.200240e+03 9.167990e-13
-4.000000e+02 -2.800270e+03 8.808700e-10
4.206640e-10 -2.800270e+03 2.251470e-10
-2.062270e-09 -3.200240e+03 -4.000000e+02
4.000000e+02 -3.200240e+03 -4.000000e+02
5.528670e-11 -2.800270e+03 -4.000000e+02
4.000000e+02 -2.800270e+03 -4.000000e+02
-1.081010e-09 -3.200240e+03 9.167990e-13
4.000000e+02 -3.200240e+03 5.344880e-10
4.206640e-10 -2.800270e+03 2.251470e-10
4.000000e+02 -2.800270e+03 7.022530e-10
-4.000000e+02 -2.800270e+03 -4.000000e+02
5.528670e-11 -2.800270e+03 -4.000000e+02
-4.000000e+02 -2.400280e+03 -4.000000e+02
4.485660e-10 -2.400280e+03 -4.000000e+02
-4.000000e+02 -2.800270e+03 8.808700e-10
4.206640e-10 -2.800270e+03 2.251470e-10
-4.000000e+02 -2.400280e+03 -5.622430e-10
7.892250e-10 -2.400280e+03 1.991370e-10
5.528670e-11 -2.800270e+03 -4.000000e+02
4.000000e+02 -2.800270e+03 -4.000000e+02
4.485660e-10 -2.400280e+03 -4.000000e+02
4.000000e+02 -2.400280e+03 -4.000000e+02
4.206640e-10 -2.800270e+03 2.251470e-10
4.000000e+02 -2.800270e+03 7.022530e-10
7.892250e-10 -2.400280e+03 1.991370e-10
4.000000e+02 -2.400280e+03 3.360520e-10
-4.000000e+02 -2.400280e+03 -4.000000e+02
4.485660e-10 -2.400280e+03 -4.000000e+02
-4.000000e+02 -2.000290e+03 -4.000000e+02
5.563810e-10 -2.000290e+03 -4.000000e+02
-4.000000e+02 -2.400280e+03 -5.622430e-10
7.892250e-10 -2.400280e+03 1.991370e-10
-4.000000e+02 -2.000290e+03 -8.135480e-10
4.436370e-11 -2.000290e+03 -6.508040e-10
4.485660e-10 -2.400280e+03 -4.000000e+02
4.000000e+02 -2.400280e+03 -4.000000e+02
5.563810e-10 -2.000290e+03 -4.000000e+02
4.000000e+02 -2.000290e+03 -4.000000e+02
7.892250e-10 -2.400280e+03 1.991370e-10
4.000000e+02 -2.400280e+03 3.360520e-10
4.436370e-11 -2.000290e+03 -6.508040e-10
4.000000e+02 -2.000290e+03 2.692800e-10
-4.000000e+02 -2.000290e+03 -4.000000e+02
5.563810e-10 -2.000290e+03 -4.000000e+02
-4.000000e+02 -1.600290e+03 -4.000000e+02
2.803810e-10 -1.600290e+03 -4.000000e+02
-4.000000e+02 -2.000290e+03 -8.135480e-10
4.436370e-11 -2.000290e+03 -6.508040e-10
-4.000000e+02 -1.600290e+03 -1.854420e-11
-1.808660e-10 -1.600290e+03 -2.219370e-10
5.563810e-10 -2.000290e+03 -4.000000e+02
4.000000e+02 -2.000290e+03 -4.000000e+02
2.803810e-10 -1.600290e+03 -4.000000e+02
4.000000e+02 -1.600290e+03 -4.000000e+02
4.436370e-11 -2.000290e+03 -6.508040e-10
4.000000e+02 -2.000290e+03 2.692800e-10
-1.808660e-10 -1.600290e+03 -2.219370e-10
4.000000e+02 -1.600290e+03 -3.961310e-11
-4.000000e+02 -1.600290e+03 -4.000000e+02
2.803810e-10 -1.600290e+03 -4.000000e+02
-4.000000e+02 -1.200290e+03 -4.000000e+02
6.703200e-10 -1.200290e+03 -4.000000e+02
-4.000000e+02 -1.600290e+03 -1.854420e-11
-1.808660e-10 -1.600290e+03 -2.219370e-10
-4.000000e+02 -1.200290e+03 5.281720e-10
3.575940e-10 -1.200290e+03 4.816190e-10
2.803810e-10 -1.600290e+03 -4.000000e+02
4.000000e+02 -1.600290e+03 -4.000000e+02
6.703200e-10 -1.200290e+03 -4.000000e+02
4.000000e+02 -1.200290e+03 -4.000000e+02
-1.808660e-10 -1.600290e+03 -2.219370e-10
4.000000e+02 -1.600290e+03 -3.961310e-11
3.575940e-10 -1.200290e+03 4.816190e-10
4.000000e+02 -1.200290e+03 4.161970e-10
-4.000000e+02 -1.200290e+03 -4.000000e+02
6.703200e-10 -1.200290e+03 -4.000000e+02
-4.000000e+02 -8.002940e+02 -4.000000e+02
3.409460e-11 -8.002940e+02 -4.000000e+02
-4.000000e+02 -1.200290e+03 5.281720e-10
3.575940e-10 -1.200290e+03 4.816190e-10
-4.000000e+02 -8.002940e+02 3.101040e-10
2.807040e-10 -8.002940e+02 -6.721150e-12
6.703200e-10 -1.200290e+03 -4.000000e+02
4.000000e+02 -1.200290e+03 -4.000000e+02
3.409460e-11 -8.002940e+02 -4.000000e+02
4.000000e+02 -8.002940e+02 -4.000000e+02
3.575940e-10 -1.200290e+03 4.816190e-10
4.000000e+02 -1.200290e+03 4.161970e-10
2.807040e-10 -8.002940e+02 -6.721150e-12
4.000000e+02 -8.002940e+02 2.489780e-10
-4.000000e+02 -8.002940e+02 -4.000000e+02
3.409460e-11 -8.002940e+02 -4.000000e+02
-4.000000e+02 -4.002950e+02 -4.000000e+02
-2.448900e-10 -4.002950e+02 -4.000000e+02
-4.000000e+02 -8.002940e+02 3.101040e-10
2.807040e-10 -8.002940e+02 -6.721150e-12
-4.000000e+02 -4.002950e+02 -4.818970e-10
-2.275480e-10 -4.002950e+02 5.495160e-11
3.409460e-11 -8.002940e+02 -4.000000e+02
4.000000e+02 -8.002940e+02 -4.000000e+02
-2.448900e-10 -4.002950e+02 -4.000000e+02
4.000000e+02 -4.002950e+02 -4.000000e+02
2.807040e-10 -8.002940e+02 -6.721150e-12
4.000000e+02 -8.002940e+02 2.489780e-10
-2.275480e-10 -4.002950e+02 5.495160e-11
4.000000e+02 -4.002950e+02 3.538900e-11
-4.000000e+02 -4.002950e+02 -4.000000e+02
-2.448900e-10 -4.002950e+02 -4.000000e+02
-4.000000e+02 -2.961330e-01 -4.000000e+02
-6.298680e-10 -2.961330e-01 -4.000000e+02
-4.000000e+02 -4.002950e+02 -4.818970e-10
-2.275480e-10 -4.002950e+02 5.495160e-11
-4.000000e+02 -2.961330e-01 -3.211640e-10
4.130110e-10 -2.961330e-01 -3.820780e-10
-2.448900e-10 -4.002950e+02 -4.000000e+02
4.000000e+02 -4.002950e+02 -4.000000e+02
-6.298680e-10 -2.961330e-01 -4.000000e+02
[...]
<PointData>
<DataArray type="Float32" Name="V1" format="ascii">
0.000000e+00
0.000000e+00
-6.441610e-10
3.386230e-10
0.000000e+00
0.000000e+00
-1.492570e-09
-2.617930e-10
0.000000e+00
0.000000e+00
3.386230e-10
1.194060e-09
0.000000e+00
0.000000e+00
-2.617930e-10
5.656050e-10
-6.441610e-10
3.386230e-10
-2.796600e-09
3.897390e-10
-1.492570e-09
-2.617930e-10
3.142250e-11
5.236110e-11
3.386230e-10
1.194060e-09
3.897390e-10
1.445440e-09
-2.617930e-10
5.656050e-10
5.236110e-11
-7.855630e-11
-2.796600e-09
3.897390e-10
1.256900e-09
-4.387220e-10
3.142250e-11
5.236110e-11
0.000000e+00
6.432790e-10
3.897390e-10
1.445440e-09
-4.387220e-10
-1.036940e-09
5.236110e-11
-7.855630e-11
6.432790e-10
9.898090e-10
1.256900e-09
-4.387220e-10
7.070060e-10
-1.116950e-10
0.000000e+00
6.432790e-10
-1.476860e-09
9.025450e-11
-4.387220e-10
-1.036940e-09
-1.116950e-10
-1.869640e-09
6.432790e-10
9.898090e-10
9.025450e-11
5.970280e-10
7.070060e-10
-1.116950e-10
1.853930e-09
-4.217590e-10
-1.476860e-09
9.025450e-11
-4.084930e-10
-1.788880e-10
-1.116950e-10
-1.869640e-09
-4.217590e-10
5.341830e-10
9.025450e-11
5.970280e-10
-1.788880e-10
3.927810e-10
1.853930e-09
-4.217590e-10
1.539700e-09
1.732710e-09
-4.084930e-10
-1.788880e-10
6.912950e-10
5.914810e-10
-4.217590e-10
5.341830e-10
1.732710e-09
1.099790e-10
-1.788880e-10
3.927810e-10
5.914810e-10
5.341830e-10
1.539700e-09
1.732710e-09
1.036940e-09
-1.036770e-09
6.912950e-10
5.914810e-10
0.000000e+00
-4.877690e-10
1.732710e-09
1.099790e-10
-1.036770e-09
6.441610e-10
5.914810e-10
5.341830e-10
-4.877690e-10
-1.853930e-09
1.036940e-09
-1.036770e-09
1.571130e-10
-6.702610e-10
0.000000e+00
-4.877690e-10
-4.713380e-11
-9.580220e-10
-1.036770e-09
6.441610e-10
-6.702610e-10
-1.869640e-09
-4.877690e-10
-1.853930e-09
-9.580220e-10
-6.284500e-11
1.571130e-10
-6.702610e-10
-3.770700e-10
-3.098680e-11
-4.713380e-11
-9.580220e-10
-4.242040e-10
-9.171450e-11
-6.702610e-10
-1.869640e-09
-3.098680e-11
9.898090e-10
-9.580220e-10
-6.284500e-11
-9.171450e-11
5.341830e-10
-3.770700e-10
-3.098680e-11
7.227180e-10
-5.663160e-10
-4.242040e-10
-9.171450e-11
7.855630e-11
6.615490e-10
-3.098680e-11
9.898090e-10
-5.663160e-10
-4.556260e-10
-9.171450e-11
5.341830e-10
6.615490e-10
-5.813160e-10
7.227180e-10
-5.663160e-10
5.970280e-10
-7.590820e-10
7.855630e-11
6.615490e-10
0.000000e+00
-8.187220e-10
-5.663160e-10
-4.556260e-10
-7.590820e-10
1.382590e-09
6.615490e-10
-5.813160e-10
-8.187220e-10
0.000000e+00
5.970280e-10
-7.590820e-10
-4.713380e-11
1.892350e-09
0.000000e+00
-8.187220e-10
0.000000e+00
2.101220e-10
-7.590820e-10
1.382590e-09
1.892350e-09
8.798300e-10
-8.187220e-10
0.000000e+00
2.101220e-10
-2.670910e-10
-4.713380e-11
1.892350e-09
2.356690e-10
-7.566010e-10
0.000000e+00
2.101220e-10
0.000000e+00
2.578890e-10
1.892350e-09
8.798300e-10
-7.566010e-10
0.000000e+00
2.101220e-10
-2.670910e-10
2.578890e-10
0.000000e+00
2.356690e-10
-7.566010e-10
-1.429720e-09
-1.454650e-09
0.000000e+00
2.578890e-10
0.000000e+00
-2.518190e-10
-7.566010e-10
0.000000e+00
-1.454650e-09
0.000000e+00
2.578890e-10
0.000000e+00
-2.518190e-10
0.000000e+00
-1.429720e-09
-1.454650e-09
9.740980e-10
-2.034420e-10
0.000000e+00
-2.518190e-10
0.000000e+00
-1.097890e-10
-1.454650e-09
0.000000e+00
-2.034420e-10
8.484080e-10
-2.518190e-10
0.000000e+00
-1.097890e-10
0.000000e+00
9.740980e-10
-2.034420e-10
0.000000e+00
2.478740e-10
0.000000e+00
-1.097890e-10
0.000000e+00
3.362810e-10
-2.034420e-10
8.484080e-10
2.478740e-10
0.000000e+00
-1.097890e-10
0.000000e+00
3.362810e-10
0.000000e+00
0.000000e+00
2.478740e-10
-8.641190e-10
-6.285780e-10
0.000000e+00
3.362810e-10
0.000000e+00
1.473380e-10
2.478740e-10
0.000000e+00
-6.285780e-10
0.000000e+00
3.362810e-10
0.000000e+00
1.473380e-10
0.000000e+00
-8.641190e-10
-6.285780e-10
0.000000e+00
4.303190e-10
0.000000e+00
1.473380e-10
0.000000e+00
4.442460e-10
-6.285780e-10
0.000000e+00
4.303190e-10
2.985140e-10
1.473380e-10
0.000000e+00
4.442460e-10
0.000000e+00
0.000000e+00
4.303190e-10
0.000000e+00
7.426070e-11
0.000000e+00
4.442460e-10
0.000000e+00
-1.240080e-11
4.303190e-10
2.985140e-10
7.426070e-11
0.000000e+00
4.442460e-10
0.000000e+00
-1.240080e-11
4.242040e-10
0.000000e+00
7.426070e-11
-1.256900e-10
-7.086180e-11
0.000000e+00
-1.240080e-11
0.000000e+00
1.212390e-10
7.426070e-11
0.000000e+00
-7.086180e-11
-3.770700e-10
-1.240080e-11
4.242040e-10
1.212390e-10
0.000000e+00
-1.256900e-10
-7.086180e-11
0.000000e+00
6.876610e-11
0.000000e+00
1.212390e-10
4.556260e-10
2.779670e-10
-7.086180e-11
-3.770700e-10
6.876610e-11
0.000000e+00
1.212390e-10
0.000000e+00
2.779670e-10
0.000000e+00
0.000000e+00
6.876610e-11
0.000000e+00
7.450060e-11
4.556260e-10
2.779670e-10
3.142250e-10
1.806670e-10
6.876610e-11
0.000000e+00
7.450060e-11
0.000000e+00
2.779670e-10
0.000000e+00
1.806670e-10
0.000000e+00
0.000000e+00
7.450060e-11
0.000000e+00
-2.187580e-12
3.142250e-10
1.806670e-10
0.000000e+00
2.062200e-12
7.450060e-11
0.000000e+00
-2.187580e-12
0.000000e+00
1.806670e-10
0.000000e+00
2.062200e-12
0.000000e+00
0.000000e+00
-2.187580e-12
6.284500e-11
-1.514870e-13
0.000000e+00
2.062200e-12
-3.142250e-11
1.608150e-11
-2.187580e-12
0.000000e+00
-1.514870e-13
0.000000e+00
2.062200e-12
0.000000e+00
1.608150e-11
0.000000e+00
6.284500e-11
-1.514870e-13
0.000000e+00
4.091260e-11
-3.142250e-11
1.608150e-11
0.000000e+00
8.824700e-11
-1.514870e-13
0.000000e+00
4.091260e-11
0.000000e+00
1.608150e-11
0.000000e+00
8.824700e-11
0.000000e+00
0.000000e+00
4.091260e-11
0.000000e+00
-2.994920e-11
0.000000e+00
8.824700e-11
1.728240e-10
2.146560e-11
4.091260e-11
0.000000e+00
-2.994920e-11
0.000000e+00
8.824700e-11
0.000000e+00
2.146560e-11
0.000000e+00
0.000000e+00
-2.994920e-11
-1.571130e-11
-1.691190e-10
1.728240e-10
2.146560e-11
0.000000e+00
-1.666400e-10
-2.994920e-11
0.000000e+00
-1.691190e-10
-3.613590e-10
2.146560e-11
0.000000e+00
-1.666400e-10
-3.456480e-10
-1.571130e-11
-1.691190e-10
7.855630e-11
-8.472770e-11
0.000000e+00
-1.666400e-10
0.000000e+00
-1.003360e-10
-1.691190e-10
-3.613590e-10
-8.472770e-11
-2.356690e-10
-1.666400e-10
-3.456480e-10
-1.003360e-10
-1.571130e-10
7.855630e-11
-8.472770e-11
1.728240e-10
1.889910e-10
0.000000e+00
-1.003360e-10
1.728240e-10
2.021280e-10
-8.472770e-11
-2.356690e-10
1.889910e-10
2.356690e-10
-1.003360e-10
-1.571130e-10
2.021280e-10
2.513800e-10
1.728240e-10
1.889910e-10
2.670910e-10
2.796500e-10
1.728240e-10
2.021280e-10
3.613590e-10
3.036450e-10
1.889910e-10
2.356690e-10
2.796500e-10
2.985140e-10
2.021280e-10
2.513800e-10
3.036450e-10
2.513800e-10
0.000000e+00
0.000000e+00
-1.492570e-09
-2.617930e-10
0.000000e+00
0.000000e+00
3.456480e-10
-2.492680e-10
0.000000e+00
0.000000e+00
-2.617930e-10
5.656050e-10
0.000000e+00
0.000000e+00
-2.492680e-10
1.052650e-09
-1.492570e-09
-2.617930e-10
3.142250e-11
5.236110e-11
3.456480e-10
-2.492680e-10
-9.583870e-10
1.696000e-09
-2.617930e-10
5.656050e-10
5.236110e-11
-7.855630e-11
-2.492680e-10
1.052650e-09
1.696000e-09
1.335460e-09
3.142250e-11
5.236110e-11
0.000000e+00
6.432790e-10
-9.583870e-10
1.696000e-09
-7.070060e-10
-2.112340e-09
5.236110e-11
-7.855630e-11
6.432790e-10
9.898090e-10
1.696000e-09
1.335460e-09
-2.112340e-09
-5.184710e-10
0.000000e+00
6.432790e-10
-1.476860e-09
9.025450e-11
-7.070060e-10
-2.112340e-09
1.728240e-10
-3.814850e-10
6.432790e-10
9.898090e-10
9.025450e-11
5.970280e-10
-2.112340e-09
-5.184710e-10
-3.814850e-10
-1.633970e-09
-1.476860e-09
9.025450e-11
-4.084930e-10
-1.788880e-10
1.728240e-10
-3.814850e-10
5.341830e-10
-4.243420e-10
9.025450e-11
5.970280e-10
-1.788880e-10
3.927810e-10
-3.814850e-10
-1.633970e-09
-4.243420e-10
0.000000e+00
-4.084930e-10
-1.788880e-10
6.912950e-10
5.914810e-10
5.341830e-10
-4.243420e-10
1.429720e-09
7.748820e-10
-1.788880e-10
3.927810e-10
5.914810e-10
5.341830e-10
-4.243420e-10
0.000000e+00
7.748820e-10
-5.813160e-10
6.912950e-10
5.914810e-10
0.000000e+00
-4.877690e-10
1.429720e-09
7.748820e-10
0.000000e+00
1.405340e-10
5.914810e-10
5.341830e-10
-4.877690e-10
-1.853930e-09
7.748820e-10
-5.813160e-10
1.405340e-10
8.641190e-10
0.000000e+00
-4.877690e-10
-4.713380e-11
-9.580220e-10
0.000000e+00
1.405340e-10
-1.775370e-09
-6.846820e-10
-4.877690e-10
-1.853930e-09
-9.580220e-10
-6.284500e-11
1.405340e-10
8.641190e-10
-6.846820e-10
1.586840e-09
-4.713380e-11
-9.580220e-10
-4.242040e-10
-9.171450e-11
-1.775370e-09
-6.846820e-10
-4.713380e-11
-5.843280e-10
-9.580220e-10
-6.284500e-11
-9.171450e-11
5.341830e-10
-6.846820e-10
1.586840e-09
-5.843280e-10
8.012740e-10
-4.242040e-10
-9.171450e-11
7.855630e-11
6.615490e-10
-4.713380e-11
-5.843280e-10
1.445440e-09
2.070820e-10
-9.171450e-11
5.341830e-10
6.615490e-10
-5.813160e-10
-5.843280e-10
8.012740e-10
2.070820e-10
5.970280e-10
7.855630e-11
6.615490e-10
0.000000e+00
-8.187220e-10
1.445440e-09
2.070820e-10
0.000000e+00
2.826650e-10
6.615490e-10
-5.813160e-10
-8.187220e-10
0.000000e+00
2.070820e-10
5.970280e-10
2.826650e-10
0.000000e+00
0.000000e+00
-8.187220e-10
0.000000e+00
2.101220e-10
0.000000e+00
2.826650e-10
-7.227180e-10
5.753450e-10
-8.187220e-10
0.000000e+00
2.101220e-10
-2.670910e-10
2.826650e-10
0.000000e+00
5.753450e-10
-1.571130e-10
0.000000e+00
2.101220e-10
0.000000e+00
2.578890e-10
-7.227180e-10
5.753450e-10
9.740980e-10
-6.263140e-10
2.101220e-10
-2.670910e-10
2.578890e-10
0.000000e+00
5.753450e-10
-1.571130e-10
-6.263140e-10
0.000000e+00
0.000000e+00
2.578890e-10
0.000000e+00
-2.518190e-10
9.740980e-10
-6.263140e-10
0.000000e+00
-9.442660e-10
2.578890e-10
0.000000e+00
-2.518190e-10
0.000000e+00
-6.263140e-10
0.000000e+00
-9.442660e-10
-3.142250e-11
0.000000e+00
-2.518190e-10
0.000000e+00
-1.097890e-10
0.000000e+00
-9.442660e-10
0.000000e+00
3.623280e-10
-2.518190e-10
0.000000e+00
-1.097890e-10
0.000000e+00
-9.442660e-10
-3.142250e-11
3.623280e-10
6.441610e-10
0.000000e+00
-1.097890e-10
0.000000e+00
3.362810e-10
0.000000e+00
3.623280e-10
3.613590e-10
2.276230e-10
-1.097890e-10
0.000000e+00
3.362810e-10
0.000000e+00
3.623280e-10
6.441610e-10
2.276230e-10
0.000000e+00
0.000000e+00
3.362810e-10
0.000000e+00
1.473380e-10
3.613590e-10
2.276230e-10
-7.227180e-10
-4.618560e-10
3.362810e-10
0.000000e+00
1.473380e-10
0.000000e+00
2.276230e-10
0.000000e+00
-4.618560e-10
0.000000e+00
0.000000e+00
1.473380e-10
0.000000e+00
4.442460e-10
-7.227180e-10
-4.618560e-10
0.000000e+00
3.111180e-10
1.473380e-10
0.000000e+00
4.442460e-10
0.000000e+00
-4.618560e-10
0.000000e+00
3.111180e-10
0.000000e+00
0.000000e+00
4.442460e-10
0.000000e+00
-1.240080e-11
0.000000e+00
3.111180e-10
0.000000e+00
-4.913180e-11
4.442460e-10
0.000000e+00
-1.240080e-11
4.242040e-10
3.111180e-10
0.000000e+00
-4.913180e-11
0.000000e+00
0.000000e+00
-1.240080e-11
0.000000e+00
1.212390e-10
0.000000e+00
-4.913180e-11
0.000000e+00
-1.238440e-11
-1.240080e-11
4.242040e-10
1.212390e-10
0.000000e+00
-4.913180e-11
0.000000e+00
-1.238440e-11
0.000000e+00
0.000000e+00
1.212390e-10
4.556260e-10
2.779670e-10
0.000000e+00
-1.238440e-11
0.000000e+00
2.239130e-10
1.212390e-10
0.000000e+00
2.779670e-10
0.000000e+00
-1.238440e-11
0.000000e+00
2.239130e-10
0.000000e+00
4.556260e-10
2.779670e-10
3.142250e-10
1.806670e-10
0.000000e+00
2.239130e-10
0.000000e+00
1.704990e-11
2.779670e-10
0.000000e+00
1.806670e-10
0.000000e+00
2.239130e-10
0.000000e+00
1.704990e-11
0.000000e+00
3.142250e-10
1.806670e-10
0.000000e+00
2.062200e-12
0.000000e+00
1.704990e-11
0.000000e+00
-2.040700e-10
1.806670e-10
0.000000e+00
2.062200e-12
0.000000e+00
1.704990e-11
0.000000e+00
-2.040700e-10
-3.770700e-10
0.000000e+00
2.062200e-12
-3.142250e-11
1.608150e-11
0.000000e+00
-2.040700e-10
0.000000e+00
6.016220e-11
2.062200e-12
0.000000e+00
1.608150e-11
0.000000e+00
-2.040700e-10
-3.770700e-10
6.016220e-11
0.000000e+00
-3.142250e-11
1.608150e-11
0.000000e+00
8.824700e-11
0.000000e+00
6.016220e-11
0.000000e+00
1.426200e-10
1.608150e-11
0.000000e+00
8.824700e-11
0.000000e+00
6.016220e-11
0.000000e+00
1.426200e-10
0.000000e+00
0.000000e+00
8.824700e-11
1.728240e-10
2.146560e-11
0.000000e+00
1.426200e-10
2.199580e-10
5.413120e-11
8.824700e-11
0.000000e+00
2.146560e-11
0.000000e+00
1.426200e-10
0.000000e+00
5.413120e-11
0.000000e+00
1.728240e-10
2.146560e-11
0.000000e+00
-1.666400e-10
2.199580e-10
5.413120e-11
0.000000e+00
-1.166180e-10
2.146560e-11
0.000000e+00
-1.666400e-10
-3.456480e-10
5.413120e-11
0.000000e+00
-1.166180e-10
-1.885350e-10
0.000000e+00
-1.666400e-10
0.000000e+00
-1.003360e-10
0.000000e+00
-1.166180e-10
0.000000e+00
-8.306210e-11
-1.666400e-10
-3.456480e-10
-1.003360e-10
-1.571130e-10
-1.166180e-10
-1.885350e-10
-8.306210e-11
-1.414010e-10
0.000000e+00
-1.003360e-10
1.728240e-10
2.021280e-10
0.000000e+00
-8.306210e-11
2.513800e-10
2.067310e-10
-1.003360e-10
-1.571130e-10
2.021280e-10
2.513800e-10
-8.306210e-11
-1.414010e-10
2.067310e-10
1.885350e-10
1.728240e-10
2.021280e-10
3.613590e-10
3.036450e-10
2.513800e-10
2.067310e-10
3.456480e-10
3.049380e-10
2.021280e-10
2.513800e-10
3.036450e-10
2.513800e-10
2.067310e-10
1.885350e-10
3.049380e-10
2.985140e-10
</DataArray>
<DataArray type="Float32" Name="V2" format="ascii">
0.000000e+00
0.000000e+00
3.983510e-02
3.983510e-02
0.000000e+00
0.000000e+00
3.983510e-02
3.983510e-02
0.000000e+00
0.000000e+00
3.983510e-02
3.983510e-02
0.000000e+00
0.000000e+00
3.983510e-02
3.983510e-02
3.983510e-02
3.983510e-02
5.981140e-03
5.981140e-03
3.983510e-02
3.983510e-02
5.981140e-03
5.981140e-03
3.983510e-02
3.983510e-02
5.981140e-03
5.981140e-03
3.983510e-02
3.983510e-02
5.981140e-03
5.981140e-03
5.981140e-03
5.981140e-03
-3.772310e-02
-3.772310e-02
5.981140e-03
5.981140e-03
-3.772310e-02
-3.772310e-02
5.981140e-03
5.981140e-03
-3.772310e-02
-3.772310e-02
5.981140e-03
5.981140e-03
-3.772310e-02
-3.772310e-02
-3.772310e-02
-3.772310e-02
-5.243260e-02
-5.243260e-02
-3.772310e-02
-3.772310e-02
-5.243260e-02
-5.243260e-02
-3.772310e-02
-3.772310e-02
-5.243260e-02
-5.243260e-02
-3.772310e-02
-3.772310e-02
-5.243260e-02
-5.243260e-02
-5.243260e-02
-5.243260e-02
-5.477760e-02
-5.477760e-02
-5.243260e-02
-5.243260e-02
-5.477760e-02
-5.477760e-02
-5.243260e-02
-5.243260e-02
-5.477760e-02
-5.477760e-02
-5.243260e-02
-5.243260e-02
-5.477760e-02
-5.477760e-02
-5.477760e-02
-5.477760e-02
-3.968800e-02
-3.968810e-02
-5.477760e-02
-5.477760e-02
-3.968800e-02
-3.968810e-02
-5.477760e-02
-5.477760e-02
-3.968810e-02
-3.968810e-02
-5.477760e-02
-5.477760e-02
-3.968810e-02
-3.968800e-02
-3.968800e-02
-3.968810e-02
-2.282510e-02
-2.282510e-02
-3.968800e-02
-3.968810e-02
-2.282510e-02
-2.282510e-02
-3.968810e-02
-3.968810e-02
-2.282510e-02
-2.282510e-02
-3.968810e-02
-3.968800e-02
-2.282510e-02
-2.282510e-02
-2.282510e-02
-2.282510e-02
-1.245280e-02
-1.245280e-02
-2.282510e-02
-2.282510e-02
-1.245280e-02
-1.245280e-02
-2.282510e-02
-2.282510e-02
-1.245280e-02
-1.245280e-02
-2.282510e-02
-2.282510e-02
-1.245280e-02
-1.245280e-02
-1.245280e-02
-1.245280e-02
-5.220750e-03
-5.220750e-03
-1.245280e-02
-1.245280e-02
-5.220750e-03
-5.220750e-03
-1.245280e-02
-1.245280e-02
-5.220750e-03
-5.220750e-03
-1.245280e-02
-1.245280e-02
-5.220750e-03
-5.220750e-03
-5.220750e-03
-5.220750e-03
-3.551750e-03
-3.551740e-03
-5.220750e-03
-5.220750e-03
-3.551740e-03
-3.551740e-03
-5.220750e-03
-5.220750e-03
-3.551740e-03
-3.551740e-03
-5.220750e-03
-5.220750e-03
-3.551740e-03
-3.551740e-03
-3.551750e-03
-3.551740e-03
-1.413830e-03
-1.413830e-03
-3.551740e-03
-3.551740e-03
-1.413830e-03
-1.413830e-03
-3.551740e-03
-3.551740e-03
-1.413830e-03
-1.413830e-03
-3.551740e-03
-3.551740e-03
-1.413830e-03
-1.413830e-03
-1.413830e-03
-1.413830e-03
-1.484070e-03
-1.484070e-03
-1.413830e-03
-1.413830e-03
-1.484070e-03
-1.484070e-03
-1.413830e-03
-1.413830e-03
-1.484070e-03
-1.484070e-03
-1.413830e-03
-1.413830e-03
-1.484070e-03
-1.484070e-03
-1.484070e-03
-1.484070e-03
-8.002910e-04
-8.002940e-04
-1.484070e-03
-1.484070e-03
-8.002900e-04
-8.002940e-04
-1.484070e-03
-1.484070e-03
-8.002940e-04
-8.002960e-04
-1.484070e-03
-1.484070e-03
-8.002940e-04
-8.002930e-04
-8.002910e-04
-8.002940e-04
-4.764580e-04
-4.764560e-04
-8.002900e-04
-8.002940e-04
-4.764560e-04
-4.764550e-04
-8.002940e-04
-8.002960e-04
-4.764560e-04
-4.764560e-04
-8.002940e-04
-8.002930e-04
-4.764550e-04
-4.764560e-04
-4.764580e-04
-4.764560e-04
-8.000830e-04
-8.000790e-04
-4.764560e-04
-4.764550e-04
-8.000810e-04
-8.000810e-04
-4.764560e-04
-4.764560e-04
-8.000790e-04
-8.000810e-04
-4.764550e-04
-4.764560e-04
-8.000810e-04
-8.000810e-04
-8.000830e-04
-8.000790e-04
-1.728620e-04
-1.728640e-04
-8.000810e-04
-8.000810e-04
-1.728640e-04
-1.728630e-04
-8.000790e-04
-8.000810e-04
-1.728640e-04
-1.728630e-04
-8.000810e-04
-8.000810e-04
-1.728630e-04
-1.728650e-04
-1.728620e-04
-1.728640e-04
1.792600e-04
1.792590e-04
-1.728640e-04
-1.728630e-04
1.792600e-04
1.792610e-04
-1.728640e-04
-1.728630e-04
1.792590e-04
1.792590e-04
-1.728630e-04
-1.728650e-04
1.792610e-04
1.792600e-04
1.792600e-04
1.792590e-04
-5.127800e-05
-5.127650e-05
1.792600e-04
1.792610e-04
-5.127850e-05
-5.127880e-05
1.792590e-04
1.792590e-04
-5.127650e-05
-5.127970e-05
1.792610e-04
1.792600e-04
-5.127880e-05
-5.127800e-05
-5.127800e-05
-5.127650e-05
-1.167980e-04
-1.167970e-04
-5.127850e-05
-5.127880e-05
-1.167980e-04
-1.167990e-04
-5.127650e-05
-5.127970e-05
-1.167970e-04
-1.167950e-04
-5.127880e-05
-5.127800e-05
-1.167990e-04
-1.167980e-04
-1.167980e-04
-1.167970e-04
4.149270e-05
4.149170e-05
-1.167980e-04
-1.167990e-04
4.149040e-05
4.148930e-05
-1.167970e-04
-1.167950e-04
4.149170e-05
4.149220e-05
-1.167990e-04
-1.167980e-04
4.148930e-05
4.149020e-05
4.149270e-05
4.149170e-05
-2.490410e-04
-2.490440e-04
4.149040e-05
4.148930e-05
-2.490440e-04
-2.490400e-04
4.149170e-05
4.149220e-05
-2.490440e-04
-2.490390e-04
4.148930e-05
4.149020e-05
-2.490400e-04
-2.490410e-04
-2.490410e-04
-2.490440e-04
-4.161220e-04
-4.161180e-04
-2.490440e-04
-2.490400e-04
-4.161180e-04
-4.161230e-04
-2.490440e-04
-2.490390e-04
-4.161180e-04
-4.161240e-04
-2.490400e-04
-2.490410e-04
-4.161230e-04
-4.161230e-04
-4.161220e-04
-4.161180e-04
-1.804450e-04
-1.804440e-04
-4.161180e-04
-4.161230e-04
-1.804440e-04
-1.804410e-04
-4.161180e-04
-4.161240e-04
-1.804440e-04
-1.804410e-04
-4.161230e-04
-4.161230e-04
-1.804410e-04
-1.804400e-04
-1.804450e-04
-1.804440e-04
8.457180e-05
8.457210e-05
-1.804440e-04
-1.804410e-04
8.457210e-05
8.457150e-05
-1.804440e-04
-1.804410e-04
8.457210e-05
8.457290e-05
-1.804410e-04
-1.804400e-04
8.457150e-05
8.457230e-05
8.457180e-05
8.457210e-05
-4.800760e-04
-4.800750e-04
8.457210e-05
8.457150e-05
-4.800740e-04
-4.800760e-04
8.457210e-05
8.457290e-05
-4.800750e-04
-4.800750e-04
8.457150e-05
8.457230e-05
-4.800760e-04
-4.800800e-04
-4.800760e-04
-4.800750e-04
-5.690960e-04
-5.690960e-04
-4.800740e-04
-4.800760e-04
-5.690960e-04
-5.690940e-04
-4.800750e-04
-4.800750e-04
-5.690960e-04
-5.690960e-04
-4.800760e-04
-4.800800e-04
-5.690940e-04
-5.690890e-04
-5.690960e-04
-5.690960e-04
-6.997370e-04
-6.997370e-04
-5.690960e-04
-5.690940e-04
-6.997370e-04
-6.997400e-04
-5.690960e-04
-5.690960e-04
-6.997370e-04
-6.997390e-04
-5.690940e-04
-5.690890e-04
-6.997400e-04
-6.997450e-04
-6.997370e-04
-6.997370e-04
-8.201850e-04
-8.201880e-04
-6.997370e-04
-6.997400e-04
-8.201870e-04
-8.201820e-04
-6.997370e-04
-6.997390e-04
-8.201880e-04
-8.201830e-04
-6.997400e-04
-6.997450e-04
-8.201820e-04
-8.201780e-04
-8.201850e-04
-8.201880e-04
1.603520e-04
1.603520e-04
-8.201870e-04
-8.201820e-04
1.603520e-04
1.603500e-04
-8.201880e-04
-8.201830e-04
1.603520e-04
1.603500e-04
-8.201820e-04
-8.201780e-04
1.603500e-04
1.603490e-04
1.603520e-04
1.603520e-04
-1.019950e-03
-1.019960e-03
1.603520e-04
1.603500e-04
-1.019960e-03
-1.019960e-03
1.603520e-04
1.603500e-04
-1.019960e-03
-1.019960e-03
1.603500e-04
1.603490e-04
-1.019960e-03
-1.019960e-03
0.000000e+00
0.000000e+00
3.983510e-02
3.983510e-02
0.000000e+00
0.000000e+00
3.983510e-02
3.983510e-02
0.000000e+00
0.000000e+00
3.983510e-02
3.983510e-02
0.000000e+00
0.000000e+00
3.983510e-02
3.983510e-02
3.983510e-02
3.983510e-02
5.981140e-03
5.981140e-03
3.983510e-02
3.983510e-02
5.981140e-03
5.981140e-03
3.983510e-02
3.983510e-02
5.981140e-03
5.981140e-03
3.983510e-02
3.983510e-02
5.981140e-03
5.981140e-03
5.981140e-03
5.981140e-03