<?xml version="1.0"?>
<VTKFile type="UnstructuredGrid" version="0.1" byte_order="LittleEndian" compressor="vtkZLibDataCompressor">
<UnstructuredGrid>
<Piece NumberOfPoints="960" NumberOfCells="120">
<Points>
<DataArray type="Float32" NumberOfComponents="3" format="ascii">
-4.000000e+02 -6.000000e+03 -4.000000e+02
0.000000e+00 -6.000000e+03 -4.000000e+02
-4.000000e+02 -5.600000e+03 -4.000000e+02
4.975690e-10 -5.600000e+03 -4.000000e+02
-4.000000e+02 -6.000000e+03 0.000000e+00
0.000000e+00 -6.000000e+03 0.000000e+00
-4.000000e+02 -5.600000e+03 -3.160610e-10
-6.132380e-10 -5.600000e+03 -6.295160e-10
0.000000e+00 -6.000000e+03 -4.000000e+02
4.000000e+02 -6.000000e+03 -4.000000e+02
4.975690e-10 -5.600000e+03 -4.000000e+02
4.000000e+02 -5.600000e+03 -4.000000e+02
0.000000e+00 -6.000000e+03 0.000000e+00
4.000000e+02 -6.000000e+03 0.000000e+00
-6.132380e-10 -5.600000e+03 -6.295160e-10
4.000000e+02 -5.600000e+03 8.268990e-10
-4.000000e+02 -5.600000e+03 -4.000000e+02
4.975690e-10 -5.600000e+03 -4.000000e+02
-4.000000e+02 -5.200000e+03 -4.000000e+02
1.948920e-09 -5.200000e+03 -4.000000e+02
-4.000000e+02 -5.600000e+03 -3.160610e-10
-6.132380e-10 -5.600000e+03 -6.295160e-10
-4.000000e+02 -5.200000e+03 1.337450e-09
1.521840e-09 -5.200000e+03 1.421360e-09
4.975690e-10 -5.600000e+03 -4.000000e+02
4.000000e+02 -5.600000e+03 -4.000000e+02
1.948920e-09 -5.200000e+03 -4.000000e+02
4.000000e+02 -5.200000e+03 -4.000000e+02
-6.132380e-10 -5.600000e+03 -6.295160e-10
4.000000e+02 -5.600000e+03 8.268990e-10
1.521840e-09 -5.200000e+03 1.421360e-09
4.000000e+02 -5.200000e+03 2.611880e-09
-4.000000e+02 -5.200000e+03 -4.000000e+02
1.948920e-09 -5.200000e+03 -4.000000e+02
-4.000000e+02 -4.800000e+03 -4.000000e+02
-5.639310e-10 -4.800000e+03 -4.000000e+02
-4.000000e+02 -5.200000e+03 1.337450e-09
1.521840e-09 -5.200000e+03 1.421360e-09
-4.000000e+02 -4.800000e+03 -4.773220e-10
2.725670e-10 -4.800000e+03 -1.171390e-09
1.948920e-09 -5.200000e+03 -4.000000e+02
4.000000e+02 -5.200000e+03 -4.000000e+02
-5.639310e-10 -4.800000e+03 -4.000000e+02
4.000000e+02 -4.800000e+03 -4.000000e+02
1.521840e-09 -5.200000e+03 1.421360e-09
4.000000e+02 -5.200000e+03 2.611880e-09
2.725670e-10 -4.800000e+03 -1.171390e-09
4.000000e+02 -4.800000e+03 -7.052400e-10
-4.000000e+02 -4.800000e+03 -4.000000e+02
-5.639310e-10 -4.800000e+03 -4.000000e+02
-4.000000e+02 -4.400000e+03 -4.000000e+02
2.331830e-09 -4.400000e+03 -4.000000e+02
-4.000000e+02 -4.800000e+03 -4.773220e-10
2.725670e-10 -4.800000e+03 -1.171390e-09
-4.000000e+02 -4.400000e+03 3.610810e-09
4.171760e-09 -4.400000e+03 3.565400e-09
-5.639310e-10 -4.800000e+03 -4.000000e+02
4.000000e+02 -4.800000e+03 -4.000000e+02
2.331830e-09 -4.400000e+03 -4.000000e+02
4.000000e+02 -4.400000e+03 -4.000000e+02
2.725670e-10 -4.800000e+03 -1.171390e-09
4.000000e+02 -4.800000e+03 -7.052400e-10
4.171760e-09 -4.400000e+03 3.565400e-09
4.000000e+02 -4.400000e+03 2.778940e-09
-4.000000e+02 -4.400000e+03 -4.000000e+02
2.331830e-09 -4.400000e+03 -4.000000e+02
-4.000000e+02 -4.000000e+03 -4.000000e+02
3.636210e-09 -4.000000e+03 -4.000000e+02
-4.000000e+02 -4.400000e+03 3.610810e-09
4.171760e-09 -4.400000e+03 3.565400e-09
-4.000000e+02 -4.000000e+03 3.216170e-09
4.264390e-09 -4.000000e+03 1.723360e-09
2.331830e-09 -4.400000e+03 -4.000000e+02
4.000000e+02 -4.400000e+03 -4.000000e+02
3.636210e-09 -4.000000e+03 -4.000000e+02
4.000000e+02 -4.000000e+03 -4.000000e+02
4.171760e-09 -4.400000e+03 3.565400e-09
4.000000e+02 -4.400000e+03 2.778940e-09
4.264390e-09 -4.000000e+03 1.723360e-09
4.000000e+02 -4.000000e+03 1.222840e-09
-4.000000e+02 -4.000000e+03 -4.000000e+02
3.636210e-09 -4.000000e+03 -4.000000e+02
-4.000000e+02 -3.600000e+03 -4.000000e+02
-4.176910e-09 -3.600000e+03 -4.000000e+02
-4.000000e+02 -4.000000e+03 3.216170e-09
4.264390e-09 -4.000000e+03 1.723360e-09
-4.000000e+02 -3.600000e+03 -1.980250e-09
-2.377070e-09 -3.600000e+03 -1.139530e-09
3.636210e-09 -4.000000e+03 -4.000000e+02
4.000000e+02 -4.000000e+03 -4.000000e+02
-4.176910e-09 -3.600000e+03 -4.000000e+02
4.000000e+02 -3.600000e+03 -4.000000e+02
4.264390e-09 -4.000000e+03 1.723360e-09
4.000000e+02 -4.000000e+03 1.222840e-09
-2.377070e-09 -3.600000e+03 -1.139530e-09
4.000000e+02 -3.600000e+03 -6.517370e-10
-4.000000e+02 -3.600000e+03 -4.000000e+02
-4.176910e-09 -3.600000e+03 -4.000000e+02
-4.000000e+02 -3.200000e+03 -4.000000e+02
3.838520e-09 -3.200000e+03 -4.000000e+02
-4.000000e+02 -3.600000e+03 -1.980250e-09
-2.377070e-09 -3.600000e+03 -1.139530e-09
-4.000000e+02 -3.200000e+03 5.997050e-09
4.670400e-09 -3.200000e+03 7.596930e-09
-4.176910e-09 -3.600000e+03 -4.000000e+02
4.000000e+02 -3.600000e+03 -4.000000e+02
3.838520e-09 -3.200000e+03 -4.000000e+02
4.000000e+02 -3.200000e+03 -4.000000e+02
-2.377070e-09 -3.600000e+03 -1.139530e-09
4.000000e+02 -3.600000e+03 -6.517370e-10
4.670400e-09 -3.200000e+03 7.596930e-09
4.000000e+02 -3.200000e+03 4.706190e-09
-4.000000e+02 -3.200000e+03 -4.000000e+02
3.838520e-09 -3.200000e+03 -4.000000e+02
-4.000000e+02 -2.800010e+03 -4.000000e+02
3.490540e-09 -2.800010e+03 -4.000000e+02
-4.000000e+02 -3.200000e+03 5.997050e-09
4.670400e-09 -3.200000e+03 7.596930e-09
-4.000000e+02 -2.800010e+03 5.887110e-09
-2.579940e-09 -2.800010e+03 1.260230e-09
3.838520e-09 -3.200000e+03 -4.000000e+02
4.000000e+02 -3.200000e+03 -4.000000e+02
3.490540e-09 -2.800010e+03 -4.000000e+02
4.000000e+02 -2.800010e+03 -4.000000e+02
4.670400e-09 -3.200000e+03 7.596930e-09
4.000000e+02 -3.200000e+03 4.706190e-09
-2.579940e-09 -2.800010e+03 1.260230e-09
4.000000e+02 -2.800010e+03 3.569340e-09
-4.000000e+02 -2.800010e+03 -4.000000e+02
3.490540e-09 -2.800010e+03 -4.000000e+02
-4.000000e+02 -2.400010e+03 -4.000000e+02
-1.322140e-08 -2.400010e+03 -4.000000e+02
-4.000000e+02 -2.800010e+03 5.887110e-09
-2.579940e-09 -2.800010e+03 1.260230e-09
-4.000000e+02 -2.400010e+03 -4.400690e-09
-5.580990e-10 -2.400010e+03 7.073450e-09
3.490540e-09 -2.800010e+03 -4.000000e+02
4.000000e+02 -2.800010e+03 -4.000000e+02
-1.322140e-08 -2.400010e+03 -4.000000e+02
4.000000e+02 -2.400010e+03 -4.000000e+02
-2.579940e-09 -2.800010e+03 1.260230e-09
4.000000e+02 -2.800010e+03 3.569340e-09
-5.580990e-10 -2.400010e+03 7.073450e-09
4.000000e+02 -2.400010e+03 8.350540e-09
-4.000000e+02 -2.400010e+03 -4.000000e+02
-1.322140e-08 -2.400010e+03 -4.000000e+02
-4.000000e+02 -2.000010e+03 -4.000000e+02
6.688930e-09 -2.000010e+03 -4.000000e+02
-4.000000e+02 -2.400010e+03 -4.400690e-09
-5.580990e-10 -2.400010e+03 7.073450e-09
-4.000000e+02 -2.000010e+03 -2.675090e-09
-4.383030e-09 -2.000010e+03 -1.139890e-08
-1.322140e-08 -2.400010e+03 -4.000000e+02
4.000000e+02 -2.400010e+03 -4.000000e+02
6.688930e-09 -2.000010e+03 -4.000000e+02
4.000000e+02 -2.000010e+03 -4.000000e+02
-5.580990e-10 -2.400010e+03 7.073450e-09
4.000000e+02 -2.400010e+03 8.350540e-09
-4.383030e-09 -2.000010e+03 -1.139890e-08
4.000000e+02 -2.000010e+03 -1.271870e-08
-4.000000e+02 -2.000010e+03 -4.000000e+02
6.688930e-09 -2.000010e+03 -4.000000e+02
-4.000000e+02 -1.600010e+03 -4.000000e+02
1.645740e-08 -1.600010e+03 -4.000000e+02
-4.000000e+02 -2.000010e+03 -2.675090e-09
-4.383030e-09 -2.000010e+03 -1.139890e-08
-4.000000e+02 -1.600010e+03 1.602480e-08
1.047600e-08 -1.600010e+03 5.414970e-09
6.688930e-09 -2.000010e+03 -4.000000e+02
4.000000e+02 -2.000010e+03 -4.000000e+02
1.645740e-08 -1.600010e+03 -4.000000e+02
4.000000e+02 -1.600010e+03 -4.000000e+02
-4.383030e-09 -2.000010e+03 -1.139890e-08
4.000000e+02 -2.000010e+03 -1.271870e-08
1.047600e-08 -1.600010e+03 5.414970e-09
4.000000e+02 -1.600010e+03 2.965750e-09
-4.000000e+02 -1.600010e+03 -4.000000e+02
1.645740e-08 -1.600010e+03 -4.000000e+02
-4.000000e+02 -1.200010e+03 -4.000000e+02
-8.938140e-09 -1.200010e+03 -4.000000e+02
-4.000000e+02 -1.600010e+03 1.602480e-08
1.047600e-08 -1.600010e+03 5.414970e-09
-4.000000e+02 -1.200010e+03 1.583430e-08
1.379490e-08 -1.200010e+03 4.177180e-08
1.645740e-08 -1.600010e+03 -4.000000e+02
4.000000e+02 -1.600010e+03 -4.000000e+02
-8.938140e-09 -1.200010e+03 -4.000000e+02
4.000000e+02 -1.200010e+03 -4.000000e+02
1.047600e-08 -1.600010e+03 5.414970e-09
4.000000e+02 -1.600010e+03 2.965750e-09
1.379490e-08 -1.200010e+03 4.177180e-08
4.000000e+02 -1.200010e+03 3.856130e-08
-4.000000e+02 -1.200010e+03 -4.000000e+02
-8.938140e-09 -1.200010e+03 -4.000000e+02
-4.000000e+02 -8.000230e+02 -4.000000e+02
-2.040450e-08 -8.000230e+02 -4.000000e+02
-4.000000e+02 -1.200010e+03 1.583430e-08
1.379490e-08 -1.200010e+03 4.177180e-08
-4.000000e+02 -8.000230e+02 -2.982460e-08
-2.705670e-08 -8.000230e+02 -3.940180e-08
-8.938140e-09 -1.200010e+03 -4.000000e+02
4.000000e+02 -1.200010e+03 -4.000000e+02
-2.040450e-08 -8.000230e+02 -4.000000e+02
4.000000e+02 -8.000230e+02 -4.000000e+02
1.379490e-08 -1.200010e+03 4.177180e-08
4.000000e+02 -1.200010e+03 3.856130e-08
-2.705670e-08 -8.000230e+02 -3.940180e-08
4.000000e+02 -8.000230e+02 -2.104080e-08
-4.000000e+02 -8.000230e+02 -4.000000e+02
-2.040450e-08 -8.000230e+02 -4.000000e+02
-4.000000e+02 -4.000330e+02 -4.000000e+02
-5.680690e-10 -4.000330e+02 -4.000000e+02
-4.000000e+02 -8.000230e+02 -2.982460e-08
-2.705670e-08 -8.000230e+02 -3.940180e-08
-4.000000e+02 -4.000330e+02 -2.871280e-09
7.178810e-09 -4.000330e+02 -1.390430e-09
-2.040450e-08 -8.000230e+02 -4.000000e+02
4.000000e+02 -8.000230e+02 -4.000000e+02
-5.680690e-10 -4.000330e+02 -4.000000e+02
4.000000e+02 -4.000330e+02 -4.000000e+02
-2.705670e-08 -8.000230e+02 -3.940180e-08
4.000000e+02 -8.000230e+02 -2.104080e-08
7.178810e-09 -4.000330e+02 -1.390430e-09
4.000000e+02 -4.000330e+02 -2.909980e-08
-4.000000e+02 -4.000330e+02 -4.000000e+02
-5.680690e-10 -4.000330e+02 -4.000000e+02
-4.000000e+02 -5.337910e-02 -4.000000e+02
5.797810e-08 -5.337900e-02 -4.000000e+02
-4.000000e+02 -4.000330e+02 -2.871280e-09
7.178810e-09 -4.000330e+02 -1.390430e-09
-4.000000e+02 -5.337900e-02 3.099810e-08
-4.870980e-08 -5.337900e-02 -4.218250e-08
-5.680690e-10 -4.000330e+02 -4.000000e+02
4.000000e+02 -4.000330e+02 -4.000000e+02
5.797810e-08 -5.337900e-02 -4.000000e+02
4.000000e+02 -5.337880e-02 -4.000000e+02
[...]
<PointData>
<DataArray type="Float32" Name="V1" format="ascii">
0.000000e+00
0.000000e+00
4.524840e-09
1.743620e-09
0.000000e+00
0.000000e+00
3.000850e-09
2.317080e-09
0.000000e+00
0.000000e+00
1.743620e-09
-1.162630e-09
0.000000e+00
0.000000e+00
2.317080e-09
-1.194060e-09
4.524840e-09
1.743620e-09
9.426750e-10
1.799310e-09
3.000850e-09
2.317080e-09
-2.199580e-10
-1.879020e-09
1.743620e-09
-1.162630e-09
1.799310e-09
2.545220e-09
2.317080e-09
-1.194060e-09
-1.879020e-09
-1.319750e-09
9.426750e-10
1.799310e-09
1.021230e-09
-1.086310e-09
-2.199580e-10
-1.879020e-09
-2.780890e-09
-9.491940e-10
1.799310e-09
2.545220e-09
-1.086310e-09
-7.541400e-10
-1.879020e-09
-1.319750e-09
-9.491940e-10
1.194060e-09
1.021230e-09
-1.086310e-09
9.269640e-10
4.393650e-09
-2.780890e-09
-9.491940e-10
4.964760e-09
4.438650e-09
-1.086310e-09
-7.541400e-10
4.393650e-09
3.676430e-09
-9.491940e-10
1.194060e-09
4.438650e-09
1.445440e-09
9.269640e-10
4.393650e-09
-2.890870e-09
-3.935000e-09
4.964760e-09
4.438650e-09
-1.043230e-08
-6.421900e-09
4.393650e-09
3.676430e-09
-3.935000e-09
-2.450960e-09
4.438650e-09
1.445440e-09
-6.421900e-09
-8.012740e-10
-2.890870e-09
-3.935000e-09
-9.426750e-10
-1.206980e-09
-1.043230e-08
-6.421900e-09
3.110830e-09
4.186820e-09
-3.935000e-09
-2.450960e-09
-1.206980e-09
-1.712530e-09
-6.421900e-09
-8.012740e-10
4.186820e-09
4.697670e-09
-9.426750e-10
-1.206980e-09
1.014950e-08
8.324350e-09
3.110830e-09
4.186820e-09
7.651380e-09
1.628390e-09
-1.206980e-09
-1.712530e-09
8.324350e-09
5.938850e-09
4.186820e-09
4.697670e-09
1.628390e-09
-6.912950e-09
1.014950e-08
8.324350e-09
-1.853930e-08
-1.112980e-08
7.651380e-09
1.628390e-09
-1.523990e-08
-3.064220e-09
8.324350e-09
5.938850e-09
-1.112980e-08
-4.681950e-09
1.628390e-09
-6.912950e-09
-3.064220e-09
6.488750e-09
-1.853930e-08
-1.112980e-08
8.641190e-10
-1.922810e-09
-1.523990e-08
-3.064220e-09
1.011800e-08
1.008110e-09
-1.112980e-08
-4.681950e-09
-1.922810e-09
-4.603400e-09
-3.064220e-09
6.488750e-09
1.008110e-09
-9.143950e-09
8.641190e-10
-1.922810e-09
3.029130e-08
2.078800e-08
1.011800e-08
1.008110e-09
-1.044800e-08
-4.289310e-09
-1.922810e-09
-4.603400e-09
2.078800e-08
1.238050e-08
1.008110e-09
-9.143950e-09
-4.289310e-09
-2.388110e-09
3.029130e-08
2.078800e-08
-4.213760e-08
-2.245900e-08
-1.044800e-08
-4.289310e-09
2.714900e-08
2.290120e-08
2.078800e-08
1.238050e-08
-2.245900e-08
-3.236520e-09
-4.289310e-09
-2.388110e-09
2.290120e-08
1.816220e-08
-4.213760e-08
-2.245900e-08
2.314270e-08
-4.647720e-09
2.714900e-08
2.290120e-08
-4.394440e-08
-3.027150e-08
-2.245900e-08
-3.236520e-09
-4.647720e-09
-3.148540e-08
2.290120e-08
1.816220e-08
-3.027150e-08
-1.655970e-08
2.314270e-08
-4.647720e-09
-4.777790e-08
-8.316810e-09
-4.394440e-08
-3.027150e-08
7.902760e-09
1.115760e-08
-4.647720e-09
-3.148540e-08
-8.316810e-09
3.134400e-08
-3.027150e-08
-1.655970e-08
1.115760e-08
1.472140e-08
-4.777790e-08
-8.316810e-09
1.359020e-07
6.025000e-08
7.902760e-09
1.115760e-08
1.319750e-08
-1.947330e-08
-8.316810e-09
3.134400e-08
6.025000e-08
-1.409300e-08
1.115760e-08
1.472140e-08
-1.947330e-08
-5.114010e-08
1.359020e-07
6.025000e-08
-1.136550e-07
-5.629600e-08
1.319750e-08
-1.947330e-08
2.149300e-08
1.673680e-08
6.025000e-08
-1.409300e-08
-5.629600e-08
-4.713380e-10
-1.947330e-08
-5.114010e-08
1.673680e-08
7.965610e-09
-1.136550e-07
-5.629600e-08
-9.712700e-08
-5.227390e-08
2.149300e-08
1.673680e-08
8.528070e-08
2.004670e-07
-5.629600e-08
-4.713380e-10
-5.227390e-08
-7.305730e-09
1.673680e-08
7.965610e-09
2.004670e-07
3.140370e-07
-9.712700e-08
-5.227390e-08
7.827350e-07
5.841240e-07
8.528070e-08
2.004670e-07
-2.550570e-07
-4.400660e-07
-5.227390e-08
-7.305730e-09
5.841240e-07
3.859310e-07
2.004670e-07
3.140370e-07
-4.400660e-07
-6.261090e-07
7.827350e-07
5.841240e-07
-8.676540e-07
-7.379870e-07
-2.550570e-07
-4.400660e-07
4.336310e-09
1.645710e-07
5.841240e-07
3.859310e-07
-7.379870e-07
-6.093920e-07
-4.400660e-07
-6.261090e-07
1.645710e-07
3.242330e-07
-8.676540e-07
-7.379870e-07
-7.503220e-07
-5.685030e-07
4.336310e-09
1.645710e-07
3.467470e-07
6.382350e-07
-7.379870e-07
-6.093920e-07
-5.685030e-07
-3.870940e-07
1.645710e-07
3.242330e-07
6.382350e-07
9.301690e-07
-7.503220e-07
-5.685030e-07
1.435070e-07
2.426850e-07
3.467470e-07
6.382350e-07
-1.215270e-07
-3.457490e-08
-5.685030e-07
-3.870940e-07
2.426850e-07
3.454430e-07
6.382350e-07
9.301690e-07
-3.457490e-08
5.415670e-08
1.435070e-07
2.426850e-07
-4.769940e-08
-4.138580e-08
-1.215270e-07
-3.457490e-08
-9.781830e-08
-9.158510e-08
2.426850e-07
3.454430e-07
-4.138580e-08
-3.670150e-08
-3.457490e-08
5.415670e-08
-9.158510e-08
-8.458940e-08
-4.769940e-08
-4.138580e-08
8.671510e-07
1.285270e-07
-9.781830e-08
-9.158510e-08
6.928510e-07
-1.439050e-07
-4.138580e-08
-3.670150e-08
1.285270e-07
-6.094400e-07
-9.158510e-08
-8.458940e-08
-1.439050e-07
-9.787170e-07
8.671510e-07
1.285270e-07
6.540750e-07
3.049890e-07
6.928510e-07
-1.439050e-07
3.166920e-07
-2.809240e-08
1.285270e-07
-6.094400e-07
3.049890e-07
-3.524030e-08
-1.439050e-07
-9.787170e-07
-2.809240e-08
-3.751060e-07
6.540750e-07
3.049890e-07
-6.080880e-07
-9.883240e-08
3.166920e-07
-2.809240e-08
-2.425820e-08
1.919430e-07
3.049890e-07
-3.524030e-08
-9.883240e-08
3.996160e-07
-2.809240e-08
-3.751060e-07
1.919430e-07
4.073610e-07
-6.080880e-07
-9.883240e-08
-1.428040e-06
-4.898840e-07
-2.425820e-08
1.919430e-07
-1.038800e-06
-1.969410e-08
-9.883240e-08
3.996160e-07
-4.898840e-07
4.447230e-07
1.919430e-07
4.073610e-07
-1.969410e-08
1.000870e-06
-1.428040e-06
-4.898840e-07
7.172190e-08
7.138990e-08
-1.038800e-06
-1.969410e-08
-2.860390e-07
-2.783370e-08
-4.898840e-07
4.447230e-07
7.138990e-08
7.029220e-08
-1.969410e-08
1.000870e-06
-2.783370e-08
2.306260e-07
7.172190e-08
7.138990e-08
5.138840e-07
1.737610e-07
-2.860390e-07
-2.783370e-08
4.403080e-07
9.339680e-08
7.138990e-08
7.029220e-08
1.737610e-07
-1.661940e-07
-2.783370e-08
2.306260e-07
9.339680e-08
-2.535950e-07
5.138840e-07
1.737610e-07
-2.814830e-07
-1.282830e-07
4.403080e-07
9.339680e-08
-8.447940e-08
-1.572050e-08
1.737610e-07
-1.661940e-07
-1.282830e-07
2.504370e-08
9.339680e-08
-2.535950e-07
-1.572050e-08
5.271130e-08
-2.814830e-07
-1.282830e-07
1.173630e-08
-1.879970e-09
-8.447940e-08
-1.572050e-08
-6.410190e-09
-1.953030e-08
-1.282830e-07
2.504370e-08
-1.879970e-09
-1.545990e-08
-1.572050e-08
5.271130e-08
-1.953030e-08
-3.278940e-08
1.173630e-08
-1.879970e-09
1.073080e-08
-5.941190e-09
-6.410190e-09
-1.953030e-08
1.198770e-08
-4.374300e-09
-1.879970e-09
-1.545990e-08
-5.941190e-09
-2.246710e-08
-1.953030e-08
-3.278940e-08
-4.374300e-09
-2.066030e-08
0.000000e+00
0.000000e+00
3.000850e-09
2.317080e-09
0.000000e+00
0.000000e+00
3.173670e-09
1.145810e-09
0.000000e+00
0.000000e+00
2.317080e-09
-1.194060e-09
0.000000e+00
0.000000e+00
1.145810e-09
4.713380e-10
3.000850e-09
2.317080e-09
-2.199580e-10
-1.879020e-09
3.173670e-09
1.145810e-09
-7.698510e-10
5.659100e-11
2.317080e-09
-1.194060e-09
-1.879020e-09
-1.319750e-09
1.145810e-09
4.713380e-10
5.659100e-11
3.047980e-09
-2.199580e-10
-1.879020e-09
-2.780890e-09
-9.491940e-10
-7.698510e-10
5.659100e-11
-3.582170e-09
-2.865000e-09
-1.879020e-09
-1.319750e-09
-9.491940e-10
1.194060e-09
5.659100e-11
3.047980e-09
-2.865000e-09
-1.838220e-09
-2.780890e-09
-9.491940e-10
4.964760e-09
4.438650e-09
-3.582170e-09
-2.865000e-09
3.456480e-10
2.222610e-09
-9.491940e-10
1.194060e-09
4.438650e-09
1.445440e-09
-2.865000e-09
-1.838220e-09
2.222610e-09
1.681100e-09
4.964760e-09
4.438650e-09
-1.043230e-08
-6.421900e-09
3.456480e-10
2.222610e-09
-4.619110e-09
-2.184590e-09
4.438650e-09
1.445440e-09
-6.421900e-09
-8.012740e-10
2.222610e-09
1.681100e-09
-2.184590e-09
-5.498940e-10
-1.043230e-08
-6.421900e-09
3.110830e-09
4.186820e-09
-4.619110e-09
-2.184590e-09
8.484080e-10
1.080970e-10
-6.421900e-09
-8.012740e-10
4.186820e-09
4.697670e-09
-2.184590e-09
-5.498940e-10
1.080970e-10
2.513800e-10
3.110830e-09
4.186820e-09
7.651380e-09
1.628390e-09
8.484080e-10
1.080970e-10
1.337030e-08
5.926180e-09
4.186820e-09
4.697670e-09
1.628390e-09
-6.912950e-09
1.080970e-10
2.513800e-10
5.926180e-09
-4.210620e-09
7.651380e-09
1.628390e-09
-1.523990e-08
-3.064220e-09
1.337030e-08
5.926180e-09
-7.211470e-09
2.514010e-12
1.628390e-09
-6.912950e-09
-3.064220e-09
6.488750e-09
5.926180e-09
-4.210620e-09
2.514010e-12
5.373250e-09
-1.523990e-08
-3.064220e-09
1.011800e-08
1.008110e-09
-7.211470e-09
2.514010e-12
-7.824200e-09
-6.367620e-09
-3.064220e-09
6.488750e-09
1.008110e-09
-9.143950e-09
2.514010e-12
5.373250e-09
-6.367620e-09
-5.373250e-09
1.011800e-08
1.008110e-09
-1.044800e-08
-4.289310e-09
-7.824200e-09
-6.367620e-09
2.650490e-08
1.024050e-09
1.008110e-09
-9.143950e-09
-4.289310e-09
-2.388110e-09
-6.367620e-09
-5.373250e-09
1.024050e-09
-2.380260e-08
-1.044800e-08
-4.289310e-09
2.714900e-08
2.290120e-08
2.650490e-08
1.024050e-09
-2.262420e-08
1.276080e-08
-4.289310e-09
-2.388110e-09
2.290120e-08
1.816220e-08
1.024050e-09
-2.380260e-08
1.276080e-08
4.655240e-08
2.714900e-08
2.290120e-08
-4.394440e-08
-3.027150e-08
-2.262420e-08
1.276080e-08
1.654400e-08
-5.138490e-09
2.290120e-08
1.816220e-08
-3.027150e-08
-1.655970e-08
1.276080e-08
4.655240e-08
-5.138490e-09
-2.755750e-08
-4.394440e-08
-3.027150e-08
7.902760e-09
1.115760e-08
1.654400e-08
-5.138490e-09
-2.515370e-08
-1.509450e-08
-3.027150e-08
-1.655970e-08
1.115760e-08
1.472140e-08
-5.138490e-09
-2.755750e-08
-1.509450e-08
-5.718900e-09
7.902760e-09
1.115760e-08
1.319750e-08
-1.947330e-08
-2.515370e-08
-1.509450e-08
1.087220e-08
-5.020320e-09
1.115760e-08
1.472140e-08
-1.947330e-08
-5.114010e-08
-1.509450e-08
-5.718900e-09
-5.020320e-09
-1.937200e-08
1.319750e-08
-1.947330e-08
2.149300e-08
1.673680e-08
1.087220e-08
-5.020320e-09
-1.853930e-09
3.187330e-08
-1.947330e-08
-5.114010e-08
1.673680e-08
7.965610e-09
-5.020320e-09
-1.937200e-08
3.187330e-08
6.062970e-08
2.149300e-08
1.673680e-08
8.528070e-08
2.004670e-07
-1.853930e-09
3.187330e-08
5.092020e-08
7.826520e-08
1.673680e-08
7.965610e-09
2.004670e-07
3.140370e-07
3.187330e-08
6.062970e-08
7.826520e-08
1.078110e-07
8.528070e-08
2.004670e-07
-2.550570e-07
-4.400660e-07
5.092020e-08
7.826520e-08
-2.372400e-09
-2.138870e-07
2.004670e-07
3.140370e-07
-4.400660e-07
-6.261090e-07
7.826520e-08
1.078110e-07
-2.138870e-07
-4.253820e-07
-2.550570e-07
-4.400660e-07
4.336310e-09
1.645710e-07
-2.372400e-09
-2.138870e-07
-1.883940e-07
2.231390e-07
-4.400660e-07
-6.261090e-07
1.645710e-07
3.242330e-07
-2.138870e-07
-4.253820e-07
2.231390e-07
6.303040e-07
4.336310e-09
1.645710e-07
3.467470e-07
6.382350e-07
-1.883940e-07
2.231390e-07
1.242450e-07
-2.641160e-07
1.645710e-07
3.242330e-07
6.382350e-07
9.301690e-07
2.231390e-07
6.303040e-07
-2.641160e-07
-6.513100e-07
3.467470e-07
6.382350e-07
-1.215270e-07
-3.457490e-08
1.242450e-07
-2.641160e-07
-5.638300e-07
-3.261200e-07
6.382350e-07
9.301690e-07
-3.457490e-08
5.415670e-08
-2.641160e-07
-6.513100e-07
-3.261200e-07
-8.823440e-08
-1.215270e-07
-3.457490e-08
-9.781830e-08
-9.158510e-08
-5.638300e-07
-3.261200e-07
1.750390e-07
2.781630e-07
-3.457490e-08
5.415670e-08
-9.158510e-08
-8.458940e-08
-3.261200e-07
-8.823440e-08
2.781630e-07
3.816740e-07
-9.781830e-08
-9.158510e-08
6.928510e-07
-1.439050e-07
1.750390e-07
2.781630e-07
9.987170e-07
-2.807010e-07
-9.158510e-08
-8.458940e-08
-1.439050e-07
-9.787170e-07
2.781630e-07
3.816740e-07
-2.807010e-07
-1.556060e-06
6.928510e-07
-1.439050e-07
3.166920e-07
-2.809240e-08
9.987170e-07
-2.807010e-07
-5.004980e-07
-6.046490e-07
-1.439050e-07
-9.787170e-07
-2.809240e-08
-3.751060e-07
-2.807010e-07
-1.556060e-06
-6.046490e-07
-7.085780e-07
3.166920e-07
-2.809240e-08
-2.425820e-08
1.919430e-07
-5.004980e-07
-6.046490e-07
1.284400e-07
5.031690e-07
-2.809240e-08
-3.751060e-07
1.919430e-07
4.073610e-07
-6.046490e-07
-7.085780e-07
5.031690e-07
8.790600e-07
-2.425820e-08
1.919430e-07
-1.038800e-06
-1.969410e-08
1.284400e-07
5.031690e-07
-6.546090e-07
3.694030e-07
1.919430e-07
4.073610e-07
-1.969410e-08
1.000870e-06
5.031690e-07
8.790600e-07
3.694030e-07
1.402610e-06
-1.038800e-06
-1.969410e-08
-2.860390e-07
-2.783370e-08
-6.546090e-07
3.694030e-07
-7.275880e-07
-2.682730e-07
-1.969410e-08
1.000870e-06
-2.783370e-08
2.306260e-07
3.694030e-07
1.402610e-06
-2.682730e-07
1.915200e-07
-2.860390e-07
-2.783370e-08
4.403080e-07
9.339680e-08
-7.275880e-07
-2.682730e-07
5.673330e-07
1.953210e-07
-2.783370e-08
2.306260e-07
9.339680e-08
-2.535950e-07
-2.682730e-07
1.915200e-07
1.953210e-07
-1.763590e-07
4.403080e-07
9.339680e-08
-8.447940e-08
-1.572050e-08
5.673330e-07
1.953210e-07
5.751890e-08
8.443690e-08
9.339680e-08
-2.535950e-07
-1.572050e-08
5.271130e-08
1.953210e-07
-1.763590e-07
8.443690e-08
1.129170e-07
-8.447940e-08
-1.572050e-08
-6.410190e-09
-1.953030e-08
5.751890e-08
8.443690e-08
-4.645820e-08
-6.164970e-08
-1.572050e-08
5.271130e-08
-1.953030e-08
-3.278940e-08
8.443690e-08
1.129170e-07
-6.164970e-08
-7.660810e-08
-6.410190e-09
-1.953030e-08
1.198770e-08
-4.374300e-09
-4.645820e-08
-6.164970e-08
3.836690e-08
3.773040e-09
-1.953030e-08
-3.278940e-08
-4.374300e-09
-2.066030e-08
-6.164970e-08
-7.660810e-08
3.773040e-09
-3.080980e-08
</DataArray>
<DataArray type="Float32" Name="V2" format="ascii">
0.000000e+00
0.000000e+00
1.095990e-04
1.095990e-04
0.000000e+00
0.000000e+00
1.096040e-04
1.096050e-04
0.000000e+00
0.000000e+00
1.095990e-04
1.096040e-04
0.000000e+00
0.000000e+00
1.096050e-04
1.096130e-04
1.095990e-04
1.095990e-04
8.494160e-05
8.493430e-05
1.096040e-04
1.096050e-04
8.493200e-05
8.492880e-05
1.095990e-04
1.096040e-04
8.493430e-05
8.493760e-05
1.096050e-04
1.096130e-04
8.492880e-05
8.492730e-05
8.494160e-05
8.493430e-05
-2.325660e-04
-2.325640e-04
8.493200e-05
8.492880e-05
-2.325630e-04
-2.325660e-04
8.493430e-05
8.493760e-05
-2.325640e-04
-2.325590e-04
8.492880e-05
8.492730e-05
-2.325660e-04
-2.325680e-04
-2.325660e-04
-2.325640e-04
-3.469650e-04
-3.469860e-04
-2.325630e-04
-2.325660e-04
-3.469850e-04
-3.469770e-04
-2.325640e-04
-2.325590e-04
-3.469860e-04
-3.469940e-04
-2.325660e-04
-2.325680e-04
-3.469770e-04
-3.469790e-04
-3.469650e-04
-3.469860e-04
-3.323670e-05
-3.321620e-05
-3.469850e-04
-3.469770e-04
-3.322290e-05
-3.322210e-05
-3.469860e-04
-3.469940e-04
-3.321620e-05
-3.321500e-05
-3.469770e-04
-3.469790e-04
-3.322210e-05
-3.323870e-05
-3.323670e-05
-3.321620e-05
-9.217000e-04
-9.216700e-04
-3.322290e-05
-3.322210e-05
-9.216770e-04
-9.216540e-04
-3.321620e-05
-3.321500e-05
-9.216700e-04
-9.216700e-04
-3.322210e-05
-3.323870e-05
-9.216540e-04
-9.216530e-04
-9.217000e-04
-9.216700e-04
6.652200e-05
6.645720e-05
-9.216770e-04
-9.216540e-04
6.645600e-05
6.645400e-05
-9.216700e-04
-9.216700e-04
6.645720e-05
6.645230e-05
-9.216540e-04
-9.216530e-04
6.645400e-05
6.646780e-05
6.652200e-05
6.645720e-05
7.716130e-04
7.716630e-04
6.645600e-05
6.645400e-05
7.716630e-04
7.716270e-04
6.645720e-05
6.645230e-05
7.716630e-04
7.716770e-04
6.645400e-05
6.646780e-05
7.716270e-04
7.716030e-04
7.716130e-04
7.716630e-04
-4.391160e-04
-4.391060e-04
7.716630e-04
7.716270e-04
-4.391050e-04
-4.390660e-04
7.716630e-04
7.716770e-04
-4.391060e-04
-4.391320e-04
7.716270e-04
7.716030e-04
-4.390660e-04
-4.390830e-04
-4.391160e-04
-4.391060e-04
1.028420e-03
1.028330e-03
-4.391050e-04
-4.390660e-04
1.028330e-03
1.028330e-03
-4.391060e-04
-4.391320e-04
1.028330e-03
1.028360e-03
-4.390660e-04
-4.390830e-04
1.028330e-03
1.028400e-03
1.028420e-03
1.028330e-03
3.025450e-03
3.025520e-03
1.028330e-03
1.028330e-03
3.025530e-03
3.025480e-03
1.028330e-03
1.028360e-03
3.025520e-03
3.025510e-03
1.028330e-03
1.028400e-03
3.025480e-03
3.025430e-03
3.025450e-03
3.025520e-03
2.609010e-03
2.609010e-03
3.025530e-03
3.025480e-03
2.608980e-03
2.609020e-03
3.025520e-03
3.025510e-03
2.609010e-03
2.609030e-03
3.025480e-03
3.025430e-03
2.609020e-03
2.609030e-03
2.609010e-03
2.609010e-03
4.534700e-03
4.534750e-03
2.608980e-03
2.609020e-03
4.534750e-03
4.534780e-03
2.609010e-03
2.609030e-03
4.534750e-03
4.534690e-03
2.609020e-03
2.609030e-03
4.534780e-03
4.534790e-03
4.534700e-03
4.534750e-03
1.212890e-02
1.212890e-02
4.534750e-03
4.534780e-03
1.212890e-02
1.212900e-02
4.534750e-03
4.534690e-03
1.212890e-02
1.212900e-02
4.534780e-03
4.534790e-03
1.212900e-02
1.212890e-02
1.212890e-02
1.212890e-02
1.700360e-02
1.700360e-02
1.212890e-02
1.212900e-02
1.700350e-02
1.700350e-02
1.212890e-02
1.212900e-02
1.700360e-02
1.700380e-02
1.212900e-02
1.212890e-02
1.700350e-02
1.700390e-02
1.700360e-02
1.700360e-02
2.720080e-02
2.720110e-02
1.700350e-02
1.700350e-02
2.720130e-02
2.720090e-02
1.700360e-02
1.700380e-02
2.720110e-02
2.720040e-02
1.700350e-02
1.700390e-02
2.720090e-02
2.720040e-02
2.720080e-02
2.720110e-02
3.991730e-02
3.991580e-02
2.720130e-02
2.720090e-02
3.991550e-02
3.991520e-02
2.720110e-02
2.720040e-02
3.991580e-02
3.991620e-02
2.720090e-02
2.720040e-02
3.991520e-02
3.991510e-02
3.991730e-02
3.991580e-02
4.758130e-02
4.758150e-02
3.991550e-02
3.991520e-02
4.758120e-02
4.758250e-02
3.991580e-02
3.991620e-02
4.758150e-02
4.758080e-02
3.991520e-02
3.991510e-02
4.758250e-02
4.758300e-02
4.758130e-02
4.758150e-02
4.885670e-02
4.885590e-02
4.758120e-02
4.758250e-02
4.885590e-02
4.885610e-02
4.758150e-02
4.758080e-02
4.885590e-02
4.885710e-02
4.758250e-02
4.758300e-02
4.885610e-02
4.885800e-02
4.885670e-02
4.885590e-02
2.848180e-02
2.848570e-02
4.885590e-02
4.885610e-02
2.848620e-02
2.849020e-02
4.885590e-02
4.885710e-02
2.848570e-02
2.847980e-02
4.885610e-02
4.885800e-02
2.849020e-02
2.848430e-02
2.848180e-02
2.848570e-02
-4.773740e-04
-4.817740e-04
2.848620e-02
2.849020e-02
-4.822790e-04
-4.842110e-04
2.848570e-02
2.847980e-02
-4.817740e-04
-4.772350e-04
2.849020e-02
2.848430e-02
-4.842110e-04
-4.794720e-04
-4.773740e-04
-4.817740e-04
-2.527620e-02
-2.527060e-02
-4.822790e-04
-4.842110e-04
-2.527150e-02
-2.526760e-02
-4.817740e-04
-4.772350e-04
-2.527060e-02
-2.527010e-02
-4.842110e-04
-4.794720e-04
-2.526760e-02
-2.527020e-02
-2.527620e-02
-2.527060e-02
-1.663110e-02
-1.662780e-02
-2.527150e-02
-2.526760e-02
-1.662740e-02
-1.662940e-02
-2.527060e-02
-2.527010e-02
-1.662780e-02
-1.662680e-02
-2.526760e-02
-2.527020e-02
-1.662940e-02
-1.662750e-02
-1.663110e-02
-1.662780e-02
-1.721660e-04
-1.695900e-04
-1.662740e-02
-1.662940e-02
-1.684570e-04
-1.669540e-04
-1.662780e-02
-1.662680e-02
-1.695900e-04
-1.704530e-04
-1.662940e-02
-1.662750e-02
-1.669540e-04
-1.685670e-04
-1.721660e-04
-1.695900e-04
1.447690e-02
1.448740e-02
-1.684570e-04
-1.669540e-04
1.448880e-02
1.449530e-02
-1.695900e-04
-1.704530e-04
1.448740e-02
1.448810e-02
-1.669540e-04
-1.685670e-04
1.449530e-02
1.448680e-02
1.447690e-02
1.448740e-02
1.688620e-03
1.691920e-03
1.448880e-02
1.449530e-02
1.689970e-03
1.684460e-03
1.448740e-02
1.448810e-02
1.691920e-03
1.694990e-03
1.449530e-02
1.448680e-02
1.684460e-03
1.693500e-03
1.688620e-03
1.691920e-03
-3.271700e-03
-3.304120e-03
1.689970e-03
1.684460e-03
-3.305220e-03
-3.314560e-03
1.691920e-03
1.694990e-03
-3.304120e-03
-3.308490e-03
1.684460e-03
1.693500e-03
-3.314560e-03
-3.308560e-03
-3.271700e-03
-3.304120e-03
9.662940e-04
9.851660e-04
-3.305220e-03
-3.314560e-03
9.861870e-04
9.941310e-04
-3.304120e-03
-3.308490e-03
9.851660e-04
9.867100e-04
-3.314560e-03
-3.308560e-03
9.941310e-04
9.872060e-04
9.662940e-04
9.851660e-04
9.523920e-04
9.491340e-04
9.861870e-04
9.941310e-04
9.489660e-04
9.475580e-04
9.851660e-04
9.867100e-04
9.491340e-04
9.490070e-04
9.941310e-04
9.872060e-04
9.475580e-04
9.488020e-04
9.523920e-04
9.491340e-04
3.110420e-04
3.108270e-04
9.489660e-04
9.475580e-04
3.108070e-04
3.106490e-04
9.491340e-04
9.490070e-04
3.108270e-04
3.108280e-04
9.475580e-04
9.488020e-04
3.106490e-04
3.107340e-04
0.000000e+00
0.000000e+00
1.096040e-04
1.096050e-04
0.000000e+00
0.000000e+00
1.096060e-04
1.096170e-04
0.000000e+00
0.000000e+00
1.096050e-04
1.096130e-04
0.000000e+00
0.000000e+00
1.096170e-04
1.096230e-04
1.096040e-04
1.096050e-04
8.493200e-05
8.492880e-05
1.096060e-04
1.096170e-04
8.493680e-05
8.492400e-05
1.096050e-04
1.096130e-04
8.492880e-05
8.492730e-05
1.096170e-04
1.096230e-04
8.492400e-05
8.492170e-05
8.493200e-05
8.492880e-05
-2.325630e-04
-2.325660e-04
8.493680e-05
8.492400e-05