<?xml version="1.0"?>
<!-- time 60.295-->
<VTKFile type="UnstructuredGrid" version="0.1" byte_order="LittleEndian">
<UnstructuredGrid>
<Piece NumberOfPoints="7680" NumberOfCells="0">
<Points>
  <DataArray type="Float32" Name="Position" NumberOfComponents="3" format="ascii">
	-350 2049.59 -350
	-350 2049.59 -250
	-350 2049.59 -150
	-350 2049.59 -50
	-350 2049.59 50
	-350 2049.59 150
	-350 2049.59 250
	-350 2049.59 350
	-250 2049.59 -350
	-250 2049.59 -250
	-250 2049.59 -150
	-250 2049.59 -50
	-250 2049.59 50
	-250 2049.59 150
	-250 2049.59 250
	-250 2049.59 350
	-150 2049.59 -350
	-150 2049.59 -250
	-150 2049.59 -150
	-150 2049.59 -50
	-150 2049.59 50
	-150 2049.59 150
	-150 2049.59 250
	-150 2049.59 350
	-50 2049.59 -350
	-50 2049.59 -250
	-50 2049.59 -150
	-50 2049.59 -50
	-50 2049.59 50
	-50 2049.59 150
	-50 2049.59 250
	-50 2049.59 350
	50 2049.59 -350
	50 2049.59 -250
	50 2049.59 -150
	50 2049.59 -50
	50 2049.59 50
	50 2049.59 150
	50 2049.59 250
	50 2049.59 350
	150 2049.59 -350
	150 2049.59 -250
	150 2049.59 -150
	150 2049.59 -50
	150 2049.59 50
	150 2049.59 150
	150 2049.59 250
	150 2049.59 350
	250 2049.59 -350
	250 2049.59 -250
	250 2049.59 -150
	250 2049.59 -50
	250 2049.59 50
	250 2049.59 150
	250 2049.59 250
	250 2049.59 350
	350 2049.59 -350
	350 2049.59 -250
	350 2049.59 -150
	350 2049.59 -50
	350 2049.59 50
	350 2049.59 150
	350 2049.59 250
	350 2049.59 350
	-350 2149.66 -350
	-350 2149.66 -250
	-350 2149.66 -150
	-350 2149.66 -50
	-350 2149.66 50
	-350 2149.66 150
	-350 2149.66 250
	-350 2149.66 350
	-250 2149.66 -350
	-250 2149.66 -250
	-250 2149.66 -150
	-250 2149.66 -50
	-250 2149.66 50
	-250 2149.66 150
	-250 2149.66 250
	-250 2149.66 350
	-150 2149.66 -350
	-150 2149.66 -250
	-150 2149.66 -150
	-150 2149.66 -50
	-150 2149.66 50
	-150 2149.66 150
	-150 2149.66 250
	-150 2149.66 350
	-50 2149.66 -350
	-50 2149.66 -250
	-50 2149.66 -150
	-50 2149.66 -50
	-50 2149.66 50
	-50 2149.66 150
	-50 2149.66 250
	-50 2149.66 350
	50 2149.66 -350
	50 2149.66 -250
	50 2149.66 -150
	50 2149.66 -50
	50 2149.66 50
	50 2149.66 150
	50 2149.66 250
	50 2149.66 350
	150 2149.66 -350
	150 2149.66 -250
	150 2149.66 -150
	150 2149.66 -50
	150 2149.66 50
	150 2149.66 150
	150 2149.66 250
	150 2149.66 350
	250 2149.66 -350
	250 2149.66 -250
	250 2149.66 -150
	250 2149.66 -50
	250 2149.66 50
	250 2149.66 150
	250 2149.66 250
	250 2149.66 350
	350 2149.66 -350
	350 2149.66 -250
	350 2149.66 -150
	350 2149.66 -50
	350 2149.66 50
	350 2149.66 150
	350 2149.66 250
	350 2149.66 350
	-350 2249.66 -350
	-350 2249.66 -250
	-350 2249.66 -150
	-350 2249.66 -50
	-350 2249.66 50
	-350 2249.66 150
	-350 2249.66 250
	-350 2249.66 350
	-250 2249.66 -350
	-250 2249.66 -250
	-250 2249.66 -150
	-250 2249.66 -50
	-250 2249.66 50
	-250 2249.66 150
	-250 2249.66 250
	-250 2249.66 350
	-150 2249.66 -350
	-150 2249.66 -250
	-150 2249.66 -150
	-150 2249.66 -50
	-150 2249.66 50
	-150 2249.66 150
	-150 2249.66 250
	-150 2249.66 350
	-50 2249.66 -350
	-50 2249.66 -250
	-50 2249.66 -150
	-50 2249.66 -50
	-50 2249.66 50
	-50 2249.66 150
	-50 2249.66 250
	-50 2249.66 350
	50 2249.66 -350
	50 2249.66 -250
	50 2249.66 -150
	50 2249.66 -50
	50 2249.66 50
	50 2249.66 150
	50 2249.66 250
	50 2249.66 350
	150 2249.66 -350
	150 2249.66 -250
	150 2249.66 -150
	150 2249.66 -50
	150 2249.66 50
	150 2249.66 150
	150 2249.66 250
	150 2249.66 350
	250 2249.66 -350
	250 2249.66 -250
	250 2249.66 -150
	250 2249.66 -50
	250 2249.66 50
	250 2249.66 150
	250 2249.66 250
	250 2249.66 350
	350 2249.66 -350
	350 2249.66 -250
	350 2249.66 -150
	350 2249.66 -50
	350 2249.66 50
	350 2249.66 150
	350 2249.66 250
	350 2249.66 350
	-350 2349.66 -350
	-350 2349.66 -250
	-350 2349.66 -150
	-350 2349.66 -50
	-350 2349.66 50
	-350 2349.66 150
	-350 2349.66 250
	-350 2349.66 350
	-250 2349.66 -350
	-250 2349.66 -250
	-250 2349.66 -150
	-250 2349.66 -50
	-250 2349.66 50
	-250 2349.66 150
	-250 2349.66 250
	-250 2349.66 350
	-150 2349.66 -350
	-150 2349.66 -250
	-150 2349.66 -150
	-150 2349.66 -50
	-150 2349.66 50
	-150 2349.66 150
	-150 2349.66 250
	-150 2349.66 350
	-50 2349.66 -350
	-50 2349.66 -250
	-50 2349.66 -150
	-50 2349.66 -50
	-50 2349.66 50
	-50 2349.66 150
	-50 2349.66 250
	-50 2349.66 350
	50 2349.66 -350
	50 2349.66 -250
	50 2349.66 -150
	50 2349.66 -50
	50 2349.66 50
	50 2349.66 150
	50 2349.66 250
	50 2349.66 350
	150 2349.66 -350
	150 2349.66 -250
	150 2349.66 -150
	150 2349.66 -50
	150 2349.66 50
	150 2349.66 150
	150 2349.66 250
	150 2349.66 350
	250 2349.66 -350
	250 2349.66 -250
	250 2349.66 -150
	250 2349.66 -50
	250 2349.66 50
	250 2349.66 150
	250 2349.66 250
	250 2349.66 350
	350 2349.66 -350
	350 2349.66 -250
	350 2349.66 -150
	350 2349.66 -50
	350 2349.66 50
	350 2349.66 150
	350 2349.66 250
	350 2349.66 350
	-350 2449.66 -350
	-350 2449.66 -250
	-350 2449.66 -150
	-350 2449.66 -50
	-350 2449.66 50
	-350 2449.66 150
	-350 2449.66 250
	-350 2449.66 350
	-250 2449.66 -350
	-250 2449.66 -250
	-250 2449.66 -150
	-250 2449.66 -50
	-250 2449.66 50
	-250 2449.66 150
	-250 2449.66 250
	-250 2449.66 350
	-150 2449.66 -350
	-150 2449.66 -250
	-150 2449.66 -150
	-150 2449.66 -50
	-150 2449.66 50
	-150 2449.66 150
	-150 2449.66 250
	-150 2449.66 350
	-50 2449.66 -350
	-50 2449.66 -250
	-50 2449.66 -150
	-50 2449.66 -50
	-50 2449.66 50
	-50 2449.66 150
	-50 2449.66 250
	-50 2449.66 350
	50 2449.66 -350
	50 2449.66 -250
	50 2449.66 -150
	50 2449.66 -50
	50 2449.66 50
	50 2449.66 150
	50 2449.66 250
	50 2449.66 350
	150 2449.66 -350
	150 2449.66 -250
	150 2449.66 -150
	150 2449.66 -50
	150 2449.66 50
	150 2449.66 150
	150 2449.66 250
	150 2449.66 350
	250 2449.66 -350
	250 2449.66 -250
	250 2449.66 -150
	250 2449.66 -50
	250 2449.66 50
	250 2449.66 150
	250 2449.66 250
	250 2449.66 350
	350 2449.66 -350
	350 2449.66 -250
	350 2449.66 -150
	350 2449.66 -50
	350 2449.66 50
	350 2449.66 150
	350 2449.66 250
	350 2449.66 350
	-350 2549.66 -350
	-350 2549.66 -250
	-350 2549.66 -150
	-350 2549.66 -50
	-350 2549.66 50
	-350 2549.66 150
	-350 2549.66 250
	-350 2549.66 350
	-250 2549.66 -350
	-250 2549.66 -250
	-250 2549.66 -150
	-250 2549.66 -50
	-250 2549.66 50
	-250 2549.66 150
	-250 2549.66 250
	-250 2549.66 350
	-150 2549.66 -350
	-150 2549.66 -250
	-150 2549.66 -150
	-150 2549.66 -50
	-150 2549.66 50
	-150 2549.66 150
	-150 2549.66 250
	-150 2549.66 350
	-50 2549.66 -350
	-50 2549.66 -250
	-50 2549.66 -150
	-50 2549.66 -50
	-50 2549.66 50
	-50 2549.66 150
	-50 2549.66 250
	-50 2549.66 350
	50 2549.66 -350
	50 2549.66 -250
	50 2549.66 -150
	50 2549.66 -50
	50 2549.66 50
	50 2549.66 150
	50 2549.66 250
	50 2549.66 350
	150 2549.66 -350
	150 2549.66 -250
	150 2549.66 -150
	150 2549.66 -50
	150 2549.66 50
	150 2549.66 150
	150 2549.66 250
	150 2549.66 350
	250 2549.66 -350
	250 2549.66 -250
	250 2549.66 -150
	250 2549.66 -50
	250 2549.66 50
	250 2549.66 150
	250 2549.66 250
	250 2549.66 350
	350 2549.66 -350
	350 2549.66 -250
	350 2549.66 -150
	350 2549.66 -50
	350 2549.66 50
	350 2549.66 150
	350 2549.66 250
	350 2549.66 350
	-350 2649.66 -350
	-350 2649.66 -250
	-350 2649.66 -150
	-350 2649.66 -50
	-350 2649.66 50
	-350 2649.66 150
	-350 2649.66 250
	-350 2649.66 350
	-250 2649.66 -350
	-250 2649.66 -250
	-250 2649.66 -150
	-250 2649.66 -50
	-250 2649.66 50
	-250 2649.66 150
	-250 2649.66 250
	-250 2649.66 350
	-150 2649.66 -350
	-150 2649.66 -250
	-150 2649.66 -150
	-150 2649.66 -50
	-150 2649.66 50
	-150 2649.66 150
	-150 2649.66 250
	-150 2649.66 350
	-50 2649.66 -350
	-50 2649.66 -250
	-50 2649.66 -150
	-50 2649.66 -50
	-50 2649.66 50
	-50 2649.66 150
	-50 2649.66 250
	-50 2649.66 350
	50 2649.66 -350
	50 2649.66 -250
	50 2649.66 -150
	50 2649.66 -50
	50 2649.66 50
	50 2649.66 150
	50 2649.66 250
	50 2649.66 350
	150 2649.66 -350
	150 2649.66 -250
	150 2649.66 -150
	150 2649.66 -50
	150 2649.66 50
	150 2649.66 150
	150 2649.66 250
	150 2649.66 350
	250 2649.66 -350
	250 2649.66 -250
	250 2649.66 -150
	250 2649.66 -50
	250 2649.66 50
	250 2649.66 150
	250 2649.66 250
	250 2649.66 350
	350 2649.66 -350
	350 2649.66 -250
	350 2649.66 -150
	350 2649.66 -50
	350 2649.66 50
	350 2649.66 150
	350 2649.66 250
	350 2649.66 350
	-350 2749.66 -350
	-350 2749.66 -250
	-350 2749.66 -150
	-350 2749.66 -50
	-350 2749.66 50
	-350 2749.66 150
	-350 2749.66 250
	-350 2749.66 350
	-250 2749.66 -350
	-250 2749.66 -250
	-250 2749.66 -150
	-250 2749.66 -50
	-250 2749.66 50
	-250 2749.66 150
	-250 2749.66 250
	-250 2749.66 350
	-150 2749.66 -350
	-150 2749.66 -250
	-150 2749.66 -150
	-150 2749.66 -50
	-150 2749.66 50
	-150 2749.66 150
	-150 2749.66 250
	-150 2749.66 350
	-50 2749.66 -350
	-50 2749.66 -250
	-50 2749.66 -150
	-50 2749.66 -50
	-50 2749.66 50
	-50 2749.66 150
	-50 2749.66 250
	-50 2749.66 350
	50 2749.66 -350
	50 2749.66 -250
	50 2749.66 -150
	50 2749.66 -50
	50 2749.66 50
	50 2749.66 150
	50 2749.66 250
	50 2749.66 350
	150 2749.66 -350
	150 2749.66 -250
	150 2749.66 -150
	150 2749.66 -50
	150 2749.66 50
	150 2749.66 150
	150 2749.66 250
	150 2749.66 350
	250 2749.66 -350
	250 2749.66 -250
	250 2749.66 -150
	250 2749.66 -50
	250 2749.66 50
	250 2749.66 150
	250 2749.66 250
	250 2749.66 350
	350 2749.66 -350
	350 2749.66 -250
	350 2749.66 -150
	350 2749.66 -50
	350 2749.66 50
	350 2749.66 150
	350 2749.66 250
	350 2749.66 350
	-350 2849.66 -350
	-350 2849.66 -250
	-350 2849.66 -150
	-350 2849.66 -50
	-350 2849.66 50
	-350 2849.66 150
	-350 2849.66 250
	-350 2849.66 350
	-250 2849.66 -350
	-250 2849.66 -250
	-250 2849.66 -150
	-250 2849.66 -50
	-250 2849.66 50
	-250 2849.66 150
	-250 2849.66 250
	-250 2849.66 350
	-150 2849.66 -350
	-150 2849.66 -250
	-150 2849.66 -150
	-150 2849.66 -50
	-150 2849.66 50
	-150 2849.66 150
	-150 2849.66 250
	-150 2849.66 350
	-50 2849.66 -350
	-50 2849.66 -250
	-50 2849.66 -150
	-50 2849.66 -50
	-50 2849.66 50
	-50 2849.66 150
	-50 2849.66 250
	-50 2849.66 350
	50 2849.66 -350
	50 2849.66 -250
	50 2849.66 -150
	50 2849.66 -50
	50 2849.66 50
	50 2849.66 150
	50 2849.66 250
	50 2849.66 350
	150 2849.66 -350
	150 2849.66 -250
	150 2849.66 -150
[...]
<PointData  Vectors="vector">
  <DataArray type="Float32" Name="Velocity" NumberOfComponents="3" format="ascii">
 -1.77145e-10 -0.000481701 1.34043e-11
 1.60006e-11 -0.000481699 -9.75402e-11
 -1.62169e-10 -0.000481698 1.17108e-10
 -1.85535e-10 -0.000481697 2.56349e-10
 -2.64938e-10 -0.000481705 3.69099e-10
 -1.26182e-11 -0.000481701 1.6088e-10
 -1.52441e-10 -0.000481696 -5.51258e-11
 -3.33079e-11 -0.000481692 6.03378e-11
 2.26395e-10 -0.0004817 -1.68327e-10
 -8.74154e-11 -0.000481698 -1.04493e-10
 1.2903e-10 -0.000481695 1.11682e-10
 1.25232e-10 -0.000481693 3.54517e-10
 4.20763e-11 -0.0004817 2.16321e-10
 -1.33634e-10 -0.000481698 2.48986e-10
 4.24384e-11 -0.000481696 1.11894e-11
 1.37093e-10 -0.000481693 6.41497e-11
 2.50688e-10 -0.000481699 -1.35259e-10
 5.56515e-11 -0.000481696 6.17778e-11
 1.88651e-10 -0.000481692 1.74328e-10
 1.53306e-10 -0.000481689 1.30902e-10
 1.58979e-10 -0.000481695 2.05716e-10
 1.74309e-10 -0.000481695 2.20864e-10
 2.02253e-10 -0.000481695 -4.09954e-11
 1.11506e-10 -0.000481695 2.62115e-11
 3.62359e-10 -0.000481698 -1.60107e-10
 3.69334e-10 -0.000481694 7.37962e-11
 2.01455e-10 -0.000481689 3.58301e-11
 1.80082e-10 -0.000481684 2.55464e-10
 2.06267e-10 -0.000481691 2.66067e-10
 1.74994e-10 -0.000481693 1.07092e-10
 5.10289e-11 -0.000481695 -1.30455e-11
 1.26253e-10 -0.000481697 -1.20329e-11
 4.85001e-10 -0.000481706 -1.39018e-10
 2.02645e-10 -0.000481701 5.90883e-11
 -1.0548e-11 -0.000481695 -1.59967e-11
 1.86688e-10 -0.00048169 1.69966e-10
 1.92355e-10 -0.000481694 3.43097e-10
 2.44143e-10 -0.000481695 1.35135e-10
 1.1647e-10 -0.000481696 -1.43585e-11
 2.39991e-10 -0.000481697 -5.37192e-11
 2.06755e-10 -0.000481701 -1.43075e-10
 4.40078e-10 -0.000481699 2.59501e-11
 2.63864e-10 -0.000481695 -2.79568e-11
 3.91124e-10 -0.000481692 2.57749e-10
 1.22006e-10 -0.000481695 1.4587e-10
 1.40468e-10 -0.000481696 7.40687e-11
 1.7773e-10 -0.000481697 4.96388e-11
 2.65951e-10 -0.000481698 7.62248e-11
 3.5059e-11 -0.000481697 1.11894e-11
 4.02951e-11 -0.000481696 -1.63235e-11
 2.38152e-10 -0.000481695 2.40763e-11
 -1.29398e-10 -0.000481695 7.96812e-11
 1.63876e-10 -0.000481695 1.21817e-10
 1.50622e-10 -0.000481697 2.98375e-10
 3.52643e-10 -0.000481699 1.47822e-11
 -5.62616e-11 -0.0004817 -1.00844e-10
 -2.02438e-10 -0.000481693 -7.60581e-11
 -3.83677e-11 -0.000481694 -6.04114e-11
 -3.86339e-11 -0.000481695 1.04374e-10
 -1.00145e-10 -0.000481697 2.26735e-10
 -6.71303e-11 -0.000481696 6.53875e-11
 -1.37121e-10 -0.000481698 2.61818e-11
 -1.41269e-10 -0.0004817 1.14742e-10
 -9.47035e-11 -0.000481702 6.04809e-12
 -4.06519e-11 0.000841745 -3.57107e-11
 -2.51878e-10 0.000841751 -8.87142e-12
 9.20011e-11 0.000841749 2.0447e-10
 -9.02563e-11 0.000841752 2.38378e-10
 -7.7945e-12 0.000841748 1.71921e-10
 7.75822e-11 0.000841752 2.76281e-11
 -2.33951e-10 0.000841752 4.48915e-11
 -3.08251e-10 0.000841753 -1.4781e-10
 -1.29579e-11 0.000841751 -9.56182e-11
 -5.04657e-11 0.00084175 5.17501e-11
 -4.85574e-11 0.000841753 1.74731e-10
 1.70593e-10 0.000841754 1.69416e-10
 1.88416e-10 0.00084175 2.15755e-10
 -6.62121e-12 0.000841754 6.36101e-11
 1.38846e-10 0.000841757 1.58036e-10
 -8.53388e-11 0.000841756 -1.51605e-10
 1.72767e-10 0.00084175 5.28314e-11
 2.49294e-10 0.000841754 4.92046e-11
 2.10031e-10 0.000841755 1.20043e-10
 1.40945e-10 0.000841759 1.18362e-10
 1.10978e-10 0.000841753 1.61191e-10
 1.78047e-10 0.000841755 2.12432e-10
 6.7922e-11 0.000841756 -2.30745e-11
 1.58131e-10 0.000841758 -1.3668e-11
 1.87104e-10 0.000841753 6.32319e-11
 2.60345e-10 0.000841755 9.76052e-11
 1.73884e-10 0.000841759 1.85048e-10
 5.69794e-11 0.000841763 1.36879e-10
 2.16083e-10 0.000841757 8.62063e-11
 1.55188e-10 0.000841757 1.0527e-10
 4.79653e-11 0.000841758 1.08263e-10
 2.18615e-10 0.000841759 -1.39207e-11
 4.20429e-10 0.000841748 7.50382e-11
 1.903e-10 0.00084175 1.31739e-10
 2.81458e-10 0.000841752 9.6391e-11
 1.49189e-10 0.000841756 2.49946e-10
 1.36375e-10 0.000841757 2.26647e-10
 1.1561e-10 0.000841755 1.69408e-10
 1.9125e-10 0.000841754 -7.26207e-11
 1.5593e-10 0.000841755 -2.26029e-11
 2.33063e-10 0.000841752 8.98775e-11
 1.65169e-10 0.000841754 6.96589e-11
 1.32282e-10 0.000841755 4.48823e-11
 1.84019e-10 0.000841757 1.42511e-10
 3.08813e-10 0.000841756 1.63025e-10
 8.5959e-11 0.000841757 8.94201e-11
 2.607e-10 0.000841754 1.14358e-10
 2.2081e-10 0.000841753 -1.14051e-10
 -5.47707e-11 0.000841751 -5.38603e-11
 2.5712e-10 0.000841757 9.26588e-11
 -3.84266e-11 0.000841756 8.19891e-11
 1.56053e-10 0.000841759 7.92087e-11
 -4.78644e-11 0.000841756 1.1528e-10
 7.6313e-12 0.000841755 1.08881e-10
 -3.8944e-11 0.000841753 -5.56517e-11
 -1.69126e-11 0.000841757 -2.31294e-11
 -1.27107e-10 0.000841753 -1.31302e-10
 -7.00826e-11 0.000841756 2.68568e-11
 -8.08884e-11 0.000841759 4.04474e-11
 -7.36876e-11 0.000841761 6.47566e-11
 -1.24485e-10 0.000841758 8.04409e-11
 1.50915e-11 0.000841755 -3.79451e-11
 4.25501e-11 0.000841758 4.1021e-11
 -1.86832e-11 0.000841754 6.89793e-12
 -1.75093e-10 -0.00112895 -1.01982e-10
 6.15494e-11 -0.00112893 3.05449e-11
 1.28174e-10 -0.00112894 1.11884e-10
 8.17124e-11 -0.00112893 6.62573e-11
 2.3268e-10 -0.00112893 -2.19909e-12
 -4.45386e-11 -0.00112893 3.89706e-11
 -6.94209e-11 -0.00112895 1.25146e-10
 -1.79502e-10 -0.00112895 -7.42151e-11
 -4.29548e-11 -0.00112893 1.54919e-12
 -2.7815e-11 -0.00112894 7.41514e-11
 3.78647e-12 -0.00112894 9.92842e-11
 2.39772e-10 -0.00112894 7.30513e-11
 1.12449e-10 -0.00112893 1.0063e-10
 5.65079e-11 -0.00112892 8.6471e-11
 5.50821e-11 -0.00112894 -7.69566e-11
 9.80599e-11 -0.00112895 9.33336e-11
 1.59535e-10 -0.00112894 1.21448e-10
 1.15182e-10 -0.00112894 1.58239e-10
 1.44094e-10 -0.00112894 1.63881e-10
 1.43712e-10 -0.00112895 1.31303e-10
 2.05805e-10 -0.00112893 -2.41962e-11
 2.33024e-10 -0.00112894 -1.27507e-11
 1.04522e-10 -0.00112895 1.48185e-10
 7.78212e-11 -0.00112896 2.22879e-11
 2.34028e-10 -0.00112893 2.40072e-10
 2.30896e-11 -0.00112894 1.82404e-10
 1.01309e-10 -0.00112895 1.5483e-10
 1.81233e-10 -0.00112897 8.51179e-11
 1.8551e-10 -0.00112893 1.36924e-10
 8.70348e-11 -0.00112895 3.51383e-11
 1.63111e-10 -0.00112895 1.37602e-10
 6.55244e-11 -0.00112896 -6.71627e-12
 2.41841e-10 -0.00112894 2.06954e-10
 1.22378e-10 -0.00112894 2.67363e-10
 2.37157e-10 -0.00112893 1.20149e-10
 1.08985e-10 -0.00112893 1.07388e-10
 2.00082e-10 -0.00112894 1.48813e-10
 2.18273e-10 -0.00112894 1.22115e-10
 1.39003e-10 -0.00112895 9.6418e-11
 8.84118e-12 -0.00112894 1.22034e-10
 2.19668e-10 -0.00112893 1.47922e-10
 1.5812e-10 -0.00112892 1.15189e-10
 1.87866e-10 -0.00112894 1.50595e-10
 2.47196e-10 -0.00112895 8.87239e-11
 -1.80054e-11 -0.00112894 1.87786e-11
 6.50698e-11 -0.00112894 3.06993e-11
 1.22383e-10 -0.00112895 8.54923e-11
 7.85262e-11 -0.00112895 9.10795e-11
 -8.41809e-11 -0.00112895 8.03874e-12
 1.71789e-10 -0.00112894 1.93566e-11
 -3.91988e-11 -0.00112895 4.76426e-12
 -1.46947e-10 -0.00112895 6.61669e-11
 7.57688e-11 -0.00112894 2.04033e-11
 2.37029e-10 -0.00112895 -5.44815e-11
 -4.06782e-11 -0.00112895 1.08301e-10
 -1.04995e-10 -0.00112893 9.32338e-11
 -1.47782e-10 -0.00112895 -5.22247e-11
 -1.00776e-10 -0.00112895 -8.37229e-11
 -1.21425e-10 -0.00112896 -9.02643e-11
 -9.56401e-11 -0.00112896 6.57088e-11
 -6.6969e-12 -0.00112894 5.46431e-11
 -1.99135e-10 -0.00112894 -7.21526e-11
 -1.54895e-10 -0.00112893 6.56712e-11
 -5.95229e-11 -0.00112894 -8.46714e-11
 -4.51974e-11 0.00115059 -1.98671e-10
 -1.47556e-10 0.0011506 -2.5768e-11
 2.30036e-11 0.0011506 9.87202e-12
 1.24011e-10 0.00115062 1.61469e-11
 1.18098e-10 0.0011506 6.37081e-11
 5.31962e-11 0.00115061 -7.67338e-11
 9.61077e-11 0.00115061 1.70152e-11
 -3.22719e-11 0.00115061 1.13926e-10
 -4.03518e-11 0.0011506 -3.03162e-12
 1.28494e-10 0.0011506 -4.74818e-11
 1.16537e-10 0.00115061 -8.42771e-12
 2.83183e-10 0.00115062 3.02442e-11
 2.35512e-10 0.00115061 9.40314e-11
 2.20169e-10 0.00115062 1.75808e-10
 6.05698e-11 0.00115062 2.14904e-10
 -1.25931e-10 0.00115062 -1.27728e-10
 1.43088e-10 0.0011506 1.69178e-10
 1.19061e-10 0.00115061 1.65051e-10
 1.45461e-10 0.00115062 1.13118e-10
 1.99856e-10 0.00115062 3.51065e-11
 2.63739e-10 0.00115061 -4.45992e-11
 1.41829e-10 0.00115061 4.97754e-11
 2.1301e-11 0.00115062 9.0027e-11
 -5.70965e-11 0.00115062 1.5976e-10
 2.14192e-11 0.00115062 3.97234e-10
 2.63455e-11 0.00115062 2.59193e-10
 2.12254e-12 0.00115062 1.69509e-10
 -2.52833e-11 0.00115062 1.1717e-10
 1.40379e-10 0.00115062 1.05081e-10
 1.9671e-12 0.00115062 1.0467e-10
 -2.12693e-12 0.00115062 1.25996e-10
 1.27683e-11 0.00115062 -1.32669e-10
 -2.72356e-11 0.0011506 3.64688e-10
 1.00677e-10 0.00115061 3.66512e-10
 3.30403e-11 0.00115061 2.80256e-10
 1.89214e-10 0.00115062 6.19625e-11
 2.1255e-10 0.00115062 2.04618e-10
 1.10997e-10 0.00115062 1.26282e-10
 6.86606e-11 0.00115062 2.08837e-10
 4.23601e-11 0.00115062 -1.12208e-10
 -8.41956e-11 0.00115061 1.79455e-10
 -5.5276e-11 0.00115062 2.08318e-10
 1.20455e-11 0.00115061 1.76141e-10
 4.38146e-11 0.00115062 1.0238e-10
 1.52774e-10 0.00115062 4.68269e-11
 3.47957e-11 0.00115062 1.55998e-10
 -4.27835e-11 0.00115061 3.79742e-11
 4.71649e-12 0.00115061 -6.02347e-11
 8.46844e-11 0.00115061 1.93944e-11
 3.1081e-10 0.00115062 1.32048e-10
 3.56592e-10 0.00115062 4.17883e-11
 7.15215e-11 0.00115062 -4.53073e-11
 1.27853e-10 0.00115062 7.65875e-11
 1.30734e-10 0.00115062 -8.47475e-12
 1.13333e-11 0.00115061 3.83663e-11
 -1.50449e-10 0.00115062 -6.14718e-11
 1.10666e-11 0.00115062 -8.34592e-11
 -1.6692e-10 0.00115062 -6.3514e-11
 -1.20701e-10 0.00115062 -3.12601e-11
 -6.60105e-11 0.00115062 -8.5375e-11
 -7.38414e-11 0.00115062 -1.53877e-10
 -1.80786e-11 0.00115062 -2.80347e-12
 -3.88261e-11 0.00115062 5.10615e-11
 -2.12085e-11 0.00115061 -9.19378e-11
 -1.74683e-10 0.0019582 -1.60158e-10
 3.77634e-11 0.00195818 -5.04338e-11
 1.42786e-10 0.00195819 3.67255e-11
 1.52111e-10 0.00195817 6.19148e-11
 2.64572e-10 0.00195822 4.45678e-11
 1.9769e-10 0.00195818 2.5851e-11
 9.14658e-11 0.00195818 1.99293e-10
 -9.1835e-11 0.00195815 -1.4471e-10
 3.67396e-11 0.00195818 -9.18774e-12
 1.11433e-10 0.00195819 6.73669e-11
 2.38525e-10 0.00195818 1.73672e-10
 2.54552e-10 0.00195816 9.22371e-11
 2.06251e-10 0.00195819 -5.58872e-11
 1.58641e-10 0.00195816 8.63629e-11
 9.4379e-11 0.00195817 1.07113e-10
 2.3284e-11 0.00195816 -1.03313e-11
 1.53974e-10 0.00195819 2.67215e-10
 6.39724e-11 0.00195818 1.93873e-10
 2.05628e-10 0.00195816 8.51903e-11
 2.08578e-10 0.00195814 7.69323e-11
 3.21324e-10 0.00195816 5.454e-11
 1.92953e-10 0.00195817 -1.0974e-11
 5.26814e-11 0.00195817 8.2706e-11
 2.55862e-11 0.00195817 1.39896e-10
 1.78757e-10 0.00195817 3.04438e-10
 9.18053e-11 0.00195816 3.88746e-10
 2.17808e-10 0.00195814 2.12509e-10
 2.76163e-10 0.00195813 1.73789e-10
 2.3122e-10 0.00195812 1.57027e-10
 2.36456e-10 0.00195815 1.21172e-10
 1.08292e-10 0.00195817 5.12172e-11
 3.56899e-11 0.00195819 -8.11172e-11
 1.27212e-10 0.00195822 3.34512e-10
 2.02123e-10 0.00195819 3.40799e-10
 1.54121e-10 0.00195816 2.05031e-10
 1.77924e-10 0.00195812 2.20315e-10
 1.50711e-10 0.00195816 1.27648e-10
 1.24607e-10 0.00195816 1.41275e-10
 4.44501e-11 0.00195816 2.01426e-10
 5.62455e-11 0.00195816 -1.0108e-10
 5.70522e-11 0.00195818 1.7934e-10
 2.37211e-10 0.00195816 2.339e-10
 2.20782e-10 0.00195817 2.08148e-10
 2.94172e-10 0.00195815 2.23641e-11
 1.36829e-10 0.00195816 1.14524e-10
 2.0273e-10 0.00195816 7.65067e-12
 1.19957e-10 0.00195817 9.43191e-11
 1.49143e-10 0.00195817 3.81574e-11
 2.31012e-12 0.00195817 3.33424e-11
 -7.58522e-11 0.00195816 4.01812e-11
 -7.1521e-13 0.00195817 8.97106e-11
 5.51497e-11 0.00195817 2.60902e-11
 2.4318e-10 0.00195816 4.17058e-11
 -5.10278e-11 0.00195817 -1.12211e-11
 1.03347e-10 0.00195818 1.29659e-10
 -5.22687e-11 0.00195817 -2.31358e-11
 8.64567e-11 0.00195814 -9.07928e-11
 1.08314e-10 0.00195815 -1.47641e-11
 -9.32493e-11 0.00195817 -3.72421e-11
 -2.37153e-11 0.00195819 -4.00345e-11
 -1.7285e-11 0.00195816 -6.21531e-11
 2.59632e-11 0.00195817 -1.88486e-11
 2.42195e-11 0.00195817 2.90218e-11
 4.41027e-11 0.00195817 -1.02541e-11
 -5.28485e-11 -0.00288262 -1.38152e-10
 6.00291e-11 -0.0028826 1.13392e-11
 1.43423e-10 -0.0028826 4.00874e-11
 1.85183e-10 -0.00288258 -1.3926e-11
 1.96809e-10 -0.0028826 -1.08728e-10
 1.36174e-10 -0.00288259 1.0073e-11
 5.7236e-11 -0.00288259 -1.30677e-10
 -2.43051e-11 -0.00288259 7.62865e-11
 2.08601e-12 -0.0028826 7.0215e-11
 5.49669e-11 -0.0028826 8.86338e-11
 1.20387e-10 -0.00288259 1.52138e-11
 1.91565e-10 -0.00288258 -1.06883e-10
 1.65237e-10 -0.0028826 -2.06126e-11
 1.47729e-10 -0.00288259 5.34181e-11
 8.70148e-12 -0.00288259 1.73504e-10
 -4.86007e-11 -0.00288259 -1.18954e-10
 2.01182e-11 -0.0028826 2.01441e-10
 1.00424e-10 -0.00288259 1.25957e-10
 8.6272e-11 -0.00288259 -1.95891e-11
 1.35272e-10 -0.00288258 9.09435e-11
 1.66907e-10 -0.00288259 8.43091e-11
 6.0339e-11 -0.00288259 -4.76998e-11
 3.31772e-11 -0.00288259 -9.64516e-12
 -1.2896e-11 -0.00288259 1.37127e-10
 2.70222e-11 -0.00288258 3.5327e-10
 -5.64645e-11 -0.00288258 2.01086e-10
 -3.46614e-11 -0.00288258 1.31096e-10
 6.70102e-11 -0.00288258 1.16532e-10
 1.65126e-10 -0.00288258 1.3052e-11
 1.34621e-10 -0.00288258 -1.03609e-11
 -2.35133e-11 -0.00288258 1.2911e-10
 -9.40929e-12 -0.00288259 3.73833e-11
 -1.09003e-10 -0.0028826 2.89664e-10
 -2.35802e-11 -0.0028826 2.53686e-10
 2.74066e-11 -0.00288259 1.41351e-10
 6.68431e-11 -0.00288258 4.90524e-11
 8.07148e-11 -0.00288259 1.07962e-10
 1.52783e-11 -0.00288259 1.8568e-10
 8.31452e-11 -0.00288258 1.43207e-10
 4.21802e-12 -0.00288258 -6.40539e-11
 -6.15576e-12 -0.00288259 1.91193e-10
 -7.54055e-12 -0.00288259 2.40527e-10
 1.02955e-10 -0.00288259 5.71434e-11
 7.52337e-11 -0.00288258 1.27432e-10
 1.61393e-10 -0.00288259 2.76472e-12
 2.76202e-11 -0.00288258 7.94829e-11
 2.71542e-11 -0.00288259 1.00292e-11
 6.82475e-11 -0.00288259 -7.79246e-11
 9.00919e-12 -0.00288259 4.64363e-11
 5.97959e-11 -0.00288259 2.72331e-11
 5.6104e-11 -0.00288259 4.47492e-11
 7.78471e-11 -0.00288258 -1.06528e-11
 -4.43576e-11 -0.00288259 6.81406e-12
 8.45335e-11 -0.00288259 4.46218e-11
 8.19262e-11 -0.00288259 6.70101e-11
 -7.59042e-11 -0.00288258 -7.09492e-11
 9.79094e-11 -0.00288258 -9.75443e-11
 5.16714e-11 -0.00288258 -1.472e-11
 -1.14533e-11 -0.00288259 -1.44552e-10
 -5.7412e-11 -0.00288259 -2.40239e-11
 -1.75425e-11 -0.00288258 -5.59335e-11
 -5.14645e-11 -0.00288259 -7.45697e-11
 -3.20708e-11 -0.00288259 2.55503e-11
 1.49468e-11 -0.00288259 6.50433e-11
 -8.91531e-11 -0.000592512 -7.59671e-11
 2.14755e-11 -0.00059252 -4.50562e-11
 1.06084e-10 -0.000592518 -1.31508e-10
 2.077e-10 -0.000592519 -1.2373e-10
 1.50942e-10 -0.000592545 -1.30789e-10
 1.03588e-10 -0.000592523 -1.58824e-10
 5.97215e-11 -0.000592498 3.05578e-11
 -5.1277e-11 -0.000592472 1.63273e-10
 -7.73753e-12 -0.000592522 1.5395e-11
 1.80575e-11 -0.000592513 -1.47217e-11
 5.18066e-11 -0.000592511 -7.97758e-12
 1.17887e-10 -0.000592502 -1.11543e-10
 1.19716e-10 -0.000592523 -2.91015e-12
 7.73961e-11 -0.000592511 -1.25152e-10
 2.96497e-11 -0.000592507 3.97007e-11
 -1.43673e-11 -0.000592486 1.19073e-10
 -4.9766e-11 -0.000592521 1.56786e-10
 -2.20043e-11 -0.000592514 1.58043e-10
 5.83091e-11 -0.000592497 6.94661e-11
 -9.66671e-11 -0.00059249 -1.20319e-10
 -4.919e-11 -0.000592501 -8.76616e-11
 3.65279e-11 -0.000592505 1.11317e-10
 -3.97095e-11 -0.0005925 1.02933e-10
 -1.80096e-11 -0.000592504 -9.45807e-11
 -1.71018e-10 -0.000592524 2.94358e-10
 3.056e-12 -0.000592505 3.21576e-10
 -8.24242e-11 -0.000592492 7.31978e-11
 -5.77359e-12 -0.000592478 -4.24238e-11
 8.84734e-11 -0.000592486 7.19648e-11
 -1.31641e-10 -0.000592495 -2.30384e-11
 -1.68892e-11 -0.000592504 -1.06537e-10
 -5.79175e-11 -0.000592516 9.06219e-11
 -6.00876e-11 -0.000592549 2.59541e-10
 -1.03642e-10 -0.000592525 1.88636e-10
 -1.23118e-10 -0.000592501 1.67988e-10
 4.24665e-11 -0.000592484 1.45006e-10
 2.30547e-11 -0.00059251 6.28461e-11
 9.37251e-12 -0.000592501 -3.78072e-11
 -8.29642e-11 -0.0005925 5.0363e-11
 -6.50584e-11 -0.000592501 -2.67006e-11
 1.72509e-11 -0.000592527 2.13234e-10
 -5.46981e-11 -0.000592513 1.70318e-10
 6.35415e-12 -0.000592505 9.0178e-11
 -5.56385e-11 -0.000592493 -5.67418e-11
 1.46067e-11 -0.000592501 -9.69805e-12
 -5.2483e-11 -0.000592504 3.01274e-11
 1.8074e-11 -0.000592499 7.71282e-11
 -3.11725e-11 -0.000592497 -1.02022e-10
 -6.44001e-11 -0.000592501 9.61078e-11
 -3.72572e-11 -0.000592509 8.64326e-11
 -7.16017e-11 -0.000592501 -4.54411e-11
 -5.85457e-11 -0.000592503 -6.81175e-11
 4.86573e-11 -0.000592501 -4.32666e-11
 1.29921e-12 -0.000592499 -1.02199e-10
 -6.82815e-11 -0.000592501 1.32334e-11
 5.49643e-12 -0.000592509 7.84335e-11
 2.19217e-11 -0.000592474 -7.32245e-11
 -2.42388e-11 -0.000592489 -2.02506e-11
 5.93841e-11 -0.000592505 -9.0358e-11
 5.71036e-11 -0.000592517 -3.82517e-11
 -6.23869e-11 -0.000592501 -4.12743e-11
 7.64898e-11 -0.000592497 -8.88978e-11
 7.66805e-12 -0.000592511 -9.81885e-11
 -7.36317e-11 -0.000592502 6.83146e-11
 -5.3407e-11 0.00120899 -6.89328e-11
 -1.00363e-10 0.00120897 -4.10503e-11
 7.36764e-11 0.00120895 -6.5238e-12
 1.19165e-10 0.00120892 -1.65285e-10
 7.26572e-11 0.00120892 -1.70447e-10
 6.46811e-11 0.00120894 -1.7873e-10
 5.23338e-11 0.00120896 -6.11988e-11
 -2.46407e-11 0.00120897 3.82372e-11
 -2.83337e-13 0.00120897 7.60059e-11
 -1.02755e-10 0.00120896 -2.45728e-11
 7.07091e-12 0.00120895 -2.30062e-10
 2.51662e-11 0.00120895 7.70032e-12
 3.61308e-11 0.00120894 -1.00564e-10
 -2.98433e-11 0.00120896 -5.72936e-11
 -2.5595e-11 0.00120895 -9.48449e-11
 -1.03269e-10 0.00120896 1.33452e-10
 -1.87763e-10 0.00120896 4.17017e-11
 -5.37193e-11 0.00120896 8.27556e-11
 -6.13058e-11 0.00120897 -1.25872e-10
 -1.09164e-10 0.00120897 -1.05541e-11
 -1.55426e-10 0.00120896 2.15362e-11
 -4.77365e-11 0.00120896 3.27654e-11
 6.10586e-12 0.00120895 -1.21538e-10
 -3.62594e-11 0.00120895 1.52429e-10
 -1.19435e-10 0.00120892 3.15272e-10
 -2.48737e-10 0.00120895 2.31194e-10
 -2.39193e-10 0.00120897 3.09844e-11
 3.19789e-11 0.00120899 -7.0303e-12
 -4.26301e-11 0.00120897 -1.58407e-11
 -2.15239e-10 0.00120896 -3.94638e-11
 -1.12406e-10 0.00120895 -1.29306e-10
 -1.14731e-10 0.00120894 5.10463e-11
 -1.6644e-10 0.00120892 2.76578e-10
 -1.93821e-10 0.00120894 1.9224e-10
 -9.56023e-11 0.00120896 -7.42675e-11
 -7.4113e-11 0.00120897 5.30613e-12
 -5.25696e-11 0.00120895 7.50306e-11
 -7.0586e-11 0.00120895 6.38648e-11
 -7.2274e-11 0.00120895 -8.25377e-11
 -1.40333e-10 0.00120894 1.06336e-10
 -1.65188e-10 0.00120895 1.39831e-10
 -8.19832e-11 0.00120896 8.60275e-11
 -1.17419e-10 0.00120896 4.57541e-11
 -1.51979e-10 0.00120896 -6.83608e-11
 -2.71362e-11 0.00120895 -1.40536e-11
 -5.2497e-11 0.00120895 -1.60474e-11
 -5.32951e-11 0.00120894 -1.05278e-10
 -5.92296e-11 0.00120895 1.62598e-10
 -1.49623e-10 0.00120897 1.29258e-10
 -1.00853e-11 0.00120895 3.7165e-11
 7.50484e-11 0.00120896 -1.80864e-10
 -3.41396e-11 0.00120895 -1.45793e-10
 9.4339e-11 0.00120895 -4.04102e-11
 -3.1046e-11 0.00120895 -2.66752e-11
 -6.63669e-11 0.00120895 2.59186e-11
 -4.86415e-11 0.00120895 9.96184e-11
 1.12984e-10 0.00120897 -7.46019e-11
 2.27108e-10 0.00120897 -3.31367e-11
 -4.22347e-11 0.00120896 -4.68084e-11
 -4.23808e-11 0.00120894 -1.09268e-10
 -4.17672e-11 0.00120896 -6.87954e-11
 1.40835e-10 0.00120895 3.13e-11
 -9.51538e-11 0.00120895 -6.40628e-11
 3.53832e-11 0.00120896 -6.83794e-11
 3.66751e-11 -0.00173391 -8.40766e-11
 8.28159e-11 -0.00173394 3.94519e-11
 1.12403e-10 -0.00173395 1.27488e-11
 1.85258e-10 -0.00173398 -1.60273e-10
 1.31009e-10 -0.00173393 2.05706e-11
 1.20869e-10 -0.00173396 -5.47138e-11
 3.78336e-11 -0.00173398 3.77257e-11
 4.62661e-11 -0.00173401 4.92698e-11
 4.16974e-11 -0.00173394 1.23405e-10
 5.38403e-11 -0.00173396 1.20561e-10
 8.8241e-11 -0.00173397 2.37137e-11
 1.42396e-10 -0.001734 1.55573e-13
 1.58473e-10 -0.00173396 -1.3101e-10
 5.10456e-11 -0.00173397 9.41815e-11
 6.76336e-11 -0.00173399 5.81708e-13
 2.11518e-11 -0.00173401 -3.01811e-11
 -5.89711e-12 -0.00173395 2.53911e-10
 -3.35753e-11 -0.00173397 1.76658e-10
 8.55987e-11 -0.00173399 9.70734e-11
 -1.04008e-10 -0.00173402 -4.2791e-11
 5.75559e-11 -0.00173398 -7.68341e-11