<?xml version="1.0"?>
<VTKFile type="UnstructuredGrid" version="0.1" byte_order="LittleEndian" compressor="vtkZLibDataCompressor">
<UnstructuredGrid>
<Piece NumberOfPoints="960" NumberOfCells="120">
<Points>
<DataArray type="Float32" NumberOfComponents="3" format="ascii">
-4.000000e+02 -6.000000e+03 -4.000000e+02
0.000000e+00 -6.000000e+03 -4.000000e+02
-4.000000e+02 -5.600150e+03 -4.000000e+02
4.318400e-11 -5.600150e+03 -4.000000e+02
-4.000000e+02 -6.000000e+03 0.000000e+00
0.000000e+00 -6.000000e+03 0.000000e+00
-4.000000e+02 -5.600150e+03 8.884230e-10
1.591750e-10 -5.600150e+03 1.205360e-09
0.000000e+00 -6.000000e+03 -4.000000e+02
4.000000e+02 -6.000000e+03 -4.000000e+02
4.318400e-11 -5.600150e+03 -4.000000e+02
4.000000e+02 -5.600150e+03 -4.000000e+02
0.000000e+00 -6.000000e+03 0.000000e+00
4.000000e+02 -6.000000e+03 0.000000e+00
1.591750e-10 -5.600150e+03 1.205360e-09
4.000000e+02 -5.600150e+03 8.893000e-10
-4.000000e+02 -5.600150e+03 -4.000000e+02
4.318400e-11 -5.600150e+03 -4.000000e+02
-4.000000e+02 -5.200240e+03 -4.000000e+02
-7.266500e-10 -5.200240e+03 -4.000000e+02
-4.000000e+02 -5.600150e+03 8.884230e-10
1.591750e-10 -5.600150e+03 1.205360e-09
-4.000000e+02 -5.200240e+03 1.672830e-09
1.910950e-10 -5.200240e+03 1.606340e-09
4.318400e-11 -5.600150e+03 -4.000000e+02
4.000000e+02 -5.600150e+03 -4.000000e+02
-7.266500e-10 -5.200240e+03 -4.000000e+02
4.000000e+02 -5.200240e+03 -4.000000e+02
1.591750e-10 -5.600150e+03 1.205360e-09
4.000000e+02 -5.600150e+03 8.893000e-10
1.910950e-10 -5.200240e+03 1.606340e-09
4.000000e+02 -5.200240e+03 1.472110e-09
-4.000000e+02 -5.200240e+03 -4.000000e+02
-7.266500e-10 -5.200240e+03 -4.000000e+02
-4.000000e+02 -4.800270e+03 -4.000000e+02
-1.640760e-09 -4.800270e+03 -4.000000e+02
-4.000000e+02 -5.200240e+03 1.672830e-09
1.910950e-10 -5.200240e+03 1.606340e-09
-4.000000e+02 -4.800270e+03 1.575780e-09
-6.677970e-10 -4.800270e+03 1.000810e-09
-7.266500e-10 -5.200240e+03 -4.000000e+02
4.000000e+02 -5.200240e+03 -4.000000e+02
-1.640760e-09 -4.800270e+03 -4.000000e+02
4.000000e+02 -4.800270e+03 -4.000000e+02
1.910950e-10 -5.200240e+03 1.606340e-09
4.000000e+02 -5.200240e+03 1.472110e-09
-6.677970e-10 -4.800270e+03 1.000810e-09
4.000000e+02 -4.800270e+03 3.797050e-10
-4.000000e+02 -4.800270e+03 -4.000000e+02
-1.640760e-09 -4.800270e+03 -4.000000e+02
-4.000000e+02 -4.400260e+03 -4.000000e+02
-8.141190e-10 -4.400260e+03 -4.000000e+02
-4.000000e+02 -4.800270e+03 1.575780e-09
-6.677970e-10 -4.800270e+03 1.000810e-09
-4.000000e+02 -4.400260e+03 2.210590e-09
-1.567820e-09 -4.400260e+03 5.389300e-10
-1.640760e-09 -4.800270e+03 -4.000000e+02
4.000000e+02 -4.800270e+03 -4.000000e+02
-8.141190e-10 -4.400260e+03 -4.000000e+02
4.000000e+02 -4.400260e+03 -4.000000e+02
-6.677970e-10 -4.800270e+03 1.000810e-09
4.000000e+02 -4.800270e+03 3.797050e-10
-1.567820e-09 -4.400260e+03 5.389300e-10
4.000000e+02 -4.400260e+03 -5.569460e-10
-4.000000e+02 -4.400260e+03 -4.000000e+02
-8.141190e-10 -4.400260e+03 -4.000000e+02
-4.000000e+02 -4.000270e+03 -4.000000e+02
-2.916110e-10 -4.000270e+03 -4.000000e+02
-4.000000e+02 -4.400260e+03 2.210590e-09
-1.567820e-09 -4.400260e+03 5.389300e-10
-4.000000e+02 -4.000270e+03 1.911490e-09
-4.983120e-10 -4.000270e+03 1.388410e-09
-8.141190e-10 -4.400260e+03 -4.000000e+02
4.000000e+02 -4.400260e+03 -4.000000e+02
-2.916110e-10 -4.000270e+03 -4.000000e+02
4.000000e+02 -4.000270e+03 -4.000000e+02
-1.567820e-09 -4.400260e+03 5.389300e-10
4.000000e+02 -4.400260e+03 -5.569460e-10
-4.983120e-10 -4.000270e+03 1.388410e-09
4.000000e+02 -4.000270e+03 1.133760e-09
-4.000000e+02 -4.000270e+03 -4.000000e+02
-2.916110e-10 -4.000270e+03 -4.000000e+02
-4.000000e+02 -3.600290e+03 -4.000000e+02
-8.787710e-10 -3.600290e+03 -4.000000e+02
-4.000000e+02 -4.000270e+03 1.911490e-09
-4.983120e-10 -4.000270e+03 1.388410e-09
-4.000000e+02 -3.600290e+03 -2.038860e-10
-4.042310e-10 -3.600290e+03 4.776500e-10
-2.916110e-10 -4.000270e+03 -4.000000e+02
4.000000e+02 -4.000270e+03 -4.000000e+02
-8.787710e-10 -3.600290e+03 -4.000000e+02
4.000000e+02 -3.600290e+03 -4.000000e+02
-4.983120e-10 -4.000270e+03 1.388410e-09
4.000000e+02 -4.000270e+03 1.133760e-09
-4.042310e-10 -3.600290e+03 4.776500e-10
4.000000e+02 -3.600290e+03 1.956350e-10
-4.000000e+02 -3.600290e+03 -4.000000e+02
-8.787710e-10 -3.600290e+03 -4.000000e+02
-4.000000e+02 -3.200300e+03 -4.000000e+02
-5.567140e-10 -3.200300e+03 -4.000000e+02
-4.000000e+02 -3.600290e+03 -2.038860e-10
-4.042310e-10 -3.600290e+03 4.776500e-10
-4.000000e+02 -3.200300e+03 -5.550270e-10
-4.023610e-10 -3.200300e+03 2.157890e-10
-8.787710e-10 -3.600290e+03 -4.000000e+02
4.000000e+02 -3.600290e+03 -4.000000e+02
-5.567140e-10 -3.200300e+03 -4.000000e+02
4.000000e+02 -3.200300e+03 -4.000000e+02
-4.042310e-10 -3.600290e+03 4.776500e-10
4.000000e+02 -3.600290e+03 1.956350e-10
-4.023610e-10 -3.200300e+03 2.157890e-10
4.000000e+02 -3.200300e+03 1.902140e-10
-4.000000e+02 -3.200300e+03 -4.000000e+02
-5.567140e-10 -3.200300e+03 -4.000000e+02
-4.000000e+02 -2.800290e+03 -4.000000e+02
-1.894170e-10 -2.800290e+03 -4.000000e+02
-4.000000e+02 -3.200300e+03 -5.550270e-10
-4.023610e-10 -3.200300e+03 2.157890e-10
-4.000000e+02 -2.800290e+03 4.246220e-10
-4.010410e-10 -2.800290e+03 1.969750e-10
-5.567140e-10 -3.200300e+03 -4.000000e+02
4.000000e+02 -3.200300e+03 -4.000000e+02
-1.894170e-10 -2.800290e+03 -4.000000e+02
4.000000e+02 -2.800290e+03 -4.000000e+02
-4.023610e-10 -3.200300e+03 2.157890e-10
4.000000e+02 -3.200300e+03 1.902140e-10
-4.010410e-10 -2.800290e+03 1.969750e-10
4.000000e+02 -2.800290e+03 7.646470e-10
-4.000000e+02 -2.800290e+03 -4.000000e+02
-1.894170e-10 -2.800290e+03 -4.000000e+02
-4.000000e+02 -2.400290e+03 -4.000000e+02
-6.911190e-10 -2.400290e+03 -4.000000e+02
-4.000000e+02 -2.800290e+03 4.246220e-10
-4.010410e-10 -2.800290e+03 1.969750e-10
-4.000000e+02 -2.400290e+03 -1.397630e-10
-4.026750e-10 -2.400290e+03 2.548720e-10
-1.894170e-10 -2.800290e+03 -4.000000e+02
4.000000e+02 -2.800290e+03 -4.000000e+02
-6.911190e-10 -2.400290e+03 -4.000000e+02
4.000000e+02 -2.400290e+03 -4.000000e+02
-4.010410e-10 -2.800290e+03 1.969750e-10
4.000000e+02 -2.800290e+03 7.646470e-10
-4.026750e-10 -2.400290e+03 2.548720e-10
4.000000e+02 -2.400290e+03 -5.376160e-11
-4.000000e+02 -2.400290e+03 -4.000000e+02
-6.911190e-10 -2.400290e+03 -4.000000e+02
-4.000000e+02 -2.000300e+03 -4.000000e+02
-5.145910e-10 -2.000300e+03 -4.000000e+02
-4.000000e+02 -2.400290e+03 -1.397630e-10
-4.026750e-10 -2.400290e+03 2.548720e-10
-4.000000e+02 -2.000300e+03 -2.735940e-10
-2.708430e-10 -2.000300e+03 9.183640e-11
-6.911190e-10 -2.400290e+03 -4.000000e+02
4.000000e+02 -2.400290e+03 -4.000000e+02
-5.145910e-10 -2.000300e+03 -4.000000e+02
4.000000e+02 -2.000300e+03 -4.000000e+02
-4.026750e-10 -2.400290e+03 2.548720e-10
4.000000e+02 -2.400290e+03 -5.376160e-11
-2.708430e-10 -2.000300e+03 9.183640e-11
4.000000e+02 -2.000300e+03 -4.256260e-10
-4.000000e+02 -2.000300e+03 -4.000000e+02
-5.145910e-10 -2.000300e+03 -4.000000e+02
-4.000000e+02 -1.600300e+03 -4.000000e+02
2.876900e-10 -1.600300e+03 -4.000000e+02
-4.000000e+02 -2.000300e+03 -2.735940e-10
-2.708430e-10 -2.000300e+03 9.183640e-11
-4.000000e+02 -1.600300e+03 8.474710e-10
7.756050e-10 -1.600300e+03 8.501600e-11
-5.145910e-10 -2.000300e+03 -4.000000e+02
4.000000e+02 -2.000300e+03 -4.000000e+02
2.876900e-10 -1.600300e+03 -4.000000e+02
4.000000e+02 -1.600300e+03 -4.000000e+02
-2.708430e-10 -2.000300e+03 9.183640e-11
4.000000e+02 -2.000300e+03 -4.256260e-10
7.756050e-10 -1.600300e+03 8.501600e-11
4.000000e+02 -1.600300e+03 4.009110e-11
-4.000000e+02 -1.600300e+03 -4.000000e+02
2.876900e-10 -1.600300e+03 -4.000000e+02
-4.000000e+02 -1.200300e+03 -4.000000e+02
4.492670e-11 -1.200300e+03 -4.000000e+02
-4.000000e+02 -1.600300e+03 8.474710e-10
7.756050e-10 -1.600300e+03 8.501600e-11
-4.000000e+02 -1.200300e+03 -8.544160e-11
6.232500e-10 -1.200300e+03 -3.560510e-10
2.876900e-10 -1.600300e+03 -4.000000e+02
4.000000e+02 -1.600300e+03 -4.000000e+02
4.492670e-11 -1.200300e+03 -4.000000e+02
4.000000e+02 -1.200300e+03 -4.000000e+02
7.756050e-10 -1.600300e+03 8.501600e-11
4.000000e+02 -1.600300e+03 4.009110e-11
6.232500e-10 -1.200300e+03 -3.560510e-10
4.000000e+02 -1.200300e+03 -5.320510e-10
-4.000000e+02 -1.200300e+03 -4.000000e+02
4.492670e-11 -1.200300e+03 -4.000000e+02
-4.000000e+02 -8.002970e+02 -4.000000e+02
-7.211080e-10 -8.002970e+02 -4.000000e+02
-4.000000e+02 -1.200300e+03 -8.544160e-11
6.232500e-10 -1.200300e+03 -3.560510e-10
-4.000000e+02 -8.002970e+02 -1.794620e-10
-2.377330e-10 -8.002970e+02 -2.744580e-10
4.492670e-11 -1.200300e+03 -4.000000e+02
4.000000e+02 -1.200300e+03 -4.000000e+02
-7.211080e-10 -8.002970e+02 -4.000000e+02
4.000000e+02 -8.002970e+02 -4.000000e+02
6.232500e-10 -1.200300e+03 -3.560510e-10
4.000000e+02 -1.200300e+03 -5.320510e-10
-2.377330e-10 -8.002970e+02 -2.744580e-10
4.000000e+02 -8.002970e+02 -2.885600e-10
-4.000000e+02 -8.002970e+02 -4.000000e+02
-7.211080e-10 -8.002970e+02 -4.000000e+02
-4.000000e+02 -4.002970e+02 -4.000000e+02
-2.233550e-11 -4.002970e+02 -4.000000e+02
-4.000000e+02 -8.002970e+02 -1.794620e-10
-2.377330e-10 -8.002970e+02 -2.744580e-10
-4.000000e+02 -4.002970e+02 -5.160040e-10
-6.208290e-10 -4.002970e+02 -1.047510e-11
-7.211080e-10 -8.002970e+02 -4.000000e+02
4.000000e+02 -8.002970e+02 -4.000000e+02
-2.233550e-11 -4.002970e+02 -4.000000e+02
4.000000e+02 -4.002970e+02 -4.000000e+02
-2.377330e-10 -8.002970e+02 -2.744580e-10
4.000000e+02 -8.002970e+02 -2.885600e-10
-6.208290e-10 -4.002970e+02 -1.047510e-11
4.000000e+02 -4.002970e+02 1.395780e-10
-4.000000e+02 -4.002970e+02 -4.000000e+02
-2.233550e-11 -4.002970e+02 -4.000000e+02
-4.000000e+02 -2.967330e-01 -4.000000e+02
2.401340e-10 -2.967330e-01 -4.000000e+02
-4.000000e+02 -4.002970e+02 -5.160040e-10
-6.208290e-10 -4.002970e+02 -1.047510e-11
-4.000000e+02 -2.967330e-01 8.168620e-11
-2.798940e-10 -2.967330e-01 2.478130e-11
-2.233550e-11 -4.002970e+02 -4.000000e+02
4.000000e+02 -4.002970e+02 -4.000000e+02
2.401340e-10 -2.967330e-01 -4.000000e+02
[...]
<PointData>
<DataArray type="Float32" Name="V1" format="ascii">
0.000000e+00
0.000000e+00
-2.356690e-10
-6.838630e-10
0.000000e+00
0.000000e+00
-9.426750e-10
4.701190e-10
0.000000e+00
0.000000e+00
-6.838630e-10
-2.828030e-10
0.000000e+00
0.000000e+00
4.701190e-10
4.399150e-10
-2.356690e-10
-6.838630e-10
-6.284500e-10
-6.626800e-10
-9.426750e-10
4.701190e-10
1.901060e-09
-1.860540e-10
-6.838630e-10
-2.828030e-10
-6.626800e-10
-1.099790e-10
4.701190e-10
4.399150e-10
-1.860540e-10
-7.070060e-10
-6.284500e-10
-6.626800e-10
-1.256900e-10
-8.841010e-10
1.901060e-09
-1.860540e-10
0.000000e+00
8.357770e-10
-6.626800e-10
-1.099790e-10
-8.841010e-10
4.242040e-10
-1.860540e-10
-7.070060e-10
8.357770e-10
1.571130e-10
-1.256900e-10
-8.841010e-10
3.142250e-10
6.043950e-10
0.000000e+00
8.357770e-10
-4.399150e-10
-5.098670e-10
-8.841010e-10
4.242040e-10
6.043950e-10
2.199580e-09
8.357770e-10
1.571130e-10
-5.098670e-10
-1.084080e-09
3.142250e-10
6.043950e-10
1.382590e-09
2.603770e-10
-4.399150e-10
-5.098670e-10
0.000000e+00
4.498080e-11
6.043950e-10
2.199580e-09
2.603770e-10
-1.225480e-09
-5.098670e-10
-1.084080e-09
4.498080e-11
-6.284500e-10
1.382590e-09
2.603770e-10
-5.498940e-10
8.882040e-10
0.000000e+00
4.498080e-11
-1.068370e-09
-1.379160e-10
2.603770e-10
-1.225480e-09
8.882040e-10
4.713380e-10
4.498080e-11
-6.284500e-10
-1.379160e-10
-1.728240e-10
-5.498940e-10
8.882040e-10
7.070060e-10
-2.174950e-10
-1.068370e-09
-1.379160e-10
-1.571130e-09
5.096760e-11
8.882040e-10
4.713380e-10
-2.174950e-10
-2.985140e-10
-1.379160e-10
-1.728240e-10
5.096760e-11
5.184710e-10
7.070060e-10
-2.174950e-10
3.142250e-11
1.321180e-09
-1.571130e-09
5.096760e-11
0.000000e+00
5.068840e-10
-2.174950e-10
-2.985140e-10
1.321180e-09
-1.382590e-09
5.096760e-11
5.184710e-10
5.068840e-10
0.000000e+00
3.142250e-11
1.321180e-09
1.445440e-09
1.447040e-10
0.000000e+00
5.068840e-10
0.000000e+00
-6.045900e-10
1.321180e-09
-1.382590e-09
1.447040e-10
-3.142250e-10
5.068840e-10
0.000000e+00
-6.045900e-10
0.000000e+00
1.445440e-09
1.447040e-10
2.828030e-10
-2.800800e-10
0.000000e+00
-6.045900e-10
-1.665390e-09
-7.372670e-10
1.447040e-10
-3.142250e-10
-2.800800e-10
-1.963910e-09
-6.045900e-10
0.000000e+00
-7.372670e-10
0.000000e+00
2.828030e-10
-2.800800e-10
-2.985140e-10
1.095270e-09
-1.665390e-09
-7.372670e-10
6.284500e-10
4.941140e-10
-2.800800e-10
-1.963910e-09
1.095270e-09
-3.142250e-11
-7.372670e-10
0.000000e+00
4.941140e-10
-7.541400e-10
-2.985140e-10
1.095270e-09
2.199580e-10
1.856670e-09
6.284500e-10
4.941140e-10
8.484080e-10
3.998930e-10
1.095270e-09
-3.142250e-11
1.856670e-09
-3.456480e-10
4.941140e-10
-7.541400e-10
3.998930e-10
9.583870e-10
2.199580e-10
1.856670e-09
0.000000e+00
-3.422290e-10
8.484080e-10
3.998930e-10
0.000000e+00
1.161580e-09
1.856670e-09
-3.456480e-10
-3.422290e-10
1.901060e-09
3.998930e-10
9.583870e-10
1.161580e-09
-2.199580e-10
0.000000e+00
-3.422290e-10
0.000000e+00
-3.141110e-10
0.000000e+00
1.161580e-09
0.000000e+00
-2.654640e-10
-3.422290e-10
1.901060e-09
-3.141110e-10
-2.466670e-09
1.161580e-09
-2.199580e-10
-2.654640e-10
-2.985140e-10
0.000000e+00
-3.141110e-10
-8.012740e-10
2.194790e-10
0.000000e+00
-2.654640e-10
2.513800e-10
-5.923000e-10
-3.141110e-10
-2.466670e-09
2.194790e-10
1.099790e-10
-2.654640e-10
-2.985140e-10
-5.923000e-10
-4.242040e-10
-8.012740e-10
2.194790e-10
4.556260e-10
8.990910e-10
2.513800e-10
-5.923000e-10
0.000000e+00
-5.510900e-12
2.194790e-10
1.099790e-10
8.990910e-10
-2.513800e-10
-5.923000e-10
-4.242040e-10
-5.510900e-12
6.127390e-10
4.556260e-10
8.990910e-10
-9.426750e-10
-5.211210e-10
0.000000e+00
-5.510900e-12
0.000000e+00
3.566850e-10
8.990910e-10
-2.513800e-10
-5.211210e-10
-6.912950e-10
-5.510900e-12
6.127390e-10
3.566850e-10
-7.541400e-10
-9.426750e-10
-5.211210e-10
0.000000e+00
5.924300e-10
0.000000e+00
3.566850e-10
0.000000e+00
3.141020e-10
-5.211210e-10
-6.912950e-10
5.924300e-10
0.000000e+00
3.566850e-10
-7.541400e-10
3.141020e-10
-3.142250e-10
0.000000e+00
5.924300e-10
1.366880e-09
3.642600e-10
0.000000e+00
3.141020e-10
0.000000e+00
5.337990e-10
5.924300e-10
0.000000e+00
3.642600e-10
-3.613590e-10
3.141020e-10
-3.142250e-10
5.337990e-10
-4.870490e-10
1.366880e-09
3.642600e-10
-1.131210e-09
-3.047310e-10
0.000000e+00
5.337990e-10
-2.513800e-10
-1.984910e-10
3.642600e-10
-3.613590e-10
-3.047310e-10
5.970280e-10
5.337990e-10
-4.870490e-10
-1.984910e-10
0.000000e+00
-1.131210e-09
-3.047310e-10
0.000000e+00
1.896590e-11
-2.513800e-10
-1.984910e-10
2.985140e-10
-6.733220e-11
-3.047310e-10
5.970280e-10
1.896590e-11
1.571130e-11
-1.984910e-10
0.000000e+00
-6.733220e-11
-5.027600e-10
0.000000e+00
1.896590e-11
1.194060e-09
4.547960e-10
2.985140e-10
-6.733220e-11
-3.927810e-10
-3.592070e-10
1.896590e-11
1.571130e-11
4.547960e-10
0.000000e+00
-6.733220e-11
-5.027600e-10
-3.592070e-10
-3.299360e-10
1.194060e-09
4.547960e-10
-8.326970e-10
-2.557680e-10
-3.927810e-10
-3.592070e-10
0.000000e+00
2.410040e-11
4.547960e-10
0.000000e+00
-2.557680e-10
2.670910e-10
-3.592070e-10
-3.299360e-10
2.410040e-11
0.000000e+00
-8.326970e-10
-2.557680e-10
-1.571130e-11
-2.042330e-10
0.000000e+00
2.410040e-11
-5.498940e-10
-1.952510e-10
-2.557680e-10
2.670910e-10
-2.042330e-10
-4.870490e-10
2.410040e-11
0.000000e+00
-1.952510e-10
1.414010e-10
-1.571130e-11
-2.042330e-10
1.791080e-09
8.544980e-10
-5.498940e-10
-1.952510e-10
-1.885350e-10
-5.372180e-10
-2.042330e-10
-4.870490e-10
8.544980e-10
0.000000e+00
-1.952510e-10
1.414010e-10
-5.372180e-10
-8.798300e-10
1.791080e-09
8.544980e-10
-1.853930e-09
-6.470760e-10
-1.885350e-10
-5.372180e-10
7.541400e-10
9.967500e-10
8.544980e-10
0.000000e+00
-6.470760e-10
5.970280e-10
-5.372180e-10
-8.798300e-10
9.967500e-10
1.178340e-09
-1.853930e-09
-6.470760e-10
-2.089600e-09
-1.277050e-09
7.541400e-10
9.967500e-10
-5.813160e-10
-4.537170e-12
-6.470760e-10
5.970280e-10
-1.277050e-09
-5.184710e-10
9.967500e-10
1.178340e-09
-4.537170e-12
4.870490e-10
-2.089600e-09
-1.277050e-09
7.855630e-10
3.489400e-10
-5.813160e-10
-4.537170e-12
-4.084930e-10
-4.744800e-10
-1.277050e-09
-5.184710e-10
3.489400e-10
0.000000e+00
-4.537170e-12
4.870490e-10
-4.744800e-10
-5.656050e-10
7.855630e-10
3.489400e-10
8.012740e-10
6.041470e-10
-4.084930e-10
-4.744800e-10
2.042460e-10
1.744820e-10
3.489400e-10
0.000000e+00
6.041470e-10
4.870490e-10
-4.744800e-10
-5.656050e-10
1.744820e-10
1.571130e-10
8.012740e-10
6.041470e-10
6.127390e-10
5.555290e-10
2.042460e-10
1.744820e-10
5.341830e-10
3.433790e-10
6.041470e-10
4.870490e-10
5.555290e-10
5.184710e-10
1.744820e-10
1.571130e-10
3.433790e-10
1.885350e-10
0.000000e+00
0.000000e+00
-9.426750e-10
4.701190e-10
0.000000e+00
0.000000e+00
8.798300e-10
6.492050e-10
0.000000e+00
0.000000e+00
4.701190e-10
4.399150e-10
0.000000e+00
0.000000e+00
6.492050e-10
3.927810e-10
-9.426750e-10
4.701190e-10
1.901060e-09
-1.860540e-10
8.798300e-10
6.492050e-10
1.414010e-09
7.282790e-10
4.701190e-10
4.399150e-10
-1.860540e-10
-7.070060e-10
6.492050e-10
3.927810e-10
7.282790e-10
1.414010e-09
1.901060e-09
-1.860540e-10
0.000000e+00
8.357770e-10
1.414010e-09
7.282790e-10
-1.319750e-09
-2.189970e-10
-1.860540e-10
-7.070060e-10
8.357770e-10
1.571130e-10
7.282790e-10
1.414010e-09
-2.189970e-10
2.372400e-09
0.000000e+00
8.357770e-10
-4.399150e-10
-5.098670e-10
-1.319750e-09
-2.189970e-10
-1.241190e-09
4.073470e-10
8.357770e-10
1.571130e-10
-5.098670e-10
-1.084080e-09
-2.189970e-10
2.372400e-09
4.073470e-10
1.791080e-09
-4.399150e-10
-5.098670e-10
0.000000e+00
4.498080e-11
-1.241190e-09
4.073470e-10
-2.199580e-10
-5.366400e-10
-5.098670e-10
-1.084080e-09
4.498080e-11
-6.284500e-10
4.073470e-10
1.791080e-09
-5.366400e-10
-1.743950e-09
0.000000e+00
4.498080e-11
-1.068370e-09
-1.379160e-10
-2.199580e-10
-5.366400e-10
-3.927810e-10
-3.392880e-10
4.498080e-11
-6.284500e-10
-1.379160e-10
-1.728240e-10
-5.366400e-10
-1.743950e-09
-3.392880e-10
7.855630e-11
-1.068370e-09
-1.379160e-10
-1.571130e-09
5.096760e-11
-3.927810e-10
-3.392880e-10
-1.115500e-09
2.113420e-11
-1.379160e-10
-1.728240e-10
5.096760e-11
5.184710e-10
-3.392880e-10
7.855630e-11
2.113420e-11
-4.242040e-10
-1.571130e-09
5.096760e-11
0.000000e+00
5.068840e-10
-1.115500e-09
2.113420e-11
-1.728240e-10
4.631140e-10
5.096760e-11
5.184710e-10
5.068840e-10
0.000000e+00
2.113420e-11
-4.242040e-10
4.631140e-10
-1.225480e-09
0.000000e+00
5.068840e-10
0.000000e+00
-6.045900e-10
-1.728240e-10
4.631140e-10
-2.372400e-09
-9.825000e-11
5.068840e-10
0.000000e+00
-6.045900e-10
0.000000e+00
4.631140e-10
-1.225480e-09
-9.825000e-11
3.456480e-10
0.000000e+00
-6.045900e-10
-1.665390e-09
-7.372670e-10
-2.372400e-09
-9.825000e-11
-1.728240e-10
-8.086490e-10
-6.045900e-10
0.000000e+00
-7.372670e-10
0.000000e+00
-9.825000e-11
3.456480e-10
-8.086490e-10
7.855630e-10
-1.665390e-09
-7.372670e-10
6.284500e-10
4.941140e-10
-1.728240e-10
-8.086490e-10
8.326970e-10
4.010340e-10
-7.372670e-10
0.000000e+00
4.941140e-10
-7.541400e-10
-8.086490e-10
7.855630e-10
4.010340e-10
-7.855630e-10
6.284500e-10
4.941140e-10
8.484080e-10
3.998930e-10
8.326970e-10
4.010340e-10
1.366880e-09
1.177160e-09
4.941140e-10
-7.541400e-10
3.998930e-10
9.583870e-10
4.010340e-10
-7.855630e-10
1.177160e-09
4.399150e-10
8.484080e-10
3.998930e-10
0.000000e+00
1.161580e-09
1.366880e-09
1.177160e-09
-1.838220e-09
8.590280e-11
3.998930e-10
9.583870e-10
1.161580e-09
-2.199580e-10
1.177160e-09
4.399150e-10
8.590280e-11
1.775370e-09
0.000000e+00
1.161580e-09
0.000000e+00
-2.654640e-10
-1.838220e-09
8.590280e-11
0.000000e+00
-7.879780e-11
1.161580e-09
-2.199580e-10
-2.654640e-10
-2.985140e-10
8.590280e-11
1.775370e-09
-7.879780e-11
-4.713380e-11
0.000000e+00
-2.654640e-10
2.513800e-10
-5.923000e-10
0.000000e+00
-7.879780e-11
4.713380e-11
3.785310e-10
-2.654640e-10
-2.985140e-10
-5.923000e-10
-4.242040e-10
-7.879780e-11
-4.713380e-11
3.785310e-10
2.828030e-10
2.513800e-10
-5.923000e-10
0.000000e+00
-5.510900e-12
4.713380e-11
3.785310e-10
-1.728240e-10
-5.553080e-10
-5.923000e-10
-4.242040e-10
-5.510900e-12
6.127390e-10
3.785310e-10
2.828030e-10
-5.553080e-10
0.000000e+00
0.000000e+00
-5.510900e-12
0.000000e+00
3.566850e-10
-1.728240e-10
-5.553080e-10
4.399150e-10
1.113110e-09
-5.510900e-12
6.127390e-10
3.566850e-10
-7.541400e-10
-5.553080e-10
0.000000e+00
1.113110e-09
8.641190e-10
0.000000e+00
3.566850e-10
0.000000e+00
3.141020e-10
4.399150e-10
1.113110e-09
0.000000e+00
3.616240e-11
3.566850e-10
-7.541400e-10
3.141020e-10
-3.142250e-10
1.113110e-09
8.641190e-10
3.616240e-11
-1.021230e-09
0.000000e+00
3.141020e-10
0.000000e+00
5.337990e-10
0.000000e+00
3.616240e-11
-5.184710e-10
2.803580e-11
3.141020e-10
-3.142250e-10
5.337990e-10
-4.870490e-10
3.616240e-11
-1.021230e-09
2.803580e-11
1.885350e-10
0.000000e+00
5.337990e-10
-2.513800e-10
-1.984910e-10
-5.184710e-10
2.803580e-11
3.456480e-10
-1.418670e-10
5.337990e-10
-4.870490e-10
-1.984910e-10
0.000000e+00
2.803580e-11
1.885350e-10
-1.418670e-10
-5.027600e-10
-2.513800e-10
-1.984910e-10
2.985140e-10
-6.733220e-11
3.456480e-10
-1.418670e-10
0.000000e+00
4.752210e-10
-1.984910e-10
0.000000e+00
-6.733220e-11
-5.027600e-10
-1.418670e-10
-5.027600e-10
4.752210e-10
1.272610e-09
2.985140e-10
-6.733220e-11
-3.927810e-10
-3.592070e-10
0.000000e+00
4.752210e-10
-1.885350e-10
-6.169140e-10
-6.733220e-11
-5.027600e-10
-3.592070e-10
-3.299360e-10
4.752210e-10
1.272610e-09
-6.169140e-10
-9.269640e-10
-3.927810e-10
-3.592070e-10
0.000000e+00
2.410040e-11
-1.885350e-10
-6.169140e-10
1.256900e-10
-3.131270e-10
-3.592070e-10
-3.299360e-10
2.410040e-11
0.000000e+00
-6.169140e-10
-9.269640e-10
-3.131270e-10
-7.227180e-10
0.000000e+00
2.410040e-11
-5.498940e-10
-1.952510e-10
1.256900e-10
-3.131270e-10
0.000000e+00
1.162930e-10
2.410040e-11
0.000000e+00
-1.952510e-10
1.414010e-10
-3.131270e-10
-7.227180e-10
1.162930e-10
2.513800e-10
-5.498940e-10
-1.952510e-10
-1.885350e-10
-5.372180e-10
0.000000e+00
1.162930e-10
-5.027600e-10
-1.913390e-09
-1.952510e-10
1.414010e-10
-5.372180e-10
-8.798300e-10
1.162930e-10
2.513800e-10
-1.913390e-09
-3.236520e-09
-1.885350e-10
-5.372180e-10
7.541400e-10
9.967500e-10
-5.027600e-10
-1.913390e-09
1.036940e-09
2.627830e-09
-5.372180e-10
-8.798300e-10
9.967500e-10
1.178340e-09
-1.913390e-09
-3.236520e-09
2.627830e-09
4.116350e-09
7.541400e-10
9.967500e-10
-5.813160e-10
-4.537170e-12
1.036940e-09
2.627830e-09
-1.728240e-10
1.334310e-09
9.967500e-10
1.178340e-09
-4.537170e-12
4.870490e-10
2.627830e-09
4.116350e-09
1.334310e-09
2.733760e-09
-5.813160e-10
-4.537170e-12
-4.084930e-10
-4.744800e-10
-1.728240e-10
1.334310e-09
-5.498940e-10
-1.376400e-09
-4.537170e-12
4.870490e-10
-4.744800e-10
-5.656050e-10
1.334310e-09
2.733760e-09
-1.376400e-09
-2.215290e-09
-4.084930e-10
-4.744800e-10
2.042460e-10
1.744820e-10
-5.498940e-10
-1.376400e-09
4.713380e-11
-2.522540e-10
-4.744800e-10
-5.656050e-10
1.744820e-10
1.571130e-10
-1.376400e-09
-2.215290e-09
-2.522540e-10
-5.498940e-10
2.042460e-10
1.744820e-10
5.341830e-10
3.433790e-10
4.713380e-11
-2.522540e-10
2.042460e-10
1.057930e-10
1.744820e-10
1.571130e-10
3.433790e-10
1.885350e-10
-2.522540e-10
-5.498940e-10
1.057930e-10
0.000000e+00
</DataArray>
<DataArray type="Float32" Name="V2" format="ascii">
0.000000e+00
0.000000e+00
-1.221380e-02
-1.221380e-02
0.000000e+00
0.000000e+00
-1.221380e-02
-1.221380e-02
0.000000e+00
0.000000e+00
-1.221380e-02
-1.221380e-02
0.000000e+00
0.000000e+00
-1.221380e-02
-1.221380e-02
-1.221380e-02
-1.221380e-02
-2.956730e-02
-2.956730e-02
-1.221380e-02
-1.221380e-02
-2.956730e-02
-2.956730e-02
-1.221380e-02
-1.221380e-02
-2.956730e-02
-2.956740e-02
-1.221380e-02
-1.221380e-02
-2.956730e-02
-2.956730e-02
-2.956730e-02
-2.956730e-02
-4.467370e-02
-4.467370e-02
-2.956730e-02
-2.956730e-02
-4.467370e-02
-4.467370e-02
-2.956730e-02
-2.956740e-02
-4.467370e-02
-4.467370e-02
-2.956730e-02
-2.956730e-02
-4.467370e-02
-4.467370e-02
-4.467370e-02
-4.467370e-02
-2.952160e-02
-2.952160e-02
-4.467370e-02
-4.467370e-02
-2.952160e-02
-2.952160e-02
-4.467370e-02
-4.467370e-02
-2.952160e-02
-2.952160e-02
-4.467370e-02
-4.467370e-02
-2.952160e-02
-2.952170e-02
-2.952160e-02
-2.952160e-02
4.754860e-03
4.754860e-03
-2.952160e-02
-2.952160e-02
4.754860e-03
4.754860e-03
-2.952160e-02
-2.952160e-02
4.754860e-03
4.754860e-03
-2.952160e-02
-2.952170e-02
4.754860e-03
4.754860e-03
4.754860e-03
4.754860e-03
9.543510e-03
9.543500e-03
4.754860e-03
4.754860e-03
9.543510e-03
9.543510e-03
4.754860e-03
4.754860e-03
9.543500e-03
9.543510e-03
4.754860e-03
4.754860e-03
9.543510e-03
9.543500e-03
9.543510e-03
9.543500e-03
-9.228560e-03
-9.228550e-03
9.543510e-03
9.543510e-03
-9.228550e-03
-9.228560e-03
9.543500e-03
9.543510e-03
-9.228550e-03
-9.228560e-03
9.543510e-03
9.543500e-03
-9.228560e-03
-9.228550e-03
-9.228560e-03
-9.228550e-03
-5.521940e-03
-5.521940e-03
-9.228550e-03
-9.228560e-03
-5.521940e-03
-5.521930e-03
-9.228550e-03
-9.228560e-03
-5.521940e-03
-5.521940e-03
-9.228560e-03
-9.228550e-03
-5.521930e-03
-5.521940e-03
-5.521940e-03
-5.521940e-03
3.828360e-03
3.828370e-03
-5.521940e-03
-5.521930e-03
3.828360e-03
3.828360e-03
-5.521940e-03
-5.521940e-03
3.828370e-03
3.828360e-03
-5.521930e-03
-5.521940e-03
3.828360e-03
3.828360e-03
3.828360e-03
3.828370e-03
-7.986700e-04
-7.986730e-04
3.828360e-03
3.828360e-03
-7.986740e-04
-7.986740e-04
3.828370e-03
3.828360e-03
-7.986730e-04
-7.986700e-04
3.828360e-03
3.828360e-03
-7.986740e-04
-7.986700e-04
-7.986700e-04
-7.986730e-04
-2.095810e-03
-2.095810e-03
-7.986740e-04
-7.986740e-04
-2.095810e-03
-2.095810e-03
-7.986730e-04
-7.986700e-04
-2.095810e-03
-2.095810e-03
-7.986740e-04
-7.986700e-04
-2.095810e-03
-2.095810e-03
-2.095810e-03
-2.095810e-03
5.503050e-04
5.502990e-04
-2.095810e-03
-2.095810e-03
5.503040e-04
5.502980e-04
-2.095810e-03
-2.095810e-03
5.502990e-04
5.503030e-04
-2.095810e-03
-2.095810e-03
5.502980e-04
5.502990e-04
5.503050e-04
5.502990e-04
3.652660e-04
3.652670e-04
5.503040e-04
5.502980e-04
3.652650e-04
3.652630e-04
5.502990e-04
5.503030e-04
3.652670e-04
3.652640e-04
5.502980e-04
5.502990e-04
3.652630e-04
3.652650e-04
3.652660e-04
3.652670e-04
-5.363120e-04
-5.363130e-04
3.652650e-04
3.652630e-04
-5.363120e-04
-5.363110e-04
3.652670e-04
3.652640e-04
-5.363130e-04
-5.363140e-04
3.652630e-04
3.652650e-04
-5.363110e-04
-5.363130e-04
-5.363120e-04
-5.363130e-04
2.238230e-04
2.238240e-04
-5.363120e-04
-5.363110e-04
2.238270e-04
2.238230e-04
-5.363130e-04
-5.363140e-04
2.238240e-04
2.238250e-04
-5.363110e-04
-5.363130e-04
2.238230e-04
2.238240e-04
2.238230e-04
2.238240e-04
-1.429890e-05
-1.429860e-05
2.238270e-04
2.238230e-04
-1.429730e-05
-1.429850e-05
2.238240e-04
2.238250e-04
-1.429860e-05
-1.429990e-05
2.238230e-04
2.238240e-04
-1.429850e-05
-1.429780e-05
-1.429890e-05
-1.429860e-05
-4.093250e-04
-4.093290e-04
-1.429730e-05
-1.429850e-05
-4.093300e-04
-4.093300e-04
-1.429860e-05
-1.429990e-05
-4.093290e-04
-4.093280e-04
-1.429850e-05
-1.429780e-05
-4.093300e-04
-4.093300e-04
-4.093250e-04
-4.093290e-04
-3.724180e-04
-3.724150e-04
-4.093300e-04
-4.093300e-04
-3.724130e-04
-3.724140e-04
-4.093290e-04
-4.093280e-04
-3.724150e-04
-3.724190e-04
-4.093300e-04
-4.093300e-04
-3.724140e-04
-3.724150e-04
-3.724180e-04
-3.724150e-04
8.369770e-05
8.369740e-05
-3.724130e-04
-3.724140e-04
8.369730e-05
8.369950e-05
-3.724150e-04
-3.724190e-04
8.369740e-05
8.369940e-05
-3.724140e-04
-3.724150e-04
8.369950e-05
8.369640e-05
8.369770e-05
8.369740e-05
-1.277500e-04
-1.277460e-04
8.369730e-05
8.369950e-05
-1.277470e-04
-1.277510e-04
8.369740e-05
8.369940e-05
-1.277460e-04
-1.277480e-04
8.369950e-05
8.369640e-05
-1.277510e-04
-1.277410e-04
-1.277500e-04
-1.277460e-04
-2.918170e-04
-2.918180e-04
-1.277470e-04
-1.277510e-04
-2.918160e-04
-2.918180e-04
-1.277460e-04
-1.277480e-04
-2.918180e-04
-2.918210e-04
-1.277510e-04
-1.277410e-04
-2.918180e-04
-2.918220e-04
-2.918170e-04
-2.918180e-04
-2.751580e-04
-2.751710e-04
-2.918160e-04
-2.918180e-04
-2.751710e-04
-2.751630e-04
-2.918180e-04
-2.918210e-04
-2.751710e-04
-2.751580e-04
-2.918180e-04
-2.918220e-04
-2.751630e-04
-2.751640e-04
-2.751580e-04
-2.751710e-04
-5.297790e-04
-5.297620e-04
-2.751710e-04
-2.751630e-04
-5.297620e-04
-5.297670e-04
-2.751710e-04
-2.751580e-04
-5.297620e-04
-5.297680e-04
-2.751630e-04
-2.751640e-04
-5.297670e-04
-5.297710e-04
-5.297790e-04
-5.297620e-04
-4.359600e-04
-4.359870e-04
-5.297620e-04
-5.297670e-04
-4.359870e-04
-4.359850e-04
-5.297620e-04
-5.297680e-04
-4.359870e-04
-4.359880e-04
-5.297670e-04
-5.297710e-04
-4.359850e-04
-4.359820e-04
-4.359600e-04
-4.359870e-04
-4.827520e-04
-4.826840e-04
-4.359870e-04
-4.359850e-04
-4.826870e-04
-4.827030e-04
-4.359870e-04
-4.359880e-04
-4.826840e-04
-4.826810e-04
-4.359850e-04
-4.359820e-04
-4.827030e-04
-4.826900e-04
-4.827520e-04
-4.826840e-04
-6.720090e-04
-6.720410e-04
-4.826870e-04
-4.827030e-04
-6.720380e-04
-6.720330e-04
-4.826840e-04
-4.826810e-04
-6.720410e-04
-6.720450e-04
-4.827030e-04
-4.826900e-04
-6.720330e-04
-6.720440e-04
-6.720090e-04
-6.720410e-04
-3.317600e-04
-3.317760e-04
-6.720380e-04
-6.720330e-04
-3.317770e-04
-3.317750e-04
-6.720410e-04
-6.720450e-04
-3.317760e-04
-3.317800e-04
-6.720330e-04
-6.720440e-04
-3.317750e-04
-3.317760e-04
-3.317600e-04
-3.317760e-04
1.194900e-04
1.194860e-04
-3.317770e-04
-3.317750e-04
1.194870e-04
1.194880e-04
-3.317760e-04
-3.317800e-04
1.194860e-04
1.194840e-04
-3.317750e-04
-3.317760e-04
1.194880e-04
1.194900e-04
1.194900e-04
1.194860e-04
-1.150900e-04
-1.150890e-04
1.194870e-04
1.194880e-04
-1.150890e-04
-1.150860e-04
1.194860e-04
1.194840e-04
-1.150890e-04
-1.150870e-04
1.194880e-04
1.194900e-04
-1.150860e-04
-1.150870e-04
-1.150900e-04
-1.150890e-04
2.323870e-04
2.323860e-04
-1.150890e-04
-1.150860e-04
2.323870e-04
2.323860e-04
-1.150890e-04
-1.150870e-04
2.323860e-04
2.323850e-04
-1.150860e-04
-1.150870e-04
2.323860e-04
2.323860e-04
0.000000e+00
0.000000e+00
-1.221380e-02
-1.221380e-02
0.000000e+00
0.000000e+00
-1.221380e-02
-1.221380e-02
0.000000e+00
0.000000e+00
-1.221380e-02
-1.221380e-02
0.000000e+00
0.000000e+00
-1.221380e-02
-1.221380e-02
-1.221380e-02
-1.221380e-02
-2.956730e-02
-2.956730e-02
-1.221380e-02
-1.221380e-02
-2.956730e-02
-2.956730e-02
-1.221380e-02
-1.221380e-02
-2.956730e-02