<?xml version="1.0"?>
<VTKFile type="UnstructuredGrid" version="0.1" byte_order="LittleEndian" compressor="vtkZLibDataCompressor">
<UnstructuredGrid>
<Piece NumberOfPoints="960" NumberOfCells="120">
<Points>
<DataArray type="Float32" NumberOfComponents="3" format="ascii">
-4.000000e+02 -6.000000e+03 -4.000000e+02
0.000000e+00 -6.000000e+03 -4.000000e+02
-4.000000e+02 -5.599970e+03 -4.000000e+02
-6.426870e-10 -5.599970e+03 -4.000000e+02
-4.000000e+02 -6.000000e+03 0.000000e+00
0.000000e+00 -6.000000e+03 0.000000e+00
-4.000000e+02 -5.599970e+03 -1.141080e-10
-7.814100e-10 -5.599970e+03 9.848630e-12
0.000000e+00 -6.000000e+03 -4.000000e+02
4.000000e+02 -6.000000e+03 -4.000000e+02
-6.426870e-10 -5.599970e+03 -4.000000e+02
4.000000e+02 -5.599970e+03 -4.000000e+02
0.000000e+00 -6.000000e+03 0.000000e+00
4.000000e+02 -6.000000e+03 0.000000e+00
-7.814100e-10 -5.599970e+03 9.848630e-12
4.000000e+02 -5.599970e+03 -5.481060e-11
-4.000000e+02 -5.599970e+03 -4.000000e+02
-6.426870e-10 -5.599970e+03 -4.000000e+02
-4.000000e+02 -5.199970e+03 -4.000000e+02
-2.249080e-10 -5.199970e+03 -4.000000e+02
-4.000000e+02 -5.599970e+03 -1.141080e-10
-7.814100e-10 -5.599970e+03 9.848630e-12
-4.000000e+02 -5.199970e+03 2.390390e-10
-8.304690e-10 -5.199970e+03 6.588560e-10
-6.426870e-10 -5.599970e+03 -4.000000e+02
4.000000e+02 -5.599970e+03 -4.000000e+02
-2.249080e-10 -5.199970e+03 -4.000000e+02
4.000000e+02 -5.199970e+03 -4.000000e+02
-7.814100e-10 -5.599970e+03 9.848630e-12
4.000000e+02 -5.599970e+03 -5.481060e-11
-8.304690e-10 -5.199970e+03 6.588560e-10
4.000000e+02 -5.199970e+03 2.569380e-10
-4.000000e+02 -5.199970e+03 -4.000000e+02
-2.249080e-10 -5.199970e+03 -4.000000e+02
-4.000000e+02 -4.800010e+03 -4.000000e+02
-5.421850e-10 -4.800010e+03 -4.000000e+02
-4.000000e+02 -5.199970e+03 2.390390e-10
-8.304690e-10 -5.199970e+03 6.588560e-10
-4.000000e+02 -4.800010e+03 8.245540e-10
-4.878590e-10 -4.800010e+03 -4.460600e-10
-2.249080e-10 -5.199970e+03 -4.000000e+02
4.000000e+02 -5.199970e+03 -4.000000e+02
-5.421850e-10 -4.800010e+03 -4.000000e+02
4.000000e+02 -4.800010e+03 -4.000000e+02
-8.304690e-10 -5.199970e+03 6.588560e-10
4.000000e+02 -5.199970e+03 2.569380e-10
-4.878590e-10 -4.800010e+03 -4.460600e-10
4.000000e+02 -4.800010e+03 1.759030e-10
-4.000000e+02 -4.800010e+03 -4.000000e+02
-5.421850e-10 -4.800010e+03 -4.000000e+02
-4.000000e+02 -4.400070e+03 -4.000000e+02
-6.363400e-10 -4.400070e+03 -4.000000e+02
-4.000000e+02 -4.800010e+03 8.245540e-10
-4.878590e-10 -4.800010e+03 -4.460600e-10
-4.000000e+02 -4.400070e+03 5.052540e-10
-4.445460e-10 -4.400070e+03 -3.728160e-10
-5.421850e-10 -4.800010e+03 -4.000000e+02
4.000000e+02 -4.800010e+03 -4.000000e+02
-6.363400e-10 -4.400070e+03 -4.000000e+02
4.000000e+02 -4.400070e+03 -4.000000e+02
-4.878590e-10 -4.800010e+03 -4.460600e-10
4.000000e+02 -4.800010e+03 1.759030e-10
-4.445460e-10 -4.400070e+03 -3.728160e-10
4.000000e+02 -4.400070e+03 -7.386790e-10
-4.000000e+02 -4.400070e+03 -4.000000e+02
-6.363400e-10 -4.400070e+03 -4.000000e+02
-4.000000e+02 -4.000160e+03 -4.000000e+02
-2.836720e-10 -4.000160e+03 -4.000000e+02
-4.000000e+02 -4.400070e+03 5.052540e-10
-4.445460e-10 -4.400070e+03 -3.728160e-10
-4.000000e+02 -4.000160e+03 4.104390e-10
-2.628230e-10 -4.000160e+03 4.906730e-10
-6.363400e-10 -4.400070e+03 -4.000000e+02
4.000000e+02 -4.400070e+03 -4.000000e+02
-2.836720e-10 -4.000160e+03 -4.000000e+02
4.000000e+02 -4.000160e+03 -4.000000e+02
-4.445460e-10 -4.400070e+03 -3.728160e-10
4.000000e+02 -4.400070e+03 -7.386790e-10
-2.628230e-10 -4.000160e+03 4.906730e-10
4.000000e+02 -4.000160e+03 -1.079580e-09
-4.000000e+02 -4.000160e+03 -4.000000e+02
-2.836720e-10 -4.000160e+03 -4.000000e+02
-4.000000e+02 -3.600220e+03 -4.000000e+02
-6.448390e-10 -3.600220e+03 -4.000000e+02
-4.000000e+02 -4.000160e+03 4.104390e-10
-2.628230e-10 -4.000160e+03 4.906730e-10
-4.000000e+02 -3.600220e+03 4.309300e-10
-4.014420e-10 -3.600220e+03 -1.811220e-10
-2.836720e-10 -4.000160e+03 -4.000000e+02
4.000000e+02 -4.000160e+03 -4.000000e+02
-6.448390e-10 -3.600220e+03 -4.000000e+02
4.000000e+02 -3.600220e+03 -4.000000e+02
-2.628230e-10 -4.000160e+03 4.906730e-10
4.000000e+02 -4.000160e+03 -1.079580e-09
-4.014420e-10 -3.600220e+03 -1.811220e-10
4.000000e+02 -3.600220e+03 -4.852150e-10
-4.000000e+02 -3.600220e+03 -4.000000e+02
-6.448390e-10 -3.600220e+03 -4.000000e+02
-4.000000e+02 -3.200250e+03 -4.000000e+02
-1.995070e-09 -3.200250e+03 -4.000000e+02
-4.000000e+02 -3.600220e+03 4.309300e-10
-4.014420e-10 -3.600220e+03 -1.811220e-10
-4.000000e+02 -3.200250e+03 7.586890e-11
-1.116120e-09 -3.200250e+03 -1.878250e-10
-6.448390e-10 -3.600220e+03 -4.000000e+02
4.000000e+02 -3.600220e+03 -4.000000e+02
-1.995070e-09 -3.200250e+03 -4.000000e+02
4.000000e+02 -3.200250e+03 -4.000000e+02
-4.014420e-10 -3.600220e+03 -1.811220e-10
4.000000e+02 -3.600220e+03 -4.852150e-10
-1.116120e-09 -3.200250e+03 -1.878250e-10
4.000000e+02 -3.200250e+03 3.208300e-10
-4.000000e+02 -3.200250e+03 -4.000000e+02
-1.995070e-09 -3.200250e+03 -4.000000e+02
-4.000000e+02 -2.800270e+03 -4.000000e+02
-3.682670e-10 -2.800270e+03 -4.000000e+02
-4.000000e+02 -3.200250e+03 7.586890e-11
-1.116120e-09 -3.200250e+03 -1.878250e-10
-4.000000e+02 -2.800270e+03 9.711890e-10
2.335580e-11 -2.800270e+03 2.449970e-10
-1.995070e-09 -3.200250e+03 -4.000000e+02
4.000000e+02 -3.200250e+03 -4.000000e+02
-3.682670e-10 -2.800270e+03 -4.000000e+02
4.000000e+02 -2.800270e+03 -4.000000e+02
-1.116120e-09 -3.200250e+03 -1.878250e-10
4.000000e+02 -3.200250e+03 3.208300e-10
2.335580e-11 -2.800270e+03 2.449970e-10
4.000000e+02 -2.800270e+03 1.214160e-09
-4.000000e+02 -2.800270e+03 -4.000000e+02
-3.682670e-10 -2.800270e+03 -4.000000e+02
-4.000000e+02 -2.400280e+03 -4.000000e+02
5.054290e-10 -2.400280e+03 -4.000000e+02
-4.000000e+02 -2.800270e+03 9.711890e-10
2.335580e-11 -2.800270e+03 2.449970e-10
-4.000000e+02 -2.400280e+03 2.251870e-10
7.731590e-10 -2.400280e+03 -2.800740e-11
-3.682670e-10 -2.800270e+03 -4.000000e+02
4.000000e+02 -2.800270e+03 -4.000000e+02
5.054290e-10 -2.400280e+03 -4.000000e+02
4.000000e+02 -2.400280e+03 -4.000000e+02
2.335580e-11 -2.800270e+03 2.449970e-10
4.000000e+02 -2.800270e+03 1.214160e-09
7.731590e-10 -2.400280e+03 -2.800740e-11
4.000000e+02 -2.400280e+03 5.458860e-10
-4.000000e+02 -2.400280e+03 -4.000000e+02
5.054290e-10 -2.400280e+03 -4.000000e+02
-4.000000e+02 -2.000290e+03 -4.000000e+02
1.741650e-10 -2.000290e+03 -4.000000e+02
-4.000000e+02 -2.400280e+03 2.251870e-10
7.731590e-10 -2.400280e+03 -2.800740e-11
-4.000000e+02 -2.000290e+03 -1.109260e-09
3.833570e-10 -2.000290e+03 -3.082030e-10
5.054290e-10 -2.400280e+03 -4.000000e+02
4.000000e+02 -2.400280e+03 -4.000000e+02
1.741650e-10 -2.000290e+03 -4.000000e+02
4.000000e+02 -2.000290e+03 -4.000000e+02
7.731590e-10 -2.400280e+03 -2.800740e-11
4.000000e+02 -2.400280e+03 5.458860e-10
3.833570e-10 -2.000290e+03 -3.082030e-10
4.000000e+02 -2.000290e+03 3.093290e-10
-4.000000e+02 -2.000290e+03 -4.000000e+02
1.741650e-10 -2.000290e+03 -4.000000e+02
-4.000000e+02 -1.600290e+03 -4.000000e+02
8.849050e-11 -1.600290e+03 -4.000000e+02
-4.000000e+02 -2.000290e+03 -1.109260e-09
3.833570e-10 -2.000290e+03 -3.082030e-10
-4.000000e+02 -1.600290e+03 -3.291180e-10
-3.773680e-10 -1.600290e+03 -3.200760e-10
1.741650e-10 -2.000290e+03 -4.000000e+02
4.000000e+02 -2.000290e+03 -4.000000e+02
8.849050e-11 -1.600290e+03 -4.000000e+02
4.000000e+02 -1.600290e+03 -4.000000e+02
3.833570e-10 -2.000290e+03 -3.082030e-10
4.000000e+02 -2.000290e+03 3.093290e-10
-3.773680e-10 -1.600290e+03 -3.200760e-10
4.000000e+02 -1.600290e+03 1.696250e-11
-4.000000e+02 -1.600290e+03 -4.000000e+02
8.849050e-11 -1.600290e+03 -4.000000e+02
-4.000000e+02 -1.200290e+03 -4.000000e+02
1.329250e-09 -1.200290e+03 -4.000000e+02
-4.000000e+02 -1.600290e+03 -3.291180e-10
-3.773680e-10 -1.600290e+03 -3.200760e-10
-4.000000e+02 -1.200290e+03 4.465120e-10
4.289830e-10 -1.200290e+03 4.303640e-10
8.849050e-11 -1.600290e+03 -4.000000e+02
4.000000e+02 -1.600290e+03 -4.000000e+02
1.329250e-09 -1.200290e+03 -4.000000e+02
4.000000e+02 -1.200290e+03 -4.000000e+02
-3.773680e-10 -1.600290e+03 -3.200760e-10
4.000000e+02 -1.600290e+03 1.696250e-11
4.289830e-10 -1.200290e+03 4.303640e-10
4.000000e+02 -1.200290e+03 -1.556250e-10
-4.000000e+02 -1.200290e+03 -4.000000e+02
1.329250e-09 -1.200290e+03 -4.000000e+02
-4.000000e+02 -8.002950e+02 -4.000000e+02
-1.102100e-10 -8.002950e+02 -4.000000e+02
-4.000000e+02 -1.200290e+03 4.465120e-10
4.289830e-10 -1.200290e+03 4.303640e-10
-4.000000e+02 -8.002950e+02 1.965710e-10
1.935180e-10 -8.002950e+02 2.470730e-11
1.329250e-09 -1.200290e+03 -4.000000e+02
4.000000e+02 -1.200290e+03 -4.000000e+02
-1.102100e-10 -8.002950e+02 -4.000000e+02
4.000000e+02 -8.002950e+02 -4.000000e+02
4.289830e-10 -1.200290e+03 4.303640e-10
4.000000e+02 -1.200290e+03 -1.556250e-10
1.935180e-10 -8.002950e+02 2.470730e-11
4.000000e+02 -8.002950e+02 5.453630e-10
-4.000000e+02 -8.002950e+02 -4.000000e+02
-1.102100e-10 -8.002950e+02 -4.000000e+02
-4.000000e+02 -4.002950e+02 -4.000000e+02
-8.283840e-10 -4.002950e+02 -4.000000e+02
-4.000000e+02 -8.002950e+02 1.965710e-10
1.935180e-10 -8.002950e+02 2.470730e-11
-4.000000e+02 -4.002950e+02 -5.097930e-10
-2.338660e-10 -4.002950e+02 -3.069980e-10
-1.102100e-10 -8.002950e+02 -4.000000e+02
4.000000e+02 -8.002950e+02 -4.000000e+02
-8.283840e-10 -4.002950e+02 -4.000000e+02
4.000000e+02 -4.002950e+02 -4.000000e+02
1.935180e-10 -8.002950e+02 2.470730e-11
4.000000e+02 -8.002950e+02 5.453630e-10
-2.338660e-10 -4.002950e+02 -3.069980e-10
4.000000e+02 -4.002950e+02 1.003990e-10
-4.000000e+02 -4.002950e+02 -4.000000e+02
-8.283840e-10 -4.002950e+02 -4.000000e+02
-4.000000e+02 -2.964760e-01 -4.000000e+02
-4.230330e-10 -2.964760e-01 -4.000000e+02
-4.000000e+02 -4.002950e+02 -5.097930e-10
-2.338660e-10 -4.002950e+02 -3.069980e-10
-4.000000e+02 -2.964760e-01 -3.904740e-10
9.506570e-11 -2.964760e-01 6.274390e-11
-8.283840e-10 -4.002950e+02 -4.000000e+02
4.000000e+02 -4.002950e+02 -4.000000e+02
-4.230330e-10 -2.964760e-01 -4.000000e+02
[...]
<PointData>
<DataArray type="Float32" Name="V1" format="ascii">
0.000000e+00
0.000000e+00
-4.084930e-10
7.014170e-10
0.000000e+00
0.000000e+00
-3.927810e-10
-6.036240e-10
0.000000e+00
0.000000e+00
7.014170e-10
1.194060e-09
0.000000e+00
0.000000e+00
-6.036240e-10
-1.885350e-10
-4.084930e-10
7.014170e-10
-2.875160e-09
-8.848110e-10
-3.927810e-10
-6.036240e-10
2.356690e-10
6.052780e-10
7.014170e-10
1.194060e-09
-8.848110e-10
-8.484080e-10
-6.036240e-10
-1.885350e-10
6.052780e-10
6.598730e-10
-2.875160e-09
-8.848110e-10
-2.702340e-09
2.781580e-10
2.356690e-10
6.052780e-10
0.000000e+00
-2.769530e-10
-8.848110e-10
-8.484080e-10
2.781580e-10
2.058170e-09
6.052780e-10
6.598730e-10
-2.769530e-10
9.583870e-10
-2.702340e-09
2.781580e-10
3.613590e-10
2.825190e-10
0.000000e+00
-2.769530e-10
-1.256900e-09
-1.557080e-10
2.781580e-10
2.058170e-09
2.825190e-10
-1.052650e-09
-2.769530e-10
9.583870e-10
-1.557080e-10
6.598730e-10
3.613590e-10
2.825190e-10
-8.012740e-10
-8.475900e-11
-1.256900e-09
-1.557080e-10
-4.084930e-10
-3.681650e-10
2.825190e-10
-1.052650e-09
-8.475900e-11
-4.713380e-10
-1.557080e-10
6.598730e-10
-3.681650e-10
4.870490e-10
-8.012740e-10
-8.475900e-11
3.707860e-09
1.582620e-09
-4.084930e-10
-3.681650e-10
-3.613590e-10
7.161540e-10
-8.475900e-11
-4.713380e-10
1.582620e-09
3.299360e-10
-3.681650e-10
4.870490e-10
7.161540e-10
1.178340e-09
3.707860e-09
1.582620e-09
-6.284500e-10
1.413790e-09
-3.613590e-10
7.161540e-10
0.000000e+00
2.748380e-10
1.582620e-09
3.299360e-10
1.413790e-09
1.476860e-09
7.161540e-10
1.178340e-09
2.748380e-10
-6.127390e-10
-6.284500e-10
1.413790e-09
1.304030e-09
-9.935900e-10
0.000000e+00
2.748380e-10
-8.326970e-10
-5.561900e-10
1.413790e-09
1.476860e-09
-9.935900e-10
-3.252230e-09
2.748380e-10
-6.127390e-10
-5.561900e-10
-1.319750e-09
1.304030e-09
-9.935900e-10
1.084080e-09
2.321310e-10
-8.326970e-10
-5.561900e-10
-1.429720e-09
-3.054130e-11
-9.935900e-10
-3.252230e-09
2.321310e-10
-4.084930e-10
-5.561900e-10
-1.319750e-09
-3.054130e-11
0.000000e+00
1.084080e-09
2.321310e-10
-5.656050e-10
-7.153880e-10
-1.429720e-09
-3.054130e-11
9.426750e-10
4.869430e-10
2.321310e-10
-4.084930e-10
-7.153880e-10
8.484080e-10
-3.054130e-11
0.000000e+00
4.869430e-10
1.728240e-10
-5.656050e-10
-7.153880e-10
-7.227180e-10
9.549390e-11
9.426750e-10
4.869430e-10
0.000000e+00
1.487390e-10
-7.153880e-10
8.484080e-10
9.549390e-11
-6.284500e-11
4.869430e-10
1.728240e-10
1.487390e-10
-2.985140e-10
-7.227180e-10
9.549390e-11
0.000000e+00
5.052070e-10
0.000000e+00
1.487390e-10
0.000000e+00
2.152460e-11
9.549390e-11
-6.284500e-11
5.052070e-10
1.288320e-09
1.487390e-10
-2.985140e-10
2.152460e-11
-9.740980e-10
0.000000e+00
5.052070e-10
-1.571130e-10
2.373510e-10
0.000000e+00
2.152460e-11
0.000000e+00
-5.898630e-10
5.052070e-10
1.288320e-09
2.373510e-10
0.000000e+00
2.152460e-11
-9.740980e-10
-5.898630e-10
0.000000e+00
-1.571130e-10
2.373510e-10
-1.476860e-09
-7.112690e-10
0.000000e+00
-5.898630e-10
0.000000e+00
1.584330e-10
2.373510e-10
0.000000e+00
-7.112690e-10
-6.284500e-10
-5.898630e-10
0.000000e+00
1.584330e-10
0.000000e+00
-1.476860e-09
-7.112690e-10
1.099790e-10
9.714870e-10
0.000000e+00
1.584330e-10
0.000000e+00
-1.011880e-09
-7.112690e-10
-6.284500e-10
9.714870e-10
5.970280e-10
1.584330e-10
0.000000e+00
-1.011880e-09
0.000000e+00
1.099790e-10
9.714870e-10
0.000000e+00
3.945470e-10
0.000000e+00
-1.011880e-09
0.000000e+00
4.803940e-10
9.714870e-10
5.970280e-10
3.945470e-10
0.000000e+00
-1.011880e-09
0.000000e+00
4.803940e-10
0.000000e+00
0.000000e+00
3.945470e-10
-1.162630e-09
-7.628210e-10
0.000000e+00
4.803940e-10
0.000000e+00
-1.629630e-10
3.945470e-10
0.000000e+00
-7.628210e-10
0.000000e+00
4.803940e-10
0.000000e+00
-1.629630e-10
0.000000e+00
-1.162630e-09
-7.628210e-10
0.000000e+00
2.220300e-11
0.000000e+00
-1.629630e-10
0.000000e+00
6.085600e-10
-7.628210e-10
0.000000e+00
2.220300e-11
1.131210e-09
-1.629630e-10
0.000000e+00
6.085600e-10
0.000000e+00
0.000000e+00
2.220300e-11
0.000000e+00
-3.180450e-10
0.000000e+00
6.085600e-10
0.000000e+00
-3.459960e-10
2.220300e-11
1.131210e-09
-3.180450e-10
0.000000e+00
6.085600e-10
0.000000e+00
-3.459960e-10
7.384290e-10
0.000000e+00
-3.180450e-10
-4.556260e-10
-1.291200e-10
0.000000e+00
-3.459960e-10
0.000000e+00
1.561400e-10
-3.180450e-10
0.000000e+00
-1.291200e-10
1.571130e-11
-3.459960e-10
7.384290e-10
1.561400e-10
0.000000e+00
-4.556260e-10
-1.291200e-10
0.000000e+00
-8.412570e-12
0.000000e+00
1.561400e-10
1.728240e-10
1.315540e-10
-1.291200e-10
1.571130e-11
-8.412570e-12
0.000000e+00
1.561400e-10
0.000000e+00
1.315540e-10
0.000000e+00
0.000000e+00
-8.412570e-12
0.000000e+00
5.498420e-11
1.728240e-10
1.315540e-10
1.099790e-10
1.009070e-10
-8.412570e-12
0.000000e+00
5.498420e-11
0.000000e+00
1.315540e-10
0.000000e+00
1.009070e-10
0.000000e+00
0.000000e+00
5.498420e-11
0.000000e+00
4.374160e-11
1.099790e-10
1.009070e-10
0.000000e+00
4.655670e-11
5.498420e-11
0.000000e+00
4.374160e-11
0.000000e+00
1.009070e-10
0.000000e+00
4.655670e-11
0.000000e+00
0.000000e+00
4.374160e-11
-4.713380e-11
-8.998130e-11
0.000000e+00
4.655670e-11
-9.426750e-11
-1.300070e-10
4.374160e-11
0.000000e+00
-8.998130e-11
0.000000e+00
4.655670e-11
0.000000e+00
-1.300070e-10
0.000000e+00
-4.713380e-11
-8.998130e-11
0.000000e+00
6.163240e-11
-9.426750e-11
-1.300070e-10
2.513800e-10
1.749290e-10
-8.998130e-11
0.000000e+00
6.163240e-11
0.000000e+00
-1.300070e-10
0.000000e+00
1.749290e-10
0.000000e+00
0.000000e+00
6.163240e-11
0.000000e+00
-6.177240e-11
2.513800e-10
1.749290e-10
0.000000e+00
-6.911980e-11
6.163240e-11
0.000000e+00
-6.177240e-11
0.000000e+00
1.749290e-10
0.000000e+00
-6.911980e-11
0.000000e+00
0.000000e+00
-6.177240e-11
-9.426750e-11
-1.615830e-10
0.000000e+00
-6.911980e-11
0.000000e+00
-1.283140e-10
-6.177240e-11
0.000000e+00
-1.615830e-10
-2.042460e-10
-6.911980e-11
0.000000e+00
-1.283140e-10
-2.199580e-10
-9.426750e-11
-1.615830e-10
0.000000e+00
-7.782000e-11
0.000000e+00
-1.283140e-10
0.000000e+00
-4.799730e-11
-1.615830e-10
-2.042460e-10
-7.782000e-11
-1.728240e-10
-1.283140e-10
-2.199580e-10
-4.799730e-11
-9.426750e-11
0.000000e+00
-7.782000e-11
1.885350e-10
1.619200e-10
0.000000e+00
-4.799730e-11
1.414010e-10
1.251230e-10
-7.782000e-11
-1.728240e-10
1.619200e-10
1.885350e-10
-4.799730e-11
-9.426750e-11
1.251230e-10
1.099790e-10
1.885350e-10
1.619200e-10
2.828030e-10
3.424620e-10
1.414010e-10
1.251230e-10
4.084930e-10
3.799000e-10
1.619200e-10
1.885350e-10
3.424620e-10
4.556260e-10
1.251230e-10
1.099790e-10
3.799000e-10
3.142250e-10
0.000000e+00
0.000000e+00
-3.927810e-10
-6.036240e-10
0.000000e+00
0.000000e+00
7.698510e-10
7.148660e-11
0.000000e+00
0.000000e+00
-6.036240e-10
-1.885350e-10
0.000000e+00
0.000000e+00
7.148660e-11
1.036940e-09
-3.927810e-10
-6.036240e-10
2.356690e-10
6.052780e-10
7.698510e-10
7.148660e-11
-2.042460e-10
7.682950e-10
-6.036240e-10
-1.885350e-10
6.052780e-10
6.598730e-10
7.148660e-11
1.036940e-09
7.682950e-10
-2.042460e-10
2.356690e-10
6.052780e-10
0.000000e+00
-2.769530e-10
-2.042460e-10
7.682950e-10
-1.304030e-09
-1.199610e-09
6.052780e-10
6.598730e-10
-2.769530e-10
9.583870e-10
7.682950e-10
-2.042460e-10
-1.199610e-09
-3.770700e-10
0.000000e+00
-2.769530e-10
-1.256900e-09
-1.557080e-10
-1.304030e-09
-1.199610e-09
5.184710e-10
-3.228880e-10
-2.769530e-10
9.583870e-10
-1.557080e-10
6.598730e-10
-1.199610e-09
-3.770700e-10
-3.228880e-10
-8.326970e-10
-1.256900e-09
-1.557080e-10
-4.084930e-10
-3.681650e-10
5.184710e-10
-3.228880e-10
1.256900e-10
9.139480e-10
-1.557080e-10
6.598730e-10
-3.681650e-10
4.870490e-10
-3.228880e-10
-8.326970e-10
9.139480e-10
0.000000e+00
-4.084930e-10
-3.681650e-10
-3.613590e-10
7.161540e-10
1.256900e-10
9.139480e-10
2.670910e-10
1.087180e-09
-3.681650e-10
4.870490e-10
7.161540e-10
1.178340e-09
9.139480e-10
0.000000e+00
1.087180e-09
3.613590e-10
-3.613590e-10
7.161540e-10
0.000000e+00
2.748380e-10
2.670910e-10
1.087180e-09
0.000000e+00
-2.123270e-10
7.161540e-10
1.178340e-09
2.748380e-10
-6.127390e-10
1.087180e-09
3.613590e-10
-2.123270e-10
1.414010e-10
0.000000e+00
2.748380e-10
-8.326970e-10
-5.561900e-10
0.000000e+00
-2.123270e-10
2.670910e-10
-1.654420e-10
2.748380e-10
-6.127390e-10
-5.561900e-10
-1.319750e-09
-2.123270e-10
1.414010e-10
-1.654420e-10
-1.131210e-09
-8.326970e-10
-5.561900e-10
-1.429720e-09
-3.054130e-11
2.670910e-10
-1.654420e-10
-8.955420e-10
-1.240240e-09
-5.561900e-10
-1.319750e-09
-3.054130e-11
0.000000e+00
-1.654420e-10
-1.131210e-09
-1.240240e-09
1.052650e-09
-1.429720e-09
-3.054130e-11
9.426750e-10
4.869430e-10
-8.955420e-10
-1.240240e-09
1.571130e-11
-4.033850e-10
-3.054130e-11
0.000000e+00
4.869430e-10
1.728240e-10
-1.240240e-09
1.052650e-09
-4.033850e-10
0.000000e+00
9.426750e-10
4.869430e-10
0.000000e+00
1.487390e-10
1.571130e-11
-4.033850e-10
0.000000e+00
-2.537400e-10
4.869430e-10
1.728240e-10
1.487390e-10
-2.985140e-10
-4.033850e-10
0.000000e+00
-2.537400e-10
0.000000e+00
0.000000e+00
1.487390e-10
0.000000e+00
2.152460e-11
0.000000e+00
-2.537400e-10
-7.541400e-10
3.986520e-10
1.487390e-10
-2.985140e-10
2.152460e-11
-9.740980e-10
-2.537400e-10
0.000000e+00
3.986520e-10
0.000000e+00
0.000000e+00
2.152460e-11
0.000000e+00
-5.898630e-10
-7.541400e-10
3.986520e-10
1.084080e-09
5.178950e-10
2.152460e-11
-9.740980e-10
-5.898630e-10
0.000000e+00
3.986520e-10
0.000000e+00
5.178950e-10
-4.870490e-10
0.000000e+00
-5.898630e-10
0.000000e+00
1.584330e-10
1.084080e-09
5.178950e-10
0.000000e+00
-9.296510e-11
-5.898630e-10
0.000000e+00
1.584330e-10
0.000000e+00
5.178950e-10
-4.870490e-10
-9.296510e-11
-8.484080e-10
0.000000e+00
1.584330e-10
0.000000e+00
-1.011880e-09
0.000000e+00
-9.296510e-11
0.000000e+00
-3.572700e-10
1.584330e-10
0.000000e+00
-1.011880e-09
0.000000e+00
-9.296510e-11
-8.484080e-10
-3.572700e-10
1.853930e-09
0.000000e+00
-1.011880e-09
0.000000e+00
4.803940e-10
0.000000e+00
-3.572700e-10
5.027600e-10
5.150830e-10
-1.011880e-09
0.000000e+00
4.803940e-10
0.000000e+00
-3.572700e-10
1.853930e-09
5.150830e-10
0.000000e+00
0.000000e+00
4.803940e-10
0.000000e+00
-1.629630e-10
5.027600e-10
5.150830e-10
-7.698510e-10
-1.097750e-10
4.803940e-10
0.000000e+00
-1.629630e-10
0.000000e+00
5.150830e-10
0.000000e+00
-1.097750e-10
-3.142250e-11
0.000000e+00
-1.629630e-10
0.000000e+00
6.085600e-10
-7.698510e-10
-1.097750e-10
0.000000e+00
1.466460e-11
-1.629630e-10
0.000000e+00
6.085600e-10
0.000000e+00
-1.097750e-10
-3.142250e-11
1.466460e-11
0.000000e+00
0.000000e+00
6.085600e-10
0.000000e+00
-3.459960e-10
0.000000e+00
1.466460e-11
0.000000e+00
1.128680e-10
6.085600e-10
0.000000e+00
-3.459960e-10
7.384290e-10
1.466460e-11
0.000000e+00
1.128680e-10
0.000000e+00
0.000000e+00
-3.459960e-10
0.000000e+00
1.561400e-10
0.000000e+00
1.128680e-10
0.000000e+00
1.232000e-11
-3.459960e-10
7.384290e-10
1.561400e-10
0.000000e+00
1.128680e-10
0.000000e+00
1.232000e-11
0.000000e+00
0.000000e+00
1.561400e-10
1.728240e-10
1.315540e-10
0.000000e+00
1.232000e-11
1.414010e-10
1.271920e-10
1.561400e-10
0.000000e+00
1.315540e-10
0.000000e+00
1.232000e-11
0.000000e+00
1.271920e-10
0.000000e+00
1.728240e-10
1.315540e-10
1.099790e-10
1.009070e-10
1.414010e-10
1.271920e-10
0.000000e+00
9.060850e-12
1.315540e-10
0.000000e+00
1.009070e-10
0.000000e+00
1.271920e-10
0.000000e+00
9.060850e-12
0.000000e+00
1.099790e-10
1.009070e-10
0.000000e+00
4.655670e-11
0.000000e+00
9.060850e-12
0.000000e+00
-1.165760e-10
1.009070e-10
0.000000e+00
4.655670e-11
0.000000e+00
9.060850e-12
0.000000e+00
-1.165760e-10
-1.728240e-10
0.000000e+00
4.655670e-11
-9.426750e-11
-1.300070e-10
0.000000e+00
-1.165760e-10
0.000000e+00
-8.317940e-11
4.655670e-11
0.000000e+00
-1.300070e-10
0.000000e+00
-1.165760e-10
-1.728240e-10
-8.317940e-11
0.000000e+00
-9.426750e-11
-1.300070e-10
2.513800e-10
1.749290e-10
0.000000e+00
-8.317940e-11
4.242040e-10
2.557950e-10
-1.300070e-10
0.000000e+00
1.749290e-10
0.000000e+00
-8.317940e-11
0.000000e+00
2.557950e-10
0.000000e+00
2.513800e-10
1.749290e-10
0.000000e+00
-6.911980e-11
4.242040e-10
2.557950e-10
7.855630e-11
-5.084620e-11
1.749290e-10
0.000000e+00
-6.911980e-11
0.000000e+00
2.557950e-10
0.000000e+00
-5.084620e-11
-3.142250e-11
0.000000e+00
-6.911980e-11
0.000000e+00
-1.283140e-10
7.855630e-11
-5.084620e-11
0.000000e+00
-4.094940e-11
-6.911980e-11
0.000000e+00
-1.283140e-10
-2.199580e-10
-5.084620e-11
-3.142250e-11
-4.094940e-11
-1.571130e-11
0.000000e+00
-1.283140e-10
0.000000e+00
-4.799730e-11
0.000000e+00
-4.094940e-11
0.000000e+00
-1.232080e-11
-1.283140e-10
-2.199580e-10
-4.799730e-11
-9.426750e-11
-4.094940e-11
-1.571130e-11
-1.232080e-11
-4.713380e-11
0.000000e+00
-4.799730e-11
1.414010e-10
1.251230e-10
0.000000e+00
-1.232080e-11
1.256900e-10
9.544290e-11
-4.799730e-11
-9.426750e-11
1.251230e-10
1.099790e-10
-1.232080e-11
-4.713380e-11
9.544290e-11
0.000000e+00
1.414010e-10
1.251230e-10
4.084930e-10
3.799000e-10
1.256900e-10
9.544290e-11
4.242040e-10
3.827530e-10
1.251230e-10
1.099790e-10
3.799000e-10
3.142250e-10
9.544290e-11
0.000000e+00
3.827530e-10
3.299360e-10
</DataArray>
<DataArray type="Float32" Name="V2" format="ascii">
0.000000e+00
0.000000e+00
3.667020e-02
3.667020e-02
0.000000e+00
0.000000e+00
3.667020e-02
3.667020e-02
0.000000e+00
0.000000e+00
3.667020e-02
3.667020e-02
0.000000e+00
0.000000e+00
3.667020e-02
3.667020e-02
3.667020e-02
3.667020e-02
-2.054490e-03
-2.054490e-03
3.667020e-02
3.667020e-02
-2.054480e-03
-2.054490e-03
3.667020e-02
3.667020e-02
-2.054490e-03
-2.054480e-03
3.667020e-02
3.667020e-02
-2.054490e-03
-2.054480e-03
-2.054490e-03
-2.054490e-03
-4.839150e-02
-4.839150e-02
-2.054480e-03
-2.054490e-03
-4.839150e-02
-4.839150e-02
-2.054490e-03
-2.054480e-03
-4.839150e-02
-4.839150e-02
-2.054490e-03
-2.054480e-03
-4.839150e-02
-4.839150e-02
-4.839150e-02
-4.839150e-02
-5.816740e-02
-5.816740e-02
-4.839150e-02
-4.839150e-02
-5.816740e-02
-5.816740e-02
-4.839150e-02
-4.839150e-02
-5.816740e-02
-5.816740e-02
-4.839150e-02
-4.839150e-02
-5.816740e-02
-5.816740e-02
-5.816740e-02
-5.816740e-02
-4.858190e-02
-4.858180e-02
-5.816740e-02
-5.816740e-02
-4.858190e-02
-4.858190e-02
-5.816740e-02
-5.816740e-02
-4.858180e-02
-4.858190e-02
-5.816740e-02
-5.816740e-02
-4.858190e-02
-4.858180e-02
-4.858190e-02
-4.858180e-02
-3.261810e-02
-3.261810e-02
-4.858190e-02
-4.858190e-02
-3.261810e-02
-3.261810e-02
-4.858180e-02
-4.858190e-02
-3.261810e-02
-3.261810e-02
-4.858190e-02
-4.858180e-02
-3.261810e-02
-3.261810e-02
-3.261810e-02
-3.261810e-02
-1.997070e-02
-1.997070e-02
-3.261810e-02
-3.261810e-02
-1.997070e-02
-1.997070e-02
-3.261810e-02
-3.261810e-02
-1.997070e-02
-1.997070e-02
-3.261810e-02
-3.261810e-02
-1.997070e-02
-1.997070e-02
-1.997070e-02
-1.997070e-02
-8.812590e-03
-8.812590e-03
-1.997070e-02
-1.997070e-02
-8.812590e-03
-8.812590e-03
-1.997070e-02
-1.997070e-02
-8.812590e-03
-8.812590e-03
-1.997070e-02
-1.997070e-02
-8.812590e-03
-8.812590e-03
-8.812590e-03
-8.812590e-03
-4.431430e-03
-4.431430e-03
-8.812590e-03
-8.812590e-03
-4.431430e-03
-4.431430e-03
-8.812590e-03
-8.812590e-03
-4.431430e-03
-4.431420e-03
-8.812590e-03
-8.812590e-03
-4.431430e-03
-4.431420e-03
-4.431430e-03
-4.431430e-03
-2.934470e-03
-2.934470e-03
-4.431430e-03
-4.431430e-03
-2.934470e-03
-2.934470e-03
-4.431430e-03
-4.431420e-03
-2.934470e-03
-2.934470e-03
-4.431430e-03
-4.431420e-03
-2.934470e-03
-2.934470e-03
-2.934470e-03
-2.934470e-03
-1.133340e-03
-1.133340e-03
-2.934470e-03
-2.934470e-03
-1.133330e-03
-1.133330e-03
-2.934470e-03
-2.934470e-03
-1.133340e-03
-1.133340e-03
-2.934470e-03
-2.934470e-03
-1.133330e-03
-1.133330e-03
-1.133340e-03
-1.133340e-03
-1.523750e-03
-1.523750e-03
-1.133330e-03
-1.133330e-03
-1.523750e-03
-1.523750e-03
-1.133340e-03
-1.133340e-03
-1.523750e-03
-1.523750e-03
-1.133330e-03
-1.133330e-03
-1.523750e-03
-1.523750e-03
-1.523750e-03
-1.523750e-03
-3.903190e-04
-3.903200e-04
-1.523750e-03
-1.523750e-03
-3.903190e-04
-3.903200e-04
-1.523750e-03
-1.523750e-03
-3.903200e-04
-3.903210e-04
-1.523750e-03
-1.523750e-03
-3.903200e-04
-3.903190e-04
-3.903190e-04
-3.903200e-04
-7.795330e-04
-7.795320e-04
-3.903190e-04
-3.903200e-04
-7.795300e-04
-7.795330e-04
-3.903200e-04
-3.903210e-04
-7.795320e-04
-7.795340e-04
-3.903200e-04
-3.903190e-04
-7.795330e-04
-7.795320e-04
-7.795330e-04
-7.795320e-04
-5.561970e-04
-5.561940e-04
-7.795300e-04
-7.795330e-04
-5.561960e-04
-5.561920e-04
-7.795320e-04
-7.795340e-04
-5.561940e-04
-5.561920e-04
-7.795330e-04
-7.795320e-04
-5.561920e-04
-5.561940e-04
-5.561970e-04
-5.561940e-04
-2.159730e-05
-2.159710e-05
-5.561960e-04
-5.561920e-04
-2.159710e-05
-2.159860e-05
-5.561940e-04
-5.561920e-04
-2.159710e-05
-2.159990e-05
-5.561920e-04
-5.561940e-04
-2.159860e-05
-2.160080e-05
-2.159730e-05
-2.159710e-05
1.787400e-04
1.787370e-04
-2.159710e-05
-2.159860e-05
1.787360e-04
1.787380e-04
-2.159710e-05
-2.159990e-05
1.787370e-04
1.787380e-04
-2.159860e-05
-2.160080e-05
1.787380e-04
1.787360e-04
1.787400e-04
1.787370e-04
-1.833420e-04
-1.833390e-04
1.787360e-04
1.787380e-04
-1.833390e-04
-1.833410e-04
1.787370e-04
1.787380e-04
-1.833390e-04
-1.833410e-04
1.787380e-04
1.787360e-04
-1.833410e-04
-1.833380e-04
-1.833420e-04
-1.833390e-04
6.281360e-06
6.279980e-06
-1.833390e-04
-1.833410e-04
6.278090e-06
6.277900e-06
-1.833390e-04
-1.833410e-04
6.279980e-06
6.279600e-06
-1.833410e-04
-1.833380e-04
6.277900e-06
6.277400e-06
6.281360e-06
6.279980e-06
-1.252070e-05
-1.252140e-05
6.278090e-06
6.277900e-06
-1.252220e-05
-1.252320e-05
6.279980e-06
6.279600e-06
-1.252140e-05
-1.252040e-05
6.277900e-06
6.277400e-06
-1.252320e-05
-1.252230e-05
-1.252070e-05
-1.252140e-05
-4.166140e-04
-4.166170e-04
-1.252220e-05
-1.252320e-05
-4.166180e-04
-4.166120e-04
-1.252140e-05
-1.252040e-05
-4.166170e-04
-4.166120e-04
-1.252320e-05
-1.252230e-05
-4.166120e-04
-4.166150e-04
-4.166140e-04
-4.166170e-04
-2.992070e-04
-2.992010e-04
-4.166180e-04
-4.166120e-04
-2.992010e-04
-2.992040e-04
-4.166170e-04
-4.166120e-04
-2.992010e-04
-2.992040e-04
-4.166120e-04
-4.166150e-04
-2.992040e-04
-2.992040e-04
-2.992070e-04
-2.992010e-04
6.447900e-07
6.455440e-07
-2.992010e-04
-2.992040e-04
6.450410e-07
6.460470e-07
-2.992010e-04
-2.992040e-04
6.455440e-07
6.460470e-07
-2.992040e-04
-2.992040e-04
6.460470e-07
6.476810e-07
6.447900e-07
6.455440e-07
-2.095580e-04
-2.095610e-04
6.450410e-07
6.460470e-07
-2.095620e-04
-2.095660e-04
6.455440e-07
6.460470e-07
-2.095610e-04
-2.095630e-04
6.460470e-07
6.476810e-07
-2.095660e-04
-2.095660e-04
-2.095580e-04
-2.095610e-04
-3.368360e-04
-3.368370e-04
-2.095620e-04
-2.095660e-04
-3.368350e-04
-3.368290e-04
-2.095610e-04
-2.095630e-04
-3.368370e-04
-3.368350e-04
-2.095660e-04
-2.095660e-04
-3.368290e-04
-3.368320e-04
-3.368360e-04
-3.368370e-04
-6.042780e-04
-6.042790e-04
-3.368350e-04
-3.368290e-04
-6.042780e-04
-6.042800e-04
-3.368370e-04
-3.368350e-04
-6.042790e-04
-6.042750e-04
-3.368290e-04
-3.368320e-04
-6.042800e-04
-6.042730e-04
-6.042780e-04
-6.042790e-04
-8.224950e-04
-8.224880e-04
-6.042780e-04
-6.042800e-04
-8.224880e-04
-8.224900e-04
-6.042790e-04
-6.042750e-04
-8.224880e-04
-8.224920e-04
-6.042800e-04
-6.042730e-04
-8.224900e-04
-8.224980e-04
-8.224950e-04
-8.224880e-04
-7.724380e-04
-7.724400e-04
-8.224880e-04
-8.224900e-04
-7.724400e-04
-7.724380e-04
-8.224880e-04
-8.224920e-04
-7.724400e-04
-7.724390e-04
-8.224900e-04
-8.224980e-04
-7.724380e-04
-7.724360e-04
-7.724380e-04
-7.724400e-04
1.808770e-04
1.808780e-04
-7.724400e-04
-7.724380e-04
1.808780e-04
1.808780e-04
-7.724400e-04
-7.724390e-04
1.808780e-04
1.808770e-04
-7.724380e-04
-7.724360e-04
1.808780e-04
1.808770e-04
1.808770e-04
1.808780e-04
-7.666330e-04
-7.666330e-04
1.808780e-04
1.808780e-04
-7.666330e-04
-7.666340e-04
1.808780e-04
1.808770e-04
-7.666330e-04
-7.666330e-04
1.808780e-04
1.808770e-04
-7.666340e-04
-7.666370e-04
0.000000e+00
0.000000e+00
3.667020e-02
3.667020e-02
0.000000e+00
0.000000e+00
3.667020e-02
3.667020e-02
0.000000e+00
0.000000e+00
3.667020e-02
3.667020e-02
0.000000e+00
0.000000e+00
3.667020e-02
3.667020e-02
3.667020e-02
3.667020e-02
-2.054480e-03
-2.054490e-03
3.667020e-02
3.667020e-02
-2.054480e-03
-2.054480e-03
3.667020e-02
3.667020e-02
-2.054490e-03
-2.054480e-03
3.667020e-02
3.667020e-02