<?xml version="1.0"?>
<VTKFile type="UnstructuredGrid" version="0.1" byte_order="LittleEndian" compressor="vtkZLibDataCompressor">
<UnstructuredGrid>
<Piece NumberOfPoints="960" NumberOfCells="120">
<Points>
<DataArray type="Float32" NumberOfComponents="3" format="ascii">
-4.000000e+02 -6.000000e+03 -4.000000e+02
0.000000e+00 -6.000000e+03 -4.000000e+02
-4.000000e+02 -5.600000e+03 -4.000000e+02
-9.396330e-10 -5.600000e+03 -4.000000e+02
-4.000000e+02 -6.000000e+03 0.000000e+00
0.000000e+00 -6.000000e+03 0.000000e+00
-4.000000e+02 -5.600000e+03 -5.240710e-10
6.076190e-10 -5.600000e+03 1.945520e-10
0.000000e+00 -6.000000e+03 -4.000000e+02
4.000000e+02 -6.000000e+03 -4.000000e+02
-9.396330e-10 -5.600000e+03 -4.000000e+02
4.000000e+02 -5.600000e+03 -4.000000e+02
0.000000e+00 -6.000000e+03 0.000000e+00
4.000000e+02 -6.000000e+03 0.000000e+00
6.076190e-10 -5.600000e+03 1.945520e-10
4.000000e+02 -5.600000e+03 6.363610e-10
-4.000000e+02 -5.600000e+03 -4.000000e+02
-9.396330e-10 -5.600000e+03 -4.000000e+02
-4.000000e+02 -5.200000e+03 -4.000000e+02
3.582810e-11 -5.200000e+03 -4.000000e+02
-4.000000e+02 -5.600000e+03 -5.240710e-10
6.076190e-10 -5.600000e+03 1.945520e-10
-4.000000e+02 -5.200000e+03 1.089090e-10
7.585730e-10 -5.200000e+03 5.555940e-10
-9.396330e-10 -5.600000e+03 -4.000000e+02
4.000000e+02 -5.600000e+03 -4.000000e+02
3.582810e-11 -5.200000e+03 -4.000000e+02
4.000000e+02 -5.200000e+03 -4.000000e+02
6.076190e-10 -5.600000e+03 1.945520e-10
4.000000e+02 -5.600000e+03 6.363610e-10
7.585730e-10 -5.200000e+03 5.555940e-10
4.000000e+02 -5.200000e+03 5.281690e-10
-4.000000e+02 -5.200000e+03 -4.000000e+02
3.582810e-11 -5.200000e+03 -4.000000e+02
-4.000000e+02 -4.800000e+03 -4.000000e+02
6.122330e-10 -4.800000e+03 -4.000000e+02
-4.000000e+02 -5.200000e+03 1.089090e-10
7.585730e-10 -5.200000e+03 5.555940e-10
-4.000000e+02 -4.800000e+03 5.706940e-10
-4.034930e-10 -4.800000e+03 6.588540e-10
3.582810e-11 -5.200000e+03 -4.000000e+02
4.000000e+02 -5.200000e+03 -4.000000e+02
6.122330e-10 -4.800000e+03 -4.000000e+02
4.000000e+02 -4.800000e+03 -4.000000e+02
7.585730e-10 -5.200000e+03 5.555940e-10
4.000000e+02 -5.200000e+03 5.281690e-10
-4.034930e-10 -4.800000e+03 6.588540e-10
4.000000e+02 -4.800000e+03 -4.997890e-10
-4.000000e+02 -4.800000e+03 -4.000000e+02
6.122330e-10 -4.800000e+03 -4.000000e+02
-4.000000e+02 -4.400000e+03 -4.000000e+02
-7.003110e-10 -4.400000e+03 -4.000000e+02
-4.000000e+02 -4.800000e+03 5.706940e-10
-4.034930e-10 -4.800000e+03 6.588540e-10
-4.000000e+02 -4.400000e+03 3.395540e-10
-1.862440e-09 -4.400000e+03 -1.538580e-10
6.122330e-10 -4.800000e+03 -4.000000e+02
4.000000e+02 -4.800000e+03 -4.000000e+02
-7.003110e-10 -4.400000e+03 -4.000000e+02
4.000000e+02 -4.400000e+03 -4.000000e+02
-4.034930e-10 -4.800000e+03 6.588540e-10
4.000000e+02 -4.800000e+03 -4.997890e-10
-1.862440e-09 -4.400000e+03 -1.538580e-10
4.000000e+02 -4.400000e+03 8.087770e-10
-4.000000e+02 -4.400000e+03 -4.000000e+02
-7.003110e-10 -4.400000e+03 -4.000000e+02
-4.000000e+02 -4.000000e+03 -4.000000e+02
-9.114790e-10 -4.000000e+03 -4.000000e+02
-4.000000e+02 -4.400000e+03 3.395540e-10
-1.862440e-09 -4.400000e+03 -1.538580e-10
-4.000000e+02 -4.000000e+03 -1.010160e-09
-1.124380e-09 -4.000000e+03 -6.411530e-10
-7.003110e-10 -4.400000e+03 -4.000000e+02
4.000000e+02 -4.400000e+03 -4.000000e+02
-9.114790e-10 -4.000000e+03 -4.000000e+02
4.000000e+02 -4.000000e+03 -4.000000e+02
-1.862440e-09 -4.400000e+03 -1.538580e-10
4.000000e+02 -4.400000e+03 8.087770e-10
-1.124380e-09 -4.000000e+03 -6.411530e-10
4.000000e+02 -4.000000e+03 4.488170e-10
-4.000000e+02 -4.000000e+03 -4.000000e+02
-9.114790e-10 -4.000000e+03 -4.000000e+02
-4.000000e+02 -3.600000e+03 -4.000000e+02
-1.973490e-09 -3.600000e+03 -4.000000e+02
-4.000000e+02 -4.000000e+03 -1.010160e-09
-1.124380e-09 -4.000000e+03 -6.411530e-10
-4.000000e+02 -3.600000e+03 -2.569820e-09
-2.236550e-09 -3.600000e+03 -1.260340e-09
-9.114790e-10 -4.000000e+03 -4.000000e+02
4.000000e+02 -4.000000e+03 -4.000000e+02
-1.973490e-09 -3.600000e+03 -4.000000e+02
4.000000e+02 -3.600000e+03 -4.000000e+02
-1.124380e-09 -4.000000e+03 -6.411530e-10
4.000000e+02 -4.000000e+03 4.488170e-10
-2.236550e-09 -3.600000e+03 -1.260340e-09
4.000000e+02 -3.600000e+03 -1.146510e-09
-4.000000e+02 -3.600000e+03 -4.000000e+02
-1.973490e-09 -3.600000e+03 -4.000000e+02
-4.000000e+02 -3.200000e+03 -4.000000e+02
-3.108260e-09 -3.200000e+03 -4.000000e+02
-4.000000e+02 -3.600000e+03 -2.569820e-09
-2.236550e-09 -3.600000e+03 -1.260340e-09
-4.000000e+02 -3.200000e+03 -2.415200e-09
-3.669300e-09 -3.200000e+03 -2.088500e-09
-1.973490e-09 -3.600000e+03 -4.000000e+02
4.000000e+02 -3.600000e+03 -4.000000e+02
-3.108260e-09 -3.200000e+03 -4.000000e+02
4.000000e+02 -3.200000e+03 -4.000000e+02
-2.236550e-09 -3.600000e+03 -1.260340e-09
4.000000e+02 -3.600000e+03 -1.146510e-09
-3.669300e-09 -3.200000e+03 -2.088500e-09
4.000000e+02 -3.200000e+03 -2.507870e-09
-4.000000e+02 -3.200000e+03 -4.000000e+02
-3.108260e-09 -3.200000e+03 -4.000000e+02
-4.000000e+02 -2.800000e+03 -4.000000e+02
-3.068400e-09 -2.800000e+03 -4.000000e+02
-4.000000e+02 -3.200000e+03 -2.415200e-09
-3.669300e-09 -3.200000e+03 -2.088500e-09
-4.000000e+02 -2.800000e+03 -5.318270e-10
-3.234490e-09 -2.800000e+03 -1.887940e-09
-3.108260e-09 -3.200000e+03 -4.000000e+02
4.000000e+02 -3.200000e+03 -4.000000e+02
-3.068400e-09 -2.800000e+03 -4.000000e+02
4.000000e+02 -2.800000e+03 -4.000000e+02
-3.669300e-09 -3.200000e+03 -2.088500e-09
4.000000e+02 -3.200000e+03 -2.507870e-09
-3.234490e-09 -2.800000e+03 -1.887940e-09
4.000000e+02 -2.800000e+03 -2.362420e-09
-4.000000e+02 -2.800000e+03 -4.000000e+02
-3.068400e-09 -2.800000e+03 -4.000000e+02
-4.000000e+02 -2.400010e+03 -4.000000e+02
-2.370220e-09 -2.400010e+03 -4.000000e+02
-4.000000e+02 -2.800000e+03 -5.318270e-10
-3.234490e-09 -2.800000e+03 -1.887940e-09
-4.000000e+02 -2.400010e+03 -1.546760e-09
-2.451250e-09 -2.400010e+03 -1.686110e-09
-3.068400e-09 -2.800000e+03 -4.000000e+02
4.000000e+02 -2.800000e+03 -4.000000e+02
-2.370220e-09 -2.400010e+03 -4.000000e+02
4.000000e+02 -2.400010e+03 -4.000000e+02
-3.234490e-09 -2.800000e+03 -1.887940e-09
4.000000e+02 -2.800000e+03 -2.362420e-09
-2.451250e-09 -2.400010e+03 -1.686110e-09
4.000000e+02 -2.400010e+03 -1.013360e-09
-4.000000e+02 -2.400010e+03 -4.000000e+02
-2.370220e-09 -2.400010e+03 -4.000000e+02
-4.000000e+02 -2.000020e+03 -4.000000e+02
-1.627640e-09 -2.000020e+03 -4.000000e+02
-4.000000e+02 -2.400010e+03 -1.546760e-09
-2.451250e-09 -2.400010e+03 -1.686110e-09
-4.000000e+02 -2.000020e+03 -2.506020e-09
-1.942490e-09 -2.000020e+03 -1.109240e-09
-2.370220e-09 -2.400010e+03 -4.000000e+02
4.000000e+02 -2.400010e+03 -4.000000e+02
-1.627640e-09 -2.000020e+03 -4.000000e+02
4.000000e+02 -2.000020e+03 -4.000000e+02
-2.451250e-09 -2.400010e+03 -1.686110e-09
4.000000e+02 -2.400010e+03 -1.013360e-09
-1.942490e-09 -2.000020e+03 -1.109240e-09
4.000000e+02 -2.000020e+03 -1.437830e-09
-4.000000e+02 -2.000020e+03 -4.000000e+02
-1.627640e-09 -2.000020e+03 -4.000000e+02
-4.000000e+02 -1.600040e+03 -4.000000e+02
-2.336850e-10 -1.600040e+03 -4.000000e+02
-4.000000e+02 -2.000020e+03 -2.506020e-09
-1.942490e-09 -2.000020e+03 -1.109240e-09
-4.000000e+02 -1.600040e+03 -2.707520e-10
-2.731650e-10 -1.600040e+03 -1.205580e-10
-1.627640e-09 -2.000020e+03 -4.000000e+02
4.000000e+02 -2.000020e+03 -4.000000e+02
-2.336850e-10 -1.600040e+03 -4.000000e+02
4.000000e+02 -1.600040e+03 -4.000000e+02
-1.942490e-09 -2.000020e+03 -1.109240e-09
4.000000e+02 -2.000020e+03 -1.437830e-09
-2.731650e-10 -1.600040e+03 -1.205580e-10
4.000000e+02 -1.600040e+03 -3.196870e-10
-4.000000e+02 -1.600040e+03 -4.000000e+02
-2.336850e-10 -1.600040e+03 -4.000000e+02
-4.000000e+02 -1.200060e+03 -4.000000e+02
9.474920e-10 -1.200060e+03 -4.000000e+02
-4.000000e+02 -1.600040e+03 -2.707520e-10
-2.731650e-10 -1.600040e+03 -1.205580e-10
-4.000000e+02 -1.200060e+03 -1.526860e-10
7.142230e-10 -1.200060e+03 3.719980e-11
-2.336850e-10 -1.600040e+03 -4.000000e+02
4.000000e+02 -1.600040e+03 -4.000000e+02
9.474920e-10 -1.200060e+03 -4.000000e+02
4.000000e+02 -1.200060e+03 -4.000000e+02
-2.731650e-10 -1.600040e+03 -1.205580e-10
4.000000e+02 -1.600040e+03 -3.196870e-10
7.142230e-10 -1.200060e+03 3.719980e-11
4.000000e+02 -1.200060e+03 -3.473120e-11
-4.000000e+02 -1.200060e+03 -4.000000e+02
9.474920e-10 -1.200060e+03 -4.000000e+02
-4.000000e+02 -8.001080e+02 -4.000000e+02
1.884630e-09 -8.001080e+02 -4.000000e+02
-4.000000e+02 -1.200060e+03 -1.526860e-10
7.142230e-10 -1.200060e+03 3.719980e-11
-4.000000e+02 -8.001080e+02 -6.114290e-10
1.508950e-09 -8.001080e+02 -6.703320e-11
9.474920e-10 -1.200060e+03 -4.000000e+02
4.000000e+02 -1.200060e+03 -4.000000e+02
1.884630e-09 -8.001080e+02 -4.000000e+02
4.000000e+02 -8.001080e+02 -4.000000e+02
7.142230e-10 -1.200060e+03 3.719980e-11
4.000000e+02 -1.200060e+03 -3.473120e-11
1.508950e-09 -8.001080e+02 -6.703320e-11
4.000000e+02 -8.001080e+02 4.135690e-10
-4.000000e+02 -8.001080e+02 -4.000000e+02
1.884630e-09 -8.001080e+02 -4.000000e+02
-4.000000e+02 -4.001670e+02 -4.000000e+02
1.259550e-09 -4.001670e+02 -4.000000e+02
-4.000000e+02 -8.001080e+02 -6.114290e-10
1.508950e-09 -8.001080e+02 -6.703320e-11
-4.000000e+02 -4.001670e+02 2.342410e-10
9.074010e-10 -4.001670e+02 9.511770e-10
1.884630e-09 -8.001080e+02 -4.000000e+02
4.000000e+02 -8.001080e+02 -4.000000e+02
1.259550e-09 -4.001670e+02 -4.000000e+02
4.000000e+02 -4.001670e+02 -4.000000e+02
1.508950e-09 -8.001080e+02 -6.703320e-11
4.000000e+02 -8.001080e+02 4.135690e-10
9.074010e-10 -4.001670e+02 9.511770e-10
4.000000e+02 -4.001670e+02 9.222350e-10
-4.000000e+02 -4.001670e+02 -4.000000e+02
1.259550e-09 -4.001670e+02 -4.000000e+02
-4.000000e+02 -2.326520e-01 -4.000000e+02
1.147940e-09 -2.326520e-01 -4.000000e+02
-4.000000e+02 -4.001670e+02 2.342410e-10
9.074010e-10 -4.001670e+02 9.511770e-10
-4.000000e+02 -2.326520e-01 1.153090e-09
3.671810e-10 -2.326520e-01 1.998420e-09
1.259550e-09 -4.001670e+02 -4.000000e+02
4.000000e+02 -4.001670e+02 -4.000000e+02
1.147940e-09 -2.326520e-01 -4.000000e+02
[...]
<PointData>
<DataArray type="Float32" Name="V1" format="ascii">
0.000000e+00
0.000000e+00
-1.351170e-09
6.616010e-11
0.000000e+00
0.000000e+00
2.199580e-10
-6.908900e-10
0.000000e+00
0.000000e+00
6.616010e-11
3.456480e-10
0.000000e+00
0.000000e+00
-6.908900e-10
-1.099790e-09
-1.351170e-09
6.616010e-11
-1.555410e-09
-7.589080e-10
2.199580e-10
-6.908900e-10
-1.696820e-09
-4.148900e-10
6.616010e-11
3.456480e-10
-7.589080e-10
-1.335460e-09
-6.908900e-10
-1.099790e-09
-4.148900e-10
1.571130e-09
-1.555410e-09
-7.589080e-10
-6.284500e-11
3.061250e-10
-1.696820e-09
-4.148900e-10
2.545220e-09
4.042480e-10
-7.589080e-10
-1.335460e-09
3.061250e-10
2.670910e-10
-4.148900e-10
1.571130e-09
4.042480e-10
8.169850e-10
-6.284500e-11
3.061250e-10
-2.121020e-09
4.382990e-10
2.545220e-09
4.042480e-10
-9.740980e-10
-6.334840e-10
3.061250e-10
2.670910e-10
4.382990e-10
1.775370e-09
4.042480e-10
8.169850e-10
-6.334840e-10
3.456480e-10
-2.121020e-09
4.382990e-10
-1.728240e-10
-5.472530e-10
-9.740980e-10
-6.334840e-10
0.000000e+00
1.817040e-10
4.382990e-10
1.775370e-09
-5.472530e-10
1.099790e-10
-6.334840e-10
3.456480e-10
1.817040e-10
2.199580e-10
-1.728240e-10
-5.472530e-10
-2.513800e-10
5.596850e-10
0.000000e+00
1.817040e-10
-2.843740e-09
2.044490e-09
-5.472530e-10
1.099790e-10
5.596850e-10
-6.441610e-10
1.817040e-10
2.199580e-10
2.044490e-09
2.686620e-09
-2.513800e-10
5.596850e-10
-2.388110e-09
-5.159340e-10
-2.843740e-09
2.044490e-09
2.231000e-09
5.644140e-10
5.596850e-10
-6.441610e-10
-5.159340e-10
7.855630e-10
2.044490e-09
2.686620e-09
5.644140e-10
-2.450960e-09
-2.388110e-09
-5.159340e-10
1.492570e-09
7.252260e-10
2.231000e-09
5.644140e-10
-1.335460e-09
-8.309470e-10
-5.159340e-10
7.855630e-10
7.252260e-10
3.063690e-09
5.644140e-10
-2.450960e-09
-8.309470e-10
-3.315070e-09
1.492570e-09
7.252260e-10
3.299360e-10
5.593240e-10
-1.335460e-09
-8.309470e-10
-3.142250e-10
-3.166140e-10
7.252260e-10
3.063690e-09
5.593240e-10
2.011040e-09
-8.309470e-10
-3.315070e-09
-3.166140e-10
3.142250e-11
3.299360e-10
5.593240e-10
7.541400e-10
1.405420e-09
-3.142250e-10
-3.166140e-10
3.142250e-10
1.785460e-10
5.593240e-10
2.011040e-09
1.405420e-09
-1.728240e-09
-3.166140e-10
3.142250e-11
1.785460e-10
-7.698510e-10
7.541400e-10
1.405420e-09
9.269640e-10
2.142040e-11
3.142250e-10
1.785460e-10
-1.414010e-10
-9.010080e-10
1.405420e-09
-1.728240e-09
2.142040e-11
-9.583870e-10
1.785460e-10
-7.698510e-10
-9.010080e-10
-1.209770e-09
9.269640e-10
2.142040e-11
1.351170e-09
4.096430e-10
-1.414010e-10
-9.010080e-10
-9.426750e-10
-1.934190e-10
2.142040e-11
-9.583870e-10
4.096430e-10
1.649680e-09
-9.010080e-10
-1.209770e-09
-1.934190e-10
0.000000e+00
1.351170e-09
4.096430e-10
-2.608070e-09
4.284610e-10
-9.426750e-10
-1.934190e-10
-1.351170e-09
1.075020e-09
4.096430e-10
1.649680e-09
4.284610e-10
1.225480e-09
-1.934190e-10
0.000000e+00
1.075020e-09
7.855630e-10
-2.608070e-09
4.284610e-10
1.476860e-09
-2.694680e-10
-1.351170e-09
1.075020e-09
0.000000e+00
7.014880e-10
4.284610e-10
1.225480e-09
-2.694680e-10
1.696820e-09
1.075020e-09
7.855630e-10
7.014880e-10
1.099790e-10
1.476860e-09
-2.694680e-10
-1.084080e-09
2.954500e-10
0.000000e+00
7.014880e-10
-1.256900e-09
1.874080e-10
-2.694680e-10
1.696820e-09
2.954500e-10
-1.728240e-10
7.014880e-10
1.099790e-10
1.874080e-10
0.000000e+00
-1.084080e-09
2.954500e-10
1.649680e-09
-4.779650e-10
-1.256900e-09
1.874080e-10
1.571130e-09
1.035250e-10
2.954500e-10
-1.728240e-10
-4.779650e-10
4.713380e-10
1.874080e-10
0.000000e+00
1.035250e-10
0.000000e+00
1.649680e-09
-4.779650e-10
-1.036940e-09
1.670000e-09
1.571130e-09
1.035250e-10
-2.513800e-10
-1.458160e-10
-4.779650e-10
4.713380e-10
1.670000e-09
1.398300e-09
1.035250e-10
0.000000e+00
-1.458160e-10
1.256900e-10
-1.036940e-09
1.670000e-09
-1.429720e-09
4.046830e-10
-2.513800e-10
-1.458160e-10
4.713380e-11
1.966060e-10
1.670000e-09
1.398300e-09
4.046830e-10
0.000000e+00
-1.458160e-10
1.256900e-10
1.966060e-10
0.000000e+00
-1.429720e-09
4.046830e-10
8.798300e-10
6.514840e-10
4.713380e-11
1.966060e-10
9.269640e-10
4.537320e-10
4.046830e-10
0.000000e+00
6.514840e-10
0.000000e+00
1.966060e-10
0.000000e+00
4.537320e-10
-8.169850e-10
8.798300e-10
6.514840e-10
-5.341830e-10
-3.252270e-10
9.269640e-10
4.537320e-10
0.000000e+00
-7.116480e-11
6.514840e-10
0.000000e+00
-3.252270e-10
0.000000e+00
4.537320e-10
-8.169850e-10
-7.116480e-11
0.000000e+00
-5.341830e-10
-3.252270e-10
5.970280e-10
2.290800e-10
0.000000e+00
-7.116480e-11
3.142250e-10
1.572370e-10
-3.252270e-10
0.000000e+00
2.290800e-10
0.000000e+00
-7.116480e-11
0.000000e+00
1.572370e-10
0.000000e+00
5.970280e-10
2.290800e-10
2.199580e-10
9.827510e-11
3.142250e-10
1.572370e-10
-1.099790e-10
-2.867000e-11
2.290800e-10
0.000000e+00
9.827510e-11
0.000000e+00
1.572370e-10
0.000000e+00
-2.867000e-11
0.000000e+00
2.199580e-10
9.827510e-11
-9.112530e-10
-4.187280e-10
-1.099790e-10
-2.867000e-11
-6.755840e-10
-4.035570e-10
9.827510e-11
0.000000e+00
-4.187280e-10
2.199580e-10
-2.867000e-11
0.000000e+00
-4.035570e-10
0.000000e+00
-9.112530e-10
-4.187280e-10
0.000000e+00
1.589030e-11
-6.755840e-10
-4.035570e-10
0.000000e+00
4.315750e-13
-4.187280e-10
2.199580e-10
1.589030e-11
0.000000e+00
-4.035570e-10
0.000000e+00
4.315750e-13
0.000000e+00
0.000000e+00
1.589030e-11
2.985140e-10
1.975470e-10
0.000000e+00
4.315750e-13
1.256900e-10
1.578280e-10
1.589030e-11
0.000000e+00
1.975470e-10
0.000000e+00
4.315750e-13
0.000000e+00
1.578280e-10
0.000000e+00
2.985140e-10
1.975470e-10
5.027600e-10
2.948220e-10
1.256900e-10
1.578280e-10
4.870490e-10
2.900290e-10
1.975470e-10
0.000000e+00
2.948220e-10
0.000000e+00
1.578280e-10
0.000000e+00
2.900290e-10
0.000000e+00
5.027600e-10
2.948220e-10
1.099790e-10
5.713500e-11
4.870490e-10
2.900290e-10
9.426750e-11
4.944710e-11
2.948220e-10
0.000000e+00
5.713500e-11
0.000000e+00
2.900290e-10
0.000000e+00
4.944710e-11
0.000000e+00
1.099790e-10
5.713500e-11
-3.456480e-10
-1.907180e-10
9.426750e-11
4.944710e-11
-3.456480e-10
-2.082400e-10
5.713500e-11
0.000000e+00
-1.907180e-10
-9.426750e-11
4.944710e-11
0.000000e+00
-2.082400e-10
-7.855630e-11
-3.456480e-10
-1.907180e-10
-7.855630e-11
-3.746260e-11
-3.456480e-10
-2.082400e-10
-4.713380e-11
-3.524260e-11
-1.907180e-10
-9.426750e-11
-3.746260e-11
0.000000e+00
-2.082400e-10
-7.855630e-11
-3.524260e-11
0.000000e+00
-7.855630e-11
-3.746260e-11
6.284500e-11
3.755510e-11
-4.713380e-11
-3.524260e-11
7.855630e-11
2.957390e-11
-3.746260e-11
0.000000e+00
3.755510e-11
0.000000e+00
-3.524260e-11
0.000000e+00
2.957390e-11
0.000000e+00
0.000000e+00
0.000000e+00
2.199580e-10
-6.908900e-10
0.000000e+00
0.000000e+00
9.112530e-10
2.528780e-10
0.000000e+00
0.000000e+00
-6.908900e-10
-1.099790e-09
0.000000e+00
0.000000e+00
2.528780e-10
-1.571130e-11
2.199580e-10
-6.908900e-10
-1.696820e-09
-4.148900e-10
9.112530e-10
2.528780e-10
9.583870e-10
5.993790e-10
-6.908900e-10
-1.099790e-09
-4.148900e-10
1.571130e-09
2.528780e-10
-1.571130e-11
5.993790e-10
3.142250e-09
-1.696820e-09
-4.148900e-10
2.545220e-09
4.042480e-10
9.583870e-10
5.993790e-10
-6.127390e-10
3.043560e-10
-4.148900e-10
1.571130e-09
4.042480e-10
8.169850e-10
5.993790e-10
3.142250e-09
3.043560e-10
-1.084080e-09
2.545220e-09
4.042480e-10
-9.740980e-10
-6.334840e-10
-6.127390e-10
3.043560e-10
1.398300e-09
1.165100e-09
4.042480e-10
8.169850e-10
-6.334840e-10
3.456480e-10
3.043560e-10
-1.084080e-09
1.165100e-09
-5.498940e-10
-9.740980e-10
-6.334840e-10
0.000000e+00
1.817040e-10
1.398300e-09
1.165100e-09
-1.241190e-09
-8.570870e-10
-6.334840e-10
3.456480e-10
1.817040e-10
2.199580e-10
1.165100e-09
-5.498940e-10
-8.570870e-10
2.042460e-10
0.000000e+00
1.817040e-10
-2.843740e-09
2.044490e-09
-1.241190e-09
-8.570870e-10
6.284500e-10
1.616290e-10
1.817040e-10
2.199580e-10
2.044490e-09
2.686620e-09
-8.570870e-10
2.042460e-10
1.616290e-10
-3.550740e-09
-2.843740e-09
2.044490e-09
2.231000e-09
5.644140e-10
6.284500e-10
1.616290e-10
-7.698510e-10
1.719350e-10
2.044490e-09
2.686620e-09
5.644140e-10
-2.450960e-09
1.616290e-10
-3.550740e-09
1.719350e-10
2.231000e-09
2.231000e-09
5.644140e-10
-1.335460e-09
-8.309470e-10
-7.698510e-10
1.719350e-10
1.885350e-10
-7.553700e-10
5.644140e-10
-2.450960e-09
-8.309470e-10
-3.315070e-09
1.719350e-10
2.231000e-09
-7.553700e-10
3.770700e-10
-1.335460e-09
-8.309470e-10
-3.142250e-10
-3.166140e-10
1.885350e-10
-7.553700e-10
-9.740980e-10
-1.779840e-09
-8.309470e-10
-3.315070e-09
-3.166140e-10
3.142250e-11
-7.553700e-10
3.770700e-10
-1.779840e-09
4.242040e-10
-3.142250e-10
-3.166140e-10
3.142250e-10
1.785460e-10
-9.740980e-10
-1.779840e-09
-1.398300e-09
-9.284510e-11
-3.166140e-10
3.142250e-11
1.785460e-10
-7.698510e-10
-1.779840e-09
4.242040e-10
-9.284510e-11
-7.855630e-10
3.142250e-10
1.785460e-10
-1.414010e-10
-9.010080e-10
-1.398300e-09
-9.284510e-11
-1.728240e-10
-1.364380e-10
1.785460e-10
-7.698510e-10
-9.010080e-10
-1.209770e-09
-9.284510e-11
-7.855630e-10
-1.364380e-10
-6.127390e-10
-1.414010e-10
-9.010080e-10
-9.426750e-10
-1.934190e-10
-1.728240e-10
-1.364380e-10
1.194060e-09
-7.384680e-10
-9.010080e-10
-1.209770e-09
-1.934190e-10
0.000000e+00
-1.364380e-10
-6.127390e-10
-7.384680e-10
-1.131210e-09
-9.426750e-10
-1.934190e-10
-1.351170e-09
1.075020e-09
1.194060e-09
-7.384680e-10
-1.146920e-09
-1.806840e-09
-1.934190e-10
0.000000e+00
1.075020e-09
7.855630e-10
-7.384680e-10
-1.131210e-09
-1.806840e-09
6.127390e-10
-1.351170e-09
1.075020e-09
0.000000e+00
7.014880e-10
-1.146920e-09
-1.806840e-09
-1.838220e-09
4.632200e-10
1.075020e-09
7.855630e-10
7.014880e-10
1.099790e-10
-1.806840e-09
6.127390e-10
4.632200e-10
0.000000e+00
0.000000e+00
7.014880e-10
-1.256900e-09
1.874080e-10
-1.838220e-09
4.632200e-10
5.027600e-10
-4.110340e-11
7.014880e-10
1.099790e-10
1.874080e-10
0.000000e+00
4.632200e-10
0.000000e+00
-4.110340e-11
0.000000e+00
-1.256900e-09
1.874080e-10
1.571130e-09
1.035250e-10
5.027600e-10
-4.110340e-11
3.142250e-10
1.040530e-09
1.874080e-10
0.000000e+00
1.035250e-10
0.000000e+00
-4.110340e-11
0.000000e+00
1.040530e-09
8.484080e-10
1.571130e-09
1.035250e-10
-2.513800e-10
-1.458160e-10
3.142250e-10
1.040530e-09
-1.131210e-09
-1.811830e-09
1.035250e-10
0.000000e+00
-1.458160e-10
1.256900e-10
1.040530e-09
8.484080e-10
-1.811830e-09
1.351170e-09
-2.513800e-10
-1.458160e-10
4.713380e-11
1.966060e-10
-1.131210e-09
-1.811830e-09
-1.256900e-09
7.311770e-10
-1.458160e-10
1.256900e-10
1.966060e-10
0.000000e+00
-1.811830e-09
1.351170e-09
7.311770e-10
0.000000e+00
4.713380e-11
1.966060e-10
9.269640e-10
4.537320e-10
-1.256900e-09
7.311770e-10
1.115500e-09
4.646590e-10
1.966060e-10
0.000000e+00
4.537320e-10
-8.169850e-10
7.311770e-10
0.000000e+00
4.646590e-10
0.000000e+00
9.269640e-10
4.537320e-10
0.000000e+00
-7.116480e-11
1.115500e-09
4.646590e-10
0.000000e+00
1.168100e-10
4.537320e-10
-8.169850e-10
-7.116480e-11
0.000000e+00
4.646590e-10
0.000000e+00
1.168100e-10
3.927810e-10
0.000000e+00
-7.116480e-11
3.142250e-10
1.572370e-10
0.000000e+00
1.168100e-10
5.813160e-10
1.350770e-10
-7.116480e-11
0.000000e+00
1.572370e-10
0.000000e+00
1.168100e-10
3.927810e-10
1.350770e-10
-2.513800e-10
3.142250e-10
1.572370e-10
-1.099790e-10
-2.867000e-11
5.813160e-10
1.350770e-10
9.426750e-11
-8.281900e-11
1.572370e-10
0.000000e+00
-2.867000e-11
0.000000e+00
1.350770e-10
-2.513800e-10
-8.281900e-11
-3.299360e-10
-1.099790e-10
-2.867000e-11
-6.755840e-10
-4.035570e-10
9.426750e-11
-8.281900e-11
-9.269640e-10
-3.704650e-10
-2.867000e-11
0.000000e+00
-4.035570e-10
0.000000e+00
-8.281900e-11
-3.299360e-10
-3.704650e-10
1.256900e-10
-6.755840e-10
-4.035570e-10
0.000000e+00
4.315750e-13
-9.269640e-10
-3.704650e-10
-2.513800e-10
-4.918010e-12
-4.035570e-10
0.000000e+00
4.315750e-13
0.000000e+00
-3.704650e-10
1.256900e-10
-4.918010e-12
0.000000e+00
0.000000e+00
4.315750e-13
1.256900e-10
1.578280e-10
-2.513800e-10
-4.918010e-12
0.000000e+00
9.519890e-11
4.315750e-13
0.000000e+00
1.578280e-10
0.000000e+00
-4.918010e-12
0.000000e+00
9.519890e-11
0.000000e+00
1.256900e-10
1.578280e-10
4.870490e-10
2.900290e-10
0.000000e+00
9.519890e-11
3.613590e-10
2.158310e-10
1.578280e-10
0.000000e+00
2.900290e-10
0.000000e+00
9.519890e-11
0.000000e+00
2.158310e-10
0.000000e+00
4.870490e-10
2.900290e-10
9.426750e-11
4.944710e-11
3.613590e-10
2.158310e-10
7.855630e-11
3.071360e-11
2.900290e-10
0.000000e+00
4.944710e-11
0.000000e+00
2.158310e-10
0.000000e+00
3.071360e-11
0.000000e+00
9.426750e-11
4.944710e-11
-3.456480e-10
-2.082400e-10
7.855630e-11
3.071360e-11
-2.985140e-10
-1.552680e-10
4.944710e-11
0.000000e+00
-2.082400e-10
-7.855630e-11
3.071360e-11
0.000000e+00
-1.552680e-10
0.000000e+00
-3.456480e-10
-2.082400e-10
-4.713380e-11
-3.524260e-11
-2.985140e-10
-1.552680e-10
-6.284500e-11
-3.237930e-11
-2.082400e-10
-7.855630e-11
-3.524260e-11
0.000000e+00
-1.552680e-10
0.000000e+00
-3.237930e-11
0.000000e+00
-4.713380e-11
-3.524260e-11
7.855630e-11
2.957390e-11
-6.284500e-11
-3.237930e-11
6.284500e-11
2.469550e-11
-3.524260e-11
0.000000e+00
2.957390e-11
0.000000e+00
-3.237930e-11
0.000000e+00
2.469550e-11
0.000000e+00
</DataArray>
<DataArray type="Float32" Name="V2" format="ascii">
0.000000e+00
0.000000e+00
4.437760e-05
4.437660e-05
0.000000e+00
0.000000e+00
4.437660e-05
4.437410e-05
0.000000e+00
0.000000e+00
4.437660e-05
4.437690e-05
0.000000e+00
0.000000e+00
4.437410e-05
4.437540e-05
4.437760e-05
4.437660e-05
-3.692720e-04
-3.692700e-04
4.437660e-05
4.437410e-05
-3.692700e-04
-3.692690e-04
4.437660e-05
4.437690e-05
-3.692700e-04
-3.692710e-04
4.437410e-05
4.437540e-05
-3.692690e-04
-3.692740e-04
-3.692720e-04
-3.692700e-04
-5.967090e-04
-5.967050e-04
-3.692700e-04
-3.692690e-04
-5.967090e-04
-5.967080e-04
-3.692700e-04
-3.692710e-04
-5.967050e-04
-5.967080e-04
-3.692690e-04
-3.692740e-04
-5.967080e-04
-5.967110e-04
-5.967090e-04
-5.967050e-04
-5.049460e-04
-5.049560e-04
-5.967090e-04
-5.967080e-04
-5.049410e-04
-5.049450e-04
-5.967050e-04
-5.967080e-04
-5.049560e-04
-5.049510e-04
-5.967080e-04
-5.967110e-04
-5.049450e-04
-5.049450e-04
-5.049460e-04
-5.049560e-04
-4.443750e-05
-4.443920e-05
-5.049410e-04
-5.049450e-04
-4.443860e-05
-4.443810e-05
-5.049560e-04
-5.049510e-04
-4.443920e-05
-4.444350e-05
-5.049450e-04
-5.049450e-04
-4.443810e-05
-4.444020e-05
-4.443750e-05
-4.443920e-05
5.225950e-04
5.225960e-04
-4.443860e-05
-4.443810e-05
5.225980e-04
5.225910e-04
-4.443920e-05
-4.444350e-05
5.225960e-04
5.225950e-04
-4.443810e-05
-4.444020e-05
5.225910e-04
5.225970e-04
5.225950e-04
5.225960e-04
1.254730e-03
1.254730e-03
5.225980e-04
5.225910e-04
1.254730e-03
1.254730e-03
5.225960e-04
5.225950e-04
1.254730e-03
1.254730e-03
5.225910e-04
5.225970e-04
1.254730e-03
1.254730e-03
1.254730e-03
1.254730e-03
2.350940e-03
2.350940e-03
1.254730e-03
1.254730e-03
2.350950e-03
2.350940e-03
1.254730e-03
1.254730e-03
2.350940e-03
2.350940e-03
1.254730e-03
1.254730e-03
2.350940e-03
2.350940e-03
2.350940e-03
2.350940e-03
3.943650e-03
3.943650e-03
2.350950e-03
2.350940e-03
3.943660e-03
3.943660e-03
2.350940e-03
2.350940e-03
3.943650e-03
3.943660e-03
2.350940e-03
2.350940e-03
3.943660e-03
3.943660e-03
3.943650e-03
3.943650e-03
8.153670e-03
8.153670e-03
3.943660e-03
3.943660e-03
8.153680e-03
8.153680e-03
3.943650e-03
3.943660e-03
8.153670e-03
8.153670e-03
3.943660e-03
3.943660e-03
8.153680e-03
8.153670e-03
8.153670e-03
8.153670e-03
1.513060e-02
1.513060e-02
8.153680e-03
8.153680e-03
1.513060e-02
1.513060e-02
8.153670e-03
8.153670e-03
1.513060e-02
1.513060e-02
8.153680e-03
8.153670e-03
1.513060e-02
1.513060e-02
1.513060e-02
1.513060e-02
2.392960e-02
2.392960e-02
1.513060e-02
1.513060e-02
2.392960e-02
2.392960e-02
1.513060e-02
1.513060e-02
2.392960e-02
2.392960e-02
1.513060e-02
1.513060e-02
2.392960e-02
2.392960e-02
2.392960e-02
2.392960e-02
3.501480e-02
3.501480e-02
2.392960e-02
2.392960e-02
3.501480e-02
3.501480e-02
2.392960e-02
2.392960e-02
3.501480e-02
3.501480e-02
2.392960e-02
2.392960e-02
3.501480e-02
3.501480e-02
3.501480e-02
3.501480e-02
4.469410e-02
4.469410e-02
3.501480e-02
3.501480e-02
4.469410e-02
4.469410e-02
3.501480e-02
3.501480e-02
4.469410e-02
4.469410e-02
3.501480e-02
3.501480e-02
4.469410e-02
4.469410e-02
4.469410e-02
4.469410e-02
4.708760e-02
4.708760e-02
4.469410e-02
4.469410e-02
4.708760e-02
4.708760e-02
4.469410e-02
4.469410e-02
4.708760e-02
4.708760e-02
4.469410e-02
4.469410e-02
4.708760e-02
4.708760e-02
4.708760e-02
4.708760e-02
3.578220e-02
3.578220e-02
4.708760e-02
4.708760e-02
3.578220e-02
3.578220e-02
4.708760e-02
4.708760e-02
3.578220e-02
3.578220e-02
4.708760e-02
4.708760e-02
3.578220e-02
3.578220e-02
3.578220e-02
3.578220e-02
1.552670e-02
1.552670e-02
3.578220e-02
3.578220e-02
1.552670e-02
1.552670e-02
3.578220e-02
3.578220e-02
1.552670e-02
1.552670e-02
3.578220e-02
3.578220e-02
1.552670e-02
1.552670e-02
1.552670e-02
1.552670e-02
-5.358470e-03
-5.358470e-03
1.552670e-02
1.552670e-02
-5.358470e-03
-5.358460e-03
1.552670e-02
1.552670e-02
-5.358470e-03
-5.358470e-03
1.552670e-02
1.552670e-02
-5.358460e-03
-5.358470e-03
-5.358470e-03
-5.358470e-03
-1.963180e-02
-1.963180e-02
-5.358470e-03
-5.358460e-03
-1.963180e-02
-1.963180e-02
-5.358470e-03
-5.358470e-03
-1.963180e-02
-1.963180e-02
-5.358460e-03
-5.358470e-03
-1.963180e-02
-1.963180e-02
-1.963180e-02
-1.963180e-02
-1.180860e-02
-1.180860e-02
-1.963180e-02
-1.963180e-02
-1.180860e-02
-1.180860e-02
-1.963180e-02
-1.963180e-02
-1.180860e-02
-1.180860e-02
-1.963180e-02
-1.963180e-02
-1.180860e-02
-1.180860e-02
-1.180860e-02
-1.180860e-02
4.116120e-03
4.116130e-03
-1.180860e-02
-1.180860e-02
4.116130e-03
4.116130e-03
-1.180860e-02
-1.180860e-02
4.116130e-03
4.116120e-03
-1.180860e-02
-1.180860e-02
4.116130e-03
4.116130e-03
4.116120e-03
4.116130e-03
1.058460e-02
1.058460e-02
4.116130e-03
4.116130e-03
1.058460e-02
1.058460e-02
4.116130e-03
4.116120e-03
1.058460e-02
1.058460e-02
4.116130e-03
4.116130e-03
1.058460e-02
1.058460e-02
1.058460e-02
1.058460e-02
-5.884930e-04
-5.884900e-04
1.058460e-02
1.058460e-02
-5.884910e-04
-5.884900e-04
1.058460e-02
1.058460e-02
-5.884900e-04
-5.884920e-04
1.058460e-02
1.058460e-02
-5.884900e-04
-5.884890e-04
-5.884930e-04
-5.884900e-04
-3.602050e-03
-3.602050e-03
-5.884910e-04
-5.884900e-04
-3.602050e-03
-3.602050e-03
-5.884900e-04
-5.884920e-04
-3.602050e-03
-3.602050e-03
-5.884900e-04
-5.884890e-04
-3.602050e-03
-3.602050e-03
-3.602050e-03
-3.602050e-03
-4.525040e-04
-4.525120e-04
-3.602050e-03
-3.602050e-03
-4.525050e-04
-4.525120e-04
-3.602050e-03
-3.602050e-03
-4.525120e-04
-4.525090e-04
-3.602050e-03
-3.602050e-03
-4.525120e-04
-4.525150e-04
-4.525040e-04
-4.525120e-04
1.663850e-03
1.663850e-03
-4.525050e-04
-4.525120e-04
1.663850e-03
1.663850e-03
-4.525120e-04
-4.525090e-04
1.663850e-03
1.663850e-03
-4.525120e-04
-4.525150e-04
1.663850e-03
1.663850e-03
1.663850e-03
1.663850e-03
1.330470e-04
1.330460e-04
1.663850e-03
1.663850e-03
1.330510e-04
1.330470e-04
1.663850e-03
1.663850e-03
1.330460e-04
1.330460e-04
1.663850e-03
1.663850e-03
1.330470e-04
1.330480e-04
1.330470e-04
1.330460e-04
-9.852090e-05
-9.851940e-05
1.330510e-04
1.330470e-04
-9.852390e-05
-9.852140e-05
1.330460e-04
1.330460e-04
-9.851940e-05
-9.852090e-05
1.330470e-04
1.330480e-04
-9.852140e-05
-9.852040e-05
-9.852090e-05
-9.851940e-05
-8.781210e-05
-8.781230e-05
-9.852390e-05
-9.852140e-05
-8.781260e-05
-8.781260e-05
-9.851940e-05
-9.852090e-05
-8.781230e-05
-8.781180e-05
-9.852140e-05
-9.852040e-05
-8.781260e-05
-8.781230e-05
-8.781210e-05
-8.781230e-05
-2.381000e-04
-2.381000e-04
-8.781260e-05
-8.781260e-05
-2.381000e-04
-2.381000e-04
-8.781230e-05
-8.781180e-05
-2.381000e-04
-2.380990e-04
-8.781260e-05
-8.781230e-05
-2.381000e-04
-2.381000e-04
0.000000e+00
0.000000e+00
4.437660e-05
4.437410e-05
0.000000e+00
0.000000e+00
4.437910e-05
4.437060e-05
0.000000e+00
0.000000e+00
4.437410e-05
4.437540e-05
0.000000e+00
0.000000e+00
4.437060e-05
4.437390e-05
4.437660e-05
4.437410e-05
-3.692700e-04
-3.692690e-04
4.437910e-05
4.437060e-05
-3.692670e-04
-3.692680e-04
4.437410e-05
4.437540e-05
-3.692690e-04
-3.692740e-04
4.437060e-05
4.437390e-05
-3.692680e-04
-3.692650e-04
-3.692700e-04
-3.692690e-04
-5.967090e-04
-5.967080e-04
-3.692670e-04
-3.692680e-04
-5.967090e-04
-5.967080e-04
-3.692690e-04
-3.692740e-04
-5.967080e-04