<?xml version="1.0"?>
<!-- time 66.773-->
<VTKFile type="UnstructuredGrid" version="0.1" byte_order="LittleEndian">
<UnstructuredGrid>
<Piece NumberOfPoints="7680" NumberOfCells="0">
<Points>
  <DataArray type="Float32" Name="Position" NumberOfComponents="3" format="ascii">
	-350 2049.62 -350
	-350 2049.62 -250
	-350 2049.62 -150
	-350 2049.62 -50
	-350 2049.62 50
	-350 2049.62 150
	-350 2049.62 250
	-350 2049.62 350
	-250 2049.62 -350
	-250 2049.62 -250
	-250 2049.62 -150
	-250 2049.62 -50
	-250 2049.62 50
	-250 2049.62 150
	-250 2049.62 250
	-250 2049.62 350
	-150 2049.62 -350
	-150 2049.62 -250
	-150 2049.62 -150
	-150 2049.62 -50
	-150 2049.62 50
	-150 2049.62 150
	-150 2049.62 250
	-150 2049.62 350
	-50 2049.62 -350
	-50 2049.62 -250
	-50 2049.62 -150
	-50 2049.62 -50
	-50 2049.62 50
	-50 2049.62 150
	-50 2049.62 250
	-50 2049.62 350
	50 2049.62 -350
	50 2049.62 -250
	50 2049.62 -150
	50 2049.62 -50
	50 2049.62 50
	50 2049.62 150
	50 2049.62 250
	50 2049.62 350
	150 2049.62 -350
	150 2049.62 -250
	150 2049.62 -150
	150 2049.62 -50
	150 2049.62 50
	150 2049.62 150
	150 2049.62 250
	150 2049.62 350
	250 2049.62 -350
	250 2049.62 -250
	250 2049.62 -150
	250 2049.62 -50
	250 2049.62 50
	250 2049.62 150
	250 2049.62 250
	250 2049.62 350
	350 2049.62 -350
	350 2049.62 -250
	350 2049.62 -150
	350 2049.62 -50
	350 2049.62 50
	350 2049.62 150
	350 2049.62 250
	350 2049.62 350
	-350 2149.68 -350
	-350 2149.68 -250
	-350 2149.68 -150
	-350 2149.68 -50
	-350 2149.68 50
	-350 2149.68 150
	-350 2149.68 250
	-350 2149.68 350
	-250 2149.68 -350
	-250 2149.68 -250
	-250 2149.68 -150
	-250 2149.68 -50
	-250 2149.68 50
	-250 2149.68 150
	-250 2149.68 250
	-250 2149.68 350
	-150 2149.68 -350
	-150 2149.68 -250
	-150 2149.68 -150
	-150 2149.68 -50
	-150 2149.68 50
	-150 2149.68 150
	-150 2149.68 250
	-150 2149.68 350
	-50 2149.68 -350
	-50 2149.68 -250
	-50 2149.68 -150
	-50 2149.68 -50
	-50 2149.68 50
	-50 2149.68 150
	-50 2149.68 250
	-50 2149.68 350
	50 2149.68 -350
	50 2149.68 -250
	50 2149.68 -150
	50 2149.68 -50
	50 2149.68 50
	50 2149.68 150
	50 2149.68 250
	50 2149.68 350
	150 2149.68 -350
	150 2149.68 -250
	150 2149.68 -150
	150 2149.68 -50
	150 2149.68 50
	150 2149.68 150
	150 2149.68 250
	150 2149.68 350
	250 2149.68 -350
	250 2149.68 -250
	250 2149.68 -150
	250 2149.68 -50
	250 2149.68 50
	250 2149.68 150
	250 2149.68 250
	250 2149.68 350
	350 2149.68 -350
	350 2149.68 -250
	350 2149.68 -150
	350 2149.68 -50
	350 2149.68 50
	350 2149.68 150
	350 2149.68 250
	350 2149.68 350
	-350 2249.68 -350
	-350 2249.68 -250
	-350 2249.68 -150
	-350 2249.68 -50
	-350 2249.68 50
	-350 2249.68 150
	-350 2249.68 250
	-350 2249.68 350
	-250 2249.68 -350
	-250 2249.68 -250
	-250 2249.68 -150
	-250 2249.68 -50
	-250 2249.68 50
	-250 2249.68 150
	-250 2249.68 250
	-250 2249.68 350
	-150 2249.68 -350
	-150 2249.68 -250
	-150 2249.68 -150
	-150 2249.68 -50
	-150 2249.68 50
	-150 2249.68 150
	-150 2249.68 250
	-150 2249.68 350
	-50 2249.68 -350
	-50 2249.68 -250
	-50 2249.68 -150
	-50 2249.68 -50
	-50 2249.68 50
	-50 2249.68 150
	-50 2249.68 250
	-50 2249.68 350
	50 2249.68 -350
	50 2249.68 -250
	50 2249.68 -150
	50 2249.68 -50
	50 2249.68 50
	50 2249.68 150
	50 2249.68 250
	50 2249.68 350
	150 2249.68 -350
	150 2249.68 -250
	150 2249.68 -150
	150 2249.68 -50
	150 2249.68 50
	150 2249.68 150
	150 2249.68 250
	150 2249.68 350
	250 2249.68 -350
	250 2249.68 -250
	250 2249.68 -150
	250 2249.68 -50
	250 2249.68 50
	250 2249.68 150
	250 2249.68 250
	250 2249.68 350
	350 2249.68 -350
	350 2249.68 -250
	350 2249.68 -150
	350 2249.68 -50
	350 2249.68 50
	350 2249.68 150
	350 2249.68 250
	350 2249.68 350
	-350 2349.68 -350
	-350 2349.68 -250
	-350 2349.68 -150
	-350 2349.68 -50
	-350 2349.68 50
	-350 2349.68 150
	-350 2349.68 250
	-350 2349.68 350
	-250 2349.68 -350
	-250 2349.68 -250
	-250 2349.68 -150
	-250 2349.68 -50
	-250 2349.68 50
	-250 2349.68 150
	-250 2349.68 250
	-250 2349.68 350
	-150 2349.68 -350
	-150 2349.68 -250
	-150 2349.68 -150
	-150 2349.68 -50
	-150 2349.68 50
	-150 2349.68 150
	-150 2349.68 250
	-150 2349.68 350
	-50 2349.68 -350
	-50 2349.68 -250
	-50 2349.68 -150
	-50 2349.68 -50
	-50 2349.68 50
	-50 2349.68 150
	-50 2349.68 250
	-50 2349.68 350
	50 2349.68 -350
	50 2349.68 -250
	50 2349.68 -150
	50 2349.68 -50
	50 2349.68 50
	50 2349.68 150
	50 2349.68 250
	50 2349.68 350
	150 2349.68 -350
	150 2349.68 -250
	150 2349.68 -150
	150 2349.68 -50
	150 2349.68 50
	150 2349.68 150
	150 2349.68 250
	150 2349.68 350
	250 2349.68 -350
	250 2349.68 -250
	250 2349.68 -150
	250 2349.68 -50
	250 2349.68 50
	250 2349.68 150
	250 2349.68 250
	250 2349.68 350
	350 2349.68 -350
	350 2349.68 -250
	350 2349.68 -150
	350 2349.68 -50
	350 2349.68 50
	350 2349.68 150
	350 2349.68 250
	350 2349.68 350
	-350 2449.68 -350
	-350 2449.68 -250
	-350 2449.68 -150
	-350 2449.68 -50
	-350 2449.68 50
	-350 2449.68 150
	-350 2449.68 250
	-350 2449.68 350
	-250 2449.68 -350
	-250 2449.68 -250
	-250 2449.68 -150
	-250 2449.68 -50
	-250 2449.68 50
	-250 2449.68 150
	-250 2449.68 250
	-250 2449.68 350
	-150 2449.68 -350
	-150 2449.68 -250
	-150 2449.68 -150
	-150 2449.68 -50
	-150 2449.68 50
	-150 2449.68 150
	-150 2449.68 250
	-150 2449.68 350
	-50 2449.68 -350
	-50 2449.68 -250
	-50 2449.68 -150
	-50 2449.68 -50
	-50 2449.68 50
	-50 2449.68 150
	-50 2449.68 250
	-50 2449.68 350
	50 2449.68 -350
	50 2449.68 -250
	50 2449.68 -150
	50 2449.68 -50
	50 2449.68 50
	50 2449.68 150
	50 2449.68 250
	50 2449.68 350
	150 2449.68 -350
	150 2449.68 -250
	150 2449.68 -150
	150 2449.68 -50
	150 2449.68 50
	150 2449.68 150
	150 2449.68 250
	150 2449.68 350
	250 2449.68 -350
	250 2449.68 -250
	250 2449.68 -150
	250 2449.68 -50
	250 2449.68 50
	250 2449.68 150
	250 2449.68 250
	250 2449.68 350
	350 2449.68 -350
	350 2449.68 -250
	350 2449.68 -150
	350 2449.68 -50
	350 2449.68 50
	350 2449.68 150
	350 2449.68 250
	350 2449.68 350
	-350 2549.68 -350
	-350 2549.68 -250
	-350 2549.68 -150
	-350 2549.68 -50
	-350 2549.68 50
	-350 2549.68 150
	-350 2549.68 250
	-350 2549.68 350
	-250 2549.68 -350
	-250 2549.68 -250
	-250 2549.68 -150
	-250 2549.68 -50
	-250 2549.68 50
	-250 2549.68 150
	-250 2549.68 250
	-250 2549.68 350
	-150 2549.68 -350
	-150 2549.68 -250
	-150 2549.68 -150
	-150 2549.68 -50
	-150 2549.68 50
	-150 2549.68 150
	-150 2549.68 250
	-150 2549.68 350
	-50 2549.68 -350
	-50 2549.68 -250
	-50 2549.68 -150
	-50 2549.68 -50
	-50 2549.68 50
	-50 2549.68 150
	-50 2549.68 250
	-50 2549.68 350
	50 2549.68 -350
	50 2549.68 -250
	50 2549.68 -150
	50 2549.68 -50
	50 2549.68 50
	50 2549.68 150
	50 2549.68 250
	50 2549.68 350
	150 2549.68 -350
	150 2549.68 -250
	150 2549.68 -150
	150 2549.68 -50
	150 2549.68 50
	150 2549.68 150
	150 2549.68 250
	150 2549.68 350
	250 2549.68 -350
	250 2549.68 -250
	250 2549.68 -150
	250 2549.68 -50
	250 2549.68 50
	250 2549.68 150
	250 2549.68 250
	250 2549.68 350
	350 2549.68 -350
	350 2549.68 -250
	350 2549.68 -150
	350 2549.68 -50
	350 2549.68 50
	350 2549.68 150
	350 2549.68 250
	350 2549.68 350
	-350 2649.68 -350
	-350 2649.68 -250
	-350 2649.68 -150
	-350 2649.68 -50
	-350 2649.68 50
	-350 2649.68 150
	-350 2649.68 250
	-350 2649.68 350
	-250 2649.68 -350
	-250 2649.68 -250
	-250 2649.68 -150
	-250 2649.68 -50
	-250 2649.68 50
	-250 2649.68 150
	-250 2649.68 250
	-250 2649.68 350
	-150 2649.68 -350
	-150 2649.68 -250
	-150 2649.68 -150
	-150 2649.68 -50
	-150 2649.68 50
	-150 2649.68 150
	-150 2649.68 250
	-150 2649.68 350
	-50 2649.68 -350
	-50 2649.68 -250
	-50 2649.68 -150
	-50 2649.68 -50
	-50 2649.68 50
	-50 2649.68 150
	-50 2649.68 250
	-50 2649.68 350
	50 2649.68 -350
	50 2649.68 -250
	50 2649.68 -150
	50 2649.68 -50
	50 2649.68 50
	50 2649.68 150
	50 2649.68 250
	50 2649.68 350
	150 2649.68 -350
	150 2649.68 -250
	150 2649.68 -150
	150 2649.68 -50
	150 2649.68 50
	150 2649.68 150
	150 2649.68 250
	150 2649.68 350
	250 2649.68 -350
	250 2649.68 -250
	250 2649.68 -150
	250 2649.68 -50
	250 2649.68 50
	250 2649.68 150
	250 2649.68 250
	250 2649.68 350
	350 2649.68 -350
	350 2649.68 -250
	350 2649.68 -150
	350 2649.68 -50
	350 2649.68 50
	350 2649.68 150
	350 2649.68 250
	350 2649.68 350
	-350 2749.68 -350
	-350 2749.68 -250
	-350 2749.68 -150
	-350 2749.68 -50
	-350 2749.68 50
	-350 2749.68 150
	-350 2749.68 250
	-350 2749.68 350
	-250 2749.68 -350
	-250 2749.68 -250
	-250 2749.68 -150
	-250 2749.68 -50
	-250 2749.68 50
	-250 2749.68 150
	-250 2749.68 250
	-250 2749.68 350
	-150 2749.68 -350
	-150 2749.68 -250
	-150 2749.68 -150
	-150 2749.68 -50
	-150 2749.68 50
	-150 2749.68 150
	-150 2749.68 250
	-150 2749.68 350
	-50 2749.68 -350
	-50 2749.68 -250
	-50 2749.68 -150
	-50 2749.68 -50
	-50 2749.68 50
	-50 2749.68 150
	-50 2749.68 250
	-50 2749.68 350
	50 2749.68 -350
	50 2749.68 -250
	50 2749.68 -150
	50 2749.68 -50
	50 2749.68 50
	50 2749.68 150
	50 2749.68 250
	50 2749.68 350
	150 2749.68 -350
	150 2749.68 -250
	150 2749.68 -150
	150 2749.68 -50
	150 2749.68 50
	150 2749.68 150
	150 2749.68 250
	150 2749.68 350
	250 2749.68 -350
	250 2749.68 -250
	250 2749.68 -150
	250 2749.68 -50
	250 2749.68 50
	250 2749.68 150
	250 2749.68 250
	250 2749.68 350
	350 2749.68 -350
	350 2749.68 -250
	350 2749.68 -150
	350 2749.68 -50
	350 2749.68 50
	350 2749.68 150
	350 2749.68 250
	350 2749.68 350
	-350 2849.68 -350
	-350 2849.68 -250
	-350 2849.68 -150
	-350 2849.68 -50
	-350 2849.68 50
	-350 2849.68 150
	-350 2849.68 250
	-350 2849.68 350
	-250 2849.68 -350
	-250 2849.68 -250
	-250 2849.68 -150
	-250 2849.68 -50
	-250 2849.68 50
	-250 2849.68 150
	-250 2849.68 250
	-250 2849.68 350
	-150 2849.68 -350
	-150 2849.68 -250
	-150 2849.68 -150
	-150 2849.68 -50
	-150 2849.68 50
	-150 2849.68 150
	-150 2849.68 250
	-150 2849.68 350
	-50 2849.68 -350
	-50 2849.68 -250
	-50 2849.68 -150
	-50 2849.68 -50
	-50 2849.68 50
	-50 2849.68 150
	-50 2849.68 250
	-50 2849.68 350
	50 2849.68 -350
	50 2849.68 -250
	50 2849.68 -150
	50 2849.68 -50
	50 2849.68 50
	50 2849.68 150
	50 2849.68 250
	50 2849.68 350
	150 2849.68 -350
	150 2849.68 -250
	150 2849.68 -150
[...]
<PointData  Vectors="vector">
  <DataArray type="Float32" Name="Velocity" NumberOfComponents="3" format="ascii">
 -2.72393e-11 6.49442e-05 -4.49053e-11
 -3.56417e-11 6.49445e-05 1.42079e-11
 -2.58189e-11 6.49449e-05 -1.13112e-11
 -3.00981e-11 6.49452e-05 4.7527e-11
 -1.26576e-11 6.4945e-05 -1.97637e-11
 -1.49529e-11 6.49445e-05 1.78131e-11
 -3.5807e-11 6.4944e-05 6.14304e-14
 -6.0257e-11 6.49434e-05 4.20277e-11
 9.78924e-12 6.49444e-05 -4.48652e-11
 1.62719e-11 6.49446e-05 2.96313e-11
 1.03797e-11 6.49447e-05 -3.91893e-12
 1.14734e-11 6.49448e-05 4.74587e-11
 3.25317e-12 6.49447e-05 -9.732e-12
 1.14463e-11 6.49443e-05 2.08478e-11
 2.47359e-13 6.49439e-05 1.97698e-12
 -4.85545e-12 6.49435e-05 2.9568e-11
 2.12645e-11 6.49446e-05 -3.39688e-11
 3.10795e-11 6.49446e-05 3.18335e-11
 4.01462e-11 6.49446e-05 1.07293e-11
 3.95103e-11 6.49445e-05 4.07474e-11
 4.20657e-11 6.49444e-05 1.58733e-11
 3.71384e-11 6.49441e-05 1.13149e-11
 4.13257e-11 6.49439e-05 3.05576e-12
 3.11106e-11 6.49436e-05 1.66906e-11
 2.08838e-11 6.49448e-05 -1.61032e-11
 2.79811e-11 6.49446e-05 2.682e-11
 5.10331e-11 6.49444e-05 8.34846e-13
 6.72142e-11 6.49442e-05 3.45346e-11
 4.64277e-11 6.49441e-05 4.36678e-11
 5.38099e-12 6.4944e-05 2.4515e-11
 1.23604e-11 6.49438e-05 5.85782e-12
 2.53006e-11 6.49437e-05 1.45854e-12
 2.05051e-11 6.49441e-05 2.55237e-11
 3.83718e-11 6.49442e-05 -4.08415e-11
 3.23815e-11 6.49442e-05 3.66569e-11
 4.75965e-11 6.49442e-05 9.4314e-12
 3.94541e-11 6.49442e-05 5.56889e-12
 4.199e-11 6.4944e-05 1.29471e-11
 -4.07762e-12 6.49437e-05 5.55433e-12
 -3.24095e-11 6.49435e-05 3.09018e-11
 3.79728e-11 6.49441e-05 -5.48388e-11
 2.94872e-11 6.4944e-05 1.8257e-11
 4.63577e-11 6.49439e-05 1.61006e-11
 4.45428e-11 6.49437e-05 3.46095e-11
 5.7496e-11 6.49439e-05 2.20617e-11
 3.75791e-11 6.49437e-05 9.88479e-12
 5.31399e-11 6.49436e-05 2.13856e-12
 5.33285e-11 6.49435e-05 1.37886e-11
 -1.02278e-11 6.4944e-05 -3.9323e-12
 4.31135e-12 6.49438e-05 4.43632e-12
 4.4265e-12 6.49435e-05 -1.56211e-11
 5.59722e-11 6.49433e-05 1.61653e-11
 -1.17312e-12 6.49435e-05 1.83985e-11
 -2.07196e-11 6.49435e-05 1.02182e-11
 -1.71161e-11 6.49435e-05 -5.91687e-12
 2.80538e-11 6.49435e-05 1.45133e-11
 -1.69447e-11 6.4944e-05 -9.82113e-12
 -6.66432e-12 6.49436e-05 2.54664e-12
 -4.51577e-12 6.49432e-05 1.60259e-13
 -3.26282e-11 6.49428e-05 1.74007e-11
 -6.05794e-12 6.49432e-05 9.22198e-12
 2.21769e-11 6.49433e-05 -6.74986e-12
 2.11978e-11 6.49433e-05 1.68205e-11
 -1.777e-11 6.49434e-05 -1.50584e-11
 -2.80404e-11 -0.000383658 -6.48605e-11
 -2.4236e-11 -0.000383658 3.69677e-11
 -2.05886e-11 -0.000383658 2.27934e-11
 -2.49676e-11 -0.000383658 4.1596e-11
 -2.11692e-11 -0.000383657 3.14231e-11
 -5.6426e-12 -0.000383658 2.34223e-11
 -1.8849e-11 -0.000383658 -1.14429e-11
 -3.62402e-11 -0.000383659 3.70224e-12
 -3.72713e-13 -0.000383658 -4.55205e-11
 3.98053e-12 -0.000383658 1.29911e-11
 3.11139e-12 -0.000383658 2.63733e-11
 1.27673e-11 -0.000383658 4.47493e-11
 1.35768e-11 -0.000383657 4.95841e-11
 7.16636e-12 -0.000383658 2.50771e-11
 -9.6139e-13 -0.000383658 -1.24005e-11
 -4.38896e-12 -0.000383658 -6.99115e-12
 2.78796e-11 -0.000383658 -3.47786e-11
 3.31158e-11 -0.000383658 9.30227e-12
 4.28213e-11 -0.000383658 3.96494e-11
 3.37581e-11 -0.000383657 3.50062e-11
 4.47802e-11 -0.000383657 4.66031e-11
 3.18142e-11 -0.000383657 3.88272e-11
 3.17408e-11 -0.000383658 -1.17011e-11
 2.41546e-11 -0.000383658 -1.87842e-11
 1.67631e-11 -0.000383658 -1.81276e-11
 2.57975e-11 -0.000383658 9.71711e-12
 3.0495e-11 -0.000383657 2.38876e-11
 5.18287e-11 -0.000383657 4.2687e-11
 4.48851e-11 -0.000383657 4.06585e-11
 8.58579e-12 -0.000383657 3.19517e-11
 8.86924e-12 -0.000383657 9.9863e-12
 1.21053e-11 -0.000383657 -2.63747e-11
 2.82594e-11 -0.000383658 -3.10103e-11
 2.61466e-11 -0.000383658 2.65477e-11
 2.29373e-11 -0.000383657 2.76337e-11
 3.92936e-11 -0.000383657 4.83605e-11
 3.37825e-11 -0.000383657 3.03164e-11
 2.99241e-11 -0.000383657 1.69114e-11
 -2.02325e-12 -0.000383658 -4.41746e-12
 -2.38937e-11 -0.000383658 -2.76238e-12
 3.22659e-11 -0.000383658 -1.85762e-11
 1.44809e-11 -0.000383657 -4.53383e-12
 4.18902e-11 -0.000383657 2.05368e-11
 2.40051e-11 -0.000383657 3.70964e-11
 5.70614e-11 -0.000383657 3.91826e-11
 3.28372e-11 -0.000383657 3.51546e-11
 3.62211e-11 -0.000383657 -5.76924e-12
 3.26451e-11 -0.000383658 -1.71879e-11
 3.99893e-12 -0.000383657 -3.9695e-12
 1.00767e-11 -0.000383657 1.1064e-11
 1.06324e-11 -0.000383657 1.23515e-11
 3.7435e-11 -0.000383657 1.44412e-11
 -2.02747e-11 -0.000383657 1.58214e-11
 -1.41911e-11 -0.000383657 5.1253e-12
 -1.56486e-11 -0.000383657 9.52824e-13
 -1.07421e-11 -0.000383657 4.4402e-12
 -2.33772e-11 -0.000383657 -6.96827e-12
 -1.20057e-12 -0.000383657 1.01029e-11
 -1.23526e-11 -0.000383657 1.44501e-12
 -2.43891e-11 -0.000383657 1.87512e-11
 -5.36821e-12 -0.000383656 1.84392e-11
 9.47624e-12 -0.000383657 -1.58246e-12
 1.33174e-11 -0.000383657 -9.54364e-13
 1.17223e-11 -0.000383657 -4.68259e-12
 -1.6234e-11 -0.000213376 -2.53469e-11
 -1.74841e-11 -0.000213376 1.63384e-11
 -1.66279e-11 -0.000213376 2.73981e-11
 -1.99939e-11 -0.000213376 2.73577e-11
 -2.14902e-11 -0.000213375 3.54785e-11
 -1.5027e-11 -0.000213376 4.53428e-11
 -7.30564e-12 -0.000213376 2.71027e-11
 -1.40334e-11 -0.000213376 -3.5451e-11
 1.56856e-12 -0.000213377 -1.51857e-11
 3.65467e-12 -0.000213376 1.35501e-11
 9.18543e-12 -0.000213376 2.63475e-11
 1.05619e-11 -0.000213376 2.55672e-11
 6.71833e-12 -0.000213376 2.96396e-11
 1.65148e-11 -0.000213376 3.5124e-11
 -2.22856e-12 -0.000213376 1.94833e-11
 -4.00391e-12 -0.000213376 -1.97721e-11
 2.5322e-11 -0.000213377 -7.69743e-12
 2.90332e-11 -0.000213377 1.19806e-11
 2.35104e-11 -0.000213376 2.88612e-11
 2.42269e-11 -0.000213376 2.99307e-11
 3.67862e-11 -0.000213376 1.98539e-11
 2.3362e-11 -0.000213376 1.43738e-11
 1.95894e-11 -0.000213376 1.16065e-11
 8.76538e-12 -0.000213376 2.3787e-12
 1.2346e-11 -0.000213378 -4.44815e-12
 1.96342e-11 -0.000213377 1.05524e-11
 2.79147e-11 -0.000213377 2.64818e-11
 3.487e-11 -0.000213376 3.28904e-11
 4.11033e-11 -0.000213376 1.48508e-11
 1.22772e-11 -0.000213376 1.8595e-11
 1.17899e-12 -0.000213376 -5.67976e-13
 -6.40432e-12 -0.000213376 9.46723e-12
 1.4363e-11 -0.000213377 -9.31326e-12
 1.57277e-11 -0.000213376 1.24012e-11
 2.16717e-11 -0.000213376 3.09226e-11
 1.40655e-11 -0.000213375 3.41694e-11
 2.77222e-11 -0.000213375 3.82042e-11
 2.07207e-11 -0.000213375 2.87681e-11
 2.09071e-12 -0.000213375 2.48864e-11
 -1.23117e-11 -0.000213376 -2.48865e-11
 9.77566e-12 -0.000213376 -1.41137e-12
 9.76988e-12 -0.000213375 9.11385e-12
 1.44313e-11 -0.000213375 2.78553e-11
 2.73091e-11 -0.000213375 2.82893e-11
 2.83861e-11 -0.000213374 1.8806e-11
 3.16829e-11 -0.000213375 1.2685e-11
 3.28716e-11 -0.000213375 4.23083e-12
 2.44316e-11 -0.000213376 8.13967e-12
 3.68869e-11 -0.000213374 -1.04573e-12
 3.99973e-11 -0.000213374 1.00999e-11
 3.64572e-11 -0.000213374 1.82377e-11
 3.23098e-11 -0.000213374 1.10229e-11
 2.6052e-11 -0.000213374 1.93113e-11
 4.20761e-12 -0.000213374 2.88298e-11
 -6.35416e-12 -0.000213375 -6.35572e-12
 -2.64437e-11 -0.000213375 1.6447e-13
 -2.53975e-11 -0.000213373 -1.16579e-11
 -2.77104e-11 -0.000213373 7.78226e-12
 -2.99294e-11 -0.000213373 1.19024e-11
 -2.27437e-11 -0.000213373 2.38053e-11
 -1.76493e-11 -0.000213373 2.11488e-11
 -1.20789e-11 -0.000213374 -1.11275e-12
 -4.15116e-12 -0.000213374 1.08521e-11
 1.97233e-11 -0.000213375 -9.89861e-12
 -1.17097e-11 0.000134335 -7.62293e-12
 -1.46763e-11 0.000134336 6.40266e-12
 -1.50953e-11 0.000134337 3.97916e-11
 -1.56097e-11 0.000134338 3.5128e-11
 -1.95169e-11 0.000134338 3.85807e-11
 -9.58114e-12 0.000134337 8.77889e-12
 -6.81082e-12 0.000134336 5.67391e-11
 -6.34585e-12 0.000134336 -2.78575e-11
 8.16776e-12 0.000134336 -1.05354e-11
 5.6479e-12 0.000134336 2.72349e-12
 4.02237e-12 0.000134337 3.89174e-11
 -2.03185e-12 0.000134337 3.25281e-11
 8.55364e-12 0.000134337 4.59688e-11
 8.45324e-12 0.000134337 3.92875e-12
 4.95194e-12 0.000134336 4.92002e-11
 2.59229e-12 0.000134336 -2.8836e-11
 1.36287e-11 0.000134337 -1.54312e-11
 1.97868e-11 0.000134337 -8.42018e-13
 2.00273e-11 0.000134337 3.75566e-11
 1.97641e-11 0.000134337 2.97996e-11
 2.42883e-11 0.000134337 4.77596e-11
 1.66454e-11 0.000134337 5.42829e-12
 1.01845e-11 0.000134336 4.29638e-11
 -8.64752e-12 0.000134336 -2.93847e-11
 2.24365e-11 0.000134337 -2.34411e-11
 1.85457e-11 0.000134337 -1.83293e-12
 1.98479e-11 0.000134337 3.7643e-11
 1.6663e-11 0.000134337 2.46784e-11
 2.71266e-11 0.000134337 4.80556e-11
 2.14102e-11 0.000134336 8.06697e-12
 7.37325e-12 0.000134336 3.83056e-11
 -2.43843e-12 0.000134336 -2.96709e-11
 2.46624e-11 0.000134336 -1.86796e-11
 3.10723e-11 0.000134336 2.68277e-12
 2.19735e-11 0.000134337 4.24852e-11
 1.83596e-11 0.000134337 3.83051e-11
 3.76248e-11 0.000134337 5.4524e-11
 2.02872e-11 0.000134336 1.7545e-11
 4.65287e-12 0.000134335 4.14272e-11
 -7.94558e-12 0.000134335 -2.1539e-11
 1.56999e-11 0.000134336 -2.02625e-11
 1.04839e-11 0.000134336 4.07021e-12
 9.60686e-13 0.000134336 3.70281e-11
 9.28729e-12 0.000134336 3.10491e-11
 2.91224e-11 0.000134336 4.80375e-11
 1.15529e-11 0.000134336 9.9431e-12
 1.34014e-11 0.000134335 4.13073e-11
 -4.82267e-12 0.000134335 -2.34847e-11
 3.9811e-12 0.000134335 -1.98347e-11
 9.16824e-12 0.000134335 5.74918e-12
 3.00502e-11 0.000134335 3.19533e-11
 3.63703e-11 0.000134335 2.87654e-11
 1.71687e-11 0.000134336 2.65461e-11
 1.69568e-11 0.000134335 6.38378e-12
 -1.17717e-12 0.000134335 4.22367e-11
 -9.41835e-12 0.000134335 -2.31741e-11
 -1.70862e-11 0.000134334 -2.08068e-11
 -2.16458e-11 0.000134334 3.55813e-12
 -2.48e-11 0.000134335 2.72155e-11
 -2.72143e-11 0.000134335 1.93211e-11
 -1.47384e-11 0.000134335 3.03079e-11
 -2.08406e-11 0.000134335 1.3289e-12
 -1.24382e-11 0.000134335 2.56559e-11
 1.24171e-11 0.000134335 -1.70192e-11
 -1.65957e-11 -0.0009177 -1.46587e-11
 -1.79193e-11 -0.000917699 5.2911e-12
 -1.25343e-11 -0.000917699 1.81105e-11
 -1.32803e-11 -0.000917698 2.19193e-11
 -1.06914e-11 -0.000917698 2.30218e-11
 -1.45841e-11 -0.000917699 9.38669e-13
 -1.89191e-11 -0.000917699 1.32994e-11
 -2.05418e-11 -0.0009177 -2.12808e-11
 1.53583e-11 -0.000917699 -1.42946e-11
 1.62889e-11 -0.000917699 2.43704e-12
 8.94318e-12 -0.000917698 2.15929e-11
 1.17029e-11 -0.000917698 2.59844e-11
 9.16478e-12 -0.000917698 2.45591e-11
 7.72487e-12 -0.000917698 -1.63826e-12
 5.55363e-12 -0.000917699 1.45435e-11
 6.73411e-12 -0.000917699 -1.29981e-11
 3.32997e-11 -0.000917698 -1.20964e-11
 3.68498e-11 -0.000917698 2.09063e-12
 4.12385e-11 -0.000917698 2.71777e-11
 4.72654e-11 -0.000917698 2.53571e-11
 4.16799e-11 -0.000917698 2.37555e-11
 4.6064e-11 -0.000917698 1.68127e-12
 4.02339e-11 -0.000917699 1.61246e-11
 3.8959e-11 -0.000917699 -1.03599e-11
 4.53997e-11 -0.000917698 -1.55768e-11
 4.64639e-11 -0.000917698 2.59268e-12
 4.74579e-11 -0.000917698 2.66676e-11
 5.05216e-11 -0.000917698 3.62339e-11
 5.43045e-11 -0.000917698 2.22783e-11
 4.63703e-11 -0.000917698 4.55107e-12
 5.50393e-11 -0.000917698 2.58504e-11
 4.92076e-11 -0.000917699 -1.53213e-11
 4.13982e-11 -0.000917699 -1.36953e-11
 5.11927e-11 -0.000917698 6.87971e-13
 6.17058e-11 -0.000917698 2.5336e-11
 6.04125e-11 -0.000917698 3.40817e-11
 5.49036e-11 -0.000917698 1.99176e-11
 6.20178e-11 -0.000917698 5.34207e-12
 5.53623e-11 -0.000917699 9.41907e-12
 5.07664e-11 -0.000917699 -3.2534e-12
 2.87752e-11 -0.000917699 -1.64414e-11
 3.92516e-11 -0.000917699 1.70623e-12
 5.28628e-11 -0.000917698 2.29359e-11
 4.99434e-11 -0.000917698 3.20725e-11
 4.39488e-11 -0.000917698 1.69634e-11
 3.54267e-11 -0.000917698 7.46142e-12
 2.21018e-11 -0.000917699 1.77111e-11
 2.49643e-12 -0.000917699 -1.07608e-11
 1.57819e-11 -0.000917699 -1.93446e-11
 1.62444e-11 -0.000917699 5.47651e-12
 1.31452e-11 -0.000917699 2.55534e-11
 2.70744e-11 -0.000917698 2.5085e-11
 3.11504e-11 -0.000917698 1.58778e-11
 3.06571e-11 -0.000917699 1.45402e-12
 4.04271e-11 -0.000917699 2.4719e-11
 4.80549e-11 -0.000917699 -1.33594e-11
 -1.25808e-11 -0.000917699 -1.97864e-11
 -1.45228e-11 -0.000917699 3.59859e-12
 -1.59585e-11 -0.000917699 2.33644e-11
 -1.37703e-11 -0.000917699 1.74152e-11
 -1.51659e-11 -0.000917699 2.80084e-11
 -2.03029e-11 -0.000917699 -7.46504e-12
 -2.23491e-11 -0.000917699 1.21516e-11
 -1.41503e-11 -0.000917699 1.99021e-12
 -5.72637e-12 -4.5449e-05 -1.60508e-11
 -5.61315e-12 -4.54486e-05 4.58605e-12
 2.06625e-13 -4.54483e-05 3.42297e-11
 6.09929e-13 -4.54479e-05 2.79891e-11
 -2.64057e-13 -4.54478e-05 3.81034e-11
 5.52189e-12 -4.54484e-05 1.25105e-11
 6.92776e-12 -4.54489e-05 2.72947e-11
 4.1432e-12 -4.54494e-05 -2.14291e-11
 3.19535e-12 -4.54489e-05 -1.42268e-11
 9.2418e-12 -4.54486e-05 6.36028e-12
 9.58301e-12 -4.54484e-05 3.25008e-11
 1.07213e-11 -4.5448e-05 2.69982e-11
 1.1732e-11 -4.5448e-05 3.88224e-11
 1.19261e-11 -4.54485e-05 7.92973e-12
 7.58869e-12 -4.54488e-05 2.84535e-11
 8.6296e-12 -4.54493e-05 -2.09926e-11
 1.76308e-11 -4.54489e-05 -1.24603e-11
 1.664e-11 -4.54487e-05 5.60144e-12
 1.53155e-11 -4.54484e-05 2.79641e-11
 1.67656e-11 -4.54482e-05 3.27823e-11
 2.02157e-11 -4.54482e-05 3.40124e-11
 1.20183e-11 -4.54485e-05 5.72469e-12
 1.1966e-11 -4.54489e-05 3.10747e-11
 6.41682e-12 -4.54492e-05 -2.02413e-11
 1.10131e-11 -4.54489e-05 -1.30252e-11
 3.55157e-12 -4.54487e-05 4.67755e-12
 4.6583e-12 -4.54485e-05 2.69512e-11
 1.71433e-11 -4.54483e-05 3.45334e-11
 1.44081e-11 -4.54484e-05 3.4055e-11
 3.91133e-12 -4.54486e-05 6.45404e-12
 -5.67489e-12 -4.54488e-05 3.02035e-11
 -1.04843e-11 -4.5449e-05 -2.07806e-11
 7.35075e-12 -4.54494e-05 -1.20714e-11
 1.14856e-11 -4.54491e-05 5.77171e-12
 1.24697e-11 -4.54489e-05 2.74332e-11
 5.61759e-12 -4.54486e-05 3.60345e-11
 1.26823e-11 -4.54486e-05 3.75806e-11
 1.0851e-11 -4.54489e-05 7.68208e-12
 8.11829e-14 -4.54493e-05 3.24376e-11
 -6.05821e-12 -4.54496e-05 -2.05269e-11
 6.92274e-12 -4.54489e-05 -1.08186e-11
 1.30808e-11 -4.54487e-05 5.09552e-12
 1.06898e-11 -4.54485e-05 2.5016e-11
 4.59188e-12 -4.54484e-05 3.30012e-11
 1.73229e-11 -4.54484e-05 3.26613e-11
 1.93569e-12 -4.54486e-05 7.31754e-12
 -3.19071e-12 -4.54488e-05 2.83807e-11
 -8.90166e-12 -4.54491e-05 -2.02081e-11
 2.15818e-13 -4.54485e-05 -8.4824e-12
 -3.80448e-12 -4.54483e-05 4.03569e-12
 -4.07428e-12 -4.54482e-05 2.08673e-11
 -4.84335e-12 -4.54481e-05 3.14458e-11
 -5.58396e-12 -4.54481e-05 2.60601e-11
 -7.42881e-12 -4.54483e-05 4.0354e-12
 -2.22089e-12 -4.54484e-05 2.8209e-11
 -3.82874e-12 -4.54485e-05 -1.96217e-11
 5.45619e-12 -4.5448e-05 -9.51461e-12
 7.60564e-12 -4.54479e-05 5.68964e-12
 9.47117e-12 -4.54479e-05 1.77042e-11
 1.3849e-11 -4.54479e-05 2.88439e-11
 5.27397e-12 -4.54479e-05 2.43635e-11
 1.48405e-11 -4.54479e-05 2.2396e-12
 1.5891e-11 -4.54479e-05 2.2848e-11
 1.92457e-11 -4.5448e-05 -1.95221e-11
 3.29543e-12 -0.000348937 -1.81324e-11
 2.71215e-12 -0.000348937 5.13931e-12
 8.42768e-13 -0.000348936 4.19756e-11
 1.15466e-13 -0.000348936 3.34208e-11
 -2.16068e-12 -0.000348936 5.33192e-11
 -1.13569e-12 -0.000348936 3.60825e-11
 2.2243e-12 -0.000348937 2.19646e-11
 1.06851e-11 -0.000348937 -1.70418e-11
 -1.27396e-12 -0.000348937 -1.43833e-11
 -4.74319e-12 -0.000348937 3.99225e-12
 -4.63881e-12 -0.000348937 3.88837e-11
 -7.52481e-12 -0.000348936 3.06434e-11
 -6.3191e-12 -0.000348936 4.96244e-11
 -1.96353e-12 -0.000348936 3.57783e-11
 -1.09504e-11 -0.000348937 1.59911e-11
 -2.41745e-11 -0.000348937 -1.73882e-11
 -8.76172e-12 -0.000348938 -1.27215e-11
 -9.2921e-12 -0.000348937 4.21044e-12
 -9.19929e-12 -0.000348937 3.54559e-11
 -1.0441e-11 -0.000348936 2.90281e-11
 -1.11601e-12 -0.000348936 4.5512e-11
 -1.41013e-11 -0.000348937 3.20473e-11
 -1.62777e-11 -0.000348937 1.40732e-11
 -2.17219e-11 -0.000348937 -1.80507e-11
 -1.01141e-11 -0.000348938 -1.36255e-11
 -1.44575e-11 -0.000348937 5.34655e-12
 -1.58411e-11 -0.000348937 3.18371e-11
 -1.36977e-11 -0.000348937 2.78279e-11
 -5.32171e-12 -0.000348937 4.31707e-11
 -1.50893e-11 -0.000348937 3.4893e-11
 -2.08027e-11 -0.000348937 5.84032e-12
 -2.6632e-11 -0.000348937 -1.93211e-11
 -1.51586e-11 -0.000348938 -1.23118e-11
 -1.24804e-11 -0.000348937 5.13926e-12
 -1.01127e-11 -0.000348937 3.57407e-11
 -8.84386e-12 -0.000348937 2.91713e-11
 -5.26479e-12 -0.000348937 4.90129e-11
 -6.69413e-12 -0.000348937 4.51153e-11
 -1.92868e-11 -0.000348937 7.24408e-12
 -2.27481e-11 -0.000348937 -1.49515e-11
 -1.30606e-11 -0.000348937 -1.08141e-11
 -4.82966e-12 -0.000348937 6.18181e-12
 -9.95681e-12 -0.000348937 3.03174e-11
 -1.36975e-11 -0.000348936 2.70651e-11
 -5.50443e-12 -0.000348936 4.32775e-11
 -1.22741e-11 -0.000348937 2.70192e-11
 -1.81563e-11 -0.000348937 1.46165e-11
 -2.51176e-11 -0.000348937 -1.36951e-11
 1.48451e-12 -0.000348937 -1.05433e-11
 -4.27599e-12 -0.000348937 6.83879e-12
 -6.889e-12 -0.000348936 2.29561e-11
 -7.54682e-12 -0.000348936 2.78638e-11
 -6.53989e-12 -0.000348936 3.65427e-11
 -8.70391e-12 -0.000348936 1.94047e-11
 -9.16894e-12 -0.000348936 1.3973e-11
 -1.27512e-11 -0.000348936 -1.32588e-11
 4.06168e-12 -0.000348936 -9.23051e-12
 1.87702e-13 -0.000348936 9.36992e-12
 9.59245e-13 -0.000348936 1.90677e-11
 -8.55078e-13 -0.000348936 2.53747e-11
 -1.04565e-12 -0.000348936 2.86522e-11
 -6.46989e-13 -0.000348936 1.39932e-11
 4.47415e-12 -0.000348936 1.00857e-11
 7.17616e-12 -0.000348936 -1.37276e-11
 1.00548e-12 -0.000574596 -2.1852e-11
 7.18357e-13 -0.000574596 6.87056e-12
 1.2299e-13 -0.000574595 5.37853e-11
 -4.36269e-13 -0.000574595 4.24483e-11
 6.21956e-12 -0.000574595 5.72034e-11
 6.34043e-12 -0.000574595 6.48517e-11
 6.86954e-12 -0.000574595 1.06523e-11
 7.58271e-12 -0.000574595 -1.60509e-11
 -1.00543e-11 -0.000574596 -1.93572e-11
 -1.60621e-11 -0.000574595 4.77105e-12
 -2.95142e-11 -0.000574595 4.83894e-11
 -2.75613e-11 -0.000574594 3.97734e-11
 -3.21693e-11 -0.000574595 4.82403e-11
 -3.75198e-11 -0.000574595 6.25838e-11
 -3.72048e-11 -0.000574595 5.8688e-12
 -4.30693e-11 -0.000574595 -1.60969e-11
 -2.39685e-11 -0.000574595 -1.84102e-11
 -2.17406e-11 -0.000574595 3.97017e-12
 -1.98032e-11 -0.000574594 4.37452e-11
 -2.57916e-11 -0.000574594 3.55165e-11
 -1.46695e-11 -0.000574594 4.11705e-11
 -1.78586e-11 -0.000574594 5.81794e-11
 -2.72111e-11 -0.000574594 2.27299e-12
 -3.62321e-11 -0.000574594 -1.6008e-11
 -2.49787e-11 -0.000574595 -1.58352e-11
 -3.36816e-11 -0.000574594 2.47421e-12
 -3.29281e-11 -0.000574594 3.75663e-11
 -4.42819e-11 -0.000574593 3.07133e-11
 -2.91698e-11 -0.000574594 3.53287e-11
 -4.18026e-11 -0.000574594 5.04454e-11
 -5.11413e-11 -0.000574594 1.8213e-12
 -5.33157e-11 -0.000574594 -1.58142e-11
 -2.74847e-11 -0.000574595 -1.54661e-11
 -3.18882e-11 -0.000574595 3.42872e-12
 -3.60714e-11 -0.000574594 4.15064e-11
 -3.54687e-11 -0.000574594 4.97265e-11
 -2.83656e-11 -0.000574594 3.21624e-11
 -3.33304e-11 -0.000574594 6.6059e-11
 -4.17197e-11 -0.000574594 1.27665e-12
 -5.16755e-11 -0.000574594 -9.7241e-12
 -1.93441e-11 -0.000574595 -1.49506e-11
 -2.03258e-11 -0.000574595 3.88503e-12
 -2.61484e-11 -0.000574594 3.29809e-11
 -3.13248e-11 -0.000574594 3.48881e-11
 -2.68227e-11 -0.000574594 3.5692e-11
 -3.26338e-11 -0.000574594 5.90304e-11
 -3.8237e-11 -0.000574594 7.66896e-13
 -4.26175e-11 -0.000574594 -8.75314e-12
 -8.25129e-12 -0.000574595 -1.89587e-11
 -9.31722e-12 -0.000574595 5.60841e-12
 -1.00513e-11 -0.000574594 3.24381e-11
 -1.08455e-11 -0.000574594 2.46504e-11
 -9.29255e-12 -0.000574594 3.64434e-11
 -6.1399e-12 -0.000574594 4.8067e-11
 -1.08218e-11 -0.000574594 -1.82253e-12
 -1.09665e-11 -0.000574594 -8.31786e-12
 2.34621e-12 -0.000574594 -1.45083e-11
 2.43679e-12 -0.000574594 3.06862e-12
 5.40503e-12 -0.000574595 2.3622e-11
 7.59304e-12 -0.000574595 2.20717e-11
 1.026e-11 -0.000574595 3.17763e-11
 7.3298e-12 -0.000574595 3.95618e-11
 1.22456e-11 -0.000574594 -3.50078e-12
 1.14698e-11 -0.000574594 -9.41483e-12
 1.09834e-11 -0.000517079 -1.73735e-11
 -1.80496e-13 -0.000517079 7.97365e-12
 1.17124e-11 -0.000517079 5.17036e-11
 1.23356e-11 -0.000517078 4.85488e-11
 7.24711e-12 -0.000517079 5.99399e-11
 1.62747e-11 -0.000517079 8.02779e-11
 1.90115e-11 -0.000517079 1.09466e-11
 2.03259e-11 -0.000517078 -1.25172e-11