<?xml version="1.0"?>
<VTKFile type="UnstructuredGrid" version="0.1" byte_order="LittleEndian" compressor="vtkZLibDataCompressor">
<UnstructuredGrid>
<Piece NumberOfPoints="960" NumberOfCells="120">
<Points>
<DataArray type="Float32" NumberOfComponents="3" format="ascii">
-4.000000e+02 -6.000000e+03 -4.000000e+02
0.000000e+00 -6.000000e+03 -4.000000e+02
-4.000000e+02 -5.600010e+03 -4.000000e+02
-9.451910e-10 -5.600010e+03 -4.000000e+02
-4.000000e+02 -6.000000e+03 0.000000e+00
0.000000e+00 -6.000000e+03 0.000000e+00
-4.000000e+02 -5.600010e+03 7.043290e-10
-5.185660e-10 -5.600010e+03 9.121190e-10
0.000000e+00 -6.000000e+03 -4.000000e+02
4.000000e+02 -6.000000e+03 -4.000000e+02
-9.451910e-10 -5.600010e+03 -4.000000e+02
4.000000e+02 -5.600010e+03 -4.000000e+02
0.000000e+00 -6.000000e+03 0.000000e+00
4.000000e+02 -6.000000e+03 0.000000e+00
-5.185660e-10 -5.600010e+03 9.121190e-10
4.000000e+02 -5.600010e+03 6.391980e-10
-4.000000e+02 -5.600010e+03 -4.000000e+02
-9.451910e-10 -5.600010e+03 -4.000000e+02
-4.000000e+02 -5.199980e+03 -4.000000e+02
-4.164430e-10 -5.199980e+03 -4.000000e+02
-4.000000e+02 -5.600010e+03 7.043290e-10
-5.185660e-10 -5.600010e+03 9.121190e-10
-4.000000e+02 -5.199980e+03 1.248290e-09
-9.474050e-10 -5.199980e+03 2.477750e-10
-9.451910e-10 -5.600010e+03 -4.000000e+02
4.000000e+02 -5.600010e+03 -4.000000e+02
-4.164430e-10 -5.199980e+03 -4.000000e+02
4.000000e+02 -5.199980e+03 -4.000000e+02
-5.185660e-10 -5.600010e+03 9.121190e-10
4.000000e+02 -5.600010e+03 6.391980e-10
-9.474050e-10 -5.199980e+03 2.477750e-10
4.000000e+02 -5.199980e+03 4.101580e-10
-4.000000e+02 -5.199980e+03 -4.000000e+02
-4.164430e-10 -5.199980e+03 -4.000000e+02
-4.000000e+02 -4.799970e+03 -4.000000e+02
-3.040120e-10 -4.799970e+03 -4.000000e+02
-4.000000e+02 -5.199980e+03 1.248290e-09
-9.474050e-10 -5.199980e+03 2.477750e-10
-4.000000e+02 -4.799970e+03 -5.415440e-10
-9.552430e-10 -4.799970e+03 -6.636580e-10
-4.164430e-10 -5.199980e+03 -4.000000e+02
4.000000e+02 -5.199980e+03 -4.000000e+02
-3.040120e-10 -4.799970e+03 -4.000000e+02
4.000000e+02 -4.799970e+03 -4.000000e+02
-9.474050e-10 -5.199980e+03 2.477750e-10
4.000000e+02 -5.199980e+03 4.101580e-10
-9.552430e-10 -4.799970e+03 -6.636580e-10
4.000000e+02 -4.799970e+03 -5.998730e-10
-4.000000e+02 -4.799970e+03 -4.000000e+02
-3.040120e-10 -4.799970e+03 -4.000000e+02
-4.000000e+02 -4.400020e+03 -4.000000e+02
-4.979400e-10 -4.400020e+03 -4.000000e+02
-4.000000e+02 -4.799970e+03 -5.415440e-10
-9.552430e-10 -4.799970e+03 -6.636580e-10
-4.000000e+02 -4.400020e+03 -5.368840e-11
-4.214070e-10 -4.400020e+03 -3.936800e-10
-3.040120e-10 -4.799970e+03 -4.000000e+02
4.000000e+02 -4.799970e+03 -4.000000e+02
-4.979400e-10 -4.400020e+03 -4.000000e+02
4.000000e+02 -4.400020e+03 -4.000000e+02
-9.552430e-10 -4.799970e+03 -6.636580e-10
4.000000e+02 -4.799970e+03 -5.998730e-10
-4.214070e-10 -4.400020e+03 -3.936800e-10
4.000000e+02 -4.400020e+03 -1.450600e-10
-4.000000e+02 -4.400020e+03 -4.000000e+02
-4.979400e-10 -4.400020e+03 -4.000000e+02
-4.000000e+02 -4.000100e+03 -4.000000e+02
-6.598280e-11 -4.000100e+03 -4.000000e+02
-4.000000e+02 -4.400020e+03 -5.368840e-11
-4.214070e-10 -4.400020e+03 -3.936800e-10
-4.000000e+02 -4.000100e+03 3.352640e-11
-1.524460e-10 -4.000100e+03 -7.553720e-11
-4.979400e-10 -4.400020e+03 -4.000000e+02
4.000000e+02 -4.400020e+03 -4.000000e+02
-6.598280e-11 -4.000100e+03 -4.000000e+02
4.000000e+02 -4.000100e+03 -4.000000e+02
-4.214070e-10 -4.400020e+03 -3.936800e-10
4.000000e+02 -4.400020e+03 -1.450600e-10
-1.524460e-10 -4.000100e+03 -7.553720e-11
4.000000e+02 -4.000100e+03 -3.813610e-10
-4.000000e+02 -4.000100e+03 -4.000000e+02
-6.598280e-11 -4.000100e+03 -4.000000e+02
-4.000000e+02 -3.600180e+03 -4.000000e+02
-2.102510e-09 -3.600180e+03 -4.000000e+02
-4.000000e+02 -4.000100e+03 3.352640e-11
-1.524460e-10 -4.000100e+03 -7.553720e-11
-4.000000e+02 -3.600180e+03 -4.911220e-10
-9.814030e-10 -3.600180e+03 7.253380e-11
-6.598280e-11 -4.000100e+03 -4.000000e+02
4.000000e+02 -4.000100e+03 -4.000000e+02
-2.102510e-09 -3.600180e+03 -4.000000e+02
4.000000e+02 -3.600180e+03 -4.000000e+02
-1.524460e-10 -4.000100e+03 -7.553720e-11
4.000000e+02 -4.000100e+03 -3.813610e-10
-9.814030e-10 -3.600180e+03 7.253380e-11
4.000000e+02 -3.600180e+03 -2.525980e-10
-4.000000e+02 -3.600180e+03 -4.000000e+02
-2.102510e-09 -3.600180e+03 -4.000000e+02
-4.000000e+02 -3.200230e+03 -4.000000e+02
-1.279880e-09 -3.200230e+03 -4.000000e+02
-4.000000e+02 -3.600180e+03 -4.911220e-10
-9.814030e-10 -3.600180e+03 7.253380e-11
-4.000000e+02 -3.200230e+03 -2.842300e-10
-6.146010e-10 -3.200230e+03 2.279090e-10
-2.102510e-09 -3.600180e+03 -4.000000e+02
4.000000e+02 -3.600180e+03 -4.000000e+02
-1.279880e-09 -3.200230e+03 -4.000000e+02
4.000000e+02 -3.200230e+03 -4.000000e+02
-9.814030e-10 -3.600180e+03 7.253380e-11
4.000000e+02 -3.600180e+03 -2.525980e-10
-6.146010e-10 -3.200230e+03 2.279090e-10
4.000000e+02 -3.200230e+03 2.415870e-10
-4.000000e+02 -3.200230e+03 -4.000000e+02
-1.279880e-09 -3.200230e+03 -4.000000e+02
-4.000000e+02 -2.800260e+03 -4.000000e+02
3.326620e-10 -2.800260e+03 -4.000000e+02
-4.000000e+02 -3.200230e+03 -2.842300e-10
-6.146010e-10 -3.200230e+03 2.279090e-10
-4.000000e+02 -2.800260e+03 4.264140e-10
8.371250e-10 -2.800260e+03 4.455320e-10
-1.279880e-09 -3.200230e+03 -4.000000e+02
4.000000e+02 -3.200230e+03 -4.000000e+02
3.326620e-10 -2.800260e+03 -4.000000e+02
4.000000e+02 -2.800260e+03 -4.000000e+02
-6.146010e-10 -3.200230e+03 2.279090e-10
4.000000e+02 -3.200230e+03 2.415870e-10
8.371250e-10 -2.800260e+03 4.455320e-10
4.000000e+02 -2.800260e+03 -7.282010e-11
-4.000000e+02 -2.800260e+03 -4.000000e+02
3.326620e-10 -2.800260e+03 -4.000000e+02
-4.000000e+02 -2.400280e+03 -4.000000e+02
5.264470e-10 -2.400280e+03 -4.000000e+02
-4.000000e+02 -2.800260e+03 4.264140e-10
8.371250e-10 -2.800260e+03 4.455320e-10
-4.000000e+02 -2.400280e+03 -4.201590e-10
8.566630e-10 -2.400280e+03 2.382330e-10
3.326620e-10 -2.800260e+03 -4.000000e+02
4.000000e+02 -2.800260e+03 -4.000000e+02
5.264470e-10 -2.400280e+03 -4.000000e+02
4.000000e+02 -2.400280e+03 -4.000000e+02
8.371250e-10 -2.800260e+03 4.455320e-10
4.000000e+02 -2.800260e+03 -7.282010e-11
8.566630e-10 -2.400280e+03 2.382330e-10
4.000000e+02 -2.400280e+03 4.080030e-10
-4.000000e+02 -2.400280e+03 -4.000000e+02
5.264470e-10 -2.400280e+03 -4.000000e+02
-4.000000e+02 -2.000290e+03 -4.000000e+02
5.824440e-10 -2.000290e+03 -4.000000e+02
-4.000000e+02 -2.400280e+03 -4.201590e-10
8.566630e-10 -2.400280e+03 2.382330e-10
-4.000000e+02 -2.000290e+03 -3.213540e-10
-7.403680e-11 -2.000290e+03 -7.935690e-10
5.264470e-10 -2.400280e+03 -4.000000e+02
4.000000e+02 -2.400280e+03 -4.000000e+02
5.824440e-10 -2.000290e+03 -4.000000e+02
4.000000e+02 -2.000290e+03 -4.000000e+02
8.566630e-10 -2.400280e+03 2.382330e-10
4.000000e+02 -2.400280e+03 4.080030e-10
-7.403680e-11 -2.000290e+03 -7.935690e-10
4.000000e+02 -2.000290e+03 -3.952880e-10
-4.000000e+02 -2.000290e+03 -4.000000e+02
5.824440e-10 -2.000290e+03 -4.000000e+02
-4.000000e+02 -1.600290e+03 -4.000000e+02
6.168960e-10 -1.600290e+03 -4.000000e+02
-4.000000e+02 -2.000290e+03 -3.213540e-10
-7.403680e-11 -2.000290e+03 -7.935690e-10
-4.000000e+02 -1.600290e+03 1.462560e-10
2.527140e-10 -1.600290e+03 -2.755880e-11
5.824440e-10 -2.000290e+03 -4.000000e+02
4.000000e+02 -2.000290e+03 -4.000000e+02
6.168960e-10 -1.600290e+03 -4.000000e+02
4.000000e+02 -1.600290e+03 -4.000000e+02
-7.403680e-11 -2.000290e+03 -7.935690e-10
4.000000e+02 -2.000290e+03 -3.952880e-10
2.527140e-10 -1.600290e+03 -2.755880e-11
4.000000e+02 -1.600290e+03 -2.199550e-11
-4.000000e+02 -1.600290e+03 -4.000000e+02
6.168960e-10 -1.600290e+03 -4.000000e+02
-4.000000e+02 -1.200290e+03 -4.000000e+02
-1.999370e-10 -1.200290e+03 -4.000000e+02
-4.000000e+02 -1.600290e+03 1.462560e-10
2.527140e-10 -1.600290e+03 -2.755880e-11
-4.000000e+02 -1.200290e+03 4.527230e-10
2.515210e-10 -1.200290e+03 4.619210e-10
6.168960e-10 -1.600290e+03 -4.000000e+02
4.000000e+02 -1.600290e+03 -4.000000e+02
-1.999370e-10 -1.200290e+03 -4.000000e+02
4.000000e+02 -1.200290e+03 -4.000000e+02
2.527140e-10 -1.600290e+03 -2.755880e-11
4.000000e+02 -1.600290e+03 -2.199550e-11
2.515210e-10 -1.200290e+03 4.619210e-10
4.000000e+02 -1.200290e+03 9.434230e-10
-4.000000e+02 -1.200290e+03 -4.000000e+02
-1.999370e-10 -1.200290e+03 -4.000000e+02
-4.000000e+02 -8.002940e+02 -4.000000e+02
4.483430e-10 -8.002940e+02 -4.000000e+02
-4.000000e+02 -1.200290e+03 4.527230e-10
2.515210e-10 -1.200290e+03 4.619210e-10
-4.000000e+02 -8.002940e+02 2.520340e-10
3.114350e-11 -8.002940e+02 1.507080e-10
-1.999370e-10 -1.200290e+03 -4.000000e+02
4.000000e+02 -1.200290e+03 -4.000000e+02
4.483430e-10 -8.002940e+02 -4.000000e+02
4.000000e+02 -8.002940e+02 -4.000000e+02
2.515210e-10 -1.200290e+03 4.619210e-10
4.000000e+02 -1.200290e+03 9.434230e-10
3.114350e-11 -8.002940e+02 1.507080e-10
4.000000e+02 -8.002940e+02 4.274520e-11
-4.000000e+02 -8.002940e+02 -4.000000e+02
4.483430e-10 -8.002940e+02 -4.000000e+02
-4.000000e+02 -4.002950e+02 -4.000000e+02
4.253850e-10 -4.002950e+02 -4.000000e+02
-4.000000e+02 -8.002940e+02 2.520340e-10
3.114350e-11 -8.002940e+02 1.507080e-10
-4.000000e+02 -4.002950e+02 -1.582890e-10
2.337030e-11 -4.002950e+02 5.835420e-11
4.483430e-10 -8.002940e+02 -4.000000e+02
4.000000e+02 -8.002940e+02 -4.000000e+02
4.253850e-10 -4.002950e+02 -4.000000e+02
4.000000e+02 -4.002950e+02 -4.000000e+02
3.114350e-11 -8.002940e+02 1.507080e-10
4.000000e+02 -8.002940e+02 4.274520e-11
2.337030e-11 -4.002950e+02 5.835420e-11
4.000000e+02 -4.002950e+02 -3.680760e-11
-4.000000e+02 -4.002950e+02 -4.000000e+02
4.253850e-10 -4.002950e+02 -4.000000e+02
-4.000000e+02 -2.957140e-01 -4.000000e+02
-3.192810e-10 -2.957140e-01 -4.000000e+02
-4.000000e+02 -4.002950e+02 -1.582890e-10
2.337030e-11 -4.002950e+02 5.835420e-11
-4.000000e+02 -2.957140e-01 -1.266150e-10
1.916840e-10 -2.957140e-01 -6.400940e-10
4.253850e-10 -4.002950e+02 -4.000000e+02
4.000000e+02 -4.002950e+02 -4.000000e+02
-3.192810e-10 -2.957140e-01 -4.000000e+02
[...]
<PointData>
<DataArray type="Float32" Name="V1" format="ascii">
0.000000e+00
0.000000e+00
-1.068370e-09
-2.459860e-10
0.000000e+00
0.000000e+00
-1.523990e-09
8.856940e-11
0.000000e+00
0.000000e+00
-2.459860e-10
7.070060e-10
0.000000e+00
0.000000e+00
8.856940e-11
9.269640e-10
-1.068370e-09
-2.459860e-10
8.484080e-10
5.726420e-10
-1.523990e-09
8.856940e-11
-1.005520e-09
-1.600960e-10
-2.459860e-10
7.070060e-10
5.726420e-10
1.696820e-09
8.856940e-11
9.269640e-10
-1.600960e-10
3.770700e-10
8.484080e-10
5.726420e-10
3.802120e-09
-5.449890e-11
-1.005520e-09
-1.600960e-10
0.000000e+00
5.835040e-10
5.726420e-10
1.696820e-09
-5.449890e-11
-3.110830e-09
-1.600960e-10
3.770700e-10
5.835040e-10
4.713380e-11
3.802120e-09
-5.449890e-11
1.414010e-10
-6.350400e-10
0.000000e+00
5.835040e-10
-1.571130e-10
-3.067220e-10
-5.449890e-11
-3.110830e-09
-6.350400e-10
1.099790e-10
5.835040e-10
4.713380e-11
-3.067220e-10
-8.012740e-10
1.414010e-10
-6.350400e-10
1.775370e-09
3.646060e-10
-1.571130e-10
-3.067220e-10
8.012740e-10
4.109010e-10
-6.350400e-10
1.099790e-10
3.646060e-10
7.698510e-10
-3.067220e-10
-8.012740e-10
4.109010e-10
-9.426750e-11
1.775370e-09
3.646060e-10
-3.456480e-10
3.703210e-10
8.012740e-10
4.109010e-10
1.712530e-09
3.936580e-10
3.646060e-10
7.698510e-10
3.703210e-10
5.656050e-10
4.109010e-10
-9.426750e-11
3.936580e-10
-4.870490e-10
-3.456480e-10
3.703210e-10
1.366880e-09
-1.711300e-09
1.712530e-09
3.936580e-10
0.000000e+00
-1.296180e-09
3.703210e-10
5.656050e-10
-1.711300e-09
-2.026750e-09
3.936580e-10
-4.870490e-10
-1.296180e-09
-8.169850e-10
1.366880e-09
-1.711300e-09
-1.492570e-09
-5.010830e-10
0.000000e+00
-1.296180e-09
1.728240e-10
-5.773510e-10
-1.711300e-09
-2.026750e-09
-5.010830e-10
1.178340e-09
-1.296180e-09
-8.169850e-10
-5.773510e-10
0.000000e+00
-1.492570e-09
-5.010830e-10
-1.131210e-09
-2.561380e-10
1.728240e-10
-5.773510e-10
1.052650e-09
-1.009910e-10
-5.010830e-10
1.178340e-09
-2.561380e-10
5.656050e-10
-5.773510e-10
0.000000e+00
-1.009910e-10
5.184710e-10
-1.131210e-09
-2.561380e-10
6.912950e-10
4.681900e-10
1.052650e-09
-1.009910e-10
0.000000e+00
-2.845230e-10
-2.561380e-10
5.656050e-10
4.681900e-10
-1.021230e-09
-1.009910e-10
5.184710e-10
-2.845230e-10
-5.184710e-10
6.912950e-10
4.681900e-10
7.698510e-10
-3.251440e-10
0.000000e+00
-2.845230e-10
0.000000e+00
-7.305730e-10
4.681900e-10
-1.021230e-09
-3.251440e-10
1.115500e-09
-2.845230e-10
-5.184710e-10
-7.305730e-10
0.000000e+00
7.698510e-10
-3.251440e-10
9.740980e-10
1.251260e-09
0.000000e+00
-7.305730e-10
0.000000e+00
2.119260e-10
-3.251440e-10
1.115500e-09
1.251260e-09
5.970280e-10
-7.305730e-10
0.000000e+00
2.119260e-10
9.269640e-10
9.740980e-10
1.251260e-09
-4.084930e-10
-6.562590e-10
0.000000e+00
2.119260e-10
0.000000e+00
5.742350e-10
1.251260e-09
5.970280e-10
-6.562590e-10
0.000000e+00
2.119260e-10
9.269640e-10
5.742350e-10
0.000000e+00
-4.084930e-10
-6.562590e-10
-2.042460e-10
-1.056920e-09
0.000000e+00
5.742350e-10
0.000000e+00
-6.867810e-10
-6.562590e-10
0.000000e+00
-1.056920e-09
0.000000e+00
5.742350e-10
0.000000e+00
-6.867810e-10
0.000000e+00
-2.042460e-10
-1.056920e-09
5.498940e-10
-8.275030e-10
0.000000e+00
-6.867810e-10
0.000000e+00
8.695610e-10
-1.056920e-09
0.000000e+00
-8.275030e-10
1.571130e-10
-6.867810e-10
0.000000e+00
8.695610e-10
0.000000e+00
5.498940e-10
-8.275030e-10
0.000000e+00
-2.262700e-10
0.000000e+00
8.695610e-10
0.000000e+00
-1.445450e-10
-8.275030e-10
1.571130e-10
-2.262700e-10
0.000000e+00
8.695610e-10
0.000000e+00
-1.445450e-10
0.000000e+00
0.000000e+00
-2.262700e-10
2.670910e-10
1.467910e-10
0.000000e+00
-1.445450e-10
0.000000e+00
2.647450e-10
-2.262700e-10
0.000000e+00
1.467910e-10
0.000000e+00
-1.445450e-10
0.000000e+00
2.647450e-10
0.000000e+00
2.670910e-10
1.467910e-10
0.000000e+00
5.457540e-10
0.000000e+00
2.647450e-10
0.000000e+00
-1.157610e-10
1.467910e-10
0.000000e+00
5.457540e-10
-4.870490e-10
2.647450e-10
0.000000e+00
-1.157610e-10
0.000000e+00
0.000000e+00
5.457540e-10
0.000000e+00
4.599850e-10
0.000000e+00
-1.157610e-10
0.000000e+00
5.142970e-10
5.457540e-10
-4.870490e-10
4.599850e-10
0.000000e+00
-1.157610e-10
0.000000e+00
5.142970e-10
-2.042460e-10
0.000000e+00
4.599850e-10
1.256900e-10
-1.583020e-12
0.000000e+00
5.142970e-10
0.000000e+00
-4.165530e-11
4.599850e-10
0.000000e+00
-1.583020e-12
-5.184710e-10
5.142970e-10
-2.042460e-10
-4.165530e-11
0.000000e+00
1.256900e-10
-1.583020e-12
0.000000e+00
1.676190e-10
0.000000e+00
-4.165530e-11
3.770700e-10
2.811030e-10
-1.583020e-12
-5.184710e-10
1.676190e-10
0.000000e+00
-4.165530e-11
0.000000e+00
2.811030e-10
0.000000e+00
0.000000e+00
1.676190e-10
0.000000e+00
1.033850e-10
3.770700e-10
2.811030e-10
5.027600e-10
2.344160e-10
1.676190e-10
0.000000e+00
1.033850e-10
0.000000e+00
2.811030e-10
0.000000e+00
2.344160e-10
0.000000e+00
0.000000e+00
1.033850e-10
0.000000e+00
-8.047280e-11
5.027600e-10
2.344160e-10
0.000000e+00
-7.475440e-11
1.033850e-10
0.000000e+00
-8.047280e-11
0.000000e+00
2.344160e-10
0.000000e+00
-7.475440e-11
0.000000e+00
0.000000e+00
-8.047280e-11
2.042460e-10
4.854520e-11
0.000000e+00
-7.475440e-11
1.571130e-10
1.127010e-10
-8.047280e-11
0.000000e+00
4.854520e-11
0.000000e+00
-7.475440e-11
0.000000e+00
1.127010e-10
0.000000e+00
2.042460e-10
4.854520e-11
0.000000e+00
3.680530e-11
1.571130e-10
1.127010e-10
0.000000e+00
2.882250e-11
4.854520e-11
0.000000e+00
3.680530e-11
0.000000e+00
1.127010e-10
0.000000e+00
2.882250e-11
0.000000e+00
0.000000e+00
3.680530e-11
0.000000e+00
1.874070e-11
0.000000e+00
2.882250e-11
1.885350e-10
9.422640e-11
3.680530e-11
0.000000e+00
1.874070e-11
0.000000e+00
2.882250e-11
0.000000e+00
9.422640e-11
0.000000e+00
0.000000e+00
1.874070e-11
-1.571130e-11
-1.774650e-10
1.885350e-10
9.422640e-11
0.000000e+00
-1.838330e-10
1.874070e-11
0.000000e+00
-1.774650e-10
-3.927810e-10
9.422640e-11
0.000000e+00
-1.838330e-10
-3.770700e-10
-1.571130e-11
-1.774650e-10
9.426750e-11
-6.757320e-11
0.000000e+00
-1.838330e-10
0.000000e+00
-1.226750e-10
-1.774650e-10
-3.927810e-10
-6.757320e-11
-2.513800e-10
-1.838330e-10
-3.770700e-10
-1.226750e-10
-1.728240e-10
9.426750e-11
-6.757320e-11
1.728240e-10
2.215890e-10
0.000000e+00
-1.226750e-10
2.670910e-10
2.795080e-10
-6.757320e-11
-2.513800e-10
2.215890e-10
2.670910e-10
-1.226750e-10
-1.728240e-10
2.795080e-10
2.670910e-10
1.728240e-10
2.215890e-10
2.042460e-10
1.732890e-10
2.670910e-10
2.795080e-10
2.356690e-10
1.688330e-10
2.215890e-10
2.670910e-10
1.732890e-10
1.099790e-10
2.795080e-10
2.670910e-10
1.688330e-10
0.000000e+00
0.000000e+00
0.000000e+00
-1.523990e-09
8.856940e-11
0.000000e+00
0.000000e+00
-9.112530e-10
3.371400e-10
0.000000e+00
0.000000e+00
8.856940e-11
9.269640e-10
0.000000e+00
0.000000e+00
3.371400e-10
1.728240e-10
-1.523990e-09
8.856940e-11
-1.005520e-09
-1.600960e-10
-9.112530e-10
3.371400e-10
1.256900e-10
5.106220e-10
8.856940e-11
9.269640e-10
-1.600960e-10
3.770700e-10
3.371400e-10
1.728240e-10
5.106220e-10
2.340980e-09
-1.005520e-09
-1.600960e-10
0.000000e+00
5.835040e-10
1.256900e-10
5.106220e-10
-7.855630e-11
-5.416660e-10
-1.600960e-10
3.770700e-10
5.835040e-10
4.713380e-11
5.106220e-10
2.340980e-09
-5.416660e-10
-1.209770e-09
0.000000e+00
5.835040e-10
-1.571130e-10
-3.067220e-10
-7.855630e-11
-5.416660e-10
-1.209770e-09
-5.085770e-10
5.835040e-10
4.713380e-11
-3.067220e-10
-8.012740e-10
-5.416660e-10
-1.209770e-09
-5.085770e-10
-1.571130e-10
-1.571130e-10
-3.067220e-10
8.012740e-10
4.109010e-10
-1.209770e-09
-5.085770e-10
-9.583870e-10
-1.169330e-09
-3.067220e-10
-8.012740e-10
4.109010e-10
-9.426750e-11
-5.085770e-10
-1.571130e-10
-1.169330e-09
0.000000e+00
8.012740e-10
4.109010e-10
1.712530e-09
3.936580e-10
-9.583870e-10
-1.169330e-09
1.665390e-09
-1.049460e-10
4.109010e-10
-9.426750e-11
3.936580e-10
-4.870490e-10
-1.169330e-09
0.000000e+00
-1.049460e-10
-5.027600e-10
1.712530e-09
3.936580e-10
0.000000e+00
-1.296180e-09
1.665390e-09
-1.049460e-10
-3.142250e-10
5.503280e-10
3.936580e-10
-4.870490e-10
-1.296180e-09
-8.169850e-10
-1.049460e-10
-5.027600e-10
5.503280e-10
1.571130e-10
0.000000e+00
-1.296180e-09
1.728240e-10
-5.773510e-10
-3.142250e-10
5.503280e-10
-2.419530e-09
-8.782980e-10
-1.296180e-09
-8.169850e-10
-5.773510e-10
0.000000e+00
5.503280e-10
1.571130e-10
-8.782980e-10
2.152440e-09
1.728240e-10
-5.773510e-10
1.052650e-09
-1.009910e-10
-2.419530e-09
-8.782980e-10
8.955420e-10
9.728810e-10
-5.773510e-10
0.000000e+00
-1.009910e-10
5.184710e-10
-8.782980e-10
2.152440e-09
9.728810e-10
-3.613590e-10
1.052650e-09
-1.009910e-10
0.000000e+00
-2.845230e-10
8.955420e-10
9.728810e-10
8.012740e-10
1.248410e-09
-1.009910e-10
5.184710e-10
-2.845230e-10
-5.184710e-10
9.728810e-10
-3.613590e-10
1.248410e-09
1.194060e-09
0.000000e+00
-2.845230e-10
0.000000e+00
-7.305730e-10
8.012740e-10
1.248410e-09
0.000000e+00
3.136410e-10
-2.845230e-10
-5.184710e-10
-7.305730e-10
0.000000e+00
1.248410e-09
1.194060e-09
3.136410e-10
0.000000e+00
0.000000e+00
-7.305730e-10
0.000000e+00
2.119260e-10
0.000000e+00
3.136410e-10
5.027600e-10
-1.419930e-10
-7.305730e-10
0.000000e+00
2.119260e-10
9.269640e-10
3.136410e-10
0.000000e+00
-1.419930e-10
-7.855630e-11
0.000000e+00
2.119260e-10
0.000000e+00
5.742350e-10
5.027600e-10
-1.419930e-10
-2.828030e-10
-7.531260e-10
2.119260e-10
9.269640e-10
5.742350e-10
0.000000e+00
-1.419930e-10
-7.855630e-11
-7.531260e-10
0.000000e+00
0.000000e+00
5.742350e-10
0.000000e+00
-6.867810e-10
-2.828030e-10
-7.531260e-10
0.000000e+00
-7.562040e-10
5.742350e-10
0.000000e+00
-6.867810e-10
0.000000e+00
-7.531260e-10
0.000000e+00
-7.562040e-10
0.000000e+00
0.000000e+00
-6.867810e-10
0.000000e+00
8.695610e-10
0.000000e+00
-7.562040e-10
0.000000e+00
8.514930e-10
-6.867810e-10
0.000000e+00
8.695610e-10
0.000000e+00
-7.562040e-10
0.000000e+00
8.514930e-10
-6.284500e-10
0.000000e+00
8.695610e-10
0.000000e+00
-1.445450e-10
0.000000e+00
8.514930e-10
0.000000e+00
-6.244410e-11
8.695610e-10
0.000000e+00
-1.445450e-10
0.000000e+00
8.514930e-10
-6.284500e-10
-6.244410e-11
0.000000e+00
0.000000e+00
-1.445450e-10
0.000000e+00
2.647450e-10
0.000000e+00
-6.244410e-11
2.199580e-10
-4.090260e-10
-1.445450e-10
0.000000e+00
2.647450e-10
0.000000e+00
-6.244410e-11
0.000000e+00
-4.090260e-10
0.000000e+00
0.000000e+00
2.647450e-10
0.000000e+00
-1.157610e-10
2.199580e-10
-4.090260e-10
0.000000e+00
2.765520e-10
2.647450e-10
0.000000e+00
-1.157610e-10
0.000000e+00
-4.090260e-10
0.000000e+00
2.765520e-10
0.000000e+00
0.000000e+00
-1.157610e-10
0.000000e+00
5.142970e-10
0.000000e+00
2.765520e-10
0.000000e+00
-7.719100e-11
-1.157610e-10
0.000000e+00
5.142970e-10
-2.042460e-10
2.765520e-10
0.000000e+00
-7.719100e-11
0.000000e+00
0.000000e+00
5.142970e-10
0.000000e+00
-4.165530e-11
0.000000e+00
-7.719100e-11
0.000000e+00
-1.473890e-11
5.142970e-10
-2.042460e-10
-4.165530e-11
0.000000e+00
-7.719100e-11
0.000000e+00
-1.473890e-11
0.000000e+00
0.000000e+00
-4.165530e-11
3.770700e-10
2.811030e-10
0.000000e+00
-1.473890e-11
0.000000e+00
2.140150e-10
-4.165530e-11
0.000000e+00
2.811030e-10
0.000000e+00
-1.473890e-11
0.000000e+00
2.140150e-10
0.000000e+00
3.770700e-10
2.811030e-10
5.027600e-10
2.344160e-10
0.000000e+00
2.140150e-10
0.000000e+00
1.089280e-11
2.811030e-10
0.000000e+00
2.344160e-10
0.000000e+00
2.140150e-10
0.000000e+00
1.089280e-11
0.000000e+00
5.027600e-10
2.344160e-10
0.000000e+00
-7.475440e-11
0.000000e+00
1.089280e-11
0.000000e+00
-1.556230e-10
2.344160e-10
0.000000e+00
-7.475440e-11
0.000000e+00
1.089280e-11
0.000000e+00
-1.556230e-10
-2.670910e-10
0.000000e+00
-7.475440e-11
1.571130e-10
1.127010e-10
0.000000e+00
-1.556230e-10
0.000000e+00
1.332450e-10
-7.475440e-11
0.000000e+00
1.127010e-10
0.000000e+00
-1.556230e-10
-2.670910e-10
1.332450e-10
0.000000e+00
1.571130e-10
1.127010e-10
0.000000e+00
2.882250e-11
0.000000e+00
1.332450e-10
0.000000e+00
1.516380e-11
1.127010e-10
0.000000e+00
2.882250e-11
0.000000e+00
1.332450e-10
0.000000e+00
1.516380e-11
0.000000e+00
0.000000e+00
2.882250e-11
1.885350e-10
9.422640e-11
0.000000e+00
1.516380e-11
3.613590e-10
1.625480e-10
2.882250e-11
0.000000e+00
9.422640e-11
0.000000e+00
1.516380e-11
0.000000e+00
1.625480e-10
0.000000e+00
1.885350e-10
9.422640e-11
0.000000e+00
-1.838330e-10
3.613590e-10
1.625480e-10
0.000000e+00
-1.171190e-10
9.422640e-11
0.000000e+00
-1.838330e-10
-3.770700e-10
1.625480e-10
0.000000e+00
-1.171190e-10
-2.513800e-10
0.000000e+00
-1.838330e-10
0.000000e+00
-1.226750e-10
0.000000e+00
-1.171190e-10
0.000000e+00
-1.327780e-10
-1.838330e-10
-3.770700e-10
-1.226750e-10
-1.728240e-10
-1.171190e-10
-2.513800e-10
-1.327780e-10
-1.571130e-10
0.000000e+00
-1.226750e-10
2.670910e-10
2.795080e-10
0.000000e+00
-1.327780e-10
3.456480e-10
3.097690e-10
-1.226750e-10
-1.728240e-10
2.795080e-10
2.670910e-10
-1.327780e-10
-1.571130e-10
3.097690e-10
2.356690e-10
2.670910e-10
2.795080e-10
2.356690e-10
1.688330e-10
3.456480e-10
3.097690e-10
2.513800e-10
1.692560e-10
2.795080e-10
2.670910e-10
1.688330e-10
0.000000e+00
3.097690e-10
2.356690e-10
1.692560e-10
0.000000e+00
</DataArray>
<DataArray type="Float32" Name="V2" format="ascii">
0.000000e+00
0.000000e+00
3.026630e-02
3.026630e-02
0.000000e+00
0.000000e+00
3.026630e-02
3.026630e-02
0.000000e+00
0.000000e+00
3.026630e-02
3.026630e-02
0.000000e+00
0.000000e+00
3.026630e-02
3.026630e-02
3.026630e-02
3.026630e-02
1.409440e-02
1.409440e-02
3.026630e-02
3.026630e-02
1.409440e-02
1.409440e-02
3.026630e-02
3.026630e-02
1.409440e-02
1.409440e-02
3.026630e-02
3.026630e-02
1.409440e-02
1.409440e-02
1.409440e-02
1.409440e-02
-2.214650e-02
-2.214650e-02
1.409440e-02
1.409440e-02
-2.214650e-02
-2.214650e-02
1.409440e-02
1.409440e-02
-2.214650e-02
-2.214650e-02
1.409440e-02
1.409440e-02
-2.214650e-02
-2.214650e-02
-2.214650e-02
-2.214650e-02
-4.635150e-02
-4.635150e-02
-2.214650e-02
-2.214650e-02
-4.635150e-02
-4.635150e-02
-2.214650e-02
-2.214650e-02
-4.635150e-02
-4.635150e-02
-2.214650e-02
-2.214650e-02
-4.635150e-02
-4.635150e-02
-4.635150e-02
-4.635150e-02
-5.801570e-02
-5.801570e-02
-4.635150e-02
-4.635150e-02
-5.801570e-02
-5.801570e-02
-4.635150e-02
-4.635150e-02
-5.801570e-02
-5.801570e-02
-4.635150e-02
-4.635150e-02
-5.801570e-02
-5.801570e-02
-5.801570e-02
-5.801570e-02
-4.687890e-02
-4.687890e-02
-5.801570e-02
-5.801570e-02
-4.687890e-02
-4.687890e-02
-5.801570e-02
-5.801570e-02
-4.687890e-02
-4.687890e-02
-5.801570e-02
-5.801570e-02
-4.687890e-02
-4.687890e-02
-4.687890e-02
-4.687890e-02
-2.676000e-02
-2.676000e-02
-4.687890e-02
-4.687890e-02
-2.676000e-02
-2.676000e-02
-4.687890e-02
-4.687890e-02
-2.676000e-02
-2.676000e-02
-4.687890e-02
-4.687890e-02
-2.676000e-02
-2.676000e-02
-2.676000e-02
-2.676000e-02
-1.615190e-02
-1.615190e-02
-2.676000e-02
-2.676000e-02
-1.615190e-02
-1.615190e-02
-2.676000e-02
-2.676000e-02
-1.615190e-02
-1.615180e-02
-2.676000e-02
-2.676000e-02
-1.615190e-02
-1.615180e-02
-1.615190e-02
-1.615190e-02
-7.056240e-03
-7.056240e-03
-1.615190e-02
-1.615190e-02
-7.056240e-03
-7.056240e-03
-1.615190e-02
-1.615180e-02
-7.056240e-03
-7.056240e-03
-1.615190e-02
-1.615180e-02
-7.056240e-03
-7.056240e-03
-7.056240e-03
-7.056240e-03
-3.727340e-03
-3.727330e-03
-7.056240e-03
-7.056240e-03
-3.727330e-03
-3.727330e-03
-7.056240e-03
-7.056240e-03
-3.727330e-03
-3.727330e-03
-7.056240e-03
-7.056240e-03
-3.727330e-03
-3.727330e-03
-3.727340e-03
-3.727330e-03
-2.237390e-03
-2.237390e-03
-3.727330e-03
-3.727330e-03
-2.237400e-03
-2.237400e-03
-3.727330e-03
-3.727330e-03
-2.237390e-03
-2.237390e-03
-3.727330e-03
-3.727330e-03
-2.237400e-03
-2.237400e-03
-2.237390e-03
-2.237390e-03
-1.170160e-03
-1.170160e-03
-2.237400e-03
-2.237400e-03
-1.170160e-03
-1.170170e-03
-2.237390e-03
-2.237390e-03
-1.170160e-03
-1.170160e-03
-2.237400e-03
-2.237400e-03
-1.170170e-03
-1.170170e-03
-1.170160e-03
-1.170160e-03
-1.302820e-03
-1.302820e-03
-1.170160e-03
-1.170170e-03
-1.302820e-03
-1.302820e-03
-1.170160e-03
-1.170160e-03
-1.302820e-03
-1.302820e-03
-1.170170e-03
-1.170170e-03
-1.302820e-03
-1.302820e-03
-1.302820e-03
-1.302820e-03
-3.125420e-04
-3.125410e-04
-1.302820e-03
-1.302820e-03
-3.125430e-04
-3.125400e-04
-1.302820e-03
-1.302820e-03
-3.125410e-04
-3.125400e-04
-1.302820e-03
-1.302820e-03
-3.125400e-04
-3.125420e-04
-3.125420e-04
-3.125410e-04
-8.312440e-04
-8.312440e-04
-3.125430e-04
-3.125400e-04
-8.312440e-04
-8.312460e-04
-3.125410e-04
-3.125400e-04
-8.312440e-04
-8.312460e-04
-3.125400e-04
-3.125420e-04
-8.312460e-04
-8.312470e-04
-8.312440e-04
-8.312440e-04
-3.987970e-04
-3.987980e-04
-8.312440e-04
-8.312460e-04
-3.987970e-04
-3.987960e-04
-8.312440e-04
-8.312460e-04
-3.987980e-04
-3.987960e-04
-8.312460e-04
-8.312470e-04
-3.987960e-04
-3.987960e-04
-3.987970e-04
-3.987980e-04
8.697060e-05
8.697230e-05
-3.987970e-04
-3.987960e-04
8.697340e-05
8.697230e-05
-3.987980e-04
-3.987960e-04
8.697230e-05
8.696980e-05
-3.987960e-04
-3.987960e-04
8.697230e-05
8.697260e-05
8.697060e-05
8.697230e-05
1.210050e-04
1.210030e-04
8.697340e-05
8.697230e-05
1.210010e-04
1.210040e-04
8.697230e-05
8.696980e-05
1.210030e-04
1.210030e-04
8.697230e-05
8.697260e-05
1.210040e-04
1.210000e-04
1.210050e-04
1.210030e-04
-1.983100e-04
-1.983090e-04
1.210010e-04
1.210040e-04
-1.983090e-04
-1.983100e-04
1.210030e-04
1.210030e-04
-1.983090e-04
-1.983070e-04
1.210040e-04
1.210000e-04
-1.983100e-04
-1.983080e-04
-1.983100e-04
-1.983090e-04
3.516540e-05
3.516740e-05
-1.983090e-04
-1.983100e-04
3.516630e-05
3.516420e-05
-1.983090e-04
-1.983070e-04
3.516740e-05
3.516560e-05
-1.983100e-04
-1.983080e-04
3.516420e-05
3.516510e-05
3.516540e-05
3.516740e-05
-8.668570e-05
-8.668580e-05
3.516630e-05
3.516420e-05
-8.668600e-05
-8.668400e-05
3.516740e-05
3.516560e-05
-8.668580e-05
-8.668330e-05
3.516420e-05
3.516510e-05
-8.668400e-05
-8.668450e-05
-8.668570e-05
-8.668580e-05
-4.669400e-04
-4.669390e-04
-8.668600e-05
-8.668400e-05
-4.669400e-04
-4.669420e-04
-8.668580e-05
-8.668330e-05
-4.669390e-04
-4.669420e-04
-8.668400e-05
-8.668450e-05
-4.669420e-04
-4.669410e-04
-4.669400e-04
-4.669390e-04
-3.212740e-04
-3.212730e-04
-4.669400e-04
-4.669420e-04
-3.212730e-04
-3.212730e-04
-4.669390e-04
-4.669420e-04
-3.212730e-04
-3.212710e-04
-4.669420e-04
-4.669410e-04
-3.212730e-04
-3.212720e-04
-3.212740e-04
-3.212730e-04
2.239130e-04
2.239120e-04
-3.212730e-04
-3.212730e-04
2.239120e-04
2.239140e-04
-3.212730e-04
-3.212710e-04
2.239120e-04
2.239130e-04
-3.212730e-04
-3.212720e-04
2.239140e-04
2.239130e-04
2.239130e-04
2.239120e-04
-5.431840e-04
-5.431830e-04
2.239120e-04
2.239140e-04
-5.431840e-04
-5.431860e-04
2.239120e-04
2.239130e-04
-5.431830e-04
-5.431840e-04
2.239140e-04
2.239130e-04
-5.431860e-04
-5.431860e-04
-5.431840e-04
-5.431830e-04
-5.466520e-04
-5.466540e-04
-5.431840e-04
-5.431860e-04
-5.466540e-04
-5.466500e-04
-5.431830e-04
-5.431840e-04
-5.466540e-04
-5.466510e-04
-5.431860e-04
-5.431860e-04
-5.466500e-04
-5.466470e-04
-5.466520e-04
-5.466540e-04
-5.270580e-04
-5.270570e-04
-5.466540e-04
-5.466500e-04
-5.270570e-04
-5.270610e-04
-5.466540e-04
-5.466510e-04
-5.270570e-04
-5.270600e-04
-5.466500e-04
-5.466470e-04
-5.270610e-04
-5.270650e-04
-5.270580e-04
-5.270570e-04
-7.668530e-04
-7.668550e-04
-5.270570e-04
-5.270610e-04
-7.668540e-04
-7.668490e-04
-5.270570e-04
-5.270600e-04
-7.668550e-04
-7.668500e-04
-5.270610e-04
-5.270650e-04
-7.668490e-04
-7.668470e-04
-7.668530e-04
-7.668550e-04
-8.769220e-05
-8.769190e-05
-7.668540e-04
-7.668490e-04
-8.769190e-05
-8.769620e-05
-7.668550e-04
-7.668500e-04
-8.769190e-05
-8.769520e-05
-7.668490e-04
-7.668470e-04
-8.769620e-05
-8.769700e-05
-8.769220e-05
-8.769190e-05
-1.154140e-03
-1.154140e-03
-8.769190e-05
-8.769620e-05
-1.154140e-03
-1.154140e-03
-8.769190e-05
-8.769520e-05
-1.154140e-03
-1.154140e-03
-8.769620e-05
-8.769700e-05
-1.154140e-03
-1.154140e-03
0.000000e+00
0.000000e+00
3.026630e-02
3.026630e-02
0.000000e+00
0.000000e+00
3.026630e-02
3.026630e-02
0.000000e+00
0.000000e+00
3.026630e-02
3.026630e-02
0.000000e+00
0.000000e+00
3.026630e-02
3.026630e-02
3.026630e-02
3.026630e-02
1.409440e-02
1.409440e-02
3.026630e-02
3.026630e-02
1.409440e-02
1.409440e-02
3.026630e-02
3.026630e-02
1.409440e-02
1.409440e-02
3.026630e-02
3.026630e-02
1.409440e-02
1.409440e-02
1.409440e-02