<?xml version="1.0"?>
<VTKFile type="UnstructuredGrid" version="0.1" byte_order="LittleEndian" compressor="vtkZLibDataCompressor">
<UnstructuredGrid>
<Piece NumberOfPoints="960" NumberOfCells="120">
<Points>
<DataArray type="Float32" NumberOfComponents="3" format="ascii">
-4.000000e+02 -6.000000e+03 -4.000000e+02
0.000000e+00 -6.000000e+03 -4.000000e+02
-4.000000e+02 -5.600000e+03 -4.000000e+02
-3.651690e-10 -5.600000e+03 -4.000000e+02
-4.000000e+02 -6.000000e+03 0.000000e+00
0.000000e+00 -6.000000e+03 0.000000e+00
-4.000000e+02 -5.600000e+03 -8.854580e-10
-1.254090e-09 -5.600000e+03 -7.039520e-10
0.000000e+00 -6.000000e+03 -4.000000e+02
4.000000e+02 -6.000000e+03 -4.000000e+02
-3.651690e-10 -5.600000e+03 -4.000000e+02
4.000000e+02 -5.600000e+03 -4.000000e+02
0.000000e+00 -6.000000e+03 0.000000e+00
4.000000e+02 -6.000000e+03 0.000000e+00
-1.254090e-09 -5.600000e+03 -7.039520e-10
4.000000e+02 -5.600000e+03 2.061990e-10
-4.000000e+02 -5.600000e+03 -4.000000e+02
-3.651690e-10 -5.600000e+03 -4.000000e+02
-4.000000e+02 -5.200000e+03 -4.000000e+02
9.594000e-10 -5.200000e+03 -4.000000e+02
-4.000000e+02 -5.600000e+03 -8.854580e-10
-1.254090e-09 -5.600000e+03 -7.039520e-10
-4.000000e+02 -5.200000e+03 3.852240e-10
2.047250e-09 -5.200000e+03 1.418210e-09
-3.651690e-10 -5.600000e+03 -4.000000e+02
4.000000e+02 -5.600000e+03 -4.000000e+02
9.594000e-10 -5.200000e+03 -4.000000e+02
4.000000e+02 -5.200000e+03 -4.000000e+02
-1.254090e-09 -5.600000e+03 -7.039520e-10
4.000000e+02 -5.600000e+03 2.061990e-10
2.047250e-09 -5.200000e+03 1.418210e-09
4.000000e+02 -5.200000e+03 2.157180e-09
-4.000000e+02 -5.200000e+03 -4.000000e+02
9.594000e-10 -5.200000e+03 -4.000000e+02
-4.000000e+02 -4.800000e+03 -4.000000e+02
3.214380e-10 -4.800000e+03 -4.000000e+02
-4.000000e+02 -5.200000e+03 3.852240e-10
2.047250e-09 -5.200000e+03 1.418210e-09
-4.000000e+02 -4.800000e+03 -9.773850e-10
7.839600e-10 -4.800000e+03 -3.034590e-10
9.594000e-10 -5.200000e+03 -4.000000e+02
4.000000e+02 -5.200000e+03 -4.000000e+02
3.214380e-10 -4.800000e+03 -4.000000e+02
4.000000e+02 -4.800000e+03 -4.000000e+02
2.047250e-09 -5.200000e+03 1.418210e-09
4.000000e+02 -5.200000e+03 2.157180e-09
7.839600e-10 -4.800000e+03 -3.034590e-10
4.000000e+02 -4.800000e+03 1.068130e-10
-4.000000e+02 -4.800000e+03 -4.000000e+02
3.214380e-10 -4.800000e+03 -4.000000e+02
-4.000000e+02 -4.400000e+03 -4.000000e+02
4.275190e-10 -4.400000e+03 -4.000000e+02
-4.000000e+02 -4.800000e+03 -9.773850e-10
7.839600e-10 -4.800000e+03 -3.034590e-10
-4.000000e+02 -4.400000e+03 1.621580e-09
1.891650e-09 -4.400000e+03 1.534900e-09
3.214380e-10 -4.800000e+03 -4.000000e+02
4.000000e+02 -4.800000e+03 -4.000000e+02
4.275190e-10 -4.400000e+03 -4.000000e+02
4.000000e+02 -4.400000e+03 -4.000000e+02
7.839600e-10 -4.800000e+03 -3.034590e-10
4.000000e+02 -4.800000e+03 1.068130e-10
1.891650e-09 -4.400000e+03 1.534900e-09
4.000000e+02 -4.400000e+03 1.698000e-09
-4.000000e+02 -4.400000e+03 -4.000000e+02
4.275190e-10 -4.400000e+03 -4.000000e+02
-4.000000e+02 -4.000000e+03 -4.000000e+02
5.190650e-09 -4.000000e+03 -4.000000e+02
-4.000000e+02 -4.400000e+03 1.621580e-09
1.891650e-09 -4.400000e+03 1.534900e-09
-4.000000e+02 -4.000000e+03 5.076620e-09
6.429970e-09 -4.000000e+03 4.443870e-09
4.275190e-10 -4.400000e+03 -4.000000e+02
4.000000e+02 -4.400000e+03 -4.000000e+02
5.190650e-09 -4.000000e+03 -4.000000e+02
4.000000e+02 -4.000000e+03 -4.000000e+02
1.891650e-09 -4.400000e+03 1.534900e-09
4.000000e+02 -4.400000e+03 1.698000e-09
6.429970e-09 -4.000000e+03 4.443870e-09
4.000000e+02 -4.000000e+03 2.830560e-09
-4.000000e+02 -4.000000e+03 -4.000000e+02
5.190650e-09 -4.000000e+03 -4.000000e+02
-4.000000e+02 -3.600000e+03 -4.000000e+02
-2.314550e-09 -3.600000e+03 -4.000000e+02
-4.000000e+02 -4.000000e+03 5.076620e-09
6.429970e-09 -4.000000e+03 4.443870e-09
-4.000000e+02 -3.600000e+03 -7.322760e-10
-2.793120e-09 -3.600000e+03 -2.349360e-09
5.190650e-09 -4.000000e+03 -4.000000e+02
4.000000e+02 -4.000000e+03 -4.000000e+02
-2.314550e-09 -3.600000e+03 -4.000000e+02
4.000000e+02 -3.600000e+03 -4.000000e+02
6.429970e-09 -4.000000e+03 4.443870e-09
4.000000e+02 -4.000000e+03 2.830560e-09
-2.793120e-09 -3.600000e+03 -2.349360e-09
4.000000e+02 -3.600000e+03 -4.535760e-10
-4.000000e+02 -3.600000e+03 -4.000000e+02
-2.314550e-09 -3.600000e+03 -4.000000e+02
-4.000000e+02 -3.200000e+03 -4.000000e+02
-6.677320e-10 -3.200000e+03 -4.000000e+02
-4.000000e+02 -3.600000e+03 -7.322760e-10
-2.793120e-09 -3.600000e+03 -2.349360e-09
-4.000000e+02 -3.200000e+03 2.915060e-09
2.575970e-09 -3.200000e+03 6.639420e-09
-2.314550e-09 -3.600000e+03 -4.000000e+02
4.000000e+02 -3.600000e+03 -4.000000e+02
-6.677320e-10 -3.200000e+03 -4.000000e+02
4.000000e+02 -3.200000e+03 -4.000000e+02
-2.793120e-09 -3.600000e+03 -2.349360e-09
4.000000e+02 -3.600000e+03 -4.535760e-10
2.575970e-09 -3.200000e+03 6.639420e-09
4.000000e+02 -3.200000e+03 3.767200e-09
-4.000000e+02 -3.200000e+03 -4.000000e+02
-6.677320e-10 -3.200000e+03 -4.000000e+02
-4.000000e+02 -2.800010e+03 -4.000000e+02
7.125470e-09 -2.800010e+03 -4.000000e+02
-4.000000e+02 -3.200000e+03 2.915060e-09
2.575970e-09 -3.200000e+03 6.639420e-09
-4.000000e+02 -2.800010e+03 9.594900e-09
-2.173510e-10 -2.800010e+03 1.776860e-09
-6.677320e-10 -3.200000e+03 -4.000000e+02
4.000000e+02 -3.200000e+03 -4.000000e+02
7.125470e-09 -2.800010e+03 -4.000000e+02
4.000000e+02 -2.800010e+03 -4.000000e+02
2.575970e-09 -3.200000e+03 6.639420e-09
4.000000e+02 -3.200000e+03 3.767200e-09
-2.173510e-10 -2.800010e+03 1.776860e-09
4.000000e+02 -2.800010e+03 2.729540e-09
-4.000000e+02 -2.800010e+03 -4.000000e+02
7.125470e-09 -2.800010e+03 -4.000000e+02
-4.000000e+02 -2.400010e+03 -4.000000e+02
-8.503880e-09 -2.400010e+03 -4.000000e+02
-4.000000e+02 -2.800010e+03 9.594900e-09
-2.173510e-10 -2.800010e+03 1.776860e-09
-4.000000e+02 -2.400010e+03 -1.916620e-09
-2.161280e-09 -2.400010e+03 4.888770e-09
7.125470e-09 -2.800010e+03 -4.000000e+02
4.000000e+02 -2.800010e+03 -4.000000e+02
-8.503880e-09 -2.400010e+03 -4.000000e+02
4.000000e+02 -2.400010e+03 -4.000000e+02
-2.173510e-10 -2.800010e+03 1.776860e-09
4.000000e+02 -2.800010e+03 2.729540e-09
-2.161280e-09 -2.400010e+03 4.888770e-09
4.000000e+02 -2.400010e+03 9.658310e-09
-4.000000e+02 -2.400010e+03 -4.000000e+02
-8.503880e-09 -2.400010e+03 -4.000000e+02
-4.000000e+02 -2.000010e+03 -4.000000e+02
-5.276860e-09 -2.000010e+03 -4.000000e+02
-4.000000e+02 -2.400010e+03 -1.916620e-09
-2.161280e-09 -2.400010e+03 4.888770e-09
-4.000000e+02 -2.000010e+03 -7.827810e-09
-3.478740e-10 -2.000010e+03 -1.526690e-09
-8.503880e-09 -2.400010e+03 -4.000000e+02
4.000000e+02 -2.400010e+03 -4.000000e+02
-5.276860e-09 -2.000010e+03 -4.000000e+02
4.000000e+02 -2.000010e+03 -4.000000e+02
-2.161280e-09 -2.400010e+03 4.888770e-09
4.000000e+02 -2.400010e+03 9.658310e-09
-3.478740e-10 -2.000010e+03 -1.526690e-09
4.000000e+02 -2.000010e+03 -4.450540e-09
-4.000000e+02 -2.000010e+03 -4.000000e+02
-5.276860e-09 -2.000010e+03 -4.000000e+02
-4.000000e+02 -1.600010e+03 -4.000000e+02
2.374640e-08 -1.600010e+03 -4.000000e+02
-4.000000e+02 -2.000010e+03 -7.827810e-09
-3.478740e-10 -2.000010e+03 -1.526690e-09
-4.000000e+02 -1.600010e+03 1.352590e-08
-3.526720e-10 -1.600010e+03 -1.141460e-08
-5.276860e-09 -2.000010e+03 -4.000000e+02
4.000000e+02 -2.000010e+03 -4.000000e+02
2.374640e-08 -1.600010e+03 -4.000000e+02
4.000000e+02 -1.600010e+03 -4.000000e+02
-3.478740e-10 -2.000010e+03 -1.526690e-09
4.000000e+02 -2.000010e+03 -4.450540e-09
-3.526720e-10 -1.600010e+03 -1.141460e-08
4.000000e+02 -1.600010e+03 -1.329810e-08
-4.000000e+02 -1.600010e+03 -4.000000e+02
2.374640e-08 -1.600010e+03 -4.000000e+02
-4.000000e+02 -1.200020e+03 -4.000000e+02
-9.321720e-10 -1.200020e+03 -4.000000e+02
-4.000000e+02 -1.600010e+03 1.352590e-08
-3.526720e-10 -1.600010e+03 -1.141460e-08
-4.000000e+02 -1.200020e+03 2.278370e-08
2.265020e-08 -1.200020e+03 4.334200e-08
2.374640e-08 -1.600010e+03 -4.000000e+02
4.000000e+02 -1.600010e+03 -4.000000e+02
-9.321720e-10 -1.200020e+03 -4.000000e+02
4.000000e+02 -1.200020e+03 -4.000000e+02
-3.526720e-10 -1.600010e+03 -1.141460e-08
4.000000e+02 -1.600010e+03 -1.329810e-08
2.265020e-08 -1.200020e+03 4.334200e-08
4.000000e+02 -1.200020e+03 3.706430e-08
-4.000000e+02 -1.200020e+03 -4.000000e+02
-9.321720e-10 -1.200020e+03 -4.000000e+02
-4.000000e+02 -8.000250e+02 -4.000000e+02
-2.007250e-08 -8.000250e+02 -4.000000e+02
-4.000000e+02 -1.200020e+03 2.278370e-08
2.265020e-08 -1.200020e+03 4.334200e-08
-4.000000e+02 -8.000250e+02 -1.955250e-08
-2.328200e-08 -8.000250e+02 -1.522650e-08
-9.321720e-10 -1.200020e+03 -4.000000e+02
4.000000e+02 -1.200020e+03 -4.000000e+02
-2.007250e-08 -8.000250e+02 -4.000000e+02
4.000000e+02 -8.000250e+02 -4.000000e+02
2.265020e-08 -1.200020e+03 4.334200e-08
4.000000e+02 -1.200020e+03 3.706430e-08
-2.328200e-08 -8.000250e+02 -1.522650e-08
4.000000e+02 -8.000250e+02 -2.851770e-09
-4.000000e+02 -8.000250e+02 -4.000000e+02
-2.007250e-08 -8.000250e+02 -4.000000e+02
-4.000000e+02 -4.000400e+02 -4.000000e+02
-1.805490e-08 -4.000400e+02 -4.000000e+02
-4.000000e+02 -8.000250e+02 -1.955250e-08
-2.328200e-08 -8.000250e+02 -1.522650e-08
-4.000000e+02 -4.000400e+02 -2.499950e-08
2.931990e-09 -4.000400e+02 -2.624510e-08
-2.007250e-08 -8.000250e+02 -4.000000e+02
4.000000e+02 -8.000250e+02 -4.000000e+02
-1.805490e-08 -4.000400e+02 -4.000000e+02
4.000000e+02 -4.000400e+02 -4.000000e+02
-2.328200e-08 -8.000250e+02 -1.522650e-08
4.000000e+02 -8.000250e+02 -2.851770e-09
2.931990e-09 -4.000400e+02 -2.624510e-08
4.000000e+02 -4.000400e+02 -3.247970e-08
-4.000000e+02 -4.000400e+02 -4.000000e+02
-1.805490e-08 -4.000400e+02 -4.000000e+02
-4.000000e+02 -6.279680e-02 -4.000000e+02
5.192680e-08 -6.279670e-02 -4.000000e+02
-4.000000e+02 -4.000400e+02 -2.499950e-08
2.931990e-09 -4.000400e+02 -2.624510e-08
-4.000000e+02 -6.279670e-02 3.419480e-08
-2.688290e-08 -6.279670e-02 -2.987170e-09
-1.805490e-08 -4.000400e+02 -4.000000e+02
4.000000e+02 -4.000400e+02 -4.000000e+02
5.192680e-08 -6.279670e-02 -4.000000e+02
[...]
<PointData>
<DataArray type="Float32" Name="V1" format="ascii">
0.000000e+00
0.000000e+00
2.136730e-09
1.701630e-09
0.000000e+00
0.000000e+00
1.256900e-09
1.129170e-10
0.000000e+00
0.000000e+00
1.701630e-09
2.875160e-09
0.000000e+00
0.000000e+00
1.129170e-10
-1.429720e-09
2.136730e-09
1.701630e-09
2.859450e-09
1.856390e-09
1.256900e-09
1.129170e-10
-8.169850e-10
-4.532630e-11
1.701630e-09
2.875160e-09
1.856390e-09
1.571130e-10
1.129170e-10
-1.429720e-09
-4.532630e-11
7.855630e-11
2.859450e-09
1.856390e-09
-1.492570e-09
-2.113870e-09
-8.169850e-10
-4.532630e-11
-5.184710e-10
-9.743720e-10
1.856390e-09
1.571130e-10
-2.113870e-09
-2.435240e-09
-4.532630e-11
7.855630e-11
-9.743720e-10
-1.696820e-09
-1.492570e-09
-2.113870e-09
3.330790e-09
2.836900e-09
-5.184710e-10
-9.743720e-10
1.633970e-09
4.049570e-09
-2.113870e-09
-2.435240e-09
2.836900e-09
4.430570e-09
-9.743720e-10
-1.696820e-09
4.049570e-09
4.681950e-09
3.330790e-09
2.836900e-09
-4.713380e-11
-1.785460e-09
1.633970e-09
4.049570e-09
-1.775370e-09
-1.833080e-09
2.836900e-09
4.430570e-09
-1.785460e-09
-1.539700e-09
4.049570e-09
4.681950e-09
-1.833080e-09
-3.629300e-09
-4.713380e-11
-1.785460e-09
-7.729940e-09
-6.022210e-09
-1.775370e-09
-1.833080e-09
-4.854780e-09
-2.390380e-09
-1.785460e-09
-1.539700e-09
-6.022210e-09
-4.556260e-09
-1.833080e-09
-3.629300e-09
-2.390380e-09
3.283650e-09
-7.729940e-09
-6.022210e-09
7.368580e-09
8.838190e-09
-4.854780e-09
-2.390380e-09
1.252190e-08
6.068640e-09
-6.022210e-09
-4.556260e-09
8.838190e-09
9.740980e-09
-2.390380e-09
3.283650e-09
6.068640e-09
-3.315070e-09
7.368580e-09
8.838190e-09
-3.016560e-09
-2.751780e-09
1.252190e-08
6.068640e-09
-1.051080e-08
-5.977670e-09
8.838190e-09
9.740980e-09
-2.751780e-09
-2.121020e-09
6.068640e-09
-3.315070e-09
-5.977670e-09
-2.356690e-10
-3.016560e-09
-2.751780e-09
-1.916770e-08
-1.587360e-08
-1.051080e-08
-5.977670e-09
-3.770700e-10
4.739190e-09
-2.751780e-09
-2.121020e-09
-1.587360e-08
-1.002380e-08
-5.977670e-09
-2.356690e-10
4.739190e-09
8.436940e-09
-1.916770e-08
-1.587360e-08
3.684290e-08
2.398490e-08
-3.770700e-10
4.739190e-09
3.126540e-09
-1.014030e-08
-1.587360e-08
-1.002380e-08
2.398490e-08
1.040090e-08
4.739190e-09
8.436940e-09
-1.014030e-08
-2.301700e-08
3.684290e-08
2.398490e-08
-1.299320e-08
-3.210040e-09
3.126540e-09
-1.014030e-08
6.017410e-09
1.700730e-08
2.398490e-08
1.040090e-08
-3.210040e-09
5.970280e-09
-1.014030e-08
-2.301700e-08
1.700730e-08
2.879870e-08
-1.299320e-08
-3.210040e-09
-2.835880e-08
-2.805380e-08
6.017410e-09
1.700730e-08
8.845440e-09
-2.604900e-09
-3.210040e-09
5.970280e-09
-2.805380e-08
-2.788750e-08
1.700730e-08
2.879870e-08
-2.604900e-09
-1.646540e-08
-2.835880e-08
-2.805380e-08
1.084080e-09
6.899000e-09
8.845440e-09
-2.604900e-09
-6.224800e-08
-2.693190e-08
-2.805380e-08
-2.788750e-08
6.899000e-09
1.159490e-08
-2.604900e-09
-1.646540e-08
-2.693190e-08
7.211470e-09
1.084080e-09
6.899000e-09
6.190230e-09
9.895900e-09
-6.224800e-08
-2.693190e-08
7.202040e-08
3.513420e-08
6.899000e-09
1.159490e-08
9.895900e-09
1.387300e-08
-2.693190e-08
7.211470e-09
3.513420e-08
-1.806790e-09
6.190230e-09
9.895900e-09
1.671830e-07
6.795510e-08
7.202040e-08
3.513420e-08
-8.614480e-08
-8.994680e-08
9.895900e-09
1.387300e-08
6.795510e-08
-2.996140e-08
3.513420e-08
-1.806790e-09
-8.994680e-08
-9.442460e-08
1.671830e-07
6.795510e-08
-4.121380e-07
-2.047060e-07
-8.614480e-08
-8.994680e-08
2.196900e-07
2.461620e-07
6.795510e-08
-2.996140e-08
-2.047060e-07
4.839070e-09
-8.994680e-08
-9.442460e-08
2.461620e-07
2.720560e-07
-4.121380e-07
-2.047060e-07
6.645550e-07
4.636140e-07
2.196900e-07
2.461620e-07
-1.583070e-07
-1.431520e-07
-2.047060e-07
4.839070e-09
4.636140e-07
2.634150e-07
2.461620e-07
2.720560e-07
-1.431520e-07
-1.261610e-07
6.645550e-07
4.636140e-07
2.656460e-07
1.353760e-07
-1.583070e-07
-1.431520e-07
-2.120390e-07
-4.284900e-07
4.636140e-07
2.634150e-07
1.353760e-07
2.152440e-09
-1.431520e-07
-1.261610e-07
-4.284900e-07
-6.442870e-07
2.656460e-07
1.353760e-07
-8.891940e-07
-8.641020e-07
-2.120390e-07
-4.284900e-07
2.152440e-08
5.419450e-07
1.353760e-07
2.152440e-09
-8.641020e-07
-8.357130e-07
-4.284900e-07
-6.442870e-07
5.419450e-07
1.059580e-06
-8.891940e-07
-8.641020e-07
1.921330e-07
2.552650e-07
2.152440e-08
5.419450e-07
1.173630e-08
5.155670e-08
-8.641020e-07
-8.357130e-07
2.552650e-07
3.144450e-07
5.419450e-07
1.059580e-06
5.155670e-08
9.395330e-08
1.921330e-07
2.552650e-07
-5.778760e-07
-1.538250e-07
1.173630e-08
5.155670e-08
-3.216250e-07
4.754420e-09
2.552650e-07
3.144450e-07
-1.538250e-07
2.717730e-07
5.155670e-08
9.395330e-08
4.754420e-09
3.308480e-07
-5.778760e-07
-1.538250e-07
7.527260e-08
-2.904360e-07
-3.216250e-07
4.754420e-09
1.567670e-07
-1.402950e-07
-1.538250e-07
2.717730e-07
-2.904360e-07
-6.567460e-07
4.754420e-09
3.308480e-07
-1.402950e-07
-4.378410e-07
7.527260e-08
-2.904360e-07
1.464520e-06
4.622680e-07
1.567670e-07
-1.402950e-07
1.067120e-06
-2.180150e-08
-2.904360e-07
-6.567460e-07
4.622680e-07
-5.220220e-07
-1.402950e-07
-4.378410e-07
-2.180150e-08
-1.111320e-06
1.464520e-06
4.622680e-07
-4.072990e-07
9.439550e-08
1.067120e-06
-2.180150e-08
-1.152580e-07
1.607820e-07
4.622680e-07
-5.220220e-07
9.439550e-08
5.913870e-07
-2.180150e-08
-1.111320e-06
1.607820e-07
4.400720e-07
-4.072990e-07
9.439550e-08
-1.396040e-06
-4.537610e-07
-1.152580e-07
1.607820e-07
-9.438070e-07
4.415560e-09
9.439550e-08
5.913870e-07
-4.537610e-07
4.921550e-07
1.607820e-07
4.400720e-07
4.415560e-09
9.533750e-07
-1.396040e-06
-4.537610e-07
6.289690e-07
2.581220e-07
-9.438070e-07
4.415560e-09
2.302960e-07
3.819020e-08
-4.537610e-07
4.921550e-07
2.581220e-07
-1.150540e-07
4.415560e-09
9.533750e-07
3.819020e-08
-1.544570e-07
6.289690e-07
2.581220e-07
2.804460e-08
-5.934750e-09
2.302960e-07
3.819020e-08
-6.735410e-08
3.336670e-08
2.581220e-07
-1.150540e-07
-5.934750e-09
-3.945100e-08
3.819020e-08
-1.544570e-07
3.336670e-08
1.342210e-07
2.804460e-08
-5.934750e-09
-3.237300e-07
-1.433330e-07
-6.735410e-08
3.336670e-08
-9.582290e-08
-2.344380e-08
-5.934750e-09
-3.945100e-08
-1.433330e-07
3.711000e-08
3.336670e-08
1.342210e-07
-2.344380e-08
4.890910e-08
-3.237300e-07
-1.433330e-07
1.127280e-07
4.006320e-08
-9.582290e-08
-2.344380e-08
7.293160e-08
-9.761660e-09
-1.433330e-07
3.711000e-08
4.006320e-08
-3.255370e-08
-2.344380e-08
4.890910e-08
-9.761660e-09
-9.250790e-08
1.127280e-07
4.006320e-08
-8.969560e-08
-4.443630e-08
7.293160e-08
-9.761660e-09
-5.858730e-08
-8.435570e-09
4.006320e-08
-3.255370e-08
-4.443630e-08
9.426750e-10
-9.761660e-09
-9.250790e-08
-8.435570e-09
4.180760e-08
0.000000e+00
0.000000e+00
1.256900e-09
1.129170e-10
0.000000e+00
0.000000e+00
8.012740e-10
1.468790e-09
0.000000e+00
0.000000e+00
1.129170e-10
-1.429720e-09
0.000000e+00
0.000000e+00
1.468790e-09
2.309550e-09
1.256900e-09
1.129170e-10
-8.169850e-10
-4.532630e-11
8.012740e-10
1.468790e-09
1.555410e-09
1.261740e-09
1.129170e-10
-1.429720e-09
-4.532630e-11
7.855630e-11
1.468790e-09
2.309550e-09
1.261740e-09
9.426750e-10
-8.169850e-10
-4.532630e-11
-5.184710e-10
-9.743720e-10
1.555410e-09
1.261740e-09
-3.707860e-09
-4.093990e-09
-4.532630e-11
7.855630e-11
-9.743720e-10
-1.696820e-09
1.261740e-09
9.426750e-10
-4.093990e-09
-1.288320e-09
-5.184710e-10
-9.743720e-10
1.633970e-09
4.049570e-09
-3.707860e-09
-4.093990e-09
-7.855630e-11
1.127970e-09
-9.743720e-10
-1.696820e-09
4.049570e-09
4.681950e-09
-4.093990e-09
-1.288320e-09
1.127970e-09
2.686620e-09
1.633970e-09
4.049570e-09
-1.775370e-09
-1.833080e-09
-7.855630e-11
1.127970e-09
1.791080e-09
-9.711590e-10
4.049570e-09
4.681950e-09
-1.833080e-09
-3.629300e-09
1.127970e-09
2.686620e-09
-9.711590e-10
-2.403820e-09
-1.775370e-09
-1.833080e-09
-4.854780e-09
-2.390380e-09
1.791080e-09
-9.711590e-10
-4.571980e-09
-1.239660e-09
-1.833080e-09
-3.629300e-09
-2.390380e-09
3.283650e-09
-9.711590e-10
-2.403820e-09
-1.239660e-09
1.036940e-09
-4.854780e-09
-2.390380e-09
1.252190e-08
6.068640e-09
-4.571980e-09
-1.239660e-09
6.143100e-09
1.404810e-09
-2.390380e-09
3.283650e-09
6.068640e-09
-3.315070e-09
-1.239660e-09
1.036940e-09
1.404810e-09
-1.508280e-09
1.252190e-08
6.068640e-09
-1.051080e-08
-5.977670e-09
6.143100e-09
1.404810e-09
8.326970e-09
5.679500e-09
6.068640e-09
-3.315070e-09
-5.977670e-09
-2.356690e-10
1.404810e-09
-1.508280e-09
5.679500e-09
-1.602550e-09
-1.051080e-08
-5.977670e-09
-3.770700e-10
4.739190e-09
8.326970e-09
5.679500e-09
-1.759660e-08
-2.693120e-09
-5.977670e-09
-2.356690e-10
4.739190e-09
8.436940e-09
5.679500e-09
-1.602550e-09
-2.693120e-09
1.113930e-08
-3.770700e-10
4.739190e-09
3.126540e-09
-1.014030e-08
-1.759660e-08
-2.693120e-09
1.437580e-08
-7.041850e-09
4.739190e-09
8.436940e-09
-1.014030e-08
-2.301700e-08
-2.693120e-09
1.113930e-08
-7.041850e-09
-2.782460e-08
3.126540e-09
-1.014030e-08
6.017410e-09
1.700730e-08
1.437580e-08
-7.041850e-09
4.964760e-09
1.069070e-08
-1.014030e-08
-2.301700e-08
1.700730e-08
2.879870e-08
-7.041850e-09
-2.782460e-08
1.069070e-08
1.699960e-08
6.017410e-09
1.700730e-08
8.845440e-09
-2.604900e-09
4.964760e-09
1.069070e-08
-1.442290e-08
4.395190e-09
1.700730e-08
2.879870e-08
-2.604900e-09
-1.646540e-08
1.069070e-08
1.699960e-08
4.395190e-09
1.904200e-08
8.845440e-09
-2.604900e-09
-6.224800e-08
-2.693190e-08
-1.442290e-08
4.395190e-09
6.315920e-09
-1.844310e-08
-2.604900e-09
-1.646540e-08
-2.693190e-08
7.211470e-09
4.395190e-09
1.904200e-08
-1.844310e-08
-4.300170e-08
-6.224800e-08
-2.693190e-08
7.202040e-08
3.513420e-08
6.315920e-09
-1.844310e-08
-2.813890e-08
-3.383760e-09
-2.693190e-08
7.211470e-09
3.513420e-08
-1.806790e-09
-1.844310e-08
-4.300170e-08
-3.383760e-09
1.930910e-08
7.202040e-08
3.513420e-08
-8.614480e-08
-8.994680e-08
-2.813890e-08
-3.383760e-09
6.146240e-08
9.949520e-09
3.513420e-08
-1.806790e-09
-8.994680e-08
-9.442460e-08
-3.383760e-09
1.930910e-08
9.949520e-09
-3.924670e-08
-8.614480e-08
-8.994680e-08
2.196900e-07
2.461620e-07
6.146240e-08
9.949520e-09
-7.297880e-08
9.205330e-08
-8.994680e-08
-9.442460e-08
2.461620e-07
2.720560e-07
9.949520e-09
-3.924670e-08
9.205330e-08
2.578690e-07
2.196900e-07
2.461620e-07
-1.583070e-07
-1.431520e-07
-7.297880e-08
9.205330e-08
1.288320e-07
-1.374560e-07
2.461620e-07
2.720560e-07
-1.431520e-07
-1.261610e-07
9.205330e-08
2.578690e-07
-1.374560e-07
-4.039520e-07
-1.583070e-07
-1.431520e-07
-2.120390e-07
-4.284900e-07
1.288320e-07
-1.374560e-07
-1.043540e-07
1.318320e-08
-1.431520e-07
-1.261610e-07
-4.284900e-07
-6.442870e-07
-1.374560e-07
-4.039520e-07
1.318320e-08
1.235850e-07
-2.120390e-07
-4.284900e-07
2.152440e-08
5.419450e-07
-1.043540e-07
1.318320e-08
-7.487980e-08
2.318550e-07
-4.284900e-07
-6.442870e-07
5.419450e-07
1.059580e-06
1.318320e-08
1.235850e-07
2.318550e-07
5.386130e-07
2.152440e-08
5.419450e-07
1.173630e-08
5.155670e-08
-7.487980e-08
2.318550e-07
-2.610430e-07
-3.588840e-07
5.419450e-07
1.059580e-06
5.155670e-08
9.395330e-08
2.318550e-07
5.386130e-07
-3.588840e-07
-4.369770e-07
1.173630e-08
5.155670e-08
-3.216250e-07
4.754420e-09
-2.610430e-07
-3.588840e-07
-2.949000e-08
1.460860e-07
5.155670e-08
9.395330e-08
4.754420e-09
3.308480e-07
-3.588840e-07
-4.369770e-07
1.460860e-07
3.166600e-07
-3.216250e-07
4.754420e-09
1.567670e-07
-1.402950e-07
-2.949000e-08
1.460860e-07
6.970460e-07
2.780140e-08
4.754420e-09
3.308480e-07
-1.402950e-07
-4.378410e-07
1.460860e-07
3.166600e-07
2.780140e-08
-6.420400e-07
1.567670e-07
-1.402950e-07
1.067120e-06
-2.180150e-08
6.970460e-07
2.780140e-08
4.163480e-07
-6.061250e-07
-1.402950e-07
-4.378410e-07
-2.180150e-08
-1.111320e-06
2.780140e-08
-6.420400e-07
-6.061250e-07
-1.640300e-06
1.067120e-06
-2.180150e-08
-1.152580e-07
1.607820e-07
4.163480e-07
-6.061250e-07
-6.483720e-07
1.779110e-07
-2.180150e-08
-1.111320e-06
1.607820e-07
4.400720e-07
-6.061250e-07
-1.640300e-06
1.779110e-07
1.006970e-06
-1.152580e-07
1.607820e-07
-9.438070e-07
4.415560e-09
-6.483720e-07
1.779110e-07
-4.628380e-07
3.207000e-07
1.607820e-07
4.400720e-07
4.415560e-09
9.533750e-07
1.779110e-07
1.006970e-06
3.207000e-07
1.107410e-06
-9.438070e-07
4.415560e-09
2.302960e-07
3.819020e-08
-4.628380e-07
3.207000e-07
1.337030e-07
-1.871290e-07
4.415560e-09
9.533750e-07
3.819020e-08
-1.544570e-07
3.207000e-07
1.107410e-06
-1.871290e-07
-5.079610e-07
2.302960e-07
3.819020e-08
-6.735410e-08
3.336670e-08
1.337030e-07
-1.871290e-07
-1.245900e-07
1.958540e-07
3.819020e-08
-1.544570e-07
3.336670e-08
1.342210e-07
-1.871290e-07
-5.079610e-07
1.958540e-07
5.164600e-07
-6.735410e-08
3.336670e-08
-9.582290e-08
-2.344380e-08
-1.245900e-07
1.958540e-07
-1.641830e-08
6.177290e-08
3.336670e-08
1.342210e-07
-2.344380e-08
4.890910e-08
1.958540e-07
5.164600e-07
6.177290e-08
1.401290e-07
-9.582290e-08
-2.344380e-08
7.293160e-08
-9.761660e-09
-1.641830e-08
6.177290e-08
5.107730e-08
-6.860180e-08
-2.344380e-08
4.890910e-08
-9.761660e-09
-9.250790e-08
6.177290e-08
1.401290e-07
-6.860180e-08
-1.882520e-07
7.293160e-08
-9.761660e-09
-5.858730e-08
-8.435570e-09
5.107730e-08
-6.860180e-08
-1.877490e-08
2.869530e-08
-9.761660e-09
-9.250790e-08
-8.435570e-09
4.180760e-08
-6.860180e-08
-1.882520e-07
2.869530e-08
7.618390e-08
</DataArray>
<DataArray type="Float32" Name="V2" format="ascii">
0.000000e+00
0.000000e+00
1.603100e-04
1.603140e-04
0.000000e+00
0.000000e+00
1.603130e-04
1.603160e-04
0.000000e+00
0.000000e+00
1.603140e-04
1.603150e-04
0.000000e+00
0.000000e+00
1.603160e-04
1.603170e-04
1.603100e-04
1.603140e-04
1.002090e-04
1.002100e-04
1.603130e-04
1.603160e-04
1.002090e-04
1.002030e-04
1.603140e-04
1.603150e-04
1.002100e-04
1.002020e-04
1.603160e-04
1.603170e-04
1.002030e-04
1.002060e-04
1.002090e-04
1.002100e-04
-5.213200e-05
-5.212340e-05
1.002090e-04
1.002030e-04
-5.211740e-05
-5.212540e-05
1.002100e-04
1.002020e-04
-5.212340e-05
-5.211360e-05
1.002030e-04
1.002060e-04
-5.212540e-05
-5.212370e-05
-5.213200e-05
-5.212340e-05
-7.626340e-04
-7.626290e-04
-5.211740e-05
-5.212540e-05
-7.626310e-04
-7.626340e-04
-5.212340e-05
-5.211360e-05
-7.626290e-04
-7.626460e-04
-5.212540e-05
-5.212370e-05
-7.626340e-04
-7.626300e-04
-7.626340e-04
-7.626290e-04
1.244620e-04
1.244550e-04
-7.626310e-04
-7.626340e-04
1.244480e-04
1.244420e-04
-7.626290e-04
-7.626460e-04
1.244550e-04
1.244490e-04
-7.626340e-04
-7.626300e-04
1.244420e-04
1.244280e-04
1.244620e-04
1.244550e-04
-4.883250e-04
-4.882910e-04
1.244480e-04
1.244420e-04
-4.882960e-04
-4.882820e-04
1.244550e-04
1.244490e-04
-4.882910e-04
-4.882790e-04
1.244420e-04
1.244280e-04
-4.882820e-04
-4.882810e-04
-4.883250e-04
-4.882910e-04
-1.331710e-04
-1.332000e-04
-4.882960e-04
-4.882820e-04
-1.332020e-04
-1.331850e-04
-4.882910e-04
-4.882790e-04
-1.332000e-04
-1.332080e-04
-4.882820e-04
-4.882810e-04
-1.331850e-04
-1.331710e-04
-1.331710e-04
-1.332000e-04
4.820550e-04
4.820300e-04
-1.332020e-04
-1.331850e-04
4.820220e-04
4.819970e-04
-1.332000e-04
-1.332080e-04
4.820300e-04
4.820330e-04
-1.331850e-04
-1.331710e-04
4.819970e-04
4.819890e-04
4.820550e-04
4.820300e-04
7.550460e-04
7.551280e-04
4.820220e-04
4.819970e-04
7.551340e-04
7.551200e-04
4.820300e-04
4.820330e-04
7.551280e-04
7.551170e-04
4.819970e-04
4.819890e-04
7.551200e-04
7.550930e-04
7.550460e-04
7.551280e-04
2.469360e-04
2.468640e-04
7.551340e-04
7.551200e-04
2.468570e-04
2.469160e-04
7.551280e-04
7.551170e-04
2.468640e-04
2.468680e-04
7.551200e-04
7.550930e-04
2.469160e-04
2.469440e-04
2.469360e-04
2.468640e-04
3.028830e-03
3.028820e-03
2.468570e-04
2.469160e-04
3.028840e-03
3.028770e-03
2.468640e-04
2.468680e-04
3.028820e-03
3.028840e-03
2.469160e-04
2.469440e-04
3.028770e-03
3.028810e-03
3.028830e-03
3.028820e-03
4.287140e-03
4.287180e-03
3.028840e-03
3.028770e-03
4.287170e-03
4.287190e-03
3.028820e-03
3.028840e-03
4.287180e-03
4.287170e-03
3.028770e-03
3.028810e-03
4.287190e-03
4.287110e-03
4.287140e-03
4.287180e-03
5.380770e-03
5.380790e-03
4.287170e-03
4.287190e-03
5.380750e-03
5.380750e-03
4.287180e-03
4.287170e-03
5.380790e-03
5.380780e-03
4.287190e-03
4.287110e-03
5.380750e-03
5.380860e-03
5.380770e-03
5.380790e-03
1.387620e-02
1.387630e-02
5.380750e-03
5.380750e-03
1.387640e-02
1.387640e-02
5.380790e-03
5.380780e-03
1.387630e-02
1.387630e-02
5.380750e-03
5.380860e-03
1.387640e-02
1.387630e-02
1.387620e-02
1.387630e-02
2.096490e-02
2.096480e-02
1.387640e-02
1.387640e-02
2.096480e-02
2.096480e-02
1.387630e-02
1.387630e-02
2.096480e-02
2.096510e-02
1.387640e-02
1.387630e-02
2.096480e-02
2.096500e-02
2.096490e-02
2.096480e-02
3.168080e-02
3.168080e-02
2.096480e-02
2.096480e-02
3.168080e-02
3.168090e-02
2.096480e-02
2.096510e-02
3.168080e-02
3.168060e-02
2.096480e-02
2.096500e-02
3.168090e-02
3.168080e-02
3.168080e-02
3.168080e-02
4.348980e-02
4.348990e-02
3.168080e-02
3.168090e-02
4.349020e-02
4.348900e-02
3.168080e-02
3.168060e-02
4.348990e-02
4.348940e-02
3.168090e-02
3.168080e-02
4.348900e-02
4.348860e-02
4.348980e-02
4.348990e-02
4.788590e-02
4.788410e-02
4.349020e-02
4.348900e-02
4.788340e-02
4.788440e-02
4.348990e-02
4.348940e-02
4.788410e-02
4.788480e-02
4.348900e-02
4.348860e-02
4.788440e-02
4.788440e-02
4.788590e-02
4.788410e-02
4.431550e-02
4.431670e-02
4.788340e-02
4.788440e-02
4.431710e-02
4.431680e-02
4.788410e-02
4.788480e-02
4.431670e-02
4.431530e-02
4.788440e-02
4.788440e-02
4.431680e-02
4.431870e-02
4.431550e-02
4.431670e-02
1.926810e-02
1.926630e-02
4.431710e-02
4.431680e-02
1.926570e-02
1.926840e-02
4.431670e-02
4.431530e-02
1.926630e-02
1.926730e-02
4.431680e-02
4.431870e-02
1.926840e-02
1.926770e-02
1.926810e-02
1.926630e-02
-1.067060e-02
-1.067060e-02
1.926570e-02
1.926840e-02
-1.067060e-02
-1.067230e-02
1.926630e-02
1.926730e-02
-1.067060e-02
-1.067220e-02
1.926840e-02
1.926770e-02
-1.067230e-02
-1.067030e-02
-1.067060e-02
-1.067060e-02
-2.651430e-02
-2.650930e-02
-1.067060e-02
-1.067230e-02
-2.651050e-02
-2.650610e-02
-1.067060e-02
-1.067220e-02
-2.650930e-02
-2.651080e-02
-1.067230e-02
-1.067030e-02
-2.650610e-02
-2.650980e-02
-2.651430e-02
-2.650930e-02
-1.129540e-02
-1.128480e-02
-2.651050e-02
-2.650610e-02
-1.128400e-02
-1.128380e-02
-2.650930e-02
-2.651080e-02
-1.128480e-02
-1.128410e-02
-2.650610e-02
-2.650980e-02
-1.128380e-02
-1.128400e-02
-1.129540e-02
-1.128480e-02
7.423250e-03
7.417090e-03
-1.128400e-02
-1.128380e-02
7.418120e-03
7.412840e-03
-1.128480e-02
-1.128410e-02
7.417090e-03
7.418180e-03
-1.128380e-02
-1.128400e-02
7.412840e-03
7.417070e-03
7.423250e-03
7.417090e-03
1.209550e-02
1.210780e-02
7.418120e-03
7.412840e-03
1.210770e-02
1.211990e-02
7.417090e-03
7.418180e-03
1.210780e-02
1.210610e-02
7.412840e-03
7.417070e-03
1.211990e-02
1.210880e-02
1.209550e-02
1.210780e-02
-2.005430e-03
-2.017210e-03
1.210770e-02
1.211990e-02
-2.017520e-03
-2.025530e-03
1.210780e-02
1.210610e-02
-2.017210e-03
-2.015470e-03
1.211990e-02
1.210880e-02
-2.025530e-03
-2.017750e-03
-2.005430e-03
-2.017210e-03
-2.768110e-03
-2.765280e-03
-2.017520e-03
-2.025530e-03
-2.765630e-03
-2.765820e-03
-2.017210e-03
-2.015470e-03
-2.765280e-03
-2.764810e-03
-2.025530e-03
-2.017750e-03
-2.765820e-03
-2.765500e-03
-2.768110e-03
-2.765280e-03
1.682080e-03
1.680550e-03
-2.765630e-03
-2.765820e-03
1.680400e-03
1.679820e-03
-2.765280e-03
-2.764810e-03
1.680550e-03
1.680780e-03
-2.765820e-03
-2.765500e-03
1.679820e-03
1.679680e-03
1.682080e-03
1.680550e-03
7.160230e-04
7.147250e-04
1.680400e-03
1.679820e-03
7.145830e-04
7.139580e-04
1.680550e-03
1.680780e-03
7.147250e-04
7.148190e-04
1.679820e-03
1.679680e-03
7.139580e-04
7.145830e-04
7.160230e-04
7.147250e-04
1.631960e-04
1.633800e-04
7.145830e-04
7.139580e-04
1.634040e-04
1.635280e-04
7.147250e-04
7.148190e-04
1.633800e-04
1.633770e-04
7.139580e-04
7.145830e-04
1.635280e-04
1.634520e-04
0.000000e+00
0.000000e+00
1.603130e-04
1.603160e-04
0.000000e+00
0.000000e+00
1.603170e-04
1.603200e-04
0.000000e+00
0.000000e+00
1.603160e-04
1.603170e-04
0.000000e+00
0.000000e+00
1.603200e-04
1.603230e-04
1.603130e-04
1.603160e-04
1.002090e-04
1.002030e-04
1.603170e-04
1.603200e-04
1.002010e-04
1.002040e-04
1.603160e-04
1.603170e-04
1.002030e-04
1.002060e-04
1.603200e-04
1.603230e-04
1.002040e-04
1.002040e-04
1.002090e-04
1.002030e-04
-5.211740e-05
-5.212540e-05
1.002010e-04
1.002040e-04
-5.212490e-05
-5.212520e-05
1.002030e-04