<?xml version="1.0"?>
<VTKFile type="UnstructuredGrid" version="0.1" byte_order="LittleEndian" compressor="vtkZLibDataCompressor">
<UnstructuredGrid>
<Piece NumberOfPoints="960" NumberOfCells="120">
<Points>
<DataArray type="Float32" NumberOfComponents="3" format="ascii">
-4.000000e+02 -6.000000e+03 -4.000000e+02
0.000000e+00 -6.000000e+03 -4.000000e+02
-4.000000e+02 -5.600010e+03 -4.000000e+02
-5.049080e-10 -5.600010e+03 -4.000000e+02
-4.000000e+02 -6.000000e+03 0.000000e+00
0.000000e+00 -6.000000e+03 0.000000e+00
-4.000000e+02 -5.600010e+03 -3.611290e-10
-2.631520e-11 -5.600010e+03 -5.552090e-10
0.000000e+00 -6.000000e+03 -4.000000e+02
4.000000e+02 -6.000000e+03 -4.000000e+02
-5.049080e-10 -5.600010e+03 -4.000000e+02
4.000000e+02 -5.600010e+03 -4.000000e+02
0.000000e+00 -6.000000e+03 0.000000e+00
4.000000e+02 -6.000000e+03 0.000000e+00
-2.631520e-11 -5.600010e+03 -5.552090e-10
4.000000e+02 -5.600010e+03 -4.149020e-10
-4.000000e+02 -5.600010e+03 -4.000000e+02
-5.049080e-10 -5.600010e+03 -4.000000e+02
-4.000000e+02 -5.200040e+03 -4.000000e+02
-8.263830e-10 -5.200040e+03 -4.000000e+02
-4.000000e+02 -5.600010e+03 -3.611290e-10
-2.631520e-11 -5.600010e+03 -5.552090e-10
-4.000000e+02 -5.200040e+03 -1.521460e-10
-1.483030e-09 -5.200040e+03 -4.061680e-10
-5.049080e-10 -5.600010e+03 -4.000000e+02
4.000000e+02 -5.600010e+03 -4.000000e+02
-8.263830e-10 -5.200040e+03 -4.000000e+02
4.000000e+02 -5.200040e+03 -4.000000e+02
-2.631520e-11 -5.600010e+03 -5.552090e-10
4.000000e+02 -5.600010e+03 -4.149020e-10
-1.483030e-09 -5.200040e+03 -4.061680e-10
4.000000e+02 -5.200040e+03 -3.025670e-10
-4.000000e+02 -5.200040e+03 -4.000000e+02
-8.263830e-10 -5.200040e+03 -4.000000e+02
-4.000000e+02 -4.800130e+03 -4.000000e+02
-1.958760e-09 -4.800130e+03 -4.000000e+02
-4.000000e+02 -5.200040e+03 -1.521460e-10
-1.483030e-09 -5.200040e+03 -4.061680e-10
-4.000000e+02 -4.800130e+03 1.055890e-09
-1.406820e-09 -4.800130e+03 4.976340e-10
-8.263830e-10 -5.200040e+03 -4.000000e+02
4.000000e+02 -5.200040e+03 -4.000000e+02
-1.958760e-09 -4.800130e+03 -4.000000e+02
4.000000e+02 -4.800130e+03 -4.000000e+02
-1.483030e-09 -5.200040e+03 -4.061680e-10
4.000000e+02 -5.200040e+03 -3.025670e-10
-1.406820e-09 -4.800130e+03 4.976340e-10
4.000000e+02 -4.800130e+03 1.813160e-09
-4.000000e+02 -4.800130e+03 -4.000000e+02
-1.958760e-09 -4.800130e+03 -4.000000e+02
-4.000000e+02 -4.400210e+03 -4.000000e+02
-1.349700e-09 -4.400210e+03 -4.000000e+02
-4.000000e+02 -4.800130e+03 1.055890e-09
-1.406820e-09 -4.800130e+03 4.976340e-10
-4.000000e+02 -4.400210e+03 1.754220e-09
-8.096560e-11 -4.400210e+03 1.321080e-09
-1.958760e-09 -4.800130e+03 -4.000000e+02
4.000000e+02 -4.800130e+03 -4.000000e+02
-1.349700e-09 -4.400210e+03 -4.000000e+02
4.000000e+02 -4.400210e+03 -4.000000e+02
-1.406820e-09 -4.800130e+03 4.976340e-10
4.000000e+02 -4.800130e+03 1.813160e-09
-8.096560e-11 -4.400210e+03 1.321080e-09
4.000000e+02 -4.400210e+03 1.758120e-09
-4.000000e+02 -4.400210e+03 -4.000000e+02
-1.349700e-09 -4.400210e+03 -4.000000e+02
-4.000000e+02 -4.000250e+03 -4.000000e+02
-1.086620e-10 -4.000250e+03 -4.000000e+02
-4.000000e+02 -4.400210e+03 1.754220e-09
-8.096560e-11 -4.400210e+03 1.321080e-09
-4.000000e+02 -4.000250e+03 3.761370e-10
-3.347110e-10 -4.000250e+03 -2.378990e-10
-1.349700e-09 -4.400210e+03 -4.000000e+02
4.000000e+02 -4.400210e+03 -4.000000e+02
-1.086620e-10 -4.000250e+03 -4.000000e+02
4.000000e+02 -4.000250e+03 -4.000000e+02
-8.096560e-11 -4.400210e+03 1.321080e-09
4.000000e+02 -4.400210e+03 1.758120e-09
-3.347110e-10 -4.000250e+03 -2.378990e-10
4.000000e+02 -4.000250e+03 -8.518570e-10
-4.000000e+02 -4.000250e+03 -4.000000e+02
-1.086620e-10 -4.000250e+03 -4.000000e+02
-4.000000e+02 -3.600270e+03 -4.000000e+02
-1.617490e-10 -3.600270e+03 -4.000000e+02
-4.000000e+02 -4.000250e+03 3.761370e-10
-3.347110e-10 -4.000250e+03 -2.378990e-10
-4.000000e+02 -3.600270e+03 1.035280e-09
6.413350e-10 -3.600270e+03 1.258240e-10
-1.086620e-10 -4.000250e+03 -4.000000e+02
4.000000e+02 -4.000250e+03 -4.000000e+02
-1.617490e-10 -3.600270e+03 -4.000000e+02
4.000000e+02 -3.600270e+03 -4.000000e+02
-3.347110e-10 -4.000250e+03 -2.378990e-10
4.000000e+02 -4.000250e+03 -8.518570e-10
6.413350e-10 -3.600270e+03 1.258240e-10
4.000000e+02 -3.600270e+03 -2.896090e-10
-4.000000e+02 -3.600270e+03 -4.000000e+02
-1.617490e-10 -3.600270e+03 -4.000000e+02
-4.000000e+02 -3.200280e+03 -4.000000e+02
5.018050e-10 -3.200280e+03 -4.000000e+02
-4.000000e+02 -3.600270e+03 1.035280e-09
6.413350e-10 -3.600270e+03 1.258240e-10
-4.000000e+02 -3.200280e+03 6.985910e-10
2.295620e-10 -3.200280e+03 7.615090e-10
-1.617490e-10 -3.600270e+03 -4.000000e+02
4.000000e+02 -3.600270e+03 -4.000000e+02
5.018050e-10 -3.200280e+03 -4.000000e+02
4.000000e+02 -3.200280e+03 -4.000000e+02
6.413350e-10 -3.600270e+03 1.258240e-10
4.000000e+02 -3.600270e+03 -2.896090e-10
2.295620e-10 -3.200280e+03 7.615090e-10
4.000000e+02 -3.200280e+03 -1.456150e-10
-4.000000e+02 -3.200280e+03 -4.000000e+02
5.018050e-10 -3.200280e+03 -4.000000e+02
-4.000000e+02 -2.800290e+03 -4.000000e+02
2.755970e-11 -2.800290e+03 -4.000000e+02
-4.000000e+02 -3.200280e+03 6.985910e-10
2.295620e-10 -3.200280e+03 7.615090e-10
-4.000000e+02 -2.800290e+03 1.260690e-09
-3.873870e-10 -2.800290e+03 3.826050e-10
5.018050e-10 -3.200280e+03 -4.000000e+02
4.000000e+02 -3.200280e+03 -4.000000e+02
2.755970e-11 -2.800290e+03 -4.000000e+02
4.000000e+02 -2.800290e+03 -4.000000e+02
2.295620e-10 -3.200280e+03 7.615090e-10
4.000000e+02 -3.200280e+03 -1.456150e-10
-3.873870e-10 -2.800290e+03 3.826050e-10
4.000000e+02 -2.800290e+03 -4.855170e-10
-4.000000e+02 -2.800290e+03 -4.000000e+02
2.755970e-11 -2.800290e+03 -4.000000e+02
-4.000000e+02 -2.400290e+03 -4.000000e+02
-3.365780e-10 -2.400290e+03 -4.000000e+02
-4.000000e+02 -2.800290e+03 1.260690e-09
-3.873870e-10 -2.800290e+03 3.826050e-10
-4.000000e+02 -2.400290e+03 2.391600e-10
-2.252910e-10 -2.400290e+03 6.407510e-10
2.755970e-11 -2.800290e+03 -4.000000e+02
4.000000e+02 -2.800290e+03 -4.000000e+02
-3.365780e-10 -2.400290e+03 -4.000000e+02
4.000000e+02 -2.400290e+03 -4.000000e+02
-3.873870e-10 -2.800290e+03 3.826050e-10
4.000000e+02 -2.800290e+03 -4.855170e-10
-2.252910e-10 -2.400290e+03 6.407510e-10
4.000000e+02 -2.400290e+03 2.560290e-10
-4.000000e+02 -2.400290e+03 -4.000000e+02
-3.365780e-10 -2.400290e+03 -4.000000e+02
-4.000000e+02 -2.000290e+03 -4.000000e+02
2.312540e-10 -2.000290e+03 -4.000000e+02
-4.000000e+02 -2.400290e+03 2.391600e-10
-2.252910e-10 -2.400290e+03 6.407510e-10
-4.000000e+02 -2.000290e+03 5.889080e-10
4.950140e-10 -2.000290e+03 3.637740e-10
-3.365780e-10 -2.400290e+03 -4.000000e+02
4.000000e+02 -2.400290e+03 -4.000000e+02
2.312540e-10 -2.000290e+03 -4.000000e+02
4.000000e+02 -2.000290e+03 -4.000000e+02
-2.252910e-10 -2.400290e+03 6.407510e-10
4.000000e+02 -2.400290e+03 2.560290e-10
4.950140e-10 -2.000290e+03 3.637740e-10
4.000000e+02 -2.000290e+03 4.502510e-11
-4.000000e+02 -2.000290e+03 -4.000000e+02
2.312540e-10 -2.000290e+03 -4.000000e+02
-4.000000e+02 -1.600290e+03 -4.000000e+02
2.893560e-10 -1.600290e+03 -4.000000e+02
-4.000000e+02 -2.000290e+03 5.889080e-10
4.950140e-10 -2.000290e+03 3.637740e-10
-4.000000e+02 -1.600290e+03 -6.544260e-11
-5.461880e-11 -1.600290e+03 -3.044350e-10
2.312540e-10 -2.000290e+03 -4.000000e+02
4.000000e+02 -2.000290e+03 -4.000000e+02
2.893560e-10 -1.600290e+03 -4.000000e+02
4.000000e+02 -1.600290e+03 -4.000000e+02
4.950140e-10 -2.000290e+03 3.637740e-10
4.000000e+02 -2.000290e+03 4.502510e-11
-5.461880e-11 -1.600290e+03 -3.044350e-10
4.000000e+02 -1.600290e+03 2.486070e-10
-4.000000e+02 -1.600290e+03 -4.000000e+02
2.893560e-10 -1.600290e+03 -4.000000e+02
-4.000000e+02 -1.200300e+03 -4.000000e+02
-6.281590e-10 -1.200300e+03 -4.000000e+02
-4.000000e+02 -1.600290e+03 -6.544260e-11
-5.461880e-11 -1.600290e+03 -3.044350e-10
-4.000000e+02 -1.200300e+03 -5.499880e-10
-1.886440e-10 -1.200300e+03 -6.993160e-10
2.893560e-10 -1.600290e+03 -4.000000e+02
4.000000e+02 -1.600290e+03 -4.000000e+02
-6.281590e-10 -1.200300e+03 -4.000000e+02
4.000000e+02 -1.200300e+03 -4.000000e+02
-5.461880e-11 -1.600290e+03 -3.044350e-10
4.000000e+02 -1.600290e+03 2.486070e-10
-1.886440e-10 -1.200300e+03 -6.993160e-10
4.000000e+02 -1.200300e+03 -5.788820e-10
-4.000000e+02 -1.200300e+03 -4.000000e+02
-6.281590e-10 -1.200300e+03 -4.000000e+02
-4.000000e+02 -8.002960e+02 -4.000000e+02
-4.246490e-10 -8.002960e+02 -4.000000e+02
-4.000000e+02 -1.200300e+03 -5.499880e-10
-1.886440e-10 -1.200300e+03 -6.993160e-10
-4.000000e+02 -8.002960e+02 1.054620e-10
-9.275560e-11 -8.002960e+02 -2.149020e-10
-6.281590e-10 -1.200300e+03 -4.000000e+02
4.000000e+02 -1.200300e+03 -4.000000e+02
-4.246490e-10 -8.002960e+02 -4.000000e+02
4.000000e+02 -8.002960e+02 -4.000000e+02
-1.886440e-10 -1.200300e+03 -6.993160e-10
4.000000e+02 -1.200300e+03 -5.788820e-10
-9.275560e-11 -8.002960e+02 -2.149020e-10
4.000000e+02 -8.002960e+02 7.193200e-11
-4.000000e+02 -8.002960e+02 -4.000000e+02
-4.246490e-10 -8.002960e+02 -4.000000e+02
-4.000000e+02 -4.002970e+02 -4.000000e+02
6.308330e-11 -4.002970e+02 -4.000000e+02
-4.000000e+02 -8.002960e+02 1.054620e-10
-9.275560e-11 -8.002960e+02 -2.149020e-10
-4.000000e+02 -4.002970e+02 -2.825890e-10
1.227560e-10 -4.002970e+02 -1.156540e-10
-4.246490e-10 -8.002960e+02 -4.000000e+02
4.000000e+02 -8.002960e+02 -4.000000e+02
6.308330e-11 -4.002970e+02 -4.000000e+02
4.000000e+02 -4.002970e+02 -4.000000e+02
-9.275560e-11 -8.002960e+02 -2.149020e-10
4.000000e+02 -8.002960e+02 7.193200e-11
1.227560e-10 -4.002970e+02 -1.156540e-10
4.000000e+02 -4.002970e+02 5.457330e-11
-4.000000e+02 -4.002970e+02 -4.000000e+02
6.308330e-11 -4.002970e+02 -4.000000e+02
-4.000000e+02 -2.967160e-01 -4.000000e+02
-1.937590e-10 -2.967160e-01 -4.000000e+02
-4.000000e+02 -4.002970e+02 -2.825890e-10
1.227560e-10 -4.002970e+02 -1.156540e-10
-4.000000e+02 -2.967160e-01 -5.429940e-12
1.453540e-10 -2.967160e-01 5.731820e-11
6.308330e-11 -4.002970e+02 -4.000000e+02
4.000000e+02 -4.002970e+02 -4.000000e+02
-1.937590e-10 -2.967160e-01 -4.000000e+02
[...]
<PointData>
<DataArray type="Float32" Name="V1" format="ascii">
0.000000e+00
0.000000e+00
-6.598730e-10
1.128250e-09
0.000000e+00
0.000000e+00
6.912950e-10
-1.134750e-10
0.000000e+00
0.000000e+00
1.128250e-09
2.026750e-09
0.000000e+00
0.000000e+00
-1.134750e-10
3.142250e-10
-6.598730e-10
1.128250e-09
9.112530e-10
4.343750e-10
6.912950e-10
-1.134750e-10
4.399150e-10
2.503900e-10
1.128250e-09
2.026750e-09
4.343750e-10
-6.127390e-10
-1.134750e-10
3.142250e-10
2.503900e-10
-1.178340e-09
9.112530e-10
4.343750e-10
-4.084930e-10
3.829460e-10
4.399150e-10
2.503900e-10
3.142250e-10
-7.975750e-10
4.343750e-10
-6.127390e-10
3.829460e-10
-1.194060e-09
2.503900e-10
-1.178340e-09
-7.975750e-10
-3.299360e-10
-4.084930e-10
3.829460e-10
-3.613590e-10
-6.015980e-10
3.142250e-10
-7.975750e-10
4.713380e-10
9.649820e-12
3.829460e-10
-1.194060e-09
-6.015980e-10
-1.932480e-09
-7.975750e-10
-3.299360e-10
9.649820e-12
9.426750e-10
-3.613590e-10
-6.015980e-10
-1.256900e-10
5.284580e-10
4.713380e-10
9.649820e-12
0.000000e+00
3.058540e-11
-6.015980e-10
-1.932480e-09
5.284580e-10
-7.698510e-10
9.649820e-12
9.426750e-10
3.058540e-11
0.000000e+00
-1.256900e-10
5.284580e-10
1.822510e-09
-7.182850e-10
0.000000e+00
3.058540e-11
-2.828030e-10
-4.969720e-11
5.284580e-10
-7.698510e-10
-7.182850e-10
-1.036940e-09
3.058540e-11
0.000000e+00
-4.969720e-11
5.813160e-10
1.822510e-09
-7.182850e-10
-1.084080e-09
1.561460e-10
-2.828030e-10
-4.969720e-11
6.284500e-11
-1.468120e-10
-7.182850e-10
-1.036940e-09
1.561460e-10
-1.948200e-09
-4.969720e-11
5.813160e-10
-1.468120e-10
1.256900e-10
-1.084080e-09
1.561460e-10
7.541400e-10
-8.809030e-11
6.284500e-11
-1.468120e-10
-1.571130e-11
8.686710e-10
1.561460e-10
-1.948200e-09
-8.809030e-11
9.426750e-11
-1.468120e-10
1.256900e-10
8.686710e-10
5.813160e-10
7.541400e-10
-8.809030e-11
1.256900e-10
4.129770e-10
-1.571130e-11
8.686710e-10
-1.052650e-09
-2.686620e-10
-8.809030e-11
9.426750e-11
4.129770e-10
4.713380e-11
8.686710e-10
5.813160e-10
-2.686620e-10
6.912950e-10
1.256900e-10
4.129770e-10
-1.382590e-09
-6.378600e-10
-1.052650e-09
-2.686620e-10
1.539700e-09
-4.734160e-10
4.129770e-10
4.713380e-11
-6.378600e-10
7.384290e-10
-2.686620e-10
6.912950e-10
-4.734160e-10
-7.855630e-11
-1.382590e-09
-6.378600e-10
-7.698510e-10
1.240380e-10
1.539700e-09
-4.734160e-10
0.000000e+00
5.451820e-11
-6.378600e-10
7.384290e-10
1.240380e-10
-9.269640e-10
-4.734160e-10
-7.855630e-11
5.451820e-11
-1.602550e-09
-7.698510e-10
1.240380e-10
-1.099790e-10
-4.949580e-10
0.000000e+00
5.451820e-11
0.000000e+00
1.317950e-10
1.240380e-10
-9.269640e-10
-4.949580e-10
1.241190e-09
5.451820e-11
-1.602550e-09
1.317950e-10
-1.759660e-09
-1.099790e-10
-4.949580e-10
0.000000e+00
5.704860e-10
0.000000e+00
1.317950e-10
0.000000e+00
-5.752410e-10
-4.949580e-10
1.241190e-09
5.704860e-10
-1.272610e-09
1.317950e-10
-1.759660e-09
-5.752410e-10
1.209770e-09
0.000000e+00
5.704860e-10
-8.012740e-10
1.696710e-10
0.000000e+00
-5.752410e-10
3.927810e-10
4.816280e-10
5.704860e-10
-1.272610e-09
1.696710e-10
-2.042460e-10
-5.752410e-10
1.209770e-09
4.816280e-10
1.005520e-09
-8.012740e-10
1.696710e-10
-6.598730e-10
7.211430e-10
3.927810e-10
4.816280e-10
0.000000e+00
-8.625770e-10
1.696710e-10
-2.042460e-10
7.211430e-10
1.099790e-10
4.816280e-10
1.005520e-09
-8.625770e-10
0.000000e+00
-6.598730e-10
7.211430e-10
0.000000e+00
7.551180e-10
0.000000e+00
-8.625770e-10
0.000000e+00
5.369950e-10
7.211430e-10
1.099790e-10
7.551180e-10
0.000000e+00
-8.625770e-10
0.000000e+00
5.369950e-10
0.000000e+00
0.000000e+00
7.551180e-10
5.027600e-10
-4.415830e-10
0.000000e+00
5.369950e-10
0.000000e+00
-3.794330e-10
7.551180e-10
0.000000e+00
-4.415830e-10
-1.571130e-11
5.369950e-10
0.000000e+00
-3.794330e-10
0.000000e+00
5.027600e-10
-4.415830e-10
0.000000e+00
-5.302180e-11
0.000000e+00
-3.794330e-10
0.000000e+00
7.474600e-10
-4.415830e-10
-1.571130e-11
-5.302180e-11
-4.084930e-10
-3.794330e-10
0.000000e+00
7.474600e-10
0.000000e+00
0.000000e+00
-5.302180e-11
-2.356690e-10
-1.203450e-10
0.000000e+00
7.474600e-10
4.713380e-10
-1.847600e-11
-5.302180e-11
-4.084930e-10
-1.203450e-10
0.000000e+00
7.474600e-10
0.000000e+00
-1.847600e-11
0.000000e+00
-2.356690e-10
-1.203450e-10
1.115500e-09
1.818590e-10
4.713380e-10
-1.847600e-11
0.000000e+00
-1.366230e-10
-1.203450e-10
0.000000e+00
1.818590e-10
-7.855630e-10
-1.847600e-11
0.000000e+00
-1.366230e-10
0.000000e+00
1.115500e-09
1.818590e-10
0.000000e+00
5.419540e-11
0.000000e+00
-1.366230e-10
-1.885350e-10
-4.692160e-11
1.818590e-10
-7.855630e-10
5.419540e-11
0.000000e+00
-1.366230e-10
0.000000e+00
-4.692160e-11
0.000000e+00
0.000000e+00
5.419540e-11
-6.127390e-10
-1.846700e-10
-1.885350e-10
-4.692160e-11
-5.970280e-10
-2.663170e-10
5.419540e-11
0.000000e+00
-1.846700e-10
0.000000e+00
-4.692160e-11
0.000000e+00
-2.663170e-10
0.000000e+00
-6.127390e-10
-1.846700e-10
0.000000e+00
-2.562910e-11
-5.970280e-10
-2.663170e-10
0.000000e+00
1.608440e-10
-1.846700e-10
0.000000e+00
-2.562910e-11
-4.870490e-10
-2.663170e-10
0.000000e+00
1.608440e-10
0.000000e+00
0.000000e+00
-2.562910e-11
0.000000e+00
1.671080e-10
0.000000e+00
1.608440e-10
4.713380e-11
2.828580e-10
-2.562910e-11
-4.870490e-10
1.671080e-10
4.084930e-10
1.608440e-10
0.000000e+00
2.828580e-10
6.284500e-10
0.000000e+00
1.671080e-10
1.068370e-09
7.282580e-10
4.713380e-11
2.828580e-10
0.000000e+00
1.393590e-10
1.671080e-10
4.084930e-10
7.282580e-10
6.284500e-10
2.828580e-10
6.284500e-10
1.393590e-10
5.184710e-10
1.068370e-09
7.282580e-10
-1.728240e-10
-5.008400e-10
0.000000e+00
1.393590e-10
-2.199580e-10
-3.787240e-10
7.282580e-10
6.284500e-10
-5.008400e-10
-6.284500e-10
1.393590e-10
5.184710e-10
-3.787240e-10
-4.713380e-10
-1.728240e-10
-5.008400e-10
-1.146920e-09
-6.878540e-10
-2.199580e-10
-3.787240e-10
-5.970280e-10
-1.749350e-10
-5.008400e-10
-6.284500e-10
-6.878540e-10
-1.885350e-10
-3.787240e-10
-4.713380e-10
-1.749350e-10
1.728240e-10
-1.146920e-09
-6.878540e-10
1.099790e-10
2.603980e-10
-5.970280e-10
-1.749350e-10
0.000000e+00
2.223760e-10
-6.878540e-10
-1.885350e-10
2.603980e-10
3.456480e-10
-1.749350e-10
1.728240e-10
2.223760e-10
4.084930e-10
1.099790e-10
2.603980e-10
3.927810e-10
1.877030e-10
0.000000e+00
2.223760e-10
1.571130e-11
-4.740660e-12
2.603980e-10
3.456480e-10
1.877030e-10
0.000000e+00
2.223760e-10
4.084930e-10
-4.740660e-12
0.000000e+00
3.927810e-10
1.877030e-10
3.613590e-10
4.777390e-10
1.571130e-11
-4.740660e-12
5.027600e-10
5.068670e-10
1.877030e-10
0.000000e+00
4.777390e-10
6.284500e-10
-4.740660e-12
0.000000e+00
5.068670e-10
5.656050e-10
0.000000e+00
0.000000e+00
6.912950e-10
-1.134750e-10
0.000000e+00
0.000000e+00
4.713380e-11
2.084450e-10
0.000000e+00
0.000000e+00
-1.134750e-10
3.142250e-10
0.000000e+00
0.000000e+00
2.084450e-10
5.970280e-10
6.912950e-10
-1.134750e-10
4.399150e-10
2.503900e-10
4.713380e-11
2.084450e-10
-2.042460e-10
-1.011840e-09
-1.134750e-10
3.142250e-10
2.503900e-10
-1.178340e-09
2.084450e-10
5.970280e-10
-1.011840e-09
-6.441610e-10
4.399150e-10
2.503900e-10
3.142250e-10
-7.975750e-10
-2.042460e-10
-1.011840e-09
-1.288320e-09
2.853960e-10
2.503900e-10
-1.178340e-09
-7.975750e-10
-3.299360e-10
-1.011840e-09
-6.441610e-10
2.853960e-10
-2.985140e-10
3.142250e-10
-7.975750e-10
4.713380e-10
9.649820e-12
-1.288320e-09
2.853960e-10
2.121020e-09
3.482520e-10
-7.975750e-10
-3.299360e-10
9.649820e-12
9.426750e-10
2.853960e-10
-2.985140e-10
3.482520e-10
-3.927810e-10
4.713380e-10
9.649820e-12
0.000000e+00
3.058540e-11
2.121020e-09
3.482520e-10
1.571130e-11
7.506400e-10
9.649820e-12
9.426750e-10
3.058540e-11
0.000000e+00
3.482520e-10
-3.927810e-10
7.506400e-10
-1.131210e-09
0.000000e+00
3.058540e-11
-2.828030e-10
-4.969720e-11
1.571130e-11
7.506400e-10
1.775370e-09
3.471850e-11
3.058540e-11
0.000000e+00
-4.969720e-11
5.813160e-10
7.506400e-10
-1.131210e-09
3.471850e-11
-2.670910e-09
-2.828030e-10
-4.969720e-11
6.284500e-11
-1.468120e-10
1.775370e-09
3.471850e-11
0.000000e+00
5.758010e-10
-4.969720e-11
5.813160e-10
-1.468120e-10
1.256900e-10
3.471850e-11
-2.670910e-09
5.758010e-10
2.042460e-10
6.284500e-11
-1.468120e-10
-1.571130e-11
8.686710e-10
0.000000e+00
5.758010e-10
-9.112530e-10
5.071790e-11
-1.468120e-10
1.256900e-10
8.686710e-10
5.813160e-10
5.758010e-10
2.042460e-10
5.071790e-11
1.728240e-09
-1.571130e-11
8.686710e-10
-1.052650e-09
-2.686620e-10
-9.112530e-10
5.071790e-11
-7.070060e-10
-7.752190e-10
8.686710e-10
5.813160e-10
-2.686620e-10
6.912950e-10
5.071790e-11
1.728240e-09
-7.752190e-10
4.084930e-10
-1.052650e-09
-2.686620e-10
1.539700e-09
-4.734160e-10
-7.070060e-10
-7.752190e-10
6.127390e-10
6.411930e-10
-2.686620e-10
6.912950e-10
-4.734160e-10
-7.855630e-11
-7.752190e-10
4.084930e-10
6.411930e-10
4.556260e-10
1.539700e-09
-4.734160e-10
0.000000e+00
5.451820e-11
6.127390e-10
6.411930e-10
0.000000e+00
-6.023660e-11
-4.734160e-10
-7.855630e-11
5.451820e-11
-1.602550e-09
6.411930e-10
4.556260e-10
-6.023660e-11
-2.985140e-10
0.000000e+00
5.451820e-11
0.000000e+00
1.317950e-10
0.000000e+00
-6.023660e-11
-3.770700e-10
3.341740e-10
5.451820e-11
-1.602550e-09
1.317950e-10
-1.759660e-09
-6.023660e-11
-2.985140e-10
3.341740e-10
3.456480e-10
0.000000e+00
1.317950e-10
0.000000e+00
-5.752410e-10
-3.770700e-10
3.341740e-10
-4.870490e-10
5.846420e-11
1.317950e-10
-1.759660e-09
-5.752410e-10
1.209770e-09
3.341740e-10
3.456480e-10
5.846420e-11
-1.366880e-09
0.000000e+00
-5.752410e-10
3.927810e-10
4.816280e-10
-4.870490e-10
5.846420e-11
-1.382590e-09
2.984040e-10
-5.752410e-10
1.209770e-09
4.816280e-10
1.005520e-09
5.846420e-11
-1.366880e-09
2.984040e-10
3.142250e-10
3.927810e-10
4.816280e-10
0.000000e+00
-8.625770e-10
-1.382590e-09
2.984040e-10
5.970280e-10
-8.457950e-10
4.816280e-10
1.005520e-09
-8.625770e-10
0.000000e+00
2.984040e-10
3.142250e-10
-8.457950e-10
1.146920e-09
0.000000e+00
-8.625770e-10
0.000000e+00
5.369950e-10
5.970280e-10
-8.457950e-10
-4.556260e-10
1.870610e-10
-8.625770e-10
0.000000e+00
5.369950e-10
0.000000e+00
-8.457950e-10
1.146920e-09
1.870610e-10
-7.698510e-10
0.000000e+00
5.369950e-10
0.000000e+00
-3.794330e-10
-4.556260e-10
1.870610e-10
-4.556260e-10
4.271810e-12
5.369950e-10
0.000000e+00
-3.794330e-10
0.000000e+00
1.870610e-10
-7.698510e-10
4.271810e-12
-2.828030e-10
0.000000e+00
-3.794330e-10
0.000000e+00
7.474600e-10
-4.556260e-10
4.271810e-12
0.000000e+00
2.848310e-10
-3.794330e-10
0.000000e+00
7.474600e-10
0.000000e+00
4.271810e-12
-2.828030e-10
2.848310e-10
0.000000e+00
0.000000e+00
7.474600e-10
4.713380e-10
-1.847600e-11
0.000000e+00
2.848310e-10
-5.341830e-10
-2.206350e-10
7.474600e-10
0.000000e+00
-1.847600e-11
0.000000e+00
2.848310e-10
0.000000e+00
-2.206350e-10
-2.513800e-10
4.713380e-10
-1.847600e-11
0.000000e+00
-1.366230e-10
-5.341830e-10
-2.206350e-10
0.000000e+00
4.124870e-11
-1.847600e-11
0.000000e+00
-1.366230e-10
0.000000e+00
-2.206350e-10
-2.513800e-10
4.124870e-11
0.000000e+00
0.000000e+00
-1.366230e-10
-1.885350e-10
-4.692160e-11
0.000000e+00
4.124870e-11
-3.456480e-10
-1.646960e-10
-1.366230e-10
0.000000e+00
-4.692160e-11
0.000000e+00
4.124870e-11
0.000000e+00
-1.646960e-10
0.000000e+00
-1.885350e-10
-4.692160e-11
-5.970280e-10
-2.663170e-10
-3.456480e-10
-1.646960e-10
-6.755840e-10
-5.117070e-10
-4.692160e-11
0.000000e+00
-2.663170e-10
0.000000e+00
-1.646960e-10
0.000000e+00
-5.117070e-10
-4.556260e-10
-5.970280e-10
-2.663170e-10
0.000000e+00
1.608440e-10
-6.755840e-10
-5.117070e-10
3.299360e-10
6.579040e-10
-2.663170e-10
0.000000e+00
1.608440e-10
0.000000e+00
-5.117070e-10
-4.556260e-10
6.579040e-10
8.012740e-10
0.000000e+00
1.608440e-10
4.713380e-11
2.828580e-10
3.299360e-10
6.579040e-10
1.099790e-10
2.244030e-10
1.608440e-10
0.000000e+00
2.828580e-10
6.284500e-10
6.579040e-10
8.012740e-10
2.244030e-10
5.498940e-10
4.713380e-11
2.828580e-10
0.000000e+00
1.393590e-10
1.099790e-10
2.244030e-10
1.099790e-10
-5.518470e-10
2.828580e-10
6.284500e-10
1.393590e-10
5.184710e-10
2.244030e-10
5.498940e-10
-5.518470e-10
-9.898090e-10
0.000000e+00
1.393590e-10
-2.199580e-10
-3.787240e-10
1.099790e-10
-5.518470e-10
-5.498940e-10
-3.515760e-11
1.393590e-10
5.184710e-10
-3.787240e-10
-4.713380e-10
-5.518470e-10
-9.898090e-10
-3.515760e-11
4.084930e-10
-2.199580e-10
-3.787240e-10
-5.970280e-10
-1.749350e-10
-5.498940e-10
-3.515760e-11
-7.541400e-10
3.488860e-10
-3.787240e-10
-4.713380e-10
-1.749350e-10
1.728240e-10
-3.515760e-11
4.084930e-10
3.488860e-10
1.304030e-09
-5.970280e-10
-1.749350e-10
0.000000e+00
2.223760e-10
-7.541400e-10
3.488860e-10
2.513800e-10
8.591520e-11
-1.749350e-10
1.728240e-10
2.223760e-10
4.084930e-10
3.488860e-10
1.304030e-09
8.591520e-11
-7.855630e-11
0.000000e+00
2.223760e-10
1.571130e-11
-4.740660e-12
2.513800e-10
8.591520e-11
0.000000e+00
-1.949410e-10
2.223760e-10
4.084930e-10
-4.740660e-12
0.000000e+00
8.591520e-11
-7.855630e-11
-1.949410e-10
-3.299360e-10
1.571130e-11
-4.740660e-12
5.027600e-10
5.068670e-10
0.000000e+00
-1.949410e-10
4.870490e-10
4.883960e-10
-4.740660e-12
0.000000e+00
5.068670e-10
5.656050e-10
-1.949410e-10
-3.299360e-10
4.883960e-10
5.184710e-10
</DataArray>
<DataArray type="Float32" Name="V2" format="ascii">
0.000000e+00
0.000000e+00
-6.099680e-02
-6.099680e-02
0.000000e+00
0.000000e+00
-6.099680e-02
-6.099680e-02
0.000000e+00
0.000000e+00
-6.099680e-02
-6.099680e-02
0.000000e+00
0.000000e+00
-6.099680e-02
-6.099680e-02
-6.099680e-02
-6.099680e-02
-6.697670e-02
-6.697670e-02
-6.099680e-02
-6.099680e-02
-6.697670e-02
-6.697670e-02
-6.099680e-02
-6.099680e-02
-6.697670e-02
-6.697670e-02
-6.099680e-02
-6.099680e-02
-6.697670e-02
-6.697670e-02
-6.697670e-02
-6.697670e-02
-3.903090e-02
-3.903090e-02
-6.697670e-02
-6.697670e-02
-3.903090e-02
-3.903090e-02
-6.697670e-02
-6.697670e-02
-3.903090e-02
-3.903090e-02
-6.697670e-02
-6.697670e-02
-3.903090e-02
-3.903090e-02
-3.903090e-02
-3.903090e-02
-3.082860e-02
-3.082860e-02
-3.903090e-02
-3.903090e-02
-3.082860e-02
-3.082860e-02
-3.903090e-02
-3.903090e-02
-3.082860e-02
-3.082860e-02
-3.903090e-02
-3.903090e-02
-3.082860e-02
-3.082860e-02
-3.082860e-02
-3.082860e-02
-3.060870e-02
-3.060870e-02
-3.082860e-02
-3.082860e-02
-3.060870e-02
-3.060870e-02
-3.082860e-02
-3.082860e-02
-3.060870e-02
-3.060870e-02
-3.082860e-02
-3.082860e-02
-3.060870e-02
-3.060870e-02
-3.060870e-02
-3.060870e-02
-1.157720e-02
-1.157720e-02
-3.060870e-02
-3.060870e-02
-1.157720e-02
-1.157720e-02
-3.060870e-02
-3.060870e-02
-1.157720e-02
-1.157720e-02
-3.060870e-02
-3.060870e-02
-1.157720e-02
-1.157720e-02
-1.157720e-02
-1.157720e-02
-2.590240e-03
-2.590240e-03
-1.157720e-02
-1.157720e-02
-2.590240e-03
-2.590240e-03
-1.157720e-02
-1.157720e-02
-2.590240e-03
-2.590230e-03
-1.157720e-02
-1.157720e-02
-2.590240e-03
-2.590240e-03
-2.590240e-03
-2.590240e-03
-4.267420e-03
-4.267410e-03
-2.590240e-03
-2.590240e-03
-4.267410e-03
-4.267410e-03
-2.590240e-03
-2.590230e-03
-4.267410e-03
-4.267410e-03
-2.590240e-03
-2.590240e-03
-4.267410e-03
-4.267410e-03
-4.267420e-03
-4.267410e-03
-2.065490e-03
-2.065500e-03
-4.267410e-03
-4.267410e-03
-2.065500e-03
-2.065500e-03
-4.267410e-03
-4.267410e-03
-2.065500e-03
-2.065500e-03
-4.267410e-03
-4.267410e-03
-2.065500e-03
-2.065500e-03
-2.065490e-03
-2.065500e-03
-1.083500e-03
-1.083500e-03
-2.065500e-03
-2.065500e-03
-1.083500e-03
-1.083500e-03
-2.065500e-03
-2.065500e-03
-1.083500e-03
-1.083500e-03
-2.065500e-03
-2.065500e-03
-1.083500e-03
-1.083500e-03
-1.083500e-03
-1.083500e-03
-4.941260e-04
-4.941240e-04
-1.083500e-03
-1.083500e-03
-4.941170e-04
-4.941230e-04
-1.083500e-03
-1.083500e-03
-4.941240e-04
-4.941220e-04
-1.083500e-03
-1.083500e-03
-4.941230e-04
-4.941200e-04
-4.941260e-04
-4.941240e-04
-9.935210e-04
-9.935200e-04
-4.941170e-04
-4.941230e-04
-9.935230e-04
-9.935250e-04
-4.941240e-04
-4.941220e-04
-9.935200e-04
-9.935210e-04
-4.941230e-04
-4.941200e-04
-9.935250e-04
-9.935200e-04
-9.935210e-04
-9.935200e-04
-5.127680e-04
-5.127700e-04
-9.935230e-04
-9.935250e-04
-5.127720e-04
-5.127690e-04
-9.935200e-04
-9.935210e-04
-5.127700e-04
-5.127720e-04
-9.935250e-04
-9.935200e-04
-5.127690e-04
-5.127700e-04
-5.127680e-04
-5.127700e-04
-1.232140e-04
-1.232100e-04
-5.127720e-04
-5.127690e-04
-1.232100e-04
-1.232140e-04
-5.127700e-04
-5.127720e-04
-1.232100e-04
-1.232110e-04
-5.127690e-04
-5.127700e-04
-1.232140e-04
-1.232110e-04
-1.232140e-04
-1.232100e-04
1.503510e-04
1.503530e-04
-1.232100e-04
-1.232140e-04
1.503510e-04
1.503540e-04
-1.232100e-04
-1.232110e-04
1.503530e-04
1.503540e-04
-1.232140e-04
-1.232110e-04
1.503540e-04
1.503520e-04
1.503510e-04
1.503530e-04
-1.597030e-04
-1.597030e-04
1.503510e-04
1.503540e-04
-1.597020e-04
-1.597030e-04
1.503530e-04
1.503540e-04
-1.597030e-04
-1.597030e-04
1.503540e-04
1.503520e-04
-1.597030e-04
-1.597030e-04
-1.597030e-04
-1.597030e-04
6.575220e-06
6.576040e-06
-1.597020e-04
-1.597030e-04
6.574310e-06
6.575630e-06
-1.597030e-04
-1.597030e-04
6.576040e-06
6.576390e-06
-1.597030e-04
-1.597030e-04
6.575630e-06
6.577270e-06
6.575220e-06
6.576040e-06
2.741190e-05
2.741510e-05
6.574310e-06
6.575630e-06
2.741650e-05
2.741810e-05
6.576040e-06
6.576390e-06
2.741510e-05
2.741410e-05
6.575630e-06
6.577270e-06
2.741810e-05
2.741610e-05
2.741190e-05
2.741510e-05
-2.781250e-04
-2.781250e-04
2.741650e-05
2.741810e-05
-2.781270e-04
-2.781270e-04
2.741510e-05
2.741410e-05
-2.781250e-04
-2.781240e-04
2.741810e-05
2.741610e-05
-2.781270e-04
-2.781260e-04
-2.781250e-04
-2.781250e-04
-4.765590e-04
-4.765590e-04
-2.781270e-04
-2.781270e-04
-4.765590e-04
-4.765610e-04
-2.781250e-04
-2.781240e-04
-4.765590e-04
-4.765600e-04
-2.781270e-04
-2.781260e-04
-4.765610e-04
-4.765610e-04
-4.765590e-04
-4.765590e-04
3.770580e-05
3.771280e-05
-4.765590e-04
-4.765610e-04
3.771340e-05
3.770840e-05
-4.765590e-04
-4.765600e-04
3.771280e-05
3.770610e-05
-4.765610e-04
-4.765610e-04
3.770840e-05
3.771090e-05
3.770580e-05
3.771280e-05
-1.034000e-04
-1.034030e-04
3.771340e-05
3.770840e-05
-1.034040e-04
-1.034010e-04
3.771280e-05
3.770610e-05
-1.034030e-04
-1.034000e-04
3.770840e-05
3.771090e-05
-1.034010e-04
-1.034020e-04
-1.034000e-04
-1.034030e-04
-3.268100e-04
-3.268130e-04
-1.034040e-04
-1.034010e-04
-3.268120e-04
-3.268070e-04
-1.034030e-04
-1.034000e-04
-3.268130e-04
-3.268090e-04
-1.034010e-04
-1.034020e-04
-3.268070e-04
-3.268080e-04
-3.268100e-04
-3.268130e-04
-4.573280e-04
-4.573280e-04
-3.268120e-04
-3.268070e-04
-4.573280e-04
-4.573260e-04
-3.268130e-04
-3.268090e-04
-4.573280e-04
-4.573270e-04
-3.268070e-04
-3.268080e-04
-4.573260e-04
-4.573250e-04
-4.573280e-04
-4.573280e-04
-4.290040e-04
-4.289950e-04
-4.573280e-04
-4.573260e-04
-4.289960e-04
-4.289960e-04
-4.573280e-04
-4.573270e-04
-4.289950e-04
-4.289900e-04
-4.573260e-04
-4.573250e-04
-4.289960e-04
-4.289980e-04
-4.290040e-04
-4.289950e-04
-6.288580e-04
-6.288600e-04
-4.289960e-04
-4.289960e-04
-6.288600e-04
-6.288650e-04
-4.289950e-04
-4.289900e-04
-6.288600e-04
-6.288630e-04
-4.289960e-04
-4.289980e-04
-6.288650e-04
-6.288660e-04
-6.288580e-04
-6.288600e-04
-6.298800e-04
-6.298640e-04
-6.288600e-04
-6.288650e-04
-6.298640e-04
-6.298670e-04
-6.288600e-04
-6.288630e-04
-6.298640e-04
-6.298640e-04
-6.288650e-04
-6.288660e-04
-6.298670e-04
-6.298610e-04
-6.298800e-04
-6.298640e-04
-5.421960e-04
-5.422210e-04
-6.298640e-04
-6.298670e-04
-5.422200e-04
-5.422170e-04
-6.298640e-04
-6.298640e-04
-5.422210e-04
-5.422250e-04
-6.298670e-04
-6.298610e-04
-5.422170e-04
-5.422220e-04
-5.421960e-04
-5.422210e-04
9.437460e-05
9.437560e-05
-5.422200e-04
-5.422170e-04
9.437560e-05
9.437710e-05
-5.422210e-04
-5.422250e-04
9.437560e-05
9.437790e-05
-5.422170e-04
-5.422220e-04
9.437710e-05
9.437910e-05
9.437460e-05
9.437560e-05
3.978190e-05
3.978340e-05
9.437560e-05
9.437710e-05
3.978340e-05
3.978340e-05
9.437560e-05
9.437790e-05
3.978340e-05
3.978370e-05
9.437710e-05
9.437910e-05
3.978340e-05
3.978440e-05
0.000000e+00
0.000000e+00
-6.099680e-02
-6.099680e-02
0.000000e+00
0.000000e+00
-6.099680e-02
-6.099680e-02
0.000000e+00
0.000000e+00
-6.099680e-02
-6.099680e-02
0.000000e+00
0.000000e+00
-6.099680e-02
-6.099680e-02
-6.099680e-02
-6.099680e-02
-6.697670e-02
-6.697670e-02
-6.099680e-02
-6.099680e-02
-6.697670e-02
-6.697670e-02
-6.099680e-02
-6.099680e-02
-6.697670e-02
-6.697670e-02