<?xml version="1.0"?>
<VTKFile type="UnstructuredGrid" version="0.1" byte_order="LittleEndian" compressor="vtkZLibDataCompressor">
<UnstructuredGrid>
<Piece NumberOfPoints="960" NumberOfCells="120">
<Points>
<DataArray type="Float32" NumberOfComponents="3" format="ascii">
-4.000000e+02 -6.000000e+03 -4.000000e+02
0.000000e+00 -6.000000e+03 -4.000000e+02
-4.000000e+02 -5.600140e+03 -4.000000e+02
3.155840e-10 -5.600140e+03 -4.000000e+02
-4.000000e+02 -6.000000e+03 0.000000e+00
0.000000e+00 -6.000000e+03 0.000000e+00
-4.000000e+02 -5.600140e+03 1.425010e-09
-3.030610e-12 -5.600140e+03 8.601570e-10
0.000000e+00 -6.000000e+03 -4.000000e+02
4.000000e+02 -6.000000e+03 -4.000000e+02
3.155840e-10 -5.600140e+03 -4.000000e+02
4.000000e+02 -5.600140e+03 -4.000000e+02
0.000000e+00 -6.000000e+03 0.000000e+00
4.000000e+02 -6.000000e+03 0.000000e+00
-3.030610e-12 -5.600140e+03 8.601570e-10
4.000000e+02 -5.600140e+03 6.314370e-10
-4.000000e+02 -5.600140e+03 -4.000000e+02
3.155840e-10 -5.600140e+03 -4.000000e+02
-4.000000e+02 -5.200220e+03 -4.000000e+02
-5.062230e-10 -5.200220e+03 -4.000000e+02
-4.000000e+02 -5.600140e+03 1.425010e-09
-3.030610e-12 -5.600140e+03 8.601570e-10
-4.000000e+02 -5.200220e+03 1.434320e-09
5.288470e-11 -5.200220e+03 1.474140e-09
3.155840e-10 -5.600140e+03 -4.000000e+02
4.000000e+02 -5.600140e+03 -4.000000e+02
-5.062230e-10 -5.200220e+03 -4.000000e+02
4.000000e+02 -5.200220e+03 -4.000000e+02
-3.030610e-12 -5.600140e+03 8.601570e-10
4.000000e+02 -5.600140e+03 6.314370e-10
5.288470e-11 -5.200220e+03 1.474140e-09
4.000000e+02 -5.200220e+03 6.402600e-10
-4.000000e+02 -5.200220e+03 -4.000000e+02
-5.062230e-10 -5.200220e+03 -4.000000e+02
-4.000000e+02 -4.800250e+03 -4.000000e+02
-1.213110e-09 -4.800250e+03 -4.000000e+02
-4.000000e+02 -5.200220e+03 1.434320e-09
5.288470e-11 -5.200220e+03 1.474140e-09
-4.000000e+02 -4.800250e+03 1.122300e-09
-1.115130e-09 -4.800250e+03 1.142820e-09
-5.062230e-10 -5.200220e+03 -4.000000e+02
4.000000e+02 -5.200220e+03 -4.000000e+02
-1.213110e-09 -4.800250e+03 -4.000000e+02
4.000000e+02 -4.800250e+03 -4.000000e+02
5.288470e-11 -5.200220e+03 1.474140e-09
4.000000e+02 -5.200220e+03 6.402600e-10
-1.115130e-09 -4.800250e+03 1.142820e-09
4.000000e+02 -4.800250e+03 4.242950e-11
-4.000000e+02 -4.800250e+03 -4.000000e+02
-1.213110e-09 -4.800250e+03 -4.000000e+02
-4.000000e+02 -4.400250e+03 -4.000000e+02
-1.268670e-09 -4.400250e+03 -4.000000e+02
-4.000000e+02 -4.800250e+03 1.122300e-09
-1.115130e-09 -4.800250e+03 1.142820e-09
-4.000000e+02 -4.400250e+03 1.894670e-09
-1.099390e-09 -4.400250e+03 1.009500e-09
-1.213110e-09 -4.800250e+03 -4.000000e+02
4.000000e+02 -4.800250e+03 -4.000000e+02
-1.268670e-09 -4.400250e+03 -4.000000e+02
4.000000e+02 -4.400250e+03 -4.000000e+02
-1.115130e-09 -4.800250e+03 1.142820e-09
4.000000e+02 -4.800250e+03 4.242950e-11
-1.099390e-09 -4.400250e+03 1.009500e-09
4.000000e+02 -4.400250e+03 -4.138290e-10
-4.000000e+02 -4.400250e+03 -4.000000e+02
-1.268670e-09 -4.400250e+03 -4.000000e+02
-4.000000e+02 -4.000270e+03 -4.000000e+02
-5.705110e-10 -4.000270e+03 -4.000000e+02
-4.000000e+02 -4.400250e+03 1.894670e-09
-1.099390e-09 -4.400250e+03 1.009500e-09
-4.000000e+02 -4.000270e+03 1.626640e-09
-5.527710e-10 -4.000270e+03 8.607640e-10
-1.268670e-09 -4.400250e+03 -4.000000e+02
4.000000e+02 -4.400250e+03 -4.000000e+02
-5.705110e-10 -4.000270e+03 -4.000000e+02
4.000000e+02 -4.000270e+03 -4.000000e+02
-1.099390e-09 -4.400250e+03 1.009500e-09
4.000000e+02 -4.400250e+03 -4.138290e-10
-5.527710e-10 -4.000270e+03 8.607640e-10
4.000000e+02 -4.000270e+03 1.232420e-09
-4.000000e+02 -4.000270e+03 -4.000000e+02
-5.705110e-10 -4.000270e+03 -4.000000e+02
-4.000000e+02 -3.600290e+03 -4.000000e+02
-1.011630e-09 -3.600290e+03 -4.000000e+02
-4.000000e+02 -4.000270e+03 1.626640e-09
-5.527710e-10 -4.000270e+03 8.607640e-10
-4.000000e+02 -3.600290e+03 4.086480e-10
-1.740120e-10 -3.600290e+03 4.189430e-10
-5.705110e-10 -4.000270e+03 -4.000000e+02
4.000000e+02 -4.000270e+03 -4.000000e+02
-1.011630e-09 -3.600290e+03 -4.000000e+02
4.000000e+02 -3.600290e+03 -4.000000e+02
-5.527710e-10 -4.000270e+03 8.607640e-10
4.000000e+02 -4.000270e+03 1.232420e-09
-1.740120e-10 -3.600290e+03 4.189430e-10
4.000000e+02 -3.600290e+03 2.573060e-10
-4.000000e+02 -3.600290e+03 -4.000000e+02
-1.011630e-09 -3.600290e+03 -4.000000e+02
-4.000000e+02 -3.200290e+03 -4.000000e+02
-4.465640e-10 -3.200290e+03 -4.000000e+02
-4.000000e+02 -3.600290e+03 4.086480e-10
-1.740120e-10 -3.600290e+03 4.189430e-10
-4.000000e+02 -3.200290e+03 1.689260e-10
-3.823020e-10 -3.200290e+03 7.569470e-10
-1.011630e-09 -3.600290e+03 -4.000000e+02
4.000000e+02 -3.600290e+03 -4.000000e+02
-4.465640e-10 -3.200290e+03 -4.000000e+02
4.000000e+02 -3.200290e+03 -4.000000e+02
-1.740120e-10 -3.600290e+03 4.189430e-10
4.000000e+02 -3.600290e+03 2.573060e-10
-3.823020e-10 -3.200290e+03 7.569470e-10
4.000000e+02 -3.200290e+03 8.227680e-10
-4.000000e+02 -3.200290e+03 -4.000000e+02
-4.465640e-10 -3.200290e+03 -4.000000e+02
-4.000000e+02 -2.800290e+03 -4.000000e+02
-8.700940e-10 -2.800290e+03 -4.000000e+02
-4.000000e+02 -3.200290e+03 1.689260e-10
-3.823020e-10 -3.200290e+03 7.569470e-10
-4.000000e+02 -2.800290e+03 -9.666780e-11
-4.936690e-10 -2.800290e+03 1.992820e-10
-4.465640e-10 -3.200290e+03 -4.000000e+02
4.000000e+02 -3.200290e+03 -4.000000e+02
-8.700940e-10 -2.800290e+03 -4.000000e+02
4.000000e+02 -2.800290e+03 -4.000000e+02
-3.823020e-10 -3.200290e+03 7.569470e-10
4.000000e+02 -3.200290e+03 8.227680e-10
-4.936690e-10 -2.800290e+03 1.992820e-10
4.000000e+02 -2.800290e+03 7.998600e-10
-4.000000e+02 -2.800290e+03 -4.000000e+02
-8.700940e-10 -2.800290e+03 -4.000000e+02
-4.000000e+02 -2.400290e+03 -4.000000e+02
-6.658520e-10 -2.400290e+03 -4.000000e+02
-4.000000e+02 -2.800290e+03 -9.666780e-11
-4.936690e-10 -2.800290e+03 1.992820e-10
-4.000000e+02 -2.400290e+03 -7.496020e-10
-3.151590e-11 -2.400290e+03 -8.020290e-11
-8.700940e-10 -2.800290e+03 -4.000000e+02
4.000000e+02 -2.800290e+03 -4.000000e+02
-6.658520e-10 -2.400290e+03 -4.000000e+02
4.000000e+02 -2.400290e+03 -4.000000e+02
-4.936690e-10 -2.800290e+03 1.992820e-10
4.000000e+02 -2.800290e+03 7.998600e-10
-3.151590e-11 -2.400290e+03 -8.020290e-11
4.000000e+02 -2.400290e+03 -3.702350e-10
-4.000000e+02 -2.400290e+03 -4.000000e+02
-6.658520e-10 -2.400290e+03 -4.000000e+02
-4.000000e+02 -2.000300e+03 -4.000000e+02
-3.058480e-10 -2.000300e+03 -4.000000e+02
-4.000000e+02 -2.400290e+03 -7.496020e-10
-3.151590e-11 -2.400290e+03 -8.020290e-11
-4.000000e+02 -2.000300e+03 2.054950e-10
2.056460e-10 -2.000300e+03 -1.816980e-10
-6.658520e-10 -2.400290e+03 -4.000000e+02
4.000000e+02 -2.400290e+03 -4.000000e+02
-3.058480e-10 -2.000300e+03 -4.000000e+02
4.000000e+02 -2.000300e+03 -4.000000e+02
-3.151590e-11 -2.400290e+03 -8.020290e-11
4.000000e+02 -2.400290e+03 -3.702350e-10
2.056460e-10 -2.000300e+03 -1.816980e-10
4.000000e+02 -2.000300e+03 2.487240e-10
-4.000000e+02 -2.000300e+03 -4.000000e+02
-3.058480e-10 -2.000300e+03 -4.000000e+02
-4.000000e+02 -1.600300e+03 -4.000000e+02
-3.254710e-10 -1.600300e+03 -4.000000e+02
-4.000000e+02 -2.000300e+03 2.054950e-10
2.056460e-10 -2.000300e+03 -1.816980e-10
-4.000000e+02 -1.600300e+03 2.507100e-10
3.568750e-10 -1.600300e+03 1.177010e-10
-3.058480e-10 -2.000300e+03 -4.000000e+02
4.000000e+02 -2.000300e+03 -4.000000e+02
-3.254710e-10 -1.600300e+03 -4.000000e+02
4.000000e+02 -1.600300e+03 -4.000000e+02
2.056460e-10 -2.000300e+03 -1.816980e-10
4.000000e+02 -2.000300e+03 2.487240e-10
3.568750e-10 -1.600300e+03 1.177010e-10
4.000000e+02 -1.600300e+03 2.967340e-10
-4.000000e+02 -1.600300e+03 -4.000000e+02
-3.254710e-10 -1.600300e+03 -4.000000e+02
-4.000000e+02 -1.200300e+03 -4.000000e+02
-6.846590e-10 -1.200300e+03 -4.000000e+02
-4.000000e+02 -1.600300e+03 2.507100e-10
3.568750e-10 -1.600300e+03 1.177010e-10
-4.000000e+02 -1.200300e+03 1.749580e-10
3.182460e-10 -1.200300e+03 -4.883050e-10
-3.254710e-10 -1.600300e+03 -4.000000e+02
4.000000e+02 -1.600300e+03 -4.000000e+02
-6.846590e-10 -1.200300e+03 -4.000000e+02
4.000000e+02 -1.200300e+03 -4.000000e+02
3.568750e-10 -1.600300e+03 1.177010e-10
4.000000e+02 -1.600300e+03 2.967340e-10
3.182460e-10 -1.200300e+03 -4.883050e-10
4.000000e+02 -1.200300e+03 -8.308990e-10
-4.000000e+02 -1.200300e+03 -4.000000e+02
-6.846590e-10 -1.200300e+03 -4.000000e+02
-4.000000e+02 -8.002970e+02 -4.000000e+02
-4.398510e-10 -8.002970e+02 -4.000000e+02
-4.000000e+02 -1.200300e+03 1.749580e-10
3.182460e-10 -1.200300e+03 -4.883050e-10
-4.000000e+02 -8.002970e+02 -8.054110e-11
-5.295160e-10 -8.002970e+02 -1.930880e-10
-6.846590e-10 -1.200300e+03 -4.000000e+02
4.000000e+02 -1.200300e+03 -4.000000e+02
-4.398510e-10 -8.002970e+02 -4.000000e+02
4.000000e+02 -8.002970e+02 -4.000000e+02
3.182460e-10 -1.200300e+03 -4.883050e-10
4.000000e+02 -1.200300e+03 -8.308990e-10
-5.295160e-10 -8.002970e+02 -1.930880e-10
4.000000e+02 -8.002970e+02 -1.879740e-10
-4.000000e+02 -8.002970e+02 -4.000000e+02
-4.398510e-10 -8.002970e+02 -4.000000e+02
-4.000000e+02 -4.002970e+02 -4.000000e+02
-1.235180e-10 -4.002970e+02 -4.000000e+02
-4.000000e+02 -8.002970e+02 -8.054110e-11
-5.295160e-10 -8.002970e+02 -1.930880e-10
-4.000000e+02 -4.002970e+02 -3.325210e-10
-3.514990e-10 -4.002970e+02 -1.407750e-10
-4.398510e-10 -8.002970e+02 -4.000000e+02
4.000000e+02 -8.002970e+02 -4.000000e+02
-1.235180e-10 -4.002970e+02 -4.000000e+02
4.000000e+02 -4.002970e+02 -4.000000e+02
-5.295160e-10 -8.002970e+02 -1.930880e-10
4.000000e+02 -8.002970e+02 -1.879740e-10
-3.514990e-10 -4.002970e+02 -1.407750e-10
4.000000e+02 -4.002970e+02 3.684360e-11
-4.000000e+02 -4.002970e+02 -4.000000e+02
-1.235180e-10 -4.002970e+02 -4.000000e+02
-4.000000e+02 -2.968300e-01 -4.000000e+02
-1.223670e-11 -2.968300e-01 -4.000000e+02
-4.000000e+02 -4.002970e+02 -3.325210e-10
-3.514990e-10 -4.002970e+02 -1.407750e-10
-4.000000e+02 -2.968300e-01 2.854180e-10
1.208520e-10 -2.968300e-01 1.765040e-10
-1.235180e-10 -4.002970e+02 -4.000000e+02
4.000000e+02 -4.002970e+02 -4.000000e+02
-1.223670e-11 -2.968300e-01 -4.000000e+02
[...]
<PointData>
<DataArray type="Float32" Name="V1" format="ascii">
0.000000e+00
0.000000e+00
-4.713380e-10
-3.842050e-10
0.000000e+00
0.000000e+00
1.414010e-10
1.106220e-10
0.000000e+00
0.000000e+00
-3.842050e-10
1.099790e-10
0.000000e+00
0.000000e+00
1.106220e-10
-2.985140e-10
-4.713380e-10
-3.842050e-10
-5.341830e-10
-1.579410e-10
1.414010e-10
1.106220e-10
9.269640e-10
7.444080e-10
-3.842050e-10
1.099790e-10
-1.579410e-10
-1.382590e-09
1.106220e-10
-2.985140e-10
7.444080e-10
4.713380e-10
-5.341830e-10
-1.579410e-10
5.184710e-10
-5.577350e-10
9.269640e-10
7.444080e-10
0.000000e+00
7.289000e-10
-1.579410e-10
-1.382590e-09
-5.577350e-10
-1.649680e-09
7.444080e-10
4.713380e-10
7.289000e-10
8.484080e-10
5.184710e-10
-5.577350e-10
8.169850e-10
1.030460e-09
0.000000e+00
7.289000e-10
-2.199580e-10
-1.098810e-09
-5.577350e-10
-1.649680e-09
1.030460e-09
-1.099790e-10
7.289000e-10
8.484080e-10
-1.098810e-09
9.898090e-10
8.169850e-10
1.030460e-09
1.523990e-09
8.532890e-10
-2.199580e-10
-1.098810e-09
-9.269640e-10
-3.236170e-11
1.030460e-09
-1.099790e-10
8.532890e-10
-2.199580e-10
-1.098810e-09
9.898090e-10
-3.236170e-11
-1.822510e-09
1.523990e-09
8.532890e-10
-1.586840e-09
-4.809830e-10
-9.269640e-10
-3.236170e-11
-3.770700e-10
-6.736830e-10
8.532890e-10
-2.199580e-10
-4.809830e-10
1.162630e-09
-3.236170e-11
-1.822510e-09
-6.736830e-10
9.740980e-10
-1.586840e-09
-4.809830e-10
3.927810e-10
-9.219600e-11
-3.770700e-10
-6.736830e-10
-1.712530e-09
-2.109480e-10
-4.809830e-10
1.162630e-09
-9.219600e-11
-8.012740e-10
-6.736830e-10
9.740980e-10
-2.109480e-10
3.927810e-10
3.927810e-10
-9.219600e-11
9.426750e-10
1.048100e-09
-1.712530e-09
-2.109480e-10
-1.099790e-10
-1.450590e-10
-9.219600e-11
-8.012740e-10
1.048100e-09
-4.556260e-10
-2.109480e-10
3.927810e-10
-1.450590e-10
0.000000e+00
9.426750e-10
1.048100e-09
-3.142250e-11
-2.249090e-10
-1.099790e-10
-1.450590e-10
0.000000e+00
-7.069110e-10
1.048100e-09
-4.556260e-10
-2.249090e-10
-1.885350e-10
-1.450590e-10
0.000000e+00
-7.069110e-10
0.000000e+00
-3.142250e-11
-2.249090e-10
-1.335460e-09
-5.883150e-10
0.000000e+00
-7.069110e-10
1.256900e-10
-1.049100e-09
-2.249090e-10
-1.885350e-10
-5.883150e-10
-2.199580e-10
-7.069110e-10
0.000000e+00
-1.049100e-09
0.000000e+00
-1.335460e-09
-5.883150e-10
1.838220e-09
1.159010e-09
1.256900e-10
-1.049100e-09
0.000000e+00
9.725980e-10
-5.883150e-10
-2.199580e-10
1.159010e-09
-7.541400e-10
-1.049100e-09
0.000000e+00
9.725980e-10
-5.656050e-10
1.838220e-09
1.159010e-09
0.000000e+00
7.965850e-10
0.000000e+00
9.725980e-10
3.142250e-11
9.033350e-10
1.159010e-09
-7.541400e-10
7.965850e-10
1.618260e-09
9.725980e-10
-5.656050e-10
9.033350e-10
1.414010e-10
0.000000e+00
7.965850e-10
0.000000e+00
-5.266040e-10
3.142250e-11
9.033350e-10
0.000000e+00
-7.411060e-11
7.965850e-10
1.618260e-09
-5.266040e-10
-6.441610e-10
9.033350e-10
1.414010e-10
-7.411060e-11
1.523990e-09
0.000000e+00
-5.266040e-10
0.000000e+00
5.032380e-10
0.000000e+00
-7.411060e-11
0.000000e+00
-7.520250e-10
-5.266040e-10
-6.441610e-10
5.032380e-10
-2.136730e-09
-7.411060e-11
1.523990e-09
-7.520250e-10
-6.912950e-10
0.000000e+00
5.032380e-10
3.142250e-11
6.294790e-10
0.000000e+00
-7.520250e-10
1.256900e-10
-8.130800e-10
5.032380e-10
-2.136730e-09
6.294790e-10
-5.341830e-10
-7.520250e-10
-6.912950e-10
-8.130800e-10
0.000000e+00
3.142250e-11
6.294790e-10
-7.070060e-10
3.924590e-10
1.256900e-10
-8.130800e-10
0.000000e+00
1.743210e-10
6.294790e-10
-5.341830e-10
3.924590e-10
-7.070060e-10
-8.130800e-10
0.000000e+00
1.743210e-10
-1.885350e-10
-7.070060e-10
3.924590e-10
3.770700e-10
-4.135830e-10
0.000000e+00
1.743210e-10
0.000000e+00
-4.572060e-10
3.924590e-10
-7.070060e-10
-4.135830e-10
9.426750e-10
1.743210e-10
-1.885350e-10
-4.572060e-10
5.184710e-10
3.770700e-10
-4.135830e-10
0.000000e+00
8.589190e-11
0.000000e+00
-4.572060e-10
0.000000e+00
2.955390e-10
-4.135830e-10
9.426750e-10
8.589190e-11
0.000000e+00
-4.572060e-10
5.184710e-10
2.955390e-10
0.000000e+00
0.000000e+00
8.589190e-11
1.052650e-09
3.400730e-10
0.000000e+00
2.955390e-10
0.000000e+00
-4.078560e-10
8.589190e-11
0.000000e+00
3.400730e-10
0.000000e+00
2.955390e-10
0.000000e+00
-4.078560e-10
-8.326970e-10
1.052650e-09
3.400730e-10
-5.813160e-10
8.016530e-11
0.000000e+00
-4.078560e-10
-9.426750e-11
4.391240e-11
3.400730e-10
0.000000e+00
8.016530e-11
7.855630e-10
-4.078560e-10
-8.326970e-10
4.391240e-11
0.000000e+00
-5.813160e-10
8.016530e-11
0.000000e+00
-1.826020e-10
-9.426750e-11
4.391240e-11
0.000000e+00
-8.152390e-11
8.016530e-11
7.855630e-10
-1.826020e-10
-3.456480e-10
4.391240e-11
0.000000e+00
-8.152390e-11
-5.341830e-10
0.000000e+00
-1.826020e-10
2.670910e-10
8.419670e-12
0.000000e+00
-8.152390e-11
0.000000e+00
-1.810270e-10
-1.826020e-10
-3.456480e-10
8.419670e-12
0.000000e+00
-8.152390e-11
-5.341830e-10
-1.810270e-10
-1.256900e-10
2.670910e-10
8.419670e-12
6.284500e-11
1.919380e-10
0.000000e+00
-1.810270e-10
0.000000e+00
-1.682010e-10
8.419670e-12
0.000000e+00
1.919380e-10
5.970280e-10
-1.810270e-10
-1.256900e-10
-1.682010e-10
0.000000e+00
6.284500e-11
1.919380e-10
-4.399150e-10
-5.367790e-10
0.000000e+00
-1.682010e-10
-3.456480e-10
-1.167410e-10
1.919380e-10
5.970280e-10
-5.367790e-10
-6.598730e-10
-1.682010e-10
0.000000e+00
-1.167410e-10
1.099790e-10
-4.399150e-10
-5.367790e-10
1.759660e-09
1.006420e-09
-3.456480e-10
-1.167410e-10
1.099790e-10
-1.568260e-10
-5.367790e-10
-6.598730e-10
1.006420e-09
1.885350e-10
-1.167410e-10
1.099790e-10
-1.568260e-10
-4.713380e-10
1.759660e-09
1.006420e-09
-1.021230e-09
-3.676560e-10
1.099790e-10
-1.568260e-10
1.256900e-10
2.755950e-10
1.006420e-09
1.885350e-10
-3.676560e-10
2.356690e-10
-1.568260e-10
-4.713380e-10
2.755950e-10
4.084930e-10
-1.021230e-09
-3.676560e-10
-2.560930e-09
-1.609610e-09
1.256900e-10
2.755950e-10
-5.184710e-10
1.448850e-11
-3.676560e-10
2.356690e-10
-1.609610e-09
-6.598730e-10
2.755950e-10
4.084930e-10
1.448850e-11
6.284500e-10
-2.560930e-09
-1.609610e-09
7.070060e-10
3.274830e-10
-5.184710e-10
1.448850e-11
0.000000e+00
-1.635320e-10
-1.609610e-09
-6.598730e-10
3.274830e-10
0.000000e+00
1.448850e-11
6.284500e-10
-1.635320e-10
-2.985140e-10
7.070060e-10
3.274830e-10
8.326970e-10
5.904610e-10
0.000000e+00
-1.635320e-10
2.356690e-10
1.442950e-10
3.274830e-10
0.000000e+00
5.904610e-10
3.299360e-10
-1.635320e-10
-2.985140e-10
1.442950e-10
0.000000e+00
8.326970e-10
5.904610e-10
5.813160e-10
5.424490e-10
2.356690e-10
1.442950e-10
5.341830e-10
3.380590e-10
5.904610e-10
3.299360e-10
5.424490e-10
5.184710e-10
1.442950e-10
0.000000e+00
3.380590e-10
1.414010e-10
0.000000e+00
0.000000e+00
1.414010e-10
1.106220e-10
0.000000e+00
0.000000e+00
-9.740980e-10
4.007560e-10
0.000000e+00
0.000000e+00
1.106220e-10
-2.985140e-10
0.000000e+00
0.000000e+00
4.007560e-10
2.121020e-09
1.414010e-10
1.106220e-10
9.269640e-10
7.444080e-10
-9.740980e-10
4.007560e-10
2.545220e-09
3.269430e-10
1.106220e-10
-2.985140e-10
7.444080e-10
4.713380e-10
4.007560e-10
2.121020e-09
3.269430e-10
-4.870490e-10
9.269640e-10
7.444080e-10
0.000000e+00
7.289000e-10
2.545220e-09
3.269430e-10
-9.426750e-10
9.114620e-10
7.444080e-10
4.713380e-10
7.289000e-10
8.484080e-10
3.269430e-10
-4.870490e-10
9.114620e-10
1.681100e-09
0.000000e+00
7.289000e-10
-2.199580e-10
-1.098810e-09
-9.426750e-10
9.114620e-10
-2.388110e-09
-1.463790e-09
7.289000e-10
8.484080e-10
-1.098810e-09
9.898090e-10
9.114620e-10
1.681100e-09
-1.463790e-09
-9.426750e-11
-2.199580e-10
-1.098810e-09
-9.269640e-10
-3.236170e-11
-2.388110e-09
-1.463790e-09
-5.656050e-10
4.607970e-10
-1.098810e-09
9.898090e-10
-3.236170e-11
-1.822510e-09
-1.463790e-09
-9.426750e-11
4.607970e-10
-6.912950e-10
-9.269640e-10
-3.236170e-11
-3.770700e-10
-6.736830e-10
-5.656050e-10
4.607970e-10
-1.822510e-09
-3.493670e-10
-3.236170e-11
-1.822510e-09
-6.736830e-10
9.740980e-10
4.607970e-10
-6.912950e-10
-3.493670e-10
1.728240e-10
-3.770700e-10
-6.736830e-10
-1.712530e-09
-2.109480e-10
-1.822510e-09
-3.493670e-10
1.759660e-09
2.380310e-10
-6.736830e-10
9.740980e-10
-2.109480e-10
3.927810e-10
-3.493670e-10
1.728240e-10
2.380310e-10
-9.269640e-10
-1.712530e-09
-2.109480e-10
-1.099790e-10
-1.450590e-10
1.759660e-09
2.380310e-10
1.036940e-09
-4.003880e-10
-2.109480e-10
3.927810e-10
-1.450590e-10
0.000000e+00
2.380310e-10
-9.269640e-10
-4.003880e-10
-1.241190e-09
-1.099790e-10
-1.450590e-10
0.000000e+00
-7.069110e-10
1.036940e-09
-4.003880e-10
-1.508280e-09
1.585100e-10
-1.450590e-10
0.000000e+00
-7.069110e-10
0.000000e+00
-4.003880e-10
-1.241190e-09
1.585100e-10
7.541400e-10
0.000000e+00
-7.069110e-10
1.256900e-10
-1.049100e-09
-1.508280e-09
1.585100e-10
6.284500e-11
-6.786430e-10
-7.069110e-10
0.000000e+00
-1.049100e-09
0.000000e+00
1.585100e-10
7.541400e-10
-6.786430e-10
-3.456480e-10
1.256900e-10
-1.049100e-09
0.000000e+00
9.725980e-10
6.284500e-11
-6.786430e-10
1.162630e-09
9.464490e-10
-1.049100e-09
0.000000e+00
9.725980e-10
-5.656050e-10
-6.786430e-10
-3.456480e-10
9.464490e-10
1.571130e-11
0.000000e+00
9.725980e-10
3.142250e-11
9.033350e-10
1.162630e-09
9.464490e-10
-8.641190e-10
1.345730e-09
9.725980e-10
-5.656050e-10
9.033350e-10
1.414010e-10
9.464490e-10
1.571130e-11
1.345730e-09
2.576650e-09
3.142250e-11
9.033350e-10
0.000000e+00
-7.411060e-11
-8.641190e-10
1.345730e-09
-3.142250e-11
3.579140e-10
9.033350e-10
1.414010e-10
-7.411060e-11
1.523990e-09
1.345730e-09
2.576650e-09
3.579140e-10
-3.927810e-10
0.000000e+00
-7.411060e-11
0.000000e+00
-7.520250e-10
-3.142250e-11
3.579140e-10
0.000000e+00
6.199730e-10
-7.411060e-11
1.523990e-09
-7.520250e-10
-6.912950e-10
3.579140e-10
-3.927810e-10
6.199730e-10
-8.641190e-10
0.000000e+00
-7.520250e-10
1.256900e-10
-8.130800e-10
0.000000e+00
6.199730e-10
2.231000e-09
-2.708150e-10
-7.520250e-10
-6.912950e-10
-8.130800e-10
0.000000e+00
6.199730e-10
-8.641190e-10
-2.708150e-10
3.770700e-10
1.256900e-10
-8.130800e-10
0.000000e+00
1.743210e-10
2.231000e-09
-2.708150e-10
-1.649680e-09
-1.583240e-10
-8.130800e-10
0.000000e+00
1.743210e-10
-1.885350e-10
-2.708150e-10
3.770700e-10
-1.583240e-10
0.000000e+00
0.000000e+00
1.743210e-10
0.000000e+00
-4.572060e-10
-1.649680e-09
-1.583240e-10
6.284500e-10
1.120680e-09
1.743210e-10
-1.885350e-10
-4.572060e-10
5.184710e-10
-1.583240e-10
0.000000e+00
1.120680e-09
7.070060e-10
0.000000e+00
-4.572060e-10
0.000000e+00
2.955390e-10
6.284500e-10
1.120680e-09
0.000000e+00
3.723070e-11
-4.572060e-10
5.184710e-10
2.955390e-10
0.000000e+00
1.120680e-09
7.070060e-10
3.723070e-11
-2.356690e-10
0.000000e+00
2.955390e-10
0.000000e+00
-4.078560e-10
0.000000e+00
3.723070e-11
4.870490e-10
-6.678640e-10
2.955390e-10
0.000000e+00
-4.078560e-10
-8.326970e-10
3.723070e-11
-2.356690e-10
-6.678640e-10
-1.649680e-09
0.000000e+00
-4.078560e-10
-9.426750e-11
4.391240e-11
4.870490e-10
-6.678640e-10
-9.426750e-11
8.046790e-10
-4.078560e-10
-8.326970e-10
4.391240e-11
0.000000e+00
-6.678640e-10
-1.649680e-09
8.046790e-10
2.042460e-09
-9.426750e-11
4.391240e-11
0.000000e+00
-8.152390e-11
-9.426750e-11
8.046790e-10
0.000000e+00
1.894780e-10
4.391240e-11
0.000000e+00
-8.152390e-11
-5.341830e-10
8.046790e-10
2.042460e-09
1.894780e-10
4.242040e-10
0.000000e+00
-8.152390e-11
0.000000e+00
-1.810270e-10
0.000000e+00
1.894780e-10
2.985140e-10
-3.653680e-10
-8.152390e-11
-5.341830e-10
-1.810270e-10
-1.256900e-10
1.894780e-10
4.242040e-10
-3.653680e-10
-7.855630e-10
0.000000e+00
-1.810270e-10
0.000000e+00
-1.682010e-10
2.985140e-10
-3.653680e-10
-7.227180e-10
-9.063720e-10
-1.810270e-10
-1.256900e-10
-1.682010e-10
0.000000e+00
-3.653680e-10
-7.855630e-10
-9.063720e-10
-8.955420e-10
0.000000e+00
-1.682010e-10
-3.456480e-10
-1.167410e-10
-7.227180e-10
-9.063720e-10
1.099790e-10
5.670230e-10
-1.682010e-10
0.000000e+00
-1.167410e-10
1.099790e-10
-9.063720e-10
-8.955420e-10
5.670230e-10
1.084080e-09
-3.456480e-10
-1.167410e-10
1.099790e-10
-1.568260e-10
1.099790e-10
5.670230e-10
9.426750e-11
-1.370380e-09
-1.167410e-10
1.099790e-10
-1.568260e-10
-4.713380e-10
5.670230e-10
1.084080e-09
-1.370380e-09
-2.765180e-09
1.099790e-10
-1.568260e-10
1.256900e-10
2.755950e-10
9.426750e-11
-1.370380e-09
2.985140e-10
7.856530e-10
-1.568260e-10
-4.713380e-10
2.755950e-10
4.084930e-10
-1.370380e-09
-2.765180e-09
7.856530e-10
1.288320e-09
1.256900e-10
2.755950e-10
-5.184710e-10
1.448850e-11
2.985140e-10
7.856530e-10
-2.670910e-10
1.690780e-09
2.755950e-10
4.084930e-10
1.448850e-11
6.284500e-10
7.856530e-10
1.288320e-09
1.690780e-09
3.754990e-09
-5.184710e-10
1.448850e-11
0.000000e+00
-1.635320e-10
-2.670910e-10
1.690780e-09
-1.256900e-10
-7.302310e-10
1.448850e-11
6.284500e-10
-1.635320e-10
-2.985140e-10
1.690780e-09
3.754990e-09
-7.302310e-10
-1.225480e-09
0.000000e+00
-1.635320e-10
2.356690e-10
1.442950e-10
-1.256900e-10
-7.302310e-10
7.855630e-11
-2.838940e-10
-1.635320e-10
-2.985140e-10
1.442950e-10
0.000000e+00
-7.302310e-10
-1.225480e-09
-2.838940e-10
-6.755840e-10
2.356690e-10
1.442950e-10
5.341830e-10
3.380590e-10
7.855630e-11
-2.838940e-10
2.356690e-10
1.184480e-10
1.442950e-10
0.000000e+00
3.380590e-10
1.414010e-10
-2.838940e-10
-6.755840e-10
1.184480e-10
0.000000e+00
</DataArray>
<DataArray type="Float32" Name="V2" format="ascii">
0.000000e+00
0.000000e+00
-2.782770e-02
-2.782770e-02
0.000000e+00
0.000000e+00
-2.782770e-02
-2.782770e-02
0.000000e+00
0.000000e+00
-2.782770e-02
-2.782770e-02
0.000000e+00
0.000000e+00
-2.782770e-02
-2.782770e-02
-2.782770e-02
-2.782770e-02
-4.622440e-02
-4.622440e-02
-2.782770e-02
-2.782770e-02
-4.622440e-02
-4.622440e-02
-2.782770e-02
-2.782770e-02
-4.622440e-02
-4.622440e-02
-2.782770e-02
-2.782770e-02
-4.622440e-02
-4.622440e-02
-4.622440e-02
-4.622440e-02
-5.329250e-02
-5.329260e-02
-4.622440e-02
-4.622440e-02
-5.329250e-02
-5.329260e-02
-4.622440e-02
-4.622440e-02
-5.329260e-02
-5.329250e-02
-4.622440e-02
-4.622440e-02
-5.329260e-02
-5.329260e-02
-5.329250e-02
-5.329260e-02
-2.149350e-02
-2.149350e-02
-5.329250e-02
-5.329260e-02
-2.149350e-02
-2.149350e-02
-5.329260e-02
-5.329250e-02
-2.149350e-02
-2.149350e-02
-5.329260e-02
-5.329260e-02
-2.149350e-02
-2.149350e-02
-2.149350e-02
-2.149350e-02
9.216600e-03
9.216600e-03
-2.149350e-02
-2.149350e-02
9.216610e-03
9.216600e-03
-2.149350e-02
-2.149350e-02
9.216600e-03
9.216610e-03
-2.149350e-02
-2.149350e-02
9.216600e-03
9.216600e-03
9.216600e-03
9.216600e-03
1.595080e-04
1.595130e-04
9.216610e-03
9.216600e-03
1.595160e-04
1.595130e-04
9.216600e-03
9.216610e-03
1.595130e-04
1.595040e-04
9.216600e-03
9.216600e-03
1.595130e-04
1.595130e-04
1.595080e-04
1.595130e-04
-1.066860e-02
-1.066860e-02
1.595160e-04
1.595130e-04
-1.066860e-02
-1.066860e-02
1.595130e-04
1.595040e-04
-1.066860e-02
-1.066860e-02
1.595130e-04
1.595130e-04
-1.066860e-02
-1.066860e-02
-1.066860e-02
-1.066860e-02
-1.443800e-03
-1.443790e-03
-1.066860e-02
-1.066860e-02
-1.443790e-03
-1.443790e-03
-1.066860e-02
-1.066860e-02
-1.443790e-03
-1.443790e-03
-1.066860e-02
-1.066860e-02
-1.443790e-03
-1.443800e-03
-1.443800e-03
-1.443790e-03
3.088250e-03
3.088250e-03
-1.443790e-03
-1.443790e-03
3.088240e-03
3.088250e-03
-1.443790e-03
-1.443790e-03
3.088250e-03
3.088250e-03
-1.443790e-03
-1.443800e-03
3.088250e-03
3.088250e-03
3.088250e-03
3.088250e-03
-2.379740e-03
-2.379740e-03
3.088240e-03
3.088250e-03
-2.379750e-03
-2.379740e-03
3.088250e-03
3.088250e-03
-2.379740e-03
-2.379740e-03
3.088250e-03
3.088250e-03
-2.379740e-03
-2.379740e-03
-2.379740e-03
-2.379740e-03
-1.323240e-03
-1.323240e-03
-2.379750e-03
-2.379740e-03
-1.323230e-03
-1.323240e-03
-2.379740e-03
-2.379740e-03
-1.323240e-03
-1.323240e-03
-2.379740e-03
-2.379740e-03
-1.323240e-03
-1.323240e-03
-1.323240e-03
-1.323240e-03
5.623290e-04
5.623240e-04
-1.323230e-03
-1.323240e-03
5.623270e-04
5.623200e-04
-1.323240e-03
-1.323240e-03
5.623240e-04
5.623230e-04
-1.323240e-03
-1.323240e-03
5.623200e-04
5.623220e-04
5.623290e-04
5.623240e-04
4.086090e-06
4.090170e-06
5.623270e-04
5.623200e-04
4.088760e-06
4.089360e-06
5.623240e-04
5.623230e-04
4.090170e-06
4.086030e-06
5.623200e-04
5.623220e-04
4.089360e-06
4.087880e-06
4.086090e-06
4.090170e-06
-3.251920e-04
-3.251920e-04
4.088760e-06
4.089360e-06
-3.251870e-04
-3.251910e-04
4.090170e-06
4.086030e-06
-3.251920e-04
-3.251890e-04
4.089360e-06
4.087880e-06
-3.251910e-04
-3.251890e-04
-3.251920e-04
-3.251920e-04
1.273460e-04
1.273460e-04
-3.251870e-04
-3.251910e-04
1.273460e-04
1.273450e-04
-3.251920e-04
-3.251890e-04
1.273460e-04
1.273430e-04
-3.251910e-04
-3.251890e-04
1.273450e-04
1.273440e-04
1.273460e-04
1.273460e-04
5.009330e-05
5.009050e-05
1.273460e-04
1.273450e-04
5.009140e-05
5.009120e-05
1.273460e-04
1.273430e-04
5.009050e-05
5.009370e-05
1.273450e-04
1.273440e-04
5.009120e-05
5.009310e-05
5.009330e-05
5.009050e-05
-2.704030e-04
-2.704030e-04
5.009140e-05
5.009120e-05
-2.704030e-04
-2.704050e-04
5.009050e-05
5.009370e-05
-2.704030e-04
-2.704030e-04
5.009120e-05
5.009310e-05
-2.704050e-04
-2.704020e-04
-2.704030e-04
-2.704030e-04
-4.583660e-04
-4.583720e-04
-2.704030e-04
-2.704050e-04
-4.583690e-04
-4.583670e-04
-2.704030e-04
-2.704030e-04
-4.583720e-04
-4.583730e-04
-2.704050e-04
-2.704020e-04
-4.583670e-04
-4.583730e-04
-4.583660e-04
-4.583720e-04
-5.665640e-05
-5.664780e-05
-4.583690e-04
-4.583670e-04
-5.665110e-05
-5.665320e-05
-4.583720e-04
-4.583730e-04
-5.664780e-05
-5.665050e-05
-4.583670e-04
-4.583730e-04
-5.665320e-05
-5.665090e-05
-5.665640e-05
-5.664780e-05
1.753910e-05
1.753830e-05
-5.665110e-05
-5.665320e-05
1.754070e-05
1.753890e-05
-5.664780e-05
-5.665050e-05
1.753830e-05
1.753790e-05
-5.665320e-05
-5.665090e-05
1.753890e-05
1.754490e-05
1.753910e-05
1.753830e-05
-2.646430e-04
-2.646500e-04
1.754070e-05
1.753890e-05
-2.646500e-04
-2.646460e-04
1.753830e-05
1.753790e-05
-2.646500e-04
-2.646460e-04
1.753890e-05
1.754490e-05
-2.646460e-04
-2.646470e-04
-2.646430e-04
-2.646500e-04
-2.406160e-04
-2.406160e-04
-2.646500e-04
-2.646460e-04
-2.406140e-04
-2.406140e-04
-2.646500e-04
-2.646460e-04
-2.406160e-04
-2.406140e-04
-2.646460e-04
-2.646470e-04
-2.406140e-04
-2.406170e-04
-2.406160e-04
-2.406160e-04
-5.996580e-04
-5.996450e-04
-2.406140e-04
-2.406140e-04
-5.996460e-04
-5.996540e-04
-2.406160e-04
-2.406140e-04
-5.996450e-04
-5.996490e-04
-2.406140e-04
-2.406170e-04
-5.996540e-04
-5.996570e-04
-5.996580e-04
-5.996450e-04
-3.427430e-04
-3.427620e-04
-5.996460e-04
-5.996540e-04
-3.427600e-04
-3.427420e-04
-5.996450e-04
-5.996490e-04
-3.427620e-04
-3.427540e-04
-5.996540e-04
-5.996570e-04
-3.427420e-04
-3.427450e-04
-3.427430e-04
-3.427620e-04
-5.798720e-04
-5.798480e-04
-3.427600e-04
-3.427420e-04
-5.798510e-04
-5.798690e-04
-3.427620e-04
-3.427540e-04
-5.798480e-04
-5.798510e-04
-3.427420e-04
-3.427450e-04
-5.798690e-04
-5.798700e-04
-5.798720e-04
-5.798480e-04
-5.616280e-04
-5.616300e-04
-5.798510e-04
-5.798690e-04
-5.616300e-04
-5.616350e-04
-5.798480e-04
-5.798510e-04
-5.616300e-04
-5.616370e-04
-5.798690e-04
-5.798700e-04
-5.616350e-04
-5.616410e-04
-5.616280e-04
-5.616300e-04
-5.183750e-04
-5.183910e-04
-5.616300e-04
-5.616350e-04
-5.183900e-04
-5.183770e-04
-5.616300e-04
-5.616370e-04
-5.183910e-04
-5.183810e-04
-5.616350e-04
-5.616410e-04
-5.183770e-04
-5.183630e-04
-5.183750e-04
-5.183910e-04
1.147740e-04
1.147750e-04
-5.183900e-04
-5.183770e-04
1.147760e-04
1.147740e-04
-5.183910e-04
-5.183810e-04
1.147750e-04
1.147720e-04
-5.183770e-04
-5.183630e-04
1.147740e-04
1.147690e-04
1.147740e-04
1.147750e-04
-1.082640e-04
-1.082630e-04
1.147760e-04
1.147740e-04
-1.082630e-04
-1.082630e-04
1.147750e-04
1.147720e-04
-1.082630e-04
-1.082640e-04
1.147740e-04
1.147690e-04
-1.082630e-04
-1.082620e-04
-1.082640e-04
-1.082630e-04
2.479680e-04
2.479670e-04
-1.082630e-04
-1.082630e-04
2.479680e-04
2.479670e-04
-1.082630e-04
-1.082640e-04
2.479670e-04
2.479670e-04
-1.082630e-04
-1.082620e-04
2.479670e-04
2.479680e-04
0.000000e+00
0.000000e+00
-2.782770e-02
-2.782770e-02
0.000000e+00
0.000000e+00
-2.782770e-02
-2.782770e-02
0.000000e+00
0.000000e+00
-2.782770e-02
-2.782770e-02
0.000000e+00
0.000000e+00
-2.782770e-02
-2.782770e-02
-2.782770e-02
-2.782770e-02
-4.622440e-02
-4.622440e-02
-2.782770e-02
-2.782770e-02
-4.622440e-02
-4.622440e-02
-2.782770e-02
-2.782770e-02
-4.622440e-02
-4.622440e-02
-2.782770e-02