MercuryDPM 0.14 name oneDimChain revision 6406 repository https://svn.mercurydpm.org/SourceCode/Branches/OomphlibCouplingExplicit
dataFile    fileType ONE_FILE saveCount 124 counter 102 lastSavedTimeStep 12443
fStatFile   fileType ONE_FILE saveCount 124 counter 102 lastSavedTimeStep 12443
eneFile     fileType ONE_FILE saveCount 124 counter 102 lastSavedTimeStep 12443
restartFile fileType ONE_FILE saveCount 124 counter 102 lastSavedTimeStep 12443
statFile    fileType ONE_FILE saveCount 124 counter 0
interactionFile fileType NO_FILE saveCount 0 counter 0
xMin -500 xMax 500 yMin -5000 yMax 5000 zMin -500 zMax 500
timeStep 0.00803718916976729 time 100.006744839431 ntimeSteps 12443 timeMax 100
systemDimensions 3 particleDimensions 3 gravity 0 0 -0 writeVTK 1 MULTIPLE_FILES NO_FILE 102 102 0 0 random  0 1103515245 12345 1073741824 607 273 784607267
Species 1
LinearViscoelasticReversibleAdhesiveSpecies id 0 density 2500 stiffness 10000000000 dissipation -0 adhesionForceMax 0 adhesionStiffness 10000000000
Walls 0
Boundaries 0
Particles 7680
BaseParticle id 0 indSpecies 0 position -350.000000005602 2049.70951343501 -350.000000002123 orientation 1 0 0 0 velocity -2.97025090508521e-09 0.021745916517829 -5.35337355929917e-10 angularVelocity 0 0 0 force 2.14104121162912 -25419113.9036919 1.94963848036861 torque 0 0 0 radius 50 invMass 7.63943726841098e-10
BaseParticle id 1 indSpecies 0 position -350.000000001078 2049.70951340169 -249.999999999778 orientation 1 0 0 0 velocity -7.94258418215693e-10 0.0217458184555353 7.31489740395141e-10 angularVelocity 0 0 0 force 0.232643434901097 -25419330.9064351 2.43466813479722 torque 0 0 0 radius 50 invMass 7.63943726841098e-10
BaseParticle id 2 indSpecies 0 position -350.000000002496 2049.70951347358 -149.999999999409 orientation 1 0 0 0 velocity -1.92009830614224e-10 0.0217458229294933 9.95107467496917e-10 angularVelocity 0 0 0 force -0.530340183369927 -25420077.1051382 2.91736707597788 torque 0 0 0 radius 50 invMass 7.63943726841098e-10
BaseParticle id 3 indSpecies 0 position -350.000000001987 2049.70951327605 -49.9999999989351 orientation 1 0 0 0 velocity 1.13286395592832e-09 0.0217456739287119 1.73972738235195e-09 angularVelocity 0 0 0 force -1.86573715632841 -25419119.9552777 3.40029502166188 torque 0 0 0 radius 50 invMass 7.63943726841098e-10
BaseParticle id 4 indSpecies 0 position -350.000000002087 2049.70951328787 50.0000000015798 orientation 1 0 0 0 velocity 1.37085762472733e-09 0.0217457114470885 2.05508653129922e-09 angularVelocity 0 0 0 force -0.366858010186118 -25419108.4808949 2.39894597567228 torque 0 0 0 radius 50 invMass 7.63943726841098e-10
BaseParticle id 5 indSpecies 0 position -350.000000002756 2049.70951341875 150.000000002092 orientation 1 0 0 0 velocity -2.67872562298595e-10 0.0217457706133312 3.15431008384716e-09 angularVelocity 0 0 0 force -0.638934699525372 -25419780.8432751 3.08275751802863 torque 0 0 0 radius 50 invMass 7.63943726841098e-10
BaseParticle id 6 indSpecies 0 position -350.000000004025 2049.70951347083 250.000000002925 orientation 1 0 0 0 velocity -2.38702665424837e-09 0.0217458689502924 3.62116394771735e-09 angularVelocity 0 0 0 force -0.91258707868653 -25419687.3981933 3.76693831273135 torque 0 0 0 radius 50 invMass 7.63943726841098e-10
BaseParticle id 7 indSpecies 0 position -350.000000001852 2049.70951345612 350.000000003483 orientation 1 0 0 0 velocity -3.49402490856098e-09 0.021745982365212 4.39029353009073e-09 angularVelocity 0 0 0 force -1.17865152811856 -25419008.0231791 4.45088966065051 torque 0 0 0 radius 50 invMass 7.63943726841098e-10
BaseParticle id 8 indSpecies 0 position -250.000000002381 2049.70951328401 -350.00000000068 orientation 1 0 0 0 velocity -1.6637519117631e-09 0.0217456813274849 7.21987268944718e-10 angularVelocity 0 0 0 force 1.86882263704175 -25418772.2268204 0.530796430229015 torque 0 0 0 radius 50 invMass 7.63943726841098e-10
BaseParticle id 9 indSpecies 0 position -250.000000001135 2049.70951313667 -249.999999999369 orientation 1 0 0 0 velocity -1.39951906727102e-09 0.0217455427592304 1.25664946801698e-09 angularVelocity 0 0 0 force -0.312918106844806 -25418045.5200402 1.06057998109615 torque 0 0 0 radius 50 invMass 7.63943726841098e-10
BaseParticle id 10 indSpecies 0 position -250.000000000924 2049.70951325324 -149.999999999108 orientation 1 0 0 0 velocity -6.70626739611582e-10 0.0217456052103622 1.74383075415639e-09 angularVelocity 0 0 0 force -1.34889416123876 -25418862.4567206 1.58879060029879 torque 0 0 0 radius 50 invMass 7.63943726841098e-10
BaseParticle id 11 indSpecies 0 position -249.999999999107 2049.70951350715 -49.9999999990978 orientation 1 0 0 0 velocity -4.95612522468711e-10 0.0217459046393471 1.6641894155165e-09 angularVelocity 0 0 0 force -7.8418368627758 -25420161.1604554 2.11667918932129 torque 0 0 0 radius 50 invMass 7.63943726841098e-10
BaseParticle id 12 indSpecies 0 position -250.000000000229 2049.70951353441 50.0000000012423 orientation 1 0 0 0 velocity 5.78658455943794e-10 0.0217459202091621 2.02585721064978e-09 angularVelocity 0 0 0 force -3.8197971803176 -25420320.4563428 1.65857927985017 torque 0 0 0 radius 50 invMass 7.63943726841098e-10
BaseParticle id 13 indSpecies 0 position -250.000000000915 2049.70951330879 150.00000000164 orientation 1 0 0 0 velocity -1.98941582587586e-09 0.0217456570032156 2.75386901800122e-09 angularVelocity 0 0 0 force -1.00842629402195 -25419180.7430965 2.2551721824696 torque 0 0 0 radius 50 invMass 7.63943726841098e-10
BaseParticle id 14 indSpecies 0 position -250.000000003246 2049.70951304188 250.00000000206 orientation 1 0 0 0 velocity -1.9860902283799e-09 0.0217454192133377 2.60513215496738e-09 angularVelocity 0 0 0 force -1.3453361445546 -25417659.6223131 2.85193640785387 torque 0 0 0 radius 50 invMass 7.63943726841098e-10
BaseParticle id 15 indSpecies 0 position -250.000000001137 2049.70951323374 350.000000002956 orientation 1 0 0 0 velocity -2.46274346865713e-09 0.0217456577985606 2.7236754939543e-09 angularVelocity 0 0 0 force -1.67472924947378 -25418438.8041227 3.44918836334978 torque 0 0 0 radius 50 invMass 7.63943726841098e-10
BaseParticle id 16 indSpecies 0 position -150.000000002232 2049.709513399 -350.000000000272 orientation 1 0 0 0 velocity -1.5280251650016e-09 0.0217458077503222 1.70400553491632e-09 angularVelocity 0 0 0 force 1.5909046257643 -25419477.5642569 -0.888768846411662 torque 0 0 0 radius 50 invMass 7.63943726841098e-10
BaseParticle id 17 indSpecies 0 position -150.000000001289 2049.70951318341 -249.9999999991 orientation 1 0 0 0 velocity -1.70109098317811e-09 0.0217455639628282 1.83441300216358e-09 angularVelocity 0 0 0 force 1.46887844773634 -25418493.5339781 -1.28170163420419 torque 0 0 0 radius 50 invMass 7.63943726841098e-10
BaseParticle id 18 indSpecies 0 position -150.000000001002 2049.7095132794 -149.999999999197 orientation 1 0 0 0 velocity -3.54832390465045e-10 0.0217456327049483 2.05130954804983e-09 angularVelocity 0 0 0 force 0.169645269600105 -25419028.8740718 1.22778593707556 torque 0 0 0 radius 50 invMass 7.63943726841098e-10
BaseParticle id 19 indSpecies 0 position -149.999999999712 2049.70951331197 -49.9999999991084 orientation 1 0 0 0 velocity 1.29711543642438e-11 0.0217457129686303 1.36606625351921e-09 angularVelocity 0 0 0 force 3.45293594097172 -25418986.9551015 0.833556974095539 torque 0 0 0 radius 50 invMass 7.63943726841098e-10
BaseParticle id 20 indSpecies 0 position -150.000000000544 2049.70951334022 50.0000000009382 orientation 1 0 0 0 velocity -9.53236433916409e-10 0.0217457431401605 1.69794591038841e-09 angularVelocity 0 0 0 force -1.33673839868974 -25419093.6225636 0.918075908996614 torque 0 0 0 radius 50 invMass 7.63943726841098e-10
BaseParticle id 21 indSpecies 0 position -150.000000000827 2049.70951322757 150.000000001258 orientation 1 0 0 0 velocity -3.06879724073217e-10 0.0217455814724517 2.30830496718278e-09 angularVelocity 0 0 0 force -1.3789369453211 -25418737.930707 1.42762372057052 torque 0 0 0 radius 50 invMass 7.63943726841098e-10
BaseParticle id 22 indSpecies 0 position -150.000000000272 2049.709513163 250.00000000165 orientation 1 0 0 0 velocity -7.17075575651503e-10 0.0217455686707882 1.97308827977468e-09 angularVelocity 0 0 0 force -1.77557739531507 -25418323.2688578 1.9370942133925 torque 0 0 0 radius 50 invMass 7.63943726841098e-10
BaseParticle id 23 indSpecies 0 position -150.000000000076 2049.70951339483 350.000000003287 orientation 1 0 0 0 velocity -9.18672311072052e-10 0.0217457893786689 1.9034112951854e-09 angularVelocity 0 0 0 force -2.17038651154684 -25419563.9987345 2.44828003811836 torque 0 0 0 radius 50 invMass 7.63943726841098e-10
BaseParticle id 24 indSpecies 0 position -50.00000000072 2049.70951351655 -350.000000000719 orientation 1 0 0 0 velocity -1.16432739206369e-10 0.0217458461959741 2.31398619405649e-09 angularVelocity 0 0 0 force -1.12127790870077 -25420489.4719539 -2.30938951339437 torque 0 0 0 radius 50 invMass 7.63943726841098e-10
BaseParticle id 25 indSpecies 0 position -50.0000000013455 2049.70951326859 -249.999999999335 orientation 1 0 0 0 velocity -2.22595457082148e-10 0.0217456227366148 2.45466365983369e-09 angularVelocity 0 0 0 force -0.495339065193061 -25419015.7984806 -1.68834751865497 torque 0 0 0 radius 50 invMass 7.63943726841098e-10
BaseParticle id 26 indSpecies 0 position -50.0000000008397 2049.70951340173 -149.999999999186 orientation 1 0 0 0 velocity -1.17042405087875e-09 0.0217458289939701 1.34758567161297e-09 angularVelocity 0 0 0 force -0.650649647038358 -25419344.3489717 -1.06924972643484 torque 0 0 0 radius 50 invMass 7.63943726841098e-10
BaseParticle id 27 indSpecies 0 position -49.9999999998015 2049.70951343781 -49.9999999990249 orientation 1 0 0 0 velocity -1.65405540614482e-09 0.0217458669027929 2.02968823481761e-09 angularVelocity 0 0 0 force -2.63139489703934 -25419381.743232 -0.45006101406768 torque 0 0 0 radius 50 invMass 7.63943726841098e-10
BaseParticle id 28 indSpecies 0 position -50.0000000008939 2049.70951338575 50.0000000014301 orientation 1 0 0 0 velocity -1.76850728105552e-09 0.0217458330536182 1.62559870805891e-09 angularVelocity 0 0 0 force -0.848981848860601 -25419008.9587333 -0.838401863896677 torque 0 0 0 radius 50 invMass 7.63943726841098e-10
BaseParticle id 29 indSpecies 0 position -50.0000000002547 2049.7095133594 150.000000001328 orientation 1 0 0 0 velocity -1.26144314661702e-09 0.021745768266712 2.22616091297027e-09 angularVelocity 0 0 0 force -1.74933327537031 -25419191.8432965 1.61744350205933 torque 0 0 0 radius 50 invMass 7.63943726841098e-10
BaseParticle id 30 indSpecies 0 position -49.9999999990952 2049.70951341516 250.000000001445 orientation 1 0 0 0 velocity -6.49694405013312e-10 0.0217457756586847 1.18653431530918e-09 angularVelocity 0 0 0 force -2.20751385410496 -25419797.3938445 1.02290632517795 torque 0 0 0 radius 50 invMass 7.63943726841098e-10
BaseParticle id 31 indSpecies 0 position -49.9999999995296 2049.70951353005 350.000000003326 orientation 1 0 0 0 velocity -9.07586817410459e-10 0.0217458964230758 9.97692376522045e-10 angularVelocity 0 0 0 force -2.66605044221331 -25420582.6018008 1.44727896846225 torque 0 0 0 radius 50 invMass 7.63943726841098e-10
BaseParticle id 32 indSpecies 0 position 49.9999999990362 2049.70951333099 -350.000000000016 orientation 1 0 0 0 velocity 3.41522585946564e-10 0.0217456425032596 2.9657263212452e-09 angularVelocity 0 0 0 force 1.78145693950703 -25419561.0616602 -1.02586033938314 torque 0 0 0 radius 50 invMass 7.63943726841098e-10
BaseParticle id 33 indSpecies 0 position 49.9999999985156 2049.70951348206 -249.999999999436 orientation 1 0 0 0 velocity 4.7202634105453e-10 0.0217458709944655 2.70094956164612e-09 angularVelocity 0 0 0 force 0.885774121094174 -25419977.1515505 -2.46900711474717 torque 0 0 0 radius 50 invMass 7.63943726841098e-10
BaseParticle id 34 indSpecies 0 position 50.000000000088 2049.70951345194 -149.999999999632 orientation 1 0 0 0 velocity -2.74330099372638e-10 0.0217458545428378 2.11246732349055e-09 angularVelocity 0 0 0 force -0.436553347529192 -25419658.4196351 1.95905724031326 torque 0 0 0 radius 50 invMass 7.63943726841098e-10
BaseParticle id 35 indSpecies 0 position 50.0000000000095 2049.70951336789 -49.9999999986597 orientation 1 0 0 0 velocity -2.15729600899826e-09 0.0217458144914535 9.02473141047517e-10 angularVelocity 0 0 0 force -4.90128824214596 -25419002.2427603 -1.8821319477331 torque 0 0 0 radius 50 invMass 7.63943726841098e-10
BaseParticle id 36 indSpecies 0 position 49.9999999988004 2049.70951336595 50.0000000011005 orientation 1 0 0 0 velocity -2.33540368251172e-09 0.0217458398932842 1.49206481451303e-09 angularVelocity 0 0 0 force 2.78767586699397 -25418901.3958907 0.342931985767283 torque 0 0 0 radius 50 invMass 7.63943726841098e-10
BaseParticle id 37 indSpecies 0 position 50.0000000000126 2049.70951348347 150.000000000818 orientation 1 0 0 0 velocity -3.35977707579563e-10 0.0217459226203429 1.23247336424838e-09 angularVelocity 0 0 0 force -1.1722370654684 -25419754.4368482 3.81208855177652 torque 0 0 0 radius 50 invMass 7.63943726841098e-10
BaseParticle id 38 indSpecies 0 position 50.0000000010875 2049.70951360454 250.000000001472 orientation 1 0 0 0 velocity -4.41368185809302e-10 0.021745963398926 1.97547548283751e-10 angularVelocity 0 0 0 force -2.93838264456556 -25420804.6122458 1.2063108516028 torque 0 0 0 radius 50 invMass 7.63943726841098e-10
BaseParticle id 39 indSpecies 0 position 50.0000000008057 2049.70951322931 350.000000003712 orientation 1 0 0 0 velocity -5.78400249381219e-10 0.0217455310695679 -1.87887650954133e-11 angularVelocity 0 0 0 force -4.7062537907976 -25419211.8267269 1.42702230880536 torque 0 0 0 radius 50 invMass 7.63943726841098e-10
BaseParticle id 40 indSpecies 0 position 150.000000000144 2049.70951342105 -350.000000000947 orientation 1 0 0 0 velocity 8.72603171101096e-10 0.0217458257018144 7.94178029530387e-10 angularVelocity 0 0 0 force -0.97949300461542 -25419547.5324559 -0.747119152618564 torque 0 0 0 radius 50 invMass 7.63943726841098e-10
BaseParticle id 41 indSpecies 0 position 149.999999998611 2049.70951316278 -250.000000000617 orientation 1 0 0 0 velocity -5.77327210836325e-11 0.0217456053719799 4.33400782268604e-10 angularVelocity 0 0 0 force -0.820351545409496 -25418168.9212968 -0.354904371405254 torque 0 0 0 radius 50 invMass 7.63943726841098e-10
BaseParticle id 42 indSpecies 0 position 150.000000000079 2049.70951324865 -149.999999998166 orientation 1 0 0 0 velocity -5.89517026470034e-10 0.0217456152409264 1.82526376876178e-09 angularVelocity 0 0 0 force -0.567004854175991 -25418807.9800067 -1.64824063234367 torque 0 0 0 radius 50 invMass 7.63943726841098e-10
BaseParticle id 43 indSpecies 0 position 149.99999999935 2049.7095132909 -49.9999999983344 orientation 1 0 0 0 velocity -1.71312203522961e-09 0.021745717496979 1.49893316526704e-09 angularVelocity 0 0 0 force 1.3829803218464 -25418809.7283208 2.12002319707203 torque 0 0 0 radius 50 invMass 7.63943726841098e-10
BaseParticle id 44 indSpecies 0 position 149.999999998714 2049.70951330992 50.0000000016899 orientation 1 0 0 0 velocity -2.942238240119e-09 0.0217456972480815 1.77204190129971e-09 angularVelocity 0 0 0 force -7.73145800589673 -25419044.6835572 -0.165193572565825 torque 0 0 0 radius 50 invMass 7.63943726841098e-10
BaseParticle id 45 indSpecies 0 position 150.000000000712 2049.70951317418 150.000000001985 orientation 1 0 0 0 velocity -1.55352432585966e-09 0.0217455527863633 1.50830370671989e-09 angularVelocity 0 0 0 force -1.69593951677011 -25418453.9666075 -0.11006342230021 torque 0 0 0 radius 50 invMass 7.63943726841098e-10
BaseParticle id 46 indSpecies 0 position 150.000000001605 2049.70951310148 250.000000002379 orientation 1 0 0 0 velocity -2.95179076371265e-10 0.0217455550991153 2.08123004476656e-09 angularVelocity 0 0 0 force -3.58584763853006 -25417912.5107715 -0.0548677518078637 torque 0 0 0 radius 50 invMass 7.63943726841098e-10
BaseParticle id 47 indSpecies 0 position 150.000000001577 2049.70951351652 350.00000000284 orientation 1 0 0 0 velocity 4.24239382404599e-10 0.0217458861218243 2.49967770704127e-09 angularVelocity 0 0 0 force -5.47831688006922 -25420307.6754773 0.000211801303433182 torque 0 0 0 radius 50 invMass 7.63943726841098e-10
BaseParticle id 48 indSpecies 0 position 250.000000001415 2049.70951321275 -350.00000000244 orientation 1 0 0 0 velocity 2.07363331523262e-09 0.0217455828224372 -1.44067879356462e-09 angularVelocity 0 0 0 force -1.30207565442332 -25418428.0032885 -0.467899299616971 torque 0 0 0 radius 50 invMass 7.63943726841098e-10
BaseParticle id 49 indSpecies 0 position 249.999999999289 2049.70951322354 -250.000000000256 orientation 1 0 0 0 velocity -4.1176665551457e-10 0.021745587853296 -4.6193466205446e-10 angularVelocity 0 0 0 force -1.13761363537455 -25418626.9754366 -0.19536577843225 torque 0 0 0 radius 50 invMass 7.63943726841098e-10
BaseParticle id 50 indSpecies 0 position 250.000000000724 2049.70951358619 -149.999999999452 orientation 1 0 0 0 velocity -1.44440254280733e-09 0.0217459564601113 9.06536136803903e-10 angularVelocity 0 0 0 force -0.968180662834283 -25420580.6409853 0.0759990444321624 torque 0 0 0 radius 50 invMass 7.63943726841098e-10
BaseParticle id 51 indSpecies 0 position 249.999999998878 2049.70951313744 -49.9999999984723 orientation 1 0 0 0 velocity -8.60788932957081e-10 0.0217455393680321 1.55384361616988e-09 angularVelocity 0 0 0 force 3.91512995308262 -25418377.0350677 0.347567397256684 torque 0 0 0 radius 50 invMass 7.63943726841098e-10
BaseParticle id 52 indSpecies 0 position 249.999999997835 2049.70951318689 50.0000000016936 orientation 1 0 0 0 velocity -1.88143751710119e-09 0.0217455488045315 2.38156844267068e-09 angularVelocity 0 0 0 force 8.58018999257041 -25418769.4406664 -1.8847807504674 torque 0 0 0 radius 50 invMass 7.63943726841098e-10
BaseParticle id 53 indSpecies 0 position 250.000000000922 2049.70951349407 150.000000001615 orientation 1 0 0 0 velocity -1.24965110165507e-09 0.0217458937675961 1.73049961874906e-09 angularVelocity 0 0 0 force -2.22023713341602 -25420064.1183006 -0.4261956153464 torque 0 0 0 radius 50 invMass 7.63943726841098e-10
BaseParticle id 54 indSpecies 0 position 250.000000002486 2049.70951333517 250.000000003802 orientation 1 0 0 0 velocity -1.38331380165574e-10 0.0217457364575115 3.67253388764098e-09 angularVelocity 0 0 0 force -4.23276828750475 -25419132.7176165 -1.31695849340739 torque 0 0 0 radius 50 invMass 7.63943726841098e-10
BaseParticle id 55 indSpecies 0 position 250.000000004157 2049.70951318035 350.000000005797 orientation 1 0 0 0 velocity 2.46726925474457e-09 0.0217455989331962 4.89874810962614e-09 angularVelocity 0 0 0 force -6.2470605049984 -25418229.6877998 -1.42310354523436 torque 0 0 0 radius 50 invMass 7.63943726841098e-10
BaseParticle id 56 indSpecies 0 position 350.000000001918 2049.70951321159 -350.000000007569 orientation 1 0 0 0 velocity 2.32686554092473e-09 0.0217457124008439 -4.45496673188268e-09 angularVelocity 0 0 0 force -1.62814751059391 -25417864.6708652 -0.19255913979517 torque 0 0 0 radius 50 invMass 7.63943726841098e-10
BaseParticle id 57 indSpecies 0 position 350.000000002479 2049.70951361531 -250.000000003747 orientation 1 0 0 0 velocity 5.5832108146738e-10 0.0217460705719785 -3.31853287130468e-09 angularVelocity 0 0 0 force -1.45126540095472 -25420230.1245764 -0.0409025259439936 torque 0 0 0 radius 50 invMass 7.63943726841098e-10
BaseParticle id 58 indSpecies 0 position 350.000000000889 2049.70951346882 -150.00000000003 orientation 1 0 0 0 velocity -1.75321782652467e-09 0.021745832317106 1.69098596189328e-11 angularVelocity 0 0 0 force -1.279614165774 -25420017.2748298 0.112583059272025 torque 0 0 0 radius 50 invMass 7.63943726841098e-10
BaseParticle id 59 indSpecies 0 position 350.00000000136 2049.70951333082 -49.9999999974081 orientation 1 0 0 0 velocity -3.60706247437042e-09 0.0217455970340841 2.89985876025487e-09 angularVelocity 0 0 0 force -1.10378010666531 -25419886.5891282 0.0054552155541015 torque 0 0 0 radius 50 invMass 7.63943726841098e-10
BaseParticle id 60 indSpecies 0 position 350.000000001657 2049.70951337565 50.0000000025661 orientation 1 0 0 0 velocity -4.09658276464497e-09 0.021745618748028 1.59706611969541e-09 angularVelocity 0 0 0 force -0.604894576905949 -25420228.9858142 -1.7776394157016 torque 0 0 0 radius 50 invMass 7.63943726841098e-10
BaseParticle id 61 indSpecies 0 position 350.000000001771 2049.70951339919 150.000000004131 orientation 1 0 0 0 velocity -1.99798131992895e-09 0.021745745288787 3.61129611871022e-09 angularVelocity 0 0 0 force -2.74398314865252 -25419786.0919729 -2.30626104544037 torque 0 0 0 radius 50 invMass 7.63943726841098e-10
BaseParticle id 62 indSpecies 0 position 350.000000005538 2049.7095135915 250.000000006664 orientation 1 0 0 0 velocity 7.17158693083393e-10 0.0217460762510679 5.82902961396512e-09 angularVelocity 0 0 0 force -4.87718411247285 -25420105.40234 -2.5757351884468 torque 0 0 0 radius 50 invMass 7.63943726841098e-10
BaseParticle id 63 indSpecies 0 position 350.000000005553 2049.70951329867 350.00000000916 orientation 1 0 0 0 velocity 2.63746812856274e-09 0.0217458202930639 7.88857631100708e-09 angularVelocity 0 0 0 force -7.02090694269786 -25418386.9325577 -2.84623939739222 torque 0 0 0 radius 50 invMass 7.63943726841098e-10
BaseParticle id 64 indSpecies 0 position -350.000000005163 2149.6981728026 -349.999999999835 orientation 1 0 0 0 velocity -6.23818986299645e-10 0.0441271206847382 -1.89763755344767e-10 angularVelocity 0 0 0 force 3.69929085359927 30605482.4592434 1.33652710745904 torque 0 0 0 radius 50 invMass 7.63943726841098e-10
BaseParticle id 65 indSpecies 0 position -350.000000004478 2149.69817274541 -249.999999999907 orientation 1 0 0 0 velocity -1.42133756876477e-10 0.044127262372106 3.43228257909215e-10 angularVelocity 0 0 0 force 1.77855034163141 30606718.6266652 1.99997537645491 torque 0 0 0 radius 50 invMass 7.63943726841098e-10
BaseParticle id 66 indSpecies 0 position -350.000000001921 2149.69817274176 -149.999999999949 orientation 1 0 0 0 velocity 5.91253701587655e-10 0.0441272342600717 6.45417614774514e-10 angularVelocity 0 0 0 force -1.83790305005807 30607450.1177575 0.444415673788383 torque 0 0 0 radius 50 invMass 7.63943726841098e-10
BaseParticle id 67 indSpecies 0 position -350.000000001596 2149.69817263504 -50.0000000000827 orientation 1 0 0 0 velocity 2.22085135458271e-10 0.0441274630998884 6.85129202598574e-10 angularVelocity 0 0 0 force -2.04702216908127 30607880.7093773 0.826706145229103 torque 0 0 0 radius 50 invMass 7.63943726841098e-10
BaseParticle id 68 indSpecies 0 position -350.000000002322 2149.69817264719 49.9999999997658 orientation 1 0 0 0 velocity 8.88467543176517e-10 0.0441274106587098 9.54291795825562e-10 angularVelocity 0 0 0 force -0.787461613308895 30607525.5762864 1.56402446019788 torque 0 0 0 radius 50 invMass 7.63943726841098e-10
BaseParticle id 69 indSpecies 0 position -350.0000000021 2149.69817271475 149.999999999659 orientation 1 0 0 0 velocity -2.40645067867772e-10 0.0441273333352491 4.77542656028135e-11 angularVelocity 0 0 0 force -0.217488374827819 30607779.4549651 0.933568589975377 torque 0 0 0 radius 50 invMass 7.63943726841098e-10
BaseParticle id 70 indSpecies 0 position -350.000000001121 2149.69817277831 249.999999999555 orientation 1 0 0 0 velocity -1.79267557179458e-09 0.0441271887424327 1.4484598500162e-11 angularVelocity 0 0 0 force -0.0847078411036042 30606621.2325411 -0.0922559109365748 torque 0 0 0 radius 50 invMass 7.63943726841098e-10
BaseParticle id 71 indSpecies 0 position -350.000000003235 2149.6981728323 349.999999999373 orientation 1 0 0 0 velocity -4.41672028121456e-10 0.0441270407083684 3.29964606044559e-10 angularVelocity 0 0 0 force 0.922033412231785 30604777.3183128 2.28634754254238 torque 0 0 0 radius 50 invMass 7.63943726841098e-10
BaseParticle id 72 indSpecies 0 position -250.0000000049 2149.69817268274 -349.999999999531 orientation 1 0 0 0 velocity -5.16472212342199e-10 0.0441274776728332 2.83328667409887e-10 angularVelocity 0 0 0 force 2.5692675518741 30607448.8782739 -3.41943678754963 torque 0 0 0 radius 50 invMass 7.63943726841098e-10
BaseParticle id 73 indSpecies 0 position -250.000000003431 2149.69817260494 -249.999999999929 orientation 1 0 0 0 velocity -3.26522215263214e-10 0.0441277220368562 4.24277179328912e-10 angularVelocity 0 0 0 force 1.17484194952715 30608266.2190365 3.47143626992933 torque 0 0 0 radius 50 invMass 7.63943726841098e-10
BaseParticle id 74 indSpecies 0 position -250.000000002092 2149.69817264031 -150.000000000024 orientation 1 0 0 0 velocity -1.29123913705445e-09 0.0441276250852285 -1.34483463725747e-10 angularVelocity 0 0 0 force -1.83123176211818 30608554.5005266 0.585297495257982 torque 0 0 0 radius 50 invMass 7.63943726841098e-10
BaseParticle id 75 indSpecies 0 position -250.00000000135 2149.69817276595 -50.0000000000905 orientation 1 0 0 0 velocity 7.17683937283047e-10 0.04412712928212 5.11440676756775e-10 angularVelocity 0 0 0 force -4.59448420723943 30606747.7999965 -1.13492967547242 torque 0 0 0 radius 50 invMass 7.63943726841098e-10
BaseParticle id 76 indSpecies 0 position -250.000000001762 2149.69817277732 49.9999999997109 orientation 1 0 0 0 velocity -1.54882440862384e-09 0.0441271132265718 3.69618680154068e-11 angularVelocity 0 0 0 force -3.1889783810584 30606823.8194304 2.17692901562048 torque 0 0 0 radius 50 invMass 7.63943726841098e-10
BaseParticle id 77 indSpecies 0 position -250.000000001745 2149.69817266373 149.999999999672 orientation 1 0 0 0 velocity -1.91572846919589e-10 0.0441275401994375 3.0445057898953e-10 angularVelocity 0 0 0 force -5.60928072358778 30608377.2313775 -0.742453320057885 torque 0 0 0 radius 50 invMass 7.63943726841098e-10
BaseParticle id 78 indSpecies 0 position -250.000000001165 2149.69817254609 249.999999999507 orientation 1 0 0 0 velocity -4.49254460130159e-10 0.0441279206399439 4.928267457805e-10 angularVelocity 0 0 0 force 0.248963765940241 30609169.966978 1.01393216176333 torque 0 0 0 radius 50 invMass 7.63943726841098e-10
BaseParticle id 79 indSpecies 0 position -250.000000002617 2149.69817266257 349.999999999399 orientation 1 0 0 0 velocity -1.94638922879196e-09 0.0441275235655329 2.15565445454948e-10 angularVelocity 0 0 0 force 0.170112768330373 30607401.311184 1.45614525480233 torque 0 0 0 radius 50 invMass 7.63943726841098e-10
BaseParticle id 80 indSpecies 0 position -150.0000000028 2149.69817272662 -349.999999999639 orientation 1 0 0 0 velocity -4.39674333558073e-10 0.0441272904942049 -2.32786377975825e-10 angularVelocity 0 0 0 force 1.45076942561925 30606986.9605974 -4.16189260630766 torque 0 0 0 radius 50 invMass 7.63943726841098e-10
BaseParticle id 81 indSpecies 0 position -150.000000002153 2149.69817260694 -249.999999999962 orientation 1 0 0 0 velocity -7.75626441677194e-10 0.0441276846829505 8.11108143969315e-10 angularVelocity 0 0 0 force 0.572994947311013 30608482.448716 1.2096502798239 torque 0 0 0 radius 50 invMass 7.63943726841098e-10
BaseParticle id 82 indSpecies 0 position -150.000000002424 2149.69817265046 -150.000000000081 orientation 1 0 0 0 velocity -1.41177432420787e-11 0.0441275963296578 3.57101828564843e-10 angularVelocity 0 0 0 force 2.20229829507726 30608506.3526343 -2.44645749445862 torque 0 0 0 radius 50 invMass 7.63943726841098e-10
BaseParticle id 83 indSpecies 0 position -150.000000001648 2149.69817268695 -50.0000000003715 orientation 1 0 0 0 velocity -1.29061033072291e-09 0.0441274894095443 4.09091713562307e-10 angularVelocity 0 0 0 force -1.44009034882199 30607700.8958705 2.2554417228059 torque 0 0 0 radius 50 invMass 7.63943726841098e-10
BaseParticle id 84 indSpecies 0 position -150.000000002012 2149.69817270492 49.9999999998069 orientation 1 0 0 0 velocity -6.99117049969722e-10 0.0441274484678168 4.12280991246074e-10 angularVelocity 0 0 0 force -2.5463279317846 30607534.6179622 -0.798116448316859 torque 0 0 0 radius 50 invMass 7.63943726841098e-10
BaseParticle id 85 indSpecies 0 position -150.000000002266 2149.69817262609 149.999999999723 orientation 1 0 0 0 velocity -9.58281527385168e-10 0.0441276859891979 7.70195097818288e-11 angularVelocity 0 0 0 force 3.26707786035613 30608786.1386339 0.965779279523739 torque 0 0 0 radius 50 invMass 7.63943726841098e-10
BaseParticle id 86 indSpecies 0 position -150.000000001173 2149.6981726011 249.999999999777 orientation 1 0 0 0 velocity -6.02055878241783e-10 0.0441276856722675 4.47596407832312e-10 angularVelocity 0 0 0 force -3.95622808607766 30608339.3096073 -1.56199248321664 torque 0 0 0 radius 50 invMass 7.63943726841098e-10
BaseParticle id 87 indSpecies 0 position -150.000000002017 2149.69817271084 349.9999999996 orientation 1 0 0 0 velocity -7.69594472250355e-10 0.0441273159407084 -8.43174315367349e-10 angularVelocity 0 0 0 force -0.579919730993708 30607351.2305439 2.05212553023127 torque 0 0 0 radius 50 invMass 7.63943726841098e-10
BaseParticle id 88 indSpecies 0 position -50.0000000024441 2149.69817274312 -349.999999999693 orientation 1 0 0 0 velocity -4.57051631564787e-10 0.0441272210436914 8.29227006037889e-10 angularVelocity 0 0 0 force -1.68644144671595 30607683.8796248 -6.58260288020167 torque 0 0 0 radius 50 invMass 7.63943726841098e-10
BaseParticle id 89 indSpecies 0 position -50.0000000019726 2149.69817264014 -250.00000000011 orientation 1 0 0 0 velocity -8.36242744849896e-10 0.0441276100683045 -5.92894499137402e-10 angularVelocity 0 0 0 force -0.0313974017533414 30608522.7138007 2.06867334680525 torque 0 0 0 radius 50 invMass 7.63943726841098e-10
BaseParticle id 90 indSpecies 0 position -50.0000000025047 2149.69817274225 -150.000000000088 orientation 1 0 0 0 velocity -9.23287339842887e-10 0.0441273110085682 -7.37630911800582e-11 angularVelocity 0 0 0 force 0.419849516165623 30606848.9519094 -2.22269735217675 torque 0 0 0 radius 50 invMass 7.63943726841098e-10