<?xml version="1.0"?>
<!-- time 82.2204-->
<VTKFile type="UnstructuredGrid" version="0.1" byte_order="LittleEndian">
<UnstructuredGrid>
<Piece NumberOfPoints="7680" NumberOfCells="0">
<Points>
  <DataArray type="Float32" Name="Position" NumberOfComponents="3" format="ascii">
	-350 2049.59 -350
	-350 2049.59 -250
	-350 2049.59 -150
	-350 2049.59 -50
	-350 2049.59 50
	-350 2049.59 150
	-350 2049.59 250
	-350 2049.59 350
	-250 2049.59 -350
	-250 2049.59 -250
	-250 2049.59 -150
	-250 2049.59 -50
	-250 2049.59 50
	-250 2049.59 150
	-250 2049.59 250
	-250 2049.59 350
	-150 2049.59 -350
	-150 2049.59 -250
	-150 2049.59 -150
	-150 2049.59 -50
	-150 2049.59 50
	-150 2049.59 150
	-150 2049.59 250
	-150 2049.59 350
	-50 2049.59 -350
	-50 2049.59 -250
	-50 2049.59 -150
	-50 2049.59 -50
	-50 2049.59 50
	-50 2049.59 150
	-50 2049.59 250
	-50 2049.59 350
	50 2049.59 -350
	50 2049.59 -250
	50 2049.59 -150
	50 2049.59 -50
	50 2049.59 50
	50 2049.59 150
	50 2049.59 250
	50 2049.59 350
	150 2049.59 -350
	150 2049.59 -250
	150 2049.59 -150
	150 2049.59 -50
	150 2049.59 50
	150 2049.59 150
	150 2049.59 250
	150 2049.59 350
	250 2049.59 -350
	250 2049.59 -250
	250 2049.59 -150
	250 2049.59 -50
	250 2049.59 50
	250 2049.59 150
	250 2049.59 250
	250 2049.59 350
	350 2049.59 -350
	350 2049.59 -250
	350 2049.59 -150
	350 2049.59 -50
	350 2049.59 50
	350 2049.59 150
	350 2049.59 250
	350 2049.59 350
	-350 2149.65 -350
	-350 2149.65 -250
	-350 2149.65 -150
	-350 2149.65 -50
	-350 2149.65 50
	-350 2149.65 150
	-350 2149.65 250
	-350 2149.65 350
	-250 2149.65 -350
	-250 2149.65 -250
	-250 2149.65 -150
	-250 2149.65 -50
	-250 2149.65 50
	-250 2149.65 150
	-250 2149.65 250
	-250 2149.65 350
	-150 2149.65 -350
	-150 2149.65 -250
	-150 2149.65 -150
	-150 2149.65 -50
	-150 2149.65 50
	-150 2149.65 150
	-150 2149.65 250
	-150 2149.65 350
	-50 2149.65 -350
	-50 2149.65 -250
	-50 2149.65 -150
	-50 2149.65 -50
	-50 2149.65 50
	-50 2149.65 150
	-50 2149.65 250
	-50 2149.65 350
	50 2149.65 -350
	50 2149.65 -250
	50 2149.65 -150
	50 2149.65 -50
	50 2149.65 50
	50 2149.65 150
	50 2149.65 250
	50 2149.65 350
	150 2149.65 -350
	150 2149.65 -250
	150 2149.65 -150
	150 2149.65 -50
	150 2149.65 50
	150 2149.65 150
	150 2149.65 250
	150 2149.65 350
	250 2149.65 -350
	250 2149.65 -250
	250 2149.65 -150
	250 2149.65 -50
	250 2149.65 50
	250 2149.65 150
	250 2149.65 250
	250 2149.65 350
	350 2149.65 -350
	350 2149.65 -250
	350 2149.65 -150
	350 2149.65 -50
	350 2149.65 50
	350 2149.65 150
	350 2149.65 250
	350 2149.65 350
	-350 2249.65 -350
	-350 2249.65 -250
	-350 2249.65 -150
	-350 2249.65 -50
	-350 2249.65 50
	-350 2249.65 150
	-350 2249.65 250
	-350 2249.65 350
	-250 2249.65 -350
	-250 2249.65 -250
	-250 2249.65 -150
	-250 2249.65 -50
	-250 2249.65 50
	-250 2249.65 150
	-250 2249.65 250
	-250 2249.65 350
	-150 2249.65 -350
	-150 2249.65 -250
	-150 2249.65 -150
	-150 2249.65 -50
	-150 2249.65 50
	-150 2249.65 150
	-150 2249.65 250
	-150 2249.65 350
	-50 2249.65 -350
	-50 2249.65 -250
	-50 2249.65 -150
	-50 2249.65 -50
	-50 2249.65 50
	-50 2249.65 150
	-50 2249.65 250
	-50 2249.65 350
	50 2249.65 -350
	50 2249.65 -250
	50 2249.65 -150
	50 2249.65 -50
	50 2249.65 50
	50 2249.65 150
	50 2249.65 250
	50 2249.65 350
	150 2249.65 -350
	150 2249.65 -250
	150 2249.65 -150
	150 2249.65 -50
	150 2249.65 50
	150 2249.65 150
	150 2249.65 250
	150 2249.65 350
	250 2249.65 -350
	250 2249.65 -250
	250 2249.65 -150
	250 2249.65 -50
	250 2249.65 50
	250 2249.65 150
	250 2249.65 250
	250 2249.65 350
	350 2249.65 -350
	350 2249.65 -250
	350 2249.65 -150
	350 2249.65 -50
	350 2249.65 50
	350 2249.65 150
	350 2249.65 250
	350 2249.65 350
	-350 2349.65 -350
	-350 2349.65 -250
	-350 2349.65 -150
	-350 2349.65 -50
	-350 2349.65 50
	-350 2349.65 150
	-350 2349.65 250
	-350 2349.65 350
	-250 2349.65 -350
	-250 2349.65 -250
	-250 2349.65 -150
	-250 2349.65 -50
	-250 2349.65 50
	-250 2349.65 150
	-250 2349.65 250
	-250 2349.65 350
	-150 2349.65 -350
	-150 2349.65 -250
	-150 2349.65 -150
	-150 2349.65 -50
	-150 2349.65 50
	-150 2349.65 150
	-150 2349.65 250
	-150 2349.65 350
	-50 2349.65 -350
	-50 2349.65 -250
	-50 2349.65 -150
	-50 2349.65 -50
	-50 2349.65 50
	-50 2349.65 150
	-50 2349.65 250
	-50 2349.65 350
	50 2349.65 -350
	50 2349.65 -250
	50 2349.65 -150
	50 2349.65 -50
	50 2349.65 50
	50 2349.65 150
	50 2349.65 250
	50 2349.65 350
	150 2349.65 -350
	150 2349.65 -250
	150 2349.65 -150
	150 2349.65 -50
	150 2349.65 50
	150 2349.65 150
	150 2349.65 250
	150 2349.65 350
	250 2349.65 -350
	250 2349.65 -250
	250 2349.65 -150
	250 2349.65 -50
	250 2349.65 50
	250 2349.65 150
	250 2349.65 250
	250 2349.65 350
	350 2349.65 -350
	350 2349.65 -250
	350 2349.65 -150
	350 2349.65 -50
	350 2349.65 50
	350 2349.65 150
	350 2349.65 250
	350 2349.65 350
	-350 2449.65 -350
	-350 2449.65 -250
	-350 2449.65 -150
	-350 2449.65 -50
	-350 2449.65 50
	-350 2449.65 150
	-350 2449.65 250
	-350 2449.65 350
	-250 2449.65 -350
	-250 2449.65 -250
	-250 2449.65 -150
	-250 2449.65 -50
	-250 2449.65 50
	-250 2449.65 150
	-250 2449.65 250
	-250 2449.65 350
	-150 2449.65 -350
	-150 2449.65 -250
	-150 2449.65 -150
	-150 2449.65 -50
	-150 2449.65 50
	-150 2449.65 150
	-150 2449.65 250
	-150 2449.65 350
	-50 2449.65 -350
	-50 2449.65 -250
	-50 2449.65 -150
	-50 2449.65 -50
	-50 2449.65 50
	-50 2449.65 150
	-50 2449.65 250
	-50 2449.65 350
	50 2449.65 -350
	50 2449.65 -250
	50 2449.65 -150
	50 2449.65 -50
	50 2449.65 50
	50 2449.65 150
	50 2449.65 250
	50 2449.65 350
	150 2449.65 -350
	150 2449.65 -250
	150 2449.65 -150
	150 2449.65 -50
	150 2449.65 50
	150 2449.65 150
	150 2449.65 250
	150 2449.65 350
	250 2449.65 -350
	250 2449.65 -250
	250 2449.65 -150
	250 2449.65 -50
	250 2449.65 50
	250 2449.65 150
	250 2449.65 250
	250 2449.65 350
	350 2449.65 -350
	350 2449.65 -250
	350 2449.65 -150
	350 2449.65 -50
	350 2449.65 50
	350 2449.65 150
	350 2449.65 250
	350 2449.65 350
	-350 2549.65 -350
	-350 2549.65 -250
	-350 2549.65 -150
	-350 2549.65 -50
	-350 2549.65 50
	-350 2549.65 150
	-350 2549.65 250
	-350 2549.65 350
	-250 2549.65 -350
	-250 2549.65 -250
	-250 2549.65 -150
	-250 2549.65 -50
	-250 2549.65 50
	-250 2549.65 150
	-250 2549.65 250
	-250 2549.65 350
	-150 2549.65 -350
	-150 2549.65 -250
	-150 2549.65 -150
	-150 2549.65 -50
	-150 2549.65 50
	-150 2549.65 150
	-150 2549.65 250
	-150 2549.65 350
	-50 2549.65 -350
	-50 2549.65 -250
	-50 2549.65 -150
	-50 2549.65 -50
	-50 2549.65 50
	-50 2549.65 150
	-50 2549.65 250
	-50 2549.65 350
	50 2549.65 -350
	50 2549.65 -250
	50 2549.65 -150
	50 2549.65 -50
	50 2549.65 50
	50 2549.65 150
	50 2549.65 250
	50 2549.65 350
	150 2549.65 -350
	150 2549.65 -250
	150 2549.65 -150
	150 2549.65 -50
	150 2549.65 50
	150 2549.65 150
	150 2549.65 250
	150 2549.65 350
	250 2549.65 -350
	250 2549.65 -250
	250 2549.65 -150
	250 2549.65 -50
	250 2549.65 50
	250 2549.65 150
	250 2549.65 250
	250 2549.65 350
	350 2549.65 -350
	350 2549.65 -250
	350 2549.65 -150
	350 2549.65 -50
	350 2549.65 50
	350 2549.65 150
	350 2549.65 250
	350 2549.65 350
	-350 2649.65 -350
	-350 2649.65 -250
	-350 2649.65 -150
	-350 2649.65 -50
	-350 2649.65 50
	-350 2649.65 150
	-350 2649.65 250
	-350 2649.65 350
	-250 2649.65 -350
	-250 2649.65 -250
	-250 2649.65 -150
	-250 2649.65 -50
	-250 2649.65 50
	-250 2649.65 150
	-250 2649.65 250
	-250 2649.65 350
	-150 2649.65 -350
	-150 2649.65 -250
	-150 2649.65 -150
	-150 2649.65 -50
	-150 2649.65 50
	-150 2649.65 150
	-150 2649.65 250
	-150 2649.65 350
	-50 2649.65 -350
	-50 2649.65 -250
	-50 2649.65 -150
	-50 2649.65 -50
	-50 2649.65 50
	-50 2649.65 150
	-50 2649.65 250
	-50 2649.65 350
	50 2649.65 -350
	50 2649.65 -250
	50 2649.65 -150
	50 2649.65 -50
	50 2649.65 50
	50 2649.65 150
	50 2649.65 250
	50 2649.65 350
	150 2649.65 -350
	150 2649.65 -250
	150 2649.65 -150
	150 2649.65 -50
	150 2649.65 50
	150 2649.65 150
	150 2649.65 250
	150 2649.65 350
	250 2649.65 -350
	250 2649.65 -250
	250 2649.65 -150
	250 2649.65 -50
	250 2649.65 50
	250 2649.65 150
	250 2649.65 250
	250 2649.65 350
	350 2649.65 -350
	350 2649.65 -250
	350 2649.65 -150
	350 2649.65 -50
	350 2649.65 50
	350 2649.65 150
	350 2649.65 250
	350 2649.65 350
	-350 2749.65 -350
	-350 2749.65 -250
	-350 2749.65 -150
	-350 2749.65 -50
	-350 2749.65 50
	-350 2749.65 150
	-350 2749.65 250
	-350 2749.65 350
	-250 2749.65 -350
	-250 2749.65 -250
	-250 2749.65 -150
	-250 2749.65 -50
	-250 2749.65 50
	-250 2749.65 150
	-250 2749.65 250
	-250 2749.65 350
	-150 2749.65 -350
	-150 2749.65 -250
	-150 2749.65 -150
	-150 2749.65 -50
	-150 2749.65 50
	-150 2749.65 150
	-150 2749.65 250
	-150 2749.65 350
	-50 2749.65 -350
	-50 2749.65 -250
	-50 2749.65 -150
	-50 2749.65 -50
	-50 2749.65 50
	-50 2749.65 150
	-50 2749.65 250
	-50 2749.65 350
	50 2749.65 -350
	50 2749.65 -250
	50 2749.65 -150
	50 2749.65 -50
	50 2749.65 50
	50 2749.65 150
	50 2749.65 250
	50 2749.65 350
	150 2749.65 -350
	150 2749.65 -250
	150 2749.65 -150
	150 2749.65 -50
	150 2749.65 50
	150 2749.65 150
	150 2749.65 250
	150 2749.65 350
	250 2749.65 -350
	250 2749.65 -250
	250 2749.65 -150
	250 2749.65 -50
	250 2749.65 50
	250 2749.65 150
	250 2749.65 250
	250 2749.65 350
	350 2749.65 -350
	350 2749.65 -250
	350 2749.65 -150
	350 2749.65 -50
	350 2749.65 50
	350 2749.65 150
	350 2749.65 250
	350 2749.65 350
	-350 2849.65 -350
	-350 2849.65 -250
	-350 2849.65 -150
	-350 2849.65 -50
	-350 2849.65 50
	-350 2849.65 150
	-350 2849.65 250
	-350 2849.65 350
	-250 2849.65 -350
	-250 2849.65 -250
	-250 2849.65 -150
	-250 2849.65 -50
	-250 2849.65 50
	-250 2849.65 150
	-250 2849.65 250
	-250 2849.65 350
	-150 2849.65 -350
	-150 2849.65 -250
	-150 2849.65 -150
	-150 2849.65 -50
	-150 2849.65 50
	-150 2849.65 150
	-150 2849.65 250
	-150 2849.65 350
	-50 2849.65 -350
	-50 2849.65 -250
	-50 2849.65 -150
	-50 2849.65 -50
	-50 2849.65 50
	-50 2849.65 150
	-50 2849.65 250
	-50 2849.65 350
	50 2849.65 -350
	50 2849.65 -250
	50 2849.65 -150
	50 2849.65 -50
	50 2849.65 50
	50 2849.65 150
	50 2849.65 250
	50 2849.65 350
	150 2849.65 -350
	150 2849.65 -250
	150 2849.65 -150
[...]
<PointData  Vectors="vector">
  <DataArray type="Float32" Name="Velocity" NumberOfComponents="3" format="ascii">
 1.29275e-08 0.000778412 1.31523e-08
 -2.30329e-10 0.000778509 3.66444e-09
 -1.17748e-08 0.000778607 -6.94341e-10
 -2.56678e-08 0.000778704 -6.26013e-09
 -3.07246e-08 0.000778748 1.97944e-11
 -3.6583e-08 0.000778738 -1.09705e-08
 -4.26505e-08 0.000778727 -1.92533e-08
 -3.39693e-08 0.000778717 -1.56689e-08
 6.52692e-09 0.000778515 2.05472e-09
 1.25127e-09 0.000778649 -2.59984e-09
 -1.37213e-08 0.000778783 -5.23572e-09
 -2.81891e-08 0.000778918 -9.8657e-09
 -1.69621e-08 0.000778735 -7.34642e-09
 -8.68776e-09 0.000778755 -1.34065e-08
 -8.03191e-10 0.000778775 -1.31628e-08
 4.88062e-09 0.000778796 -1.36169e-08
 -4.42611e-11 0.000778617 -1.67023e-08
 -5.5291e-09 0.000778788 -1.19068e-08
 -1.05952e-08 0.00077896 -1.25981e-08
 -2.01607e-08 0.000779131 -1.18915e-08
 -1.51385e-08 0.000778722 -1.14338e-08
 -8.01981e-09 0.000778773 -8.84099e-09
 4.8542e-09 0.000778824 -1.01846e-08
 1.14387e-08 0.000778874 -6.78979e-09
 -6.84545e-09 0.000778719 -2.6912e-08
 -8.12823e-09 0.000778928 -3.02609e-08
 -1.29368e-08 0.000779136 -1.8445e-08
 -1.52751e-08 0.000779345 -1.50317e-08
 -8.49746e-09 0.000778709 -1.42862e-08
 8.10391e-09 0.000778791 -8.07432e-09
 1.53897e-08 0.000778872 -1.65924e-09
 2.66388e-08 0.000778953 -2.84713e-09
 -8.99147e-10 0.000778897 -3.41505e-08
 -7.86266e-09 0.000778857 -1.97259e-08
 -1.183e-08 0.000778817 -1.33309e-08
 -1.20962e-08 0.000778777 -8.45133e-09
 -1.16831e-08 0.000778394 -1.16884e-08
 -8.79643e-09 0.000778427 -8.35894e-09
 1.95165e-08 0.00077846 -5.82822e-09
 1.82032e-08 0.000778493 1.13305e-08
 -1.2015e-08 0.000778837 -3.0143e-08
 -1.08049e-08 0.000778838 -1.98353e-08
 -8.84621e-09 0.000778839 -5.83723e-09
 -6.82098e-09 0.00077884 1.09963e-08
 -1.17785e-08 0.000778403 -9.84457e-09
 7.98047e-09 0.000778454 6.73945e-09
 9.06193e-09 0.000778505 1.77391e-08
 3.16329e-08 0.000778555 3.70836e-08
 -1.8248e-08 0.000778777 -3.02926e-08
 -1.35861e-08 0.000778819 -1.26008e-08
 -1.05172e-08 0.00077886 1.06903e-08
 -5.71237e-10 0.000778902 1.54974e-08
 6.43429e-10 0.000778413 8.63264e-09
 2.11635e-08 0.000778481 2.32764e-08
 4.69753e-08 0.000778549 2.2499e-08
 5.38441e-08 0.000778618 6.62981e-08
 -1.84767e-08 0.000778717 -3.38006e-08
 -1.69235e-08 0.0007788 7.17418e-09
 -6.33143e-09 0.000778882 6.85018e-09
 -2.5112e-09 0.000778964 3.37477e-08
 1.14061e-08 0.000778422 2.07206e-08
 3.39978e-08 0.000778508 3.85364e-08
 4.87082e-08 0.000778594 4.49982e-08
 8.02764e-08 0.000778681 8.28759e-08
 1.84347e-08 -0.00250034 2.5359e-08
 1.00958e-08 -0.00250528 1.42621e-08
 -2.67636e-09 -0.00250294 1.22191e-08
 -1.49881e-08 -0.00250444 -9.35319e-10
 -1.8298e-08 -0.00250417 6.68048e-09
 -1.5507e-08 -0.00250451 -3.7198e-09
 -2.2629e-08 -0.00249918 -1.49305e-08
 -2.69064e-08 -0.00250731 -1.46184e-08
 2.37185e-08 -0.00250525 8.71163e-09
 1.01361e-08 -0.00250112 6.45076e-09
 -4.33044e-09 -0.00250239 1.56442e-09
 -1.74326e-08 -0.00250174 6.2366e-10
 -7.35714e-09 -0.00250272 -4.34253e-11
 -1.75909e-09 -0.00250516 -5.92915e-09
 2.6921e-09 -0.00250507 -7.36661e-09
 -1.10935e-09 -0.00250353 -1.4549e-08
 5.25219e-09 -0.00250289 -2.35817e-09
 2.36988e-09 -0.00250241 -7.18267e-09
 -2.44275e-09 -0.00250772 -4.51361e-09
 -1.20304e-08 -0.00250622 -6.6555e-09
 -6.04959e-09 -0.00250278 -5.71161e-09
 -4.3876e-09 -0.00250298 -6.69004e-09
 -1.33366e-09 -0.00250336 -7.57844e-09
 4.46703e-09 -0.00250331 -4.70191e-09
 7.10019e-09 -0.00250365 -1.61781e-08
 -5.08982e-10 -0.00250316 -1.66488e-08
 -5.08703e-09 -0.0025062 -1.36286e-08
 -9.63647e-09 -0.00250679 -1.43039e-08
 -3.64182e-09 -0.00250785 -7.87121e-09
 -6.46112e-10 -0.00250305 -8.06738e-09
 3.37498e-09 -0.0025051 7.43734e-10
 9.90513e-09 -0.0025036 -4.29184e-09
 4.06482e-09 -0.00250405 -1.81747e-08
 7.05985e-10 -0.00250268 -7.92235e-09
 -3.3525e-09 -0.00250252 -7.75045e-09
 -8.64057e-09 -0.00250782 -3.30945e-09
 -6.72937e-09 -0.00250685 -1.03281e-08
 1.23168e-09 -0.00250333 -3.49691e-09
 3.22657e-09 -0.00250418 -5.60794e-09
 1.44069e-08 -0.00250396 1.9253e-09
 1.19401e-09 -0.00250485 -2.0664e-08
 -2.57296e-09 -0.0025053 -5.44061e-09
 -5.61589e-09 -0.00250301 -1.30732e-09
 -4.322e-09 -0.0025026 -4.35806e-09
 -2.21214e-09 -0.00250337 2.32571e-09
 5.37001e-10 -0.00250507 2.58715e-09
 1.06614e-08 -0.00249867 -1.24149e-09
 1.99196e-08 -0.00249818 1.77842e-08
 -9.70864e-09 -0.00250361 -2.2202e-08
 -6.66574e-09 -0.00250555 -3.22549e-09
 -4.40961e-09 -0.00250502 8.2195e-10
 3.27165e-09 -0.00250487 1.80522e-09
 -1.98916e-09 -0.00250443 9.2911e-09
 1.29552e-09 -0.00249881 5.79914e-09
 1.82864e-08 -0.0024971 1.11496e-08
 1.67845e-08 -0.00252319 3.05962e-08
 -1.51156e-08 -0.00250405 -2.26223e-08
 -1.2338e-08 -0.00250424 8.01447e-09
 -4.58147e-09 -0.00250341 -1.01049e-09
 -2.43563e-09 -0.00250413 2.67189e-09
 6.61075e-09 -0.00250413 7.04226e-09
 2.10648e-08 -0.00249646 2.02586e-08
 2.90459e-08 -0.0025233 2.02429e-08
 4.73528e-08 -0.00249313 4.37885e-08
 2.23079e-08 0.000176299 2.05524e-08
 1.3857e-08 0.000175268 2.03536e-08
 6.73844e-09 0.000173573 1.73587e-08
 -3.99637e-09 0.000179416 1.25534e-08
 3.30812e-09 0.000174851 8.06636e-09
 4.60472e-09 0.000175146 1.7351e-09
 4.867e-09 0.000179497 1.62592e-09
 6.45071e-09 0.000174498 -2.89945e-09
 2.481e-08 0.000175394 1.21933e-08
 1.45113e-08 0.0001728 1.29076e-08
 3.9099e-09 0.000173652 6.74992e-09
 -6.52086e-09 0.000174002 6.3003e-09
 3.65156e-10 0.000174307 5.21384e-09
 -2.19342e-09 0.000177186 -2.18612e-09
 -5.68949e-09 0.000178109 7.29933e-10
 -1.29705e-08 0.000174868 -4.4282e-09
 1.64119e-08 0.000173598 5.15452e-09
 1.1823e-08 0.00017403 9.49955e-10
 4.65486e-09 0.000175923 3.26666e-09
 -3.66223e-09 0.000179644 -5.78076e-10
 2.33431e-09 0.000174156 -3.15402e-10
 2.52232e-09 0.000173354 -4.26009e-09
 -1.18917e-11 0.000174263 -1.67789e-09
 1.45801e-09 0.000174229 -6.92474e-09
 1.285e-08 0.000179474 -5.73831e-09
 7.74884e-09 0.000172926 -6.41216e-09
 3.22237e-09 0.000179962 -8.87409e-09
 -3.27678e-09 0.000175252 -6.29819e-09
 6.32057e-10 0.000180938 -5.00835e-09
 1.35415e-09 0.000173722 -5.25234e-09
 3.32389e-09 0.000174559 -2.75347e-09
 1.81206e-09 0.000175278 -5.91369e-09
 1.22743e-08 0.000175513 1.41492e-09
 5.66181e-09 0.000175111 6.95548e-11
 2.17408e-09 0.000172817 -2.44747e-09
 -3.11169e-09 0.000181166 -8.02489e-10
 -1.80587e-09 0.000176577 -4.90544e-09
 -4.1615e-09 0.000176025 -3.49579e-09
 -6.29286e-09 0.000173323 -4.37587e-09
 -7.65455e-09 0.00017338 -7.70454e-09
 1.05998e-08 0.000176745 2.84749e-09
 5.52351e-09 0.000177902 -3.66169e-09
 -4.43258e-11 0.000173851 -1.76963e-09
 -1.10567e-09 0.000172887 5.40155e-10
 -2.9268e-10 0.000176163 -6.48798e-09
 -6.27083e-10 0.000172507 -5.25522e-09
 -1.8534e-09 0.000175586 -1.70363e-09
 -2.23922e-09 0.000176674 -1.05257e-08
 -5.13101e-11 0.000174989 1.23737e-09
 -1.69713e-09 0.000179563 -5.92095e-09
 1.75104e-09 0.000175077 -3.54116e-09
 -1.31168e-09 0.000174229 2.45284e-09
 -3.90053e-09 0.00017332 -4.79491e-09
 -2.15138e-09 0.000175918 -7.8129e-09
 -2.50247e-10 0.000171967 -3.58988e-09
 5.1261e-09 0.000182382 -7.81567e-09
 1.42916e-09 0.000176077 2.1973e-09
 1.29462e-09 0.000176233 -9.67532e-09
 -5.59242e-09 0.000173926 -3.15555e-11
 -2.10973e-09 0.000178772 -2.80768e-09
 -1.02018e-09 0.000173185 -1.32892e-08
 -4.20379e-09 0.000176776 -2.2056e-09
 -3.42518e-09 0.000182544 8.15859e-10
 -5.79125e-09 0.00016875 -8.55817e-09
 2.3788e-08 0.00263326 1.79087e-08
 1.69627e-08 0.00263283 2.39354e-08
 1.5823e-08 0.00263193 2.10617e-08
 4.47309e-09 0.00263481 1.88607e-08
 1.42151e-08 0.00263316 1.31574e-08
 1.28336e-08 0.00263393 1.09102e-08
 1.09007e-08 0.002635 7.93415e-09
 6.75943e-09 0.00262828 1.60078e-08
 3.09237e-08 0.00263284 1.26776e-08
 2.25216e-08 0.00263024 1.76989e-08
 1.23328e-08 0.00263274 1.55853e-08
 4.11452e-09 0.00263259 1.24831e-08
 8.47719e-09 0.00263274 8.20269e-09
 4.49023e-09 0.00263451 4.17939e-09
 5.93042e-09 0.00263433 3.61504e-09
 1.52633e-09 0.00263036 7.04205e-09
 2.46601e-08 0.0026319 1.21263e-08
 1.63606e-08 0.00263281 8.38027e-09
 1.04263e-08 0.00263119 9.94738e-09
 1.27891e-09 0.00263098 3.79853e-09
 9.04268e-09 0.00263243 1.77707e-09
 4.32721e-09 0.00263161 2.22885e-09
 -2.04594e-09 0.00263229 2.65873e-09
 -1.3541e-08 0.00263224 -7.72476e-09
 2.4199e-08 0.00263479 2.88964e-09
 1.52786e-08 0.00263334 1.32139e-09
 8.02777e-09 0.00263073 -3.53595e-09
 -4.64705e-10 0.00262892 -2.01688e-09
 7.40266e-09 0.00263052 -1.03992e-09
 -1.15196e-09 0.00263172 -5.77671e-10
 -1.12061e-08 0.00263353 -5.30443e-09
 -7.54633e-09 0.00263243 -6.83587e-09
 1.83816e-08 0.0026333 1.31242e-08
 1.26909e-08 0.00263293 6.21807e-09
 5.78681e-09 0.00263173 4.54256e-09
 3.90704e-09 0.00263058 1.92877e-09
 1.66003e-09 0.00263247 -2.64062e-09
 -7.66969e-10 0.00263099 -1.61413e-09
 -7.93687e-09 0.00262914 -3.5009e-09
 -1.83202e-08 0.00262978 -1.05986e-08
 1.26662e-08 0.00263416 1.10063e-08
 1.29969e-08 0.00263458 1.7536e-09
 4.85231e-09 0.00263166 1.54129e-09
 1.84271e-09 0.0026317 -2.61834e-09
 2.55059e-10 0.00263084 -1.03547e-08
 -3.25098e-09 0.00263233 -1.15904e-08
 -9.83626e-09 0.00263381 -8.80834e-09
 -1.32697e-08 0.00263495 -2.13387e-08
 1.07968e-08 0.00262978 6.81961e-09
 3.98587e-09 0.00263444 3.34048e-09
 7.71164e-09 0.00263307 -1.3135e-08
 -9.70968e-10 0.00263339 -1.1032e-08
 7.46787e-10 0.00262906 -7.42399e-09
 -1.2269e-08 0.00263385 -1.43055e-08
 -1.95667e-08 0.00263348 -2.19552e-08
 -2.68132e-08 0.00264034 -3.05864e-08
 1.54174e-08 0.00262981 4.01772e-09
 1.06194e-08 0.00263074 -2.82994e-09
 -2.96009e-09 0.0026323 -1.89249e-08
 -1.59642e-09 0.00263106 -1.70334e-08
 -6.17746e-09 0.00262966 -1.28214e-08
 -1.5198e-08 0.00263563 -1.59646e-08
 -2.38332e-08 0.00264032 -3.34552e-08
 -3.29973e-08 0.00263602 -3.91351e-08
 2.77164e-08 0.00231087 1.97384e-08
 1.78236e-08 0.00231578 2.52842e-08
 1.90386e-08 0.00231661 2.44409e-08
 7.17272e-09 0.00231117 1.39833e-08
 9.0429e-09 0.002314 1.05291e-08
 7.52871e-09 0.0023145 5.89749e-09
 4.2038e-09 0.00230761 6.57902e-09
 2.55135e-09 0.00232011 5.62635e-09
 2.75305e-08 0.00231587 1.83676e-08
 2.4273e-08 0.00231509 1.63368e-08
 1.21224e-08 0.00231539 1.20808e-08
 1.99386e-09 0.00231555 9.46073e-09
 3.27166e-10 0.00231551 5.986e-09
 -2.23009e-09 0.00231409 4.85354e-09
 -3.60661e-10 0.00231296 2.63083e-11
 -4.53421e-09 0.00231494 -8.05185e-09
 2.50816e-08 0.00231692 1.35596e-08
 1.53453e-08 0.00231537 8.7463e-09
 9.30875e-09 0.00231759 9.00707e-09
 2.9344e-09 0.00231422 -7.91692e-10
 3.6636e-10 0.00231601 -1.05991e-09
 -1.16028e-08 0.00231736 -5.34526e-09
 -2.05784e-08 0.00231737 -4.02182e-09
 -3.17879e-08 0.00231629 -1.40535e-08
 3.00367e-08 0.00231172 4.21917e-09
 1.74272e-08 0.0023143 9.34882e-10
 4.52839e-09 0.00231416 -2.93434e-09
 -1.03405e-09 0.00231968 -8.30522e-09
 -8.60227e-10 0.00231437 -3.70599e-09
 -7.32607e-09 0.00231662 -8.72862e-09
 -2.17532e-08 0.00231441 -1.26745e-08
 -1.49373e-08 0.00231585 -1.57834e-08
 1.09438e-08 0.00231373 5.19111e-09
 1.10612e-08 0.00231525 -6.22001e-09
 3.77574e-09 0.00231763 -2.98167e-09
 -5.09987e-10 0.00231449 -4.58063e-09
 3.13523e-09 0.00231629 -4.95745e-09
 -3.50751e-09 0.00231516 -9.00762e-09
 -1.30676e-08 0.00231708 -1.14658e-09
 -3.07209e-08 0.00231698 -1.46268e-08
 1.14387e-08 0.00231411 3.02779e-09
 7.00014e-09 0.00231411 -7.46027e-09
 1.42836e-09 0.00231747 -1.23254e-08
 -4.20497e-09 0.00231706 -1.79544e-08
 -5.90678e-09 0.0023154 -8.748e-09
 -1.29209e-08 0.00231654 -1.00026e-08
 -5.88468e-09 0.0023092 -1.78701e-08
 -1.34712e-08 0.00230799 -2.92448e-08
 1.00001e-08 0.00231573 1.25257e-09
 9.52467e-09 0.00231297 -6.55003e-09
 2.71916e-09 0.00231553 -2.17096e-08
 -6.13948e-09 0.00231503 -2.60932e-08
 1.53964e-09 0.00231704 -2.11186e-08
 -9.08199e-09 0.00230906 -1.07576e-08
 -3.02588e-08 0.0023102 -3.59033e-08
 -4.09664e-08 0.00231984 -4.19468e-08
 1.1047e-08 0.00231552 -1.22053e-10
 -2.94544e-09 0.00231526 -9.5023e-09
 -7.69689e-09 0.00231717 -3.18306e-08
 -9.27274e-09 0.00231356 -3.19087e-08
 -8.21794e-09 0.00231696 -3.08498e-08
 -2.2384e-08 0.00230688 -1.61308e-08
 -3.47767e-08 0.00231981 -4.91309e-08
 -4.95606e-08 0.0023114 -5.55996e-08
 -2.92891e-09 -0.000266813 -3.18289e-09
 2.19422e-09 -0.000267708 -4.33435e-09
 7.83109e-09 -0.000265832 4.85998e-09
 6.55753e-09 -0.000263586 5.92093e-09
 9.33967e-09 -0.00026447 7.75334e-09
 8.1557e-09 -0.00026499 5.04477e-09
 7.73677e-09 -0.000264568 1.61825e-09
 5.62975e-09 -0.000264765 1.01123e-08
 8.61233e-09 -0.000267661 1.94379e-09
 6.90718e-09 -0.00026204 6.57648e-09
 5.55893e-09 -0.000262924 4.98061e-09
 6.63815e-09 -0.000261354 2.25852e-09
 1.29396e-09 -0.000262483 3.80397e-09
 5.73202e-09 -0.000269147 1.61634e-09
 5.31875e-09 -0.000264829 -1.07778e-10
 3.74146e-09 -0.00026311 4.63275e-09
 3.03579e-09 -0.000265865 8.73105e-09
 2.01399e-09 -0.000262839 3.51993e-09
 5.01304e-09 -0.000266533 5.36134e-09
 4.35888e-09 -0.000265376 5.00268e-09
 4.4231e-09 -0.000265427 1.09437e-09
 1.84328e-10 -0.000265809 -1.73914e-10
 -5.09548e-09 -0.000266516 7.57412e-11
 -5.89589e-09 -0.000262413 5.91371e-12
 5.7124e-09 -0.000263065 8.22874e-09
 3.97472e-10 -0.000263959 6.21344e-09
 2.79725e-09 -0.000265262 3.76881e-09
 3.59098e-09 -0.000266928 3.40108e-09
 2.59828e-09 -0.000264739 3.02211e-09
 -1.6615e-09 -0.000262483 7.92533e-10
 -1.10515e-09 -0.000266295 -1.19359e-09
 9.87882e-10 -0.000262452 -2.70354e-09
 1.47213e-10 -0.000264953 9.58599e-09
 6.05149e-09 -0.000263054 1.7471e-09
 3.24039e-09 -0.000265467 4.63791e-09
 2.9264e-09 -0.000264852 1.16511e-09
 2.04738e-09 -0.00026571 3.32006e-09
 1.75426e-09 -0.000262686 6.82627e-10
 -1.51223e-09 -0.000261539 3.42098e-10
 -8.63668e-09 -0.000262522 -5.24612e-09
 5.5318e-09 -0.000265521 7.77139e-09
 6.02224e-09 -0.000269409 7.06881e-09
 3.39683e-09 -0.00026599 -1.93462e-09
 2.09175e-09 -0.000262827 -3.35945e-09
 7.15693e-10 -0.000262336 2.19692e-09
 1.88108e-11 -0.00026333 1.74431e-09
 3.46001e-10 -0.000260158 -6.1607e-09
 -2.76962e-09 -0.000265295 -9.05847e-09
 3.70752e-09 -0.000263982 7.34156e-09
 7.69781e-10 -0.000265286 5.5935e-09
 2.1709e-09 -0.000269166 -4.11909e-09
 4.68684e-10 -0.000266294 1.64348e-09
 4.43098e-09 -0.00026119 -6.25499e-09
 -2.90933e-09 -0.000260099 -1.11501e-09
 -9.21916e-09 -0.000264892 -1.01079e-08
 -1.19298e-08 -0.000266086 -1.26794e-08
 1.01575e-08 -0.000263762 6.07328e-09
 6.94626e-09 -0.000263054 4.51652e-09
 -1.37889e-09 -0.000262484 -9.0067e-09
 -6.75946e-10 -0.000262209 -1.98569e-10
 -4.30859e-09 -0.000262154 -9.0768e-09
 -8.07867e-09 -0.000265339 -1.32697e-09
 -1.06183e-08 -0.000266039 -1.44382e-08
 -1.26207e-08 -0.000268808 -1.42071e-08
 -2.30306e-08 -8.83982e-05 -2.30025e-08
 -1.25568e-08 -0.000100034 -1.13747e-08
 -2.07761e-09 -9.38093e-05 -1.10656e-08
 6.88852e-09 -9.95847e-05 -1.16833e-08
 8.3143e-09 -9.75571e-05 -4.75522e-09
 7.3684e-09 -9.74778e-05 9.5811e-10
 5.71992e-09 -9.10268e-05 6.31512e-09
 3.26551e-09 -9.44686e-05 1.3558e-08
 -1.73358e-08 -0.000100165 -9.87836e-09
 -6.86283e-09 -9.16785e-05 -4.11166e-09
 7.46997e-10 -9.18425e-05 -4.07858e-09
 6.88329e-09 -9.3619e-05 -3.32511e-10
 6.63838e-09 -9.11438e-05 4.31236e-10
 7.97134e-09 -9.84802e-05 3.12046e-09
 8.45362e-09 -9.88227e-05 3.34687e-09
 7.57424e-09 -9.14366e-05 9.96419e-09
 -1.2863e-08 -9.3898e-05 1.28726e-09
 -7.20337e-09 -9.20152e-05 3.27764e-09
 1.75232e-09 -9.11269e-05 4.25565e-09
 7.83961e-09 -9.30345e-05 4.93789e-09
 5.82867e-09 -9.38134e-05 5.42387e-09
 8.06058e-09 -9.45619e-05 3.97429e-09
 9.76452e-09 -9.46761e-05 6.17408e-09
 1.08662e-08 -9.3301e-05 8.64298e-09
 -6.77128e-09 -0.0001017 1.08487e-08
 -7.48991e-09 -9.79059e-05 1.05137e-08
 1.71847e-09 -9.29983e-05 1.05145e-08
 6.32519e-09 -9.48561e-05 8.96183e-09
 4.77356e-09 -9.28897e-05 9.7581e-09
 7.97497e-09 -9.40582e-05 8.77661e-09
 9.16289e-09 -9.7406e-05 8.18563e-09
 1.09165e-08 -9.43651e-05 9.92606e-09
 -1.21289e-08 -9.79191e-05 1.19894e-08
 -1.1942e-09 -9.15411e-05 8.64166e-09
 1.67856e-09 -9.41096e-05 8.6598e-09
 6.9252e-09 -9.27102e-05 7.55037e-09
 3.52876e-09 -0.000101208 7.41735e-09
 6.55895e-09 -9.36681e-05 6.39268e-09
 9.18792e-09 -9.33286e-05 6.60224e-09
 1.19305e-08 -9.5036e-05 3.54967e-09
 -3.67093e-09 -9.81797e-05 1.02044e-08
 5.0174e-10 -9.87251e-05 1.17294e-08
 1.7026e-09 -9.46714e-05 1.12625e-08
 5.44483e-09 -9.34855e-05 9.99795e-09
 3.80682e-09 -9.42799e-05 9.43904e-09
 5.95751e-09 -9.94765e-05 8.99006e-09
 8.75056e-09 -9.05348e-05 8.44981e-09
 1.23323e-08 -9.07989e-05 8.93269e-09
 1.28551e-09 -9.23309e-05 9.65136e-09
 3.68781e-09 -9.94433e-05 1.22241e-08
 3.80405e-09 -9.95143e-05 1.30369e-08
 6.60161e-09 -9.7295e-05 1.17068e-08
 4.62154e-09 -9.30045e-05 1.24378e-08
 5.70695e-09 -9.0624e-05 1.12511e-08
 1.03481e-08 -9.01182e-05 1.2071e-08
 1.58001e-08 -9.96189e-05 1.48293e-08
 1.06266e-08 -9.37249e-05 8.53221e-09
 6.71096e-09 -9.19834e-05 1.19968e-08
 5.75023e-09 -9.34648e-05 1.47138e-08
 7.64919e-09 -9.36701e-05 1.32589e-08
 2.75103e-10 -9.48286e-05 1.4697e-08
 6.46121e-09 -9.15862e-05 1.4159e-08
 1.29452e-08 -9.97035e-05 1.69332e-08
 1.99203e-08 -9.18584e-05 2.112e-08
 -4.41081e-08 -0.000464052 -4.26573e-08
 -2.90301e-08 -0.000456112 -3.02705e-08
 -1.19463e-08 -0.000462776 -2.32745e-08
 4.96236e-09 -0.000458244 -1.50548e-08
 5.7949e-09 -0.000459023 -8.08951e-09
 1.73449e-09 -0.000459006 -1.77003e-09
 -2.068e-09 -0.000464313 6.08382e-09
 -7.55773e-09 -0.000464656 1.66949e-08
 -3.51447e-08 -0.00045607 -2.29833e-08
 -1.87954e-08 -0.000466713 -1.52491e-08
 -6.15313e-09 -0.000464866 -1.12462e-08
 8.25222e-09 -0.000464768 -5.33261e-09
 8.45506e-09 -0.000465551 -1.11561e-09
 6.08152e-09 -0.00045678 1.70682e-09
 2.19183e-09 -0.000458066 1.0383e-08
 2.63178e-09 -0.000464042 1.96269e-08
 -2.59948e-08 -0.000462726 -6.54449e-09
 -1.28241e-08 -0.000464824 -3.49695e-10
 -2.90943e-09 -0.000462219 4.49365e-09
 9.48731e-09 -0.000462764 7.33724e-09
 6.47586e-09 -0.000462982 3.54857e-09
 9.81232e-09 -0.000462695 9.61968e-09
 1.04475e-08 -0.00046244 1.30762e-08
 1.09891e-08 -0.000465013 1.87363e-08
 -1.46787e-08 -0.000460093 9.89358e-09
 -8.53661e-09 -0.000459194 1.49588e-08
 1.18762e-09 -0.000462886 1.59362e-08
 9.5647e-09 -0.000461765 1.51761e-08
 6.13059e-09 -0.000463194 1.46655e-08
 1.24443e-08 -0.000464207 1.57724e-08
 1.95049e-08 -0.000458939 1.76938e-08
 2.37563e-08 -0.0004646 1.9949e-08
 -1.56064e-08 -0.00045879 1.11184e-08
 -9.17163e-09 -0.00046531 1.33665e-08
 -1.0043e-10 -0.000463006 1.23997e-08
 8.9773e-09 -0.000463265 1.19939e-08
 6.40853e-09 -0.000457999 1.25806e-08
 1.28766e-08 -0.000465316 1.24313e-08
 2.01783e-08 -0.000462788 1.1107e-08
 2.56648e-08 -0.000461124 1.28914e-08
 -1.2462e-08 -0.000459043 8.45629e-09
 -3.09468e-09 -0.000456954 1.27613e-08
 5.82672e-09 -0.000462813 1.5041e-08
 1.00421e-08 -0.000465507 1.946e-08
 5.69565e-09 -0.0004651 1.80838e-08
 1.48727e-08 -0.00045882 1.9373e-08
 2.56402e-08 -0.000465986 2.35538e-08
 3.75894e-08 -0.000461812 2.94592e-08
 -2.20617e-09 -0.000463893 4.52995e-09
 3.20259e-09 -0.000458344 1.10192e-08
 5.53347e-09 -0.000456992 1.91741e-08
 1.24546e-08 -0.000459229 2.43532e-08
 5.52171e-09 -0.000462915 2.35201e-08
 1.92775e-08 -0.000465835 2.99306e-08
 3.2099e-08 -0.000463509 3.74408e-08
 4.74143e-08 -0.000458027 4.45196e-08
 4.87682e-09 -0.000463471 2.78035e-09
 7.4866e-09 -0.000464688 1.06998e-08
 1.23584e-08 -0.000465588 2.03366e-08
 1.46167e-08 -0.000462607 2.93092e-08
 7.65751e-09 -0.000461102 3.10301e-08
 2.29513e-08 -0.000463947 4.09008e-08
 3.99678e-08 -0.000457879 5.07967e-08
 5.53845e-08 -0.00046423 5.69336e-08
 -2.1618e-08 -0.000381922 -2.41304e-08
 -9.08253e-09 -0.000375139 -1.96964e-08
 7.61693e-11 -0.000379526 -1.32657e-08
 1.17939e-08 -0.000375562 -1.2126e-08
 1.32306e-08 -0.000376718 2.63688e-10
 7.74584e-09 -0.00037668 8.00437e-10
 1.44285e-09 -0.000381683 4.631e-09
 -4.22933e-09 -0.000378408 1.81416e-08
 -1.8475e-08 -0.000375223 -1.35061e-08
 -8.74104e-09 -0.000378322 -8.46931e-09
 2.23416e-09 -0.000379508 -2.96379e-09
 1.41536e-08 -0.000378831 3.09147e-10
 1.36895e-08 -0.000380305 1.72426e-09
 1.27525e-08 -0.000377382 6.55744e-09
 8.43538e-09 -0.000375901 1.28857e-08