<?xml version="1.0"?>
<VTKFile type="UnstructuredGrid" version="0.1" byte_order="LittleEndian" compressor="vtkZLibDataCompressor">
<UnstructuredGrid>
<Piece NumberOfPoints="960" NumberOfCells="120">
<Points>
<DataArray type="Float32" NumberOfComponents="3" format="ascii">
-4.000000e+02 -6.000000e+03 -4.000000e+02
0.000000e+00 -6.000000e+03 -4.000000e+02
-4.000000e+02 -5.600000e+03 -4.000000e+02
-2.840990e-10 -5.600000e+03 -4.000000e+02
-4.000000e+02 -6.000000e+03 0.000000e+00
0.000000e+00 -6.000000e+03 0.000000e+00
-4.000000e+02 -5.600000e+03 -7.309030e-10
-1.664040e-10 -5.600000e+03 -5.579910e-10
0.000000e+00 -6.000000e+03 -4.000000e+02
4.000000e+02 -6.000000e+03 -4.000000e+02
-2.840990e-10 -5.600000e+03 -4.000000e+02
4.000000e+02 -5.600000e+03 -4.000000e+02
0.000000e+00 -6.000000e+03 0.000000e+00
4.000000e+02 -6.000000e+03 0.000000e+00
-1.664040e-10 -5.600000e+03 -5.579910e-10
4.000000e+02 -5.600000e+03 5.611100e-11
-4.000000e+02 -5.600000e+03 -4.000000e+02
-2.840990e-10 -5.600000e+03 -4.000000e+02
-4.000000e+02 -5.200000e+03 -4.000000e+02
-1.189590e-10 -5.200000e+03 -4.000000e+02
-4.000000e+02 -5.600000e+03 -7.309030e-10
-1.664040e-10 -5.600000e+03 -5.579910e-10
-4.000000e+02 -5.200000e+03 1.736130e-11
5.645640e-10 -5.200000e+03 4.764240e-10
-2.840990e-10 -5.600000e+03 -4.000000e+02
4.000000e+02 -5.600000e+03 -4.000000e+02
-1.189590e-10 -5.200000e+03 -4.000000e+02
4.000000e+02 -5.200000e+03 -4.000000e+02
-1.664040e-10 -5.600000e+03 -5.579910e-10
4.000000e+02 -5.600000e+03 5.611100e-11
5.645640e-10 -5.200000e+03 4.764240e-10
4.000000e+02 -5.200000e+03 6.898460e-10
-4.000000e+02 -5.200000e+03 -4.000000e+02
-1.189590e-10 -5.200000e+03 -4.000000e+02
-4.000000e+02 -4.800000e+03 -4.000000e+02
9.384360e-10 -4.800000e+03 -4.000000e+02
-4.000000e+02 -5.200000e+03 1.736130e-11
5.645640e-10 -5.200000e+03 4.764240e-10
-4.000000e+02 -4.800000e+03 -4.482970e-10
2.421140e-09 -4.800000e+03 1.459470e-10
-1.189590e-10 -5.200000e+03 -4.000000e+02
4.000000e+02 -5.200000e+03 -4.000000e+02
9.384360e-10 -4.800000e+03 -4.000000e+02
4.000000e+02 -4.800000e+03 -4.000000e+02
5.645640e-10 -5.200000e+03 4.764240e-10
4.000000e+02 -5.200000e+03 6.898460e-10
2.421140e-09 -4.800000e+03 1.459470e-10
4.000000e+02 -4.800000e+03 -4.108090e-10
-4.000000e+02 -4.800000e+03 -4.000000e+02
9.384360e-10 -4.800000e+03 -4.000000e+02
-4.000000e+02 -4.400010e+03 -4.000000e+02
6.796790e-10 -4.400010e+03 -4.000000e+02
-4.000000e+02 -4.800000e+03 -4.482970e-10
2.421140e-09 -4.800000e+03 1.459470e-10
-4.000000e+02 -4.400010e+03 8.796030e-10
1.310640e-09 -4.400010e+03 9.873420e-10
9.384360e-10 -4.800000e+03 -4.000000e+02
4.000000e+02 -4.800000e+03 -4.000000e+02
6.796790e-10 -4.400010e+03 -4.000000e+02
4.000000e+02 -4.400010e+03 -4.000000e+02
2.421140e-09 -4.800000e+03 1.459470e-10
4.000000e+02 -4.800000e+03 -4.108090e-10
1.310640e-09 -4.400010e+03 9.873420e-10
4.000000e+02 -4.400010e+03 8.851680e-10
-4.000000e+02 -4.400010e+03 -4.000000e+02
6.796790e-10 -4.400010e+03 -4.000000e+02
-4.000000e+02 -4.000010e+03 -4.000000e+02
2.079420e-10 -4.000010e+03 -4.000000e+02
-4.000000e+02 -4.400010e+03 8.796030e-10
1.310640e-09 -4.400010e+03 9.873420e-10
-4.000000e+02 -4.000010e+03 2.137440e-09
9.069210e-10 -4.000010e+03 2.389760e-09
6.796790e-10 -4.400010e+03 -4.000000e+02
4.000000e+02 -4.400010e+03 -4.000000e+02
2.079420e-10 -4.000010e+03 -4.000000e+02
4.000000e+02 -4.000010e+03 -4.000000e+02
1.310640e-09 -4.400010e+03 9.873420e-10
4.000000e+02 -4.400010e+03 8.851680e-10
9.069210e-10 -4.000010e+03 2.389760e-09
4.000000e+02 -4.000010e+03 3.156920e-09
-4.000000e+02 -4.000010e+03 -4.000000e+02
2.079420e-10 -4.000010e+03 -4.000000e+02
-4.000000e+02 -3.600020e+03 -4.000000e+02
1.162430e-10 -3.600020e+03 -4.000000e+02
-4.000000e+02 -4.000010e+03 2.137440e-09
9.069210e-10 -4.000010e+03 2.389760e-09
-4.000000e+02 -3.600020e+03 3.232440e-09
1.130180e-09 -3.600020e+03 2.731220e-09
2.079420e-10 -4.000010e+03 -4.000000e+02
4.000000e+02 -4.000010e+03 -4.000000e+02
1.162430e-10 -3.600020e+03 -4.000000e+02
4.000000e+02 -3.600020e+03 -4.000000e+02
9.069210e-10 -4.000010e+03 2.389760e-09
4.000000e+02 -4.000010e+03 3.156920e-09
1.130180e-09 -3.600020e+03 2.731220e-09
4.000000e+02 -3.600020e+03 2.412660e-09
-4.000000e+02 -3.600020e+03 -4.000000e+02
1.162430e-10 -3.600020e+03 -4.000000e+02
-4.000000e+02 -3.200040e+03 -4.000000e+02
-6.717030e-12 -3.200040e+03 -4.000000e+02
-4.000000e+02 -3.600020e+03 3.232440e-09
1.130180e-09 -3.600020e+03 2.731220e-09
-4.000000e+02 -3.200040e+03 2.742530e-09
1.549320e-10 -3.200040e+03 1.769990e-09
1.162430e-10 -3.600020e+03 -4.000000e+02
4.000000e+02 -3.600020e+03 -4.000000e+02
-6.717030e-12 -3.200040e+03 -4.000000e+02
4.000000e+02 -3.200040e+03 -4.000000e+02
1.130180e-09 -3.600020e+03 2.731220e-09
4.000000e+02 -3.600020e+03 2.412660e-09
1.549320e-10 -3.200040e+03 1.769990e-09
4.000000e+02 -3.200040e+03 1.813060e-09
-4.000000e+02 -3.200040e+03 -4.000000e+02
-6.717030e-12 -3.200040e+03 -4.000000e+02
-4.000000e+02 -2.800060e+03 -4.000000e+02
-3.033670e-11 -2.800060e+03 -4.000000e+02
-4.000000e+02 -3.200040e+03 2.742530e-09
1.549320e-10 -3.200040e+03 1.769990e-09
-4.000000e+02 -2.800060e+03 8.744710e-10
-1.785250e-10 -2.800060e+03 -9.463360e-11
-6.717030e-12 -3.200040e+03 -4.000000e+02
4.000000e+02 -3.200040e+03 -4.000000e+02
-3.033670e-11 -2.800060e+03 -4.000000e+02
4.000000e+02 -2.800060e+03 -4.000000e+02
1.549320e-10 -3.200040e+03 1.769990e-09
4.000000e+02 -3.200040e+03 1.813060e-09
-1.785250e-10 -2.800060e+03 -9.463360e-11
4.000000e+02 -2.800060e+03 1.198920e-10
-4.000000e+02 -2.800060e+03 -4.000000e+02
-3.033670e-11 -2.800060e+03 -4.000000e+02
-4.000000e+02 -2.400110e+03 -4.000000e+02
1.060980e-10 -2.400110e+03 -4.000000e+02
-4.000000e+02 -2.800060e+03 8.744710e-10
-1.785250e-10 -2.800060e+03 -9.463360e-11
-4.000000e+02 -2.400110e+03 5.596630e-10
3.761640e-10 -2.400110e+03 -7.075570e-10
-3.033670e-11 -2.800060e+03 -4.000000e+02
4.000000e+02 -2.800060e+03 -4.000000e+02
1.060980e-10 -2.400110e+03 -4.000000e+02
4.000000e+02 -2.400110e+03 -4.000000e+02
-1.785250e-10 -2.800060e+03 -9.463360e-11
4.000000e+02 -2.800060e+03 1.198920e-10
3.761640e-10 -2.400110e+03 -7.075570e-10
4.000000e+02 -2.400110e+03 -2.007540e-09
-4.000000e+02 -2.400110e+03 -4.000000e+02
1.060980e-10 -2.400110e+03 -4.000000e+02
-4.000000e+02 -2.000170e+03 -4.000000e+02
9.396340e-10 -2.000170e+03 -4.000000e+02
-4.000000e+02 -2.400110e+03 5.596630e-10
3.761640e-10 -2.400110e+03 -7.075570e-10
-4.000000e+02 -2.000170e+03 1.966640e-10
7.646560e-10 -2.000170e+03 -1.656440e-10
1.060980e-10 -2.400110e+03 -4.000000e+02
4.000000e+02 -2.400110e+03 -4.000000e+02
9.396340e-10 -2.000170e+03 -4.000000e+02
4.000000e+02 -2.000170e+03 -4.000000e+02
3.761640e-10 -2.400110e+03 -7.075570e-10
4.000000e+02 -2.400110e+03 -2.007540e-09
7.646560e-10 -2.000170e+03 -1.656440e-10
4.000000e+02 -2.000170e+03 -1.359240e-09
-4.000000e+02 -2.000170e+03 -4.000000e+02
9.396340e-10 -2.000170e+03 -4.000000e+02
-4.000000e+02 -1.600250e+03 -4.000000e+02
-5.926910e-10 -1.600250e+03 -4.000000e+02
-4.000000e+02 -2.000170e+03 1.966640e-10
7.646560e-10 -2.000170e+03 -1.656440e-10
-4.000000e+02 -1.600250e+03 -1.631800e-09
8.655680e-10 -1.600250e+03 -9.757540e-10
9.396340e-10 -2.000170e+03 -4.000000e+02
4.000000e+02 -2.000170e+03 -4.000000e+02
-5.926910e-10 -1.600250e+03 -4.000000e+02
4.000000e+02 -1.600250e+03 -4.000000e+02
7.646560e-10 -2.000170e+03 -1.656440e-10
4.000000e+02 -2.000170e+03 -1.359240e-09
8.655680e-10 -1.600250e+03 -9.757540e-10
4.000000e+02 -1.600250e+03 -4.778190e-10
-4.000000e+02 -1.600250e+03 -4.000000e+02
-5.926910e-10 -1.600250e+03 -4.000000e+02
-4.000000e+02 -1.200310e+03 -4.000000e+02
-2.613450e-09 -1.200310e+03 -4.000000e+02
-4.000000e+02 -1.600250e+03 -1.631800e-09
8.655680e-10 -1.600250e+03 -9.757540e-10
-4.000000e+02 -1.200310e+03 -3.472800e-09
-1.243090e-09 -1.200310e+03 -2.491130e-09
-5.926910e-10 -1.600250e+03 -4.000000e+02
4.000000e+02 -1.600250e+03 -4.000000e+02
-2.613450e-09 -1.200310e+03 -4.000000e+02
4.000000e+02 -1.200310e+03 -4.000000e+02
8.655680e-10 -1.600250e+03 -9.757540e-10
4.000000e+02 -1.600250e+03 -4.778190e-10
-1.243090e-09 -1.200310e+03 -2.491130e-09
4.000000e+02 -1.200310e+03 -4.886870e-09
-4.000000e+02 -1.200310e+03 -4.000000e+02
-2.613450e-09 -1.200310e+03 -4.000000e+02
-4.000000e+02 -8.003430e+02 -4.000000e+02
4.830800e-09 -8.003430e+02 -4.000000e+02
-4.000000e+02 -1.200310e+03 -3.472800e-09
-1.243090e-09 -1.200310e+03 -2.491130e-09
-4.000000e+02 -8.003430e+02 4.776580e-09
9.649940e-10 -8.003430e+02 -2.234490e-10
-2.613450e-09 -1.200310e+03 -4.000000e+02
4.000000e+02 -1.200310e+03 -4.000000e+02
4.830800e-09 -8.003430e+02 -4.000000e+02
4.000000e+02 -8.003430e+02 -4.000000e+02
-1.243090e-09 -1.200310e+03 -2.491130e-09
4.000000e+02 -1.200310e+03 -4.886870e-09
9.649940e-10 -8.003430e+02 -2.234490e-10
4.000000e+02 -8.003430e+02 7.788340e-10
-4.000000e+02 -8.003430e+02 -4.000000e+02
4.830800e-09 -8.003430e+02 -4.000000e+02
-4.000000e+02 -4.003320e+02 -4.000000e+02
-3.528610e-09 -4.003320e+02 -4.000000e+02
-4.000000e+02 -8.003430e+02 4.776580e-09
9.649940e-10 -8.003430e+02 -2.234490e-10
-4.000000e+02 -4.003320e+02 -4.699670e-09
4.050530e-09 -4.003320e+02 2.430390e-09
4.830800e-09 -8.003430e+02 -4.000000e+02
4.000000e+02 -8.003430e+02 -4.000000e+02
-3.528610e-09 -4.003320e+02 -4.000000e+02
4.000000e+02 -4.003320e+02 -4.000000e+02
9.649940e-10 -8.003430e+02 -2.234490e-10
4.000000e+02 -8.003430e+02 7.788340e-10
4.050530e-09 -4.003320e+02 2.430390e-09
4.000000e+02 -4.003320e+02 2.791250e-09
-4.000000e+02 -4.003320e+02 -4.000000e+02
-3.528610e-09 -4.003320e+02 -4.000000e+02
-4.000000e+02 -2.983470e-01 -4.000000e+02
6.736200e-09 -2.983470e-01 -4.000000e+02
-4.000000e+02 -4.003320e+02 -4.699670e-09
4.050530e-09 -4.003320e+02 2.430390e-09
-4.000000e+02 -2.983470e-01 7.817820e-09
4.232120e-09 -2.983470e-01 4.053370e-09
-3.528610e-09 -4.003320e+02 -4.000000e+02
4.000000e+02 -4.003320e+02 -4.000000e+02
6.736200e-09 -2.983470e-01 -4.000000e+02
4.000000e+02 -2.983470e-01 -4.000000e+02
[...]
<PointData>
<DataArray type="Float32" Name="V1" format="ascii">
0.000000e+00
0.000000e+00
-1.775370e-09
-1.359530e-09
0.000000e+00
0.000000e+00
2.670910e-10
3.245380e-10
0.000000e+00
0.000000e+00
-1.359530e-09
3.456480e-10
0.000000e+00
0.000000e+00
3.245380e-10
1.068370e-09
-1.775370e-09
-1.359530e-09
1.414010e-09
-9.619500e-10
2.670910e-10
3.245380e-10
-3.205100e-09
5.793670e-10
-1.359530e-09
3.456480e-10
-9.619500e-10
-7.227180e-10
3.245380e-10
1.068370e-09
5.793670e-10
3.346500e-09
1.414010e-09
-9.619500e-10
2.356690e-10
3.503720e-10
-3.205100e-09
5.793670e-10
9.740980e-10
-3.547290e-11
-9.619500e-10
-7.227180e-10
3.503720e-10
0.000000e+00
5.793670e-10
3.346500e-09
-3.547290e-11
-1.398300e-09
2.356690e-10
3.503720e-10
-5.813160e-10
-4.159760e-10
9.740980e-10
-3.547290e-11
1.633970e-09
1.610940e-09
3.503720e-10
0.000000e+00
-4.159760e-10
2.026750e-09
-3.547290e-11
-1.398300e-09
1.610940e-09
1.115500e-09
-5.813160e-10
-4.159760e-10
3.456480e-10
-1.020570e-09
1.633970e-09
1.610940e-09
1.351170e-09
2.176570e-10
-4.159760e-10
2.026750e-09
-1.020570e-09
-2.466670e-09
1.610940e-09
1.115500e-09
2.176570e-10
-3.299360e-10
3.456480e-10
-1.020570e-09
3.142250e-10
1.354680e-09
1.351170e-09
2.176570e-10
2.985140e-10
7.137540e-10
-1.020570e-09
-2.466670e-09
1.354680e-09
2.812310e-09
2.176570e-10
-3.299360e-10
7.137540e-10
-1.916770e-09
3.142250e-10
1.354680e-09
-2.403820e-09
-5.861830e-10
2.985140e-10
7.137540e-10
2.011040e-09
6.556120e-10
1.354680e-09
2.812310e-09
-5.861830e-10
7.855630e-11
7.137540e-10
-1.916770e-09
6.556120e-10
2.011040e-09
-2.403820e-09
-5.861830e-10
1.853930e-09
-3.011850e-10
2.011040e-09
6.556120e-10
-3.849260e-09
-1.214880e-09
-5.861830e-10
7.855630e-11
-3.011850e-10
-1.681100e-09
6.556120e-10
2.011040e-09
-1.214880e-09
-1.602550e-09
1.853930e-09
-3.011850e-10
-5.970280e-10
1.071850e-09
-3.849260e-09
-1.214880e-09
7.384290e-10
-5.636750e-10
-3.011850e-10
-1.681100e-09
1.071850e-09
0.000000e+00
-1.214880e-09
-1.602550e-09
-5.636750e-10
-2.011040e-09
-5.970280e-10
1.071850e-09
1.712530e-09
9.452700e-10
7.384290e-10
-5.636750e-10
1.775370e-09
1.246140e-09
1.071850e-09
0.000000e+00
9.452700e-10
1.963910e-09
-5.636750e-10
-2.011040e-09
1.246140e-09
-9.426750e-11
1.712530e-09
9.452700e-10
-4.116350e-09
-2.648750e-09
1.775370e-09
1.246140e-09
-2.325270e-09
-1.663010e-09
9.452700e-10
1.963910e-09
-2.648750e-09
-1.241190e-09
1.246140e-09
-9.426750e-11
-1.663010e-09
-1.036940e-09
-4.116350e-09
-2.648750e-09
2.026750e-09
2.715110e-09
-2.325270e-09
-1.663010e-09
-1.256900e-09
-1.097940e-09
-2.648750e-09
-1.241190e-09
2.715110e-09
3.315070e-09
-1.663010e-09
-1.036940e-09
-1.097940e-09
-2.309550e-09
2.026750e-09
2.715110e-09
5.027600e-10
2.330720e-09
-1.256900e-09
-1.097940e-09
1.948200e-09
3.066800e-09
2.715110e-09
3.315070e-09
2.330720e-09
-1.162630e-09
-1.097940e-09
-2.309550e-09
3.066800e-09
1.649680e-09
5.027600e-10
2.330720e-09
-6.944370e-09
-5.809680e-09
1.948200e-09
3.066800e-09
1.288320e-09
2.293470e-09
2.330720e-09
-1.162630e-09
-5.809680e-09
-4.509130e-09
3.066800e-09
1.649680e-09
2.293470e-09
2.985140e-09
-6.944370e-09
-5.809680e-09
2.276560e-08
2.047760e-08
1.288320e-09
2.293470e-09
-6.127390e-10
-2.743020e-09
-5.809680e-09
-4.509130e-09
2.047760e-08
2.067600e-08
2.293470e-09
2.985140e-09
-2.743020e-09
-5.090450e-09
2.276560e-08
2.047760e-08
-4.463570e-08
-3.135470e-08
-6.127390e-10
-2.743020e-09
1.005520e-09
2.018380e-10
2.047760e-08
2.067600e-08
-3.135470e-08
-1.531850e-08
-2.743020e-09
-5.090450e-09
2.018380e-10
-8.798300e-10
-4.463570e-08
-3.135470e-08
2.710190e-08
-3.565610e-09
1.005520e-09
2.018380e-10
6.912950e-10
3.260300e-09
-3.135470e-08
-1.531850e-08
-3.565610e-09
-3.687430e-08
2.018380e-10
-8.798300e-10
3.260300e-09
5.341830e-09
2.710190e-08
-3.565610e-09
2.132020e-08
4.241630e-08
6.912950e-10
3.260300e-09
-6.347350e-09
-1.423260e-08
-3.565610e-09
-3.687430e-08
4.241630e-08
6.235800e-08
3.260300e-09
5.341830e-09
-1.423260e-08
-2.198000e-08
2.132020e-08
4.241630e-08
-1.066790e-08
-1.342470e-08
-6.347350e-09
-1.423260e-08
-2.289130e-08
-2.477950e-08
4.241630e-08
6.235800e-08
-1.342470e-08
-1.883780e-08
-1.423260e-08
-2.198000e-08
-2.477950e-08
-2.700760e-08
-1.066790e-08
-1.342470e-08
-4.807640e-08
-3.245340e-08
-2.289130e-08
-2.477950e-08
-7.070060e-09
1.595490e-08
-1.342470e-08
-1.883780e-08
-3.245340e-08
-1.692100e-08
-2.477950e-08
-2.700760e-08
1.595490e-08
3.860260e-08
-4.807640e-08
-3.245340e-08
3.432910e-08
2.357660e-08
-7.070060e-09
1.595490e-08
2.163440e-08
6.009880e-09
-3.245340e-08
-1.692100e-08
2.357660e-08
1.288320e-08
1.595490e-08
3.860260e-08
6.009880e-09
-9.442460e-09
3.432910e-08
2.357660e-08
5.887010e-08
3.070770e-08
2.163440e-08
6.009880e-09
1.545990e-08
3.586790e-11
2.357660e-08
1.288320e-08
3.070770e-08
3.676430e-09
6.009880e-09
-9.442460e-09
3.586790e-11
-1.522420e-08
5.887010e-08
3.070770e-08
-6.336350e-08
-3.128190e-08
1.545990e-08
3.586790e-11
-2.152440e-08
1.661230e-09
3.070770e-08
3.676430e-09
-3.128190e-08
1.414010e-09
3.586790e-11
-1.522420e-08
1.661230e-09
2.502800e-08
-6.336350e-08
-3.128190e-08
-6.846960e-08
-2.570530e-08
-2.152440e-08
1.661230e-09
-2.168150e-08
-5.767040e-10
-3.128190e-08
1.414010e-09
-2.570530e-08
1.721950e-08
1.661230e-09
2.502800e-08
-5.767040e-10
2.064460e-08
-6.846960e-08
-2.570530e-08
8.820300e-08
3.622210e-08
-2.168150e-08
-5.767040e-10
4.304880e-08
4.941260e-09
-2.570530e-08
1.721950e-08
3.622210e-08
-1.574270e-08
-5.767040e-10
2.064460e-08
4.941260e-09
-3.329210e-08
8.820300e-08
3.622210e-08
3.467470e-08
1.062930e-08
4.304880e-08
4.941260e-09
1.607260e-08
-2.603510e-09
3.622210e-08
-1.574270e-08
1.062930e-08
-1.363740e-08
4.941260e-09
-3.329210e-08
-2.603510e-09
-2.136730e-08
3.467470e-08
1.062930e-08
-6.383480e-08
-2.671710e-08
1.607260e-08
-2.603510e-09
-3.343360e-08
-5.413080e-09
1.062930e-08
-1.363740e-08
-2.671710e-08
1.032230e-08
-2.603510e-09
-2.136730e-08
-5.413080e-09
2.257710e-08
-6.383480e-08
-2.671710e-08
5.970280e-10
1.167220e-09
-3.343360e-08
-5.413080e-09
3.770700e-10
1.429880e-09
-2.671710e-08
1.032230e-08
1.167220e-09
1.728240e-09
-5.413080e-09
2.257710e-08
1.429880e-09
2.482380e-09
5.970280e-10
1.167220e-09
7.258600e-09
3.476940e-09
3.770700e-10
1.429880e-09
3.959240e-09
9.641330e-10
1.167220e-09
1.728240e-09
3.476940e-09
-2.828030e-10
1.429880e-09
2.482380e-09
9.641330e-10
-1.995330e-09
7.258600e-09
3.476940e-09
-7.070060e-10
-5.147860e-10
3.959240e-09
9.641330e-10
-4.399150e-10
-1.979990e-11
3.476940e-09
-2.828030e-10
-5.147860e-10
-2.985140e-10
9.641330e-10
-1.995330e-09
-1.979990e-11
3.927810e-10
0.000000e+00
0.000000e+00
2.670910e-10
3.245380e-10
0.000000e+00
0.000000e+00
3.142250e-09
-2.678360e-10
0.000000e+00
0.000000e+00
3.245380e-10
1.068370e-09
0.000000e+00
0.000000e+00
-2.678360e-10
-1.963910e-09
2.670910e-10
3.245380e-10
-3.205100e-09
5.793670e-10
3.142250e-09
-2.678360e-10
-5.498940e-10
9.120830e-10
3.245380e-10
1.068370e-09
5.793670e-10
3.346500e-09
-2.678360e-10
-1.963910e-09
9.120830e-10
1.571130e-09
-3.205100e-09
5.793670e-10
9.740980e-10
-3.547290e-11
-5.498940e-10
9.120830e-10
1.319750e-09
-4.229060e-10
5.793670e-10
3.346500e-09
-3.547290e-11
-1.398300e-09
9.120830e-10
1.571130e-09
-4.229060e-10
-2.231000e-09
9.740980e-10
-3.547290e-11
1.633970e-09
1.610940e-09
1.319750e-09
-4.229060e-10
-3.047980e-09
-1.972960e-09
-3.547290e-11
-1.398300e-09
1.610940e-09
1.115500e-09
-4.229060e-10
-2.231000e-09
-1.972960e-09
1.461150e-09
1.633970e-09
1.610940e-09
1.351170e-09
2.176570e-10
-3.047980e-09
-1.972960e-09
-1.869640e-09
-1.517780e-09
1.610940e-09
1.115500e-09
2.176570e-10
-3.299360e-10
-1.972960e-09
1.461150e-09
-1.517780e-09
2.089600e-09
1.351170e-09
2.176570e-10
2.985140e-10
7.137540e-10
-1.869640e-09
-1.517780e-09
1.146920e-09
2.072650e-09
2.176570e-10
-3.299360e-10
7.137540e-10
-1.916770e-09
-1.517780e-09
2.089600e-09
2.072650e-09
8.484080e-10
2.985140e-10
7.137540e-10
2.011040e-09
6.556120e-10
1.146920e-09
2.072650e-09
-1.791080e-09
9.141480e-11
7.137540e-10
-1.916770e-09
6.556120e-10
2.011040e-09
2.072650e-09
8.484080e-10
9.141480e-11
9.269640e-10
2.011040e-09
6.556120e-10
-3.849260e-09
-1.214880e-09
-1.791080e-09
9.141480e-11
4.854780e-09
1.668700e-09
6.556120e-10
2.011040e-09
-1.214880e-09
-1.602550e-09
9.141480e-11
9.269640e-10
1.668700e-09
-1.571130e-10
-3.849260e-09
-1.214880e-09
7.384290e-10
-5.636750e-10
4.854780e-09
1.668700e-09
6.441610e-10
-4.627860e-10
-1.214880e-09
-1.602550e-09
-5.636750e-10
-2.011040e-09
1.668700e-09
-1.571130e-10
-4.627860e-10
-4.713380e-11
7.384290e-10
-5.636750e-10
1.775370e-09
1.246140e-09
6.441610e-10
-4.627860e-10
1.932480e-09
1.635540e-09
-5.636750e-10
-2.011040e-09
1.246140e-09
-9.426750e-11
-4.627860e-10
-4.713380e-11
1.635540e-09
4.870490e-10
1.775370e-09
1.246140e-09
-2.325270e-09
-1.663010e-09
1.932480e-09
1.635540e-09
-4.116350e-09
-3.211480e-09
1.246140e-09
-9.426750e-11
-1.663010e-09
-1.036940e-09
1.635540e-09
4.870490e-10
-3.211480e-09
1.571130e-11
-2.325270e-09
-1.663010e-09
-1.256900e-09
-1.097940e-09
-4.116350e-09
-3.211480e-09
-1.209770e-09
-2.848040e-09
-1.663010e-09
-1.036940e-09
-1.097940e-09
-2.309550e-09
-3.211480e-09
1.571130e-11
-2.848040e-09
-4.697670e-09
-1.256900e-09
-1.097940e-09
1.948200e-09
3.066800e-09
-1.209770e-09
-2.848040e-09
5.216140e-09
6.327590e-09
-1.097940e-09
-2.309550e-09
3.066800e-09
1.649680e-09
-2.848040e-09
-4.697670e-09
6.327590e-09
4.823360e-09
1.948200e-09
3.066800e-09
1.288320e-09
2.293470e-09
5.216140e-09
6.327590e-09
-8.059870e-09
-3.336800e-09
3.066800e-09
1.649680e-09
2.293470e-09
2.985140e-09
6.327590e-09
4.823360e-09
-3.336800e-09
1.429720e-09
1.288320e-09
2.293470e-09
-6.127390e-10
-2.743020e-09
-8.059870e-09
-3.336800e-09
3.110830e-09
-1.261060e-09
2.293470e-09
2.985140e-09
-2.743020e-09
-5.090450e-09
-3.336800e-09
1.429720e-09
-1.261060e-09
-2.592360e-09
-6.127390e-10
-2.743020e-09
1.005520e-09
2.018380e-10
3.110830e-09
-1.261060e-09
1.165780e-08
3.964250e-09
-2.743020e-09
-5.090450e-09
2.018380e-10
-8.798300e-10
-1.261060e-09
-2.592360e-09
3.964250e-09
-3.189380e-09
1.005520e-09
2.018380e-10
6.912950e-10
3.260300e-09
1.165780e-08
3.964250e-09
-1.571130e-08
-2.098310e-09
2.018380e-10
-8.798300e-10
3.260300e-09
5.341830e-09
3.964250e-09
-3.189380e-09
-2.098310e-09
9.206800e-09
6.912950e-10
3.260300e-09
-6.347350e-09
-1.423260e-08
-1.571130e-08
-2.098310e-09
2.364540e-08
-8.258220e-09
3.260300e-09
5.341830e-09
-1.423260e-08
-2.198000e-08
-2.098310e-09
9.206800e-09
-8.258220e-09
-3.930960e-08
-6.347350e-09
-1.423260e-08
-2.289130e-08
-2.477950e-08
2.364540e-08
-8.258220e-09
-6.163530e-08
2.438180e-08
-1.423260e-08
-2.198000e-08
-2.477950e-08
-2.700760e-08
-8.258220e-09
-3.930960e-08
2.438180e-08
1.112360e-07
-2.289130e-08
-2.477950e-08
-7.070060e-09
1.595490e-08
-6.163530e-08
2.438180e-08
2.740040e-08
4.131400e-08
-2.477950e-08
-2.700760e-08
1.595490e-08
3.860260e-08
2.438180e-08
1.112360e-07
4.131400e-08
5.274270e-08
-7.070060e-09
1.595490e-08
2.163440e-08
6.009880e-09
2.740040e-08
4.131400e-08
2.000040e-08
-3.429060e-08
1.595490e-08
3.860260e-08
6.009880e-09
-9.442460e-09
4.131400e-08
5.274270e-08
-3.429060e-08
-8.872150e-08
2.163440e-08
6.009880e-09
1.545990e-08
3.586790e-11
2.000040e-08
-3.429060e-08
3.393630e-09
-2.994270e-08
6.009880e-09
-9.442460e-09
3.586790e-11
-1.522420e-08
-3.429060e-08
-8.872150e-08
-2.994270e-08
-6.308070e-08
1.545990e-08
3.586790e-11
-2.152440e-08
1.661230e-09
3.393630e-09
-2.994270e-08
-1.976480e-08
3.119610e-08
3.586790e-11
-1.522420e-08
1.661230e-09
2.502800e-08
-2.994270e-08
-6.308070e-08
3.119610e-08
8.227980e-08
-2.152440e-08
1.661230e-09
-2.168150e-08
-5.767040e-10
-1.976480e-08
3.119610e-08
-2.923860e-08
2.243650e-08
1.661230e-09
2.502800e-08
-5.767040e-10
2.064460e-08
3.119610e-08
8.227980e-08
2.243650e-08
7.425140e-08
-2.168150e-08
-5.767040e-10
4.304880e-08
4.941260e-09
-2.923860e-08
2.243650e-08
4.592400e-08
-1.745710e-08
-5.767040e-10
2.064460e-08
4.941260e-09
-3.329210e-08
2.243650e-08
7.425140e-08
-1.745710e-08
-8.086580e-08
4.304880e-08
4.941260e-09
1.607260e-08
-2.603510e-09
4.592400e-08
-1.745710e-08
7.211470e-09
-1.347260e-08
4.941260e-09
-3.329210e-08
-2.603510e-09
-2.136730e-08
-1.745710e-08
-8.086580e-08
-1.347260e-08
-3.445480e-08
1.607260e-08
-2.603510e-09
-3.343360e-08
-5.413080e-09
7.211470e-09
-1.347260e-08
-2.955290e-08
8.584270e-09
-2.603510e-09
-2.136730e-08
-5.413080e-09
2.257710e-08
-1.347260e-08
-3.445480e-08
8.584270e-09
4.670960e-08
-3.343360e-08
-5.413080e-09
3.770700e-10
1.429880e-09
-2.955290e-08
8.584270e-09
2.513800e-09
1.988690e-09
-5.413080e-09
2.257710e-08
1.429880e-09
2.482380e-09
8.584270e-09
4.670960e-08
1.988690e-09
1.508280e-09
3.770700e-10
1.429880e-09
3.959240e-09
9.641330e-10
2.513800e-09
1.988690e-09
3.880680e-09
-7.732690e-10
1.429880e-09
2.482380e-09
9.641330e-10
-1.995330e-09
1.988690e-09
1.508280e-09
-7.732690e-10
-5.373250e-09
3.959240e-09
9.641330e-10
-4.399150e-10
-1.979990e-11
3.880680e-09
-7.732690e-10
1.099790e-10
5.842840e-10
9.641330e-10
-1.995330e-09
-1.979990e-11
3.927810e-10
-7.732690e-10
-5.373250e-09
5.842840e-10
1.084080e-09
</DataArray>
<DataArray type="Float32" Name="V2" format="ascii">
0.000000e+00
0.000000e+00
7.237880e-04
7.237910e-04
0.000000e+00
0.000000e+00
7.237950e-04
7.237950e-04
0.000000e+00
0.000000e+00
7.237910e-04
7.237910e-04
0.000000e+00
0.000000e+00
7.237950e-04
7.237970e-04
7.237880e-04
7.237910e-04
7.873770e-04
7.873800e-04
7.237950e-04
7.237950e-04
7.873830e-04
7.873900e-04
7.237910e-04
7.237910e-04
7.873800e-04
7.873780e-04
7.237950e-04
7.237970e-04
7.873900e-04
7.873880e-04
7.873770e-04
7.873800e-04
1.855000e-03
1.855010e-03
7.873830e-04
7.873900e-04
1.855010e-03
1.855010e-03
7.873800e-04
7.873780e-04
1.855010e-03
1.855010e-03
7.873900e-04
7.873880e-04
1.855010e-03
1.855000e-03
1.855000e-03
1.855010e-03
1.901780e-03
1.901780e-03
1.855010e-03
1.855010e-03
1.901770e-03
1.901780e-03
1.855010e-03
1.855010e-03
1.901780e-03
1.901770e-03
1.855010e-03
1.855000e-03
1.901780e-03
1.901770e-03
1.901780e-03
1.901780e-03
4.462170e-03
4.462180e-03
1.901770e-03
1.901780e-03
4.462170e-03
4.462180e-03
1.901780e-03
1.901770e-03
4.462180e-03
4.462180e-03
1.901780e-03
1.901770e-03
4.462180e-03
4.462180e-03
4.462170e-03
4.462180e-03
7.180820e-03
7.180820e-03
4.462170e-03
4.462180e-03
7.180820e-03
7.180820e-03
4.462180e-03
4.462180e-03
7.180820e-03
7.180820e-03
4.462180e-03
4.462180e-03
7.180820e-03
7.180820e-03
7.180820e-03
7.180820e-03
1.382660e-02
1.382660e-02
7.180820e-03
7.180820e-03
1.382660e-02
1.382660e-02
7.180820e-03
7.180820e-03
1.382660e-02
1.382660e-02
7.180820e-03
7.180820e-03
1.382660e-02
1.382660e-02
1.382660e-02
1.382660e-02
2.459750e-02
2.459750e-02
1.382660e-02
1.382660e-02
2.459750e-02
2.459750e-02
1.382660e-02
1.382660e-02
2.459750e-02
2.459750e-02
1.382660e-02
1.382660e-02
2.459750e-02
2.459750e-02
2.459750e-02
2.459750e-02
3.663770e-02
3.663770e-02
2.459750e-02
2.459750e-02
3.663770e-02
3.663770e-02
2.459750e-02
2.459750e-02
3.663770e-02
3.663770e-02
2.459750e-02
2.459750e-02
3.663770e-02
3.663770e-02
3.663770e-02
3.663770e-02
4.904190e-02
4.904190e-02
3.663770e-02
3.663770e-02
4.904190e-02
4.904190e-02
3.663770e-02
3.663770e-02
4.904190e-02
4.904190e-02
3.663770e-02
3.663770e-02
4.904190e-02
4.904190e-02
4.904190e-02
4.904190e-02
4.988740e-02
4.988740e-02
4.904190e-02
4.904190e-02
4.988740e-02
4.988740e-02
4.904190e-02
4.904190e-02
4.988740e-02
4.988740e-02
4.904190e-02
4.904190e-02
4.988740e-02
4.988740e-02
4.988740e-02
4.988740e-02
3.590900e-02
3.590890e-02
4.988740e-02
4.988740e-02
3.590890e-02
3.590890e-02
4.988740e-02
4.988740e-02
3.590890e-02
3.590890e-02
4.988740e-02
4.988740e-02
3.590890e-02
3.590890e-02
3.590900e-02
3.590890e-02
7.230000e-03
7.230020e-03
3.590890e-02
3.590890e-02
7.230020e-03
7.230040e-03
3.590890e-02
3.590890e-02
7.230020e-03
7.230010e-03
3.590890e-02
3.590890e-02
7.230040e-03
7.230040e-03
7.230000e-03
7.230020e-03
-2.188300e-02
-2.188300e-02
7.230020e-03
7.230040e-03
-2.188300e-02
-2.188300e-02
7.230020e-03
7.230010e-03
-2.188300e-02
-2.188300e-02
7.230040e-03
7.230040e-03
-2.188300e-02
-2.188300e-02
-2.188300e-02
-2.188300e-02
-2.353890e-02
-2.353900e-02
-2.188300e-02
-2.188300e-02
-2.353900e-02
-2.353900e-02
-2.188300e-02
-2.188300e-02
-2.353900e-02
-2.353910e-02
-2.188300e-02
-2.188300e-02
-2.353900e-02
-2.353900e-02
-2.353890e-02
-2.353900e-02
-3.085270e-03
-3.085180e-03
-2.353900e-02
-2.353900e-02
-3.085180e-03
-3.085150e-03
-2.353900e-02
-2.353910e-02
-3.085180e-03
-3.085210e-03
-2.353900e-02
-2.353900e-02
-3.085150e-03
-3.085180e-03
-3.085270e-03
-3.085180e-03
1.669050e-02
1.669050e-02
-3.085180e-03
-3.085150e-03
1.669050e-02
1.669040e-02
-3.085180e-03
-3.085210e-03
1.669050e-02
1.669060e-02
-3.085150e-03
-3.085180e-03
1.669040e-02
1.669050e-02
1.669050e-02
1.669050e-02
9.578910e-03
9.578770e-03
1.669050e-02
1.669040e-02
9.578790e-03
9.578770e-03
1.669050e-02
1.669060e-02
9.578770e-03
9.578760e-03
1.669040e-02
1.669050e-02
9.578770e-03
9.578810e-03
9.578910e-03
9.578770e-03
-1.236970e-02
-1.236950e-02
9.578790e-03
9.578770e-03
-1.236950e-02
-1.236960e-02
9.578770e-03
9.578760e-03
-1.236950e-02
-1.236950e-02
9.578770e-03
9.578810e-03
-1.236960e-02
-1.236970e-02
-1.236970e-02
-1.236950e-02
-6.571690e-03
-6.571600e-03
-1.236950e-02
-1.236960e-02
-6.571620e-03
-6.571490e-03
-1.236950e-02
-1.236950e-02
-6.571600e-03
-6.571740e-03
-1.236960e-02
-1.236970e-02
-6.571490e-03
-6.571520e-03
-6.571690e-03
-6.571600e-03
8.802080e-03
8.801800e-03
-6.571620e-03
-6.571490e-03
8.801800e-03
8.801890e-03
-6.571600e-03
-6.571740e-03
8.801800e-03
8.802000e-03
-6.571490e-03
-6.571520e-03
8.801890e-03
8.801920e-03
8.802080e-03
8.801800e-03
-1.400610e-05
-1.350740e-05
8.801800e-03
8.801890e-03
-1.353120e-05
-1.391920e-05
8.801800e-03
8.802000e-03
-1.350740e-05
-1.403490e-05
8.801890e-03
8.801920e-03
-1.391920e-05
-1.373160e-05
-1.400610e-05
-1.350740e-05
-3.066590e-03
-3.066790e-03
-1.353120e-05
-1.391920e-05
-3.066790e-03
-3.066660e-03
-1.350740e-05
-1.403490e-05
-3.066790e-03
-3.066490e-03
-1.391920e-05
-1.373160e-05
-3.066660e-03
-3.066760e-03
-3.066590e-03
-3.066790e-03
9.226320e-04
9.223020e-04
-3.066790e-03
-3.066660e-03
9.222940e-04
9.223580e-04
-3.066790e-03
-3.066490e-03
9.223020e-04
9.224750e-04
-3.066660e-03
-3.066760e-03
9.223580e-04
9.224150e-04
9.226320e-04
9.223020e-04
6.208570e-04
6.212830e-04
9.222940e-04
9.223580e-04
6.213140e-04
6.214850e-04
9.223020e-04
9.224750e-04
6.212830e-04
6.211170e-04
9.223580e-04
9.224150e-04
6.214850e-04
6.213150e-04
6.208570e-04
6.212830e-04
-2.232150e-04
-2.225050e-04
6.213140e-04
6.214850e-04
-2.224680e-04
-2.224280e-04
6.212830e-04
6.211170e-04
-2.225050e-04
-2.227470e-04
6.214850e-04
6.213150e-04
-2.224280e-04
-2.226240e-04
-2.232150e-04
-2.225050e-04
-1.375780e-05
-1.430230e-05
-2.224680e-04
-2.224280e-04
-1.432690e-05
-1.442420e-05
-2.225050e-04
-2.227470e-04
-1.430230e-05
-1.418990e-05
-2.224280e-04
-2.226240e-04
-1.442420e-05
-1.433120e-05
-1.375780e-05
-1.430230e-05
-2.501910e-05
-2.512240e-05
-1.432690e-05
-1.442420e-05
-2.513000e-05
-2.511040e-05
-1.430230e-05
-1.418990e-05
-2.512240e-05
-2.504580e-05
-1.442420e-05
-1.433120e-05
-2.511040e-05
-2.505660e-05
-2.501910e-05
-2.512240e-05
-2.089170e-05
-2.092010e-05
-2.513000e-05
-2.511040e-05
-2.091990e-05
-2.093790e-05
-2.512240e-05
-2.504580e-05
-2.092010e-05
-2.092390e-05
-2.511040e-05
-2.505660e-05
-2.093790e-05
-2.093140e-05
-2.089170e-05
-2.092010e-05
-2.121630e-04
-2.121620e-04
-2.091990e-05
-2.093790e-05
-2.121630e-04
-2.121620e-04
-2.092010e-05
-2.092390e-05
-2.121620e-04
-2.121610e-04
-2.093790e-05
-2.093140e-05
-2.121620e-04
-2.121640e-04
0.000000e+00
0.000000e+00
7.237950e-04
7.237950e-04
0.000000e+00
0.000000e+00
7.237930e-04
7.237930e-04
0.000000e+00
0.000000e+00
7.237950e-04
7.237970e-04
0.000000e+00
0.000000e+00
7.237930e-04
7.237950e-04
7.237950e-04
7.237950e-04
7.873830e-04
7.873900e-04
7.237930e-04
7.237930e-04
7.873820e-04
7.873840e-04
7.237950e-04
7.237970e-04
7.873900e-04
7.873880e-04
7.237930e-04
7.237950e-04
7.873840e-04
7.873870e-04
7.873830e-04
7.873900e-04
1.855010e-03
1.855010e-03
7.873820e-04
7.873840e-04
1.855000e-03
1.855010e-03
7.873900e-04