<?xml version="1.0"?>
<!-- time 99.1628-->
<VTKFile type="UnstructuredGrid" version="0.1" byte_order="LittleEndian">
<UnstructuredGrid>
<Piece NumberOfPoints="7680" NumberOfCells="0">
<Points>
  <DataArray type="Float32" Name="Position" NumberOfComponents="3" format="ascii">
	-350 2049.63 -350
	-350 2049.63 -250
	-350 2049.63 -150
	-350 2049.63 -50
	-350 2049.63 50
	-350 2049.63 150
	-350 2049.63 250
	-350 2049.63 350
	-250 2049.63 -350
	-250 2049.63 -250
	-250 2049.63 -150
	-250 2049.63 -50
	-250 2049.63 50
	-250 2049.63 150
	-250 2049.63 250
	-250 2049.63 350
	-150 2049.63 -350
	-150 2049.63 -250
	-150 2049.63 -150
	-150 2049.63 -50
	-150 2049.63 50
	-150 2049.63 150
	-150 2049.63 250
	-150 2049.63 350
	-50 2049.63 -350
	-50 2049.63 -250
	-50 2049.63 -150
	-50 2049.63 -50
	-50 2049.63 50
	-50 2049.63 150
	-50 2049.63 250
	-50 2049.63 350
	50 2049.63 -350
	50 2049.63 -250
	50 2049.63 -150
	50 2049.63 -50
	50 2049.63 50
	50 2049.63 150
	50 2049.63 250
	50 2049.63 350
	150 2049.63 -350
	150 2049.63 -250
	150 2049.63 -150
	150 2049.63 -50
	150 2049.63 50
	150 2049.63 150
	150 2049.63 250
	150 2049.63 350
	250 2049.63 -350
	250 2049.63 -250
	250 2049.63 -150
	250 2049.63 -50
	250 2049.63 50
	250 2049.63 150
	250 2049.63 250
	250 2049.64 350
	350 2049.63 -350
	350 2049.63 -250
	350 2049.63 -150
	350 2049.63 -50
	350 2049.63 50
	350 2049.63 150
	350 2049.64 250
	350 2049.63 350
	-350 2149.62 -350
	-350 2149.62 -250
	-350 2149.62 -150
	-350 2149.62 -50
	-350 2149.62 50
	-350 2149.62 150
	-350 2149.62 250
	-350 2149.62 350
	-250 2149.62 -350
	-250 2149.62 -250
	-250 2149.62 -150
	-250 2149.62 -50
	-250 2149.62 50
	-250 2149.62 150
	-250 2149.62 250
	-250 2149.62 350
	-150 2149.62 -350
	-150 2149.62 -250
	-150 2149.62 -150
	-150 2149.62 -50
	-150 2149.62 50
	-150 2149.62 150
	-150 2149.62 250
	-150 2149.62 350
	-50 2149.62 -350
	-50 2149.62 -250
	-50 2149.62 -150
	-50 2149.62 -50
	-50 2149.62 50
	-50 2149.62 150
	-50 2149.62 250
	-50 2149.62 350
	50 2149.62 -350
	50 2149.62 -250
	50 2149.62 -150
	50 2149.62 -50
	50 2149.62 50
	50 2149.62 150
	50 2149.62 250
	50 2149.62 350
	150 2149.62 -350
	150 2149.62 -250
	150 2149.62 -150
	150 2149.62 -50
	150 2149.62 50
	150 2149.62 150
	150 2149.62 250
	150 2149.62 350
	250 2149.62 -350
	250 2149.62 -250
	250 2149.62 -150
	250 2149.62 -50
	250 2149.62 50
	250 2149.62 150
	250 2149.62 250
	250 2149.62 350
	350 2149.62 -350
	350 2149.62 -250
	350 2149.62 -150
	350 2149.62 -50
	350 2149.62 50
	350 2149.62 150
	350 2149.62 250
	350 2149.62 350
	-350 2249.6 -350
	-350 2249.6 -250
	-350 2249.6 -150
	-350 2249.6 -50
	-350 2249.6 50
	-350 2249.6 150
	-350 2249.6 250
	-350 2249.6 350
	-250 2249.6 -350
	-250 2249.6 -250
	-250 2249.6 -150
	-250 2249.6 -50
	-250 2249.6 50
	-250 2249.6 150
	-250 2249.6 250
	-250 2249.6 350
	-150 2249.6 -350
	-150 2249.6 -250
	-150 2249.6 -150
	-150 2249.6 -50
	-150 2249.6 50
	-150 2249.6 150
	-150 2249.6 250
	-150 2249.6 350
	-50 2249.6 -350
	-50 2249.6 -250
	-50 2249.6 -150
	-50 2249.6 -50
	-50 2249.6 50
	-50 2249.6 150
	-50 2249.6 250
	-50 2249.6 350
	50 2249.6 -350
	50 2249.6 -250
	50 2249.6 -150
	50 2249.6 -50
	50 2249.6 50
	50 2249.6 150
	50 2249.6 250
	50 2249.6 350
	150 2249.6 -350
	150 2249.6 -250
	150 2249.6 -150
	150 2249.6 -50
	150 2249.6 50
	150 2249.6 150
	150 2249.6 250
	150 2249.6 350
	250 2249.6 -350
	250 2249.6 -250
	250 2249.6 -150
	250 2249.6 -50
	250 2249.6 50
	250 2249.6 150
	250 2249.6 250
	250 2249.61 350
	350 2249.6 -350
	350 2249.6 -250
	350 2249.6 -150
	350 2249.6 -50
	350 2249.6 50
	350 2249.6 150
	350 2249.61 250
	350 2249.6 350
	-350 2349.62 -350
	-350 2349.62 -250
	-350 2349.62 -150
	-350 2349.62 -50
	-350 2349.62 50
	-350 2349.62 150
	-350 2349.62 250
	-350 2349.62 350
	-250 2349.62 -350
	-250 2349.62 -250
	-250 2349.62 -150
	-250 2349.62 -50
	-250 2349.62 50
	-250 2349.62 150
	-250 2349.62 250
	-250 2349.62 350
	-150 2349.62 -350
	-150 2349.62 -250
	-150 2349.62 -150
	-150 2349.62 -50
	-150 2349.62 50
	-150 2349.62 150
	-150 2349.62 250
	-150 2349.62 350
	-50 2349.62 -350
	-50 2349.62 -250
	-50 2349.62 -150
	-50 2349.62 -50
	-50 2349.62 50
	-50 2349.62 150
	-50 2349.62 250
	-50 2349.62 350
	50 2349.62 -350
	50 2349.62 -250
	50 2349.62 -150
	50 2349.62 -50
	50 2349.62 50
	50 2349.62 150
	50 2349.62 250
	50 2349.62 350
	150 2349.62 -350
	150 2349.62 -250
	150 2349.62 -150
	150 2349.62 -50
	150 2349.62 50
	150 2349.62 150
	150 2349.62 250
	150 2349.62 350
	250 2349.62 -350
	250 2349.62 -250
	250 2349.62 -150
	250 2349.62 -50
	250 2349.62 50
	250 2349.62 150
	250 2349.62 250
	250 2349.62 350
	350 2349.62 -350
	350 2349.62 -250
	350 2349.62 -150
	350 2349.62 -50
	350 2349.62 50
	350 2349.62 150
	350 2349.62 250
	350 2349.62 350
	-350 2449.62 -350
	-350 2449.62 -250
	-350 2449.62 -150
	-350 2449.62 -50
	-350 2449.62 50
	-350 2449.62 150
	-350 2449.62 250
	-350 2449.62 350
	-250 2449.62 -350
	-250 2449.62 -250
	-250 2449.62 -150
	-250 2449.62 -50
	-250 2449.62 50
	-250 2449.62 150
	-250 2449.62 250
	-250 2449.62 350
	-150 2449.62 -350
	-150 2449.62 -250
	-150 2449.62 -150
	-150 2449.62 -50
	-150 2449.62 50
	-150 2449.62 150
	-150 2449.62 250
	-150 2449.62 350
	-50 2449.62 -350
	-50 2449.62 -250
	-50 2449.62 -150
	-50 2449.62 -50
	-50 2449.62 50
	-50 2449.62 150
	-50 2449.62 250
	-50 2449.62 350
	50 2449.62 -350
	50 2449.62 -250
	50 2449.62 -150
	50 2449.62 -50
	50 2449.62 50
	50 2449.62 150
	50 2449.62 250
	50 2449.62 350
	150 2449.62 -350
	150 2449.62 -250
	150 2449.62 -150
	150 2449.62 -50
	150 2449.62 50
	150 2449.62 150
	150 2449.62 250
	150 2449.62 350
	250 2449.62 -350
	250 2449.62 -250
	250 2449.62 -150
	250 2449.62 -50
	250 2449.62 50
	250 2449.62 150
	250 2449.62 250
	250 2449.62 350
	350 2449.62 -350
	350 2449.62 -250
	350 2449.62 -150
	350 2449.62 -50
	350 2449.62 50
	350 2449.62 150
	350 2449.62 250
	350 2449.62 350
	-350 2549.62 -350
	-350 2549.62 -250
	-350 2549.62 -150
	-350 2549.62 -50
	-350 2549.62 50
	-350 2549.62 150
	-350 2549.62 250
	-350 2549.62 350
	-250 2549.62 -350
	-250 2549.62 -250
	-250 2549.62 -150
	-250 2549.62 -50
	-250 2549.62 50
	-250 2549.62 150
	-250 2549.62 250
	-250 2549.62 350
	-150 2549.62 -350
	-150 2549.62 -250
	-150 2549.62 -150
	-150 2549.62 -50
	-150 2549.62 50
	-150 2549.62 150
	-150 2549.62 250
	-150 2549.62 350
	-50 2549.62 -350
	-50 2549.62 -250
	-50 2549.62 -150
	-50 2549.62 -50
	-50 2549.62 50
	-50 2549.62 150
	-50 2549.62 250
	-50 2549.62 350
	50 2549.62 -350
	50 2549.62 -250
	50 2549.62 -150
	50 2549.62 -50
	50 2549.62 50
	50 2549.62 150
	50 2549.62 250
	50 2549.62 350
	150 2549.62 -350
	150 2549.62 -250
	150 2549.62 -150
	150 2549.62 -50
	150 2549.62 50
	150 2549.62 150
	150 2549.62 250
	150 2549.62 350
	250 2549.62 -350
	250 2549.62 -250
	250 2549.62 -150
	250 2549.62 -50
	250 2549.62 50
	250 2549.62 150
	250 2549.62 250
	250 2549.62 350
	350 2549.62 -350
	350 2549.62 -250
	350 2549.62 -150
	350 2549.62 -50
	350 2549.62 50
	350 2549.62 150
	350 2549.62 250
	350 2549.62 350
	-350 2649.6 -350
	-350 2649.6 -250
	-350 2649.6 -150
	-350 2649.6 -50
	-350 2649.6 50
	-350 2649.6 150
	-350 2649.6 250
	-350 2649.6 350
	-250 2649.6 -350
	-250 2649.6 -250
	-250 2649.6 -150
	-250 2649.6 -50
	-250 2649.6 50
	-250 2649.6 150
	-250 2649.6 250
	-250 2649.6 350
	-150 2649.6 -350
	-150 2649.6 -250
	-150 2649.6 -150
	-150 2649.6 -50
	-150 2649.6 50
	-150 2649.6 150
	-150 2649.6 250
	-150 2649.6 350
	-50 2649.6 -350
	-50 2649.6 -250
	-50 2649.6 -150
	-50 2649.6 -50
	-50 2649.6 50
	-50 2649.6 150
	-50 2649.6 250
	-50 2649.6 350
	50 2649.6 -350
	50 2649.6 -250
	50 2649.6 -150
	50 2649.6 -50
	50 2649.6 50
	50 2649.6 150
	50 2649.6 250
	50 2649.6 350
	150 2649.6 -350
	150 2649.6 -250
	150 2649.6 -150
	150 2649.6 -50
	150 2649.6 50
	150 2649.6 150
	150 2649.6 250
	150 2649.6 350
	250 2649.6 -350
	250 2649.6 -250
	250 2649.6 -150
	250 2649.6 -50
	250 2649.6 50
	250 2649.6 150
	250 2649.6 250
	250 2649.6 350
	350 2649.6 -350
	350 2649.6 -250
	350 2649.6 -150
	350 2649.6 -50
	350 2649.6 50
	350 2649.6 150
	350 2649.6 250
	350 2649.6 350
	-350 2749.6 -350
	-350 2749.6 -250
	-350 2749.6 -150
	-350 2749.6 -50
	-350 2749.6 50
	-350 2749.6 150
	-350 2749.6 250
	-350 2749.6 350
	-250 2749.6 -350
	-250 2749.6 -250
	-250 2749.6 -150
	-250 2749.6 -50
	-250 2749.6 50
	-250 2749.6 150
	-250 2749.6 250
	-250 2749.6 350
	-150 2749.6 -350
	-150 2749.6 -250
	-150 2749.6 -150
	-150 2749.6 -50
	-150 2749.6 50
	-150 2749.6 150
	-150 2749.6 250
	-150 2749.6 350
	-50 2749.6 -350
	-50 2749.6 -250
	-50 2749.6 -150
	-50 2749.6 -50
	-50 2749.6 50
	-50 2749.6 150
	-50 2749.6 250
	-50 2749.6 350
	50 2749.6 -350
	50 2749.6 -250
	50 2749.6 -150
	50 2749.6 -50
	50 2749.6 50
	50 2749.6 150
	50 2749.6 250
	50 2749.6 350
	150 2749.6 -350
	150 2749.6 -250
	150 2749.6 -150
	150 2749.6 -50
	150 2749.6 50
	150 2749.6 150
	150 2749.6 250
	150 2749.6 350
	250 2749.6 -350
	250 2749.6 -250
	250 2749.6 -150
	250 2749.6 -50
	250 2749.6 50
	250 2749.6 150
	250 2749.6 250
	250 2749.6 350
	350 2749.6 -350
	350 2749.6 -250
	350 2749.6 -150
	350 2749.6 -50
	350 2749.6 50
	350 2749.6 150
	350 2749.6 250
	350 2749.6 350
	-350 2849.6 -350
	-350 2849.6 -250
	-350 2849.6 -150
	-350 2849.6 -50
	-350 2849.6 50
	-350 2849.6 150
	-350 2849.6 250
	-350 2849.6 350
	-250 2849.6 -350
	-250 2849.6 -250
	-250 2849.6 -150
	-250 2849.6 -50
	-250 2849.6 50
	-250 2849.6 150
	-250 2849.6 250
	-250 2849.6 350
	-150 2849.6 -350
	-150 2849.6 -250
	-150 2849.6 -150
	-150 2849.6 -50
	-150 2849.6 50
	-150 2849.6 150
	-150 2849.6 250
	-150 2849.6 350
	-50 2849.6 -350
	-50 2849.6 -250
	-50 2849.6 -150
	-50 2849.6 -50
	-50 2849.6 50
	-50 2849.6 150
	-50 2849.6 250
	-50 2849.6 350
	50 2849.6 -350
	50 2849.6 -250
	50 2849.6 -150
	50 2849.6 -50
	50 2849.6 50
	50 2849.6 150
	50 2849.6 250
	50 2849.6 350
	150 2849.6 -350
	150 2849.6 -250
	150 2849.6 -150
	150 2849.6 -50
	150 2849.6 50
	150 2849.6 150
	150 2849.6 250
	150 2849.6 350
	250 2849.6 -350
	250 2849.6 -250
	250 2849.6 -150
	250 2849.6 -50
	250 2849.6 50
	250 2849.6 150
	250 2849.6 250
	250 2849.6 350
	350 2849.6 -350
[...]
<PointData  Vectors="vector">
  <DataArray type="Float32" Name="Velocity" NumberOfComponents="3" format="ascii">
 -6.617e-08 0.0116267 -1.30724e-07
 -3.11215e-07 0.0125159 -1.56106e-07
 -4.21544e-07 0.0118983 5.09562e-08
 -7.38879e-07 0.0118223 2.52915e-07
 -3.53701e-07 0.0120571 2.60451e-07
 -4.14617e-07 0.0124537 2.91717e-07
 -8.9274e-07 0.0114518 5.34313e-07
 -1.26807e-06 0.0121185 6.34586e-07
 -1.70507e-08 0.0115891 -2.77586e-07
 -8.94689e-08 0.0119269 -5.4275e-08
 -3.17025e-07 0.0118581 1.74431e-07
 -4.56506e-07 0.0119589 6.68587e-08
 1.66218e-07 0.0118389 1.74883e-07
 -1.07372e-07 0.0113219 2.17553e-07
 -4.35338e-07 0.011936 4.59989e-07
 -7.27736e-07 0.0119893 5.21691e-07
 1.33885e-07 0.0120463 -2.7523e-07
 8.22123e-08 0.0118818 -2.94243e-07
 -1.454e-07 0.011172 1.01148e-07
 -4.51253e-07 0.0119582 7.7262e-08
 3.34149e-08 0.0115817 2.10801e-07
 -1.15917e-08 0.0115572 3.01038e-07
 2.85337e-07 0.011988 2.62086e-07
 -2.84656e-07 0.011874 4.46112e-07
 2.47882e-07 0.0121288 -5.17195e-07
 5.94244e-08 0.0120618 -2.21001e-07
 1.64039e-07 0.0120537 1.8919e-08
 8.22757e-08 0.0120151 -9.6139e-10
 -1.83113e-08 0.0121226 1.3744e-07
 2.33684e-07 0.01195 4.52643e-08
 3.37282e-07 0.0121565 2.64377e-07
 1.60445e-07 0.0119764 6.47555e-07
 2.64328e-07 0.0119468 -1.33966e-07
 2.354e-07 0.0118566 2.23414e-07
 -6.95882e-08 0.0119404 4.40698e-07
 -2.64425e-07 0.0121841 4.80835e-07
 4.99728e-07 0.0113108 3.64712e-07
 2.52355e-07 0.011956 3.98921e-07
 3.72014e-07 0.012135 6.18668e-07
 6.89535e-07 0.0111899 9.34723e-07
 4.11873e-07 0.0124699 -3.3797e-07
 3.10796e-07 0.0113022 -7.76509e-08
 1.85775e-07 0.0115467 3.54218e-07
 1.62282e-07 0.0118244 4.64807e-07
 4.17565e-07 0.0120015 1.52568e-07
 3.23232e-07 0.0124992 3.58913e-07
 3.39459e-07 0.0114947 7.23964e-07
 6.12458e-07 0.0115029 1.07402e-06
 6.22364e-07 0.0118945 -8.51987e-07
 3.77798e-07 0.0119406 -4.12932e-07
 3.32846e-07 0.0121114 1.40581e-07
 2.15641e-07 0.0121313 4.43762e-08
 4.76639e-07 0.0120537 5.1358e-07
 7.46025e-07 0.0118206 3.85193e-07
 7.57898e-07 0.0110746 1.10344e-06
 1.17626e-06 0.0147382 1.17543e-06
 7.77201e-07 0.0119476 -1.3821e-06
 6.04935e-07 0.0119597 -1.10081e-06
 4.36394e-07 0.0118277 2.55862e-07
 5.11954e-07 0.0120419 2.55197e-07
 7.93191e-07 0.0115737 -3.83057e-08
 1.02731e-06 0.0111057 3.6618e-07
 1.31935e-06 0.014349 1.36408e-06
 1.75925e-06 0.00937562 1.76242e-06
 4.42874e-07 0.0614585 3.77135e-07
 2.66844e-07 0.061846 5.26375e-07
 6.77117e-08 0.0617314 3.16457e-07
 -1.22658e-07 0.0610615 3.26871e-07
 2.24013e-07 0.0618588 2.77982e-07
 6.22284e-08 0.0618747 2.53241e-07
 -1.40001e-07 0.0612385 1.51813e-07
 -2.38917e-07 0.0619562 1.31995e-07
 5.76924e-07 0.0609131 1.58751e-07
 1.412e-07 0.0614732 4.10459e-07
 2.31076e-07 0.0615232 1.55611e-07
 1.66741e-08 0.0616514 1.11397e-07
 3.47088e-07 0.0612174 1.95864e-07
 2.03405e-07 0.061198 1.30684e-07
 4.52675e-09 0.0611259 2.18794e-07
 -2.13613e-07 0.0614766 2.19005e-07
 2.71733e-07 0.0618132 -1.56806e-08
 3.74073e-07 0.0613981 1.09364e-07
 -8.9397e-09 0.0607837 1.38364e-07
 -1.63383e-07 0.0616378 1.02112e-07
 3.06594e-07 0.0615846 5.42707e-08
 1.48222e-07 0.0614445 1.01131e-07
 -3.48281e-08 0.0616326 1.26183e-07
 -1.93185e-07 0.0613276 2.23501e-07
 3.88486e-07 0.0619036 -9.47066e-08
 2.46596e-07 0.0617 8.58411e-08
 -2.75303e-08 0.0618361 -5.45233e-08
 -1.98437e-07 0.0615408 5.84258e-09
 1.26218e-07 0.0619332 2.96935e-08
 5.90817e-08 0.0614123 -2.60788e-08
 -1.26653e-07 0.0621643 1.40886e-08
 -1.36129e-07 0.0616802 1.17775e-07
 3.46011e-07 0.0616197 9.22387e-08
 2.47974e-07 0.061278 3.59285e-07
 9.819e-08 0.0614386 2.91742e-07
 -6.04208e-08 0.0620742 1.55118e-07
 1.11317e-07 0.06119 3.09676e-07
 -4.23534e-08 0.0615735 1.75709e-07
 -6.75868e-08 0.0619845 1.8972e-07
 -2.22384e-07 0.0610453 3.97978e-07
 5.16578e-07 0.0618903 -1.08547e-10
 8.86135e-08 0.0611169 8.6812e-09
 9.40979e-08 0.0613999 1.5919e-07
 -9.37892e-08 0.0610928 5.55329e-08
 -8.54932e-08 0.0616008 9.58455e-08
 -1.13571e-07 0.0621591 -1.66947e-08
 -1.50012e-07 0.0612986 1.82065e-07
 -2.4345e-07 0.0614657 1.99057e-07
 1.62305e-07 0.0614278 -4.78795e-07
 1.55835e-07 0.0610716 -1.53757e-07
 -1.30925e-07 0.0619961 -1.93652e-07
 -2.20252e-07 0.0620729 1.34559e-08
 -1.17706e-07 0.0616996 -2.40409e-08
 -1.37039e-07 0.061144 -1.90885e-08
 -7.46891e-08 0.0603417 1.29448e-07
 -4.07629e-08 0.0629766 1.22069e-07
 2.92897e-07 0.0616057 -5.68696e-07
 1.55209e-07 0.0615055 -7.31693e-07
 3.11971e-08 0.0613872 -5.2915e-07
 -1.24328e-07 0.0616208 -1.42796e-07
 1.49349e-08 0.0610626 -1.55197e-07
 1.90658e-08 0.060293 1.89097e-08
 6.0288e-08 0.0630687 1.43108e-07
 3.15029e-08 0.0590923 7.32163e-08
 6.48001e-07 0.0441347 3.76776e-07
 6.15144e-07 0.0430768 5.75923e-07
 4.72093e-07 0.043355 5.96346e-07
 4.664e-07 0.0446635 5.32638e-07
 6.74827e-07 0.043202 2.11297e-09
 5.5247e-07 0.0429379 3.41337e-07
 3.60395e-07 0.0440488 1.49464e-07
 2.37626e-07 0.0433146 3.62676e-07
 8.67154e-07 0.0451692 3.31193e-07
 7.11489e-07 0.0433941 5.92666e-07
 5.03348e-07 0.0435918 5.50818e-08
 3.65265e-07 0.0433606 1.86191e-07
 4.77824e-07 0.0439748 3.28737e-07
 4.9029e-07 0.0451338 3.81015e-07
 3.72221e-07 0.0449246 -1.36052e-07
 -3.12811e-09 0.0437214 1.54966e-07
 3.3038e-07 0.0432853 2.76538e-07
 3.55937e-08 0.0438271 4.3538e-07
 8.97754e-08 0.0456252 3.22084e-08
 -1.21157e-07 0.0434911 1.55113e-07
 -6.5816e-08 0.0439545 1.00324e-07
 -2.34745e-07 0.044121 1.3016e-07
 -2.54962e-07 0.0435169 -2.48101e-07
 3.59637e-08 0.0439658 -3.12683e-08
 1.95971e-07 0.0431612 2.0747e-07
 2.21698e-07 0.0434882 2.69212e-07
 -1.3623e-07 0.043226 5.52961e-08
 9.44773e-08 0.0436518 4.87478e-08
 5.98536e-08 0.0432388 -8.80545e-08
 -2.28764e-07 0.043711 -1.14847e-07
 -2.93357e-07 0.0429991 -3.45992e-07
 -7.06528e-07 0.0434108 -2.24937e-07
 5.86674e-07 0.0433702 2.49309e-07
 3.36027e-07 0.0439382 2.5068e-07
 1.70034e-07 0.0437433 3.48858e-07
 -2.98394e-07 0.0431196 8.15943e-09
 -6.90864e-08 0.0449629 8.86639e-08
 -6.76546e-08 0.0433997 -7.86867e-08
 -4.30747e-07 0.0429242 -7.80662e-08
 -4.42915e-07 0.0450112 -5.57088e-08
 6.66761e-07 0.0428991 3.67231e-07
 4.45089e-07 0.0452302 2.97766e-07
 1.35121e-07 0.0441924 -1.46536e-07
 -1.94008e-07 0.0441098 -8.71483e-08
 5.40272e-08 0.0433628 -1.98873e-07
 -1.95867e-07 0.042369 -2.14807e-07
 -5.32418e-07 0.0438324 -5.47989e-07
 -7.35453e-07 0.0437848 -6.39305e-07
 3.75972e-08 0.0436753 1.70741e-07
 -2.12012e-07 0.0449645 -6.84819e-08
 -3.38207e-07 0.0432601 -2.72978e-07
 -6.38948e-07 0.0430688 -3.33316e-07
 -5.1582e-07 0.0433975 -3.84928e-07
 -8.37559e-07 0.0437377 -4.75731e-07
 -1.13629e-06 0.044815 -8.22497e-07
 -1.42956e-06 0.0418054 -8.8538e-07
 2.40244e-07 0.0435114 -1.68653e-07
 -1.01808e-07 0.0436238 -2.22911e-07
 -3.66282e-07 0.0438191 -4.11323e-07
 -6.65547e-07 0.0435876 -6.56531e-07
 -6.81421e-07 0.0447745 -6.21628e-07
 -9.68542e-07 0.0449769 -9.81047e-07
 -1.00006e-06 0.042133 -8.80682e-07
 -1.29594e-06 0.0467115 -1.03265e-06
 8.58527e-07 0.0191382 2.45036e-07
 9.21672e-07 0.0175645 5.89838e-07
 9.47909e-07 0.018839 7.95503e-07
 9.5762e-07 0.0177544 2.7129e-07
 8.87993e-07 0.0187916 5.96967e-07
 9.13394e-07 0.0183128 7.26129e-08
 6.07482e-07 0.0202392 2.58544e-07
 3.783e-07 0.0182757 6.33046e-07
 9.29712e-07 0.0177063 6.06981e-07
 9.15311e-07 0.0201575 7.0199e-07
 8.36976e-07 0.0191783 7.33669e-07
 5.50349e-07 0.0196246 1.97444e-07
 4.80285e-07 0.0189854 1.70778e-07
 3.02093e-07 0.0176117 -6.78821e-08
 3.21281e-07 0.0168166 -1.19584e-07
 4.7283e-07 0.0185261 -6.25874e-08
 6.12868e-07 0.0183019 5.34983e-07
 9.82306e-08 0.0188054 6.00702e-07
 1.94041e-07 0.0170959 1.90556e-07
 3.8189e-08 0.0186914 1.28489e-07
 2.27385e-07 0.0187572 -5.58152e-08
 -2.19506e-07 0.0188313 1.82432e-07
 4.68631e-08 0.0186699 -4.62087e-07
 -5.42604e-07 0.018715 -2.60454e-07
 7.92281e-07 0.0188127 6.00755e-07
 1.62808e-07 0.0186454 3.42621e-07
 2.55034e-08 0.0186413 1.16774e-07
 7.9881e-08 0.0183841 -9.69435e-08
 -1.21777e-07 0.018468 2.7704e-08
 -1.41771e-07 0.0188089 -2.20751e-07
 -7.68316e-07 0.0183704 -4.72855e-07
 -7.65973e-07 0.0187771 -7.40509e-07
 3.67302e-07 0.0190788 2.34271e-07
 4.1293e-07 0.0190222 4.42804e-07
 1.45966e-08 0.0187439 2.37275e-07
 -4.18602e-07 0.0180408 -1.3704e-07
 -1.31442e-07 0.0176271 -8.13226e-08
 -3.33313e-07 0.018893 -2.2248e-07
 -6.86301e-07 0.0185974 -4.78401e-07
 -8.44004e-07 0.0186515 -3.98202e-07
 2.85227e-07 0.0183496 3.7639e-07
 4.90779e-07 0.0177611 4.0049e-07
 1.14654e-07 0.0187896 -1.5158e-07
 -4.11133e-07 0.0191902 -4.29884e-07
 -4.60402e-07 0.0186485 -2.72775e-07
 -7.12018e-07 0.0186004 -5.89278e-07
 -7.2173e-07 0.0203764 -1.2194e-06
 -1.60245e-06 0.0200311 -9.83359e-07
 6.07911e-08 0.0190627 2.99833e-07
 -2.96679e-07 0.016822 -1.53707e-07
 -6.67061e-07 0.0184169 7.69317e-09
 -5.69465e-07 0.018456 -6.87608e-07
 -7.02057e-07 0.0185141 -1.21046e-06
 -1.19803e-06 0.0199215 -9.15493e-07
 -1.87098e-06 0.0216819 -1.13268e-06
 -2.12259e-06 0.0116624 -1.54326e-06
 1.89941e-07 0.0187724 -2.22392e-07
 -3.13441e-07 0.0186888 -1.94029e-07
 -7.80036e-07 0.0190264 -3.61704e-07
 -1.24528e-06 0.0186118 -8.66487e-07
 -1.15835e-06 0.0180214 -9.64555e-07
 -1.65233e-06 0.0217418 -1.31248e-06
 -2.0329e-06 0.0116629 -2.02128e-06
 -2.14129e-06 0.0260095 -1.85907e-06
 3.90164e-07 0.0399841 -9.68089e-08
 4.26105e-07 0.0410649 3.19272e-07
 5.23896e-07 0.0403874 6.70504e-07
 5.6008e-07 0.0403766 4.33369e-07
 4.63596e-07 0.0402187 8.37047e-07
 6.2295e-07 0.040505 6.66093e-07
 2.96893e-07 0.0390194 9.56085e-07
 -1.12908e-07 0.0407743 1.39963e-06
 5.99034e-07 0.0407391 2.27184e-07
 5.89603e-07 0.0394019 4.08884e-07
 4.16211e-07 0.0400457 4.07986e-07
 2.71492e-07 0.0397674 4.74659e-07
 2.88668e-07 0.0401498 4.97581e-07
 2.50186e-08 0.0404514 3.22816e-07
 1.89144e-07 0.0406771 4.5299e-07
 -4.188e-08 0.0404412 6.39097e-07
 7.45846e-07 0.0406556 2.65165e-07
 2.14609e-07 0.0402105 2.96739e-07
 6.83766e-08 0.0410285 1.9606e-07
 -2.24418e-07 0.040159 1.04289e-07
 7.92824e-08 0.0402293 2.6026e-07
 -2.75283e-08 0.0403442 2.03728e-07
 -4.55036e-07 0.0402622 1.3968e-07
 -9.02279e-07 0.0403421 2.1121e-07
 2.44981e-07 0.0399466 7.32672e-08
 4.29998e-07 0.0403054 1.95995e-08
 2.57387e-07 0.0402872 -9.59989e-08
 -8.67077e-08 0.0405929 -1.34073e-07
 -1.34388e-07 0.0403501 8.00842e-08
 -1.95481e-07 0.0402337 9.71883e-08
 -6.24155e-07 0.0404618 -2.49425e-08
 -9.64211e-07 0.040269 -9.2022e-08
 9.26936e-07 0.0401303 -8.13052e-08
 4.41729e-07 0.0401352 4.63893e-08
 1.11509e-08 0.0402371 3.67664e-08
 1.09674e-07 0.040696 5.29161e-08
 2.27789e-07 0.040725 2.31889e-07
 -7.56915e-08 0.0401135 2.78066e-07
 -4.13144e-07 0.0405676 2.36601e-07
 -6.18728e-07 0.0401796 3.63136e-07
 4.20367e-07 0.0405447 1.18125e-07
 3.30377e-07 0.0403124 -5.85497e-08
 1.15413e-07 0.0402346 -6.4733e-08
 -3.58748e-07 0.0400675 -1.13684e-07
 -4.04075e-08 0.0404204 -2.41452e-07
 -6.00316e-07 0.0405773 -8.04694e-08
 -5.85609e-07 0.0394185 -3.57806e-07
 -7.77034e-07 0.0392469 -3.79011e-07
 5.71309e-07 0.0402586 1.17433e-07
 1.3769e-07 0.0406375 3.2725e-08
 -1.88193e-07 0.0401928 -4.54676e-07
 -3.85611e-07 0.0404018 -5.85896e-07
 -2.25463e-07 0.040643 -6.31715e-07
 -5.79545e-07 0.0398134 -4.33902e-07
 -1.21899e-06 0.0385823 -5.66611e-07
 -1.49995e-06 0.0411685 -9.96887e-07
 7.90277e-07 0.0403555 -2.86324e-07
 2.40372e-07 0.0403782 -2.03382e-07
 -2.72234e-07 0.0401525 -8.50343e-07
 -8.3222e-07 0.0402836 -8.34447e-07
 -3.64359e-07 0.0406154 -8.28678e-07
 -1.09218e-06 0.0379903 -4.28653e-07
 -1.32923e-06 0.0412614 -1.25287e-06
 -1.44048e-06 0.034917 -1.17682e-06
 1.20625e-06 0.000691612 1.02076e-06
 9.54264e-07 0.00128403 8.96246e-07
 7.17125e-07 0.00018176 3.94268e-07
 4.75488e-07 -3.42771e-05 4.95303e-07
 4.54201e-07 -0.000100842 4.74246e-07
 6.26975e-07 0.000183194 6.4755e-07
 6.26195e-07 -0.000442577 7.85926e-08
 6.15786e-07 0.000712244 -3.27096e-08
 9.73068e-07 0.000564817 8.33327e-07
 6.83086e-07 -0.00192841 1.58984e-07
 4.03186e-07 -0.000494936 5.40626e-07
 -1.46143e-07 -0.00108274 3.51227e-07
 6.62968e-08 -2.74802e-05 4.15724e-07
 -3.42743e-07 0.00116708 1.47314e-07
 -6.1041e-07 0.000373383 1.54002e-07
 -8.20789e-07 0.000391487 -2.94275e-07
 4.19994e-07 0.000283496 6.07203e-07
 1.51947e-07 -0.00016723 2.70099e-07
 -1.1584e-07 0.00287884 8.18751e-08
 -6.39587e-08 0.000982733 -1.6615e-08
 9.90687e-08 -3.52845e-05 1.98338e-07
 -1.13025e-07 0.000343808 -1.92831e-08
 -5.3738e-07 0.000103436 -2.10138e-08
 -3.74004e-07 0.000222756 -4.6094e-07
 3.29523e-07 -0.000220655 3.69107e-07
 1.72989e-07 -0.000275133 -2.03579e-07
 1.01405e-07 0.000505172 -7.08889e-08
 -5.39352e-08 0.000543864 5.46338e-08
 1.11827e-07 0.00101603 -1.84007e-07
 -3.17562e-07 -5.6685e-05 -1.48083e-07
 -3.49627e-07 0.000212 -2.15879e-07
 -8.3907e-07 4.4412e-05 -6.28923e-07
 4.74649e-07 -0.000359274 4.38398e-07
 4.09969e-07 8.96019e-05 -1.28091e-08
 -2.32501e-08 -9.13752e-05 9.76613e-08
 -2.90975e-07 0.00143187 1.85243e-07
 -1.2487e-07 0.00140635 -9.42447e-08
 -1.2535e-07 0.00015799 -5.60336e-09
 -8.55952e-08 0.000330253 6.71577e-08
 -6.96373e-07 -0.000130084 -3.24893e-07
 7.40165e-07 0.000346767 1.89348e-07
 3.60228e-07 0.00111264 1.05845e-07
 -1.14589e-07 0.00042149 -1.91109e-07
 -4.48489e-07 -0.000863567 -5.94848e-08
 -1.85386e-07 0.000250675 -3.09273e-07
 -2.76495e-07 -0.000613589 -1.28642e-07
 -5.68213e-07 -0.00103586 -2.40561e-07
 -5.15743e-07 -0.000402814 -8.19113e-07
 4.56728e-08 0.000129823 4.1922e-07
 -1.8621e-07 0.000602654 -5.36064e-07
 9.98927e-10 0.000230957 -5.63686e-07
 -9.91887e-08 -0.000116725 -2.97541e-07
 9.14111e-08 0.00072857 -1.73087e-07
 -1.2886e-07 -0.000371951 -5.33695e-07
 -4.01701e-07 -0.00182751 -3.20122e-07
 -4.99263e-07 0.00800261 -1.25204e-06
 -2.06834e-07 0.000302927 2.39251e-07
 -3.85547e-07 0.000443633 -6.23597e-07
 -6.3003e-07 -0.000229677 -7.2603e-07
 -8.55525e-07 0.000645084 -5.03724e-07
 -6.16972e-07 0.000388397 -5.02831e-07
 -1.07657e-06 -0.00271005 -7.75486e-07
 -1.47633e-06 0.00827868 -5.57688e-07
 -1.92281e-06 -0.00408012 -1.61077e-06
 1.24749e-06 -0.000257651 1.79428e-06
 2.42939e-07 -0.000506444 1.92419e-07
 3.07484e-07 6.79618e-05 7.60093e-07
 4.55186e-07 0.00125911 5.3073e-07
 1.97006e-07 0.000460224 2.07407e-07
 6.22672e-07 0.000260713 -1.83257e-07
 8.37974e-07 0.000341447 7.32205e-07
 9.24114e-07 -0.000155065 -1.04774e-06
 5.59362e-07 0.000428693 4.63207e-07
 7.07611e-07 0.00137058 4.53416e-07
 1.47642e-07 0.000527177 7.3295e-07
 -4.46582e-08 0.000747904 4.64975e-07
 -5.88589e-08 0.000272016 3.69361e-08
 -5.46013e-07 0.000129924 -5.08292e-07
 -8.37031e-07 0.00122644 5.68255e-08
 -1.04398e-06 0.000161113 -3.11199e-07
 4.79496e-07 5.66907e-05 7.25751e-07
 1.65898e-07 0.000400152 -2.49101e-07
 -2.70992e-07 -0.00115897 1.71007e-08
 -4.38432e-07 -0.000310989 3.37022e-08
 1.09571e-07 0.000212802 -1.29826e-07
 -3.82571e-07 -2.85285e-05 -4.82418e-08
 -7.2393e-07 0.000161938 1.30874e-07
 -5.31519e-07 0.000146761 -6.88767e-07
 8.07994e-07 0.000570388 3.93351e-07
 1.86737e-07 0.000582184 -7.31127e-08
 -1.22767e-07 -6.23564e-05 -3.75212e-07
 -5.79079e-07 4.29662e-05 -6.37462e-08
 -7.26718e-08 -0.000251676 -3.82065e-07
 -2.03877e-07 0.000427309 -3.05159e-07
 -2.90835e-08 0.000270228 -1.44312e-07
 -5.17654e-08 0.000260508 -8.55582e-07
 3.7566e-07 0.00053632 3.33061e-07
 1.96586e-07 0.000164369 3.52147e-07
 7.40275e-08 0.000357852 -6.09942e-08
 6.82464e-08 -0.000455559 -5.95531e-08
 3.28087e-08 -6.27255e-05 5.18935e-09
 -2.15334e-07 0.000219444 -1.10916e-07
 -5.68955e-07 0.000107478 -3.87719e-07
 -9.76739e-07 0.000719909 -3.85586e-07
 -3.87847e-08 9.53628e-05 6.34405e-07
 2.35433e-07 0.000106677 -3.72271e-07
 2.30652e-07 -3.25725e-05 -3.70824e-07
 -9.48873e-09 0.000832237 -1.11128e-07
 -2.26686e-07 0.00012134 -2.67502e-07
 2.46048e-08 0.000769552 -1.75961e-07
 -2.10615e-07 0.000618404 3.88834e-08
 -4.31272e-07 0.000181845 -1.05542e-06
 4.85161e-07 0.000121511 6.16666e-07
 -2.17104e-07 0.00103629 -6.10308e-07
 -1.66335e-07 0.000169138 -6.23523e-07
 -4.35797e-07 0.000431907 -4.66611e-07
 -9.89571e-08 -0.000114209 -1.945e-07
 9.27356e-08 0.000289305 -2.04357e-07
 6.81055e-08 0.000682493 -1.81816e-07
 3.33626e-08 0.000332752 -1.38086e-06
 -5.08112e-07 5.1378e-05 5.44223e-07
 1.13734e-07 8.88792e-05 -8.64746e-07
 -3.4431e-07 0.000354174 -8.44577e-07
 -9.36998e-07 -5.41303e-05 -7.74405e-07
 -3.12022e-07 0.000463943 -3.72066e-07
 -1.00811e-06 0.00103203 -1.81814e-07
 -1.33839e-06 -5.74406e-05 -2.55559e-07
 -1.91031e-06 0.00153393 -1.66183e-06
 1.58533e-06 -0.00478691 2.07926e-06
 4.10665e-07 -0.00512426 -3.80341e-08
 -1.92599e-07 -0.00491333 7.40312e-07
 3.98421e-07 -0.00500213 5.6093e-07
 2.17282e-07 -0.00465524 -1.28143e-07
 1.44944e-07 -0.00476673 -5.01708e-08
 7.6613e-09 -0.00441736 3.17384e-07
 -1.54553e-08 -0.00496846 -1.31627e-06
 1.95434e-07 -0.00519096 1.77252e-07
 6.10351e-07 -0.00411656 7.63294e-07
 -1.41823e-07 -0.00461847 2.60403e-07
 -3.91485e-07 -0.00438533 8.82046e-08
 -4.114e-07 -0.00466779 1.33951e-08
 -5.07742e-07 -0.00537882 2.52722e-07
 -2.89329e-08 -0.00524152 -7.77542e-07
 -3.28638e-08 -0.00485972 -1.51225e-07
 9.91334e-07 -0.0049138 7.10467e-07
 4.88117e-08 -0.00468377 -4.46791e-07
 3.16314e-07 -0.00556837 -2.05436e-07
 -3.29639e-07 -0.00491019 3.55081e-07
 1.43958e-07 -0.00482787 -5.18395e-07
 -2.64721e-07 -0.00489863 -9.40835e-08
 3.3732e-07 -0.00489749 1.71981e-07
 9.35405e-07 -0.00482449 -8.85078e-07
 4.62027e-07 -0.00457392 4.12449e-07
 3.89619e-07 -0.00467744 6.4067e-08
 3.309e-07 -0.00480725 -7.40834e-07
 -3.78237e-07 -0.00482177 -2.20227e-07
 -2.43886e-07 -0.0048278 -4.61257e-07
 1.49376e-07 -0.00466969 2.38192e-07
 -2.96339e-07 -0.00480439 -7.15562e-07
 -7.60501e-07 -0.00470422 -1.02784e-06
 -1.94332e-07 -0.0046148 6.59395e-07
 -6.33856e-08 -0.00467833 2.47441e-07
 -5.78309e-07 -0.00480939 -4.85994e-07
 -1.37903e-07 -0.00495588 5.02204e-08
 -9.78091e-09 -0.00532794 -2.79296e-07
 -4.30414e-07 -0.00481259 1.61636e-07
 -2.92782e-07 -0.00476734 -3.33078e-07
 -4.72586e-07 -0.00488767 -8.8673e-07
 1.92519e-07 -0.00479426 6.37658e-07
 8.02531e-08 -0.00534201 -1.08902e-07
 -2.91606e-07 -0.00489957 -2.18493e-07
 -2.60954e-07 -0.00457878 -5.64379e-07
 -2.68961e-07 -0.00483666 -9.85149e-08
 -1.84499e-07 -0.00465847 -5.02128e-07
 -1.01692e-06 -0.00415303 1.72777e-07
 -1.05088e-06 -0.00449118 -1.1846e-06
 4.44829e-07 -0.00471373 3.3316e-07
 -3.56835e-07 -0.00526479 -5.40027e-07
 -2.45097e-08 -0.004939 -3.72488e-07
 -2.4103e-07 -0.0047296 -6.48845e-08
 2.24927e-07 -0.00488419 -5.95262e-07
 1.82396e-07 -0.00435307 -4.14244e-07
 -4.60761e-07 -0.00397138 -6.77021e-09
 -7.07974e-07 -0.00798481 -1.20618e-06
 -7.46574e-07 -0.00474953 -8.88007e-08
 7.27521e-08 -0.00484698 -9.55063e-08
 3.55297e-08 -0.00466867 7.08882e-08
 -9.43614e-07 -0.00479154 -3.2048e-07
 -3.52247e-07 -0.00498025 -2.42177e-07
 -5.89723e-07 -0.00366543 -1.02838e-06
 -5.4987e-07 -0.00790957 -8.54598e-07
 -9.95991e-07 -0.00311229 -1.30783e-06
 1.61971e-06 -0.00991224 1.74488e-06
 9.23573e-07 -0.00966773 5.23424e-07
 1.35165e-07 -0.00968829 7.79394e-07
 9.77191e-08 -0.0100876 8.24329e-08
 3.05372e-07 -0.0100098 2.34151e-07
 -5.74575e-10 -0.00981498 -4.50078e-07
 7.8506e-07 -0.00980972 -3.48019e-07
 1.10823e-06 -0.0100233 -1.73274e-06
 6.20758e-07 -0.00994097 6.6538e-07
 3.18599e-07 -0.0102118 6.06329e-07
 1.89281e-07 -0.00977501 6.08117e-07
 2.20605e-07 -0.00998458 8.53762e-08
 -1.69887e-07 -0.00991885 -3.48572e-07
 -4.13537e-08 -0.00964469 -4.21377e-07
 -1.99761e-07 -0.00999054 -6.174e-07
 5.03122e-07 -0.00998817 -5.32049e-07
 6.06524e-07 -0.00977269 -1.77518e-07
 3.14341e-07 -0.00982444 9.6574e-08
 2.27705e-07 -0.0096495 4.81064e-07
 -1.45294e-07 -0.00979664 1.68089e-08
 -2.8059e-07 -0.00974278 1.50084e-09
 3.98939e-07 -0.00985153 -3.29102e-07
 2.66712e-07 -0.00969036 -7.2104e-07
 -2.86902e-07 -0.00984389 -1.10128e-07
 2.30884e-07 -0.00979399 3.63387e-07
 5.20954e-07 -0.0100108 -2.43214e-08
 1.70278e-07 -0.00980608 -2.92232e-07
 -3.77177e-07 -0.0100096 -4.58384e-07
 1.96799e-07 -0.00990293 1.28543e-09
 -2.80131e-07 -0.0100123 -9.7855e-08
 -1.93102e-07 -0.00977717 -4.05557e-07
 -5.41499e-07 -0.00985784 -6.15802e-07
 1.94769e-07 -0.00998778 2.01912e-07