<?xml version="1.0"?>
<VTKFile type="UnstructuredGrid" version="0.1" byte_order="LittleEndian" compressor="vtkZLibDataCompressor">
<UnstructuredGrid>
<Piece NumberOfPoints="960" NumberOfCells="120">
<Points>
<DataArray type="Float32" NumberOfComponents="3" format="ascii">
-4.000000e+02 -6.000000e+03 -4.000000e+02
0.000000e+00 -6.000000e+03 -4.000000e+02
-4.000000e+02 -5.600040e+03 -4.000000e+02
-8.020430e-10 -5.600040e+03 -4.000000e+02
-4.000000e+02 -6.000000e+03 0.000000e+00
0.000000e+00 -6.000000e+03 0.000000e+00
-4.000000e+02 -5.600040e+03 2.543940e-10
-2.624580e-10 -5.600040e+03 5.209870e-10
0.000000e+00 -6.000000e+03 -4.000000e+02
4.000000e+02 -6.000000e+03 -4.000000e+02
-8.020430e-10 -5.600040e+03 -4.000000e+02
4.000000e+02 -5.600040e+03 -4.000000e+02
0.000000e+00 -6.000000e+03 0.000000e+00
4.000000e+02 -6.000000e+03 0.000000e+00
-2.624580e-10 -5.600040e+03 5.209870e-10
4.000000e+02 -5.600040e+03 1.298620e-09
-4.000000e+02 -5.600040e+03 -4.000000e+02
-8.020430e-10 -5.600040e+03 -4.000000e+02
-4.000000e+02 -5.200090e+03 -4.000000e+02
-1.208000e-09 -5.200090e+03 -4.000000e+02
-4.000000e+02 -5.600040e+03 2.543940e-10
-2.624580e-10 -5.600040e+03 5.209870e-10
-4.000000e+02 -5.200090e+03 7.830250e-10
-4.933480e-11 -5.200090e+03 4.656630e-10
-8.020430e-10 -5.600040e+03 -4.000000e+02
4.000000e+02 -5.600040e+03 -4.000000e+02
-1.208000e-09 -5.200090e+03 -4.000000e+02
4.000000e+02 -5.200090e+03 -4.000000e+02
-2.624580e-10 -5.600040e+03 5.209870e-10
4.000000e+02 -5.600040e+03 1.298620e-09
-4.933480e-11 -5.200090e+03 4.656630e-10
4.000000e+02 -5.200090e+03 -1.610570e-10
-4.000000e+02 -5.200090e+03 -4.000000e+02
-1.208000e-09 -5.200090e+03 -4.000000e+02
-4.000000e+02 -4.800160e+03 -4.000000e+02
-1.873000e-10 -4.800160e+03 -4.000000e+02
-4.000000e+02 -5.200090e+03 7.830250e-10
-4.933480e-11 -5.200090e+03 4.656630e-10
-4.000000e+02 -4.800160e+03 1.295160e-09
-9.051590e-11 -4.800160e+03 1.505650e-09
-1.208000e-09 -5.200090e+03 -4.000000e+02
4.000000e+02 -5.200090e+03 -4.000000e+02
-1.873000e-10 -4.800160e+03 -4.000000e+02
4.000000e+02 -4.800160e+03 -4.000000e+02
-4.933480e-11 -5.200090e+03 4.656630e-10
4.000000e+02 -5.200090e+03 -1.610570e-10
-9.051590e-11 -4.800160e+03 1.505650e-09
4.000000e+02 -4.800160e+03 1.213970e-09
-4.000000e+02 -4.800160e+03 -4.000000e+02
-1.873000e-10 -4.800160e+03 -4.000000e+02
-4.000000e+02 -4.400240e+03 -4.000000e+02
5.626530e-10 -4.400240e+03 -4.000000e+02
-4.000000e+02 -4.800160e+03 1.295160e-09
-9.051590e-11 -4.800160e+03 1.505650e-09
-4.000000e+02 -4.400240e+03 2.202860e-09
-1.101810e-10 -4.400240e+03 2.519950e-09
-1.873000e-10 -4.800160e+03 -4.000000e+02
4.000000e+02 -4.800160e+03 -4.000000e+02
5.626530e-10 -4.400240e+03 -4.000000e+02
4.000000e+02 -4.400240e+03 -4.000000e+02
-9.051590e-11 -4.800160e+03 1.505650e-09
4.000000e+02 -4.800160e+03 1.213970e-09
-1.101810e-10 -4.400240e+03 2.519950e-09
4.000000e+02 -4.400240e+03 1.803250e-09
-4.000000e+02 -4.400240e+03 -4.000000e+02
5.626530e-10 -4.400240e+03 -4.000000e+02
-4.000000e+02 -4.000310e+03 -4.000000e+02
-1.047860e-09 -4.000310e+03 -4.000000e+02
-4.000000e+02 -4.400240e+03 2.202860e-09
-1.101810e-10 -4.400240e+03 2.519950e-09
-4.000000e+02 -4.000310e+03 9.781430e-11
-1.615080e-10 -4.000310e+03 6.498770e-10
5.626530e-10 -4.400240e+03 -4.000000e+02
4.000000e+02 -4.400240e+03 -4.000000e+02
-1.047860e-09 -4.000310e+03 -4.000000e+02
4.000000e+02 -4.000310e+03 -4.000000e+02
-1.101810e-10 -4.400240e+03 2.519950e-09
4.000000e+02 -4.400240e+03 1.803250e-09
-1.615080e-10 -4.000310e+03 6.498770e-10
4.000000e+02 -4.000310e+03 1.053890e-10
-4.000000e+02 -4.000310e+03 -4.000000e+02
-1.047860e-09 -4.000310e+03 -4.000000e+02
-4.000000e+02 -3.600330e+03 -4.000000e+02
-9.575560e-10 -3.600330e+03 -4.000000e+02
-4.000000e+02 -4.000310e+03 9.781430e-11
-1.615080e-10 -4.000310e+03 6.498770e-10
-4.000000e+02 -3.600330e+03 -8.500760e-10
-1.737860e-10 -3.600330e+03 -4.249610e-10
-1.047860e-09 -4.000310e+03 -4.000000e+02
4.000000e+02 -4.000310e+03 -4.000000e+02
-9.575560e-10 -3.600330e+03 -4.000000e+02
4.000000e+02 -3.600330e+03 -4.000000e+02
-1.615080e-10 -4.000310e+03 6.498770e-10
4.000000e+02 -4.000310e+03 1.053890e-10
-1.737860e-10 -3.600330e+03 -4.249610e-10
4.000000e+02 -3.600330e+03 3.780460e-11
-4.000000e+02 -3.600330e+03 -4.000000e+02
-9.575560e-10 -3.600330e+03 -4.000000e+02
-4.000000e+02 -3.200320e+03 -4.000000e+02
-3.464600e-10 -3.200320e+03 -4.000000e+02
-4.000000e+02 -3.600330e+03 -8.500760e-10
-1.737860e-10 -3.600330e+03 -4.249610e-10
-4.000000e+02 -3.200320e+03 -2.533320e-10
-3.882020e-10 -3.200320e+03 -1.694540e-10
-9.575560e-10 -3.600330e+03 -4.000000e+02
4.000000e+02 -3.600330e+03 -4.000000e+02
-3.464600e-10 -3.200320e+03 -4.000000e+02
4.000000e+02 -3.200320e+03 -4.000000e+02
-1.737860e-10 -3.600330e+03 -4.249610e-10
4.000000e+02 -3.600330e+03 3.780460e-11
-3.882020e-10 -3.200320e+03 -1.694540e-10
4.000000e+02 -3.200320e+03 -4.352540e-11
-4.000000e+02 -3.200320e+03 -4.000000e+02
-3.464600e-10 -3.200320e+03 -4.000000e+02
-4.000000e+02 -2.800290e+03 -4.000000e+02
7.931270e-10 -2.800290e+03 -4.000000e+02
-4.000000e+02 -3.200320e+03 -2.533320e-10
-3.882020e-10 -3.200320e+03 -1.694540e-10
-4.000000e+02 -2.800290e+03 1.049450e-09
4.820690e-10 -2.800290e+03 -3.106430e-10
-3.464600e-10 -3.200320e+03 -4.000000e+02
4.000000e+02 -3.200320e+03 -4.000000e+02
7.931270e-10 -2.800290e+03 -4.000000e+02
4.000000e+02 -2.800290e+03 -4.000000e+02
-3.882020e-10 -3.200320e+03 -1.694540e-10
4.000000e+02 -3.200320e+03 -4.352540e-11
4.820690e-10 -2.800290e+03 -3.106430e-10
4.000000e+02 -2.800290e+03 -7.497120e-10
-4.000000e+02 -2.800290e+03 -4.000000e+02
7.931270e-10 -2.800290e+03 -4.000000e+02
-4.000000e+02 -2.400280e+03 -4.000000e+02
8.088100e-11 -2.400280e+03 -4.000000e+02
-4.000000e+02 -2.800290e+03 1.049450e-09
4.820690e-10 -2.800290e+03 -3.106430e-10
-4.000000e+02 -2.400280e+03 -5.997130e-10
1.021010e-09 -2.400280e+03 -1.351090e-09
7.931270e-10 -2.800290e+03 -4.000000e+02
4.000000e+02 -2.800290e+03 -4.000000e+02
8.088100e-11 -2.400280e+03 -4.000000e+02
4.000000e+02 -2.400280e+03 -4.000000e+02
4.820690e-10 -2.800290e+03 -3.106430e-10
4.000000e+02 -2.800290e+03 -7.497120e-10
1.021010e-09 -2.400280e+03 -1.351090e-09
4.000000e+02 -2.400280e+03 -1.032980e-09
-4.000000e+02 -2.400280e+03 -4.000000e+02
8.088100e-11 -2.400280e+03 -4.000000e+02
-4.000000e+02 -2.000300e+03 -4.000000e+02
9.455950e-10 -2.000300e+03 -4.000000e+02
-4.000000e+02 -2.400280e+03 -5.997130e-10
1.021010e-09 -2.400280e+03 -1.351090e-09
-4.000000e+02 -2.000300e+03 1.209140e-10
1.593420e-09 -2.000300e+03 -6.716240e-10
8.088100e-11 -2.400280e+03 -4.000000e+02
4.000000e+02 -2.400280e+03 -4.000000e+02
9.455950e-10 -2.000300e+03 -4.000000e+02
4.000000e+02 -2.000300e+03 -4.000000e+02
1.021010e-09 -2.400280e+03 -1.351090e-09
4.000000e+02 -2.400280e+03 -1.032980e-09
1.593420e-09 -2.000300e+03 -6.716240e-10
4.000000e+02 -2.000300e+03 -1.208090e-09
-4.000000e+02 -2.000300e+03 -4.000000e+02
9.455950e-10 -2.000300e+03 -4.000000e+02
-4.000000e+02 -1.600310e+03 -4.000000e+02
1.415370e-09 -1.600310e+03 -4.000000e+02
-4.000000e+02 -2.000300e+03 1.209140e-10
1.593420e-09 -2.000300e+03 -6.716240e-10
-4.000000e+02 -1.600310e+03 4.992920e-10
1.604880e-09 -1.600310e+03 -6.031680e-11
9.455950e-10 -2.000300e+03 -4.000000e+02
4.000000e+02 -2.000300e+03 -4.000000e+02
1.415370e-09 -1.600310e+03 -4.000000e+02
4.000000e+02 -1.600310e+03 -4.000000e+02
1.593420e-09 -2.000300e+03 -6.716240e-10
4.000000e+02 -2.000300e+03 -1.208090e-09
1.604880e-09 -1.600310e+03 -6.031680e-11
4.000000e+02 -1.600310e+03 -7.115090e-10
-4.000000e+02 -1.600310e+03 -4.000000e+02
1.415370e-09 -1.600310e+03 -4.000000e+02
-4.000000e+02 -1.200290e+03 -4.000000e+02
5.446380e-10 -1.200290e+03 -4.000000e+02
-4.000000e+02 -1.600310e+03 4.992920e-10
1.604880e-09 -1.600310e+03 -6.031680e-11
-4.000000e+02 -1.200290e+03 -7.383280e-10
1.112950e-09 -1.200290e+03 -1.333830e-10
1.415370e-09 -1.600310e+03 -4.000000e+02
4.000000e+02 -1.600310e+03 -4.000000e+02
5.446380e-10 -1.200290e+03 -4.000000e+02
4.000000e+02 -1.200290e+03 -4.000000e+02
1.604880e-09 -1.600310e+03 -6.031680e-11
4.000000e+02 -1.600310e+03 -7.115090e-10
1.112950e-09 -1.200290e+03 -1.333830e-10
4.000000e+02 -1.200290e+03 -5.346930e-10
-4.000000e+02 -1.200290e+03 -4.000000e+02
5.446380e-10 -1.200290e+03 -4.000000e+02
-4.000000e+02 -8.002920e+02 -4.000000e+02
4.008390e-10 -8.002920e+02 -4.000000e+02
-4.000000e+02 -1.200290e+03 -7.383280e-10
1.112950e-09 -1.200290e+03 -1.333830e-10
-4.000000e+02 -8.002920e+02 -6.192870e-10
3.331800e-10 -8.002920e+02 -6.098890e-10
5.446380e-10 -1.200290e+03 -4.000000e+02
4.000000e+02 -1.200290e+03 -4.000000e+02
4.008390e-10 -8.002920e+02 -4.000000e+02
4.000000e+02 -8.002920e+02 -4.000000e+02
1.112950e-09 -1.200290e+03 -1.333830e-10
4.000000e+02 -1.200290e+03 -5.346930e-10
3.331800e-10 -8.002920e+02 -6.098890e-10
4.000000e+02 -8.002920e+02 -3.928110e-10
-4.000000e+02 -8.002920e+02 -4.000000e+02
4.008390e-10 -8.002920e+02 -4.000000e+02
-4.000000e+02 -4.003000e+02 -4.000000e+02
-6.637490e-11 -4.003000e+02 -4.000000e+02
-4.000000e+02 -8.002920e+02 -6.192870e-10
3.331800e-10 -8.002920e+02 -6.098890e-10
-4.000000e+02 -4.003000e+02 8.691860e-10
-5.926690e-11 -4.003000e+02 3.531640e-10
4.008390e-10 -8.002920e+02 -4.000000e+02
4.000000e+02 -8.002920e+02 -4.000000e+02
-6.637490e-11 -4.003000e+02 -4.000000e+02
4.000000e+02 -4.003000e+02 -4.000000e+02
3.331800e-10 -8.002920e+02 -6.098890e-10
4.000000e+02 -8.002920e+02 -3.928110e-10
-5.926690e-11 -4.003000e+02 3.531640e-10
4.000000e+02 -4.003000e+02 -8.956880e-10
-4.000000e+02 -4.003000e+02 -4.000000e+02
-6.637490e-11 -4.003000e+02 -4.000000e+02
-4.000000e+02 -2.989010e-01 -4.000000e+02
-1.218790e-09 -2.989010e-01 -4.000000e+02
-4.000000e+02 -4.003000e+02 8.691860e-10
-5.926690e-11 -4.003000e+02 3.531640e-10
-4.000000e+02 -2.989010e-01 -3.312490e-10
1.582130e-10 -2.989010e-01 -9.498820e-11
-6.637490e-11 -4.003000e+02 -4.000000e+02
4.000000e+02 -4.003000e+02 -4.000000e+02
-1.218790e-09 -2.989010e-01 -4.000000e+02
[...]
<PointData>
<DataArray type="Float32" Name="V1" format="ascii">
0.000000e+00
0.000000e+00
1.853930e-09
5.155320e-10
0.000000e+00
0.000000e+00
6.284500e-11
2.997420e-10
0.000000e+00
0.000000e+00
5.155320e-10
3.613590e-10
0.000000e+00
0.000000e+00
2.997420e-10
6.755840e-10
1.853930e-09
5.155320e-10
-6.127390e-10
-1.428120e-10
6.284500e-11
2.997420e-10
1.225480e-09
1.800640e-10
5.155320e-10
3.613590e-10
-1.428120e-10
9.426750e-11
2.997420e-10
6.755840e-10
1.800640e-10
6.127390e-10
-6.127390e-10
-1.428120e-10
-2.938000e-09
-1.939860e-09
1.225480e-09
1.800640e-10
3.597880e-09
7.741100e-10
-1.428120e-10
9.426750e-11
-1.939860e-09
0.000000e+00
1.800640e-10
6.127390e-10
7.741100e-10
-1.131210e-09
-2.938000e-09
-1.939860e-09
-7.070060e-10
5.754960e-10
3.597880e-09
7.741100e-10
-6.284500e-10
-4.017580e-10
-1.939860e-09
0.000000e+00
5.754960e-10
-1.791080e-09
7.741100e-10
-1.131210e-09
-4.017580e-10
1.398300e-09
-7.070060e-10
5.754960e-10
1.366880e-09
-4.012740e-10
-6.284500e-10
-4.017580e-10
-2.042460e-09
3.412490e-10
5.754960e-10
-1.791080e-09
-4.012740e-10
-1.225480e-09
-4.017580e-10
1.398300e-09
3.412490e-10
2.309550e-09
1.366880e-09
-4.012740e-10
6.755840e-10
1.791660e-09
-2.042460e-09
3.412490e-10
-3.456480e-10
-2.732050e-10
-4.012740e-10
-1.225480e-09
1.791660e-09
1.681100e-09
3.412490e-10
2.309550e-09
-2.732050e-10
-1.728240e-10
6.755840e-10
1.791660e-09
-3.676430e-09
-3.260790e-10
-3.456480e-10
-2.732050e-10
-3.770700e-10
-2.775510e-10
1.791660e-09
1.681100e-09
-3.260790e-10
9.112530e-10
-2.732050e-10
-1.728240e-10
-2.775510e-10
-3.205100e-09
-3.676430e-09
-3.260790e-10
2.828030e-10
-8.506470e-10
-3.770700e-10
-2.775510e-10
-5.970280e-10
-6.103680e-10
-3.260790e-10
9.112530e-10
-8.506470e-10
1.146920e-09
-2.775510e-10
-3.205100e-09
-6.103680e-10
-1.068370e-09
2.828030e-10
-8.506470e-10
2.168150e-09
1.785260e-09
-5.970280e-10
-6.103680e-10
3.456480e-10
8.214940e-10
-8.506470e-10
1.146920e-09
1.785260e-09
-5.184710e-10
-6.103680e-10
-1.068370e-09
8.214940e-10
0.000000e+00
2.168150e-09
1.785260e-09
3.613590e-10
1.684600e-09
3.456480e-10
8.214940e-10
-4.713380e-10
-7.703500e-11
1.785260e-09
-5.184710e-10
1.684600e-09
2.356690e-10
8.214940e-10
0.000000e+00
-7.703500e-11
-2.513800e-10
3.613590e-10
1.684600e-09
1.414010e-10
-2.789060e-10
-4.713380e-10
-7.703500e-11
0.000000e+00
6.125220e-10
1.684600e-09
2.356690e-10
-2.789060e-10
1.555410e-09
-7.703500e-11
-2.513800e-10
6.125220e-10
1.759660e-09
1.414010e-10
-2.789060e-10
2.985140e-10
1.125900e-09
0.000000e+00
6.125220e-10
5.184710e-10
9.160590e-10
-2.789060e-10
1.555410e-09
1.125900e-09
1.115500e-09
6.125220e-10
1.759660e-09
9.160590e-10
-4.084930e-10
2.985140e-10
1.125900e-09
-1.743950e-09
7.284050e-10
5.184710e-10
9.160590e-10
5.341830e-10
2.924840e-10
1.125900e-09
1.115500e-09
7.284050e-10
-4.556260e-10
9.160590e-10
-4.084930e-10
2.924840e-10
-1.366880e-09
-1.743950e-09
7.284050e-10
0.000000e+00
-2.666950e-10
5.341830e-10
2.924840e-10
6.127390e-10
-4.828800e-10
7.284050e-10
-4.556260e-10
-2.666950e-10
-8.484080e-10
2.924840e-10
-1.366880e-09
-4.828800e-10
6.127390e-10
0.000000e+00
-2.666950e-10
8.169850e-10
-8.298000e-10
6.127390e-10
-4.828800e-10
1.539700e-09
7.289630e-10
-2.666950e-10
-8.484080e-10
-8.298000e-10
4.870490e-10
-4.828800e-10
6.127390e-10
7.289630e-10
-1.476860e-09
8.169850e-10
-8.298000e-10
8.955420e-10
6.763180e-10
1.539700e-09
7.289630e-10
-1.099790e-09
-1.298520e-10
-8.298000e-10
4.870490e-10
6.763180e-10
1.445440e-09
7.289630e-10
-1.476860e-09
-1.298520e-10
3.142250e-10
8.955420e-10
6.763180e-10
-3.032270e-09
-1.211680e-09
-1.099790e-09
-1.298520e-10
-1.162630e-09
-1.027740e-09
6.763180e-10
1.445440e-09
-1.211680e-09
-1.932480e-09
-1.298520e-10
3.142250e-10
-1.027740e-09
-2.011040e-09
-3.032270e-09
-1.211680e-09
-7.855630e-10
1.871000e-09
-1.162630e-09
-1.027740e-09
9.740980e-10
2.991440e-09
-1.211680e-09
-1.932480e-09
1.871000e-09
9.740980e-10
-1.027740e-09
-2.011040e-09
2.991440e-09
3.173670e-09
-7.855630e-10
1.871000e-09
7.117200e-09
2.267470e-09
9.740980e-10
2.991440e-09
5.970280e-10
1.090030e-09
1.871000e-09
9.740980e-10
2.267470e-09
-3.126540e-09
2.991440e-09
3.173670e-09
1.090030e-09
1.806790e-09
7.117200e-09
2.267470e-09
-5.137580e-09
-2.896830e-09
5.970280e-10
1.090030e-09
-7.070060e-10
-1.250650e-09
2.267470e-09
-3.126540e-09
-2.896830e-09
-7.698510e-10
1.090030e-09
1.806790e-09
-1.250650e-09
-1.853930e-09
-5.137580e-09
-2.896830e-09
-3.142250e-11
2.048100e-10
-7.070060e-10
-1.250650e-09
4.713380e-11
-1.368820e-09
-2.896830e-09
-7.698510e-10
2.048100e-10
3.142250e-10
-1.250650e-09
-1.853930e-09
-1.368820e-09
-2.859450e-09
-3.142250e-11
2.048100e-10
2.325270e-09
-4.423840e-10
4.713380e-11
-1.368820e-09
-1.759660e-09
-2.863780e-09
2.048100e-10
3.142250e-10
-4.423840e-10
-3.126540e-09
-1.368820e-09
-2.859450e-09
-2.863780e-09
-3.959240e-09
2.325270e-09
-4.423840e-10
-4.509130e-09
-1.134590e-09
-1.759660e-09
-2.863780e-09
-9.112530e-10
1.848350e-09
-4.423840e-10
-3.126540e-09
-1.134590e-09
2.325270e-09
-2.863780e-09
-3.959240e-09
1.848350e-09
4.524840e-09
-4.509130e-09
-1.134590e-09
-2.906580e-09
-5.462360e-11
-9.112530e-10
1.848350e-09
6.284500e-10
1.773260e-09
-1.134590e-09
2.325270e-09
-5.462360e-11
2.718050e-09
1.848350e-09
4.524840e-09
1.773260e-09
2.828030e-09
-2.906580e-09
-5.462360e-11
2.765180e-09
5.684140e-10
6.284500e-10
1.773260e-09
-2.513800e-10
-7.724500e-10
-5.462360e-11
2.718050e-09
5.684140e-10
-1.633970e-09
1.773260e-09
2.828030e-09
-7.724500e-10
-1.272610e-09
2.765180e-09
5.684140e-10
2.875160e-09
1.407670e-09
-2.513800e-10
-7.724500e-10
6.441610e-10
5.706620e-11
5.684140e-10
-1.633970e-09
1.407670e-09
0.000000e+00
-7.724500e-10
-1.272610e-09
5.706620e-11
-4.870490e-10
2.875160e-09
1.407670e-09
1.775370e-09
1.938180e-09
6.441610e-10
5.706620e-11
2.152440e-09
1.168440e-09
1.407670e-09
0.000000e+00
1.938180e-09
2.089600e-09
5.706620e-11
-4.870490e-10
1.168440e-09
1.885350e-10
1.775370e-09
1.938180e-09
1.665390e-09
1.289110e-09
2.152440e-09
1.168440e-09
5.184710e-10
3.559530e-10
1.938180e-09
2.089600e-09
1.289110e-09
8.955420e-10
1.168440e-09
1.885350e-10
3.559530e-10
1.885350e-10
1.665390e-09
1.289110e-09
-7.541400e-10
-5.936470e-10
5.184710e-10
3.559530e-10
-8.169850e-10
-3.461780e-10
1.289110e-09
8.955420e-10
-5.936470e-10
-4.242040e-10
3.559530e-10
1.885350e-10
-3.461780e-10
1.728240e-10
-7.541400e-10
-5.936470e-10
-7.855630e-10
-6.581800e-10
-8.169850e-10
-3.461780e-10
-6.598730e-10
-5.775350e-10
-5.936470e-10
-4.242040e-10
-6.581800e-10
-5.184710e-10
-3.461780e-10
1.728240e-10
-5.775350e-10
-4.713380e-10
0.000000e+00
0.000000e+00
6.284500e-11
2.997420e-10
0.000000e+00
0.000000e+00
3.299360e-09
1.956260e-09
0.000000e+00
0.000000e+00
2.997420e-10
6.755840e-10
0.000000e+00
0.000000e+00
1.956260e-09
7.227180e-10
6.284500e-11
2.997420e-10
1.225480e-09
1.800640e-10
3.299360e-09
1.956260e-09
-1.241190e-09
-7.815420e-11
2.997420e-10
6.755840e-10
1.800640e-10
6.127390e-10
1.956260e-09
7.227180e-10
-7.815420e-11
0.000000e+00
1.225480e-09
1.800640e-10
3.597880e-09
7.741100e-10
-1.241190e-09
-7.815420e-11
-3.912100e-09
-1.874800e-09
1.800640e-10
6.127390e-10
7.741100e-10
-1.131210e-09
-7.815420e-11
0.000000e+00
-1.874800e-09
-6.127390e-10
3.597880e-09
7.741100e-10
-6.284500e-10
-4.017580e-10
-3.912100e-09
-1.874800e-09
-1.131210e-09
6.179390e-10
7.741100e-10
-1.131210e-09
-4.017580e-10
1.398300e-09
-1.874800e-09
-6.127390e-10
6.179390e-10
-3.299360e-10
-6.284500e-10
-4.017580e-10
-2.042460e-09
3.412490e-10
-1.131210e-09
6.179390e-10
1.822510e-09
3.823250e-10
-4.017580e-10
1.398300e-09
3.412490e-10
2.309550e-09
6.179390e-10
-3.299360e-10
3.823250e-10
2.513800e-10
-2.042460e-09
3.412490e-10
-3.456480e-10
-2.732050e-10
1.822510e-09
3.823250e-10
-6.284500e-10
3.644250e-10
3.412490e-10
2.309550e-09
-2.732050e-10
-1.728240e-10
3.823250e-10
2.513800e-10
3.644250e-10
4.713380e-11
-3.456480e-10
-2.732050e-10
-3.770700e-10
-2.775510e-10
-6.284500e-10
3.644250e-10
-6.755840e-10
1.295960e-10
-2.732050e-10
-1.728240e-10
-2.775510e-10
-3.205100e-09
3.644250e-10
4.713380e-11
1.295960e-10
-3.142250e-10
-3.770700e-10
-2.775510e-10
-5.970280e-10
-6.103680e-10
-6.755840e-10
1.295960e-10
6.598730e-10
1.260490e-10
-2.775510e-10
-3.205100e-09
-6.103680e-10
-1.068370e-09
1.295960e-10
-3.142250e-10
1.260490e-10
-1.414010e-10
-5.970280e-10
-6.103680e-10
3.456480e-10
8.214940e-10
6.598730e-10
1.260490e-10
-5.656050e-10
1.856840e-10
-6.103680e-10
-1.068370e-09
8.214940e-10
0.000000e+00
1.260490e-10
-1.414010e-10
1.856840e-10
4.242040e-10
3.456480e-10
8.214940e-10
-4.713380e-10
-7.703500e-11
-5.656050e-10
1.856840e-10
9.898090e-10
1.182020e-09
8.214940e-10
0.000000e+00
-7.703500e-11
-2.513800e-10
1.856840e-10
4.242040e-10
1.182020e-09
-1.005520e-09
-4.713380e-10
-7.703500e-11
0.000000e+00
6.125220e-10
9.898090e-10
1.182020e-09
-5.498940e-10
-6.179520e-10
-7.703500e-11
-2.513800e-10
6.125220e-10
1.759660e-09
1.182020e-09
-1.005520e-09
-6.179520e-10
1.036940e-09
0.000000e+00
6.125220e-10
5.184710e-10
9.160590e-10
-5.498940e-10
-6.179520e-10
-2.985140e-10
-3.908540e-11
6.125220e-10
1.759660e-09
9.160590e-10
-4.084930e-10
-6.179520e-10
1.036940e-09
-3.908540e-11
-7.541400e-10
5.184710e-10
9.160590e-10
5.341830e-10
2.924840e-10
-2.985140e-10
-3.908540e-11
8.326970e-10
5.478480e-10
9.160590e-10
-4.084930e-10
2.924840e-10
-1.366880e-09
-3.908540e-11
-7.541400e-10
5.478480e-10
9.426750e-10
5.341830e-10
2.924840e-10
6.127390e-10
-4.828800e-10
8.326970e-10
5.478480e-10
-2.026750e-09
3.274060e-10
2.924840e-10
-1.366880e-09
-4.828800e-10
6.127390e-10
5.478480e-10
9.426750e-10
3.274060e-10
1.068370e-09
6.127390e-10
-4.828800e-10
1.539700e-09
7.289630e-10
-2.026750e-09
3.274060e-10
1.256900e-09
4.317420e-10
-4.828800e-10
6.127390e-10
7.289630e-10
-1.476860e-09
3.274060e-10
1.068370e-09
4.317420e-10
5.184710e-10
1.539700e-09
7.289630e-10
-1.099790e-09
-1.298520e-10
1.256900e-09
4.317420e-10
-4.556260e-10
4.233390e-10
7.289630e-10
-1.476860e-09
-1.298520e-10
3.142250e-10
4.317420e-10
5.184710e-10
4.233390e-10
9.898090e-10
-1.099790e-09
-1.298520e-10
-1.162630e-09
-1.027740e-09
-4.556260e-10
4.233390e-10
6.912950e-10
-1.927400e-09
-1.298520e-10
3.142250e-10
-1.027740e-09
-2.011040e-09
4.233390e-10
9.898090e-10
-1.927400e-09
-3.393630e-09
-1.162630e-09
-1.027740e-09
9.740980e-10
2.991440e-09
6.912950e-10
-1.927400e-09
-1.099790e-09
4.756020e-09
-1.027740e-09
-2.011040e-09
2.991440e-09
3.173670e-09
-1.927400e-09
-3.393630e-09
4.756020e-09
8.641190e-09
9.740980e-10
2.991440e-09
5.970280e-10
1.090030e-09
-1.099790e-09
4.756020e-09
3.047980e-09
-2.259750e-09
2.991440e-09
3.173670e-09
1.090030e-09
1.806790e-09
4.756020e-09
8.641190e-09
-2.259750e-09
-7.808490e-09
5.970280e-10
1.090030e-09
-7.070060e-10
-1.250650e-09
3.047980e-09
-2.259750e-09
-5.184710e-10
2.368230e-09
1.090030e-09
1.806790e-09
-1.250650e-09
-1.853930e-09
-2.259750e-09
-7.808490e-09
2.368230e-09
5.184710e-09
-7.070060e-10
-1.250650e-09
4.713380e-11
-1.368820e-09
-5.184710e-10
2.368230e-09
-2.121020e-09
-4.115510e-09
-1.250650e-09
-1.853930e-09
-1.368820e-09
-2.859450e-09
2.368230e-09
5.184710e-09
-4.115510e-09
-5.954570e-09
4.713380e-11
-1.368820e-09
-1.759660e-09
-2.863780e-09
-2.121020e-09
-4.115510e-09
-2.655200e-09
-5.629450e-09
-1.368820e-09
-2.859450e-09
-2.863780e-09
-3.959240e-09
-4.115510e-09
-5.954570e-09
-5.629450e-09
-8.531210e-09
-1.759660e-09
-2.863780e-09
-9.112530e-10
1.848350e-09
-2.655200e-09
-5.629450e-09
2.199580e-09
5.535760e-09
-2.863780e-09
-3.959240e-09
1.848350e-09
4.524840e-09
-5.629450e-09
-8.531210e-09
5.535760e-09
8.814010e-09
-9.112530e-10
1.848350e-09
6.284500e-10
1.773260e-09
2.199580e-09
5.535760e-09
-2.670910e-10
3.628960e-09
1.848350e-09
4.524840e-09
1.773260e-09
2.828030e-09
5.535760e-09
8.814010e-09
3.628960e-09
7.478560e-09
6.284500e-10
1.773260e-09
-2.513800e-10
-7.724500e-10
-2.670910e-10
3.628960e-09
-4.399150e-10
-1.700660e-09
1.773260e-09
2.828030e-09
-7.724500e-10
-1.272610e-09
3.628960e-09
7.478560e-09
-1.700660e-09
-2.985140e-09
-2.513800e-10
-7.724500e-10
6.441610e-10
5.706620e-11
-4.399150e-10
-1.700660e-09
7.070060e-10
-1.397050e-09
-7.724500e-10
-1.272610e-09
5.706620e-11
-4.870490e-10
-1.700660e-09
-2.985140e-09
-1.397050e-09
-3.535030e-09
6.441610e-10
5.706620e-11
2.152440e-09
1.168440e-09
7.070060e-10
-1.397050e-09
2.985140e-10
1.855320e-10
5.706620e-11
-4.870490e-10
1.168440e-09
1.885350e-10
-1.397050e-09
-3.535030e-09
1.855320e-10
9.426750e-11
2.152440e-09
1.168440e-09
5.184710e-10
3.559530e-10
2.985140e-10
1.855320e-10
3.770700e-10
-5.609390e-10
1.168440e-09
1.885350e-10
3.559530e-10
1.885350e-10
1.855320e-10
9.426750e-11
-5.609390e-10
-1.445440e-09
5.184710e-10
3.559530e-10
-8.169850e-10
-3.461780e-10
3.770700e-10
-5.609390e-10
-4.084930e-10
2.598900e-11
3.559530e-10
1.885350e-10
-3.461780e-10
1.728240e-10
-5.609390e-10
-1.445440e-09
2.598900e-11
5.027600e-10
-8.169850e-10
-3.461780e-10
-6.598730e-10
-5.775350e-10
-4.084930e-10
2.598900e-11
-7.855630e-10
-4.358850e-10
-3.461780e-10
1.728240e-10
-5.775350e-10
-4.713380e-10
2.598900e-11
5.027600e-10
-4.358850e-10
-7.855630e-11
</DataArray>
<DataArray type="Float32" Name="V2" format="ascii">
0.000000e+00
0.000000e+00
1.624840e-02
1.624840e-02
0.000000e+00
0.000000e+00
1.624840e-02
1.624840e-02
0.000000e+00
0.000000e+00
1.624840e-02
1.624840e-02
0.000000e+00
0.000000e+00
1.624840e-02
1.624840e-02
1.624840e-02
1.624840e-02
3.523650e-02
3.523650e-02
1.624840e-02
1.624840e-02
3.523650e-02
3.523650e-02
1.624840e-02
1.624840e-02
3.523650e-02
3.523650e-02
1.624840e-02
1.624840e-02
3.523650e-02
3.523650e-02
3.523650e-02
3.523650e-02
4.699080e-02
4.699080e-02
3.523650e-02
3.523650e-02
4.699080e-02
4.699080e-02
3.523650e-02
3.523650e-02
4.699080e-02
4.699080e-02
3.523650e-02
3.523650e-02
4.699080e-02
4.699080e-02
4.699080e-02
4.699080e-02
5.315330e-02
5.315330e-02
4.699080e-02
4.699080e-02
5.315330e-02
5.315330e-02
4.699080e-02
4.699080e-02
5.315330e-02
5.315330e-02
4.699080e-02
4.699080e-02
5.315330e-02
5.315330e-02
5.315330e-02
5.315330e-02
3.457890e-02
3.457890e-02
5.315330e-02
5.315330e-02
3.457890e-02
3.457890e-02
5.315330e-02
5.315330e-02
3.457890e-02
3.457890e-02
5.315330e-02
5.315330e-02
3.457890e-02
3.457890e-02
3.457890e-02
3.457890e-02
8.195600e-04
8.195610e-04
3.457890e-02
3.457890e-02
8.195570e-04
8.195650e-04
3.457890e-02
3.457890e-02
8.195610e-04
8.195620e-04
3.457890e-02
3.457890e-02
8.195650e-04
8.195580e-04
8.195600e-04
8.195610e-04
-2.244310e-02
-2.244310e-02
8.195570e-04
8.195650e-04
-2.244300e-02
-2.244300e-02
8.195610e-04
8.195620e-04
-2.244310e-02
-2.244300e-02
8.195650e-04
8.195580e-04
-2.244300e-02
-2.244300e-02
-2.244310e-02
-2.244310e-02
-2.030430e-02
-2.030430e-02
-2.244300e-02
-2.244300e-02
-2.030430e-02
-2.030430e-02
-2.244310e-02
-2.244300e-02
-2.030430e-02
-2.030430e-02
-2.244300e-02
-2.244300e-02
-2.030430e-02
-2.030430e-02
-2.030430e-02
-2.030430e-02
7.219050e-03
7.219050e-03
-2.030430e-02
-2.030430e-02
7.219050e-03
7.219040e-03
-2.030430e-02
-2.030430e-02
7.219050e-03
7.219050e-03
-2.030430e-02
-2.030430e-02
7.219040e-03
7.219050e-03
7.219050e-03
7.219050e-03
1.699460e-02
1.699460e-02
7.219050e-03
7.219040e-03
1.699460e-02
1.699460e-02
7.219050e-03
7.219050e-03
1.699460e-02
1.699460e-02
7.219040e-03
7.219050e-03
1.699460e-02
1.699460e-02
1.699460e-02
1.699460e-02
-4.808590e-03
-4.808580e-03
1.699460e-02
1.699460e-02
-4.808590e-03
-4.808590e-03
1.699460e-02
1.699460e-02
-4.808580e-03
-4.808580e-03
1.699460e-02
1.699460e-02
-4.808590e-03
-4.808580e-03
-4.808590e-03
-4.808580e-03
-9.353930e-03
-9.353930e-03
-4.808590e-03
-4.808590e-03
-9.353930e-03
-9.353930e-03
-4.808580e-03
-4.808580e-03
-9.353930e-03
-9.353930e-03
-4.808590e-03
-4.808580e-03
-9.353930e-03
-9.353930e-03
-9.353930e-03
-9.353930e-03
4.452190e-03
4.452190e-03
-9.353930e-03
-9.353930e-03
4.452190e-03
4.452190e-03
-9.353930e-03
-9.353930e-03
4.452190e-03
4.452190e-03
-9.353930e-03
-9.353930e-03
4.452190e-03
4.452190e-03
4.452190e-03
4.452190e-03
2.570820e-03
2.570820e-03
4.452190e-03
4.452190e-03
2.570820e-03
2.570830e-03
4.452190e-03
4.452190e-03
2.570820e-03
2.570820e-03
4.452190e-03
4.452190e-03
2.570830e-03
2.570820e-03
2.570820e-03
2.570820e-03
-3.085290e-03
-3.085290e-03
2.570820e-03
2.570830e-03
-3.085290e-03
-3.085290e-03
2.570820e-03
2.570820e-03
-3.085290e-03
-3.085290e-03
2.570830e-03
2.570820e-03
-3.085290e-03
-3.085290e-03
-3.085290e-03
-3.085290e-03
-6.712990e-05
-6.713630e-05
-3.085290e-03
-3.085290e-03
-6.713730e-05
-6.714360e-05
-3.085290e-03
-3.085290e-03
-6.713630e-05
-6.713250e-05
-3.085290e-03
-3.085290e-03
-6.714360e-05
-6.714040e-05
-6.712990e-05
-6.713630e-05
9.814280e-04
9.814310e-04
-6.713730e-05
-6.714360e-05
9.814280e-04
9.814350e-04
-6.713630e-05
-6.713250e-05
9.814310e-04
9.814280e-04
-6.714360e-05
-6.714040e-05
9.814350e-04
9.814340e-04
9.814280e-04
9.814310e-04
-9.563350e-04
-9.563320e-04
9.814280e-04
9.814350e-04
-9.563280e-04
-9.563300e-04
9.814310e-04
9.814280e-04
-9.563320e-04
-9.563250e-04
9.814350e-04
9.814340e-04
-9.563300e-04
-9.563280e-04
-9.563350e-04
-9.563320e-04
-4.839120e-04
-4.839090e-04
-9.563280e-04
-9.563300e-04
-4.839140e-04
-4.839110e-04
-9.563320e-04
-9.563250e-04
-4.839090e-04
-4.839190e-04
-9.563300e-04
-9.563280e-04
-4.839110e-04
-4.839100e-04
-4.839120e-04
-4.839090e-04
-1.441630e-04
-1.441290e-04
-4.839140e-04
-4.839110e-04
-1.441250e-04
-1.441580e-04
-4.839090e-04
-4.839190e-04
-1.441290e-04
-1.441640e-04
-4.839110e-04
-4.839100e-04
-1.441580e-04
-1.441580e-04
-1.441630e-04
-1.441290e-04
-4.491120e-04
-4.491650e-04
-1.441250e-04
-1.441580e-04
-4.491720e-04
-4.491180e-04
-1.441290e-04
-1.441640e-04
-4.491650e-04
-4.491120e-04
-1.441580e-04
-1.441580e-04
-4.491180e-04
-4.491560e-04
-4.491120e-04
-4.491650e-04
-3.885820e-04
-3.885230e-04
-4.491720e-04
-4.491180e-04
-3.885140e-04
-3.885570e-04
-4.491650e-04
-4.491120e-04
-3.885230e-04
-3.885380e-04
-4.491180e-04
-4.491560e-04
-3.885570e-04
-3.884930e-04
-3.885820e-04
-3.885230e-04
-7.112420e-04
-7.112590e-04
-3.885140e-04
-3.885570e-04
-7.112630e-04
-7.112490e-04
-3.885230e-04
-3.885380e-04
-7.112590e-04
-7.112530e-04
-3.885570e-04
-3.884930e-04
-7.112490e-04
-7.112520e-04
-7.112420e-04
-7.112590e-04
-3.428270e-04
-3.428200e-04
-7.112630e-04
-7.112490e-04
-3.428190e-04
-3.428260e-04
-7.112590e-04
-7.112530e-04
-3.428200e-04
-3.428260e-04
-7.112490e-04
-7.112520e-04
-3.428260e-04
-3.428120e-04
-3.428270e-04
-3.428200e-04
-1.811510e-05
-1.816610e-05
-3.428190e-04
-3.428260e-04
-1.816620e-05
-1.814800e-05
-3.428200e-04
-3.428260e-04
-1.816610e-05
-1.816320e-05
-3.428260e-04
-3.428120e-04
-1.814800e-05
-1.817540e-05
-1.811510e-05
-1.816610e-05
3.061730e-05
3.064960e-05
-1.816620e-05
-1.814800e-05
3.065130e-05
3.064200e-05
-1.816610e-05
-1.816320e-05
3.064960e-05
3.063540e-05
-1.814800e-05
-1.817540e-05
3.064200e-05
3.063090e-05
3.061730e-05
3.064960e-05
-3.531040e-05
-3.531970e-05
3.065130e-05
3.064200e-05
-3.531990e-05
-3.531970e-05
3.064960e-05
3.063540e-05
-3.531970e-05
-3.530780e-05
3.064200e-05
3.063090e-05
-3.531970e-05
-3.531310e-05
-3.531040e-05
-3.531970e-05
5.581590e-05
5.581740e-05
-3.531990e-05
-3.531970e-05
5.581840e-05
5.582300e-05
-3.531970e-05
-3.530780e-05
5.581740e-05
5.582070e-05
-3.531970e-05
-3.531310e-05
5.582300e-05
5.582500e-05
5.581590e-05
5.581740e-05
-1.355340e-04
-1.355320e-04
5.581840e-05
5.582300e-05
-1.355320e-04
-1.355320e-04
5.581740e-05
5.582070e-05
-1.355320e-04
-1.355290e-04
5.582300e-05
5.582500e-05
-1.355320e-04
-1.355300e-04
-1.355340e-04
-1.355320e-04
3.806840e-04
3.806900e-04
-1.355320e-04
-1.355320e-04
3.806900e-04
3.806890e-04
-1.355320e-04
-1.355290e-04
3.806900e-04
3.806880e-04
-1.355320e-04
-1.355300e-04
3.806890e-04
3.806870e-04
0.000000e+00
0.000000e+00
1.624840e-02
1.624840e-02
0.000000e+00
0.000000e+00
1.624840e-02
1.624840e-02
0.000000e+00
0.000000e+00
1.624840e-02
1.624840e-02
0.000000e+00
0.000000e+00
1.624840e-02
1.624840e-02
1.624840e-02
1.624840e-02
3.523650e-02
3.523650e-02
1.624840e-02
1.624840e-02
3.523650e-02
3.523650e-02
1.624840e-02
1.624840e-02
3.523650e-02
3.523650e-02
1.624840e-02
1.624840e-02
3.523650e-02
3.523650e-02
3.523650e-02
3.523650e-02
4.699080e-02