<?xml version="1.0"?>
<!-- time 74.7459-->
<VTKFile type="UnstructuredGrid" version="0.1" byte_order="LittleEndian">
<UnstructuredGrid>
<Piece NumberOfPoints="7680" NumberOfCells="0">
<Points>
  <DataArray type="Float32" Name="Position" NumberOfComponents="3" format="ascii">
	-350 2049.59 -350
	-350 2049.59 -250
	-350 2049.59 -150
	-350 2049.59 -50
	-350 2049.59 50
	-350 2049.59 150
	-350 2049.59 250
	-350 2049.59 350
	-250 2049.59 -350
	-250 2049.59 -250
	-250 2049.59 -150
	-250 2049.59 -50
	-250 2049.59 50
	-250 2049.59 150
	-250 2049.59 250
	-250 2049.59 350
	-150 2049.59 -350
	-150 2049.59 -250
	-150 2049.59 -150
	-150 2049.59 -50
	-150 2049.59 50
	-150 2049.59 150
	-150 2049.59 250
	-150 2049.59 350
	-50 2049.59 -350
	-50 2049.59 -250
	-50 2049.59 -150
	-50 2049.59 -50
	-50 2049.59 50
	-50 2049.59 150
	-50 2049.59 250
	-50 2049.59 350
	50 2049.59 -350
	50 2049.59 -250
	50 2049.59 -150
	50 2049.59 -50
	50 2049.59 50
	50 2049.59 150
	50 2049.59 250
	50 2049.59 350
	150 2049.59 -350
	150 2049.59 -250
	150 2049.59 -150
	150 2049.59 -50
	150 2049.59 50
	150 2049.59 150
	150 2049.59 250
	150 2049.59 350
	250 2049.59 -350
	250 2049.59 -250
	250 2049.59 -150
	250 2049.59 -50
	250 2049.59 50
	250 2049.59 150
	250 2049.59 250
	250 2049.59 350
	350 2049.59 -350
	350 2049.59 -250
	350 2049.59 -150
	350 2049.59 -50
	350 2049.59 50
	350 2049.59 150
	350 2049.59 250
	350 2049.59 350
	-350 2149.66 -350
	-350 2149.66 -250
	-350 2149.66 -150
	-350 2149.66 -50
	-350 2149.66 50
	-350 2149.66 150
	-350 2149.66 250
	-350 2149.66 350
	-250 2149.66 -350
	-250 2149.66 -250
	-250 2149.66 -150
	-250 2149.66 -50
	-250 2149.66 50
	-250 2149.66 150
	-250 2149.66 250
	-250 2149.66 350
	-150 2149.66 -350
	-150 2149.66 -250
	-150 2149.66 -150
	-150 2149.66 -50
	-150 2149.66 50
	-150 2149.66 150
	-150 2149.66 250
	-150 2149.66 350
	-50 2149.66 -350
	-50 2149.66 -250
	-50 2149.66 -150
	-50 2149.66 -50
	-50 2149.66 50
	-50 2149.66 150
	-50 2149.66 250
	-50 2149.66 350
	50 2149.66 -350
	50 2149.66 -250
	50 2149.66 -150
	50 2149.66 -50
	50 2149.66 50
	50 2149.66 150
	50 2149.66 250
	50 2149.66 350
	150 2149.66 -350
	150 2149.66 -250
	150 2149.66 -150
	150 2149.66 -50
	150 2149.66 50
	150 2149.66 150
	150 2149.66 250
	150 2149.66 350
	250 2149.66 -350
	250 2149.66 -250
	250 2149.66 -150
	250 2149.66 -50
	250 2149.66 50
	250 2149.66 150
	250 2149.66 250
	250 2149.66 350
	350 2149.66 -350
	350 2149.66 -250
	350 2149.66 -150
	350 2149.66 -50
	350 2149.66 50
	350 2149.66 150
	350 2149.66 250
	350 2149.66 350
	-350 2249.66 -350
	-350 2249.66 -250
	-350 2249.66 -150
	-350 2249.66 -50
	-350 2249.66 50
	-350 2249.66 150
	-350 2249.66 250
	-350 2249.66 350
	-250 2249.66 -350
	-250 2249.66 -250
	-250 2249.66 -150
	-250 2249.66 -50
	-250 2249.66 50
	-250 2249.66 150
	-250 2249.66 250
	-250 2249.66 350
	-150 2249.66 -350
	-150 2249.66 -250
	-150 2249.66 -150
	-150 2249.66 -50
	-150 2249.66 50
	-150 2249.66 150
	-150 2249.66 250
	-150 2249.66 350
	-50 2249.66 -350
	-50 2249.66 -250
	-50 2249.66 -150
	-50 2249.66 -50
	-50 2249.66 50
	-50 2249.66 150
	-50 2249.66 250
	-50 2249.66 350
	50 2249.66 -350
	50 2249.66 -250
	50 2249.66 -150
	50 2249.66 -50
	50 2249.66 50
	50 2249.66 150
	50 2249.66 250
	50 2249.66 350
	150 2249.66 -350
	150 2249.66 -250
	150 2249.66 -150
	150 2249.66 -50
	150 2249.66 50
	150 2249.66 150
	150 2249.66 250
	150 2249.66 350
	250 2249.66 -350
	250 2249.66 -250
	250 2249.66 -150
	250 2249.66 -50
	250 2249.66 50
	250 2249.66 150
	250 2249.66 250
	250 2249.66 350
	350 2249.66 -350
	350 2249.66 -250
	350 2249.66 -150
	350 2249.66 -50
	350 2249.66 50
	350 2249.66 150
	350 2249.66 250
	350 2249.66 350
	-350 2349.66 -350
	-350 2349.66 -250
	-350 2349.66 -150
	-350 2349.66 -50
	-350 2349.66 50
	-350 2349.66 150
	-350 2349.66 250
	-350 2349.66 350
	-250 2349.66 -350
	-250 2349.66 -250
	-250 2349.66 -150
	-250 2349.66 -50
	-250 2349.66 50
	-250 2349.66 150
	-250 2349.66 250
	-250 2349.66 350
	-150 2349.66 -350
	-150 2349.66 -250
	-150 2349.66 -150
	-150 2349.66 -50
	-150 2349.66 50
	-150 2349.66 150
	-150 2349.66 250
	-150 2349.66 350
	-50 2349.66 -350
	-50 2349.66 -250
	-50 2349.66 -150
	-50 2349.66 -50
	-50 2349.66 50
	-50 2349.66 150
	-50 2349.66 250
	-50 2349.66 350
	50 2349.66 -350
	50 2349.66 -250
	50 2349.66 -150
	50 2349.66 -50
	50 2349.66 50
	50 2349.66 150
	50 2349.66 250
	50 2349.66 350
	150 2349.66 -350
	150 2349.66 -250
	150 2349.66 -150
	150 2349.66 -50
	150 2349.66 50
	150 2349.66 150
	150 2349.66 250
	150 2349.66 350
	250 2349.66 -350
	250 2349.66 -250
	250 2349.66 -150
	250 2349.66 -50
	250 2349.66 50
	250 2349.66 150
	250 2349.66 250
	250 2349.66 350
	350 2349.66 -350
	350 2349.66 -250
	350 2349.66 -150
	350 2349.66 -50
	350 2349.66 50
	350 2349.66 150
	350 2349.66 250
	350 2349.66 350
	-350 2449.66 -350
	-350 2449.66 -250
	-350 2449.66 -150
	-350 2449.66 -50
	-350 2449.66 50
	-350 2449.66 150
	-350 2449.66 250
	-350 2449.66 350
	-250 2449.66 -350
	-250 2449.66 -250
	-250 2449.66 -150
	-250 2449.66 -50
	-250 2449.66 50
	-250 2449.66 150
	-250 2449.66 250
	-250 2449.66 350
	-150 2449.66 -350
	-150 2449.66 -250
	-150 2449.66 -150
	-150 2449.66 -50
	-150 2449.66 50
	-150 2449.66 150
	-150 2449.66 250
	-150 2449.66 350
	-50 2449.66 -350
	-50 2449.66 -250
	-50 2449.66 -150
	-50 2449.66 -50
	-50 2449.66 50
	-50 2449.66 150
	-50 2449.66 250
	-50 2449.66 350
	50 2449.66 -350
	50 2449.66 -250
	50 2449.66 -150
	50 2449.66 -50
	50 2449.66 50
	50 2449.66 150
	50 2449.66 250
	50 2449.66 350
	150 2449.66 -350
	150 2449.66 -250
	150 2449.66 -150
	150 2449.66 -50
	150 2449.66 50
	150 2449.66 150
	150 2449.66 250
	150 2449.66 350
	250 2449.66 -350
	250 2449.66 -250
	250 2449.66 -150
	250 2449.66 -50
	250 2449.66 50
	250 2449.66 150
	250 2449.66 250
	250 2449.66 350
	350 2449.66 -350
	350 2449.66 -250
	350 2449.66 -150
	350 2449.66 -50
	350 2449.66 50
	350 2449.66 150
	350 2449.66 250
	350 2449.66 350
	-350 2549.66 -350
	-350 2549.66 -250
	-350 2549.66 -150
	-350 2549.66 -50
	-350 2549.66 50
	-350 2549.66 150
	-350 2549.66 250
	-350 2549.66 350
	-250 2549.66 -350
	-250 2549.66 -250
	-250 2549.66 -150
	-250 2549.66 -50
	-250 2549.66 50
	-250 2549.66 150
	-250 2549.66 250
	-250 2549.66 350
	-150 2549.66 -350
	-150 2549.66 -250
	-150 2549.66 -150
	-150 2549.66 -50
	-150 2549.66 50
	-150 2549.66 150
	-150 2549.66 250
	-150 2549.66 350
	-50 2549.66 -350
	-50 2549.66 -250
	-50 2549.66 -150
	-50 2549.66 -50
	-50 2549.66 50
	-50 2549.66 150
	-50 2549.66 250
	-50 2549.66 350
	50 2549.66 -350
	50 2549.66 -250
	50 2549.66 -150
	50 2549.66 -50
	50 2549.66 50
	50 2549.66 150
	50 2549.66 250
	50 2549.66 350
	150 2549.66 -350
	150 2549.66 -250
	150 2549.66 -150
	150 2549.66 -50
	150 2549.66 50
	150 2549.66 150
	150 2549.66 250
	150 2549.66 350
	250 2549.66 -350
	250 2549.66 -250
	250 2549.66 -150
	250 2549.66 -50
	250 2549.66 50
	250 2549.66 150
	250 2549.66 250
	250 2549.66 350
	350 2549.66 -350
	350 2549.66 -250
	350 2549.66 -150
	350 2549.66 -50
	350 2549.66 50
	350 2549.66 150
	350 2549.66 250
	350 2549.66 350
	-350 2649.66 -350
	-350 2649.66 -250
	-350 2649.66 -150
	-350 2649.66 -50
	-350 2649.66 50
	-350 2649.66 150
	-350 2649.66 250
	-350 2649.66 350
	-250 2649.66 -350
	-250 2649.66 -250
	-250 2649.66 -150
	-250 2649.66 -50
	-250 2649.66 50
	-250 2649.66 150
	-250 2649.66 250
	-250 2649.66 350
	-150 2649.66 -350
	-150 2649.66 -250
	-150 2649.66 -150
	-150 2649.66 -50
	-150 2649.66 50
	-150 2649.66 150
	-150 2649.66 250
	-150 2649.66 350
	-50 2649.66 -350
	-50 2649.66 -250
	-50 2649.66 -150
	-50 2649.66 -50
	-50 2649.66 50
	-50 2649.66 150
	-50 2649.66 250
	-50 2649.66 350
	50 2649.66 -350
	50 2649.66 -250
	50 2649.66 -150
	50 2649.66 -50
	50 2649.66 50
	50 2649.66 150
	50 2649.66 250
	50 2649.66 350
	150 2649.66 -350
	150 2649.66 -250
	150 2649.66 -150
	150 2649.66 -50
	150 2649.66 50
	150 2649.66 150
	150 2649.66 250
	150 2649.66 350
	250 2649.66 -350
	250 2649.66 -250
	250 2649.66 -150
	250 2649.66 -50
	250 2649.66 50
	250 2649.66 150
	250 2649.66 250
	250 2649.66 350
	350 2649.66 -350
	350 2649.66 -250
	350 2649.66 -150
	350 2649.66 -50
	350 2649.66 50
	350 2649.66 150
	350 2649.66 250
	350 2649.66 350
	-350 2749.66 -350
	-350 2749.66 -250
	-350 2749.66 -150
	-350 2749.66 -50
	-350 2749.66 50
	-350 2749.66 150
	-350 2749.66 250
	-350 2749.66 350
	-250 2749.66 -350
	-250 2749.66 -250
	-250 2749.66 -150
	-250 2749.66 -50
	-250 2749.66 50
	-250 2749.66 150
	-250 2749.66 250
	-250 2749.66 350
	-150 2749.66 -350
	-150 2749.66 -250
	-150 2749.66 -150
	-150 2749.66 -50
	-150 2749.66 50
	-150 2749.66 150
	-150 2749.66 250
	-150 2749.66 350
	-50 2749.66 -350
	-50 2749.66 -250
	-50 2749.66 -150
	-50 2749.66 -50
	-50 2749.66 50
	-50 2749.66 150
	-50 2749.66 250
	-50 2749.66 350
	50 2749.66 -350
	50 2749.66 -250
	50 2749.66 -150
	50 2749.66 -50
	50 2749.66 50
	50 2749.66 150
	50 2749.66 250
	50 2749.66 350
	150 2749.66 -350
	150 2749.66 -250
	150 2749.66 -150
	150 2749.66 -50
	150 2749.66 50
	150 2749.66 150
	150 2749.66 250
	150 2749.66 350
	250 2749.66 -350
	250 2749.66 -250
	250 2749.66 -150
	250 2749.66 -50
	250 2749.66 50
	250 2749.66 150
	250 2749.66 250
	250 2749.66 350
	350 2749.66 -350
	350 2749.66 -250
	350 2749.66 -150
	350 2749.66 -50
	350 2749.66 50
	350 2749.66 150
	350 2749.66 250
	350 2749.66 350
	-350 2849.66 -350
	-350 2849.66 -250
	-350 2849.66 -150
	-350 2849.66 -50
	-350 2849.66 50
	-350 2849.66 150
	-350 2849.66 250
	-350 2849.66 350
	-250 2849.66 -350
	-250 2849.66 -250
	-250 2849.66 -150
	-250 2849.66 -50
	-250 2849.66 50
	-250 2849.66 150
	-250 2849.66 250
	-250 2849.66 350
	-150 2849.66 -350
	-150 2849.66 -250
	-150 2849.66 -150
	-150 2849.66 -50
	-150 2849.66 50
	-150 2849.66 150
	-150 2849.66 250
	-150 2849.66 350
	-50 2849.66 -350
	-50 2849.66 -250
	-50 2849.66 -150
	-50 2849.66 -50
	-50 2849.66 50
	-50 2849.66 150
	-50 2849.66 250
	-50 2849.66 350
	50 2849.66 -350
	50 2849.66 -250
	50 2849.66 -150
	50 2849.66 -50
	50 2849.66 50
	50 2849.66 150
	50 2849.66 250
	50 2849.66 350
	150 2849.66 -350
	150 2849.66 -250
	150 2849.66 -150
[...]
<PointData  Vectors="vector">
  <DataArray type="Float32" Name="Velocity" NumberOfComponents="3" format="ascii">
 2.64363e-09 -0.000391261 2.21276e-09
 2.49768e-09 -0.000391308 1.8807e-09
 1.32059e-09 -0.000391356 5.77969e-11
 1.15583e-10 -0.000391404 6.78949e-12
 -3.25017e-10 -0.000391379 -7.04327e-10
 6.40086e-10 -0.000391347 -5.3925e-10
 1.16003e-10 -0.000391316 5.04835e-10
 -3.72035e-10 -0.000391284 -1.85181e-09
 2.70773e-09 -0.00039131 1.80477e-09
 1.26883e-09 -0.000391327 1.51105e-09
 1.79369e-09 -0.000391345 5.35979e-10
 1.57351e-09 -0.000391362 8.41453e-10
 1.01725e-09 -0.00039135 1.75312e-10
 1.49307e-09 -0.000391337 9.83059e-10
 1.64623e-09 -0.000391324 1.16112e-09
 2.28362e-09 -0.00039131 6.04276e-10
 7.63918e-10 -0.000391359 2.27424e-10
 1.87634e-09 -0.000391346 1.12046e-09
 2.2679e-09 -0.000391334 1.50112e-09
 2.42525e-09 -0.000391321 1.7256e-09
 2.21007e-09 -0.000391322 2.04498e-09
 2.79036e-09 -0.000391327 1.98747e-09
 3.69376e-09 -0.000391332 2.70364e-09
 4.76406e-09 -0.000391337 2.35583e-09
 5.91725e-10 -0.000391409 -2.97771e-10
 1.1807e-09 -0.000391365 3.81565e-10
 2.4094e-09 -0.000391322 1.48001e-09
 2.7949e-09 -0.000391279 2.71363e-09
 1.7405e-09 -0.000391293 2.95907e-09
 3.44848e-09 -0.000391316 2.7772e-09
 4.80248e-09 -0.00039134 4.36175e-09
 4.17993e-09 -0.000391363 5.3406e-09
 2.87614e-10 -0.000391373 -2.46192e-10
 1.41851e-09 -0.000391347 3.84177e-10
 2.02984e-09 -0.000391321 1.61758e-09
 2.7301e-09 -0.000391296 8.99309e-10
 2.13968e-09 -0.000391289 1.77596e-09
 2.57544e-09 -0.000391319 1.02963e-09
 3.76758e-09 -0.000391349 2.44932e-09
 5.41461e-09 -0.000391379 3.52398e-09
 3.73796e-10 -0.000391343 -5.70441e-10
 2.19054e-09 -0.000391335 1.45845e-09
 2.56366e-09 -0.000391325 2.35642e-09
 4.01144e-09 -0.000391316 3.15451e-09
 1.87571e-09 -0.000391321 2.26609e-09
 2.81e-09 -0.000391345 2.04566e-09
 4.51355e-09 -0.000391369 4.11795e-09
 5.88695e-09 -0.000391393 4.72974e-09
 8.33512e-10 -0.000391315 -1.20261e-09
 8.82563e-10 -0.000391322 2.6507e-09
 2.83043e-09 -0.000391329 2.84987e-09
 4.36034e-09 -0.000391337 2.86158e-09
 3.07325e-09 -0.000391352 3.4788e-09
 4.27405e-09 -0.00039137 3.66836e-09
 4.78718e-09 -0.000391388 5.82141e-09
 7.62275e-09 -0.000391406 7.55489e-09
 -9.30894e-10 -0.000391285 -2.12093e-09
 1.34583e-09 -0.000391309 2.09426e-09
 2.83546e-09 -0.000391333 4.40987e-09
 5.42981e-09 -0.000391357 4.38136e-09
 3.83993e-09 -0.000391384 4.34499e-09
 5.50419e-09 -0.000391396 5.22912e-09
 8.17324e-09 -0.000391408 6.86958e-09
 9.68443e-09 -0.00039142 1.05993e-08
 1.42352e-09 -0.000327246 1.97035e-09
 1.27147e-09 -0.0003271 1.63082e-09
 8.79483e-10 -0.000327185 4.91616e-11
 2.45917e-10 -0.000327073 -4.22494e-10
 -2.76361e-10 -0.000327156 5.18734e-10
 7.80315e-10 -0.000327135 7.67558e-11
 9.48585e-10 -0.000327164 -9.15694e-10
 1.81122e-10 -0.000327101 -1.43941e-09
 1.38837e-09 -0.000327094 1.51948e-09
 8.96169e-10 -0.000327182 4.50491e-10
 5.62711e-10 -0.000327166 6.25119e-10
 2.23781e-10 -0.000327135 3.78289e-10
 3.0556e-10 -0.000327209 4.41949e-10
 3.13766e-10 -0.000327151 2.07761e-10
 6.43433e-10 -0.000327074 -1.77316e-10
 7.84301e-10 -0.00032713 -2.94194e-10
 1.75264e-10 -0.000327182 3.51017e-10
 9.14969e-10 -0.000327161 6.24791e-10
 3.2138e-10 -0.000327182 7.22374e-10
 6.12381e-10 -0.000327132 3.50044e-10
 8.91181e-10 -0.000327186 7.66853e-10
 9.36497e-10 -0.000327178 5.75023e-10
 1.23633e-09 -0.000327166 6.09838e-10
 1.5513e-09 -0.000327123 8.35058e-10
 6.92418e-10 -0.000327069 -8.35337e-10
 9.56634e-11 -0.000327131 8.4959e-12
 6.93802e-10 -0.000327133 5.74711e-10
 7.54191e-10 -0.0003271 7.39888e-10
 5.6664e-10 -0.000327126 7.08233e-10
 9.32999e-10 -0.000327143 1.23686e-09
 8.41839e-10 -0.000327158 1.56059e-09
 1.93251e-09 -0.000327139 2.52499e-09
 -6.65873e-10 -0.000327141 1.13701e-11
 1.03795e-10 -0.000327194 3.94703e-10
 6.34577e-10 -0.000327175 5.57769e-10
 3.2056e-10 -0.000327118 6.26082e-10
 4.96802e-10 -0.000327102 6.34507e-10
 8.66399e-10 -0.00032716 4.27118e-10
 1.17367e-09 -0.000327168 8.52451e-10
 1.52704e-09 -0.000327126 1.3101e-09
 -1.60602e-10 -0.00032713 -2.33105e-10
 4.33783e-10 -0.000327148 4.31094e-10
 8.50035e-10 -0.000327171 9.85021e-10
 1.17478e-09 -0.000327137 6.18638e-10
 8.10612e-10 -0.000327161 1.0872e-09
 7.92744e-10 -0.000327103 1.02536e-09
 6.37465e-10 -0.000327179 9.06802e-10
 1.79996e-09 -0.000327219 1.75932e-09
 -3.93581e-10 -0.000327172 2.01535e-10
 -8.1517e-11 -0.000327078 8.94056e-10
 6.0002e-10 -0.000327154 1.15604e-09
 1.94949e-09 -0.000327151 1.34824e-09
 1.10507e-09 -0.00032717 8.18589e-10
 9.72345e-10 -0.000327177 8.13013e-10
 1.36399e-09 -0.000327247 1.48665e-09
 1.26185e-09 -0.000327181 1.6284e-09
 -6.03903e-10 -0.000327117 9.08122e-10
 3.8163e-11 -0.00032714 1.06604e-09
 9.4743e-10 -0.000327132 1.72265e-09
 2.02535e-09 -0.000327131 1.51675e-09
 1.45842e-09 -0.000327134 7.65651e-10
 1.6487e-09 -0.00032722 1.07359e-10
 2.28417e-09 -0.000327179 2.14424e-09
 1.97723e-09 -0.000327287 1.882e-09
 1.65188e-10 -0.000365888 1.13676e-09
 4.69985e-11 -0.000369328 9.12549e-10
 3.60269e-12 -0.000368374 5.7836e-10
 -1.08452e-09 -0.000370966 1.13611e-10
 -3.59555e-10 -0.000370258 6.85873e-11
 1.32496e-10 -0.00036991 5.50725e-11
 -4.58246e-10 -0.00036658 -5.38624e-10
 -2.64353e-10 -0.00036557 -9.48592e-10
 3.95351e-10 -0.000369399 5.41416e-10
 -2.36669e-11 -0.000367483 6.91483e-10
 -1.75332e-10 -0.000368288 -2.09513e-10
 -4.04397e-10 -0.000368471 1.50609e-10
 -2.33308e-10 -0.000368889 3.67494e-11
 -2.99527e-10 -0.000370095 -6.62121e-10
 -4.2776e-10 -0.000369885 -3.99133e-10
 -6.6331e-11 -0.000366951 -1.07082e-09
 -2.95536e-10 -0.000368468 1.28468e-10
 -7.06804e-10 -0.000368471 -2.80785e-11
 -6.38912e-10 -0.000367595 -3.79152e-10
 -8.58076e-10 -0.000367627 -5.88996e-10
 -4.41592e-10 -0.000367829 -5.55832e-10
 -8.05493e-10 -0.000367993 -4.58108e-10
 -9.26559e-10 -0.000368318 -5.11314e-10
 -1.94525e-09 -0.000368343 -8.27601e-10
 -3.47858e-10 -0.000371047 -7.31679e-10
 -5.29398e-10 -0.000368572 -4.49392e-10
 -9.86613e-10 -0.000367617 -7.75744e-10
 -1.21304e-09 -0.000365546 -7.64613e-10
 -1.25128e-10 -0.000367295 -9.31353e-10
 -1.16663e-09 -0.000367499 -1.04632e-09
 -1.3261e-09 -0.000368602 -5.32528e-10
 -1.76669e-09 -0.000369155 -2.88177e-10
 2.95641e-11 -0.000370045 1.31433e-11
 -7.32645e-10 -0.000368832 -2.95547e-10
 -9.77828e-10 -0.000367734 -6.03271e-10
 -1.16559e-09 -0.000367298 -3.59017e-10
 -7.15594e-10 -0.000369247 8.51547e-11
 -1.25666e-09 -0.000368271 -5.52171e-11
 -1.24158e-09 -0.000368594 -6.1404e-11
 -2.39925e-09 -0.000369728 5.20614e-11
 -9.4098e-10 -0.000369936 2.96822e-10
 -5.96894e-10 -0.000370016 -1.18033e-10
 -1.20652e-09 -0.000367978 2.06071e-11
 -8.22795e-10 -0.000367389 -9.99619e-10
 -4.84166e-10 -0.000368295 -5.78194e-10
 -1.16346e-09 -0.000370161 -1.16167e-09
 -1.33344e-09 -0.000368861 -1.0777e-09
 -2.3031e-09 -0.000370628 -1.64003e-09
 -1.18402e-09 -0.000366864 2.79415e-10
 -8.69138e-10 -0.000369987 1.76111e-10
 -9.99074e-10 -0.000368508 -1.33745e-09
 -9.13576e-10 -0.000368553 -1.29858e-09
 -5.47488e-10 -0.000368739 -1.66211e-09
 -1.48494e-09 -0.000369048 -1.43335e-09
 -3.02727e-09 -0.000370254 -1.1808e-09
 -2.65418e-09 -0.000351395 -2.83472e-09
 -9.05847e-10 -0.000366103 7.30051e-10
 -1.11465e-09 -0.000367178 -6.88263e-10
 -9.87806e-10 -0.000368298 -7.94572e-10
 -9.48743e-10 -0.000369103 -1.64824e-09
 -1.05155e-09 -0.000369887 -2.61356e-09
 -1.57306e-09 -0.000370758 -1.21139e-09
 -2.53504e-09 -0.000351553 -3.4798e-09
 -3.53575e-09 -0.000374205 -3.61948e-09
 -1.11278e-09 -0.000629731 4.22016e-10
 -8.54978e-10 -0.000625544 2.06322e-10
 -7.54892e-10 -0.000626778 -2.9152e-10
 -1.01662e-09 -0.000623589 1.84839e-10
 -1.22749e-10 -0.000624666 1.1039e-10
 -2.52805e-10 -0.000624938 4.48923e-10
 -5.88971e-10 -0.00062881 4.1054e-11
 -9.44771e-10 -0.000629838 1.73369e-10
 -1.25307e-09 -0.000625461 -3.9827e-12
 -9.79227e-10 -0.00062785 -3.66842e-10
 -1.1852e-09 -0.000626853 1.69739e-11
 -1.70879e-09 -0.000626526 -9.62189e-10
 -1.61043e-09 -0.000626208 -1.14565e-10
 -2.82026e-09 -0.00062463 -1.01427e-09
 -3.42107e-09 -0.000624816 -1.02986e-09
 -3.43731e-09 -0.000628327 -1.17898e-09
 -7.22958e-10 -0.000626673 -4.95893e-10
 -1.35406e-09 -0.000626643 -4.58904e-10
 -2.65791e-09 -0.000627577 -1.50384e-09
 -2.38135e-09 -0.000627415 -8.34347e-10
 -2.0516e-09 -0.000627315 -1.66861e-09
 -2.2388e-09 -0.000627165 -1.27723e-09
 -3.34715e-09 -0.000626756 -2.01348e-09
 -3.30169e-09 -0.000626794 -2.35023e-09
 -9.72738e-10 -0.000623498 -7.68236e-10
 -1.96859e-09 -0.000626413 -1.69056e-09
 -1.95466e-09 -0.000627436 -1.81292e-09
 -2.66373e-09 -0.000629851 -1.93526e-09
 -2.05858e-09 -0.000627727 -1.6096e-09
 -2.60063e-09 -0.000627657 -2.61851e-09
 -2.56886e-09 -0.000626438 -2.94871e-09
 -4.90798e-09 -0.000625957 -3.16791e-09
 -6.95555e-10 -0.000624926 -4.59547e-10
 -1.90149e-09 -0.000626277 3.99114e-10
 -1.93001e-09 -0.000627435 -1.14547e-09
 -2.36538e-09 -0.000627719 -1.23687e-09
 -1.51092e-09 -0.000625587 -1.06064e-09
 -2.79744e-09 -0.000626923 -1.35514e-09
 -3.46302e-09 -0.000626789 -8.54e-10
 -4.86238e-09 -0.000625586 -1.04479e-09
 -7.76499e-10 -0.000624922 -4.92856e-10
 -1.28771e-09 -0.00062474 -6.15398e-10
 -2.21454e-09 -0.000627193 -2.17431e-09
 -3.29074e-09 -0.000627795 -1.6588e-09
 -1.64882e-09 -0.000626894 -2.65167e-09
 -2.35275e-09 -0.000624937 -2.66719e-09
 -5.1519e-09 -0.000626838 -2.76136e-09
 -5.92925e-09 -0.000625048 -3.08494e-09
 -9.91282e-10 -0.000628483 -1.44058e-10
 -1.77067e-09 -0.000624713 -1.85279e-09
 -2.93276e-09 -0.000626531 -2.29272e-09
 -3.37308e-09 -0.000626511 -3.52677e-09
 -1.36841e-09 -0.000626631 -4.40121e-09
 -4.33276e-09 -0.000626623 -3.39489e-09
 -4.72035e-09 -0.000625672 -3.7643e-09
 -6.64599e-09 -0.000639957 -6.07879e-09
 -1.08624e-09 -0.000629208 -5.01249e-10
 -1.92351e-09 -0.000628071 -1.57081e-09
 -2.83922e-09 -0.000626871 -5.66204e-09
 -4.09878e-09 -0.000626041 -2.9801e-09
 -2.12503e-09 -0.000625422 -3.97287e-09
 -3.84147e-09 -0.000624907 -5.06738e-09
 -6.71586e-09 -0.00063978 -6.93394e-09
 -8.68808e-09 -0.000621825 -8.11631e-09
 -6.29251e-10 -4.38029e-05 9.95813e-10
 -5.96345e-10 -4.40244e-05 6.83287e-10
 -7.72449e-11 -4.38954e-05 1.20575e-09
 -4.5427e-10 -4.40504e-05 -3.06671e-10
 -9.82785e-10 -4.38732e-05 1.00953e-09
 -8.52009e-10 -4.40011e-05 -4.88701e-10
 -5.81644e-10 -4.3781e-05 -4.69603e-10
 -7.28373e-10 -4.37635e-05 2.94319e-10
 -2.80696e-11 -4.40367e-05 9.22949e-11
 -3.54223e-10 -4.37838e-05 8.19537e-10
 -3.36392e-10 -4.39133e-05 -3.53102e-10
 -1.0464e-09 -4.39399e-05 -2.76728e-10
 -1.27883e-09 -4.39161e-05 -9.56238e-10
 -2.27808e-09 -4.41454e-05 -1.65658e-10
 -2.14655e-09 -4.40038e-05 -1.20661e-09
 -1.82485e-09 -4.38632e-05 -7.58697e-10
 4.0676e-10 -4.39164e-05 5.31427e-11
 -6.12087e-10 -4.39278e-05 1.8215e-10
 -1.73535e-09 -4.40385e-05 -1.47525e-09
 -1.66962e-09 -4.40495e-05 -1.19383e-09
 -1.64918e-09 -4.39351e-05 -1.03057e-09
 -1.83898e-09 -4.3899e-05 -8.51412e-10
 -3.33882e-09 -4.39854e-05 -1.98177e-09
 -5.07509e-09 -4.38685e-05 -2.23685e-09
 -5.67647e-10 -4.40763e-05 -2.44748e-12
 -8.86454e-10 -4.3946e-05 -1.09887e-09
 -9.48773e-10 -4.40527e-05 -1.51424e-09
 -2.16223e-09 -4.38494e-05 -1.52228e-09
 -8.67124e-10 -4.40916e-05 -2.26899e-09
 -2.00809e-09 -4.38934e-05 -2.38797e-09
 -2.56921e-09 -4.40086e-05 -2.30814e-09
 -3.02334e-09 -4.37865e-05 -3.16029e-09
 -3.10519e-10 -4.38401e-05 -5.6687e-10
 -1.01085e-09 -4.38995e-05 -8.13765e-10
 -1.40039e-09 -4.39185e-05 -9.99792e-10
 -2.42432e-09 -4.40809e-05 -1.30877e-09
 -1.41514e-09 -4.39672e-05 -9.27528e-10
 -2.68947e-09 -4.39464e-05 -1.05429e-09
 -3.74148e-09 -4.37673e-05 -1.50795e-09
 -4.39111e-09 -4.3812e-05 -1.20081e-09
 -6.38267e-10 -4.3996e-05 -8.87037e-10
 -7.44972e-10 -4.41326e-05 -1.10775e-09
 -2.00268e-09 -4.3889e-05 -1.5346e-09
 -2.49702e-09 -4.38761e-05 -1.98101e-09
 -1.90947e-09 -4.39482e-05 -2.63761e-09
 -2.01378e-09 -4.38786e-05 -2.68807e-09
 -2.59383e-09 -4.36451e-05 -1.67767e-09
 -4.13599e-09 -4.36862e-05 -3.75151e-09
 -5.48384e-10 -4.38132e-05 -4.46056e-10
 -1.28746e-09 -4.40137e-05 -2.18923e-09
 -2.22975e-09 -4.3997e-05 -2.36209e-09
 -2.36009e-09 -4.39992e-05 -3.1204e-09
 -1.27617e-09 -4.37718e-05 -3.56768e-09
 -2.38721e-09 -4.3655e-05 -2.26319e-09
 -4.81329e-09 -4.3566e-05 -4.64169e-09
 -6.27989e-09 -4.69991e-05 -5.56095e-09
 9.67764e-11 -4.38392e-05 -5.96671e-10
 -1.31019e-09 -4.3901e-05 -2.20288e-09
 -2.65602e-09 -4.3872e-05 -4.64352e-09
 -3.3563e-09 -4.37702e-05 -4.09794e-09
 -1.52647e-09 -4.38167e-05 -3.85928e-09
 -4.19139e-09 -4.36865e-05 -2.96399e-09
 -5.82847e-09 -4.70056e-05 -7.58291e-09
 -7.50855e-09 -4.36173e-05 -6.08944e-09
 -1.49104e-09 -0.00208548 -8.92021e-10
 -8.36325e-10 -0.00208449 -4.646e-10
 -1.60431e-10 -0.00208483 3.57631e-10
 -4.10824e-11 -0.00208421 -3.02413e-10
 -9.70191e-11 -0.00208461 -5.68707e-11
 -1.13607e-10 -0.00208447 -4.48789e-10
 -4.56179e-10 -0.00208542 -2.1517e-10
 -2.53613e-10 -0.00208555 2.83649e-10
 -8.82338e-10 -0.00208447 -1.4026e-10
 -8.46108e-10 -0.00208533 -4.0106e-10
 -5.53801e-10 -0.00208482 -3.30319e-10
 -3.28763e-10 -0.00208489 -2.27487e-10
 -7.54469e-10 -0.00208472 -4.66996e-10
 -9.49198e-10 -0.00208417 -8.40887e-10
 -3.4916e-10 -0.00208441 -5.53944e-10
 -1.26007e-09 -0.00208526 -3.96583e-10
 -5.65814e-10 -0.00208481 -3.25354e-10
 -8.58097e-10 -0.00208479 -3.6891e-10
 -7.00067e-10 -0.0020848 -6.25398e-10
 -6.67943e-10 -0.00208488 -6.3878e-10
 -7.729e-10 -0.00208479 -4.10494e-10
 -9.54142e-10 -0.00208499 -4.11602e-10
 -1.50122e-09 -0.00208482 -1.0611e-09
 -1.09808e-09 -0.00208507 -1.13478e-09
 -8.47783e-10 -0.00208421 -6.23842e-11
 -5.94955e-10 -0.00208473 2.73134e-10
 -1.45571e-09 -0.00208489 -1.08954e-09
 -1.03866e-09 -0.00208544 -6.22293e-10
 -9.47176e-10 -0.00208487 -1.23569e-09
 -1.02106e-09 -0.00208505 -9.67977e-10
 -1.26214e-09 -0.00208463 -1.27694e-09
 -1.79844e-09 -0.00208507 -1.61357e-09
 -6.84993e-10 -0.00208468 -3.07991e-10
 -8.57901e-10 -0.00208474 -3.40827e-10
 -8.39934e-10 -0.00208498 -4.56395e-10
 -1.2627e-09 -0.00208487 -5.35855e-10
 -6.20584e-10 -0.00208473 -5.90892e-10
 -1.12059e-09 -0.0020849 -5.3099e-10
 -1.80348e-09 -0.0020851 -3.16262e-10
 -1.71625e-09 -0.00208482 -6.25346e-10
 -9.09416e-10 -0.00208447 -2.72797e-10
 -1.13919e-09 -0.0020842 -2.97384e-10
 -1.25506e-09 -0.002085 -1.15844e-09
 -8.76018e-10 -0.00208509 -7.16343e-10
 -7.30512e-10 -0.0020849 -9.37117e-10
 -1.33299e-09 -0.00208451 -1.11291e-09
 -1.51955e-09 -0.00208515 -5.21857e-10
 -1.71778e-09 -0.00208458 -1.47082e-09
 -5.20019e-10 -0.00208532 4.11573e-11
 -7.83273e-10 -0.00208438 -3.9298e-10
 -1.28381e-09 -0.00208462 -1.47543e-09
 -1.64059e-09 -0.00208467 -1.10802e-09
 -6.37505e-10 -0.00208507 -1.36716e-09
 -1.01652e-09 -0.00208511 -8.27221e-10
 -2.06714e-09 -0.00208496 -1.89654e-09
 -2.79482e-09 -0.00208079 -2.24404e-09
 -2.0178e-11 -0.00208535 -1.13773e-10
 -6.61797e-10 -0.00208518 -4.55377e-10
 -9.84937e-10 -0.00208508 -1.18634e-09
 -2.03412e-09 -0.00208513 -1.90531e-09
 -1.16034e-09 -0.00208479 -2.21586e-09
 -1.90152e-09 -0.00208456 -1.5582e-09
 -2.13947e-09 -0.00208076 -1.80357e-09
 -3.14842e-09 -0.00208391 -2.81504e-09
 -2.3075e-09 0.000725104 -1.97696e-09
 -1.63029e-09 0.000726312 -1.46764e-09
 -4.59414e-10 0.000726575 -7.3083e-10
 -9.70362e-11 0.000726018 -1.01171e-09
 -6.37629e-11 0.000726201 -7.46264e-10
 -1.67771e-10 0.000726037 -9.31925e-10
 2.09033e-10 0.00072517 3.44962e-10
 1.4207e-10 0.000725596 9.73023e-10
 -2.11551e-09 0.000726295 -1.17009e-09
 -1.04122e-09 0.00072478 -8.77778e-10
 -7.57093e-10 0.000726484 -3.36632e-10
 1.84924e-11 0.000724457 -6.53425e-10
 -2.04809e-10 0.000726221 -7.13422e-10
 -1.37636e-10 0.000725832 -5.96782e-10
 8.61343e-11 0.000726403 1.33151e-10
 2.66066e-11 0.00072496 4.05849e-10
 -1.32347e-09 0.000726539 -1.05585e-09
 -9.12002e-10 0.000726443 -2.92992e-10
 -6.47951e-10 0.000726478 -2.89965e-10
 -1.65118e-10 0.000724578 -2.30566e-10
 -1.44556e-10 0.000726535 -1.11955e-10
 -2.41638e-10 0.000724656 -3.01207e-10
 8.12481e-11 0.000724546 -4.11752e-11
 4.5217e-11 0.000724732 2.5303e-10
 -9.94696e-10 0.00072598 -2.6643e-10
 -1.07133e-09 0.000726505 3.62154e-10
 -5.60606e-10 0.000724573 3.66387e-11
 1.80898e-10 0.000725376 -6.98004e-11
 -2.9125e-10 0.000724498 -1.24642e-10
 -1.43329e-10 0.000724814 -2.42139e-10
 3.6814e-11 0.000726406 9.75386e-12
 2.89325e-10 0.000724775 -3.81845e-11
 -1.23813e-09 0.000726313 -3.96258e-10
 -9.5861e-10 0.000726283 -3.91487e-10
 -4.69403e-10 0.000724545 -6.57772e-11
 -2.75547e-11 0.000724541 1.43927e-10
 -2.70914e-10 0.000724437 -6.56383e-11
 -3.32712e-11 0.000724488 3.65397e-10
 3.60793e-11 0.000724753 3.13296e-10
 2.35644e-10 0.000724594 2.1088e-10
 -1.01287e-09 0.000726026 -1.50815e-10
 -9.10624e-10 0.000725856 2.1554e-11
 -4.59859e-10 0.000724677 6.92781e-11
 -2.93368e-10 0.000724876 -3.2972e-11
 -2.43206e-10 0.000724468 5.19151e-12
 -1.57254e-10 0.0007264 2.89967e-10
 1.40953e-11 0.000724887 8.56896e-10
 2.70731e-10 0.000726547 4.40191e-10
 -3.53467e-10 0.000724979 2.34171e-10
 1.01933e-11 0.000726333 2.92975e-10
 -2.95331e-10 0.000726552 3.16635e-10
 -3.51209e-10 0.000726446 2.53128e-10
 -7.49888e-12 0.000724692 2.40907e-10
 2.13589e-10 0.000724828 5.27324e-10
 1.08177e-10 0.000724697 5.41403e-10
 5.85156e-10 0.000719518 4.77698e-10
 3.99997e-10 0.000725264 6.0831e-10
 1.20182e-10 0.0007248 5.51126e-10
 -1.91795e-10 0.000724701 1.36851e-10
 -5.54618e-10 0.000724823 4.2762e-10
 -2.58977e-10 0.000724505 7.65164e-10
 3.03897e-10 0.000726506 7.81425e-10
 1.86608e-10 0.000719469 5.01893e-10
 2.85128e-10 0.000725752 4.96843e-10
 -3.58783e-09 -0.00042661 -3.68447e-09
 -2.16438e-09 -0.00042823 -2.73173e-09
 -1.37654e-09 -0.00042845 -1.78982e-09
 3.13793e-10 -0.000428745 -8.21683e-10
 -2.78967e-11 -0.00042879 -9.71404e-10
 -2.84406e-10 -0.000428319 -6.67481e-10
 -1.96849e-10 -0.000427195 4.82031e-10
 -3.36864e-10 -0.000427464 1.46776e-09
 -2.9593e-09 -0.000428225 -2.18125e-09
 -1.91334e-09 -0.000427174 -1.54851e-09
 -8.52483e-10 -0.000428589 -5.74178e-10
 5.30629e-10 -0.000427103 -6.6412e-10
 -1.28554e-10 -0.000428459 -7.31525e-10
 5.9537e-11 -0.000427672 -4.5164e-10
 4.28581e-11 -0.00042858 7.37228e-10
 2.76069e-10 -0.000427064 1.22917e-09
 -2.14146e-09 -0.000428413 -1.48571e-09
 -8.98843e-10 -0.000428578 -4.19384e-10
 -1.0562e-11 -0.000427958 -5.4289e-11
 5.98051e-10 -0.00042655 -2.88256e-11
 4.38959e-10 -0.000428412 1.12269e-10
 5.80118e-10 -0.000426833 1.30116e-10
 6.46326e-10 -0.000426565 7.71274e-10
 1.09722e-09 -0.000427054 1.32133e-09
 -1.27557e-09 -0.000428718 -1.19412e-10
 -6.88243e-10 -0.000428758 5.92412e-10
 3.33736e-11 -0.000426553 4.9106e-10
 7.63699e-10 -0.000427109 6.51325e-10
 3.79437e-10 -0.000426654 3.91192e-10
 6.30371e-10 -0.00042714 5.21021e-10
 1.2176e-09 -0.000428278 9.50423e-10
 1.80752e-09 -0.000427201 1.40062e-09
 -1.53623e-09 -0.000428845 -2.21903e-10
 -1.08319e-09 -0.000428486 -6.3009e-11
 -1.30144e-10 -0.000426796 1.97034e-10
 3.35782e-10 -0.000426688 2.62828e-10
 -9.58094e-11 -0.000427014 1.27296e-10
 6.39237e-10 -0.000426932 5.61197e-10
 1.43225e-09 -0.000427301 1.14269e-09
 1.81357e-09 -0.000427189 1.28554e-09
 -7.33475e-10 -0.000428305 -3.43997e-10
 -1.51825e-10 -0.000427675 2.86365e-10
 3.43368e-10 -0.000426843 8.48125e-10
 2.81771e-10 -0.00042718 8.58769e-10
 2.96046e-10 -0.000426927 8.86036e-10
 1.16172e-09 -0.000428787 1.55531e-09
 1.70726e-09 -0.000427595 1.93481e-09
 2.71275e-09 -0.000428528 2.11924e-09
 -1.22846e-10 -0.000427171 -9.0643e-11
 6.86113e-11 -0.000428514 6.31192e-10
 2.38803e-10 -0.000428173 1.30277e-09
 5.59649e-10 -0.000428291 1.74238e-09
 6.55462e-10 -0.000427272 1.37511e-09
 1.5037e-09 -0.000427558 1.99748e-09
 2.64471e-09 -0.000427152 2.60752e-09
 3.32482e-09 -0.00042154 3.43168e-09
 8.94128e-10 -0.00042733 5.67802e-10
 5.90578e-10 -0.000426937 9.45537e-10
 7.35048e-10 -0.000427021 1.91929e-09
 8.19106e-10 -0.000427224 2.08284e-09
 5.211e-10 -0.000427135 2.00168e-09
 2.04093e-09 -0.000428517 2.71998e-09
 3.12929e-09 -0.000421504 3.5399e-09
 4.22079e-09 -0.000427808 4.07356e-09
 -3.44219e-09 -0.00128887 -3.10084e-09
 -2.11518e-09 -0.00128955 -1.49261e-09
 -9.79833e-10 -0.00128952 -1.40428e-09