<?xml version="1.0"?>
<VTKFile type="UnstructuredGrid" version="0.1" byte_order="LittleEndian" compressor="vtkZLibDataCompressor">
<UnstructuredGrid>
<Piece NumberOfPoints="960" NumberOfCells="120">
<Points>
<DataArray type="Float32" NumberOfComponents="3" format="ascii">
-4.000000e+02 -6.000000e+03 -4.000000e+02
0.000000e+00 -6.000000e+03 -4.000000e+02
-4.000000e+02 -5.600000e+03 -4.000000e+02
-2.292960e-10 -5.600000e+03 -4.000000e+02
-4.000000e+02 -6.000000e+03 0.000000e+00
0.000000e+00 -6.000000e+03 0.000000e+00
-4.000000e+02 -5.600000e+03 1.402640e-10
6.666290e-11 -5.600000e+03 -1.978890e-11
0.000000e+00 -6.000000e+03 -4.000000e+02
4.000000e+02 -6.000000e+03 -4.000000e+02
-2.292960e-10 -5.600000e+03 -4.000000e+02
4.000000e+02 -5.600000e+03 -4.000000e+02
0.000000e+00 -6.000000e+03 0.000000e+00
4.000000e+02 -6.000000e+03 0.000000e+00
6.666290e-11 -5.600000e+03 -1.978890e-11
4.000000e+02 -5.600000e+03 -5.012880e-10
-4.000000e+02 -5.600000e+03 -4.000000e+02
-2.292960e-10 -5.600000e+03 -4.000000e+02
-4.000000e+02 -5.200000e+03 -4.000000e+02
-5.218130e-10 -5.200000e+03 -4.000000e+02
-4.000000e+02 -5.600000e+03 1.402640e-10
6.666290e-11 -5.600000e+03 -1.978890e-11
-4.000000e+02 -5.200000e+03 4.530290e-10
2.137490e-11 -5.200000e+03 -3.319990e-10
-2.292960e-10 -5.600000e+03 -4.000000e+02
4.000000e+02 -5.600000e+03 -4.000000e+02
-5.218130e-10 -5.200000e+03 -4.000000e+02
4.000000e+02 -5.200000e+03 -4.000000e+02
6.666290e-11 -5.600000e+03 -1.978890e-11
4.000000e+02 -5.600000e+03 -5.012880e-10
2.137490e-11 -5.200000e+03 -3.319990e-10
4.000000e+02 -5.200000e+03 -8.966310e-10
-4.000000e+02 -5.200000e+03 -4.000000e+02
-5.218130e-10 -5.200000e+03 -4.000000e+02
-4.000000e+02 -4.800000e+03 -4.000000e+02
-8.948050e-10 -4.800000e+03 -4.000000e+02
-4.000000e+02 -5.200000e+03 4.530290e-10
2.137490e-11 -5.200000e+03 -3.319990e-10
-4.000000e+02 -4.800000e+03 1.674110e-10
-1.877610e-10 -4.800000e+03 5.757340e-10
-5.218130e-10 -5.200000e+03 -4.000000e+02
4.000000e+02 -5.200000e+03 -4.000000e+02
-8.948050e-10 -4.800000e+03 -4.000000e+02
4.000000e+02 -4.800000e+03 -4.000000e+02
2.137490e-11 -5.200000e+03 -3.319990e-10
4.000000e+02 -5.200000e+03 -8.966310e-10
-1.877610e-10 -4.800000e+03 5.757340e-10
4.000000e+02 -4.800000e+03 5.639610e-10
-4.000000e+02 -4.800000e+03 -4.000000e+02
-8.948050e-10 -4.800000e+03 -4.000000e+02
-4.000000e+02 -4.400000e+03 -4.000000e+02
1.204010e-10 -4.400000e+03 -4.000000e+02
-4.000000e+02 -4.800000e+03 1.674110e-10
-1.877610e-10 -4.800000e+03 5.757340e-10
-4.000000e+02 -4.400000e+03 5.994850e-10
-1.181200e-09 -4.400000e+03 -2.277830e-11
-8.948050e-10 -4.800000e+03 -4.000000e+02
4.000000e+02 -4.800000e+03 -4.000000e+02
1.204010e-10 -4.400000e+03 -4.000000e+02
4.000000e+02 -4.400000e+03 -4.000000e+02
-1.877610e-10 -4.800000e+03 5.757340e-10
4.000000e+02 -4.800000e+03 5.639610e-10
-1.181200e-09 -4.400000e+03 -2.277830e-11
4.000000e+02 -4.400000e+03 1.733310e-09
-4.000000e+02 -4.400000e+03 -4.000000e+02
1.204010e-10 -4.400000e+03 -4.000000e+02
-4.000000e+02 -4.000000e+03 -4.000000e+02
-1.305510e-09 -4.000000e+03 -4.000000e+02
-4.000000e+02 -4.400000e+03 5.994850e-10
-1.181200e-09 -4.400000e+03 -2.277830e-11
-4.000000e+02 -4.000000e+03 3.630040e-10
-1.850330e-09 -4.000000e+03 -3.659550e-10
1.204010e-10 -4.400000e+03 -4.000000e+02
4.000000e+02 -4.400000e+03 -4.000000e+02
-1.305510e-09 -4.000000e+03 -4.000000e+02
4.000000e+02 -4.000000e+03 -4.000000e+02
-1.181200e-09 -4.400000e+03 -2.277830e-11
4.000000e+02 -4.400000e+03 1.733310e-09
-1.850330e-09 -4.000000e+03 -3.659550e-10
4.000000e+02 -4.000000e+03 -1.500510e-10
-4.000000e+02 -4.000000e+03 -4.000000e+02
-1.305510e-09 -4.000000e+03 -4.000000e+02
-4.000000e+02 -3.600000e+03 -4.000000e+02
-1.813480e-09 -3.600000e+03 -4.000000e+02
-4.000000e+02 -4.000000e+03 3.630040e-10
-1.850330e-09 -4.000000e+03 -3.659550e-10
-4.000000e+02 -3.600000e+03 -1.639960e-09
-1.663160e-09 -3.600000e+03 -6.165180e-10
-1.305510e-09 -4.000000e+03 -4.000000e+02
4.000000e+02 -4.000000e+03 -4.000000e+02
-1.813480e-09 -3.600000e+03 -4.000000e+02
4.000000e+02 -3.600000e+03 -4.000000e+02
-1.850330e-09 -4.000000e+03 -3.659550e-10
4.000000e+02 -4.000000e+03 -1.500510e-10
-1.663160e-09 -3.600000e+03 -6.165180e-10
4.000000e+02 -3.600000e+03 -1.329000e-09
-4.000000e+02 -3.600000e+03 -4.000000e+02
-1.813480e-09 -3.600000e+03 -4.000000e+02
-4.000000e+02 -3.200000e+03 -4.000000e+02
-1.683760e-09 -3.200000e+03 -4.000000e+02
-4.000000e+02 -3.600000e+03 -1.639960e-09
-1.663160e-09 -3.600000e+03 -6.165180e-10
-4.000000e+02 -3.200000e+03 -1.334870e-09
-2.866140e-09 -3.200000e+03 -1.714950e-09
-1.813480e-09 -3.600000e+03 -4.000000e+02
4.000000e+02 -3.600000e+03 -4.000000e+02
-1.683760e-09 -3.200000e+03 -4.000000e+02
4.000000e+02 -3.200000e+03 -4.000000e+02
-1.663160e-09 -3.600000e+03 -6.165180e-10
4.000000e+02 -3.600000e+03 -1.329000e-09
-2.866140e-09 -3.200000e+03 -1.714950e-09
4.000000e+02 -3.200000e+03 -1.314660e-09
-4.000000e+02 -3.200000e+03 -4.000000e+02
-1.683760e-09 -3.200000e+03 -4.000000e+02
-4.000000e+02 -2.800000e+03 -4.000000e+02
-4.299620e-09 -2.800000e+03 -4.000000e+02
-4.000000e+02 -3.200000e+03 -1.334870e-09
-2.866140e-09 -3.200000e+03 -1.714950e-09
-4.000000e+02 -2.800000e+03 -2.991320e-09
-3.884680e-09 -2.800000e+03 -2.567870e-09
-1.683760e-09 -3.200000e+03 -4.000000e+02
4.000000e+02 -3.200000e+03 -4.000000e+02
-4.299620e-09 -2.800000e+03 -4.000000e+02
4.000000e+02 -2.800000e+03 -4.000000e+02
-2.866140e-09 -3.200000e+03 -1.714950e-09
4.000000e+02 -3.200000e+03 -1.314660e-09
-3.884680e-09 -2.800000e+03 -2.567870e-09
4.000000e+02 -2.800000e+03 -1.792030e-09
-4.000000e+02 -2.800000e+03 -4.000000e+02
-4.299620e-09 -2.800000e+03 -4.000000e+02
-4.000000e+02 -2.400000e+03 -4.000000e+02
-4.735040e-09 -2.400000e+03 -4.000000e+02
-4.000000e+02 -2.800000e+03 -2.991320e-09
-3.884680e-09 -2.800000e+03 -2.567870e-09
-4.000000e+02 -2.400000e+03 -4.016070e-09
-2.915950e-09 -2.400000e+03 -2.821650e-09
-4.299620e-09 -2.800000e+03 -4.000000e+02
4.000000e+02 -2.800000e+03 -4.000000e+02
-4.735040e-09 -2.400000e+03 -4.000000e+02
4.000000e+02 -2.400000e+03 -4.000000e+02
-3.884680e-09 -2.800000e+03 -2.567870e-09
4.000000e+02 -2.800000e+03 -1.792030e-09
-2.915950e-09 -2.400000e+03 -2.821650e-09
4.000000e+02 -2.400000e+03 -2.029710e-09
-4.000000e+02 -2.400000e+03 -4.000000e+02
-4.735040e-09 -2.400000e+03 -4.000000e+02
-4.000000e+02 -2.000010e+03 -4.000000e+02
-1.718310e-09 -2.000010e+03 -4.000000e+02
-4.000000e+02 -2.400000e+03 -4.016070e-09
-2.915950e-09 -2.400000e+03 -2.821650e-09
-4.000000e+02 -2.000010e+03 -2.065630e-09
-2.439720e-09 -2.000010e+03 -1.850960e-09
-4.735040e-09 -2.400000e+03 -4.000000e+02
4.000000e+02 -2.400000e+03 -4.000000e+02
-1.718310e-09 -2.000010e+03 -4.000000e+02
4.000000e+02 -2.000010e+03 -4.000000e+02
-2.915950e-09 -2.400000e+03 -2.821650e-09
4.000000e+02 -2.400000e+03 -2.029710e-09
-2.439720e-09 -2.000010e+03 -1.850960e-09
4.000000e+02 -2.000010e+03 -1.912840e-09
-4.000000e+02 -2.000010e+03 -4.000000e+02
-1.718310e-09 -2.000010e+03 -4.000000e+02
-4.000000e+02 -1.600010e+03 -4.000000e+02
1.082990e-10 -1.600010e+03 -4.000000e+02
-4.000000e+02 -2.000010e+03 -2.065630e-09
-2.439720e-09 -2.000010e+03 -1.850960e-09
-4.000000e+02 -1.600010e+03 -2.558700e-09
-4.076880e-10 -1.600010e+03 -2.072130e-09
-1.718310e-09 -2.000010e+03 -4.000000e+02
4.000000e+02 -2.000010e+03 -4.000000e+02
1.082990e-10 -1.600010e+03 -4.000000e+02
4.000000e+02 -1.600010e+03 -4.000000e+02
-2.439720e-09 -2.000010e+03 -1.850960e-09
4.000000e+02 -2.000010e+03 -1.912840e-09
-4.076880e-10 -1.600010e+03 -2.072130e-09
4.000000e+02 -1.600010e+03 -3.134010e-10
-4.000000e+02 -1.600010e+03 -4.000000e+02
1.082990e-10 -1.600010e+03 -4.000000e+02
-4.000000e+02 -1.200020e+03 -4.000000e+02
9.499650e-10 -1.200020e+03 -4.000000e+02
-4.000000e+02 -1.600010e+03 -2.558700e-09
-4.076880e-10 -1.600010e+03 -2.072130e-09
-4.000000e+02 -1.200020e+03 -8.127770e-10
8.098500e-10 -1.200020e+03 -2.059830e-10
1.082990e-10 -1.600010e+03 -4.000000e+02
4.000000e+02 -1.600010e+03 -4.000000e+02
9.499650e-10 -1.200020e+03 -4.000000e+02
4.000000e+02 -1.200020e+03 -4.000000e+02
-4.076880e-10 -1.600010e+03 -2.072130e-09
4.000000e+02 -1.600010e+03 -3.134010e-10
8.098500e-10 -1.200020e+03 -2.059830e-10
4.000000e+02 -1.200020e+03 5.183040e-10
-4.000000e+02 -1.200020e+03 -4.000000e+02
9.499650e-10 -1.200020e+03 -4.000000e+02
-4.000000e+02 -8.000360e+02 -4.000000e+02
1.744080e-09 -8.000360e+02 -4.000000e+02
-4.000000e+02 -1.200020e+03 -8.127770e-10
8.098500e-10 -1.200020e+03 -2.059830e-10
-4.000000e+02 -8.000360e+02 4.338570e-10
1.312690e-09 -8.000360e+02 1.284910e-09
9.499650e-10 -1.200020e+03 -4.000000e+02
4.000000e+02 -1.200020e+03 -4.000000e+02
1.744080e-09 -8.000360e+02 -4.000000e+02
4.000000e+02 -8.000360e+02 -4.000000e+02
8.098500e-10 -1.200020e+03 -2.059830e-10
4.000000e+02 -1.200020e+03 5.183040e-10
1.312690e-09 -8.000360e+02 1.284910e-09
4.000000e+02 -8.000360e+02 1.708700e-09
-4.000000e+02 -8.000360e+02 -4.000000e+02
1.744080e-09 -8.000360e+02 -4.000000e+02
-4.000000e+02 -4.000640e+02 -4.000000e+02
1.163410e-09 -4.000640e+02 -4.000000e+02
-4.000000e+02 -8.000360e+02 4.338570e-10
1.312690e-09 -8.000360e+02 1.284910e-09
-4.000000e+02 -4.000640e+02 9.976030e-10
9.358680e-10 -4.000640e+02 1.730890e-09
1.744080e-09 -8.000360e+02 -4.000000e+02
4.000000e+02 -8.000360e+02 -4.000000e+02
1.163410e-09 -4.000640e+02 -4.000000e+02
4.000000e+02 -4.000640e+02 -4.000000e+02
1.312690e-09 -8.000360e+02 1.284910e-09
4.000000e+02 -8.000360e+02 1.708700e-09
9.358680e-10 -4.000640e+02 1.730890e-09
4.000000e+02 -4.000640e+02 2.272180e-09
-4.000000e+02 -4.000640e+02 -4.000000e+02
1.163410e-09 -4.000640e+02 -4.000000e+02
-4.000000e+02 -1.052830e-01 -4.000000e+02
1.602390e-09 -1.052830e-01 -4.000000e+02
-4.000000e+02 -4.000640e+02 9.976030e-10
9.358680e-10 -4.000640e+02 1.730890e-09
-4.000000e+02 -1.052830e-01 1.069420e-09
1.236740e-09 -1.052830e-01 1.690940e-09
1.163410e-09 -4.000640e+02 -4.000000e+02
4.000000e+02 -4.000640e+02 -4.000000e+02
1.602390e-09 -1.052830e-01 -4.000000e+02
[...]
<PointData>
<DataArray type="Float32" Name="V1" format="ascii">
0.000000e+00
0.000000e+00
1.492570e-09
4.669090e-10
0.000000e+00
0.000000e+00
1.256900e-10
4.333320e-10
0.000000e+00
0.000000e+00
4.669090e-10
-2.136730e-09
0.000000e+00
0.000000e+00
4.333320e-10
1.508280e-09
1.492570e-09
4.669090e-10
-8.012740e-10
2.609730e-10
1.256900e-10
4.333320e-10
-2.199580e-10
-2.426740e-10
4.669090e-10
-2.136730e-09
2.609730e-10
6.284500e-10
4.333320e-10
1.508280e-09
-2.426740e-10
3.299360e-10
-8.012740e-10
2.609730e-10
1.885350e-10
3.935260e-11
-2.199580e-10
-2.426740e-10
2.356690e-10
3.338640e-10
2.609730e-10
6.284500e-10
3.935260e-11
3.157960e-09
-2.426740e-10
3.299360e-10
3.338640e-10
-7.541400e-10
1.885350e-10
3.935260e-11
6.755840e-10
-5.835300e-10
2.356690e-10
3.338640e-10
6.755840e-10
-6.150300e-11
3.935260e-11
3.157960e-09
-5.835300e-10
-1.099790e-10
3.338640e-10
-7.541400e-10
-6.150300e-11
-2.639490e-09
6.755840e-10
-5.835300e-10
-4.713380e-10
-2.075410e-10
6.755840e-10
-6.150300e-11
-2.828030e-10
3.634080e-10
-5.835300e-10
-1.099790e-10
-2.075410e-10
-2.545220e-09
-6.150300e-11
-2.639490e-09
3.634080e-10
-8.169850e-10
-4.713380e-10
-2.075410e-10
-2.733760e-09
-1.140720e-09
-2.828030e-10
3.634080e-10
-7.384290e-10
7.789150e-10
-2.075410e-10
-2.545220e-09
-1.140720e-09
-4.242040e-10
3.634080e-10
-8.169850e-10
7.789150e-10
5.184710e-10
-2.733760e-09
-1.140720e-09
-5.184710e-10
2.142290e-10
-7.384290e-10
7.789150e-10
1.759660e-09
1.327610e-09
-1.140720e-09
-4.242040e-10
2.142290e-10
-6.284500e-10
7.789150e-10
5.184710e-10
1.327610e-09
1.099790e-10
-5.184710e-10
2.142290e-10
3.456480e-10
2.388280e-09
1.759660e-09
1.327610e-09
2.042460e-10
-1.698320e-09
2.142290e-10
-6.284500e-10
2.388280e-09
1.869640e-09
1.327610e-09
1.099790e-10
-1.698320e-09
0.000000e+00
3.456480e-10
2.388280e-09
0.000000e+00
5.167110e-11
2.042460e-10
-1.698320e-09
2.828030e-10
9.151280e-11
2.388280e-09
1.869640e-09
5.167110e-11
-2.576650e-09
-1.698320e-09
0.000000e+00
9.151280e-11
-7.541400e-10
0.000000e+00
5.167110e-11
2.042460e-10
-2.641230e-09
2.828030e-10
9.151280e-11
-9.898090e-10
-6.760060e-10
5.167110e-11
-2.576650e-09
-2.641230e-09
-1.335460e-09
9.151280e-11
-7.541400e-10
-6.760060e-10
-8.012740e-10
2.042460e-10
-2.641230e-09
3.142250e-10
8.278010e-10
-9.898090e-10
-6.760060e-10
-9.740980e-10
-5.337670e-11
-2.641230e-09
-1.335460e-09
8.278010e-10
3.613590e-10
-6.760060e-10
-8.012740e-10
-5.337670e-11
-2.356690e-10
3.142250e-10
8.278010e-10
1.146920e-09
4.264270e-10
-9.740980e-10
-5.337670e-11
-2.356690e-10
-5.404100e-10
8.278010e-10
3.613590e-10
4.264270e-10
-1.979620e-09
-5.337670e-11
-2.356690e-10
-5.404100e-10
0.000000e+00
1.146920e-09
4.264270e-10
-1.304030e-09
-3.727580e-10
-2.356690e-10
-5.404100e-10
1.806790e-09
-2.379300e-11
4.264270e-10
-1.979620e-09
-3.727580e-10
9.583870e-10
-5.404100e-10
0.000000e+00
-2.379300e-11
1.115500e-09
-1.304030e-09
-3.727580e-10
5.656050e-10
3.935510e-11
1.806790e-09
-2.379300e-11
-1.571130e-10
-6.792980e-11
-3.727580e-10
9.583870e-10
3.935510e-11
-2.922290e-09
-2.379300e-11
1.115500e-09
-6.792980e-11
-6.441610e-10
5.656050e-10
3.935510e-11
-4.870490e-10
-8.813850e-10
-1.571130e-10
-6.792980e-11
-1.885350e-10
-1.177960e-11
3.935510e-11
-2.922290e-09
-8.813850e-10
1.304030e-09
-6.792980e-11
-6.441610e-10
-1.177960e-11
2.670910e-10
-4.870490e-10
-8.813850e-10
4.713380e-10
4.977710e-10
-1.885350e-10
-1.177960e-11
-3.299360e-10
6.806370e-10
-8.813850e-10
1.304030e-09
4.977710e-10
-9.898090e-10
-1.177960e-11
2.670910e-10
6.806370e-10
0.000000e+00
4.713380e-10
4.977710e-10
1.712530e-09
2.175530e-11
-3.299360e-10
6.806370e-10
2.042460e-10
-1.355590e-09
4.977710e-10
-9.898090e-10
2.175530e-11
4.399150e-10
6.806370e-10
0.000000e+00
-1.355590e-09
-1.005520e-09
1.712530e-09
2.175530e-11
-3.063690e-09
-1.423360e-10
2.042460e-10
-1.355590e-09
-1.571130e-10
1.352770e-09
2.175530e-11
4.399150e-10
-1.423360e-10
0.000000e+00
-1.355590e-09
-1.005520e-09
1.352770e-09
0.000000e+00
-3.063690e-09
-1.423360e-10
2.670910e-10
9.814260e-10
-1.571130e-10
1.352770e-09
5.970280e-10
2.703560e-11
-1.423360e-10
0.000000e+00
9.814260e-10
-2.042460e-10
1.352770e-09
0.000000e+00
2.703560e-11
-1.885350e-10
2.670910e-10
9.814260e-10
-4.713380e-11
-1.638400e-10
5.970280e-10
2.703560e-11
-2.513800e-10
-3.036470e-10
9.814260e-10
-2.042460e-10
-1.638400e-10
-6.284500e-11
2.703560e-11
-1.885350e-10
-3.036470e-10
0.000000e+00
-4.713380e-11
-1.638400e-10
-8.326970e-10
-4.912980e-10
-2.513800e-10
-3.036470e-10
-4.242040e-10
-3.216010e-10
-1.638400e-10
-6.284500e-11
-4.912980e-10
0.000000e+00
-3.036470e-10
0.000000e+00
-3.216010e-10
0.000000e+00
-8.326970e-10
-4.912980e-10
-2.670910e-10
-7.095660e-10
-4.242040e-10
-3.216010e-10
-1.052650e-09
-5.326790e-10
-4.912980e-10
0.000000e+00
-7.095660e-10
-1.036940e-09
-3.216010e-10
0.000000e+00
-5.326790e-10
0.000000e+00
-2.670910e-10
-7.095660e-10
5.184710e-10
2.396350e-10
-1.052650e-09
-5.326790e-10
0.000000e+00
1.328170e-10
-7.095660e-10
-1.036940e-09
2.396350e-10
-2.199580e-10
-5.326790e-10
0.000000e+00
1.328170e-10
0.000000e+00
5.184710e-10
2.396350e-10
0.000000e+00
2.334210e-10
0.000000e+00
1.328170e-10
8.484080e-10
1.897520e-10
2.396350e-10
-2.199580e-10
2.334210e-10
4.556260e-10
1.328170e-10
0.000000e+00
1.897520e-10
-5.341830e-10
0.000000e+00
2.334210e-10
-2.828030e-10
-2.223220e-10
8.484080e-10
1.897520e-10
-2.985140e-10
-2.093770e-10
2.334210e-10
4.556260e-10
-2.223220e-10
-1.099790e-10
1.897520e-10
-5.341830e-10
-2.093770e-10
0.000000e+00
-2.828030e-10
-2.223220e-10
-4.242040e-10
-3.079570e-11
-2.985140e-10
-2.093770e-10
-5.970280e-10
-1.085570e-10
-2.223220e-10
-1.099790e-10
-3.079570e-11
3.456480e-10
-2.093770e-10
0.000000e+00
-1.085570e-10
4.399150e-10
-4.242040e-10
-3.079570e-11
0.000000e+00
1.821040e-11
-5.970280e-10
-1.085570e-10
1.571130e-11
9.783160e-12
-3.079570e-11
3.456480e-10
1.821040e-11
0.000000e+00
-1.085570e-10
4.399150e-10
9.783160e-12
0.000000e+00
0.000000e+00
1.821040e-11
0.000000e+00
-9.109200e-11
1.571130e-11
9.783160e-12
0.000000e+00
-6.486290e-11
1.821040e-11
0.000000e+00
-9.109200e-11
-2.356690e-10
9.783160e-12
0.000000e+00
-6.486290e-11
-1.414010e-10
0.000000e+00
-9.109200e-11
-1.099790e-10
-1.057620e-10
0.000000e+00
-6.486290e-11
-1.099790e-10
-1.164260e-10
-9.109200e-11
-2.356690e-10
-1.057620e-10
-9.426750e-11
-6.486290e-11
-1.414010e-10
-1.164260e-10
-1.099790e-10
-1.099790e-10
-1.057620e-10
1.571130e-11
1.388610e-12
-1.099790e-10
-1.164260e-10
1.571130e-11
4.989480e-12
-1.057620e-10
-9.426750e-11
1.388610e-12
-3.142250e-11
-1.164260e-10
-1.099790e-10
4.989480e-12
-3.142250e-11
0.000000e+00
0.000000e+00
1.256900e-10
4.333320e-10
0.000000e+00
0.000000e+00
2.890870e-09
-9.674370e-10
0.000000e+00
0.000000e+00
4.333320e-10
1.508280e-09
0.000000e+00
0.000000e+00
-9.674370e-10
-9.898090e-10
1.256900e-10
4.333320e-10
-2.199580e-10
-2.426740e-10
2.890870e-09
-9.674370e-10
-1.351170e-09
-1.436370e-09
4.333320e-10
1.508280e-09
-2.426740e-10
3.299360e-10
-9.674370e-10
-9.898090e-10
-1.436370e-09
-1.665390e-09
-2.199580e-10
-2.426740e-10
2.356690e-10
3.338640e-10
-1.351170e-09
-1.436370e-09
-5.970280e-10
-1.382310e-09
-2.426740e-10
3.299360e-10
3.338640e-10
-7.541400e-10
-1.436370e-09
-1.665390e-09
-1.382310e-09
-1.256900e-09
2.356690e-10
3.338640e-10
6.755840e-10
-6.150300e-11
-5.970280e-10
-1.382310e-09
2.340980e-09
1.307250e-09
3.338640e-10
-7.541400e-10
-6.150300e-11
-2.639490e-09
-1.382310e-09
-1.256900e-09
1.307250e-09
3.613590e-10
6.755840e-10
-6.150300e-11
-2.828030e-10
3.634080e-10
2.340980e-09
1.307250e-09
6.441610e-10
1.197230e-09
-6.150300e-11
-2.639490e-09
3.634080e-10
-8.169850e-10
1.307250e-09
3.613590e-10
1.197230e-09
1.414010e-09
-2.828030e-10
3.634080e-10
-7.384290e-10
7.789150e-10
6.441610e-10
1.197230e-09
-5.970280e-10
-5.827600e-10
3.634080e-10
-8.169850e-10
7.789150e-10
5.184710e-10
1.197230e-09
1.414010e-09
-5.827600e-10
-2.655200e-09
-7.384290e-10
7.789150e-10
1.759660e-09
1.327610e-09
-5.970280e-10
-5.827600e-10
0.000000e+00
1.363260e-09
7.789150e-10
5.184710e-10
1.327610e-09
1.099790e-10
-5.827600e-10
-2.655200e-09
1.363260e-09
-3.142250e-11
1.759660e-09
1.327610e-09
2.042460e-10
-1.698320e-09
0.000000e+00
1.363260e-09
0.000000e+00
-6.423080e-11
1.327610e-09
1.099790e-10
-1.698320e-09
0.000000e+00
1.363260e-09
-3.142250e-11
-6.423080e-11
8.641190e-10
2.042460e-10
-1.698320e-09
2.828030e-10
9.151280e-11
0.000000e+00
-6.423080e-11
-1.414010e-09
7.483170e-10
-1.698320e-09
0.000000e+00
9.151280e-11
-7.541400e-10
-6.423080e-11
8.641190e-10
7.483170e-10
4.713380e-11
2.828030e-10
9.151280e-11
-9.898090e-10
-6.760060e-10
-1.414010e-09
7.483170e-10
5.027600e-10
2.459490e-10
9.151280e-11
-7.541400e-10
-6.760060e-10
-8.012740e-10
7.483170e-10
4.713380e-11
2.459490e-10
2.466670e-09
-9.898090e-10
-6.760060e-10
-9.740980e-10
-5.337670e-11
5.027600e-10
2.459490e-10
-4.084930e-10
4.582800e-10
-6.760060e-10
-8.012740e-10
-5.337670e-11
-2.356690e-10
2.459490e-10
2.466670e-09
4.582800e-10
-3.613590e-10
-9.740980e-10
-5.337670e-11
-2.356690e-10
-5.404100e-10
-4.084930e-10
4.582800e-10
6.441610e-10
7.050260e-10
-5.337670e-11
-2.356690e-10
-5.404100e-10
0.000000e+00
4.582800e-10
-3.613590e-10
7.050260e-10
-3.770700e-10
-2.356690e-10
-5.404100e-10
1.806790e-09
-2.379300e-11
6.441610e-10
7.050260e-10
5.027600e-10
9.342290e-10
-5.404100e-10
0.000000e+00
-2.379300e-11
1.115500e-09
7.050260e-10
-3.770700e-10
9.342290e-10
-7.227180e-10
1.806790e-09
-2.379300e-11
-1.571130e-10
-6.792980e-11
5.027600e-10
9.342290e-10
1.571130e-10
-1.043780e-10
-2.379300e-11
1.115500e-09
-6.792980e-11
-6.441610e-10
9.342290e-10
-7.227180e-10
-1.043780e-10
6.598730e-10
-1.571130e-10
-6.792980e-11
-1.885350e-10
-1.177960e-11
1.571130e-10
-1.043780e-10
-1.791080e-09
1.113040e-09
-6.792980e-11
-6.441610e-10
-1.177960e-11
2.670910e-10
-1.043780e-10
6.598730e-10
1.113040e-09
0.000000e+00
-1.885350e-10
-1.177960e-11
-3.299360e-10
6.806370e-10
-1.791080e-09
1.113040e-09
2.985140e-09
2.583370e-10
-1.177960e-11
2.670910e-10
6.806370e-10
0.000000e+00
1.113040e-09
0.000000e+00
2.583370e-10
0.000000e+00
-3.299360e-10
6.806370e-10
2.042460e-10
-1.355590e-09
2.985140e-09
2.583370e-10
3.142250e-11
1.048960e-10
6.806370e-10
0.000000e+00
-1.355590e-09
-1.005520e-09
2.583370e-10
0.000000e+00
1.048960e-10
-6.284500e-10
2.042460e-10
-1.355590e-09
-1.571130e-10
1.352770e-09
3.142250e-11
1.048960e-10
-2.042460e-09
-1.966620e-10
-1.355590e-09
-1.005520e-09
1.352770e-09
0.000000e+00
1.048960e-10
-6.284500e-10
-1.966620e-10
1.696820e-09
-1.571130e-10
1.352770e-09
5.970280e-10
2.703560e-11
-2.042460e-09
-1.966620e-10
5.341830e-10
1.032210e-09
1.352770e-09
0.000000e+00
2.703560e-11
-1.885350e-10
-1.966620e-10
1.696820e-09
1.032210e-09
-7.855630e-10
5.970280e-10
2.703560e-11
-2.513800e-10
-3.036470e-10
5.341830e-10
1.032210e-09
-1.256900e-10
-3.049320e-10
2.703560e-11
-1.885350e-10
-3.036470e-10
0.000000e+00
1.032210e-09
-7.855630e-10
-3.049320e-10
0.000000e+00
-2.513800e-10
-3.036470e-10
-4.242040e-10
-3.216010e-10
-1.256900e-10
-3.049320e-10
-7.070060e-10
-2.975830e-10
-3.036470e-10
0.000000e+00
-3.216010e-10
0.000000e+00
-3.049320e-10
0.000000e+00
-2.975830e-10
2.828030e-10
-4.242040e-10
-3.216010e-10
-1.052650e-09
-5.326790e-10
-7.070060e-10
-2.975830e-10
-6.127390e-10
-3.420800e-10
-3.216010e-10
0.000000e+00
-5.326790e-10
0.000000e+00
-2.975830e-10
2.828030e-10
-3.420800e-10
4.713380e-11
-1.052650e-09
-5.326790e-10
0.000000e+00
1.328170e-10
-6.127390e-10
-3.420800e-10
1.099790e-10
-9.784260e-11
-5.326790e-10
0.000000e+00
1.328170e-10
0.000000e+00
-3.420800e-10
4.713380e-11
-9.784260e-11
-4.399150e-10
0.000000e+00
1.328170e-10
8.484080e-10
1.897520e-10
1.099790e-10
-9.784260e-11
4.242040e-10
-1.196230e-10
1.328170e-10
0.000000e+00
1.897520e-10
-5.341830e-10
-9.784260e-11
-4.399150e-10
-1.196230e-10
-6.441610e-10
8.484080e-10
1.897520e-10
-2.985140e-10
-2.093770e-10
4.242040e-10
-1.196230e-10
0.000000e+00
-9.686540e-11
1.897520e-10
-5.341830e-10
-2.093770e-10
0.000000e+00
-1.196230e-10
-6.441610e-10
-9.686540e-11
0.000000e+00
-2.985140e-10
-2.093770e-10
-5.970280e-10
-1.085570e-10
0.000000e+00
-9.686540e-11
-5.656050e-10
1.060950e-10
-2.093770e-10
0.000000e+00
-1.085570e-10
4.399150e-10
-9.686540e-11
0.000000e+00
1.060950e-10
8.326970e-10
-5.970280e-10
-1.085570e-10
1.571130e-11
9.783160e-12
-5.656050e-10
1.060950e-10
0.000000e+00
1.702130e-11
-1.085570e-10
4.399150e-10
9.783160e-12
0.000000e+00
1.060950e-10
8.326970e-10
1.702130e-11
0.000000e+00
1.571130e-11
9.783160e-12
0.000000e+00
-6.486290e-11
0.000000e+00
1.702130e-11
0.000000e+00
-1.085380e-10
9.783160e-12
0.000000e+00
-6.486290e-11
-1.414010e-10
1.702130e-11
0.000000e+00
-1.085380e-10
-2.199580e-10
0.000000e+00
-6.486290e-11
-1.099790e-10
-1.164260e-10
0.000000e+00
-1.085380e-10
-1.414010e-10
-1.138780e-10
-6.486290e-11
-1.414010e-10
-1.164260e-10
-1.099790e-10
-1.085380e-10
-2.199580e-10
-1.138780e-10
-9.426750e-11
-1.099790e-10
-1.164260e-10
1.571130e-11
4.989480e-12
-1.414010e-10
-1.138780e-10
-1.571130e-11
-1.691740e-11
-1.164260e-10
-1.099790e-10
4.989480e-12
-3.142250e-11
-1.138780e-10
-9.426750e-11
-1.691740e-11
-3.142250e-11
</DataArray>
<DataArray type="Float32" Name="V2" format="ascii">
0.000000e+00
0.000000e+00
-3.799050e-04
-3.798990e-04
0.000000e+00
0.000000e+00
-3.799050e-04
-3.799040e-04
0.000000e+00
0.000000e+00
-3.798990e-04
-3.799040e-04
0.000000e+00
0.000000e+00
-3.799040e-04
-3.799050e-04
-3.799050e-04
-3.798990e-04
-4.039630e-04
-4.039620e-04
-3.799050e-04
-3.799040e-04
-4.039590e-04
-4.039630e-04
-3.798990e-04
-3.799040e-04
-4.039620e-04
-4.039620e-04
-3.799040e-04
-3.799050e-04
-4.039630e-04
-4.039600e-04
-4.039630e-04
-4.039620e-04
-4.650230e-05
-4.649980e-05
-4.039590e-04
-4.039630e-04
-4.650080e-05
-4.649800e-05
-4.039620e-04
-4.039620e-04
-4.649980e-05
-4.649480e-05
-4.039630e-04
-4.039600e-04
-4.649800e-05
-4.650100e-05
-4.650230e-05
-4.649980e-05
-2.395090e-04
-2.395100e-04
-4.650080e-05
-4.649800e-05
-2.395120e-04
-2.395090e-04
-4.649980e-05
-4.649480e-05
-2.395100e-04
-2.395120e-04
-4.649800e-05
-4.650100e-05
-2.395090e-04
-2.395070e-04
-2.395090e-04
-2.395100e-04
-4.068550e-04
-4.068570e-04
-2.395120e-04
-2.395090e-04
-4.068470e-04
-4.068480e-04
-2.395100e-04
-2.395120e-04
-4.068570e-04
-4.068460e-04
-2.395090e-04
-2.395070e-04
-4.068480e-04
-4.068470e-04
-4.068550e-04
-4.068570e-04
-4.205850e-04
-4.205800e-04
-4.068470e-04
-4.068480e-04
-4.205870e-04
-4.205780e-04
-4.068570e-04
-4.068460e-04
-4.205800e-04
-4.205810e-04
-4.068480e-04
-4.068470e-04
-4.205780e-04
-4.205830e-04
-4.205850e-04
-4.205800e-04
-5.917520e-04
-5.917520e-04
-4.205870e-04
-4.205780e-04
-5.917480e-04
-5.917500e-04
-4.205800e-04
-4.205810e-04
-5.917520e-04
-5.917480e-04
-4.205780e-04
-4.205830e-04
-5.917500e-04
-5.917460e-04
-5.917520e-04
-5.917520e-04
1.133550e-04
1.133570e-04
-5.917480e-04
-5.917500e-04
1.133550e-04
1.133590e-04
-5.917520e-04
-5.917480e-04
1.133570e-04
1.133560e-04
-5.917500e-04
-5.917460e-04
1.133590e-04
1.133570e-04
1.133550e-04
1.133570e-04
1.613540e-03
1.613540e-03
1.133550e-04
1.133590e-04
1.613540e-03
1.613540e-03
1.133570e-04
1.133560e-04
1.613540e-03
1.613540e-03
1.133590e-04
1.133570e-04
1.613540e-03
1.613540e-03
1.613540e-03
1.613540e-03
2.093410e-03
2.093410e-03
1.613540e-03
1.613540e-03
2.093410e-03
2.093400e-03
1.613540e-03
1.613540e-03
2.093410e-03
2.093400e-03
1.613540e-03
1.613540e-03
2.093400e-03
2.093410e-03
2.093410e-03
2.093410e-03
3.791540e-03
3.791540e-03
2.093410e-03
2.093400e-03
3.791540e-03
3.791540e-03
2.093410e-03
2.093400e-03
3.791540e-03
3.791550e-03
2.093400e-03
2.093410e-03
3.791540e-03
3.791540e-03
3.791540e-03
3.791540e-03
8.794630e-03
8.794630e-03
3.791540e-03
3.791540e-03
8.794630e-03
8.794620e-03
3.791540e-03
3.791550e-03
8.794630e-03
8.794630e-03
3.791540e-03
3.791540e-03
8.794620e-03
8.794630e-03
8.794630e-03
8.794630e-03
1.468940e-02
1.468940e-02
8.794630e-03
8.794620e-03
1.468940e-02
1.468940e-02
8.794630e-03
8.794630e-03
1.468940e-02
1.468940e-02
8.794620e-03
8.794630e-03
1.468940e-02
1.468940e-02
1.468940e-02
1.468940e-02
2.203390e-02
2.203390e-02
1.468940e-02
1.468940e-02
2.203390e-02
2.203390e-02
1.468940e-02
1.468940e-02
2.203390e-02
2.203390e-02
1.468940e-02
1.468940e-02
2.203390e-02
2.203390e-02
2.203390e-02
2.203390e-02
3.523980e-02
3.523980e-02
2.203390e-02
2.203390e-02
3.523980e-02
3.523980e-02
2.203390e-02
2.203390e-02
3.523980e-02
3.523980e-02
2.203390e-02
2.203390e-02
3.523980e-02
3.523980e-02
3.523980e-02
3.523980e-02
4.417770e-02
4.417770e-02
3.523980e-02
3.523980e-02
4.417770e-02
4.417770e-02
3.523980e-02
3.523980e-02
4.417770e-02
4.417770e-02
3.523980e-02
3.523980e-02
4.417770e-02
4.417770e-02
4.417770e-02
4.417770e-02
4.513420e-02
4.513420e-02
4.417770e-02
4.417770e-02
4.513420e-02
4.513420e-02
4.417770e-02
4.417770e-02
4.513420e-02
4.513420e-02
4.417770e-02
4.417770e-02
4.513420e-02
4.513420e-02
4.513420e-02
4.513420e-02
3.770890e-02
3.770890e-02
4.513420e-02
4.513420e-02
3.770890e-02
3.770890e-02
4.513420e-02
4.513420e-02
3.770890e-02
3.770890e-02
4.513420e-02
4.513420e-02
3.770890e-02
3.770890e-02
3.770890e-02
3.770890e-02
1.738070e-02
1.738070e-02
3.770890e-02
3.770890e-02
1.738070e-02
1.738070e-02
3.770890e-02
3.770890e-02
1.738070e-02
1.738070e-02
3.770890e-02
3.770890e-02
1.738070e-02
1.738070e-02
1.738070e-02
1.738070e-02
-3.797030e-03
-3.797030e-03
1.738070e-02
1.738070e-02
-3.797030e-03
-3.797030e-03
1.738070e-02
1.738070e-02
-3.797030e-03
-3.797030e-03
1.738070e-02
1.738070e-02
-3.797030e-03
-3.797030e-03
-3.797030e-03
-3.797030e-03
-1.926440e-02
-1.926440e-02
-3.797030e-03
-3.797030e-03
-1.926440e-02
-1.926440e-02
-3.797030e-03
-3.797030e-03
-1.926440e-02
-1.926440e-02
-3.797030e-03
-3.797030e-03
-1.926440e-02
-1.926440e-02
-1.926440e-02
-1.926440e-02
-8.941440e-03
-8.941470e-03
-1.926440e-02
-1.926440e-02
-8.941460e-03
-8.941460e-03
-1.926440e-02
-1.926440e-02
-8.941470e-03
-8.941450e-03
-1.926440e-02
-1.926440e-02
-8.941460e-03
-8.941480e-03
-8.941440e-03
-8.941470e-03
4.811790e-04
4.812110e-04
-8.941460e-03
-8.941460e-03
4.812080e-04
4.811940e-04
-8.941470e-03
-8.941450e-03
4.812110e-04
4.811820e-04
-8.941460e-03
-8.941480e-03
4.811940e-04
4.812130e-04
4.811790e-04
4.812110e-04
8.919580e-03
8.919580e-03
4.812080e-04
4.811940e-04
8.919580e-03
8.919580e-03
4.812110e-04
4.811820e-04
8.919580e-03
8.919570e-03
4.811940e-04
4.812130e-04
8.919580e-03
8.919580e-03
8.919580e-03
8.919580e-03
7.566240e-04
7.566210e-04
8.919580e-03
8.919580e-03
7.566130e-04
7.566270e-04
8.919580e-03
8.919570e-03
7.566210e-04
7.566310e-04
8.919580e-03
8.919580e-03
7.566270e-04
7.566290e-04
7.566240e-04
7.566210e-04
-1.872970e-03
-1.872970e-03
7.566130e-04
7.566270e-04
-1.872970e-03
-1.872970e-03
7.566210e-04
7.566310e-04
-1.872970e-03
-1.872970e-03
7.566270e-04
7.566290e-04
-1.872970e-03
-1.872970e-03
-1.872970e-03
-1.872970e-03
5.935110e-05
5.933880e-05
-1.872970e-03
-1.872970e-03
5.935110e-05
5.933900e-05
-1.872970e-03
-1.872970e-03
5.933880e-05
5.934510e-05
-1.872970e-03
-1.872970e-03
5.933900e-05
5.933270e-05
5.935110e-05
5.933880e-05
7.183550e-04
7.183610e-04
5.935110e-05
5.933900e-05
7.183490e-04
7.183580e-04
5.933880e-05
5.934510e-05
7.183610e-04
7.183590e-04
5.933900e-05
5.933270e-05
7.183580e-04
7.183620e-04
7.183550e-04
7.183610e-04
2.107700e-05
2.107670e-05
7.183490e-04
7.183580e-04
2.107700e-05
2.107670e-05
7.183610e-04
7.183590e-04
2.107670e-05
2.107670e-05
7.183580e-04
7.183620e-04
2.107670e-05
2.107700e-05
2.107700e-05
2.107670e-05
-1.547420e-04
-1.547420e-04
2.107700e-05
2.107670e-05
-1.547420e-04
-1.547420e-04
2.107670e-05
2.107670e-05
-1.547420e-04
-1.547420e-04
2.107670e-05
2.107700e-05
-1.547420e-04
-1.547430e-04
0.000000e+00
0.000000e+00
-3.799050e-04
-3.799040e-04
0.000000e+00
0.000000e+00
-3.799030e-04
-3.799060e-04
0.000000e+00
0.000000e+00
-3.799040e-04
-3.799050e-04
0.000000e+00
0.000000e+00
-3.799060e-04
-3.799030e-04
-3.799050e-04
-3.799040e-04
-4.039590e-04
-4.039630e-04
-3.799030e-04
-3.799060e-04
-4.039630e-04
-4.039580e-04
-3.799040e-04
-3.799050e-04
-4.039630e-04
-4.039600e-04
-3.799060e-04
-3.799030e-04
-4.039580e-04
-4.039560e-04
-4.039590e-04
-4.039630e-04
-4.650080e-05