<?xml version="1.0"?>
<VTKFile type="UnstructuredGrid" version="0.1" byte_order="LittleEndian" compressor="vtkZLibDataCompressor">
<UnstructuredGrid>
<Piece NumberOfPoints="960" NumberOfCells="120">
<Points>
<DataArray type="Float32" NumberOfComponents="3" format="ascii">
-4.000000e+02 -6.000000e+03 -4.000000e+02
0.000000e+00 -6.000000e+03 -4.000000e+02
-4.000000e+02 -5.600030e+03 -4.000000e+02
-5.683020e-10 -5.600030e+03 -4.000000e+02
-4.000000e+02 -6.000000e+03 0.000000e+00
0.000000e+00 -6.000000e+03 0.000000e+00
-4.000000e+02 -5.600030e+03 2.282580e-10
1.509570e-11 -5.600030e+03 4.161660e-10
0.000000e+00 -6.000000e+03 -4.000000e+02
4.000000e+02 -6.000000e+03 -4.000000e+02
-5.683020e-10 -5.600030e+03 -4.000000e+02
4.000000e+02 -5.600030e+03 -4.000000e+02
0.000000e+00 -6.000000e+03 0.000000e+00
4.000000e+02 -6.000000e+03 0.000000e+00
1.509570e-11 -5.600030e+03 4.161660e-10
4.000000e+02 -5.600030e+03 1.496120e-09
-4.000000e+02 -5.600030e+03 -4.000000e+02
-5.683020e-10 -5.600030e+03 -4.000000e+02
-4.000000e+02 -5.200080e+03 -4.000000e+02
-1.020680e-09 -5.200080e+03 -4.000000e+02
-4.000000e+02 -5.600030e+03 2.282580e-10
1.509570e-11 -5.600030e+03 4.161660e-10
-4.000000e+02 -5.200080e+03 6.800900e-10
-8.057280e-11 -5.200080e+03 8.564940e-10
-5.683020e-10 -5.600030e+03 -4.000000e+02
4.000000e+02 -5.600030e+03 -4.000000e+02
-1.020680e-09 -5.200080e+03 -4.000000e+02
4.000000e+02 -5.200080e+03 -4.000000e+02
1.509570e-11 -5.600030e+03 4.161660e-10
4.000000e+02 -5.600030e+03 1.496120e-09
-8.057280e-11 -5.200080e+03 8.564940e-10
4.000000e+02 -5.200080e+03 3.162080e-10
-4.000000e+02 -5.200080e+03 -4.000000e+02
-1.020680e-09 -5.200080e+03 -4.000000e+02
-4.000000e+02 -4.800140e+03 -4.000000e+02
-9.991280e-10 -4.800140e+03 -4.000000e+02
-4.000000e+02 -5.200080e+03 6.800900e-10
-8.057280e-11 -5.200080e+03 8.564940e-10
-4.000000e+02 -4.800140e+03 9.505180e-10
3.246390e-10 -4.800140e+03 1.333660e-09
-1.020680e-09 -5.200080e+03 -4.000000e+02
4.000000e+02 -5.200080e+03 -4.000000e+02
-9.991280e-10 -4.800140e+03 -4.000000e+02
4.000000e+02 -4.800140e+03 -4.000000e+02
-8.057280e-11 -5.200080e+03 8.564940e-10
4.000000e+02 -5.200080e+03 3.162080e-10
3.246390e-10 -4.800140e+03 1.333660e-09
4.000000e+02 -4.800140e+03 7.657600e-10
-4.000000e+02 -4.800140e+03 -4.000000e+02
-9.991280e-10 -4.800140e+03 -4.000000e+02
-4.000000e+02 -4.400210e+03 -4.000000e+02
4.522980e-10 -4.400210e+03 -4.000000e+02
-4.000000e+02 -4.800140e+03 9.505180e-10
3.246390e-10 -4.800140e+03 1.333660e-09
-4.000000e+02 -4.400210e+03 1.913060e-09
-1.788970e-10 -4.400210e+03 1.955000e-09
-9.991280e-10 -4.800140e+03 -4.000000e+02
4.000000e+02 -4.800140e+03 -4.000000e+02
4.522980e-10 -4.400210e+03 -4.000000e+02
4.000000e+02 -4.400210e+03 -4.000000e+02
3.246390e-10 -4.800140e+03 1.333660e-09
4.000000e+02 -4.800140e+03 7.657600e-10
-1.788970e-10 -4.400210e+03 1.955000e-09
4.000000e+02 -4.400210e+03 2.063050e-09
-4.000000e+02 -4.400210e+03 -4.000000e+02
4.522980e-10 -4.400210e+03 -4.000000e+02
-4.000000e+02 -4.000290e+03 -4.000000e+02
-8.140670e-10 -4.000290e+03 -4.000000e+02
-4.000000e+02 -4.400210e+03 1.913060e-09
-1.788970e-10 -4.400210e+03 1.955000e-09
-4.000000e+02 -4.000290e+03 -4.651190e-12
-2.293720e-10 -4.000290e+03 6.360970e-10
4.522980e-10 -4.400210e+03 -4.000000e+02
4.000000e+02 -4.400210e+03 -4.000000e+02
-8.140670e-10 -4.000290e+03 -4.000000e+02
4.000000e+02 -4.000290e+03 -4.000000e+02
-1.788970e-10 -4.400210e+03 1.955000e-09
4.000000e+02 -4.400210e+03 2.063050e-09
-2.293720e-10 -4.000290e+03 6.360970e-10
4.000000e+02 -4.000290e+03 7.141690e-10
-4.000000e+02 -4.000290e+03 -4.000000e+02
-8.140670e-10 -4.000290e+03 -4.000000e+02
-4.000000e+02 -3.600330e+03 -4.000000e+02
-1.769460e-10 -3.600330e+03 -4.000000e+02
-4.000000e+02 -4.000290e+03 -4.651190e-12
-2.293720e-10 -4.000290e+03 6.360970e-10
-4.000000e+02 -3.600330e+03 -6.022710e-10
-4.749450e-10 -3.600330e+03 -6.438220e-10
-8.140670e-10 -4.000290e+03 -4.000000e+02
4.000000e+02 -4.000290e+03 -4.000000e+02
-1.769460e-10 -3.600330e+03 -4.000000e+02
4.000000e+02 -3.600330e+03 -4.000000e+02
-2.293720e-10 -4.000290e+03 6.360970e-10
4.000000e+02 -4.000290e+03 7.141690e-10
-4.749450e-10 -3.600330e+03 -6.438220e-10
4.000000e+02 -3.600330e+03 -8.513980e-10
-4.000000e+02 -3.600330e+03 -4.000000e+02
-1.769460e-10 -3.600330e+03 -4.000000e+02
-4.000000e+02 -3.200330e+03 -4.000000e+02
-5.874470e-10 -3.200330e+03 -4.000000e+02
-4.000000e+02 -3.600330e+03 -6.022710e-10
-4.749450e-10 -3.600330e+03 -6.438220e-10
-4.000000e+02 -3.200330e+03 -2.468760e-10
-5.202720e-10 -3.200330e+03 6.234760e-11
-1.769460e-10 -3.600330e+03 -4.000000e+02
4.000000e+02 -3.600330e+03 -4.000000e+02
-5.874470e-10 -3.200330e+03 -4.000000e+02
4.000000e+02 -3.200330e+03 -4.000000e+02
-4.749450e-10 -3.600330e+03 -6.438220e-10
4.000000e+02 -3.600330e+03 -8.513980e-10
-5.202720e-10 -3.200330e+03 6.234760e-11
4.000000e+02 -3.200330e+03 -1.534540e-10
-4.000000e+02 -3.200330e+03 -4.000000e+02
-5.874470e-10 -3.200330e+03 -4.000000e+02
-4.000000e+02 -2.800300e+03 -4.000000e+02
2.215490e-10 -2.800300e+03 -4.000000e+02
-4.000000e+02 -3.200330e+03 -2.468760e-10
-5.202720e-10 -3.200330e+03 6.234760e-11
-4.000000e+02 -2.800300e+03 5.838260e-10
1.748430e-10 -2.800300e+03 -7.432820e-11
-5.874470e-10 -3.200330e+03 -4.000000e+02
4.000000e+02 -3.200330e+03 -4.000000e+02
2.215490e-10 -2.800300e+03 -4.000000e+02
4.000000e+02 -2.800300e+03 -4.000000e+02
-5.202720e-10 -3.200330e+03 6.234760e-11
4.000000e+02 -3.200330e+03 -1.534540e-10
1.748430e-10 -2.800300e+03 -7.432820e-11
4.000000e+02 -2.800300e+03 -8.894890e-10
-4.000000e+02 -2.800300e+03 -4.000000e+02
2.215490e-10 -2.800300e+03 -4.000000e+02
-4.000000e+02 -2.400280e+03 -4.000000e+02
1.184810e-09 -2.400280e+03 -4.000000e+02
-4.000000e+02 -2.800300e+03 5.838260e-10
1.748430e-10 -2.800300e+03 -7.432820e-11
-4.000000e+02 -2.400280e+03 -1.903750e-10
1.256790e-09 -2.400280e+03 -1.265500e-09
2.215490e-10 -2.800300e+03 -4.000000e+02
4.000000e+02 -2.800300e+03 -4.000000e+02
1.184810e-09 -2.400280e+03 -4.000000e+02
4.000000e+02 -2.400280e+03 -4.000000e+02
1.748430e-10 -2.800300e+03 -7.432820e-11
4.000000e+02 -2.800300e+03 -8.894890e-10
1.256790e-09 -2.400280e+03 -1.265500e-09
4.000000e+02 -2.400280e+03 -1.283920e-09
-4.000000e+02 -2.400280e+03 -4.000000e+02
1.184810e-09 -2.400280e+03 -4.000000e+02
-4.000000e+02 -2.000290e+03 -4.000000e+02
1.646530e-09 -2.000290e+03 -4.000000e+02
-4.000000e+02 -2.400280e+03 -1.903750e-10
1.256790e-09 -2.400280e+03 -1.265500e-09
-4.000000e+02 -2.000290e+03 -8.059970e-10
1.578780e-09 -2.000290e+03 -8.456390e-10
1.184810e-09 -2.400280e+03 -4.000000e+02
4.000000e+02 -2.400280e+03 -4.000000e+02
1.646530e-09 -2.000290e+03 -4.000000e+02
4.000000e+02 -2.000290e+03 -4.000000e+02
1.256790e-09 -2.400280e+03 -1.265500e-09
4.000000e+02 -2.400280e+03 -1.283920e-09
1.578780e-09 -2.000290e+03 -8.456390e-10
4.000000e+02 -2.000290e+03 -1.511310e-09
-4.000000e+02 -2.000290e+03 -4.000000e+02
1.646530e-09 -2.000290e+03 -4.000000e+02
-4.000000e+02 -1.600310e+03 -4.000000e+02
1.184410e-09 -1.600310e+03 -4.000000e+02
-4.000000e+02 -2.000290e+03 -8.059970e-10
1.578780e-09 -2.000290e+03 -8.456390e-10
-4.000000e+02 -1.600310e+03 7.014980e-10
1.690220e-09 -1.600310e+03 -2.128680e-10
1.646530e-09 -2.000290e+03 -4.000000e+02
4.000000e+02 -2.000290e+03 -4.000000e+02
1.184410e-09 -1.600310e+03 -4.000000e+02
4.000000e+02 -1.600310e+03 -4.000000e+02
1.578780e-09 -2.000290e+03 -8.456390e-10
4.000000e+02 -2.000290e+03 -1.511310e-09
1.690220e-09 -1.600310e+03 -2.128680e-10
4.000000e+02 -1.600310e+03 -7.133600e-10
-4.000000e+02 -1.600310e+03 -4.000000e+02
1.184410e-09 -1.600310e+03 -4.000000e+02
-4.000000e+02 -1.200300e+03 -4.000000e+02
1.141160e-09 -1.200300e+03 -4.000000e+02
-4.000000e+02 -1.600310e+03 7.014980e-10
1.690220e-09 -1.600310e+03 -2.128680e-10
-4.000000e+02 -1.200300e+03 8.772680e-11
1.362270e-09 -1.200300e+03 -5.090750e-10
1.184410e-09 -1.600310e+03 -4.000000e+02
4.000000e+02 -1.600310e+03 -4.000000e+02
1.141160e-09 -1.200300e+03 -4.000000e+02
4.000000e+02 -1.200300e+03 -4.000000e+02
1.690220e-09 -1.600310e+03 -2.128680e-10
4.000000e+02 -1.600310e+03 -7.133600e-10
1.362270e-09 -1.200300e+03 -5.090750e-10
4.000000e+02 -1.200300e+03 -1.289150e-09
-4.000000e+02 -1.200300e+03 -4.000000e+02
1.141160e-09 -1.200300e+03 -4.000000e+02
-4.000000e+02 -8.002910e+02 -4.000000e+02
5.391370e-10 -8.002910e+02 -4.000000e+02
-4.000000e+02 -1.200300e+03 8.772680e-11
1.362270e-09 -1.200300e+03 -5.090750e-10
-4.000000e+02 -8.002910e+02 -5.371190e-10
4.908960e-10 -8.002910e+02 -4.172840e-10
1.141160e-09 -1.200300e+03 -4.000000e+02
4.000000e+02 -1.200300e+03 -4.000000e+02
5.391370e-10 -8.002910e+02 -4.000000e+02
4.000000e+02 -8.002910e+02 -4.000000e+02
1.362270e-09 -1.200300e+03 -5.090750e-10
4.000000e+02 -1.200300e+03 -1.289150e-09
4.908960e-10 -8.002910e+02 -4.172840e-10
4.000000e+02 -8.002910e+02 -5.968480e-10
-4.000000e+02 -8.002910e+02 -4.000000e+02
5.391370e-10 -8.002910e+02 -4.000000e+02
-4.000000e+02 -4.002980e+02 -4.000000e+02
-2.417710e-10 -4.002980e+02 -4.000000e+02
-4.000000e+02 -8.002910e+02 -5.371190e-10
4.908960e-10 -8.002910e+02 -4.172840e-10
-4.000000e+02 -4.002980e+02 6.989160e-10
-9.316110e-11 -4.002980e+02 -3.680460e-10
5.391370e-10 -8.002910e+02 -4.000000e+02
4.000000e+02 -8.002910e+02 -4.000000e+02
-2.417710e-10 -4.002980e+02 -4.000000e+02
4.000000e+02 -4.002980e+02 -4.000000e+02
4.908960e-10 -8.002910e+02 -4.172840e-10
4.000000e+02 -8.002910e+02 -5.968480e-10
-9.316110e-11 -4.002980e+02 -3.680460e-10
4.000000e+02 -4.002980e+02 -3.917490e-10
-4.000000e+02 -4.002980e+02 -4.000000e+02
-2.417710e-10 -4.002980e+02 -4.000000e+02
-4.000000e+02 -3.002860e-01 -4.000000e+02
-1.159340e-09 -3.002860e-01 -4.000000e+02
-4.000000e+02 -4.002980e+02 6.989160e-10
-9.316110e-11 -4.002980e+02 -3.680460e-10
-4.000000e+02 -3.002860e-01 2.272110e-10
2.338430e-10 -3.002860e-01 8.362030e-11
-2.417710e-10 -4.002980e+02 -4.000000e+02
4.000000e+02 -4.002980e+02 -4.000000e+02
-1.159340e-09 -3.002860e-01 -4.000000e+02
[...]
<PointData>
<DataArray type="Float32" Name="V1" format="ascii">
0.000000e+00
0.000000e+00
2.231000e-09
5.428560e-10
0.000000e+00
0.000000e+00
1.492570e-09
7.680570e-10
0.000000e+00
0.000000e+00
5.428560e-10
2.670910e-10
0.000000e+00
0.000000e+00
7.680570e-10
1.728240e-10
2.231000e-09
5.428560e-10
-3.142250e-11
7.668700e-10
1.492570e-09
7.680570e-10
1.084080e-09
-1.788640e-10
5.428560e-10
2.670910e-10
7.668700e-10
5.656050e-10
7.680570e-10
1.728240e-10
-1.788640e-10
-1.319750e-09
-3.142250e-11
7.668700e-10
-3.142250e-10
-1.009760e-09
1.084080e-09
-1.788640e-10
6.284500e-10
6.851840e-10
7.668700e-10
5.656050e-10
-1.009760e-09
-1.492570e-09
-1.788640e-10
-1.319750e-09
6.851840e-10
1.571130e-10
-3.142250e-10
-1.009760e-09
-2.655200e-09
-1.135650e-09
6.284500e-10
6.851840e-10
-5.027600e-10
1.893780e-10
-1.009760e-09
-1.492570e-09
-1.135650e-09
1.571130e-11
6.851840e-10
1.571130e-10
1.893780e-10
1.665390e-09
-2.655200e-09
-1.135650e-09
9.426750e-11
1.319160e-09
-5.027600e-10
1.893780e-10
-1.523990e-09
-5.479140e-10
-1.135650e-09
1.571130e-11
1.319160e-09
7.541400e-10
1.893780e-10
1.665390e-09
-5.479140e-10
1.052650e-09
9.426750e-11
1.319160e-09
1.932480e-09
1.155960e-09
-1.523990e-09
-5.479140e-10
-5.970280e-10
-7.951620e-10
1.319160e-09
7.541400e-10
1.155960e-09
2.309550e-09
-5.479140e-10
1.052650e-09
-7.951620e-10
-8.484080e-10
1.932480e-09
1.155960e-09
-9.740980e-10
-6.753420e-10
-5.970280e-10
-7.951620e-10
-9.426750e-11
-3.901300e-10
1.155960e-09
2.309550e-09
-6.753420e-10
-7.070060e-10
-7.951620e-10
-8.484080e-10
-3.901300e-10
-8.169850e-10
-9.740980e-10
-6.753420e-10
-1.822510e-09
-1.268620e-09
-9.426750e-11
-3.901300e-10
-1.099790e-10
-5.405690e-10
-6.753420e-10
-7.070060e-10
-1.268620e-09
-1.021230e-09
-3.901300e-10
-8.169850e-10
-5.405690e-10
5.813160e-10
-1.822510e-09
-1.268620e-09
2.089600e-09
2.288930e-09
-1.099790e-10
-5.405690e-10
-1.256900e-10
9.429360e-11
-1.268620e-09
-1.021230e-09
2.288930e-09
2.356690e-10
-5.405690e-10
5.813160e-10
9.429360e-11
0.000000e+00
2.089600e-09
2.288930e-09
1.366880e-09
9.251330e-10
-1.256900e-10
9.429360e-11
5.498940e-10
6.770710e-11
2.288930e-09
2.356690e-10
9.251330e-10
0.000000e+00
9.429360e-11
0.000000e+00
6.770710e-11
-1.461150e-09
1.366880e-09
9.251330e-10
6.284500e-11
-4.066790e-10
5.498940e-10
6.770710e-11
0.000000e+00
-1.890420e-10
9.251330e-10
0.000000e+00
-4.066790e-10
1.838220e-09
6.770710e-11
-1.461150e-09
-1.890420e-10
1.586840e-09
6.284500e-11
-4.066790e-10
-3.142250e-11
1.093100e-09
0.000000e+00
-1.890420e-10
6.755840e-10
2.915300e-11
-4.066790e-10
1.838220e-09
1.093100e-09
1.351170e-09
-1.890420e-10
1.586840e-09
2.915300e-11
-2.199580e-10
-3.142250e-11
1.093100e-09
-4.399150e-10
-2.457870e-10
6.755840e-10
2.915300e-11
1.586840e-09
2.694690e-10
1.093100e-09
1.351170e-09
-2.457870e-10
1.099790e-09
2.915300e-11
-2.199580e-10
2.694690e-10
-7.698510e-10
-4.399150e-10
-2.457870e-10
0.000000e+00
-5.098550e-10
1.586840e-09
2.694690e-10
-2.828030e-10
4.934950e-10
-2.457870e-10
1.099790e-09
-5.098550e-10
-2.168150e-09
2.694690e-10
-7.698510e-10
4.934950e-10
2.121020e-09
0.000000e+00
-5.098550e-10
1.036940e-09
1.213430e-09
-2.828030e-10
4.934950e-10
1.319750e-09
-3.722580e-10
-5.098550e-10
-2.168150e-09
1.213430e-09
2.136730e-09
4.934950e-10
2.121020e-09
-3.722580e-10
4.713380e-10
1.036940e-09
1.213430e-09
2.199580e-10
-1.909040e-10
1.319750e-09
-3.722580e-10
-1.382590e-09
1.883960e-10
1.213430e-09
2.136730e-09
-1.909040e-10
-2.309550e-09
-3.722580e-10
4.713380e-10
1.883960e-10
-7.227180e-10
2.199580e-10
-1.909040e-10
-4.634820e-09
-2.619570e-09
-1.382590e-09
1.883960e-10
-3.299360e-10
-1.095270e-09
-1.909040e-10
-2.309550e-09
-2.619570e-09
7.855630e-11
1.883960e-10
-7.227180e-10
-1.095270e-09
-1.036940e-09
-4.634820e-09
-2.619570e-09
5.923140e-09
4.474040e-09
-3.299360e-10
-1.095270e-09
0.000000e+00
3.194700e-09
-2.619570e-09
7.855630e-11
4.474040e-09
9.112530e-10
-1.095270e-09
-1.036940e-09
3.194700e-09
5.436090e-09
5.923140e-09
4.474040e-09
2.168150e-09
-4.654790e-10
0.000000e+00
3.194700e-09
1.932480e-09
-7.195300e-10
4.474040e-09
9.112530e-10
-4.654790e-10
-1.916770e-09
3.194700e-09
5.436090e-09
-7.195300e-10
-4.352020e-09
2.168150e-09
-4.654790e-10
-4.650530e-09
-1.894730e-09
1.932480e-09
-7.195300e-10
-1.256900e-10
-3.021040e-10
-4.654790e-10
-1.916770e-09
-1.894730e-09
1.099790e-09
-7.195300e-10
-4.352020e-09
-3.021040e-10
-3.456480e-10
-4.650530e-09
-1.894730e-09
4.399150e-10
1.145580e-09
-1.256900e-10
-3.021040e-10
-8.798300e-10
-1.605530e-09
-1.894730e-09
1.099790e-09
1.145580e-09
1.963910e-09
-3.021040e-10
-3.456480e-10
-1.605530e-09
-2.388110e-09
4.399150e-10
1.145580e-09
1.414010e-10
-1.979030e-09
-8.798300e-10
-1.605530e-09
-2.953720e-09
-2.488470e-09
1.145580e-09
1.963910e-09
-1.979030e-09
-4.132060e-09
-1.605530e-09
-2.388110e-09
-2.488470e-09
-2.073890e-09
1.414010e-10
-1.979030e-09
-3.550740e-09
-8.597340e-10
-2.953720e-09
-2.488470e-09
4.399150e-10
2.089140e-09
-1.979030e-09
-4.132060e-09
-8.597340e-10
1.822510e-09
-2.488470e-09
-2.073890e-09
2.089140e-09
3.723570e-09
-3.550740e-09
-8.597340e-10
-1.021230e-09
5.123330e-10
4.399150e-10
2.089140e-09
7.541400e-10
1.193750e-09
-8.597340e-10
1.822510e-09
5.123330e-10
2.105310e-09
2.089140e-09
3.723570e-09
1.193750e-09
1.618260e-09
-1.021230e-09
5.123330e-10
1.712530e-09
-2.057810e-10
7.541400e-10
1.193750e-09
-3.613590e-10
-1.405990e-09
5.123330e-10
2.105310e-09
-2.057810e-10
-2.105310e-09
1.193750e-09
1.618260e-09
-1.405990e-09
-2.513800e-09
1.712530e-09
-2.057810e-10
3.189380e-09
1.963180e-09
-3.613590e-10
-1.405990e-09
5.341830e-10
3.612900e-10
-2.057810e-10
-2.105310e-09
1.963180e-09
6.284500e-10
-1.405990e-09
-2.513800e-09
3.612900e-10
0.000000e+00
3.189380e-09
1.963180e-09
1.539700e-09
2.030920e-09
5.341830e-10
3.612900e-10
2.011040e-09
1.612030e-09
1.963180e-09
6.284500e-10
2.030920e-09
2.498090e-09
3.612900e-10
0.000000e+00
1.612030e-09
1.146920e-09
1.539700e-09
2.030920e-09
1.649680e-09
1.005290e-09
2.011040e-09
1.612030e-09
5.970280e-10
2.964640e-10
2.030920e-09
2.498090e-09
1.005290e-09
3.613590e-10
1.612030e-09
1.146920e-09
2.964640e-10
-1.571130e-11
1.649680e-09
1.005290e-09
-7.384290e-10
-6.085320e-10
5.970280e-10
2.964640e-10
-7.698510e-10
-3.990740e-10
1.005290e-09
3.613590e-10
-6.085320e-10
-4.870490e-10
2.964640e-10
-1.571130e-11
-3.990740e-10
0.000000e+00
-7.384290e-10
-6.085320e-10
-1.068370e-09
-8.608850e-10
-7.698510e-10
-3.990740e-10
-7.855630e-10
-6.483310e-10
-6.085320e-10
-4.870490e-10
-8.608850e-10
-6.598730e-10
-3.990740e-10
0.000000e+00
-6.483310e-10
-5.184710e-10
0.000000e+00
0.000000e+00
1.492570e-09
7.680570e-10
0.000000e+00
0.000000e+00
8.326970e-10
4.922230e-11
0.000000e+00
0.000000e+00
7.680570e-10
1.728240e-10
0.000000e+00
0.000000e+00
4.922230e-11
-1.414010e-10
1.492570e-09
7.680570e-10
1.084080e-09
-1.788640e-10
8.326970e-10
4.922230e-11
2.639490e-09
1.366140e-09
7.680570e-10
1.728240e-10
-1.788640e-10
-1.319750e-09
4.922230e-11
-1.414010e-10
1.366140e-09
0.000000e+00
1.084080e-09
-1.788640e-10
6.284500e-10
6.851840e-10
2.639490e-09
1.366140e-09
-3.582170e-09
-1.780960e-09
-1.788640e-10
-1.319750e-09
6.851840e-10
1.571130e-10
1.366140e-09
0.000000e+00
-1.780960e-09
-2.058170e-09
6.284500e-10
6.851840e-10
-5.027600e-10
1.893780e-10
-3.582170e-09
-1.780960e-09
-6.912950e-10
-1.054410e-09
6.851840e-10
1.571130e-10
1.893780e-10
1.665390e-09
-1.780960e-09
-2.058170e-09
-1.054410e-09
1.979620e-09
-5.027600e-10
1.893780e-10
-1.523990e-09
-5.479140e-10
-6.912950e-10
-1.054410e-09
-2.199580e-10
2.358880e-09
1.893780e-10
1.665390e-09
-5.479140e-10
1.052650e-09
-1.054410e-09
1.979620e-09
2.358880e-09
1.916770e-09
-1.523990e-09
-5.479140e-10
-5.970280e-10
-7.951620e-10
-2.199580e-10
2.358880e-09
-3.142250e-11
-2.054110e-12
-5.479140e-10
1.052650e-09
-7.951620e-10
-8.484080e-10
2.358880e-09
1.916770e-09
-2.054110e-12
4.399150e-10
-5.970280e-10
-7.951620e-10
-9.426750e-11
-3.901300e-10
-3.142250e-11
-2.054110e-12
-5.656050e-10
4.336510e-10
-7.951620e-10
-8.484080e-10
-3.901300e-10
-8.169850e-10
-2.054110e-12
4.399150e-10
4.336510e-10
3.456480e-10
-9.426750e-11
-3.901300e-10
-1.099790e-10
-5.405690e-10
-5.656050e-10
4.336510e-10
5.498940e-10
-1.139810e-09
-3.901300e-10
-8.169850e-10
-5.405690e-10
5.813160e-10
4.336510e-10
3.456480e-10
-1.139810e-09
-5.184710e-10
-1.099790e-10
-5.405690e-10
-1.256900e-10
9.429360e-11
5.498940e-10
-1.139810e-09
-1.571130e-09
1.528540e-09
-5.405690e-10
5.813160e-10
9.429360e-11
0.000000e+00
-1.139810e-09
-5.184710e-10
1.528540e-09
-9.740980e-10
-1.256900e-10
9.429360e-11
5.498940e-10
6.770710e-11
-1.571130e-09
1.528540e-09
4.084930e-10
-1.764070e-10
9.429360e-11
0.000000e+00
6.770710e-11
-1.461150e-09
1.528540e-09
-9.740980e-10
-1.764070e-10
-5.184710e-10
5.498940e-10
6.770710e-11
0.000000e+00
-1.890420e-10
4.084930e-10
-1.764070e-10
0.000000e+00
1.485430e-09
6.770710e-11
-1.461150e-09
-1.890420e-10
1.586840e-09
-1.764070e-10
-5.184710e-10
1.485430e-09
1.084080e-09
0.000000e+00
-1.890420e-10
6.755840e-10
2.915300e-11
0.000000e+00
1.485430e-09
-1.995330e-09
-4.409200e-10
-1.890420e-10
1.586840e-09
2.915300e-11
-2.199580e-10
1.485430e-09
1.084080e-09
-4.409200e-10
7.541400e-10
6.755840e-10
2.915300e-11
1.586840e-09
2.694690e-10
-1.995330e-09
-4.409200e-10
1.115500e-09
-5.099290e-10
2.915300e-11
-2.199580e-10
2.694690e-10
-7.698510e-10
-4.409200e-10
7.541400e-10
-5.099290e-10
-8.169850e-10
1.586840e-09
2.694690e-10
-2.828030e-10
4.934950e-10
1.115500e-09
-5.099290e-10
-9.898090e-10
1.171120e-09
2.694690e-10
-7.698510e-10
4.934950e-10
2.121020e-09
-5.099290e-10
-8.169850e-10
1.171120e-09
1.194060e-09
-2.828030e-10
4.934950e-10
1.319750e-09
-3.722580e-10
-9.898090e-10
1.171120e-09
-7.855630e-10
1.086050e-09
4.934950e-10
2.121020e-09
-3.722580e-10
4.713380e-10
1.171120e-09
1.194060e-09
1.086050e-09
1.131210e-09
1.319750e-09
-3.722580e-10
-1.382590e-09
1.883960e-10
-7.855630e-10
1.086050e-09
8.169850e-10
-1.085140e-09
-3.722580e-10
4.713380e-10
1.883960e-10
-7.227180e-10
1.086050e-09
1.131210e-09
-1.085140e-09
-5.797450e-09
-1.382590e-09
1.883960e-10
-3.299360e-10
-1.095270e-09
8.169850e-10
-1.085140e-09
-1.696820e-09
1.561290e-09
1.883960e-10
-7.227180e-10
-1.095270e-09
-1.036940e-09
-1.085140e-09
-5.797450e-09
1.561290e-09
3.299360e-09
-3.299360e-10
-1.095270e-09
0.000000e+00
3.194700e-09
-1.696820e-09
1.561290e-09
3.283650e-09
2.784120e-09
-1.095270e-09
-1.036940e-09
3.194700e-09
5.436090e-09
1.561290e-09
3.299360e-09
2.784120e-09
1.571130e-09
0.000000e+00
3.194700e-09
1.932480e-09
-7.195300e-10
3.283650e-09
2.784120e-09
4.713380e-11
-2.227950e-09
3.194700e-09
5.436090e-09
-7.195300e-10
-4.352020e-09
2.784120e-09
1.571130e-09
-2.227950e-09
-3.236520e-09
1.932480e-09
-7.195300e-10
-1.256900e-10
-3.021040e-10
4.713380e-11
-2.227950e-09
-2.372400e-09
1.748390e-09
-7.195300e-10
-4.352020e-09
-3.021040e-10
-3.456480e-10
-2.227950e-09
-3.236520e-09
1.748390e-09
5.923140e-09
-1.256900e-10
-3.021040e-10
-8.798300e-10
-1.605530e-09
-2.372400e-09
1.748390e-09
-1.146920e-09
-6.879330e-09
-3.021040e-10
-3.456480e-10
-1.605530e-09
-2.388110e-09
1.748390e-09
5.923140e-09
-6.879330e-09
-1.249040e-08
-8.798300e-10
-1.605530e-09
-2.953720e-09
-2.488470e-09
-1.146920e-09
-6.879330e-09
-1.681100e-09
-1.306030e-09
-1.605530e-09
-2.388110e-09
-2.488470e-09
-2.073890e-09
-6.879330e-09
-1.249040e-08
-1.306030e-09
-9.583870e-10
-2.953720e-09
-2.488470e-09
4.399150e-10
2.089140e-09
-1.681100e-09
-1.306030e-09
1.586840e-09
5.984350e-09
-2.488470e-09
-2.073890e-09
2.089140e-09
3.723570e-09
-1.306030e-09
-9.583870e-10
5.984350e-09
1.036940e-08
4.399150e-10
2.089140e-09
7.541400e-10
1.193750e-09
1.586840e-09
5.984350e-09
9.426750e-11
1.857320e-09
2.089140e-09
3.723570e-09
1.193750e-09
1.618260e-09
5.984350e-09
1.036940e-08
1.857320e-09
3.472190e-09
7.541400e-10
1.193750e-09
-3.613590e-10
-1.405990e-09
9.426750e-11
1.857320e-09
-1.665390e-09
-2.006040e-09
1.193750e-09
1.618260e-09
-1.405990e-09
-2.513800e-09
1.857320e-09
3.472190e-09
-2.006040e-09
-2.403820e-09
-3.613590e-10
-1.405990e-09
5.341830e-10
3.612900e-10
-1.665390e-09
-2.006040e-09
1.099790e-09
-1.827390e-09
-1.405990e-09
-2.513800e-09
3.612900e-10
0.000000e+00
-2.006040e-09
-2.403820e-09
-1.827390e-09
-4.807640e-09
5.341830e-10
3.612900e-10
2.011040e-09
1.612030e-09
1.099790e-09
-1.827390e-09
8.012740e-10
8.034770e-10
3.612900e-10
0.000000e+00
1.612030e-09
1.146920e-09
-1.827390e-09
-4.807640e-09
8.034770e-10
8.169850e-10
2.011040e-09
1.612030e-09
5.970280e-10
2.964640e-10
8.012740e-10
8.034770e-10
3.770700e-10
-1.491250e-10
1.612030e-09
1.146920e-09
2.964640e-10
-1.571130e-11
8.034770e-10
8.169850e-10
-1.491250e-10
-7.070060e-10
5.970280e-10
2.964640e-10
-7.698510e-10
-3.990740e-10
3.770700e-10
-1.491250e-10
-4.399150e-10
-7.337270e-11
2.964640e-10
-1.571130e-11
-3.990740e-10
0.000000e+00
-1.491250e-10
-7.070060e-10
-7.337270e-11
3.299360e-10
-7.698510e-10
-3.990740e-10
-7.855630e-10
-6.483310e-10
-4.399150e-10
-7.337270e-11
-7.698510e-10
-3.923860e-10
-3.990740e-10
0.000000e+00
-6.483310e-10
-5.184710e-10
-7.337270e-11
3.299360e-10
-3.923860e-10
0.000000e+00
</DataArray>
<DataArray type="Float32" Name="V2" format="ascii">
0.000000e+00
0.000000e+00
1.370880e-02
1.370880e-02
0.000000e+00
0.000000e+00
1.370880e-02
1.370870e-02
0.000000e+00
0.000000e+00
1.370880e-02
1.370880e-02
0.000000e+00
0.000000e+00
1.370870e-02
1.370880e-02
1.370880e-02
1.370880e-02
3.008250e-02
3.008250e-02
1.370880e-02
1.370870e-02
3.008250e-02
3.008250e-02
1.370880e-02
1.370880e-02
3.008250e-02
3.008250e-02
1.370870e-02
1.370880e-02
3.008250e-02
3.008250e-02
3.008250e-02
3.008250e-02
4.429900e-02
4.429890e-02
3.008250e-02
3.008250e-02
4.429890e-02
4.429890e-02
3.008250e-02
3.008250e-02
4.429890e-02
4.429890e-02
3.008250e-02
3.008250e-02
4.429890e-02
4.429890e-02
4.429900e-02
4.429890e-02
5.308850e-02
5.308850e-02
4.429890e-02
4.429890e-02
5.308850e-02
5.308850e-02
4.429890e-02
4.429890e-02
5.308850e-02
5.308850e-02
4.429890e-02
4.429890e-02
5.308850e-02
5.308850e-02
5.308850e-02
5.308850e-02
4.406410e-02
4.406410e-02
5.308850e-02
5.308850e-02
4.406410e-02
4.406410e-02
5.308850e-02
5.308850e-02
4.406410e-02
4.406410e-02
5.308850e-02
5.308850e-02
4.406410e-02
4.406410e-02
4.406410e-02
4.406410e-02
1.302840e-02
1.302840e-02
4.406410e-02
4.406410e-02
1.302840e-02
1.302840e-02
4.406410e-02
4.406410e-02
1.302840e-02
1.302840e-02
4.406410e-02
4.406410e-02
1.302840e-02
1.302840e-02
1.302840e-02
1.302840e-02
-1.617100e-02
-1.617100e-02
1.302840e-02
1.302840e-02
-1.617090e-02
-1.617100e-02
1.302840e-02
1.302840e-02
-1.617100e-02
-1.617100e-02
1.302840e-02
1.302840e-02
-1.617100e-02
-1.617090e-02
-1.617100e-02
-1.617100e-02
-2.440670e-02
-2.440670e-02
-1.617090e-02
-1.617100e-02
-2.440670e-02
-2.440670e-02
-1.617100e-02
-1.617100e-02
-2.440670e-02
-2.440670e-02
-1.617100e-02
-1.617090e-02
-2.440670e-02
-2.440670e-02
-2.440670e-02
-2.440670e-02
-4.243570e-03
-4.243570e-03
-2.440670e-02
-2.440670e-02
-4.243570e-03
-4.243580e-03
-2.440670e-02
-2.440670e-02
-4.243570e-03
-4.243570e-03
-2.440670e-02
-2.440670e-02
-4.243580e-03
-4.243570e-03
-4.243570e-03
-4.243570e-03
1.863970e-02
1.863970e-02
-4.243570e-03
-4.243580e-03
1.863970e-02
1.863970e-02
-4.243570e-03
-4.243570e-03
1.863970e-02
1.863980e-02
-4.243580e-03
-4.243570e-03
1.863970e-02
1.863970e-02
1.863970e-02
1.863970e-02
4.355220e-03
4.355220e-03
1.863970e-02
1.863970e-02
4.355220e-03
4.355220e-03
1.863970e-02
1.863980e-02
4.355220e-03
4.355230e-03
1.863970e-02
1.863970e-02
4.355220e-03
4.355220e-03
4.355220e-03
4.355220e-03
-1.216590e-02
-1.216590e-02
4.355220e-03
4.355220e-03
-1.216590e-02
-1.216590e-02
4.355220e-03
4.355230e-03
-1.216590e-02
-1.216590e-02
4.355220e-03
4.355220e-03
-1.216590e-02
-1.216590e-02
-1.216590e-02
-1.216590e-02
-3.263240e-04
-3.263210e-04
-1.216590e-02
-1.216590e-02
-3.263220e-04
-3.263210e-04
-1.216590e-02
-1.216590e-02
-3.263210e-04
-3.263250e-04
-1.216590e-02
-1.216590e-02
-3.263210e-04
-3.263210e-04
-3.263240e-04
-3.263210e-04
5.818510e-03
5.818500e-03
-3.263220e-04
-3.263210e-04
5.818510e-03
5.818510e-03
-3.263210e-04
-3.263250e-04
5.818500e-03
5.818500e-03
-3.263210e-04
-3.263210e-04
5.818510e-03
5.818510e-03
5.818510e-03
5.818500e-03
-2.136620e-03
-2.136620e-03
5.818510e-03
5.818510e-03
-2.136620e-03
-2.136620e-03
5.818500e-03
5.818500e-03
-2.136620e-03
-2.136620e-03
5.818510e-03
5.818510e-03
-2.136620e-03
-2.136630e-03
-2.136620e-03
-2.136620e-03
-1.799120e-03
-1.799130e-03
-2.136620e-03
-2.136620e-03
-1.799130e-03
-1.799130e-03
-2.136620e-03
-2.136620e-03
-1.799130e-03
-1.799130e-03
-2.136620e-03
-2.136630e-03
-1.799130e-03
-1.799130e-03
-1.799120e-03
-1.799130e-03
1.258090e-03
1.258100e-03
-1.799130e-03
-1.799130e-03
1.258100e-03
1.258110e-03
-1.799130e-03
-1.799130e-03
1.258100e-03
1.258100e-03
-1.799130e-03
-1.799130e-03
1.258110e-03
1.258100e-03
1.258090e-03
1.258100e-03
-4.716980e-04
-4.716960e-04
1.258100e-03
1.258110e-03
-4.716980e-04
-4.717020e-04
1.258100e-03
1.258100e-03
-4.716960e-04
-4.717000e-04
1.258110e-03
1.258100e-03
-4.717020e-04
-4.716910e-04
-4.716980e-04
-4.716960e-04
-8.687070e-04
-8.687070e-04
-4.716980e-04
-4.717020e-04
-8.687060e-04
-8.687040e-04
-4.716960e-04
-4.717000e-04
-8.687070e-04
-8.687050e-04
-4.717020e-04
-4.716910e-04
-8.687040e-04
-8.687220e-04
-8.687070e-04
-8.687070e-04
-1.030760e-04
-1.030870e-04
-8.687060e-04
-8.687040e-04
-1.030950e-04
-1.030910e-04
-8.687070e-04
-8.687050e-04
-1.030870e-04
-1.031040e-04
-8.687040e-04
-8.687220e-04
-1.030910e-04
-1.030880e-04
-1.030760e-04
-1.030870e-04
-3.742840e-04
-3.742310e-04
-1.030950e-04
-1.030910e-04
-3.742300e-04
-3.742700e-04
-1.030870e-04
-1.031040e-04
-3.742310e-04
-3.742480e-04
-1.030910e-04
-1.030880e-04
-3.742700e-04
-3.742650e-04
-3.742840e-04
-3.742310e-04
-5.079920e-04
-5.080170e-04
-3.742300e-04
-3.742700e-04
-5.080130e-04
-5.079840e-04
-3.742310e-04
-3.742480e-04
-5.080170e-04
-5.079640e-04
-3.742700e-04
-3.742650e-04
-5.079840e-04
-5.079580e-04
-5.079920e-04
-5.080170e-04
-6.425310e-04
-6.425710e-04
-5.080130e-04
-5.079840e-04
-6.425720e-04
-6.425780e-04
-5.080170e-04
-5.079640e-04
-6.425710e-04
-6.425680e-04
-5.079840e-04
-5.079580e-04
-6.425780e-04
-6.425640e-04
-6.425310e-04
-6.425710e-04
-2.363140e-04
-2.362140e-04
-6.425720e-04
-6.425780e-04
-2.362150e-04
-2.362160e-04
-6.425710e-04
-6.425680e-04
-2.362140e-04
-2.362170e-04
-6.425780e-04
-6.425640e-04
-2.362160e-04
-2.362140e-04
-2.363140e-04
-2.362140e-04
5.526160e-05
5.520510e-05
-2.362150e-04
-2.362160e-04
5.520920e-05
5.520710e-05
-2.362140e-04
-2.362170e-04
5.520510e-05
5.519240e-05
-2.362160e-04
-2.362140e-04
5.520710e-05
5.518710e-05
5.526160e-05
5.520510e-05
-8.535480e-06
-8.593050e-06
5.520920e-05
5.520710e-05
-8.591540e-06
-8.596190e-06
5.520510e-05
5.519240e-05
-8.593050e-06
-8.629250e-06
5.520710e-05
5.518710e-05
-8.596190e-06
-8.644210e-06
-8.535480e-06
-8.593050e-06
-2.191460e-05
-2.187660e-05
-8.591540e-06
-8.596190e-06
-2.187660e-05
-2.183640e-05
-8.593050e-06
-8.629250e-06
-2.187660e-05
-2.181880e-05
-8.596190e-06
-8.644210e-06
-2.183640e-05
-2.181150e-05
-2.191460e-05
-2.187660e-05
3.802400e-05
3.802850e-05
-2.187660e-05
-2.183640e-05
3.802900e-05
3.800210e-05
-2.187660e-05
-2.181880e-05
3.802850e-05
3.801290e-05
-2.183640e-05
-2.181150e-05
3.800210e-05
3.801440e-05
3.802400e-05
3.802850e-05
-1.339350e-04
-1.339350e-04
3.802900e-05
3.800210e-05
-1.339350e-04
-1.339340e-04
3.802850e-05
3.801290e-05
-1.339350e-04
-1.339360e-04
3.800210e-05
3.801440e-05
-1.339340e-04
-1.339310e-04
-1.339350e-04
-1.339350e-04
3.665330e-04
3.665430e-04
-1.339350e-04
-1.339340e-04
3.665430e-04
3.665450e-04
-1.339350e-04
-1.339360e-04
3.665430e-04
3.665490e-04
-1.339340e-04
-1.339310e-04
3.665450e-04
3.665420e-04
0.000000e+00
0.000000e+00
1.370880e-02
1.370870e-02
0.000000e+00
0.000000e+00
1.370880e-02
1.370880e-02
0.000000e+00
0.000000e+00
1.370870e-02
1.370880e-02
0.000000e+00
0.000000e+00
1.370880e-02
1.370880e-02
1.370880e-02
1.370870e-02
3.008250e-02
3.008250e-02
1.370880e-02
1.370880e-02
3.008250e-02
3.008250e-02
1.370870e-02
1.370880e-02
3.008250e-02
3.008250e-02
1.370880e-02
1.370880e-02
3.008250e-02
3.008250e-02