<?xml version="1.0"?>
<VTKFile type="UnstructuredGrid" version="0.1" byte_order="LittleEndian" compressor="vtkZLibDataCompressor">
<UnstructuredGrid>
<Piece NumberOfPoints="960" NumberOfCells="120">
<Points>
<DataArray type="Float32" NumberOfComponents="3" format="ascii">
-4.000000e+02 -6.000000e+03 -4.000000e+02
0.000000e+00 -6.000000e+03 -4.000000e+02
-4.000000e+02 -5.600000e+03 -4.000000e+02
5.571850e-10 -5.600000e+03 -4.000000e+02
-4.000000e+02 -6.000000e+03 0.000000e+00
0.000000e+00 -6.000000e+03 0.000000e+00
-4.000000e+02 -5.600000e+03 1.202660e-09
4.717510e-10 -5.600000e+03 2.578620e-10
0.000000e+00 -6.000000e+03 -4.000000e+02
4.000000e+02 -6.000000e+03 -4.000000e+02
5.571850e-10 -5.600000e+03 -4.000000e+02
4.000000e+02 -5.600000e+03 -4.000000e+02
0.000000e+00 -6.000000e+03 0.000000e+00
4.000000e+02 -6.000000e+03 0.000000e+00
4.717510e-10 -5.600000e+03 2.578620e-10
4.000000e+02 -5.600000e+03 -6.172900e-11
-4.000000e+02 -5.600000e+03 -4.000000e+02
5.571850e-10 -5.600000e+03 -4.000000e+02
-4.000000e+02 -5.200000e+03 -4.000000e+02
8.184870e-10 -5.200000e+03 -4.000000e+02
-4.000000e+02 -5.600000e+03 1.202660e-09
4.717510e-10 -5.600000e+03 2.578620e-10
-4.000000e+02 -5.200000e+03 1.126570e-09
1.836460e-09 -5.200000e+03 1.149340e-09
5.571850e-10 -5.600000e+03 -4.000000e+02
4.000000e+02 -5.600000e+03 -4.000000e+02
8.184870e-10 -5.200000e+03 -4.000000e+02
4.000000e+02 -5.200000e+03 -4.000000e+02
4.717510e-10 -5.600000e+03 2.578620e-10
4.000000e+02 -5.600000e+03 -6.172900e-11
1.836460e-09 -5.200000e+03 1.149340e-09
4.000000e+02 -5.200000e+03 2.530570e-10
-4.000000e+02 -5.200000e+03 -4.000000e+02
8.184870e-10 -5.200000e+03 -4.000000e+02
-4.000000e+02 -4.800000e+03 -4.000000e+02
-1.935060e-10 -4.800000e+03 -4.000000e+02
-4.000000e+02 -5.200000e+03 1.126570e-09
1.836460e-09 -5.200000e+03 1.149340e-09
-4.000000e+02 -4.800000e+03 8.351910e-10
2.114770e-10 -4.800000e+03 -6.241540e-10
8.184870e-10 -5.200000e+03 -4.000000e+02
4.000000e+02 -5.200000e+03 -4.000000e+02
-1.935060e-10 -4.800000e+03 -4.000000e+02
4.000000e+02 -4.800000e+03 -4.000000e+02
1.836460e-09 -5.200000e+03 1.149340e-09
4.000000e+02 -5.200000e+03 2.530570e-10
2.114770e-10 -4.800000e+03 -6.241540e-10
4.000000e+02 -4.800000e+03 1.142510e-09
-4.000000e+02 -4.800000e+03 -4.000000e+02
-1.935060e-10 -4.800000e+03 -4.000000e+02
-4.000000e+02 -4.400000e+03 -4.000000e+02
-3.123090e-10 -4.400000e+03 -4.000000e+02
-4.000000e+02 -4.800000e+03 8.351910e-10
2.114770e-10 -4.800000e+03 -6.241540e-10
-4.000000e+02 -4.400000e+03 1.047950e-09
1.338850e-09 -4.400000e+03 3.959350e-10
-1.935060e-10 -4.800000e+03 -4.000000e+02
4.000000e+02 -4.800000e+03 -4.000000e+02
-3.123090e-10 -4.400000e+03 -4.000000e+02
4.000000e+02 -4.400000e+03 -4.000000e+02
2.114770e-10 -4.800000e+03 -6.241540e-10
4.000000e+02 -4.800000e+03 1.142510e-09
1.338850e-09 -4.400000e+03 3.959350e-10
4.000000e+02 -4.400000e+03 1.359160e-09
-4.000000e+02 -4.400000e+03 -4.000000e+02
-3.123090e-10 -4.400000e+03 -4.000000e+02
-4.000000e+02 -4.000000e+03 -4.000000e+02
2.174320e-09 -4.000000e+03 -4.000000e+02
-4.000000e+02 -4.400000e+03 1.047950e-09
1.338850e-09 -4.400000e+03 3.959350e-10
-4.000000e+02 -4.000000e+03 2.191370e-09
2.577820e-09 -4.000000e+03 3.314930e-09
-3.123090e-10 -4.400000e+03 -4.000000e+02
4.000000e+02 -4.400000e+03 -4.000000e+02
2.174320e-09 -4.000000e+03 -4.000000e+02
4.000000e+02 -4.000000e+03 -4.000000e+02
1.338850e-09 -4.400000e+03 3.959350e-10
4.000000e+02 -4.400000e+03 1.359160e-09
2.577820e-09 -4.000000e+03 3.314930e-09
4.000000e+02 -4.000000e+03 2.627560e-09
-4.000000e+02 -4.000000e+03 -4.000000e+02
2.174320e-09 -4.000000e+03 -4.000000e+02
-4.000000e+02 -3.600010e+03 -4.000000e+02
1.054130e-09 -3.600010e+03 -4.000000e+02
-4.000000e+02 -4.000000e+03 2.191370e-09
2.577820e-09 -4.000000e+03 3.314930e-09
-4.000000e+02 -3.600010e+03 2.615010e-09
1.898280e-09 -3.600010e+03 2.374790e-09
2.174320e-09 -4.000000e+03 -4.000000e+02
4.000000e+02 -4.000000e+03 -4.000000e+02
1.054130e-09 -3.600010e+03 -4.000000e+02
4.000000e+02 -3.600010e+03 -4.000000e+02
2.577820e-09 -4.000000e+03 3.314930e-09
4.000000e+02 -4.000000e+03 2.627560e-09
1.898280e-09 -3.600010e+03 2.374790e-09
4.000000e+02 -3.600010e+03 2.643700e-09
-4.000000e+02 -3.600010e+03 -4.000000e+02
1.054130e-09 -3.600010e+03 -4.000000e+02
-4.000000e+02 -3.200010e+03 -4.000000e+02
9.560900e-10 -3.200010e+03 -4.000000e+02
-4.000000e+02 -3.600010e+03 2.615010e-09
1.898280e-09 -3.600010e+03 2.374790e-09
-4.000000e+02 -3.200010e+03 3.469500e-09
-4.849890e-10 -3.200010e+03 2.479300e-09
1.054130e-09 -3.600010e+03 -4.000000e+02
4.000000e+02 -3.600010e+03 -4.000000e+02
9.560900e-10 -3.200010e+03 -4.000000e+02
4.000000e+02 -3.200010e+03 -4.000000e+02
1.898280e-09 -3.600010e+03 2.374790e-09
4.000000e+02 -3.600010e+03 2.643700e-09
-4.849890e-10 -3.200010e+03 2.479300e-09
4.000000e+02 -3.200010e+03 5.213060e-10
-4.000000e+02 -3.200010e+03 -4.000000e+02
9.560900e-10 -3.200010e+03 -4.000000e+02
-4.000000e+02 -2.800010e+03 -4.000000e+02
1.186510e-09 -2.800010e+03 -4.000000e+02
-4.000000e+02 -3.200010e+03 3.469500e-09
-4.849890e-10 -3.200010e+03 2.479300e-09
-4.000000e+02 -2.800010e+03 4.361610e-09
2.481650e-09 -2.800010e+03 5.224180e-09
9.560900e-10 -3.200010e+03 -4.000000e+02
4.000000e+02 -3.200010e+03 -4.000000e+02
1.186510e-09 -2.800010e+03 -4.000000e+02
4.000000e+02 -2.800010e+03 -4.000000e+02
-4.849890e-10 -3.200010e+03 2.479300e-09
4.000000e+02 -3.200010e+03 5.213060e-10
2.481650e-09 -2.800010e+03 5.224180e-09
4.000000e+02 -2.800010e+03 3.156720e-09
-4.000000e+02 -2.800010e+03 -4.000000e+02
1.186510e-09 -2.800010e+03 -4.000000e+02
-4.000000e+02 -2.400020e+03 -4.000000e+02
-2.548570e-09 -2.400020e+03 -4.000000e+02
-4.000000e+02 -2.800010e+03 4.361610e-09
2.481650e-09 -2.800010e+03 5.224180e-09
-4.000000e+02 -2.400020e+03 -5.610940e-10
-2.970750e-09 -2.400020e+03 -6.001620e-10
1.186510e-09 -2.800010e+03 -4.000000e+02
4.000000e+02 -2.800010e+03 -4.000000e+02
-2.548570e-09 -2.400020e+03 -4.000000e+02
4.000000e+02 -2.400020e+03 -4.000000e+02
2.481650e-09 -2.800010e+03 5.224180e-09
4.000000e+02 -2.800010e+03 3.156720e-09
-2.970750e-09 -2.400020e+03 -6.001620e-10
4.000000e+02 -2.400020e+03 -2.824510e-12
-4.000000e+02 -2.400020e+03 -4.000000e+02
-2.548570e-09 -2.400020e+03 -4.000000e+02
-4.000000e+02 -2.000040e+03 -4.000000e+02
2.098460e-09 -2.000040e+03 -4.000000e+02
-4.000000e+02 -2.400020e+03 -5.610940e-10
-2.970750e-09 -2.400020e+03 -6.001620e-10
-4.000000e+02 -2.000040e+03 4.132180e-09
-3.457580e-11 -2.000040e+03 6.110690e-10
-2.548570e-09 -2.400020e+03 -4.000000e+02
4.000000e+02 -2.400020e+03 -4.000000e+02
2.098460e-09 -2.000040e+03 -4.000000e+02
4.000000e+02 -2.000040e+03 -4.000000e+02
-2.970750e-09 -2.400020e+03 -6.001620e-10
4.000000e+02 -2.400020e+03 -2.824510e-12
-3.457580e-11 -2.000040e+03 6.110690e-10
4.000000e+02 -2.000040e+03 -4.003130e-09
-4.000000e+02 -2.000040e+03 -4.000000e+02
2.098460e-09 -2.000040e+03 -4.000000e+02
-4.000000e+02 -1.600060e+03 -4.000000e+02
-7.481720e-10 -1.600060e+03 -4.000000e+02
-4.000000e+02 -2.000040e+03 4.132180e-09
-3.457580e-11 -2.000040e+03 6.110690e-10
-4.000000e+02 -1.600060e+03 -3.031480e-09
3.507690e-09 -1.600060e+03 4.619350e-10
2.098460e-09 -2.000040e+03 -4.000000e+02
4.000000e+02 -2.000040e+03 -4.000000e+02
-7.481720e-10 -1.600060e+03 -4.000000e+02
4.000000e+02 -1.600060e+03 -4.000000e+02
-3.457580e-11 -2.000040e+03 6.110690e-10
4.000000e+02 -2.000040e+03 -4.003130e-09
3.507690e-09 -1.600060e+03 4.619350e-10
4.000000e+02 -1.600060e+03 2.707030e-09
-4.000000e+02 -1.600060e+03 -4.000000e+02
-7.481720e-10 -1.600060e+03 -4.000000e+02
-4.000000e+02 -1.200110e+03 -4.000000e+02
-5.970560e-09 -1.200110e+03 -4.000000e+02
-4.000000e+02 -1.600060e+03 -3.031480e-09
3.507690e-09 -1.600060e+03 4.619350e-10
-4.000000e+02 -1.200110e+03 -7.582500e-09
-5.630030e-09 -1.200110e+03 -8.172740e-09
-7.481720e-10 -1.600060e+03 -4.000000e+02
4.000000e+02 -1.600060e+03 -4.000000e+02
-5.970560e-09 -1.200110e+03 -4.000000e+02
4.000000e+02 -1.200110e+03 -4.000000e+02
3.507690e-09 -1.600060e+03 4.619350e-10
4.000000e+02 -1.600060e+03 2.707030e-09
-5.630030e-09 -1.200110e+03 -8.172740e-09
4.000000e+02 -1.200110e+03 -3.578730e-09
-4.000000e+02 -1.200110e+03 -4.000000e+02
-5.970560e-09 -1.200110e+03 -4.000000e+02
-4.000000e+02 -8.001670e+02 -4.000000e+02
9.645220e-09 -8.001670e+02 -4.000000e+02
-4.000000e+02 -1.200110e+03 -7.582500e-09
-5.630030e-09 -1.200110e+03 -8.172740e-09
-4.000000e+02 -8.001670e+02 8.594430e-09
6.046110e-09 -8.001670e+02 4.802950e-09
-5.970560e-09 -1.200110e+03 -4.000000e+02
4.000000e+02 -1.200110e+03 -4.000000e+02
9.645220e-09 -8.001670e+02 -4.000000e+02
4.000000e+02 -8.001670e+02 -4.000000e+02
-5.630030e-09 -1.200110e+03 -8.172740e-09
4.000000e+02 -1.200110e+03 -3.578730e-09
6.046110e-09 -8.001670e+02 4.802950e-09
4.000000e+02 -8.001670e+02 -5.060900e-09
-4.000000e+02 -8.001670e+02 -4.000000e+02
9.645220e-09 -8.001670e+02 -4.000000e+02
-4.000000e+02 -4.002380e+02 -4.000000e+02
-1.114700e-10 -4.002380e+02 -4.000000e+02
-4.000000e+02 -8.001670e+02 8.594430e-09
6.046110e-09 -8.001670e+02 4.802950e-09
-4.000000e+02 -4.002380e+02 -4.903940e-09
8.694700e-09 -4.002380e+02 5.953010e-09
9.645220e-09 -8.001670e+02 -4.000000e+02
4.000000e+02 -8.001670e+02 -4.000000e+02
-1.114700e-10 -4.002380e+02 -4.000000e+02
4.000000e+02 -4.002380e+02 -4.000000e+02
6.046110e-09 -8.001670e+02 4.802950e-09
4.000000e+02 -8.001670e+02 -5.060900e-09
8.694700e-09 -4.002380e+02 5.953010e-09
4.000000e+02 -4.002380e+02 6.049450e-09
-4.000000e+02 -4.002380e+02 -4.000000e+02
-1.114700e-10 -4.002380e+02 -4.000000e+02
-4.000000e+02 -3.053920e-01 -4.000000e+02
6.675240e-09 -3.053920e-01 -4.000000e+02
-4.000000e+02 -4.002380e+02 -4.903940e-09
8.694700e-09 -4.002380e+02 5.953010e-09
-4.000000e+02 -3.053920e-01 2.200650e-08
-4.437260e-09 -3.053920e-01 3.663440e-09
-1.114700e-10 -4.002380e+02 -4.000000e+02
4.000000e+02 -4.002380e+02 -4.000000e+02
6.675240e-09 -3.053920e-01 -4.000000e+02
4.000000e+02 -3.053920e-01 -4.000000e+02
[...]
<PointData>
<DataArray type="Float32" Name="V1" format="ascii">
0.000000e+00
0.000000e+00
5.341830e-10
4.023010e-10
0.000000e+00
0.000000e+00
-3.409340e-09
-1.611250e-09
0.000000e+00
0.000000e+00
4.023010e-10
-1.131210e-09
0.000000e+00
0.000000e+00
-1.611250e-09
-1.555410e-09
5.341830e-10
4.023010e-10
2.749470e-09
-1.863090e-10
-3.409340e-09
-1.611250e-09
-5.656050e-10
1.968350e-09
4.023010e-10
-1.131210e-09
-1.863090e-10
-2.136730e-09
-1.611250e-09
-1.555410e-09
1.968350e-09
3.676430e-09
2.749470e-09
-1.863090e-10
-3.770700e-10
-7.699950e-10
-5.656050e-10
1.968350e-09
-1.665390e-09
-1.071210e-09
-1.863090e-10
-2.136730e-09
-7.699950e-10
-7.384290e-10
1.968350e-09
3.676430e-09
-1.071210e-09
4.713380e-11
-3.770700e-10
-7.699950e-10
2.796600e-09
1.572720e-09
-1.665390e-09
-1.071210e-09
-6.912950e-10
-4.796740e-10
-7.699950e-10
-7.384290e-10
1.572720e-09
5.027600e-10
-1.071210e-09
4.713380e-11
-4.796740e-10
-9.112530e-10
2.796600e-09
1.572720e-09
-1.633970e-09
5.563450e-10
-6.912950e-10
-4.796740e-10
2.655200e-09
3.325840e-10
1.572720e-09
5.027600e-10
5.563450e-10
4.367730e-09
-4.796740e-10
-9.112530e-10
3.325840e-10
-3.299360e-10
-1.633970e-09
5.563450e-10
-3.503610e-09
-1.716010e-09
2.655200e-09
3.325840e-10
8.326970e-10
-1.697870e-09
5.563450e-10
4.367730e-09
-1.716010e-09
-1.775370e-09
3.325840e-10
-3.299360e-10
-1.697870e-09
-4.273460e-09
-3.503610e-09
-1.716010e-09
5.341830e-10
9.305700e-10
8.326970e-10
-1.697870e-09
0.000000e+00
6.525920e-10
-1.716010e-09
-1.775370e-09
9.305700e-10
5.121870e-09
-1.697870e-09
-4.273460e-09
6.525920e-10
1.838220e-09
5.341830e-10
9.305700e-10
-5.970280e-10
-1.001540e-09
0.000000e+00
6.525920e-10
-1.256900e-09
-5.459810e-11
9.305700e-10
5.121870e-09
-1.001540e-09
-2.152440e-09
6.525920e-10
1.838220e-09
-5.459810e-11
3.377920e-09
-5.970280e-10
-1.001540e-09
-2.938000e-09
-3.075710e-09
-1.256900e-09
-5.459810e-11
3.519320e-09
-1.090240e-09
-1.001540e-09
-2.152440e-09
-3.075710e-09
-1.916770e-09
-5.459810e-11
3.377920e-09
-1.090240e-09
-5.876010e-09
-2.938000e-09
-3.075710e-09
3.205100e-09
5.274520e-09
3.519320e-09
-1.090240e-09
-5.656050e-10
4.652260e-09
-3.075710e-09
-1.916770e-09
5.274520e-09
9.285350e-09
-1.090240e-09
-5.876010e-09
4.652260e-09
9.081110e-09
3.205100e-09
5.274520e-09
-5.656050e-09
-1.117480e-08
-5.656050e-10
4.652260e-09
-2.105310e-09
-6.608830e-09
5.274520e-09
9.285350e-09
-1.117480e-08
-1.589980e-08
4.652260e-09
9.081110e-09
-6.608830e-09
-1.099790e-08
-5.656050e-09
-1.117480e-08
5.011890e-09
6.829430e-09
-2.105310e-09
-6.608830e-09
1.948200e-09
2.435290e-10
-1.117480e-08
-1.589980e-08
6.829430e-09
9.301060e-09
-6.608830e-09
-1.099790e-08
2.435290e-10
-2.513800e-10
5.011890e-09
6.829430e-09
-4.304880e-09
4.600020e-09
1.948200e-09
2.435290e-10
-1.539700e-09
1.174750e-08
6.829430e-09
9.301060e-09
4.600020e-09
1.131210e-08
2.435290e-10
-2.513800e-10
1.174750e-08
2.358260e-08
-4.304880e-09
4.600020e-09
1.316600e-08
-3.662710e-09
-1.539700e-09
1.174750e-08
8.609770e-09
-1.109950e-08
4.600020e-09
1.131210e-08
-3.662710e-09
-1.990620e-08
1.174750e-08
2.358260e-08
-1.109950e-08
-2.900300e-08
1.316600e-08
-3.662710e-09
-1.948200e-09
3.873070e-09
8.609770e-09
-1.109950e-08
-1.167350e-08
-1.814960e-09
-3.662710e-09
-1.990620e-08
3.873070e-09
1.135920e-08
-1.109950e-08
-2.900300e-08
-1.814960e-09
7.714230e-09
-1.948200e-09
3.873070e-09
-1.729810e-08
-1.265580e-08
-1.167350e-08
-1.814960e-09
2.389680e-08
3.746390e-09
3.873070e-09
1.135920e-08
-1.265580e-08
-4.100640e-09
-1.814960e-09
7.714230e-09
3.746390e-09
-1.710960e-08
-1.729810e-08
-1.265580e-08
2.963140e-08
-5.625640e-09
2.389680e-08
3.746390e-09
-4.765220e-08
1.964910e-08
-1.265580e-08
-4.100640e-09
-5.625640e-09
-4.298600e-08
3.746390e-09
-1.710960e-08
1.964910e-08
8.762170e-08
2.963140e-08
-5.625640e-09
2.914440e-08
1.044350e-07
-4.765220e-08
1.964910e-08
4.859490e-08
-2.398300e-08
-5.625640e-09
-4.298600e-08
1.044350e-07
1.782130e-07
1.964910e-08
8.762170e-08
-2.398300e-08
-9.313630e-08
2.914440e-08
1.044350e-07
4.941190e-08
-2.452340e-08
4.859490e-08
-2.398300e-08
1.374730e-08
-1.139400e-08
1.044350e-07
1.782130e-07
-2.452340e-08
-9.811680e-08
-2.398300e-08
-9.313630e-08
-1.139400e-08
-3.751850e-08
4.941190e-08
-2.452340e-08
-1.995330e-07
-4.558680e-08
1.374730e-08
-1.139400e-08
5.106160e-09
1.710380e-08
-2.452340e-08
-9.811680e-08
-4.558680e-08
1.083760e-07
-1.139400e-08
-3.751850e-08
1.710380e-08
3.432910e-08
-1.995330e-07
-4.558680e-08
1.264440e-07
4.106190e-08
5.106160e-09
1.710380e-08
5.635630e-08
5.413250e-08
-4.558680e-08
1.083760e-07
4.106190e-08
-4.438430e-08
1.710380e-08
3.432910e-08
5.413250e-08
5.205140e-08
1.264440e-07
4.106190e-08
-1.841200e-07
-1.230980e-07
5.635630e-08
5.413250e-08
-8.102290e-08
-2.508160e-08
4.106190e-08
-4.438430e-08
-1.230980e-07
-6.168240e-08
5.413250e-08
5.205140e-08
-2.508160e-08
3.095120e-08
-1.841200e-07
-1.230980e-07
-7.822630e-08
-9.142000e-08
-8.102290e-08
-2.508160e-08
-1.737660e-08
-8.656750e-08
-1.230980e-07
-6.168240e-08
-9.142000e-08
-1.045580e-07
-2.508160e-08
3.095120e-08
-8.656750e-08
-1.552740e-07
-7.822630e-08
-9.142000e-08
4.158450e-07
2.092240e-07
-1.737660e-08
-8.656750e-08
1.568140e-07
6.158250e-08
-9.142000e-08
-1.045580e-07
2.092240e-07
3.173670e-09
-8.656750e-08
-1.552740e-07
6.158250e-08
-3.354350e-08
4.158450e-07
2.092240e-07
6.460470e-08
8.001270e-08
1.568140e-07
6.158250e-08
6.484030e-08
5.165660e-08
2.092240e-07
3.173670e-09
8.001270e-08
9.528880e-08
6.158250e-08
-3.354350e-08
5.165660e-08
3.858680e-08
6.460470e-08
8.001270e-08
-4.714480e-07
-1.995940e-07
6.484030e-08
5.165660e-08
-2.860860e-07
-4.523400e-08
8.001270e-08
9.528880e-08
-1.995940e-07
7.228750e-08
5.165660e-08
3.858680e-08
-4.523400e-08
1.955580e-07
-4.714480e-07
-1.995940e-07
-1.446220e-07
-6.662880e-08
-2.860860e-07
-4.523400e-08
-6.887810e-08
-7.770840e-09
-1.995940e-07
7.228750e-08
-6.662880e-08
1.139070e-08
-4.523400e-08
1.955580e-07
-7.770840e-09
5.329260e-08
-1.446220e-07
-6.662880e-08
2.284100e-07
8.331800e-08
-6.887810e-08
-7.770840e-09
1.354940e-07
6.668860e-09
-6.662880e-08
1.139070e-08
8.331800e-08
-6.174520e-08
-7.770840e-09
5.329260e-08
6.668860e-09
-1.221710e-07
2.284100e-07
8.331800e-08
3.117110e-08
1.729020e-08
1.354940e-07
6.668860e-09
8.766880e-09
1.386670e-09
8.331800e-08
-6.174520e-08
1.729020e-08
3.472190e-09
6.668860e-09
-1.221710e-07
1.386670e-09
-6.017410e-09
3.117110e-08
1.729020e-08
-8.656900e-09
-4.072610e-09
8.766880e-09
1.386670e-09
-4.666240e-09
-8.943590e-10
1.729020e-08
3.472190e-09
-4.072610e-09
5.184710e-10
1.386670e-09
-6.017410e-09
-8.943590e-10
2.780890e-09
0.000000e+00
0.000000e+00
-3.409340e-09
-1.611250e-09
0.000000e+00
0.000000e+00
1.775370e-09
2.037510e-10
0.000000e+00
0.000000e+00
-1.611250e-09
-1.555410e-09
0.000000e+00
0.000000e+00
2.037510e-10
-4.084930e-10
-3.409340e-09
-1.611250e-09
-5.656050e-10
1.968350e-09
1.775370e-09
2.037510e-10
2.513800e-09
8.614590e-10
-1.611250e-09
-1.555410e-09
1.968350e-09
3.676430e-09
2.037510e-10
-4.084930e-10
8.614590e-10
-1.225480e-09
-5.656050e-10
1.968350e-09
-1.665390e-09
-1.071210e-09
2.513800e-09
8.614590e-10
-2.749470e-09
-4.693750e-10
1.968350e-09
3.676430e-09
-1.071210e-09
4.713380e-11
8.614590e-10
-1.225480e-09
-4.693750e-10
-7.855630e-11
-1.665390e-09
-1.071210e-09
-6.912950e-10
-4.796740e-10
-2.749470e-09
-4.693750e-10
7.855630e-10
1.471830e-09
-1.071210e-09
4.713380e-11
-4.796740e-10
-9.112530e-10
-4.693750e-10
-7.855630e-11
1.471830e-09
3.990660e-09
-6.912950e-10
-4.796740e-10
2.655200e-09
3.325840e-10
7.855630e-10
1.471830e-09
1.099790e-09
8.416300e-10
-4.796740e-10
-9.112530e-10
3.325840e-10
-3.299360e-10
1.471830e-09
3.990660e-09
8.416300e-10
3.535030e-09
2.655200e-09
3.325840e-10
8.326970e-10
-1.697870e-09
1.099790e-09
8.416300e-10
-5.341830e-10
-7.840710e-10
3.325840e-10
-3.299360e-10
-1.697870e-09
-4.273460e-09
8.416300e-10
3.535030e-09
-7.840710e-10
-2.733760e-09
8.326970e-10
-1.697870e-09
0.000000e+00
6.525920e-10
-5.341830e-10
-7.840710e-10
2.450960e-09
-9.668610e-10
-1.697870e-09
-4.273460e-09
6.525920e-10
1.838220e-09
-7.840710e-10
-2.733760e-09
-9.668610e-10
-1.272610e-09
0.000000e+00
6.525920e-10
-1.256900e-09
-5.459810e-11
2.450960e-09
-9.668610e-10
1.272610e-09
1.775020e-09
6.525920e-10
1.838220e-09
-5.459810e-11
3.377920e-09
-9.668610e-10
-1.272610e-09
1.775020e-09
4.697670e-09
-1.256900e-09
-5.459810e-11
3.519320e-09
-1.090240e-09
1.272610e-09
1.775020e-09
-1.084080e-09
-6.203600e-09
-5.459810e-11
3.377920e-09
-1.090240e-09
-5.876010e-09
1.775020e-09
4.697670e-09
-6.203600e-09
-5.341830e-09
3.519320e-09
-1.090240e-09
-5.656050e-10
4.652260e-09
-1.084080e-09
-6.203600e-09
1.728240e-09
1.222630e-09
-1.090240e-09
-5.876010e-09
4.652260e-09
9.081110e-09
-6.203600e-09
-5.341830e-09
1.222630e-09
1.005520e-09
-5.656050e-10
4.652260e-09
-2.105310e-09
-6.608830e-09
1.728240e-09
1.222630e-09
-2.121020e-09
4.019720e-09
4.652260e-09
9.081110e-09
-6.608830e-09
-1.099790e-08
1.222630e-09
1.005520e-09
4.019720e-09
1.216050e-08
-2.105310e-09
-6.608830e-09
1.948200e-09
2.435290e-10
-2.121020e-09
4.019720e-09
2.026750e-09
-1.246310e-08
-6.608830e-09
-1.099790e-08
2.435290e-10
-2.513800e-10
4.019720e-09
1.216050e-08
-1.246310e-08
-2.575070e-08
1.948200e-09
2.435290e-10
-1.539700e-09
1.174750e-08
2.026750e-09
-1.246310e-08
-1.049510e-08
4.992030e-09
2.435290e-10
-2.513800e-10
1.174750e-08
2.358260e-08
-1.246310e-08
-2.575070e-08
4.992030e-09
2.033040e-08
-1.539700e-09
1.174750e-08
8.609770e-09
-1.109950e-08
-1.049510e-08
4.992030e-09
1.022800e-08
1.010030e-08
1.174750e-08
2.358260e-08
-1.109950e-08
-2.900300e-08
4.992030e-09
2.033040e-08
1.010030e-08
1.080930e-08
8.609770e-09
-1.109950e-08
-1.167350e-08
-1.814960e-09
1.022800e-08
1.010030e-08
1.256900e-08
-1.332310e-08
-1.109950e-08
-2.900300e-08
-1.814960e-09
7.714230e-09
1.010030e-08
1.080930e-08
-1.332310e-08
-3.792700e-08
-1.167350e-08
-1.814960e-09
2.389680e-08
3.746390e-09
1.256900e-08
-1.332310e-08
-3.872820e-08
5.920160e-09
-1.814960e-09
7.714230e-09
3.746390e-09
-1.710960e-08
-1.332310e-08
-3.792700e-08
5.920160e-09
5.517790e-08
2.389680e-08
3.746390e-09
-4.765220e-08
1.964910e-08
-3.872820e-08
5.920160e-09
6.152530e-08
3.009590e-08
3.746390e-09
-1.710960e-08
1.964910e-08
8.762170e-08
5.920160e-09
5.517790e-08
3.009590e-08
-7.070060e-10
-4.765220e-08
1.964910e-08
4.859490e-08
-2.398300e-08
6.152530e-08
3.009590e-08
-5.687470e-08
-3.505340e-08
1.964910e-08
8.762170e-08
-2.398300e-08
-9.313630e-08
3.009590e-08
-7.070060e-10
-3.505340e-08
-1.201910e-08
4.859490e-08
-2.398300e-08
1.374730e-08
-1.139400e-08
-5.687470e-08
-3.505340e-08
-3.308790e-08
-3.549650e-08
-2.398300e-08
-9.313630e-08
-1.139400e-08
-3.751850e-08
-3.505340e-08
-1.201910e-08
-3.549650e-08
-3.442340e-08
1.374730e-08
-1.139400e-08
5.106160e-09
1.710380e-08
-3.308790e-08
-3.549650e-08
3.019700e-08
-7.611920e-08
-1.139400e-08
-3.751850e-08
1.710380e-08
3.432910e-08
-3.549650e-08
-3.442340e-08
-7.611920e-08
-1.869330e-07
5.106160e-09
1.710380e-08
5.635630e-08
5.413250e-08
3.019700e-08
-7.611920e-08
-2.513800e-10
5.947940e-08
1.710380e-08
3.432910e-08
5.413250e-08
5.205140e-08
-7.611920e-08
-1.869330e-07
5.947940e-08
1.188710e-07
5.635630e-08
5.413250e-08
-8.102290e-08
-2.508160e-08
-2.513800e-10
5.947940e-08
-9.976650e-08
1.398220e-07
5.413250e-08
5.205140e-08
-2.508160e-08
3.095120e-08
5.947940e-08
1.188710e-07
1.398220e-07
3.786570e-07
-8.102290e-08
-2.508160e-08
-1.737660e-08
-8.656750e-08
-9.976650e-08
1.398220e-07
1.169550e-07
-9.605480e-08
-2.508160e-08
3.095120e-08
-8.656750e-08
-1.552740e-07
1.398220e-07
3.786570e-07
-9.605480e-08
-3.076260e-07
-1.737660e-08
-8.656750e-08
1.568140e-07
6.158250e-08
1.169550e-07
-9.605480e-08
1.545670e-07
-7.348800e-08
-8.656750e-08
-1.552740e-07
6.158250e-08
-3.354350e-08
-9.605480e-08
-3.076260e-07
-7.348800e-08
-3.013890e-07
1.568140e-07
6.158250e-08
6.484030e-08
5.165660e-08
1.545670e-07
-7.348800e-08
-4.839070e-09
1.965450e-08
6.158250e-08
-3.354350e-08
5.165660e-08
3.858680e-08
-7.348800e-08
-3.013890e-07
1.965450e-08
4.220040e-08
6.484030e-08
5.165660e-08
-2.860860e-07
-4.523400e-08
-4.839070e-09
1.965450e-08
-2.032720e-07
8.330310e-08
5.165660e-08
3.858680e-08
-4.523400e-08
1.955580e-07
1.965450e-08
4.220040e-08
8.330310e-08
3.699690e-07
-2.860860e-07
-4.523400e-08
-6.887810e-08
-7.770840e-09
-2.032720e-07
8.330310e-08
-4.066070e-08
4.973660e-08
-4.523400e-08
1.955580e-07
-7.770840e-09
5.329260e-08
8.330310e-08
3.699690e-07
4.973660e-08
1.400970e-07
-6.887810e-08
-7.770840e-09
1.354940e-07
6.668860e-09
-4.066070e-08
4.973660e-08
1.052810e-07
-5.375830e-08
-7.770840e-09
5.329260e-08
6.668860e-09
-1.221710e-07
4.973660e-08
1.400970e-07
-5.375830e-08
-2.127930e-07
1.354940e-07
6.668860e-09
8.766880e-09
1.386670e-09
1.052810e-07
-5.375830e-08
-5.546070e-09
-1.086740e-08
6.668860e-09
-1.221710e-07
1.386670e-09
-6.017410e-09
-5.375830e-08
-2.127930e-07
-1.086740e-08
-1.616690e-08
8.766880e-09
1.386670e-09
-4.666240e-09
-8.943590e-10
-5.546070e-09
-1.086740e-08
-2.403820e-09
1.623820e-09
1.386670e-09
-6.017410e-09
-8.943590e-10
2.780890e-09
-1.086740e-08
-1.616690e-08
1.623820e-09
5.703190e-09
</DataArray>
<DataArray type="Float32" Name="V2" format="ascii">
0.000000e+00
0.000000e+00
-8.655620e-05
-8.655370e-05
0.000000e+00
0.000000e+00
-8.656570e-05
-8.656150e-05
0.000000e+00
0.000000e+00
-8.655370e-05
-8.655320e-05
0.000000e+00
0.000000e+00
-8.656150e-05
-8.655470e-05
-8.655620e-05
-8.655370e-05
1.256920e-04
1.256810e-04
-8.656570e-05
-8.656150e-05
1.256850e-04
1.256790e-04
-8.655370e-05
-8.655320e-05
1.256810e-04
1.256800e-04
-8.656150e-05
-8.655470e-05
1.256790e-04
1.256850e-04
1.256920e-04
1.256810e-04
3.251880e-05
3.251200e-05
1.256850e-04
1.256790e-04
3.251880e-05
3.251100e-05
1.256810e-04
1.256800e-04
3.251200e-05
3.252100e-05
1.256790e-04
1.256850e-04
3.251100e-05
3.251480e-05
3.251880e-05
3.251200e-05
5.381880e-04
5.382040e-04
3.251880e-05
3.251100e-05
5.381990e-04
5.381990e-04
3.251200e-05
3.252100e-05
5.382040e-04
5.381930e-04
3.251100e-05
3.251480e-05
5.381990e-04
5.382100e-04
5.381880e-04
5.382040e-04
1.210910e-03
1.210910e-03
5.381990e-04
5.381990e-04
1.210910e-03
1.210910e-03
5.382040e-04
5.381930e-04
1.210910e-03
1.210910e-03
5.381990e-04
5.382100e-04
1.210910e-03
1.210900e-03
1.210910e-03
1.210910e-03
1.269530e-03
1.269540e-03
1.210910e-03
1.210910e-03
1.269540e-03
1.269530e-03
1.210910e-03
1.210910e-03
1.269540e-03
1.269530e-03
1.210910e-03
1.210900e-03
1.269530e-03
1.269540e-03
1.269530e-03
1.269540e-03
2.083940e-03
2.083950e-03
1.269540e-03
1.269530e-03
2.083950e-03
2.083950e-03
1.269540e-03
1.269530e-03
2.083950e-03
2.083950e-03
1.269530e-03
1.269540e-03
2.083950e-03
2.083950e-03
2.083940e-03
2.083950e-03
3.336340e-03
3.336330e-03
2.083950e-03
2.083950e-03
3.336330e-03
3.336320e-03
2.083950e-03
2.083950e-03
3.336330e-03
3.336320e-03
2.083950e-03
2.083950e-03
3.336320e-03
3.336330e-03
3.336340e-03
3.336330e-03
7.636630e-03
7.636640e-03
3.336330e-03
3.336320e-03
7.636640e-03
7.636650e-03
3.336330e-03
3.336320e-03
7.636640e-03
7.636660e-03
3.336320e-03
3.336330e-03
7.636650e-03
7.636650e-03
7.636630e-03
7.636640e-03
1.278380e-02
1.278380e-02
7.636640e-03
7.636650e-03
1.278380e-02
1.278380e-02
7.636640e-03
7.636660e-03
1.278380e-02
1.278380e-02
7.636650e-03
7.636650e-03
1.278380e-02
1.278380e-02
1.278380e-02
1.278380e-02
2.240780e-02
2.240780e-02
1.278380e-02
1.278380e-02
2.240780e-02
2.240780e-02
1.278380e-02
1.278380e-02
2.240780e-02
2.240780e-02
1.278380e-02
1.278380e-02
2.240780e-02
2.240780e-02
2.240780e-02
2.240780e-02
3.461530e-02
3.461530e-02
2.240780e-02
2.240780e-02
3.461530e-02
3.461530e-02
2.240780e-02
2.240780e-02
3.461530e-02
3.461540e-02
2.240780e-02
2.240780e-02
3.461530e-02
3.461540e-02
3.461530e-02
3.461530e-02
4.643940e-02
4.643940e-02
3.461530e-02
3.461530e-02
4.643940e-02
4.643940e-02
3.461530e-02
3.461540e-02
4.643940e-02
4.643930e-02
3.461530e-02
3.461540e-02
4.643940e-02
4.643940e-02
4.643940e-02
4.643940e-02
5.034480e-02
5.034480e-02
4.643940e-02
4.643940e-02
5.034480e-02
5.034470e-02
4.643940e-02
4.643930e-02
5.034480e-02
5.034470e-02
4.643940e-02
4.643940e-02
5.034470e-02
5.034470e-02
5.034480e-02
5.034480e-02
3.774300e-02
3.774300e-02
5.034480e-02
5.034470e-02
3.774300e-02
3.774290e-02
5.034480e-02
5.034470e-02
3.774300e-02
3.774300e-02
5.034470e-02
5.034470e-02
3.774290e-02
3.774300e-02
3.774300e-02
3.774300e-02
1.481890e-02
1.481890e-02
3.774300e-02
3.774290e-02
1.481890e-02
1.481900e-02
3.774300e-02
3.774300e-02
1.481890e-02
1.481900e-02
3.774290e-02
3.774300e-02
1.481900e-02
1.481900e-02
1.481890e-02
1.481890e-02
-1.611740e-02
-1.611750e-02
1.481890e-02
1.481900e-02
-1.611750e-02
-1.611770e-02
1.481890e-02
1.481900e-02
-1.611750e-02
-1.611780e-02
1.481900e-02
1.481900e-02
-1.611770e-02
-1.611760e-02
-1.611740e-02
-1.611750e-02
-2.800830e-02
-2.800830e-02
-1.611750e-02
-1.611770e-02
-2.800830e-02
-2.800810e-02
-1.611750e-02
-1.611780e-02
-2.800830e-02
-2.800800e-02
-1.611770e-02
-1.611760e-02
-2.800810e-02
-2.800840e-02
-2.800830e-02
-2.800830e-02
-7.211040e-03
-7.210680e-03
-2.800830e-02
-2.800810e-02
-7.210730e-03
-7.211020e-03
-2.800830e-02
-2.800800e-02
-7.210680e-03
-7.211140e-03
-2.800810e-02
-2.800840e-02
-7.211020e-03
-7.210890e-03
-7.211040e-03
-7.210680e-03
1.339680e-02
1.339580e-02
-7.210730e-03
-7.211020e-03
1.339610e-02
1.339630e-02
-7.210680e-03
-7.211140e-03
1.339580e-02
1.339650e-02
-7.211020e-03
-7.210890e-03
1.339630e-02
1.339670e-02
1.339680e-02
1.339580e-02
1.369070e-02
1.369190e-02
1.339610e-02
1.339630e-02
1.369130e-02
1.369080e-02
1.339580e-02
1.339650e-02
1.369190e-02
1.369040e-02
1.339630e-02
1.339670e-02
1.369080e-02
1.369040e-02
1.369070e-02
1.369190e-02
-7.080190e-03
-7.081780e-03
1.369130e-02
1.369080e-02
-7.081600e-03
-7.080890e-03
1.369190e-02
1.369040e-02
-7.081780e-03
-7.080670e-03
1.369080e-02
1.369040e-02
-7.080890e-03
-7.081000e-03
-7.080190e-03
-7.081780e-03
-8.650870e-03
-8.650830e-03
-7.081600e-03
-7.080890e-03
-8.650540e-03
-8.649890e-03
-7.081780e-03
-7.080670e-03
-8.650830e-03
-8.649910e-03
-7.080890e-03
-7.081000e-03
-8.649890e-03
-8.650310e-03
-8.650870e-03
-8.650830e-03
4.539980e-03
4.542190e-03
-8.650540e-03
-8.649890e-03
4.542160e-03
4.541730e-03
-8.650830e-03
-8.649910e-03
4.542190e-03
4.541800e-03
-8.649890e-03
-8.650310e-03
4.541730e-03
4.542570e-03
4.539980e-03
4.542190e-03
2.823700e-03
2.821540e-03
4.542160e-03
4.541730e-03
2.821350e-03
2.820710e-03
4.542190e-03
4.541800e-03
2.821540e-03
2.821770e-03
4.541730e-03
4.542570e-03
2.820710e-03
2.820400e-03
2.823700e-03
2.821540e-03
-1.297520e-03
-1.300080e-03
2.821350e-03
2.820710e-03
-1.300200e-03
-1.301010e-03
2.821540e-03
2.821770e-03
-1.300080e-03
-1.300370e-03
2.820710e-03
2.820400e-03
-1.301010e-03
-1.300020e-03
-1.297520e-03
-1.300080e-03
8.036070e-05
8.716230e-05
-1.300200e-03
-1.301010e-03
8.729700e-05
8.887320e-05
-1.300080e-03
-1.300370e-03
8.716230e-05
8.754140e-05
-1.301010e-03
-1.300020e-03
8.887320e-05
8.761700e-05
8.036070e-05
8.716230e-05
2.311490e-04
2.263940e-04
8.729700e-05
8.887320e-05
2.263470e-04
2.256450e-04
8.716230e-05
8.754140e-05
2.263940e-04
2.258020e-04
8.887320e-05
8.761700e-05
2.256450e-04
2.262230e-04
2.311490e-04
2.263940e-04
-1.247640e-04
-1.245850e-04
2.263470e-04
2.256450e-04
-1.245780e-04
-1.245050e-04
2.263940e-04
2.258020e-04
-1.245850e-04
-1.245190e-04
2.256450e-04
2.262230e-04
-1.245050e-04
-1.245690e-04
-1.247640e-04
-1.245850e-04
-2.364070e-04
-2.363970e-04
-1.245780e-04
-1.245050e-04
-2.363980e-04
-2.363940e-04
-1.245850e-04
-1.245190e-04
-2.363970e-04
-2.363870e-04
-1.245050e-04
-1.245690e-04
-2.363940e-04
-2.363810e-04
0.000000e+00
0.000000e+00
-8.656570e-05
-8.656150e-05
0.000000e+00
0.000000e+00
-8.655490e-05
-8.655040e-05
0.000000e+00
0.000000e+00
-8.656150e-05
-8.655470e-05
0.000000e+00
0.000000e+00
-8.655040e-05
-8.655370e-05
-8.656570e-05
-8.656150e-05
1.256850e-04
1.256790e-04
-8.655490e-05
-8.655040e-05
1.256870e-04
1.256760e-04
-8.656150e-05
-8.655470e-05
1.256790e-04
1.256850e-04
-8.655040e-05
-8.655370e-05
1.256760e-04
1.256770e-04
1.256850e-04
1.256790e-04
3.251880e-05
3.251100e-05
1.256870e-04
1.256760e-04
3.251220e-05
3.251220e-05