<?xml version="1.0"?>
<!-- time 48.834-->
<VTKFile type="UnstructuredGrid" version="0.1" byte_order="LittleEndian">
<UnstructuredGrid>
<Piece NumberOfPoints="7680" NumberOfCells="0">
<Points>
  <DataArray type="Float32" Name="Position" NumberOfComponents="3" format="ascii">
	-350 2049.64 -350
	-350 2049.64 -250
	-350 2049.64 -150
	-350 2049.64 -50
	-350 2049.64 50
	-350 2049.64 150
	-350 2049.64 250
	-350 2049.64 350
	-250 2049.64 -350
	-250 2049.64 -250
	-250 2049.64 -150
	-250 2049.64 -50
	-250 2049.64 50
	-250 2049.64 150
	-250 2049.64 250
	-250 2049.64 350
	-150 2049.64 -350
	-150 2049.64 -250
	-150 2049.64 -150
	-150 2049.64 -50
	-150 2049.64 50
	-150 2049.64 150
	-150 2049.64 250
	-150 2049.64 350
	-50 2049.64 -350
	-50 2049.64 -250
	-50 2049.64 -150
	-50 2049.64 -50
	-50 2049.64 50
	-50 2049.64 150
	-50 2049.64 250
	-50 2049.64 350
	50 2049.64 -350
	50 2049.64 -250
	50 2049.64 -150
	50 2049.64 -50
	50 2049.64 50
	50 2049.64 150
	50 2049.64 250
	50 2049.64 350
	150 2049.64 -350
	150 2049.64 -250
	150 2049.64 -150
	150 2049.64 -50
	150 2049.64 50
	150 2049.64 150
	150 2049.64 250
	150 2049.64 350
	250 2049.64 -350
	250 2049.64 -250
	250 2049.64 -150
	250 2049.64 -50
	250 2049.64 50
	250 2049.64 150
	250 2049.64 250
	250 2049.64 350
	350 2049.64 -350
	350 2049.64 -250
	350 2049.64 -150
	350 2049.64 -50
	350 2049.64 50
	350 2049.64 150
	350 2049.64 250
	350 2049.64 350
	-350 2149.69 -350
	-350 2149.69 -250
	-350 2149.69 -150
	-350 2149.69 -50
	-350 2149.69 50
	-350 2149.69 150
	-350 2149.69 250
	-350 2149.69 350
	-250 2149.69 -350
	-250 2149.69 -250
	-250 2149.69 -150
	-250 2149.69 -50
	-250 2149.69 50
	-250 2149.69 150
	-250 2149.69 250
	-250 2149.69 350
	-150 2149.69 -350
	-150 2149.69 -250
	-150 2149.69 -150
	-150 2149.69 -50
	-150 2149.69 50
	-150 2149.69 150
	-150 2149.69 250
	-150 2149.69 350
	-50 2149.69 -350
	-50 2149.69 -250
	-50 2149.69 -150
	-50 2149.69 -50
	-50 2149.69 50
	-50 2149.69 150
	-50 2149.69 250
	-50 2149.69 350
	50 2149.69 -350
	50 2149.69 -250
	50 2149.69 -150
	50 2149.69 -50
	50 2149.69 50
	50 2149.69 150
	50 2149.69 250
	50 2149.69 350
	150 2149.69 -350
	150 2149.69 -250
	150 2149.69 -150
	150 2149.69 -50
	150 2149.69 50
	150 2149.69 150
	150 2149.69 250
	150 2149.69 350
	250 2149.69 -350
	250 2149.69 -250
	250 2149.69 -150
	250 2149.69 -50
	250 2149.69 50
	250 2149.69 150
	250 2149.69 250
	250 2149.69 350
	350 2149.69 -350
	350 2149.69 -250
	350 2149.69 -150
	350 2149.69 -50
	350 2149.69 50
	350 2149.69 150
	350 2149.69 250
	350 2149.69 350
	-350 2249.69 -350
	-350 2249.69 -250
	-350 2249.69 -150
	-350 2249.69 -50
	-350 2249.69 50
	-350 2249.69 150
	-350 2249.69 250
	-350 2249.69 350
	-250 2249.69 -350
	-250 2249.69 -250
	-250 2249.69 -150
	-250 2249.69 -50
	-250 2249.69 50
	-250 2249.69 150
	-250 2249.69 250
	-250 2249.69 350
	-150 2249.69 -350
	-150 2249.69 -250
	-150 2249.69 -150
	-150 2249.69 -50
	-150 2249.69 50
	-150 2249.69 150
	-150 2249.69 250
	-150 2249.69 350
	-50 2249.69 -350
	-50 2249.69 -250
	-50 2249.69 -150
	-50 2249.69 -50
	-50 2249.69 50
	-50 2249.69 150
	-50 2249.69 250
	-50 2249.69 350
	50 2249.69 -350
	50 2249.69 -250
	50 2249.69 -150
	50 2249.69 -50
	50 2249.69 50
	50 2249.69 150
	50 2249.69 250
	50 2249.69 350
	150 2249.69 -350
	150 2249.69 -250
	150 2249.69 -150
	150 2249.69 -50
	150 2249.69 50
	150 2249.69 150
	150 2249.69 250
	150 2249.69 350
	250 2249.69 -350
	250 2249.69 -250
	250 2249.69 -150
	250 2249.69 -50
	250 2249.69 50
	250 2249.69 150
	250 2249.69 250
	250 2249.69 350
	350 2249.69 -350
	350 2249.69 -250
	350 2249.69 -150
	350 2249.69 -50
	350 2249.69 50
	350 2249.69 150
	350 2249.69 250
	350 2249.69 350
	-350 2349.69 -350
	-350 2349.69 -250
	-350 2349.69 -150
	-350 2349.69 -50
	-350 2349.69 50
	-350 2349.69 150
	-350 2349.69 250
	-350 2349.69 350
	-250 2349.69 -350
	-250 2349.69 -250
	-250 2349.69 -150
	-250 2349.69 -50
	-250 2349.69 50
	-250 2349.69 150
	-250 2349.69 250
	-250 2349.69 350
	-150 2349.69 -350
	-150 2349.69 -250
	-150 2349.69 -150
	-150 2349.69 -50
	-150 2349.69 50
	-150 2349.69 150
	-150 2349.69 250
	-150 2349.69 350
	-50 2349.69 -350
	-50 2349.69 -250
	-50 2349.69 -150
	-50 2349.69 -50
	-50 2349.69 50
	-50 2349.69 150
	-50 2349.69 250
	-50 2349.69 350
	50 2349.69 -350
	50 2349.69 -250
	50 2349.69 -150
	50 2349.69 -50
	50 2349.69 50
	50 2349.69 150
	50 2349.69 250
	50 2349.69 350
	150 2349.69 -350
	150 2349.69 -250
	150 2349.69 -150
	150 2349.69 -50
	150 2349.69 50
	150 2349.69 150
	150 2349.69 250
	150 2349.69 350
	250 2349.69 -350
	250 2349.69 -250
	250 2349.69 -150
	250 2349.69 -50
	250 2349.69 50
	250 2349.69 150
	250 2349.69 250
	250 2349.69 350
	350 2349.69 -350
	350 2349.69 -250
	350 2349.69 -150
	350 2349.69 -50
	350 2349.69 50
	350 2349.69 150
	350 2349.69 250
	350 2349.69 350
	-350 2449.69 -350
	-350 2449.69 -250
	-350 2449.69 -150
	-350 2449.69 -50
	-350 2449.69 50
	-350 2449.69 150
	-350 2449.69 250
	-350 2449.69 350
	-250 2449.69 -350
	-250 2449.69 -250
	-250 2449.69 -150
	-250 2449.69 -50
	-250 2449.69 50
	-250 2449.69 150
	-250 2449.69 250
	-250 2449.69 350
	-150 2449.69 -350
	-150 2449.69 -250
	-150 2449.69 -150
	-150 2449.69 -50
	-150 2449.69 50
	-150 2449.69 150
	-150 2449.69 250
	-150 2449.69 350
	-50 2449.69 -350
	-50 2449.69 -250
	-50 2449.69 -150
	-50 2449.69 -50
	-50 2449.69 50
	-50 2449.69 150
	-50 2449.69 250
	-50 2449.69 350
	50 2449.69 -350
	50 2449.69 -250
	50 2449.69 -150
	50 2449.69 -50
	50 2449.69 50
	50 2449.69 150
	50 2449.69 250
	50 2449.69 350
	150 2449.69 -350
	150 2449.69 -250
	150 2449.69 -150
	150 2449.69 -50
	150 2449.69 50
	150 2449.69 150
	150 2449.69 250
	150 2449.69 350
	250 2449.69 -350
	250 2449.69 -250
	250 2449.69 -150
	250 2449.69 -50
	250 2449.69 50
	250 2449.69 150
	250 2449.69 250
	250 2449.69 350
	350 2449.69 -350
	350 2449.69 -250
	350 2449.69 -150
	350 2449.69 -50
	350 2449.69 50
	350 2449.69 150
	350 2449.69 250
	350 2449.69 350
	-350 2549.68 -350
	-350 2549.68 -250
	-350 2549.68 -150
	-350 2549.68 -50
	-350 2549.68 50
	-350 2549.68 150
	-350 2549.68 250
	-350 2549.68 350
	-250 2549.68 -350
	-250 2549.68 -250
	-250 2549.68 -150
	-250 2549.68 -50
	-250 2549.68 50
	-250 2549.68 150
	-250 2549.68 250
	-250 2549.68 350
	-150 2549.68 -350
	-150 2549.68 -250
	-150 2549.68 -150
	-150 2549.68 -50
	-150 2549.68 50
	-150 2549.68 150
	-150 2549.68 250
	-150 2549.68 350
	-50 2549.68 -350
	-50 2549.68 -250
	-50 2549.68 -150
	-50 2549.68 -50
	-50 2549.68 50
	-50 2549.68 150
	-50 2549.68 250
	-50 2549.68 350
	50 2549.68 -350
	50 2549.68 -250
	50 2549.68 -150
	50 2549.68 -50
	50 2549.68 50
	50 2549.68 150
	50 2549.68 250
	50 2549.68 350
	150 2549.68 -350
	150 2549.68 -250
	150 2549.68 -150
	150 2549.68 -50
	150 2549.68 50
	150 2549.68 150
	150 2549.68 250
	150 2549.68 350
	250 2549.68 -350
	250 2549.68 -250
	250 2549.68 -150
	250 2549.68 -50
	250 2549.68 50
	250 2549.68 150
	250 2549.68 250
	250 2549.68 350
	350 2549.68 -350
	350 2549.68 -250
	350 2549.68 -150
	350 2549.68 -50
	350 2549.68 50
	350 2549.68 150
	350 2549.68 250
	350 2549.68 350
	-350 2649.68 -350
	-350 2649.68 -250
	-350 2649.68 -150
	-350 2649.68 -50
	-350 2649.68 50
	-350 2649.68 150
	-350 2649.68 250
	-350 2649.68 350
	-250 2649.68 -350
	-250 2649.68 -250
	-250 2649.68 -150
	-250 2649.68 -50
	-250 2649.68 50
	-250 2649.68 150
	-250 2649.68 250
	-250 2649.68 350
	-150 2649.68 -350
	-150 2649.68 -250
	-150 2649.68 -150
	-150 2649.68 -50
	-150 2649.68 50
	-150 2649.68 150
	-150 2649.68 250
	-150 2649.68 350
	-50 2649.68 -350
	-50 2649.68 -250
	-50 2649.68 -150
	-50 2649.68 -50
	-50 2649.68 50
	-50 2649.68 150
	-50 2649.68 250
	-50 2649.68 350
	50 2649.68 -350
	50 2649.68 -250
	50 2649.68 -150
	50 2649.68 -50
	50 2649.68 50
	50 2649.68 150
	50 2649.68 250
	50 2649.68 350
	150 2649.68 -350
	150 2649.68 -250
	150 2649.68 -150
	150 2649.68 -50
	150 2649.68 50
	150 2649.68 150
	150 2649.68 250
	150 2649.68 350
	250 2649.68 -350
	250 2649.68 -250
	250 2649.68 -150
	250 2649.68 -50
	250 2649.68 50
	250 2649.68 150
	250 2649.68 250
	250 2649.68 350
	350 2649.68 -350
	350 2649.68 -250
	350 2649.68 -150
	350 2649.68 -50
	350 2649.68 50
	350 2649.68 150
	350 2649.68 250
	350 2649.68 350
	-350 2749.68 -350
	-350 2749.68 -250
	-350 2749.68 -150
	-350 2749.68 -50
	-350 2749.68 50
	-350 2749.68 150
	-350 2749.68 250
	-350 2749.68 350
	-250 2749.68 -350
	-250 2749.68 -250
	-250 2749.68 -150
	-250 2749.68 -50
	-250 2749.68 50
	-250 2749.68 150
	-250 2749.68 250
	-250 2749.68 350
	-150 2749.68 -350
	-150 2749.68 -250
	-150 2749.68 -150
	-150 2749.68 -50
	-150 2749.68 50
	-150 2749.68 150
	-150 2749.68 250
	-150 2749.68 350
	-50 2749.68 -350
	-50 2749.68 -250
	-50 2749.68 -150
	-50 2749.68 -50
	-50 2749.68 50
	-50 2749.68 150
	-50 2749.68 250
	-50 2749.68 350
	50 2749.68 -350
	50 2749.68 -250
	50 2749.68 -150
	50 2749.68 -50
	50 2749.68 50
	50 2749.68 150
	50 2749.68 250
	50 2749.68 350
	150 2749.68 -350
	150 2749.68 -250
	150 2749.68 -150
	150 2749.68 -50
	150 2749.68 50
	150 2749.68 150
	150 2749.68 250
	150 2749.68 350
	250 2749.68 -350
	250 2749.68 -250
	250 2749.68 -150
	250 2749.68 -50
	250 2749.68 50
	250 2749.68 150
	250 2749.68 250
	250 2749.68 350
	350 2749.68 -350
	350 2749.68 -250
	350 2749.68 -150
	350 2749.68 -50
	350 2749.68 50
	350 2749.68 150
	350 2749.68 250
	350 2749.68 350
	-350 2849.67 -350
	-350 2849.67 -250
	-350 2849.67 -150
	-350 2849.67 -50
	-350 2849.67 50
	-350 2849.67 150
	-350 2849.67 250
	-350 2849.67 350
	-250 2849.67 -350
	-250 2849.67 -250
	-250 2849.67 -150
	-250 2849.67 -50
	-250 2849.67 50
	-250 2849.67 150
	-250 2849.67 250
	-250 2849.67 350
	-150 2849.67 -350
	-150 2849.67 -250
	-150 2849.67 -150
	-150 2849.67 -50
	-150 2849.67 50
	-150 2849.67 150
	-150 2849.67 250
	-150 2849.67 350
	-50 2849.67 -350
	-50 2849.67 -250
	-50 2849.67 -150
	-50 2849.67 -50
	-50 2849.67 50
	-50 2849.67 150
	-50 2849.67 250
	-50 2849.67 350
	50 2849.67 -350
	50 2849.67 -250
	50 2849.67 -150
	50 2849.67 -50
	50 2849.67 50
	50 2849.67 150
	50 2849.67 250
	50 2849.67 350
	150 2849.67 -350
	150 2849.67 -250
	150 2849.67 -150
[...]
<PointData  Vectors="vector">
  <DataArray type="Float32" Name="Velocity" NumberOfComponents="3" format="ascii">
 1.51764e-16 -0.0181496 1.90038e-15
 4.9179e-17 -0.0181496 -1.81123e-16
 -5.34061e-17 -0.0181496 -2.26262e-15
 -1.55991e-16 -0.0181496 -4.34412e-15
 -2.10581e-17 -0.0181496 -4.34412e-15
 -3.89332e-16 -0.0181496 -2.26262e-15
 -7.57607e-16 -0.0181496 -1.81123e-16
 -1.12588e-15 -0.0181496 1.90038e-15
 -9.7591e-16 -0.0181496 1.95112e-15
 -1.40581e-16 -0.0181496 -1.50203e-15
 6.94748e-16 -0.0181496 -4.95517e-15
 1.53008e-15 -0.0181496 -8.40832e-15
 1.19415e-15 -0.0181496 -8.40832e-15
 6.23405e-16 -0.0181496 -4.95517e-15
 5.26578e-17 -0.0181496 -1.50203e-15
 -5.18089e-16 -0.0181496 1.95112e-15
 -2.10359e-15 -0.0181496 2.00187e-15
 -3.30341e-16 -0.0181496 -2.82293e-15
 1.4429e-15 -0.0181496 -7.64773e-15
 3.21615e-15 -0.0181496 -1.24725e-14
 2.40936e-15 -0.0181496 -1.24725e-14
 1.63614e-15 -0.0181496 -7.64773e-15
 8.62922e-16 -0.0181496 -2.82293e-15
 8.97025e-17 -0.0181496 2.00187e-15
 -3.23126e-15 -0.0181496 2.05261e-15
 -5.20101e-16 -0.0181496 -4.14383e-15
 2.19106e-15 -0.0181496 -1.03403e-14
 4.90222e-15 -0.0181496 -1.65367e-14
 3.62457e-15 -0.0181496 -1.65367e-14
 2.64888e-15 -0.0181496 -1.03403e-14
 1.67319e-15 -0.0181496 -4.14383e-15
 6.97494e-16 -0.0181496 2.05261e-15
 -3.23126e-15 -0.0181496 2.23829e-15
 -5.20101e-16 -0.0181496 -2.30479e-15
 2.19106e-15 -0.0181496 -6.84788e-15
 4.90222e-15 -0.0181496 -1.1391e-14
 3.62457e-15 -0.0181496 -1.1391e-14
 2.64888e-15 -0.0181496 -6.84788e-15
 1.67319e-15 -0.0181496 -2.30479e-15
 6.97494e-16 -0.0181496 2.23829e-15
 -2.10359e-15 -0.0181496 3.84091e-15
 -3.30341e-16 -0.0181496 -2.04888e-15
 1.4429e-15 -0.0181496 -7.93866e-15
 3.21615e-15 -0.0181496 -1.38284e-14
 2.40936e-15 -0.0181496 -1.38284e-14
 1.63614e-15 -0.0181496 -7.93866e-15
 8.62922e-16 -0.0181496 -2.04888e-15
 8.97025e-17 -0.0181496 3.84091e-15
 -9.7591e-16 -0.0181496 5.44352e-15
 -1.40581e-16 -0.0181496 -1.79297e-15
 6.94748e-16 -0.0181496 -9.02945e-15
 1.53008e-15 -0.0181496 -1.62659e-14
 1.19415e-15 -0.0181496 -1.62659e-14
 6.23405e-16 -0.0181496 -9.02945e-15
 5.26578e-17 -0.0181496 -1.79297e-15
 -5.18089e-16 -0.0181496 5.44352e-15
 1.51764e-16 -0.0181496 7.04613e-15
 4.9179e-17 -0.0181496 -1.53705e-15
 -5.34061e-17 -0.0181496 -1.01202e-14
 -1.55991e-16 -0.0181496 -1.87034e-14
 -2.10581e-17 -0.0181496 -1.87034e-14
 -3.89332e-16 -0.0181496 -1.01202e-14
 -7.57607e-16 -0.0181496 -1.53705e-15
 -1.12588e-15 -0.0181496 7.04613e-15
 1.02281e-16 -0.00095965 7.04952e-16
 -3.47531e-17 -0.00095965 6.70152e-17
 -1.71787e-16 -0.00095965 -5.70922e-16
 -3.0882e-16 -0.00095965 -1.20886e-15
 -7.02183e-17 -0.00095965 -1.20886e-15
 -2.73317e-16 -0.00095965 -5.70922e-16
 -4.76416e-16 -0.00095965 6.70152e-17
 -6.79514e-16 -0.00095965 7.04952e-16
 -6.21151e-16 -0.00095965 9.75666e-16
 -9.37936e-17 -0.00095965 -6.89221e-16
 4.33564e-16 -0.00095965 -2.35411e-15
 9.60921e-16 -0.00095965 -4.01899e-15
 8.59391e-16 -0.00095965 -4.01899e-15
 4.22488e-16 -0.00095965 -2.35411e-15
 -1.44153e-17 -0.00095965 -6.89221e-16
 -4.51318e-16 -0.00095965 9.75666e-16
 -1.34458e-15 -0.00095965 1.24638e-15
 -1.52834e-16 -0.00095965 -1.44546e-15
 1.03891e-15 -0.00095965 -4.13729e-15
 2.23066e-15 -0.00095965 -6.82913e-15
 1.789e-15 -0.00095965 -6.82913e-15
 1.11829e-15 -0.00095965 -4.13729e-15
 4.47585e-16 -0.00095965 -1.44546e-15
 -2.23122e-16 -0.00095965 1.24638e-15
 -2.06801e-15 -0.00095965 1.51709e-15
 -2.11875e-16 -0.00095965 -2.20169e-15
 1.64426e-15 -0.00095965 -5.92048e-15
 3.5004e-15 -0.00095965 -9.63927e-15
 2.71861e-15 -0.00095965 -9.63927e-15
 1.8141e-15 -0.00095965 -5.92048e-15
 9.09585e-16 -0.00095965 -2.20169e-15
 5.07384e-18 -0.00095965 1.51709e-15
 -2.06801e-15 -0.00095965 7.70651e-16
 -2.11875e-16 -0.00095965 -1.63134e-15
 1.64426e-15 -0.00095965 -4.03332e-15
 3.5004e-15 -0.00095965 -6.43531e-15
 2.71861e-15 -0.00095965 -6.43531e-15
 1.8141e-15 -0.00095965 -4.03332e-15
 9.09585e-16 -0.00095965 -1.63134e-15
 5.07384e-18 -0.00095965 7.70651e-16
 -1.34458e-15 -0.00095965 1.81674e-15
 -1.52834e-16 -0.00095965 -1.08352e-15
 1.03891e-15 -0.00095965 -3.98378e-15
 2.23066e-15 -0.00095965 -6.88405e-15
 1.789e-15 -0.00095965 -6.88405e-15
 1.11829e-15 -0.00095965 -3.98378e-15
 4.47585e-16 -0.00095965 -1.08352e-15
 -2.23122e-16 -0.00095965 1.81674e-15
 -6.21151e-16 -0.00095965 2.86282e-15
 -9.37936e-17 -0.00095965 -5.35712e-16
 4.33564e-16 -0.00095965 -3.93425e-15
 9.60921e-16 -0.00095965 -7.33278e-15
 8.59391e-16 -0.00095965 -7.33278e-15
 4.22488e-16 -0.00095965 -3.93425e-15
 -1.44153e-17 -0.00095965 -5.35712e-16
 -4.51318e-16 -0.00095965 2.86282e-15
 1.02281e-16 -0.00095965 3.90891e-15
 -3.47531e-17 -0.00095965 1.21003e-17
 -1.71787e-16 -0.00095965 -3.88471e-15
 -3.0882e-16 -0.00095965 -7.78152e-15
 -7.02183e-17 -0.00095965 -7.78152e-15
 -2.73317e-16 -0.00095965 -3.88471e-15
 -4.76416e-16 -0.00095965 1.21003e-17
 -6.79514e-16 -0.00095965 3.90891e-15
 5.72461e-17 -0.00226297 -3.86972e-16
 -1.11297e-16 -0.00226297 2.93388e-16
 -2.79839e-16 -0.00226297 9.73748e-16
 -4.48382e-16 -0.00226297 1.65411e-15
 -1.14734e-16 -0.00226297 1.65411e-15
 -1.67165e-16 -0.00226297 9.73748e-16
 -2.19596e-16 -0.00226297 2.93388e-16
 -2.72026e-16 -0.00226297 -3.86972e-16
 -2.97243e-16 -0.00226297 8.45296e-17
 -5.09622e-17 -0.00226297 5.22844e-17
 1.95318e-16 -0.00226297 2.00392e-17
 4.41599e-16 -0.00226297 -1.2206e-17
 5.54273e-16 -0.00226297 -1.2206e-17
 2.39327e-16 -0.00226297 2.00392e-17
 -7.56199e-17 -0.00226297 5.22844e-17
 -3.90567e-16 -0.00226297 8.45296e-17
 -6.51731e-16 -0.00226297 5.56031e-16
 9.37228e-18 -0.00226297 -1.88819e-16
 6.70476e-16 -0.00226297 -9.3367e-16
 1.33158e-15 -0.00226297 -1.67852e-15
 1.22328e-15 -0.00226297 -1.67852e-15
 6.45818e-16 -0.00226297 -9.3367e-16
 6.83558e-17 -0.00226297 -1.88819e-16
 -5.09107e-16 -0.00226297 5.56031e-16
 -1.00622e-15 -0.00226297 1.02753e-15
 6.97068e-17 -0.00226297 -4.29923e-16
 1.14563e-15 -0.00226297 -1.88738e-15
 2.22156e-15 -0.00226297 -3.34483e-15
 1.89229e-15 -0.00226297 -3.34483e-15
 1.05231e-15 -0.00226297 -1.88738e-15
 2.12331e-16 -0.00226297 -4.29923e-16
 -6.27647e-16 -0.00226297 1.02753e-15
 -1.00622e-15 -0.00226297 -5.69573e-16
 6.97068e-17 -0.00226297 -1.01708e-15
 1.14563e-15 -0.00226297 -1.46459e-15
 2.22156e-15 -0.00226297 -1.9121e-15
 1.89229e-15 -0.00226297 -1.9121e-15
 1.05231e-15 -0.00226297 -1.46459e-15
 2.12331e-16 -0.00226297 -1.01708e-15
 -6.27647e-16 -0.00226297 -5.69573e-16
 -6.51731e-16 -0.00226297 -3.11294e-17
 9.37228e-18 -0.00226297 -2.02638e-16
 6.70476e-16 -0.00226297 -3.74147e-16
 1.33158e-15 -0.00226297 -5.45656e-16
 1.22328e-15 -0.00226297 -5.45656e-16
 6.45818e-16 -0.00226297 -3.74147e-16
 6.83558e-17 -0.00226297 -2.02638e-16
 -5.09107e-16 -0.00226297 -3.11294e-17
 -2.97243e-16 -0.00226297 5.07314e-16
 -5.09622e-17 -0.00226297 6.11807e-16
 1.95318e-16 -0.00226297 7.163e-16
 4.41599e-16 -0.00226297 8.20793e-16
 5.54273e-16 -0.00226297 8.20793e-16
 2.39327e-16 -0.00226297 7.163e-16
 -7.56199e-17 -0.00226297 6.11807e-16
 -3.90567e-16 -0.00226297 5.07314e-16
 5.72461e-17 -0.00226297 1.04576e-15
 -1.11297e-16 -0.00226297 1.42625e-15
 -2.79839e-16 -0.00226297 1.80675e-15
 -4.48382e-16 -0.00226297 2.18724e-15
 -1.14734e-16 -0.00226297 2.18724e-15
 -1.67165e-16 -0.00226297 1.80675e-15
 -2.19596e-16 -0.00226297 1.42625e-15
 -2.72026e-16 -0.00226297 1.04576e-15
 1.59947e-17 -0.00334651 -1.38749e-15
 -1.81437e-16 -0.00334651 5.00875e-16
 -3.7887e-16 -0.00334651 2.38924e-15
 -5.76302e-16 -0.00334651 4.27761e-15
 -1.55559e-16 -0.00334651 4.27761e-15
 -6.99132e-17 -0.00334651 2.38924e-15
 1.57322e-17 -0.00334651 5.00875e-16
 1.01378e-16 -0.00334651 -1.38749e-15
 -3.99388e-19 -0.00334651 -7.32073e-16
 -1.17111e-17 -0.00334651 7.31811e-16
 -2.30229e-17 -0.00334651 2.1957e-15
 -3.43346e-17 -0.00334651 3.65958e-15
 2.74622e-16 -0.00334651 3.65958e-15
 7.14685e-17 -0.00334651 2.1957e-15
 -1.31685e-16 -0.00334651 7.31811e-16
 -3.34838e-16 -0.00334651 -7.32073e-16
 -1.67935e-17 -0.00334651 -7.66541e-17
 1.58015e-16 -0.00334651 9.62748e-16
 3.32824e-16 -0.00334651 2.00215e-15
 5.07632e-16 -0.00334651 3.04155e-15
 7.04802e-16 -0.00334651 3.04155e-15
 2.1285e-16 -0.00334651 2.00215e-15
 -2.79102e-16 -0.00334651 9.62748e-16
 -7.71053e-16 -0.00334651 -7.66541e-17
 -3.31876e-17 -0.00334651 5.78765e-16
 3.27741e-16 -0.00334651 1.19368e-15
 6.88671e-16 -0.00334651 1.8086e-15
 1.0496e-15 -0.00334651 2.42352e-15
 1.13498e-15 -0.00334651 2.42352e-15
 3.54232e-16 -0.00334651 1.8086e-15
 -4.26518e-16 -0.00334651 1.19368e-15
 -1.20727e-15 -0.00334651 5.78765e-16
 -3.31876e-17 -0.00334651 -1.7978e-15
 3.27741e-16 -0.00334651 -4.54214e-16
 6.88671e-16 -0.00334651 8.89371e-16
 1.0496e-15 -0.00334651 2.23296e-15
 1.13498e-15 -0.00334651 2.23296e-15
 3.54232e-16 -0.00334651 8.89371e-16
 -4.26518e-16 -0.00334651 -4.54214e-16
 -1.20727e-15 -0.00334651 -1.7978e-15
 -1.67935e-17 -0.00334651 -1.72455e-15
 1.58015e-16 -0.00334651 6.04567e-16
 3.32824e-16 -0.00334651 2.93369e-15
 5.07632e-16 -0.00334651 5.26281e-15
 7.04802e-16 -0.00334651 5.26281e-15
 2.1285e-16 -0.00334651 2.93369e-15
 -2.79102e-16 -0.00334651 6.04567e-16
 -7.71053e-16 -0.00334651 -1.72455e-15
 -3.99388e-19 -0.00334651 -1.65131e-15
 -1.17111e-17 -0.00334651 1.66335e-15
 -2.30229e-17 -0.00334651 4.978e-15
 -3.43346e-17 -0.00334651 8.29266e-15
 2.74622e-16 -0.00334651 8.29266e-15
 7.14685e-17 -0.00334651 4.978e-15
 -1.31685e-16 -0.00334651 1.66335e-15
 -3.34838e-16 -0.00334651 -1.65131e-15
 1.59947e-17 -0.00334651 -1.57806e-15
 -1.81437e-16 -0.00334651 2.72213e-15
 -3.7887e-16 -0.00334651 7.02232e-15
 -5.76302e-16 -0.00334651 1.13225e-14
 -1.55559e-16 -0.00334651 1.13225e-14
 -6.99132e-17 -0.00334651 7.02232e-15
 1.57322e-17 -0.00334651 2.72213e-15
 1.01378e-16 -0.00334651 -1.57806e-15
 -2.5284e-16 -0.00319236 -6.41861e-16
 1.32193e-16 -0.00319236 1.62822e-16
 5.17226e-16 -0.00319236 9.67505e-16
 9.02259e-16 -0.00319236 1.77219e-15
 6.31642e-16 -0.00319236 1.77219e-15
 8.67684e-17 -0.00319236 9.67505e-16
 -4.58105e-16 -0.00319236 1.62822e-16
 -1.00298e-15 -0.00319236 -6.41861e-16
 -7.09306e-16 -0.00319236 -1.93348e-16
 -2.12707e-16 -0.00319236 1.63003e-16
 2.83891e-16 -0.00319236 5.19354e-16
 7.80489e-16 -0.00319236 8.75704e-16
 3.50031e-16 -0.00319236 8.75704e-16
 1.59014e-16 -0.00319236 5.19354e-16
 -3.20027e-17 -0.00319236 1.63003e-16
 -2.2302e-16 -0.00319236 -1.93348e-16
 -1.16577e-15 -0.00319236 2.55166e-16
 -5.57608e-16 -0.00319236 1.63184e-16
 5.05555e-17 -0.00319236 7.12023e-17
 6.58719e-16 -0.00319236 -2.07795e-17
 6.84212e-17 -0.00319236 -2.07795e-17
 2.3126e-16 -0.00319236 7.12023e-17
 3.94099e-16 -0.00319236 1.63184e-16
 5.56938e-16 -0.00319236 2.55166e-16
 -1.62224e-15 -0.00319236 7.03679e-16
 -9.02508e-16 -0.00319236 1.63365e-16
 -1.8278e-16 -0.00319236 -3.76949e-16
 5.36949e-16 -0.00319236 -9.17263e-16
 -2.13189e-16 -0.00319236 -9.17263e-16
 3.03506e-16 -0.00319236 -3.76949e-16
 8.20201e-16 -0.00319236 1.63365e-16
 1.3369e-15 -0.00319236 7.03679e-16
 -1.62224e-15 -0.00319236 -3.51079e-16
 -9.02508e-16 -0.00319236 -3.13293e-16
 -1.8278e-16 -0.00319236 -2.75507e-16
 5.36949e-16 -0.00319236 -2.37721e-16
 -2.13189e-16 -0.00319236 -2.37721e-16
 3.03506e-16 -0.00319236 -2.75507e-16
 8.20201e-16 -0.00319236 -3.13293e-16
 1.3369e-15 -0.00319236 -3.51079e-16
 -1.16577e-15 -0.00319236 -2.21493e-16
 -5.57608e-16 -0.00319236 2.37765e-16
 5.05555e-17 -0.00319236 6.97023e-16
 6.58719e-16 -0.00319236 1.15628e-15
 6.84212e-17 -0.00319236 1.15628e-15
 2.3126e-16 -0.00319236 6.97023e-16
 3.94099e-16 -0.00319236 2.37765e-16
 5.56938e-16 -0.00319236 -2.21493e-16
 -7.09306e-16 -0.00319236 -9.19059e-17
 -2.12707e-16 -0.00319236 7.88823e-16
 2.83891e-16 -0.00319236 1.66955e-15
 7.80489e-16 -0.00319236 2.55028e-15
 3.50031e-16 -0.00319236 2.55028e-15
 1.59014e-16 -0.00319236 1.66955e-15
 -3.20027e-17 -0.00319236 7.88823e-16
 -2.2302e-16 -0.00319236 -9.19059e-17
 -2.5284e-16 -0.00319236 3.76809e-17
 1.32193e-16 -0.00319236 1.33988e-15
 5.17226e-16 -0.00319236 2.64208e-15
 9.02259e-16 -0.00319236 3.94428e-15
 6.31642e-16 -0.00319236 3.94428e-15
 8.67684e-17 -0.00319236 2.64208e-15
 -4.58105e-16 -0.00319236 1.33988e-15
 -1.00298e-15 -0.00319236 3.76809e-17
 -6.98299e-16 -0.00208475 -7.2995e-16
 -3.55143e-16 -0.00208475 6.41669e-18
 -1.19862e-17 -0.00208475 7.42783e-16
 3.3117e-16 -0.00208475 1.47915e-15
 -5.00334e-17 -0.00208475 1.47915e-15
 -8.56914e-17 -0.00208475 7.42783e-16
 -1.2135e-16 -0.00208475 6.41669e-18
 -1.57008e-16 -0.00208475 -7.2995e-16
 -1.11024e-16 -0.00208475 -5.21568e-16
 -1.14558e-17 -0.00208475 -6.46266e-17
 8.81128e-17 -0.00208475 3.92315e-16
 1.87681e-16 -0.00208475 8.49257e-16
 1.13976e-16 -0.00208475 8.49257e-16
 5.5353e-17 -0.00208475 3.92315e-16
 -3.27014e-18 -0.00208475 -6.46266e-17
 -6.18933e-17 -0.00208475 -5.21568e-16
 4.76251e-16 -0.00208475 -3.13187e-16
 3.32231e-16 -0.00208475 -1.3567e-16
 1.88212e-16 -0.00208475 4.18469e-17
 4.41924e-17 -0.00208475 2.19364e-16
 2.77986e-16 -0.00208475 2.19364e-16
 1.96397e-16 -0.00208475 4.18469e-17
 1.14809e-16 -0.00208475 -1.3567e-16
 3.3221e-17 -0.00208475 -3.13187e-16
 1.06353e-15 -0.00208475 -1.04805e-16
 6.75918e-16 -0.00208475 -2.06713e-16
 2.88311e-16 -0.00208475 -3.08621e-16
 -9.92966e-17 -0.00208475 -4.10529e-16
 4.41995e-16 -0.00208475 -4.10529e-16
 3.37442e-16 -0.00208475 -3.08621e-16
 2.32889e-16 -0.00208475 -2.06713e-16
 1.28335e-16 -0.00208475 -1.04805e-16
 1.06353e-15 -0.00208475 -3.79314e-16
 6.75918e-16 -0.00208475 -2.69591e-16
 2.88311e-16 -0.00208475 -1.59867e-16
 -9.92966e-17 -0.00208475 -5.01432e-17
 4.41995e-16 -0.00208475 -5.01432e-17
 3.37442e-16 -0.00208475 -1.59867e-16
 2.32889e-16 -0.00208475 -2.69591e-16
 1.28335e-16 -0.00208475 -3.79314e-16
 4.76251e-16 -0.00208475 -3.76064e-16
 3.32231e-16 -0.00208475 3.23161e-17
 1.88212e-16 -0.00208475 4.40696e-16
 4.41924e-17 -0.00208475 8.49076e-16
 2.77986e-16 -0.00208475 8.49076e-16
 1.96397e-16 -0.00208475 4.40696e-16
 1.14809e-16 -0.00208475 3.23161e-17
 3.3221e-17 -0.00208475 -3.76064e-16
 -1.11024e-16 -0.00208475 -3.72814e-16
 -1.14558e-17 -0.00208475 3.34223e-16
 8.81128e-17 -0.00208475 1.04126e-15
 1.87681e-16 -0.00208475 1.7483e-15
 1.13976e-16 -0.00208475 1.7483e-15
 5.5353e-17 -0.00208475 1.04126e-15
 -3.27014e-18 -0.00208475 3.34223e-16
 -6.18933e-17 -0.00208475 -3.72814e-16
 -6.98299e-16 -0.00208475 -3.69564e-16
 -3.55143e-16 -0.00208475 6.36129e-16
 -1.19862e-17 -0.00208475 1.64182e-15
 3.3117e-16 -0.00208475 2.64752e-15
 -5.00334e-17 -0.00208475 2.64752e-15
 -8.56914e-17 -0.00208475 1.64182e-15
 -1.2135e-16 -0.00208475 6.36129e-16
 -1.57008e-16 -0.00208475 -3.69564e-16
 -1.06225e-15 -0.000841862 -8.01909e-16
 -7.53281e-16 -0.000841862 -1.21369e-16
 -4.44314e-16 -0.000841862 5.59171e-16
 -1.35347e-16 -0.000841862 1.23971e-15
 -6.06875e-16 -0.000841862 1.23971e-15
 -2.26573e-16 -0.000841862 5.59171e-16
 1.53729e-16 -0.000841862 -1.21369e-16
 5.34032e-16 -0.000841862 -8.01909e-16
 3.77674e-16 -0.000841862 -7.89668e-16
 1.52936e-16 -0.000841862 -2.50543e-16
 -7.18021e-17 -0.000841862 2.88582e-16
 -2.9654e-16 -0.000841862 8.27707e-16
 -7.87993e-17 -0.000841862 8.27707e-16
 -2.93045e-17 -0.000841862 2.88582e-16
 2.01902e-17 -0.000841862 -2.50543e-16
 6.9685e-17 -0.000841862 -7.89668e-16
 1.81759e-15 -0.000841862 -7.77427e-16
 1.05915e-15 -0.000841862 -3.79717e-16
 3.0071e-16 -0.000841862 1.79931e-17
 -4.57733e-16 -0.000841862 4.15703e-16
 4.49277e-16 -0.000841862 4.15703e-16
 1.67964e-16 -0.000841862 1.79931e-17
 -1.13349e-16 -0.000841862 -3.79717e-16
 -3.94662e-16 -0.000841862 -7.77427e-16
 3.25752e-15 -0.000841862 -7.65186e-16
 1.96537e-15 -0.000841862 -5.08891e-16
 6.73221e-16 -0.000841862 -2.52596e-16
 -6.18926e-16 -0.000841862 3.69959e-18
 9.77353e-16 -0.000841862 3.69959e-18
 3.65233e-16 -0.000841862 -2.52596e-16
 -2.46888e-16 -0.000841862 -5.08891e-16
 -8.59008e-16 -0.000841862 -7.65186e-16
 3.25752e-15 -0.000841862 -4.024e-16
 1.96537e-15 -0.000841862 -2.33855e-16
 6.73221e-16 -0.000841862 -6.53089e-17
 -6.18926e-16 -0.000841862 1.03237e-16
 9.77353e-16 -0.000841862 1.03237e-16
 3.65233e-16 -0.000841862 -6.53089e-17
 -2.46888e-16 -0.000841862 -2.33855e-16
 -8.59008e-16 -0.000841862 -4.024e-16
 1.81759e-15 -0.000841862 -5.02391e-16
 1.05915e-15 -0.000841862 -1.35472e-16
 3.0071e-16 -0.000841862 2.31447e-16
 -4.57733e-16 -0.000841862 5.98366e-16
 4.49277e-16 -0.000841862 5.98366e-16
 1.67964e-16 -0.000841862 2.31447e-16
 -1.13349e-16 -0.000841862 -1.35472e-16
 -3.94662e-16 -0.000841862 -5.02391e-16
 3.77674e-16 -0.000841862 -6.02381e-16
 1.52936e-16 -0.000841862 -3.7089e-17
 -7.18021e-17 -0.000841862 5.28203e-16
 -2.9654e-16 -0.000841862 1.0935e-15
 -7.87993e-17 -0.000841862 1.0935e-15
 -2.93045e-17 -0.000841862 5.28203e-16
 2.01902e-17 -0.000841862 -3.7089e-17
 6.9685e-17 -0.000841862 -6.02381e-16
 -1.06225e-15 -0.000841862 -7.02372e-16
 -7.53281e-16 -0.000841862 6.12938e-17
 -4.44314e-16 -0.000841862 8.24959e-16
 -1.35347e-16 -0.000841862 1.58862e-15
 -6.06875e-16 -0.000841862 1.58862e-15
 -2.26573e-16 -0.000841862 8.24959e-16
 1.53729e-16 -0.000841862 6.12938e-17
 5.34032e-16 -0.000841862 -7.02372e-16
 -1.36517e-15 0.0010398 -8.61876e-16
 -1.08466e-15 0.0010398 -2.27763e-16
 -8.04149e-16 0.0010398 4.06351e-16
 -5.23638e-16 0.0010398 1.04046e-15
 -1.07026e-15 0.0010398 1.04046e-15
 -3.43796e-16 0.0010398 4.06351e-16
 3.82669e-16 0.0010398 -2.27763e-16
 1.10913e-15 0.0010398 -8.61876e-16
 7.84402e-16 0.0010398 -1.01281e-15
 2.8976e-16 0.0010398 -4.05271e-16
 -2.04883e-16 0.0010398 2.02264e-16
 -6.99526e-16 0.0010398 8.09798e-16
 -2.39173e-16 0.0010398 8.09798e-16
 -9.97332e-17 0.0010398 2.02264e-16
 3.97066e-17 0.0010398 -4.05271e-16
 1.79146e-16 0.0010398 -1.01281e-15
 2.93397e-15 0.0010398 -1.16373e-15
 1.66418e-15 0.0010398 -5.82779e-16
 3.94382e-16 0.0010398 -1.82337e-18
 -8.75413e-16 0.0010398 5.79132e-16
 5.91915e-16 0.0010398 5.79132e-16
 1.44329e-16 0.0010398 -1.82337e-18
 -3.03256e-16 0.0010398 -5.82779e-16
 -7.50841e-16 0.0010398 -1.16373e-15
 5.08354e-15 0.0010398 -1.31466e-15
 3.0386e-15 0.0010398 -7.60287e-16
 9.93648e-16 0.0010398 -2.0591e-16
 -1.0513e-15 0.0010398 3.48466e-16
 1.423e-15 0.0010398 3.48466e-16
 3.88392e-16 0.0010398 -2.0591e-16
 -6.46218e-16 0.0010398 -7.60287e-16
 -1.68083e-15 0.0010398 -1.31466e-15
 5.08354e-15 0.0010398 -4.21625e-16
 3.0386e-15 0.0010398 -2.04108e-16
 9.93648e-16 0.0010398 1.3409e-17
 -1.0513e-15 0.0010398 2.30926e-16
 1.423e-15 0.0010398 2.30926e-16
 3.88392e-16 0.0010398 1.3409e-17
 -6.46218e-16 0.0010398 -2.04108e-16
 -1.68083e-15 0.0010398 -4.21625e-16
 2.93397e-15 0.0010398 -6.07556e-16
 1.66418e-15 0.0010398 -2.7507e-16
 3.94382e-16 0.0010398 5.74151e-17
 -8.75413e-16 0.0010398 3.899e-16
 5.91915e-16 0.0010398 3.899e-16
 1.44329e-16 0.0010398 5.74151e-17
 -3.03256e-16 0.0010398 -2.7507e-16
 -7.50841e-16 0.0010398 -6.07556e-16
 7.84402e-16 0.0010398 -7.93486e-16
 2.8976e-16 0.0010398 -3.46032e-16
 -2.04883e-16 0.0010398 1.01421e-16
 -6.99526e-16 0.0010398 5.48875e-16
 -2.39173e-16 0.0010398 5.48875e-16
 -9.97332e-17 0.0010398 1.01421e-16
 3.97066e-17 0.0010398 -3.46032e-16
 1.79146e-16 0.0010398 -7.93486e-16
 -1.36517e-15 0.0010398 -9.79416e-16
 -1.08466e-15 0.0010398 -4.16994e-16
 -8.04149e-16 0.0010398 1.45427e-16
 -5.23638e-16 0.0010398 7.07849e-16
 -1.07026e-15 0.0010398 7.07849e-16
 -3.43796e-16 0.0010398 1.45427e-16
 3.82669e-16 0.0010398 -4.16994e-16
 1.10913e-15 0.0010398 -9.79416e-16
 -1.1421e-15 0.0014303 -1.17166e-15
 -7.79753e-16 0.0014303 -3.09699e-17
 -4.17403e-16 0.0014303 1.10972e-15
 -5.50531e-17 0.0014303 2.25041e-15
 -6.74769e-16 0.0014303 2.25041e-15
 -1.03168e-16 0.0014303 1.10972e-15
 4.68434e-16 0.0014303 -3.09699e-17
 1.04004e-15 0.0014303 -1.17166e-15
 4.01842e-16 0.0014303 -1.27901e-15
 1.08405e-16 0.0014303 -2.35145e-16
 -1.85031e-16 0.0014303 8.08717e-16
 -4.78468e-16 0.0014303 1.85258e-15
 -1.64233e-16 0.0014303 1.85258e-15
 -4.57944e-17 0.0014303 8.08717e-16
 7.26439e-17 0.0014303 -2.35145e-16
 1.91082e-16 0.0014303 -1.27901e-15
 1.94579e-15 0.0014303 -1.38636e-15
 9.96563e-16 0.0014303 -4.39321e-16