<?xml version="1.0"?>
<VTKFile type="UnstructuredGrid" version="0.1" byte_order="LittleEndian" compressor="vtkZLibDataCompressor">
<UnstructuredGrid>
<Piece NumberOfPoints="960" NumberOfCells="120">
<Points>
<DataArray type="Float32" NumberOfComponents="3" format="ascii">
-4.000000e+02 -6.000000e+03 -4.000000e+02
0.000000e+00 -6.000000e+03 -4.000000e+02
-4.000000e+02 -5.599950e+03 -4.000000e+02
-3.534870e-10 -5.599950e+03 -4.000000e+02
-4.000000e+02 -6.000000e+03 0.000000e+00
0.000000e+00 -6.000000e+03 0.000000e+00
-4.000000e+02 -5.599950e+03 -4.313390e-10
-1.040550e-09 -5.599950e+03 -3.244650e-10
0.000000e+00 -6.000000e+03 -4.000000e+02
4.000000e+02 -6.000000e+03 -4.000000e+02
-3.534870e-10 -5.599950e+03 -4.000000e+02
4.000000e+02 -5.599950e+03 -4.000000e+02
0.000000e+00 -6.000000e+03 0.000000e+00
4.000000e+02 -6.000000e+03 0.000000e+00
-1.040550e-09 -5.599950e+03 -3.244650e-10
4.000000e+02 -5.599950e+03 -4.430500e-10
-4.000000e+02 -5.599950e+03 -4.000000e+02
-3.534870e-10 -5.599950e+03 -4.000000e+02
-4.000000e+02 -5.199970e+03 -4.000000e+02
-9.771380e-10 -5.199970e+03 -4.000000e+02
-4.000000e+02 -5.599950e+03 -4.313390e-10
-1.040550e-09 -5.599950e+03 -3.244650e-10
-4.000000e+02 -5.199970e+03 -2.236030e-10
-4.991680e-10 -5.199970e+03 7.338900e-10
-3.534870e-10 -5.599950e+03 -4.000000e+02
4.000000e+02 -5.599950e+03 -4.000000e+02
-9.771380e-10 -5.199970e+03 -4.000000e+02
4.000000e+02 -5.199970e+03 -4.000000e+02
-1.040550e-09 -5.599950e+03 -3.244650e-10
4.000000e+02 -5.599950e+03 -4.430500e-10
-4.991680e-10 -5.199970e+03 7.338900e-10
4.000000e+02 -5.199970e+03 4.248800e-10
-4.000000e+02 -5.199970e+03 -4.000000e+02
-9.771380e-10 -5.199970e+03 -4.000000e+02
-4.000000e+02 -4.800030e+03 -4.000000e+02
-3.397240e-10 -4.800030e+03 -4.000000e+02
-4.000000e+02 -5.199970e+03 -2.236030e-10
-4.991680e-10 -5.199970e+03 7.338900e-10
-4.000000e+02 -4.800030e+03 8.592760e-10
-7.722800e-10 -4.800030e+03 4.494220e-10
-9.771380e-10 -5.199970e+03 -4.000000e+02
4.000000e+02 -5.199970e+03 -4.000000e+02
-3.397240e-10 -4.800030e+03 -4.000000e+02
4.000000e+02 -4.800030e+03 -4.000000e+02
-4.991680e-10 -5.199970e+03 7.338900e-10
4.000000e+02 -5.199970e+03 4.248800e-10
-7.722800e-10 -4.800030e+03 4.494220e-10
4.000000e+02 -4.800030e+03 4.705570e-11
-4.000000e+02 -4.800030e+03 -4.000000e+02
-3.397240e-10 -4.800030e+03 -4.000000e+02
-4.000000e+02 -4.400100e+03 -4.000000e+02
-4.699190e-10 -4.400100e+03 -4.000000e+02
-4.000000e+02 -4.800030e+03 8.592760e-10
-7.722800e-10 -4.800030e+03 4.494220e-10
-4.000000e+02 -4.400100e+03 2.653260e-10
-6.746660e-10 -4.400100e+03 -2.070140e-10
-3.397240e-10 -4.800030e+03 -4.000000e+02
4.000000e+02 -4.800030e+03 -4.000000e+02
-4.699190e-10 -4.400100e+03 -4.000000e+02
4.000000e+02 -4.400100e+03 -4.000000e+02
-7.722800e-10 -4.800030e+03 4.494220e-10
4.000000e+02 -4.800030e+03 4.705570e-11
-6.746660e-10 -4.400100e+03 -2.070140e-10
4.000000e+02 -4.400100e+03 -1.465220e-09
-4.000000e+02 -4.400100e+03 -4.000000e+02
-4.699190e-10 -4.400100e+03 -4.000000e+02
-4.000000e+02 -4.000180e+03 -4.000000e+02
-2.664720e-10 -4.000180e+03 -4.000000e+02
-4.000000e+02 -4.400100e+03 2.653260e-10
-6.746660e-10 -4.400100e+03 -2.070140e-10
-4.000000e+02 -4.000180e+03 3.887530e-10
-3.011280e-10 -4.000180e+03 5.643970e-10
-4.699190e-10 -4.400100e+03 -4.000000e+02
4.000000e+02 -4.400100e+03 -4.000000e+02
-2.664720e-10 -4.000180e+03 -4.000000e+02
4.000000e+02 -4.000180e+03 -4.000000e+02
-6.746660e-10 -4.400100e+03 -2.070140e-10
4.000000e+02 -4.400100e+03 -1.465220e-09
-3.011280e-10 -4.000180e+03 5.643970e-10
4.000000e+02 -4.000180e+03 -6.847070e-10
-4.000000e+02 -4.000180e+03 -4.000000e+02
-2.664720e-10 -4.000180e+03 -4.000000e+02
-4.000000e+02 -3.600230e+03 -4.000000e+02
-5.468670e-13 -3.600230e+03 -4.000000e+02
-4.000000e+02 -4.000180e+03 3.887530e-10
-3.011280e-10 -4.000180e+03 5.643970e-10
-4.000000e+02 -3.600230e+03 7.644480e-10
-8.986910e-11 -3.600230e+03 -2.919140e-10
-2.664720e-10 -4.000180e+03 -4.000000e+02
4.000000e+02 -4.000180e+03 -4.000000e+02
-5.468670e-13 -3.600230e+03 -4.000000e+02
4.000000e+02 -3.600230e+03 -4.000000e+02
-3.011280e-10 -4.000180e+03 5.643970e-10
4.000000e+02 -4.000180e+03 -6.847070e-10
-8.986910e-11 -3.600230e+03 -2.919140e-10
4.000000e+02 -3.600230e+03 -5.548380e-10
-4.000000e+02 -3.600230e+03 -4.000000e+02
-5.468670e-13 -3.600230e+03 -4.000000e+02
-4.000000e+02 -3.200260e+03 -4.000000e+02
-8.514280e-10 -3.200260e+03 -4.000000e+02
-4.000000e+02 -3.600230e+03 7.644480e-10
-8.986910e-11 -3.600230e+03 -2.919140e-10
-4.000000e+02 -3.200260e+03 1.566080e-10
-8.582250e-10 -3.200260e+03 -2.409210e-10
-5.468670e-13 -3.600230e+03 -4.000000e+02
4.000000e+02 -3.600230e+03 -4.000000e+02
-8.514280e-10 -3.200260e+03 -4.000000e+02
4.000000e+02 -3.200260e+03 -4.000000e+02
-8.986910e-11 -3.600230e+03 -2.919140e-10
4.000000e+02 -3.600230e+03 -5.548380e-10
-8.582250e-10 -3.200260e+03 -2.409210e-10
4.000000e+02 -3.200260e+03 -1.633630e-10
-4.000000e+02 -3.200260e+03 -4.000000e+02
-8.514280e-10 -3.200260e+03 -4.000000e+02
-4.000000e+02 -2.800280e+03 -4.000000e+02
-8.068810e-10 -2.800280e+03 -4.000000e+02
-4.000000e+02 -3.200260e+03 1.566080e-10
-8.582250e-10 -3.200260e+03 -2.409210e-10
-4.000000e+02 -2.800280e+03 6.094990e-10
-1.544190e-10 -2.800280e+03 5.163810e-10
-8.514280e-10 -3.200260e+03 -4.000000e+02
4.000000e+02 -3.200260e+03 -4.000000e+02
-8.068810e-10 -2.800280e+03 -4.000000e+02
4.000000e+02 -2.800280e+03 -4.000000e+02
-8.582250e-10 -3.200260e+03 -2.409210e-10
4.000000e+02 -3.200260e+03 -1.633630e-10
-1.544190e-10 -2.800280e+03 5.163810e-10
4.000000e+02 -2.800280e+03 1.033360e-09
-4.000000e+02 -2.800280e+03 -4.000000e+02
-8.068810e-10 -2.800280e+03 -4.000000e+02
-4.000000e+02 -2.400290e+03 -4.000000e+02
6.029980e-10 -2.400290e+03 -4.000000e+02
-4.000000e+02 -2.800280e+03 6.094990e-10
-1.544190e-10 -2.800280e+03 5.163810e-10
-4.000000e+02 -2.400290e+03 1.052570e-09
6.818650e-10 -2.400290e+03 6.997850e-11
-8.068810e-10 -2.800280e+03 -4.000000e+02
4.000000e+02 -2.800280e+03 -4.000000e+02
6.029980e-10 -2.400290e+03 -4.000000e+02
4.000000e+02 -2.400290e+03 -4.000000e+02
-1.544190e-10 -2.800280e+03 5.163810e-10
4.000000e+02 -2.800280e+03 1.033360e-09
6.818650e-10 -2.400290e+03 6.997850e-11
4.000000e+02 -2.400290e+03 6.422340e-10
-4.000000e+02 -2.400290e+03 -4.000000e+02
6.029980e-10 -2.400290e+03 -4.000000e+02
-4.000000e+02 -2.000290e+03 -4.000000e+02
5.999290e-11 -2.000290e+03 -4.000000e+02
-4.000000e+02 -2.400290e+03 1.052570e-09
6.818650e-10 -2.400290e+03 6.997850e-11
-4.000000e+02 -2.000290e+03 -8.703340e-10
4.310730e-10 -2.000290e+03 -1.567680e-10
6.029980e-10 -2.400290e+03 -4.000000e+02
4.000000e+02 -2.400290e+03 -4.000000e+02
5.999290e-11 -2.000290e+03 -4.000000e+02
4.000000e+02 -2.000290e+03 -4.000000e+02
6.818650e-10 -2.400290e+03 6.997850e-11
4.000000e+02 -2.400290e+03 6.422340e-10
4.310730e-10 -2.000290e+03 -1.567680e-10
4.000000e+02 -2.000290e+03 -6.950690e-11
-4.000000e+02 -2.000290e+03 -4.000000e+02
5.999290e-11 -2.000290e+03 -4.000000e+02
-4.000000e+02 -1.600290e+03 -4.000000e+02
3.247010e-10 -1.600290e+03 -4.000000e+02
-4.000000e+02 -2.000290e+03 -8.703340e-10
4.310730e-10 -2.000290e+03 -1.567680e-10
-4.000000e+02 -1.600290e+03 -5.582610e-10
-5.331540e-11 -1.600290e+03 -2.429000e-10
5.999290e-11 -2.000290e+03 -4.000000e+02
4.000000e+02 -2.000290e+03 -4.000000e+02
3.247010e-10 -1.600290e+03 -4.000000e+02
4.000000e+02 -1.600290e+03 -4.000000e+02
4.310730e-10 -2.000290e+03 -1.567680e-10
4.000000e+02 -2.000290e+03 -6.950690e-11
-5.331540e-11 -1.600290e+03 -2.429000e-10
4.000000e+02 -1.600290e+03 -2.374270e-10
-4.000000e+02 -1.600290e+03 -4.000000e+02
3.247010e-10 -1.600290e+03 -4.000000e+02
-4.000000e+02 -1.200290e+03 -4.000000e+02
1.137980e-09 -1.200290e+03 -4.000000e+02
-4.000000e+02 -1.600290e+03 -5.582610e-10
-5.331540e-11 -1.600290e+03 -2.429000e-10
-4.000000e+02 -1.200290e+03 1.747520e-10
3.342900e-10 -1.200290e+03 2.605960e-10
3.247010e-10 -1.600290e+03 -4.000000e+02
4.000000e+02 -1.600290e+03 -4.000000e+02
1.137980e-09 -1.200290e+03 -4.000000e+02
4.000000e+02 -1.200290e+03 -4.000000e+02
-5.331540e-11 -1.600290e+03 -2.429000e-10
4.000000e+02 -1.600290e+03 -2.374270e-10
3.342900e-10 -1.200290e+03 2.605960e-10
4.000000e+02 -1.200290e+03 -1.797490e-10
-4.000000e+02 -1.200290e+03 -4.000000e+02
1.137980e-09 -1.200290e+03 -4.000000e+02
-4.000000e+02 -8.002950e+02 -4.000000e+02
1.580870e-10 -8.002950e+02 -4.000000e+02
-4.000000e+02 -1.200290e+03 1.747520e-10
3.342900e-10 -1.200290e+03 2.605960e-10
-4.000000e+02 -8.002950e+02 -1.160460e-10
-1.795670e-10 -8.002950e+02 1.597720e-10
1.137980e-09 -1.200290e+03 -4.000000e+02
4.000000e+02 -1.200290e+03 -4.000000e+02
1.580870e-10 -8.002950e+02 -4.000000e+02
4.000000e+02 -8.002950e+02 -4.000000e+02
3.342900e-10 -1.200290e+03 2.605960e-10
4.000000e+02 -1.200290e+03 -1.797490e-10
-1.795670e-10 -8.002950e+02 1.597720e-10
4.000000e+02 -8.002950e+02 3.437050e-10
-4.000000e+02 -8.002950e+02 -4.000000e+02
1.580870e-10 -8.002950e+02 -4.000000e+02
-4.000000e+02 -4.002960e+02 -4.000000e+02
-8.689410e-10 -4.002960e+02 -4.000000e+02
-4.000000e+02 -8.002950e+02 -1.160460e-10
-1.795670e-10 -8.002950e+02 1.597720e-10
-4.000000e+02 -4.002960e+02 -2.146330e-10
-1.530120e-10 -4.002960e+02 -6.053780e-10
1.580870e-10 -8.002950e+02 -4.000000e+02
4.000000e+02 -8.002950e+02 -4.000000e+02
-8.689410e-10 -4.002960e+02 -4.000000e+02
4.000000e+02 -4.002960e+02 -4.000000e+02
-1.795670e-10 -8.002950e+02 1.597720e-10
4.000000e+02 -8.002950e+02 3.437050e-10
-1.530120e-10 -4.002960e+02 -6.053780e-10
4.000000e+02 -4.002960e+02 -3.084080e-11
-4.000000e+02 -4.002960e+02 -4.000000e+02
-8.689410e-10 -4.002960e+02 -4.000000e+02
-4.000000e+02 -2.966850e-01 -4.000000e+02
1.355370e-10 -2.966850e-01 -4.000000e+02
-4.000000e+02 -4.002960e+02 -2.146330e-10
-1.530120e-10 -4.002960e+02 -6.053780e-10
-4.000000e+02 -2.966850e-01 -1.767100e-10
-3.644770e-10 -2.966850e-01 1.446590e-10
-8.689410e-10 -4.002960e+02 -4.000000e+02
4.000000e+02 -4.002960e+02 -4.000000e+02
1.355370e-10 -2.966850e-01 -4.000000e+02
[...]
<PointData>
<DataArray type="Float32" Name="V1" format="ascii">
0.000000e+00
0.000000e+00
7.855630e-11
3.282430e-10
0.000000e+00
0.000000e+00
7.384290e-10
-2.943710e-10
0.000000e+00
0.000000e+00
3.282430e-10
4.556260e-10
0.000000e+00
0.000000e+00
-2.943710e-10
-7.070060e-10
7.855630e-11
3.282430e-10
-1.099790e-10
-1.904340e-09
7.384290e-10
-2.943710e-10
-5.184710e-10
5.408730e-10
3.282430e-10
4.556260e-10
-1.904340e-09
-2.278130e-09
-2.943710e-10
-7.070060e-10
5.408730e-10
1.429720e-09
-1.099790e-10
-1.904340e-09
-4.053500e-09
2.720720e-10
-5.184710e-10
5.408730e-10
0.000000e+00
-6.705220e-10
-1.904340e-09
-2.278130e-09
2.720720e-10
3.173670e-09
5.408730e-10
1.429720e-09
-6.705220e-10
-4.713380e-11
-4.053500e-09
2.720720e-10
-7.227180e-10
3.328740e-10
0.000000e+00
-6.705220e-10
-6.284500e-11
-7.272820e-10
2.720720e-10
3.173670e-09
3.328740e-10
1.476860e-09
-6.705220e-10
-4.713380e-11
-7.272820e-10
-1.414010e-10
-7.227180e-10
3.328740e-10
-2.513800e-09
8.794690e-12
-6.284500e-11
-7.272820e-10
-5.970280e-10
3.007750e-10
3.328740e-10
1.476860e-09
8.794690e-12
-6.755840e-10
-7.272820e-10
-1.414010e-10
3.007750e-10
4.242040e-10
-2.513800e-09
8.794690e-12
2.183860e-09
1.056060e-09
-5.970280e-10
3.007750e-10
-4.713380e-11
4.732830e-10
8.794690e-12
-6.755840e-10
1.056060e-09
1.586840e-09
3.007750e-10
4.242040e-10
4.732830e-10
8.012740e-10
2.183860e-09
1.056060e-09
-1.256900e-10
2.731020e-09
-4.713380e-11
4.732830e-10
0.000000e+00
7.483920e-10
1.056060e-09
1.586840e-09
2.731020e-09
8.798300e-10
4.732830e-10
8.012740e-10
7.483920e-10
1.806790e-09
-1.256900e-10
2.731020e-09
4.242040e-10
-5.815270e-10
0.000000e+00
7.483920e-10
-8.641190e-10
-2.567910e-10
2.731020e-09
8.798300e-10
-5.815270e-10
-1.618260e-09
7.483920e-10
1.806790e-09
-2.567910e-10
-2.011040e-09
4.242040e-10
-5.815270e-10
1.272610e-09
4.286060e-11
-8.641190e-10
-2.567910e-10
-6.755840e-10
-3.852070e-10
-5.815270e-10
-1.618260e-09
4.286060e-11
-2.026750e-09
-2.567910e-10
-2.011040e-09
-3.852070e-10
-2.513800e-10
1.272610e-09
4.286060e-11
-1.099790e-09
3.556650e-10
-6.755840e-10
-3.852070e-10
8.955420e-10
-2.476590e-10
4.286060e-11
-2.026750e-09
3.556650e-10
1.021230e-09
-3.852070e-10
-2.513800e-10
-2.476590e-10
8.798300e-10
-1.099790e-09
3.556650e-10
-1.319750e-09
6.789640e-10
8.955420e-10
-2.476590e-10
0.000000e+00
9.944130e-10
3.556650e-10
1.021230e-09
6.789640e-10
-1.052650e-09
-2.476590e-10
8.798300e-10
9.944130e-10
-1.099790e-10
-1.319750e-09
6.789640e-10
2.513800e-10
-1.104830e-09
0.000000e+00
9.944130e-10
0.000000e+00
-4.190230e-10
6.789640e-10
-1.052650e-09
-1.104830e-09
3.927810e-10
9.944130e-10
-1.099790e-10
-4.190230e-10
-5.027600e-10
2.513800e-10
-1.104830e-09
-4.242040e-10
5.987420e-10
0.000000e+00
-4.190230e-10
0.000000e+00
-7.097190e-10
-1.104830e-09
3.927810e-10
5.987420e-10
0.000000e+00
-4.190230e-10
-5.027600e-10
-7.097190e-10
0.000000e+00
-4.242040e-10
5.987420e-10
-7.227180e-10
5.166460e-10
0.000000e+00
-7.097190e-10
0.000000e+00
9.708200e-11
5.987420e-10
0.000000e+00
5.166460e-10
-6.912950e-10
-7.097190e-10
0.000000e+00
9.708200e-11
-4.399150e-10
-7.227180e-10
5.166460e-10
-2.828030e-10
9.962090e-10
0.000000e+00
9.708200e-11
0.000000e+00
-5.953830e-10
5.166460e-10
-6.912950e-10
9.962090e-10
-1.099790e-10
9.708200e-11
-4.399150e-10
-5.953830e-10
0.000000e+00
-2.828030e-10
9.962090e-10
0.000000e+00
8.194300e-11
0.000000e+00
-5.953830e-10
0.000000e+00
-3.024990e-11
9.962090e-10
-1.099790e-10
8.194300e-11
0.000000e+00
-5.953830e-10
0.000000e+00
-3.024990e-11
0.000000e+00
0.000000e+00
8.194300e-11
-6.284500e-10
-2.779350e-10
0.000000e+00
-3.024990e-11
0.000000e+00
-1.061430e-10
8.194300e-11
0.000000e+00
-2.779350e-10
0.000000e+00
-3.024990e-11
0.000000e+00
-1.061430e-10
0.000000e+00
-6.284500e-10
-2.779350e-10
0.000000e+00
-7.254190e-11
0.000000e+00
-1.061430e-10
0.000000e+00
-5.090540e-11
-2.779350e-10
0.000000e+00
-7.254190e-11
8.012740e-10
-1.061430e-10
0.000000e+00
-5.090540e-11
0.000000e+00
0.000000e+00
-7.254190e-11
0.000000e+00
-4.318000e-10
0.000000e+00
-5.090540e-11
0.000000e+00
-3.752780e-11
-7.254190e-11
8.012740e-10
-4.318000e-10
0.000000e+00
-5.090540e-11
0.000000e+00
-3.752780e-11
-9.426750e-11
0.000000e+00
-4.318000e-10
-5.184710e-10
-1.078760e-10
0.000000e+00
-3.752780e-11
0.000000e+00
6.450210e-11
-4.318000e-10
0.000000e+00
-1.078760e-10
4.084930e-10
-3.752780e-11
-9.426750e-11
6.450210e-11
0.000000e+00
-5.184710e-10
-1.078760e-10
0.000000e+00
-4.857060e-11
0.000000e+00
6.450210e-11
-1.571130e-11
-5.499320e-11
-1.078760e-10
4.084930e-10
-4.857060e-11
0.000000e+00
6.450210e-11
0.000000e+00
-5.499320e-11
0.000000e+00
0.000000e+00
-4.857060e-11
0.000000e+00
-1.080280e-12
-1.571130e-11
-5.499320e-11
-6.284500e-11
4.188770e-12
-4.857060e-11
0.000000e+00
-1.080280e-12
0.000000e+00
-5.499320e-11
0.000000e+00
4.188770e-12
0.000000e+00
0.000000e+00
-1.080280e-12
0.000000e+00
-5.951570e-11
-6.284500e-11
4.188770e-12
0.000000e+00
-6.874080e-12
-1.080280e-12
0.000000e+00
-5.951570e-11
0.000000e+00
4.188770e-12
0.000000e+00
-6.874080e-12
0.000000e+00
0.000000e+00
-5.951570e-11
-1.099790e-10
-9.661120e-11
0.000000e+00
-6.874080e-12
3.142250e-11
-8.354760e-11
-5.951570e-11
0.000000e+00
-9.661120e-11
0.000000e+00
-6.874080e-12
0.000000e+00
-8.354760e-11
0.000000e+00
-1.099790e-10
-9.661120e-11
7.855630e-11
1.482810e-10
3.142250e-11
-8.354760e-11
4.084930e-10
2.688980e-10
-9.661120e-11
0.000000e+00
1.482810e-10
0.000000e+00
-8.354760e-11
0.000000e+00
2.688980e-10
0.000000e+00
7.855630e-11
1.482810e-10
0.000000e+00
-7.030830e-11
4.084930e-10
2.688980e-10
-2.356690e-10
-2.206890e-10
1.482810e-10
0.000000e+00
-7.030830e-11
0.000000e+00
2.688980e-10
0.000000e+00
-2.206890e-10
-1.099790e-10
0.000000e+00
-7.030830e-11
-1.571130e-10
-1.842730e-10
-2.356690e-10
-2.206890e-10
0.000000e+00
-8.077070e-11
-7.030830e-11
0.000000e+00
-1.842730e-10
-2.042460e-10
-2.206890e-10
-1.099790e-10
-8.077070e-11
-1.414010e-10
-1.571130e-10
-1.842730e-10
-4.713380e-11
-7.538190e-11
0.000000e+00
-8.077070e-11
0.000000e+00
2.579500e-11
-1.842730e-10
-2.042460e-10
-7.538190e-11
-7.855630e-11
-8.077070e-11
-1.414010e-10
2.579500e-11
6.284500e-11
-4.713380e-11
-7.538190e-11
2.199580e-10
1.443880e-10
0.000000e+00
2.579500e-11
1.099790e-10
6.311650e-11
-7.538190e-11
-7.855630e-11
1.443880e-10
7.855630e-11
2.579500e-11
6.284500e-11
6.311650e-11
0.000000e+00
2.199580e-10
1.443880e-10
3.613590e-10
4.217860e-10
1.099790e-10
6.311650e-11
5.027600e-10
4.624680e-10
1.443880e-10
7.855630e-11
4.217860e-10
5.027600e-10
6.311650e-11
0.000000e+00
4.624680e-10
4.399150e-10
0.000000e+00
0.000000e+00
7.384290e-10
-2.943710e-10
0.000000e+00
0.000000e+00
4.713380e-10
8.531300e-10
0.000000e+00
0.000000e+00
-2.943710e-10
-7.070060e-10
0.000000e+00
0.000000e+00
8.531300e-10
1.728240e-10
7.384290e-10
-2.943710e-10
-5.184710e-10
5.408730e-10
4.713380e-10
8.531300e-10
1.681100e-09
-9.883020e-10
-2.943710e-10
-7.070060e-10
5.408730e-10
1.429720e-09
8.531300e-10
1.728240e-10
-9.883020e-10
-5.184710e-10
-5.184710e-10
5.408730e-10
0.000000e+00
-6.705220e-10
1.681100e-09
-9.883020e-10
-1.131210e-09
4.908210e-10
5.408730e-10
1.429720e-09
-6.705220e-10
-4.713380e-11
-9.883020e-10
-5.184710e-10
4.908210e-10
-4.084930e-10
0.000000e+00
-6.705220e-10
-6.284500e-11
-7.272820e-10
-1.131210e-09
4.908210e-10
-4.399150e-10
7.131670e-11
-6.705220e-10
-4.713380e-11
-7.272820e-10
-1.414010e-10
4.908210e-10
-4.084930e-10
7.131670e-11
1.366880e-09
-6.284500e-11
-7.272820e-10
-5.970280e-10
3.007750e-10
-4.399150e-10
7.131670e-11
-3.299360e-10
1.147850e-09
-7.272820e-10
-1.414010e-10
3.007750e-10
4.242040e-10
7.131670e-11
1.366880e-09
1.147850e-09
0.000000e+00
-5.970280e-10
3.007750e-10
-4.713380e-11
4.732830e-10
-3.299360e-10
1.147850e-09
-8.641190e-10
7.770830e-10
3.007750e-10
4.242040e-10
4.732830e-10
8.012740e-10
1.147850e-09
0.000000e+00
7.770830e-10
2.293840e-09
-4.713380e-11
4.732830e-10
0.000000e+00
7.483920e-10
-8.641190e-10
7.770830e-10
0.000000e+00
-1.854360e-10
4.732830e-10
8.012740e-10
7.483920e-10
1.806790e-09
7.770830e-10
2.293840e-09
-1.854360e-10
-1.225480e-09
0.000000e+00
7.483920e-10
-8.641190e-10
-2.567910e-10
0.000000e+00
-1.854360e-10
1.618260e-09
-1.295310e-10
7.483920e-10
1.806790e-09
-2.567910e-10
-2.011040e-09
-1.854360e-10
-1.225480e-09
-1.295310e-10
-2.938000e-09
-8.641190e-10
-2.567910e-10
-6.755840e-10
-3.852070e-10
1.618260e-09
-1.295310e-10
-1.382590e-09
-3.887640e-10
-2.567910e-10
-2.011040e-09
-3.852070e-10
-2.513800e-10
-1.295310e-10
-2.938000e-09
-3.887640e-10
-7.698510e-10
-6.755840e-10
-3.852070e-10
8.955420e-10
-2.476590e-10
-1.382590e-09
-3.887640e-10
-1.806790e-09
-4.853680e-10
-3.852070e-10
-2.513800e-10
-2.476590e-10
8.798300e-10
-3.887640e-10
-7.698510e-10
-4.853680e-10
0.000000e+00
8.955420e-10
-2.476590e-10
0.000000e+00
9.944130e-10
-1.806790e-09
-4.853680e-10
0.000000e+00
-5.946340e-10
-2.476590e-10
8.798300e-10
9.944130e-10
-1.099790e-10
-4.853680e-10
0.000000e+00
-5.946340e-10
0.000000e+00
0.000000e+00
9.944130e-10
0.000000e+00
-4.190230e-10
0.000000e+00
-5.946340e-10
1.728240e-10
-5.697720e-10
9.944130e-10
-1.099790e-10
-4.190230e-10
-5.027600e-10
-5.946340e-10
0.000000e+00
-5.697720e-10
0.000000e+00
0.000000e+00
-4.190230e-10
0.000000e+00
-7.097190e-10
1.728240e-10
-5.697720e-10
2.356690e-10
1.179460e-09
-4.190230e-10
-5.027600e-10
-7.097190e-10
0.000000e+00
-5.697720e-10
0.000000e+00
1.179460e-09
-4.870490e-10
0.000000e+00
-7.097190e-10
0.000000e+00
9.708200e-11
2.356690e-10
1.179460e-09
0.000000e+00
8.675640e-10
-7.097190e-10
0.000000e+00
9.708200e-11
-4.399150e-10
1.179460e-09
-4.870490e-10
8.675640e-10
-8.955420e-10
0.000000e+00
9.708200e-11
0.000000e+00
-5.953830e-10
0.000000e+00
8.675640e-10
0.000000e+00
-4.133570e-10
9.708200e-11
-4.399150e-10
-5.953830e-10
0.000000e+00
8.675640e-10
-8.955420e-10
-4.133570e-10
1.146920e-09
0.000000e+00
-5.953830e-10
0.000000e+00
-3.024990e-11
0.000000e+00
-4.133570e-10
6.284500e-11
3.335220e-10
-5.953830e-10
0.000000e+00
-3.024990e-11
0.000000e+00
-4.133570e-10
1.146920e-09
3.335220e-10
0.000000e+00
0.000000e+00
-3.024990e-11
0.000000e+00
-1.061430e-10
6.284500e-11
3.335220e-10
1.885350e-10
2.385510e-10
-3.024990e-11
0.000000e+00
-1.061430e-10
0.000000e+00
3.335220e-10
0.000000e+00
2.385510e-10
-5.027600e-10
0.000000e+00
-1.061430e-10
0.000000e+00
-5.090540e-11
1.885350e-10
2.385510e-10
0.000000e+00
-1.591110e-10
-1.061430e-10
0.000000e+00
-5.090540e-11
0.000000e+00
2.385510e-10
-5.027600e-10
-1.591110e-10
0.000000e+00
0.000000e+00
-5.090540e-11
0.000000e+00
-3.752780e-11
0.000000e+00
-1.591110e-10
0.000000e+00
1.056730e-10
-5.090540e-11
0.000000e+00
-3.752780e-11
-9.426750e-11
-1.591110e-10
0.000000e+00
1.056730e-10
0.000000e+00
0.000000e+00
-3.752780e-11
0.000000e+00
6.450210e-11
0.000000e+00
1.056730e-10
0.000000e+00
5.925600e-11
-3.752780e-11
-9.426750e-11
6.450210e-11
0.000000e+00
1.056730e-10
0.000000e+00
5.925600e-11
0.000000e+00
0.000000e+00
6.450210e-11
-1.571130e-11
-5.499320e-11
0.000000e+00
5.925600e-11
2.199580e-10
-6.185330e-11
6.450210e-11
0.000000e+00
-5.499320e-11
0.000000e+00
5.925600e-11
0.000000e+00
-6.185330e-11
0.000000e+00
-1.571130e-11
-5.499320e-11
-6.284500e-11
4.188770e-12
2.199580e-10
-6.185330e-11
0.000000e+00
3.415390e-11
-5.499320e-11
0.000000e+00
4.188770e-12
0.000000e+00
-6.185330e-11
0.000000e+00
3.415390e-11
0.000000e+00
-6.284500e-11
4.188770e-12
0.000000e+00
-6.874080e-12
0.000000e+00
3.415390e-11
0.000000e+00
8.020490e-12
4.188770e-12
0.000000e+00
-6.874080e-12
0.000000e+00
3.415390e-11
0.000000e+00
8.020490e-12
1.256900e-10
0.000000e+00
-6.874080e-12
3.142250e-11
-8.354760e-11
0.000000e+00
8.020490e-12
0.000000e+00
-4.876250e-11
-6.874080e-12
0.000000e+00
-8.354760e-11
0.000000e+00
8.020490e-12
1.256900e-10
-4.876250e-11
0.000000e+00
3.142250e-11
-8.354760e-11
4.084930e-10
2.688980e-10
0.000000e+00
-4.876250e-11
7.070060e-10
3.365810e-10
-8.354760e-11
0.000000e+00
2.688980e-10
0.000000e+00
-4.876250e-11
0.000000e+00
3.365810e-10
0.000000e+00
4.084930e-10
2.688980e-10
-2.356690e-10
-2.206890e-10
7.070060e-10
3.365810e-10
-1.885350e-10
-4.076650e-10
2.688980e-10
0.000000e+00
-2.206890e-10
-1.099790e-10
3.365810e-10
0.000000e+00
-4.076650e-10
-5.184710e-10
-2.356690e-10
-2.206890e-10
0.000000e+00
-8.077070e-11
-1.885350e-10
-4.076650e-10
0.000000e+00
6.993950e-11
-2.206890e-10
-1.099790e-10
-8.077070e-11
-1.414010e-10
-4.076650e-10
-5.184710e-10
6.993950e-11
1.571130e-10
0.000000e+00
-8.077070e-11
0.000000e+00
2.579500e-11
0.000000e+00
6.993950e-11
0.000000e+00
9.973820e-11
-8.077070e-11
-1.414010e-10
2.579500e-11
6.284500e-11
6.993950e-11
1.571130e-10
9.973820e-11
1.099790e-10
0.000000e+00
2.579500e-11
1.099790e-10
6.311650e-11
0.000000e+00
9.973820e-11
6.284500e-11
-5.167400e-12
2.579500e-11
6.284500e-11
6.311650e-11
0.000000e+00
9.973820e-11
1.099790e-10
-5.167400e-12
-6.284500e-11
1.099790e-10
6.311650e-11
5.027600e-10
4.624680e-10
6.284500e-11
-5.167400e-12
5.027600e-10
4.653830e-10
6.311650e-11
0.000000e+00
4.624680e-10
4.399150e-10
-5.167400e-12
-6.284500e-11
4.653830e-10
4.242040e-10
</DataArray>
<DataArray type="Float32" Name="V2" format="ascii">
0.000000e+00
0.000000e+00
2.041890e-02
2.041890e-02
0.000000e+00
0.000000e+00
2.041890e-02
2.041890e-02
0.000000e+00
0.000000e+00
2.041890e-02
2.041890e-02
0.000000e+00
0.000000e+00
2.041890e-02
2.041890e-02
2.041890e-02
2.041890e-02
-9.756060e-03
-9.756060e-03
2.041890e-02
2.041890e-02
-9.756060e-03
-9.756060e-03
2.041890e-02
2.041890e-02
-9.756060e-03
-9.756060e-03
2.041890e-02
2.041890e-02
-9.756060e-03
-9.756050e-03
-9.756060e-03
-9.756060e-03
-5.323630e-02
-5.323630e-02
-9.756060e-03
-9.756060e-03
-5.323630e-02
-5.323630e-02
-9.756060e-03
-9.756060e-03
-5.323630e-02
-5.323630e-02
-9.756060e-03
-9.756050e-03
-5.323630e-02
-5.323630e-02
-5.323630e-02
-5.323630e-02
-6.208080e-02
-6.208080e-02
-5.323630e-02
-5.323630e-02
-6.208080e-02
-6.208080e-02
-5.323630e-02
-5.323630e-02
-6.208080e-02
-6.208080e-02
-5.323630e-02
-5.323630e-02
-6.208080e-02
-6.208080e-02
-6.208080e-02
-6.208080e-02
-4.151660e-02
-4.151660e-02
-6.208080e-02
-6.208080e-02
-4.151660e-02
-4.151660e-02
-6.208080e-02
-6.208080e-02
-4.151660e-02
-4.151660e-02
-6.208080e-02
-6.208080e-02
-4.151660e-02
-4.151660e-02
-4.151660e-02
-4.151660e-02
-2.636100e-02
-2.636100e-02
-4.151660e-02
-4.151660e-02
-2.636100e-02
-2.636100e-02
-4.151660e-02
-4.151660e-02
-2.636100e-02
-2.636100e-02
-4.151660e-02
-4.151660e-02
-2.636100e-02
-2.636100e-02
-2.636100e-02
-2.636100e-02
-1.692900e-02
-1.692900e-02
-2.636100e-02
-2.636100e-02
-1.692900e-02
-1.692900e-02
-2.636100e-02
-2.636100e-02
-1.692900e-02
-1.692900e-02
-2.636100e-02
-2.636100e-02
-1.692900e-02
-1.692900e-02
-1.692900e-02
-1.692900e-02
-6.317650e-03
-6.317650e-03
-1.692900e-02
-1.692900e-02
-6.317650e-03
-6.317650e-03
-1.692900e-02
-1.692900e-02
-6.317650e-03
-6.317650e-03
-1.692900e-02
-1.692900e-02
-6.317650e-03
-6.317650e-03
-6.317650e-03
-6.317650e-03
-3.934480e-03
-3.934480e-03
-6.317650e-03
-6.317650e-03
-3.934470e-03
-3.934480e-03
-6.317650e-03
-6.317650e-03
-3.934480e-03
-3.934470e-03
-6.317650e-03
-6.317650e-03
-3.934480e-03
-3.934470e-03
-3.934480e-03
-3.934480e-03
-2.074930e-03
-2.074930e-03
-3.934470e-03
-3.934480e-03
-2.074940e-03
-2.074930e-03
-3.934480e-03
-3.934470e-03
-2.074930e-03
-2.074930e-03
-3.934480e-03
-3.934470e-03
-2.074930e-03
-2.074930e-03
-2.074930e-03
-2.074930e-03
-1.394850e-03
-1.394850e-03
-2.074940e-03
-2.074930e-03
-1.394850e-03
-1.394850e-03
-2.074930e-03
-2.074930e-03
-1.394850e-03
-1.394850e-03
-2.074930e-03
-2.074930e-03
-1.394850e-03
-1.394850e-03
-1.394850e-03
-1.394850e-03
-1.083120e-03
-1.083120e-03
-1.394850e-03
-1.394850e-03
-1.083120e-03
-1.083120e-03
-1.394850e-03
-1.394850e-03
-1.083120e-03
-1.083120e-03
-1.394850e-03
-1.394850e-03
-1.083120e-03
-1.083120e-03
-1.083120e-03
-1.083120e-03
-3.963690e-04
-3.963680e-04
-1.083120e-03
-1.083120e-03
-3.963700e-04
-3.963680e-04
-1.083120e-03
-1.083120e-03
-3.963680e-04
-3.963680e-04
-1.083120e-03
-1.083120e-03
-3.963680e-04
-3.963690e-04
-3.963690e-04
-3.963680e-04
-8.866540e-04
-8.866570e-04
-3.963700e-04
-3.963680e-04
-8.866530e-04
-8.866560e-04
-3.963680e-04
-3.963680e-04
-8.866570e-04
-8.866570e-04
-3.963680e-04
-3.963690e-04
-8.866560e-04
-8.866550e-04
-8.866540e-04
-8.866570e-04
-2.949720e-04
-2.949720e-04
-8.866530e-04
-8.866560e-04
-2.949730e-04
-2.949700e-04
-8.866570e-04
-8.866570e-04
-2.949720e-04
-2.949690e-04
-8.866560e-04
-8.866550e-04
-2.949700e-04
-2.949700e-04
-2.949720e-04
-2.949720e-04
9.513660e-05
9.513790e-05
-2.949730e-04
-2.949700e-04
9.513830e-05
9.513700e-05
-2.949720e-04
-2.949690e-04
9.513790e-05
9.513560e-05
-2.949700e-04
-2.949700e-04
9.513700e-05
9.513620e-05
9.513660e-05
9.513790e-05
5.810620e-05
5.810560e-05
9.513830e-05
9.513700e-05
5.810390e-05
5.810270e-05
9.513790e-05
9.513560e-05
5.810560e-05
5.810450e-05
9.513700e-05
9.513620e-05
5.810270e-05
5.810320e-05
5.810620e-05
5.810560e-05
-1.788620e-04
-1.788630e-04
5.810390e-05
5.810270e-05
-1.788620e-04
-1.788610e-04
5.810560e-05
5.810450e-05
-1.788630e-04
-1.788600e-04
5.810270e-05
5.810320e-05
-1.788610e-04
-1.788610e-04
-1.788620e-04
-1.788630e-04
6.711990e-05
6.711700e-05
-1.788620e-04
-1.788610e-04
6.711610e-05
6.711580e-05
-1.788630e-04
-1.788600e-04
6.711700e-05
6.711500e-05
-1.788610e-04
-1.788610e-04
6.711580e-05
6.711560e-05
6.711990e-05
6.711700e-05
-9.023880e-05
-9.023230e-05
6.711610e-05
6.711580e-05
-9.023260e-05
-9.023410e-05
6.711700e-05
6.711500e-05
-9.023230e-05
-9.023470e-05
6.711580e-05
6.711560e-05
-9.023410e-05
-9.023160e-05
-9.023880e-05
-9.023230e-05
-5.276950e-04
-5.277030e-04
-9.023260e-05
-9.023410e-05
-5.277030e-04
-5.276990e-04
-9.023230e-05
-9.023470e-05
-5.277030e-04
-5.276970e-04
-9.023410e-05
-9.023160e-05
-5.276990e-04
-5.277010e-04
-5.276950e-04
-5.277030e-04
-1.626720e-04
-1.626690e-04
-5.277030e-04
-5.276990e-04
-1.626690e-04
-1.626690e-04
-5.277030e-04
-5.276970e-04
-1.626690e-04
-1.626680e-04
-5.276990e-04
-5.277010e-04
-1.626690e-04
-1.626680e-04
-1.626720e-04
-1.626690e-04
6.432060e-05
6.432160e-05
-1.626690e-04
-1.626690e-04
6.432070e-05
6.431770e-05
-1.626690e-04
-1.626680e-04
6.432160e-05
6.431750e-05
-1.626690e-04
-1.626680e-04
6.431770e-05
6.431890e-05
6.432060e-05
6.432160e-05
-4.013520e-04
-4.013560e-04
6.432070e-05
6.431770e-05
-4.013560e-04
-4.013600e-04
6.432160e-05
6.431750e-05
-4.013560e-04
-4.013580e-04
6.431770e-05
6.431890e-05
-4.013600e-04
-4.013590e-04
-4.013520e-04
-4.013560e-04
-3.293670e-04
-3.293690e-04
-4.013560e-04
-4.013600e-04
-3.293680e-04
-3.293640e-04
-4.013560e-04
-4.013580e-04
-3.293690e-04
-3.293680e-04
-4.013600e-04
-4.013590e-04
-3.293640e-04
-3.293630e-04
-3.293670e-04
-3.293690e-04
-5.812030e-04
-5.812010e-04
-3.293680e-04
-3.293640e-04
-5.812020e-04
-5.812020e-04
-3.293690e-04
-3.293680e-04
-5.812010e-04
-5.811990e-04
-3.293640e-04
-3.293630e-04
-5.812020e-04
-5.812020e-04
-5.812030e-04
-5.812010e-04
-7.974950e-04
-7.974900e-04
-5.812020e-04
-5.812020e-04
-7.974900e-04
-7.974920e-04
-5.812010e-04
-5.811990e-04
-7.974900e-04
-7.974910e-04
-5.812020e-04
-5.812020e-04
-7.974920e-04
-7.974940e-04
-7.974950e-04
-7.974900e-04
-8.084140e-04
-8.084150e-04
-7.974900e-04
-7.974920e-04
-8.084140e-04
-8.084120e-04
-7.974900e-04
-7.974910e-04
-8.084150e-04
-8.084120e-04
-7.974920e-04
-7.974940e-04
-8.084120e-04
-8.084100e-04
-8.084140e-04
-8.084150e-04
1.757240e-04
1.757240e-04
-8.084140e-04
-8.084120e-04
1.757240e-04
1.757220e-04
-8.084150e-04
-8.084120e-04
1.757240e-04
1.757210e-04
-8.084120e-04
-8.084100e-04
1.757220e-04
1.757210e-04
1.757240e-04
1.757240e-04
-4.742590e-04
-4.742590e-04
1.757240e-04
1.757220e-04
-4.742590e-04
-4.742600e-04
1.757240e-04
1.757210e-04
-4.742590e-04
-4.742600e-04
1.757220e-04
1.757210e-04
-4.742600e-04
-4.742610e-04
0.000000e+00
0.000000e+00
2.041890e-02
2.041890e-02
0.000000e+00
0.000000e+00
2.041890e-02
2.041890e-02
0.000000e+00
0.000000e+00
2.041890e-02
2.041890e-02
0.000000e+00
0.000000e+00
2.041890e-02
2.041890e-02
2.041890e-02
2.041890e-02
-9.756060e-03
-9.756060e-03
2.041890e-02
2.041890e-02
-9.756050e-03
-9.756050e-03
2.041890e-02
2.041890e-02
-9.756060e-03