<?xml version="1.0"?>
<VTKFile type="UnstructuredGrid" version="0.1" byte_order="LittleEndian" compressor="vtkZLibDataCompressor">
<UnstructuredGrid>
<Piece NumberOfPoints="960" NumberOfCells="120">
<Points>
<DataArray type="Float32" NumberOfComponents="3" format="ascii">
-4.000000e+02 -6.000000e+03 -4.000000e+02
0.000000e+00 -6.000000e+03 -4.000000e+02
-4.000000e+02 -5.600000e+03 -4.000000e+02
1.700810e-09 -5.600000e+03 -4.000000e+02
-4.000000e+02 -6.000000e+03 0.000000e+00
0.000000e+00 -6.000000e+03 0.000000e+00
-4.000000e+02 -5.600000e+03 2.012240e-10
3.717070e-10 -5.600000e+03 1.152300e-10
0.000000e+00 -6.000000e+03 -4.000000e+02
4.000000e+02 -6.000000e+03 -4.000000e+02
1.700810e-09 -5.600000e+03 -4.000000e+02
4.000000e+02 -5.600000e+03 -4.000000e+02
0.000000e+00 -6.000000e+03 0.000000e+00
4.000000e+02 -6.000000e+03 0.000000e+00
3.717070e-10 -5.600000e+03 1.152300e-10
4.000000e+02 -5.600000e+03 -4.669780e-10
-4.000000e+02 -5.600000e+03 -4.000000e+02
1.700810e-09 -5.600000e+03 -4.000000e+02
-4.000000e+02 -5.200000e+03 -4.000000e+02
4.396040e-10 -5.200000e+03 -4.000000e+02
-4.000000e+02 -5.600000e+03 2.012240e-10
3.717070e-10 -5.600000e+03 1.152300e-10
-4.000000e+02 -5.200000e+03 1.229150e-09
-6.068790e-10 -5.200000e+03 1.934200e-10
1.700810e-09 -5.600000e+03 -4.000000e+02
4.000000e+02 -5.600000e+03 -4.000000e+02
4.396040e-10 -5.200000e+03 -4.000000e+02
4.000000e+02 -5.200000e+03 -4.000000e+02
3.717070e-10 -5.600000e+03 1.152300e-10
4.000000e+02 -5.600000e+03 -4.669780e-10
-6.068790e-10 -5.200000e+03 1.934200e-10
4.000000e+02 -5.200000e+03 4.640730e-10
-4.000000e+02 -5.200000e+03 -4.000000e+02
4.396040e-10 -5.200000e+03 -4.000000e+02
-4.000000e+02 -4.800000e+03 -4.000000e+02
-6.940530e-10 -4.800000e+03 -4.000000e+02
-4.000000e+02 -5.200000e+03 1.229150e-09
-6.068790e-10 -5.200000e+03 1.934200e-10
-4.000000e+02 -4.800000e+03 4.152680e-10
-8.583660e-10 -4.800000e+03 1.461240e-10
4.396040e-10 -5.200000e+03 -4.000000e+02
4.000000e+02 -5.200000e+03 -4.000000e+02
-6.940530e-10 -4.800000e+03 -4.000000e+02
4.000000e+02 -4.800000e+03 -4.000000e+02
-6.068790e-10 -5.200000e+03 1.934200e-10
4.000000e+02 -5.200000e+03 4.640730e-10
-8.583660e-10 -4.800000e+03 1.461240e-10
4.000000e+02 -4.800000e+03 5.752740e-10
-4.000000e+02 -4.800000e+03 -4.000000e+02
-6.940530e-10 -4.800000e+03 -4.000000e+02
-4.000000e+02 -4.400000e+03 -4.000000e+02
1.135160e-10 -4.400000e+03 -4.000000e+02
-4.000000e+02 -4.800000e+03 4.152680e-10
-8.583660e-10 -4.800000e+03 1.461240e-10
-4.000000e+02 -4.400000e+03 -1.028410e-09
-5.767650e-10 -4.400000e+03 5.744530e-10
-6.940530e-10 -4.800000e+03 -4.000000e+02
4.000000e+02 -4.800000e+03 -4.000000e+02
1.135160e-10 -4.400000e+03 -4.000000e+02
4.000000e+02 -4.400000e+03 -4.000000e+02
-8.583660e-10 -4.800000e+03 1.461240e-10
4.000000e+02 -4.800000e+03 5.752740e-10
-5.767650e-10 -4.400000e+03 5.744530e-10
4.000000e+02 -4.400000e+03 4.429220e-11
-4.000000e+02 -4.400000e+03 -4.000000e+02
1.135160e-10 -4.400000e+03 -4.000000e+02
-4.000000e+02 -4.000000e+03 -4.000000e+02
-1.551720e-09 -4.000000e+03 -4.000000e+02
-4.000000e+02 -4.400000e+03 -1.028410e-09
-5.767650e-10 -4.400000e+03 5.744530e-10
-4.000000e+02 -4.000000e+03 -1.659650e-09
-1.459200e-09 -4.000000e+03 -7.388220e-10
1.135160e-10 -4.400000e+03 -4.000000e+02
4.000000e+02 -4.400000e+03 -4.000000e+02
-1.551720e-09 -4.000000e+03 -4.000000e+02
4.000000e+02 -4.000000e+03 -4.000000e+02
-5.767650e-10 -4.400000e+03 5.744530e-10
4.000000e+02 -4.400000e+03 4.429220e-11
-1.459200e-09 -4.000000e+03 -7.388220e-10
4.000000e+02 -4.000000e+03 -5.933600e-11
-4.000000e+02 -4.000000e+03 -4.000000e+02
-1.551720e-09 -4.000000e+03 -4.000000e+02
-4.000000e+02 -3.600000e+03 -4.000000e+02
-2.564400e-09 -3.600000e+03 -4.000000e+02
-4.000000e+02 -4.000000e+03 -1.659650e-09
-1.459200e-09 -4.000000e+03 -7.388220e-10
-4.000000e+02 -3.600000e+03 -1.891090e-09
-2.217560e-09 -3.600000e+03 -1.671290e-09
-1.551720e-09 -4.000000e+03 -4.000000e+02
4.000000e+02 -4.000000e+03 -4.000000e+02
-2.564400e-09 -3.600000e+03 -4.000000e+02
4.000000e+02 -3.600000e+03 -4.000000e+02
-1.459200e-09 -4.000000e+03 -7.388220e-10
4.000000e+02 -4.000000e+03 -5.933600e-11
-2.217560e-09 -3.600000e+03 -1.671290e-09
4.000000e+02 -3.600000e+03 -1.295200e-09
-4.000000e+02 -3.600000e+03 -4.000000e+02
-2.564400e-09 -3.600000e+03 -4.000000e+02
-4.000000e+02 -3.200010e+03 -4.000000e+02
-3.045050e-09 -3.200010e+03 -4.000000e+02
-4.000000e+02 -3.600000e+03 -1.891090e-09
-2.217560e-09 -3.600000e+03 -1.671290e-09
-4.000000e+02 -3.200010e+03 -1.525220e-09
-2.764480e-09 -3.200010e+03 -1.079890e-09
-2.564400e-09 -3.600000e+03 -4.000000e+02
4.000000e+02 -3.600000e+03 -4.000000e+02
-3.045050e-09 -3.200010e+03 -4.000000e+02
4.000000e+02 -3.200010e+03 -4.000000e+02
-2.217560e-09 -3.600000e+03 -1.671290e-09
4.000000e+02 -3.600000e+03 -1.295200e-09
-2.764480e-09 -3.200010e+03 -1.079890e-09
4.000000e+02 -3.200010e+03 -7.712320e-10
-4.000000e+02 -3.200010e+03 -4.000000e+02
-3.045050e-09 -3.200010e+03 -4.000000e+02
-4.000000e+02 -2.800010e+03 -4.000000e+02
-3.015820e-09 -2.800010e+03 -4.000000e+02
-4.000000e+02 -3.200010e+03 -1.525220e-09
-2.764480e-09 -3.200010e+03 -1.079890e-09
-4.000000e+02 -2.800010e+03 -2.940830e-09
-3.315090e-09 -2.800010e+03 -5.518820e-10
-3.045050e-09 -3.200010e+03 -4.000000e+02
4.000000e+02 -3.200010e+03 -4.000000e+02
-3.015820e-09 -2.800010e+03 -4.000000e+02
4.000000e+02 -2.800010e+03 -4.000000e+02
-2.764480e-09 -3.200010e+03 -1.079890e-09
4.000000e+02 -3.200010e+03 -7.712320e-10
-3.315090e-09 -2.800010e+03 -5.518820e-10
4.000000e+02 -2.800010e+03 -1.106580e-09
-4.000000e+02 -2.800010e+03 -4.000000e+02
-3.015820e-09 -2.800010e+03 -4.000000e+02
-4.000000e+02 -2.400020e+03 -4.000000e+02
-3.200380e-09 -2.400020e+03 -4.000000e+02
-4.000000e+02 -2.800010e+03 -2.940830e-09
-3.315090e-09 -2.800010e+03 -5.518820e-10
-4.000000e+02 -2.400020e+03 -1.807170e-09
-2.489780e-09 -2.400020e+03 -1.574710e-09
-3.015820e-09 -2.800010e+03 -4.000000e+02
4.000000e+02 -2.800010e+03 -4.000000e+02
-3.200380e-09 -2.400020e+03 -4.000000e+02
4.000000e+02 -2.400020e+03 -4.000000e+02
-3.315090e-09 -2.800010e+03 -5.518820e-10
4.000000e+02 -2.800010e+03 -1.106580e-09
-2.489780e-09 -2.400020e+03 -1.574710e-09
4.000000e+02 -2.400020e+03 -1.128740e-09
-4.000000e+02 -2.400020e+03 -4.000000e+02
-3.200380e-09 -2.400020e+03 -4.000000e+02
-4.000000e+02 -2.000040e+03 -4.000000e+02
-4.591430e-10 -2.000040e+03 -4.000000e+02
-4.000000e+02 -2.400020e+03 -1.807170e-09
-2.489780e-09 -2.400020e+03 -1.574710e-09
-4.000000e+02 -2.000040e+03 -1.968240e-10
-2.838950e-11 -2.000040e+03 -9.248150e-10
-3.200380e-09 -2.400020e+03 -4.000000e+02
4.000000e+02 -2.400020e+03 -4.000000e+02
-4.591430e-10 -2.000040e+03 -4.000000e+02
4.000000e+02 -2.000040e+03 -4.000000e+02
-2.489780e-09 -2.400020e+03 -1.574710e-09
4.000000e+02 -2.400020e+03 -1.128740e-09
-2.838950e-11 -2.000040e+03 -9.248150e-10
4.000000e+02 -2.000040e+03 -7.535150e-10
-4.000000e+02 -2.000040e+03 -4.000000e+02
-4.591430e-10 -2.000040e+03 -4.000000e+02
-4.000000e+02 -1.600080e+03 -4.000000e+02
-1.708620e-10 -1.600080e+03 -4.000000e+02
-4.000000e+02 -2.000040e+03 -1.968240e-10
-2.838950e-11 -2.000040e+03 -9.248150e-10
-4.000000e+02 -1.600080e+03 -1.558730e-10
3.708900e-11 -1.600080e+03 -7.139690e-10
-4.591430e-10 -2.000040e+03 -4.000000e+02
4.000000e+02 -2.000040e+03 -4.000000e+02
-1.708620e-10 -1.600080e+03 -4.000000e+02
4.000000e+02 -1.600080e+03 -4.000000e+02
-2.838950e-11 -2.000040e+03 -9.248150e-10
4.000000e+02 -2.000040e+03 -7.535150e-10
3.708900e-11 -1.600080e+03 -7.139690e-10
4.000000e+02 -1.600080e+03 -1.858440e-10
-4.000000e+02 -1.600080e+03 -4.000000e+02
-1.708620e-10 -1.600080e+03 -4.000000e+02
-4.000000e+02 -1.200130e+03 -4.000000e+02
6.831240e-10 -1.200130e+03 -4.000000e+02
-4.000000e+02 -1.600080e+03 -1.558730e-10
3.708900e-11 -1.600080e+03 -7.139690e-10
-4.000000e+02 -1.200130e+03 -1.240180e-09
1.211930e-09 -1.200130e+03 -2.546820e-10
-1.708620e-10 -1.600080e+03 -4.000000e+02
4.000000e+02 -1.600080e+03 -4.000000e+02
6.831240e-10 -1.200130e+03 -4.000000e+02
4.000000e+02 -1.200130e+03 -4.000000e+02
3.708900e-11 -1.600080e+03 -7.139690e-10
4.000000e+02 -1.600080e+03 -1.858440e-10
1.211930e-09 -1.200130e+03 -2.546820e-10
4.000000e+02 -1.200130e+03 -4.799190e-10
-4.000000e+02 -1.200130e+03 -4.000000e+02
6.831240e-10 -1.200130e+03 -4.000000e+02
-4.000000e+02 -8.001910e+02 -4.000000e+02
7.617980e-10 -8.001910e+02 -4.000000e+02
-4.000000e+02 -1.200130e+03 -1.240180e-09
1.211930e-09 -1.200130e+03 -2.546820e-10
-4.000000e+02 -8.001910e+02 -4.628590e-10
1.088340e-09 -8.001910e+02 4.220570e-10
6.831240e-10 -1.200130e+03 -4.000000e+02
4.000000e+02 -1.200130e+03 -4.000000e+02
7.617980e-10 -8.001910e+02 -4.000000e+02
4.000000e+02 -8.001910e+02 -4.000000e+02
1.211930e-09 -1.200130e+03 -2.546820e-10
4.000000e+02 -1.200130e+03 -4.799190e-10
1.088340e-09 -8.001910e+02 4.220570e-10
4.000000e+02 -8.001910e+02 4.343230e-10
-4.000000e+02 -8.001910e+02 -4.000000e+02
7.617980e-10 -8.001910e+02 -4.000000e+02
-4.000000e+02 -4.002580e+02 -4.000000e+02
9.543250e-10 -4.002580e+02 -4.000000e+02
-4.000000e+02 -8.001910e+02 -4.628590e-10
1.088340e-09 -8.001910e+02 4.220570e-10
-4.000000e+02 -4.002580e+02 1.386160e-09
8.250480e-10 -4.002580e+02 1.508410e-09
7.617980e-10 -8.001910e+02 -4.000000e+02
4.000000e+02 -8.001910e+02 -4.000000e+02
9.543250e-10 -4.002580e+02 -4.000000e+02
4.000000e+02 -4.002580e+02 -4.000000e+02
1.088340e-09 -8.001910e+02 4.220570e-10
4.000000e+02 -8.001910e+02 4.343230e-10
8.250480e-10 -4.002580e+02 1.508410e-09
4.000000e+02 -4.002580e+02 2.059220e-09
-4.000000e+02 -4.002580e+02 -4.000000e+02
9.543250e-10 -4.002580e+02 -4.000000e+02
-4.000000e+02 -3.129850e-01 -4.000000e+02
9.716630e-10 -3.129850e-01 -4.000000e+02
-4.000000e+02 -4.002580e+02 1.386160e-09
8.250480e-10 -4.002580e+02 1.508410e-09
-4.000000e+02 -3.129850e-01 1.457460e-09
6.397790e-10 -3.129850e-01 1.642480e-09
9.543250e-10 -4.002580e+02 -4.000000e+02
4.000000e+02 -4.002580e+02 -4.000000e+02
9.716630e-10 -3.129850e-01 -4.000000e+02
[...]
<PointData>
<DataArray type="Float32" Name="V1" format="ascii">
0.000000e+00
0.000000e+00
9.269640e-10
-2.269770e-10
0.000000e+00
0.000000e+00
-1.194060e-09
-1.290150e-10
0.000000e+00
0.000000e+00
-2.269770e-10
-3.205100e-09
0.000000e+00
0.000000e+00
-1.290150e-10
2.356690e-09
9.269640e-10
-2.269770e-10
2.199580e-09
2.312900e-09
-1.194060e-09
-1.290150e-10
-6.912950e-10
-3.411910e-10
-2.269770e-10
-3.205100e-09
2.312900e-09
6.127390e-10
-1.290150e-10
2.356690e-09
-3.411910e-10
2.513800e-10
2.199580e-09
2.312900e-09
-7.070060e-10
-4.318640e-10
-6.912950e-10
-3.411910e-10
4.084930e-10
-6.885920e-10
2.312900e-09
6.127390e-10
-4.318640e-10
9.740980e-10
-3.411910e-10
2.513800e-10
-6.885920e-10
5.027600e-10
-7.070060e-10
-4.318640e-10
-6.598730e-10
-2.033410e-10
4.084930e-10
-6.885920e-10
1.351170e-09
6.334160e-10
-4.318640e-10
9.740980e-10
-2.033410e-10
-1.414010e-09
-6.885920e-10
5.027600e-10
6.334160e-10
-2.042460e-10
-6.598730e-10
-2.033410e-10
-5.813160e-10
2.257570e-10
1.351170e-09
6.334160e-10
2.576650e-09
6.738540e-10
-2.033410e-10
-1.414010e-09
2.257570e-10
1.256900e-09
6.334160e-10
-2.042460e-10
6.738540e-10
-1.838220e-09
-5.813160e-10
2.257570e-10
3.802120e-09
8.455420e-10
2.576650e-09
6.738540e-10
-1.995330e-09
1.396920e-10
2.257570e-10
1.256900e-09
8.455420e-10
-2.482380e-09
6.738540e-10
-1.838220e-09
1.396920e-10
-1.366880e-09
3.802120e-09
8.455420e-10
-1.602550e-09
-7.935030e-10
-1.995330e-09
1.396920e-10
9.426750e-11
5.056360e-10
8.455420e-10
-2.482380e-09
-7.935030e-10
5.341830e-10
1.396920e-10
-1.366880e-09
5.056360e-10
1.052650e-09
-1.602550e-09
-7.935030e-10
1.099790e-10
-1.628800e-09
9.426750e-11
5.056360e-10
4.713380e-11
1.047890e-09
-7.935030e-10
5.341830e-10
-1.628800e-09
-8.326970e-10
5.056360e-10
1.052650e-09
1.047890e-09
-4.870490e-10
1.099790e-10
-1.628800e-09
-5.498940e-10
-6.031130e-10
4.713380e-11
1.047890e-09
-2.199580e-09
-6.697470e-10
-1.628800e-09
-8.326970e-10
-6.031130e-10
-1.209770e-09
1.047890e-09
-4.870490e-10
-6.697470e-10
3.142250e-11
-5.498940e-10
-6.031130e-10
-1.665390e-09
-9.408410e-10
-2.199580e-09
-6.697470e-10
-3.770700e-10
-1.295870e-10
-6.031130e-10
-1.209770e-09
-9.408410e-10
-9.269640e-10
-6.697470e-10
3.142250e-11
-1.295870e-10
0.000000e+00
-1.665390e-09
-9.408410e-10
-5.184710e-10
3.819440e-12
-3.770700e-10
-1.295870e-10
-1.099790e-10
-4.661950e-10
-9.408410e-10
-9.269640e-10
3.819440e-12
2.828030e-10
-1.295870e-10
0.000000e+00
-4.661950e-10
-2.513800e-10
-5.184710e-10
3.819440e-12
3.142250e-10
-1.235370e-09
-1.099790e-10
-4.661950e-10
-1.414010e-10
1.637690e-10
3.819440e-12
2.828030e-10
-1.235370e-09
-4.242040e-10
-4.661950e-10
-2.513800e-10
1.637690e-10
0.000000e+00
3.142250e-10
-1.235370e-09
1.665390e-09
4.901480e-10
-1.414010e-10
1.637690e-10
1.476860e-09
6.348860e-10
-1.235370e-09
-4.242040e-10
4.901480e-10
-1.304030e-09
1.637690e-10
0.000000e+00
6.348860e-10
-5.498940e-10
1.665390e-09
4.901480e-10
1.476860e-09
-1.642390e-09
1.476860e-09
6.348860e-10
-4.713380e-11
-1.656990e-10
4.901480e-10
-1.304030e-09
-1.642390e-09
0.000000e+00
6.348860e-10
-5.498940e-10
-1.656990e-10
-2.356690e-10
1.476860e-09
-1.642390e-09
4.084930e-10
1.139700e-09
-4.713380e-11
-1.656990e-10
-1.414010e-09
3.271840e-11
-1.642390e-09
0.000000e+00
1.139700e-09
0.000000e+00
-1.656990e-10
-2.356690e-10
3.271840e-11
4.084930e-10
4.084930e-10
1.139700e-09
1.146920e-09
-4.486180e-10
-1.414010e-09
3.271840e-11
8.641190e-10
6.255040e-10
1.139700e-09
0.000000e+00
-4.486180e-10
5.027600e-10
3.271840e-11
4.084930e-10
6.255040e-10
-8.012740e-10
1.146920e-09
-4.486180e-10
1.571130e-10
5.229250e-10
8.641190e-10
6.255040e-10
1.429720e-09
3.731530e-10
-4.486180e-10
5.027600e-10
5.229250e-10
-3.142250e-10
6.255040e-10
-8.012740e-10
3.731530e-10
-1.414010e-10
1.571130e-10
5.229250e-10
4.242040e-10
8.470660e-10
1.429720e-09
3.731530e-10
-7.541400e-10
-1.678850e-10
5.229250e-10
-3.142250e-10
8.470660e-10
0.000000e+00
3.731530e-10
-1.414010e-10
-1.678850e-10
0.000000e+00
4.242040e-10
8.470660e-10
-1.146920e-09
-2.206830e-10
-7.541400e-10
-1.678850e-10
-9.269640e-10
-4.104410e-10
8.470660e-10
0.000000e+00
-2.206830e-10
-3.770700e-10
-1.678850e-10
0.000000e+00
-4.104410e-10
0.000000e+00
-1.146920e-09
-2.206830e-10
3.927810e-10
4.219520e-10
-9.269640e-10
-4.104410e-10
0.000000e+00
2.664670e-10
-2.206830e-10
-3.770700e-10
4.219520e-10
0.000000e+00
-4.104410e-10
0.000000e+00
2.664670e-10
0.000000e+00
3.927810e-10
4.219520e-10
0.000000e+00
1.095780e-10
0.000000e+00
2.664670e-10
0.000000e+00
7.758060e-11
4.219520e-10
0.000000e+00
1.095780e-10
0.000000e+00
2.664670e-10
0.000000e+00
7.758060e-11
0.000000e+00
0.000000e+00
1.095780e-10
-1.571130e-10
-1.557490e-10
0.000000e+00
7.758060e-11
-4.713380e-11
-1.038340e-10
1.095780e-10
0.000000e+00
-1.557490e-10
0.000000e+00
7.758060e-11
0.000000e+00
-1.038340e-10
0.000000e+00
-1.571130e-10
-1.557490e-10
4.399150e-10
1.541330e-10
-4.713380e-11
-1.038340e-10
3.770700e-10
1.706130e-10
-1.557490e-10
0.000000e+00
1.541330e-10
0.000000e+00
-1.038340e-10
0.000000e+00
1.706130e-10
0.000000e+00
4.399150e-10
1.541330e-10
0.000000e+00
-1.027490e-10
3.770700e-10
1.706130e-10
0.000000e+00
-9.722660e-11
1.541330e-10
0.000000e+00
-1.027490e-10
0.000000e+00
1.706130e-10
0.000000e+00
-9.722660e-11
0.000000e+00
0.000000e+00
-1.027490e-10
0.000000e+00
-3.386570e-11
0.000000e+00
-9.722660e-11
0.000000e+00
-4.596320e-11
-1.027490e-10
0.000000e+00
-3.386570e-11
0.000000e+00
-9.722660e-11
0.000000e+00
-4.596320e-11
0.000000e+00
0.000000e+00
-3.386570e-11
3.927810e-10
2.574630e-10
0.000000e+00
-4.596320e-11
4.084930e-10
2.689020e-10
-3.386570e-11
0.000000e+00
2.574630e-10
0.000000e+00
-4.596320e-11
0.000000e+00
2.689020e-10
0.000000e+00
3.927810e-10
2.574630e-10
0.000000e+00
1.193330e-11
4.084930e-10
2.689020e-10
0.000000e+00
1.536850e-11
2.574630e-10
0.000000e+00
1.193330e-11
0.000000e+00
2.689020e-10
0.000000e+00
1.536850e-11
0.000000e+00
0.000000e+00
1.193330e-11
-1.885350e-10
-9.371030e-11
0.000000e+00
1.536850e-11
-2.042460e-10
-1.029520e-10
1.193330e-11
0.000000e+00
-9.371030e-11
0.000000e+00
1.536850e-11
0.000000e+00
-1.029520e-10
0.000000e+00
-1.885350e-10
-9.371030e-11
1.571130e-11
1.764760e-11
-2.042460e-10
-1.029520e-10
3.142250e-11
1.817090e-11
-9.371030e-11
0.000000e+00
1.764760e-11
0.000000e+00
-1.029520e-10
0.000000e+00
1.817090e-11
0.000000e+00
1.571130e-11
1.764760e-11
4.713380e-11
1.340840e-11
3.142250e-11
1.817090e-11
4.713380e-11
1.631180e-11
1.764760e-11
0.000000e+00
1.340840e-11
0.000000e+00
1.817090e-11
0.000000e+00
1.631180e-11
0.000000e+00
0.000000e+00
0.000000e+00
-1.194060e-09
-1.290150e-10
0.000000e+00
0.000000e+00
3.315070e-09
-5.142420e-10
0.000000e+00
0.000000e+00
-1.290150e-10
2.356690e-09
0.000000e+00
0.000000e+00
-5.142420e-10
-2.293840e-09
-1.194060e-09
-1.290150e-10
-6.912950e-10
-3.411910e-10
3.315070e-09
-5.142420e-10
1.084080e-09
2.410250e-10
-1.290150e-10
2.356690e-09
-3.411910e-10
2.513800e-10
-5.142420e-10
-2.293840e-09
2.410250e-10
1.351170e-09
-6.912950e-10
-3.411910e-10
4.084930e-10
-6.885920e-10
1.084080e-09
2.410250e-10
-2.498090e-09
6.517860e-10
-3.411910e-10
2.513800e-10
-6.885920e-10
5.027600e-10
2.410250e-10
1.351170e-09
6.517860e-10
4.399150e-10
4.084930e-10
-6.885920e-10
1.351170e-09
6.334160e-10
-2.498090e-09
6.517860e-10
-1.539700e-09
-1.603210e-10
-6.885920e-10
5.027600e-10
6.334160e-10
-2.042460e-10
6.517860e-10
4.399150e-10
-1.603210e-10
-7.384290e-10
1.351170e-09
6.334160e-10
2.576650e-09
6.738540e-10
-1.539700e-09
-1.603210e-10
5.656050e-10
2.630120e-10
6.334160e-10
-2.042460e-10
6.738540e-10
-1.838220e-09
-1.603210e-10
-7.384290e-10
2.630120e-10
2.262420e-09
2.576650e-09
6.738540e-10
-1.995330e-09
1.396920e-10
5.656050e-10
2.630120e-10
1.351170e-09
1.293760e-09
6.738540e-10
-1.838220e-09
1.396920e-10
-1.366880e-09
2.630120e-10
2.262420e-09
1.293760e-09
-1.319750e-09
-1.995330e-09
1.396920e-10
9.426750e-11
5.056360e-10
1.351170e-09
1.293760e-09
-2.482380e-09
-2.066790e-09
1.396920e-10
-1.366880e-09
5.056360e-10
1.052650e-09
1.293760e-09
-1.319750e-09
-2.066790e-09
6.912950e-10
9.426750e-11
5.056360e-10
4.713380e-11
1.047890e-09
-2.482380e-09
-2.066790e-09
1.728240e-09
-8.683630e-10
5.056360e-10
1.052650e-09
1.047890e-09
-4.870490e-10
-2.066790e-09
6.912950e-10
-8.683630e-10
-4.084930e-10
4.713380e-11
1.047890e-09
-2.199580e-09
-6.697470e-10
1.728240e-09
-8.683630e-10
2.136730e-09
2.924520e-11
1.047890e-09
-4.870490e-10
-6.697470e-10
3.142250e-11
-8.683630e-10
-4.084930e-10
2.924520e-11
-1.256900e-09
-2.199580e-09
-6.697470e-10
-3.770700e-10
-1.295870e-10
2.136730e-09
2.924520e-11
-1.649680e-09
-5.428520e-10
-6.697470e-10
3.142250e-11
-1.295870e-10
0.000000e+00
2.924520e-11
-1.256900e-09
-5.428520e-10
-9.426750e-11
-3.770700e-10
-1.295870e-10
-1.099790e-10
-4.661950e-10
-1.649680e-09
-5.428520e-10
-1.838220e-09
2.456260e-10
-1.295870e-10
0.000000e+00
-4.661950e-10
-2.513800e-10
-5.428520e-10
-9.426750e-11
2.456260e-10
8.169850e-10
-1.099790e-10
-4.661950e-10
-1.414010e-10
1.637690e-10
-1.838220e-09
2.456260e-10
2.199580e-10
-4.905070e-11
-4.661950e-10
-2.513800e-10
1.637690e-10
0.000000e+00
2.456260e-10
8.169850e-10
-4.905070e-11
-5.498940e-10
-1.414010e-10
1.637690e-10
1.476860e-09
6.348860e-10
2.199580e-10
-4.905070e-11
2.246710e-09
-2.695110e-10
1.637690e-10
0.000000e+00
6.348860e-10
-5.498940e-10
-4.905070e-11
-5.498940e-10
-2.695110e-10
1.853930e-09
1.476860e-09
6.348860e-10
-4.713380e-11
-1.656990e-10
2.246710e-09
-2.695110e-10
-3.142250e-11
5.196710e-12
6.348860e-10
-5.498940e-10
-1.656990e-10
-2.356690e-10
-2.695110e-10
1.853930e-09
5.196710e-12
0.000000e+00
-4.713380e-11
-1.656990e-10
-1.414010e-09
3.271840e-11
-3.142250e-11
5.196710e-12
1.225480e-09
-5.110980e-10
-1.656990e-10
-2.356690e-10
3.271840e-11
4.084930e-10
5.196710e-12
0.000000e+00
-5.110980e-10
0.000000e+00
-1.414010e-09
3.271840e-11
8.641190e-10
6.255040e-10
1.225480e-09
-5.110980e-10
-3.142250e-11
1.949540e-10
3.271840e-11
4.084930e-10
6.255040e-10
-8.012740e-10
-5.110980e-10
0.000000e+00
1.949540e-10
-1.304030e-09
8.641190e-10
6.255040e-10
1.429720e-09
3.731530e-10
-3.142250e-11
1.949540e-10
2.136730e-09
3.266830e-10
6.255040e-10
-8.012740e-10
3.731530e-10
-1.414010e-10
1.949540e-10
-1.304030e-09
3.266830e-10
1.618260e-09
1.429720e-09
3.731530e-10
-7.541400e-10
-1.678850e-10
2.136730e-09
3.266830e-10
-8.955420e-10
1.369400e-09
3.731530e-10
-1.414010e-10
-1.678850e-10
0.000000e+00
3.266830e-10
1.618260e-09
1.369400e-09
-4.870490e-10
-7.541400e-10
-1.678850e-10
-9.269640e-10
-4.104410e-10
-8.955420e-10
1.369400e-09
-1.414010e-10
-2.324810e-10
-1.678850e-10
0.000000e+00
-4.104410e-10
0.000000e+00
1.369400e-09
-4.870490e-10
-2.324810e-10
0.000000e+00
-9.269640e-10
-4.104410e-10
0.000000e+00
2.664670e-10
-1.414010e-10
-2.324810e-10
0.000000e+00
2.519010e-10
-4.104410e-10
0.000000e+00
2.664670e-10
0.000000e+00
-2.324810e-10
0.000000e+00
2.519010e-10
-3.613590e-10
0.000000e+00
2.664670e-10
0.000000e+00
7.758060e-11
0.000000e+00
2.519010e-10
0.000000e+00
6.791900e-11
2.664670e-10
0.000000e+00
7.758060e-11
0.000000e+00
2.519010e-10
-3.613590e-10
6.791900e-11
0.000000e+00
0.000000e+00
7.758060e-11
-4.713380e-11
-1.038340e-10
0.000000e+00
6.791900e-11
-1.728240e-10
-1.670690e-10
7.758060e-11
0.000000e+00
-1.038340e-10
0.000000e+00
6.791900e-11
0.000000e+00
-1.670690e-10
0.000000e+00
-4.713380e-11
-1.038340e-10
3.770700e-10
1.706130e-10
-1.728240e-10
-1.670690e-10
4.399150e-10
1.644650e-10
-1.038340e-10
0.000000e+00
1.706130e-10
0.000000e+00
-1.670690e-10
0.000000e+00
1.644650e-10
0.000000e+00
3.770700e-10
1.706130e-10
0.000000e+00
-9.722660e-11
4.399150e-10
1.644650e-10
0.000000e+00
-5.558150e-11
1.706130e-10
0.000000e+00
-9.722660e-11
0.000000e+00
1.644650e-10
0.000000e+00
-5.558150e-11
0.000000e+00
0.000000e+00
-9.722660e-11
0.000000e+00
-4.596320e-11
0.000000e+00
-5.558150e-11
-1.099790e-10
-5.954670e-11
-9.722660e-11
0.000000e+00
-4.596320e-11
0.000000e+00
-5.558150e-11
0.000000e+00
-5.954670e-11
0.000000e+00
0.000000e+00
-4.596320e-11
4.084930e-10
2.689020e-10
-1.099790e-10
-5.954670e-11
3.299360e-10
1.913160e-10
-4.596320e-11
0.000000e+00
2.689020e-10
0.000000e+00
-5.954670e-11
0.000000e+00
1.913160e-10
0.000000e+00
4.084930e-10
2.689020e-10
0.000000e+00
1.536850e-11
3.299360e-10
1.913160e-10
0.000000e+00
-1.537850e-12
2.689020e-10
0.000000e+00
1.536850e-11
0.000000e+00
1.913160e-10
0.000000e+00
-1.537850e-12
0.000000e+00
0.000000e+00
1.536850e-11
-2.042460e-10
-1.029520e-10
0.000000e+00
-1.537850e-12
-1.885350e-10
-7.846750e-11
1.536850e-11
0.000000e+00
-1.029520e-10
0.000000e+00
-1.537850e-12
0.000000e+00
-7.846750e-11
0.000000e+00
-2.042460e-10
-1.029520e-10
3.142250e-11
1.817090e-11
-1.885350e-10
-7.846750e-11
3.142250e-11
1.728510e-11
-1.029520e-10
0.000000e+00
1.817090e-11
0.000000e+00
-7.846750e-11
0.000000e+00
1.728510e-11
0.000000e+00
3.142250e-11
1.817090e-11
4.713380e-11
1.631180e-11
3.142250e-11
1.728510e-11
3.142250e-11
6.309630e-12
1.817090e-11
0.000000e+00
1.631180e-11
0.000000e+00
1.728510e-11
0.000000e+00
6.309630e-12
0.000000e+00
</DataArray>
<DataArray type="Float32" Name="V2" format="ascii">
0.000000e+00
0.000000e+00
-2.096560e-04
-2.096540e-04
0.000000e+00
0.000000e+00
-2.096580e-04
-2.096580e-04
0.000000e+00
0.000000e+00
-2.096540e-04
-2.096630e-04
0.000000e+00
0.000000e+00
-2.096580e-04
-2.096580e-04
-2.096560e-04
-2.096540e-04
-1.555360e-04
-1.555420e-04
-2.096580e-04
-2.096580e-04
-1.555380e-04
-1.555420e-04
-2.096540e-04
-2.096630e-04
-1.555420e-04
-1.555410e-04
-2.096580e-04
-2.096580e-04
-1.555420e-04
-1.555360e-04
-1.555360e-04
-1.555420e-04
-1.893210e-04
-1.893130e-04
-1.555380e-04
-1.555420e-04
-1.893200e-04
-1.893170e-04
-1.555420e-04
-1.555410e-04
-1.893130e-04
-1.893200e-04
-1.555420e-04
-1.555360e-04
-1.893170e-04
-1.893200e-04
-1.893210e-04
-1.893130e-04
-1.517660e-04
-1.517630e-04
-1.893200e-04
-1.893170e-04
-1.517690e-04
-1.517670e-04
-1.893130e-04
-1.893200e-04
-1.517630e-04
-1.517660e-04
-1.893170e-04
-1.893200e-04
-1.517670e-04
-1.517700e-04
-1.517660e-04
-1.517630e-04
5.436070e-04
5.436070e-04
-1.517690e-04
-1.517670e-04
5.435990e-04
5.436060e-04
-1.517630e-04
-1.517660e-04
5.436070e-04
5.436050e-04
-1.517670e-04
-1.517700e-04
5.436060e-04
5.436040e-04
5.436070e-04
5.436070e-04
1.619660e-03
1.619660e-03
5.435990e-04
5.436060e-04
1.619660e-03
1.619660e-03
5.436070e-04
5.436050e-04
1.619660e-03
1.619660e-03
5.436060e-04
5.436040e-04
1.619660e-03
1.619660e-03
1.619660e-03
1.619660e-03
2.960280e-03
2.960280e-03
1.619660e-03
1.619660e-03
2.960280e-03
2.960280e-03
1.619660e-03
1.619660e-03
2.960280e-03
2.960280e-03
1.619660e-03
1.619660e-03
2.960280e-03
2.960280e-03
2.960280e-03
2.960280e-03
5.639380e-03
5.639390e-03
2.960280e-03
2.960280e-03
5.639390e-03
5.639380e-03
2.960280e-03
2.960280e-03
5.639390e-03
5.639380e-03
2.960280e-03
2.960280e-03
5.639380e-03
5.639380e-03
5.639380e-03
5.639390e-03
1.062620e-02
1.062620e-02
5.639390e-03
5.639380e-03
1.062620e-02
1.062620e-02
5.639390e-03
5.639380e-03
1.062620e-02
1.062620e-02
5.639380e-03
5.639380e-03
1.062620e-02
1.062620e-02
1.062620e-02
1.062620e-02
1.756810e-02
1.756810e-02
1.062620e-02
1.062620e-02
1.756810e-02
1.756810e-02
1.062620e-02
1.062620e-02
1.756810e-02
1.756810e-02
1.062620e-02
1.062620e-02
1.756810e-02
1.756810e-02
1.756810e-02
1.756810e-02
2.825300e-02
2.825300e-02
1.756810e-02
1.756810e-02
2.825300e-02
2.825300e-02
1.756810e-02
1.756810e-02
2.825300e-02
2.825300e-02
1.756810e-02
1.756810e-02
2.825300e-02
2.825300e-02
2.825300e-02
2.825300e-02
3.951270e-02
3.951270e-02
2.825300e-02
2.825300e-02
3.951270e-02
3.951270e-02
2.825300e-02
2.825300e-02
3.951270e-02
3.951270e-02
2.825300e-02
2.825300e-02
3.951270e-02
3.951270e-02
3.951270e-02
3.951270e-02
4.692410e-02
4.692410e-02
3.951270e-02
3.951270e-02
4.692410e-02
4.692410e-02
3.951270e-02
3.951270e-02
4.692410e-02
4.692410e-02
3.951270e-02
3.951270e-02
4.692410e-02
4.692410e-02
4.692410e-02
4.692410e-02
4.412370e-02
4.412370e-02
4.692410e-02
4.692410e-02
4.412370e-02
4.412370e-02
4.692410e-02
4.692410e-02
4.412370e-02
4.412370e-02
4.692410e-02
4.692410e-02
4.412370e-02
4.412370e-02
4.412370e-02
4.412370e-02
2.848340e-02
2.848340e-02
4.412370e-02
4.412370e-02
2.848340e-02
2.848340e-02
4.412370e-02
4.412370e-02
2.848340e-02
2.848340e-02
4.412370e-02
4.412370e-02
2.848340e-02
2.848340e-02
2.848340e-02
2.848340e-02
6.690340e-03
6.690340e-03
2.848340e-02
2.848340e-02
6.690340e-03
6.690340e-03
2.848340e-02
2.848340e-02
6.690340e-03
6.690340e-03
2.848340e-02
2.848340e-02
6.690340e-03
6.690340e-03
6.690340e-03
6.690340e-03
-1.372380e-02
-1.372380e-02
6.690340e-03
6.690340e-03
-1.372380e-02
-1.372380e-02
6.690340e-03
6.690340e-03
-1.372380e-02
-1.372380e-02
6.690340e-03
6.690340e-03
-1.372380e-02
-1.372380e-02
-1.372380e-02
-1.372380e-02
-1.820570e-02
-1.820570e-02
-1.372380e-02
-1.372380e-02
-1.820570e-02
-1.820570e-02
-1.372380e-02
-1.372380e-02
-1.820570e-02
-1.820570e-02
-1.372380e-02
-1.372380e-02
-1.820570e-02
-1.820570e-02
-1.820570e-02
-1.820570e-02
-3.065200e-03
-3.065200e-03
-1.820570e-02
-1.820570e-02
-3.065200e-03
-3.065200e-03
-1.820570e-02
-1.820570e-02
-3.065200e-03
-3.065200e-03
-1.820570e-02
-1.820570e-02
-3.065200e-03
-3.065200e-03
-3.065200e-03
-3.065200e-03
9.370560e-03
9.370560e-03
-3.065200e-03
-3.065200e-03
9.370560e-03
9.370560e-03
-3.065200e-03
-3.065200e-03
9.370560e-03
9.370560e-03
-3.065200e-03
-3.065200e-03
9.370560e-03
9.370560e-03
9.370560e-03
9.370560e-03
7.088410e-03
7.088410e-03
9.370560e-03
9.370560e-03
7.088410e-03
7.088410e-03
9.370560e-03
9.370560e-03
7.088410e-03
7.088410e-03
9.370560e-03
9.370560e-03
7.088410e-03
7.088410e-03
7.088410e-03
7.088410e-03
-4.600750e-03
-4.600750e-03
7.088410e-03
7.088410e-03
-4.600750e-03
-4.600750e-03
7.088410e-03
7.088410e-03
-4.600750e-03
-4.600750e-03
7.088410e-03
7.088410e-03
-4.600750e-03
-4.600750e-03
-4.600750e-03
-4.600750e-03
-3.355960e-03
-3.355950e-03
-4.600750e-03
-4.600750e-03
-3.355960e-03
-3.355950e-03
-4.600750e-03
-4.600750e-03
-3.355950e-03
-3.355950e-03
-4.600750e-03
-4.600750e-03
-3.355950e-03
-3.355950e-03
-3.355960e-03
-3.355950e-03
1.442870e-03
1.442860e-03
-3.355960e-03
-3.355950e-03
1.442870e-03
1.442860e-03
-3.355950e-03
-3.355950e-03
1.442860e-03
1.442860e-03
-3.355950e-03
-3.355950e-03
1.442860e-03
1.442860e-03
1.442870e-03
1.442860e-03
1.487960e-03
1.487970e-03
1.442870e-03
1.442860e-03
1.487960e-03
1.487970e-03
1.442860e-03
1.442860e-03
1.487970e-03
1.487970e-03
1.442860e-03
1.442860e-03
1.487970e-03
1.487970e-03
1.487960e-03
1.487970e-03
-3.275860e-04
-3.275910e-04
1.487960e-03
1.487970e-03
-3.275880e-04
-3.275920e-04
1.487970e-03
1.487970e-03
-3.275910e-04
-3.275910e-04
1.487970e-03
1.487970e-03
-3.275920e-04
-3.275950e-04
-3.275860e-04
-3.275910e-04
-7.302640e-05
-7.302440e-05
-3.275880e-04
-3.275920e-04
-7.302590e-05
-7.302260e-05
-3.275910e-04
-3.275910e-04
-7.302440e-05
-7.302490e-05
-3.275920e-04
-3.275950e-04
-7.302260e-05
-7.302190e-05
-7.302640e-05
-7.302440e-05
-3.099940e-05
-3.099820e-05
-7.302590e-05
-7.302260e-05
-3.099970e-05
-3.099820e-05
-7.302440e-05
-7.302490e-05
-3.099820e-05
-3.099790e-05
-7.302260e-05
-7.302190e-05
-3.099820e-05
-3.099770e-05
-3.099940e-05
-3.099820e-05
-5.005330e-05
-5.005330e-05
-3.099970e-05
-3.099820e-05
-5.005280e-05
-5.005330e-05
-3.099820e-05
-3.099790e-05
-5.005330e-05
-5.005330e-05
-3.099820e-05
-3.099770e-05
-5.005330e-05
-5.005330e-05
-5.005330e-05
-5.005330e-05
-2.675460e-04
-2.675460e-04
-5.005280e-05
-5.005330e-05
-2.675460e-04
-2.675460e-04
-5.005330e-05
-5.005330e-05
-2.675460e-04
-2.675460e-04
-5.005330e-05
-5.005330e-05
-2.675460e-04
-2.675460e-04
0.000000e+00
0.000000e+00
-2.096580e-04
-2.096580e-04
0.000000e+00
0.000000e+00
-2.096590e-04
-2.096550e-04
0.000000e+00
0.000000e+00
-2.096580e-04
-2.096580e-04
0.000000e+00
0.000000e+00
-2.096550e-04
-2.096570e-04
-2.096580e-04
-2.096580e-04
-1.555380e-04
-1.555420e-04
-2.096590e-04
-2.096550e-04
-1.555450e-04
-1.555420e-04
-2.096580e-04
-2.096580e-04
-1.555420e-04
-1.555360e-04
-2.096550e-04
-2.096570e-04
-1.555420e-04
-1.555400e-04
-1.555380e-04
-1.555420e-04
-1.893200e-04
-1.893170e-04
-1.555450e-04
-1.555420e-04
-1.893140e-04