<?xml version="1.0"?>
<!-- time 69.7628-->
<VTKFile type="UnstructuredGrid" version="0.1" byte_order="LittleEndian">
<UnstructuredGrid>
<Piece NumberOfPoints="7680" NumberOfCells="0">
<Points>
  <DataArray type="Float32" Name="Position" NumberOfComponents="3" format="ascii">
	-350 2049.62 -350
	-350 2049.62 -250
	-350 2049.62 -150
	-350 2049.62 -50
	-350 2049.62 50
	-350 2049.62 150
	-350 2049.62 250
	-350 2049.62 350
	-250 2049.62 -350
	-250 2049.62 -250
	-250 2049.62 -150
	-250 2049.62 -50
	-250 2049.62 50
	-250 2049.62 150
	-250 2049.62 250
	-250 2049.62 350
	-150 2049.62 -350
	-150 2049.62 -250
	-150 2049.62 -150
	-150 2049.62 -50
	-150 2049.62 50
	-150 2049.62 150
	-150 2049.62 250
	-150 2049.62 350
	-50 2049.62 -350
	-50 2049.62 -250
	-50 2049.62 -150
	-50 2049.62 -50
	-50 2049.62 50
	-50 2049.62 150
	-50 2049.62 250
	-50 2049.62 350
	50 2049.62 -350
	50 2049.62 -250
	50 2049.62 -150
	50 2049.62 -50
	50 2049.62 50
	50 2049.62 150
	50 2049.62 250
	50 2049.62 350
	150 2049.62 -350
	150 2049.62 -250
	150 2049.62 -150
	150 2049.62 -50
	150 2049.62 50
	150 2049.62 150
	150 2049.62 250
	150 2049.62 350
	250 2049.62 -350
	250 2049.62 -250
	250 2049.62 -150
	250 2049.62 -50
	250 2049.62 50
	250 2049.62 150
	250 2049.62 250
	250 2049.62 350
	350 2049.62 -350
	350 2049.62 -250
	350 2049.62 -150
	350 2049.62 -50
	350 2049.62 50
	350 2049.62 150
	350 2049.62 250
	350 2049.62 350
	-350 2149.68 -350
	-350 2149.68 -250
	-350 2149.68 -150
	-350 2149.68 -50
	-350 2149.68 50
	-350 2149.68 150
	-350 2149.68 250
	-350 2149.68 350
	-250 2149.68 -350
	-250 2149.68 -250
	-250 2149.68 -150
	-250 2149.68 -50
	-250 2149.68 50
	-250 2149.68 150
	-250 2149.68 250
	-250 2149.68 350
	-150 2149.68 -350
	-150 2149.68 -250
	-150 2149.68 -150
	-150 2149.68 -50
	-150 2149.68 50
	-150 2149.68 150
	-150 2149.68 250
	-150 2149.68 350
	-50 2149.68 -350
	-50 2149.68 -250
	-50 2149.68 -150
	-50 2149.68 -50
	-50 2149.68 50
	-50 2149.68 150
	-50 2149.68 250
	-50 2149.68 350
	50 2149.68 -350
	50 2149.68 -250
	50 2149.68 -150
	50 2149.68 -50
	50 2149.68 50
	50 2149.68 150
	50 2149.68 250
	50 2149.68 350
	150 2149.68 -350
	150 2149.68 -250
	150 2149.68 -150
	150 2149.68 -50
	150 2149.68 50
	150 2149.68 150
	150 2149.68 250
	150 2149.68 350
	250 2149.68 -350
	250 2149.68 -250
	250 2149.68 -150
	250 2149.68 -50
	250 2149.68 50
	250 2149.68 150
	250 2149.68 250
	250 2149.68 350
	350 2149.68 -350
	350 2149.68 -250
	350 2149.68 -150
	350 2149.68 -50
	350 2149.68 50
	350 2149.68 150
	350 2149.68 250
	350 2149.68 350
	-350 2249.68 -350
	-350 2249.68 -250
	-350 2249.68 -150
	-350 2249.68 -50
	-350 2249.68 50
	-350 2249.68 150
	-350 2249.68 250
	-350 2249.68 350
	-250 2249.68 -350
	-250 2249.68 -250
	-250 2249.68 -150
	-250 2249.68 -50
	-250 2249.68 50
	-250 2249.68 150
	-250 2249.68 250
	-250 2249.68 350
	-150 2249.68 -350
	-150 2249.68 -250
	-150 2249.68 -150
	-150 2249.68 -50
	-150 2249.68 50
	-150 2249.68 150
	-150 2249.68 250
	-150 2249.68 350
	-50 2249.68 -350
	-50 2249.68 -250
	-50 2249.68 -150
	-50 2249.68 -50
	-50 2249.68 50
	-50 2249.68 150
	-50 2249.68 250
	-50 2249.68 350
	50 2249.68 -350
	50 2249.68 -250
	50 2249.68 -150
	50 2249.68 -50
	50 2249.68 50
	50 2249.68 150
	50 2249.68 250
	50 2249.68 350
	150 2249.68 -350
	150 2249.68 -250
	150 2249.68 -150
	150 2249.68 -50
	150 2249.68 50
	150 2249.68 150
	150 2249.68 250
	150 2249.68 350
	250 2249.68 -350
	250 2249.68 -250
	250 2249.68 -150
	250 2249.68 -50
	250 2249.68 50
	250 2249.68 150
	250 2249.68 250
	250 2249.68 350
	350 2249.68 -350
	350 2249.68 -250
	350 2249.68 -150
	350 2249.68 -50
	350 2249.68 50
	350 2249.68 150
	350 2249.68 250
	350 2249.68 350
	-350 2349.68 -350
	-350 2349.68 -250
	-350 2349.68 -150
	-350 2349.68 -50
	-350 2349.68 50
	-350 2349.68 150
	-350 2349.68 250
	-350 2349.68 350
	-250 2349.68 -350
	-250 2349.68 -250
	-250 2349.68 -150
	-250 2349.68 -50
	-250 2349.68 50
	-250 2349.68 150
	-250 2349.68 250
	-250 2349.68 350
	-150 2349.68 -350
	-150 2349.68 -250
	-150 2349.68 -150
	-150 2349.68 -50
	-150 2349.68 50
	-150 2349.68 150
	-150 2349.68 250
	-150 2349.68 350
	-50 2349.68 -350
	-50 2349.68 -250
	-50 2349.68 -150
	-50 2349.68 -50
	-50 2349.68 50
	-50 2349.68 150
	-50 2349.68 250
	-50 2349.68 350
	50 2349.68 -350
	50 2349.68 -250
	50 2349.68 -150
	50 2349.68 -50
	50 2349.68 50
	50 2349.68 150
	50 2349.68 250
	50 2349.68 350
	150 2349.68 -350
	150 2349.68 -250
	150 2349.68 -150
	150 2349.68 -50
	150 2349.68 50
	150 2349.68 150
	150 2349.68 250
	150 2349.68 350
	250 2349.68 -350
	250 2349.68 -250
	250 2349.68 -150
	250 2349.68 -50
	250 2349.68 50
	250 2349.68 150
	250 2349.68 250
	250 2349.68 350
	350 2349.68 -350
	350 2349.68 -250
	350 2349.68 -150
	350 2349.68 -50
	350 2349.68 50
	350 2349.68 150
	350 2349.68 250
	350 2349.68 350
	-350 2449.68 -350
	-350 2449.68 -250
	-350 2449.68 -150
	-350 2449.68 -50
	-350 2449.68 50
	-350 2449.68 150
	-350 2449.68 250
	-350 2449.68 350
	-250 2449.68 -350
	-250 2449.68 -250
	-250 2449.68 -150
	-250 2449.68 -50
	-250 2449.68 50
	-250 2449.68 150
	-250 2449.68 250
	-250 2449.68 350
	-150 2449.68 -350
	-150 2449.68 -250
	-150 2449.68 -150
	-150 2449.68 -50
	-150 2449.68 50
	-150 2449.68 150
	-150 2449.68 250
	-150 2449.68 350
	-50 2449.68 -350
	-50 2449.68 -250
	-50 2449.68 -150
	-50 2449.68 -50
	-50 2449.68 50
	-50 2449.68 150
	-50 2449.68 250
	-50 2449.68 350
	50 2449.68 -350
	50 2449.68 -250
	50 2449.68 -150
	50 2449.68 -50
	50 2449.68 50
	50 2449.68 150
	50 2449.68 250
	50 2449.68 350
	150 2449.68 -350
	150 2449.68 -250
	150 2449.68 -150
	150 2449.68 -50
	150 2449.68 50
	150 2449.68 150
	150 2449.68 250
	150 2449.68 350
	250 2449.68 -350
	250 2449.68 -250
	250 2449.68 -150
	250 2449.68 -50
	250 2449.68 50
	250 2449.68 150
	250 2449.68 250
	250 2449.68 350
	350 2449.68 -350
	350 2449.68 -250
	350 2449.68 -150
	350 2449.68 -50
	350 2449.68 50
	350 2449.68 150
	350 2449.68 250
	350 2449.68 350
	-350 2549.68 -350
	-350 2549.68 -250
	-350 2549.68 -150
	-350 2549.68 -50
	-350 2549.68 50
	-350 2549.68 150
	-350 2549.68 250
	-350 2549.68 350
	-250 2549.68 -350
	-250 2549.68 -250
	-250 2549.68 -150
	-250 2549.68 -50
	-250 2549.68 50
	-250 2549.68 150
	-250 2549.68 250
	-250 2549.68 350
	-150 2549.68 -350
	-150 2549.68 -250
	-150 2549.68 -150
	-150 2549.68 -50
	-150 2549.68 50
	-150 2549.68 150
	-150 2549.68 250
	-150 2549.68 350
	-50 2549.68 -350
	-50 2549.68 -250
	-50 2549.68 -150
	-50 2549.68 -50
	-50 2549.68 50
	-50 2549.68 150
	-50 2549.68 250
	-50 2549.68 350
	50 2549.68 -350
	50 2549.68 -250
	50 2549.68 -150
	50 2549.68 -50
	50 2549.68 50
	50 2549.68 150
	50 2549.68 250
	50 2549.68 350
	150 2549.68 -350
	150 2549.68 -250
	150 2549.68 -150
	150 2549.68 -50
	150 2549.68 50
	150 2549.68 150
	150 2549.68 250
	150 2549.68 350
	250 2549.68 -350
	250 2549.68 -250
	250 2549.68 -150
	250 2549.68 -50
	250 2549.68 50
	250 2549.68 150
	250 2549.68 250
	250 2549.68 350
	350 2549.68 -350
	350 2549.68 -250
	350 2549.68 -150
	350 2549.68 -50
	350 2549.68 50
	350 2549.68 150
	350 2549.68 250
	350 2549.68 350
	-350 2649.68 -350
	-350 2649.68 -250
	-350 2649.68 -150
	-350 2649.68 -50
	-350 2649.68 50
	-350 2649.68 150
	-350 2649.68 250
	-350 2649.68 350
	-250 2649.68 -350
	-250 2649.68 -250
	-250 2649.68 -150
	-250 2649.68 -50
	-250 2649.68 50
	-250 2649.68 150
	-250 2649.68 250
	-250 2649.68 350
	-150 2649.68 -350
	-150 2649.68 -250
	-150 2649.68 -150
	-150 2649.68 -50
	-150 2649.68 50
	-150 2649.68 150
	-150 2649.68 250
	-150 2649.68 350
	-50 2649.68 -350
	-50 2649.68 -250
	-50 2649.68 -150
	-50 2649.68 -50
	-50 2649.68 50
	-50 2649.68 150
	-50 2649.68 250
	-50 2649.68 350
	50 2649.68 -350
	50 2649.68 -250
	50 2649.68 -150
	50 2649.68 -50
	50 2649.68 50
	50 2649.68 150
	50 2649.68 250
	50 2649.68 350
	150 2649.68 -350
	150 2649.68 -250
	150 2649.68 -150
	150 2649.68 -50
	150 2649.68 50
	150 2649.68 150
	150 2649.68 250
	150 2649.68 350
	250 2649.68 -350
	250 2649.68 -250
	250 2649.68 -150
	250 2649.68 -50
	250 2649.68 50
	250 2649.68 150
	250 2649.68 250
	250 2649.68 350
	350 2649.68 -350
	350 2649.68 -250
	350 2649.68 -150
	350 2649.68 -50
	350 2649.68 50
	350 2649.68 150
	350 2649.68 250
	350 2649.68 350
	-350 2749.68 -350
	-350 2749.68 -250
	-350 2749.68 -150
	-350 2749.68 -50
	-350 2749.68 50
	-350 2749.68 150
	-350 2749.68 250
	-350 2749.68 350
	-250 2749.68 -350
	-250 2749.68 -250
	-250 2749.68 -150
	-250 2749.68 -50
	-250 2749.68 50
	-250 2749.68 150
	-250 2749.68 250
	-250 2749.68 350
	-150 2749.68 -350
	-150 2749.68 -250
	-150 2749.68 -150
	-150 2749.68 -50
	-150 2749.68 50
	-150 2749.68 150
	-150 2749.68 250
	-150 2749.68 350
	-50 2749.68 -350
	-50 2749.68 -250
	-50 2749.68 -150
	-50 2749.68 -50
	-50 2749.68 50
	-50 2749.68 150
	-50 2749.68 250
	-50 2749.68 350
	50 2749.68 -350
	50 2749.68 -250
	50 2749.68 -150
	50 2749.68 -50
	50 2749.68 50
	50 2749.68 150
	50 2749.68 250
	50 2749.68 350
	150 2749.68 -350
	150 2749.68 -250
	150 2749.68 -150
	150 2749.68 -50
	150 2749.68 50
	150 2749.68 150
	150 2749.68 250
	150 2749.68 350
	250 2749.68 -350
	250 2749.68 -250
	250 2749.68 -150
	250 2749.68 -50
	250 2749.68 50
	250 2749.68 150
	250 2749.68 250
	250 2749.68 350
	350 2749.68 -350
	350 2749.68 -250
	350 2749.68 -150
	350 2749.68 -50
	350 2749.68 50
	350 2749.68 150
	350 2749.68 250
	350 2749.68 350
	-350 2849.68 -350
	-350 2849.68 -250
	-350 2849.68 -150
	-350 2849.68 -50
	-350 2849.68 50
	-350 2849.68 150
	-350 2849.68 250
	-350 2849.68 350
	-250 2849.68 -350
	-250 2849.68 -250
	-250 2849.68 -150
	-250 2849.68 -50
	-250 2849.68 50
	-250 2849.68 150
	-250 2849.68 250
	-250 2849.68 350
	-150 2849.68 -350
	-150 2849.68 -250
	-150 2849.68 -150
	-150 2849.68 -50
	-150 2849.68 50
	-150 2849.68 150
	-150 2849.68 250
	-150 2849.68 350
	-50 2849.68 -350
	-50 2849.68 -250
	-50 2849.68 -150
	-50 2849.68 -50
	-50 2849.68 50
	-50 2849.68 150
	-50 2849.68 250
	-50 2849.68 350
	50 2849.68 -350
	50 2849.68 -250
	50 2849.68 -150
	50 2849.68 -50
	50 2849.68 50
	50 2849.68 150
	50 2849.68 250
	50 2849.68 350
	150 2849.68 -350
	150 2849.68 -250
	150 2849.68 -150
[...]
<PointData  Vectors="vector">
  <DataArray type="Float32" Name="Velocity" NumberOfComponents="3" format="ascii">
 -2.11e-12 0.000370872 -3.22872e-11
 8.75808e-12 0.000370872 2.45395e-11
 -4.53975e-11 0.000370872 8.65226e-12
 -8.51078e-12 0.000370873 -8.985e-11
 -2.65322e-11 0.000370872 -4.8501e-11
 -7.17675e-11 0.000370872 5.80694e-11
 4.50545e-11 0.000370872 4.77084e-11
 2.87729e-11 0.000370873 -8.06441e-11
 -2.33576e-11 0.000370872 -1.25251e-11
 -5.73738e-11 0.000370872 3.50995e-11
 1.91212e-11 0.000370872 1.57984e-11
 4.0071e-12 0.000370872 -6.38676e-11
 2.63475e-11 0.000370872 -9.2206e-12
 3.9608e-11 0.000370872 5.16886e-11
 -4.6382e-11 0.000370872 -9.52112e-12
 -5.13436e-11 0.000370872 -2.85272e-11
 -4.94851e-11 0.000370872 7.22149e-12
 -1.72488e-12 0.000370872 2.28519e-11
 2.57542e-12 0.000370872 9.68585e-12
 -2.35724e-11 0.000370872 3.65139e-12
 8.22433e-12 0.000370872 2.85799e-11
 1.32933e-11 0.000370872 1.11662e-11
 -1.98667e-11 0.000370872 -4.77913e-11
 -6.30499e-11 0.000370872 3.47972e-11
 -9.12936e-11 0.000370871 2.30402e-11
 -6.91172e-11 0.000370871 1.43337e-11
 3.06524e-11 0.000370872 2.3428e-11
 4.88082e-11 0.000370872 4.43884e-11
 5.09163e-11 0.000370872 -1.32848e-11
 -2.00076e-11 0.000370872 1.94365e-11
 1.5053e-11 0.000370872 3.87123e-11
 4.91366e-11 0.000370871 1.13463e-11
 -6.08547e-11 0.000370871 2.82918e-13
 -2.76086e-11 0.000370872 2.97178e-11
 -2.27679e-11 0.000370872 5.89422e-11
 -1.65149e-11 0.000370872 1.07846e-11
 -1.67178e-11 0.000370872 4.69519e-11
 2.84542e-11 0.000370872 4.37774e-11
 1.28406e-11 0.000370871 3.52354e-11
 -2.68814e-11 0.000370871 -5.16267e-11
 -5.06715e-11 0.000370871 -1.97481e-11
 -5.10257e-12 0.000370872 2.75212e-11
 2.24216e-11 0.000370872 2.4171e-11
 5.88739e-11 0.000370873 4.15977e-11
 2.58119e-11 0.000370872 3.70811e-11
 7.60652e-11 0.000370872 1.93944e-12
 3.56718e-12 0.000370872 -7.14637e-13
 2.01296e-11 0.000370872 3.08923e-11
 -1.22508e-11 0.000370872 1.66424e-11
 4.28048e-11 0.000370872 -3.04981e-12
 -2.14292e-11 0.000370872 3.00731e-11
 3.30896e-12 0.000370873 2.77609e-11
 1.1503e-11 0.000370872 1.38191e-11
 -5.26157e-12 0.000370872 5.65131e-12
 -1.09937e-11 0.000370872 7.23863e-12
 -1.98344e-11 0.000370872 1.32789e-11
 4.48244e-11 0.000370872 3.21024e-11
 -2.70586e-11 0.000370872 7.63042e-12
 -1.2823e-11 0.000370873 8.04692e-12
 1.4729e-11 0.000370873 -6.51044e-12
 1.05889e-11 0.000370873 1.59192e-11
 -1.58958e-11 0.000370873 1.86787e-11
 -4.38311e-13 0.000370873 -6.03542e-12
 1.62511e-11 0.000370873 1.02572e-11
 -6.68428e-13 -0.00115054 5.42566e-12
 1.33199e-11 -0.00115054 -1.26313e-11
 -8.23655e-12 -0.00115054 -4.16806e-11
 -1.38237e-11 -0.00115054 -2.23784e-11
 -7.02484e-12 -0.00115054 -9.11184e-11
 -4.1965e-11 -0.00115054 -1.02924e-10
 -6.97149e-12 -0.00115054 1.37349e-11
 3.85015e-11 -0.00115054 7.17191e-11
 -1.30612e-11 -0.00115054 2.14811e-11
 -3.42974e-11 -0.00115054 -3.99872e-11
 8.3248e-12 -0.00115054 1.08224e-12
 7.61872e-12 -0.00115054 -6.48087e-11
 -3.12811e-13 -0.00115054 -9.1202e-11
 1.19762e-11 -0.00115054 -1.68206e-11
 1.99584e-11 -0.00115054 -1.66293e-12
 -3.59987e-11 -0.00115054 6.74384e-11
 -9.32878e-12 -0.00115054 2.89381e-11
 -5.31709e-12 -0.00115054 -4.67128e-11
 -3.94112e-12 -0.00115054 -5.91553e-11
 -2.36901e-11 -0.00115054 -2.29722e-11
 5.22493e-12 -0.00115054 -1.65069e-11
 6.63052e-12 -0.00115054 -1.58643e-11
 -1.23289e-11 -0.00115054 1.24419e-11
 -4.31046e-11 -0.00115054 5.07252e-11
 -5.19647e-11 -0.00115054 2.11011e-11
 4.75436e-12 -0.00115054 -4.56525e-11
 2.41025e-11 -0.00115054 -2.5851e-11
 2.37705e-11 -0.00115054 1.56079e-11
 1.05951e-11 -0.00115054 -6.40157e-12
 3.85054e-12 -0.00115054 -1.41913e-11
 9.92124e-12 -0.00115054 1.14866e-11
 4.13555e-11 -0.00115054 3.0168e-11
 -4.28497e-11 -0.00115054 1.49886e-11
 -2.98577e-11 -0.00115054 -2.45808e-11
 -1.81198e-11 -0.00115054 -1.57636e-11
 -6.0088e-13 -0.00115054 -2.83278e-11
 1.22689e-11 -0.00115054 -2.06496e-11
 3.00557e-11 -0.00115054 1.43974e-11
 1.31902e-11 -0.00115054 -1.42144e-12
 -1.27995e-11 -0.00115054 4.1287e-11
 -3.3179e-11 -0.00115054 3.00198e-11
 -3.24678e-11 -0.00115054 -5.86274e-11
 -8.11228e-12 -0.00115054 1.82128e-11
 3.60623e-11 -0.00115054 -2.82334e-11
 1.87837e-11 -0.00115054 -2.43621e-11
 2.45809e-11 -0.00115054 -1.32756e-11
 -1.9097e-11 -0.00115054 9.03843e-13
 -1.61954e-11 -0.00115054 4.29561e-11
 -2.42698e-11 -0.00115054 -2.55946e-11
 9.56212e-13 -0.00115054 7.39786e-12
 -1.30895e-11 -0.00115054 -1.06381e-11
 9.9605e-12 -0.00115054 -1.69494e-11
 -9.18285e-12 -0.00115054 -9.56434e-12
 -1.20813e-11 -0.00115054 -7.99707e-12
 -9.61493e-12 -0.00115054 -7.2804e-12
 -1.40247e-11 -0.00115054 2.58845e-11
 1.11273e-11 -0.00115054 4.03326e-11
 -1.22427e-11 -0.00115054 -4.56058e-11
 -7.03858e-12 -0.00115054 -3.10111e-11
 3.63431e-12 -0.00115054 -1.54122e-11
 3.48244e-12 -0.00115054 1.67157e-11
 -1.20446e-11 -0.00115054 -3.55274e-11
 -6.88607e-12 -0.00115054 -1.68746e-11
 7.60571e-12 -0.00115054 3.03058e-11
 1.31852e-11 -5.40285e-05 4.56296e-11
 2.44531e-11 -5.40283e-05 -9.8512e-11
 3.06911e-11 -5.40282e-05 -7.90213e-11
 -2.9908e-12 -5.40279e-05 -4.0557e-11
 3.36585e-11 -5.40284e-05 -3.17957e-11
 2.01604e-11 -5.40282e-05 -5.96497e-11
 -2.23043e-11 -5.40279e-05 -1.11644e-11
 -6.26926e-12 -5.40276e-05 3.36118e-11
 -1.47667e-11 -5.4029e-05 4.14601e-11
 -2.48455e-11 -5.40288e-05 -5.77517e-11
 -2.04305e-11 -5.40287e-05 -6.86023e-11
 8.90703e-12 -5.40285e-05 -4.82948e-11
 -4.10198e-11 -5.40289e-05 -3.04129e-11
 -1.4911e-11 -5.40287e-05 -5.25111e-11
 -3.90077e-15 -5.40285e-05 -1.8635e-11
 1.05743e-11 -5.40284e-05 1.59454e-11
 -2.28804e-11 -5.40294e-05 -5.87924e-12
 -2.44126e-11 -5.40293e-05 9.37521e-12
 -3.66321e-11 -5.40292e-05 -6.01946e-11
 -4.00823e-11 -5.40291e-05 -4.59374e-11
 -1.20041e-11 -5.40294e-05 -3.02785e-11
 -1.85242e-11 -5.40293e-05 -5.82187e-11
 1.40208e-11 -5.40292e-05 -2.08256e-11
 -2.36965e-11 -5.40291e-05 1.58137e-11
 -8.22828e-12 -5.40299e-05 -2.58515e-11
 1.03798e-11 -5.40298e-05 1.74237e-11
 -2.65695e-12 -5.40297e-05 -3.5952e-11
 1.99414e-11 -5.40296e-05 -1.1852e-11
 2.27733e-11 -5.40298e-05 -4.81277e-11
 -1.37227e-11 -5.40298e-05 -6.53814e-11
 1.0993e-11 -5.40299e-05 -2.54906e-11
 -1.21144e-11 -5.40299e-05 2.17423e-11
 -2.65509e-11 -5.40294e-05 2.88178e-11
 -1.96261e-11 -5.40291e-05 -6.58765e-11
 4.19831e-12 -5.40289e-05 -4.77959e-11
 2.08155e-11 -5.40286e-05 -1.71892e-11
 -1.65461e-11 -5.4029e-05 -5.56624e-11
 -9.51144e-12 -5.4029e-05 -4.87211e-11
 1.04107e-11 -5.40291e-05 -7.09706e-12
 2.87513e-11 -5.4029e-05 1.63651e-11
 -2.76642e-11 -5.4029e-05 -2.49055e-11
 -1.03566e-11 -5.40288e-05 8.36057e-12
 -4.01492e-13 -5.40287e-05 -4.27394e-11
 -5.27396e-12 -5.40285e-05 -3.80365e-11
 -2.06789e-11 -5.40289e-05 -3.87481e-11
 3.41943e-11 -5.40289e-05 -5.8678e-11
 -1.45316e-11 -5.40289e-05 -2.24722e-11
 -9.15821e-12 -5.4029e-05 2.50452e-11
 -9.42924e-12 -5.40285e-05 -2.81695e-11
 -1.08137e-11 -5.40285e-05 3.00306e-12
 -2.44788e-12 -5.40285e-05 -3.29919e-11
 3.77702e-12 -5.40284e-05 -4.30127e-11
 7.2296e-12 -5.40286e-05 -2.85257e-11
 -1.34919e-11 -5.40288e-05 -6.1845e-11
 -1.38001e-11 -5.40288e-05 -2.23354e-11
 -1.07388e-11 -5.4029e-05 2.66881e-11
 6.03395e-12 -5.40281e-05 4.98919e-11
 -2.28326e-12 -5.40282e-05 -7.81786e-11
 2.96927e-12 -5.40283e-05 -4.28739e-11
 2.99178e-12 -5.40283e-05 -1.83456e-11
 9.05531e-12 -5.40285e-05 -4.6255e-11
 -3.7411e-12 -5.40286e-05 -6.41008e-11
 -6.34622e-12 -5.40288e-05 -2.21807e-11
 -9.23708e-13 -5.40289e-05 3.98397e-11
 1.95842e-11 -0.000874168 6.39826e-11
 2.61849e-11 -0.000874168 -3.40902e-11
 3.53325e-11 -0.000874169 -8.35716e-11
 2.36405e-11 -0.000874169 -7.9175e-11
 3.15315e-11 -0.000874169 -8.72185e-11
 2.08428e-11 -0.000874169 -7.85546e-11
 -1.10323e-11 -0.000874168 -2.64046e-11
 -1.06691e-11 -0.000874168 2.71219e-11
 -1.61724e-11 -0.000874169 6.3093e-11
 -4.1834e-11 -0.000874169 -1.54056e-11
 -5.49453e-11 -0.000874169 -1.04579e-10
 -3.69378e-11 -0.000874169 -8.1221e-11
 -4.77635e-11 -0.00087417 -9.41004e-11
 -3.98448e-11 -0.000874169 -7.57647e-11
 -1.27169e-12 -0.000874169 -2.67773e-11
 1.33341e-13 -0.000874169 2.95195e-11
 -1.40245e-11 -0.00087417 6.02188e-11
 2.54598e-12 -0.00087417 -4.11962e-12
 -6.33062e-12 -0.00087417 -1.18763e-10
 -1.15216e-12 -0.00087417 -9.4004e-11
 -1.08852e-11 -0.00087417 -9.04285e-11
 -2.94759e-11 -0.00087417 -5.87446e-11
 -1.51213e-11 -0.00087417 -4.20464e-11
 5.82693e-12 -0.00087417 3.5324e-11
 -2.8082e-11 -0.00087417 5.42315e-11
 -1.12654e-11 -0.000874171 -2.65396e-12
 1.8316e-11 -0.000874171 -1.32767e-10
 2.18487e-12 -0.000874171 -9.85553e-11
 -2.24764e-11 -0.000874171 -8.34526e-11
 2.80559e-11 -0.000874171 -6.28343e-11
 -3.98956e-13 -0.000874171 -3.1609e-11
 -1.2471e-11 -0.000874171 3.77518e-11
 1.48019e-11 -0.00087417 5.10782e-11
 1.88967e-12 -0.00087417 -7.05985e-12
 -1.08823e-11 -0.00087417 -1.36996e-10
 -1.46672e-11 -0.00087417 -9.91865e-11
 -2.49063e-11 -0.00087417 -9.4392e-11
 -1.07133e-11 -0.00087417 -6.98807e-11
 5.7379e-12 -0.00087417 -3.10696e-11
 -2.35636e-11 -0.00087417 2.80637e-11
 -1.72369e-11 -0.00087417 5.16241e-11
 -1.34446e-11 -0.00087417 -3.57051e-11
 -1.26586e-11 -0.00087417 -8.61864e-11
 -2.18613e-11 -0.00087417 -9.94446e-11
 -1.25854e-11 -0.00087417 -9.88732e-11
 -2.27212e-11 -0.00087417 -6.92526e-11
 -1.93421e-11 -0.00087417 -3.71233e-11
 7.01103e-12 -0.00087417 3.63752e-11
 -4.05175e-12 -0.00087417 5.41826e-11
 1.78415e-12 -0.00087417 -8.06344e-11
 -7.95584e-13 -0.00087417 -4.50308e-11
 2.47459e-12 -0.00087417 -8.78105e-11
 4.17355e-12 -0.00087417 -9.30777e-11
 -3.13633e-12 -0.00087417 -7.8674e-11
 -9.1033e-12 -0.00087417 -2.26981e-11
 -4.10296e-12 -0.00087417 3.60149e-11
 2.25954e-11 -0.000874169 5.53408e-11
 1.11297e-11 -0.00087417 -8.28498e-11
 8.53436e-12 -0.00087417 -3.85188e-11
 2.24656e-11 -0.00087417 -8.06392e-11
 1.83085e-11 -0.00087417 -9.74769e-11
 9.44863e-12 -0.00087417 -6.80133e-11
 2.00447e-11 -0.00087417 -2.44068e-11
 2.44047e-11 -0.00087417 3.96904e-11
 1.45336e-11 -0.00055245 4.3021e-11
 1.79916e-11 -0.000552451 -7.25772e-11
 2.81599e-11 -0.000552451 -1.57249e-11
 3.21962e-11 -0.000552451 -3.40045e-11
 3.48055e-11 -0.000552451 -5.02642e-11
 3.52798e-11 -0.000552451 -5.13721e-11
 3.53146e-11 -0.000552451 -1.39985e-11
 3.80646e-11 -0.00055245 4.17963e-11
 -2.96976e-11 -0.000552451 4.42644e-11
 -4.96595e-11 -0.000552451 -6.16275e-11
 -1.96621e-11 -0.000552451 -1.18835e-11
 -3.71423e-11 -0.000552451 -5.37956e-11
 -2.60115e-11 -0.000552451 -6.11187e-11
 -4.05589e-11 -0.000552451 -6.5095e-11
 -3.43055e-11 -0.000552451 -1.38607e-11
 -6.29134e-11 -0.000552451 4.58455e-11
 -3.36855e-12 -0.000552451 4.66444e-11
 4.78394e-12 -0.000552451 -5.78446e-11
 -4.53056e-11 -0.000552451 -1.53678e-11
 -2.84936e-11 -0.000552452 -6.7418e-11
 -3.63507e-11 -0.000552452 -6.80194e-11
 -1.6558e-11 -0.000552452 -7.25652e-11
 -2.15844e-11 -0.000552452 -8.78983e-12
 -2.1758e-12 -0.000552452 4.19413e-11
 -2.26598e-11 -0.000552451 4.47414e-11
 -4.34312e-11 -0.000552452 -6.54546e-11
 -5.39104e-11 -0.000552452 -1.67641e-11
 -5.12617e-11 -0.000552452 -7.59781e-11
 -5.70929e-11 -0.000552452 -6.9235e-11
 -6.15399e-11 -0.000552452 -7.39795e-11
 -5.91455e-11 -0.000552452 -1.91621e-11
 -3.90152e-11 -0.000552452 5.02667e-11
 -1.92483e-11 -0.000552451 5.26864e-11
 -3.19471e-12 -0.000552452 -6.04008e-11
 -1.15938e-11 -0.000552452 -1.08028e-11
 -4.97527e-11 -0.000552452 -6.7623e-11
 -4.19062e-11 -0.000552452 -7.55994e-11
 -3.08312e-11 -0.000552452 -7.24676e-11
 -3.34111e-11 -0.000552452 -1.06718e-11
 -4.41782e-11 -0.000552452 4.65709e-11
 -1.28944e-11 -0.000552452 5.29217e-11
 -2.91406e-11 -0.000552452 -7.47999e-11
 -3.73104e-11 -0.000552452 -8.42741e-12
 -3.91591e-11 -0.000552452 -7.45979e-11
 -3.40905e-11 -0.000552452 -6.83331e-11
 -3.89713e-11 -0.000552452 -7.53843e-11
 -4.53693e-11 -0.000552452 -1.60061e-11
 -4.24607e-11 -0.000552452 4.99763e-11
 6.40892e-12 -0.000552452 4.96432e-11
 1.91087e-12 -0.000552452 -9.6943e-11
 -4.44797e-12 -0.000552452 -2.01591e-11
 -1.19521e-11 -0.000552452 -6.19033e-11
 1.83775e-12 -0.000552452 -6.47014e-11
 -4.37432e-12 -0.000552452 -7.1613e-11
 3.78777e-12 -0.000552452 -1.14392e-11
 2.36742e-12 -0.000552452 4.61235e-11
 1.85009e-11 -0.000552452 4.88291e-11
 2.02107e-11 -0.000552452 -7.448e-11
 3.14347e-11 -0.000552452 -3.20406e-11
 4.08187e-11 -0.000552453 -5.95314e-11
 4.22375e-11 -0.000552453 -8.40142e-11
 3.51545e-11 -0.000552452 -5.83549e-11
 2.64812e-11 -0.000552452 -2.59909e-11
 1.62463e-11 -0.000552452 3.82529e-11
 -5.2754e-12 0.000141394 4.15444e-11
 -1.95556e-11 0.000141394 -5.11002e-11
 -3.71185e-11 0.000141394 -3.0804e-11
 -3.90531e-11 0.000141394 -5.38392e-11
 -4.81949e-11 0.000141394 -6.75642e-11
 -2.94474e-11 0.000141394 -4.78436e-11
 -1.65046e-11 0.000141394 -2.17126e-11
 -1.56809e-11 0.000141394 3.61008e-11
 9.75664e-12 0.000141394 4.40013e-11
 2.7967e-11 0.000141393 -7.13712e-11
 7.34005e-12 0.000141393 -2.42446e-11
 -8.27191e-12 0.000141393 -4.53414e-11
 6.68991e-12 0.000141393 -6.72315e-11
 -6.18726e-12 0.000141393 -4.53522e-11
 -1.12006e-11 0.000141393 -2.1285e-11
 -1.25937e-11 0.000141394 3.28414e-11
 3.1233e-12 0.000141393 4.64011e-11
 9.217e-12 0.000141393 -6.81934e-11
 3.31698e-11 0.000141393 -3.26639e-11
 4.77886e-11 0.000141393 -4.56384e-11
 4.16676e-11 0.000141393 -6.33236e-11
 1.00798e-11 0.000141393 -5.28012e-11
 1.28509e-11 0.000141393 -1.94893e-11
 1.01858e-11 0.000141393 3.49641e-11
 3.28917e-11 0.000141392 4.64704e-11
 1.384e-12 0.000141392 -7.02966e-11
 1.55993e-11 0.000141392 -3.17208e-11
 1.34658e-11 0.000141392 -4.52918e-11
 2.43511e-12 0.000141393 -6.54991e-11
 3.25743e-11 0.000141393 -5.75801e-11
 2.29482e-11 0.000141393 -1.60944e-11
 3.36123e-11 0.000141393 3.65017e-11
 -7.9554e-12 0.000141393 4.87861e-11
 8.03607e-12 0.000141393 -8.28269e-11
 7.51845e-12 0.000141393 -2.77035e-11
 2.49653e-11 0.000141393 -4.32826e-11
 2.06431e-11 0.000141393 -6.90328e-11
 1.91875e-11 0.000141393 -5.3171e-11
 2.36706e-11 0.000141393 -1.59512e-11
 3.10035e-11 0.000141393 3.44336e-11
 -6.81011e-12 0.000141393 4.7755e-11
 6.42524e-12 0.000141393 -7.5681e-11
 1.00068e-11 0.000141393 -2.48424e-11
 -6.50321e-12 0.000141393 -4.36258e-11
 7.43325e-13 0.000141393 -6.77958e-11
 1.64052e-11 0.000141393 -5.11748e-11
 2.25155e-11 0.000141393 -1.58228e-11
 2.19826e-11 0.000141393 3.32667e-11
 -1.05483e-11 0.000141394 4.04522e-11
 -1.43067e-11 0.000141394 -6.70777e-11
 -1.5541e-11 0.000141394 -2.31296e-11
 -2.27844e-11 0.000141394 -4.26741e-11
 -2.2746e-11 0.000141394 -6.27364e-11
 -1.86628e-11 0.000141394 -5.09651e-11
 -1.28358e-11 0.000141393 -1.48523e-11
 -1.24974e-11 0.000141393 3.38896e-11
 -4.53904e-12 0.000141394 4.26344e-11
 -1.12388e-11 0.000141394 -7.68916e-11
 -1.57553e-11 0.000141394 -2.60202e-11
 -7.09188e-12 0.000141394 -2.86223e-11
 -4.6706e-12 0.000141394 -5.61762e-11
 -1.57074e-11 0.000141394 -5.15251e-11
 -2.15231e-11 0.000141394 -1.55227e-11
 -2.44066e-11 0.000141393 3.58554e-11
 -4.95898e-12 -0.000269787 3.93954e-11
 8.91421e-13 -0.000269787 -1.3777e-11
 3.7537e-12 -0.000269787 -8.26567e-11
 5.11308e-12 -0.000269787 -7.08309e-11
 5.18915e-12 -0.000269788 -6.79198e-11
 5.53287e-12 -0.000269787 -5.19058e-11
 2.24531e-12 -0.000269787 -6.93382e-12
 -1.88441e-12 -0.000269787 2.50311e-11
 7.60411e-12 -0.000269788 4.35774e-11
 1.45715e-11 -0.000269788 -2.39e-11
 1.22458e-11 -0.000269788 -6.61121e-11
 1.87929e-11 -0.000269788 -7.00109e-11
 1.21236e-11 -0.000269788 -6.61915e-11
 1.73825e-11 -0.000269788 -5.15078e-11
 1.79984e-11 -0.000269788 -4.72553e-12
 2.21311e-11 -0.000269788 2.39743e-11
 1.28556e-11 -0.000269788 4.56709e-11
 1.75636e-11 -0.000269788 -4.55648e-11
 2.2452e-11 -0.000269788 -4.18975e-11
 2.93365e-11 -0.000269788 -6.0849e-11
 2.19733e-11 -0.000269788 -6.64504e-11
 2.49991e-11 -0.000269788 -5.19387e-11
 3.75995e-11 -0.000269788 -3.74079e-12
 3.62961e-11 -0.000269788 2.4573e-11
 2.02929e-11 -0.000269788 4.47139e-11
 1.29629e-11 -0.000269789 -6.8975e-11
 2.17553e-11 -0.000269789 -1.50826e-11
 1.97794e-11 -0.000269789 -5.73122e-11
 1.95994e-11 -0.000269789 -5.92357e-11
 2.14468e-11 -0.000269789 -5.40814e-11
 2.16054e-11 -0.000269789 -2.75079e-13
 2.38119e-11 -0.000269789 2.4755e-11
 1.21785e-11 -0.000269788 4.21966e-11
 1.21026e-11 -0.000269788 -3.89113e-11
 2.06865e-11 -0.000269788 -4.7888e-11
 2.66717e-11 -0.000269788 -8.46802e-11
 1.21696e-11 -0.000269788 -5.62178e-11
 3.09394e-11 -0.000269788 -5.28348e-11
 2.7212e-11 -0.000269788 -7.91233e-12
 2.83299e-11 -0.000269788 2.89733e-11
 -2.1365e-12 -0.000269788 4.28319e-11
 3.02908e-12 -0.000269788 -4.70746e-11
 7.82194e-12 -0.000269788 -4.23069e-11
 1.39314e-11 -0.000269788 -5.03635e-11
 3.18539e-12 -0.000269788 -5.69647e-11
 4.0768e-12 -0.000269788 -5.10497e-11
 3.07357e-11 -0.000269788 -3.94912e-12
 3.50121e-11 -0.000269788 2.46242e-11
 8.13893e-12 -0.000269788 4.22395e-11
 3.37438e-12 -0.000269788 -5.34672e-11
 -2.40976e-12 -0.000269788 -3.43357e-11
 -4.01819e-12 -0.000269788 -2.90047e-11
 1.29252e-11 -0.000269788 -4.88182e-11
 -1.07338e-11 -0.000269788 -5.02251e-11
 1.9508e-11 -0.000269788 -2.4198e-12
 5.0573e-11 -0.000269788 2.48004e-11
 4.91605e-12 -0.000269788 4.09135e-11
 1.57026e-11 -0.000269788 -5.45526e-11
 1.51879e-11 -0.000269788 -4.49884e-11
 1.31872e-11 -0.000269788 -6.51987e-12
 1.79626e-12 -0.000269788 -3.06912e-11
 2.13097e-11 -0.000269788 -4.44308e-11
 -1.59556e-11 -0.000269788 9.81358e-13
 -2.73349e-11 -0.000269788 2.10813e-11
 -2.19368e-11 -0.000405395 3.56148e-11
 -2.12107e-11 -0.000405395 -7.44722e-12
 -2.18205e-11 -0.000405395 -8.22487e-11
 -2.10131e-11 -0.000405394 -9.80428e-11
 -2.00764e-11 -0.000405394 -7.15652e-11
 -2.03306e-11 -0.000405394 -6.00746e-11
 -2.25056e-11 -0.000405394 -7.91776e-12
 -2.16605e-11 -0.000405394 3.34506e-11
 5.28139e-12 -0.000405395 3.83747e-11
 5.57416e-12 -0.000405395 -9.94282e-12
 1.08757e-11 -0.000405395 -7.00425e-11
 1.39687e-11 -0.000405395 -9.42917e-11
 9.07893e-12 -0.000405395 -6.39625e-11
 9.03435e-12 -0.000405395 -5.75841e-11
 7.17857e-12 -0.000405395 -6.65351e-12
 1.5339e-12 -0.000405395 3.51064e-11
 2.13077e-11 -0.000405395 3.95868e-11
 3.53446e-11 -0.000405395 -3.01082e-11
 4.25483e-11 -0.000405395 -4.04984e-11
 4.27916e-11 -0.000405395 -8.38461e-11
 3.31283e-11 -0.000405395 -5.94637e-11
 3.88937e-11 -0.000405395 -5.70205e-11
 4.94542e-11 -0.000405395 -2.28619e-12
 6.22794e-11 -0.000405395 3.3875e-11
 2.44518e-11 -0.000405395 4.24274e-11
 2.69701e-11 -0.000405395 -3.34586e-11
 4.05978e-11 -0.000405395 -3.29761e-11
 4.78998e-11 -0.000405396 -6.98997e-11
 5.27696e-11 -0.000405395 -5.31294e-11
 5.72728e-11 -0.000405395 -5.48373e-11
 5.69257e-11 -0.000405395 -7.48163e-13
 6.02274e-11 -0.000405395 3.2091e-11
 4.99533e-11 -0.000405395 3.33412e-11
 6.47812e-11 -0.000405395 -6.55371e-13
 5.58319e-11 -0.000405395 -6.97536e-11
 7.05359e-11 -0.000405395 -1.00066e-10
 3.71002e-11 -0.000405395 -6.33215e-11
 4.8577e-11 -0.000405395 -5.04009e-11
 6.54974e-11 -0.000405395 -1.11845e-11
 8.30571e-11 -0.000405395 3.76457e-11
 3.32401e-11 -0.000405395 3.28098e-11
 3.75859e-11 -0.000405395 -1.92714e-12
 5.93934e-11 -0.000405395 -5.09342e-11
 6.8405e-11 -0.000405396 -8.76653e-11
 5.37626e-11 -0.000405396 -4.53306e-11
 9.10388e-11 -0.000405395 -4.19071e-11
 9.72268e-11 -0.000405395 -1.16305e-11
 1.09203e-10 -0.000405395 3.36821e-11
 -1.74637e-12 -0.000405396 2.77523e-11
 2.10062e-12 -0.000405396 -1.77024e-11
 1.44001e-12 -0.000405396 -1.70541e-11
 4.77958e-12 -0.000405396 -6.74862e-11
 1.52217e-11 -0.000405396 -3.27667e-11
 -1.617e-12 -0.000405395 -4.22828e-11
 3.12501e-12 -0.000405395 -2.04705e-12
 1.996e-12 -0.000405395 3.01754e-11
 -1.15027e-11 -0.000405396 3.11577e-11
 -1.08245e-11 -0.000405396 -2.99752e-11
 -7.26544e-12 -0.000405396 -1.80477e-12
 -4.48943e-12 -0.000405396 -4.1988e-11
 -1.51339e-11 -0.000405396 -2.90106e-11
 -1.91154e-11 -0.000405396 -2.78942e-11
 -1.52491e-11 -0.000405395 -1.54341e-12
 -1.70782e-11 -0.000405395 3.11321e-11
 -3.04464e-12 0.00018922 2.77884e-11
 -1.80587e-12 0.000189219 -2.11418e-12
 -5.06836e-12 0.000189219 -1.24183e-10
 -5.27878e-12 0.000189219 -1.24199e-10