<?xml version="1.0"?>
<!-- time 67.7696-->
<VTKFile type="UnstructuredGrid" version="0.1" byte_order="LittleEndian">
<UnstructuredGrid>
<Piece NumberOfPoints="7680" NumberOfCells="0">
<Points>
  <DataArray type="Float32" Name="Position" NumberOfComponents="3" format="ascii">
	-350 2049.59 -350
	-350 2049.59 -250
	-350 2049.59 -150
	-350 2049.59 -50
	-350 2049.59 50
	-350 2049.59 150
	-350 2049.59 250
	-350 2049.59 350
	-250 2049.59 -350
	-250 2049.59 -250
	-250 2049.59 -150
	-250 2049.59 -50
	-250 2049.59 50
	-250 2049.59 150
	-250 2049.59 250
	-250 2049.59 350
	-150 2049.59 -350
	-150 2049.59 -250
	-150 2049.59 -150
	-150 2049.59 -50
	-150 2049.59 50
	-150 2049.59 150
	-150 2049.59 250
	-150 2049.59 350
	-50 2049.59 -350
	-50 2049.59 -250
	-50 2049.59 -150
	-50 2049.59 -50
	-50 2049.59 50
	-50 2049.59 150
	-50 2049.59 250
	-50 2049.59 350
	50 2049.59 -350
	50 2049.59 -250
	50 2049.59 -150
	50 2049.59 -50
	50 2049.59 50
	50 2049.59 150
	50 2049.59 250
	50 2049.59 350
	150 2049.59 -350
	150 2049.59 -250
	150 2049.59 -150
	150 2049.59 -50
	150 2049.59 50
	150 2049.59 150
	150 2049.59 250
	150 2049.59 350
	250 2049.59 -350
	250 2049.59 -250
	250 2049.59 -150
	250 2049.59 -50
	250 2049.59 50
	250 2049.59 150
	250 2049.59 250
	250 2049.59 350
	350 2049.59 -350
	350 2049.59 -250
	350 2049.59 -150
	350 2049.59 -50
	350 2049.59 50
	350 2049.59 150
	350 2049.59 250
	350 2049.59 350
	-350 2149.66 -350
	-350 2149.66 -250
	-350 2149.66 -150
	-350 2149.66 -50
	-350 2149.66 50
	-350 2149.66 150
	-350 2149.66 250
	-350 2149.66 350
	-250 2149.66 -350
	-250 2149.66 -250
	-250 2149.66 -150
	-250 2149.66 -50
	-250 2149.66 50
	-250 2149.66 150
	-250 2149.66 250
	-250 2149.66 350
	-150 2149.66 -350
	-150 2149.66 -250
	-150 2149.66 -150
	-150 2149.66 -50
	-150 2149.66 50
	-150 2149.66 150
	-150 2149.66 250
	-150 2149.66 350
	-50 2149.66 -350
	-50 2149.66 -250
	-50 2149.66 -150
	-50 2149.66 -50
	-50 2149.66 50
	-50 2149.66 150
	-50 2149.66 250
	-50 2149.66 350
	50 2149.66 -350
	50 2149.66 -250
	50 2149.66 -150
	50 2149.66 -50
	50 2149.66 50
	50 2149.66 150
	50 2149.66 250
	50 2149.66 350
	150 2149.66 -350
	150 2149.66 -250
	150 2149.66 -150
	150 2149.66 -50
	150 2149.66 50
	150 2149.66 150
	150 2149.66 250
	150 2149.66 350
	250 2149.66 -350
	250 2149.66 -250
	250 2149.66 -150
	250 2149.66 -50
	250 2149.66 50
	250 2149.66 150
	250 2149.66 250
	250 2149.66 350
	350 2149.66 -350
	350 2149.66 -250
	350 2149.66 -150
	350 2149.66 -50
	350 2149.66 50
	350 2149.66 150
	350 2149.66 250
	350 2149.66 350
	-350 2249.66 -350
	-350 2249.66 -250
	-350 2249.66 -150
	-350 2249.66 -50
	-350 2249.66 50
	-350 2249.66 150
	-350 2249.66 250
	-350 2249.66 350
	-250 2249.66 -350
	-250 2249.66 -250
	-250 2249.66 -150
	-250 2249.66 -50
	-250 2249.66 50
	-250 2249.66 150
	-250 2249.66 250
	-250 2249.66 350
	-150 2249.66 -350
	-150 2249.66 -250
	-150 2249.66 -150
	-150 2249.66 -50
	-150 2249.66 50
	-150 2249.66 150
	-150 2249.66 250
	-150 2249.66 350
	-50 2249.66 -350
	-50 2249.66 -250
	-50 2249.66 -150
	-50 2249.66 -50
	-50 2249.66 50
	-50 2249.66 150
	-50 2249.66 250
	-50 2249.66 350
	50 2249.66 -350
	50 2249.66 -250
	50 2249.66 -150
	50 2249.66 -50
	50 2249.66 50
	50 2249.66 150
	50 2249.66 250
	50 2249.66 350
	150 2249.66 -350
	150 2249.66 -250
	150 2249.66 -150
	150 2249.66 -50
	150 2249.66 50
	150 2249.66 150
	150 2249.66 250
	150 2249.66 350
	250 2249.66 -350
	250 2249.66 -250
	250 2249.66 -150
	250 2249.66 -50
	250 2249.66 50
	250 2249.66 150
	250 2249.66 250
	250 2249.66 350
	350 2249.66 -350
	350 2249.66 -250
	350 2249.66 -150
	350 2249.66 -50
	350 2249.66 50
	350 2249.66 150
	350 2249.66 250
	350 2249.66 350
	-350 2349.66 -350
	-350 2349.66 -250
	-350 2349.66 -150
	-350 2349.66 -50
	-350 2349.66 50
	-350 2349.66 150
	-350 2349.66 250
	-350 2349.66 350
	-250 2349.66 -350
	-250 2349.66 -250
	-250 2349.66 -150
	-250 2349.66 -50
	-250 2349.66 50
	-250 2349.66 150
	-250 2349.66 250
	-250 2349.66 350
	-150 2349.66 -350
	-150 2349.66 -250
	-150 2349.66 -150
	-150 2349.66 -50
	-150 2349.66 50
	-150 2349.66 150
	-150 2349.66 250
	-150 2349.66 350
	-50 2349.66 -350
	-50 2349.66 -250
	-50 2349.66 -150
	-50 2349.66 -50
	-50 2349.66 50
	-50 2349.66 150
	-50 2349.66 250
	-50 2349.66 350
	50 2349.66 -350
	50 2349.66 -250
	50 2349.66 -150
	50 2349.66 -50
	50 2349.66 50
	50 2349.66 150
	50 2349.66 250
	50 2349.66 350
	150 2349.66 -350
	150 2349.66 -250
	150 2349.66 -150
	150 2349.66 -50
	150 2349.66 50
	150 2349.66 150
	150 2349.66 250
	150 2349.66 350
	250 2349.66 -350
	250 2349.66 -250
	250 2349.66 -150
	250 2349.66 -50
	250 2349.66 50
	250 2349.66 150
	250 2349.66 250
	250 2349.66 350
	350 2349.66 -350
	350 2349.66 -250
	350 2349.66 -150
	350 2349.66 -50
	350 2349.66 50
	350 2349.66 150
	350 2349.66 250
	350 2349.66 350
	-350 2449.66 -350
	-350 2449.66 -250
	-350 2449.66 -150
	-350 2449.66 -50
	-350 2449.66 50
	-350 2449.66 150
	-350 2449.66 250
	-350 2449.66 350
	-250 2449.66 -350
	-250 2449.66 -250
	-250 2449.66 -150
	-250 2449.66 -50
	-250 2449.66 50
	-250 2449.66 150
	-250 2449.66 250
	-250 2449.66 350
	-150 2449.66 -350
	-150 2449.66 -250
	-150 2449.66 -150
	-150 2449.66 -50
	-150 2449.66 50
	-150 2449.66 150
	-150 2449.66 250
	-150 2449.66 350
	-50 2449.66 -350
	-50 2449.66 -250
	-50 2449.66 -150
	-50 2449.66 -50
	-50 2449.66 50
	-50 2449.66 150
	-50 2449.66 250
	-50 2449.66 350
	50 2449.66 -350
	50 2449.66 -250
	50 2449.66 -150
	50 2449.66 -50
	50 2449.66 50
	50 2449.66 150
	50 2449.66 250
	50 2449.66 350
	150 2449.66 -350
	150 2449.66 -250
	150 2449.66 -150
	150 2449.66 -50
	150 2449.66 50
	150 2449.66 150
	150 2449.66 250
	150 2449.66 350
	250 2449.66 -350
	250 2449.66 -250
	250 2449.66 -150
	250 2449.66 -50
	250 2449.66 50
	250 2449.66 150
	250 2449.66 250
	250 2449.66 350
	350 2449.66 -350
	350 2449.66 -250
	350 2449.66 -150
	350 2449.66 -50
	350 2449.66 50
	350 2449.66 150
	350 2449.66 250
	350 2449.66 350
	-350 2549.66 -350
	-350 2549.66 -250
	-350 2549.66 -150
	-350 2549.66 -50
	-350 2549.66 50
	-350 2549.66 150
	-350 2549.66 250
	-350 2549.66 350
	-250 2549.66 -350
	-250 2549.66 -250
	-250 2549.66 -150
	-250 2549.66 -50
	-250 2549.66 50
	-250 2549.66 150
	-250 2549.66 250
	-250 2549.66 350
	-150 2549.66 -350
	-150 2549.66 -250
	-150 2549.66 -150
	-150 2549.66 -50
	-150 2549.66 50
	-150 2549.66 150
	-150 2549.66 250
	-150 2549.66 350
	-50 2549.66 -350
	-50 2549.66 -250
	-50 2549.66 -150
	-50 2549.66 -50
	-50 2549.66 50
	-50 2549.66 150
	-50 2549.66 250
	-50 2549.66 350
	50 2549.66 -350
	50 2549.66 -250
	50 2549.66 -150
	50 2549.66 -50
	50 2549.66 50
	50 2549.66 150
	50 2549.66 250
	50 2549.66 350
	150 2549.66 -350
	150 2549.66 -250
	150 2549.66 -150
	150 2549.66 -50
	150 2549.66 50
	150 2549.66 150
	150 2549.66 250
	150 2549.66 350
	250 2549.66 -350
	250 2549.66 -250
	250 2549.66 -150
	250 2549.66 -50
	250 2549.66 50
	250 2549.66 150
	250 2549.66 250
	250 2549.66 350
	350 2549.66 -350
	350 2549.66 -250
	350 2549.66 -150
	350 2549.66 -50
	350 2549.66 50
	350 2549.66 150
	350 2549.66 250
	350 2549.66 350
	-350 2649.66 -350
	-350 2649.66 -250
	-350 2649.66 -150
	-350 2649.66 -50
	-350 2649.66 50
	-350 2649.66 150
	-350 2649.66 250
	-350 2649.66 350
	-250 2649.66 -350
	-250 2649.66 -250
	-250 2649.66 -150
	-250 2649.66 -50
	-250 2649.66 50
	-250 2649.66 150
	-250 2649.66 250
	-250 2649.66 350
	-150 2649.66 -350
	-150 2649.66 -250
	-150 2649.66 -150
	-150 2649.66 -50
	-150 2649.66 50
	-150 2649.66 150
	-150 2649.66 250
	-150 2649.66 350
	-50 2649.66 -350
	-50 2649.66 -250
	-50 2649.66 -150
	-50 2649.66 -50
	-50 2649.66 50
	-50 2649.66 150
	-50 2649.66 250
	-50 2649.66 350
	50 2649.66 -350
	50 2649.66 -250
	50 2649.66 -150
	50 2649.66 -50
	50 2649.66 50
	50 2649.66 150
	50 2649.66 250
	50 2649.66 350
	150 2649.66 -350
	150 2649.66 -250
	150 2649.66 -150
	150 2649.66 -50
	150 2649.66 50
	150 2649.66 150
	150 2649.66 250
	150 2649.66 350
	250 2649.66 -350
	250 2649.66 -250
	250 2649.66 -150
	250 2649.66 -50
	250 2649.66 50
	250 2649.66 150
	250 2649.66 250
	250 2649.66 350
	350 2649.66 -350
	350 2649.66 -250
	350 2649.66 -150
	350 2649.66 -50
	350 2649.66 50
	350 2649.66 150
	350 2649.66 250
	350 2649.66 350
	-350 2749.66 -350
	-350 2749.66 -250
	-350 2749.66 -150
	-350 2749.66 -50
	-350 2749.66 50
	-350 2749.66 150
	-350 2749.66 250
	-350 2749.66 350
	-250 2749.66 -350
	-250 2749.66 -250
	-250 2749.66 -150
	-250 2749.66 -50
	-250 2749.66 50
	-250 2749.66 150
	-250 2749.66 250
	-250 2749.66 350
	-150 2749.66 -350
	-150 2749.66 -250
	-150 2749.66 -150
	-150 2749.66 -50
	-150 2749.66 50
	-150 2749.66 150
	-150 2749.66 250
	-150 2749.66 350
	-50 2749.66 -350
	-50 2749.66 -250
	-50 2749.66 -150
	-50 2749.66 -50
	-50 2749.66 50
	-50 2749.66 150
	-50 2749.66 250
	-50 2749.66 350
	50 2749.66 -350
	50 2749.66 -250
	50 2749.66 -150
	50 2749.66 -50
	50 2749.66 50
	50 2749.66 150
	50 2749.66 250
	50 2749.66 350
	150 2749.66 -350
	150 2749.66 -250
	150 2749.66 -150
	150 2749.66 -50
	150 2749.66 50
	150 2749.66 150
	150 2749.66 250
	150 2749.66 350
	250 2749.66 -350
	250 2749.66 -250
	250 2749.66 -150
	250 2749.66 -50
	250 2749.66 50
	250 2749.66 150
	250 2749.66 250
	250 2749.66 350
	350 2749.66 -350
	350 2749.66 -250
	350 2749.66 -150
	350 2749.66 -50
	350 2749.66 50
	350 2749.66 150
	350 2749.66 250
	350 2749.66 350
	-350 2849.66 -350
	-350 2849.66 -250
	-350 2849.66 -150
	-350 2849.66 -50
	-350 2849.66 50
	-350 2849.66 150
	-350 2849.66 250
	-350 2849.66 350
	-250 2849.66 -350
	-250 2849.66 -250
	-250 2849.66 -150
	-250 2849.66 -50
	-250 2849.66 50
	-250 2849.66 150
	-250 2849.66 250
	-250 2849.66 350
	-150 2849.66 -350
	-150 2849.66 -250
	-150 2849.66 -150
	-150 2849.66 -50
	-150 2849.66 50
	-150 2849.66 150
	-150 2849.66 250
	-150 2849.66 350
	-50 2849.66 -350
	-50 2849.66 -250
	-50 2849.66 -150
	-50 2849.66 -50
	-50 2849.66 50
	-50 2849.66 150
	-50 2849.66 250
	-50 2849.66 350
	50 2849.66 -350
	50 2849.66 -250
	50 2849.66 -150
	50 2849.66 -50
	50 2849.66 50
	50 2849.66 150
	50 2849.66 250
	50 2849.66 350
	150 2849.66 -350
	150 2849.66 -250
	150 2849.66 -150
[...]
<PointData  Vectors="vector">
  <DataArray type="Float32" Name="Velocity" NumberOfComponents="3" format="ascii">
 -4.92436e-10 -0.000210857 -2.52776e-10
 -4.82155e-10 -0.000210876 1.20362e-10
 1.02667e-10 -0.000210896 2.76779e-10
 1.86183e-12 -0.000210916 1.60935e-10
 7.96211e-11 -0.000210911 4.05382e-10
 -1.11045e-10 -0.000210905 4.69827e-10
 -2.23489e-11 -0.0002109 5.54156e-10
 7.47767e-11 -0.000210895 1.64658e-09
 -8.52643e-11 -0.000210877 -3.11117e-11
 7.3911e-11 -0.000210888 -4.35055e-11
 1.13107e-10 -0.000210899 4.189e-12
 2.29928e-10 -0.00021091 3.87933e-10
 -1.02986e-10 -0.000210907 -1.33315e-10
 -2.77313e-11 -0.000210907 3.12232e-10
 1.27878e-10 -0.000210906 5.06798e-10
 1.11663e-10 -0.000210905 6.10884e-10
 6.0594e-11 -0.000210896 5.42886e-12
 3.98245e-10 -0.000210899 -7.44564e-11
 1.49568e-10 -0.000210901 -1.00735e-10
 1.28118e-10 -0.000210904 -2.99519e-10
 2.275e-10 -0.000210904 5.21171e-11
 2.62448e-10 -0.000210908 -8.25476e-11
 -4.36647e-11 -0.000210911 9.84331e-11
 4.02448e-12 -0.000210915 2.48248e-10
 3.14421e-10 -0.000210916 -1.58232e-10
 -3.80405e-11 -0.00021091 1.19199e-10
 -4.18781e-11 -0.000210904 -2.0479e-10
 -2.97708e-11 -0.000210898 -5.16673e-10
 1.26971e-11 -0.000210901 -4.72202e-10
 -1.83138e-10 -0.000210909 -3.55467e-10
 -2.05134e-12 -0.000210917 -7.78518e-11
 4.3342e-12 -0.000210925 -2.54151e-10
 -7.96794e-11 -0.000210909 -3.85677e-11
 1.84761e-10 -0.000210906 -1.232e-10
 1.05762e-10 -0.000210903 -2.87095e-10
 1.03179e-10 -0.000210899 -3.00273e-10
 -9.42558e-11 -0.000210919 -2.4891e-10
 1.01801e-10 -0.000210918 3.91921e-11
 1.44975e-10 -0.000210917 -1.79271e-12
 1.36525e-10 -0.000210915 -4.84899e-11
 1.70874e-10 -0.000210904 5.67363e-11
 5.83227e-11 -0.000210905 2.34592e-10
 -2.75548e-11 -0.000210906 -4.48342e-10
 -1.89938e-10 -0.000210906 -3.13914e-10
 -5.49461e-11 -0.000210917 -3.41669e-10
 -8.92841e-11 -0.000210916 -1.34095e-10
 2.10174e-10 -0.000210915 -1.77386e-10
 1.13189e-10 -0.000210913 2.03599e-10
 9.17338e-10 -0.0002109 -1.59532e-10
 2.70835e-10 -0.000210904 -4.48276e-11
 -7.00657e-11 -0.000210909 -1.33981e-10
 -2.63636e-10 -0.000210914 -1.98143e-10
 -2.08471e-10 -0.000210915 -1.53288e-10
 2.13577e-10 -0.000210914 -1.04658e-10
 8.70202e-11 -0.000210913 6.10986e-11
 1.38083e-10 -0.000210911 -9.84827e-11
 9.82935e-10 -0.000210895 1.08338e-10
 7.14308e-10 -0.000210904 -1.08555e-10
 2.40021e-10 -0.000210912 -1.08562e-10
 -1.67028e-11 -0.000210921 -1.886e-10
 4.26944e-11 -0.000210913 -1.66171e-10
 -1.88814e-12 -0.000210912 -1.64865e-10
 -7.43389e-11 -0.000210911 1.02056e-11
 1.07926e-10 -0.000210909 -1.24976e-10
 -1.05975e-10 -0.000407368 9.98872e-11
 5.90052e-11 -0.000407295 5.56626e-11
 -5.96756e-11 -0.000407329 -2.9156e-11
 2.30131e-10 -0.000407278 2.5709e-13
 -7.76749e-11 -0.000407282 2.31275e-10
 -1.07035e-10 -0.000407291 3.24878e-10
 1.69418e-10 -0.000407355 6.95024e-10
 8.35814e-11 -0.000407373 1.17362e-09
 1.22451e-10 -0.000407291 3.26864e-11
 4.03306e-11 -0.000407336 1.20148e-10
 -3.49814e-11 -0.000407327 -2.8214e-10
 -1.20935e-11 -0.000407326 4.82918e-11
 -8.83709e-11 -0.000407316 -8.27792e-11
 -3.89496e-11 -0.000407301 2.01262e-10
 -3.23031e-11 -0.000407301 4.68862e-10
 -2.27222e-10 -0.000407346 7.0012e-10
 1.68331e-10 -0.000407324 3.17968e-11
 3.15957e-10 -0.000407322 -2.95015e-11
 -1.89683e-11 -0.000407347 -1.15279e-10
 -3.10853e-10 -0.000407349 -9.23044e-11
 -7.1941e-11 -0.000407335 -2.91373e-10
 -3.67314e-10 -0.000407336 -5.59261e-13
 2.61474e-11 -0.000407335 3.13044e-10
 2.49521e-13 -0.000407323 4.56977e-11
 1.478e-10 -0.000407271 4.59179e-11
 -1.82398e-10 -0.000407321 -6.29982e-11
 -1.06709e-10 -0.000407347 -2.00717e-10
 -1.80852e-10 -0.000407374 -2.13773e-10
 3.95498e-11 -0.000407339 -3.90468e-10
 -1.98859e-10 -0.00040734 -2.87164e-10
 -2.22165e-11 -0.000407322 -1.61403e-10
 1.26959e-10 -0.000407314 -2.12789e-10
 -1.84447e-10 -0.000407281 3.01703e-11
 1.33162e-10 -0.000407314 -7.64554e-11
 -1.9768e-10 -0.000407335 -3.80758e-10
 -1.90689e-10 -0.00040734 -7.4076e-11
 -1.35714e-10 -0.000407316 -2.58082e-10
 -2.86495e-11 -0.000407335 2.25367e-12
 -4.47374e-10 -0.000407336 7.81384e-11
 -7.7124e-11 -0.000407315 -3.15116e-11
 5.17188e-11 -0.000407288 -2.8797e-11
 -1.54442e-10 -0.0004073 -6.59228e-12
 6.30366e-11 -0.000407335 -1.4409e-10
 4.21024e-11 -0.00040734 -1.019e-10
 -7.49425e-11 -0.000407333 -1.85664e-10
 -1.86483e-11 -0.000407304 -2.44899e-10
 -2.95001e-11 -0.00040734 1.38636e-10
 -1.45496e-10 -0.000407336 -9.68112e-11
 4.08129e-10 -0.000407351 -4.62405e-12
 2.01611e-10 -0.000407298 -6.78504e-12
 -1.15556e-11 -0.000407328 -5.14711e-11
 -1.07435e-10 -0.00040732 -3.12886e-10
 -2.94338e-11 -0.00040733 -2.37152e-10
 8.49978e-11 -0.000407335 -1.50517e-10
 -1.00697e-10 -0.000407348 -7.64845e-11
 -6.43244e-11 -0.000407297 2.09961e-10
 4.11962e-10 -0.000407366 7.68596e-11
 6.40779e-11 -0.000407342 1.10376e-10
 3.01231e-10 -0.000407322 -2.76313e-10
 -7.81543e-11 -0.00040731 -2.16162e-10
 -4.33125e-11 -0.000407308 -4.00459e-10
 2.51646e-10 -0.000407331 -1.23262e-10
 7.26235e-11 -0.000407293 -4.08957e-12
 -1.5004e-12 -0.00040733 2.43353e-10
 1.17515e-10 -0.00095538 -6.58214e-11
 5.68292e-11 -0.000955647 8.64981e-11
 -1.74572e-11 -0.000955442 3.0511e-10
 1.04241e-10 -0.000955572 1.10442e-10
 -1.11148e-10 -0.000955536 4.74107e-11
 -3.08404e-11 -0.000955585 -1.06412e-10
 -1.25554e-10 -0.000955327 4.87857e-10
 -2.03891e-10 -0.000955277 9.29613e-10
 1.27011e-10 -0.000955662 7.21506e-11
 -3.84923e-11 -0.000955421 -4.02796e-11
 -2.956e-10 -0.000955436 3.48935e-11
 -4.18745e-10 -0.000955417 -1.03313e-10
 -2.59848e-10 -0.000955444 -1.31218e-10
 -2.63172e-10 -0.000955572 -2.72381e-12
 -2.36448e-10 -0.000955532 3.06754e-10
 -1.86354e-10 -0.00095537 6.98736e-10
 -1.37194e-10 -0.000955465 7.18541e-11
 1.63224e-10 -0.000955453 8.53722e-11
 5.61135e-11 -0.00095538 -3.41377e-11
 -6.46167e-11 -0.000955365 -2.24535e-10
 -2.06257e-10 -0.000955393 -1.2688e-10
 -2.36013e-10 -0.000955376 -2.78324e-11
 -6.9855e-11 -0.000955381 1.71343e-10
 -1.3115e-10 -0.000955411 -4.0108e-11
 -1.63008e-10 -0.000955607 -8.49161e-12
 -4.15985e-11 -0.000955438 -1.62975e-11
 -1.04875e-10 -0.00095537 -5.21118e-11
 -2.64197e-10 -0.000955277 -2.22669e-10
 -1.7022e-10 -0.00095542 -2.69973e-10
 -5.45488e-11 -0.000955357 -2.05436e-10
 -1.35307e-10 -0.000955417 -2.3884e-10
 -2.18782e-10 -0.000955394 -7.09367e-11
 -1.3277e-10 -0.000955546 7.93644e-11
 -1.04268e-10 -0.000955454 1.62183e-11
 -1.47517e-10 -0.000955395 -6.20837e-11
 -2.70969e-11 -0.000955415 -1.2836e-10
 -1.63803e-10 -0.000955447 -2.02153e-10
 -2.68995e-10 -0.000955369 -3.89631e-11
 -3.81074e-10 -0.000955353 -9.49275e-11
 -2.22731e-10 -0.000955452 -6.79647e-12
 -7.27351e-11 -0.000955601 1.07036e-10
 -8.68e-11 -0.000955577 4.98737e-11
 1.10106e-12 -0.000955384 -2.75487e-10
 -1.68254e-10 -0.000955358 -1.01123e-10
 -2.72832e-10 -0.000955382 -1.33697e-10
 -1.34398e-10 -0.0009555 -1.26667e-10
 -2.46903e-10 -0.000955316 -1.73048e-10
 -1.51051e-10 -0.000955356 2.11372e-10
 -5.5607e-12 -0.000955348 5.56826e-11
 -2.45356e-10 -0.000955548 -1.33132e-13
 -3.22573e-10 -0.000955414 -5.46428e-11
 -7.35538e-11 -0.00095543 -2.32287e-10
 9.07074e-11 -0.000955381 -2.2034e-10
 1.08366e-10 -0.000955343 -6.70392e-11
 -1.84958e-11 -0.000955279 1.18079e-10
 -9.81514e-11 -0.000955538 -4.50413e-11
 5.85466e-10 -0.000955311 -1.46684e-10
 1.32945e-10 -0.000955398 -5.16362e-11
 1.8484e-10 -0.000955421 -1.20583e-10
 -2.16182e-10 -0.000955421 4.71441e-12
 2.61629e-10 -0.000955495 -2.37076e-10
 -7.92286e-11 -0.000955387 -2.19029e-11
 1.27917e-10 -0.00095556 -7.03617e-11
 -6.92077e-13 -0.000955414 1.93725e-10
 1.93985e-10 -0.000315692 -4.54498e-12
 2.24872e-10 -0.00031551 8.16087e-11
 7.73704e-11 -0.000315555 -4.75339e-11
 -9.07048e-11 -0.000315422 1.21843e-10
 -5.28831e-10 -0.000315433 2.76318e-10
 -1.47059e-11 -0.000315484 2.52267e-10
 -2.00694e-10 -0.000315699 2.81079e-10
 -3.38156e-10 -0.000315788 1.40587e-10
 4.92265e-11 -0.000315505 7.08696e-11
 6.17199e-11 -0.000315629 -1.7413e-10
 -4.13842e-10 -0.000315582 5.05461e-11
 5.55515e-11 -0.000315579 2.92034e-11
 -3.12145e-10 -0.00031552 1.45683e-11
 -3.00726e-10 -0.000315464 1.08235e-10
 -3.64496e-10 -0.000315519 6.81133e-11
 -7.49177e-10 -0.000315706 3.27236e-10
 -5.58257e-11 -0.000315546 -7.4804e-11
 -3.29213e-10 -0.000315571 6.95186e-11
 -3.50239e-10 -0.000315617 -1.31064e-10
 -6.33082e-10 -0.000315636 8.30538e-11
 -6.8175e-11 -0.000315593 -6.56524e-11
 -3.21303e-10 -0.000315595 -1.31503e-10
 -4.08113e-10 -0.000315584 1.44634e-10
 -4.82497e-10 -0.000315626 -6.25046e-12
 -2.19161e-10 -0.000315413 -8.07462e-11
 -1.1569e-10 -0.00031557 -4.60499e-11
 1.37507e-11 -0.000315636 6.10694e-11
 -2.80582e-10 -0.000315791 -2.86351e-10
 -7.66421e-11 -0.000315643 -6.76418e-11
 -3.28014e-10 -0.00031564 -8.61204e-11
 -4.17202e-10 -0.000315583 -8.92332e-11
 -1.02422e-10 -0.000315572 -1.24038e-10
 9.54583e-11 -0.000315445 -1.2122e-10
 1.23541e-10 -0.000315524 2.20743e-11
 -7.64344e-11 -0.000315601 5.24725e-11
 -1.75466e-10 -0.000315646 -1.53451e-10
 1.12438e-10 -0.000315547 -2.22461e-11
 -2.77917e-10 -0.000315625 -3.71403e-11
 -3.60822e-10 -0.000315642 -1.46266e-11
 -3.65275e-10 -0.000315603 8.67232e-11
 -1.74274e-10 -0.000315476 1.4258e-10
 -3.39807e-10 -0.000315465 7.81872e-11
 -7.678e-11 -0.000315596 -1.38298e-10
 -4.75817e-10 -0.000315649 -7.71673e-11
 -1.32469e-10 -0.000315622 -9.52117e-12
 -1.26724e-10 -0.000315571 -1.70429e-10
 -2.2353e-10 -0.000315675 -5.6676e-11
 -3.44732e-10 -0.000315598 -8.95719e-13
 -4.10733e-10 -0.00031567 7.62211e-11
 -5.87161e-11 -0.000315506 1.37102e-10
 -5.10092e-11 -0.000315571 -3.46224e-11
 -4.03563e-11 -0.000315588 -1.58851e-10
 -2.35573e-10 -0.000315632 -1.10226e-10
 -2.32883e-11 -0.000315664 -1.97087e-10
 6.29649e-11 -0.000315635 6.08068e-11
 1.82297e-11 -0.000315456 -5.02049e-11
 1.97352e-10 -0.000315737 6.34544e-11
 -3.17978e-10 -0.00031568 -1.2328e-10
 -3.0128e-10 -0.000315621 -2.29628e-10
 3.45373e-11 -0.000315577 -3.10859e-11
 8.85672e-11 -0.000315591 -4.1479e-11
 -5.78026e-11 -0.000315589 -1.47308e-10
 1.63843e-10 -0.000315447 -6.02607e-11
 3.18436e-10 -0.000315509 2.47912e-10
 -5.26641e-11 -0.000211772 -4.97301e-11
 -5.63059e-11 -0.000211553 -1.15273e-10
 -3.10625e-10 -0.000211699 -1.00777e-10
 -1.47388e-10 -0.000211591 -1.03335e-11
 -3.36848e-10 -0.000211643 3.62188e-10
 -1.48115e-10 -0.000211585 3.44368e-10
 -1.93288e-10 -0.000211777 3.26376e-10
 -2.64715e-10 -0.000211807 3.83181e-10
 2.88515e-13 -0.000211543 2.11612e-11
 -1.25276e-10 -0.000211722 6.02958e-11
 1.32511e-11 -0.000211703 -2.0791e-10
 -2.54747e-10 -0.0002117 5.61154e-11
 -8.91946e-11 -0.000211696 2.13146e-10
 -3.08587e-10 -0.000211576 9.54761e-11
 -3.80561e-10 -0.00021161 1.73331e-10
 -3.03038e-10 -0.000211737 3.73744e-10
 4.82139e-11 -0.000211682 4.44017e-12
 -2.88691e-11 -0.00021169 2.48648e-11
 -2.94233e-10 -0.000211729 2.61333e-12
 -4.54887e-10 -0.000211725 8.52843e-11
 -2.88391e-10 -0.000211719 -2.04731e-11
 -3.29728e-10 -0.000211732 -2.38706e-11
 -3.60196e-10 -0.000211727 1.76215e-10
 -2.22515e-10 -0.000211706 1.81376e-10
 -1.41597e-10 -0.000211565 9.47599e-11
 -7.53959e-11 -0.000211686 5.52656e-11
 -1.21694e-10 -0.000211721 -1.65682e-10
 -1.98086e-10 -0.000211783 -4.94767e-11
 -1.3088e-10 -0.000211676 -1.21019e-10
 -2.99739e-10 -0.000211739 4.03952e-11
 -3.01885e-10 -0.000211697 1.49842e-10
 -3.47928e-10 -0.00021172 7.18311e-11
 -1.22263e-10 -0.000211637 -1.26985e-11
 -2.83086e-10 -0.00021169 8.53308e-11
 -1.79031e-10 -0.00021172 -1.80339e-10
 5.8259e-11 -0.000211682 -5.34492e-12
 -2.5101e-10 -0.000211657 -6.36805e-11
 -1.55699e-10 -0.000211729 2.77135e-11
 -2.13542e-10 -0.000211744 -8.28064e-11
 -4.89528e-10 -0.000211667 8.88959e-11
 -3.09994e-10 -0.000211575 -1.30346e-11
 -4.80065e-11 -0.000211576 4.64222e-11
 -3.35941e-11 -0.000211729 2.8761e-11
 -1.08101e-10 -0.000211741 -1.94368e-10
 -8.04404e-11 -0.00021172 -1.19712e-10
 -2.22372e-10 -0.000211627 2.77952e-12
 -2.35658e-10 -0.000211785 -2.01312e-11
 -1.57524e-10 -0.000211743 -1.95868e-11
 -7.49661e-11 -0.000211763 9.62754e-11
 -2.56414e-10 -0.000211599 5.20252e-11
 -2.15682e-10 -0.000211704 -1.26399e-10
 3.18954e-11 -0.000211691 -5.0061e-11
 -1.8837e-10 -0.000211723 -9.69482e-11
 1.90191e-10 -0.000211765 -2.52726e-10
 -8.10067e-11 -0.000211811 -3.26561e-12
 4.27783e-11 -0.000211592 -5.42771e-11
 1.71764e-10 -0.000211782 -1.13391e-10
 1.32097e-10 -0.000211717 -2.25534e-10
 1.4028e-10 -0.000211702 -1.81813e-10
 -1.88006e-10 -0.000211702 -7.29545e-11
 1.51773e-10 -0.000211637 -6.65242e-11
 -1.09951e-10 -0.000211722 -6.56563e-11
 2.11059e-10 -0.000211575 -9.27011e-11
 1.67005e-11 -0.00021169 2.37387e-10
 1.73217e-10 -0.00220219 1.27781e-10
 9.02296e-11 -0.00220218 -1.06566e-10
 -3.17668e-10 -0.0022022 -9.82781e-11
 -4.45463e-10 -0.0022022 2.86377e-11
 -4.92356e-10 -0.00220223 -1.56637e-10
 -3.2041e-10 -0.0022022 -7.40695e-11
 -1.44442e-10 -0.00220218 3.84282e-10
 -1.24949e-10 -0.00220215 3.90462e-10
 1.06234e-10 -0.00220218 1.64207e-11
 -1.12328e-10 -0.00220219 -4.22046e-11
 1.33479e-11 -0.00220219 -7.57426e-11
 -3.2737e-10 -0.00220219 6.50565e-11
 -3.21381e-10 -0.00220221 -1.5311e-11
 -2.30368e-10 -0.0022022 1.12002e-10
 -2.09344e-10 -0.00220219 1.19774e-10
 -7.9482e-11 -0.00220216 9.48958e-11
 1.8724e-11 -0.0022022 9.37033e-11
 -1.97245e-10 -0.00220219 4.04266e-11
 -2.00044e-10 -0.00220219 -1.32673e-10
 -1.2739e-10 -0.00220219 -2.55797e-11
 -1.83028e-10 -0.00220221 -7.69466e-11
 -4.42816e-10 -0.0022022 -7.10529e-11
 -1.33525e-10 -0.00220219 1.72409e-10
 -2.30328e-10 -0.00220218 5.3958e-11
 -1.94705e-10 -0.0022022 -1.23313e-10
 -6.67246e-12 -0.00220219 2.16282e-13
 -1.70137e-10 -0.00220219 2.96683e-12
 -2.34031e-10 -0.00220218 -1.40246e-10
 -1.82934e-10 -0.0022022 -4.72227e-11
 -1.5251e-10 -0.0022022 -4.94264e-11
 -1.47943e-10 -0.0022022 8.03018e-11
 -3.07195e-10 -0.00220221 1.10347e-10
 -2.14247e-10 -0.00220222 -6.15239e-11
 -1.24536e-10 -0.00220221 7.81845e-11
 -9.29791e-11 -0.0022022 -1.08337e-10
 -3.86094e-10 -0.00220219 -2.29006e-10
 -9.32765e-11 -0.0022022 -1.53356e-11
 -1.64284e-10 -0.00220219 -2.30759e-12
 -3.06356e-10 -0.00220219 1.74904e-10
 -1.22942e-10 -0.00220219 -4.71759e-11
 -5.41399e-11 -0.0022022 6.75939e-11
 -2.1748e-10 -0.0022022 -1.12045e-10
 -1.24517e-10 -0.0022022 -1.59023e-10
 -3.41797e-10 -0.00220219 -1.77039e-11
 -1.90452e-10 -0.00220219 -4.02506e-11
 -2.45656e-10 -0.00220219 -1.94952e-10
 -2.08523e-10 -0.0022022 -7.93173e-11
 -2.48481e-10 -0.0022022 1.08371e-10
 -1.13175e-11 -0.00220219 8.6579e-11
 -1.07281e-11 -0.00220219 -2.28297e-11
 -1.72477e-10 -0.0022022 -2.38841e-10
 6.3684e-11 -0.0022022 -9.36823e-11
 -2.19141e-10 -0.0022022 -5.38035e-11
 -7.52844e-11 -0.0022022 -1.20614e-10
 -2.29007e-10 -0.00220221 -1.67997e-10
 -1.65079e-10 -0.00220222 -3.23309e-11
 3.29665e-10 -0.00220217 1.71432e-11
 1.50964e-10 -0.00220217 -4.50445e-11
 5.54191e-11 -0.00220219 -7.17896e-11
 2.08123e-10 -0.00220221 -2.04258e-10
 2.12441e-10 -0.00220219 -1.95729e-10
 2.26558e-10 -0.00220221 -1.56162e-10
 4.01209e-11 -0.00220222 -2.3833e-10
 4.79063e-12 -0.00220223 3.3801e-11
 2.23785e-10 0.000493981 1.26427e-10
 3.93179e-11 0.000494002 6.22296e-11
 -3.32658e-10 0.000493974 8.92229e-11
 -2.29754e-10 0.000493943 -2.25052e-10
 -4.70391e-10 0.000493873 -8.26639e-11
 -1.27793e-10 0.000494005 8.14424e-13
 -1.52955e-10 0.000494036 2.17662e-10
 2.22309e-11 0.000494102 -2.19775e-10
 3.38078e-10 0.000494008 1.62296e-10
 -6.99326e-11 0.000494005 5.04389e-11
 -1.18572e-10 0.00049404 -6.32717e-11
 -5.60239e-10 0.000494051 -1.01826e-10
 -2.75615e-10 0.000493982 4.36539e-11
 -2.97753e-10 0.000494057 -2.18324e-10
 -1.05129e-10 0.000494052 1.6254e-10
 -7.50031e-11 0.000494125 -1.77768e-10
 -6.76952e-11 0.000493987 1.26151e-10
 -1.98984e-10 0.000494045 -8.35393e-11
 3.15746e-11 0.000494102 -1.55114e-10
 -5.71542e-10 0.000494146 5.60594e-11
 -4.68222e-10 0.000494054 -3.77833e-11
 -3.13224e-10 0.000494055 -2.09193e-10
 -2.43617e-10 0.000494071 1.11493e-10
 4.46637e-11 0.000494096 -6.12356e-11
 1.61079e-10 0.000493965 -1.91708e-10
 1.64821e-11 0.000494061 1.44902e-11
 -3.68103e-10 0.000494153 -1.14704e-10
 -2.50928e-10 0.00049423 -5.8686e-11
 -3.09981e-10 0.000494149 -7.71552e-12
 -1.75375e-10 0.0004941 1.38817e-11
 -6.62021e-11 0.000494103 -1.36133e-11
 -1.71612e-10 0.000494047 -6.41423e-12
 -2.27288e-10 0.000493874 -9.65296e-13
 -2.33908e-11 0.000493978 6.40083e-11
 -2.80987e-10 0.000494046 -1.77945e-10
 -2.57384e-10 0.000494136 -1.0169e-10
 -2.30911e-10 0.00049408 -4.16428e-11
 -3.70035e-10 0.000494083 -2.85446e-12
 -1.91905e-10 0.000494051 -7.14455e-11
 -2.59221e-10 0.000494047 6.68181e-11
 -1.49513e-11 0.000494006 -1.6025e-12
 -1.34264e-10 0.000494057 -4.01956e-11
 -1.11544e-11 0.000494053 -8.8913e-11
 -2.0584e-10 0.000494098 -1.37315e-10
 -1.01647e-10 0.000494095 -1.41883e-10
 -1.14541e-10 0.000494082 -1.031e-11
 -2.85304e-10 0.000494034 -1.22993e-10
 -2.03094e-10 0.000494031 3.41204e-12
 1.42432e-10 0.000494038 4.71561e-11
 -4.88259e-12 0.000494057 2.6285e-12
 -5.77992e-11 0.000494078 -1.66737e-10
 -4.14131e-12 0.000494109 -1.34236e-10
 -6.50812e-11 0.000494075 -1.80945e-10
 -7.74603e-11 0.000494048 -7.61768e-11
 -1.16028e-10 0.000494019 -8.02582e-11
 -1.48183e-10 0.000494051 -2.25316e-10
 1.17056e-10 0.000494107 -6.74318e-11
 2.04344e-10 0.000494137 -2.51626e-11
 1.22898e-10 0.000494107 -2.11016e-10
 2.21219e-10 0.000494064 -2.07221e-11
 2.42733e-10 0.000494085 -1.4253e-10
 5.56842e-11 0.000494053 -1.67171e-10
 -6.95877e-13 0.000494063 -3.08058e-10
 -1.12871e-10 0.000494065 -1.45841e-10
 4.93177e-10 0.00143576 2.54075e-10
 2.12299e-10 0.00143567 2.19774e-12
 -5.23721e-11 0.00143571 -1.26252e-10
 -6.66048e-10 0.00143569 -4.52782e-11
 -6.29457e-10 0.00143582 -3.26383e-11
 -2.0475e-10 0.00143569 -3.67584e-10
 -1.00062e-10 0.00143566 -3.78059e-11
 2.18994e-10 0.00143557 -1.16333e-10
 3.58039e-10 0.00143566 1.72804e-10
 1.89948e-11 0.00143569 -1.76557e-11
 -2.07791e-10 0.00143567 -7.28919e-11
 -5.53053e-10 0.00143562 -2.13017e-10
 -5.12825e-10 0.00143573 3.63178e-11
 -3.02078e-10 0.00143563 -1.48768e-10
 -1.55208e-10 0.0014356 2.75267e-11
 3.00415e-11 0.00143557 -2.73764e-10
 -2.38307e-12 0.0014357 2.3149e-10
 1.94708e-10 0.00143566 -8.827e-11
 -3.29972e-10 0.00143562 6.41004e-11
 -6.5063e-10 0.00143554 -2.38174e-10
 -2.234e-10 0.00143564 -1.38288e-10
 -1.61898e-10 0.00143564 -2.31151e-10
 -1.07851e-10 0.00143563 1.43352e-11
 2.64946e-11 0.0014356 -1.23693e-10
 1.19913e-10 0.00143567 -1.43061e-10
 2.30452e-12 0.00143561 2.66161e-11
 -1.94792e-10 0.00143553 -1.58529e-10
 -1.81499e-10 0.00143544 -9.78288e-11
 -1.87714e-10 0.0014355 -2.98025e-11
 -2.21383e-10 0.00143557 -2.15715e-10
 -6.79032e-11 0.00143561 -3.41808e-11
 -2.32061e-11 0.00143563 1.22893e-10
 1.02273e-10 0.00143582 -8.10129e-11
 1.91503e-11 0.00143573 4.39292e-11
 -1.57274e-10 0.00143565 -1.06043e-10
 -1.03432e-10 0.00143552 -4.30658e-11
 -1.1816e-10 0.00143559 -6.51079e-11
 -8.58081e-11 0.00143564 3.83271e-11
 -2.00799e-10 0.00143564 -8.6343e-11
 -1.62987e-10 0.00143562 -1.26994e-11
 9.97149e-11 0.00143568 -2.00579e-11
 -8.62483e-11 0.00143563 5.29925e-13
 -2.21634e-10 0.00143564 2.43971e-11
 -2.65517e-10 0.00143557 -8.97087e-11
 -6.02045e-11 0.00143562 -1.22168e-10
 -1.87917e-10 0.00143558 -9.6307e-11
 -1.41009e-10 0.00143567 -2.04704e-10
 -1.91023e-10 0.00143567 -1.25929e-10
 -1.9067e-10 0.00143566 1.43598e-11
 -1.85944e-10 0.00143559 2.74975e-11
 -3.83854e-11 0.00143562 -1.80542e-10
 1.43133e-10 0.00143561 -1.10571e-10
 -3.13903e-10 0.00143562 -1.13653e-10
 -3.62535e-11 0.00143566 -1.45402e-10
 -1.26514e-10 0.0014357 -1.63021e-10
 -1.46988e-10 0.00143561 -2.8471e-10
 1.23557e-10 0.00143557 -4.85758e-11
 -1.33384e-10 0.00143556 -1.66998e-10
 1.81935e-10 0.00143559 -1.03653e-10
 1.94705e-10 0.00143561 -7.17114e-11
 1.91959e-10 0.00143559 -1.67422e-10
 -2.34182e-10 0.00143565 -2.85485e-10
 -1.15688e-10 0.0014356 -2.25167e-10
 -3.46969e-10 0.00143565 -2.0884e-10
 3.10654e-10 0.000236966 2.01078e-10
 7.64255e-11 0.000236974 3.35403e-10
 -2.03562e-10 0.000237039 3.07647e-11
 -2.11711e-10 0.000237073 -1.60846e-10