<?xml version="1.0"?>
<!-- time 56.8069-->
<VTKFile type="UnstructuredGrid" version="0.1" byte_order="LittleEndian">
<UnstructuredGrid>
<Piece NumberOfPoints="7680" NumberOfCells="0">
<Points>
  <DataArray type="Float32" Name="Position" NumberOfComponents="3" format="ascii">
	-350 2049.59 -350
	-350 2049.59 -250
	-350 2049.59 -150
	-350 2049.59 -50
	-350 2049.59 50
	-350 2049.59 150
	-350 2049.59 250
	-350 2049.59 350
	-250 2049.59 -350
	-250 2049.59 -250
	-250 2049.59 -150
	-250 2049.59 -50
	-250 2049.59 50
	-250 2049.59 150
	-250 2049.59 250
	-250 2049.59 350
	-150 2049.59 -350
	-150 2049.59 -250
	-150 2049.59 -150
	-150 2049.59 -50
	-150 2049.59 50
	-150 2049.59 150
	-150 2049.59 250
	-150 2049.59 350
	-50 2049.59 -350
	-50 2049.59 -250
	-50 2049.59 -150
	-50 2049.59 -50
	-50 2049.59 50
	-50 2049.59 150
	-50 2049.59 250
	-50 2049.59 350
	50 2049.59 -350
	50 2049.59 -250
	50 2049.59 -150
	50 2049.59 -50
	50 2049.59 50
	50 2049.59 150
	50 2049.59 250
	50 2049.59 350
	150 2049.59 -350
	150 2049.59 -250
	150 2049.59 -150
	150 2049.59 -50
	150 2049.59 50
	150 2049.59 150
	150 2049.59 250
	150 2049.59 350
	250 2049.59 -350
	250 2049.59 -250
	250 2049.59 -150
	250 2049.59 -50
	250 2049.59 50
	250 2049.59 150
	250 2049.59 250
	250 2049.59 350
	350 2049.59 -350
	350 2049.59 -250
	350 2049.59 -150
	350 2049.59 -50
	350 2049.59 50
	350 2049.59 150
	350 2049.59 250
	350 2049.59 350
	-350 2149.66 -350
	-350 2149.66 -250
	-350 2149.66 -150
	-350 2149.66 -50
	-350 2149.66 50
	-350 2149.66 150
	-350 2149.66 250
	-350 2149.66 350
	-250 2149.66 -350
	-250 2149.66 -250
	-250 2149.66 -150
	-250 2149.66 -50
	-250 2149.66 50
	-250 2149.66 150
	-250 2149.66 250
	-250 2149.66 350
	-150 2149.66 -350
	-150 2149.66 -250
	-150 2149.66 -150
	-150 2149.66 -50
	-150 2149.66 50
	-150 2149.66 150
	-150 2149.66 250
	-150 2149.66 350
	-50 2149.66 -350
	-50 2149.66 -250
	-50 2149.66 -150
	-50 2149.66 -50
	-50 2149.66 50
	-50 2149.66 150
	-50 2149.66 250
	-50 2149.66 350
	50 2149.66 -350
	50 2149.66 -250
	50 2149.66 -150
	50 2149.66 -50
	50 2149.66 50
	50 2149.66 150
	50 2149.66 250
	50 2149.66 350
	150 2149.66 -350
	150 2149.66 -250
	150 2149.66 -150
	150 2149.66 -50
	150 2149.66 50
	150 2149.66 150
	150 2149.66 250
	150 2149.66 350
	250 2149.66 -350
	250 2149.66 -250
	250 2149.66 -150
	250 2149.66 -50
	250 2149.66 50
	250 2149.66 150
	250 2149.66 250
	250 2149.66 350
	350 2149.66 -350
	350 2149.66 -250
	350 2149.66 -150
	350 2149.66 -50
	350 2149.66 50
	350 2149.66 150
	350 2149.66 250
	350 2149.66 350
	-350 2249.67 -350
	-350 2249.67 -250
	-350 2249.67 -150
	-350 2249.67 -50
	-350 2249.67 50
	-350 2249.67 150
	-350 2249.67 250
	-350 2249.67 350
	-250 2249.67 -350
	-250 2249.67 -250
	-250 2249.67 -150
	-250 2249.67 -50
	-250 2249.67 50
	-250 2249.67 150
	-250 2249.67 250
	-250 2249.67 350
	-150 2249.67 -350
	-150 2249.67 -250
	-150 2249.67 -150
	-150 2249.67 -50
	-150 2249.67 50
	-150 2249.67 150
	-150 2249.67 250
	-150 2249.67 350
	-50 2249.67 -350
	-50 2249.67 -250
	-50 2249.67 -150
	-50 2249.67 -50
	-50 2249.67 50
	-50 2249.67 150
	-50 2249.67 250
	-50 2249.67 350
	50 2249.67 -350
	50 2249.67 -250
	50 2249.67 -150
	50 2249.67 -50
	50 2249.67 50
	50 2249.67 150
	50 2249.67 250
	50 2249.67 350
	150 2249.67 -350
	150 2249.67 -250
	150 2249.67 -150
	150 2249.67 -50
	150 2249.67 50
	150 2249.67 150
	150 2249.67 250
	150 2249.67 350
	250 2249.67 -350
	250 2249.67 -250
	250 2249.67 -150
	250 2249.67 -50
	250 2249.67 50
	250 2249.67 150
	250 2249.67 250
	250 2249.67 350
	350 2249.67 -350
	350 2249.67 -250
	350 2249.67 -150
	350 2249.67 -50
	350 2249.67 50
	350 2249.67 150
	350 2249.67 250
	350 2249.67 350
	-350 2349.67 -350
	-350 2349.67 -250
	-350 2349.67 -150
	-350 2349.67 -50
	-350 2349.67 50
	-350 2349.67 150
	-350 2349.67 250
	-350 2349.67 350
	-250 2349.67 -350
	-250 2349.67 -250
	-250 2349.67 -150
	-250 2349.67 -50
	-250 2349.67 50
	-250 2349.67 150
	-250 2349.67 250
	-250 2349.67 350
	-150 2349.67 -350
	-150 2349.67 -250
	-150 2349.67 -150
	-150 2349.67 -50
	-150 2349.67 50
	-150 2349.67 150
	-150 2349.67 250
	-150 2349.67 350
	-50 2349.67 -350
	-50 2349.67 -250
	-50 2349.67 -150
	-50 2349.67 -50
	-50 2349.67 50
	-50 2349.67 150
	-50 2349.67 250
	-50 2349.67 350
	50 2349.67 -350
	50 2349.67 -250
	50 2349.67 -150
	50 2349.67 -50
	50 2349.67 50
	50 2349.67 150
	50 2349.67 250
	50 2349.67 350
	150 2349.67 -350
	150 2349.67 -250
	150 2349.67 -150
	150 2349.67 -50
	150 2349.67 50
	150 2349.67 150
	150 2349.67 250
	150 2349.67 350
	250 2349.67 -350
	250 2349.67 -250
	250 2349.67 -150
	250 2349.67 -50
	250 2349.67 50
	250 2349.67 150
	250 2349.67 250
	250 2349.67 350
	350 2349.67 -350
	350 2349.67 -250
	350 2349.67 -150
	350 2349.67 -50
	350 2349.67 50
	350 2349.67 150
	350 2349.67 250
	350 2349.67 350
	-350 2449.67 -350
	-350 2449.67 -250
	-350 2449.67 -150
	-350 2449.67 -50
	-350 2449.67 50
	-350 2449.67 150
	-350 2449.67 250
	-350 2449.67 350
	-250 2449.67 -350
	-250 2449.67 -250
	-250 2449.67 -150
	-250 2449.67 -50
	-250 2449.67 50
	-250 2449.67 150
	-250 2449.67 250
	-250 2449.67 350
	-150 2449.67 -350
	-150 2449.67 -250
	-150 2449.67 -150
	-150 2449.67 -50
	-150 2449.67 50
	-150 2449.67 150
	-150 2449.67 250
	-150 2449.67 350
	-50 2449.67 -350
	-50 2449.67 -250
	-50 2449.67 -150
	-50 2449.67 -50
	-50 2449.67 50
	-50 2449.67 150
	-50 2449.67 250
	-50 2449.67 350
	50 2449.67 -350
	50 2449.67 -250
	50 2449.67 -150
	50 2449.67 -50
	50 2449.67 50
	50 2449.67 150
	50 2449.67 250
	50 2449.67 350
	150 2449.67 -350
	150 2449.67 -250
	150 2449.67 -150
	150 2449.67 -50
	150 2449.67 50
	150 2449.67 150
	150 2449.67 250
	150 2449.67 350
	250 2449.67 -350
	250 2449.67 -250
	250 2449.67 -150
	250 2449.67 -50
	250 2449.67 50
	250 2449.67 150
	250 2449.67 250
	250 2449.67 350
	350 2449.67 -350
	350 2449.67 -250
	350 2449.67 -150
	350 2449.67 -50
	350 2449.67 50
	350 2449.67 150
	350 2449.67 250
	350 2449.67 350
	-350 2549.66 -350
	-350 2549.66 -250
	-350 2549.66 -150
	-350 2549.66 -50
	-350 2549.66 50
	-350 2549.66 150
	-350 2549.66 250
	-350 2549.66 350
	-250 2549.66 -350
	-250 2549.66 -250
	-250 2549.66 -150
	-250 2549.66 -50
	-250 2549.66 50
	-250 2549.66 150
	-250 2549.66 250
	-250 2549.66 350
	-150 2549.66 -350
	-150 2549.66 -250
	-150 2549.66 -150
	-150 2549.66 -50
	-150 2549.66 50
	-150 2549.66 150
	-150 2549.66 250
	-150 2549.66 350
	-50 2549.66 -350
	-50 2549.66 -250
	-50 2549.66 -150
	-50 2549.66 -50
	-50 2549.66 50
	-50 2549.66 150
	-50 2549.66 250
	-50 2549.66 350
	50 2549.66 -350
	50 2549.66 -250
	50 2549.66 -150
	50 2549.66 -50
	50 2549.66 50
	50 2549.66 150
	50 2549.66 250
	50 2549.66 350
	150 2549.66 -350
	150 2549.66 -250
	150 2549.66 -150
	150 2549.66 -50
	150 2549.66 50
	150 2549.66 150
	150 2549.66 250
	150 2549.66 350
	250 2549.66 -350
	250 2549.66 -250
	250 2549.66 -150
	250 2549.66 -50
	250 2549.66 50
	250 2549.66 150
	250 2549.66 250
	250 2549.66 350
	350 2549.66 -350
	350 2549.66 -250
	350 2549.66 -150
	350 2549.66 -50
	350 2549.66 50
	350 2549.66 150
	350 2549.66 250
	350 2549.66 350
	-350 2649.66 -350
	-350 2649.66 -250
	-350 2649.66 -150
	-350 2649.66 -50
	-350 2649.66 50
	-350 2649.66 150
	-350 2649.66 250
	-350 2649.66 350
	-250 2649.66 -350
	-250 2649.66 -250
	-250 2649.66 -150
	-250 2649.66 -50
	-250 2649.66 50
	-250 2649.66 150
	-250 2649.66 250
	-250 2649.66 350
	-150 2649.66 -350
	-150 2649.66 -250
	-150 2649.66 -150
	-150 2649.66 -50
	-150 2649.66 50
	-150 2649.66 150
	-150 2649.66 250
	-150 2649.66 350
	-50 2649.66 -350
	-50 2649.66 -250
	-50 2649.66 -150
	-50 2649.66 -50
	-50 2649.66 50
	-50 2649.66 150
	-50 2649.66 250
	-50 2649.66 350
	50 2649.66 -350
	50 2649.66 -250
	50 2649.66 -150
	50 2649.66 -50
	50 2649.66 50
	50 2649.66 150
	50 2649.66 250
	50 2649.66 350
	150 2649.66 -350
	150 2649.66 -250
	150 2649.66 -150
	150 2649.66 -50
	150 2649.66 50
	150 2649.66 150
	150 2649.66 250
	150 2649.66 350
	250 2649.66 -350
	250 2649.66 -250
	250 2649.66 -150
	250 2649.66 -50
	250 2649.66 50
	250 2649.66 150
	250 2649.66 250
	250 2649.66 350
	350 2649.66 -350
	350 2649.66 -250
	350 2649.66 -150
	350 2649.66 -50
	350 2649.66 50
	350 2649.66 150
	350 2649.66 250
	350 2649.66 350
	-350 2749.66 -350
	-350 2749.66 -250
	-350 2749.66 -150
	-350 2749.66 -50
	-350 2749.66 50
	-350 2749.66 150
	-350 2749.66 250
	-350 2749.66 350
	-250 2749.66 -350
	-250 2749.66 -250
	-250 2749.66 -150
	-250 2749.66 -50
	-250 2749.66 50
	-250 2749.66 150
	-250 2749.66 250
	-250 2749.66 350
	-150 2749.66 -350
	-150 2749.66 -250
	-150 2749.66 -150
	-150 2749.66 -50
	-150 2749.66 50
	-150 2749.66 150
	-150 2749.66 250
	-150 2749.66 350
	-50 2749.66 -350
	-50 2749.66 -250
	-50 2749.66 -150
	-50 2749.66 -50
	-50 2749.66 50
	-50 2749.66 150
	-50 2749.66 250
	-50 2749.66 350
	50 2749.66 -350
	50 2749.66 -250
	50 2749.66 -150
	50 2749.66 -50
	50 2749.66 50
	50 2749.66 150
	50 2749.66 250
	50 2749.66 350
	150 2749.66 -350
	150 2749.66 -250
	150 2749.66 -150
	150 2749.66 -50
	150 2749.66 50
	150 2749.66 150
	150 2749.66 250
	150 2749.66 350
	250 2749.66 -350
	250 2749.66 -250
	250 2749.66 -150
	250 2749.66 -50
	250 2749.66 50
	250 2749.66 150
	250 2749.66 250
	250 2749.66 350
	350 2749.66 -350
	350 2749.66 -250
	350 2749.66 -150
	350 2749.66 -50
	350 2749.66 50
	350 2749.66 150
	350 2749.66 250
	350 2749.66 350
	-350 2849.66 -350
	-350 2849.66 -250
	-350 2849.66 -150
	-350 2849.66 -50
	-350 2849.66 50
	-350 2849.66 150
	-350 2849.66 250
	-350 2849.66 350
	-250 2849.66 -350
	-250 2849.66 -250
	-250 2849.66 -150
	-250 2849.66 -50
	-250 2849.66 50
	-250 2849.66 150
	-250 2849.66 250
	-250 2849.66 350
	-150 2849.66 -350
	-150 2849.66 -250
	-150 2849.66 -150
	-150 2849.66 -50
	-150 2849.66 50
	-150 2849.66 150
	-150 2849.66 250
	-150 2849.66 350
	-50 2849.66 -350
	-50 2849.66 -250
	-50 2849.66 -150
	-50 2849.66 -50
	-50 2849.66 50
	-50 2849.66 150
	-50 2849.66 250
	-50 2849.66 350
	50 2849.66 -350
	50 2849.66 -250
	50 2849.66 -150
	50 2849.66 -50
	50 2849.66 50
	50 2849.66 150
	50 2849.66 250
	50 2849.66 350
	150 2849.66 -350
	150 2849.66 -250
	150 2849.66 -150
[...]
<PointData  Vectors="vector">
  <DataArray type="Float32" Name="Velocity" NumberOfComponents="3" format="ascii">
 -5.40086e-11 0.000719398 -8.59003e-11
 -1.53982e-10 0.000719399 3.72202e-11
 -4.28215e-11 0.000719399 -2.50936e-11
 -5.62548e-11 0.0007194 7.19315e-11
 -4.0368e-11 0.000719398 -9.12374e-11
 -1.43428e-10 0.0007194 -8.59873e-11
 -5.07533e-11 0.000719402 1.12843e-10
 -7.40139e-11 0.000719404 -5.33464e-11
 -5.5473e-12 0.000719398 7.36129e-13
 4.48326e-11 0.000719399 7.58757e-11
 2.40954e-11 0.0007194 -1.22343e-10
 7.00727e-11 0.000719401 -1.02229e-10
 8.02703e-11 0.000719399 -8.67594e-11
 1.32434e-11 0.000719401 -8.43615e-11
 6.10454e-11 0.000719402 2.27869e-12
 -2.60472e-12 0.000719403 1.51899e-10
 -2.6859e-11 0.000719398 -7.12818e-11
 -2.64514e-11 0.000719399 8.42519e-11
 9.68843e-11 0.0007194 -6.90921e-11
 -2.28262e-11 0.000719402 -1.59806e-10
 1.77613e-11 0.000719401 -3.95472e-11
 -6.92346e-11 0.000719401 -2.35457e-11
 -1.49596e-11 0.000719402 1.082e-10
 -4.35091e-11 0.000719402 -3.94064e-11
 2.1215e-11 0.000719398 6.57503e-11
 1.02632e-10 0.0007194 -7.63797e-11
 -3.00647e-11 0.000719401 -1.15152e-10
 -1.0016e-11 0.000719403 -5.78733e-11
 -6.66405e-11 0.000719402 -1.15202e-10
 8.04619e-11 0.000719402 -1.99348e-11
 -9.9384e-11 0.000719401 1.06636e-10
 -1.21264e-10 0.000719401 -4.33981e-11
 2.89922e-11 0.000719398 -4.59803e-11
 -1.62356e-11 0.000719399 6.00159e-11
 -9.70267e-12 0.0007194 -4.81897e-12
 2.94328e-11 0.000719402 -1.78292e-10
 -9.68785e-11 0.000719403 -3.99022e-11
 1.3726e-11 0.000719403 -1.88305e-11
 2.479e-12 0.000719402 -4.5429e-11
 -8.93305e-11 0.000719402 -1.90535e-11
 3.46264e-11 0.000719399 -7.10029e-11
 4.48109e-11 0.000719399 -3.87135e-11
 -9.04753e-11 0.0007194 -9.39005e-11
 4.82528e-11 0.000719401 -8.78255e-11
 4.31462e-11 0.000719402 -2.38249e-10
 -9.65075e-11 0.000719402 -1.96054e-12
 -1.2553e-10 0.000719401 -8.64737e-12
 -8.74317e-11 0.000719401 1.54665e-10
 1.01177e-10 0.0007194 5.5368e-11
 -2.90737e-11 0.0007194 -7.80943e-11
 2.67337e-13 0.0007194 -5.81731e-11
 -6.98462e-11 0.0007194 -1.43291e-10
 -7.45895e-11 0.000719401 -1.29545e-10
 1.13877e-10 0.0007194 -1.21096e-10
 -6.37604e-12 0.0007194 1.5341e-11
 2.95231e-11 0.0007194 -1.94811e-11
 -1.56177e-11 0.000719401 1.21571e-12
 8.10009e-11 0.000719401 -6.02416e-12
 6.29406e-11 0.0007194 -1.90972e-10
 -1.41275e-11 0.000719399 -7.56807e-11
 7.394e-11 0.0007194 -1.45629e-10
 -9.13656e-11 0.000719399 -1.68846e-10
 -6.15991e-11 0.000719399 -2.29661e-11
 -2.23232e-11 0.000719398 3.65562e-11
 8.29212e-11 -0.00123358 8.5683e-11
 1.73988e-11 -0.00123358 -2.11002e-11
 -9.81513e-11 -0.00123358 -4.0898e-11
 -7.51413e-11 -0.00123358 -2.55447e-11
 -4.27608e-11 -0.00123358 1.83246e-11
 -9.75157e-11 -0.00123358 -7.06539e-11
 -7.03993e-11 -0.00123359 -3.76129e-11
 -9.84921e-12 -0.00123359 -2.66951e-12
 -5.80277e-11 -0.00123358 -3.05104e-12
 1.12014e-11 -0.00123358 5.99463e-11
 -1.71398e-11 -0.00123358 -2.97023e-11
 3.96964e-11 -0.00123359 -1.22074e-10
 5.46888e-11 -0.00123358 -6.50607e-12
 -5.95612e-11 -0.00123358 -3.29024e-11
 -2.00601e-11 -0.00123358 2.58379e-11
 2.82044e-11 -0.00123359 -9.86841e-12
 3.02321e-11 -0.00123358 -9.68367e-11
 1.1141e-11 -0.00123358 1.22374e-11
 -1.67189e-11 -0.00123359 -5.37881e-11
 -1.51537e-11 -0.00123359 1.82741e-11
 -2.70342e-11 -0.00123359 2.6856e-11
 -4.22479e-11 -0.00123358 -4.99048e-11
 -1.02905e-11 -0.00123359 5.47462e-11
 -1.68289e-10 -0.00123358 -5.36851e-11
 -2.23635e-11 -0.00123358 -2.00242e-11
 -1.33862e-10 -0.00123358 -3.26032e-13
 2.71491e-11 -0.00123359 -4.10533e-11
 1.08495e-11 -0.00123359 -4.10025e-11
 -5.70615e-11 -0.00123359 -1.06703e-10
 -1.96167e-11 -0.00123359 -2.51315e-11
 -2.46587e-10 -0.00123359 1.2167e-10
 -1.22231e-10 -0.00123358 -5.32979e-11
 -2.07965e-11 -0.00123358 -4.74e-12
 -3.60436e-11 -0.00123358 1.85693e-12
 -1.3056e-10 -0.00123358 -5.95581e-11
 -9.06879e-11 -0.00123359 -3.2913e-11
 4.20016e-12 -0.00123358 -4.4339e-11
 -1.13128e-10 -0.00123359 -3.63352e-11
 -5.25687e-11 -0.00123359 2.856e-11
 -1.42894e-10 -0.00123358 -7.37869e-12
 3.44143e-12 -0.00123358 -6.64314e-11
 -5.3775e-11 -0.00123358 7.72927e-12
 9.52612e-11 -0.00123358 -2.83254e-11
 -5.26305e-11 -0.00123359 -7.1169e-11
 3.54092e-11 -0.00123359 -1.02485e-11
 -1.56223e-11 -0.00123358 5.51873e-12
 -7.73051e-11 -0.00123359 -3.71215e-11
 -7.08185e-11 -0.00123359 -9.16279e-12
 -1.40065e-12 -0.00123359 -4.64483e-11
 -3.48587e-11 -0.00123358 -3.04583e-11
 6.909e-11 -0.00123358 -1.15484e-10
 -2.12618e-11 -0.00123358 -7.43292e-11
 -4.4637e-11 -0.00123359 -3.88126e-11
 -1.73577e-11 -0.00123359 -2.73486e-11
 3.1344e-11 -0.00123359 6.54106e-11
 4.86118e-11 -0.00123358 3.8541e-12
 -7.10305e-11 -0.00123359 -6.61366e-11
 1.40795e-10 -0.00123359 8.17794e-12
 -2.78552e-11 -0.00123358 -1.31013e-10
 8.45492e-11 -0.00123358 -6.00166e-11
 -3.43711e-11 -0.00123358 -9.44644e-11
 1.93416e-10 -0.00123359 -6.16431e-11
 2.14049e-10 -0.00123358 4.444e-11
 1.45377e-10 -0.00123358 4.27347e-11
 -2.48521e-11 -0.00161909 -4.99044e-12
 -8.80232e-11 -0.00161908 -1.93003e-11
 -9.55097e-11 -0.00161908 -1.49353e-11
 -4.03376e-11 -0.00161907 -5.71535e-11
 -6.39913e-11 -0.00161909 1.38964e-11
 6.1073e-12 -0.00161908 5.95307e-11
 5.64394e-11 -0.00161908 -3.47501e-11
 4.33505e-11 -0.00161907 -1.36906e-11
 5.77278e-11 -0.00161908 7.12356e-12
 7.46451e-12 -0.00161908 4.38677e-11
 1.65002e-11 -0.00161908 -2.62048e-11
 3.53956e-11 -0.00161907 -3.95262e-11
 6.24538e-11 -0.00161908 -2.31848e-11
 3.77109e-11 -0.00161907 1.80088e-11
 -5.1716e-11 -0.00161907 -4.9997e-11
 -3.33964e-11 -0.00161907 -5.51667e-12
 -2.41182e-11 -0.00161908 -2.5818e-11
 2.85463e-11 -0.00161908 -9.61789e-12
 -3.81263e-11 -0.00161907 2.95068e-11
 -4.14727e-11 -0.00161907 1.46992e-12
 -3.70088e-11 -0.00161907 -7.28011e-11
 7.57966e-12 -0.00161907 6.67211e-11
 -2.01296e-11 -0.00161908 -1.76885e-11
 9.2669e-12 -0.00161908 -5.14623e-11
 -8.71615e-11 -0.00161907 8.02367e-11
 -1.97857e-11 -0.00161907 -5.0618e-11
 -9.90543e-11 -0.00161907 -2.55049e-12
 -7.09329e-11 -0.00161906 -4.11903e-11
 -2.83863e-11 -0.00161906 4.30982e-11
 -1.10331e-10 -0.00161907 -4.40552e-11
 -2.22437e-11 -0.00161907 -4.6315e-11
 -9.7801e-12 -0.00161908 -2.24652e-11
 -5.166e-11 -0.00161909 -2.64706e-11
 -1.45343e-11 -0.00161908 4.00711e-11
 -4.40614e-11 -0.00161907 2.57907e-11
 -2.00269e-11 -0.00161906 2.00221e-11
 -2.27673e-11 -0.00161907 -4.90652e-11
 -6.23323e-11 -0.00161907 1.51698e-11
 -9.96598e-11 -0.00161907 -1.9756e-11
 -1.20964e-10 -0.00161907 -3.52243e-11
 -1.11606e-10 -0.00161908 -6.43214e-11
 -8.5514e-11 -0.00161907 2.12987e-11
 -1.09655e-11 -0.00161907 5.03045e-11
 -7.95151e-11 -0.00161907 1.83676e-11
 -1.30555e-11 -0.00161907 -4.20999e-11
 -8.78273e-12 -0.00161907 8.21707e-12
 2.4066e-11 -0.00161907 -2.3952e-11
 -2.43754e-11 -0.00161908 -1.61035e-11
 1.04921e-10 -0.00161908 1.12371e-10
 1.00619e-11 -0.00161907 -7.62544e-11
 1.28229e-10 -0.00161907 1.79105e-11
 5.51857e-11 -0.00161907 -1.88678e-11
 7.17643e-12 -0.00161907 -8.5432e-11
 1.57556e-11 -0.00161907 4.84386e-12
 -1.45227e-11 -0.00161908 7.89512e-13
 -1.67792e-11 -0.00161908 -2.24194e-11
 -4.88075e-11 -0.00161907 1.09699e-10
 -3.04085e-11 -0.00161907 4.19964e-11
 -5.60502e-11 -0.00161907 -5.24241e-11
 -4.41664e-11 -0.00161908 8.58563e-13
 -5.998e-11 -0.00161907 -1.03902e-10
 -5.05548e-11 -0.00161907 -8.89554e-11
 -4.62039e-11 -0.00161908 1.70234e-11
 -3.06082e-11 -0.00161908 -1.02237e-11
 -7.2077e-11 3.42404e-05 -1.64052e-10
 -3.92794e-11 3.42428e-05 6.32594e-11
 3.92715e-11 3.42387e-05 -3.38584e-12
 -4.11171e-11 3.424e-05 -4.01759e-11
 -2.39726e-11 3.42447e-05 -5.0408e-13
 -1.18041e-11 3.42422e-05 8.57834e-11
 -3.34744e-11 3.42367e-05 -1.78878e-11
 -3.88959e-11 3.42342e-05 2.71286e-11
 -3.52668e-11 3.42436e-05 6.85862e-11
 1.87716e-11 3.42395e-05 -9.17277e-11
 -3.91377e-11 3.42386e-05 5.46995e-11
 -8.2822e-12 3.42366e-05 -1.01695e-11
 7.27134e-12 3.42404e-05 -8.78849e-11
 5.9637e-12 3.42404e-05 -3.71757e-11
 -6.54882e-12 3.42402e-05 -4.0683e-11
 3.1787e-12 3.42373e-05 1.08307e-10
 -8.78943e-12 3.42402e-05 6.88348e-11
 -5.63824e-11 3.42394e-05 -5.91451e-11
 -6.27604e-11 3.4236e-05 9.24804e-12
 3.64148e-11 3.42339e-05 1.11584e-11
 -2.38419e-11 3.42355e-05 -2.03835e-11
 -1.5517e-11 3.42369e-05 -3.78989e-11
 -3.71686e-11 3.42382e-05 2.01586e-11
 -7.10957e-12 3.42389e-05 -1.39646e-11
 -6.60046e-11 3.42425e-05 1.34461e-11
 -1.29173e-10 3.42382e-05 3.2151e-11
 -9.41922e-11 3.42345e-05 -2.31554e-11
 -1.07251e-10 3.42302e-05 -4.18062e-11
 -1.15777e-10 3.42314e-05 -1.08609e-12
 -4.1093e-11 3.42341e-05 -6.80432e-11
 2.93838e-11 3.42367e-05 -1.39072e-12
 -2.64585e-11 3.42387e-05 8.16233e-11
 -2.25606e-11 3.42456e-05 4.00622e-11
 -1.14764e-10 3.42404e-05 -3.75272e-11
 -1.19863e-10 3.42345e-05 2.67436e-11
 -5.5416e-11 3.42297e-05 -1.77487e-11
 -1.0812e-10 3.42355e-05 -6.0045e-12
 -6.9925e-11 3.42346e-05 3.65739e-11
 -4.55151e-12 3.42343e-05 -2.19675e-11
 -4.73561e-11 3.42359e-05 6.59046e-11
 2.01767e-11 3.42428e-05 4.14141e-11
 -3.86442e-11 3.42405e-05 -7.93568e-11
 -3.00024e-11 3.42364e-05 -2.45677e-11
 -9.69535e-11 3.42329e-05 1.32547e-11
 -5.3216e-11 3.42352e-05 1.01703e-10
 5.64476e-12 3.42376e-05 -5.75955e-11
 -3.32479e-11 3.42365e-05 -7.41948e-12
 1.76261e-11 3.42372e-05 1.1207e-10
 -8.41756e-11 3.42369e-05 3.56782e-11
 -5.71274e-12 3.42403e-05 -8.87754e-11
 -9.28815e-11 3.42379e-05 5.15079e-11
 -1.62873e-11 3.42364e-05 5.78916e-11
 4.01563e-11 3.42354e-05 -3.00527e-11
 4.98267e-11 3.4237e-05 8.73435e-13
 4.22272e-11 3.42367e-05 -1.91472e-11
 6.1368e-11 3.4242e-05 1.05147e-10
 -3.48193e-11 3.42342e-05 4.71147e-12
 6.78001e-11 3.42375e-05 -7.21445e-11
 1.08421e-10 3.42387e-05 9.41366e-11
 3.73074e-12 3.42388e-05 2.12961e-11
 8.13152e-11 3.42374e-05 6.16903e-11
 -8.21099e-11 3.42382e-05 -1.70897e-11
 -7.83853e-11 3.42425e-05 -3.4951e-11
 -4.68401e-11 3.42415e-05 6.89346e-11
 1.08386e-11 -2.56592e-05 -1.33099e-10
 -4.63235e-11 -2.56795e-05 8.64164e-11
 1.4859e-11 -2.56761e-05 -2.39246e-11
 1.01341e-11 -2.56932e-05 9.01584e-11
 1.73321e-11 -2.56881e-05 7.26584e-11
 -3.02641e-11 -2.56855e-05 -1.44649e-11
 -3.57635e-11 -2.56703e-05 1.306e-11
 -2.69599e-11 -2.56661e-05 4.23482e-11
 -1.83441e-13 -2.56811e-05 5.96617e-11
 -4.48077e-11 -2.56745e-05 -1.21009e-10
 -4.60948e-12 -2.56807e-05 3.74466e-11
 1.85344e-12 -2.56835e-05 -1.94267e-12
 -2.44922e-11 -2.5683e-05 6.21322e-11
 1.6767e-11 -2.5686e-05 9.97084e-12
 -2.54254e-11 -2.56847e-05 1.04109e-10
 3.99246e-11 -2.56744e-05 -8.39056e-12
 2.76153e-11 -2.56787e-05 -1.60412e-11
 2.36582e-11 -2.56823e-05 5.02478e-11
 1.14238e-12 -2.56802e-05 1.12782e-10
 2.35582e-11 -2.56805e-05 4.53742e-11
 5.19915e-11 -2.56808e-05 4.19624e-11
 1.6871e-11 -2.56794e-05 -4.19905e-11
 8.03349e-11 -2.56795e-05 -1.23648e-11
 2.18894e-11 -2.56801e-05 -2.94251e-11
 -1.19397e-10 -2.56971e-05 3.12735e-11
 1.98245e-11 -2.56862e-05 -1.1801e-10
 9.7359e-12 -2.56813e-05 -6.26548e-12
 -2.38352e-11 -2.56748e-05 -1.30948e-13
 -3.76419e-11 -2.568e-05 8.81359e-11
 2.9805e-11 -2.56792e-05 9.81414e-11
 2.16454e-11 -2.56836e-05 -1.08643e-11
 4.84821e-12 -2.56832e-05 7.71947e-11
 1.69964e-11 -2.56915e-05 3.4129e-11
 -3.71882e-11 -2.56857e-05 -8.92166e-11
 2.82926e-11 -2.5682e-05 8.2691e-11
 -1.8754e-11 -2.56803e-05 1.90414e-11
 -4.92652e-12 -2.56831e-05 9.37292e-11
 7.3444e-11 -2.56811e-05 -9.28711e-12
 -2.557e-12 -2.56805e-05 -3.43103e-11
 3.79023e-11 -2.56861e-05 3.82709e-11
 5.46587e-11 -2.56894e-05 4.7648e-11
 -2.72066e-11 -2.56894e-05 4.83101e-11
 -7.26569e-12 -2.56826e-05 4.77762e-11
 -5.36217e-11 -2.56814e-05 -5.24477e-12
 -5.40357e-11 -2.56833e-05 3.80382e-11
 1.94545e-11 -2.56886e-05 8.41783e-12
 1.65196e-11 -2.56806e-05 4.87592e-11
 -2.63394e-11 -2.56807e-05 -7.97154e-11
 7.13712e-11 -2.56754e-05 -9.56685e-11
 1.44352e-10 -2.5689e-05 6.04272e-11
 -1.83836e-11 -2.56849e-05 1.5593e-11
 4.29928e-11 -2.56881e-05 1.07083e-12
 -1.14379e-11 -2.56848e-05 1.1309e-10
 -4.97947e-11 -2.56832e-05 2.40369e-11
 -5.20967e-11 -2.56781e-05 -4.39436e-11
 1.18704e-10 -2.56872e-05 9.77907e-11
 -4.86568e-11 -2.56721e-05 1.15765e-11
 -9.38656e-12 -2.56802e-05 -4.76343e-11
 8.79002e-12 -2.56857e-05 2.52187e-11
 6.02044e-11 -2.56899e-05 4.08708e-11
 6.93502e-11 -2.56927e-05 1.66614e-10
 -3.30284e-11 -2.56855e-05 -1.80202e-11
 7.72873e-11 -2.56896e-05 -3.18649e-11
 -5.29648e-11 -2.56783e-05 4.46948e-11
 5.74629e-12 -0.00332923 7.63339e-11
 9.51735e-12 -0.00332922 -1.14284e-10
 -1.56464e-11 -0.00332922 9.42549e-12
 -3.4182e-12 -0.00332922 4.16624e-11
 -2.99062e-11 -0.0033292 1.19804e-11
 2.24552e-11 -0.00332922 -7.05494e-11
 -3.91683e-11 -0.00332924 -4.34156e-12
 -4.16355e-11 -0.00332926 2.5416e-11
 -9.5628e-12 -0.00332922 2.50914e-11
 2.69519e-11 -0.00332923 1.0562e-10
 2.27023e-11 -0.00332923 -7.92152e-11
 6.10574e-12 -0.00332923 -3.86545e-11
 -1.37702e-11 -0.00332922 -3.08958e-11
 -2.4259e-11 -0.00332922 -1.2051e-11
 3.80888e-11 -0.00332923 -4.42399e-11
 5.32784e-11 -0.00332925 7.46859e-11
 1.05467e-11 -0.00332922 -6.78581e-12
 -2.80165e-11 -0.00332923 6.28415e-11
 -2.81824e-11 -0.00332924 1.76901e-11
 -3.48959e-11 -0.00332924 -7.15666e-11
 -2.4841e-11 -0.00332923 -1.60567e-11
 -1.83665e-11 -0.00332923 6.37736e-11
 1.81202e-11 -0.00332924 -4.14282e-11
 -2.06401e-11 -0.00332924 1.66447e-11
 -6.45954e-11 -0.00332922 3.84172e-11
 -2.43457e-11 -0.00332923 2.14338e-11
 -1.81377e-11 -0.00332924 2.58807e-12
 -4.67139e-11 -0.00332925 1.40419e-11
 -7.77466e-11 -0.00332924 -8.49305e-12
 -1.08213e-11 -0.00332924 2.19969e-11
 -2.32466e-11 -0.00332923 -4.68234e-11
 1.95545e-11 -0.00332923 6.73534e-12
 -3.85929e-11 -0.0033292 -1.01514e-10
 -4.88858e-11 -0.00332922 2.29174e-11
 -6.85866e-11 -0.00332923 -2.97652e-11
 -2.96675e-11 -0.00332924 8.49697e-11
 -2.37922e-11 -0.00332923 -3.43154e-11
 -1.50715e-11 -0.00332923 -1.10089e-11
 2.09374e-11 -0.00332923 -1.89323e-11
 -7.96245e-12 -0.00332923 8.05992e-11
 -2.17055e-11 -0.00332921 6.43094e-11
 -1.80922e-11 -0.00332922 -4.35072e-11
 3.59843e-11 -0.00332923 -1.31175e-11
 -2.10082e-11 -0.00332924 -3.52455e-11
 -1.37739e-11 -0.00332923 -1.45333e-11
 -4.55397e-11 -0.00332923 2.38478e-11
 -4.48503e-11 -0.00332924 -4.78976e-12
 -2.85576e-11 -0.00332924 5.59624e-11
 -9.69998e-12 -0.00332923 3.84399e-11
 -1.34363e-12 -0.00332923 -8.5201e-11
 1.55659e-11 -0.00332923 2.1388e-11
 -3.44861e-12 -0.00332923 8.097e-11
 6.6272e-11 -0.00332923 -3.32515e-12
 -3.46721e-11 -0.00332923 -2.89633e-11
 -4.27582e-12 -0.00332923 -2.13551e-12
 6.98458e-11 -0.00332923 5.22341e-11
 -2.15954e-11 -0.00332925 3.00661e-11
 -4.04715e-11 -0.00332924 -9.32014e-11
 -4.36442e-11 -0.00332923 4.92909e-11
 5.78198e-11 -0.00332923 2.60326e-11
 -2.16845e-11 -0.00332923 1.1384e-10
 3.7054e-11 -0.00332923 1.21155e-11
 -4.42794e-12 -0.00332923 -3.56007e-11
 -3.26858e-11 -0.00332924 1.07325e-11
 3.9789e-11 0.000571638 -4.58924e-11
 -1.30181e-11 0.000571639 -4.34612e-11
 1.77448e-11 0.000571638 2.13744e-11
 3.35469e-11 0.00057164 2.09642e-11
 5.34768e-12 0.000571641 -8.62052e-12
 -4.61442e-12 0.000571638 -8.36055e-11
 6.47099e-12 0.000571636 -3.45024e-11
 3.06185e-11 0.000571634 2.02823e-11
 -1.96978e-11 0.000571639 -7.72976e-11
 2.43563e-11 0.000571638 -2.28498e-11
 -1.69013e-11 0.000571639 -9.29638e-11
 2.04508e-11 0.000571638 1.58783e-11
 -1.32919e-11 0.000571639 7.71585e-11
 8.10771e-12 0.000571637 -4.9828e-11
 3.09561e-11 0.000571637 -1.61432e-11
 -1.08734e-11 0.000571635 5.04663e-11
 -9.34091e-11 0.000571639 3.71378e-11
 -4.89681e-11 0.000571639 -3.20726e-11
 -2.81074e-11 0.000571637 -4.34837e-12
 -2.44503e-11 0.000571636 -9.67199e-11
 -1.0933e-10 0.000571636 -3.10433e-12
 -4.47764e-11 0.000571636 -4.48499e-11
 -1.98744e-11 0.000571636 -3.25615e-11
 4.76069e-12 0.000571635 9.90306e-11
 -1.02096e-10 0.000571641 6.86302e-11
 -7.8601e-11 0.000571639 1.34826e-11
 -8.64368e-11 0.000571636 2.03133e-11
 -7.45986e-11 0.000571633 -7.26517e-11
 -7.13564e-11 0.000571633 -5.06988e-11
 -6.80598e-11 0.000571635 -1.7884e-11
 -2.76862e-11 0.000571635 -2.96983e-11
 -4.47572e-11 0.000571636 2.87386e-11
 -4.1609e-11 0.000571643 3.84945e-11
 -5.32045e-11 0.00057164 -1.01818e-10
 -3.9816e-11 0.000571638 -5.47198e-12
 -8.31416e-11 0.000571635 8.5181e-12
 -1.33429e-11 0.000571637 -7.28766e-11
 -3.66124e-11 0.000571636 -3.8064e-11
 -1.08074e-10 0.000571635 2.63971e-12
 -4.44789e-11 0.000571634 4.5577e-11
 -8.20087e-11 0.00057164 5.69035e-11
 -9.17364e-11 0.000571639 1.36997e-11
 -7.05828e-11 0.000571638 -5.17166e-11
 -3.21402e-11 0.000571636 -6.6904e-11
 -5.72545e-11 0.000571636 -3.37082e-11
 -1.15774e-11 0.000571636 -1.65304e-11
 1.92318e-11 0.000571636 -2.18787e-12
 -5.69261e-12 0.000571636 3.5046e-11
 -3.76829e-11 0.000571638 6.47768e-11
 4.66848e-11 0.000571638 -1.70679e-11
 1.21484e-11 0.000571638 -4.55126e-11
 -4.20762e-11 0.000571637 6.06937e-11
 -5.37181e-11 0.000571636 1.74214e-11
 -3.75611e-13 0.000571637 -6.88504e-11
 -1.66674e-11 0.000571637 -2.00896e-11
 7.00881e-12 0.000571637 8.45139e-13
 5.50198e-11 0.000571636 5.99717e-11
 -3.03248e-11 0.000571636 -5.49748e-11
 4.32476e-12 0.000571637 -1.79032e-11
 3.16682e-11 0.000571637 8.33108e-11
 5.56624e-11 0.000571635 -3.04782e-11
 -3.8321e-11 0.000571637 -3.52007e-12
 -1.94891e-11 0.000571638 -4.46147e-12
 -1.05518e-11 0.000571638 1.79096e-11
 -3.47373e-11 -0.00127126 -3.75642e-11
 -3.5495e-11 -0.00127126 9.59044e-11
 3.05127e-12 -0.00127125 -7.66701e-11
 4.28288e-12 -0.00127124 -1.15467e-10
 2.54478e-12 -0.00127126 -1.39781e-10
 -3.22131e-11 -0.00127125 -4.72212e-11
 4.00144e-11 -0.00127124 6.94095e-12
 -2.83839e-11 -0.00127123 5.27522e-11
 -2.14432e-12 -0.00127126 2.18238e-12
 -4.60653e-12 -0.00127125 8.8675e-11
 -1.81882e-11 -0.00127124 -1.56662e-10
 -6.14727e-11 -0.00127124 -8.6877e-12
 -2.01205e-11 -0.00127125 -5.8191e-11
 -4.4512e-11 -0.00127125 -7.47995e-11
 -2.31924e-11 -0.00127124 -5.23283e-11
 -8.30323e-12 -0.00127123 4.76445e-11
 -4.9162e-11 -0.00127125 -1.3975e-10
 -9.66735e-11 -0.00127124 -6.09762e-12
 -1.19718e-10 -0.00127124 5.85773e-12
 1.04565e-11 -0.00127123 -2.85043e-12
 -1.54393e-10 -0.00127125 -1.63548e-12
 -1.33597e-11 -0.00127124 -6.12528e-11
 -2.64155e-11 -0.00127123 -3.16657e-11
 -6.19241e-11 -0.00127123 7.38275e-11
 -1.44339e-10 -0.00127124 5.28262e-11
 -6.82302e-11 -0.00127124 2.52745e-11
 -1.48723e-10 -0.00127123 -6.87884e-11
 -1.06327e-10 -0.00127122 -5.45389e-11
 -2.94507e-11 -0.00127124 -4.39098e-11
 -4.19746e-11 -0.00127123 -3.52306e-11
 -1.03429e-10 -0.00127123 -3.95968e-11
 -1.00188e-10 -0.00127122 4.92183e-11
 -7.96499e-11 -0.00127125 2.3771e-11
 -8.99647e-11 -0.00127125 1.49844e-11
 -2.68695e-11 -0.00127125 -1.2012e-10
 -8.52467e-11 -0.00127125 -3.15774e-11
 -1.15687e-10 -0.00127125 -5.60532e-11
 -5.131e-11 -0.00127124 -4.62737e-11
 -4.66848e-11 -0.00127123 -4.36446e-11
 -3.96834e-11 -0.00127123 3.89824e-11
 -7.96024e-11 -0.00127125 -7.41297e-11
 -7.52954e-11 -0.00127125 -5.87319e-11
 -6.55459e-11 -0.00127124 -1.00778e-11
 -5.95347e-11 -0.00127123 1.87249e-11
 -6.43187e-11 -0.00127124 -3.88385e-11
 -9.38218e-11 -0.00127124 -2.11293e-11
 -3.55655e-11 -0.00127123 5.62409e-12
 -2.82704e-11 -0.00127123 3.08068e-11
 -3.20871e-11 -0.00127124 3.09324e-11
 -3.89162e-11 -0.00127124 3.66562e-11
 -4.10743e-11 -0.00127123 -5.06743e-11
 5.68191e-11 -0.00127123 1.04403e-12
 -6.26327e-11 -0.00127123 9.25265e-12
 -1.63486e-11 -0.00127123 -3.41066e-11
 -1.36119e-11 -0.00127123 -2.05655e-11
 1.82071e-11 -0.00127124 -4.82911e-11
 2.93064e-11 -0.00127123 -7.23212e-11
 6.4237e-11 -0.00127123 1.29997e-11
 1.19202e-10 -0.00127123 1.98987e-11
 -9.67499e-12 -0.00127122 -1.59596e-11
 8.79866e-11 -0.00127123 -1.5508e-11
 7.67694e-12 -0.00127123 -4.34167e-12
 -6.95573e-12 -0.00127124 2.67539e-11
 1.02876e-10 -0.00127124 4.50118e-11
 -1.10042e-11 -0.00298949 1.91909e-11
 3.35264e-11 -0.0029895 -3.66442e-11
 5.38472e-11 -0.00298951 -1.11345e-10
 2.30525e-11 -0.00298951 -1.96328e-11
 -4.18886e-11 -0.00298948 -1.37873e-10
 -1.10605e-11 -0.00298951 -3.52283e-11
 6.30576e-12 -0.00298953 -7.87631e-12
 1.87542e-11 -0.00298956 5.56668e-11
 -1.1972e-11 -0.0029895 4.66361e-11
 -2.07497e-11 -0.00298951 -4.88752e-11
 -2.18132e-11 -0.00298952 -4.11343e-11