<?xml version="1.0"?>
<VTKFile type="UnstructuredGrid" version="0.1" byte_order="LittleEndian" compressor="vtkZLibDataCompressor">
<UnstructuredGrid>
<Piece NumberOfPoints="960" NumberOfCells="120">
<Points>
<DataArray type="Float32" NumberOfComponents="3" format="ascii">
-4.000000e+02 -6.000000e+03 -4.000000e+02
0.000000e+00 -6.000000e+03 -4.000000e+02
-4.000000e+02 -5.600020e+03 -4.000000e+02
1.127480e-09 -5.600020e+03 -4.000000e+02
-4.000000e+02 -6.000000e+03 0.000000e+00
0.000000e+00 -6.000000e+03 0.000000e+00
-4.000000e+02 -5.600020e+03 -2.014850e-10
7.545200e-10 -5.600020e+03 -1.754370e-11
0.000000e+00 -6.000000e+03 -4.000000e+02
4.000000e+02 -6.000000e+03 -4.000000e+02
1.127480e-09 -5.600020e+03 -4.000000e+02
4.000000e+02 -5.600020e+03 -4.000000e+02
0.000000e+00 -6.000000e+03 0.000000e+00
4.000000e+02 -6.000000e+03 0.000000e+00
7.545200e-10 -5.600020e+03 -1.754370e-11
4.000000e+02 -5.600020e+03 -7.268420e-10
-4.000000e+02 -5.600020e+03 -4.000000e+02
1.127480e-09 -5.600020e+03 -4.000000e+02
-4.000000e+02 -5.200040e+03 -4.000000e+02
2.126060e-10 -5.200040e+03 -4.000000e+02
-4.000000e+02 -5.600020e+03 -2.014850e-10
7.545200e-10 -5.600020e+03 -1.754370e-11
-4.000000e+02 -5.200040e+03 1.496150e-09
3.892370e-10 -5.200040e+03 1.054900e-09
1.127480e-09 -5.600020e+03 -4.000000e+02
4.000000e+02 -5.600020e+03 -4.000000e+02
2.126060e-10 -5.200040e+03 -4.000000e+02
4.000000e+02 -5.200040e+03 -4.000000e+02
7.545200e-10 -5.600020e+03 -1.754370e-11
4.000000e+02 -5.600020e+03 -7.268420e-10
3.892370e-10 -5.200040e+03 1.054900e-09
4.000000e+02 -5.200040e+03 1.727160e-09
-4.000000e+02 -5.200040e+03 -4.000000e+02
2.126060e-10 -5.200040e+03 -4.000000e+02
-4.000000e+02 -4.800080e+03 -4.000000e+02
2.077780e-10 -4.800080e+03 -4.000000e+02
-4.000000e+02 -5.200040e+03 1.496150e-09
3.892370e-10 -5.200040e+03 1.054900e-09
-4.000000e+02 -4.800080e+03 1.480200e-09
-1.191760e-09 -4.800080e+03 1.035440e-09
2.126060e-10 -5.200040e+03 -4.000000e+02
4.000000e+02 -5.200040e+03 -4.000000e+02
2.077780e-10 -4.800080e+03 -4.000000e+02
4.000000e+02 -4.800080e+03 -4.000000e+02
3.892370e-10 -5.200040e+03 1.054900e-09
4.000000e+02 -5.200040e+03 1.727160e-09
-1.191760e-09 -4.800080e+03 1.035440e-09
4.000000e+02 -4.800080e+03 5.474600e-10
-4.000000e+02 -4.800080e+03 -4.000000e+02
2.077780e-10 -4.800080e+03 -4.000000e+02
-4.000000e+02 -4.400140e+03 -4.000000e+02
-5.452270e-10 -4.400140e+03 -4.000000e+02
-4.000000e+02 -4.800080e+03 1.480200e-09
-1.191760e-09 -4.800080e+03 1.035440e-09
-4.000000e+02 -4.400140e+03 8.280520e-10
-3.277230e-10 -4.400140e+03 9.833970e-10
2.077780e-10 -4.800080e+03 -4.000000e+02
4.000000e+02 -4.800080e+03 -4.000000e+02
-5.452270e-10 -4.400140e+03 -4.000000e+02
4.000000e+02 -4.400140e+03 -4.000000e+02
-1.191760e-09 -4.800080e+03 1.035440e-09
4.000000e+02 -4.800080e+03 5.474600e-10
-3.277230e-10 -4.400140e+03 9.833970e-10
4.000000e+02 -4.400140e+03 8.728160e-10
-4.000000e+02 -4.400140e+03 -4.000000e+02
-5.452270e-10 -4.400140e+03 -4.000000e+02
-4.000000e+02 -4.000210e+03 -4.000000e+02
5.151820e-10 -4.000210e+03 -4.000000e+02
-4.000000e+02 -4.400140e+03 8.280520e-10
-3.277230e-10 -4.400140e+03 9.833970e-10
-4.000000e+02 -4.000210e+03 1.104170e-09
-3.881680e-12 -4.000210e+03 1.018390e-09
-5.452270e-10 -4.400140e+03 -4.000000e+02
4.000000e+02 -4.400140e+03 -4.000000e+02
5.151820e-10 -4.000210e+03 -4.000000e+02
4.000000e+02 -4.000210e+03 -4.000000e+02
-3.277230e-10 -4.400140e+03 9.833970e-10
4.000000e+02 -4.400140e+03 8.728160e-10
-3.881680e-12 -4.000210e+03 1.018390e-09
4.000000e+02 -4.000210e+03 1.614730e-09
-4.000000e+02 -4.000210e+03 -4.000000e+02
5.151820e-10 -4.000210e+03 -4.000000e+02
-4.000000e+02 -3.600280e+03 -4.000000e+02
-9.919350e-11 -3.600280e+03 -4.000000e+02
-4.000000e+02 -4.000210e+03 1.104170e-09
-3.881680e-12 -4.000210e+03 1.018390e-09
-4.000000e+02 -3.600280e+03 1.380230e-10
-6.912920e-10 -3.600280e+03 -1.510890e-10
5.151820e-10 -4.000210e+03 -4.000000e+02
4.000000e+02 -4.000210e+03 -4.000000e+02
-9.919350e-11 -3.600280e+03 -4.000000e+02
4.000000e+02 -3.600280e+03 -4.000000e+02
-3.881680e-12 -4.000210e+03 1.018390e-09
4.000000e+02 -4.000210e+03 1.614730e-09
-6.912920e-10 -3.600280e+03 -1.510890e-10
4.000000e+02 -3.600280e+03 -2.196920e-10
-4.000000e+02 -3.600280e+03 -4.000000e+02
-9.919350e-11 -3.600280e+03 -4.000000e+02
-4.000000e+02 -3.200330e+03 -4.000000e+02
-1.138960e-09 -3.200330e+03 -4.000000e+02
-4.000000e+02 -3.600280e+03 1.380230e-10
-6.912920e-10 -3.600280e+03 -1.510890e-10
-4.000000e+02 -3.200330e+03 1.016810e-10
-8.965780e-10 -3.200330e+03 -8.757220e-10
-9.919350e-11 -3.600280e+03 -4.000000e+02
4.000000e+02 -3.600280e+03 -4.000000e+02
-1.138960e-09 -3.200330e+03 -4.000000e+02
4.000000e+02 -3.200330e+03 -4.000000e+02
-6.912920e-10 -3.600280e+03 -1.510890e-10
4.000000e+02 -3.600280e+03 -2.196920e-10
-8.965780e-10 -3.200330e+03 -8.757220e-10
4.000000e+02 -3.200330e+03 -1.239710e-09
-4.000000e+02 -3.200330e+03 -4.000000e+02
-1.138960e-09 -3.200330e+03 -4.000000e+02
-4.000000e+02 -2.800330e+03 -4.000000e+02
-1.401720e-09 -2.800330e+03 -4.000000e+02
-4.000000e+02 -3.200330e+03 1.016810e-10
-8.965780e-10 -3.200330e+03 -8.757220e-10
-4.000000e+02 -2.800330e+03 1.855390e-10
1.547690e-10 -2.800330e+03 -8.424210e-11
-1.138960e-09 -3.200330e+03 -4.000000e+02
4.000000e+02 -3.200330e+03 -4.000000e+02
-1.401720e-09 -2.800330e+03 -4.000000e+02
4.000000e+02 -2.800330e+03 -4.000000e+02
-8.965780e-10 -3.200330e+03 -8.757220e-10
4.000000e+02 -3.200330e+03 -1.239710e-09
1.547690e-10 -2.800330e+03 -8.424210e-11
4.000000e+02 -2.800330e+03 -8.384190e-10
-4.000000e+02 -2.800330e+03 -4.000000e+02
-1.401720e-09 -2.800330e+03 -4.000000e+02
-4.000000e+02 -2.400300e+03 -4.000000e+02
9.373230e-10 -2.400300e+03 -4.000000e+02
-4.000000e+02 -2.800330e+03 1.855390e-10
1.547690e-10 -2.800330e+03 -8.424210e-11
-4.000000e+02 -2.400300e+03 -2.993040e-10
1.428070e-09 -2.400300e+03 -2.873730e-10
-1.401720e-09 -2.800330e+03 -4.000000e+02
4.000000e+02 -2.800330e+03 -4.000000e+02
9.373230e-10 -2.400300e+03 -4.000000e+02
4.000000e+02 -2.400300e+03 -4.000000e+02
1.547690e-10 -2.800330e+03 -8.424210e-11
4.000000e+02 -2.800330e+03 -8.384190e-10
1.428070e-09 -2.400300e+03 -2.873730e-10
4.000000e+02 -2.400300e+03 -1.798110e-09
-4.000000e+02 -2.400300e+03 -4.000000e+02
9.373230e-10 -2.400300e+03 -4.000000e+02
-4.000000e+02 -2.000280e+03 -4.000000e+02
1.845940e-09 -2.000280e+03 -4.000000e+02
-4.000000e+02 -2.400300e+03 -2.993040e-10
1.428070e-09 -2.400300e+03 -2.873730e-10
-4.000000e+02 -2.000280e+03 -2.013750e-10
1.561780e-09 -2.000280e+03 -1.796810e-09
9.373230e-10 -2.400300e+03 -4.000000e+02
4.000000e+02 -2.400300e+03 -4.000000e+02
1.845940e-09 -2.000280e+03 -4.000000e+02
4.000000e+02 -2.000280e+03 -4.000000e+02
1.428070e-09 -2.400300e+03 -2.873730e-10
4.000000e+02 -2.400300e+03 -1.798110e-09
1.561780e-09 -2.000280e+03 -1.796810e-09
4.000000e+02 -2.000280e+03 -1.901070e-09
-4.000000e+02 -2.000280e+03 -4.000000e+02
1.845940e-09 -2.000280e+03 -4.000000e+02
-4.000000e+02 -1.600290e+03 -4.000000e+02
1.690580e-09 -1.600290e+03 -4.000000e+02
-4.000000e+02 -2.000280e+03 -2.013750e-10
1.561780e-09 -2.000280e+03 -1.796810e-09
-4.000000e+02 -1.600290e+03 -5.984290e-10
1.789330e-09 -1.600290e+03 -6.576810e-10
1.845940e-09 -2.000280e+03 -4.000000e+02
4.000000e+02 -2.000280e+03 -4.000000e+02
1.690580e-09 -1.600290e+03 -4.000000e+02
4.000000e+02 -1.600290e+03 -4.000000e+02
1.561780e-09 -2.000280e+03 -1.796810e-09
4.000000e+02 -2.000280e+03 -1.901070e-09
1.789330e-09 -1.600290e+03 -6.576810e-10
4.000000e+02 -1.600290e+03 -1.019760e-09
-4.000000e+02 -1.600290e+03 -4.000000e+02
1.690580e-09 -1.600290e+03 -4.000000e+02
-4.000000e+02 -1.200310e+03 -4.000000e+02
8.987770e-10 -1.200310e+03 -4.000000e+02
-4.000000e+02 -1.600290e+03 -5.984290e-10
1.789330e-09 -1.600290e+03 -6.576810e-10
-4.000000e+02 -1.200310e+03 -1.856960e-10
7.783990e-10 -1.200310e+03 1.475730e-10
1.690580e-09 -1.600290e+03 -4.000000e+02
4.000000e+02 -1.600290e+03 -4.000000e+02
8.987770e-10 -1.200310e+03 -4.000000e+02
4.000000e+02 -1.200310e+03 -4.000000e+02
1.789330e-09 -1.600290e+03 -6.576810e-10
4.000000e+02 -1.600290e+03 -1.019760e-09
7.783990e-10 -1.200310e+03 1.475730e-10
4.000000e+02 -1.200310e+03 -1.277180e-10
-4.000000e+02 -1.200310e+03 -4.000000e+02
8.987770e-10 -1.200310e+03 -4.000000e+02
-4.000000e+02 -8.003040e+02 -4.000000e+02
2.562320e-10 -8.003040e+02 -4.000000e+02
-4.000000e+02 -1.200310e+03 -1.856960e-10
7.783990e-10 -1.200310e+03 1.475730e-10
-4.000000e+02 -8.003040e+02 3.020310e-10
7.980480e-10 -8.003040e+02 -1.105670e-09
8.987770e-10 -1.200310e+03 -4.000000e+02
4.000000e+02 -1.200310e+03 -4.000000e+02
2.562320e-10 -8.003040e+02 -4.000000e+02
4.000000e+02 -8.003040e+02 -4.000000e+02
7.783990e-10 -1.200310e+03 1.475730e-10
4.000000e+02 -1.200310e+03 -1.277180e-10
7.980480e-10 -8.003040e+02 -1.105670e-09
4.000000e+02 -8.003040e+02 -1.149890e-09
-4.000000e+02 -8.003040e+02 -4.000000e+02
2.562320e-10 -8.003040e+02 -4.000000e+02
-4.000000e+02 -4.002910e+02 -4.000000e+02
-2.193560e-10 -4.002910e+02 -4.000000e+02
-4.000000e+02 -8.003040e+02 3.020310e-10
7.980480e-10 -8.003040e+02 -1.105670e-09
-4.000000e+02 -4.002910e+02 -6.859940e-11
9.095050e-10 -4.002910e+02 2.489430e-10
2.562320e-10 -8.003040e+02 -4.000000e+02
4.000000e+02 -8.003040e+02 -4.000000e+02
-2.193560e-10 -4.002910e+02 -4.000000e+02
4.000000e+02 -4.002910e+02 -4.000000e+02
7.980480e-10 -8.003040e+02 -1.105670e-09
4.000000e+02 -8.003040e+02 -1.149890e-09
9.095050e-10 -4.002910e+02 2.489430e-10
4.000000e+02 -4.002910e+02 -1.053140e-09
-4.000000e+02 -4.002910e+02 -4.000000e+02
-2.193560e-10 -4.002910e+02 -4.000000e+02
-4.000000e+02 -2.964220e-01 -4.000000e+02
1.277640e-09 -2.964220e-01 -4.000000e+02
-4.000000e+02 -4.002910e+02 -6.859940e-11
9.095050e-10 -4.002910e+02 2.489430e-10
-4.000000e+02 -2.964220e-01 1.591450e-09
1.351790e-09 -2.964220e-01 7.239310e-10
-2.193560e-10 -4.002910e+02 -4.000000e+02
4.000000e+02 -4.002910e+02 -4.000000e+02
1.277640e-09 -2.964220e-01 -4.000000e+02
4.000000e+02 -2.964220e-01 -4.000000e+02
[...]
<PointData>
<DataArray type="Float32" Name="V1" format="ascii">
0.000000e+00
0.000000e+00
1.021230e-09
7.537270e-10
0.000000e+00
0.000000e+00
-1.901060e-09
-2.675460e-10
0.000000e+00
0.000000e+00
7.537270e-10
5.184710e-10
0.000000e+00
0.000000e+00
-2.675460e-10
0.000000e+00
1.021230e-09
7.537270e-10
2.121020e-09
9.928580e-10
-1.901060e-09
-2.675460e-10
1.084080e-09
6.505480e-10
7.537270e-10
5.184710e-10
9.928580e-10
-7.384290e-10
-2.675460e-10
0.000000e+00
6.505480e-10
1.539700e-09
2.121020e-09
9.928580e-10
-1.099790e-09
3.840780e-10
1.084080e-09
6.505480e-10
1.414010e-10
-1.664020e-09
9.928580e-10
-7.384290e-10
3.840780e-10
2.749470e-09
6.505480e-10
1.539700e-09
-1.664020e-09
-1.979620e-09
-1.099790e-09
3.840780e-10
8.169850e-10
1.808970e-09
1.414010e-10
-1.664020e-09
-1.005520e-09
-9.065830e-10
3.840780e-10
2.749470e-09
1.808970e-09
-7.855630e-11
-1.664020e-09
-1.979620e-09
-9.065830e-10
-4.713380e-11
8.169850e-10
1.808970e-09
1.256900e-10
-4.009810e-10
-1.005520e-09
-9.065830e-10
1.068370e-09
1.118720e-09
1.808970e-09
-7.855630e-11
-4.009810e-10
3.456480e-10
-9.065830e-10
-4.713380e-11
1.118720e-09
1.555410e-09
1.256900e-10
-4.009810e-10
-1.351170e-09
-3.903380e-10
1.068370e-09
1.118720e-09
2.482380e-09
8.353450e-10
-4.009810e-10
3.456480e-10
-3.903380e-10
-1.021230e-09
1.118720e-09
1.555410e-09
8.353450e-10
-6.284500e-10
-1.351170e-09
-3.903380e-10
-6.127390e-10
6.114740e-10
2.482380e-09
8.353450e-10
0.000000e+00
8.892520e-10
-3.903380e-10
-1.021230e-09
6.114740e-10
-3.456480e-10
8.353450e-10
-6.284500e-10
8.892520e-10
-3.299360e-10
-6.127390e-10
6.114740e-10
1.335460e-09
-5.891100e-10
0.000000e+00
8.892520e-10
-5.970280e-10
-1.450320e-10
6.114740e-10
-3.456480e-10
-5.891100e-10
1.005520e-09
8.892520e-10
-3.299360e-10
-1.450320e-10
-8.955420e-10
1.335460e-09
-5.891100e-10
-2.183860e-09
-1.669290e-09
-5.970280e-10
-1.450320e-10
4.556260e-10
4.408830e-10
-5.891100e-10
1.005520e-09
-1.669290e-09
-1.429720e-09
-1.450320e-10
-8.955420e-10
4.408830e-10
1.005520e-09
-2.183860e-09
-1.669290e-09
-6.127390e-10
3.422320e-10
4.556260e-10
4.408830e-10
-1.099790e-09
2.443460e-10
-1.669290e-09
-1.429720e-09
3.422320e-10
0.000000e+00
4.408830e-10
1.005520e-09
2.443460e-10
1.775370e-09
-6.127390e-10
3.422320e-10
6.598730e-10
2.395360e-11
-1.099790e-09
2.443460e-10
0.000000e+00
-1.173820e-10
3.422320e-10
0.000000e+00
2.395360e-11
-1.539700e-09
2.443460e-10
1.775370e-09
-1.173820e-10
-9.898090e-10
6.598730e-10
2.395360e-11
-3.142250e-11
-6.961000e-10
0.000000e+00
-1.173820e-10
-6.441610e-10
2.372110e-10
2.395360e-11
-1.539700e-09
-6.961000e-10
-1.932480e-09
-1.173820e-10
-9.898090e-10
2.372110e-10
0.000000e+00
-3.142250e-11
-6.961000e-10
-5.027600e-10
7.578600e-10
-6.441610e-10
2.372110e-10
-7.855630e-10
2.784980e-10
-6.961000e-10
-1.932480e-09
7.578600e-10
-5.184710e-10
2.372110e-10
0.000000e+00
2.784980e-10
2.670910e-10
-5.027600e-10
7.578600e-10
0.000000e+00
1.664510e-09
-7.855630e-10
2.784980e-10
0.000000e+00
-5.433070e-10
7.578600e-10
-5.184710e-10
1.664510e-09
2.026750e-09
2.784980e-10
2.670910e-10
-5.433070e-10
8.484080e-10
0.000000e+00
1.664510e-09
-1.885350e-10
-1.618740e-10
0.000000e+00
-5.433070e-10
1.398300e-09
1.331560e-09
1.664510e-09
2.026750e-09
-1.618740e-10
1.366880e-09
-5.433070e-10
8.484080e-10
1.331560e-09
-1.319750e-09
-1.885350e-10
-1.618740e-10
-7.855630e-11
-1.409300e-09
1.398300e-09
1.331560e-09
-1.916770e-09
-6.446620e-10
-1.618740e-10
1.366880e-09
-1.409300e-09
-5.813160e-10
1.331560e-09
-1.319750e-09
-6.446620e-10
1.476860e-09
-7.855630e-11
-1.409300e-09
3.047980e-09
4.191340e-09
-1.916770e-09
-6.446620e-10
3.817830e-09
2.573460e-09
-1.409300e-09
-5.813160e-10
4.191340e-09
3.205100e-09
-6.446620e-10
1.476860e-09
2.573460e-09
1.178340e-09
3.047980e-09
4.191340e-09
-1.225480e-09
-1.118970e-09
3.817830e-09
2.573460e-09
1.696820e-09
-1.093780e-09
4.191340e-09
3.205100e-09
-1.118970e-09
-2.168150e-09
2.573460e-09
1.178340e-09
-1.093780e-09
-4.320600e-09
-1.225480e-09
-1.118970e-09
-4.603400e-09
-1.220970e-09
1.696820e-09
-1.093780e-09
-2.293840e-09
-6.780720e-10
-1.118970e-09
-2.168150e-09
-1.220970e-09
2.278130e-09
-1.093780e-09
-4.320600e-09
-6.780720e-10
1.571130e-09
-4.603400e-09
-1.220970e-09
8.326970e-09
2.291830e-09
-2.293840e-09
-6.780720e-10
-4.697670e-09
-2.162630e-10
-1.220970e-09
2.278130e-09
2.291830e-09
-4.116350e-09
-6.780720e-10
1.571130e-09
-2.162630e-10
3.974950e-09
8.326970e-09
2.291830e-09
-3.880680e-09
-2.096050e-09
-4.697670e-09
-2.162630e-10
-4.556260e-09
-2.196070e-09
2.291830e-09
-4.116350e-09
-2.096050e-09
-3.299360e-10
-2.162630e-10
3.974950e-09
-2.196070e-09
2.199580e-10
-3.880680e-09
-2.096050e-09
-3.519320e-09
2.740700e-09
-4.556260e-09
-2.196070e-09
4.886200e-09
1.849070e-09
-2.096050e-09
-3.299360e-10
2.740700e-09
8.892570e-09
-2.196070e-09
2.199580e-10
1.849070e-09
-1.178340e-09
-3.519320e-09
2.740700e-09
2.592360e-09
-8.927440e-10
4.886200e-09
1.849070e-09
2.058170e-09
1.747900e-09
2.740700e-09
8.892570e-09
-8.927440e-10
-4.446290e-09
1.849070e-09
-1.178340e-09
1.747900e-09
1.539700e-09
2.592360e-09
-8.927440e-10
-3.299360e-09
-5.486360e-09
2.058170e-09
1.747900e-09
-3.000850e-09
-3.535530e-09
-8.927440e-10
-4.446290e-09
-5.486360e-09
-7.682800e-09
1.747900e-09
1.539700e-09
-3.535530e-09
-3.974950e-09
-3.299360e-09
-5.486360e-09
-9.898090e-10
-6.641790e-10
-3.000850e-09
-3.535530e-09
-1.853930e-09
-1.341820e-09
-5.486360e-09
-7.682800e-09
-6.641790e-10
-2.985140e-10
-3.535530e-09
-3.974950e-09
-1.341820e-09
-6.912950e-10
-9.898090e-10
-6.641790e-10
5.483230e-09
4.481470e-09
-1.853930e-09
-1.341820e-09
3.723570e-09
2.396280e-09
-6.641790e-10
-2.985140e-10
4.481470e-09
3.535030e-09
-1.341820e-09
-6.912950e-10
2.396280e-09
1.209770e-09
5.483230e-09
4.481470e-09
4.116350e-09
3.611110e-09
3.723570e-09
2.396280e-09
2.513800e-09
2.081580e-09
4.481470e-09
3.535030e-09
3.611110e-09
3.205100e-09
2.396280e-09
1.209770e-09
2.081580e-09
1.712530e-09
4.116350e-09
3.611110e-09
-1.115500e-09
-6.786200e-10
2.513800e-09
2.081580e-09
-9.269640e-10
-1.827470e-10
3.611110e-09
3.205100e-09
-6.786200e-10
-2.199580e-10
2.081580e-09
1.712530e-09
-1.827470e-10
5.184710e-10
-1.115500e-09
-6.786200e-10
-1.099790e-09
-8.916790e-10
-9.269640e-10
-1.827470e-10
-7.698510e-10
-4.069060e-10
-6.786200e-10
-2.199580e-10
-8.916790e-10
-7.070060e-10
-1.827470e-10
5.184710e-10
-4.069060e-10
-6.284500e-11
-1.099790e-09
-8.916790e-10
-1.351170e-09
-1.301230e-09
-7.698510e-10
-4.069060e-10
-9.898090e-10
-8.806140e-10
-8.916790e-10
-7.070060e-10
-1.301230e-09
-1.225480e-09
-4.069060e-10
-6.284500e-11
-8.806140e-10
-7.384290e-10
0.000000e+00
0.000000e+00
-1.901060e-09
-2.675460e-10
0.000000e+00
0.000000e+00
-3.142250e-10
-7.291340e-10
0.000000e+00
0.000000e+00
-2.675460e-10
0.000000e+00
0.000000e+00
0.000000e+00
-7.291340e-10
-1.649680e-09
-1.901060e-09
-2.675460e-10
1.084080e-09
6.505480e-10
-3.142250e-10
-7.291340e-10
-2.356690e-10
-4.094060e-10
-2.675460e-10
0.000000e+00
6.505480e-10
1.539700e-09
-7.291340e-10
-1.649680e-09
-4.094060e-10
-1.539700e-09
1.084080e-09
6.505480e-10
1.414010e-10
-1.664020e-09
-2.356690e-10
-4.094060e-10
1.869640e-09
2.452760e-09
6.505480e-10
1.539700e-09
-1.664020e-09
-1.979620e-09
-4.094060e-10
-1.539700e-09
2.452760e-09
3.079410e-09
1.414010e-10
-1.664020e-09
-1.005520e-09
-9.065830e-10
1.869640e-09
2.452760e-09
1.728240e-10
1.111680e-09
-1.664020e-09
-1.979620e-09
-9.065830e-10
-4.713380e-11
2.452760e-09
3.079410e-09
1.111680e-09
-1.775370e-09
-1.005520e-09
-9.065830e-10
1.068370e-09
1.118720e-09
1.728240e-10
1.111680e-09
1.681100e-09
-1.461670e-09
-9.065830e-10
-4.713380e-11
1.118720e-09
1.555410e-09
1.111680e-09
-1.775370e-09
-1.461670e-09
-3.079410e-09
1.068370e-09
1.118720e-09
2.482380e-09
8.353450e-10
1.681100e-09
-1.461670e-09
-9.112530e-10
4.366190e-10
1.118720e-09
1.555410e-09
8.353450e-10
-6.284500e-10
-1.461670e-09
-3.079410e-09
4.366190e-10
1.838220e-09
2.482380e-09
8.353450e-10
0.000000e+00
8.892520e-10
-9.112530e-10
4.366190e-10
-7.227180e-10
2.349790e-10
8.353450e-10
-6.284500e-10
8.892520e-10
-3.299360e-10
4.366190e-10
1.838220e-09
2.349790e-10
3.927810e-10
0.000000e+00
8.892520e-10
-5.970280e-10
-1.450320e-10
-7.227180e-10
2.349790e-10
-1.146920e-09
-3.830400e-11
8.892520e-10
-3.299360e-10
-1.450320e-10
-8.955420e-10
2.349790e-10
3.927810e-10
-3.830400e-11
1.225480e-09
-5.970280e-10
-1.450320e-10
4.556260e-10
4.408830e-10
-1.146920e-09
-3.830400e-11
-7.384290e-10
-1.328020e-09
-1.450320e-10
-8.955420e-10
4.408830e-10
1.005520e-09
-3.830400e-11
1.225480e-09
-1.328020e-09
8.012740e-10
4.556260e-10
4.408830e-10
-1.099790e-09
2.443460e-10
-7.384290e-10
-1.328020e-09
1.728240e-10
4.657330e-10
4.408830e-10
1.005520e-09
2.443460e-10
1.775370e-09
-1.328020e-09
8.012740e-10
4.657330e-10
3.456480e-10
-1.099790e-09
2.443460e-10
0.000000e+00
-1.173820e-10
1.728240e-10
4.657330e-10
3.770700e-10
-1.030510e-09
2.443460e-10
1.775370e-09
-1.173820e-10
-9.898090e-10
4.657330e-10
3.456480e-10
-1.030510e-09
-2.670910e-10
0.000000e+00
-1.173820e-10
-6.441610e-10
2.372110e-10
3.770700e-10
-1.030510e-09
1.853930e-09
1.060200e-09
-1.173820e-10
-9.898090e-10
2.372110e-10
0.000000e+00
-1.030510e-09
-2.670910e-10
1.060200e-09
-5.813160e-10
-6.441610e-10
2.372110e-10
-7.855630e-10
2.784980e-10
1.853930e-09
1.060200e-09
-7.698510e-10
9.766670e-11
2.372110e-10
0.000000e+00
2.784980e-10
2.670910e-10
1.060200e-09
-5.813160e-10
9.766670e-11
1.099790e-09
-7.855630e-10
2.784980e-10
0.000000e+00
-5.433070e-10
-7.698510e-10
9.766670e-11
2.513800e-10
1.003340e-10
2.784980e-10
2.670910e-10
-5.433070e-10
8.484080e-10
9.766670e-11
1.099790e-09
1.003340e-10
-8.955420e-10
0.000000e+00
-5.433070e-10
1.398300e-09
1.331560e-09
2.513800e-10
1.003340e-10
5.498940e-10
-6.426700e-10
-5.433070e-10
8.484080e-10
1.331560e-09
-1.319750e-09
1.003340e-10
-8.955420e-10
-6.426700e-10
1.571130e-11
1.398300e-09
1.331560e-09
-1.916770e-09
-6.446620e-10
5.498940e-10
-6.426700e-10
-7.855630e-11
8.670300e-10
1.331560e-09
-1.319750e-09
-6.446620e-10
1.476860e-09
-6.426700e-10
1.571130e-11
8.670300e-10
4.619110e-09
-1.916770e-09
-6.446620e-10
3.817830e-09
2.573460e-09
-7.855630e-11
8.670300e-10
2.466670e-09
-1.296120e-09
-6.446620e-10
1.476860e-09
2.573460e-09
1.178340e-09
8.670300e-10
4.619110e-09
-1.296120e-09
-2.686620e-09
3.817830e-09
2.573460e-09
1.696820e-09
-1.093780e-09
2.466670e-09
-1.296120e-09
-4.477710e-09
2.600130e-09
2.573460e-09
1.178340e-09
-1.093780e-09
-4.320600e-09
-1.296120e-09
-2.686620e-09
2.600130e-09
8.436940e-09
1.696820e-09
-1.093780e-09
-2.293840e-09
-6.780720e-10
-4.477710e-09
2.600130e-09
7.211470e-09
-1.004560e-08
-1.093780e-09
-4.320600e-09
-6.780720e-10
1.571130e-09
2.600130e-09
8.436940e-09
-1.004560e-08
-2.747900e-08
-2.293840e-09
-6.780720e-10
-4.697670e-09
-2.162630e-10
7.211470e-09
-1.004560e-08
-6.017410e-09
3.977130e-09
-6.780720e-10
1.571130e-09
-2.162630e-10
3.974950e-09
-1.004560e-08
-2.747900e-08
3.977130e-09
1.384160e-08
-4.697670e-09
-2.162630e-10
-4.556260e-09
-2.196070e-09
-6.017410e-09
3.977130e-09
-4.179190e-09
4.261570e-09
-2.162630e-10
3.974950e-09
-2.196070e-09
2.199580e-10
3.977130e-09
1.384160e-08
4.261570e-09
1.280470e-08
-4.556260e-09
-2.196070e-09
4.886200e-09
1.849070e-09
-4.179190e-09
4.261570e-09
7.478560e-09
-5.045360e-09
-2.196070e-09
2.199580e-10
1.849070e-09
-1.178340e-09
4.261570e-09
1.280470e-08
-5.045360e-09
-1.756520e-08
4.886200e-09
1.849070e-09
2.058170e-09
1.747900e-09
7.478560e-09
-5.045360e-09
-1.571130e-09
5.570800e-09
1.849070e-09
-1.178340e-09
1.747900e-09
1.539700e-09
-5.045360e-09
-1.756520e-08
5.570800e-09
1.274180e-08
2.058170e-09
1.747900e-09
-3.000850e-09
-3.535530e-09
-1.571130e-09
5.570800e-09
-2.749470e-09
-6.183730e-10
1.747900e-09
1.539700e-09
-3.535530e-09
-3.974950e-09
5.570800e-09
1.274180e-08
-6.183730e-10
1.508280e-09
-3.000850e-09
-3.535530e-09
-1.853930e-09
-1.341820e-09
-2.749470e-09
-6.183730e-10
5.970280e-10
-4.164160e-09
-3.535530e-09
-3.974950e-09
-1.341820e-09
-6.912950e-10
-6.183730e-10
1.508280e-09
-4.164160e-09
-8.939700e-09
-1.853930e-09
-1.341820e-09
3.723570e-09
2.396280e-09
5.970280e-10
-4.164160e-09
2.121020e-09
3.840830e-10
-1.341820e-09
-6.912950e-10
2.396280e-09
1.209770e-09
-4.164160e-09
-8.939700e-09
3.840830e-10
-1.272610e-09
3.723570e-09
2.396280e-09
2.513800e-09
2.081580e-09
2.121020e-09
3.840830e-10
1.586840e-09
9.825250e-10
2.396280e-09
1.209770e-09
2.081580e-09
1.712530e-09
3.840830e-10
-1.272610e-09
9.825250e-10
3.770700e-10
2.513800e-09
2.081580e-09
-9.269640e-10
-1.827470e-10
1.586840e-09
9.825250e-10
-4.556260e-10
5.657390e-10
2.081580e-09
1.712530e-09
-1.827470e-10
5.184710e-10
9.825250e-10
3.770700e-10
5.657390e-10
1.571130e-09
-9.269640e-10
-1.827470e-10
-7.698510e-10
-4.069060e-10
-4.556260e-10
5.657390e-10
-3.927810e-10
1.487100e-10
-1.827470e-10
5.184710e-10
-4.069060e-10
-6.284500e-11
5.657390e-10
1.571130e-09
1.487100e-10
6.755840e-10
-7.698510e-10
-4.069060e-10
-9.898090e-10
-8.806140e-10
-3.927810e-10
1.487100e-10
-7.070060e-10
-4.531370e-10
-4.069060e-10
-6.284500e-11
-8.806140e-10
-7.384290e-10
1.487100e-10
6.755840e-10
-4.531370e-10
-1.414010e-10
</DataArray>
<DataArray type="Float32" Name="V2" format="ascii">
0.000000e+00
0.000000e+00
7.415800e-03
7.415800e-03
0.000000e+00
0.000000e+00
7.415800e-03
7.415800e-03
0.000000e+00
0.000000e+00
7.415800e-03
7.415800e-03
0.000000e+00
0.000000e+00
7.415800e-03
7.415800e-03
7.415800e-03
7.415800e-03
1.688530e-02
1.688530e-02
7.415800e-03
7.415800e-03
1.688530e-02
1.688530e-02
7.415800e-03
7.415800e-03
1.688530e-02
1.688530e-02
7.415800e-03
7.415800e-03
1.688530e-02
1.688530e-02
1.688530e-02
1.688530e-02
3.120700e-02
3.120700e-02
1.688530e-02
1.688530e-02
3.120700e-02
3.120700e-02
1.688530e-02
1.688530e-02
3.120700e-02
3.120700e-02
1.688530e-02
1.688530e-02
3.120700e-02
3.120700e-02
3.120700e-02
3.120700e-02
4.481880e-02
4.481880e-02
3.120700e-02
3.120700e-02
4.481880e-02
4.481880e-02
3.120700e-02
3.120700e-02
4.481880e-02
4.481880e-02
3.120700e-02
3.120700e-02
4.481880e-02
4.481880e-02
4.481880e-02
4.481880e-02
5.216840e-02
5.216840e-02
4.481880e-02
4.481880e-02
5.216840e-02
5.216840e-02
4.481880e-02
4.481880e-02
5.216840e-02
5.216840e-02
4.481880e-02
4.481880e-02
5.216840e-02
5.216840e-02
5.216840e-02
5.216840e-02
4.597840e-02
4.597830e-02
5.216840e-02
5.216840e-02
4.597830e-02
4.597830e-02
5.216840e-02
5.216840e-02
4.597830e-02
4.597830e-02
5.216840e-02
5.216840e-02
4.597830e-02
4.597830e-02
4.597840e-02
4.597830e-02
1.635770e-02
1.635770e-02
4.597830e-02
4.597830e-02
1.635770e-02
1.635770e-02
4.597830e-02
4.597830e-02
1.635770e-02
1.635770e-02
4.597830e-02
4.597830e-02
1.635770e-02
1.635770e-02
1.635770e-02
1.635770e-02
-1.486850e-02
-1.486850e-02
1.635770e-02
1.635770e-02
-1.486850e-02
-1.486850e-02
1.635770e-02
1.635770e-02
-1.486850e-02
-1.486850e-02
1.635770e-02
1.635770e-02
-1.486850e-02
-1.486850e-02
-1.486850e-02
-1.486850e-02
-2.433290e-02
-2.433290e-02
-1.486850e-02
-1.486850e-02
-2.433290e-02
-2.433290e-02
-1.486850e-02
-1.486850e-02
-2.433290e-02
-2.433290e-02
-1.486850e-02
-1.486850e-02
-2.433290e-02
-2.433290e-02
-2.433290e-02
-2.433290e-02
-7.290940e-03
-7.290940e-03
-2.433290e-02
-2.433290e-02
-7.290940e-03
-7.290940e-03
-2.433290e-02
-2.433290e-02
-7.290940e-03
-7.290940e-03
-2.433290e-02
-2.433290e-02
-7.290940e-03
-7.290940e-03
-7.290940e-03
-7.290940e-03
1.724320e-02
1.724320e-02
-7.290940e-03
-7.290940e-03
1.724320e-02
1.724320e-02
-7.290940e-03
-7.290940e-03
1.724320e-02
1.724320e-02
-7.290940e-03
-7.290940e-03
1.724320e-02
1.724320e-02
1.724320e-02
1.724320e-02
7.773890e-03
7.773890e-03
1.724320e-02
1.724320e-02
7.773890e-03
7.773890e-03
1.724320e-02
1.724320e-02
7.773890e-03
7.773900e-03
1.724320e-02
1.724320e-02
7.773890e-03
7.773890e-03
7.773890e-03
7.773890e-03
-1.210720e-02
-1.210720e-02
7.773890e-03
7.773890e-03
-1.210720e-02
-1.210720e-02
7.773890e-03
7.773900e-03
-1.210720e-02
-1.210720e-02
7.773890e-03
7.773890e-03
-1.210720e-02
-1.210720e-02
-1.210720e-02
-1.210720e-02
-2.750350e-03
-2.750360e-03
-1.210720e-02
-1.210720e-02
-2.750360e-03
-2.750360e-03
-1.210720e-02
-1.210720e-02
-2.750360e-03
-2.750360e-03
-1.210720e-02
-1.210720e-02
-2.750360e-03
-2.750360e-03
-2.750350e-03
-2.750360e-03
6.951300e-03
6.951300e-03
-2.750360e-03
-2.750360e-03
6.951300e-03
6.951300e-03
-2.750360e-03
-2.750360e-03
6.951300e-03
6.951300e-03
-2.750360e-03
-2.750360e-03
6.951300e-03
6.951300e-03
6.951300e-03
6.951300e-03
-1.359010e-03
-1.359000e-03
6.951300e-03
6.951300e-03
-1.359000e-03
-1.359000e-03
6.951300e-03
6.951300e-03
-1.359000e-03
-1.359000e-03
6.951300e-03
6.951300e-03
-1.359000e-03
-1.359000e-03
-1.359010e-03
-1.359000e-03
-3.069720e-03
-3.069730e-03
-1.359000e-03
-1.359000e-03
-3.069740e-03
-3.069730e-03
-1.359000e-03
-1.359000e-03
-3.069730e-03
-3.069740e-03
-1.359000e-03
-1.359000e-03
-3.069730e-03
-3.069740e-03
-3.069720e-03
-3.069730e-03
1.148870e-03
1.148870e-03
-3.069740e-03
-3.069730e-03
1.148880e-03
1.148860e-03
-3.069730e-03
-3.069740e-03
1.148870e-03
1.148860e-03
-3.069730e-03
-3.069740e-03
1.148860e-03
1.148860e-03
1.148870e-03
1.148870e-03
-3.620600e-05
-3.623000e-05
1.148880e-03
1.148860e-03
-3.623500e-05
-3.620620e-05
1.148870e-03
1.148860e-03
-3.623000e-05
-3.620690e-05
1.148860e-03
1.148860e-03
-3.620620e-05
-3.620510e-05
-3.620600e-05
-3.623000e-05
-1.049830e-03
-1.049770e-03
-3.623500e-05
-3.620620e-05
-1.049760e-03
-1.049830e-03
-3.623000e-05
-3.620690e-05
-1.049770e-03
-1.049800e-03
-3.620620e-05
-3.620510e-05
-1.049830e-03
-1.049810e-03
-1.049830e-03
-1.049770e-03
-2.889620e-04
-2.890020e-04
-1.049760e-03
-1.049830e-03
-2.889820e-04
-2.889350e-04
-1.049770e-03
-1.049800e-03
-2.890020e-04
-2.889390e-04
-1.049830e-03
-1.049810e-03
-2.889350e-04
-2.889350e-04
-2.889620e-04
-2.890020e-04
-5.098250e-04
-5.098350e-04
-2.889820e-04
-2.889350e-04
-5.098630e-04
-5.098700e-04
-2.890020e-04
-2.889390e-04
-5.098350e-04
-5.098800e-04
-2.889350e-04
-2.889350e-04
-5.098700e-04
-5.098750e-04
-5.098250e-04
-5.098350e-04
-2.661260e-04
-2.660000e-04
-5.098630e-04
-5.098700e-04
-2.659950e-04
-2.660120e-04
-5.098350e-04
-5.098800e-04
-2.660000e-04
-2.659980e-04
-5.098700e-04
-5.098750e-04
-2.660120e-04
-2.659880e-04
-2.661260e-04
-2.660000e-04
2.970230e-05
2.949290e-05
-2.659950e-04
-2.660120e-04
2.950160e-05
2.952310e-05
-2.660000e-04
-2.659980e-04
2.949290e-05
2.949100e-05
-2.660120e-04
-2.659880e-04
2.952310e-05
2.947860e-05
2.970230e-05
2.949290e-05
-5.043450e-05
-5.031750e-05
2.950160e-05
2.952310e-05
-5.032570e-05
-5.036810e-05
2.949290e-05
2.949100e-05
-5.031750e-05
-5.034210e-05
2.952310e-05
2.947860e-05
-5.036810e-05
-5.034800e-05
-5.043450e-05
-5.031750e-05
7.979810e-06
7.950150e-06
-5.032570e-05
-5.036810e-05
7.956430e-06
7.980940e-06
-5.031750e-05
-5.034210e-05
7.950150e-06
7.975280e-06
-5.036810e-05
-5.034800e-05
7.980940e-06
7.980310e-06
7.979810e-06
7.950150e-06
-3.208290e-05
-3.210370e-05
7.956430e-06
7.980940e-06
-3.210830e-05
-3.215350e-05
7.950150e-06
7.975280e-06
-3.210370e-05
-3.212560e-05
7.980940e-06
7.980310e-06
-3.215350e-05
-3.210000e-05
-3.208290e-05
-3.210370e-05
-5.925080e-05
-5.921380e-05
-3.210830e-05
-3.215350e-05
-5.920960e-05
-5.915880e-05
-3.210370e-05
-3.212560e-05
-5.921380e-05
-5.918920e-05
-3.215350e-05
-3.210000e-05
-5.915880e-05
-5.921630e-05
-5.925080e-05
-5.921380e-05
-5.117340e-06
-5.114830e-06
-5.920960e-05
-5.915880e-05
-5.114830e-06
-5.114080e-06
-5.921380e-05
-5.918920e-05
-5.114830e-06
-5.114330e-06
-5.915880e-05
-5.921630e-05
-5.114080e-06
-5.113570e-06
-5.117340e-06
-5.114830e-06
2.784930e-04
2.784950e-04
-5.114830e-06
-5.114080e-06
2.784940e-04
2.784940e-04
-5.114830e-06
-5.114330e-06
2.784950e-04
2.784960e-04
-5.114080e-06
-5.113570e-06
2.784940e-04
2.785000e-04
0.000000e+00
0.000000e+00
7.415800e-03
7.415800e-03
0.000000e+00
0.000000e+00
7.415800e-03
7.415800e-03
0.000000e+00
0.000000e+00
7.415800e-03
7.415800e-03
0.000000e+00
0.000000e+00
7.415800e-03
7.415800e-03
7.415800e-03
7.415800e-03
1.688530e-02
1.688530e-02
7.415800e-03
7.415800e-03
1.688530e-02
1.688530e-02
7.415800e-03
7.415800e-03
1.688530e-02
1.688530e-02
7.415800e-03
7.415800e-03
1.688530e-02
1.688530e-02