<?xml version="1.0"?>
<VTKFile type="UnstructuredGrid" version="0.1" byte_order="LittleEndian" compressor="vtkZLibDataCompressor">
<UnstructuredGrid>
<Piece NumberOfPoints="960" NumberOfCells="120">
<Points>
<DataArray type="Float32" NumberOfComponents="3" format="ascii">
-4.000000e+02 -6.000000e+03 -4.000000e+02
0.000000e+00 -6.000000e+03 -4.000000e+02
-4.000000e+02 -5.600100e+03 -4.000000e+02
-1.571520e-10 -5.600100e+03 -4.000000e+02
-4.000000e+02 -6.000000e+03 0.000000e+00
0.000000e+00 -6.000000e+03 0.000000e+00
-4.000000e+02 -5.600100e+03 1.417370e-09
-1.161020e-09 -5.600100e+03 1.832630e-10
0.000000e+00 -6.000000e+03 -4.000000e+02
4.000000e+02 -6.000000e+03 -4.000000e+02
-1.571520e-10 -5.600100e+03 -4.000000e+02
4.000000e+02 -5.600100e+03 -4.000000e+02
0.000000e+00 -6.000000e+03 0.000000e+00
4.000000e+02 -6.000000e+03 0.000000e+00
-1.161020e-09 -5.600100e+03 1.832630e-10
4.000000e+02 -5.600100e+03 3.476670e-10
-4.000000e+02 -5.600100e+03 -4.000000e+02
-1.571520e-10 -5.600100e+03 -4.000000e+02
-4.000000e+02 -5.200200e+03 -4.000000e+02
-8.414120e-10 -5.200200e+03 -4.000000e+02
-4.000000e+02 -5.600100e+03 1.417370e-09
-1.161020e-09 -5.600100e+03 1.832630e-10
-4.000000e+02 -5.200200e+03 2.565320e-09
-2.582240e-10 -5.200200e+03 1.762550e-09
-1.571520e-10 -5.600100e+03 -4.000000e+02
4.000000e+02 -5.600100e+03 -4.000000e+02
-8.414120e-10 -5.200200e+03 -4.000000e+02
4.000000e+02 -5.200200e+03 -4.000000e+02
-1.161020e-09 -5.600100e+03 1.832630e-10
4.000000e+02 -5.600100e+03 3.476670e-10
-2.582240e-10 -5.200200e+03 1.762550e-09
4.000000e+02 -5.200200e+03 6.813850e-10
-4.000000e+02 -5.200200e+03 -4.000000e+02
-8.414120e-10 -5.200200e+03 -4.000000e+02
-4.000000e+02 -4.800280e+03 -4.000000e+02
-8.549820e-10 -4.800280e+03 -4.000000e+02
-4.000000e+02 -5.200200e+03 2.565320e-09
-2.582240e-10 -5.200200e+03 1.762550e-09
-4.000000e+02 -4.800280e+03 2.005560e-09
4.817310e-10 -4.800280e+03 2.120730e-09
-8.414120e-10 -5.200200e+03 -4.000000e+02
4.000000e+02 -5.200200e+03 -4.000000e+02
-8.549820e-10 -4.800280e+03 -4.000000e+02
4.000000e+02 -4.800280e+03 -4.000000e+02
-2.582240e-10 -5.200200e+03 1.762550e-09
4.000000e+02 -5.200200e+03 6.813850e-10
4.817310e-10 -4.800280e+03 2.120730e-09
4.000000e+02 -4.800280e+03 1.782370e-09
-4.000000e+02 -4.800280e+03 -4.000000e+02
-8.549820e-10 -4.800280e+03 -4.000000e+02
-4.000000e+02 -4.400320e+03 -4.000000e+02
-1.175490e-09 -4.400320e+03 -4.000000e+02
-4.000000e+02 -4.800280e+03 2.005560e-09
4.817310e-10 -4.800280e+03 2.120730e-09
-4.000000e+02 -4.400320e+03 1.110120e-09
-1.387970e-10 -4.400320e+03 5.478410e-10
-8.549820e-10 -4.800280e+03 -4.000000e+02
4.000000e+02 -4.800280e+03 -4.000000e+02
-1.175490e-09 -4.400320e+03 -4.000000e+02
4.000000e+02 -4.400320e+03 -4.000000e+02
4.817310e-10 -4.800280e+03 2.120730e-09
4.000000e+02 -4.800280e+03 1.782370e-09
-1.387970e-10 -4.400320e+03 5.478410e-10
4.000000e+02 -4.400320e+03 1.321290e-09
-4.000000e+02 -4.400320e+03 -4.000000e+02
-1.175490e-09 -4.400320e+03 -4.000000e+02
-4.000000e+02 -4.000320e+03 -4.000000e+02
-1.495830e-09 -4.000320e+03 -4.000000e+02
-4.000000e+02 -4.400320e+03 1.110120e-09
-1.387970e-10 -4.400320e+03 5.478410e-10
-4.000000e+02 -4.000320e+03 1.452630e-10
-8.488730e-10 -4.000320e+03 -4.300660e-11
-1.175490e-09 -4.400320e+03 -4.000000e+02
4.000000e+02 -4.400320e+03 -4.000000e+02
-1.495830e-09 -4.000320e+03 -4.000000e+02
4.000000e+02 -4.000320e+03 -4.000000e+02
-1.387970e-10 -4.400320e+03 5.478410e-10
4.000000e+02 -4.400320e+03 1.321290e-09
-8.488730e-10 -4.000320e+03 -4.300660e-11
4.000000e+02 -4.000320e+03 1.069550e-09
-4.000000e+02 -4.000320e+03 -4.000000e+02
-1.495830e-09 -4.000320e+03 -4.000000e+02
-4.000000e+02 -3.600290e+03 -4.000000e+02
-6.584700e-11 -3.600290e+03 -4.000000e+02
-4.000000e+02 -4.000320e+03 1.452630e-10
-8.488730e-10 -4.000320e+03 -4.300660e-11
-4.000000e+02 -3.600290e+03 3.132580e-10
-4.520660e-10 -3.600290e+03 1.972940e-10
-1.495830e-09 -4.000320e+03 -4.000000e+02
4.000000e+02 -4.000320e+03 -4.000000e+02
-6.584700e-11 -3.600290e+03 -4.000000e+02
4.000000e+02 -3.600290e+03 -4.000000e+02
-8.488730e-10 -4.000320e+03 -4.300660e-11
4.000000e+02 -4.000320e+03 1.069550e-09
-4.520660e-10 -3.600290e+03 1.972940e-10
4.000000e+02 -3.600290e+03 1.633770e-10
-4.000000e+02 -3.600290e+03 -4.000000e+02
-6.584700e-11 -3.600290e+03 -4.000000e+02
-4.000000e+02 -3.200270e+03 -4.000000e+02
7.318490e-10 -3.200270e+03 -4.000000e+02
-4.000000e+02 -3.600290e+03 3.132580e-10
-4.520660e-10 -3.600290e+03 1.972940e-10
-4.000000e+02 -3.200270e+03 -9.897070e-10
1.958430e-10 -3.200270e+03 2.400530e-10
-6.584700e-11 -3.600290e+03 -4.000000e+02
4.000000e+02 -3.600290e+03 -4.000000e+02
7.318490e-10 -3.200270e+03 -4.000000e+02
4.000000e+02 -3.200270e+03 -4.000000e+02
-4.520660e-10 -3.600290e+03 1.972940e-10
4.000000e+02 -3.600290e+03 1.633770e-10
1.958430e-10 -3.200270e+03 2.400530e-10
4.000000e+02 -3.200270e+03 -8.557190e-10
-4.000000e+02 -3.200270e+03 -4.000000e+02
7.318490e-10 -3.200270e+03 -4.000000e+02
-4.000000e+02 -2.800290e+03 -4.000000e+02
9.046580e-10 -2.800290e+03 -4.000000e+02
-4.000000e+02 -3.200270e+03 -9.897070e-10
1.958430e-10 -3.200270e+03 2.400530e-10
-4.000000e+02 -2.800290e+03 -1.073790e-09
5.834570e-10 -2.800290e+03 -5.395230e-10
7.318490e-10 -3.200270e+03 -4.000000e+02
4.000000e+02 -3.200270e+03 -4.000000e+02
9.046580e-10 -2.800290e+03 -4.000000e+02
4.000000e+02 -2.800290e+03 -4.000000e+02
1.958430e-10 -3.200270e+03 2.400530e-10
4.000000e+02 -3.200270e+03 -8.557190e-10
5.834570e-10 -2.800290e+03 -5.395230e-10
4.000000e+02 -2.800290e+03 -1.473730e-09
-4.000000e+02 -2.800290e+03 -4.000000e+02
9.046580e-10 -2.800290e+03 -4.000000e+02
-4.000000e+02 -2.400310e+03 -4.000000e+02
-2.136370e-10 -2.400310e+03 -4.000000e+02
-4.000000e+02 -2.800290e+03 -1.073790e-09
5.834570e-10 -2.800290e+03 -5.395230e-10
-4.000000e+02 -2.400310e+03 1.179730e-09
8.751280e-11 -2.400310e+03 5.585690e-10
9.046580e-10 -2.800290e+03 -4.000000e+02
4.000000e+02 -2.800290e+03 -4.000000e+02
-2.136370e-10 -2.400310e+03 -4.000000e+02
4.000000e+02 -2.400310e+03 -4.000000e+02
5.834570e-10 -2.800290e+03 -5.395230e-10
4.000000e+02 -2.800290e+03 -1.473730e-09
8.751280e-11 -2.400310e+03 5.585690e-10
4.000000e+02 -2.400310e+03 -2.327700e-11
-4.000000e+02 -2.400310e+03 -4.000000e+02
-2.136370e-10 -2.400310e+03 -4.000000e+02
-4.000000e+02 -2.000300e+03 -4.000000e+02
-7.845360e-10 -2.000300e+03 -4.000000e+02
-4.000000e+02 -2.400310e+03 1.179730e-09
8.751280e-11 -2.400310e+03 5.585690e-10
-4.000000e+02 -2.000300e+03 1.034770e-09
-1.287120e-10 -2.000300e+03 8.600390e-10
-2.136370e-10 -2.400310e+03 -4.000000e+02
4.000000e+02 -2.400310e+03 -4.000000e+02
-7.845360e-10 -2.000300e+03 -4.000000e+02
4.000000e+02 -2.000300e+03 -4.000000e+02
8.751280e-11 -2.400310e+03 5.585690e-10
4.000000e+02 -2.400310e+03 -2.327700e-11
-1.287120e-10 -2.000300e+03 8.600390e-10
4.000000e+02 -2.000300e+03 -4.210080e-11
-4.000000e+02 -2.000300e+03 -4.000000e+02
-7.845360e-10 -2.000300e+03 -4.000000e+02
-4.000000e+02 -1.600290e+03 -4.000000e+02
-2.092520e-10 -1.600290e+03 -4.000000e+02
-4.000000e+02 -2.000300e+03 1.034770e-09
-1.287120e-10 -2.000300e+03 8.600390e-10
-4.000000e+02 -1.600290e+03 -6.189470e-11
2.540850e-10 -1.600290e+03 -1.970450e-10
-7.845360e-10 -2.000300e+03 -4.000000e+02
4.000000e+02 -2.000300e+03 -4.000000e+02
-2.092520e-10 -1.600290e+03 -4.000000e+02
4.000000e+02 -1.600290e+03 -4.000000e+02
-1.287120e-10 -2.000300e+03 8.600390e-10
4.000000e+02 -2.000300e+03 -4.210080e-11
2.540850e-10 -1.600290e+03 -1.970450e-10
4.000000e+02 -1.600290e+03 -8.325070e-10
-4.000000e+02 -1.600290e+03 -4.000000e+02
-2.092520e-10 -1.600290e+03 -4.000000e+02
-4.000000e+02 -1.200300e+03 -4.000000e+02
8.908280e-10 -1.200300e+03 -4.000000e+02
-4.000000e+02 -1.600290e+03 -6.189470e-11
2.540850e-10 -1.600290e+03 -1.970450e-10
-4.000000e+02 -1.200300e+03 -1.461110e-10
7.136250e-10 -1.200300e+03 -1.344360e-10
-2.092520e-10 -1.600290e+03 -4.000000e+02
4.000000e+02 -1.600290e+03 -4.000000e+02
8.908280e-10 -1.200300e+03 -4.000000e+02
4.000000e+02 -1.200300e+03 -4.000000e+02
2.540850e-10 -1.600290e+03 -1.970450e-10
4.000000e+02 -1.600290e+03 -8.325070e-10
7.136250e-10 -1.200300e+03 -1.344360e-10
4.000000e+02 -1.200300e+03 -4.633170e-10
-4.000000e+02 -1.200300e+03 -4.000000e+02
8.908280e-10 -1.200300e+03 -4.000000e+02
-4.000000e+02 -8.002980e+02 -4.000000e+02
8.725370e-10 -8.002980e+02 -4.000000e+02
-4.000000e+02 -1.200300e+03 -1.461110e-10
7.136250e-10 -1.200300e+03 -1.344360e-10
-4.000000e+02 -8.002980e+02 -1.237570e-10
1.266850e-09 -8.002980e+02 -8.241280e-10
8.908280e-10 -1.200300e+03 -4.000000e+02
4.000000e+02 -1.200300e+03 -4.000000e+02
8.725370e-10 -8.002980e+02 -4.000000e+02
4.000000e+02 -8.002980e+02 -4.000000e+02
7.136250e-10 -1.200300e+03 -1.344360e-10
4.000000e+02 -1.200300e+03 -4.633170e-10
1.266850e-09 -8.002980e+02 -8.241280e-10
4.000000e+02 -8.002980e+02 -3.000700e-10
-4.000000e+02 -8.002980e+02 -4.000000e+02
8.725370e-10 -8.002980e+02 -4.000000e+02
-4.000000e+02 -4.002960e+02 -4.000000e+02
5.594650e-10 -4.002960e+02 -4.000000e+02
-4.000000e+02 -8.002980e+02 -1.237570e-10
1.266850e-09 -8.002980e+02 -8.241280e-10
-4.000000e+02 -4.002960e+02 7.892740e-10
7.326890e-10 -4.002960e+02 1.366530e-11
8.725370e-10 -8.002980e+02 -4.000000e+02
4.000000e+02 -8.002980e+02 -4.000000e+02
5.594650e-10 -4.002960e+02 -4.000000e+02
4.000000e+02 -4.002960e+02 -4.000000e+02
1.266850e-09 -8.002980e+02 -8.241280e-10
4.000000e+02 -8.002980e+02 -3.000700e-10
7.326890e-10 -4.002960e+02 1.366530e-11
4.000000e+02 -4.002960e+02 -8.206540e-10
-4.000000e+02 -4.002960e+02 -4.000000e+02
5.594650e-10 -4.002960e+02 -4.000000e+02
-4.000000e+02 -2.971580e-01 -4.000000e+02
4.034530e-11 -2.971580e-01 -4.000000e+02
-4.000000e+02 -4.002960e+02 7.892740e-10
7.326890e-10 -4.002960e+02 1.366530e-11
-4.000000e+02 -2.971580e-01 4.462670e-10
-1.709220e-10 -2.971580e-01 5.508950e-10
5.594650e-10 -4.002960e+02 -4.000000e+02
4.000000e+02 -4.002960e+02 -4.000000e+02
4.034530e-11 -2.971580e-01 -4.000000e+02
4.000000e+02 -2.971580e-01 -4.000000e+02
[...]
<PointData>
<DataArray type="Float32" Name="V1" format="ascii">
0.000000e+00
0.000000e+00
1.272610e-09
-1.246830e-11
0.000000e+00
0.000000e+00
-1.036940e-09
-2.841810e-10
0.000000e+00
0.000000e+00
-1.246830e-11
-1.791080e-09
0.000000e+00
0.000000e+00
-2.841810e-10
1.508280e-09
1.272610e-09
-1.246830e-11
5.341830e-10
-4.548990e-10
-1.036940e-09
-2.841810e-10
1.241190e-09
-2.236790e-10
-1.246830e-11
-1.791080e-09
-4.548990e-10
2.199580e-10
-2.841810e-10
1.508280e-09
-2.236790e-10
-1.681100e-09
5.341830e-10
-4.548990e-10
-8.169850e-10
6.288930e-11
1.241190e-09
-2.236790e-10
3.142250e-09
6.319570e-10
-4.548990e-10
2.199580e-10
6.288930e-11
7.227180e-10
-2.236790e-10
-1.681100e-09
6.319570e-10
-1.099790e-10
-8.169850e-10
6.288930e-11
2.042460e-10
1.122890e-09
3.142250e-09
6.319570e-10
-1.146920e-09
5.797910e-10
6.288930e-11
7.227180e-10
1.122890e-09
8.641190e-10
6.319570e-10
-1.099790e-10
5.797910e-10
1.304030e-09
2.042460e-10
1.122890e-09
1.571130e-11
-6.888650e-11
-1.146920e-09
5.797910e-10
3.142250e-10
-2.432050e-10
1.122890e-09
8.641190e-10
-6.888650e-11
1.021230e-09
5.797910e-10
1.304030e-09
-2.432050e-10
-5.970280e-10
1.571130e-11
-6.888650e-11
0.000000e+00
4.828300e-11
3.142250e-10
-2.432050e-10
-1.146920e-09
-4.240800e-10
-6.888650e-11
1.021230e-09
4.828300e-11
-1.853930e-09
-2.432050e-10
-5.970280e-10
-4.240800e-10
-8.012740e-10
0.000000e+00
4.828300e-11
-2.152440e-09
4.842030e-10
-1.146920e-09
-4.240800e-10
1.398300e-09
9.650180e-10
4.828300e-11
-1.853930e-09
4.842030e-10
1.351170e-09
-4.240800e-10
-8.012740e-10
9.650180e-10
-1.021230e-09
-2.152440e-09
4.842030e-10
-7.541400e-10
-1.038440e-09
1.398300e-09
9.650180e-10
1.005520e-09
7.345890e-10
4.842030e-10
1.351170e-09
-1.038440e-09
1.241190e-09
9.650180e-10
-1.021230e-09
7.345890e-10
0.000000e+00
-7.541400e-10
-1.038440e-09
9.583870e-10
3.982880e-11
1.005520e-09
7.345890e-10
-9.740980e-10
7.859830e-10
-1.038440e-09
1.241190e-09
3.982880e-11
-1.618260e-09
7.345890e-10
0.000000e+00
7.859830e-10
0.000000e+00
9.583870e-10
3.982880e-11
1.194060e-09
1.169190e-09
-9.740980e-10
7.859830e-10
-4.713380e-10
3.907910e-10
3.982880e-11
-1.618260e-09
1.169190e-09
-4.713380e-11
7.859830e-10
0.000000e+00
3.907910e-10
-7.855630e-11
1.194060e-09
1.169190e-09
-1.256900e-10
1.716540e-10
-4.713380e-10
3.907910e-10
9.269640e-10
4.272390e-10
1.169190e-09
-4.713380e-11
1.716540e-10
1.036940e-09
3.907910e-10
-7.855630e-11
4.272390e-10
0.000000e+00
-1.256900e-10
1.716540e-10
3.299360e-10
-7.206490e-10
9.269640e-10
4.272390e-10
-1.398300e-09
-3.449090e-10
1.716540e-10
1.036940e-09
-7.206490e-10
-5.498940e-10
4.272390e-10
0.000000e+00
-3.449090e-10
-1.523990e-09
3.299360e-10
-7.206490e-10
-2.765180e-09
9.107860e-10
-1.398300e-09
-3.449090e-10
0.000000e+00
5.663070e-11
-7.206490e-10
-5.498940e-10
9.107860e-10
-6.284500e-11
-3.449090e-10
-1.523990e-09
5.663070e-11
-2.828030e-10
-2.765180e-09
9.107860e-10
0.000000e+00
-9.834250e-10
0.000000e+00
5.663070e-11
1.036940e-09
4.327550e-10
9.107860e-10
-6.284500e-11
-9.834250e-10
1.382590e-09
5.663070e-11
-2.828030e-10
4.327550e-10
3.142250e-11
0.000000e+00
-9.834250e-10
1.633970e-09
-1.691030e-10
1.036940e-09
4.327550e-10
-4.399150e-10
8.466110e-10
-9.834250e-10
1.382590e-09
-1.691030e-10
-2.199580e-10
4.327550e-10
3.142250e-11
8.466110e-10
-1.728240e-10
1.633970e-09
-1.691030e-10
-3.299360e-10
-8.131570e-10
-4.399150e-10
8.466110e-10
0.000000e+00
-8.865090e-11
-1.691030e-10
-2.199580e-10
-8.131570e-10
8.326970e-10
8.466110e-10
-1.728240e-10
-8.865090e-11
-5.341830e-10
-3.299360e-10
-8.131570e-10
-1.712530e-09
7.565650e-10
0.000000e+00
-8.865090e-11
0.000000e+00
1.852410e-09
-8.131570e-10
8.326970e-10
7.565650e-10
-4.242040e-10
-8.865090e-11
-5.341830e-10
1.852410e-09
1.618260e-09
-1.712530e-09
7.565650e-10
3.456480e-10
2.353190e-09
0.000000e+00
1.852410e-09
5.341830e-10
4.960440e-11
7.565650e-10
-4.242040e-10
2.353190e-09
2.058170e-09
1.852410e-09
1.618260e-09
4.960440e-11
-2.152440e-09
3.456480e-10
2.353190e-09
-2.121020e-09
-7.426090e-10
5.341830e-10
4.960440e-11
-8.641190e-10
-1.564860e-09
2.353190e-09
2.058170e-09
-7.426090e-10
-1.146920e-09
4.960440e-11
-2.152440e-09
-1.564860e-09
-1.649680e-09
-2.121020e-09
-7.426090e-10
1.382590e-09
5.436540e-10
-8.641190e-10
-1.564860e-09
6.755840e-10
1.709050e-09
-7.426090e-10
-1.146920e-09
5.436540e-10
1.728240e-10
-1.564860e-09
-1.649680e-09
1.709050e-09
2.906580e-09
1.382590e-09
5.436540e-10
4.713380e-11
-5.418230e-10
6.755840e-10
1.709050e-09
-6.755840e-10
-1.479780e-09
5.436540e-10
1.728240e-10
-5.418230e-10
-8.169850e-10
1.709050e-09
2.906580e-09
-1.479780e-09
-2.026750e-09
4.713380e-11
-5.418230e-10
-2.340980e-09
-9.467230e-10
-6.755840e-10
-1.479780e-09
0.000000e+00
1.289330e-10
-5.418230e-10
-8.169850e-10
-9.467230e-10
5.498940e-10
-1.479780e-09
-2.026750e-09
1.289330e-10
4.870490e-10
-2.340980e-09
-9.467230e-10
2.325270e-09
9.497190e-10
0.000000e+00
1.289330e-10
-3.770700e-10
-8.455390e-10
-9.467230e-10
5.498940e-10
9.497190e-10
-2.828030e-10
1.289330e-10
4.870490e-10
-8.455390e-10
-1.272610e-09
2.325270e-09
9.497190e-10
-1.005520e-09
-1.490550e-09
-3.770700e-10
-8.455390e-10
6.284500e-11
-1.060050e-09
9.497190e-10
-2.828030e-10
-1.490550e-09
-1.901060e-09
-8.455390e-10
-1.272610e-09
-1.060050e-09
-2.215290e-09
-1.005520e-09
-1.490550e-09
-2.450960e-09
-8.311160e-10
6.284500e-11
-1.060050e-09
3.613590e-10
1.815590e-09
-1.490550e-09
-1.901060e-09
-8.311160e-10
8.012740e-10
-1.060050e-09
-2.215290e-09
1.815590e-09
3.315070e-09
-2.450960e-09
-8.311160e-10
8.326970e-10
1.094300e-09
3.613590e-10
1.815590e-09
2.199580e-10
1.038350e-09
-8.311160e-10
8.012740e-10
1.094300e-09
1.398300e-09
1.815590e-09
3.315070e-09
1.038350e-09
1.948200e-09
8.326970e-10
1.094300e-09
1.633970e-09
9.807720e-10
2.199580e-10
1.038350e-09
1.146920e-09
1.910550e-10
1.094300e-09
1.398300e-09
9.807720e-10
3.299360e-10
1.038350e-09
1.948200e-09
1.910550e-10
-6.912950e-10
1.633970e-09
9.807720e-10
2.042460e-10
1.043770e-10
1.146920e-09
1.910550e-10
-1.099790e-10
-3.160070e-10
9.807720e-10
3.299360e-10
1.043770e-10
1.571130e-11
1.910550e-10
-6.912950e-10
-3.160070e-10
-4.870490e-10
2.042460e-10
1.043770e-10
6.912950e-10
5.757150e-10
-1.099790e-10
-3.160070e-10
0.000000e+00
7.168980e-12
1.043770e-10
1.571130e-11
5.757150e-10
4.713380e-10
-3.160070e-10
-4.870490e-10
7.168980e-12
0.000000e+00
6.912950e-10
5.757150e-10
2.356690e-10
1.293150e-10
0.000000e+00
7.168980e-12
-2.042460e-10
-2.458270e-10
5.757150e-10
4.713380e-10
1.293150e-10
0.000000e+00
7.168980e-12
0.000000e+00
-2.458270e-10
-2.985140e-10
0.000000e+00
0.000000e+00
-1.036940e-09
-2.841810e-10
0.000000e+00
0.000000e+00
-1.476860e-09
-1.478810e-09
0.000000e+00
0.000000e+00
-2.841810e-10
1.508280e-09
0.000000e+00
0.000000e+00
-1.478810e-09
-2.388110e-09
-1.036940e-09
-2.841810e-10
1.241190e-09
-2.236790e-10
-1.476860e-09
-1.478810e-09
1.162630e-09
4.387700e-10
-2.841810e-10
1.508280e-09
-2.236790e-10
-1.681100e-09
-1.478810e-09
-2.388110e-09
4.387700e-10
-8.169850e-10
1.241190e-09
-2.236790e-10
3.142250e-09
6.319570e-10
1.162630e-09
4.387700e-10
-2.513800e-09
-6.239780e-10
-2.236790e-10
-1.681100e-09
6.319570e-10
-1.099790e-10
4.387700e-10
-8.169850e-10
-6.239780e-10
1.539700e-09
3.142250e-09
6.319570e-10
-1.146920e-09
5.797910e-10
-2.513800e-09
-6.239780e-10
-1.571130e-09
7.517560e-10
6.319570e-10
-1.099790e-10
5.797910e-10
1.304030e-09
-6.239780e-10
1.539700e-09
7.517560e-10
3.927810e-10
-1.146920e-09
5.797910e-10
3.142250e-10
-2.432050e-10
-1.571130e-09
7.517560e-10
1.005520e-09
-3.889830e-10
5.797910e-10
1.304030e-09
-2.432050e-10
-5.970280e-10
7.517560e-10
3.927810e-10
-3.889830e-10
1.288320e-09
3.142250e-10
-2.432050e-10
-1.146920e-09
-4.240800e-10
1.005520e-09
-3.889830e-10
-1.885350e-10
5.213870e-10
-2.432050e-10
-5.970280e-10
-4.240800e-10
-8.012740e-10
-3.889830e-10
1.288320e-09
5.213870e-10
-1.256900e-10
-1.146920e-09
-4.240800e-10
1.398300e-09
9.650180e-10
-1.885350e-10
5.213870e-10
-9.269640e-10
1.204440e-09
-4.240800e-10
-8.012740e-10
9.650180e-10
-1.021230e-09
5.213870e-10
-1.256900e-10
1.204440e-09
2.529510e-09
1.398300e-09
9.650180e-10
1.005520e-09
7.345890e-10
-9.269640e-10
1.204440e-09
4.242040e-10
3.530050e-10
9.650180e-10
-1.021230e-09
7.345890e-10
0.000000e+00
1.204440e-09
2.529510e-09
3.530050e-10
-8.326970e-10
1.005520e-09
7.345890e-10
-9.740980e-10
7.859830e-10
4.242040e-10
3.530050e-10
1.005520e-09
-2.713640e-10
7.345890e-10
0.000000e+00
7.859830e-10
0.000000e+00
3.530050e-10
-8.326970e-10
-2.713640e-10
7.698510e-10
-9.740980e-10
7.859830e-10
-4.713380e-10
3.907910e-10
1.005520e-09
-2.713640e-10
2.215290e-09
2.440290e-09
7.859830e-10
0.000000e+00
3.907910e-10
-7.855630e-11
-2.713640e-10
7.698510e-10
2.440290e-09
0.000000e+00
-4.713380e-10
3.907910e-10
9.269640e-10
4.272390e-10
2.215290e-09
2.440290e-09
1.162630e-09
6.732920e-10
3.907910e-10
-7.855630e-11
4.272390e-10
0.000000e+00
2.440290e-09
0.000000e+00
6.732920e-10
2.121020e-09
9.269640e-10
4.272390e-10
-1.398300e-09
-3.449090e-10
1.162630e-09
6.732920e-10
-7.384290e-10
-8.179300e-10
4.272390e-10
0.000000e+00
-3.449090e-10
-1.523990e-09
6.732920e-10
2.121020e-09
-8.179300e-10
-1.885350e-10
-1.398300e-09
-3.449090e-10
0.000000e+00
5.663070e-11
-7.384290e-10
-8.179300e-10
-1.853930e-09
-3.957010e-10
-3.449090e-10
-1.523990e-09
5.663070e-11
-2.828030e-10
-8.179300e-10
-1.885350e-10
-3.957010e-10
2.670910e-10
0.000000e+00
5.663070e-11
1.036940e-09
4.327550e-10
-1.853930e-09
-3.957010e-10
0.000000e+00
2.276810e-10
5.663070e-11
-2.828030e-10
4.327550e-10
3.142250e-11
-3.957010e-10
2.670910e-10
2.276810e-10
3.063690e-09
1.036940e-09
4.327550e-10
-4.399150e-10
8.466110e-10
0.000000e+00
2.276810e-10
1.084080e-09
2.885090e-11
4.327550e-10
3.142250e-11
8.466110e-10
-1.728240e-10
2.276810e-10
3.063690e-09
2.885090e-11
-1.586840e-09
-4.399150e-10
8.466110e-10
0.000000e+00
-8.865090e-11
1.084080e-09
2.885090e-11
-1.838220e-09
-1.482650e-09
8.466110e-10
-1.728240e-10
-8.865090e-11
-5.341830e-10
2.885090e-11
-1.586840e-09
-1.482650e-09
-3.927810e-10
0.000000e+00
-8.865090e-11
0.000000e+00
1.852410e-09
-1.838220e-09
-1.482650e-09
2.262420e-09
1.928720e-09
-8.865090e-11
-5.341830e-10
1.852410e-09
1.618260e-09
-1.482650e-09
-3.927810e-10
1.928720e-09
2.340980e-09
0.000000e+00
1.852410e-09
5.341830e-10
4.960440e-11
2.262420e-09
1.928720e-09
0.000000e+00
-7.789490e-10
1.852410e-09
1.618260e-09
4.960440e-11
-2.152440e-09
1.928720e-09
2.340980e-09
-7.789490e-10
-2.450960e-09
5.341830e-10
4.960440e-11
-8.641190e-10
-1.564860e-09
0.000000e+00
-7.789490e-10
-1.995330e-09
7.000350e-10
4.960440e-11
-2.152440e-09
-1.564860e-09
-1.649680e-09
-7.789490e-10
-2.450960e-09
7.000350e-10
1.979620e-09
-8.641190e-10
-1.564860e-09
6.755840e-10
1.709050e-09
-1.995330e-09
7.000350e-10
1.036940e-09
2.341770e-09
-1.564860e-09
-1.649680e-09
1.709050e-09
2.906580e-09
7.000350e-10
1.979620e-09
2.341770e-09
3.629300e-09
6.755840e-10
1.709050e-09
-6.755840e-10
-1.479780e-09
1.036940e-09
2.341770e-09
-6.441610e-10
-2.457460e-09
1.709050e-09
2.906580e-09
-1.479780e-09
-2.026750e-09
2.341770e-09
3.629300e-09
-2.457460e-09
-4.257750e-09
-6.755840e-10
-1.479780e-09
0.000000e+00
1.289330e-10
-6.441610e-10
-2.457460e-09
2.828030e-10
1.007130e-09
-1.479780e-09
-2.026750e-09
1.289330e-10
4.870490e-10
-2.457460e-09
-4.257750e-09
1.007130e-09
1.979620e-09
0.000000e+00
1.289330e-10
-3.770700e-10
-8.455390e-10
2.828030e-10
1.007130e-09
-2.168150e-09
-2.431110e-09
1.289330e-10
4.870490e-10
-8.455390e-10
-1.272610e-09
1.007130e-09
1.979620e-09
-2.431110e-09
-2.639490e-09
-3.770700e-10
-8.455390e-10
6.284500e-11
-1.060050e-09
-2.168150e-09
-2.431110e-09
-1.099790e-10
-1.039020e-09
-8.455390e-10
-1.272610e-09
-1.060050e-09
-2.215290e-09
-2.431110e-09
-2.639490e-09
-1.039020e-09
-1.963910e-09
6.284500e-11
-1.060050e-09
3.613590e-10
1.815590e-09
-1.099790e-10
-1.039020e-09
2.199580e-09
4.362480e-09
-1.060050e-09
-2.215290e-09
1.815590e-09
3.315070e-09
-1.039020e-09
-1.963910e-09
4.362480e-09
6.504460e-09
3.613590e-10
1.815590e-09
2.199580e-10
1.038350e-09
2.199580e-09
4.362480e-09
7.384290e-10
1.087620e-09
1.815590e-09
3.315070e-09
1.038350e-09
1.948200e-09
4.362480e-09
6.504460e-09
1.087620e-09
1.492570e-09
2.199580e-10
1.038350e-09
1.146920e-09
1.910550e-10
7.384290e-10
1.087620e-09
1.885350e-10
-6.734610e-10
1.038350e-09
1.948200e-09
1.910550e-10
-6.912950e-10
1.087620e-09
1.492570e-09
-6.734610e-10
-1.508280e-09
1.146920e-09
1.910550e-10
-1.099790e-10
-3.160070e-10
1.885350e-10
-6.734610e-10
-7.384290e-10
-8.462650e-10
1.910550e-10
-6.912950e-10
-3.160070e-10
-4.870490e-10
-6.734610e-10
-1.508280e-09
-8.462650e-10
-8.955420e-10
-1.099790e-10
-3.160070e-10
0.000000e+00
7.168980e-12
-7.384290e-10
-8.462650e-10
-1.571130e-10
-5.167420e-10
-3.160070e-10
-4.870490e-10
7.168980e-12
0.000000e+00
-8.462650e-10
-8.955420e-10
-5.167420e-10
-8.798300e-10
0.000000e+00
7.168980e-12
-2.042460e-10
-2.458270e-10
-1.571130e-10
-5.167420e-10
-4.713380e-10
-5.650780e-10
7.168980e-12
0.000000e+00
-2.458270e-10
-2.985140e-10
-5.167420e-10
-8.798300e-10
-5.650780e-10
-6.912950e-10
</DataArray>
<DataArray type="Float32" Name="V2" format="ascii">
0.000000e+00
0.000000e+00
2.735990e-02
2.735990e-02
0.000000e+00
0.000000e+00
2.735990e-02
2.735990e-02
0.000000e+00
0.000000e+00
2.735990e-02
2.735990e-02
0.000000e+00
0.000000e+00
2.735990e-02
2.735990e-02
2.735990e-02
2.735990e-02
4.518860e-02
4.518860e-02
2.735990e-02
2.735990e-02
4.518860e-02
4.518860e-02
2.735990e-02
2.735990e-02
4.518860e-02
4.518860e-02
2.735990e-02
2.735990e-02
4.518860e-02
4.518860e-02
4.518860e-02
4.518860e-02
3.594490e-02
3.594490e-02
4.518860e-02
4.518860e-02
3.594490e-02
3.594490e-02
4.518860e-02
4.518860e-02
3.594490e-02
3.594490e-02
4.518860e-02
4.518860e-02
3.594490e-02
3.594490e-02
3.594490e-02
3.594490e-02
6.842180e-03
6.842180e-03
3.594490e-02
3.594490e-02
6.842180e-03
6.842180e-03
3.594490e-02
3.594490e-02
6.842180e-03
6.842180e-03
3.594490e-02
3.594490e-02
6.842180e-03
6.842180e-03
6.842180e-03
6.842180e-03
-2.109990e-02
-2.109990e-02
6.842180e-03
6.842180e-03
-2.109990e-02
-2.109990e-02
6.842180e-03
6.842180e-03
-2.109990e-02
-2.109990e-02
6.842180e-03
6.842180e-03
-2.109990e-02
-2.109990e-02
-2.109990e-02
-2.109990e-02
-2.407480e-02
-2.407480e-02
-2.109990e-02
-2.109990e-02
-2.407480e-02
-2.407480e-02
-2.109990e-02
-2.109990e-02
-2.407480e-02
-2.407480e-02
-2.109990e-02
-2.109990e-02
-2.407480e-02
-2.407480e-02
-2.407480e-02
-2.407480e-02
2.891150e-03
2.891140e-03
-2.407480e-02
-2.407480e-02
2.891150e-03
2.891150e-03
-2.407480e-02
-2.407480e-02
2.891140e-03
2.891150e-03
-2.407480e-02
-2.407480e-02
2.891150e-03
2.891140e-03
2.891150e-03
2.891140e-03
1.651220e-02
1.651220e-02
2.891150e-03
2.891150e-03
1.651220e-02
1.651220e-02
2.891140e-03
2.891150e-03
1.651220e-02
1.651220e-02
2.891150e-03
2.891140e-03
1.651220e-02
1.651220e-02
1.651220e-02
1.651220e-02
-3.373680e-03
-3.373690e-03
1.651220e-02
1.651220e-02
-3.373680e-03
-3.373680e-03
1.651220e-02
1.651220e-02
-3.373690e-03
-3.373680e-03
1.651220e-02
1.651220e-02
-3.373680e-03
-3.373690e-03
-3.373680e-03
-3.373690e-03
-8.923290e-03
-8.923290e-03
-3.373680e-03
-3.373680e-03
-8.923290e-03
-8.923290e-03
-3.373690e-03
-3.373680e-03
-8.923290e-03
-8.923290e-03
-3.373680e-03
-3.373690e-03
-8.923290e-03
-8.923290e-03
-8.923290e-03
-8.923290e-03
3.619180e-03
3.619180e-03
-8.923290e-03
-8.923290e-03
3.619180e-03
3.619180e-03
-8.923290e-03
-8.923290e-03
3.619180e-03
3.619180e-03
-8.923290e-03
-8.923290e-03
3.619180e-03
3.619180e-03
3.619180e-03
3.619180e-03
2.696650e-03
2.696650e-03
3.619180e-03
3.619180e-03
2.696650e-03
2.696650e-03
3.619180e-03
3.619180e-03
2.696650e-03
2.696650e-03
3.619180e-03
3.619180e-03
2.696650e-03
2.696650e-03
2.696650e-03
2.696650e-03
-2.354640e-03
-2.354650e-03
2.696650e-03
2.696650e-03
-2.354650e-03
-2.354650e-03
2.696650e-03
2.696650e-03
-2.354650e-03
-2.354640e-03
2.696650e-03
2.696650e-03
-2.354650e-03
-2.354640e-03
-2.354640e-03
-2.354650e-03
-1.978020e-04
-1.977960e-04
-2.354650e-03
-2.354650e-03
-1.978010e-04
-1.977960e-04
-2.354650e-03
-2.354640e-03
-1.977960e-04
-1.977990e-04
-2.354650e-03
-2.354640e-03
-1.977960e-04
-1.977970e-04
-1.978020e-04
-1.977960e-04
4.874770e-04
4.874760e-04
-1.978010e-04
-1.977960e-04
4.874790e-04
4.874760e-04
-1.977960e-04
-1.977990e-04
4.874760e-04
4.874790e-04
-1.977960e-04
-1.977970e-04
4.874760e-04
4.874780e-04
4.874770e-04
4.874760e-04
-6.410950e-04
-6.410990e-04
4.874790e-04
4.874760e-04
-6.410970e-04
-6.410970e-04
4.874760e-04
4.874790e-04
-6.410990e-04
-6.410940e-04
4.874760e-04
4.874780e-04
-6.410970e-04
-6.410970e-04
-6.410950e-04
-6.410990e-04
-3.953340e-05
-3.953180e-05
-6.410970e-04
-6.410970e-04
-3.953280e-05
-3.953120e-05
-6.410990e-04
-6.410940e-04
-3.953180e-05
-3.953630e-05
-6.410970e-04
-6.410970e-04
-3.953120e-05
-3.952640e-05
-3.953340e-05
-3.953180e-05
-1.631610e-05
-1.631460e-05
-3.953280e-05
-3.953120e-05
-1.631330e-05
-1.631640e-05
-3.953180e-05
-3.953630e-05
-1.631460e-05
-1.631210e-05
-3.953120e-05
-3.952640e-05
-1.631640e-05
-1.632070e-05
-1.631610e-05
-1.631460e-05
-2.625220e-04
-2.625270e-04
-1.631330e-05
-1.631640e-05
-2.625270e-04
-2.625270e-04
-1.631460e-05
-1.631210e-05
-2.625270e-04
-2.625280e-04
-1.631640e-05
-1.632070e-05
-2.625270e-04
-2.625250e-04
-2.625220e-04
-2.625270e-04
-4.226770e-04
-4.226810e-04
-2.625270e-04
-2.625270e-04
-4.226830e-04
-4.226770e-04
-2.625270e-04
-2.625280e-04
-4.226810e-04
-4.226740e-04
-2.625270e-04
-2.625250e-04
-4.226770e-04
-4.226740e-04
-4.226770e-04
-4.226810e-04
-3.940260e-04
-3.940120e-04
-4.226830e-04
-4.226770e-04
-3.940110e-04
-3.940230e-04
-4.226810e-04
-4.226740e-04
-3.940120e-04
-3.940260e-04
-4.226770e-04
-4.226740e-04
-3.940230e-04
-3.940200e-04
-3.940260e-04
-3.940120e-04
-3.437440e-04
-3.437740e-04
-3.940110e-04
-3.940230e-04
-3.437740e-04
-3.437620e-04
-3.940120e-04
-3.940260e-04
-3.437740e-04
-3.437700e-04
-3.940230e-04
-3.940200e-04
-3.437620e-04
-3.437680e-04
-3.437440e-04
-3.437740e-04
-5.024540e-04
-5.024250e-04
-3.437740e-04
-3.437620e-04
-5.024280e-04
-5.024430e-04
-3.437740e-04
-3.437700e-04
-5.024250e-04
-5.024310e-04
-3.437620e-04
-3.437680e-04
-5.024430e-04
-5.024510e-04
-5.024540e-04
-5.024250e-04
-4.387680e-04
-4.387720e-04
-5.024280e-04
-5.024430e-04
-4.387690e-04
-4.387680e-04
-5.024250e-04
-5.024310e-04
-4.387720e-04
-4.387850e-04
-5.024430e-04
-5.024510e-04
-4.387680e-04
-4.387630e-04
-4.387680e-04
-4.387720e-04
-6.756040e-04
-6.756460e-04
-4.387690e-04
-4.387680e-04
-6.756470e-04
-6.756330e-04
-4.387720e-04
-4.387850e-04
-6.756460e-04
-6.756210e-04
-4.387680e-04
-4.387630e-04
-6.756330e-04
-6.756200e-04
-6.756040e-04
-6.756460e-04
-1.534830e-04
-1.534400e-04
-6.756470e-04
-6.756330e-04
-1.534430e-04
-1.534450e-04
-6.756460e-04
-6.756210e-04
-1.534400e-04
-1.534420e-04
-6.756330e-04
-6.756200e-04
-1.534450e-04
-1.534520e-04
-1.534830e-04
-1.534400e-04
9.152950e-05
9.150210e-05
-1.534430e-04
-1.534450e-04
9.150590e-05
9.150130e-05
-1.534400e-04
-1.534420e-04
9.150210e-05
9.148850e-05
-1.534450e-04
-1.534520e-04
9.150130e-05
9.149730e-05
9.152950e-05
9.150210e-05
-5.365560e-05
-5.365280e-05
9.150590e-05
9.150130e-05
-5.365380e-05
-5.364900e-05
9.150210e-05
9.148850e-05
-5.365280e-05
-5.364830e-05
9.150130e-05
9.149730e-05
-5.364900e-05
-5.364930e-05
-5.365560e-05
-5.365280e-05
-8.025210e-05
-8.024760e-05
-5.365380e-05
-5.364900e-05
-8.024880e-05
-8.024830e-05
-5.365280e-05
-5.364830e-05
-8.024760e-05
-8.024550e-05
-5.364900e-05
-5.364930e-05
-8.024830e-05
-8.024710e-05
-8.025210e-05
-8.024760e-05
5.161720e-04
5.161720e-04
-8.024880e-05
-8.024830e-05
5.161720e-04
5.161730e-04
-8.024760e-05
-8.024550e-05
5.161720e-04
5.161720e-04
-8.024830e-05
-8.024710e-05
5.161730e-04
5.161740e-04
0.000000e+00
0.000000e+00
2.735990e-02
2.735990e-02
0.000000e+00
0.000000e+00
2.735990e-02
2.735990e-02
0.000000e+00
0.000000e+00
2.735990e-02
2.735990e-02
0.000000e+00
0.000000e+00
2.735990e-02
2.735990e-02
2.735990e-02
2.735990e-02
4.518860e-02
4.518860e-02
2.735990e-02
2.735990e-02
4.518860e-02
4.518860e-02
2.735990e-02
2.735990e-02
4.518860e-02
4.518860e-02
2.735990e-02
2.735990e-02
4.518860e-02
4.518860e-02