<?xml version="1.0"?>
<VTKFile type="UnstructuredGrid" version="0.1" byte_order="LittleEndian" compressor="vtkZLibDataCompressor">
<UnstructuredGrid>
<Piece NumberOfPoints="960" NumberOfCells="120">
<Points>
<DataArray type="Float32" NumberOfComponents="3" format="ascii">
-4.000000e+02 -6.000000e+03 -4.000000e+02
0.000000e+00 -6.000000e+03 -4.000000e+02
-3.999600e+02 -5.600040e+03 -4.004470e+02
3.941860e-02 -5.600120e+03 -4.003290e+02
-4.000000e+02 -6.000000e+03 0.000000e+00
0.000000e+00 -6.000000e+03 0.000000e+00
-4.000490e+02 -5.600000e+03 -2.203010e-01
-4.949420e-02 -5.599980e+03 -2.191720e-01
0.000000e+00 -6.000000e+03 -4.000000e+02
4.000000e+02 -6.000000e+03 -4.000000e+02
3.941860e-02 -5.600120e+03 -4.003290e+02
4.000390e+02 -5.600190e+03 -4.002140e+02
0.000000e+00 -6.000000e+03 0.000000e+00
4.000000e+02 -6.000000e+03 0.000000e+00
-4.949420e-02 -5.599980e+03 -2.191720e-01
3.999500e+02 -5.599960e+03 -2.176290e-01
-3.999600e+02 -5.600040e+03 -4.004470e+02
3.941860e-02 -5.600120e+03 -4.003290e+02
-3.999820e+02 -5.200060e+03 -4.002610e+02
1.795230e-02 -5.200070e+03 -4.001200e+02
-4.000490e+02 -5.600000e+03 -2.203010e-01
-4.949420e-02 -5.599980e+03 -2.191720e-01
-3.999920e+02 -5.200070e+03 -3.191160e-01
8.886960e-03 -5.200030e+03 -2.885690e-01
3.941860e-02 -5.600120e+03 -4.003290e+02
4.000390e+02 -5.600190e+03 -4.002140e+02
1.795230e-02 -5.200070e+03 -4.001200e+02
4.000170e+02 -5.200080e+03 -3.999770e+02
-4.949420e-02 -5.599980e+03 -2.191720e-01
3.999500e+02 -5.599960e+03 -2.176290e-01
8.886960e-03 -5.200030e+03 -2.885690e-01
4.000090e+02 -5.200000e+03 -2.583930e-01
-3.999820e+02 -5.200060e+03 -4.002610e+02
1.795230e-02 -5.200070e+03 -4.001200e+02
-4.000480e+02 -4.800150e+03 -4.002250e+02
-4.734300e-02 -4.800070e+03 -4.003340e+02
-3.999920e+02 -5.200070e+03 -3.191160e-01
8.886960e-03 -5.200030e+03 -2.885690e-01
-4.000310e+02 -4.799960e+03 -2.143740e-01
-3.087630e-02 -4.800010e+03 -1.364420e-01
1.795230e-02 -5.200070e+03 -4.001200e+02
4.000170e+02 -5.200080e+03 -3.999770e+02
-4.734300e-02 -4.800070e+03 -4.003340e+02
3.999530e+02 -4.799990e+03 -4.004420e+02
8.886960e-03 -5.200030e+03 -2.885690e-01
4.000090e+02 -5.200000e+03 -2.583930e-01
-3.087630e-02 -4.800010e+03 -1.364420e-01
3.999690e+02 -4.800050e+03 -6.106520e-02
-4.000480e+02 -4.800150e+03 -4.002250e+02
-4.734300e-02 -4.800070e+03 -4.003340e+02
-4.000850e+02 -4.399890e+03 -4.006370e+02
-8.430680e-02 -4.400000e+03 -4.004620e+02
-4.000310e+02 -4.799960e+03 -2.143740e-01
-3.087630e-02 -4.800010e+03 -1.364420e-01
-4.000280e+02 -4.400030e+03 -1.665950e-01
-2.808190e-02 -4.400000e+03 -2.967260e-01
-4.734300e-02 -4.800070e+03 -4.003340e+02
3.999530e+02 -4.799990e+03 -4.004420e+02
-8.430680e-02 -4.400000e+03 -4.004620e+02
3.999160e+02 -4.400110e+03 -4.002840e+02
-3.087630e-02 -4.800010e+03 -1.364420e-01
3.999690e+02 -4.800050e+03 -6.106520e-02
-2.808190e-02 -4.400000e+03 -2.967260e-01
3.999710e+02 -4.399970e+03 -4.273500e-01
-4.000850e+02 -4.399890e+03 -4.006370e+02
-8.430680e-02 -4.400000e+03 -4.004620e+02
-4.001560e+02 -4.000010e+03 -4.005100e+02
-1.563990e-01 -4.000090e+03 -4.006380e+02
-4.000280e+02 -4.400030e+03 -1.665950e-01
-2.808190e-02 -4.400000e+03 -2.967260e-01
-3.999910e+02 -4.000050e+03 -1.817450e-01
9.463200e-03 -4.000010e+03 -3.992670e-01
-8.430680e-02 -4.400000e+03 -4.004620e+02
3.999160e+02 -4.400110e+03 -4.002840e+02
-1.563990e-01 -4.000090e+03 -4.006380e+02
3.998440e+02 -4.000160e+03 -4.007700e+02
-2.808190e-02 -4.400000e+03 -2.967260e-01
3.999710e+02 -4.399970e+03 -4.273500e-01
9.463200e-03 -4.000010e+03 -3.992670e-01
4.000100e+02 -3.999980e+03 -6.165480e-01
-4.001560e+02 -4.000010e+03 -4.005100e+02
-1.563990e-01 -4.000090e+03 -4.006380e+02
-4.001620e+02 -3.600390e+03 -4.005130e+02
-1.613860e-01 -3.600240e+03 -4.007100e+02
-3.999910e+02 -4.000050e+03 -1.817450e-01
9.463200e-03 -4.000010e+03 -3.992670e-01
-3.999610e+02 -3.599950e+03 -6.960490e-01
3.911160e-02 -3.600030e+03 -8.020150e-01
-1.563990e-01 -4.000090e+03 -4.006380e+02
3.998440e+02 -4.000160e+03 -4.007700e+02
-1.613860e-01 -3.600240e+03 -4.007100e+02
3.998390e+02 -3.600100e+03 -4.009070e+02
9.463200e-03 -4.000010e+03 -3.992670e-01
4.000100e+02 -3.999980e+03 -6.165480e-01
3.911160e-02 -3.600030e+03 -8.020150e-01
4.000390e+02 -3.600110e+03 -9.079250e-01
-4.001620e+02 -3.600390e+03 -4.005130e+02
-1.613860e-01 -3.600240e+03 -4.007100e+02
-4.001720e+02 -3.200400e+03 -4.008710e+02
-1.721160e-01 -3.200370e+03 -4.010740e+02
-3.999610e+02 -3.599950e+03 -6.960490e-01
3.911160e-02 -3.600030e+03 -8.020150e-01
-4.000200e+02 -3.199950e+03 -6.577540e-01
-2.001930e-02 -3.199950e+03 -8.801280e-01
-1.613860e-01 -3.600240e+03 -4.007100e+02
3.998390e+02 -3.600100e+03 -4.009070e+02
-1.721160e-01 -3.200370e+03 -4.010740e+02
3.998280e+02 -3.200340e+03 -4.012750e+02
3.911160e-02 -3.600030e+03 -8.020150e-01
4.000390e+02 -3.600110e+03 -9.079250e-01
-2.001930e-02 -3.199950e+03 -8.801280e-01
3.999800e+02 -3.199960e+03 -1.103010e+00
-4.001720e+02 -3.200400e+03 -4.008710e+02
-1.721160e-01 -3.200370e+03 -4.010740e+02
-4.000620e+02 -2.800150e+03 -4.010940e+02
-6.134360e-02 -2.800180e+03 -4.012100e+02
-4.000200e+02 -3.199950e+03 -6.577540e-01
-2.001930e-02 -3.199950e+03 -8.801280e-01
-4.000410e+02 -2.800050e+03 -1.103260e+00
-4.051310e-02 -2.800010e+03 -1.116830e+00
-1.721160e-01 -3.200370e+03 -4.010740e+02
3.998280e+02 -3.200340e+03 -4.012750e+02
-6.134360e-02 -2.800180e+03 -4.012100e+02
3.999390e+02 -2.800200e+03 -4.013250e+02
-2.001930e-02 -3.199950e+03 -8.801280e-01
3.999800e+02 -3.199960e+03 -1.103010e+00
-4.051310e-02 -2.800010e+03 -1.116830e+00
3.999590e+02 -2.799970e+03 -1.131310e+00
-4.000620e+02 -2.800150e+03 -4.010940e+02
-6.134360e-02 -2.800180e+03 -4.012100e+02
-3.999530e+02 -2.400150e+03 -4.013280e+02
4.709490e-02 -2.400110e+03 -4.012210e+02
-4.000410e+02 -2.800050e+03 -1.103260e+00
-4.051310e-02 -2.800010e+03 -1.116830e+00
-3.999850e+02 -2.399900e+03 -1.336660e+00
1.551590e-02 -2.399970e+03 -1.401520e+00
-6.134360e-02 -2.800180e+03 -4.012100e+02
3.999390e+02 -2.800200e+03 -4.013250e+02
4.709490e-02 -2.400110e+03 -4.012210e+02
4.000470e+02 -2.400060e+03 -4.011170e+02
-4.051310e-02 -2.800010e+03 -1.116830e+00
3.999590e+02 -2.799970e+03 -1.131310e+00
1.551590e-02 -2.399970e+03 -1.401520e+00
4.000160e+02 -2.400050e+03 -1.468070e+00
-3.999530e+02 -2.400150e+03 -4.013280e+02
4.709490e-02 -2.400110e+03 -4.012210e+02
-3.999010e+02 -1.999860e+03 -4.014110e+02
9.901100e-02 -1.999990e+03 -4.013650e+02
-3.999850e+02 -2.399900e+03 -1.336660e+00
1.551590e-02 -2.399970e+03 -1.401520e+00
-3.999870e+02 -2.000090e+03 -1.472670e+00
1.284560e-02 -2.000070e+03 -1.288600e+00
4.709490e-02 -2.400110e+03 -4.012210e+02
4.000470e+02 -2.400060e+03 -4.011170e+02
9.901100e-02 -1.999990e+03 -4.013650e+02
4.000990e+02 -2.000110e+03 -4.013180e+02
1.551590e-02 -2.399970e+03 -1.401520e+00
4.000160e+02 -2.400050e+03 -1.468070e+00
1.284560e-02 -2.000070e+03 -1.288600e+00
4.000120e+02 -2.000050e+03 -1.103600e+00
-3.999010e+02 -1.999860e+03 -4.014110e+02
9.901100e-02 -1.999990e+03 -4.013650e+02
-3.998610e+02 -1.599950e+03 -4.012810e+02
1.385860e-01 -1.600040e+03 -4.010980e+02
-3.999870e+02 -2.000090e+03 -1.472670e+00
1.284560e-02 -2.000070e+03 -1.288600e+00
-4.000290e+02 -1.600130e+03 -1.524820e+00
-2.865410e-02 -1.600080e+03 -1.479710e+00
9.901100e-02 -1.999990e+03 -4.013650e+02
4.000990e+02 -2.000110e+03 -4.013180e+02
1.385860e-01 -1.600040e+03 -4.010980e+02
4.001380e+02 -1.600130e+03 -4.009140e+02
1.284560e-02 -2.000070e+03 -1.288600e+00
4.000120e+02 -2.000050e+03 -1.103600e+00
-2.865410e-02 -1.600080e+03 -1.479710e+00
3.999710e+02 -1.600020e+03 -1.435520e+00
-3.998610e+02 -1.599950e+03 -4.012810e+02
1.385860e-01 -1.600040e+03 -4.010980e+02
-3.999590e+02 -1.200270e+03 -4.017130e+02
4.037290e-02 -1.200200e+03 -4.016200e+02
-4.000290e+02 -1.600130e+03 -1.524820e+00
-2.865410e-02 -1.600080e+03 -1.479710e+00
-3.999760e+02 -1.199870e+03 -1.551220e+00
2.409650e-02 -1.199920e+03 -1.447550e+00
1.385860e-01 -1.600040e+03 -4.010980e+02
4.001380e+02 -1.600130e+03 -4.009140e+02
4.037290e-02 -1.200200e+03 -4.016200e+02
4.000400e+02 -1.200120e+03 -4.015240e+02
-2.865410e-02 -1.600080e+03 -1.479710e+00
3.999710e+02 -1.600020e+03 -1.435520e+00
2.409650e-02 -1.199920e+03 -1.447550e+00
4.000240e+02 -1.199970e+03 -1.343220e+00
-3.999590e+02 -1.200270e+03 -4.017130e+02
4.037290e-02 -1.200200e+03 -4.016200e+02
-4.000010e+02 -8.002060e+02 -4.016500e+02
-1.290930e-03 -8.001450e+02 -4.016980e+02
-3.999760e+02 -1.199870e+03 -1.551220e+00
2.409650e-02 -1.199920e+03 -1.447550e+00
-3.999990e+02 -7.999070e+02 -1.738430e+00
1.675620e-03 -7.999530e+02 -1.713940e+00
4.037290e-02 -1.200200e+03 -4.016200e+02
4.000400e+02 -1.200120e+03 -4.015240e+02
-1.290930e-03 -8.001450e+02 -4.016980e+02
3.999990e+02 -8.000840e+02 -4.017460e+02
2.409650e-02 -1.199920e+03 -1.447550e+00
4.000240e+02 -1.199970e+03 -1.343220e+00
1.675620e-03 -7.999530e+02 -1.713940e+00
4.000020e+02 -7.999960e+02 -1.689630e+00
-4.000010e+02 -8.002060e+02 -4.016500e+02
-1.290930e-03 -8.001450e+02 -4.016980e+02
-4.000900e+02 -4.001210e+02 -4.015440e+02
-9.004500e-02 -4.001620e+02 -4.016130e+02
-3.999990e+02 -7.999070e+02 -1.738430e+00
1.675620e-03 -7.999530e+02 -1.713940e+00
-4.000010e+02 -3.999670e+02 -1.900390e+00
-1.615300e-03 -3.999600e+02 -1.955660e+00
-1.290930e-03 -8.001450e+02 -4.016980e+02
3.999990e+02 -8.000840e+02 -4.017460e+02
-9.004500e-02 -4.001620e+02 -4.016130e+02
3.999100e+02 -4.002040e+02 -4.016840e+02
1.675620e-03 -7.999530e+02 -1.713940e+00
4.000020e+02 -7.999960e+02 -1.689630e+00
-1.615300e-03 -3.999600e+02 -1.955660e+00
3.999980e+02 -3.999510e+02 -2.012010e+00
-4.000900e+02 -4.001210e+02 -4.015440e+02
-9.004500e-02 -4.001620e+02 -4.016130e+02
-4.001990e+02 1.053680e-02 -4.018890e+02
-1.989370e-01 -2.469290e-02 -4.021260e+02
-4.000010e+02 -3.999670e+02 -1.900390e+00
-1.615300e-03 -3.999600e+02 -1.955660e+00
-3.999260e+02 -8.837620e-02 -1.640660e+00
7.359960e-02 -6.760460e-02 -1.676500e+00
-9.004500e-02 -4.001620e+02 -4.016130e+02
3.999100e+02 -4.002040e+02 -4.016840e+02
[...]
<PointData>
<DataArray type="Float32" Name="V1" format="ascii">
0.000000e+00
0.000000e+00
3.225810e-02
3.241790e-02
0.000000e+00
0.000000e+00
-3.911150e-02
-3.880790e-02
0.000000e+00
0.000000e+00
3.241790e-02
3.251840e-02
0.000000e+00
0.000000e+00
-3.880790e-02
-3.852500e-02
3.225810e-02
3.241790e-02
-8.722270e-02
-8.735120e-02
-3.911150e-02
-3.880790e-02
9.722370e-02
9.558600e-02
3.241790e-02
3.251840e-02
-8.735120e-02
-8.745430e-02
-3.880790e-02
-3.852500e-02
9.558600e-02
9.396600e-02
-8.722270e-02
-8.735120e-02
-5.292450e-02
-5.530830e-02
9.722370e-02
9.558600e-02
3.641120e-02
3.845730e-02
-8.735120e-02
-8.745430e-02
-5.530830e-02
-5.764210e-02
9.558600e-02
9.396600e-02
3.845730e-02
4.050720e-02
-5.292450e-02
-5.530830e-02
-3.303730e-02
-3.170370e-02
3.641120e-02
3.845730e-02
2.649510e-02
2.563910e-02
-5.530830e-02
-5.764210e-02
-3.170370e-02
-3.041250e-02
3.845730e-02
4.050720e-02
2.563910e-02
2.473430e-02
-3.303730e-02
-3.170370e-02
-3.641770e-02
-3.795910e-02
2.649510e-02
2.563910e-02
-3.946940e-03
-2.690310e-03
-3.170370e-02
-3.041250e-02
-3.795910e-02
-3.955980e-02
2.563910e-02
2.473430e-02
-2.690310e-03
-1.372270e-03
-3.641770e-02
-3.795910e-02
-9.849650e-02
-9.684990e-02
-3.946940e-03
-2.690310e-03
7.370260e-02
7.328400e-02
-3.795910e-02
-3.955980e-02
-9.684990e-02
-9.507920e-02
-2.690310e-03
-1.372270e-03
7.328400e-02
7.283710e-02
-9.849650e-02
-9.684990e-02
-4.241700e-02
-4.298020e-02
7.370260e-02
7.328400e-02
-3.444750e-02
-3.455990e-02
-9.684990e-02
-9.507920e-02
-4.298020e-02
-4.360600e-02
7.328400e-02
7.283710e-02
-3.455990e-02
-3.464460e-02
-4.241700e-02
-4.298020e-02
-1.394170e-02
-1.454220e-02
-3.444750e-02
-3.455990e-02
-6.835530e-02
-6.891780e-02
-4.298020e-02
-4.360600e-02
-1.454220e-02
-1.515100e-02
-3.455990e-02
-3.464460e-02
-6.891780e-02
-6.950340e-02
-1.394170e-02
-1.454220e-02
4.691720e-02
4.899350e-02
-6.835530e-02
-6.891780e-02
2.836820e-02
2.743780e-02
-1.454220e-02
-1.515100e-02
4.899350e-02
5.108300e-02
-6.891780e-02
-6.950340e-02
2.743780e-02
2.647010e-02
4.691720e-02
4.899350e-02
2.156900e-02
1.938640e-02
2.836820e-02
2.743780e-02
3.291650e-03
4.915620e-03
4.899350e-02
5.108300e-02
1.938640e-02
1.734210e-02
2.743780e-02
2.647010e-02
4.915620e-03
6.550880e-03
2.156900e-02
1.938640e-02
1.754480e-02
1.951690e-02
3.291650e-03
4.915620e-03
7.269950e-02
7.168600e-02
1.938640e-02
1.734210e-02
1.951690e-02
2.138590e-02
4.915620e-03
6.550880e-03
7.168600e-02
7.067790e-02
1.754480e-02
1.951690e-02
2.271760e-02
2.097670e-02
7.269950e-02
7.168600e-02
1.715630e-02
1.828400e-02
1.951690e-02
2.138590e-02
2.097670e-02
1.923630e-02
7.168600e-02
7.067790e-02
1.828400e-02
1.943320e-02
2.271760e-02
2.097670e-02
2.112840e-02
2.070540e-02
1.715630e-02
1.828400e-02
-4.075040e-02
-4.162360e-02
2.097670e-02
1.923630e-02
2.070540e-02
2.037410e-02
1.828400e-02
1.943320e-02
-4.162360e-02
-4.250720e-02
2.112840e-02
2.070540e-02
4.482940e-02
4.529590e-02
-4.075040e-02
-4.162360e-02
-9.520640e-02
-9.402510e-02
2.070540e-02
2.037410e-02
4.529590e-02
4.570740e-02
-4.162360e-02
-4.250720e-02
-9.402510e-02
-9.286500e-02
4.482940e-02
4.529590e-02
-1.127450e-01
-1.115460e-01
-9.520640e-02
-9.402510e-02
1.591150e-01
1.574670e-01
4.529590e-02
4.570740e-02
-1.115460e-01
-1.104340e-01
-9.402510e-02
-9.286500e-02
1.574670e-01
1.558420e-01
-1.127450e-01
-1.115460e-01
1.624510e-02
1.715680e-02
1.591150e-01
1.574670e-01
-2.742700e-02
-2.817990e-02
-1.115460e-01
-1.104340e-01
1.715680e-02
1.805550e-02
1.574670e-01
1.558420e-01
-2.817990e-02
-2.895990e-02
1.624510e-02
1.715680e-02
9.460580e-02
9.429520e-02
-2.742700e-02
-2.817990e-02
-6.563410e-02
-6.540830e-02
1.715680e-02
1.805550e-02
9.429520e-02
9.404120e-02
-2.817990e-02
-2.895990e-02
-6.540830e-02
-6.519100e-02
9.460580e-02
9.429520e-02
-2.575540e-03
-3.452580e-03
-6.563410e-02
-6.540830e-02
3.386470e-02
3.390520e-02
9.429520e-02
9.404120e-02
-3.452580e-03
-4.419710e-03
-6.540830e-02
-6.519100e-02
3.390520e-02
3.396170e-02
-2.575540e-03
-3.452580e-03
3.674920e-03
3.598810e-03
3.386470e-02
3.390520e-02
3.054110e-03
3.566110e-03
-3.452580e-03
-4.419710e-03
3.598810e-03
3.569620e-03
3.390520e-02
3.396170e-02
3.566110e-03
4.074310e-03
3.674920e-03
3.598810e-03
6.477400e-02
6.531700e-02
3.054110e-03
3.566110e-03
-5.179820e-02
-5.188120e-02
3.598810e-03
3.569620e-03
6.531700e-02
6.596770e-02
3.566110e-03
4.074310e-03
-5.188120e-02
-5.199000e-02
6.477400e-02
6.531700e-02
-6.064660e-02
-6.126680e-02
-5.179820e-02
-5.188120e-02
-5.063460e-02
-5.063900e-02
6.531700e-02
6.596770e-02
-6.126680e-02
-6.196750e-02
-5.188120e-02
-5.199000e-02
-5.063900e-02
-5.059470e-02
-6.064660e-02
-6.126680e-02
-4.262630e-03
-4.160650e-03
-5.063460e-02
-5.063900e-02
3.297620e-02
3.303590e-02
-6.126680e-02
-6.196750e-02
-4.160650e-03
-4.081670e-03
-5.063900e-02
-5.059470e-02
3.303590e-02
3.309020e-02
-4.262630e-03
-4.160650e-03
-5.516730e-02
-5.631170e-02
3.297620e-02
3.303590e-02
5.786140e-03
6.756590e-03
-4.160650e-03
-4.081670e-03
-5.631170e-02
-5.744710e-02
3.303590e-02
3.309020e-02
6.756590e-03
7.709800e-03
-5.516730e-02
-5.631170e-02
1.822020e-02
1.827660e-02
5.786140e-03
6.756590e-03
-3.146970e-02
-3.220270e-02
-5.631170e-02
-5.744710e-02
1.827660e-02
1.839790e-02
6.756590e-03
7.709800e-03
-3.220270e-02
-3.290610e-02
1.822020e-02
1.827660e-02
5.556140e-02
5.702360e-02
-3.146970e-02
-3.220270e-02
1.064850e-02
1.002270e-02
1.827660e-02
1.839790e-02
5.702360e-02
5.837660e-02
-3.220270e-02
-3.290610e-02
1.002270e-02
9.359350e-03
5.556140e-02
5.702360e-02
-7.077750e-02
-7.185130e-02
1.064850e-02
1.002270e-02
1.692360e-02
1.723630e-02
5.702360e-02
5.837660e-02
-7.185130e-02
-7.288940e-02
1.002270e-02
9.359350e-03
1.723630e-02
1.757110e-02
-7.077750e-02
-7.185130e-02
6.128360e-02
6.281720e-02
1.692360e-02
1.723630e-02
2.620110e-02
2.540320e-02
-7.185130e-02
-7.288940e-02
6.281720e-02
6.443540e-02
1.723630e-02
1.757110e-02
2.540320e-02
2.460960e-02
6.128360e-02
6.281720e-02
3.018640e-03
1.368260e-03
2.620110e-02
2.540320e-02
-1.629830e-02
-1.549890e-02
6.281720e-02
6.443540e-02
1.368260e-03
-3.477700e-04
2.540320e-02
2.460960e-02
-1.549890e-02
-1.470520e-02
3.018640e-03
1.368260e-03
-4.340980e-03
-3.023340e-03
-1.629830e-02
-1.549890e-02
-9.725600e-03
-9.815450e-03
1.368260e-03
-3.477700e-04
-3.023340e-03
-1.719040e-03
-1.549890e-02
-1.470520e-02
-9.815450e-03
-9.913270e-03
-4.340980e-03
-3.023340e-03
-5.332880e-02
-5.604780e-02
-9.725600e-03
-9.815450e-03
7.278170e-02
7.394040e-02
-3.023340e-03
-1.719040e-03
-5.604780e-02
-5.874590e-02
-9.815450e-03
-9.913270e-03
7.394040e-02
7.508960e-02
0.000000e+00
0.000000e+00
-3.911150e-02
-3.880790e-02
0.000000e+00
0.000000e+00
4.725680e-02
4.623770e-02
0.000000e+00
0.000000e+00
-3.880790e-02
-3.852500e-02
0.000000e+00
0.000000e+00
4.623770e-02
4.528340e-02
-3.911150e-02
-3.880790e-02
9.722370e-02
9.558600e-02
4.725680e-02
4.623770e-02
-1.072370e-01
-1.042770e-01
-3.880790e-02
-3.852500e-02
9.558600e-02
9.396600e-02
4.623770e-02
4.528340e-02
-1.042770e-01
-1.012870e-01
9.722370e-02
9.558600e-02
3.641120e-02
3.845730e-02
-1.072370e-01
-1.042770e-01
-2.075920e-02
-2.217730e-02
9.558600e-02
9.396600e-02
3.845730e-02
4.050720e-02
-1.042770e-01
-1.012870e-01
-2.217730e-02
-2.367190e-02
3.641120e-02
3.845730e-02
2.649510e-02
2.563910e-02
-2.075920e-02
-2.217730e-02
-1.825180e-02
-1.834550e-02
3.845730e-02
4.050720e-02
2.563910e-02
2.473430e-02
-2.217730e-02
-2.367190e-02
-1.834550e-02
-1.836420e-02
2.649510e-02
2.563910e-02
-3.946940e-03
-2.690310e-03
-1.825180e-02
-1.834550e-02
4.397530e-02
4.322140e-02
2.563910e-02
2.473430e-02
-2.690310e-03
-1.372270e-03
-1.834550e-02
-1.836420e-02
4.322140e-02
4.251570e-02
-3.946940e-03
-2.690310e-03
7.370260e-02
7.328400e-02
4.397530e-02
4.322140e-02
-5.036630e-02
-5.081300e-02
-2.690310e-03
-1.372270e-03
7.328400e-02
7.283710e-02
4.322140e-02
4.251570e-02
-5.081300e-02
-5.139950e-02
7.370260e-02
7.328400e-02
-3.444750e-02
-3.455990e-02
-5.036630e-02
-5.081300e-02
1.134830e-01
1.143630e-01
7.328400e-02
7.283710e-02
-3.455990e-02
-3.464460e-02
-5.081300e-02
-5.139950e-02
1.143630e-01
1.152600e-01
-3.444750e-02
-3.455990e-02
-6.835530e-02
-6.891780e-02
1.134830e-01
1.143630e-01
1.481580e-01
1.492810e-01
-3.455990e-02
-3.464460e-02
-6.891780e-02
-6.950340e-02
1.143630e-01
1.152600e-01
1.492810e-01
1.504960e-01
-6.835530e-02
-6.891780e-02
2.836820e-02
2.743780e-02
1.481580e-01
1.492810e-01
-1.017410e-01
-1.020120e-01
-6.891780e-02
-6.950340e-02
2.743780e-02
2.647010e-02
1.492810e-01
1.504960e-01
-1.020120e-01
-1.022770e-01
2.836820e-02
2.743780e-02
3.291650e-03
4.915620e-03
-1.017410e-01
-1.020120e-01
-2.837060e-02
-2.868140e-02
2.743780e-02
2.647010e-02
4.915620e-03
6.550880e-03
-1.020120e-01
-1.022770e-01
-2.868140e-02
-2.913520e-02
3.291650e-03
4.915620e-03
7.269950e-02
7.168600e-02
-2.837060e-02
-2.868140e-02
-1.651350e-01
-1.656180e-01
4.915620e-03
6.550880e-03
7.168600e-02
7.067790e-02
-2.868140e-02
-2.913520e-02
-1.656180e-01
-1.659550e-01
7.269950e-02
7.168600e-02
1.715630e-02
1.828400e-02
-1.651350e-01
-1.656180e-01
-5.464410e-02
-5.499830e-02
7.168600e-02
7.067790e-02
1.828400e-02
1.943320e-02
-1.656180e-01
-1.659550e-01
-5.499830e-02
-5.541790e-02
1.715630e-02
1.828400e-02
-4.075040e-02
-4.162360e-02
-5.464410e-02
-5.499830e-02
6.021600e-02
6.196750e-02
1.828400e-02
1.943320e-02
-4.162360e-02
-4.250720e-02
-5.499830e-02
-5.541790e-02
6.196750e-02
6.360490e-02
-4.075040e-02
-4.162360e-02
-9.520640e-02
-9.402510e-02
6.021600e-02
6.196750e-02
1.453490e-01
1.434940e-01
-4.162360e-02
-4.250720e-02
-9.402510e-02
-9.286500e-02
6.196750e-02
6.360490e-02
1.434940e-01
1.417270e-01
-9.520640e-02
-9.402510e-02
1.591150e-01
1.574670e-01
1.453490e-01
1.434940e-01
-2.070620e-01
-2.050380e-01
-9.402510e-02
-9.286500e-02
1.574670e-01
1.558420e-01
1.434940e-01
1.417270e-01
-2.050380e-01
-2.029200e-01
1.591150e-01
1.574670e-01
-2.742700e-02
-2.817990e-02
-2.070620e-01
-2.050380e-01
3.999230e-02
4.066070e-02
1.574670e-01
1.558420e-01
-2.817990e-02
-2.895990e-02
-2.050380e-01
-2.029200e-01
4.066070e-02
4.127970e-02
-2.742700e-02
-2.817990e-02
-6.563410e-02
-6.540830e-02
3.999230e-02
4.066070e-02
3.444840e-02
3.447550e-02
-2.817990e-02
-2.895990e-02
-6.540830e-02
-6.519100e-02
4.066070e-02
4.127970e-02
3.447550e-02
3.447640e-02
-6.563410e-02
-6.540830e-02
3.386470e-02
3.390520e-02
3.444840e-02
3.447550e-02
-6.426060e-02
-6.341930e-02
-6.540830e-02
-6.519100e-02
3.390520e-02
3.396170e-02
3.447550e-02
3.447640e-02
-6.341930e-02
-6.241990e-02
3.386470e-02
3.390520e-02
3.054110e-03
3.566110e-03
-6.426060e-02
-6.341930e-02
-1.003010e-02
-1.133780e-02
3.390520e-02
3.396170e-02
3.566110e-03
4.074310e-03
-6.341930e-02
-6.241990e-02
-1.133780e-02
-1.274620e-02
3.054110e-03
3.566110e-03
-5.179820e-02
-5.188120e-02
-1.003010e-02
-1.133780e-02
4.039700e-02
3.941480e-02
3.566110e-03
4.074310e-03
-5.188120e-02
-5.199000e-02
-1.133780e-02
-1.274620e-02
3.941480e-02
3.836490e-02
-5.179820e-02
-5.188120e-02
-5.063460e-02
-5.063900e-02
4.039700e-02
3.941480e-02
1.610970e-01
1.616780e-01
-5.188120e-02
-5.199000e-02
-5.063900e-02
-5.059470e-02
3.941480e-02
3.836490e-02
1.616780e-01
1.623440e-01
-5.063460e-02
-5.063900e-02
3.297620e-02
3.303590e-02
1.610970e-01
1.616780e-01
-6.153460e-02
-6.086590e-02
-5.063900e-02
-5.059470e-02
3.303590e-02
3.309020e-02
1.616780e-01
1.623440e-01
-6.086590e-02
-6.016360e-02
3.297620e-02
3.303590e-02
5.786140e-03
6.756590e-03
-6.153460e-02
-6.086590e-02
4.274660e-02
4.165840e-02
3.303590e-02
3.309020e-02
6.756590e-03
7.709800e-03
-6.086590e-02
-6.016360e-02
4.165840e-02
4.052330e-02
5.786140e-03
6.756590e-03
-3.146970e-02
-3.220270e-02
4.274660e-02
4.165840e-02
4.625510e-02
4.703530e-02
6.756590e-03
7.709800e-03
-3.220270e-02
-3.290610e-02
4.165840e-02
4.052330e-02
4.703530e-02
4.784170e-02
-3.146970e-02
-3.220270e-02
1.064850e-02
1.002270e-02
4.625510e-02
4.703530e-02
-7.837750e-02
-7.853140e-02
-3.220270e-02
-3.290610e-02
1.002270e-02
9.359350e-03
4.703530e-02
4.784170e-02
-7.853140e-02
-7.854820e-02
1.064850e-02
1.002270e-02
1.692360e-02
1.723630e-02
-7.837750e-02
-7.853140e-02
3.823950e-02
3.871220e-02
1.002270e-02
9.359350e-03
1.723630e-02
1.757110e-02
-7.853140e-02
-7.854820e-02
3.871220e-02
3.911810e-02
1.692360e-02
1.723630e-02
2.620110e-02
2.540320e-02
3.823950e-02
3.871220e-02
-1.144200e-01
-1.146690e-01
1.723630e-02
1.757110e-02
2.540320e-02
2.460960e-02
3.871220e-02
3.911810e-02
-1.146690e-01
-1.149860e-01
2.620110e-02
2.540320e-02
-1.629830e-02
-1.549890e-02
-1.144200e-01
-1.146690e-01
3.117290e-02
3.148900e-02
2.540320e-02
2.460960e-02
-1.549890e-02
-1.470520e-02
-1.146690e-01
-1.149860e-01
3.148900e-02
3.183110e-02
-1.629830e-02
-1.549890e-02
-9.725600e-03
-9.815450e-03
3.117290e-02
3.148900e-02
2.233240e-02
2.062280e-02
-1.549890e-02
-1.470520e-02
-9.815450e-03
-9.913270e-03
3.148900e-02
3.183110e-02
2.062280e-02
1.893360e-02
-9.725600e-03
-9.815450e-03
7.278170e-02
7.394040e-02
2.233240e-02
2.062280e-02
-9.043240e-02
-8.939910e-02
-9.815450e-03
-9.913270e-03
7.394040e-02
7.508960e-02
2.062280e-02
1.893360e-02
-8.939910e-02
-8.839390e-02
</DataArray>
<DataArray type="Float32" Name="V2" format="ascii">
0.000000e+00
0.000000e+00
5.462790e-02
1.076930e-01
0.000000e+00
0.000000e+00
-9.255640e-02
-1.555230e-01
0.000000e+00
0.000000e+00
1.076930e-01
1.540920e-01
0.000000e+00
0.000000e+00
-1.555230e-01
-2.166740e-01
5.462790e-02
1.076930e-01
1.397210e-01
1.283060e-01
-9.255640e-02
-1.555230e-01
-1.594430e-01
-1.187460e-01
1.076930e-01
1.540920e-01
1.283060e-01
1.234040e-01
-1.555230e-01
-2.166740e-01
-1.187460e-01
-8.339600e-02
1.397210e-01
1.283060e-01
4.135090e-02
2.905740e-02
-1.594430e-01
-1.187460e-01
-1.391880e-02
2.450880e-02
1.283060e-01
1.234040e-01
2.905740e-02
1.458970e-02
-1.187460e-01
-8.339600e-02
2.450880e-02
6.707570e-02
4.135090e-02
2.905740e-02
-2.707370e-01
-2.137000e-01
-1.391880e-02
2.450880e-02
1.957300e-01
1.195420e-01
2.905740e-02
1.458970e-02
-2.137000e-01
-1.511920e-01
2.450880e-02
6.707570e-02
1.195420e-01
4.429540e-02
-2.707370e-01
-2.137000e-01
-7.929130e-02
-1.888770e-01
1.957300e-01
1.195420e-01
-1.000040e-02
5.974500e-02
-2.137000e-01
-1.511920e-01
-1.888770e-01
-3.018100e-01
1.195420e-01
4.429540e-02
5.974500e-02
1.259320e-01
-7.929130e-02
-1.888770e-01
-1.297440e-01
-1.384010e-01
-1.000040e-02
5.974500e-02
1.169930e-01
4.884320e-02
-1.888770e-01
-3.018100e-01
-1.384010e-01
-1.437530e-01
5.974500e-02
1.259320e-01
4.884320e-02
-2.186290e-02
-1.297440e-01
-1.384010e-01
-2.326440e-02
4.833370e-02
1.169930e-01
4.884320e-02
1.536900e-01
3.601040e-02
-1.384010e-01
-1.437530e-01
4.833370e-02
1.125300e-01
4.884320e-02
-2.186290e-02
3.601040e-02
-8.067540e-02
-2.326440e-02
4.833370e-02
2.850130e-01
3.084610e-01
1.536900e-01
3.601040e-02
-1.400800e-01
-1.206320e-01
4.833370e-02
1.125300e-01
3.084610e-01
3.284850e-01
3.601040e-02
-8.067540e-02
-1.206320e-01
-9.271010e-02
2.850130e-01
3.084610e-01
1.663480e-02
1.518750e-01
-1.400800e-01
-1.206320e-01
-1.127300e-01
-1.509820e-01
3.084610e-01
3.284850e-01
1.518750e-01
2.900750e-01
-1.206320e-01
-9.271010e-02
-1.509820e-01
-1.862690e-01
1.663480e-02
1.518750e-01
-3.025790e-01
-2.200390e-01
-1.127300e-01
-1.509820e-01
1.116730e-01
8.862200e-02
1.518750e-01
2.900750e-01
-2.200390e-01
-1.473540e-01
-1.509820e-01
-1.862690e-01
8.862200e-02
6.420650e-02
-3.025790e-01
-2.200390e-01
-1.876460e-02
-1.365600e-01
1.116730e-01
8.862200e-02
-3.931580e-02
5.881370e-02
-2.200390e-01
-1.473540e-01
-1.365600e-01
-2.554310e-01
8.862200e-02
6.420650e-02
5.881370e-02
1.603930e-01
-1.876460e-02
-1.365600e-01
1.183360e-01
1.923960e-01
-3.931580e-02
5.881370e-02
6.335370e-02
-5.184610e-02
-1.365600e-01
-2.554310e-01
1.923960e-01
2.642080e-01
5.881370e-02
1.603930e-01
-5.184610e-02
-1.723420e-01
1.183360e-01
1.923960e-01
-1.428930e-02
1.350540e-01
6.335370e-02
-5.184610e-02
2.434090e-01
7.564420e-02
1.923960e-01
2.642080e-01
1.350540e-01
2.967490e-01
-5.184610e-02
-1.723420e-01
7.564420e-02
-8.579920e-02
-1.428930e-02
1.350540e-01
1.285990e-01
7.729160e-03
2.434090e-01
7.564420e-02
-1.903860e-01
-4.181030e-02
1.350540e-01
2.967490e-01
7.729160e-03
-1.121520e-01
7.564420e-02
-8.579920e-02
-4.181030e-02
1.017400e-01
1.285990e-01
7.729160e-03
-1.525700e-01
-2.218720e-01
-1.903860e-01
-4.181030e-02
1.116300e-02
8.250960e-02
7.729160e-03
-1.121520e-01
-2.218720e-01
-3.000030e-01
-4.181030e-02
1.017400e-01
8.250960e-02
1.590920e-01
-1.525700e-01
-2.218720e-01
-1.741750e-01
-1.789090e-02
1.116300e-02
8.250960e-02
7.579870e-02
-3.367840e-02
-2.218720e-01
-3.000030e-01
-1.789090e-02
1.468550e-01
8.250960e-02
1.590920e-01
-3.367840e-02
-1.492660e-01
-1.741750e-01
-1.789090e-02
-7.172710e-02
-7.037070e-02
7.579870e-02
-3.367840e-02
2.472710e-03
7.262260e-03
-1.789090e-02
1.468550e-01
-7.037070e-02
-6.979090e-02
-3.367840e-02
-1.492660e-01
7.262260e-03
1.359920e-02
-7.172710e-02
-7.037070e-02
1.654680e-01
7.539130e-02
2.472710e-03
7.262260e-03
-1.049680e-01
-3.582940e-02
-7.037070e-02
-6.979090e-02
7.539130e-02
-8.027560e-03
7.262260e-03
1.359920e-02
-3.582940e-02
2.915980e-02
1.654680e-01
7.539130e-02
-1.915650e-01
2.647760e-02
-1.049680e-01
-3.582940e-02
1.298120e-01
-3.234580e-02
7.539130e-02
-8.027560e-03
2.647760e-02
2.487580e-01
-3.582940e-02
2.915980e-02
-3.234580e-02
-1.949260e-01
-1.915650e-01
2.647760e-02
-2.172190e-01
-2.030700e-01
1.298120e-01
-3.234580e-02
2.114520e-01
2.169000e-01
2.647760e-02
2.487580e-01
-2.030700e-01
-1.949290e-01
-3.234580e-02
-1.949260e-01
2.169000e-01
2.230060e-01
-2.172190e-01
-2.030700e-01
3.453170e-01
2.000710e-01
2.114520e-01
2.169000e-01
-3.046310e-01
-1.669620e-01
-2.030700e-01
-1.949290e-01
2.000710e-01
5.743690e-02
2.169000e-01
2.230060e-01
-1.669620e-01
-3.420740e-02
3.453170e-01
2.000710e-01
-5.969050e-02
3.844010e-02
-3.046310e-01
-1.669620e-01
-4.254620e-02
-1.247570e-01
2.000710e-01
5.743690e-02
3.844010e-02
1.422420e-01
-1.669620e-01
-3.420740e-02
-1.247570e-01
-2.078740e-01
-5.969050e-02
3.844010e-02
-1.464220e-01
-5.813830e-02
-4.254620e-02
-1.247570e-01
1.339810e-01
1.175760e-01
3.844010e-02
1.422420e-01
-5.813830e-02
3.330070e-02
-1.247570e-01
-2.078740e-01
1.175760e-01
9.475230e-02
-1.464220e-01
-5.813830e-02
1.344000e-01
6.733890e-02
1.339810e-01
1.175760e-01
-4.103190e-02
1.290090e-02
-5.813830e-02
3.330070e-02
6.733890e-02
-4.391580e-04
1.175760e-01
9.475230e-02
1.290090e-02
6.681590e-02
1.344000e-01
6.733890e-02
-5.111080e-02
5.354130e-02
-4.103190e-02
1.290090e-02
2.232040e-02
-1.038330e-01
6.733890e-02
-4.391580e-04
5.354130e-02
1.679000e-01
1.290090e-02
6.681590e-02
-1.038330e-01
-2.381190e-01
-5.111080e-02
5.354130e-02
1.278060e-01
9.666950e-02
2.232040e-02
-1.038330e-01
-1.906350e-01
-1.309160e-01
5.354130e-02
1.679000e-01
9.666950e-02
6.060880e-02
-1.038330e-01
-2.381190e-01
-1.309160e-01
-6.774130e-02
1.278060e-01
9.666950e-02
2.635360e-02
-1.420990e-02
-1.906350e-01
-1.309160e-01
-4.723310e-02
2.579270e-02
9.666950e-02
6.060880e-02
-1.420990e-02
-4.849070e-02
-1.309160e-01
-6.774130e-02
2.579270e-02
8.877560e-02
2.635360e-02
-1.420990e-02
-1.546710e-01
1.672010e-02
-4.723310e-02
2.579270e-02
1.185670e-01
-3.242590e-02
-1.420990e-02
-4.849070e-02
1.672010e-02
1.736520e-01
2.579270e-02
8.877560e-02
-3.242590e-02
-1.707060e-01
-1.546710e-01
1.672010e-02
-5.449010e-02
-2.939380e-02
1.185670e-01
-3.242590e-02
3.444120e-02
-3.152540e-02
1.672010e-02
1.736520e-01
-2.939380e-02
2.023560e-02
-3.242590e-02
-1.707060e-01
-3.152540e-02
-1.106210e-01
-5.449010e-02
-2.939380e-02
-1.493050e-01
-2.263350e-01
3.444120e-02
-3.152540e-02
1.038770e-01
2.044570e-01
-2.939380e-02
2.023560e-02
-2.263350e-01
-3.229330e-01
-3.152540e-02
-1.106210e-01
2.044570e-01
3.114510e-01
0.000000e+00
0.000000e+00
-9.255640e-02
-1.555230e-01
0.000000e+00
0.000000e+00
1.331090e-01
2.011990e-01
0.000000e+00
0.000000e+00
-1.555230e-01
-2.166740e-01
0.000000e+00
0.000000e+00
2.011990e-01
2.750450e-01
-9.255640e-02
-1.555230e-01
-1.594430e-01
-1.187460e-01
1.331090e-01
2.011990e-01
1.759390e-01
1.093890e-01
-1.555230e-01
-2.166740e-01
-1.187460e-01
-8.339600e-02
2.011990e-01
2.750450e-01
1.093890e-01
5.118850e-02
-1.594430e-01
-1.187460e-01
-1.391880e-02