<?xml version="1.0"?>
<VTKFile type="UnstructuredGrid" version="0.1" byte_order="LittleEndian" compressor="vtkZLibDataCompressor">
<UnstructuredGrid>
<Piece NumberOfPoints="960" NumberOfCells="120">
<Points>
<DataArray type="Float32" NumberOfComponents="3" format="ascii">
-4.000000e+02 -6.000000e+03 -4.000000e+02
0.000000e+00 -6.000000e+03 -4.000000e+02
-4.000060e+02 -5.599830e+03 -3.998700e+02
2.908050e-03 -5.599810e+03 -3.997120e+02
-4.000000e+02 -6.000000e+03 0.000000e+00
0.000000e+00 -6.000000e+03 0.000000e+00
-4.000800e+02 -5.600290e+03 1.296690e-02
-7.503430e-02 -5.600170e+03 -1.687190e-01
0.000000e+00 -6.000000e+03 -4.000000e+02
4.000000e+02 -6.000000e+03 -4.000000e+02
2.908050e-03 -5.599810e+03 -3.997120e+02
4.000180e+02 -5.599730e+03 -3.996250e+02
0.000000e+00 -6.000000e+03 0.000000e+00
4.000000e+02 -6.000000e+03 0.000000e+00
-7.503430e-02 -5.600170e+03 -1.687190e-01
3.999260e+02 -5.600140e+03 -3.088370e-01
-4.000060e+02 -5.599830e+03 -3.998700e+02
2.908050e-03 -5.599810e+03 -3.997120e+02
-3.998900e+02 -5.200080e+03 -3.998460e+02
1.022810e-01 -5.199980e+03 -4.000360e+02
-4.000800e+02 -5.600290e+03 1.296690e-02
-7.503430e-02 -5.600170e+03 -1.687190e-01
-3.999940e+02 -5.200090e+03 8.884420e-02
8.009810e-04 -5.200190e+03 4.162610e-01
2.908050e-03 -5.599810e+03 -3.997120e+02
4.000180e+02 -5.599730e+03 -3.996250e+02
1.022810e-01 -5.199980e+03 -4.000360e+02
4.000920e+02 -5.200000e+03 -4.002590e+02
-7.503430e-02 -5.600170e+03 -1.687190e-01
3.999260e+02 -5.600140e+03 -3.088370e-01
8.009810e-04 -5.200190e+03 4.162610e-01
3.999970e+02 -5.200230e+03 7.831820e-01
-3.998900e+02 -5.200080e+03 -3.998460e+02
1.022810e-01 -5.199980e+03 -4.000360e+02
-4.002910e+02 -4.800750e+03 -4.011140e+02
-2.676530e-01 -4.800710e+03 -4.010360e+02
-3.999940e+02 -5.200090e+03 8.884420e-02
8.009810e-04 -5.200190e+03 4.162610e-01
-4.000040e+02 -4.799890e+03 7.083530e-01
-1.434240e-02 -4.799890e+03 1.219670e-01
1.022810e-01 -5.199980e+03 -4.000360e+02
4.000920e+02 -5.200000e+03 -4.002590e+02
-2.676530e-01 -4.800710e+03 -4.010360e+02
3.997580e+02 -4.800690e+03 -4.009710e+02
8.009810e-04 -5.200190e+03 4.162610e-01
3.999970e+02 -5.200230e+03 7.831820e-01
-1.434240e-02 -4.799890e+03 1.219670e-01
3.999770e+02 -4.799850e+03 -4.547240e-01
-4.002910e+02 -4.800750e+03 -4.011140e+02
-2.676530e-01 -4.800710e+03 -4.010360e+02
-4.003910e+02 -4.400460e+03 -4.000310e+02
-3.983720e-01 -4.400550e+03 -4.010180e+02
-4.000040e+02 -4.799890e+03 7.083530e-01
-1.434240e-02 -4.799890e+03 1.219670e-01
-4.000260e+02 -4.400250e+03 -9.017050e-01
-2.333950e-02 -4.400200e+03 -1.232560e+00
-2.676530e-01 -4.800710e+03 -4.010360e+02
3.997580e+02 -4.800690e+03 -4.009710e+02
-3.983720e-01 -4.400550e+03 -4.010180e+02
3.995880e+02 -4.400660e+03 -4.021310e+02
-1.434240e-02 -4.799890e+03 1.219670e-01
3.999770e+02 -4.799850e+03 -4.547240e-01
-2.333950e-02 -4.400200e+03 -1.232560e+00
3.999770e+02 -4.400160e+03 -1.486230e+00
-4.003910e+02 -4.400460e+03 -4.000310e+02
-3.983720e-01 -4.400550e+03 -4.010180e+02
-4.004170e+02 -4.000810e+03 -4.013680e+02
-4.147120e-01 -4.000880e+03 -4.013420e+02
-4.000260e+02 -4.400250e+03 -9.017050e-01
-2.333950e-02 -4.400200e+03 -1.232560e+00
-3.999280e+02 -4.000150e+03 -1.083180e+00
6.091710e-02 -3.999980e+03 -1.501260e+00
-3.983720e-01 -4.400550e+03 -4.010180e+02
3.995880e+02 -4.400660e+03 -4.021310e+02
-4.147120e-01 -4.000880e+03 -4.013420e+02
3.995860e+02 -4.000870e+03 -4.012950e+02
-2.333950e-02 -4.400200e+03 -1.232560e+00
3.999770e+02 -4.400160e+03 -1.486230e+00
6.091710e-02 -3.999980e+03 -1.501260e+00
4.000560e+02 -3.999800e+03 -1.935780e+00
-4.004170e+02 -4.000810e+03 -4.013680e+02
-4.147120e-01 -4.000880e+03 -4.013420e+02
-3.999420e+02 -3.600960e+03 -4.022090e+02
7.963680e-02 -3.600890e+03 -4.025380e+02
-3.999280e+02 -4.000150e+03 -1.083180e+00
6.091710e-02 -3.999980e+03 -1.501260e+00
-4.001750e+02 -3.599790e+03 -2.848500e+00
-1.879330e-01 -3.599910e+03 -2.669420e+00
-4.147120e-01 -4.000880e+03 -4.013420e+02
3.995860e+02 -4.000870e+03 -4.012950e+02
7.963680e-02 -3.600890e+03 -4.025380e+02
4.001050e+02 -3.600890e+03 -4.028080e+02
6.091710e-02 -3.999980e+03 -1.501260e+00
4.000560e+02 -3.999800e+03 -1.935780e+00
-1.879330e-01 -3.599910e+03 -2.669420e+00
3.997950e+02 -3.600010e+03 -2.446430e+00
-3.999420e+02 -3.600960e+03 -4.022090e+02
7.963680e-02 -3.600890e+03 -4.025380e+02
-3.998750e+02 -3.200650e+03 -4.043490e+02
1.774110e-01 -3.200770e+03 -4.035480e+02
-4.001750e+02 -3.599790e+03 -2.848500e+00
-1.879330e-01 -3.599910e+03 -2.669420e+00
-3.999290e+02 -3.200080e+03 -2.884840e+00
3.740840e-02 -3.200170e+03 -3.397050e+00
7.963680e-02 -3.600890e+03 -4.025380e+02
4.001050e+02 -3.600890e+03 -4.028080e+02
1.774110e-01 -3.200770e+03 -4.035480e+02
4.002320e+02 -3.200950e+03 -4.026700e+02
-1.879330e-01 -3.599910e+03 -2.669420e+00
3.997950e+02 -3.600010e+03 -2.446430e+00
3.740840e-02 -3.200170e+03 -3.397050e+00
4.000090e+02 -3.200180e+03 -3.873130e+00
-3.998750e+02 -3.200650e+03 -4.043490e+02
1.774110e-01 -3.200770e+03 -4.035480e+02
-3.994980e+02 -2.800970e+03 -4.048900e+02
5.015350e-01 -2.801160e+03 -4.046550e+02
-3.999290e+02 -3.200080e+03 -2.884840e+00
3.740840e-02 -3.200170e+03 -3.397050e+00
-4.000050e+02 -2.800150e+03 -5.166620e+00
-5.658090e-03 -2.799950e+03 -4.315320e+00
1.774110e-01 -3.200770e+03 -4.035480e+02
4.002320e+02 -3.200950e+03 -4.026700e+02
5.015350e-01 -2.801160e+03 -4.046550e+02
4.004940e+02 -2.801190e+03 -4.044130e+02
3.740840e-02 -3.200170e+03 -3.397050e+00
4.000090e+02 -3.200180e+03 -3.873130e+00
-5.658090e-03 -2.799950e+03 -4.315320e+00
3.999950e+02 -2.799850e+03 -3.414990e+00
-3.994980e+02 -2.800970e+03 -4.048900e+02
5.015350e-01 -2.801160e+03 -4.046550e+02
-3.994580e+02 -2.401260e+03 -4.070840e+02
5.414700e-01 -2.401160e+03 -4.057800e+02
-4.000050e+02 -2.800150e+03 -5.166620e+00
-5.658090e-03 -2.799950e+03 -4.315320e+00
-3.999360e+02 -2.399980e+03 -5.599970e+00
6.054410e-02 -2.399940e+03 -5.615370e+00
5.015350e-01 -2.801160e+03 -4.046550e+02
4.004940e+02 -2.801190e+03 -4.044130e+02
5.414700e-01 -2.401160e+03 -4.057800e+02
4.005290e+02 -2.401130e+03 -4.044870e+02
-5.658090e-03 -2.799950e+03 -4.315320e+00
3.999950e+02 -2.799850e+03 -3.414990e+00
6.054410e-02 -2.399940e+03 -5.615370e+00
4.000630e+02 -2.399910e+03 -5.625940e+00
-3.994580e+02 -2.401260e+03 -4.070840e+02
5.414700e-01 -2.401160e+03 -4.057800e+02
-3.996260e+02 -2.000880e+03 -4.069480e+02
3.250680e-01 -2.000890e+03 -4.069570e+02
-3.999360e+02 -2.399980e+03 -5.599970e+00
6.054410e-02 -2.399940e+03 -5.615370e+00
-3.999570e+02 -2.000050e+03 -7.197200e+00
7.583640e-02 -2.000100e+03 -6.737450e+00
5.414700e-01 -2.401160e+03 -4.057800e+02
4.005290e+02 -2.401130e+03 -4.044870e+02
3.250680e-01 -2.000890e+03 -4.069570e+02
4.002800e+02 -2.000840e+03 -4.069700e+02
6.054410e-02 -2.399940e+03 -5.615370e+00
4.000630e+02 -2.399910e+03 -5.625940e+00
7.583640e-02 -2.000100e+03 -6.737450e+00
4.001100e+02 -2.000180e+03 -6.332550e+00
-3.996260e+02 -2.000880e+03 -4.069480e+02
3.250680e-01 -2.000890e+03 -4.069570e+02
-3.995270e+02 -1.601120e+03 -4.075910e+02
4.635270e-01 -1.601040e+03 -4.075800e+02
-3.999570e+02 -2.000050e+03 -7.197200e+00
7.583640e-02 -2.000100e+03 -6.737450e+00
-4.000100e+02 -1.599880e+03 -8.020510e+00
9.132570e-04 -1.599950e+03 -7.386250e+00
3.250680e-01 -2.000890e+03 -4.069570e+02
4.002800e+02 -2.000840e+03 -4.069700e+02
4.635270e-01 -1.601040e+03 -4.075800e+02
4.004520e+02 -1.601030e+03 -4.077310e+02
7.583640e-02 -2.000100e+03 -6.737450e+00
4.001100e+02 -2.000180e+03 -6.332550e+00
9.132570e-04 -1.599950e+03 -7.386250e+00
4.000160e+02 -1.599930e+03 -6.774490e+00
-3.995270e+02 -1.601120e+03 -4.075910e+02
4.635270e-01 -1.601040e+03 -4.075800e+02
-3.997450e+02 -1.201380e+03 -4.093910e+02
2.528850e-01 -1.201330e+03 -4.088790e+02
-4.000100e+02 -1.599880e+03 -8.020510e+00
9.132570e-04 -1.599950e+03 -7.386250e+00
-4.000780e+02 -1.199860e+03 -9.074110e+00
-7.982600e-02 -1.199850e+03 -9.018090e+00
4.635270e-01 -1.601040e+03 -4.075800e+02
4.004520e+02 -1.601030e+03 -4.077310e+02
2.528850e-01 -1.201330e+03 -4.088790e+02
4.002530e+02 -1.201290e+03 -4.083170e+02
9.132570e-04 -1.599950e+03 -7.386250e+00
4.000160e+02 -1.599930e+03 -6.774490e+00
-7.982600e-02 -1.199850e+03 -9.018090e+00
3.999220e+02 -1.199860e+03 -8.904570e+00
-3.997450e+02 -1.201380e+03 -4.093910e+02
2.528850e-01 -1.201330e+03 -4.088790e+02
-3.999890e+02 -8.008720e+02 -4.102120e+02
3.882440e-02 -8.011350e+02 -4.101830e+02
-4.000780e+02 -1.199860e+03 -9.074110e+00
-7.982600e-02 -1.199850e+03 -9.018090e+00
-3.998510e+02 -8.002640e+02 -1.026410e+01
1.399800e-01 -8.001260e+02 -1.023110e+01
2.528850e-01 -1.201330e+03 -4.088790e+02
4.002530e+02 -1.201290e+03 -4.083170e+02
3.882440e-02 -8.011350e+02 -4.101830e+02
4.000660e+02 -8.013530e+02 -4.101740e+02
-7.982600e-02 -1.199850e+03 -9.018090e+00
3.999220e+02 -1.199860e+03 -8.904570e+00
1.399800e-01 -8.001260e+02 -1.023110e+01
4.001300e+02 -8.000110e+02 -1.016820e+01
-3.999890e+02 -8.008720e+02 -4.102120e+02
3.882440e-02 -8.011350e+02 -4.101830e+02
-3.999450e+02 -4.013750e+02 -4.105930e+02
5.295900e-02 -4.014170e+02 -4.107650e+02
-3.998510e+02 -8.002640e+02 -1.026410e+01
1.399800e-01 -8.001260e+02 -1.023110e+01
-3.998530e+02 -3.999080e+02 -1.172420e+01
1.629800e-01 -3.998850e+02 -1.177280e+01
3.882440e-02 -8.011350e+02 -4.101830e+02
4.000660e+02 -8.013530e+02 -4.101740e+02
5.295900e-02 -4.014170e+02 -4.107650e+02
4.000490e+02 -4.013000e+02 -4.108720e+02
1.399800e-01 -8.001260e+02 -1.023110e+01
4.001300e+02 -8.000110e+02 -1.016820e+01
1.629800e-01 -3.998850e+02 -1.177280e+01
4.001790e+02 -3.999280e+02 -1.178930e+01
-3.999450e+02 -4.013750e+02 -4.105930e+02
5.295900e-02 -4.014170e+02 -4.107650e+02
-3.997990e+02 -1.360800e+00 -4.131120e+02
1.864610e-01 -1.154860e+00 -4.133480e+02
-3.998530e+02 -3.999080e+02 -1.172420e+01
1.629800e-01 -3.998850e+02 -1.177280e+01
-4.001890e+02 1.221330e-01 -1.262900e+01
-1.789110e-01 3.709070e-02 -1.206480e+01
5.295900e-02 -4.014170e+02 -4.107650e+02
4.000490e+02 -4.013000e+02 -4.108720e+02
1.864610e-01 -1.154860e+00 -4.133480e+02
[...]
<PointData>
<DataArray type="Float32" Name="V1" format="ascii">
0.000000e+00
0.000000e+00
-1.146890e-01
-1.162720e-01
0.000000e+00
0.000000e+00
1.339500e-01
1.032530e-01
0.000000e+00
0.000000e+00
-1.162720e-01
-1.267200e-01
0.000000e+00
0.000000e+00
1.032530e-01
8.451940e-02
-1.146890e-01
-1.162720e-01
-2.192780e-02
8.787420e-04
1.339500e-01
1.032530e-01
2.489260e-01
2.308900e-01
-1.162720e-01
-1.267200e-01
8.787420e-04
1.787420e-02
1.032530e-01
8.451940e-02
2.308900e-01
2.075530e-01
-2.192780e-02
8.787420e-04
-2.325810e-01
-1.398180e-01
2.489260e-01
2.308900e-01
9.018500e-02
9.402410e-02
8.787420e-04
1.787420e-02
-1.398180e-01
-4.384200e-02
2.308900e-01
2.075530e-01
9.402410e-02
1.054230e-01
-2.325810e-01
-1.398180e-01
-9.199800e-02
-1.373200e-01
9.018500e-02
9.402410e-02
-6.611140e-02
-3.630100e-02
-1.398180e-01
-4.384200e-02
-1.373200e-01
-1.816130e-01
9.402410e-02
1.054230e-01
-3.630100e-02
-1.113980e-03
-9.199800e-02
-1.373200e-01
-1.375830e-01
-1.177020e-01
-6.611140e-02
-3.630100e-02
3.302990e-01
3.607850e-01
-1.373200e-01
-1.816130e-01
-1.177020e-01
-1.058390e-01
-3.630100e-02
-1.113980e-03
3.607850e-01
3.865680e-01
-1.375830e-01
-1.177020e-01
3.538860e-01
3.425880e-01
3.302990e-01
3.607850e-01
-9.261050e-02
-4.039220e-02
-1.177020e-01
-1.058390e-01
3.425880e-01
3.127390e-01
3.607850e-01
3.865680e-01
-4.039220e-02
1.651840e-02
3.538860e-01
3.425880e-01
-2.949130e-02
3.676660e-02
-9.261050e-02
-4.039220e-02
2.860330e-01
2.307610e-01
3.425880e-01
3.127390e-01
3.676660e-02
1.119310e-01
-4.039220e-02
1.651840e-02
2.307610e-01
1.656050e-01
-2.949130e-02
3.676660e-02
7.528680e-02
7.418880e-02
2.860330e-01
2.307610e-01
-2.481870e-01
-2.582060e-01
3.676660e-02
1.119310e-01
7.418880e-02
7.693830e-02
2.307610e-01
1.656050e-01
-2.582060e-01
-2.692630e-01
7.528680e-02
7.418880e-02
3.279860e-02
1.196690e-01
-2.481870e-01
-2.582060e-01
3.356970e-02
-8.044300e-03
7.418880e-02
7.693830e-02
1.196690e-01
1.904930e-01
-2.582060e-01
-2.692630e-01
-8.044300e-03
-5.030270e-02
3.279860e-02
1.196690e-01
2.034190e-01
1.287210e-01
3.356970e-02
-8.044300e-03
-1.596790e-01
-1.560910e-01
1.196690e-01
1.904930e-01
1.287210e-01
6.164320e-02
-8.044300e-03
-5.030270e-02
-1.560910e-01
-1.579800e-01
2.034190e-01
1.287210e-01
2.756750e-01
3.277320e-01
-1.596790e-01
-1.560910e-01
9.051310e-02
4.998660e-02
1.287210e-01
6.164320e-02
3.277320e-01
3.747250e-01
-1.560910e-01
-1.579800e-01
4.998660e-02
1.676970e-02
2.756750e-01
3.277320e-01
-6.427230e-01
-6.887210e-01
9.051310e-02
4.998660e-02
4.336950e-01
4.691350e-01
3.277320e-01
3.747250e-01
-6.887210e-01
-7.040150e-01
4.998660e-02
1.676970e-02
4.691350e-01
4.988950e-01
-6.427230e-01
-6.887210e-01
2.678570e-01
2.708940e-01
4.336950e-01
4.691350e-01
-6.088200e-02
-5.615010e-02
-6.887210e-01
-7.040150e-01
2.708940e-01
2.640700e-01
4.691350e-01
4.988950e-01
-5.615010e-02
-4.831760e-02
2.678570e-01
2.708940e-01
-4.712300e-02
-3.695710e-02
-6.088200e-02
-5.615010e-02
6.669060e-02
4.869200e-02
2.708940e-01
2.640700e-01
-3.695710e-02
-3.430980e-02
-5.615010e-02
-4.831760e-02
4.869200e-02
2.786280e-02
-4.712300e-02
-3.695710e-02
-3.107560e-01
-2.536230e-01
6.669060e-02
4.869200e-02
2.374360e-01
1.403560e-01
-3.695710e-02
-3.430980e-02
-2.536230e-01
-1.833920e-01
4.869200e-02
2.786280e-02
1.403560e-01
4.830380e-02
-3.107560e-01
-2.536230e-01
-7.371880e-02
-6.066310e-02
2.374360e-01
1.403560e-01
-6.834410e-02
-4.655340e-02
-2.536230e-01
-1.833920e-01
-6.066310e-02
-4.988720e-02
1.403560e-01
4.830380e-02
-4.655340e-02
-1.903310e-02
-7.371880e-02
-6.066310e-02
1.991730e-01
1.528310e-01
-6.834410e-02
-4.655340e-02
-1.600870e-01
-1.610550e-01
-6.066310e-02
-4.988720e-02
1.528310e-01
8.906000e-02
-4.655340e-02
-1.903310e-02
-1.610550e-01
-1.579550e-01
1.991730e-01
1.528310e-01
1.324480e-01
1.293270e-01
-1.600870e-01
-1.610550e-01
4.614530e-02
2.992670e-02
1.528310e-01
8.906000e-02
1.293270e-01
1.157050e-01
-1.610550e-01
-1.579550e-01
2.992670e-02
2.652460e-02
1.324480e-01
1.293270e-01
4.982010e-01
4.612860e-01
4.614530e-02
2.992670e-02
-1.571630e-01
-1.440020e-01
1.293270e-01
1.157050e-01
4.612860e-01
4.282400e-01
2.992670e-02
2.652460e-02
-1.440020e-01
-1.390730e-01
4.982010e-01
4.612860e-01
-2.484680e-01
-1.542060e-01
-1.571630e-01
-1.440020e-01
8.025820e-02
5.999910e-02
4.612860e-01
4.282400e-01
-1.542060e-01
-5.994540e-02
-1.440020e-01
-1.390730e-01
5.999910e-02
3.966120e-02
-2.484680e-01
-1.542060e-01
3.508780e-01
3.139640e-01
8.025820e-02
5.999910e-02
-2.850940e-01
-2.843260e-01
-1.542060e-01
-5.994540e-02
3.139640e-01
2.800290e-01
5.999910e-02
3.966120e-02
-2.843260e-01
-2.851820e-01
3.508780e-01
3.139640e-01
1.210350e-01
1.397570e-01
-2.850940e-01
-2.843260e-01
1.468320e-02
-3.990610e-02
3.139640e-01
2.800290e-01
1.397570e-01
1.673200e-01
-2.843260e-01
-2.851820e-01
-3.990610e-02
-8.642170e-02
1.210350e-01
1.397570e-01
-1.088280e-01
-1.259630e-01
1.468320e-02
-3.990610e-02
-5.141160e-02
-1.207810e-02
1.397570e-01
1.673200e-01
-1.259630e-01
-1.473660e-01
-3.990610e-02
-8.642170e-02
-1.207810e-02
2.158270e-02
-1.088280e-01
-1.259630e-01
6.356940e-01
6.286820e-01
-5.141160e-02
-1.207810e-02
-2.055860e-01
-2.223870e-01
-1.259630e-01
-1.473660e-01
6.286820e-01
6.192190e-01
-1.207810e-02
2.158270e-02
-2.223870e-01
-2.213280e-01
6.356940e-01
6.286820e-01
1.372150e-01
4.133500e-02
-2.055860e-01
-2.223870e-01
-2.986300e-01
-2.351150e-01
6.286820e-01
6.192190e-01
4.133500e-02
-4.689680e-02
-2.223870e-01
-2.213280e-01
-2.351150e-01
-1.789070e-01
1.372150e-01
4.133500e-02
-7.834320e-03
-3.447320e-02
-2.986300e-01
-2.351150e-01
-5.467800e-02
1.251550e-02
4.133500e-02
-4.689680e-02
-3.447320e-02
-7.994600e-02
-2.351150e-01
-1.789070e-01
1.251550e-02
7.375320e-02
-7.834320e-03
-3.447320e-02
-1.026870e-01
-5.039750e-02
-5.467800e-02
1.251550e-02
-1.060500e-01
-9.555730e-02
-3.447320e-02
-7.994600e-02
-5.039750e-02
-1.979090e-02
1.251550e-02
7.375320e-02
-9.555730e-02
-7.135580e-02
-1.026870e-01
-5.039750e-02
-5.649380e-01
-5.020420e-01
-1.060500e-01
-9.555730e-02
1.983300e-01
1.732090e-01
-5.039750e-02
-1.979090e-02
-5.020420e-01
-4.251360e-01
-9.555730e-02
-7.135580e-02
1.732090e-01
1.314410e-01
-5.649380e-01
-5.020420e-01
-7.858540e-01
-8.046780e-01
1.983300e-01
1.732090e-01
5.180930e-01
5.198370e-01
-5.020420e-01
-4.251360e-01
-8.046780e-01
-8.172070e-01
1.732090e-01
1.314410e-01
5.198370e-01
5.407730e-01
-7.858540e-01
-8.046780e-01
4.355760e-03
5.739080e-02
5.180930e-01
5.198370e-01
-5.317460e-02
-6.174820e-02
-8.046780e-01
-8.172070e-01
5.739080e-02
7.288320e-02
5.198370e-01
5.407730e-01
-6.174820e-02
-7.707200e-02
0.000000e+00
0.000000e+00
1.339500e-01
1.032530e-01
0.000000e+00
0.000000e+00
-1.362500e-01
-7.318080e-02
0.000000e+00
0.000000e+00
1.032530e-01
8.451940e-02
0.000000e+00
0.000000e+00
-7.318080e-02
-3.489950e-02
1.339500e-01
1.032530e-01
2.489260e-01
2.308900e-01
-1.362500e-01
-7.318080e-02
-4.415110e-01
-4.620330e-01
1.032530e-01
8.451940e-02
2.308900e-01
2.075530e-01
-7.318080e-02
-3.489950e-02
-4.620330e-01
-4.519830e-01
2.489260e-01
2.308900e-01
9.018500e-02
9.402410e-02
-4.415110e-01
-4.620330e-01
2.923010e-02
-6.227560e-02
2.308900e-01
2.075530e-01
9.402410e-02
1.054230e-01
-4.620330e-01
-4.519830e-01
-6.227560e-02
-1.721450e-01
9.018500e-02
9.402410e-02
-6.611140e-02
-3.630100e-02
2.923010e-02
-6.227560e-02
2.198610e-01
2.205090e-01
9.402410e-02
1.054230e-01
-3.630100e-02
-1.113980e-03
-6.227560e-02
-1.721450e-01
2.205090e-01
2.232730e-01
-6.611140e-02
-3.630100e-02
3.302990e-01
3.607850e-01
2.198610e-01
2.205090e-01
-5.316240e-01
-5.752720e-01
-3.630100e-02
-1.113980e-03
3.607850e-01
3.865680e-01
2.205090e-01
2.232730e-01
-5.752720e-01
-6.131110e-01
3.302990e-01
3.607850e-01
-9.261050e-02
-4.039220e-02
-5.316240e-01
-5.752720e-01
-2.090470e-01
-2.924420e-01
3.607850e-01
3.865680e-01
-4.039220e-02
1.651840e-02
-5.752720e-01
-6.131110e-01
-2.924420e-01
-3.732290e-01
-9.261050e-02
-4.039220e-02
2.860330e-01
2.307610e-01
-2.090470e-01
-2.924420e-01
-5.491820e-01
-4.747540e-01
-4.039220e-02
1.651840e-02
2.307610e-01
1.656050e-01
-2.924420e-01
-3.732290e-01
-4.747540e-01
-4.147640e-01
2.860330e-01
2.307610e-01
-2.481870e-01
-2.582060e-01
-5.491820e-01
-4.747540e-01
4.153340e-01
4.244260e-01
2.307610e-01
1.656050e-01
-2.582060e-01
-2.692630e-01
-4.747540e-01
-4.147640e-01
4.244260e-01
4.410720e-01
-2.481870e-01
-2.582060e-01
3.356970e-02
-8.044300e-03
4.153340e-01
4.244260e-01
-1.352760e-01
-1.129310e-01
-2.582060e-01
-2.692630e-01
-8.044300e-03
-5.030270e-02
4.244260e-01
4.410720e-01
-1.129310e-01
-8.668140e-02
3.356970e-02
-8.044300e-03
-1.596790e-01
-1.560910e-01
-1.352760e-01
-1.129310e-01
1.540760e-01
1.821160e-01
-8.044300e-03
-5.030270e-02
-1.560910e-01
-1.579800e-01
-1.129310e-01
-8.668140e-02
1.821160e-01
2.181470e-01
-1.596790e-01
-1.560910e-01
9.051310e-02
4.998660e-02
1.540760e-01
1.821160e-01
-4.442360e-01
-4.067580e-01
-1.560910e-01
-1.579800e-01
4.998660e-02
1.676970e-02
1.821160e-01
2.181470e-01
-4.067580e-01
-3.852130e-01
9.051310e-02
4.998660e-02
4.336950e-01
4.691350e-01
-4.442360e-01
-4.067580e-01
-2.102310e-01
-2.546210e-01
4.998660e-02
1.676970e-02
4.691350e-01
4.988950e-01
-4.067580e-01
-3.852130e-01
-2.546210e-01
-3.057880e-01
4.336950e-01
4.691350e-01
-6.088200e-02
-5.615010e-02
-2.102310e-01
-2.546210e-01
-1.375410e-01
-1.572760e-01
4.691350e-01
4.988950e-01
-5.615010e-02
-4.831760e-02
-2.546210e-01
-3.057880e-01
-1.572760e-01
-1.612860e-01
-6.088200e-02
-5.615010e-02
6.669060e-02
4.869200e-02
-1.375410e-01
-1.572760e-01
-3.730430e-02
-5.522370e-02
-5.615010e-02
-4.831760e-02
4.869200e-02
2.786280e-02
-1.572760e-01
-1.612860e-01
-5.522370e-02
-7.339010e-02
6.669060e-02
4.869200e-02
2.374360e-01
1.403560e-01
-3.730430e-02
-5.522370e-02
-1.587690e-01
-4.681700e-02
4.869200e-02
2.786280e-02
1.403560e-01
4.830380e-02
-5.522370e-02
-7.339010e-02
-4.681700e-02
5.345170e-02
2.374360e-01
1.403560e-01
-6.834410e-02
-4.655340e-02
-1.587690e-01
-4.681700e-02
2.366230e-01
1.950060e-01
1.403560e-01
4.830380e-02
-4.655340e-02
-1.903310e-02
-4.681700e-02
5.345170e-02
1.950060e-01
1.275920e-01
-6.834410e-02
-4.655340e-02
-1.600870e-01
-1.610550e-01
2.366230e-01
1.950060e-01
8.105530e-02
1.370540e-01
-4.655340e-02
-1.903310e-02
-1.610550e-01
-1.579550e-01
1.950060e-01
1.275920e-01
1.370540e-01
2.124970e-01
-1.600870e-01
-1.610550e-01
4.614530e-02
2.992670e-02
8.105530e-02
1.370540e-01
-2.004020e-01
-1.937770e-01
-1.610550e-01
-1.579550e-01
2.992670e-02
2.652460e-02
1.370540e-01
2.124970e-01
-1.937770e-01
-1.956480e-01
4.614530e-02
2.992670e-02
-1.571630e-01
-1.440020e-01
-2.004020e-01
-1.937770e-01
-1.819470e-01
-1.679420e-01
2.992670e-02
2.652460e-02
-1.440020e-01
-1.390730e-01
-1.937770e-01
-1.956480e-01
-1.679420e-01
-1.674640e-01
-1.571630e-01
-1.440020e-01
8.025820e-02
5.999910e-02
-1.819470e-01
-1.679420e-01
9.396750e-02
1.852460e-02
-1.440020e-01
-1.390730e-01
5.999910e-02
3.966120e-02
-1.679420e-01
-1.674640e-01
1.852460e-02
-4.274740e-02
8.025820e-02
5.999910e-02
-2.850940e-01
-2.843260e-01
9.396750e-02
1.852460e-02
2.331660e-01
2.747830e-01
5.999910e-02
3.966120e-02
-2.843260e-01
-2.851820e-01
1.852460e-02
-4.274740e-02
2.747830e-01
3.123110e-01
-2.850940e-01
-2.843260e-01
1.468320e-02
-3.990610e-02
2.331660e-01
2.747830e-01
-9.651650e-02
-5.077250e-02
-2.843260e-01
-2.851820e-01
-3.990610e-02
-8.642170e-02
2.747830e-01
3.123110e-01
-5.077250e-02
-2.086800e-02
1.468320e-02
-3.990610e-02
-5.141160e-02
-1.207810e-02
-9.651650e-02
-5.077250e-02
1.722020e-01
1.579930e-01
-3.990610e-02
-8.642170e-02
-1.207810e-02
2.158270e-02
-5.077250e-02
-2.086800e-02
1.579930e-01
1.415680e-01
-5.141160e-02
-1.207810e-02
-2.055860e-01
-2.223870e-01
1.722020e-01
1.579930e-01
-1.972850e-01
-1.774940e-01
-1.207810e-02
2.158270e-02
-2.223870e-01
-2.213280e-01
1.579930e-01
1.415680e-01
-1.774940e-01
-1.643240e-01
-2.055860e-01
-2.223870e-01
-2.986300e-01
-2.351150e-01
-1.972850e-01
-1.774940e-01
4.043620e-01
4.012380e-01
-2.223870e-01
-2.213280e-01
-2.351150e-01
-1.789070e-01
-1.774940e-01
-1.643240e-01
4.012380e-01
3.905520e-01
-2.986300e-01
-2.351150e-01
-5.467800e-02
1.251550e-02
4.043620e-01
4.012380e-01
1.554910e-01
4.585840e-02
-2.351150e-01
-1.789070e-01
1.251550e-02
7.375320e-02
4.012380e-01
3.905520e-01
4.585840e-02
-5.552910e-02
-5.467800e-02
1.251550e-02
-1.060500e-01
-9.555730e-02
1.554910e-01
4.585840e-02
2.629850e-01
2.130390e-01
1.251550e-02
7.375320e-02
-9.555730e-02
-7.135580e-02
4.585840e-02
-5.552910e-02
2.130390e-01
1.910670e-01
-1.060500e-01
-9.555730e-02
1.983300e-01
1.732090e-01
2.629850e-01
2.130390e-01
1.276160e-01
1.294590e-01
-9.555730e-02
-7.135580e-02
1.732090e-01
1.314410e-01
2.130390e-01
1.910670e-01
1.294590e-01
1.080300e-01
1.983300e-01
1.732090e-01
5.180930e-01
5.198370e-01
1.276160e-01
1.294590e-01
-2.535570e-01
-1.833000e-01
1.732090e-01
1.314410e-01
5.198370e-01
5.407730e-01
1.294590e-01
1.080300e-01
-1.833000e-01
-1.332510e-01
5.180930e-01
5.198370e-01
-5.317460e-02
-6.174820e-02
-2.535570e-01
-1.833000e-01
1.238790e-01
1.233420e-02
5.198370e-01
5.407730e-01
-6.174820e-02
-7.707200e-02
-1.833000e-01
-1.332510e-01
1.233420e-02
-6.482440e-02
</DataArray>
<DataArray type="Float32" Name="V2" format="ascii">
0.000000e+00
0.000000e+00
-6.517930e-02
3.497630e-01
0.000000e+00
0.000000e+00
-3.184570e-01
-3.365740e-01
0.000000e+00
0.000000e+00
3.497630e-01
8.823740e-01
0.000000e+00
0.000000e+00
-3.365740e-01
-6.481610e-01
-6.517930e-02
3.497630e-01
-3.311480e-01
-4.267940e-01
-3.184570e-01
-3.365740e-01
1.414840e-01
2.798450e-01
3.497630e-01
8.823740e-01
-4.267940e-01
-1.083470e-01
-3.365740e-01
-6.481610e-01
2.798450e-01
3.420690e-01
-3.311480e-01
-4.267940e-01
5.361260e-02
6.575740e-02
1.414840e-01
2.798450e-01
-1.039800e-01
-1.776230e-01
-4.267940e-01
-1.083470e-01
6.575740e-02
-4.567880e-02
2.798450e-01
3.420690e-01
-1.776230e-01
-2.382150e-01
5.361260e-02
6.575740e-02
1.247990e-01
1.831540e-01
-1.039800e-01
-1.776230e-01
2.194570e-02
-2.463300e-01
6.575740e-02
-4.567880e-02
1.831540e-01
1.319360e-01
-1.776230e-01
-2.382150e-01
-2.463300e-01
-3.978250e-01
1.247990e-01
1.831540e-01
5.318510e-01
-2.874720e-02
2.194570e-02
-2.463300e-01
-2.764700e-01
-9.031710e-02
1.831540e-01
1.319360e-01
-2.874720e-02
-5.401130e-01
-2.463300e-01
-3.978250e-01
-9.031710e-02
6.523070e-02
5.318510e-01
-2.874720e-02
-4.923150e-01
-5.924760e-01
-2.764700e-01
-9.031710e-02
4.279380e-01
3.486870e-01
-2.874720e-02
-5.401130e-01
-5.924760e-01
-6.707630e-01
-9.031710e-02
6.523070e-02
3.486870e-01
2.251630e-01
-4.923150e-01
-5.924760e-01
-6.882030e-02
3.243480e-01
4.279380e-01
3.486870e-01
2.627500e-02
-2.133850e-01
-5.924760e-01
-6.707630e-01
3.243480e-01
6.294470e-01
3.486870e-01
2.251630e-01
-2.133850e-01
-1.504780e-01
-6.882030e-02
3.243480e-01
1.546090e-01
2.025390e-01
2.627500e-02
-2.133850e-01
-2.744220e-01
-4.661450e-02
3.243480e-01
6.294470e-01
2.025390e-01
3.074690e-01
-2.133850e-01
-1.504780e-01
-4.661450e-02
1.351640e-01
1.546090e-01
2.025390e-01
-1.828860e-01
2.707110e-03
-2.744220e-01
-4.661450e-02
1.339200e-01
1.137230e-02
2.025390e-01
3.074690e-01
2.707110e-03
8.835140e-02
-4.661450e-02
1.351640e-01
1.137230e-02
-3.231140e-01
-1.828860e-01
2.707110e-03
5.484270e-01
1.967460e-01
1.339200e-01
1.137230e-02
-3.581890e-01
-3.683510e-01
2.707110e-03
8.835140e-02
1.967460e-01
-7.872870e-03
1.137230e-02
-3.231140e-01
-3.683510e-01
-4.649570e-01
5.484270e-01
1.967460e-01
-9.658620e-01
-6.777200e-01
-3.581890e-01
-3.683510e-01
4.881790e-01
3.678930e-01
1.967460e-01
-7.872870e-03
-6.777200e-01
-4.993540e-01
-3.683510e-01
-4.649570e-01
3.678930e-01
2.746200e-01
-9.658620e-01
-6.777200e-01
3.299220e-01
-4.465390e-02
4.881790e-01
3.678930e-01
-1.942720e-01
-3.927030e-02
-6.777200e-01
-4.993540e-01
-4.465390e-02
-3.192440e-01
3.678930e-01
2.746200e-01
-3.927030e-02
1.170250e-01
3.299220e-01
-4.465390e-02
1.572280e-01
-1.269400e-02
-1.942720e-01
-3.927030e-02
1.934180e-02
2.358990e-01
-4.465390e-02
-3.192440e-01
-1.269400e-02
1.292970e-01
-3.927030e-02
1.170250e-01
2.358990e-01
2.346710e-01
1.572280e-01
-1.269400e-02
-2.633820e-01
2.739260e-03
1.934180e-02
2.358990e-01
1.642980e-01
1.135270e-01
-1.269400e-02
1.292970e-01
2.739260e-03
1.481600e-01
2.358990e-01
2.346710e-01
1.135270e-01
4.578080e-02
-2.633820e-01
2.739260e-03
-8.817120e-02
-3.860590e-02
1.642980e-01
1.135270e-01
-1.240080e-01
-1.847360e-01
2.739260e-03
1.481600e-01
-3.860590e-02
1.733400e-02
1.135270e-01
4.578080e-02
-1.847360e-01
-5.263630e-02
-8.817120e-02
-3.860590e-02
-2.831260e-01
-2.156170e-01
-1.240080e-01
-1.847360e-01
4.614330e-04
-7.091370e-02
-3.860590e-02
1.733400e-02
-2.156170e-01
-1.655200e-01
-1.847360e-01
-5.263630e-02
-7.091370e-02
-1.103900e-01
-2.831260e-01
-2.156170e-01
2.803930e-01
-3.454530e-01
4.614330e-04
-7.091370e-02
-3.768650e-01
1.576920e-01
-2.156170e-01
-1.655200e-01
-3.454530e-01
-7.826580e-01
-7.091370e-02
-1.103900e-01
1.576920e-01
5.380500e-01
2.803930e-01
-3.454530e-01
9.435090e-01
3.739990e-01
-3.768650e-01
1.576920e-01
-7.682220e-01
-2.078120e-01
-3.454530e-01
-7.826580e-01
3.739990e-01
4.720460e-02
1.576920e-01
5.380500e-01
-2.078120e-01
2.020920e-01
9.435090e-01
3.739990e-01
6.571650e-02
1.310460e-01
-7.682220e-01
-2.078120e-01
1.982820e-01
9.416030e-03
3.739990e-01
4.720460e-02
1.310460e-01
2.353110e-01
-2.078120e-01
2.020920e-01
9.416030e-03
-2.113730e-01
6.571650e-02
1.310460e-01
1.605370e-01
7.935080e-02
1.982820e-01
9.416030e-03
-3.233010e-01
-1.138280e-01
1.310460e-01
2.353110e-01
7.935080e-02
-1.868910e-01
9.416030e-03
-2.113730e-01
-1.138280e-01
2.470230e-01
1.605370e-01
7.935080e-02
-1.979110e-01
2.279710e-01
-3.233010e-01
-1.138280e-01
-2.493770e-02
-1.793000e-01
7.935080e-02
-1.868910e-01
2.279710e-01
4.914490e-01
-1.138280e-01
2.470230e-01
-1.793000e-01
-3.979470e-01
-1.979110e-01
2.279710e-01
-5.639390e-01
-6.715700e-01
-2.493770e-02
-1.793000e-01
3.722570e-01
4.575800e-01
2.279710e-01
4.914490e-01
-6.715700e-01
-6.519430e-01
-1.793000e-01
-3.979470e-01
4.575800e-01
4.983470e-01
-5.639390e-01
-6.715700e-01
8.030750e-01
7.716170e-02
3.722570e-01
4.575800e-01
-6.289180e-01
-7.887440e-02
-6.715700e-01
-6.519430e-01
7.716170e-02
-4.463760e-01
4.575800e-01
4.983470e-01
-7.887440e-02
2.796590e-01
8.030750e-01
7.716170e-02
2.175460e-01
5.473390e-01
-6.289180e-01
-7.887440e-02
1.198900e-01
-3.085230e-01
7.716170e-02
-4.463760e-01
5.473390e-01
7.012650e-01
-7.887440e-02
2.796590e-01
-3.085230e-01
-4.783810e-01
2.175460e-01
5.473390e-01
-3.710800e-01
-5.188140e-01
1.198900e-01
-3.085230e-01
2.011600e-01
4.370410e-01
5.473390e-01
7.012650e-01
-5.188140e-01
-7.406890e-01
-3.085230e-01
-4.783810e-01
4.370410e-01
7.602360e-01
-3.710800e-01
-5.188140e-01
-1.802000e-01
5.217130e-02
2.011600e-01
4.370410e-01
2.938350e-01
2.088940e-02
-5.188140e-01
-7.406890e-01
5.217130e-02
2.156530e-02
4.370410e-01
7.602360e-01
2.088940e-02
4.385460e-03
-1.802000e-01
5.217130e-02
1.108280e-01
5.536960e-02
2.938350e-01
2.088940e-02
-2.656550e-01
-1.141780e-01
5.217130e-02
2.156530e-02
5.536960e-02
3.484420e-01
2.088940e-02
4.385460e-03
-1.141780e-01
-1.341860e-01
1.108280e-01
5.536960e-02
2.472550e-03
-2.600540e-01
-2.656550e-01
-1.141780e-01
-2.060680e-01
9.364840e-02
5.536960e-02
3.484420e-01
-2.600540e-01
-4.313000e-01
-1.141780e-01
-1.341860e-01
9.364840e-02
3.093820e-01
2.472550e-03
-2.600540e-01
-2.273920e-01
-7.498940e-02
-2.060680e-01
9.364840e-02
2.575490e-01
8.078790e-02
-2.600540e-01
-4.313000e-01
-7.498940e-02
1.885360e-01
9.364840e-02
3.093820e-01
8.078790e-02
-1.262380e-01
-2.273920e-01
-7.498940e-02
-1.987620e-01
2.342420e-01
2.575490e-01
8.078790e-02
1.933980e-01
-2.004940e-01
-7.498940e-02
1.885360e-01
2.342420e-01
5.417430e-01
8.078790e-02
-1.262380e-01
-2.004940e-01
-7.015360e-01
0.000000e+00
0.000000e+00
-3.184570e-01
-3.365740e-01
0.000000e+00
0.000000e+00
6.885390e-01
3.989770e-01
0.000000e+00
0.000000e+00
-3.365740e-01
-6.481610e-01
0.000000e+00
0.000000e+00
3.989770e-01
3.667650e-01
-3.184570e-01
-3.365740e-01
1.414840e-01
2.798450e-01
6.885390e-01
3.989770e-01
8.757730e-02
-1.687330e-01
-3.365740e-01
-6.481610e-01
2.798450e-01
3.420690e-01
3.989770e-01
3.667650e-01
-1.687330e-01
-5.482480e-01