<?xml version="1.0"?>
<VTKFile type="UnstructuredGrid" version="0.1" byte_order="LittleEndian" compressor="vtkZLibDataCompressor">
<UnstructuredGrid>
<Piece NumberOfPoints="960" NumberOfCells="120">
<Points>
<DataArray type="Float32" NumberOfComponents="3" format="ascii">
-4.000000e+02 -6.000000e+03 -4.000000e+02
0.000000e+00 -6.000000e+03 -4.000000e+02
-3.997530e+02 -5.600620e+03 -4.005830e+02
3.102310e-01 -5.600810e+03 -4.012230e+02
-4.000000e+02 -6.000000e+03 0.000000e+00
0.000000e+00 -6.000000e+03 0.000000e+00
-4.001090e+02 -5.600050e+03 -6.924850e-01
-1.100330e-01 -5.599640e+03 -2.057810e-01
0.000000e+00 -6.000000e+03 -4.000000e+02
4.000000e+02 -6.000000e+03 -4.000000e+02
3.102310e-01 -5.600810e+03 -4.012230e+02
4.004210e+02 -5.600390e+03 -4.013920e+02
0.000000e+00 -6.000000e+03 0.000000e+00
4.000000e+02 -6.000000e+03 0.000000e+00
-1.100330e-01 -5.599640e+03 -2.057810e-01
3.998360e+02 -5.600050e+03 4.288220e-01
-3.997530e+02 -5.600620e+03 -4.005830e+02
3.102310e-01 -5.600810e+03 -4.012230e+02
-4.002460e+02 -5.201100e+03 -4.022070e+02
-2.016450e-01 -5.200920e+03 -4.017440e+02
-4.001090e+02 -5.600050e+03 -6.924850e-01
-1.100330e-01 -5.599640e+03 -2.057810e-01
-4.001780e+02 -5.200060e+03 -9.846360e-01
-1.611450e-01 -5.200200e+03 -9.224500e-01
3.102310e-01 -5.600810e+03 -4.012230e+02
4.004210e+02 -5.600390e+03 -4.013920e+02
-2.016450e-01 -5.200920e+03 -4.017440e+02
3.998570e+02 -5.200720e+03 -4.025280e+02
-1.100330e-01 -5.599640e+03 -2.057810e-01
3.998360e+02 -5.600050e+03 4.288220e-01
-1.611450e-01 -5.200200e+03 -9.224500e-01
3.998510e+02 -5.200070e+03 -1.575860e+00
-4.002460e+02 -5.201100e+03 -4.022070e+02
-2.016450e-01 -5.200920e+03 -4.017440e+02
-4.002450e+02 -4.802060e+03 -4.030090e+02
-4.388410e-01 -4.801400e+03 -4.030340e+02
-4.001780e+02 -5.200060e+03 -9.846360e-01
-1.611450e-01 -5.200200e+03 -9.224500e-01
-4.000120e+02 -4.800030e+03 -2.694940e+00
-1.357910e-01 -4.800190e+03 -2.421800e+00
-2.016450e-01 -5.200920e+03 -4.017440e+02
3.998570e+02 -5.200720e+03 -4.025280e+02
-4.388410e-01 -4.801400e+03 -4.030340e+02
3.994040e+02 -4.801280e+03 -4.030710e+02
-1.611450e-01 -5.200200e+03 -9.224500e-01
3.998510e+02 -5.200070e+03 -1.575860e+00
-1.357910e-01 -4.800190e+03 -2.421800e+00
3.997560e+02 -4.800200e+03 -2.407920e+00
-4.002450e+02 -4.802060e+03 -4.030090e+02
-4.388410e-01 -4.801400e+03 -4.030340e+02
-4.003260e+02 -4.402040e+03 -4.046530e+02
-2.176690e-01 -4.401660e+03 -4.048040e+02
-4.000120e+02 -4.800030e+03 -2.694940e+00
-1.357910e-01 -4.800190e+03 -2.421800e+00
-4.001830e+02 -4.400110e+03 -5.377660e+00
-1.453100e-01 -4.400330e+03 -4.805270e+00
-4.388410e-01 -4.801400e+03 -4.030340e+02
3.994040e+02 -4.801280e+03 -4.030710e+02
-2.176690e-01 -4.401660e+03 -4.048040e+02
3.997510e+02 -4.402540e+03 -4.047320e+02
-1.357910e-01 -4.800190e+03 -2.421800e+00
3.997560e+02 -4.800200e+03 -2.407920e+00
-1.453100e-01 -4.400330e+03 -4.805270e+00
3.998250e+02 -4.399750e+03 -5.229970e+00
-4.003260e+02 -4.402040e+03 -4.046530e+02
-2.176690e-01 -4.401660e+03 -4.048040e+02
-4.001970e+02 -4.002720e+03 -4.057120e+02
-3.559330e-01 -4.002830e+03 -4.064330e+02
-4.001830e+02 -4.400110e+03 -5.377660e+00
-1.453100e-01 -4.400330e+03 -4.805270e+00
-4.003850e+02 -3.999980e+03 -7.343290e+00
-2.673170e-01 -4.000300e+03 -7.173650e+00
-2.176690e-01 -4.401660e+03 -4.048040e+02
3.997510e+02 -4.402540e+03 -4.047320e+02
-3.559330e-01 -4.002830e+03 -4.064330e+02
3.995250e+02 -4.003220e+03 -4.068220e+02
-1.453100e-01 -4.400330e+03 -4.805270e+00
3.998250e+02 -4.399750e+03 -5.229970e+00
-2.673170e-01 -4.000300e+03 -7.173650e+00
3.997950e+02 -4.000110e+03 -7.862890e+00
-4.001970e+02 -4.002720e+03 -4.057120e+02
-3.559330e-01 -4.002830e+03 -4.064330e+02
-4.003980e+02 -3.603420e+03 -4.108780e+02
-3.705420e-01 -3.603360e+03 -4.108160e+02
-4.003850e+02 -3.999980e+03 -7.343290e+00
-2.673170e-01 -4.000300e+03 -7.173650e+00
-3.999270e+02 -3.600000e+03 -9.985790e+00
-2.432690e-01 -3.600220e+03 -1.098230e+01
-3.559330e-01 -4.002830e+03 -4.064330e+02
3.995250e+02 -4.003220e+03 -4.068220e+02
-3.705420e-01 -3.603360e+03 -4.108160e+02
3.995910e+02 -3.603300e+03 -4.111350e+02
-2.673170e-01 -4.000300e+03 -7.173650e+00
3.997950e+02 -4.000110e+03 -7.862890e+00
-2.432690e-01 -3.600220e+03 -1.098230e+01
3.995380e+02 -3.600580e+03 -1.218030e+01
-4.003980e+02 -3.603420e+03 -4.108780e+02
-3.705420e-01 -3.603360e+03 -4.108160e+02
-4.008110e+02 -3.203310e+03 -4.127920e+02
-8.992760e-01 -3.204160e+03 -4.140710e+02
-3.999270e+02 -3.600000e+03 -9.985790e+00
-2.432690e-01 -3.600220e+03 -1.098230e+01
-3.999270e+02 -3.200120e+03 -1.341970e+01
1.129740e-01 -3.199600e+03 -1.414810e+01
-3.705420e-01 -3.603360e+03 -4.108160e+02
3.995910e+02 -3.603300e+03 -4.111350e+02
-8.992760e-01 -3.204160e+03 -4.140710e+02
3.991940e+02 -3.203820e+03 -4.146200e+02
-2.432690e-01 -3.600220e+03 -1.098230e+01
3.995380e+02 -3.600580e+03 -1.218030e+01
1.129740e-01 -3.199600e+03 -1.414810e+01
3.999780e+02 -3.199770e+03 -1.497220e+01
-4.008110e+02 -3.203310e+03 -4.127920e+02
-8.992760e-01 -3.204160e+03 -4.140710e+02
-4.002850e+02 -2.804430e+03 -4.176780e+02
-4.048280e-01 -2.804060e+03 -4.185660e+02
-3.999270e+02 -3.200120e+03 -1.341970e+01
1.129740e-01 -3.199600e+03 -1.414810e+01
-4.000650e+02 -2.799920e+03 -1.679180e+01
-8.286780e-02 -2.800010e+03 -1.789840e+01
-8.992760e-01 -3.204160e+03 -4.140710e+02
3.991940e+02 -3.203820e+03 -4.146200e+02
-4.048280e-01 -2.804060e+03 -4.185660e+02
3.992910e+02 -2.804360e+03 -4.185400e+02
1.129740e-01 -3.199600e+03 -1.414810e+01
3.999780e+02 -3.199770e+03 -1.497220e+01
-8.286780e-02 -2.800010e+03 -1.789840e+01
4.000650e+02 -2.799860e+03 -1.970900e+01
-4.002850e+02 -2.804430e+03 -4.176780e+02
-4.048280e-01 -2.804060e+03 -4.185660e+02
-4.012480e+02 -2.404790e+03 -4.205190e+02
-1.034450e+00 -2.404930e+03 -4.223520e+02
-4.000650e+02 -2.799920e+03 -1.679180e+01
-8.286780e-02 -2.800010e+03 -1.789840e+01
-3.996520e+02 -2.400150e+03 -2.301460e+01
1.113740e-01 -2.399870e+03 -2.289640e+01
-4.048280e-01 -2.804060e+03 -4.185660e+02
3.992910e+02 -2.804360e+03 -4.185400e+02
-1.034450e+00 -2.404930e+03 -4.223520e+02
3.993240e+02 -2.404670e+03 -4.241420e+02
-8.286780e-02 -2.800010e+03 -1.789840e+01
4.000650e+02 -2.799860e+03 -1.970900e+01
1.113740e-01 -2.399870e+03 -2.289640e+01
3.997910e+02 -2.400140e+03 -2.331920e+01
-4.012480e+02 -2.404790e+03 -4.205190e+02
-1.034450e+00 -2.404930e+03 -4.223520e+02
-4.006380e+02 -2.005120e+03 -4.275520e+02
-8.507660e-01 -2.005270e+03 -4.278480e+02
-3.996520e+02 -2.400150e+03 -2.301460e+01
1.113740e-01 -2.399870e+03 -2.289640e+01
-4.000300e+02 -2.000530e+03 -2.640540e+01
1.085710e-02 -2.000260e+03 -2.817640e+01
-1.034450e+00 -2.404930e+03 -4.223520e+02
3.993240e+02 -2.404670e+03 -4.241420e+02
-8.507660e-01 -2.005270e+03 -4.278480e+02
3.990310e+02 -2.005660e+03 -4.281720e+02
1.113740e-01 -2.399870e+03 -2.289640e+01
3.997910e+02 -2.400140e+03 -2.331920e+01
1.085710e-02 -2.000260e+03 -2.817640e+01
4.001000e+02 -2.000170e+03 -2.824580e+01
-4.006380e+02 -2.005120e+03 -4.275520e+02
-8.507660e-01 -2.005270e+03 -4.278480e+02
-4.007500e+02 -1.606140e+03 -4.326700e+02
-5.071470e-01 -1.606150e+03 -4.325690e+02
-4.000300e+02 -2.000530e+03 -2.640540e+01
1.085710e-02 -2.000260e+03 -2.817640e+01
-4.000160e+02 -1.600020e+03 -3.261750e+01
-8.546140e-02 -1.600400e+03 -3.330770e+01
-8.507660e-01 -2.005270e+03 -4.278480e+02
3.990310e+02 -2.005660e+03 -4.281720e+02
-5.071470e-01 -1.606150e+03 -4.325690e+02
3.995540e+02 -1.606430e+03 -4.328260e+02
1.085710e-02 -2.000260e+03 -2.817640e+01
4.001000e+02 -2.000170e+03 -2.824580e+01
-8.546140e-02 -1.600400e+03 -3.330770e+01
3.999180e+02 -1.599880e+03 -3.476710e+01
-4.007500e+02 -1.606140e+03 -4.326700e+02
-5.071470e-01 -1.606150e+03 -4.325690e+02
-3.997630e+02 -1.206900e+03 -4.390330e+02
-1.360570e-01 -1.206270e+03 -4.390790e+02
-4.000160e+02 -1.600020e+03 -3.261750e+01
-8.546140e-02 -1.600400e+03 -3.330770e+01
-4.001210e+02 -1.199980e+03 -3.846620e+01
-1.345120e-01 -1.200510e+03 -3.898970e+01
-5.071470e-01 -1.606150e+03 -4.325690e+02
3.995540e+02 -1.606430e+03 -4.328260e+02
-1.360570e-01 -1.206270e+03 -4.390790e+02
3.995780e+02 -1.206040e+03 -4.392520e+02
-8.546140e-02 -1.600400e+03 -3.330770e+01
3.999180e+02 -1.599880e+03 -3.476710e+01
-1.345120e-01 -1.200510e+03 -3.898970e+01
3.998000e+02 -1.200290e+03 -3.995750e+01
-3.997630e+02 -1.206900e+03 -4.390330e+02
-1.360570e-01 -1.206270e+03 -4.390790e+02
-4.002020e+02 -8.067660e+02 -4.453330e+02
-1.163020e-01 -8.067720e+02 -4.432200e+02
-4.001210e+02 -1.199980e+03 -3.846620e+01
-1.345120e-01 -1.200510e+03 -3.898970e+01
-4.002860e+02 -8.001590e+02 -4.535990e+01
-1.979240e-01 -8.000900e+02 -4.541500e+01
-1.360570e-01 -1.206270e+03 -4.390790e+02
3.995780e+02 -1.206040e+03 -4.392520e+02
-1.163020e-01 -8.067720e+02 -4.432200e+02
4.000010e+02 -8.060610e+02 -4.439760e+02
-1.345120e-01 -1.200510e+03 -3.898970e+01
3.998000e+02 -1.200290e+03 -3.995750e+01
-1.979240e-01 -8.000900e+02 -4.541500e+01
3.998930e+02 -8.004920e+02 -4.620110e+01
-4.002020e+02 -8.067660e+02 -4.453330e+02
-1.163020e-01 -8.067720e+02 -4.432200e+02
-4.005370e+02 -4.067540e+02 -4.521630e+02
-4.003920e-01 -4.074670e+02 -4.522030e+02
-4.002860e+02 -8.001590e+02 -4.535990e+01
-1.979240e-01 -8.000900e+02 -4.541500e+01
-4.002450e+02 -4.002550e+02 -5.112450e+01
-6.155860e-02 -3.998420e+02 -5.212050e+01
-1.163020e-01 -8.067720e+02 -4.432200e+02
4.000010e+02 -8.060610e+02 -4.439760e+02
-4.003920e-01 -4.074670e+02 -4.522030e+02
3.997160e+02 -4.068900e+02 -4.521910e+02
-1.979240e-01 -8.000900e+02 -4.541500e+01
3.998930e+02 -8.004920e+02 -4.620110e+01
-6.155860e-02 -3.998420e+02 -5.212050e+01
4.001410e+02 -4.002490e+02 -5.176490e+01
-4.005370e+02 -4.067540e+02 -4.521630e+02
-4.003920e-01 -4.074670e+02 -4.522030e+02
-4.002780e+02 -7.399660e+00 -4.584900e+02
-3.747360e-01 -7.092270e+00 -4.578340e+02
-4.002450e+02 -4.002550e+02 -5.112450e+01
-6.155860e-02 -3.998420e+02 -5.212050e+01
-3.999790e+02 -1.854620e-02 -5.796810e+01
1.020020e-01 -3.334520e-01 -5.855920e+01
-4.003920e-01 -4.074670e+02 -4.522030e+02
[...]
<PointData>
<DataArray type="Float32" Name="V1" format="ascii">
0.000000e+00
0.000000e+00
2.683730e-01
2.336900e-01
0.000000e+00
0.000000e+00
-6.009160e-01
-2.914130e-01
0.000000e+00
0.000000e+00
2.336900e-01
4.057810e-01
0.000000e+00
0.000000e+00
-2.914130e-01
-9.895830e-02
2.683730e-01
2.336900e-01
-4.010320e-01
1.925940e-01
-6.009160e-01
-2.914130e-01
7.107530e-01
3.029460e-03
2.336900e-01
4.057810e-01
1.925940e-01
7.962200e-01
-2.914130e-01
-9.895830e-02
3.029460e-03
-4.452600e-01
-4.010320e-01
1.925940e-01
2.924370e-02
-7.258880e-02
7.107530e-01
3.029460e-03
-1.785370e-01
1.224190e-01
1.925940e-01
7.962200e-01
-7.258880e-02
-1.456740e-01
3.029460e-03
-4.452600e-01
1.224190e-01
2.084470e-01
2.924370e-02
-7.258880e-02
-2.113180e-01
-2.945610e-01
-1.785370e-01
1.224190e-01
-1.007150e-01
-3.386870e-01
-7.258880e-02
-1.456740e-01
-2.945610e-01
-4.636910e-01
1.224190e-01
2.084470e-01
-3.386870e-01
-3.497760e-01
-2.113180e-01
-2.945610e-01
3.774620e-01
1.902000e-01
-1.007150e-01
-3.386870e-01
2.046620e-01
2.592240e-01
-2.945610e-01
-4.636910e-01
1.902000e-01
1.469900e-02
-3.386870e-01
-3.497760e-01
2.592240e-01
2.586590e-01
3.774620e-01
1.902000e-01
7.405130e-01
-1.359200e-02
2.046620e-01
2.592240e-01
-8.643350e-01
-4.398510e-01
1.902000e-01
1.469900e-02
-1.359200e-02
-8.636480e-01
2.592240e-01
2.586590e-01
-4.398510e-01
3.667240e-02
7.405130e-01
-1.359200e-02
-1.365760e-01
1.249550e-01
-8.643350e-01
-4.398510e-01
-2.524600e-01
-2.303690e-01
-1.359200e-02
-8.636480e-01
1.249550e-01
4.537350e-01
-4.398510e-01
3.667240e-02
-2.303690e-01
-2.605960e-01
-1.365760e-01
1.249550e-01
7.263120e-01
3.733320e-01
-2.524600e-01
-2.303690e-01
-4.591480e-01
-1.435620e-01
1.249550e-01
4.537350e-01
3.733320e-01
7.745890e-03
-2.303690e-01
-2.605960e-01
-1.435620e-01
2.615500e-01
7.263120e-01
3.733320e-01
5.614180e-01
4.397760e-02
-4.591480e-01
-1.435620e-01
-8.631890e-01
-3.971780e-01
3.733320e-01
7.745890e-03
4.397760e-02
-2.721900e-01
-1.435620e-01
2.615500e-01
-3.971780e-01
1.022140e-01
5.614180e-01
4.397760e-02
7.089450e-01
-3.055240e-01
-8.631890e-01
-3.971780e-01
-1.556720e-02
2.690260e-01
4.397760e-02
-2.721900e-01
-3.055240e-01
-1.425720e+00
-3.971780e-01
1.022140e-01
2.690260e-01
5.588550e-01
7.089450e-01
-3.055240e-01
-4.112710e-01
3.725750e-01
-1.556720e-02
2.690260e-01
-2.193990e-01
-4.312450e-01
-3.055240e-01
-1.425720e+00
3.725750e-01
1.108320e+00
2.690260e-01
5.588550e-01
-4.312450e-01
-5.184410e-01
-4.112710e-01
3.725750e-01
4.793200e-01
-1.516760e-03
-2.193990e-01
-4.312450e-01
1.545930e-02
1.179930e-01
3.725750e-01
1.108320e+00
-1.516760e-03
-6.832260e-01
-4.312450e-01
-5.184410e-01
1.179930e-01
3.851310e-01
4.793200e-01
-1.516760e-03
-4.277000e-01
1.189790e-01
1.545930e-02
1.179930e-01
2.921260e-01
5.947660e-02
-1.516760e-03
-6.832260e-01
1.189790e-01
6.432990e-01
1.179930e-01
3.851310e-01
5.947660e-02
-2.537410e-01
-4.277000e-01
1.189790e-01
1.108020e-01
-4.137100e-01
2.921260e-01
5.947660e-02
1.031690e-01
5.110720e-01
1.189790e-01
6.432990e-01
-4.137100e-01
-7.873110e-01
5.947660e-02
-2.537410e-01
5.110720e-01
9.836810e-01
1.108020e-01
-4.137100e-01
-3.183400e-02
1.516860e-01
1.031690e-01
5.110720e-01
-4.861660e-01
-1.498710e-01
-4.137100e-01
-7.873110e-01
1.516860e-01
3.921910e-01
5.110720e-01
9.836810e-01
-1.498710e-01
9.057670e-02
-3.183400e-02
1.516860e-01
6.519710e-01
1.246130e-01
-4.861660e-01
-1.498710e-01
-6.018390e-02
6.364320e-02
1.516860e-01
3.921910e-01
1.246130e-01
-1.615560e-01
-1.498710e-01
9.057670e-02
6.364320e-02
9.943890e-02
6.519710e-01
1.246130e-01
1.280510e+00
1.124590e+00
-6.018390e-02
6.364320e-02
-9.204800e-01
-7.786540e-01
1.246130e-01
-1.615560e-01
1.124590e+00
5.932650e-01
6.364320e-02
9.943890e-02
-7.786540e-01
-4.993600e-01
1.280510e+00
1.124590e+00
3.106040e-01
2.783860e-02
-9.204800e-01
-7.786540e-01
3.844750e-02
-1.750360e-01
1.124590e+00
5.932650e-01
2.783860e-02
1.199700e-01
-7.786540e-01
-4.993600e-01
-1.750360e-01
-5.293690e-01
3.106040e-01
2.783860e-02
6.755250e-01
7.553280e-01
3.844750e-02
-1.750360e-01
-3.719190e-01
-3.296490e-01
2.783860e-02
1.199700e-01
7.553280e-01
7.072610e-01
-1.750360e-01
-5.293690e-01
-3.296490e-01
-2.407050e-01
6.755250e-01
7.553280e-01
-7.996380e-01
-6.547740e-01
-3.719190e-01
-3.296490e-01
1.982180e-01
2.823550e-01
7.553280e-01
7.072610e-01
-6.547740e-01
-9.527460e-01
-3.296490e-01
-2.407050e-01
2.823550e-01
3.253740e-01
-7.996380e-01
-6.547740e-01
1.202160e+00
3.208820e-01
1.982180e-01
2.823550e-01
-1.202140e+00
-5.373180e-01
-6.547740e-01
-9.527460e-01
3.208820e-01
-2.027070e-01
2.823550e-01
3.253740e-01
-5.373180e-01
1.588220e-01
1.202160e+00
3.208820e-01
-8.834640e-01
-3.178820e-01
-1.202140e+00
-5.373180e-01
7.082460e-01
2.585570e-01
3.208820e-01
-2.027070e-01
-3.178820e-01
2.312410e-01
-5.373180e-01
1.588220e-01
2.585570e-01
-3.327570e-01
-8.834640e-01
-3.178820e-01
2.833730e-01
-1.870760e-01
7.082460e-01
2.585570e-01
-5.262660e-01
-2.274800e-01
-3.178820e-01
2.312410e-01
-1.870760e-01
-7.121800e-01
2.585570e-01
-3.327570e-01
-2.274800e-01
3.011670e-01
2.833730e-01
-1.870760e-01
8.955360e-01
1.353220e-01
-5.262660e-01
-2.274800e-01
-6.602270e-01
-1.742600e-01
-1.870760e-01
-7.121800e-01
1.353220e-01
-8.474230e-01
-2.274800e-01
3.011670e-01
-1.742600e-01
7.753570e-02
8.955360e-01
1.353220e-01
-5.065060e-01
-4.007890e-01
-6.602270e-01
-1.742600e-01
8.026490e-01
4.445780e-01
1.353220e-01
-8.474230e-01
-4.007890e-01
-1.146460e-01
-1.742600e-01
7.753570e-02
4.445780e-01
3.654590e-01
-5.065060e-01
-4.007890e-01
5.558230e-01
-8.155300e-02
8.026490e-01
4.445780e-01
-5.010970e-01
-4.339640e-02
-4.007890e-01
-1.146460e-01
-8.155300e-02
-7.415280e-01
4.445780e-01
3.654590e-01
-4.339640e-02
3.394990e-01
5.558230e-01
-8.155300e-02
-2.767110e-01
8.761750e-01
-5.010970e-01
-4.339640e-02
3.241240e-01
-2.820070e-01
-8.155300e-02
-7.415280e-01
8.761750e-01
2.095410e+00
-4.339640e-02
3.394990e-01
-2.820070e-01
-1.075300e+00
-2.767110e-01
8.761750e-01
4.691910e-01
-2.609140e-01
3.241240e-01
-2.820070e-01
-4.341540e-01
1.141460e-03
8.761750e-01
2.095410e+00
-2.609140e-01
-1.301570e+00
-2.820070e-01
-1.075300e+00
1.141460e-03
7.314730e-01
4.691910e-01
-2.609140e-01
-1.379890e-01
-3.588810e-02
-4.341540e-01
1.141460e-03
-3.953670e-01
6.816980e-03
-2.609140e-01
-1.301570e+00
-3.588810e-02
1.579820e-01
1.141460e-03
7.314730e-01
6.816980e-03
1.497490e-01
-1.379890e-01
-3.588810e-02
1.471570e+00
4.447250e-01
-3.953670e-01
6.816980e-03
-6.829980e-01
-1.369710e-01
-3.588810e-02
1.579820e-01
4.447250e-01
-7.374550e-01
6.816980e-03
1.497490e-01
-1.369710e-01
6.818030e-01
0.000000e+00
0.000000e+00
-6.009160e-01
-2.914130e-01
0.000000e+00
0.000000e+00
8.315660e-01
3.813240e-01
0.000000e+00
0.000000e+00
-2.914130e-01
-9.895830e-02
0.000000e+00
0.000000e+00
3.813240e-01
-1.319560e-01
-6.009160e-01
-2.914130e-01
7.107530e-01
3.029460e-03
8.315660e-01
3.813240e-01
-9.918810e-01
-4.032670e-01
-2.914130e-01
-9.895830e-02
3.029460e-03
-4.452600e-01
3.813240e-01
-1.319560e-01
-4.032670e-01
1.920630e-01
7.107530e-01
3.029460e-03
-1.785370e-01
1.224190e-01
-9.918810e-01
-4.032670e-01
3.462170e-01
-4.750840e-02
3.029460e-03
-4.452600e-01
1.224190e-01
2.084470e-01
-4.032670e-01
1.920630e-01
-4.750840e-02
-2.418860e-01
-1.785370e-01
1.224190e-01
-1.007150e-01
-3.386870e-01
3.462170e-01
-4.750840e-02
5.021690e-01
8.447250e-01
1.224190e-01
2.084470e-01
-3.386870e-01
-3.497760e-01
-4.750840e-02
-2.418860e-01
8.447250e-01
1.080300e+00
-1.007150e-01
-3.386870e-01
2.046620e-01
2.592240e-01
5.021690e-01
8.447250e-01
-7.449160e-01
-5.205610e-01
-3.386870e-01
-3.497760e-01
2.592240e-01
2.586590e-01
8.447250e-01
1.080300e+00
-5.205610e-01
-5.167440e-01
2.046620e-01
2.592240e-01
-8.643350e-01
-4.398510e-01
-7.449160e-01
-5.205610e-01
9.870180e-01
7.926780e-01
2.592240e-01
2.586590e-01
-4.398510e-01
3.667240e-02
-5.205610e-01
-5.167440e-01
7.926780e-01
7.301790e-01
-8.643350e-01
-4.398510e-01
-2.524600e-01
-2.303690e-01
9.870180e-01
7.926780e-01
7.421160e-01
3.129390e-01
-4.398510e-01
3.667240e-02
-2.303690e-01
-2.605960e-01
7.926780e-01
7.301790e-01
3.129390e-01
7.435610e-02
-2.524600e-01
-2.303690e-01
-4.591480e-01
-1.435620e-01
7.421160e-01
3.129390e-01
3.887020e-02
-1.084690e-01
-2.303690e-01
-2.605960e-01
-1.435620e-01
2.615500e-01
3.129390e-01
7.435610e-02
-1.084690e-01
-5.746090e-01
-4.591480e-01
-1.435620e-01
-8.631890e-01
-3.971780e-01
3.887020e-02
-1.084690e-01
1.382040e+00
7.129050e-01
-1.435620e-01
2.615500e-01
-3.971780e-01
1.022140e-01
-1.084690e-01
-5.746090e-01
7.129050e-01
-1.054150e-02
-8.631890e-01
-3.971780e-01
-1.556720e-02
2.690260e-01
1.382040e+00
7.129050e-01
-7.331510e-01
-1.438930e-01
-3.971780e-01
1.022140e-01
2.690260e-01
5.588550e-01
7.129050e-01
-1.054150e-02
-1.438930e-01
2.354380e-01
-1.556720e-02
2.690260e-01
-2.193990e-01
-4.312450e-01
-7.331510e-01
-1.438930e-01
1.023080e+00
3.846630e-01
2.690260e-01
5.588550e-01
-4.312450e-01
-5.184410e-01
-1.438930e-01
2.354380e-01
3.846630e-01
-5.534630e-03
-2.193990e-01
-4.312450e-01
1.545930e-02
1.179930e-01
1.023080e+00
3.846630e-01
-6.178990e-01
-2.840000e-01
-4.312450e-01
-5.184410e-01
1.179930e-01
3.851310e-01
3.846630e-01
-5.534630e-03
-2.840000e-01
3.609520e-02
1.545930e-02
1.179930e-01
2.921260e-01
5.947660e-02
-6.178990e-01
-2.840000e-01
9.712850e-02
-2.110940e-01
1.179930e-01
3.851310e-01
5.947660e-02
-2.537410e-01
-2.840000e-01
3.609520e-02
-2.110940e-01
-1.953260e-01
2.921260e-01
5.947660e-02
1.031690e-01
5.110720e-01
9.712850e-02
-2.110940e-01
-4.281490e-01
-6.759230e-01
5.947660e-02
-2.537410e-01
5.110720e-01
9.836810e-01
-2.110940e-01
-1.953260e-01
-6.759230e-01
-1.150690e+00
1.031690e-01
5.110720e-01
-4.861660e-01
-1.498710e-01
-4.281490e-01
-6.759230e-01
9.032420e-01
2.836290e-01
5.110720e-01
9.836810e-01
-1.498710e-01
9.057670e-02
-6.759230e-01
-1.150690e+00
2.836290e-01
-6.287880e-01
-4.861660e-01
-1.498710e-01
-6.018390e-02
6.364320e-02
9.032420e-01
2.836290e-01
-4.166930e-01
-3.089920e-01
-1.498710e-01
9.057670e-02
6.364320e-02
9.943890e-02
2.836290e-01
-6.287880e-01
-3.089920e-01
7.031310e-02
-6.018390e-02
6.364320e-02
-9.204800e-01
-7.786540e-01
-4.166930e-01
-3.089920e-01
2.666870e-01
4.715620e-01
6.364320e-02
9.943890e-02
-7.786540e-01
-4.993600e-01
-3.089920e-01
7.031310e-02
4.715620e-01
3.980340e-01
-9.204800e-01
-7.786540e-01
3.844750e-02
-1.750360e-01
2.666870e-01
4.715620e-01
-1.283770e-01
2.369950e-01
-7.786540e-01
-4.993600e-01
-1.750360e-01
-5.293690e-01
4.715620e-01
3.980340e-01
2.369950e-01
8.924600e-01
3.844750e-02
-1.750360e-01
-3.719190e-01
-3.296490e-01
-1.283770e-01
2.369950e-01
8.780890e-02
-2.068880e-02
-1.750360e-01
-5.293690e-01
-3.296490e-01
-2.407050e-01
2.369950e-01
8.924600e-01
-2.068880e-02
-4.273230e-01
-3.719190e-01
-3.296490e-01
1.982180e-01
2.823550e-01
8.780890e-02
-2.068880e-02
1.563580e-01
6.807750e-02
-3.296490e-01
-2.407050e-01
2.823550e-01
3.253740e-01
-2.068880e-02
-4.273230e-01
6.807750e-02
3.734480e-01
1.982180e-01
2.823550e-01
-1.202140e+00
-5.373180e-01
1.563580e-01
6.807750e-02
1.380200e+00
8.477090e-01
2.823550e-01
3.253740e-01
-5.373180e-01
1.588220e-01
6.807750e-02
3.734480e-01
8.477090e-01
1.620250e-01
-1.202140e+00
-5.373180e-01
7.082460e-01
2.585570e-01
1.380200e+00
8.477090e-01
-5.835620e-01
-1.727180e-01
-5.373180e-01
1.588220e-01
2.585570e-01
-3.327570e-01
8.477090e-01
1.620250e-01
-1.727180e-01
2.950760e-01
7.082460e-01
2.585570e-01
-5.262660e-01
-2.274800e-01
-5.835620e-01
-1.727180e-01
8.809310e-01
5.591050e-01
2.585570e-01
-3.327570e-01
-2.274800e-01
3.011670e-01
-1.727180e-01
2.950760e-01
5.591050e-01
1.732130e-01
-5.262660e-01
-2.274800e-01
-6.602270e-01
-1.742600e-01
8.809310e-01
5.591050e-01
2.677460e-01
3.180410e-01
-2.274800e-01
3.011670e-01
-1.742600e-01
7.753570e-02
5.591050e-01
1.732130e-01
3.180410e-01
6.288490e-01
-6.602270e-01
-1.742600e-01
8.026490e-01
4.445780e-01
2.677460e-01
3.180410e-01
-1.257650e+00
-6.494500e-01
-1.742600e-01
7.753570e-02
4.445780e-01
3.654590e-01
3.180410e-01
6.288490e-01
-6.494500e-01
-5.900170e-01
8.026490e-01
4.445780e-01
-5.010970e-01
-4.339640e-02
-1.257650e+00
-6.494500e-01
5.797180e-01
3.597450e-01
4.445780e-01
3.654590e-01
-4.339640e-02
3.394990e-01
-6.494500e-01
-5.900170e-01
3.597450e-01
8.731330e-02
-5.010970e-01
-4.339640e-02
3.241240e-01
-2.820070e-01
5.797180e-01
3.597450e-01
-4.134550e-01
-3.290590e-01
-4.339640e-02
3.394990e-01
-2.820070e-01
-1.075300e+00
3.597450e-01
8.731330e-02
-3.290590e-01
8.694480e-02
3.241240e-01
-2.820070e-01
-4.341540e-01
1.141460e-03
-4.134550e-01
-3.290590e-01
4.949970e-01
1.729650e-01
-2.820070e-01
-1.075300e+00
1.141460e-03
7.314730e-01
-3.290590e-01
8.694480e-02
1.729650e-01
-3.113300e-01
-4.341540e-01
1.141460e-03
-3.953670e-01
6.816980e-03
4.949970e-01
1.729650e-01
5.698090e-01
7.667600e-02
1.141460e-03
7.314730e-01
6.816980e-03
1.497490e-01
1.729650e-01
-3.113300e-01
7.667600e-02
-4.114040e-01
-3.953670e-01
6.816980e-03
-6.829980e-01
-1.369710e-01
5.698090e-01
7.667600e-02
2.471840e-01
-1.313920e-01
6.816980e-03
1.497490e-01
-1.369710e-01
6.818030e-01
7.667600e-02
-4.114040e-01
-1.313920e-01
-5.805520e-01
</DataArray>
<DataArray type="Float32" Name="V2" format="ascii">
0.000000e+00
0.000000e+00
-1.884410e+00
2.947010e-01
0.000000e+00
0.000000e+00
1.312160e+00
-1.312380e-01
0.000000e+00
0.000000e+00
2.947010e-01
-8.674780e-01
0.000000e+00
0.000000e+00
-1.312380e-01
4.783140e-01
-1.884410e+00
2.947010e-01
-9.790070e-01
-1.084680e-01
1.312160e+00
-1.312380e-01
2.438920e-01
3.616600e-02
2.947010e-01
-8.674780e-01
-1.084680e-01
-1.014100e+00
-1.312380e-01
4.783140e-01
3.616600e-02
1.218130e+00
-9.790070e-01
-1.084680e-01
5.811410e-01
1.389560e+00
2.438920e-01
3.616600e-02
-1.092610e+00
-7.697700e-01
-1.084680e-01
-1.014100e+00
1.389560e+00
2.759200e-01
3.616600e-02
1.218130e+00
-7.697700e-01
2.469020e-02
5.811410e-01
1.389560e+00
-3.576520e-01
4.522390e-01
-1.092610e+00
-7.697700e-01
3.255240e-01
-2.296270e-01
1.389560e+00
2.759200e-01
4.522390e-01
4.948220e-03
-7.697700e-01
2.469020e-02
-2.296270e-01
3.099230e-01
-3.576520e-01
4.522390e-01
4.979430e-03
3.857840e-01
3.255240e-01
-2.296270e-01
5.242090e-01
-2.640480e-01
4.522390e-01
4.948220e-03
3.857840e-01
1.053580e+00
-2.296270e-01
3.099230e-01
-2.640480e-01
-6.406160e-01
4.979430e-03
3.857840e-01
-6.490660e-01
-1.452710e-02
5.242090e-01
-2.640480e-01
1.402100e-01
-1.420950e-01
3.857840e-01
1.053580e+00
-1.452710e-02
-5.310400e-01
-2.640480e-01
-6.406160e-01
-1.420950e-01
-2.526530e-02
-6.490660e-01
-1.452710e-02
-4.799520e-01
-2.438340e-01
1.402100e-01
-1.420950e-01
6.396050e-01
-3.109830e-02
-1.452710e-02
-5.310400e-01
-2.438340e-01
-2.085550e-01
-1.420950e-01
-2.526530e-02
-3.109830e-02
2.435580e-02
-4.799520e-01
-2.438340e-01
3.218640e-01
4.022330e-01
6.396050e-01
-3.109830e-02
-9.829370e-02
-8.947270e-02
-2.438340e-01
-2.085550e-01
4.022330e-01
-2.944540e-01
-3.109830e-02
2.435580e-02
-8.947270e-02
1.885680e-01
3.218640e-01
4.022330e-01
1.256930e+00
-7.433880e-01
-9.829370e-02
-8.947270e-02
-4.023550e-01
2.480980e-01
4.022330e-01
-2.944540e-01
-7.433880e-01
9.546440e-01
-8.947270e-02
1.885680e-01
2.480980e-01
-7.612620e-01
1.256930e+00
-7.433880e-01
-5.064380e-01
-7.078440e-01
-4.023550e-01
2.480980e-01
6.500780e-01
4.555930e-01
-7.433880e-01
9.546440e-01
-7.078440e-01
-1.032470e+00
2.480980e-01
-7.612620e-01
4.555930e-01
2.355810e-01
-5.064380e-01
-7.078440e-01
-1.403680e+00
5.762120e-01
6.500780e-01
4.555930e-01
9.073730e-01
-1.849600e-01
-7.078440e-01
-1.032470e+00
5.762120e-01
-2.810580e-01
4.555930e-01
2.355810e-01
-1.849600e-01
-3.490680e-01
-1.403680e+00
5.762120e-01
6.901040e-01
1.239010e+00
9.073730e-01
-1.849600e-01
-3.974370e-01
-7.818920e-01
5.762120e-01
-2.810580e-01
1.239010e+00
-4.619570e-01
-1.849600e-01
-3.490680e-01
-7.818920e-01
4.053530e-01
6.901040e-01
1.239010e+00
-1.970300e-01
5.280340e-02
-3.974370e-01
-7.818920e-01
1.501370e-01
-2.351990e-02
1.239010e+00
-4.619570e-01
5.280340e-02
-6.955170e-01
-7.818920e-01
4.053530e-01
-2.351990e-02
-7.523700e-02
-1.970300e-01
5.280340e-02
-4.772940e-02
-1.448740e+00
1.501370e-01
-2.351990e-02
1.051720e-05
7.383780e-01
5.280340e-02
-6.955170e-01
-1.448740e+00
-6.285890e-01
-2.351990e-02
-7.523700e-02
7.383780e-01
2.376110e-01
-4.772940e-02
-1.448740e+00
-1.563400e-01
4.713230e-01
1.051720e-05
7.383780e-01
2.984370e-01
-2.111400e-01
-1.448740e+00
-6.285890e-01
4.713230e-01
4.711830e-02
7.383780e-01
2.376110e-01
-2.111400e-01
2.638950e-02
-1.563400e-01
4.713230e-01
1.689840e+00
9.281480e-03
2.984370e-01
-2.111400e-01
-4.429670e-01
3.324850e-01
4.713230e-01
4.711830e-02
9.281480e-03
9.808050e-01
-2.111400e-01
2.638950e-02
3.324850e-01
-4.626990e-01
1.689840e+00
9.281480e-03
-2.015430e-01
3.743630e-01
-4.429670e-01
3.324850e-01
1.197340e-02
1.153890e-02
9.281480e-03
9.808050e-01
3.743630e-01
1.897650e+00
3.324850e-01
-4.626990e-01
1.153890e-02
-8.561790e-01
-2.015430e-01
3.743630e-01
3.158770e-01
-5.117250e-01
1.197340e-02
1.153890e-02
-8.196320e-01
-9.944140e-02
3.743630e-01
1.897650e+00
-5.117250e-01
-1.819760e-01
1.153890e-02
-8.561790e-01
-9.944140e-02
2.369940e-01
3.158770e-01
-5.117250e-01
-9.754470e-01
-1.189900e+00
-8.196320e-01
-9.944140e-02
3.541400e-01
5.171450e-01
-5.117250e-01
-1.819760e-01
-1.189900e+00
-1.421640e+00
-9.944140e-02
2.369940e-01
5.171450e-01
1.270640e+00
-9.754470e-01
-1.189900e+00
-5.098430e-01
4.074190e-01
3.541400e-01
5.171450e-01
7.506660e-01
-4.035100e-01
-1.189900e+00
-1.421640e+00
4.074190e-01
-7.023760e-02
5.171450e-01
1.270640e+00
-4.035100e-01
1.598240e-01
-5.098430e-01
4.074190e-01
6.162930e-01
1.060460e+00
7.506660e-01
-4.035100e-01
-1.983060e-01
-6.780060e-01
4.074190e-01
-7.023760e-02
1.060460e+00
3.857240e-01
-4.035100e-01
1.598240e-01
-6.780060e-01
-1.880290e-01
6.162930e-01
1.060460e+00
2.849120e-02
6.581750e-01
-1.983060e-01
-6.780060e-01
-6.542330e-01
-3.281970e-01
1.060460e+00
3.857240e-01
6.581750e-01
7.282570e-01
-6.780060e-01
-1.880290e-01
-3.281970e-01
-8.334140e-01
2.849120e-02
6.581750e-01
-3.046630e-02
-3.248770e-01
-6.542330e-01
-3.281970e-01
1.527920e-01
2.643280e-01
6.581750e-01
7.282570e-01
-3.248770e-01
2.448990e-01
-3.281970e-01
-8.334140e-01
2.643280e-01
5.950040e-02
-3.046630e-02
-3.248770e-01
-3.356020e-01
-8.579220e-01
1.527920e-01
2.643280e-01
6.888920e-01
4.465950e-01
-3.248770e-01
2.448990e-01
-8.579220e-01
-1.842380e+00
2.643280e-01
5.950040e-02
4.465950e-01
1.358930e+00
-3.356020e-01
-8.579220e-01
2.473300e-01
-1.169480e+00
6.888920e-01
4.465950e-01
-1.117400e-01
6.350550e-01
-8.579220e-01
-1.842380e+00
-1.169480e+00
1.684740e+00
4.465950e-01
1.358930e+00
6.350550e-01
-9.611280e-01
2.473300e-01
-1.169480e+00
9.087720e-01
-2.247530e-02
-1.117400e-01
6.350550e-01
-7.123600e-01
1.867570e-01
-1.169480e+00
1.684740e+00
-2.247530e-02
7.227220e-01
6.350550e-01
-9.611280e-01
1.867570e-01
-1.200720e+00
9.087720e-01
-2.247530e-02
1.196060e+00
5.088050e-01
-7.123600e-01
1.867570e-01
-5.535260e-01
-3.422830e-01
-2.247530e-02
7.227220e-01
5.088050e-01
-8.023310e-01
1.867570e-01
-1.200720e+00
-3.422830e-01
5.965160e-01
1.196060e+00
5.088050e-01
2.306850e-01
6.267340e-01
-5.535260e-01
-3.422830e-01
5.521150e-01
-3.960890e-01
5.088050e-01
-8.023310e-01
6.267340e-01
1.289240e+00
-3.422830e-01
5.965160e-01
-3.960890e-01
-8.422630e-01
2.306850e-01
6.267340e-01
3.050630e-02
8.930290e-01
5.521150e-01
-3.960890e-01
-3.777150e-01
-6.321830e-01
6.267340e-01
1.289240e+00
8.930290e-01
-4.751170e-01
-3.960890e-01
-8.422630e-01
-6.321830e-01
4.403550e-01
3.050630e-02
8.930290e-01
1.724910e-01
-1.200890e+00
-3.777150e-01
-6.321830e-01
3.614620e-01
9.496230e-01
8.930290e-01
-4.751170e-01
-1.200890e+00
1.759170e-01
-6.321830e-01
4.403550e-01
9.496230e-01
-1.915910e-01
0.000000e+00
0.000000e+00
1.312160e+00
-1.312380e-01
0.000000e+00
0.000000e+00
-4.719120e-01
8.789870e-03
0.000000e+00
0.000000e+00
-1.312380e-01
4.783140e-01
0.000000e+00
0.000000e+00
8.789870e-03
-4.288310e-01
1.312160e+00
-1.312380e-01
2.438920e-01
3.616600e-02
-4.719120e-01
8.789870e-03
4.538520e-01
5.006350e-02
-1.312380e-01
4.783140e-01
3.616600e-02
1.218130e+00
8.789870e-03
-4.288310e-01
5.006350e-02
-1.351070e+00
2.438920e-01
3.616600e-02