<?xml version="1.0"?>
<VTKFile type="UnstructuredGrid" version="0.1" byte_order="LittleEndian" compressor="vtkZLibDataCompressor">
<UnstructuredGrid>
<Piece NumberOfPoints="960" NumberOfCells="120">
<Points>
<DataArray type="Float32" NumberOfComponents="3" format="ascii">
-4.000000e+02 -6.000000e+03 -4.000000e+02
0.000000e+00 -6.000000e+03 -4.000000e+02
-4.001170e+02 -5.600820e+03 -4.001860e+02
-9.221780e-02 -5.600610e+03 -4.003240e+02
-4.000000e+02 -6.000000e+03 0.000000e+00
0.000000e+00 -6.000000e+03 0.000000e+00
-4.000080e+02 -5.599810e+03 -1.979090e-01
-7.562480e-03 -5.599740e+03 -1.751700e-01
0.000000e+00 -6.000000e+03 -4.000000e+02
4.000000e+02 -6.000000e+03 -4.000000e+02
-9.221780e-02 -5.600610e+03 -4.003240e+02
3.999310e+02 -5.600370e+03 -4.003430e+02
0.000000e+00 -6.000000e+03 0.000000e+00
4.000000e+02 -6.000000e+03 0.000000e+00
-7.562480e-03 -5.599740e+03 -1.751700e-01
3.999890e+02 -5.599720e+03 -9.998930e-02
-4.001170e+02 -5.600820e+03 -4.001860e+02
-9.221780e-02 -5.600610e+03 -4.003240e+02
-4.002150e+02 -5.200440e+03 -4.017150e+02
-1.471310e-01 -5.200560e+03 -4.019370e+02
-4.000080e+02 -5.599810e+03 -1.979090e-01
-7.562480e-03 -5.599740e+03 -1.751700e-01
-3.997860e+02 -5.200110e+03 -1.244190e+00
1.701200e-01 -5.199950e+03 -4.977980e-01
-9.221780e-02 -5.600610e+03 -4.003240e+02
3.999310e+02 -5.600370e+03 -4.003430e+02
-1.471310e-01 -5.200560e+03 -4.019370e+02
3.999290e+02 -5.200770e+03 -4.018800e+02
-7.562480e-03 -5.599740e+03 -1.751700e-01
3.999890e+02 -5.599720e+03 -9.998930e-02
1.701200e-01 -5.199950e+03 -4.977980e-01
4.001300e+02 -5.199730e+03 1.045310e-01
-4.002150e+02 -5.200440e+03 -4.017150e+02
-1.471310e-01 -5.200560e+03 -4.019370e+02
-3.994240e+02 -4.800010e+03 -4.027660e+02
5.156560e-01 -4.800180e+03 -4.014360e+02
-3.997860e+02 -5.200110e+03 -1.244190e+00
1.701200e-01 -5.199950e+03 -4.977980e-01
-4.001140e+02 -4.800470e+03 -7.991910e-01
-7.727980e-02 -4.800340e+03 -1.155910e+00
-1.471310e-01 -5.200560e+03 -4.019370e+02
3.999290e+02 -5.200770e+03 -4.018800e+02
5.156560e-01 -4.800180e+03 -4.014360e+02
4.004680e+02 -4.800410e+03 -4.001820e+02
1.701200e-01 -5.199950e+03 -4.977980e-01
4.001300e+02 -5.199730e+03 1.045310e-01
-7.727980e-02 -4.800340e+03 -1.155910e+00
3.999550e+02 -4.800180e+03 -1.382930e+00
-3.994240e+02 -4.800010e+03 -4.027660e+02
5.156560e-01 -4.800180e+03 -4.014360e+02
-3.995510e+02 -4.400060e+03 -4.025090e+02
4.366650e-01 -4.400450e+03 -4.020930e+02
-4.001140e+02 -4.800470e+03 -7.991910e-01
-7.727980e-02 -4.800340e+03 -1.155910e+00
-4.000170e+02 -4.400150e+03 -2.136960e+00
1.471600e-02 -4.400210e+03 -1.448150e+00
5.156560e-01 -4.800180e+03 -4.014360e+02
4.004680e+02 -4.800410e+03 -4.001820e+02
4.366650e-01 -4.400450e+03 -4.020930e+02
4.004150e+02 -4.400920e+03 -4.015170e+02
-7.727980e-02 -4.800340e+03 -1.155910e+00
3.999550e+02 -4.800180e+03 -1.382930e+00
1.471600e-02 -4.400210e+03 -1.448150e+00
4.000450e+02 -4.400120e+03 -8.277010e-01
-3.995510e+02 -4.400060e+03 -4.025090e+02
4.366650e-01 -4.400450e+03 -4.020930e+02
-3.995580e+02 -4.000410e+03 -4.027360e+02
4.294310e-01 -4.000900e+03 -4.026450e+02
-4.000170e+02 -4.400150e+03 -2.136960e+00
1.471600e-02 -4.400210e+03 -1.448150e+00
-3.999920e+02 -3.999920e+03 -3.210210e+00
1.611240e-02 -3.999930e+03 -2.972230e+00
4.366650e-01 -4.400450e+03 -4.020930e+02
4.004150e+02 -4.400920e+03 -4.015170e+02
4.294310e-01 -4.000900e+03 -4.026450e+02
4.004260e+02 -4.001340e+03 -4.026720e+02
1.471600e-02 -4.400210e+03 -1.448150e+00
4.000450e+02 -4.400120e+03 -8.277010e-01
1.611240e-02 -3.999930e+03 -2.972230e+00
4.000200e+02 -4.000070e+03 -2.737310e+00
-3.995580e+02 -4.000410e+03 -4.027360e+02
4.294310e-01 -4.000900e+03 -4.026450e+02
-3.995160e+02 -3.600610e+03 -4.040150e+02
5.003190e-01 -3.600990e+03 -4.039010e+02
-3.999920e+02 -3.999920e+03 -3.210210e+00
1.611240e-02 -3.999930e+03 -2.972230e+00
-4.000080e+02 -3.600220e+03 -3.738510e+00
-4.305620e-03 -3.600020e+03 -2.878500e+00
4.294310e-01 -4.000900e+03 -4.026450e+02
4.004260e+02 -4.001340e+03 -4.026720e+02
5.003190e-01 -3.600990e+03 -4.039010e+02
4.005120e+02 -3.601210e+03 -4.034870e+02
1.611240e-02 -3.999930e+03 -2.972230e+00
4.000200e+02 -4.000070e+03 -2.737310e+00
-4.305620e-03 -3.600020e+03 -2.878500e+00
3.999990e+02 -3.599950e+03 -2.269870e+00
-3.995160e+02 -3.600610e+03 -4.040150e+02
5.003190e-01 -3.600990e+03 -4.039010e+02
-3.994440e+02 -3.201230e+03 -4.048810e+02
5.896250e-01 -3.201250e+03 -4.044750e+02
-4.000080e+02 -3.600220e+03 -3.738510e+00
-4.305620e-03 -3.600020e+03 -2.878500e+00
-3.998300e+02 -3.199920e+03 -4.209070e+00
1.467220e-01 -3.199830e+03 -4.400800e+00
5.003190e-01 -3.600990e+03 -4.039010e+02
4.005120e+02 -3.601210e+03 -4.034870e+02
5.896250e-01 -3.201250e+03 -4.044750e+02
4.006360e+02 -3.201300e+03 -4.038980e+02
-4.305620e-03 -3.600020e+03 -2.878500e+00
3.999990e+02 -3.599950e+03 -2.269870e+00
1.467220e-01 -3.199830e+03 -4.400800e+00
4.001140e+02 -3.199710e+03 -4.514040e+00
-3.994440e+02 -3.201230e+03 -4.048810e+02
5.896250e-01 -3.201250e+03 -4.044750e+02
-3.994140e+02 -2.801710e+03 -4.059760e+02
6.666180e-01 -2.801350e+03 -4.057170e+02
-3.998300e+02 -3.199920e+03 -4.209070e+00
1.467220e-01 -3.199830e+03 -4.400800e+00
-3.998210e+02 -2.799800e+03 -5.804390e+00
1.422170e-01 -2.799880e+03 -5.267900e+00
5.896250e-01 -3.201250e+03 -4.044750e+02
4.006360e+02 -3.201300e+03 -4.038980e+02
6.666180e-01 -2.801350e+03 -4.057170e+02
4.007320e+02 -2.800880e+03 -4.054210e+02
1.467220e-01 -3.199830e+03 -4.400800e+00
4.001140e+02 -3.199710e+03 -4.514040e+00
1.422170e-01 -2.799880e+03 -5.267900e+00
4.001110e+02 -2.799990e+03 -4.579640e+00
-3.994140e+02 -2.801710e+03 -4.059760e+02
6.666180e-01 -2.801350e+03 -4.057170e+02
-3.999160e+02 -2.401630e+03 -4.071090e+02
3.964760e-02 -2.401410e+03 -4.065490e+02
-3.998210e+02 -2.799800e+03 -5.804390e+00
1.422170e-01 -2.799880e+03 -5.267900e+00
-4.000890e+02 -2.399980e+03 -6.710330e+00
-6.554150e-02 -2.400040e+03 -6.996810e+00
6.666180e-01 -2.801350e+03 -4.057170e+02
4.007320e+02 -2.800880e+03 -4.054210e+02
3.964760e-02 -2.401410e+03 -4.065490e+02
4.000020e+02 -2.401080e+03 -4.058600e+02
1.422170e-01 -2.799880e+03 -5.267900e+00
4.001110e+02 -2.799990e+03 -4.579640e+00
-6.554150e-02 -2.400040e+03 -6.996810e+00
3.999620e+02 -2.400110e+03 -7.148860e+00
-3.999160e+02 -2.401630e+03 -4.071090e+02
3.964760e-02 -2.401410e+03 -4.065490e+02
-3.998540e+02 -2.001700e+03 -4.078830e+02
1.601740e-01 -2.001570e+03 -4.082490e+02
-4.000890e+02 -2.399980e+03 -6.710330e+00
-6.554150e-02 -2.400040e+03 -6.996810e+00
-4.000030e+02 -1.999810e+03 -9.015070e+00
-3.692530e-02 -1.999980e+03 -8.252300e+00
3.964760e-02 -2.401410e+03 -4.065490e+02
4.000020e+02 -2.401080e+03 -4.058600e+02
1.601740e-01 -2.001570e+03 -4.082490e+02
4.001680e+02 -2.001560e+03 -4.086370e+02
-6.554150e-02 -2.400040e+03 -6.996810e+00
3.999620e+02 -2.400110e+03 -7.148860e+00
-3.692530e-02 -1.999980e+03 -8.252300e+00
3.999250e+02 -2.000070e+03 -7.580440e+00
-3.998540e+02 -2.001700e+03 -4.078830e+02
1.601740e-01 -2.001570e+03 -4.082490e+02
-3.997970e+02 -1.601620e+03 -4.103490e+02
2.324630e-01 -1.601530e+03 -4.105790e+02
-4.000030e+02 -1.999810e+03 -9.015070e+00
-3.692530e-02 -1.999980e+03 -8.252300e+00
-4.000570e+02 -1.600020e+03 -9.894500e+00
-9.333560e-02 -1.600110e+03 -9.556730e+00
1.601740e-01 -2.001570e+03 -4.082490e+02
4.001680e+02 -2.001560e+03 -4.086370e+02
2.324630e-01 -1.601530e+03 -4.105790e+02
4.002650e+02 -1.601530e+03 -4.107590e+02
-3.692530e-02 -1.999980e+03 -8.252300e+00
3.999250e+02 -2.000070e+03 -7.580440e+00
-9.333560e-02 -1.600110e+03 -9.556730e+00
3.998780e+02 -1.600200e+03 -9.121740e+00
-3.997970e+02 -1.601620e+03 -4.103490e+02
2.324630e-01 -1.601530e+03 -4.105790e+02
-4.000180e+02 -1.202190e+03 -4.108010e+02
-4.136650e-02 -1.201680e+03 -4.109210e+02
-4.000570e+02 -1.600020e+03 -9.894500e+00
-9.333560e-02 -1.600110e+03 -9.556730e+00
-4.000310e+02 -1.199740e+03 -1.136370e+01
-6.858500e-03 -1.200130e+03 -1.211060e+01
2.324630e-01 -1.601530e+03 -4.105790e+02
4.002650e+02 -1.601530e+03 -4.107590e+02
-4.136650e-02 -1.201680e+03 -4.109210e+02
3.999480e+02 -1.201510e+03 -4.107690e+02
-9.333560e-02 -1.600110e+03 -9.556730e+00
3.998780e+02 -1.600200e+03 -9.121740e+00
-6.858500e-03 -1.200130e+03 -1.211060e+01
4.000120e+02 -1.200300e+03 -1.286900e+01
-4.000180e+02 -1.202190e+03 -4.108010e+02
-4.136650e-02 -1.201680e+03 -4.109210e+02
-3.998400e+02 -8.020110e+02 -4.130870e+02
1.558610e-01 -8.020840e+02 -4.132440e+02
-4.000310e+02 -1.199740e+03 -1.136370e+01
-6.858500e-03 -1.200130e+03 -1.211060e+01
-3.999910e+02 -7.998560e+02 -1.403160e+01
1.243990e-02 -7.998390e+02 -1.361980e+01
-4.136650e-02 -1.201680e+03 -4.109210e+02
3.999480e+02 -1.201510e+03 -4.107690e+02
1.558610e-01 -8.020840e+02 -4.132440e+02
4.001600e+02 -8.020590e+02 -4.133390e+02
-6.858500e-03 -1.200130e+03 -1.211060e+01
4.000120e+02 -1.200300e+03 -1.286900e+01
1.243990e-02 -7.998390e+02 -1.361980e+01
4.000210e+02 -7.998110e+02 -1.324600e+01
-3.998400e+02 -8.020110e+02 -4.130870e+02
1.558610e-01 -8.020840e+02 -4.132440e+02
-3.994480e+02 -4.015680e+02 -4.158430e+02
5.295160e-01 -4.017320e+02 -4.150960e+02
-3.999910e+02 -7.998560e+02 -1.403160e+01
1.243990e-02 -7.998390e+02 -1.361980e+01
-3.999730e+02 -4.002710e+02 -1.631390e+01
4.701680e-02 -4.001490e+02 -1.578600e+01
1.558610e-01 -8.020840e+02 -4.132440e+02
4.001600e+02 -8.020590e+02 -4.133390e+02
5.295160e-01 -4.017320e+02 -4.150960e+02
4.005070e+02 -4.017100e+02 -4.144600e+02
1.243990e-02 -7.998390e+02 -1.361980e+01
4.000210e+02 -7.998110e+02 -1.324600e+01
4.701680e-02 -4.001490e+02 -1.578600e+01
4.000620e+02 -4.002190e+02 -1.527920e+01
-3.994480e+02 -4.015680e+02 -4.158430e+02
5.295160e-01 -4.017320e+02 -4.150960e+02
-3.993890e+02 -1.537460e+00 -4.178680e+02
6.061760e-01 -1.366530e+00 -4.170140e+02
-3.999730e+02 -4.002710e+02 -1.631390e+01
4.701680e-02 -4.001490e+02 -1.578600e+01
-4.000410e+02 -1.197120e-01 -1.749140e+01
-2.150910e-02 -2.089450e-01 -1.676780e+01
5.295160e-01 -4.017320e+02 -4.150960e+02
4.005070e+02 -4.017100e+02 -4.144600e+02
[...]
<PointData>
<DataArray type="Float32" Name="V1" format="ascii">
0.000000e+00
0.000000e+00
9.371200e-03
8.086460e-02
0.000000e+00
0.000000e+00
2.141760e-01
1.937160e-01
0.000000e+00
0.000000e+00
8.086460e-02
1.525460e-01
0.000000e+00
0.000000e+00
1.937160e-01
1.570710e-01
9.371200e-03
8.086460e-02
1.301640e-02
6.086640e-02
2.141760e-01
1.937160e-01
1.230980e-01
5.514520e-02
8.086460e-02
1.525460e-01
6.086640e-02
1.055260e-01
1.937160e-01
1.570710e-01
5.514520e-02
6.499510e-03
1.301640e-02
6.086640e-02
3.308970e-01
2.509650e-01
1.230980e-01
5.514520e-02
-2.782960e-01
-2.618910e-01
6.086640e-02
1.055260e-01
2.509650e-01
1.519520e-01
5.514520e-02
6.499510e-03
-2.618910e-01
-2.749700e-01
3.308970e-01
2.509650e-01
6.301770e-02
2.923030e-02
-2.782960e-01
-2.618910e-01
1.485820e-01
1.177540e-01
2.509650e-01
1.519520e-01
2.923030e-02
-1.206660e-02
-2.618910e-01
-2.749700e-01
1.177540e-01
1.037050e-01
6.301770e-02
2.923030e-02
4.828210e-01
3.946160e-01
1.485820e-01
1.177540e-01
-3.848390e-01
-3.636740e-01
2.923030e-02
-1.206660e-02
3.946160e-01
3.202400e-01
1.177540e-01
1.037050e-01
-3.636740e-01
-3.589240e-01
4.828210e-01
3.946160e-01
-1.704640e-02
-1.643720e-02
-3.848390e-01
-3.636740e-01
-1.115710e-02
-8.745580e-02
3.946160e-01
3.202400e-01
-1.643720e-02
-1.851370e-02
-3.636740e-01
-3.589240e-01
-8.745580e-02
-1.593400e-01
-1.704640e-02
-1.643720e-02
2.727420e-01
2.081860e-01
-1.115710e-02
-8.745580e-02
-1.123840e-02
5.280960e-02
-1.643720e-02
-1.851370e-02
2.081860e-01
1.405430e-01
-8.745580e-02
-1.593400e-01
5.280960e-02
1.278180e-01
2.727420e-01
2.081860e-01
-1.859150e-01
-1.881420e-01
-1.123840e-02
5.280960e-02
1.466690e-01
1.072210e-01
2.081860e-01
1.405430e-01
-1.881420e-01
-2.044420e-01
5.280960e-02
1.278180e-01
1.072210e-01
7.821490e-02
-1.859150e-01
-1.881420e-01
8.999180e-01
8.062650e-01
1.466690e-01
1.072210e-01
-4.879670e-01
-4.483940e-01
-1.881420e-01
-2.044420e-01
8.062650e-01
7.552210e-01
1.072210e-01
7.821490e-02
-4.483940e-01
-4.101230e-01
8.999180e-01
8.062650e-01
1.089290e-01
1.069280e-01
-4.879670e-01
-4.483940e-01
7.885300e-02
1.116600e-02
8.062650e-01
7.552210e-01
1.069280e-01
5.915590e-02
-4.483940e-01
-4.101230e-01
1.116600e-02
-3.831900e-02
1.089290e-01
1.069280e-01
2.363810e-02
2.107920e-02
7.885300e-02
1.116600e-02
-4.113360e-01
-4.347930e-01
1.069280e-01
5.915590e-02
2.107920e-02
2.345070e-02
1.116600e-02
-3.831900e-02
-4.347930e-01
-4.561320e-01
2.363810e-02
2.107920e-02
4.274960e-02
5.239360e-02
-4.113360e-01
-4.347930e-01
2.734160e-01
3.003280e-01
2.107920e-02
2.345070e-02
5.239360e-02
2.529080e-02
-4.347930e-01
-4.561320e-01
3.003280e-01
3.272720e-01
4.274960e-02
5.239360e-02
1.936020e-01
2.007770e-01
2.734160e-01
3.003280e-01
-2.391270e-01
-2.466050e-01
5.239360e-02
2.529080e-02
2.007770e-01
2.323240e-01
3.003280e-01
3.272720e-01
-2.466050e-01
-2.276070e-01
1.936020e-01
2.007770e-01
-2.410100e-01
-1.665370e-01
-2.391270e-01
-2.466050e-01
3.269890e-01
3.074780e-01
2.007770e-01
2.323240e-01
-1.665370e-01
-8.410320e-02
-2.466050e-01
-2.276070e-01
3.074780e-01
2.574040e-01
-2.410100e-01
-1.665370e-01
3.754080e-01
3.984880e-01
3.269890e-01
3.074780e-01
-6.463210e-02
-9.324650e-02
-1.665370e-01
-8.410320e-02
3.984880e-01
4.157720e-01
3.074780e-01
2.574040e-01
-9.324650e-02
-1.127360e-01
3.754080e-01
3.984880e-01
-2.415580e-01
-2.767080e-01
-6.463210e-02
-9.324650e-02
1.141030e-01
1.692950e-01
3.984880e-01
4.157720e-01
-2.767080e-01
-3.214690e-01
-9.324650e-02
-1.127360e-01
1.692950e-01
2.153790e-01
-2.415580e-01
-2.767080e-01
8.887580e-02
3.369870e-02
1.141030e-01
1.692950e-01
-3.505060e-02
2.316400e-02
-2.767080e-01
-3.214690e-01
3.369870e-02
2.507850e-03
1.692950e-01
2.153790e-01
2.316400e-02
8.525950e-02
8.887580e-02
3.369870e-02
2.078720e-01
1.786370e-01
-3.505060e-02
2.316400e-02
-2.014050e-01
-2.104140e-01
3.369870e-02
2.507850e-03
1.786370e-01
1.745580e-01
2.316400e-02
8.525950e-02
-2.104140e-01
-2.287750e-01
2.078720e-01
1.786370e-01
-4.660990e-01
-3.847540e-01
-2.014050e-01
-2.104140e-01
5.210320e-01
5.131710e-01
1.786370e-01
1.745580e-01
-3.847540e-01
-3.415560e-01
-2.104140e-01
-2.287750e-01
5.131710e-01
5.066150e-01
-4.660990e-01
-3.847540e-01
2.969400e-01
2.068830e-01
5.210320e-01
5.131710e-01
-2.164950e-01
-1.398800e-01
-3.847540e-01
-3.415560e-01
2.068830e-01
1.404120e-01
5.131710e-01
5.066150e-01
-1.398800e-01
-7.927830e-02
2.969400e-01
2.068830e-01
-4.241550e-01
-2.922410e-01
-2.164950e-01
-1.398800e-01
2.422610e-01
1.465930e-01
2.068830e-01
1.404120e-01
-2.922410e-01
-1.845130e-01
-1.398800e-01
-7.927830e-02
1.465930e-01
7.779950e-02
-4.241550e-01
-2.922410e-01
-3.283440e-01
-3.295860e-01
2.422610e-01
1.465930e-01
8.501100e-02
1.076860e-01
-2.922410e-01
-1.845130e-01
-3.295860e-01
-3.218900e-01
1.465930e-01
7.779950e-02
1.076860e-01
1.277550e-01
-3.283440e-01
-3.295860e-01
-3.546380e-01
-2.159020e-01
8.501100e-02
1.076860e-01
2.761870e-01
2.046130e-01
-3.295860e-01
-3.218900e-01
-2.159020e-01
-7.841110e-02
1.076860e-01
1.277550e-01
2.046130e-01
1.363330e-01
-3.546380e-01
-2.159020e-01
-1.818450e-01
-2.172110e-01
2.761870e-01
2.046130e-01
-9.577380e-03
-5.411860e-03
-2.159020e-01
-7.841110e-02
-2.172110e-01
-2.518110e-01
2.046130e-01
1.363330e-01
-5.411860e-03
1.220940e-02
-1.818450e-01
-2.172110e-01
-3.352170e-01
-2.118230e-01
-9.577380e-03
-5.411860e-03
5.125000e-03
-3.324340e-02
-2.172110e-01
-2.518110e-01
-2.118230e-01
-9.848220e-02
-5.411860e-03
1.220940e-02
-3.324340e-02
-9.482970e-02
-3.352170e-01
-2.118230e-01
4.513970e-01
3.969040e-01
5.125000e-03
-3.324340e-02
-3.564280e-01
-3.180010e-01
-2.118230e-01
-9.848220e-02
3.969040e-01
3.165790e-01
-3.324340e-02
-9.482970e-02
-3.180010e-01
-2.559040e-01
4.513970e-01
3.969040e-01
-3.050420e-01
-3.293710e-01
-3.564280e-01
-3.180010e-01
2.046010e-01
1.938890e-01
3.969040e-01
3.165790e-01
-3.293710e-01
-3.269040e-01
-3.180010e-01
-2.559040e-01
1.938890e-01
1.825540e-01
-3.050420e-01
-3.293710e-01
5.644570e-01
4.156510e-01
2.046010e-01
1.938890e-01
-4.670790e-01
-4.050100e-01
-3.293710e-01
-3.269040e-01
4.156510e-01
2.229980e-01
1.938890e-01
1.825540e-01
-4.050100e-01
-3.297020e-01
5.644570e-01
4.156510e-01
3.286560e-01
4.263930e-01
-4.670790e-01
-4.050100e-01
5.300080e-02
5.748810e-02
4.156510e-01
2.229980e-01
4.263930e-01
5.191280e-01
-4.050100e-01
-3.297020e-01
5.748810e-02
5.892300e-02
3.286560e-01
4.263930e-01
-2.465530e-01
-3.071560e-01
5.300080e-02
5.748810e-02
1.055110e-01
9.850450e-02
4.263930e-01
5.191280e-01
-3.071560e-01
-3.698380e-01
5.748810e-02
5.892300e-02
9.850450e-02
1.118420e-01
0.000000e+00
0.000000e+00
2.141760e-01
1.937160e-01
0.000000e+00
0.000000e+00
-4.767720e-01
-4.770020e-01
0.000000e+00
0.000000e+00
1.937160e-01
1.570710e-01
0.000000e+00
0.000000e+00
-4.770020e-01
-4.808460e-01
2.141760e-01
1.937160e-01
1.230980e-01
5.514520e-02
-4.767720e-01
-4.770020e-01
-2.513960e-01
-1.647380e-01
1.937160e-01
1.570710e-01
5.514520e-02
6.499510e-03
-4.770020e-01
-4.808460e-01
-1.647380e-01
-1.041330e-01
1.230980e-01
5.514520e-02
-2.782960e-01
-2.618910e-01
-2.513960e-01
-1.647380e-01
2.085260e-01
2.667950e-01
5.514520e-02
6.499510e-03
-2.618910e-01
-2.749700e-01
-1.647380e-01
-1.041330e-01
2.667950e-01
3.806400e-01
-2.782960e-01
-2.618910e-01
1.485820e-01
1.177540e-01
2.085260e-01
2.667950e-01
-3.390760e-01
-2.337000e-01
-2.618910e-01
-2.749700e-01
1.177540e-01
1.037050e-01
2.667950e-01
3.806400e-01
-2.337000e-01
-1.357540e-01
1.485820e-01
1.177540e-01
-3.848390e-01
-3.636740e-01
-3.390760e-01
-2.337000e-01
3.111720e-01
3.400880e-01
1.177540e-01
1.037050e-01
-3.636740e-01
-3.589240e-01
-2.337000e-01
-1.357540e-01
3.400880e-01
3.824740e-01
-3.848390e-01
-3.636740e-01
-1.115710e-02
-8.745580e-02
3.111720e-01
3.400880e-01
5.190760e-02
1.558700e-01
-3.636740e-01
-3.589240e-01
-8.745580e-02
-1.593400e-01
3.400880e-01
3.824740e-01
1.558700e-01
2.348730e-01
-1.115710e-02
-8.745580e-02
-1.123840e-02
5.280960e-02
5.190760e-02
1.558700e-01
-2.461300e-01
-3.238110e-01
-8.745580e-02
-1.593400e-01
5.280960e-02
1.278180e-01
1.558700e-01
2.348730e-01
-3.238110e-01
-3.782990e-01
-1.123840e-02
5.280960e-02
1.466690e-01
1.072210e-01
-2.461300e-01
-3.238110e-01
-6.192810e-02
1.365510e-03
5.280960e-02
1.278180e-01
1.072210e-01
7.821490e-02
-3.238110e-01
-3.782990e-01
1.365510e-03
5.575530e-02
1.466690e-01
1.072210e-01
-4.879670e-01
-4.483940e-01
-6.192810e-02
1.365510e-03
-3.666010e-03
2.212360e-02
1.072210e-01
7.821490e-02
-4.483940e-01
-4.101230e-01
1.365510e-03
5.575530e-02
2.212360e-02
4.453820e-03
-4.879670e-01
-4.483940e-01
7.885300e-02
1.116600e-02
-3.666010e-03
2.212360e-02
-1.338810e-01
-4.033460e-02
-4.483940e-01
-4.101230e-01
1.116600e-02
-3.831900e-02
2.212360e-02
4.453820e-03
-4.033460e-02
5.446340e-02
7.885300e-02
1.116600e-02
-4.113360e-01
-4.347930e-01
-1.338810e-01
-4.033460e-02
7.706430e-01
7.688930e-01
1.116600e-02
-3.831900e-02
-4.347930e-01
-4.561320e-01
-4.033460e-02
5.446340e-02
7.688930e-01
7.761580e-01
-4.113360e-01
-4.347930e-01
2.734160e-01
3.003280e-01
7.706430e-01
7.688930e-01
-5.648020e-01
-6.183660e-01
-4.347930e-01
-4.561320e-01
3.003280e-01
3.272720e-01
7.688930e-01
7.761580e-01
-6.183660e-01
-6.621050e-01
2.734160e-01
3.003280e-01
-2.391270e-01
-2.466050e-01
-5.648020e-01
-6.183660e-01
3.278350e-01
3.108740e-01
3.003280e-01
3.272720e-01
-2.466050e-01
-2.276070e-01
-6.183660e-01
-6.621050e-01
3.108740e-01
2.693420e-01
-2.391270e-01
-2.466050e-01
3.269890e-01
3.074780e-01
3.278350e-01
3.108740e-01
-4.235110e-01
-4.638550e-01
-2.466050e-01
-2.276070e-01
3.074780e-01
2.574040e-01
3.108740e-01
2.693420e-01
-4.638550e-01
-4.888740e-01
3.269890e-01
3.074780e-01
-6.463210e-02
-9.324650e-02
-4.235110e-01
-4.638550e-01
-2.659830e-01
-2.148280e-01
3.074780e-01
2.574040e-01
-9.324650e-02
-1.127360e-01
-4.638550e-01
-4.888740e-01
-2.148280e-01
-1.820170e-01
-6.463210e-02
-9.324650e-02
1.141030e-01
1.692950e-01
-2.659830e-01
-2.148280e-01
-2.866850e-02
-5.614720e-02
-9.324650e-02
-1.127360e-01
1.692950e-01
2.153790e-01
-2.148280e-01
-1.820170e-01
-5.614720e-02
-4.895200e-02
1.141030e-01
1.692950e-01
-3.505060e-02
2.316400e-02
-2.866850e-02
-5.614720e-02
-9.424800e-03
-7.783930e-02
1.692950e-01
2.153790e-01
2.316400e-02
8.525950e-02
-5.614720e-02
-4.895200e-02
-7.783930e-02
-1.248930e-01
-3.505060e-02
2.316400e-02
-2.014050e-01
-2.104140e-01
-9.424800e-03
-7.783930e-02
1.832450e-01
2.026610e-01
2.316400e-02
8.525950e-02
-2.104140e-01
-2.287750e-01
-7.783930e-02
-1.248930e-01
2.026610e-01
2.051040e-01
-2.014050e-01
-2.104140e-01
5.210320e-01
5.131710e-01
1.832450e-01
2.026610e-01
-5.861280e-01
-6.244270e-01
-2.104140e-01
-2.287750e-01
5.131710e-01
5.066150e-01
2.026610e-01
2.051040e-01
-6.244270e-01
-6.463060e-01
5.210320e-01
5.131710e-01
-2.164950e-01
-1.398800e-01
-5.861280e-01
-6.244270e-01
1.569210e-01
8.243020e-02
5.131710e-01
5.066150e-01
-1.398800e-01
-7.927830e-02
-6.244270e-01
-6.463060e-01
8.243020e-02
3.251190e-02
-2.164950e-01
-1.398800e-01
2.422610e-01
1.465930e-01
1.569210e-01
8.243020e-02
-7.442740e-02
-5.472220e-03
-1.398800e-01
-7.927830e-02
1.465930e-01
7.779950e-02
8.243020e-02
3.251190e-02
-5.472220e-03
4.262700e-02
2.422610e-01
1.465930e-01
8.501100e-02
1.076860e-01
-7.442740e-02
-5.472220e-03
1.687460e-01
1.145430e-01
1.465930e-01
7.779950e-02
1.076860e-01
1.277550e-01
-5.472220e-03
4.262700e-02
1.145430e-01
5.548990e-02
8.501100e-02
1.076860e-01
2.761870e-01
2.046130e-01
1.687460e-01
1.145430e-01
-2.321880e-01
-1.929280e-01
1.076860e-01
1.277550e-01
2.046130e-01
1.363330e-01
1.145430e-01
5.548990e-02
-1.929280e-01
-1.620340e-01
2.761870e-01
2.046130e-01
-9.577380e-03
-5.411860e-03
-2.321880e-01
-1.929280e-01
2.141500e-01
2.396260e-01
2.046130e-01
1.363330e-01
-5.411860e-03
1.220940e-02
-1.929280e-01
-1.620340e-01
2.396260e-01
2.383120e-01
-9.577380e-03
-5.411860e-03
5.125000e-03
-3.324340e-02
2.141500e-01
2.396260e-01
2.643360e-01
2.696960e-01
-5.411860e-03
1.220940e-02
-3.324340e-02
-9.482970e-02
2.396260e-01
2.383120e-01
2.696960e-01
2.861960e-01
5.125000e-03
-3.324340e-02
-3.564280e-01
-3.180010e-01
2.643360e-01
2.696960e-01
2.802900e-01
2.213270e-01
-3.324340e-02
-9.482970e-02
-3.180010e-01
-2.559040e-01
2.696960e-01
2.861960e-01
2.213270e-01
1.542940e-01
-3.564280e-01
-3.180010e-01
2.046010e-01
1.938890e-01
2.802900e-01
2.213270e-01
-7.518020e-02
-1.748710e-02
-3.180010e-01
-2.559040e-01
1.938890e-01
1.825540e-01
2.213270e-01
1.542940e-01
-1.748710e-02
7.006740e-03
2.046010e-01
1.938890e-01
-4.670790e-01
-4.050100e-01
-7.518020e-02
-1.748710e-02
3.001750e-01
3.374880e-01
1.938890e-01
1.825540e-01
-4.050100e-01
-3.297020e-01
-1.748710e-02
7.006740e-03
3.374880e-01
3.922820e-01
-4.670790e-01
-4.050100e-01
5.300080e-02
5.748810e-02
3.001750e-01
3.374880e-01
-3.912700e-01
-4.680560e-01
-4.050100e-01
-3.297020e-01
5.748810e-02
5.892300e-02
3.374880e-01
3.922820e-01
-4.680560e-01
-5.423690e-01
5.300080e-02
5.748810e-02
1.055110e-01
9.850450e-02
-3.912700e-01
-4.680560e-01
6.867560e-02
4.428130e-02
5.748810e-02
5.892300e-02
9.850450e-02
1.118420e-01
-4.680560e-01
-5.423690e-01
4.428130e-02
-1.734540e-02
</DataArray>
<DataArray type="Float32" Name="V2" format="ascii">
0.000000e+00
0.000000e+00
5.960040e-02
-1.162060e-01
0.000000e+00
0.000000e+00
3.687550e-01
3.799510e-01
0.000000e+00
0.000000e+00
-1.162060e-01
-3.647380e-01
0.000000e+00
0.000000e+00
3.799510e-01
2.674650e-01
5.960040e-02
-1.162060e-01
3.358340e-01
2.128720e-01
3.687550e-01
3.799510e-01
-1.056190e-02
2.002820e-02
-1.162060e-01
-3.647380e-01
2.128720e-01
3.893760e-01
3.799510e-01
2.674650e-01
2.002820e-02
-1.297040e-01
3.358340e-01
2.128720e-01
-5.468070e-01
-3.565570e-01
-1.056190e-02
2.002820e-02
3.635770e-01
2.299010e-01
2.128720e-01
3.893760e-01
-3.565570e-01
-4.191060e-01
2.002820e-02
-1.297040e-01
2.299010e-01
2.581660e-01
-5.468070e-01
-3.565570e-01
-4.382140e-01
-7.091600e-01
3.635770e-01
2.299010e-01
1.945060e-01
5.467120e-01
-3.565570e-01
-4.191060e-01
-7.091600e-01
-7.500700e-01
2.299010e-01
2.581660e-01
5.467120e-01
6.884210e-01
-4.382140e-01
-7.091600e-01
6.419720e-03
3.057800e-01
1.945060e-01
5.467120e-01
-3.360090e-01
-2.771950e-01
-7.091600e-01
-7.500700e-01
3.057800e-01
4.745210e-01
5.467120e-01
6.884210e-01
-2.771950e-01
-3.571810e-01
6.419720e-03
3.057800e-01
1.019800e+00
6.248760e-01
-3.360090e-01
-2.771950e-01
-6.707150e-01
-3.924090e-01
3.057800e-01
4.745210e-01
6.248760e-01
3.495050e-01
-2.771950e-01
-3.571810e-01
-3.924090e-01
4.045230e-03
1.019800e+00
6.248760e-01
-3.842630e-01
1.432860e-01
-6.707150e-01
-3.924090e-01
5.715440e-01
3.222260e-01
6.248760e-01
3.495050e-01
1.432860e-01
6.248440e-01
-3.924090e-01
4.045230e-03
3.222260e-01
-4.979530e-02
-3.842630e-01
1.432860e-01
-6.834860e-02
1.245880e-01
5.715440e-01
3.222260e-01
6.855290e-02
-2.496950e-01
1.432860e-01
6.248440e-01
1.245880e-01
2.071250e-01
3.222260e-01
-4.979530e-02
-2.496950e-01
-2.704240e-01
-6.834860e-02
1.245880e-01
8.187590e-02
-4.887920e-01
6.855290e-02
-2.496950e-01
-1.845860e-01
1.784980e-01
1.245880e-01
2.071250e-01
-4.887920e-01
-6.368990e-01
-2.496950e-01
-2.704240e-01
1.784980e-01
3.992380e-01
8.187590e-02
-4.887920e-01
-9.386730e-03
1.794650e-01
-1.845860e-01
1.784980e-01
-4.375570e-02
-1.387860e-01
-4.887920e-01
-6.368990e-01
1.794650e-01
2.321180e-02
1.784980e-01
3.992380e-01
-1.387860e-01
-1.957340e-01
-9.386730e-03
1.794650e-01
5.951540e-01
-1.270720e-02
-4.375570e-02
-1.387860e-01
-1.894160e-01
4.298170e-03
1.794650e-01
2.321180e-02
-1.270720e-02
-2.031320e-01
-1.387860e-01
-1.957340e-01
4.298170e-03
-9.016670e-02
5.951540e-01
-1.270720e-02
-6.043950e-01
-3.077260e-01
-1.894160e-01
4.298170e-03
2.855140e-01
1.329730e-01
-1.270720e-02
-2.031320e-01
-3.077260e-01
4.041050e-02
4.298170e-03
-9.016670e-02
1.329730e-01
6.484070e-02
-6.043950e-01
-3.077260e-01
-9.765080e-02
4.026830e-01
2.855140e-01
1.329730e-01
3.254170e-01
-2.168060e-01
-3.077260e-01
4.041050e-02
4.026830e-01
7.482900e-01
1.329730e-01
6.484070e-02
-2.168060e-01
-8.014390e-01
-9.765080e-02
4.026830e-01
4.372900e-01
8.125610e-02
3.254170e-01
-2.168060e-01
-2.515410e-01
-1.763680e-02
4.026830e-01
7.482900e-01
8.125610e-02
-1.839460e-01
-2.168060e-01
-8.014390e-01
-1.763680e-02
1.173050e-01
4.372900e-01
8.125610e-02
-1.697650e-01
-1.485340e-01
-2.515410e-01
-1.763680e-02
-1.638750e-01
-6.202700e-02
8.125610e-02
-1.839460e-01
-1.485340e-01
-2.098470e-01
-1.763680e-02
1.173050e-01
-6.202700e-02
4.000220e-01
-1.697650e-01
-1.485340e-01
-8.740620e-01
-2.647080e-01
-1.638750e-01
-6.202700e-02
5.694820e-01
1.859210e-01
-1.485340e-01
-2.098470e-01
-2.647080e-01
4.008800e-01
-6.202700e-02
4.000220e-01
1.859210e-01
-3.678500e-01
-8.740620e-01
-2.647080e-01
-3.003610e-01
5.330510e-02
5.694820e-01
1.859210e-01
1.510450e-01
3.106430e-02
-2.647080e-01
4.008800e-01
5.330510e-02
4.303970e-01
1.859210e-01
-3.678500e-01
3.106430e-02
-7.993200e-02
-3.003610e-01
5.330510e-02
3.291070e-01
-1.827280e-01
1.510450e-01
3.106430e-02
-1.019510e-01
1.974390e-01
5.330510e-02
4.303970e-01
-1.827280e-01
-8.164430e-01
3.106430e-02
-7.993200e-02
1.974390e-01
5.209510e-01
3.291070e-01
-1.827280e-01
5.620940e-01
-4.793740e-02
-1.019510e-01
1.974390e-01
-4.557410e-01
-8.413570e-02
-1.827280e-01
-8.164430e-01
-4.793740e-02
-2.556370e-01
1.974390e-01
5.209510e-01
-8.413570e-02
5.180590e-02
5.620940e-01
-4.793740e-02
-1.912340e-01
3.519520e-01
-4.557410e-01
-8.413570e-02
2.260770e-01
-2.425820e-01
-4.793740e-02
-2.556370e-01
3.519520e-01
8.247030e-01
-8.413570e-02
5.180590e-02
-2.425820e-01
-7.010900e-01
-1.912340e-01
3.519520e-01
1.660980e-01
-1.624310e-01
2.260770e-01
-2.425820e-01
-8.512430e-02
2.778370e-01
3.519520e-01
8.247030e-01
-1.624310e-01
-3.921900e-01
-2.425820e-01
-7.010900e-01
2.778370e-01
5.425330e-01
1.660980e-01
-1.624310e-01
4.484560e-01
4.850630e-01
-8.512430e-02
2.778370e-01
-1.035020e-01
-3.755270e-01
-1.624310e-01
-3.921900e-01
4.850630e-01
6.041500e-01
2.778370e-01
5.425330e-01
-3.755270e-01
-5.367030e-01
4.484560e-01
4.850630e-01
-8.353950e-01
-7.345610e-01
-1.035020e-01
-3.755270e-01
7.413450e-01
4.989070e-01
4.850630e-01
6.041500e-01
-7.345610e-01
-6.622810e-01
-3.755270e-01
-5.367030e-01
4.989070e-01
2.752010e-01
-8.353950e-01
-7.345610e-01
-3.822490e-02
-9.026610e-02
7.413450e-01
4.989070e-01
-1.638630e-01
2.242040e-02
-7.345610e-01
-6.622810e-01
-9.026610e-02
-1.367510e-01
4.989070e-01
2.752010e-01
2.242040e-02
3.523980e-01
-3.822490e-02
-9.026610e-02
3.617580e-01
5.640190e-01
-1.638630e-01
2.242040e-02
-1.922570e-01
-4.093300e-01
-9.026610e-02
-1.367510e-01
5.640190e-01
6.294320e-01
2.242040e-02
3.523980e-01
-4.093300e-01
-4.781330e-01
3.617580e-01
5.640190e-01
1.679130e-01
2.072100e-01
-1.922570e-01
-4.093300e-01
-1.631770e-01
2.417200e-02
5.640190e-01
6.294320e-01
2.072100e-01
1.597180e-01
-4.093300e-01
-4.781330e-01
2.417200e-02
-8.127250e-02
1.679130e-01
2.072100e-01
-3.690410e-01
-6.734090e-02
-1.631770e-01
2.417200e-02
-9.915490e-02
-1.630050e-01
2.072100e-01
1.597180e-01
-6.734090e-02
2.728200e-01
2.417200e-02
-8.127250e-02
-1.630050e-01
-4.124380e-02
-3.690410e-01
-6.734090e-02
-1.530070e-01
-4.477260e-01
-9.915490e-02
-1.630050e-01
-2.297040e-03
1.900170e-01
-6.734090e-02
2.728200e-01
-4.477260e-01
-7.769400e-01
-1.630050e-01
-4.124380e-02
1.900170e-01
4.505390e-01
-1.530070e-01
-4.477260e-01
-8.714480e-02
4.512500e-01
-2.297040e-03
1.900170e-01
1.435620e-01
-2.988360e-01
-4.477260e-01
-7.769400e-01
4.512500e-01
8.159350e-01
1.900170e-01
4.505390e-01
-2.988360e-01
-8.627540e-01
-8.714480e-02
4.512500e-01
7.931180e-01
3.405310e-01
1.435620e-01
-2.988360e-01
-5.594260e-01
-1.151500e-01
4.512500e-01
8.159350e-01
3.405310e-01
-2.982700e-02
-2.988360e-01
-8.627540e-01
-1.151500e-01
3.893150e-01
0.000000e+00
0.000000e+00
3.687550e-01
3.799510e-01
0.000000e+00
0.000000e+00
-8.072190e-01
-5.002970e-01
0.000000e+00
0.000000e+00
3.799510e-01
2.674650e-01
0.000000e+00
0.000000e+00
-5.002970e-01
-2.146980e-01
3.687550e-01
3.799510e-01
-1.056190e-02
2.002820e-02
-8.072190e-01
-5.002970e-01
-1.707650e-01
-3.513680e-01
3.799510e-01
2.674650e-01
2.002820e-02
-1.297040e-01
-5.002970e-01
-2.146980e-01
-3.513680e-01
-2.475000e-01
-1.056190e-02
2.002820e-02
3.635770e-01
2.299010e-01