<?xml version="1.0"?>
<VTKFile type="UnstructuredGrid" version="0.1" byte_order="LittleEndian" compressor="vtkZLibDataCompressor">
<UnstructuredGrid>
<Piece NumberOfPoints="960" NumberOfCells="120">
<Points>
<DataArray type="Float32" NumberOfComponents="3" format="ascii">
-4.000000e+02 -6.000000e+03 -4.000000e+02
0.000000e+00 -6.000000e+03 -4.000000e+02
-3.999690e+02 -5.599940e+03 -4.003410e+02
3.474010e-02 -5.600050e+03 -3.998110e+02
-4.000000e+02 -6.000000e+03 0.000000e+00
0.000000e+00 -6.000000e+03 0.000000e+00
-3.999840e+02 -5.600170e+03 1.545130e-02
1.203400e-02 -5.600010e+03 -2.676690e-01
0.000000e+00 -6.000000e+03 -4.000000e+02
4.000000e+02 -6.000000e+03 -4.000000e+02
3.474010e-02 -5.600050e+03 -3.998110e+02
4.000390e+02 -5.600160e+03 -3.992110e+02
0.000000e+00 -6.000000e+03 0.000000e+00
4.000000e+02 -6.000000e+03 0.000000e+00
1.203400e-02 -5.600010e+03 -2.676690e-01
4.000080e+02 -5.599840e+03 -5.708730e-01
-3.999690e+02 -5.599940e+03 -4.003410e+02
3.474010e-02 -5.600050e+03 -3.998110e+02
-3.997580e+02 -5.200580e+03 -4.000010e+02
2.372200e-01 -5.200430e+03 -3.997350e+02
-3.999840e+02 -5.600170e+03 1.545130e-02
1.203400e-02 -5.600010e+03 -2.676690e-01
-4.000290e+02 -5.199870e+03 -5.646230e-01
-3.203180e-02 -5.199980e+03 -3.206640e-01
3.474010e-02 -5.600050e+03 -3.998110e+02
4.000390e+02 -5.600160e+03 -3.992110e+02
2.372200e-01 -5.200430e+03 -3.997350e+02
4.002320e+02 -5.200290e+03 -3.994610e+02
1.203400e-02 -5.600010e+03 -2.676690e-01
4.000080e+02 -5.599840e+03 -5.708730e-01
-3.203180e-02 -5.199980e+03 -3.206640e-01
3.999660e+02 -5.200060e+03 -1.011390e-01
-3.997580e+02 -5.200580e+03 -4.000010e+02
2.372200e-01 -5.200430e+03 -3.997350e+02
-3.998750e+02 -4.800690e+03 -4.013410e+02
1.397760e-01 -4.800610e+03 -4.010540e+02
-4.000290e+02 -5.199870e+03 -5.646230e-01
-3.203180e-02 -5.199980e+03 -3.206640e-01
-4.000310e+02 -4.799830e+03 -1.053330e+00
-2.948130e-02 -4.799930e+03 -8.781280e-01
2.372200e-01 -5.200430e+03 -3.997350e+02
4.002320e+02 -5.200290e+03 -3.994610e+02
1.397760e-01 -4.800610e+03 -4.010540e+02
4.001540e+02 -4.800550e+03 -4.007590e+02
-3.203180e-02 -5.199980e+03 -3.206640e-01
3.999660e+02 -5.200060e+03 -1.011390e-01
-2.948130e-02 -4.799930e+03 -8.781280e-01
3.999710e+02 -4.800020e+03 -6.754780e-01
-3.998750e+02 -4.800690e+03 -4.013410e+02
1.397760e-01 -4.800610e+03 -4.010540e+02
-3.998600e+02 -4.400430e+03 -4.017320e+02
1.485110e-01 -4.400430e+03 -4.015670e+02
-4.000310e+02 -4.799830e+03 -1.053330e+00
-2.948130e-02 -4.799930e+03 -8.781280e-01
-4.000130e+02 -4.400080e+03 -1.049840e+00
-1.442630e-02 -4.400080e+03 -1.123110e+00
1.397760e-01 -4.800610e+03 -4.010540e+02
4.001540e+02 -4.800550e+03 -4.007590e+02
1.485110e-01 -4.400430e+03 -4.015670e+02
4.001560e+02 -4.400470e+03 -4.013260e+02
-2.948130e-02 -4.799930e+03 -8.781280e-01
3.999710e+02 -4.800020e+03 -6.754780e-01
-1.442630e-02 -4.400080e+03 -1.123110e+00
3.999830e+02 -4.400100e+03 -1.240460e+00
-3.998600e+02 -4.400430e+03 -4.017320e+02
1.485110e-01 -4.400430e+03 -4.015670e+02
-3.997550e+02 -4.000590e+03 -4.023450e+02
2.276400e-01 -4.000640e+03 -4.017800e+02
-4.000130e+02 -4.400080e+03 -1.049840e+00
-1.442630e-02 -4.400080e+03 -1.123110e+00
-4.000030e+02 -4.000050e+03 -1.488640e+00
8.976560e-03 -4.000020e+03 -1.602840e+00
1.485110e-01 -4.400430e+03 -4.015670e+02
4.001560e+02 -4.400470e+03 -4.013260e+02
2.276400e-01 -4.000640e+03 -4.017800e+02
4.002110e+02 -4.000700e+03 -4.012520e+02
-1.442630e-02 -4.400080e+03 -1.123110e+00
3.999830e+02 -4.400100e+03 -1.240460e+00
8.976560e-03 -4.000020e+03 -1.602840e+00
4.000220e+02 -3.999980e+03 -1.676090e+00
-3.997550e+02 -4.000590e+03 -4.023450e+02
2.276400e-01 -4.000640e+03 -4.017800e+02
-3.995270e+02 -3.600440e+03 -4.027450e+02
4.738590e-01 -3.600380e+03 -4.024110e+02
-4.000030e+02 -4.000050e+03 -1.488640e+00
8.976560e-03 -4.000020e+03 -1.602840e+00
-4.001390e+02 -3.599950e+03 -3.154390e+00
-1.339800e-01 -3.599990e+03 -2.566490e+00
2.276400e-01 -4.000640e+03 -4.017800e+02
4.002110e+02 -4.000700e+03 -4.012520e+02
4.738590e-01 -3.600380e+03 -4.024110e+02
4.004760e+02 -3.600330e+03 -4.021360e+02
8.976560e-03 -4.000020e+03 -1.602840e+00
4.000220e+02 -3.999980e+03 -1.676090e+00
-1.339800e-01 -3.599990e+03 -2.566490e+00
3.998710e+02 -3.600000e+03 -1.967110e+00
-3.995270e+02 -3.600440e+03 -4.027450e+02
4.738590e-01 -3.600380e+03 -4.024110e+02
-3.995830e+02 -3.200110e+03 -4.036220e+02
4.146300e-01 -3.200040e+03 -4.027230e+02
-4.001390e+02 -3.599950e+03 -3.154390e+00
-1.339800e-01 -3.599990e+03 -2.566490e+00
-4.000460e+02 -3.200040e+03 -2.564240e+00
-4.850550e-02 -3.200000e+03 -2.258760e+00
4.738590e-01 -3.600380e+03 -4.024110e+02
4.004760e+02 -3.600330e+03 -4.021360e+02
4.146300e-01 -3.200040e+03 -4.027230e+02
4.004120e+02 -3.199940e+03 -4.018280e+02
-1.339800e-01 -3.599990e+03 -2.566490e+00
3.998710e+02 -3.600000e+03 -1.967110e+00
-4.850550e-02 -3.200000e+03 -2.258760e+00
3.999500e+02 -3.199980e+03 -1.957710e+00
-3.995830e+02 -3.200110e+03 -4.036220e+02
4.146300e-01 -3.200040e+03 -4.027230e+02
-3.996800e+02 -2.800070e+03 -4.023410e+02
3.111370e-01 -2.800180e+03 -4.023920e+02
-4.000460e+02 -3.200040e+03 -2.564240e+00
-4.850550e-02 -3.200000e+03 -2.258760e+00
-3.999480e+02 -2.800230e+03 -3.331940e+00
5.019800e-02 -2.800060e+03 -2.717430e+00
4.146300e-01 -3.200040e+03 -4.027230e+02
4.004120e+02 -3.199940e+03 -4.018280e+02
3.111370e-01 -2.800180e+03 -4.023920e+02
4.003040e+02 -2.800300e+03 -4.024220e+02
-4.850550e-02 -3.200000e+03 -2.258760e+00
3.999500e+02 -3.199980e+03 -1.957710e+00
5.019800e-02 -2.800060e+03 -2.717430e+00
4.000480e+02 -2.799880e+03 -2.156370e+00
-3.996800e+02 -2.800070e+03 -4.023410e+02
3.111370e-01 -2.800180e+03 -4.023920e+02
-3.998440e+02 -2.400370e+03 -4.027970e+02
1.601660e-01 -2.400380e+03 -4.026910e+02
-3.999480e+02 -2.800230e+03 -3.331940e+00
5.019800e-02 -2.800060e+03 -2.717430e+00
-3.999010e+02 -2.399970e+03 -3.602180e+00
9.630860e-02 -2.399930e+03 -3.334560e+00
3.111370e-01 -2.800180e+03 -4.023920e+02
4.003040e+02 -2.800300e+03 -4.024220e+02
1.601660e-01 -2.400380e+03 -4.026910e+02
4.001640e+02 -2.400410e+03 -4.025850e+02
5.019800e-02 -2.800060e+03 -2.717430e+00
4.000480e+02 -2.799880e+03 -2.156370e+00
9.630860e-02 -2.399930e+03 -3.334560e+00
4.000940e+02 -2.399900e+03 -3.056230e+00
-3.998440e+02 -2.400370e+03 -4.027970e+02
1.601660e-01 -2.400380e+03 -4.026910e+02
-3.999820e+02 -2.000090e+03 -4.028430e+02
2.119000e-02 -2.000310e+03 -4.032680e+02
-3.999010e+02 -2.399970e+03 -3.602180e+00
9.630860e-02 -2.399930e+03 -3.334560e+00
-3.998410e+02 -1.999980e+03 -3.407810e+00
1.588620e-01 -1.999900e+03 -2.839570e+00
1.601660e-01 -2.400380e+03 -4.026910e+02
4.001640e+02 -2.400410e+03 -4.025850e+02
2.119000e-02 -2.000310e+03 -4.032680e+02
4.000230e+02 -2.000530e+03 -4.036660e+02
9.630860e-02 -2.399930e+03 -3.334560e+00
4.000940e+02 -2.399900e+03 -3.056230e+00
1.588620e-01 -1.999900e+03 -2.839570e+00
4.001590e+02 -1.999850e+03 -2.249320e+00
-3.999820e+02 -2.000090e+03 -4.028430e+02
2.119000e-02 -2.000310e+03 -4.032680e+02
-3.997320e+02 -1.600270e+03 -4.032250e+02
2.708160e-01 -1.600320e+03 -4.033850e+02
-3.998410e+02 -1.999980e+03 -3.407810e+00
1.588620e-01 -1.999900e+03 -2.839570e+00
-3.999320e+02 -1.600030e+03 -3.965750e+00
6.030730e-02 -1.600050e+03 -3.594770e+00
2.119000e-02 -2.000310e+03 -4.032680e+02
4.000230e+02 -2.000530e+03 -4.036660e+02
2.708160e-01 -1.600320e+03 -4.033850e+02
4.002740e+02 -1.600360e+03 -4.035690e+02
1.588620e-01 -1.999900e+03 -2.839570e+00
4.001590e+02 -1.999850e+03 -2.249320e+00
6.030730e-02 -1.600050e+03 -3.594770e+00
4.000520e+02 -1.600050e+03 -3.201170e+00
-3.997320e+02 -1.600270e+03 -4.032250e+02
2.708160e-01 -1.600320e+03 -4.033850e+02
-3.997710e+02 -1.200570e+03 -4.039560e+02
2.354760e-01 -1.200400e+03 -4.039590e+02
-3.999320e+02 -1.600030e+03 -3.965750e+00
6.030730e-02 -1.600050e+03 -3.594770e+00
-3.999530e+02 -1.199930e+03 -3.708670e+00
4.540450e-02 -1.200030e+03 -3.435110e+00
2.708160e-01 -1.600320e+03 -4.033850e+02
4.002740e+02 -1.600360e+03 -4.035690e+02
2.354760e-01 -1.200400e+03 -4.039590e+02
4.002410e+02 -1.200230e+03 -4.039690e+02
6.030730e-02 -1.600050e+03 -3.594770e+00
4.000520e+02 -1.600050e+03 -3.201170e+00
4.540450e-02 -1.200030e+03 -3.435110e+00
4.000440e+02 -1.200140e+03 -3.125360e+00
-3.997710e+02 -1.200570e+03 -4.039560e+02
2.354760e-01 -1.200400e+03 -4.039590e+02
-3.995720e+02 -8.005140e+02 -4.048530e+02
4.234650e-01 -8.005760e+02 -4.042680e+02
-3.999530e+02 -1.199930e+03 -3.708670e+00
4.540450e-02 -1.200030e+03 -3.435110e+00
-4.001390e+02 -8.000840e+02 -4.357900e+00
-1.318840e-01 -7.999780e+02 -3.899670e+00
2.354760e-01 -1.200400e+03 -4.039590e+02
4.002410e+02 -1.200230e+03 -4.039690e+02
4.234650e-01 -8.005760e+02 -4.042680e+02
4.004190e+02 -8.006270e+02 -4.037320e+02
4.540450e-02 -1.200030e+03 -3.435110e+00
4.000440e+02 -1.200140e+03 -3.125360e+00
-1.318840e-01 -7.999780e+02 -3.899670e+00
3.998750e+02 -7.998850e+02 -3.441500e+00
-3.995720e+02 -8.005140e+02 -4.048530e+02
4.234650e-01 -8.005760e+02 -4.042680e+02
-4.000430e+02 -4.006510e+02 -4.050300e+02
-4.830570e-02 -4.007270e+02 -4.047210e+02
-4.001390e+02 -8.000840e+02 -4.357900e+00
-1.318840e-01 -7.999780e+02 -3.899670e+00
-4.000700e+02 -3.999200e+02 -4.834220e+00
-5.824030e-02 -3.998460e+02 -5.111620e+00
4.234650e-01 -8.005760e+02 -4.042680e+02
4.004190e+02 -8.006270e+02 -4.037320e+02
-4.830570e-02 -4.007270e+02 -4.047210e+02
3.999450e+02 -4.007820e+02 -4.044380e+02
-1.318840e-01 -7.999780e+02 -3.899670e+00
3.998750e+02 -7.998850e+02 -3.441500e+00
-5.824030e-02 -3.998460e+02 -5.111620e+00
3.999530e+02 -3.998000e+02 -5.373690e+00
-4.000430e+02 -4.006510e+02 -4.050300e+02
-4.830570e-02 -4.007270e+02 -4.047210e+02
-3.999720e+02 -4.610860e-01 -4.058770e+02
3.291950e-02 -4.733450e-01 -4.060250e+02
-4.000700e+02 -3.999200e+02 -4.834220e+00
-5.824030e-02 -3.998460e+02 -5.111620e+00
-4.000090e+02 -1.230520e-02 -5.539360e+00
-1.406610e-02 2.178520e-02 -5.482490e+00
-4.830570e-02 -4.007270e+02 -4.047210e+02
3.999450e+02 -4.007820e+02 -4.044380e+02
3.291950e-02 -4.733450e-01 -4.060250e+02
[...]
<PointData>
<DataArray type="Float32" Name="V1" format="ascii">
0.000000e+00
0.000000e+00
-1.319620e-01
-1.287330e-01
0.000000e+00
0.000000e+00
2.000870e-01
1.967800e-01
0.000000e+00
0.000000e+00
-1.287330e-01
-1.284930e-01
0.000000e+00
0.000000e+00
1.967800e-01
1.941120e-01
-1.319620e-01
-1.287330e-01
-2.216300e-01
-2.208240e-01
2.000870e-01
1.967800e-01
1.126530e-01
1.139450e-01
-1.287330e-01
-1.284930e-01
-2.208240e-01
-2.163110e-01
1.967800e-01
1.941120e-01
1.139450e-01
1.143170e-01
-2.216300e-01
-2.208240e-01
4.470080e-02
2.921900e-02
1.126530e-01
1.139450e-01
2.562420e-02
3.137570e-02
-2.208240e-01
-2.163110e-01
2.921900e-02
1.486800e-02
1.139450e-01
1.143170e-01
3.137570e-02
3.771680e-02
4.470080e-02
2.921900e-02
-1.987910e-01
-2.128990e-01
2.562420e-02
3.137570e-02
1.503740e-01
1.596720e-01
2.921900e-02
1.486800e-02
-2.128990e-01
-2.296600e-01
3.137570e-02
3.771680e-02
1.596720e-01
1.688240e-01
-1.987910e-01
-2.128990e-01
-2.302540e-01
-2.373420e-01
1.503740e-01
1.596720e-01
1.143680e-01
1.225970e-01
-2.128990e-01
-2.296600e-01
-2.373420e-01
-2.470560e-01
1.596720e-01
1.688240e-01
1.225970e-01
1.303610e-01
-2.302540e-01
-2.373420e-01
-5.365040e-01
-5.178160e-01
1.143680e-01
1.225970e-01
5.138470e-01
5.131990e-01
-2.373420e-01
-2.470560e-01
-5.178160e-01
-4.938420e-01
1.225970e-01
1.303610e-01
5.131990e-01
5.125470e-01
-5.365040e-01
-5.178160e-01
3.687950e-02
6.396020e-02
5.138470e-01
5.131990e-01
-1.132210e-01
-1.260200e-01
-5.178160e-01
-4.938420e-01
6.396020e-02
8.897510e-02
5.131990e-01
5.125470e-01
-1.260200e-01
-1.381900e-01
3.687950e-02
6.396020e-02
-1.016410e-01
-1.325620e-01
-1.132210e-01
-1.260200e-01
9.242350e-02
1.063740e-01
6.396020e-02
8.897510e-02
-1.325620e-01
-1.639660e-01
-1.260200e-01
-1.381900e-01
1.063740e-01
1.200110e-01
-1.016410e-01
-1.325620e-01
8.845480e-02
8.378530e-02
9.242350e-02
1.063740e-01
9.866550e-02
1.049600e-01
-1.325620e-01
-1.639660e-01
8.378530e-02
7.898610e-02
1.063740e-01
1.200110e-01
1.049600e-01
1.116370e-01
8.845480e-02
8.378530e-02
-1.673490e-01
-1.802780e-01
9.866550e-02
1.049600e-01
2.021770e-01
2.186110e-01
8.378530e-02
7.898610e-02
-1.802780e-01
-1.898840e-01
1.049600e-01
1.116370e-01
2.186110e-01
2.340400e-01
-1.673490e-01
-1.802780e-01
1.659700e-01
1.506070e-01
2.021770e-01
2.186110e-01
-8.586590e-02
-6.787550e-02
-1.802780e-01
-1.898840e-01
1.506070e-01
1.348980e-01
2.186110e-01
2.340400e-01
-6.787550e-02
-4.955710e-02
1.659700e-01
1.506070e-01
-2.332980e-01
-1.973100e-01
-8.586590e-02
-6.787550e-02
3.059640e-01
2.861960e-01
1.506070e-01
1.348980e-01
-1.973100e-01
-1.571060e-01
-6.787550e-02
-4.955710e-02
2.861960e-01
2.641960e-01
-2.332980e-01
-1.973100e-01
-2.042950e-01
-1.833170e-01
3.059640e-01
2.861960e-01
2.692360e-02
-4.328680e-03
-1.973100e-01
-1.571060e-01
-1.833170e-01
-1.557480e-01
2.861960e-01
2.641960e-01
-4.328680e-03
-3.592870e-02
-2.042950e-01
-1.833170e-01
-2.411090e-01
-2.233790e-01
2.692360e-02
-4.328680e-03
-2.557930e-04
-1.373010e-03
-1.833170e-01
-1.557480e-01
-2.233790e-01
-2.092710e-01
-4.328680e-03
-3.592870e-02
-1.373010e-03
-3.942000e-03
-2.411090e-01
-2.233790e-01
1.096260e-02
-3.493030e-04
-2.557930e-04
-1.373010e-03
5.146400e-02
5.284610e-02
-2.233790e-01
-2.092710e-01
-3.493030e-04
-1.152420e-02
-1.373010e-03
-3.942000e-03
5.284610e-02
5.204480e-02
1.096260e-02
-3.493030e-04
2.004960e-01
2.203590e-01
5.146400e-02
5.284610e-02
-1.333050e-01
-1.523760e-01
-3.493030e-04
-1.152420e-02
2.203590e-01
2.432010e-01
5.284610e-02
5.204480e-02
-1.523760e-01
-1.731880e-01
2.004960e-01
2.203590e-01
-4.550610e-04
-2.352760e-02
-1.333050e-01
-1.523760e-01
-6.617820e-02
-3.449920e-02
2.203590e-01
2.432010e-01
-2.352760e-02
-4.290050e-02
-1.523760e-01
-1.731880e-01
-3.449920e-02
-5.531510e-03
-4.550610e-04
-2.352760e-02
1.689430e-01
1.715600e-01
-6.617820e-02
-3.449920e-02
-8.050690e-02
-8.836190e-02
-2.352760e-02
-4.290050e-02
1.715600e-01
1.720610e-01
-3.449920e-02
-5.531510e-03
-8.836190e-02
-9.704570e-02
1.689430e-01
1.715600e-01
-2.391450e-02
-3.376470e-02
-8.050690e-02
-8.836190e-02
-3.104850e-02
-1.240780e-02
1.715600e-01
1.720610e-01
-3.376470e-02
-4.181630e-02
-8.836190e-02
-9.704570e-02
-1.240780e-02
4.428740e-03
-2.391450e-02
-3.376470e-02
2.200380e-01
2.367700e-01
-3.104850e-02
-1.240780e-02
-1.576500e-01
-1.623970e-01
-3.376470e-02
-4.181630e-02
2.367700e-01
2.557540e-01
-1.240780e-02
4.428740e-03
-1.623970e-01
-1.675990e-01
2.200380e-01
2.367700e-01
1.509290e-02
-1.240580e-04
-1.576500e-01
-1.623970e-01
3.033300e-02
3.613080e-02
2.367700e-01
2.557540e-01
-1.240580e-04
-1.402480e-02
-1.623970e-01
-1.675990e-01
3.613080e-02
3.879280e-02
1.509290e-02
-1.240580e-04
-1.880720e-02
-5.607160e-02
3.033300e-02
3.613080e-02
-1.130670e-01
-1.139090e-01
-1.240580e-04
-1.402480e-02
-5.607160e-02
-8.768960e-02
3.613080e-02
3.879280e-02
-1.139090e-01
-1.159750e-01
-1.880720e-02
-5.607160e-02
3.812480e-02
5.794070e-02
-1.130670e-01
-1.139090e-01
8.791670e-02
8.695140e-02
-5.607160e-02
-8.768960e-02
5.794070e-02
8.057790e-02
-1.139090e-01
-1.159750e-01
8.695140e-02
8.348600e-02
3.812480e-02
5.794070e-02
7.608870e-02
8.022940e-02
8.791670e-02
8.695140e-02
-1.002170e-01
-9.414210e-02
5.794070e-02
8.057790e-02
8.022940e-02
8.764550e-02
8.695140e-02
8.348600e-02
-9.414210e-02
-9.035800e-02
7.608870e-02
8.022940e-02
8.721810e-02
1.189310e-01
-1.002170e-01
-9.414210e-02
-1.349640e-01
-1.568940e-01
8.022940e-02
8.764550e-02
1.189310e-01
1.460630e-01
-9.414210e-02
-9.035800e-02
-1.568940e-01
-1.811810e-01
8.721810e-02
1.189310e-01
6.440590e-02
4.091650e-02
-1.349640e-01
-1.568940e-01
-2.040900e-03
2.687720e-02
1.189310e-01
1.460630e-01
4.091650e-02
2.067880e-02
-1.568940e-01
-1.811810e-01
2.687720e-02
5.411510e-02
6.440590e-02
4.091650e-02
1.325410e-02
1.512080e-02
-2.040900e-03
2.687720e-02
-6.926400e-02
-8.224970e-02
4.091650e-02
2.067880e-02
1.512080e-02
1.903680e-02
2.687720e-02
5.411510e-02
-8.224970e-02
-9.577010e-02
1.325410e-02
1.512080e-02
4.861800e-02
1.542300e-02
-6.926400e-02
-8.224970e-02
-6.723620e-03
7.593970e-03
1.512080e-02
1.903680e-02
1.542300e-02
-1.499680e-02
-8.224970e-02
-9.577010e-02
7.593970e-03
1.967670e-02
4.861800e-02
1.542300e-02
-5.698600e-02
-2.326000e-02
-6.723620e-03
7.593970e-03
7.078530e-02
5.789500e-02
1.542300e-02
-1.499680e-02
-2.326000e-02
1.336020e-02
7.593970e-03
1.967670e-02
5.789500e-02
4.182560e-02
-5.698600e-02
-2.326000e-02
-5.356840e-02
-4.828340e-02
7.078530e-02
5.789500e-02
2.956400e-02
3.930050e-02
-2.326000e-02
1.336020e-02
-4.828340e-02
-3.907000e-02
5.789500e-02
4.182560e-02
3.930050e-02
4.664910e-02
0.000000e+00
0.000000e+00
2.000870e-01
1.967800e-01
0.000000e+00
0.000000e+00
-2.502010e-01
-2.610210e-01
0.000000e+00
0.000000e+00
1.967800e-01
1.941120e-01
0.000000e+00
0.000000e+00
-2.610210e-01
-2.691690e-01
2.000870e-01
1.967800e-01
1.126530e-01
1.139450e-01
-2.502010e-01
-2.610210e-01
-3.224070e-02
-2.410770e-02
1.967800e-01
1.941120e-01
1.139450e-01
1.143170e-01
-2.610210e-01
-2.691690e-01
-2.410770e-02
-1.722330e-02
1.126530e-01
1.139450e-01
2.562420e-02
3.137570e-02
-3.224070e-02
-2.410770e-02
-8.055770e-02
-7.804270e-02
1.139450e-01
1.143170e-01
3.137570e-02
3.771680e-02
-2.410770e-02
-1.722330e-02
-7.804270e-02
-7.601680e-02
2.562420e-02
3.137570e-02
1.503740e-01
1.596720e-01
-8.055770e-02
-7.804270e-02
-9.510980e-02
-1.156000e-01
3.137570e-02
3.771680e-02
1.596720e-01
1.688240e-01
-7.804270e-02
-7.601680e-02
-1.156000e-01
-1.318340e-01
1.503740e-01
1.596720e-01
1.143680e-01
1.225970e-01
-9.510980e-02
-1.156000e-01
6.870820e-04
-1.017720e-02
1.596720e-01
1.688240e-01
1.225970e-01
1.303610e-01
-1.156000e-01
-1.318340e-01
-1.017720e-02
-1.826570e-02
1.143680e-01
1.225970e-01
5.138470e-01
5.131990e-01
6.870820e-04
-1.017720e-02
-4.914780e-01
-5.059660e-01
1.225970e-01
1.303610e-01
5.131990e-01
5.125470e-01
-1.017720e-02
-1.826570e-02
-5.059660e-01
-5.248250e-01
5.138470e-01
5.131990e-01
-1.132210e-01
-1.260200e-01
-4.914780e-01
-5.059660e-01
1.882160e-01
1.877710e-01
5.131990e-01
5.125470e-01
-1.260200e-01
-1.381900e-01
-5.059660e-01
-5.248250e-01
1.877710e-01
1.884630e-01
-1.132210e-01
-1.260200e-01
9.242350e-02
1.063740e-01
1.882160e-01
1.877710e-01
-7.121950e-02
-7.217930e-02
-1.260200e-01
-1.381900e-01
1.063740e-01
1.200110e-01
1.877710e-01
1.884630e-01
-7.217930e-02
-7.146870e-02
9.242350e-02
1.063740e-01
9.866550e-02
1.049600e-01
-7.121950e-02
-7.217930e-02
-2.977140e-01
-3.050250e-01
1.063740e-01
1.200110e-01
1.049600e-01
1.116370e-01
-7.217930e-02
-7.146870e-02
-3.050250e-01
-3.094010e-01
9.866550e-02
1.049600e-01
2.021770e-01
2.186110e-01
-2.977140e-01
-3.050250e-01
-2.248940e-01
-2.445760e-01
1.049600e-01
1.116370e-01
2.186110e-01
2.340400e-01
-3.050250e-01
-3.094010e-01
-2.445760e-01
-2.627930e-01
2.021770e-01
2.186110e-01
-8.586590e-02
-6.787550e-02
-2.248940e-01
-2.445760e-01
-1.036690e-02
-2.695850e-02
2.186110e-01
2.340400e-01
-6.787550e-02
-4.955710e-02
-2.445760e-01
-2.627930e-01
-2.695850e-02
-4.347400e-02
-8.586590e-02
-6.787550e-02
3.059640e-01
2.861960e-01
-1.036690e-02
-2.695850e-02
-3.673990e-01
-3.710620e-01
-6.787550e-02
-4.955710e-02
2.861960e-01
2.641960e-01
-2.695850e-02
-4.347400e-02
-3.710620e-01
-3.751100e-01
3.059640e-01
2.861960e-01
2.692360e-02
-4.328680e-03
-3.673990e-01
-3.710620e-01
1.586740e-01
1.951930e-01
2.861960e-01
2.641960e-01
-4.328680e-03
-3.592870e-02
-3.710620e-01
-3.751100e-01
1.951930e-01
2.259540e-01
2.692360e-02
-4.328680e-03
-2.557930e-04
-1.373010e-03
1.586740e-01
1.951930e-01
2.134070e-01
2.090180e-01
-4.328680e-03
-3.592870e-02
-1.373010e-03
-3.942000e-03
1.951930e-01
2.259540e-01
2.090180e-01
2.094560e-01
-2.557930e-04
-1.373010e-03
5.146400e-02
5.284610e-02
2.134070e-01
2.090180e-01
-1.070390e-01
-9.431280e-02
-1.373010e-03
-3.942000e-03
5.284610e-02
5.204480e-02
2.090180e-01
2.094560e-01
-9.431280e-02
-7.599790e-02
5.146400e-02
5.284610e-02
-1.333050e-01
-1.523760e-01
-1.070390e-01
-9.431280e-02
6.882240e-02
8.801290e-02
5.284610e-02
5.204480e-02
-1.523760e-01
-1.731880e-01
-9.431280e-02
-7.599790e-02
8.801290e-02
1.057070e-01
-1.333050e-01
-1.523760e-01
-6.617820e-02
-3.449920e-02
6.882240e-02
8.801290e-02
1.401990e-01
9.266900e-02
-1.523760e-01
-1.731880e-01
-3.449920e-02
-5.531510e-03
8.801290e-02
1.057070e-01
9.266900e-02
4.601960e-02
-6.617820e-02
-3.449920e-02
-8.050690e-02
-8.836190e-02
1.401990e-01
9.266900e-02
-2.061650e-02
3.875480e-03
-3.449920e-02
-5.531510e-03
-8.836190e-02
-9.704570e-02
9.266900e-02
4.601960e-02
3.875480e-03
3.345010e-02
-8.050690e-02
-8.836190e-02
-3.104850e-02
-1.240780e-02
-2.061650e-02
3.875480e-03
9.488420e-02
6.754040e-02
-8.836190e-02
-9.704570e-02
-1.240780e-02
4.428740e-03
3.875480e-03
3.345010e-02
6.754040e-02
4.356540e-02
-3.104850e-02
-1.240780e-02
-1.576500e-01
-1.623970e-01
9.488420e-02
6.754040e-02
9.595760e-02
8.607410e-02
-1.240780e-02
4.428740e-03
-1.623970e-01
-1.675990e-01
6.754040e-02
4.356540e-02
8.607410e-02
7.617520e-02
-1.576500e-01
-1.623970e-01
3.033300e-02
3.613080e-02
9.595760e-02
8.607410e-02
-7.967960e-02
-7.830400e-02
-1.623970e-01
-1.675990e-01
3.613080e-02
3.879280e-02
8.607410e-02
7.617520e-02
-7.830400e-02
-7.396260e-02
3.033300e-02
3.613080e-02
-1.130670e-01
-1.139090e-01
-7.967960e-02
-7.830400e-02
2.508600e-01
2.834900e-01
3.613080e-02
3.879280e-02
-1.139090e-01
-1.159750e-01
-7.830400e-02
-7.396260e-02
2.834900e-01
3.122820e-01
-1.130670e-01
-1.139090e-01
8.791670e-02
8.695140e-02
2.508600e-01
2.834900e-01
-2.245060e-01
-2.388300e-01
-1.139090e-01
-1.159750e-01
8.695140e-02
8.348600e-02
2.834900e-01
3.122820e-01
-2.388300e-01
-2.535260e-01
8.791670e-02
8.695140e-02
-1.002170e-01
-9.414210e-02
-2.245060e-01
-2.388300e-01
1.360340e-01
1.186320e-01
8.695140e-02
8.348600e-02
-9.414210e-02
-9.035800e-02
-2.388300e-01
-2.535260e-01
1.186320e-01
1.047170e-01
-1.002170e-01
-9.414210e-02
-1.349640e-01
-1.568940e-01
1.360340e-01
1.186320e-01
1.704860e-01
1.818110e-01
-9.414210e-02
-9.035800e-02
-1.568940e-01
-1.811810e-01
1.186320e-01
1.047170e-01
1.818110e-01
2.025140e-01
-1.349640e-01
-1.568940e-01
-2.040900e-03
2.687720e-02
1.704860e-01
1.818110e-01
-5.721650e-02
-8.881920e-02
-1.568940e-01
-1.811810e-01
2.687720e-02
5.411510e-02
1.818110e-01
2.025140e-01
-8.881920e-02
-1.187310e-01
-2.040900e-03
2.687720e-02
-6.926400e-02
-8.224970e-02
-5.721650e-02
-8.881920e-02
1.296360e-01
1.461640e-01
2.687720e-02
5.411510e-02
-8.224970e-02
-9.577010e-02
-8.881920e-02
-1.187310e-01
1.461640e-01
1.634710e-01
-6.926400e-02
-8.224970e-02
-6.723620e-03
7.593970e-03
1.296360e-01
1.461640e-01
-3.330920e-02
-2.486230e-02
-8.224970e-02
-9.577010e-02
7.593970e-03
1.967670e-02
1.461640e-01
1.634710e-01
-2.486230e-02
-1.471750e-02
-6.723620e-03
7.593970e-03
7.078530e-02
5.789500e-02
-3.330920e-02
-2.486230e-02
-7.863380e-02
-9.089450e-02
7.593970e-03
1.967670e-02
5.789500e-02
4.182560e-02
-2.486230e-02
-1.471750e-02
-9.089450e-02
-1.011890e-01
7.078530e-02
5.789500e-02
2.956400e-02
3.930050e-02
-7.863380e-02
-9.089450e-02
-2.591310e-02
-3.249210e-02
5.789500e-02
4.182560e-02
3.930050e-02
4.664910e-02
-9.089450e-02
-1.011890e-01
-3.249210e-02
-3.929460e-02
</DataArray>
<DataArray type="Float32" Name="V2" format="ascii">
0.000000e+00
0.000000e+00
-1.214270e-01
1.118160e-01
0.000000e+00
0.000000e+00
7.883070e-02
-4.944380e-02
0.000000e+00
0.000000e+00
1.118160e-01
2.714380e-01
0.000000e+00
0.000000e+00
-4.944380e-02
-1.861460e-01
-1.214270e-01
1.118160e-01
4.003720e-01
3.907980e-02
7.883070e-02
-4.944380e-02
-1.733890e-01
-3.776260e-02
1.118160e-01
2.714380e-01
3.907980e-02
-3.464930e-01
-4.944380e-02
-1.861460e-01
-3.776260e-02
1.148570e-01
4.003720e-01
3.907980e-02
-5.539650e-02
-2.535310e-01
-1.733890e-01
-3.776260e-02
3.200300e-01
2.539050e-01
3.907980e-02
-3.464930e-01
-2.535310e-01
-3.826410e-01
-3.776260e-02
1.148570e-01
2.539050e-01
1.570450e-01
-5.539650e-02
-2.535310e-01
1.923180e-01
2.077060e-01
3.200300e-01
2.539050e-01
-2.611430e-02
-1.007420e-01
-2.535310e-01
-3.826410e-01
2.077060e-01
1.904360e-01
2.539050e-01
1.570450e-01
-1.007420e-01
-1.405070e-01
1.923180e-01
2.077060e-01
-2.727540e-02
-1.389460e-01
-2.611430e-02
-1.007420e-01
1.294120e-01
2.265870e-02
2.077060e-01
1.904360e-01
-1.389460e-01
-2.961050e-01
-1.007420e-01
-1.405070e-01
2.265870e-02
-9.882020e-03
-2.727540e-02
-1.389460e-01
-2.075710e-01
-2.138890e-01
1.294120e-01
2.265870e-02
-6.947580e-03
1.571470e-02
-1.389460e-01
-2.961050e-01
-2.138890e-01
-2.476940e-01
2.265870e-02
-9.882020e-03
1.571470e-02
1.970440e-02
-2.075710e-01
-2.138890e-01
-1.371630e-01
2.150000e-01
-6.947580e-03
1.571470e-02
2.431600e-01
6.644460e-03
-2.138890e-01
-2.476940e-01
2.150000e-01
6.342370e-01
1.571470e-02
1.970440e-02
6.644460e-03
-3.431820e-01
-1.371630e-01
2.150000e-01
2.195440e-01
2.100750e-01
2.431600e-01
6.644460e-03
4.233550e-03
3.631920e-02
2.150000e-01
6.342370e-01
2.100750e-01
2.659030e-01
6.644460e-03
-3.431820e-01
3.631920e-02
7.215550e-02
2.195440e-01
2.100750e-01
-8.100570e-03
1.088230e-01
4.233550e-03
3.631920e-02
-5.931030e-02
-1.313230e-01
2.100750e-01
2.659030e-01
1.088230e-01
2.538080e-01
3.631920e-02
7.215550e-02
-1.313230e-01
-1.582810e-01
-8.100570e-03
1.088230e-01
-8.047770e-02
-1.629120e-01
-5.931030e-02
-1.313230e-01
-1.343430e-01
-1.336750e-02
1.088230e-01
2.538080e-01
-1.629120e-01
-2.465900e-01
-1.313230e-01
-1.582810e-01
-1.336750e-02
6.894080e-02
-8.047770e-02
-1.629120e-01
-1.980140e-01
-1.684440e-01
-1.343430e-01
-1.336750e-02
-1.182950e-02
6.045460e-02
-1.629120e-01
-2.465900e-01
-1.684440e-01
-1.650050e-01
-1.336750e-02
6.894080e-02
6.045460e-02
9.561810e-02
-1.980140e-01
-1.684440e-01
2.498950e-01
2.983920e-01
-1.182950e-02
6.045460e-02
-1.804200e-01
-1.494320e-01
-1.684440e-01
-1.650050e-01
2.983920e-01
3.535230e-01
6.045460e-02
9.561810e-02
-1.494320e-01
-1.464910e-01
2.498950e-01
2.983920e-01
1.744370e-01
1.221310e-01
-1.804200e-01
-1.494320e-01
-1.431150e-02
4.607770e-02
2.983920e-01
3.535230e-01
1.221310e-01
5.972950e-02
-1.494320e-01
-1.464910e-01
4.607770e-02
1.359070e-01
1.744370e-01
1.221310e-01
1.718050e-02
-2.186830e-01
-1.431150e-02
4.607770e-02
1.263360e-01
2.220590e-01
1.221310e-01
5.972950e-02
-2.186830e-01
-3.146980e-01
4.607770e-02
1.359070e-01
2.220590e-01
2.276730e-01
1.718050e-02
-2.186830e-01
1.514920e-01
1.501920e-01
1.263360e-01
2.220590e-01
4.670000e-02
-1.358480e-01
-2.186830e-01
-3.146980e-01
1.501920e-01
2.244180e-02
2.220590e-01
2.276730e-01
-1.358480e-01
-1.739180e-01
1.514920e-01
1.501920e-01
-1.393340e-01
3.522080e-02
4.670000e-02
-1.358480e-01
8.495710e-02
-6.232710e-02
1.501920e-01
2.244180e-02
3.522080e-02
1.880140e-01
-1.358480e-01
-1.739180e-01
-6.232710e-02
-2.497030e-01
-1.393340e-01
3.522080e-02
1.264930e-01
-1.636540e-01
8.495710e-02
-6.232710e-02
-2.719270e-01
3.017790e-02
3.522080e-02
1.880140e-01
-1.636540e-01
-4.993890e-01
-6.232710e-02
-2.497030e-01
3.017790e-02
3.749590e-01
1.264930e-01
-1.636540e-01
-1.458650e-01
1.549520e-01
-2.719270e-01
3.017790e-02
2.076540e-01
-7.800480e-02
-1.636540e-01
-4.993890e-01
1.549520e-01
3.841400e-01
3.017790e-02
3.749590e-01
-7.800480e-02
-3.141650e-01
-1.458650e-01
1.549520e-01
2.213580e-02
7.607870e-02
2.076540e-01
-7.800480e-02
1.577350e-01
1.078290e-01
1.549520e-01
3.841400e-01
7.607870e-02
1.984960e-01
-7.800480e-02
-3.141650e-01
1.078290e-01
7.618120e-03
2.213580e-02
7.607870e-02
6.131690e-02
-3.814990e-03
1.577350e-01
1.078290e-01
1.297730e-01
7.358020e-02
7.607870e-02
1.984960e-01
-3.814990e-03
3.411580e-02
1.078290e-01
7.618120e-03
7.358020e-02
-2.286880e-02
6.131690e-02
-3.814990e-03
-1.457870e-02
4.223710e-02
1.297730e-01
7.358020e-02
1.189020e-01
1.631840e-03
-3.814990e-03
3.411580e-02
4.223710e-02
6.065720e-02
7.358020e-02
-2.286880e-02
1.631840e-03
-1.265740e-01
-1.457870e-02
4.223710e-02
-3.272140e-01
-1.694880e-01
1.189020e-01
1.631840e-03
-8.763300e-02
-1.550050e-01
4.223710e-02
6.065720e-02
-1.694880e-01
-4.387710e-02
1.631840e-03
-1.265740e-01
-1.550050e-01
-1.732460e-01
-3.272140e-01
-1.694880e-01
-4.019400e-01
-3.914000e-02
-8.763300e-02
-1.550050e-01
2.320510e-01
1.797260e-02
-1.694880e-01
-4.387710e-02
-3.914000e-02
4.263060e-01
-1.550050e-01
-1.732460e-01
1.797260e-02
-2.747430e-01
-4.019400e-01
-3.914000e-02
5.392800e-01
3.638100e-01
2.320510e-01
1.797260e-02
-3.464230e-01
-1.424230e-01
-3.914000e-02
4.263060e-01
3.638100e-01
1.095360e-01
1.797260e-02
-2.747430e-01
-1.424230e-01
7.838540e-02
5.392800e-01
3.638100e-01
1.216610e-02
-1.905060e-02
-3.464230e-01
-1.424230e-01
-7.501250e-02
-1.472000e-02
3.638100e-01
1.095360e-01
-1.905060e-02
1.625390e-02
-1.424230e-01
7.838540e-02
-1.472000e-02
-7.638830e-03
1.216610e-02
-1.905060e-02
-5.092130e-01
-1.001390e-01
-7.501250e-02
-1.472000e-02
2.582460e-01
3.271640e-02
-1.905060e-02
1.625390e-02
-1.001390e-01
3.197050e-01
-1.472000e-02
-7.638830e-03
3.271640e-02
-1.709320e-01
-5.092130e-01
-1.001390e-01
1.701760e-01
-7.868380e-02
2.582460e-01
3.271640e-02
-3.685020e-01
8.998550e-03
-1.001390e-01
3.197050e-01
-7.868380e-02
-3.950810e-01
3.271640e-02
-1.709320e-01
8.998550e-03
3.564310e-01
1.701760e-01
-7.868380e-02
-1.025630e-01
-9.513970e-02
-3.685020e-01
8.998550e-03
-6.540450e-02
-2.638300e-02
-7.868380e-02
-3.950810e-01
-9.513970e-02
-8.756160e-02
8.998550e-03
3.564310e-01
-2.638300e-02
4.115600e-02
-1.025630e-01
-9.513970e-02
-2.779740e-01
1.222820e-02
-6.540450e-02
-2.638300e-02
1.499940e-01
-1.721920e-01
-9.513970e-02
-8.756160e-02
1.222820e-02
3.601050e-01
-2.638300e-02
4.115600e-02
-1.721920e-01
-4.850960e-01
-2.779740e-01
1.222820e-02
-3.642300e-01
-4.346500e-01
1.499940e-01
-1.721920e-01
1.606220e-01
1.759390e-01
1.222820e-02
3.601050e-01
-4.346500e-01
-5.493340e-01
-1.721920e-01
-4.850960e-01
1.759390e-01
2.218350e-01
0.000000e+00
0.000000e+00
7.883070e-02
-4.944380e-02
0.000000e+00
0.000000e+00
-1.776830e-02
-6.373290e-03
0.000000e+00
0.000000e+00
-4.944380e-02
-1.861460e-01
0.000000e+00
0.000000e+00
-6.373290e-03
1.247450e-01
7.883070e-02
-4.944380e-02
-1.733890e-01
-3.776260e-02
-1.776830e-02
-6.373290e-03
-4.448870e-02
2.854170e-02
-4.944380e-02
-1.861460e-01
-3.776260e-02
1.148570e-01
-6.373290e-03
1.247450e-01
2.854170e-02
1.088800e-01