<?xml version="1.0"?>
<VTKFile type="UnstructuredGrid" version="0.1" byte_order="LittleEndian" compressor="vtkZLibDataCompressor">
<UnstructuredGrid>
<Piece NumberOfPoints="960" NumberOfCells="120">
<Points>
<DataArray type="Float32" NumberOfComponents="3" format="ascii">
-4.000000e+02 -6.000000e+03 -4.000000e+02
0.000000e+00 -6.000000e+03 -4.000000e+02
-3.998450e+02 -5.600280e+03 -4.000820e+02
1.525620e-01 -5.600170e+03 -3.999620e+02
-4.000000e+02 -6.000000e+03 0.000000e+00
0.000000e+00 -6.000000e+03 0.000000e+00
-4.000290e+02 -5.599970e+03 -2.039320e-01
-2.678070e-02 -5.599990e+03 -1.711780e-01
0.000000e+00 -6.000000e+03 -4.000000e+02
4.000000e+02 -6.000000e+03 -4.000000e+02
1.525620e-01 -5.600170e+03 -3.999620e+02
4.001490e+02 -5.600060e+03 -3.998470e+02
0.000000e+00 -6.000000e+03 0.000000e+00
4.000000e+02 -6.000000e+03 0.000000e+00
-2.678070e-02 -5.599990e+03 -1.711780e-01
3.999750e+02 -5.600000e+03 -1.344910e-01
-3.998450e+02 -5.600280e+03 -4.000820e+02
1.525620e-01 -5.600170e+03 -3.999620e+02
-3.999220e+02 -5.200110e+03 -4.002620e+02
7.779760e-02 -5.200070e+03 -4.003140e+02
-4.000290e+02 -5.599970e+03 -2.039320e-01
-2.678070e-02 -5.599990e+03 -1.711780e-01
-4.000100e+02 -5.200050e+03 -4.344640e-01
-9.518070e-03 -5.200040e+03 -1.838070e-01
1.525620e-01 -5.600170e+03 -3.999620e+02
4.001490e+02 -5.600060e+03 -3.998470e+02
7.779760e-02 -5.200070e+03 -4.003140e+02
4.000780e+02 -5.200030e+03 -4.003680e+02
-2.678070e-02 -5.599990e+03 -1.711780e-01
3.999750e+02 -5.600000e+03 -1.344910e-01
-9.518070e-03 -5.200040e+03 -1.838070e-01
3.999910e+02 -5.200040e+03 6.890220e-02
-3.999220e+02 -5.200110e+03 -4.002620e+02
7.779760e-02 -5.200070e+03 -4.003140e+02
-3.998410e+02 -4.800010e+03 -4.002820e+02
1.588720e-01 -4.800100e+03 -4.001060e+02
-4.000100e+02 -5.200050e+03 -4.344640e-01
-9.518070e-03 -5.200040e+03 -1.838070e-01
-3.999580e+02 -4.799970e+03 -3.708820e-01
4.131790e-02 -4.799970e+03 -3.409060e-01
7.779760e-02 -5.200070e+03 -4.003140e+02
4.000780e+02 -5.200030e+03 -4.003680e+02
1.588720e-01 -4.800100e+03 -4.001060e+02
4.001590e+02 -4.800200e+03 -3.999380e+02
-9.518070e-03 -5.200040e+03 -1.838070e-01
3.999910e+02 -5.200040e+03 6.890220e-02
4.131790e-02 -4.799970e+03 -3.409060e-01
4.000410e+02 -4.799970e+03 -3.126040e-01
-3.998410e+02 -4.800010e+03 -4.002820e+02
1.588720e-01 -4.800100e+03 -4.001060e+02
-3.999820e+02 -4.400270e+03 -4.000270e+02
1.573050e-02 -4.400260e+03 -4.002970e+02
-3.999580e+02 -4.799970e+03 -3.708820e-01
4.131790e-02 -4.799970e+03 -3.409060e-01
-3.999900e+02 -4.399940e+03 -5.115500e-01
1.129200e-02 -4.400000e+03 -4.421890e-01
1.588720e-01 -4.800100e+03 -4.001060e+02
4.001590e+02 -4.800200e+03 -3.999380e+02
1.573050e-02 -4.400260e+03 -4.002970e+02
4.000130e+02 -4.400250e+03 -4.005680e+02
4.131790e-02 -4.799970e+03 -3.409060e-01
4.000410e+02 -4.799970e+03 -3.126040e-01
1.129200e-02 -4.400000e+03 -4.421890e-01
4.000130e+02 -4.400060e+03 -3.711370e-01
-3.999820e+02 -4.400270e+03 -4.000270e+02
1.573050e-02 -4.400260e+03 -4.002970e+02
-4.001990e+02 -4.000400e+03 -4.004210e+02
-2.005120e-01 -4.000370e+03 -4.006550e+02
-3.999900e+02 -4.399940e+03 -5.115500e-01
1.129200e-02 -4.400000e+03 -4.421890e-01
-4.000180e+02 -3.999980e+03 -2.994920e-01
-1.595240e-02 -4.000020e+03 -4.971240e-01
1.573050e-02 -4.400260e+03 -4.002970e+02
4.000130e+02 -4.400250e+03 -4.005680e+02
-2.005120e-01 -4.000370e+03 -4.006550e+02
3.997970e+02 -4.000340e+03 -4.008990e+02
1.129200e-02 -4.400000e+03 -4.421890e-01
4.000130e+02 -4.400060e+03 -3.711370e-01
-1.595240e-02 -4.000020e+03 -4.971240e-01
3.999860e+02 -4.000050e+03 -6.924030e-01
-4.001990e+02 -4.000400e+03 -4.004210e+02
-2.005120e-01 -4.000370e+03 -4.006550e+02
-4.003930e+02 -3.600230e+03 -4.002910e+02
-3.941620e-01 -3.600290e+03 -4.006870e+02
-4.000180e+02 -3.999980e+03 -2.994920e-01
-1.595240e-02 -4.000020e+03 -4.971240e-01
-3.999480e+02 -3.599990e+03 -9.574270e-01
5.312660e-02 -3.599940e+03 -1.181940e+00
-2.005120e-01 -4.000370e+03 -4.006550e+02
3.997970e+02 -4.000340e+03 -4.008990e+02
-3.941620e-01 -3.600290e+03 -4.006870e+02
3.996050e+02 -3.600350e+03 -4.010810e+02
-1.595240e-02 -4.000020e+03 -4.971240e-01
3.999860e+02 -4.000050e+03 -6.924030e-01
5.312660e-02 -3.599940e+03 -1.181940e+00
4.000550e+02 -3.599890e+03 -1.402840e+00
-4.003930e+02 -3.600230e+03 -4.002910e+02
-3.941620e-01 -3.600290e+03 -4.006870e+02
-4.003240e+02 -3.199970e+03 -4.011840e+02
-3.240810e-01 -3.199970e+03 -4.014430e+02
-3.999480e+02 -3.599990e+03 -9.574270e-01
5.312660e-02 -3.599940e+03 -1.181940e+00
-3.999420e+02 -3.199980e+03 -6.515750e-01
5.779360e-02 -3.200020e+03 -1.015600e+00
-3.941620e-01 -3.600290e+03 -4.006870e+02
3.996050e+02 -3.600350e+03 -4.010810e+02
-3.240810e-01 -3.199970e+03 -4.014430e+02
3.996750e+02 -3.199970e+03 -4.017100e+02
5.312660e-02 -3.599940e+03 -1.181940e+00
4.000550e+02 -3.599890e+03 -1.402840e+00
5.779360e-02 -3.200020e+03 -1.015600e+00
4.000580e+02 -3.200050e+03 -1.378050e+00
-4.003240e+02 -3.199970e+03 -4.011840e+02
-3.240810e-01 -3.199970e+03 -4.014430e+02
-4.001750e+02 -2.799990e+03 -4.010920e+02
-1.738000e-01 -2.799920e+03 -4.012680e+02
-3.999420e+02 -3.199980e+03 -6.515750e-01
5.779360e-02 -3.200020e+03 -1.015600e+00
-3.999860e+02 -2.799970e+03 -1.166910e+00
1.337810e-02 -2.800040e+03 -1.326010e+00
-3.240810e-01 -3.199970e+03 -4.014430e+02
3.996750e+02 -3.199970e+03 -4.017100e+02
-1.738000e-01 -2.799920e+03 -4.012680e+02
3.998270e+02 -2.799840e+03 -4.014500e+02
5.779360e-02 -3.200020e+03 -1.015600e+00
4.000580e+02 -3.200050e+03 -1.378050e+00
1.337810e-02 -2.800040e+03 -1.326010e+00
4.000120e+02 -2.800120e+03 -1.486770e+00
-4.001750e+02 -2.799990e+03 -4.010920e+02
-1.738000e-01 -2.799920e+03 -4.012680e+02
-4.001120e+02 -2.400230e+03 -4.008110e+02
-1.083590e-01 -2.400250e+03 -4.009670e+02
-3.999860e+02 -2.799970e+03 -1.166910e+00
1.337810e-02 -2.800040e+03 -1.326010e+00
-4.000140e+02 -2.400010e+03 -1.237800e+00
-1.643930e-02 -2.399980e+03 -1.404380e+00
-1.738000e-01 -2.799920e+03 -4.012680e+02
3.998270e+02 -2.799840e+03 -4.014500e+02
-1.083590e-01 -2.400250e+03 -4.009670e+02
3.998950e+02 -2.400270e+03 -4.011180e+02
1.337810e-02 -2.800040e+03 -1.326010e+00
4.000120e+02 -2.800120e+03 -1.486770e+00
-1.643930e-02 -2.399980e+03 -1.404380e+00
3.999810e+02 -2.399950e+03 -1.568520e+00
-4.001120e+02 -2.400230e+03 -4.008110e+02
-1.083590e-01 -2.400250e+03 -4.009670e+02
-4.000250e+02 -2.000380e+03 -4.013460e+02
-2.347930e-02 -2.000380e+03 -4.013740e+02
-4.000140e+02 -2.400010e+03 -1.237800e+00
-1.643930e-02 -2.399980e+03 -1.404380e+00
-4.000290e+02 -1.999950e+03 -1.949290e+00
-3.094150e-02 -1.999960e+03 -1.890840e+00
-1.083590e-01 -2.400250e+03 -4.009670e+02
3.998950e+02 -2.400270e+03 -4.011180e+02
-2.347930e-02 -2.000380e+03 -4.013740e+02
3.999780e+02 -2.000380e+03 -4.013940e+02
-1.643930e-02 -2.399980e+03 -1.404380e+00
3.999810e+02 -2.399950e+03 -1.568520e+00
-3.094150e-02 -1.999960e+03 -1.890840e+00
3.999670e+02 -1.999970e+03 -1.833860e+00
-4.000250e+02 -2.000380e+03 -4.013460e+02
-2.347930e-02 -2.000380e+03 -4.013740e+02
-3.999180e+02 -1.600190e+03 -4.022800e+02
8.251970e-02 -1.600150e+03 -4.019960e+02
-4.000290e+02 -1.999950e+03 -1.949290e+00
-3.094150e-02 -1.999960e+03 -1.890840e+00
-4.000190e+02 -1.600000e+03 -1.493920e+00
-1.928170e-02 -1.600030e+03 -1.566870e+00
-2.347930e-02 -2.000380e+03 -4.013740e+02
3.999780e+02 -2.000380e+03 -4.013940e+02
8.251970e-02 -1.600150e+03 -4.019960e+02
4.000820e+02 -1.600120e+03 -4.017030e+02
-3.094150e-02 -1.999960e+03 -1.890840e+00
3.999670e+02 -1.999970e+03 -1.833860e+00
-1.928170e-02 -1.600030e+03 -1.566870e+00
3.999800e+02 -1.600060e+03 -1.646570e+00
-3.999180e+02 -1.600190e+03 -4.022800e+02
8.251970e-02 -1.600150e+03 -4.019960e+02
-3.998190e+02 -1.200070e+03 -4.024090e+02
1.820560e-01 -1.200080e+03 -4.021480e+02
-4.000190e+02 -1.600000e+03 -1.493920e+00
-1.928170e-02 -1.600030e+03 -1.566870e+00
-4.000520e+02 -1.200080e+03 -1.941930e+00
-5.179770e-02 -1.200040e+03 -2.002770e+00
8.251970e-02 -1.600150e+03 -4.019960e+02
4.000820e+02 -1.600120e+03 -4.017030e+02
1.820560e-01 -1.200080e+03 -4.021480e+02
4.001840e+02 -1.200080e+03 -4.018760e+02
-1.928170e-02 -1.600030e+03 -1.566870e+00
3.999800e+02 -1.600060e+03 -1.646570e+00
-5.179770e-02 -1.200040e+03 -2.002770e+00
3.999480e+02 -1.200000e+03 -2.063540e+00
-3.998190e+02 -1.200070e+03 -4.024090e+02
1.820560e-01 -1.200080e+03 -4.021480e+02
-3.999830e+02 -8.000720e+02 -4.022330e+02
1.665340e-02 -8.000840e+02 -4.021810e+02
-4.000520e+02 -1.200080e+03 -1.941930e+00
-5.179770e-02 -1.200040e+03 -2.002770e+00
-4.000180e+02 -8.000370e+02 -2.592990e+00
-1.686310e-02 -7.999870e+02 -2.548080e+00
1.820560e-01 -1.200080e+03 -4.021480e+02
4.001840e+02 -1.200080e+03 -4.018760e+02
1.665340e-02 -8.000840e+02 -4.021810e+02
4.000170e+02 -8.000990e+02 -4.021310e+02
-5.179770e-02 -1.200040e+03 -2.002770e+00
3.999480e+02 -1.200000e+03 -2.063540e+00
-1.686310e-02 -7.999870e+02 -2.548080e+00
3.999840e+02 -7.999320e+02 -2.503810e+00
-3.999830e+02 -8.000720e+02 -4.022330e+02
1.665340e-02 -8.000840e+02 -4.021810e+02
-3.999900e+02 -4.001580e+02 -4.027950e+02
8.828460e-03 -4.001430e+02 -4.027440e+02
-4.000180e+02 -8.000370e+02 -2.592990e+00
-1.686310e-02 -7.999870e+02 -2.548080e+00
-3.999480e+02 -3.999400e+02 -1.934770e+00
5.306430e-02 -3.999820e+02 -1.971820e+00
1.665340e-02 -8.000840e+02 -4.021810e+02
4.000170e+02 -8.000990e+02 -4.021310e+02
8.828460e-03 -4.001430e+02 -4.027440e+02
4.000080e+02 -4.001300e+02 -4.027000e+02
-1.686310e-02 -7.999870e+02 -2.548080e+00
3.999840e+02 -7.999320e+02 -2.503810e+00
5.306430e-02 -3.999820e+02 -1.971820e+00
4.000540e+02 -4.000230e+02 -2.006940e+00
-3.999900e+02 -4.001580e+02 -4.027950e+02
8.828460e-03 -4.001430e+02 -4.027440e+02
-3.999720e+02 -2.132930e-01 -4.019240e+02
2.905560e-02 -1.526030e-01 -4.021780e+02
-3.999480e+02 -3.999400e+02 -1.934770e+00
5.306430e-02 -3.999820e+02 -1.971820e+00
-3.999850e+02 -3.756400e-02 -2.714430e+00
1.414150e-02 -5.827210e-02 -2.709000e+00
8.828460e-03 -4.001430e+02 -4.027440e+02
4.000080e+02 -4.001300e+02 -4.027000e+02
[...]
<PointData>
<DataArray type="Float32" Name="V1" format="ascii">
0.000000e+00
0.000000e+00
-1.841960e-01
-1.840040e-01
0.000000e+00
0.000000e+00
2.356810e-02
2.130020e-02
0.000000e+00
0.000000e+00
-1.840040e-01
-1.840330e-01
0.000000e+00
0.000000e+00
2.130020e-02
1.879630e-02
-1.841960e-01
-1.840040e-01
4.707280e-02
4.686130e-02
2.356810e-02
2.130020e-02
5.907480e-02
6.042080e-02
-1.840040e-01
-1.840330e-01
4.686130e-02
4.722620e-02
2.130020e-02
1.879630e-02
6.042080e-02
6.193920e-02
4.707280e-02
4.686130e-02
6.978570e-02
6.740160e-02
5.907480e-02
6.042080e-02
-5.614230e-02
-5.393130e-02
4.686130e-02
4.722620e-02
6.740160e-02
6.439270e-02
6.042080e-02
6.193920e-02
-5.393130e-02
-5.201240e-02
6.978570e-02
6.740160e-02
2.549360e-02
2.259090e-02
-5.614230e-02
-5.393130e-02
1.810390e-02
2.004740e-02
6.740160e-02
6.439270e-02
2.259090e-02
2.065660e-02
-5.393130e-02
-5.201240e-02
2.004740e-02
2.220410e-02
2.549360e-02
2.259090e-02
9.486830e-03
7.903070e-03
1.810390e-02
2.004740e-02
6.861440e-02
6.682290e-02
2.259090e-02
2.065660e-02
7.903070e-03
5.212750e-03
2.004740e-02
2.220410e-02
6.682290e-02
6.499820e-02
9.486830e-03
7.903070e-03
3.336690e-02
3.410370e-02
6.861440e-02
6.682290e-02
4.013840e-02
4.029360e-02
7.903070e-03
5.212750e-03
3.410370e-02
3.503250e-02
6.682290e-02
6.499820e-02
4.029360e-02
4.047730e-02
3.336690e-02
3.410370e-02
1.164900e-01
1.186170e-01
4.013840e-02
4.029360e-02
-6.485520e-02
-6.452470e-02
3.410370e-02
3.503250e-02
1.186170e-01
1.209760e-01
4.029360e-02
4.047730e-02
-6.452470e-02
-6.396070e-02
1.164900e-01
1.186170e-01
1.222740e-01
1.196420e-01
-6.485520e-02
-6.452470e-02
-3.513200e-02
-3.331220e-02
1.186170e-01
1.209760e-01
1.196420e-01
1.165910e-01
-6.452470e-02
-6.396070e-02
-3.331220e-02
-3.158260e-02
1.222740e-01
1.196420e-01
-1.793570e-01
-1.823260e-01
-3.513200e-02
-3.331220e-02
1.062450e-01
1.075460e-01
1.196420e-01
1.165910e-01
-1.823260e-01
-1.846100e-01
-3.331220e-02
-3.158260e-02
1.075460e-01
1.088100e-01
-1.793570e-01
-1.823260e-01
-2.356890e-02
-2.288920e-02
1.062450e-01
1.075460e-01
-4.455740e-02
-4.423320e-02
-1.823260e-01
-1.846100e-01
-2.288920e-02
-2.318780e-02
1.075460e-01
1.088100e-01
-4.423320e-02
-4.369360e-02
-2.356890e-02
-2.288920e-02
1.663780e-02
1.383940e-02
-4.455740e-02
-4.423320e-02
-5.637590e-02
-5.342580e-02
-2.288920e-02
-2.318780e-02
1.383940e-02
1.231280e-02
-4.423320e-02
-4.369360e-02
-5.342580e-02
-5.055010e-02
1.663780e-02
1.383940e-02
-3.701220e-02
-3.656830e-02
-5.637590e-02
-5.342580e-02
8.719400e-03
8.525590e-03
1.383940e-02
1.231280e-02
-3.656830e-02
-3.710100e-02
-5.342580e-02
-5.055010e-02
8.525590e-03
8.366550e-03
-3.701220e-02
-3.656830e-02
-1.311660e-01
-1.240920e-01
8.719400e-03
8.525590e-03
1.678100e-01
1.637220e-01
-3.656830e-02
-3.710100e-02
-1.240920e-01
-1.170270e-01
8.525590e-03
8.366550e-03
1.637220e-01
1.598380e-01
-1.311660e-01
-1.240920e-01
-1.058370e-01
-1.061050e-01
1.678100e-01
1.637220e-01
-2.490760e-02
-2.788380e-02
-1.240920e-01
-1.170270e-01
-1.061050e-01
-1.063250e-01
1.637220e-01
1.598380e-01
-2.788380e-02
-3.090110e-02
-1.058370e-01
-1.061050e-01
-5.189810e-02
-4.755710e-02
-2.490760e-02
-2.788380e-02
3.087750e-03
1.275370e-03
-1.061050e-01
-1.063250e-01
-4.755710e-02
-4.404360e-02
-2.788380e-02
-3.090110e-02
1.275370e-03
-5.277200e-04
-5.189810e-02
-4.755710e-02
-8.489620e-02
-8.608450e-02
3.087750e-03
1.275370e-03
5.044910e-02
4.887030e-02
-4.755710e-02
-4.404360e-02
-8.608450e-02
-8.652120e-02
1.275370e-03
-5.277200e-04
4.887030e-02
4.739580e-02
-8.489620e-02
-8.608450e-02
8.984990e-02
9.241620e-02
5.044910e-02
4.887030e-02
-9.196600e-02
-9.434770e-02
-8.608450e-02
-8.652120e-02
9.241620e-02
9.426380e-02
4.887030e-02
4.739580e-02
-9.434770e-02
-9.664150e-02
8.984990e-02
9.241620e-02
3.130750e-02
3.766610e-02
-9.196600e-02
-9.434770e-02
-4.735390e-02
-4.681940e-02
9.241620e-02
9.426380e-02
3.766610e-02
4.488890e-02
-9.434770e-02
-9.664150e-02
-4.681940e-02
-4.612340e-02
3.130750e-02
3.766610e-02
1.688330e-02
1.302960e-02
-4.735390e-02
-4.681940e-02
1.321560e-02
1.294950e-02
3.766610e-02
4.488890e-02
1.302960e-02
8.630330e-03
-4.681940e-02
-4.612340e-02
1.294950e-02
1.259240e-02
1.688330e-02
1.302960e-02
8.868600e-02
9.178100e-02
1.321560e-02
1.294950e-02
-3.414540e-02
-3.580700e-02
1.302960e-02
8.630330e-03
9.178100e-02
9.532820e-02
1.294950e-02
1.259240e-02
-3.580700e-02
-3.730130e-02
8.868600e-02
9.178100e-02
-2.764690e-02
-3.282600e-02
-3.414540e-02
-3.580700e-02
4.751180e-03
5.218540e-03
9.178100e-02
9.532820e-02
-3.282600e-02
-3.838850e-02
-3.580700e-02
-3.730130e-02
5.218540e-03
5.981860e-03
-2.764690e-02
-3.282600e-02
1.691530e-02
1.904860e-02
4.751180e-03
5.218540e-03
3.881280e-02
3.845410e-02
-3.282600e-02
-3.838850e-02
1.904860e-02
2.019160e-02
5.218540e-03
5.981860e-03
3.845410e-02
3.789420e-02
1.691530e-02
1.904860e-02
4.720500e-02
5.071020e-02
3.881280e-02
3.845410e-02
5.670410e-03
8.908760e-03
1.904860e-02
2.019160e-02
5.071020e-02
5.457590e-02
3.845410e-02
3.789420e-02
8.908760e-03
1.253900e-02
4.720500e-02
5.071020e-02
1.946290e-02
1.611020e-02
5.670410e-03
8.908760e-03
-4.990030e-03
-5.736090e-03
5.071020e-02
5.457590e-02
1.611020e-02
1.213920e-02
8.908760e-03
1.253900e-02
-5.736090e-03
-6.501010e-03
1.946290e-02
1.611020e-02
-5.861280e-02
-6.330720e-02
-4.990030e-03
-5.736090e-03
-7.184770e-02
-6.974530e-02
1.611020e-02
1.213920e-02
-6.330720e-02
-6.747970e-02
-5.736090e-03
-6.501010e-03
-6.974530e-02
-6.764470e-02
-5.861280e-02
-6.330720e-02
-1.717810e-02
-1.648720e-02
-7.184770e-02
-6.974530e-02
4.533040e-02
4.335310e-02
-6.330720e-02
-6.747970e-02
-1.648720e-02
-1.566790e-02
-6.974530e-02
-6.764470e-02
4.335310e-02
4.158700e-02
-1.717810e-02
-1.648720e-02
1.959470e-02
1.546690e-02
4.533040e-02
4.335310e-02
-5.318820e-02
-4.973840e-02
-1.648720e-02
-1.566790e-02
1.546690e-02
1.151880e-02
4.335310e-02
4.158700e-02
-4.973840e-02
-4.622180e-02
1.959470e-02
1.546690e-02
-5.939620e-02
-5.058610e-02
-5.318820e-02
-4.973840e-02
3.757690e-02
3.401280e-02
1.546690e-02
1.151880e-02
-5.058610e-02
-4.146610e-02
-4.973840e-02
-4.622180e-02
3.401280e-02
3.042450e-02
-5.939620e-02
-5.058610e-02
1.261650e-01
1.213590e-01
3.757690e-02
3.401280e-02
-1.287040e-01
-1.271680e-01
-5.058610e-02
-4.146610e-02
1.213590e-01
1.154040e-01
3.401280e-02
3.042450e-02
-1.271680e-01
-1.255040e-01
1.261650e-01
1.213590e-01
-7.423880e-02
-7.308680e-02
-1.287040e-01
-1.271680e-01
1.036520e-01
1.019610e-01
1.213590e-01
1.154040e-01
-7.308680e-02
-7.165380e-02
-1.271680e-01
-1.255040e-01
1.019610e-01
1.003900e-01
0.000000e+00
0.000000e+00
2.356810e-02
2.130020e-02
0.000000e+00
0.000000e+00
1.427820e-01
1.439910e-01
0.000000e+00
0.000000e+00
2.130020e-02
1.879630e-02
0.000000e+00
0.000000e+00
1.439910e-01
1.453870e-01
2.356810e-02
2.130020e-02
5.907480e-02
6.042080e-02
1.427820e-01
1.439910e-01
-1.705380e-01
-1.699100e-01
2.130020e-02
1.879630e-02
6.042080e-02
6.193920e-02
1.439910e-01
1.453870e-01
-1.699100e-01
-1.700150e-01
5.907480e-02
6.042080e-02
-5.614230e-02
-5.393130e-02
-1.705380e-01
-1.699100e-01
4.791090e-02
4.319590e-02
6.042080e-02
6.193920e-02
-5.393130e-02
-5.201240e-02
-1.699100e-01
-1.700150e-01
4.319590e-02
3.919730e-02
-5.614230e-02
-5.393130e-02
1.810390e-02
2.004740e-02
4.791090e-02
4.319590e-02
-5.821940e-02
-6.029140e-02
-5.393130e-02
-5.201240e-02
2.004740e-02
2.220410e-02
4.319590e-02
3.919730e-02
-6.029140e-02
-6.312220e-02
1.810390e-02
2.004740e-02
6.861440e-02
6.682290e-02
-5.821940e-02
-6.029140e-02
-1.477790e-01
-1.437840e-01
2.004740e-02
2.220410e-02
6.682290e-02
6.499820e-02
-6.029140e-02
-6.312220e-02
-1.437840e-01
-1.390860e-01
6.861440e-02
6.682290e-02
4.013840e-02
4.029360e-02
-1.477790e-01
-1.437840e-01
-1.149560e-01
-1.132890e-01
6.682290e-02
6.499820e-02
4.029360e-02
4.047730e-02
-1.437840e-01
-1.390860e-01
-1.132890e-01
-1.115430e-01
4.013840e-02
4.029360e-02
-6.485520e-02
-6.452470e-02
-1.149560e-01
-1.132890e-01
1.282440e-02
1.057670e-02
4.029360e-02
4.047730e-02
-6.452470e-02
-6.396070e-02
-1.132890e-01
-1.115430e-01
1.057670e-02
8.241110e-03
-6.485520e-02
-6.452470e-02
-3.513200e-02
-3.331220e-02
1.282440e-02
1.057670e-02
-5.104850e-02
-5.445740e-02
-6.452470e-02
-6.396070e-02
-3.331220e-02
-3.158260e-02
1.057670e-02
8.241110e-03
-5.445740e-02
-5.758370e-02
-3.513200e-02
-3.331220e-02
1.062450e-01
1.075460e-01
-5.104850e-02
-5.445740e-02
-3.795990e-02
-3.675580e-02
-3.331220e-02
-3.158260e-02
1.075460e-01
1.088100e-01
-5.445740e-02
-5.758370e-02
-3.675580e-02
-3.617670e-02
1.062450e-01
1.075460e-01
-4.455740e-02
-4.423320e-02
-3.795990e-02
-3.675580e-02
1.206870e-01
1.209550e-01
1.075460e-01
1.088100e-01
-4.423320e-02
-4.369360e-02
-3.675580e-02
-3.617670e-02
1.209550e-01
1.216490e-01
-4.455740e-02
-4.423320e-02
-5.637590e-02
-5.342580e-02
1.206870e-01
1.209550e-01
8.753900e-02
8.465310e-02
-4.423320e-02
-4.369360e-02
-5.342580e-02
-5.055010e-02
1.209550e-01
1.216490e-01
8.465310e-02
8.101380e-02
-5.637590e-02
-5.342580e-02
8.719400e-03
8.525590e-03
8.753900e-02
8.465310e-02
2.598580e-02
2.568340e-02
-5.342580e-02
-5.055010e-02
8.525590e-03
8.366550e-03
8.465310e-02
8.101380e-02
2.568340e-02
2.572970e-02
8.719400e-03
8.525590e-03
1.678100e-01
1.637220e-01
2.598580e-02
2.568340e-02
-2.049100e-01
-2.052290e-01
8.525590e-03
8.366550e-03
1.637220e-01
1.598380e-01
2.568340e-02
2.572970e-02
-2.052290e-01
-2.056260e-01
1.678100e-01
1.637220e-01
-2.490760e-02
-2.788380e-02
-2.049100e-01
-2.052290e-01
1.540120e-01
1.618950e-01
1.637220e-01
1.598380e-01
-2.788380e-02
-3.090110e-02
-2.052290e-01
-2.056260e-01
1.618950e-01
1.701350e-01
-2.490760e-02
-2.788380e-02
3.087750e-03
1.275370e-03
1.540120e-01
1.618950e-01
4.242310e-02
4.317270e-02
-2.788380e-02
-3.090110e-02
1.275370e-03
-5.277200e-04
1.618950e-01
1.701350e-01
4.317270e-02
4.415980e-02
3.087750e-03
1.275370e-03
5.044910e-02
4.887030e-02
4.242310e-02
4.317270e-02
-1.509130e-02
-1.224570e-02
1.275370e-03
-5.277200e-04
4.887030e-02
4.739580e-02
4.317270e-02
4.415980e-02
-1.224570e-02
-1.003060e-02
5.044910e-02
4.887030e-02
-9.196600e-02
-9.434770e-02
-1.509130e-02
-1.224570e-02
9.581080e-02
9.789660e-02
4.887030e-02
4.739580e-02
-9.434770e-02
-9.664150e-02
-1.224570e-02
-1.003060e-02
9.789660e-02
1.007470e-01
-9.196600e-02
-9.434770e-02
-4.735390e-02
-4.681940e-02
9.581080e-02
9.789660e-02
5.619680e-02
5.333140e-02
-9.434770e-02
-9.664150e-02
-4.681940e-02
-4.612340e-02
9.789660e-02
1.007470e-01
5.333140e-02
4.943500e-02
-4.735390e-02
-4.681940e-02
1.321560e-02
1.294950e-02
5.619680e-02
5.333140e-02
-3.878990e-02
-3.676620e-02
-4.681940e-02
-4.612340e-02
1.294950e-02
1.259240e-02
5.333140e-02
4.943500e-02
-3.676620e-02
-3.469840e-02
1.321560e-02
1.294950e-02
-3.414540e-02
-3.580700e-02
-3.878990e-02
-3.676620e-02
-2.002260e-02
-1.915070e-02
1.294950e-02
1.259240e-02
-3.580700e-02
-3.730130e-02
-3.676620e-02
-3.469840e-02
-1.915070e-02
-1.854640e-02
-3.414540e-02
-3.580700e-02
4.751180e-03
5.218540e-03
-2.002260e-02
-1.915070e-02
1.686990e-02
1.742260e-02
-3.580700e-02
-3.730130e-02
5.218540e-03
5.981860e-03
-1.915070e-02
-1.854640e-02
1.742260e-02
1.779960e-02
4.751180e-03
5.218540e-03
3.881280e-02
3.845410e-02
1.686990e-02
1.742260e-02
-9.175110e-02
-9.037060e-02
5.218540e-03
5.981860e-03
3.845410e-02
3.789420e-02
1.742260e-02
1.779960e-02
-9.037060e-02
-8.839450e-02
3.881280e-02
3.845410e-02
5.670410e-03
8.908760e-03
-9.175110e-02
-9.037060e-02
-6.124450e-02
-7.026790e-02
3.845410e-02
3.789420e-02
8.908760e-03
1.253900e-02
-9.037060e-02
-8.839450e-02
-7.026790e-02
-7.934720e-02
5.670410e-03
8.908760e-03
-4.990030e-03
-5.736090e-03
-6.124450e-02
-7.026790e-02
-7.241890e-03
-3.241650e-03
8.908760e-03
1.253900e-02
-5.736090e-03
-6.501010e-03
-7.026790e-02
-7.934720e-02
-3.241650e-03
1.233470e-03
-4.990030e-03
-5.736090e-03
-7.184770e-02
-6.974530e-02
-7.241890e-03
-3.241650e-03
2.010560e-01
2.003830e-01
-5.736090e-03
-6.501010e-03
-6.974530e-02
-6.764470e-02
-3.241650e-03
1.233470e-03
2.003830e-01
1.987290e-01
-7.184770e-02
-6.974530e-02
4.533040e-02
4.335310e-02
2.010560e-01
2.003830e-01
-7.182140e-02
-6.917140e-02
-6.974530e-02
-6.764470e-02
4.335310e-02
4.158700e-02
2.003830e-01
1.987290e-01
-6.917140e-02
-6.693690e-02
4.533040e-02
4.335310e-02
-5.318820e-02
-4.973840e-02
-7.182140e-02
-6.917140e-02
8.435490e-02
8.337990e-02
4.335310e-02
4.158700e-02
-4.973840e-02
-4.622180e-02
-6.917140e-02
-6.693690e-02
8.337990e-02
8.214100e-02
-5.318820e-02
-4.973840e-02
3.757690e-02
3.401280e-02
8.435490e-02
8.337990e-02
-1.550120e-02
-1.805650e-02
-4.973840e-02
-4.622180e-02
3.401280e-02
3.042450e-02
8.337990e-02
8.214100e-02
-1.805650e-02
-2.132320e-02
3.757690e-02
3.401280e-02
-1.287040e-01
-1.271680e-01
-1.550120e-02
-1.805650e-02
1.341690e-01
1.348020e-01
3.401280e-02
3.042450e-02
-1.271680e-01
-1.255040e-01
-1.805650e-02
-2.132320e-02
1.348020e-01
1.360020e-01
-1.287040e-01
-1.271680e-01
1.036520e-01
1.019610e-01
1.341690e-01
1.348020e-01
-1.367310e-01
-1.317050e-01
-1.271680e-01
-1.255040e-01
1.019610e-01
1.003900e-01
1.348020e-01
1.360020e-01
-1.317050e-01
-1.265850e-01
</DataArray>
<DataArray type="Float32" Name="V2" format="ascii">
0.000000e+00
0.000000e+00
-2.018370e-01
-2.568730e-01
0.000000e+00
0.000000e+00
2.776530e-02
7.898440e-02
0.000000e+00
0.000000e+00
-2.568730e-01
-2.940580e-01
0.000000e+00
0.000000e+00
7.898440e-02
1.217300e-01
-2.018370e-01
-2.568730e-01
-1.149370e-01
-5.737040e-02
2.776530e-02
7.898440e-02
1.443950e-01
5.676300e-02
-2.568730e-01
-2.940580e-01
-5.737040e-02
-9.455870e-03
7.898440e-02
1.217300e-01
5.676300e-02
-2.097400e-02
-1.149370e-01
-5.737040e-02
2.281880e-01
1.902510e-01
1.443950e-01
5.676300e-02
-6.129380e-02
-4.666010e-02
-5.737040e-02
-9.455870e-03
1.902510e-01
1.833810e-01
5.676300e-02
-2.097400e-02
-4.666010e-02
-4.839740e-02
2.281880e-01
1.902510e-01
3.222200e-01
2.093200e-01
-6.129380e-02
-4.666010e-02
-2.636840e-01
-1.660380e-01
1.902510e-01
1.833810e-01
2.093200e-01
7.204890e-02
-4.666010e-02
-4.839740e-02
-1.660380e-01
-6.458100e-02
3.222200e-01
2.093200e-01
6.247270e-02
1.360420e-01
-2.636840e-01
-1.660380e-01
3.971620e-02
-1.191880e-01
2.093200e-01
7.204890e-02
1.360420e-01
2.273240e-01
-1.660380e-01
-6.458100e-02
-1.191880e-01
-2.812120e-01
6.247270e-02
1.360420e-01
-1.517770e-01
-2.012540e-03
3.971620e-02
-1.191880e-01
1.106840e-01
1.703090e-02
1.360420e-01
2.273240e-01
-2.012540e-03
1.545700e-01
-1.191880e-01
-2.812120e-01
1.703090e-02
-7.287370e-02
-1.517770e-01
-2.012540e-03
-2.226300e-01
-2.377900e-01
1.106840e-01
1.703090e-02
1.136650e-01
1.809920e-01
-2.012540e-03
1.545700e-01
-2.377900e-01
-2.586860e-01
1.703090e-02
-7.287370e-02
1.809920e-01
2.399140e-01
-2.226300e-01
-2.377900e-01
6.550080e-02
-1.168950e-02
1.136650e-01
1.809920e-01
-1.276980e-01
-6.122490e-02
-2.377900e-01
-2.586860e-01
-1.168950e-02
-7.633530e-02
1.809920e-01
2.399140e-01
-6.122490e-02
1.049570e-02
6.550080e-02
-1.168950e-02
-5.061870e-02
-2.133290e-02
-1.276980e-01
-6.122490e-02
-4.641420e-02
6.291490e-03
-1.168950e-02
-7.633530e-02
-2.133290e-02
9.080240e-03
-6.122490e-02
1.049570e-02
6.291490e-03
3.833580e-02
-5.061870e-02
-2.133290e-02
-1.086930e-01
2.355800e-02
-4.641420e-02
6.291490e-03
2.184470e-01
6.881290e-02
-2.133290e-02
9.080240e-03
2.355800e-02
1.285160e-01
6.291490e-03
3.833580e-02
6.881290e-02
-4.982890e-02
-1.086930e-01
2.355800e-02
8.572380e-02
1.022390e-01
2.184470e-01
6.881290e-02
2.815830e-02
4.160490e-02
2.355800e-02
1.285160e-01
1.022390e-01
1.388290e-01
6.881290e-02
-4.982890e-02
4.160490e-02
3.697710e-02
8.572380e-02
1.022390e-01
5.418730e-02
-8.952410e-02
2.815830e-02
4.160490e-02
-7.036300e-02
7.479450e-02
1.022390e-01
1.388290e-01
-8.952410e-02
-2.449850e-01
4.160490e-02
3.697710e-02
7.479450e-02
2.334450e-01
5.418730e-02
-8.952410e-02
1.195520e-01
1.555170e-01
-7.036300e-02
7.479450e-02
-1.858510e-01
-2.499460e-01
-8.952410e-02
-2.449850e-01
1.555170e-01
2.082790e-01
7.479450e-02
2.334450e-01
-2.499460e-01
-3.335880e-01
1.195520e-01
1.555170e-01
-7.314050e-02
-1.521730e-02
-1.858510e-01
-2.499460e-01
1.620010e-02
1.125540e-02
1.555170e-01
2.082790e-01
-1.521730e-02
-1.701920e-03
-2.499460e-01
-3.335880e-01
1.125540e-02
2.837710e-02
-7.314050e-02
-1.521730e-02
-3.064850e-02
4.979250e-02
1.620010e-02
1.125540e-02
1.261510e-02
1.463360e-02
-1.521730e-02
-1.701920e-03
4.979250e-02
1.577650e-01
1.125540e-02
2.837710e-02
1.463360e-02
1.125250e-03
-3.064850e-02
4.979250e-02
-2.146900e-01
-7.647320e-04
1.261510e-02
1.463360e-02
2.268040e-01
6.396940e-02
4.979250e-02
1.577650e-01
-7.647320e-04
1.992560e-01
1.463360e-02
1.125250e-03
6.396940e-02
-6.931680e-02
-2.146900e-01
-7.647320e-04
1.004260e-01
6.643150e-02
2.268040e-01
6.396940e-02
-2.888560e-02
-3.064610e-02
-7.647320e-04
1.992560e-01
6.643150e-02
3.464120e-02
6.396940e-02
-6.931680e-02
-3.064610e-02
-4.170500e-02
1.004260e-01
6.643150e-02
8.678420e-02
-8.691860e-02
-2.888560e-02
-3.064610e-02
-6.416660e-02
4.559640e-02
6.643150e-02
3.464120e-02
-8.691860e-02
-2.679730e-01
-3.064610e-02
-4.170500e-02
4.559640e-02
1.576270e-01
8.678420e-02
-8.691860e-02
-2.558490e-01
-2.033020e-01
-6.416660e-02
4.559640e-02
2.421740e-01
1.667890e-01
-8.691860e-02
-2.679730e-01
-2.033020e-01
-1.715970e-01
4.559640e-02
1.576270e-01
1.667890e-01
9.493390e-02
-2.558490e-01
-2.033020e-01
1.965970e-01
9.381740e-02
2.421740e-01
1.667890e-01
-2.337820e-01
-1.439620e-01
-2.033020e-01
-1.715970e-01
9.381740e-02
2.057060e-02
1.667890e-01
9.493390e-02
-1.439620e-01
-8.277920e-02
1.965970e-01
9.381740e-02
9.685530e-03
-1.182300e-01
-2.337820e-01
-1.439620e-01
1.717990e-02
5.912970e-02
9.381740e-02
2.057060e-02
-1.182300e-01
-2.525760e-01
-1.439620e-01
-8.277920e-02
5.912970e-02
1.177590e-01
9.685530e-03
-1.182300e-01
2.245840e-01
2.214250e-01
1.717990e-02
5.912970e-02
-2.674720e-02
-9.256090e-02
-1.182300e-01
-2.525760e-01
2.214250e-01
2.494010e-01
5.912970e-02
1.177590e-01
-9.256090e-02
-1.744880e-01
2.245840e-01
2.214250e-01
2.366960e-02
-8.505930e-02
-2.674720e-02
-9.256090e-02
6.586760e-02
1.720080e-01
2.214250e-01
2.494010e-01
-8.505930e-02
-2.172430e-01
-9.256090e-02
-1.744880e-01
1.720080e-01
2.848080e-01
2.366960e-02
-8.505930e-02
-1.723560e-02
-2.771080e-02
6.586760e-02
1.720080e-01
-1.039160e-01
-4.180250e-02
-8.505930e-02
-2.172430e-01
-2.771080e-02
-2.021270e-02
1.720080e-01
2.848080e-01
-4.180250e-02
-2.343560e-02
-1.723560e-02
-2.771080e-02
-1.085500e-01
1.803170e-02
-1.039160e-01
-4.180250e-02
-6.466580e-02
-1.319080e-01
-2.771080e-02
-2.021270e-02
1.803170e-02
1.091710e-01
-4.180250e-02
-2.343560e-02
-1.319080e-01
-1.558780e-01
-1.085500e-01
1.803170e-02
-1.259920e-01
-3.210400e-01
-6.466580e-02
-1.319080e-01
3.442630e-04
2.015340e-01
1.803170e-02
1.091710e-01
-3.210400e-01
-4.498650e-01
-1.319080e-01
-1.558780e-01
2.015340e-01
3.601310e-01
-1.259920e-01
-3.210400e-01
2.022930e-01
1.973170e-01
3.442630e-04
2.015340e-01
-1.237950e-01
-1.359950e-01
-3.210400e-01
-4.498650e-01
1.973170e-01
1.778380e-01
2.015340e-01
3.601310e-01
-1.359950e-01
-1.218300e-01
2.022930e-01
1.973170e-01
3.348950e-01
3.519460e-01
-1.237950e-01
-1.359950e-01
-1.113470e-02
-9.421250e-02
1.973170e-01
1.778380e-01
3.519460e-01
4.103630e-01
-1.359950e-01
-1.218300e-01
-9.421250e-02
-2.283280e-01
3.348950e-01
3.519460e-01
2.032430e-01
-2.983670e-03
-1.113470e-02
-9.421250e-02
-1.750510e-01
5.356410e-02
3.519460e-01
4.103630e-01
-2.983670e-03
-2.699920e-01
-9.421250e-02
-2.283280e-01
5.356410e-02
3.337040e-01
2.032430e-01
-2.983670e-03
-2.131220e-01
-4.909420e-01
-1.750510e-01
5.356410e-02
-8.219300e-02
2.002600e-01
-2.983670e-03
-2.699920e-01
-4.909420e-01
-7.091040e-01
5.356410e-02
3.337040e-01
2.002600e-01
4.341370e-01
0.000000e+00
0.000000e+00
2.776530e-02
7.898440e-02
0.000000e+00
0.000000e+00
1.553450e-01
1.088980e-01
0.000000e+00
0.000000e+00
7.898440e-02
1.217300e-01
0.000000e+00
0.000000e+00
1.088980e-01
7.100960e-02
2.776530e-02
7.898440e-02
1.443950e-01
5.676300e-02
1.553450e-01
1.088980e-01
-1.803070e-01
-6.851450e-02
7.898440e-02
1.217300e-01
5.676300e-02
-2.097400e-02
1.088980e-01
7.100960e-02
-6.851450e-02
4.782130e-02
1.443950e-01
5.676300e-02
-6.129380e-02
-4.666010e-02
-1.803070e-01