<?xml version="1.0"?>
<VTKFile type="UnstructuredGrid" version="0.1" byte_order="LittleEndian" compressor="vtkZLibDataCompressor">
<UnstructuredGrid>
<Piece NumberOfPoints="960" NumberOfCells="120">
<Points>
<DataArray type="Float32" NumberOfComponents="3" format="ascii">
-4.000000e+02 -6.000000e+03 -4.000000e+02
0.000000e+00 -6.000000e+03 -4.000000e+02
-3.999980e+02 -5.599910e+03 -3.999960e+02
2.443760e-03 -5.599910e+03 -3.999910e+02
-4.000000e+02 -6.000000e+03 0.000000e+00
0.000000e+00 -6.000000e+03 0.000000e+00
-3.999980e+02 -5.600000e+03 -7.013900e-03
1.550830e-03 -5.600000e+03 -6.354540e-03
0.000000e+00 -6.000000e+03 -4.000000e+02
4.000000e+02 -6.000000e+03 -4.000000e+02
2.443760e-03 -5.599910e+03 -3.999910e+02
4.000020e+02 -5.599910e+03 -3.999850e+02
0.000000e+00 -6.000000e+03 0.000000e+00
4.000000e+02 -6.000000e+03 0.000000e+00
1.550830e-03 -5.600000e+03 -6.354540e-03
4.000020e+02 -5.600000e+03 -5.687740e-03
-3.999980e+02 -5.599910e+03 -3.999960e+02
2.443760e-03 -5.599910e+03 -3.999910e+02
-3.999940e+02 -5.199960e+03 -3.999490e+02
6.247770e-03 -5.199960e+03 -3.999480e+02
-3.999980e+02 -5.600000e+03 -7.013900e-03
1.550830e-03 -5.600000e+03 -6.354540e-03
-3.999990e+02 -5.200010e+03 -2.243860e-01
1.351680e-03 -5.200010e+03 -2.174820e-01
2.443760e-03 -5.599910e+03 -3.999910e+02
4.000020e+02 -5.599910e+03 -3.999850e+02
6.247770e-03 -5.199960e+03 -3.999480e+02
4.000060e+02 -5.199960e+03 -3.999470e+02
1.550830e-03 -5.600000e+03 -6.354540e-03
4.000020e+02 -5.600000e+03 -5.687740e-03
1.351680e-03 -5.200010e+03 -2.174820e-01
4.000010e+02 -5.200000e+03 -2.105760e-01
-3.999940e+02 -5.199960e+03 -3.999490e+02
6.247770e-03 -5.199960e+03 -3.999480e+02
-3.999940e+02 -4.800110e+03 -4.000640e+02
5.898510e-03 -4.800100e+03 -4.000550e+02
-3.999990e+02 -5.200010e+03 -2.243860e-01
1.351680e-03 -5.200010e+03 -2.174820e-01
-4.000000e+02 -4.800000e+03 -2.430350e-01
1.814340e-04 -4.800000e+03 -2.379480e-01
6.247770e-03 -5.199960e+03 -3.999480e+02
4.000060e+02 -5.199960e+03 -3.999470e+02
5.898510e-03 -4.800100e+03 -4.000550e+02
4.000060e+02 -4.800100e+03 -4.000450e+02
1.351680e-03 -5.200010e+03 -2.174820e-01
4.000010e+02 -5.200000e+03 -2.105760e-01
1.814340e-04 -4.800000e+03 -2.379480e-01
4.000000e+02 -4.800010e+03 -2.328600e-01
-3.999940e+02 -4.800110e+03 -4.000640e+02
5.898510e-03 -4.800100e+03 -4.000550e+02
-3.999990e+02 -4.400280e+03 -4.001900e+02
9.951380e-04 -4.400280e+03 -4.001800e+02
-4.000000e+02 -4.800000e+03 -2.430350e-01
1.814340e-04 -4.800000e+03 -2.379480e-01
-4.000010e+02 -4.399960e+03 -3.696350e-01
-9.339050e-04 -4.399960e+03 -3.721410e-01
5.898510e-03 -4.800100e+03 -4.000550e+02
4.000060e+02 -4.800100e+03 -4.000450e+02
9.951380e-04 -4.400280e+03 -4.001800e+02
4.000010e+02 -4.400280e+03 -4.001700e+02
1.814340e-04 -4.800000e+03 -2.379480e-01
4.000000e+02 -4.800010e+03 -2.328600e-01
-9.339050e-04 -4.399960e+03 -3.721410e-01
3.999990e+02 -4.399950e+03 -3.746320e-01
-3.999990e+02 -4.400280e+03 -4.001900e+02
9.951380e-04 -4.400280e+03 -4.001800e+02
-3.999930e+02 -4.000120e+03 -4.005030e+02
6.663590e-03 -4.000120e+03 -4.005020e+02
-4.000010e+02 -4.399960e+03 -3.696350e-01
-9.339050e-04 -4.399960e+03 -3.721410e-01
-4.000020e+02 -3.999970e+03 -4.577650e-01
-1.973730e-03 -3.999970e+03 -4.648980e-01
9.951380e-04 -4.400280e+03 -4.001800e+02
4.000010e+02 -4.400280e+03 -4.001700e+02
6.663590e-03 -4.000120e+03 -4.005020e+02
4.000070e+02 -4.000120e+03 -4.005000e+02
-9.339050e-04 -4.399960e+03 -3.721410e-01
3.999990e+02 -4.399950e+03 -3.746320e-01
-1.973730e-03 -3.999970e+03 -4.648980e-01
3.999980e+02 -3.999970e+03 -4.720150e-01
-3.999930e+02 -4.000120e+03 -4.005030e+02
6.663590e-03 -4.000120e+03 -4.005020e+02
-3.999940e+02 -3.599940e+03 -4.006200e+02
5.767040e-03 -3.599930e+03 -4.006180e+02
-4.000020e+02 -3.999970e+03 -4.577650e-01
-1.973730e-03 -3.999970e+03 -4.648980e-01
-4.000010e+02 -3.599990e+03 -3.920820e-01
-9.935330e-04 -3.600000e+03 -3.895540e-01
6.663590e-03 -4.000120e+03 -4.005020e+02
4.000070e+02 -4.000120e+03 -4.005000e+02
5.767040e-03 -3.599930e+03 -4.006180e+02
4.000060e+02 -3.599920e+03 -4.006150e+02
-1.973730e-03 -3.999970e+03 -4.648980e-01
3.999980e+02 -3.999970e+03 -4.720150e-01
-9.935330e-04 -3.600000e+03 -3.895540e-01
3.999990e+02 -3.600000e+03 -3.870130e-01
-3.999940e+02 -3.599940e+03 -4.006200e+02
5.767040e-03 -3.599930e+03 -4.006180e+02
-3.999970e+02 -3.200020e+03 -4.005590e+02
2.556120e-03 -3.200020e+03 -4.005520e+02
-4.000010e+02 -3.599990e+03 -3.920820e-01
-9.935330e-04 -3.600000e+03 -3.895540e-01
-4.000030e+02 -3.200010e+03 -6.513860e-01
-3.305840e-03 -3.200010e+03 -6.446460e-01
5.767040e-03 -3.599930e+03 -4.006180e+02
4.000060e+02 -3.599920e+03 -4.006150e+02
2.556120e-03 -3.200020e+03 -4.005520e+02
4.000030e+02 -3.200030e+03 -4.005460e+02
-9.935330e-04 -3.600000e+03 -3.895540e-01
3.999990e+02 -3.600000e+03 -3.870130e-01
-3.305840e-03 -3.200010e+03 -6.446460e-01
3.999970e+02 -3.200000e+03 -6.379090e-01
-3.999970e+02 -3.200020e+03 -4.005590e+02
2.556120e-03 -3.200020e+03 -4.005520e+02
-3.999940e+02 -2.800090e+03 -4.007000e+02
6.451150e-03 -2.800090e+03 -4.006990e+02
-4.000030e+02 -3.200010e+03 -6.513860e-01
-3.305840e-03 -3.200010e+03 -6.446460e-01
-4.000030e+02 -2.800090e+03 -6.068180e-01
-3.225530e-03 -2.800090e+03 -6.096430e-01
2.556120e-03 -3.200020e+03 -4.005520e+02
4.000030e+02 -3.200030e+03 -4.005460e+02
6.451150e-03 -2.800090e+03 -4.006990e+02
4.000060e+02 -2.800090e+03 -4.006970e+02
-3.305840e-03 -3.200010e+03 -6.446460e-01
3.999970e+02 -3.200000e+03 -6.379090e-01
-3.225530e-03 -2.800090e+03 -6.096430e-01
3.999970e+02 -2.800090e+03 -6.124590e-01
-3.999940e+02 -2.800090e+03 -4.007000e+02
6.451150e-03 -2.800090e+03 -4.006990e+02
-3.999960e+02 -2.400170e+03 -4.005180e+02
3.974760e-03 -2.400170e+03 -4.005230e+02
-4.000030e+02 -2.800090e+03 -6.068180e-01
-3.225530e-03 -2.800090e+03 -6.096430e-01
-4.000000e+02 -2.400060e+03 -6.682470e-01
-3.935960e-04 -2.400060e+03 -6.629930e-01
6.451150e-03 -2.800090e+03 -4.006990e+02
4.000060e+02 -2.800090e+03 -4.006970e+02
3.974760e-03 -2.400170e+03 -4.005230e+02
4.000040e+02 -2.400170e+03 -4.005270e+02
-3.225530e-03 -2.800090e+03 -6.096430e-01
3.999970e+02 -2.800090e+03 -6.124590e-01
-3.935960e-04 -2.400060e+03 -6.629930e-01
4.000000e+02 -2.400060e+03 -6.577400e-01
-3.999960e+02 -2.400170e+03 -4.005180e+02
3.974760e-03 -2.400170e+03 -4.005230e+02
-4.000090e+02 -2.000190e+03 -4.007130e+02
-8.773240e-03 -2.000190e+03 -4.007260e+02
-4.000000e+02 -2.400060e+03 -6.682470e-01
-3.935960e-04 -2.400060e+03 -6.629930e-01
-4.000020e+02 -1.999960e+03 -9.907900e-01
-1.712050e-03 -1.999960e+03 -1.001390e+00
3.974760e-03 -2.400170e+03 -4.005230e+02
4.000040e+02 -2.400170e+03 -4.005270e+02
-8.773240e-03 -2.000190e+03 -4.007260e+02
3.999910e+02 -2.000200e+03 -4.007390e+02
-3.935960e-04 -2.400060e+03 -6.629930e-01
4.000000e+02 -2.400060e+03 -6.577400e-01
-1.712050e-03 -1.999960e+03 -1.001390e+00
3.999980e+02 -1.999960e+03 -1.012010e+00
-4.000090e+02 -2.000190e+03 -4.007130e+02
-8.773240e-03 -2.000190e+03 -4.007260e+02
-4.000140e+02 -1.600170e+03 -4.012450e+02
-1.392920e-02 -1.600170e+03 -4.012560e+02
-4.000020e+02 -1.999960e+03 -9.907900e-01
-1.712050e-03 -1.999960e+03 -1.001390e+00
-4.000020e+02 -1.599920e+03 -9.049160e-01
-1.855070e-03 -1.599920e+03 -9.325720e-01
-8.773240e-03 -2.000190e+03 -4.007260e+02
3.999910e+02 -2.000200e+03 -4.007390e+02
-1.392920e-02 -1.600170e+03 -4.012560e+02
3.999860e+02 -1.600160e+03 -4.012660e+02
-1.712050e-03 -1.999960e+03 -1.001390e+00
3.999980e+02 -1.999960e+03 -1.012010e+00
-1.855070e-03 -1.599920e+03 -9.325720e-01
3.999980e+02 -1.599920e+03 -9.602440e-01
-4.000140e+02 -1.600170e+03 -4.012450e+02
-1.392920e-02 -1.600170e+03 -4.012560e+02
-4.000000e+02 -1.200060e+03 -4.011290e+02
-3.486740e-04 -1.200060e+03 -4.011210e+02
-4.000020e+02 -1.599920e+03 -9.049160e-01
-1.855070e-03 -1.599920e+03 -9.325720e-01
-4.000010e+02 -1.200060e+03 -1.280810e+00
-5.475450e-04 -1.200060e+03 -1.280630e+00
-1.392920e-02 -1.600170e+03 -4.012560e+02
3.999860e+02 -1.600160e+03 -4.012660e+02
-3.486740e-04 -1.200060e+03 -4.011210e+02
4.000000e+02 -1.200060e+03 -4.011120e+02
-1.855070e-03 -1.599920e+03 -9.325720e-01
3.999980e+02 -1.599920e+03 -9.602440e-01
-5.475450e-04 -1.200060e+03 -1.280630e+00
3.999990e+02 -1.200060e+03 -1.280440e+00
-4.000000e+02 -1.200060e+03 -4.011290e+02
-3.486740e-04 -1.200060e+03 -4.011210e+02
-3.999870e+02 -8.000170e+02 -4.011530e+02
1.275980e-02 -8.000200e+02 -4.011470e+02
-4.000010e+02 -1.200060e+03 -1.280810e+00
-5.475450e-04 -1.200060e+03 -1.280630e+00
-4.000020e+02 -8.000300e+02 -1.223620e+00
-2.248070e-03 -8.000310e+02 -1.209510e+00
-3.486740e-04 -1.200060e+03 -4.011210e+02
4.000000e+02 -1.200060e+03 -4.011120e+02
1.275980e-02 -8.000200e+02 -4.011470e+02
4.000130e+02 -8.000220e+02 -4.011400e+02
-5.475450e-04 -1.200060e+03 -1.280630e+00
3.999990e+02 -1.200060e+03 -1.280440e+00
-2.248070e-03 -8.000310e+02 -1.209510e+00
3.999980e+02 -8.000320e+02 -1.195410e+00
-3.999870e+02 -8.000170e+02 -4.011530e+02
1.275980e-02 -8.000200e+02 -4.011470e+02
-3.999940e+02 -4.000900e+02 -4.014320e+02
5.862670e-03 -4.000940e+02 -4.014240e+02
-4.000020e+02 -8.000300e+02 -1.223620e+00
-2.248070e-03 -8.000310e+02 -1.209510e+00
-3.999950e+02 -3.998890e+02 -9.931670e-01
4.621650e-03 -3.998880e+02 -9.901160e-01
1.275980e-02 -8.000200e+02 -4.011470e+02
4.000130e+02 -8.000220e+02 -4.011400e+02
5.862670e-03 -4.000940e+02 -4.014240e+02
4.000060e+02 -4.000970e+02 -4.014170e+02
-2.248070e-03 -8.000310e+02 -1.209510e+00
3.999980e+02 -8.000320e+02 -1.195410e+00
4.621650e-03 -3.998880e+02 -9.901160e-01
4.000050e+02 -3.998870e+02 -9.870500e-01
-3.999940e+02 -4.000900e+02 -4.014320e+02
5.862670e-03 -4.000940e+02 -4.014240e+02
-3.999890e+02 -5.545630e-02 -4.011350e+02
1.053670e-02 -6.366980e-02 -4.011260e+02
-3.999950e+02 -3.998890e+02 -9.931670e-01
4.621650e-03 -3.998880e+02 -9.901160e-01
-3.999930e+02 -2.163300e-03 -1.322050e+00
7.471640e-03 6.004720e-03 -1.300150e+00
5.862670e-03 -4.000940e+02 -4.014240e+02
4.000060e+02 -4.000970e+02 -4.014170e+02
[...]
<PointData>
<DataArray type="Float32" Name="V1" format="ascii">
0.000000e+00
0.000000e+00
-2.035050e-03
-2.034560e-03
0.000000e+00
0.000000e+00
-3.101450e-03
-3.103610e-03
0.000000e+00
0.000000e+00
-2.034560e-03
-2.034120e-03
0.000000e+00
0.000000e+00
-3.103610e-03
-3.105760e-03
-2.035050e-03
-2.034560e-03
-2.639940e-03
-2.638820e-03
-3.101450e-03
-3.103610e-03
-1.278980e-03
-1.278650e-03
-2.034560e-03
-2.034120e-03
-2.638820e-03
-2.637690e-03
-3.103610e-03
-3.105760e-03
-1.278650e-03
-1.278310e-03
-2.639940e-03
-2.638820e-03
-5.197650e-03
-5.199600e-03
-1.278980e-03
-1.278650e-03
2.787170e-03
2.786700e-03
-2.638820e-03
-2.637690e-03
-5.199600e-03
-5.201570e-03
-1.278650e-03
-1.278310e-03
2.786700e-03
2.786230e-03
-5.197650e-03
-5.199600e-03
2.700500e-03
2.702390e-03
2.787170e-03
2.786700e-03
-5.989010e-03
-5.983670e-03
-5.199600e-03
-5.201570e-03
2.702390e-03
2.704340e-03
2.786700e-03
2.786230e-03
-5.983670e-03
-5.978360e-03
2.700500e-03
2.702390e-03
3.436800e-03
3.448720e-03
-5.989010e-03
-5.983670e-03
2.620240e-03
2.614130e-03
2.702390e-03
2.704340e-03
3.448720e-03
3.460620e-03
-5.983670e-03
-5.978360e-03
2.614130e-03
2.608000e-03
3.436800e-03
3.448720e-03
-1.526870e-03
-1.537270e-03
2.620240e-03
2.614130e-03
5.246150e-04
5.262740e-04
3.448720e-03
3.460620e-03
-1.537270e-03
-1.547670e-03
2.614130e-03
2.608000e-03
5.262740e-04
5.279710e-04
-1.526870e-03
-1.537270e-03
-6.439980e-03
-6.440790e-03
5.246150e-04
5.262740e-04
-4.264080e-03
-4.262280e-03
-1.537270e-03
-1.547670e-03
-6.440790e-03
-6.441620e-03
5.262740e-04
5.279710e-04
-4.262280e-03
-4.260460e-03
-6.439980e-03
-6.440790e-03
-9.179580e-03
-9.179080e-03
-4.264080e-03
-4.262280e-03
2.793650e-03
2.794920e-03
-6.440790e-03
-6.441620e-03
-9.179080e-03
-9.178620e-03
-4.262280e-03
-4.260460e-03
2.794920e-03
2.796150e-03
-9.179580e-03
-9.179080e-03
3.790550e-03
3.802210e-03
2.793650e-03
2.794920e-03
1.476040e-04
1.448820e-04
-9.179080e-03
-9.178620e-03
3.802210e-03
3.813930e-03
2.794920e-03
2.796150e-03
1.448820e-04
1.421460e-04
3.790550e-03
3.802210e-03
2.175160e-03
2.164690e-03
1.476040e-04
1.448820e-04
-3.823650e-03
-3.821680e-03
3.802210e-03
3.813930e-03
2.164690e-03
2.154220e-03
1.448820e-04
1.421460e-04
-3.821680e-03
-3.819690e-03
2.175160e-03
2.164690e-03
2.108510e-03
2.103060e-03
-3.823650e-03
-3.821680e-03
-4.380030e-03
-4.380940e-03
2.164690e-03
2.154220e-03
2.103060e-03
2.097590e-03
-3.821680e-03
-3.819690e-03
-4.380940e-03
-4.381850e-03
2.108510e-03
2.103060e-03
9.819560e-03
9.811760e-03
-4.380030e-03
-4.380940e-03
-2.841810e-03
-2.833910e-03
2.103060e-03
2.097590e-03
9.811760e-03
9.803960e-03
-4.380940e-03
-4.381850e-03
-2.833910e-03
-2.826000e-03
9.819560e-03
9.811760e-03
6.576910e-03
6.580060e-03
-2.841810e-03
-2.833910e-03
1.292450e-03
1.286820e-03
9.811760e-03
9.803960e-03
6.580060e-03
6.583260e-03
-2.833910e-03
-2.826000e-03
1.286820e-03
1.281180e-03
6.576910e-03
6.580060e-03
3.607570e-03
3.611060e-03
1.292450e-03
1.286820e-03
-4.139130e-03
-4.138870e-03
6.580060e-03
6.583260e-03
3.611060e-03
3.614520e-03
1.286820e-03
1.281180e-03
-4.138870e-03
-4.138620e-03
3.607570e-03
3.611060e-03
-9.974040e-03
-9.962600e-03
-4.139130e-03
-4.138870e-03
1.222490e-03
1.213800e-03
3.611060e-03
3.614520e-03
-9.962600e-03
-9.951180e-03
-4.138870e-03
-4.138620e-03
1.213800e-03
1.205130e-03
-9.974040e-03
-9.962600e-03
-6.066560e-03
-6.063000e-03
1.222490e-03
1.213800e-03
1.277680e-03
1.276240e-03
-9.962600e-03
-9.951180e-03
-6.063000e-03
-6.059420e-03
1.213800e-03
1.205130e-03
1.276240e-03
1.274810e-03
-6.066560e-03
-6.063000e-03
-1.141310e-02
-1.141590e-02
1.277680e-03
1.276240e-03
3.912040e-03
3.906950e-03
-6.063000e-03
-6.059420e-03
-1.141590e-02
-1.141860e-02
1.276240e-03
1.274810e-03
3.906950e-03
3.901820e-03
-1.141310e-02
-1.141590e-02
-4.951220e-03
-4.949570e-03
3.912040e-03
3.906950e-03
2.220730e-03
2.220330e-03
-1.141590e-02
-1.141860e-02
-4.949570e-03
-4.947910e-03
3.906950e-03
3.901820e-03
2.220330e-03
2.219930e-03
-4.951220e-03
-4.949570e-03
5.351170e-03
5.342790e-03
2.220730e-03
2.220330e-03
-3.929400e-03
-3.924150e-03
-4.949570e-03
-4.947910e-03
5.342790e-03
5.334400e-03
2.220330e-03
2.219930e-03
-3.924150e-03
-3.918870e-03
5.351170e-03
5.342790e-03
-8.720930e-03
-8.715060e-03
-3.929400e-03
-3.924150e-03
8.383630e-03
8.382050e-03
5.342790e-03
5.334400e-03
-8.715060e-03
-8.709190e-03
-3.924150e-03
-3.918870e-03
8.382050e-03
8.380480e-03
-8.720930e-03
-8.715060e-03
1.089500e-03
1.089780e-03
8.383630e-03
8.382050e-03
-8.605730e-04
-8.586620e-04
-8.715060e-03
-8.709190e-03
1.089780e-03
1.090030e-03
8.382050e-03
8.380480e-03
-8.586620e-04
-8.567640e-04
1.089500e-03
1.089780e-03
8.553400e-03
8.540800e-03
-8.605730e-04
-8.586620e-04
-9.277080e-03
-9.274910e-03
1.089780e-03
1.090030e-03
8.540800e-03
8.528230e-03
-8.586620e-04
-8.567640e-04
-9.274910e-03
-9.272760e-03
8.553400e-03
8.540800e-03
-4.277420e-03
-4.281730e-03
-9.277080e-03
-9.274910e-03
4.365390e-03
4.366300e-03
8.540800e-03
8.528230e-03
-4.281730e-03
-4.286040e-03
-9.274910e-03
-9.272760e-03
4.366300e-03
4.367230e-03
-4.277420e-03
-4.281730e-03
3.811950e-03
3.834660e-03
4.365390e-03
4.366300e-03
-1.072030e-02
-1.072030e-02
-4.281730e-03
-4.286040e-03
3.834660e-03
3.857360e-03
4.366300e-03
4.367230e-03
-1.072030e-02
-1.072030e-02
3.811950e-03
3.834660e-03
-5.763780e-03
-5.774980e-03
-1.072030e-02
-1.072030e-02
-3.049470e-03
-3.052420e-03
3.834660e-03
3.857360e-03
-5.774980e-03
-5.786210e-03
-1.072030e-02
-1.072030e-02
-3.052420e-03
-3.055360e-03
-5.763780e-03
-5.774980e-03
-3.009180e-02
-3.009180e-02
-3.049470e-03
-3.052420e-03
1.880460e-02
1.880400e-02
-5.774980e-03
-5.786210e-03
-3.009180e-02
-3.009170e-02
-3.052420e-03
-3.055360e-03
1.880400e-02
1.880330e-02
-3.009180e-02
-3.009180e-02
-1.528070e-02
-1.528010e-02
1.880460e-02
1.880400e-02
9.623370e-03
9.618560e-03
-3.009180e-02
-3.009170e-02
-1.528010e-02
-1.527960e-02
1.880400e-02
1.880330e-02
9.618560e-03
9.613750e-03
-1.528070e-02
-1.528010e-02
3.881470e-03
3.884560e-03
9.623370e-03
9.618560e-03
-7.319630e-05
-6.822080e-05
-1.528010e-02
-1.527960e-02
3.884560e-03
3.887640e-03
9.618560e-03
9.613750e-03
-6.822080e-05
-6.328050e-05
3.881470e-03
3.884560e-03
1.576080e-02
1.574380e-02
-7.319630e-05
-6.822080e-05
-1.240440e-02
-1.240860e-02
3.884560e-03
3.887640e-03
1.574380e-02
1.572680e-02
-6.822080e-05
-6.328050e-05
-1.240860e-02
-1.241270e-02
1.576080e-02
1.574380e-02
2.336130e-02
2.338730e-02
-1.240440e-02
-1.240860e-02
-1.239060e-02
-1.239180e-02
1.574380e-02
1.572680e-02
2.338730e-02
2.341330e-02
-1.240860e-02
-1.241270e-02
-1.239180e-02
-1.239300e-02
0.000000e+00
0.000000e+00
-3.101450e-03
-3.103610e-03
0.000000e+00
0.000000e+00
8.281030e-03
8.278370e-03
0.000000e+00
0.000000e+00
-3.103610e-03
-3.105760e-03
0.000000e+00
0.000000e+00
8.278370e-03
8.275700e-03
-3.101450e-03
-3.103610e-03
-1.278980e-03
-1.278650e-03
8.281030e-03
8.278370e-03
5.250790e-03
5.250030e-03
-3.103610e-03
-3.105760e-03
-1.278650e-03
-1.278310e-03
8.278370e-03
8.275700e-03
5.250030e-03
5.249220e-03
-1.278980e-03
-1.278650e-03
2.787170e-03
2.786700e-03
5.250790e-03
5.250030e-03
-4.910180e-04
-4.975210e-04
-1.278650e-03
-1.278310e-03
2.786700e-03
2.786230e-03
5.250030e-03
5.249220e-03
-4.975210e-04
-5.040150e-04
2.787170e-03
2.786700e-03
-5.989010e-03
-5.983670e-03
-4.910180e-04
-4.975210e-04
9.335090e-03
9.335150e-03
2.786700e-03
2.786230e-03
-5.983670e-03
-5.978360e-03
-4.975210e-04
-5.040150e-04
9.335150e-03
9.335240e-03
-5.989010e-03
-5.983670e-03
2.620240e-03
2.614130e-03
9.335090e-03
9.335150e-03
-8.762020e-03
-8.767960e-03
-5.983670e-03
-5.978360e-03
2.614130e-03
2.608000e-03
9.335150e-03
9.335240e-03
-8.767960e-03
-8.773910e-03
2.620240e-03
2.614130e-03
5.246150e-04
5.262740e-04
-8.762020e-03
-8.767960e-03
6.011300e-04
5.993100e-04
2.614130e-03
2.608000e-03
5.262740e-04
5.279710e-04
-8.767960e-03
-8.773910e-03
5.993100e-04
5.974480e-04
5.246150e-04
5.262740e-04
-4.264080e-03
-4.262280e-03
6.011300e-04
5.993100e-04
1.479800e-02
1.479330e-02
5.262740e-04
5.279710e-04
-4.262280e-03
-4.260460e-03
5.993100e-04
5.974480e-04
1.479330e-02
1.478860e-02
-4.264080e-03
-4.262280e-03
2.793650e-03
2.794920e-03
1.479800e-02
1.479330e-02
3.747050e-03
3.758110e-03
-4.262280e-03
-4.260460e-03
2.794920e-03
2.796150e-03
1.479330e-02
1.478860e-02
3.758110e-03
3.769190e-03
2.793650e-03
2.794920e-03
1.476040e-04
1.448820e-04
3.747050e-03
3.758110e-03
-4.034030e-03
-4.036860e-03
2.794920e-03
2.796150e-03
1.448820e-04
1.421460e-04
3.758110e-03
3.769190e-03
-4.036860e-03
-4.039670e-03
1.476040e-04
1.448820e-04
-3.823650e-03
-3.821680e-03
-4.034030e-03
-4.036860e-03
5.262130e-03
5.267140e-03
1.448820e-04
1.421460e-04
-3.821680e-03
-3.819690e-03
-4.036860e-03
-4.039670e-03
5.267140e-03
5.272170e-03
-3.823650e-03
-3.821680e-03
-4.380030e-03
-4.380940e-03
5.262130e-03
5.267140e-03
6.886310e-03
6.884700e-03
-3.821680e-03
-3.819690e-03
-4.380940e-03
-4.381850e-03
5.267140e-03
5.272170e-03
6.884700e-03
6.883050e-03
-4.380030e-03
-4.380940e-03
-2.841810e-03
-2.833910e-03
6.886310e-03
6.884700e-03
-4.269970e-03
-4.269310e-03
-4.380940e-03
-4.381850e-03
-2.833910e-03
-2.826000e-03
6.884700e-03
6.883050e-03
-4.269310e-03
-4.268640e-03
-2.841810e-03
-2.833910e-03
1.292450e-03
1.286820e-03
-4.269970e-03
-4.269310e-03
-9.140430e-03
-9.141260e-03
-2.833910e-03
-2.826000e-03
1.286820e-03
1.281180e-03
-4.269310e-03
-4.268640e-03
-9.141260e-03
-9.142050e-03
1.292450e-03
1.286820e-03
-4.139130e-03
-4.138870e-03
-9.140430e-03
-9.141260e-03
4.672380e-03
4.673180e-03
1.286820e-03
1.281180e-03
-4.138870e-03
-4.138620e-03
-9.141260e-03
-9.142050e-03
4.673180e-03
4.673950e-03
-4.139130e-03
-4.138870e-03
1.222490e-03
1.213800e-03
4.672380e-03
4.673180e-03
7.509500e-03
7.518680e-03
-4.138870e-03
-4.138620e-03
1.213800e-03
1.205130e-03
4.673180e-03
4.673950e-03
7.518680e-03
7.527870e-03
1.222490e-03
1.213800e-03
1.277680e-03
1.276240e-03
7.509500e-03
7.518680e-03
3.546620e-03
3.551490e-03
1.213800e-03
1.205130e-03
1.276240e-03
1.274810e-03
7.518680e-03
7.527870e-03
3.551490e-03
3.556380e-03
1.277680e-03
1.276240e-03
3.912040e-03
3.906950e-03
3.546620e-03
3.551490e-03
3.448580e-03
3.447750e-03
1.276240e-03
1.274810e-03
3.906950e-03
3.901820e-03
3.551490e-03
3.556380e-03
3.447750e-03
3.446950e-03
3.912040e-03
3.906950e-03
2.220730e-03
2.220330e-03
3.448580e-03
3.447750e-03
6.639340e-04
6.697010e-04
3.906950e-03
3.901820e-03
2.220330e-03
2.219930e-03
3.447750e-03
3.446950e-03
6.697010e-04
6.754570e-04
2.220730e-03
2.220330e-03
-3.929400e-03
-3.924150e-03
6.639340e-04
6.697010e-04
2.362000e-03
2.363540e-03
2.220330e-03
2.219930e-03
-3.924150e-03
-3.918870e-03
6.697010e-04
6.754570e-04
2.363540e-03
2.365060e-03
-3.929400e-03
-3.924150e-03
8.383630e-03
8.382050e-03
2.362000e-03
2.363540e-03
-7.874980e-03
-7.877920e-03
-3.924150e-03
-3.918870e-03
8.382050e-03
8.380480e-03
2.363540e-03
2.365060e-03
-7.877920e-03
-7.880850e-03
8.383630e-03
8.382050e-03
-8.605730e-04
-8.586620e-04
-7.874980e-03
-7.877920e-03
5.785060e-04
5.805970e-04
8.382050e-03
8.380480e-03
-8.586620e-04
-8.567640e-04
-7.877920e-03
-7.880850e-03
5.805970e-04
5.826870e-04
-8.605730e-04
-8.586620e-04
-9.277080e-03
-9.274910e-03
5.785060e-04
5.805970e-04
1.008050e-02
1.007790e-02
-8.586620e-04
-8.567640e-04
-9.274910e-03
-9.272760e-03
5.805970e-04
5.826870e-04
1.007790e-02
1.007520e-02
-9.277080e-03
-9.274910e-03
4.365390e-03
4.366300e-03
1.008050e-02
1.007790e-02
-4.592510e-03
-4.590310e-03
-9.274910e-03
-9.272760e-03
4.366300e-03
4.367230e-03
1.007790e-02
1.007520e-02
-4.590310e-03
-4.588120e-03
4.365390e-03
4.366300e-03
-1.072030e-02
-1.072030e-02
-4.592510e-03
-4.590310e-03
1.773580e-02
1.771710e-02
4.366300e-03
4.367230e-03
-1.072030e-02
-1.072030e-02
-4.590310e-03
-4.588120e-03
1.771710e-02
1.769840e-02
-1.072030e-02
-1.072030e-02
-3.049470e-03
-3.052420e-03
1.773580e-02
1.771710e-02
1.164420e-02
1.166860e-02
-1.072030e-02
-1.072030e-02
-3.052420e-03
-3.055360e-03
1.771710e-02
1.769840e-02
1.166860e-02
1.169290e-02
-3.049470e-03
-3.052420e-03
1.880460e-02
1.880400e-02
1.164420e-02
1.166860e-02
-7.347100e-03
-7.347430e-03
-3.052420e-03
-3.055360e-03
1.880400e-02
1.880330e-02
1.166860e-02
1.169290e-02
-7.347430e-03
-7.347760e-03
1.880460e-02
1.880400e-02
9.623370e-03
9.618560e-03
-7.347100e-03
-7.347430e-03
-4.025980e-03
-4.022920e-03
1.880400e-02
1.880330e-02
9.618560e-03
9.613750e-03
-7.347430e-03
-7.347760e-03
-4.022920e-03
-4.019820e-03
9.623370e-03
9.618560e-03
-7.319630e-05
-6.822080e-05
-4.025980e-03
-4.022920e-03
-3.631460e-03
-3.630680e-03
9.618560e-03
9.613750e-03
-6.822080e-05
-6.328050e-05
-4.022920e-03
-4.019820e-03
-3.630680e-03
-3.629900e-03
-7.319630e-05
-6.822080e-05
-1.240440e-02
-1.240860e-02
-3.631460e-03
-3.630680e-03
8.913340e-03
8.927510e-03
-6.822080e-05
-6.328050e-05
-1.240860e-02
-1.241270e-02
-3.630680e-03
-3.629900e-03
8.927510e-03
8.941670e-03
-1.240440e-02
-1.240860e-02
-1.239060e-02
-1.239180e-02
8.913340e-03
8.927510e-03
1.559070e-03
1.538600e-03
-1.240860e-02
-1.241270e-02
-1.239180e-02
-1.239300e-02
8.927510e-03
8.941670e-03
1.538600e-03
1.518090e-03
</DataArray>
<DataArray type="Float32" Name="V2" format="ascii">
0.000000e+00
0.000000e+00
-1.219660e-01
-1.226210e-01
0.000000e+00
0.000000e+00
8.094800e-02
8.067560e-02
0.000000e+00
0.000000e+00
-1.226210e-01
-1.232680e-01
0.000000e+00
0.000000e+00
8.067560e-02
8.040260e-02
-1.219660e-01
-1.226210e-01
-1.053540e-01
-1.050230e-01
8.094800e-02
8.067560e-02
6.610960e-02
6.678570e-02
-1.226210e-01
-1.232680e-01
-1.050230e-01
-1.047040e-01
8.067560e-02
8.040260e-02
6.678570e-02
6.744320e-02
-1.053540e-01
-1.050230e-01
-3.071560e-02
-3.217950e-02
6.610960e-02
6.678570e-02
1.302740e-02
1.385630e-02
-1.050230e-01
-1.047040e-01
-3.217950e-02
-3.367030e-02
6.678570e-02
6.744320e-02
1.385630e-02
1.472310e-02
-3.071560e-02
-3.217950e-02
1.605060e-01
1.627910e-01
1.302740e-02
1.385630e-02
-3.922480e-02
-4.088320e-02
-3.217950e-02
-3.367030e-02
1.627910e-01
1.650850e-01
1.385630e-02
1.472310e-02
-4.088320e-02
-4.252210e-02
1.605060e-01
1.627910e-01
1.511070e-02
1.202020e-02
-3.922480e-02
-4.088320e-02
4.647140e-02
4.957130e-02
1.627910e-01
1.650850e-01
1.202020e-02
8.920410e-03
-4.088320e-02
-4.252210e-02
4.957130e-02
5.266450e-02
1.511070e-02
1.202020e-02
-2.459400e-02
-2.458870e-02
4.647140e-02
4.957130e-02
-2.283820e-02
-2.514520e-02
1.202020e-02
8.920410e-03
-2.458870e-02
-2.460190e-02
4.957130e-02
5.266450e-02
-2.514520e-02
-2.743090e-02
-2.459400e-02
-2.458870e-02
-7.660420e-02
-7.593060e-02
-2.283820e-02
-2.514520e-02
2.663850e-03
5.680530e-04
-2.458870e-02
-2.460190e-02
-7.593060e-02
-7.528270e-02
-2.514520e-02
-2.743090e-02
5.680530e-04
-1.507020e-03
-7.660420e-02
-7.593060e-02
-5.422780e-02
-5.716810e-02
2.663850e-03
5.680530e-04
1.683980e-02
1.571480e-02
-7.593060e-02
-7.528270e-02
-5.716810e-02
-6.011610e-02
5.680530e-04
-1.507020e-03
1.571480e-02
1.459400e-02
-5.422780e-02
-5.716810e-02
1.380200e-01
1.412430e-01
1.683980e-02
1.571480e-02
-7.010050e-02
-7.501440e-02
-5.716810e-02
-6.011610e-02
1.412430e-01
1.444680e-01
1.571480e-02
1.459400e-02
-7.501440e-02
-7.995080e-02
1.380200e-01
1.412430e-01
1.136770e-01
1.159930e-01
-7.010050e-02
-7.501440e-02
-3.308760e-02
-3.104020e-02
1.412430e-01
1.444680e-01
1.159930e-01
1.182950e-01
-7.501440e-02
-7.995080e-02
-3.104020e-02
-2.898250e-02
1.136770e-01
1.159930e-01
3.906790e-02
3.654870e-02
-3.308760e-02
-3.104020e-02
2.930820e-02
3.221700e-02
1.159930e-01
1.182950e-01
3.654870e-02
3.408580e-02
-3.104020e-02
-2.898250e-02
3.221700e-02
3.509880e-02
3.906790e-02
3.654870e-02
5.559570e-02
5.800540e-02
2.930820e-02
3.221700e-02
-4.319280e-02
-5.008860e-02
3.654870e-02
3.408580e-02
5.800540e-02
6.037890e-02
3.221700e-02
3.509880e-02
-5.008860e-02
-5.697950e-02
5.559570e-02
5.800540e-02
-4.549490e-02
-4.317930e-02
-4.319280e-02
-5.008860e-02
8.558240e-03
7.082060e-03
5.800540e-02
6.037890e-02
-4.317930e-02
-4.083520e-02
-5.008860e-02
-5.697950e-02
7.082060e-03
5.595830e-03
-4.549490e-02
-4.317930e-02
-2.013400e-01
-1.953450e-01
8.558240e-03
7.082060e-03
1.424020e-01
1.406090e-01
-4.317930e-02
-4.083520e-02
-1.953450e-01
-1.893730e-01
7.082060e-03
5.595830e-03
1.406090e-01
1.388300e-01
-2.013400e-01
-1.953450e-01
1.731270e-01
1.786950e-01
1.424020e-01
1.406090e-01
-9.016160e-02
-9.298160e-02
-1.953450e-01
-1.893730e-01
1.786950e-01
1.842810e-01
1.406090e-01
1.388300e-01
-9.298160e-02
-9.578590e-02
1.731270e-01
1.786950e-01
2.085930e-01
2.022790e-01
-9.016160e-02
-9.298160e-02
-1.088970e-01
-9.939900e-02
1.786950e-01
1.842810e-01
2.022790e-01
1.959540e-01
-9.298160e-02
-9.578590e-02
-9.939900e-02
-8.988130e-02
2.085930e-01
2.022790e-01
-1.074670e-01
-9.754460e-02
-1.088970e-01
-9.939900e-02
9.648420e-02
8.763590e-02
2.022790e-01
1.959540e-01
-9.754460e-02
-8.761000e-02
-9.939900e-02
-8.988130e-02
8.763590e-02
7.875110e-02
-1.074670e-01
-9.754460e-02
-2.731680e-01
-2.614490e-01
9.648420e-02
8.763590e-02
1.659050e-01
1.544750e-01
-9.754460e-02
-8.761000e-02
-2.614490e-01
-2.497490e-01
8.763590e-02
7.875110e-02
1.544750e-01
1.430520e-01
-2.731680e-01
-2.614490e-01
1.646260e-02
1.868950e-02
1.659050e-01
1.544750e-01
-9.424140e-02
-9.304380e-02
-2.614490e-01
-2.497490e-01
1.868950e-02
2.090410e-02
1.544750e-01
1.430520e-01
-9.304380e-02
-9.181610e-02
1.646260e-02
1.868950e-02
1.208150e-01
1.269090e-01
-9.424140e-02
-9.304380e-02
-9.038140e-02
-9.927780e-02
1.868950e-02
2.090410e-02
1.269090e-01
1.330640e-01
-9.304380e-02
-9.181610e-02
-9.927780e-02
-1.081630e-01
1.208150e-01
1.269090e-01
7.430700e-02
6.531190e-02
-9.038140e-02
-9.927780e-02
1.689690e-02
2.149480e-02
1.269090e-01
1.330640e-01
6.531190e-02
5.624150e-02
-9.927780e-02
-1.081630e-01
2.149480e-02
2.607840e-02
7.430700e-02
6.531190e-02
3.522690e-02
3.796780e-02
1.689690e-02
2.149480e-02
-3.715200e-02
-3.669460e-02
6.531190e-02
5.624150e-02
3.796780e-02
4.075180e-02
2.149480e-02
2.607840e-02
-3.669460e-02
-3.628120e-02
3.522690e-02
3.796780e-02
8.335480e-03
2.341260e-02
-3.715200e-02
-3.669460e-02
-4.740450e-02
-5.736480e-02
3.796780e-02
4.075180e-02
2.341260e-02
3.857020e-02
-3.669460e-02
-3.628120e-02
-5.736480e-02
-6.733310e-02
8.335480e-03
2.341260e-02
1.229700e-03
-4.892030e-03
-4.740450e-02
-5.736480e-02
-6.195580e-02
-5.555080e-02
2.341260e-02
3.857020e-02
-4.892030e-03
-1.105820e-02
-5.736480e-02
-6.733310e-02
-5.555080e-02
-4.914290e-02
1.229700e-03
-4.892030e-03
-1.144020e-01
-1.244570e-01
-6.195580e-02
-5.555080e-02
9.285010e-02
9.918460e-02
-4.892030e-03
-1.105820e-02
-1.244570e-01
-1.346330e-01
-5.555080e-02
-4.914290e-02
9.918460e-02
1.055440e-01
-1.144020e-01
-1.244570e-01
1.194240e-01
1.101980e-01
9.285010e-02
9.918460e-02
1.249940e-02
1.890290e-02
-1.244570e-01
-1.346330e-01
1.101980e-01
1.010860e-01
9.918460e-02
1.055440e-01
1.890290e-02
2.528170e-02
1.194240e-01
1.101980e-01
4.879660e-02
4.200740e-02
1.249940e-02
1.890290e-02
-3.999910e-03
2.395710e-03
1.101980e-01
1.010860e-01
4.200740e-02
3.518340e-02
1.890290e-02
2.528170e-02
2.395710e-03
8.819410e-03
4.879660e-02
4.200740e-02
4.993770e-02
5.335730e-02
-3.999910e-03
2.395710e-03
-8.194430e-02
-8.069210e-02
4.200740e-02
3.518340e-02
5.335730e-02
5.673150e-02
2.395710e-03
8.819410e-03
-8.069210e-02
-7.945890e-02
4.993770e-02
5.335730e-02
1.002600e-02
1.777180e-02
-8.194430e-02
-8.069210e-02
-1.958440e-02
-2.593370e-02
5.335730e-02
5.673150e-02
1.777180e-02
2.554690e-02
-8.069210e-02
-7.945890e-02
-2.593370e-02
-3.226350e-02
1.002600e-02
1.777180e-02
-1.991480e-01
-1.906050e-01
-1.958440e-02
-2.593370e-02
2.117550e-01
1.985550e-01
1.777180e-02
2.554690e-02
-1.906050e-01
-1.819690e-01
-2.593370e-02
-3.226350e-02
1.985550e-01
1.853150e-01
0.000000e+00
0.000000e+00
8.094800e-02
8.067560e-02
0.000000e+00
0.000000e+00
-3.709790e-02
-3.579620e-02
0.000000e+00
0.000000e+00
8.067560e-02
8.040260e-02
0.000000e+00
0.000000e+00
-3.579620e-02
-3.446400e-02
8.094800e-02
8.067560e-02
6.610960e-02
6.678570e-02
-3.709790e-02
-3.579620e-02
-2.927840e-02
-3.096700e-02
8.067560e-02
8.040260e-02
6.678570e-02
6.744320e-02
-3.579620e-02
-3.446400e-02
-3.096700e-02
-3.265080e-02
6.610960e-02
6.678570e-02
1.302740e-02
1.385630e-02