<?xml version="1.0"?>
<VTKFile type="UnstructuredGrid" version="0.1" byte_order="LittleEndian" compressor="vtkZLibDataCompressor">
<UnstructuredGrid>
<Piece NumberOfPoints="960" NumberOfCells="120">
<Points>
<DataArray type="Float32" NumberOfComponents="3" format="ascii">
-4.000000e+02 -6.000000e+03 -4.000000e+02
0.000000e+00 -6.000000e+03 -4.000000e+02
-4.004030e+02 -5.600440e+03 -4.004190e+02
-4.586080e-01 -5.600410e+03 -4.005180e+02
-4.000000e+02 -6.000000e+03 0.000000e+00
0.000000e+00 -6.000000e+03 0.000000e+00
-3.999990e+02 -5.599860e+03 -9.796350e-02
2.894690e-02 -5.599950e+03 -4.419810e-01
0.000000e+00 -6.000000e+03 -4.000000e+02
4.000000e+02 -6.000000e+03 -4.000000e+02
-4.586080e-01 -5.600410e+03 -4.005180e+02
3.994750e+02 -5.600280e+03 -4.009610e+02
0.000000e+00 -6.000000e+03 0.000000e+00
4.000000e+02 -6.000000e+03 0.000000e+00
2.894690e-02 -5.599950e+03 -4.419810e-01
4.000530e+02 -5.600270e+03 -6.563430e-01
-4.004030e+02 -5.600440e+03 -4.004190e+02
-4.586080e-01 -5.600410e+03 -4.005180e+02
-4.006220e+02 -5.200710e+03 -3.998920e+02
-7.009570e-01 -5.200650e+03 -4.006020e+02
-3.999990e+02 -5.599860e+03 -9.796350e-02
2.894690e-02 -5.599950e+03 -4.419810e-01
-3.999510e+02 -5.199960e+03 -1.263420e+00
9.861670e-02 -5.200010e+03 -1.225030e+00
-4.586080e-01 -5.600410e+03 -4.005180e+02
3.994750e+02 -5.600280e+03 -4.009610e+02
-7.009570e-01 -5.200650e+03 -4.006020e+02
3.992340e+02 -5.200480e+03 -4.012190e+02
2.894690e-02 -5.599950e+03 -4.419810e-01
4.000530e+02 -5.600270e+03 -6.563430e-01
9.861670e-02 -5.200010e+03 -1.225030e+00
4.001530e+02 -5.200040e+03 -1.367040e+00
-4.006220e+02 -5.200710e+03 -3.998920e+02
-7.009570e-01 -5.200650e+03 -4.006020e+02
-4.002600e+02 -4.800740e+03 -4.008100e+02
-2.598010e-01 -4.800870e+03 -4.013600e+02
-3.999510e+02 -5.199960e+03 -1.263420e+00
9.861670e-02 -5.200010e+03 -1.225030e+00
-4.000670e+02 -4.800110e+03 -1.450930e+00
-1.174840e-01 -4.800080e+03 -1.701350e+00
-7.009570e-01 -5.200650e+03 -4.006020e+02
3.992340e+02 -5.200480e+03 -4.012190e+02
-2.598010e-01 -4.800870e+03 -4.013600e+02
3.997510e+02 -4.800930e+03 -4.016660e+02
9.861670e-02 -5.200010e+03 -1.225030e+00
4.001530e+02 -5.200040e+03 -1.367040e+00
-1.174840e-01 -4.800080e+03 -1.701350e+00
3.998300e+02 -4.800060e+03 -2.088990e+00
-4.002600e+02 -4.800740e+03 -4.008100e+02
-2.598010e-01 -4.800870e+03 -4.013600e+02
-4.002790e+02 -4.401040e+03 -4.016800e+02
-2.096200e-01 -4.401120e+03 -4.020010e+02
-4.000670e+02 -4.800110e+03 -1.450930e+00
-1.174840e-01 -4.800080e+03 -1.701350e+00
-4.000070e+02 -4.400060e+03 -2.225230e+00
-3.373280e-02 -4.400070e+03 -3.043720e+00
-2.598010e-01 -4.800870e+03 -4.013600e+02
3.997510e+02 -4.800930e+03 -4.016660e+02
-2.096200e-01 -4.401120e+03 -4.020010e+02
3.998350e+02 -4.401140e+03 -4.023020e+02
-1.174840e-01 -4.800080e+03 -1.701350e+00
3.998300e+02 -4.800060e+03 -2.088990e+00
-3.373280e-02 -4.400070e+03 -3.043720e+00
3.999430e+02 -4.400150e+03 -3.790970e+00
-4.002790e+02 -4.401040e+03 -4.016800e+02
-2.096200e-01 -4.401120e+03 -4.020010e+02
-4.002130e+02 -4.001340e+03 -4.035330e+02
-1.939950e-01 -4.001320e+03 -4.038890e+02
-4.000070e+02 -4.400060e+03 -2.225230e+00
-3.373280e-02 -4.400070e+03 -3.043720e+00
-4.000150e+02 -4.000130e+03 -4.459940e+00
-1.660230e-02 -4.000060e+03 -4.196710e+00
-2.096200e-01 -4.401120e+03 -4.020010e+02
3.998350e+02 -4.401140e+03 -4.023020e+02
-1.939950e-01 -4.001320e+03 -4.038890e+02
3.998380e+02 -4.001260e+03 -4.042160e+02
-3.373280e-02 -4.400070e+03 -3.043720e+00
3.999430e+02 -4.400150e+03 -3.790970e+00
-1.660230e-02 -4.000060e+03 -4.196710e+00
3.999800e+02 -4.000000e+03 -3.753440e+00
-4.002130e+02 -4.001340e+03 -4.035330e+02
-1.939950e-01 -4.001320e+03 -4.038890e+02
-4.001900e+02 -3.601070e+03 -4.047700e+02
-1.927570e-01 -3.601350e+03 -4.053930e+02
-4.000150e+02 -4.000130e+03 -4.459940e+00
-1.660230e-02 -4.000060e+03 -4.196710e+00
-3.998630e+02 -3.600180e+03 -5.195340e+00
1.233360e-01 -3.600050e+03 -5.092840e+00
-1.939950e-01 -4.001320e+03 -4.038890e+02
3.998380e+02 -4.001260e+03 -4.042160e+02
-1.927570e-01 -3.601350e+03 -4.053930e+02
3.998010e+02 -3.601390e+03 -4.058800e+02
-1.660230e-02 -4.000060e+03 -4.196710e+00
3.999800e+02 -4.000000e+03 -3.753440e+00
1.233360e-01 -3.600050e+03 -5.092840e+00
4.001170e+02 -3.599920e+03 -5.105470e+00
-4.001900e+02 -3.601070e+03 -4.047700e+02
-1.927570e-01 -3.601350e+03 -4.053930e+02
-3.996370e+02 -3.201600e+03 -4.061790e+02
2.876190e-01 -3.201380e+03 -4.064230e+02
-3.998630e+02 -3.600180e+03 -5.195340e+00
1.233360e-01 -3.600050e+03 -5.092840e+00
-3.999480e+02 -3.199930e+03 -6.786370e+00
7.277170e-02 -3.200080e+03 -6.454530e+00
-1.927570e-01 -3.601350e+03 -4.053930e+02
3.998010e+02 -3.601390e+03 -4.058800e+02
2.876190e-01 -3.201380e+03 -4.064230e+02
4.002200e+02 -3.201300e+03 -4.065460e+02
1.233360e-01 -3.600050e+03 -5.092840e+00
4.001170e+02 -3.599920e+03 -5.105470e+00
7.277170e-02 -3.200080e+03 -6.454530e+00
4.000860e+02 -3.200130e+03 -6.193700e+00
-3.996370e+02 -3.201600e+03 -4.061790e+02
2.876190e-01 -3.201380e+03 -4.064230e+02
-3.997190e+02 -2.801720e+03 -4.089120e+02
2.618260e-01 -2.801630e+03 -4.076460e+02
-3.999480e+02 -3.199930e+03 -6.786370e+00
7.277170e-02 -3.200080e+03 -6.454530e+00
-4.000950e+02 -2.799730e+03 -8.198040e+00
-8.373720e-02 -2.799810e+03 -7.923150e+00
2.876190e-01 -3.201380e+03 -4.064230e+02
4.002200e+02 -3.201300e+03 -4.065460e+02
2.618260e-01 -2.801630e+03 -4.076460e+02
4.002320e+02 -2.801720e+03 -4.066950e+02
7.277170e-02 -3.200080e+03 -6.454530e+00
4.000860e+02 -3.200130e+03 -6.193700e+00
-8.373720e-02 -2.799810e+03 -7.923150e+00
3.999310e+02 -2.799840e+03 -7.755900e+00
-3.997190e+02 -2.801720e+03 -4.089120e+02
2.618260e-01 -2.801630e+03 -4.076460e+02
-3.999240e+02 -2.401130e+03 -4.101220e+02
1.586440e-02 -2.401300e+03 -4.101610e+02
-4.000950e+02 -2.799730e+03 -8.198040e+00
-8.373720e-02 -2.799810e+03 -7.923150e+00
-3.999570e+02 -2.399950e+03 -9.846410e+00
4.360920e-02 -2.400060e+03 -9.803580e+00
2.618260e-01 -2.801630e+03 -4.076460e+02
4.002320e+02 -2.801720e+03 -4.066950e+02
1.586440e-02 -2.401300e+03 -4.101610e+02
3.999600e+02 -2.401530e+03 -4.103420e+02
-8.373720e-02 -2.799810e+03 -7.923150e+00
3.999310e+02 -2.799840e+03 -7.755900e+00
4.360920e-02 -2.400060e+03 -9.803580e+00
4.000390e+02 -2.400060e+03 -9.629240e+00
-3.999240e+02 -2.401130e+03 -4.101220e+02
1.586440e-02 -2.401300e+03 -4.101610e+02
-3.999640e+02 -2.000990e+03 -4.102120e+02
2.922070e-02 -2.001150e+03 -4.101690e+02
-3.999570e+02 -2.399950e+03 -9.846410e+00
4.360920e-02 -2.400060e+03 -9.803580e+00
-3.998920e+02 -2.000270e+03 -1.160240e+01
1.249640e-01 -2.000210e+03 -1.182770e+01
1.586440e-02 -2.401300e+03 -4.101610e+02
3.999600e+02 -2.401530e+03 -4.103420e+02
2.922070e-02 -2.001150e+03 -4.101690e+02
4.000290e+02 -2.001470e+03 -4.100030e+02
4.360920e-02 -2.400060e+03 -9.803580e+00
4.000390e+02 -2.400060e+03 -9.629240e+00
1.249640e-01 -2.000210e+03 -1.182770e+01
4.001370e+02 -2.000050e+03 -1.216500e+01
-3.999640e+02 -2.000990e+03 -4.102120e+02
2.922070e-02 -2.001150e+03 -4.101690e+02
-4.003480e+02 -1.601510e+03 -4.119690e+02
-2.380760e-01 -1.601390e+03 -4.123940e+02
-3.998920e+02 -2.000270e+03 -1.160240e+01
1.249640e-01 -2.000210e+03 -1.182770e+01
-3.999590e+02 -1.600050e+03 -1.147260e+01
-1.139250e-02 -1.599980e+03 -1.188090e+01
2.922070e-02 -2.001150e+03 -4.101690e+02
4.000290e+02 -2.001470e+03 -4.100030e+02
-2.380760e-01 -1.601390e+03 -4.123940e+02
3.998550e+02 -1.601090e+03 -4.126520e+02
1.249640e-01 -2.000210e+03 -1.182770e+01
4.001370e+02 -2.000050e+03 -1.216500e+01
-1.139250e-02 -1.599980e+03 -1.188090e+01
3.999350e+02 -1.600110e+03 -1.230130e+01
-4.003480e+02 -1.601510e+03 -4.119690e+02
-2.380760e-01 -1.601390e+03 -4.123940e+02
-4.010730e+02 -1.201280e+03 -4.130410e+02
-9.842750e-01 -1.200990e+03 -4.133240e+02
-3.999590e+02 -1.600050e+03 -1.147260e+01
-1.139250e-02 -1.599980e+03 -1.188090e+01
-3.996770e+02 -1.199960e+03 -1.207120e+01
2.762020e-01 -1.200050e+03 -1.321010e+01
-2.380760e-01 -1.601390e+03 -4.123940e+02
3.998550e+02 -1.601090e+03 -4.126520e+02
-9.842750e-01 -1.200990e+03 -4.133240e+02
3.991130e+02 -1.200650e+03 -4.135780e+02
-1.139250e-02 -1.599980e+03 -1.188090e+01
3.999350e+02 -1.600110e+03 -1.230130e+01
2.762020e-01 -1.200050e+03 -1.321010e+01
4.002340e+02 -1.200200e+03 -1.429710e+01
-4.010730e+02 -1.201280e+03 -4.130410e+02
-9.842750e-01 -1.200990e+03 -4.133240e+02
-4.006960e+02 -8.010430e+02 -4.118590e+02
-7.747150e-01 -8.010150e+02 -4.128410e+02
-3.996770e+02 -1.199960e+03 -1.207120e+01
2.762020e-01 -1.200050e+03 -1.321010e+01
-4.001560e+02 -7.999640e+02 -1.394430e+01
-1.295550e-01 -7.999510e+02 -1.421700e+01
-9.842750e-01 -1.200990e+03 -4.133240e+02
3.991130e+02 -1.200650e+03 -4.135780e+02
-7.747150e-01 -8.010150e+02 -4.128410e+02
3.991420e+02 -8.008920e+02 -4.138860e+02
2.762020e-01 -1.200050e+03 -1.321010e+01
4.002340e+02 -1.200200e+03 -1.429710e+01
-1.295550e-01 -7.999510e+02 -1.421700e+01
3.999000e+02 -7.998390e+02 -1.457840e+01
-4.006960e+02 -8.010430e+02 -4.118590e+02
-7.747150e-01 -8.010150e+02 -4.128410e+02
-4.009210e+02 -4.014160e+02 -4.146740e+02
-9.173540e-01 -4.014610e+02 -4.149590e+02
-4.001560e+02 -7.999640e+02 -1.394430e+01
-1.295550e-01 -7.999510e+02 -1.421700e+01
-4.000240e+02 -3.999410e+02 -1.413220e+01
-7.555360e-02 -3.999090e+02 -1.514850e+01
-7.747150e-01 -8.010150e+02 -4.128410e+02
3.991420e+02 -8.008920e+02 -4.138860e+02
-9.173540e-01 -4.014610e+02 -4.149590e+02
3.990920e+02 -4.016410e+02 -4.151520e+02
-1.295550e-01 -7.999510e+02 -1.421700e+01
3.999000e+02 -7.998390e+02 -1.457840e+01
-7.555360e-02 -3.999090e+02 -1.514850e+01
3.998710e+02 -3.997740e+02 -1.647020e+01
-4.009210e+02 -4.014160e+02 -4.146740e+02
-9.173540e-01 -4.014610e+02 -4.149590e+02
-4.009080e+02 -1.528940e+00 -4.162470e+02
-8.879760e-01 -1.615530e+00 -4.168290e+02
-4.000240e+02 -3.999410e+02 -1.413220e+01
-7.555360e-02 -3.999090e+02 -1.514850e+01
-3.999600e+02 -4.833900e-02 -1.645660e+01
7.295440e-03 -2.094770e-02 -1.698150e+01
-9.173540e-01 -4.014610e+02 -4.149590e+02
3.990920e+02 -4.016410e+02 -4.151520e+02
[...]
<PointData>
<DataArray type="Float32" Name="V1" format="ascii">
0.000000e+00
0.000000e+00
-3.392140e-01
-2.581710e-01
0.000000e+00
0.000000e+00
1.503590e-01
1.252720e-01
0.000000e+00
0.000000e+00
-2.581710e-01
-2.090850e-01
0.000000e+00
0.000000e+00
1.252720e-01
8.776770e-02
-3.392140e-01
-2.581710e-01
6.913500e-01
4.697420e-01
1.503590e-01
1.252720e-01
-3.637210e-01
-2.605570e-01
-2.581710e-01
-2.090850e-01
4.697420e-01
2.847990e-01
1.252720e-01
8.776770e-02
-2.605570e-01
-1.271300e-01
6.913500e-01
4.697420e-01
5.677320e-02
1.594580e-01
-3.637210e-01
-2.605570e-01
-1.641780e-01
-1.996590e-01
4.697420e-01
2.847990e-01
1.594580e-01
2.227120e-01
-2.605570e-01
-1.271300e-01
-1.996590e-01
-2.461060e-01
5.677320e-02
1.594580e-01
1.708760e-01
2.351970e-01
-1.641780e-01
-1.996590e-01
-1.455070e-01
-2.057380e-01
1.594580e-01
2.227120e-01
2.351970e-01
2.608410e-01
-1.996590e-01
-2.461060e-01
-2.057380e-01
-2.895240e-01
1.708760e-01
2.351970e-01
2.814300e-02
6.792180e-02
-1.455070e-01
-2.057380e-01
6.707640e-02
2.636500e-02
2.351970e-01
2.608410e-01
6.792180e-02
8.760930e-02
-2.057380e-01
-2.895240e-01
2.636500e-02
1.729090e-02
2.814300e-02
6.792180e-02
4.685040e-01
4.237830e-01
6.707640e-02
2.636500e-02
-4.613050e-01
-5.113990e-01
6.792180e-02
8.760930e-02
4.237830e-01
5.206380e-01
2.636500e-02
1.729090e-02
-5.113990e-01
-5.910890e-01
4.685040e-01
4.237830e-01
-6.907600e-01
-6.321930e-01
-4.613050e-01
-5.113990e-01
4.535650e-01
4.519670e-01
4.237830e-01
5.206380e-01
-6.321930e-01
-6.235130e-01
-5.113990e-01
-5.910890e-01
4.519670e-01
4.678730e-01
-6.907600e-01
-6.321930e-01
-6.497880e-03
-1.483120e-02
4.535650e-01
4.519670e-01
-2.905520e-01
-2.694370e-01
-6.321930e-01
-6.235130e-01
-1.483120e-02
5.186900e-03
4.519670e-01
4.678730e-01
-2.694370e-01
-2.517590e-01
-6.497880e-03
-1.483120e-02
-1.911880e-01
-2.666000e-01
-2.905520e-01
-2.694370e-01
8.903570e-02
1.539000e-01
-1.483120e-02
5.186900e-03
-2.666000e-01
-3.295160e-01
-2.694370e-01
-2.517590e-01
1.539000e-01
2.130870e-01
-1.911880e-01
-2.666000e-01
6.208950e-01
6.320140e-01
8.903570e-02
1.539000e-01
-4.469480e-01
-5.001490e-01
-2.666000e-01
-3.295160e-01
6.320140e-01
6.310800e-01
1.539000e-01
2.130870e-01
-5.001490e-01
-5.552940e-01
6.208950e-01
6.320140e-01
1.794540e-02
-7.805030e-02
-4.469480e-01
-5.001490e-01
2.467360e-01
2.131500e-01
6.320140e-01
6.310800e-01
-7.805030e-02
-2.007710e-01
-5.001490e-01
-5.552940e-01
2.131500e-01
1.691680e-01
1.794540e-02
-7.805030e-02
2.640450e-01
2.879480e-01
2.467360e-01
2.131500e-01
1.616910e-02
-2.952510e-02
-7.805030e-02
-2.007710e-01
2.879480e-01
3.152760e-01
2.131500e-01
1.691680e-01
-2.952510e-02
-7.696010e-02
2.640450e-01
2.879480e-01
3.631150e-02
-9.330260e-03
1.616910e-02
-2.952510e-02
-2.925600e-01
-2.403760e-01
2.879480e-01
3.152760e-01
-9.330260e-03
-4.023030e-02
-2.952510e-02
-7.696010e-02
-2.403760e-01
-1.926760e-01
3.631150e-02
-9.330260e-03
-8.832090e-02
-1.340580e-01
-2.925600e-01
-2.403760e-01
3.149010e-01
3.443600e-01
-9.330260e-03
-4.023030e-02
-1.340580e-01
-2.190400e-01
-2.403760e-01
-1.926760e-01
3.443600e-01
3.693860e-01
-8.832090e-02
-1.340580e-01
-2.281700e-01
-2.604800e-01
3.149010e-01
3.443600e-01
2.433830e-01
1.839420e-01
-1.340580e-01
-2.190400e-01
-2.604800e-01
-2.495620e-01
3.443600e-01
3.693860e-01
1.839420e-01
1.237580e-01
-2.281700e-01
-2.604800e-01
1.981560e-01
1.609820e-01
2.433830e-01
1.839420e-01
2.818470e-03
3.520900e-02
-2.604800e-01
-2.495620e-01
1.609820e-01
1.312140e-01
1.839420e-01
1.237580e-01
3.520900e-02
8.443760e-02
1.981560e-01
1.609820e-01
1.950530e-01
1.372960e-01
2.818470e-03
3.520900e-02
-1.118150e-01
-6.899720e-02
1.609820e-01
1.312140e-01
1.372960e-01
9.940080e-02
3.520900e-02
8.443760e-02
-6.899720e-02
-4.592850e-02
1.950530e-01
1.372960e-01
-1.419620e-01
1.840320e-02
-1.118150e-01
-6.899720e-02
4.069150e-02
-1.059570e-01
1.372960e-01
9.940080e-02
1.840320e-02
1.655530e-01
-6.899720e-02
-4.592850e-02
-1.059570e-01
-2.311860e-01
-1.419620e-01
1.840320e-02
7.269160e-02
1.447990e-01
4.069150e-02
-1.059570e-01
1.697950e-01
1.271840e-01
1.840320e-02
1.655530e-01
1.447990e-01
2.210310e-01
-1.059570e-01
-2.311860e-01
1.271840e-01
6.577730e-02
7.269160e-02
1.447990e-01
-5.314720e-01
-4.019880e-01
1.697950e-01
1.271840e-01
3.468010e-01
2.292360e-01
1.447990e-01
2.210310e-01
-4.019880e-01
-3.014090e-01
1.271840e-01
6.577730e-02
2.292360e-01
1.317500e-01
-5.314720e-01
-4.019880e-01
3.873740e-01
3.055790e-01
3.468010e-01
2.292360e-01
-4.028460e-01
-3.652240e-01
-4.019880e-01
-3.014090e-01
3.055790e-01
2.020930e-01
2.292360e-01
1.317500e-01
-3.652240e-01
-3.492330e-01
3.873740e-01
3.055790e-01
1.033420e-01
9.592330e-02
-4.028460e-01
-3.652240e-01
1.450020e-01
1.512570e-01
3.055790e-01
2.020930e-01
9.592330e-02
8.778000e-02
-3.652240e-01
-3.492330e-01
1.512570e-01
1.810270e-01
1.033420e-01
9.592330e-02
1.609020e-01
4.903180e-04
1.450020e-01
1.512570e-01
-1.190490e-01
-1.384050e-02
9.592330e-02
8.778000e-02
4.903180e-04
-1.630660e-01
1.512570e-01
1.810270e-01
-1.384050e-02
6.819290e-02
1.609020e-01
4.903180e-04
-6.586580e-02
-6.100010e-02
-1.190490e-01
-1.384050e-02
-1.888520e-02
-8.772300e-03
4.903180e-04
-1.630660e-01
-6.100010e-02
-1.938610e-02
-1.384050e-02
6.819290e-02
-8.772300e-03
1.959690e-03
-6.586580e-02
-6.100010e-02
6.505310e-02
7.924690e-02
-1.888520e-02
-8.772300e-03
9.435850e-02
8.562780e-02
-6.100010e-02
-1.938610e-02
7.924690e-02
8.062440e-02
-8.772300e-03
1.959690e-03
8.562780e-02
7.565860e-02
6.505310e-02
7.924690e-02
-1.483670e-01
-1.011190e-01
9.435850e-02
8.562780e-02
-2.145730e-01
-2.412640e-01
7.924690e-02
8.062440e-02
-1.011190e-01
-4.878980e-02
8.562780e-02
7.565860e-02
-2.412640e-01
-2.931470e-01
-1.483670e-01
-1.011190e-01
1.369640e-01
1.761630e-01
-2.145730e-01
-2.412640e-01
1.139540e-01
3.802280e-02
-1.011190e-01
-4.878980e-02
1.761630e-01
2.548060e-01
-2.412640e-01
-2.931470e-01
3.802280e-02
-2.251720e-02
1.369640e-01
1.761630e-01
-3.297590e-01
-2.200770e-01
1.139540e-01
3.802280e-02
2.245270e-01
1.489100e-01
1.761630e-01
2.548060e-01
-2.200770e-01
-1.269230e-01
3.802280e-02
-2.251720e-02
1.489100e-01
3.817720e-02
-3.297590e-01
-2.200770e-01
1.363560e-01
3.007040e-02
2.245270e-01
1.489100e-01
-2.206360e-01
-1.880700e-01
-2.200770e-01
-1.269230e-01
3.007040e-02
-7.364190e-02
1.489100e-01
3.817720e-02
-1.880700e-01
-1.218990e-01
1.363560e-01
3.007040e-02
-1.950600e-01
-9.002020e-02
-2.206360e-01
-1.880700e-01
2.645610e-01
2.373620e-01
3.007040e-02
-7.364190e-02
-9.002020e-02
3.773910e-02
-1.880700e-01
-1.218990e-01
2.373620e-01
1.755390e-01
0.000000e+00
0.000000e+00
1.503590e-01
1.252720e-01
0.000000e+00
0.000000e+00
7.142430e-02
2.569620e-02
0.000000e+00
0.000000e+00
1.252720e-01
8.776770e-02
0.000000e+00
0.000000e+00
2.569620e-02
2.196330e-02
1.503590e-01
1.252720e-01
-3.637210e-01
-2.605570e-01
7.142430e-02
2.569620e-02
1.604040e-02
6.760450e-03
1.252720e-01
8.776770e-02
-2.605570e-01
-1.271300e-01
2.569620e-02
2.196330e-02
6.760450e-03
-5.053890e-02
-3.637210e-01
-2.605570e-01
-1.641780e-01
-1.996590e-01
1.604040e-02
6.760450e-03
3.122210e-01
2.997490e-01
-2.605570e-01
-1.271300e-01
-1.996590e-01
-2.461060e-01
6.760450e-03
-5.053890e-02
2.997490e-01
3.237790e-01
-1.641780e-01
-1.996590e-01
-1.455070e-01
-2.057380e-01
3.122210e-01
2.997490e-01
6.977290e-02
1.904240e-01
-1.996590e-01
-2.461060e-01
-2.057380e-01
-2.895240e-01
2.997490e-01
3.237790e-01
1.904240e-01
3.535680e-01
-1.455070e-01
-2.057380e-01
6.707640e-02
2.636500e-02
6.977290e-02
1.904240e-01
-1.591200e-01
-1.165860e-01
-2.057380e-01
-2.895240e-01
2.636500e-02
1.729090e-02
1.904240e-01
3.535680e-01
-1.165860e-01
-1.133580e-01
6.707640e-02
2.636500e-02
-4.613050e-01
-5.113990e-01
-1.591200e-01
-1.165860e-01
4.467430e-01
5.659090e-01
2.636500e-02
1.729090e-02
-5.113990e-01
-5.910890e-01
-1.165860e-01
-1.133580e-01
5.659090e-01
6.776570e-01
-4.613050e-01
-5.113990e-01
4.535650e-01
4.519670e-01
4.467430e-01
5.659090e-01
-2.475350e-01
-2.802670e-01
-5.113990e-01
-5.910890e-01
4.519670e-01
4.678730e-01
5.659090e-01
6.776570e-01
-2.802670e-01
-3.374330e-01
4.535650e-01
4.519670e-01
-2.905520e-01
-2.694370e-01
-2.475350e-01
-2.802670e-01
5.406470e-01
5.469860e-01
4.519670e-01
4.678730e-01
-2.694370e-01
-2.517590e-01
-2.802670e-01
-3.374330e-01
5.469860e-01
5.444490e-01
-2.905520e-01
-2.694370e-01
8.903570e-02
1.539000e-01
5.406470e-01
5.469860e-01
3.684730e-02
-2.763230e-02
-2.694370e-01
-2.517590e-01
1.539000e-01
2.130870e-01
5.469860e-01
5.444490e-01
-2.763230e-02
-9.873390e-02
8.903570e-02
1.539000e-01
-4.469480e-01
-5.001490e-01
3.684730e-02
-2.763230e-02
2.195830e-01
3.316480e-01
1.539000e-01
2.130870e-01
-5.001490e-01
-5.552940e-01
-2.763230e-02
-9.873390e-02
3.316480e-01
4.569420e-01
-4.469480e-01
-5.001490e-01
2.467360e-01
2.131500e-01
2.195830e-01
3.316480e-01
-4.881420e-01
-3.368750e-01
-5.001490e-01
-5.552940e-01
2.131500e-01
1.691680e-01
3.316480e-01
4.569420e-01
-3.368750e-01
-1.521400e-01
2.467360e-01
2.131500e-01
1.616910e-02
-2.952510e-02
-4.881420e-01
-3.368750e-01
-2.768950e-01
-1.900070e-01
2.131500e-01
1.691680e-01
-2.952510e-02
-7.696010e-02
-3.368750e-01
-1.521400e-01
-1.900070e-01
-9.089990e-02
1.616910e-02
-2.952510e-02
-2.925600e-01
-2.403760e-01
-2.768950e-01
-1.900070e-01
5.722370e-01
4.657050e-01
-2.952510e-02
-7.696010e-02
-2.403760e-01
-1.926760e-01
-1.900070e-01
-9.089990e-02
4.657050e-01
3.342880e-01
-2.925600e-01
-2.403760e-01
3.149010e-01
3.443600e-01
5.722370e-01
4.657050e-01
-4.769020e-01
-4.855790e-01
-2.403760e-01
-1.926760e-01
3.443600e-01
3.693860e-01
4.657050e-01
3.342880e-01
-4.855790e-01
-4.640950e-01
3.149010e-01
3.443600e-01
2.433830e-01
1.839420e-01
-4.769020e-01
-4.855790e-01
-2.301130e-01
-1.451160e-01
3.443600e-01
3.693860e-01
1.839420e-01
1.237580e-01
-4.855790e-01
-4.640950e-01
-1.451160e-01
-7.311310e-02
2.433830e-01
1.839420e-01
2.818470e-03
3.520900e-02
-2.301130e-01
-1.451160e-01
-2.629540e-01
-2.856950e-01
1.839420e-01
1.237580e-01
3.520900e-02
8.443760e-02
-1.451160e-01
-7.311310e-02
-2.856950e-01
-3.412330e-01
2.818470e-03
3.520900e-02
-1.118150e-01
-6.899720e-02
-2.629540e-01
-2.856950e-01
1.069060e-01
6.597190e-02
3.520900e-02
8.443760e-02
-6.899720e-02
-4.592850e-02
-2.856950e-01
-3.412330e-01
6.597190e-02
2.743790e-02
-1.118150e-01
-6.899720e-02
4.069150e-02
-1.059570e-01
1.069060e-01
6.597190e-02
6.261310e-02
1.449190e-01
-6.899720e-02
-4.592850e-02
-1.059570e-01
-2.311860e-01
6.597190e-02
2.743790e-02
1.449190e-01
2.264480e-01
4.069150e-02
-1.059570e-01
1.697950e-01
1.271840e-01
6.261310e-02
1.449190e-01
-3.878450e-01
-3.866630e-01
-1.059570e-01
-2.311860e-01
1.271840e-01
6.577730e-02
1.449190e-01
2.264480e-01
-3.866630e-01
-3.561960e-01
1.697950e-01
1.271840e-01
3.468010e-01
2.292360e-01
-3.878450e-01
-3.866630e-01
-1.198170e-01
-4.141670e-02
1.271840e-01
6.577730e-02
2.292360e-01
1.317500e-01
-3.866630e-01
-3.561960e-01
-4.141670e-02
3.349120e-02
3.468010e-01
2.292360e-01
-4.028460e-01
-3.652240e-01
-1.198170e-01
-4.141670e-02
3.576600e-01
3.810970e-01
2.292360e-01
1.317500e-01
-3.652240e-01
-3.492330e-01
-4.141670e-02
3.349120e-02
3.810970e-01
4.521890e-01
-4.028460e-01
-3.652240e-01
1.450020e-01
1.512570e-01
3.576600e-01
3.810970e-01
-3.102570e-01
-3.489800e-01
-3.652240e-01
-3.492330e-01
1.512570e-01
1.810270e-01
3.810970e-01
4.521890e-01
-3.489800e-01
-4.178090e-01
1.450020e-01
1.512570e-01
-1.190490e-01
-1.384050e-02
-3.102570e-01
-3.489800e-01
3.507240e-02
-1.639340e-02
1.512570e-01
1.810270e-01
-1.384050e-02
6.819290e-02
-3.489800e-01
-4.178090e-01
-1.639340e-02
-6.957930e-02
-1.190490e-01
-1.384050e-02
-1.888520e-02
-8.772300e-03
3.507240e-02
-1.639340e-02
1.054560e-01
9.475090e-02
-1.384050e-02
6.819290e-02
-8.772300e-03
1.959690e-03
-1.639340e-02
-6.957930e-02
9.475090e-02
8.429020e-02
-1.888520e-02
-8.772300e-03
9.435850e-02
8.562780e-02
1.054560e-01
9.475090e-02
-2.216590e-01
-1.958210e-01
-8.772300e-03
1.959690e-03
8.562780e-02
7.565860e-02
9.475090e-02
8.429020e-02
-1.958210e-01
-1.722870e-01
9.435850e-02
8.562780e-02
-2.145730e-01
-2.412640e-01
-2.216590e-01
-1.958210e-01
4.883730e-01
5.125660e-01
8.562780e-02
7.565860e-02
-2.412640e-01
-2.931470e-01
-1.958210e-01
-1.722870e-01
5.125660e-01
5.501700e-01
-2.145730e-01
-2.412640e-01
1.139540e-01
3.802280e-02
4.883730e-01
5.125660e-01
-3.662860e-01
-2.578790e-01
-2.412640e-01
-2.931470e-01
3.802280e-02
-2.251720e-02
5.125660e-01
5.501700e-01
-2.578790e-01
-1.700950e-01
1.139540e-01
3.802280e-02
2.245270e-01
1.489100e-01
-3.662860e-01
-2.578790e-01
-7.740330e-02
1.796910e-03
3.802280e-02
-2.251720e-02
1.489100e-01
3.817720e-02
-2.578790e-01
-1.700950e-01
1.796910e-03
1.368350e-01
2.245270e-01
1.489100e-01
-2.206360e-01
-1.880700e-01
-7.740330e-02
1.796910e-03
1.755100e-01
2.387570e-01
1.489100e-01
3.817720e-02
-1.880700e-01
-1.218990e-01
1.796910e-03
1.368350e-01
2.387570e-01
2.665840e-01
-2.206360e-01
-1.880700e-01
2.645610e-01
2.373620e-01
1.755100e-01
2.387570e-01
-2.170930e-01
-2.629190e-01
-1.880700e-01
-1.218990e-01
2.373620e-01
1.755390e-01
2.387570e-01
2.665840e-01
-2.629190e-01
-2.810730e-01
</DataArray>
<DataArray type="Float32" Name="V2" format="ascii">
0.000000e+00
0.000000e+00
-5.616280e-01
-5.416700e-01
0.000000e+00
0.000000e+00
3.000460e-01
4.657760e-01
0.000000e+00
0.000000e+00
-5.416700e-01
-6.196480e-01
0.000000e+00
0.000000e+00
4.657760e-01
8.552940e-01
-5.616280e-01
-5.416700e-01
-1.002790e-01
-8.664720e-02
3.000460e-01
4.657760e-01
4.155320e-02
2.905390e-01
-5.416700e-01
-6.196480e-01
-8.664720e-02
1.540060e-01
4.657760e-01
8.552940e-01
2.905390e-01
3.064110e-01
-1.002790e-01
-8.664720e-02
7.990490e-01
6.790890e-01
4.155320e-02
2.905390e-01
-6.256100e-01
-6.442110e-01
-8.664720e-02
1.540060e-01
6.790890e-01
3.084810e-01
2.905390e-01
3.064110e-01
-6.442110e-01
-2.123800e-01
7.990490e-01
6.790890e-01
-9.165320e-01
-3.759280e-01
-6.256100e-01
-6.442110e-01
5.378670e-01
2.932570e-01
6.790890e-01
3.084810e-01
-3.759280e-01
-9.678010e-03
-6.442110e-01
-2.123800e-01
2.932570e-01
1.523580e-01
-9.165320e-01
-3.759280e-01
2.416300e-01
3.615230e-02
5.378670e-01
2.932570e-01
-5.343910e-01
-9.850150e-02
-3.759280e-01
-9.678010e-03
3.615230e-02
-2.077970e-01
2.932570e-01
1.523580e-01
-9.850150e-02
3.802820e-01
2.416300e-01
3.615230e-02
4.186920e-01
9.546770e-02
-5.343910e-01
-9.850150e-02
-5.320180e-01
-1.256280e-01
3.615230e-02
-2.077970e-01
9.546770e-02
-4.106680e-02
-9.850150e-02
3.802820e-01
-1.256280e-01
2.889800e-01
4.186920e-01
9.546770e-02
4.319140e-01
-1.348760e-02
-5.320180e-01
-1.256280e-01
-3.216940e-02
1.870880e-02
9.546770e-02
-4.106680e-02
-1.348760e-02
-6.641610e-01
-1.256280e-01
2.889800e-01
1.870880e-02
3.705130e-01
4.319140e-01
-1.348760e-02
-1.061270e-01
-8.471480e-02
-3.216940e-02
1.870880e-02
1.912980e-01
6.368000e-02
-1.348760e-02
-6.641610e-01
-8.471480e-02
-4.202980e-01
1.870880e-02
3.705130e-01
6.368000e-02
2.219240e-01
-1.061270e-01
-8.471480e-02
1.490440e-01
-5.877320e-03
1.912980e-01
6.368000e-02
4.510600e-01
9.697300e-02
-8.471480e-02
-4.202980e-01
-5.877320e-03
4.019360e-01
6.368000e-02
2.219240e-01
9.697300e-02
-7.271210e-01
1.490440e-01
-5.877320e-03
-7.284050e-01
-4.701920e-01
4.510600e-01
9.697300e-02
7.000990e-01
4.272430e-01
-5.877320e-03
4.019360e-01
-4.701920e-01
-3.944880e-01
9.697300e-02
-7.271210e-01
4.272430e-01
1.462110e-01
-7.284050e-01
-4.701920e-01
-1.743290e-01
-2.755420e-01
7.000990e-01
4.272430e-01
7.199840e-02
2.221830e-01
-4.701920e-01
-3.944880e-01
-2.755420e-01
-1.418740e-01
4.272430e-01
1.462110e-01
2.221830e-01
2.266010e-01
-1.743290e-01
-2.755420e-01
7.262530e-01
7.065590e-01
7.199840e-02
2.221830e-01
-5.377740e-01
-6.531510e-01
-2.755420e-01
-1.418740e-01
7.065590e-01
8.841480e-01
2.221830e-01
2.266010e-01
-6.531510e-01
-6.410940e-01
7.262530e-01
7.065590e-01
-8.083690e-01
-1.744270e-02
-5.377740e-01
-6.531510e-01
7.355750e-01
3.671000e-01
7.065590e-01
8.841480e-01
-1.744270e-02
1.970720e-01
-6.531510e-01
-6.410940e-01
3.671000e-01
-1.072810e-01
-8.083690e-01
-1.744270e-02
1.881000e-01
9.845350e-02
7.355750e-01
3.671000e-01
-4.290160e-01
-2.524680e-01
-1.744270e-02
1.970720e-01
9.845350e-02
1.699840e-01
3.671000e-01
-1.072810e-01
-2.524680e-01
-1.813090e-01
1.881000e-01
9.845350e-02
-1.680040e-01
-5.650640e-02
-4.290160e-01
-2.524680e-01
3.013490e-01
-1.594030e-01
9.845350e-02
1.699840e-01
-5.650640e-02
3.388530e-01
-2.524680e-01
-1.813090e-01
-1.594030e-01
-7.924070e-01
-1.680040e-01
-5.650640e-02
1.591370e-02
-7.674260e-01
3.013490e-01
-1.594030e-01
1.247800e-01
4.061980e-01
-5.650640e-02
3.388530e-01
-7.674260e-01
-1.206620e+00
-1.594030e-01
-7.924070e-01
4.061980e-01
7.135860e-01
1.591370e-02
-7.674260e-01
-1.222370e-01
-1.367750e-02
1.247800e-01
4.061980e-01
-1.028170e-02
-1.085210e-01
-7.674260e-01
-1.206620e+00
-1.367750e-02
3.037110e-01
4.061980e-01
7.135860e-01
-1.085210e-01
-4.687370e-01
-1.222370e-01
-1.367750e-02
-2.492430e-02
4.834910e-01
-1.028170e-02
-1.085210e-01
-1.450490e-01
-3.179410e-01
-1.367750e-02
3.037110e-01
4.834910e-01
6.888140e-01
-1.085210e-01
-4.687370e-01
-3.179410e-01
-3.970120e-01
-2.492430e-02
4.834910e-01
3.648020e-01
-6.418120e-02
-1.450490e-01
-3.179410e-01
-4.600960e-01
2.495310e-02
4.834910e-01
6.888140e-01
-6.418120e-02
-3.349820e-01
-3.179410e-01
-3.970120e-01
2.495310e-02
3.976870e-01
3.648020e-01
-6.418120e-02
-4.086380e-01
-3.567690e-01
-4.600960e-01
2.495310e-02
6.687960e-01
3.559480e-01
-6.418120e-02
-3.349820e-01
-3.567690e-01
-2.718660e-01
2.495310e-02
3.976870e-01
3.559480e-01
-2.036940e-02
-4.086380e-01
-3.567690e-01
1.062880e-01
2.235110e-01
6.687960e-01
3.559480e-01
4.836870e-02
-1.427970e-01
-3.567690e-01
-2.718660e-01
2.235110e-01
8.815670e-02
3.559480e-01
-2.036940e-02
-1.427970e-01
1.539720e-01
1.062880e-01
2.235110e-01
-3.524910e-01
3.455340e-02
4.836870e-02
-1.427970e-01
2.924660e-02
1.220780e-01
2.235110e-01
8.815670e-02
3.455340e-02
-3.104070e-01
-1.427970e-01
1.539720e-01
1.220780e-01
5.322940e-01
-3.524910e-01
3.455340e-02
5.098330e-01
-2.188740e-02
2.924660e-02
1.220780e-01
-3.649590e-01
-1.206140e-01
3.455340e-02
-3.104070e-01
-2.188740e-02
-2.562100e-01
1.220780e-01
5.322940e-01
-1.206140e-01
1.805430e-01
5.098330e-01
-2.188740e-02
-5.270720e-01
-4.070390e-02
-3.649590e-01
-1.206140e-01
1.873250e-01
6.392820e-02
-2.188740e-02
-2.562100e-01
-4.070390e-02
1.064640e-01
-1.206140e-01
1.805430e-01
6.392820e-02
3.238480e-01
-5.270720e-01
-4.070390e-02
1.446700e-01
4.533120e-01
1.873250e-01
6.392820e-02
-1.495160e-01
-2.540410e-01
-4.070390e-02
1.064640e-01
4.533120e-01
4.056450e-01
6.392820e-02
3.238480e-01
-2.540410e-01
-3.571830e-01
1.446700e-01
4.533120e-01
-1.418720e-01
2.211660e-01
-1.495160e-01
-2.540410e-01
-3.014760e-02
-1.485970e-01
4.533120e-01
4.056450e-01
2.211660e-01
8.673390e-01
-2.540410e-01
-3.571830e-01
-1.485970e-01
-4.289100e-01
-1.418720e-01
2.211660e-01
-9.405050e-01
-5.212870e-02
-3.014760e-02
-1.485970e-01
6.892100e-01
1.837000e-02
2.211660e-01
8.673390e-01
-5.212870e-02
7.345710e-01
-1.485970e-01
-4.289100e-01
1.837000e-02
-4.570680e-01
-9.405050e-01
-5.212870e-02
-1.240250e-01
-5.639470e-03
6.892100e-01
1.837000e-02
-1.025020e-01
-5.801040e-02
-5.212870e-02
7.345710e-01
-5.639470e-03
5.755910e-01
1.837000e-02
-4.570680e-01
-5.801040e-02
-4.582330e-01
-1.240250e-01
-5.639470e-03
3.809930e-01
1.779190e-01
-1.025020e-01
-5.801040e-02
-5.768100e-01
-1.571170e-01
-5.639470e-03
5.755910e-01
1.779190e-01
-1.609930e-01
-5.801040e-02
-4.582330e-01
-1.571170e-01
3.799540e-01
3.809930e-01
1.779190e-01
-1.504660e-01
-1.536760e-02
-5.768100e-01
-1.571170e-01
4.723000e-01
1.114020e-01
1.779190e-01
-1.609930e-01
-1.536760e-02
7.081230e-02
-1.571170e-01
3.799540e-01
1.114020e-01
-3.419880e-01
0.000000e+00
0.000000e+00
3.000460e-01
4.657760e-01
0.000000e+00
0.000000e+00
-1.719640e-01
-2.889130e-01
0.000000e+00
0.000000e+00
4.657760e-01
8.552940e-01
0.000000e+00
0.000000e+00
-2.889130e-01
-1.117720e+00
3.000460e-01
4.657760e-01
4.155320e-02
2.905390e-01
-1.719640e-01
-2.889130e-01
1.365580e-01
-5.756410e-01
4.657760e-01
8.552940e-01
2.905390e-01
3.064110e-01
-2.889130e-01
-1.117720e+00
-5.756410e-01
-6.616270e-01
4.155320e-02
2.905390e-01