<?xml version="1.0"?>
<!-- time 16174.4-->
<VTKFile type="UnstructuredGrid" version="0.1" byte_order="LittleEndian">
<UnstructuredGrid>
<Piece NumberOfPoints="2" NumberOfCells="0">
<Points>
  <DataArray type="Float32" Name="Position" NumberOfComponents="3" format="ascii">
	210.402 -3842.12 500.763
	-203.724 -3843.56 498.825
  </DataArray>
</Points>
<PointData  Vectors="vector">
  <DataArray type="Float32" Name="Velocity" NumberOfComponents="3" format="ascii">
 0.00197496 0.169371 0.111084
 0.000101606 0.169011 -0.0628028
  </DataArray>
  <DataArray type="Float32" Name="Radius" format="ascii">
	100
	100
  </DataArray>
  <DataArray type="Float32" Name="speciesType" format="ascii">
	0
	0
  </DataArray>
</PointData>
<Cells>
  <DataArray type="Int32" Name="connectivity" format="ascii">
  </DataArray>
  <DataArray type="Int32" Name="offsets" format="ascii">
  </DataArray>
  <DataArray type="UInt8"  Name="types" format="ascii">
  </DataArray>
</Cells>
</Piece>
</UnstructuredGrid>
</VTKFile>
