<?xml version="1.0"?>
<VTKFile type="UnstructuredGrid" version="0.1" byte_order="LittleEndian" compressor="vtkZLibDataCompressor">
<UnstructuredGrid>
<Piece NumberOfPoints="960" NumberOfCells="120">
<Points>
<DataArray type="Float32" NumberOfComponents="3" format="ascii">
-4.000000e+02 -6.000000e+03 -4.000000e+02
0.000000e+00 -6.000000e+03 -4.000000e+02
-3.998970e+02 -5.600930e+03 -3.995730e+02
2.965610e-01 -5.601110e+03 -3.998790e+02
-4.000000e+02 -6.000000e+03 0.000000e+00
0.000000e+00 -6.000000e+03 0.000000e+00
-3.997280e+02 -5.599690e+03 -6.687760e-01
1.033670e-01 -5.599650e+03 -6.882090e-01
0.000000e+00 -6.000000e+03 -4.000000e+02
4.000000e+02 -6.000000e+03 -4.000000e+02
2.965610e-01 -5.601110e+03 -3.998790e+02
4.004800e+02 -5.601110e+03 -3.995810e+02
0.000000e+00 -6.000000e+03 0.000000e+00
4.000000e+02 -6.000000e+03 0.000000e+00
1.033670e-01 -5.599650e+03 -6.882090e-01
3.999380e+02 -5.599610e+03 -2.664860e-01
-3.998970e+02 -5.600930e+03 -3.995730e+02
2.965610e-01 -5.601110e+03 -3.998790e+02
-3.993920e+02 -5.200840e+03 -4.020090e+02
6.552510e-01 -5.200960e+03 -4.018030e+02
-3.997280e+02 -5.599690e+03 -6.687760e-01
1.033670e-01 -5.599650e+03 -6.882090e-01
-4.000560e+02 -5.200200e+03 -1.617270e+00
-4.632740e-02 -5.200080e+03 -8.232360e-01
2.965610e-01 -5.601110e+03 -3.998790e+02
4.004800e+02 -5.601110e+03 -3.995810e+02
6.552510e-01 -5.200960e+03 -4.018030e+02
4.007040e+02 -5.201130e+03 -4.010570e+02
1.033670e-01 -5.599650e+03 -6.882090e-01
3.999380e+02 -5.599610e+03 -2.664860e-01
-4.632740e-02 -5.200080e+03 -8.232360e-01
3.999390e+02 -5.199940e+03 3.842430e-01
-3.993920e+02 -5.200840e+03 -4.020090e+02
6.552510e-01 -5.200960e+03 -4.018030e+02
-3.991980e+02 -4.800550e+03 -4.033750e+02
8.859090e-01 -4.801150e+03 -4.026510e+02
-4.000560e+02 -5.200200e+03 -1.617270e+00
-4.632740e-02 -5.200080e+03 -8.232360e-01
-3.999570e+02 -4.800390e+03 -2.586270e+00
2.889460e-02 -4.799970e+03 -1.895350e+00
6.552510e-01 -5.200960e+03 -4.018030e+02
4.007040e+02 -5.201130e+03 -4.010570e+02
8.859090e-01 -4.801150e+03 -4.026510e+02
4.009760e+02 -4.801600e+03 -4.019010e+02
-4.632740e-02 -5.200080e+03 -8.232360e-01
3.999390e+02 -5.199940e+03 3.842430e-01
2.889460e-02 -4.799970e+03 -1.895350e+00
4.000280e+02 -4.799690e+03 -1.358880e+00
-3.991980e+02 -4.800550e+03 -4.033750e+02
8.859090e-01 -4.801150e+03 -4.026510e+02
-3.990320e+02 -4.400920e+03 -4.044040e+02
8.288710e-01 -4.401080e+03 -4.041110e+02
-3.999570e+02 -4.800390e+03 -2.586270e+00
2.889460e-02 -4.799970e+03 -1.895350e+00
-4.000690e+02 -4.400240e+03 -2.878960e+00
-9.046220e-04 -4.400160e+03 -2.457160e+00
8.859090e-01 -4.801150e+03 -4.026510e+02
4.009760e+02 -4.801600e+03 -4.019010e+02
8.288710e-01 -4.401080e+03 -4.041110e+02
4.006890e+02 -4.400780e+03 -4.033090e+02
2.889460e-02 -4.799970e+03 -1.895350e+00
4.000280e+02 -4.799690e+03 -1.358880e+00
-9.046220e-04 -4.400160e+03 -2.457160e+00
4.000510e+02 -4.400210e+03 -2.222000e+00
-3.990320e+02 -4.400920e+03 -4.044040e+02
8.288710e-01 -4.401080e+03 -4.041110e+02
-3.992170e+02 -4.000940e+03 -4.043990e+02
8.307050e-01 -4.000910e+03 -4.031270e+02
-4.000690e+02 -4.400240e+03 -2.878960e+00
-9.046220e-04 -4.400160e+03 -2.457160e+00
-4.001390e+02 -4.000230e+03 -5.117460e+00
-1.657150e-01 -4.000240e+03 -4.648790e+00
8.288710e-01 -4.401080e+03 -4.041110e+02
4.006890e+02 -4.400780e+03 -4.033090e+02
8.307050e-01 -4.000910e+03 -4.031270e+02
4.008560e+02 -4.000730e+03 -4.019200e+02
-9.046220e-04 -4.400160e+03 -2.457160e+00
4.000510e+02 -4.400210e+03 -2.222000e+00
-1.657150e-01 -4.000240e+03 -4.648790e+00
3.998240e+02 -4.000210e+03 -4.056000e+00
-3.992170e+02 -4.000940e+03 -4.043990e+02
8.307050e-01 -4.000910e+03 -4.031270e+02
-3.993810e+02 -3.601360e+03 -4.058530e+02
8.194320e-01 -3.601300e+03 -4.055210e+02
-4.001390e+02 -4.000230e+03 -5.117460e+00
-1.657150e-01 -4.000240e+03 -4.648790e+00
-4.001440e+02 -3.599960e+03 -6.749190e+00
-3.016580e-01 -3.600090e+03 -5.572360e+00
8.307050e-01 -4.000910e+03 -4.031270e+02
4.008560e+02 -4.000730e+03 -4.019200e+02
8.194320e-01 -3.601300e+03 -4.055210e+02
4.010170e+02 -3.601290e+03 -4.044160e+02
-1.657150e-01 -4.000240e+03 -4.648790e+00
3.998240e+02 -4.000210e+03 -4.056000e+00
-3.016580e-01 -3.600090e+03 -5.572360e+00
3.995310e+02 -3.600200e+03 -4.293620e+00
-3.993810e+02 -3.601360e+03 -4.058530e+02
8.194320e-01 -3.601300e+03 -4.055210e+02
-3.994870e+02 -3.201680e+03 -4.079420e+02
4.706690e-01 -3.201730e+03 -4.070470e+02
-4.001440e+02 -3.599960e+03 -6.749190e+00
-3.016580e-01 -3.600090e+03 -5.572360e+00
-3.998550e+02 -3.199880e+03 -7.832250e+00
3.503630e-02 -3.199940e+03 -6.993900e+00
8.194320e-01 -3.601300e+03 -4.055210e+02
4.010170e+02 -3.601290e+03 -4.044160e+02
4.706690e-01 -3.201730e+03 -4.070470e+02
4.004290e+02 -3.201950e+03 -4.062990e+02
-3.016580e-01 -3.600090e+03 -5.572360e+00
3.995310e+02 -3.600200e+03 -4.293620e+00
3.503630e-02 -3.199940e+03 -6.993900e+00
3.999360e+02 -3.199940e+03 -6.370310e+00
-3.994870e+02 -3.201680e+03 -4.079420e+02
4.706690e-01 -3.201730e+03 -4.070470e+02
-3.993710e+02 -2.801960e+03 -4.103270e+02
5.099970e-01 -2.801680e+03 -4.086140e+02
-3.998550e+02 -3.199880e+03 -7.832250e+00
3.503630e-02 -3.199940e+03 -6.993900e+00
-4.002920e+02 -2.799840e+03 -9.051390e+00
-2.281990e-01 -2.800030e+03 -9.017570e+00
4.706690e-01 -3.201730e+03 -4.070470e+02
4.004290e+02 -3.201950e+03 -4.062990e+02
5.099970e-01 -2.801680e+03 -4.086140e+02
4.004150e+02 -2.801610e+03 -4.067810e+02
3.503630e-02 -3.199940e+03 -6.993900e+00
3.999360e+02 -3.199940e+03 -6.370310e+00
-2.281990e-01 -2.800030e+03 -9.017570e+00
3.998090e+02 -2.800080e+03 -9.331490e+00
-3.993710e+02 -2.801960e+03 -4.103270e+02
5.099970e-01 -2.801680e+03 -4.086140e+02
-3.997800e+02 -2.401640e+03 -4.106860e+02
6.334560e-02 -2.401570e+03 -4.103670e+02
-4.002920e+02 -2.799840e+03 -9.051390e+00
-2.281990e-01 -2.800030e+03 -9.017570e+00
-4.002180e+02 -2.400120e+03 -9.963770e+00
-9.367380e-02 -2.400080e+03 -1.003780e+01
5.099970e-01 -2.801680e+03 -4.086140e+02
4.004150e+02 -2.801610e+03 -4.067810e+02
6.334560e-02 -2.401570e+03 -4.103670e+02
3.998880e+02 -2.401700e+03 -4.099910e+02
-2.281990e-01 -2.800030e+03 -9.017570e+00
3.998090e+02 -2.800080e+03 -9.331490e+00
-9.367380e-02 -2.400080e+03 -1.003780e+01
4.000480e+02 -2.399950e+03 -1.000990e+01
-3.997800e+02 -2.401640e+03 -4.106860e+02
6.334560e-02 -2.401570e+03 -4.103670e+02
-3.995200e+02 -2.002260e+03 -4.130900e+02
5.549690e-01 -2.002140e+03 -4.120630e+02
-4.002180e+02 -2.400120e+03 -9.963770e+00
-9.367380e-02 -2.400080e+03 -1.003780e+01
-4.001880e+02 -1.999730e+03 -1.243720e+01
-2.196030e-01 -1.999870e+03 -1.238560e+01
6.334560e-02 -2.401570e+03 -4.103670e+02
3.998880e+02 -2.401700e+03 -4.099910e+02
5.549690e-01 -2.002140e+03 -4.120630e+02
4.006200e+02 -2.002260e+03 -4.109760e+02
-9.367380e-02 -2.400080e+03 -1.003780e+01
4.000480e+02 -2.399950e+03 -1.000990e+01
-2.196030e-01 -1.999870e+03 -1.238560e+01
3.997410e+02 -1.999820e+03 -1.242540e+01
-3.995200e+02 -2.002260e+03 -4.130900e+02
5.549690e-01 -2.002140e+03 -4.120630e+02
-3.994170e+02 -1.602850e+03 -4.151750e+02
4.279690e-01 -1.602720e+03 -4.149940e+02
-4.001880e+02 -1.999730e+03 -1.243720e+01
-2.196030e-01 -1.999870e+03 -1.238560e+01
-4.000980e+02 -1.599890e+03 -1.522930e+01
-8.489740e-02 -1.599810e+03 -1.455400e+01
5.549690e-01 -2.002140e+03 -4.120630e+02
4.006200e+02 -2.002260e+03 -4.109760e+02
4.279690e-01 -1.602720e+03 -4.149940e+02
4.002750e+02 -1.602370e+03 -4.151690e+02
-2.196030e-01 -1.999870e+03 -1.238560e+01
3.997410e+02 -1.999820e+03 -1.242540e+01
-8.489740e-02 -1.599810e+03 -1.455400e+01
3.999140e+02 -1.599950e+03 -1.403170e+01
-3.994170e+02 -1.602850e+03 -4.151750e+02
4.279690e-01 -1.602720e+03 -4.149940e+02
-3.997850e+02 -1.202340e+03 -4.182240e+02
1.351490e-01 -1.202400e+03 -4.172670e+02
-4.000980e+02 -1.599890e+03 -1.522930e+01
-8.489740e-02 -1.599810e+03 -1.455400e+01
-4.001320e+02 -1.200370e+03 -1.790800e+01
-8.679340e-02 -1.200320e+03 -1.783290e+01
4.279690e-01 -1.602720e+03 -4.149940e+02
4.002750e+02 -1.602370e+03 -4.151690e+02
1.351490e-01 -1.202400e+03 -4.172670e+02
4.000540e+02 -1.202160e+03 -4.165600e+02
-8.489740e-02 -1.599810e+03 -1.455400e+01
3.999140e+02 -1.599950e+03 -1.403170e+01
-8.679340e-02 -1.200320e+03 -1.783290e+01
3.999620e+02 -1.200420e+03 -1.776770e+01
-3.997850e+02 -1.202340e+03 -4.182240e+02
1.351490e-01 -1.202400e+03 -4.172670e+02
-3.997780e+02 -8.023010e+02 -4.195240e+02
2.041640e-01 -8.024660e+02 -4.190940e+02
-4.001320e+02 -1.200370e+03 -1.790800e+01
-8.679340e-02 -1.200320e+03 -1.783290e+01
-4.000030e+02 -8.001010e+02 -1.978880e+01
-4.856910e-02 -8.002240e+02 -1.974140e+01
1.351490e-01 -1.202400e+03 -4.172670e+02
4.000540e+02 -1.202160e+03 -4.165600e+02
2.041640e-01 -8.024660e+02 -4.190940e+02
4.001900e+02 -8.027610e+02 -4.183360e+02
-8.679340e-02 -1.200320e+03 -1.783290e+01
3.999620e+02 -1.200420e+03 -1.776770e+01
-4.856910e-02 -8.002240e+02 -1.974140e+01
3.999000e+02 -8.001550e+02 -1.962500e+01
-3.997780e+02 -8.023010e+02 -4.195240e+02
2.041640e-01 -8.024660e+02 -4.190940e+02
-3.997500e+02 -4.024930e+02 -4.219770e+02
3.627830e-01 -4.028160e+02 -4.215790e+02
-4.000030e+02 -8.001010e+02 -1.978880e+01
-4.856910e-02 -8.002240e+02 -1.974140e+01
-4.002220e+02 -3.998490e+02 -2.182680e+01
-3.590480e-01 -3.997550e+02 -2.259860e+01
2.041640e-01 -8.024660e+02 -4.190940e+02
4.001900e+02 -8.027610e+02 -4.183360e+02
3.627830e-01 -4.028160e+02 -4.215790e+02
4.004520e+02 -4.031510e+02 -4.203740e+02
-4.856910e-02 -8.002240e+02 -1.974140e+01
3.999000e+02 -8.001550e+02 -1.962500e+01
-3.590480e-01 -3.997550e+02 -2.259860e+01
3.995010e+02 -3.995640e+02 -2.361000e+01
-3.997500e+02 -4.024930e+02 -4.219770e+02
3.627830e-01 -4.028160e+02 -4.215790e+02
-4.004250e+02 -2.217120e+00 -4.241720e+02
-2.645880e-01 -2.511650e+00 -4.251730e+02
-4.002220e+02 -3.998490e+02 -2.182680e+01
-3.590480e-01 -3.997550e+02 -2.259860e+01
-3.995710e+02 -3.577170e-01 -2.423820e+01
3.436480e-01 -5.791120e-02 -2.407920e+01
3.627830e-01 -4.028160e+02 -4.215790e+02
4.004520e+02 -4.031510e+02 -4.203740e+02
[...]
<PointData>
<DataArray type="Float32" Name="V1" format="ascii">
0.000000e+00
0.000000e+00
-2.447430e-01
-8.372410e-02
0.000000e+00
0.000000e+00
3.369680e-01
1.078690e-01
0.000000e+00
0.000000e+00
-8.372410e-02
-1.759660e-02
0.000000e+00
0.000000e+00
1.078690e-01
-9.413870e-02
-2.447430e-01
-8.372410e-02
-1.176260e-01
-3.567570e-01
3.369680e-01
1.078690e-01
1.549130e-01
2.885440e-01
-8.372410e-02
-1.759660e-02
-3.567570e-01
-6.076600e-01
1.078690e-01
-9.413870e-02
2.885440e-01
4.309490e-01
-1.176260e-01
-3.567570e-01
1.211620e-01
3.088320e-02
1.549130e-01
2.885440e-01
2.960820e-02
3.616170e-02
-3.567570e-01
-6.076600e-01
3.088320e-02
-1.401110e-01
2.885440e-01
4.309490e-01
3.616170e-02
5.803020e-02
1.211620e-01
3.088320e-02
1.251360e-01
1.534260e-01
2.960820e-02
3.616170e-02
1.642580e-01
7.576110e-02
3.088320e-02
-1.401110e-01
1.534260e-01
1.786900e-01
3.616170e-02
5.803020e-02
7.576110e-02
7.592190e-03
1.251360e-01
1.534260e-01
-3.385580e-01
-3.136040e-02
1.642580e-01
7.576110e-02
2.378760e-01
6.902290e-02
1.534260e-01
1.786900e-01
-3.136040e-02
2.513370e-01
7.576110e-02
7.592190e-03
6.902290e-02
-1.541950e-01
-3.385580e-01
-3.136040e-02
-8.368820e-02
7.719850e-02
2.378760e-01
6.902290e-02
2.749780e-01
2.070820e-01
-3.136040e-02
2.513370e-01
7.719850e-02
3.051330e-01
6.902290e-02
-1.541950e-01
2.070820e-01
1.764100e-01
-8.368820e-02
7.719850e-02
1.561130e-01
6.241100e-02
2.749780e-01
2.070820e-01
-1.889040e-01
-2.305280e-01
7.719850e-02
3.051330e-01
6.241100e-02
3.428700e-02
2.070820e-01
1.764100e-01
-2.305280e-01
-3.501940e-01
1.561130e-01
6.241100e-02
-7.797840e-02
-2.784900e-01
-1.889040e-01
-2.305280e-01
2.701010e-01
3.428700e-01
6.241100e-02
3.428700e-02
-2.784900e-01
-4.484120e-01
-2.305280e-01
-3.501940e-01
3.428700e-01
4.379050e-01
-7.797840e-02
-2.784900e-01
1.994130e-01
2.250920e-01
2.701010e-01
3.428700e-01
-2.637380e-01
-1.439560e-01
-2.784900e-01
-4.484120e-01
2.250920e-01
2.400400e-01
3.428700e-01
4.379050e-01
-1.439560e-01
-4.630930e-02
1.994130e-01
2.250920e-01
-1.907780e-01
-9.642150e-02
-2.637380e-01
-1.439560e-01
1.250340e-02
-1.621690e-02
2.250920e-01
2.400400e-01
-9.642150e-02
5.836440e-02
-1.439560e-01
-4.630930e-02
-1.621690e-02
-1.124530e-01
-1.907780e-01
-9.642150e-02
-3.099460e-01
-4.949270e-02
1.250340e-02
-1.621690e-02
-9.701900e-02
-1.103960e-01
-9.642150e-02
5.836440e-02
-4.949270e-02
1.608040e-01
-1.621690e-02
-1.124530e-01
-1.103960e-01
-8.748330e-02
-3.099460e-01
-4.949270e-02
-3.121130e-01
-1.291920e-01
-9.701900e-02
-1.103960e-01
2.464180e-01
1.457960e-01
-4.949270e-02
1.608040e-01
-1.291920e-01
5.868830e-02
-1.103960e-01
-8.748330e-02
1.457960e-01
-2.213690e-02
-3.121130e-01
-1.291920e-01
-2.417820e-01
-1.497840e-01
2.464180e-01
1.457960e-01
2.637210e-02
-9.912200e-03
-1.291920e-01
5.868830e-02
-1.497840e-01
3.020690e-02
1.457960e-01
-2.213690e-02
-9.912200e-03
-5.960770e-02
-2.417820e-01
-1.497840e-01
-2.242220e-01
-1.065210e-01
2.637210e-02
-9.912200e-03
1.430150e-01
1.310430e-01
-1.497840e-01
3.020690e-02
-1.065210e-01
-6.139010e-02
-9.912200e-03
-5.960770e-02
1.310430e-01
1.479320e-01
-2.242220e-01
-1.065210e-01
1.257160e-01
-8.702890e-02
1.430150e-01
1.310430e-01
-4.548510e-02
6.731690e-02
-1.065210e-01
-6.139010e-02
-8.702890e-02
-2.752660e-01
1.310430e-01
1.479320e-01
6.731690e-02
1.791500e-01
1.257160e-01
-8.702890e-02
-3.872540e-01
-2.813310e-01
-4.548510e-02
6.731690e-02
4.031020e-01
2.742740e-01
-8.702890e-02
-2.752660e-01
-2.813310e-01
-8.435760e-02
6.731690e-02
1.791500e-01
2.742740e-01
9.392300e-02
-3.872540e-01
-2.813310e-01
8.082140e-02
2.109620e-01
4.031020e-01
2.742740e-01
-1.495280e-02
-8.149680e-02
-2.813310e-01
-8.435760e-02
2.109620e-01
2.869510e-01
2.742740e-01
9.392300e-02
-8.149680e-02
-8.816260e-02
8.082140e-02
2.109620e-01
6.226300e-01
6.312380e-01
-1.495280e-02
-8.149680e-02
-5.402950e-01
-4.013770e-01
2.109620e-01
2.869510e-01
6.312380e-01
6.203310e-01
-8.149680e-02
-8.816260e-02
-4.013770e-01
-3.323480e-01
6.226300e-01
6.312380e-01
-4.661190e-01
-4.580700e-01
-5.402950e-01
-4.013770e-01
2.928740e-01
1.540690e-01
6.312380e-01
6.203310e-01
-4.580700e-01
-5.504980e-01
-4.013770e-01
-3.323480e-01
1.540690e-01
6.448770e-02
-4.661190e-01
-4.580700e-01
8.977650e-01
7.587580e-01
2.928740e-01
1.540690e-01
-3.790990e-01
-4.806150e-01
-4.580700e-01
-5.504980e-01
7.587580e-01
6.560800e-01
1.540690e-01
6.448770e-02
-4.806150e-01
-5.205300e-01
8.977650e-01
7.587580e-01
-3.606340e-01
-1.535390e-01
-3.790990e-01
-4.806150e-01
2.219960e-01
1.618160e-01
7.587580e-01
6.560800e-01
-1.535390e-01
-5.252030e-02
-4.806150e-01
-5.205300e-01
1.618160e-01
9.765130e-02
-3.606340e-01
-1.535390e-01
-5.298670e-01
-5.157460e-01
2.219960e-01
1.618160e-01
1.310540e-01
1.971440e-01
-1.535390e-01
-5.252030e-02
-5.157460e-01
-4.157550e-01
1.618160e-01
9.765130e-02
1.971440e-01
2.439110e-01
-5.298670e-01
-5.157460e-01
2.792960e-01
1.597330e-01
1.310540e-01
1.971440e-01
-3.393680e-01
-2.555040e-01
-5.157460e-01
-4.157550e-01
1.597330e-01
5.765930e-04
1.971440e-01
2.439110e-01
-2.555040e-01
-1.338270e-01
2.792960e-01
1.597330e-01
1.737140e-02
7.129040e-02
-3.393680e-01
-2.555040e-01
-1.739600e-01
-1.081980e-01
1.597330e-01
5.765930e-04
7.129040e-02
2.174310e-01
-2.555040e-01
-1.338270e-01
-1.081980e-01
-3.658810e-02
1.737140e-02
7.129040e-02
-2.773400e-01
-2.061330e-01
-1.739600e-01
-1.081980e-01
7.583070e-02
7.790280e-02
7.129040e-02
2.174310e-01
-2.061330e-01
-1.577110e-01
-1.081980e-01
-3.658810e-02
7.790280e-02
7.436820e-02
-2.773400e-01
-2.061330e-01
2.542360e-01
5.018950e-01
7.583070e-02
7.790280e-02
-1.343530e-01
-4.054590e-01
-2.061330e-01
-1.577110e-01
5.018950e-01
6.169380e-01
7.790280e-02
7.436820e-02
-4.054590e-01
-5.839010e-01
2.542360e-01
5.018950e-01
3.112810e-01
1.769110e-02
-1.343530e-01
-4.054590e-01
-7.019010e-02
6.534790e-02
5.018950e-01
6.169380e-01
1.769110e-02
-1.513880e-01
-4.054590e-01
-5.839010e-01
6.534790e-02
1.277940e-01
3.112810e-01
1.769110e-02
2.214040e-01
2.028880e-01
-7.019010e-02
6.534790e-02
-2.355910e-01
-2.305210e-01
1.769110e-02
-1.513880e-01
2.028880e-01
6.158170e-02
6.534790e-02
1.277940e-01
-2.305210e-01
-1.396780e-01
2.214040e-01
2.028880e-01
8.334140e-02
4.042420e-01
-2.355910e-01
-2.305210e-01
1.474990e-01
5.127460e-03
2.028880e-01
6.158170e-02
4.042420e-01
7.082950e-01
-2.305210e-01
-1.396780e-01
5.127460e-03
-7.811070e-02
8.334140e-02
4.042420e-01
-8.846990e-01
-6.322580e-01
1.474990e-01
5.127460e-03
7.458840e-01
4.548150e-01
4.042420e-01
7.082950e-01
-6.322580e-01
-3.588550e-01
5.127460e-03
-7.811070e-02
4.548150e-01
1.715020e-01
0.000000e+00
0.000000e+00
3.369680e-01
1.078690e-01
0.000000e+00
0.000000e+00
-3.800890e-01
-1.493030e-01
0.000000e+00
0.000000e+00
1.078690e-01
-9.413870e-02
0.000000e+00
0.000000e+00
-1.493030e-01
1.959780e-01
3.369680e-01
1.078690e-01
1.549130e-01
2.885440e-01
-3.800890e-01
-1.493030e-01
-1.389900e-01
-1.790540e-01
1.078690e-01
-9.413870e-02
2.885440e-01
4.309490e-01
-1.493030e-01
1.959780e-01
-1.790540e-01
-2.534910e-01
1.549130e-01
2.885440e-01
2.960820e-02
3.616170e-02
-1.389900e-01
-1.790540e-01
-2.258740e-01
-1.384670e-01
2.885440e-01
4.309490e-01
3.616170e-02
5.803020e-02
-1.790540e-01
-2.534910e-01
-1.384670e-01
2.752990e-02
2.960820e-02
3.616170e-02
1.642580e-01
7.576110e-02
-2.258740e-01
-1.384670e-01
-4.417100e-01
-3.226310e-01
3.616170e-02
5.803020e-02
7.576110e-02
7.592190e-03
-1.384670e-01
2.752990e-02
-3.226310e-01
-1.520970e-01
1.642580e-01
7.576110e-02
2.378760e-01
6.902290e-02
-4.417100e-01
-3.226310e-01
-4.977880e-02
-2.192920e-02
7.576110e-02
7.592190e-03
6.902290e-02
-1.541950e-01
-3.226310e-01
-1.520970e-01
-2.192920e-02
6.940820e-02
2.378760e-01
6.902290e-02
2.749780e-01
2.070820e-01
-4.977880e-02
-2.192920e-02
-4.652740e-01
-5.019380e-01
6.902290e-02
-1.541950e-01
2.070820e-01
1.764100e-01
-2.192920e-02
6.940820e-02
-5.019380e-01
-7.243980e-01
2.749780e-01
2.070820e-01
-1.889040e-01
-2.305280e-01
-4.652740e-01
-5.019380e-01
2.175710e-01
3.559350e-01
2.070820e-01
1.764100e-01
-2.305280e-01
-3.501940e-01
-5.019380e-01
-7.243980e-01
3.559350e-01
6.097770e-01
-1.889040e-01
-2.305280e-01
2.701010e-01
3.428700e-01
2.175710e-01
3.559350e-01
-3.649940e-01
-3.385720e-01
-2.305280e-01
-3.501940e-01
3.428700e-01
4.379050e-01
3.559350e-01
6.097770e-01
-3.385720e-01
-4.184670e-01
2.701010e-01
3.428700e-01
-2.637380e-01
-1.439560e-01
-3.649940e-01
-3.385720e-01
1.764370e-01
2.426350e-03
3.428700e-01
4.379050e-01
-1.439560e-01
-4.630930e-02
-3.385720e-01
-4.184670e-01
2.426350e-03
-1.902220e-01
-2.637380e-01
-1.439560e-01
1.250340e-02
-1.621690e-02
1.764370e-01
2.426350e-03
2.373010e-01
1.191040e-01
-1.439560e-01
-4.630930e-02
-1.621690e-02
-1.124530e-01
2.426350e-03
-1.902220e-01
1.191040e-01
1.149860e-01
1.250340e-02
-1.621690e-02
-9.701900e-02
-1.103960e-01
2.373010e-01
1.191040e-01
5.887930e-01
2.858150e-01
-1.621690e-02
-1.124530e-01
-1.103960e-01
-8.748330e-02
1.191040e-01
1.149860e-01
2.858150e-01
5.131750e-02
-9.701900e-02
-1.103960e-01
2.464180e-01
1.457960e-01
5.887930e-01
2.858150e-01
-1.753690e-01
-1.561870e-01
-1.103960e-01
-8.748330e-02
1.457960e-01
-2.213690e-02
2.858150e-01
5.131750e-02
-1.561870e-01
-1.152230e-01
2.464180e-01
1.457960e-01
2.637210e-02
-9.912200e-03
-1.753690e-01
-1.561870e-01
2.458830e-01
1.665010e-01
1.457960e-01
-2.213690e-02
-9.912200e-03
-5.960770e-02
-1.561870e-01
-1.152230e-01
1.665010e-01
5.981920e-02
2.637210e-02
-9.912200e-03
1.430150e-01
1.310430e-01
2.458830e-01
1.665010e-01
-1.044750e-01
-1.852030e-01
-9.912200e-03
-5.960770e-02
1.310430e-01
1.479320e-01
1.665010e-01
5.981920e-02
-1.852030e-01
-2.519230e-01
1.430150e-01
1.310430e-01
-4.548510e-02
6.731690e-02
-1.044750e-01
-1.852030e-01
-1.979900e-02
-2.421190e-02
1.310430e-01
1.479320e-01
6.731690e-02
1.791500e-01
-1.852030e-01
-2.519230e-01
-2.421190e-02
-8.281920e-02
-4.548510e-02
6.731690e-02
4.031020e-01
2.742740e-01
-1.979900e-02
-2.421190e-02
-4.860350e-01
-2.337180e-01
6.731690e-02
1.791500e-01
2.742740e-01
9.392300e-02
-2.421190e-02
-8.281920e-02
-2.337180e-01
-3.415760e-02
4.031020e-01
2.742740e-01
-1.495280e-02
-8.149680e-02
-4.860350e-01
-2.337180e-01
-5.707760e-03
-6.208010e-02
2.742740e-01
9.392300e-02
-8.149680e-02
-8.816260e-02
-2.337180e-01
-3.415760e-02
-6.208010e-02
-1.486370e-01
-1.495280e-02
-8.149680e-02
-5.402950e-01
-4.013770e-01
-5.707760e-03
-6.208010e-02
3.991490e-01
1.819760e-01
-8.149680e-02
-8.816260e-02
-4.013770e-01
-3.323480e-01
-6.208010e-02
-1.486370e-01
1.819760e-01
1.448410e-02
-5.402950e-01
-4.013770e-01
2.928740e-01
1.540690e-01
3.991490e-01
1.819760e-01
-8.634210e-02
1.759860e-01
-4.013770e-01
-3.323480e-01
1.540690e-01
6.448770e-02
1.819760e-01
1.448410e-02
1.759860e-01
4.508630e-01
2.928740e-01
1.540690e-01
-3.790990e-01
-4.806150e-01
-8.634210e-02
1.759860e-01
-1.273560e-01
1.733320e-01
1.540690e-01
6.448770e-02
-4.806150e-01
-5.205300e-01
1.759860e-01
4.508630e-01
1.733320e-01
4.267850e-01
-3.790990e-01
-4.806150e-01
2.219960e-01
1.618160e-01
-1.273560e-01
1.733320e-01
-1.017080e-01
-1.732230e-01
-4.806150e-01
-5.205300e-01
1.618160e-01
9.765130e-02
1.733320e-01
4.267850e-01
-1.732230e-01
-1.353020e-01
2.219960e-01
1.618160e-01
1.310540e-01
1.971440e-01
-1.017080e-01
-1.732230e-01
2.216740e-01
1.141290e-01
1.618160e-01
9.765130e-02
1.971440e-01
2.439110e-01
-1.732230e-01
-1.353020e-01
1.141290e-01
-5.856030e-02
1.310540e-01
1.971440e-01
-3.393680e-01
-2.555040e-01
2.216740e-01
1.141290e-01
4.060730e-01
3.642110e-01
1.971440e-01
2.439110e-01
-2.555040e-01
-1.338270e-01
1.141290e-01
-5.856030e-02
3.642110e-01
2.619170e-01
-3.393680e-01
-2.555040e-01
-1.739600e-01
-1.081980e-01
4.060730e-01
3.642110e-01
2.857210e-01
1.570240e-01
-2.555040e-01
-1.338270e-01
-1.081980e-01
-3.658810e-02
3.642110e-01
2.619170e-01
1.570240e-01
-2.649860e-02
-1.739600e-01
-1.081980e-01
7.583070e-02
7.790280e-02
2.857210e-01
1.570240e-01
1.518050e-01
3.224270e-02
-1.081980e-01
-3.658810e-02
7.790280e-02
7.436820e-02
1.570240e-01
-2.649860e-02
3.224270e-02
9.667130e-05
7.583070e-02
7.790280e-02
-1.343530e-01
-4.054590e-01
1.518050e-01
3.224270e-02
1.028230e-02
3.045650e-01
7.790280e-02
7.436820e-02
-4.054590e-01
-5.839010e-01
3.224270e-02
9.667130e-05
3.045650e-01
5.407640e-01
-1.343530e-01
-4.054590e-01
-7.019010e-02
6.534790e-02
1.028230e-02
3.045650e-01
-1.288140e-01
-1.719360e-01
-4.054590e-01
-5.839010e-01
6.534790e-02
1.277940e-01
3.045650e-01
5.407640e-01
-1.719360e-01
-2.096790e-01
-7.019010e-02
6.534790e-02
-2.355910e-01
-2.305210e-01
-1.288140e-01
-1.719360e-01
2.061730e-01
2.456350e-01
6.534790e-02
1.277940e-01
-2.305210e-01
-1.396780e-01
-1.719360e-01
-2.096790e-01
2.456350e-01
2.817760e-01
-2.355910e-01
-2.305210e-01
1.474990e-01
5.127460e-03
2.061730e-01
2.456350e-01
-3.585580e-01
-3.923860e-01
-2.305210e-01
-1.396780e-01
5.127460e-03
-7.811070e-02
2.456350e-01
2.817760e-01
-3.923860e-01
-4.758460e-01
1.474990e-01
5.127460e-03
7.458840e-01
4.548150e-01
-3.585580e-01
-3.923860e-01
-5.804830e-01
-3.336290e-01
5.127460e-03
-7.811070e-02
4.548150e-01
1.715020e-01
-3.923860e-01
-4.758460e-01
-3.336290e-01
-3.362220e-02
</DataArray>
<DataArray type="Float32" Name="V2" format="ascii">
0.000000e+00
0.000000e+00
5.935200e-01
6.691250e-01
0.000000e+00
0.000000e+00
-1.132000e-01
-9.312740e-02
0.000000e+00
0.000000e+00
6.691250e-01
2.480790e-01
0.000000e+00
0.000000e+00
-9.312740e-02
-8.999350e-02
5.935200e-01
6.691250e-01
8.152890e-01
3.285080e-01
-1.132000e-01
-9.312740e-02
-5.228150e-01
-2.460590e-01
6.691250e-01
2.480790e-01
3.285080e-01
1.905770e-01
-9.312740e-02
-8.999350e-02
-2.460590e-01
-1.577890e-01
8.152890e-01
3.285080e-01
-2.721000e-01
-1.636540e-01
-5.228150e-01
-2.460590e-01
1.899750e-01
-1.578070e-02
3.285080e-01
1.905770e-01
-1.636540e-01
1.118310e-02
-2.460590e-01
-1.577890e-01
-1.578070e-02
-1.647770e-01
-2.721000e-01
-1.636540e-01
1.285730e-01
1.973380e-01
1.899750e-01
-1.578070e-02
-5.270250e-01
-7.260190e-02
-1.636540e-01
1.118310e-02
1.973380e-01
-7.114510e-03
-1.578070e-02
-1.647770e-01
-7.260190e-02
1.381490e-01
1.285730e-01
1.973380e-01
8.456290e-01
-3.472320e-01
-5.270250e-01
-7.260190e-02
-7.985050e-01
1.687050e-01
1.973380e-01
-7.114510e-03
-3.472320e-01
2.437790e-02
-7.260190e-02
1.381490e-01
1.687050e-01
-2.035690e-01
8.456290e-01
-3.472320e-01
3.792310e-01
-1.200030e-01
-7.985050e-01
1.687050e-01
4.549940e-01
1.938820e-01
-3.472320e-01
2.437790e-02
-1.200030e-01
-4.835070e-01
1.687050e-01
-2.035690e-01
1.938820e-01
4.969260e-01
3.792310e-01
-1.200030e-01
-2.860310e-01
-6.562080e-02
4.549940e-01
1.938820e-01
7.803150e-02
1.445400e-01
-1.200030e-01
-4.835070e-01
-6.562080e-02
-1.096980e-01
1.938820e-01
4.969260e-01
1.445400e-01
4.124240e-01
-2.860310e-01
-6.562080e-02
1.875240e-02
5.956060e-01
7.803150e-02
1.445400e-01
-2.567900e-01
-7.124680e-01
-6.562080e-02
-1.096980e-01
5.956060e-01
2.269970e+00
1.445400e-01
4.124240e-01
-7.124680e-01
-1.862840e+00
1.875240e-02
5.956060e-01
-6.104990e-01
2.431680e-01
-2.567900e-01
-7.124680e-01
4.319770e-01
-2.996920e-02
5.956060e-01
2.269970e+00
2.431680e-01
-5.105000e-01
-7.124680e-01
-1.862840e+00
-2.996920e-02
6.546990e-01
-6.104990e-01
2.431680e-01
-1.233350e-01
-2.213410e-01
4.319770e-01
-2.996920e-02
-4.757310e-01
1.512020e-02
2.431680e-01
-5.105000e-01
-2.213410e-01
-3.302440e-01
-2.996920e-02
6.546990e-01
1.512020e-02
3.044630e-01
-1.233350e-01
-2.213410e-01
-7.216090e-01
-3.710410e-01
-4.757310e-01
1.512020e-02
6.265570e-01
1.905420e-01
-2.213410e-01
-3.302440e-01
-3.710410e-01
3.512740e-01
1.512020e-02
3.044630e-01
1.905420e-01
-5.616860e-01
-7.216090e-01
-3.710410e-01
2.607770e-01
-1.551290e-01
6.265570e-01
1.905420e-01
2.760470e-01
2.496440e-01
-3.710410e-01
3.512740e-01
-1.551290e-01
-7.116970e-01
1.905420e-01
-5.616860e-01
2.496440e-01
2.388700e-01
2.607770e-01
-1.551290e-01
1.516440e+00
8.254460e-01
2.760470e-01
2.496440e-01
-1.062840e+00
-6.709530e-01
-1.551290e-01
-7.116970e-01
8.254460e-01
9.016850e-02
2.496440e-01
2.388700e-01
-6.709530e-01
5.713500e-02
1.516440e+00
8.254460e-01
-2.672950e-01
2.244380e-01
-1.062840e+00
-6.709530e-01
3.368080e-01
5.227590e-02
8.254460e-01
9.016850e-02
2.244380e-01
3.152660e-01
-6.709530e-01
5.713500e-02
5.227590e-02
1.609890e-01
-2.672950e-01
2.244380e-01
-1.858500e-02
-4.048860e-01
3.368080e-01
5.227590e-02
-1.450660e-01
3.022230e-01
2.244380e-01
3.152660e-01
-4.048860e-01
-7.100790e-01
5.227590e-02
1.609890e-01
3.022230e-01
7.737430e-01
-1.858500e-02
-4.048860e-01
-8.428980e-01
-4.074030e-01
-1.450660e-01
3.022230e-01
4.524290e-01
2.320540e-01
-4.048860e-01
-7.100790e-01
-4.074030e-01
3.857380e-01
3.022230e-01
7.737430e-01
2.320540e-01
-2.612640e-01
-8.428980e-01
-4.074030e-01
-2.325950e-01
1.030280e-01
4.524290e-01
2.320540e-01
-4.467520e-02
1.315250e-01
-4.074030e-01
3.857380e-01
1.030280e-01
-3.856290e-02
2.320540e-01
-2.612640e-01
1.315250e-01
1.745560e-01
-2.325950e-01
1.030280e-01
-5.979130e-02
2.870030e-01
-4.467520e-02
1.315250e-01
1.708420e-01
-1.840960e-01
1.030280e-01
-3.856290e-02
2.870030e-01
1.991760e-01
1.315250e-01
1.745560e-01
-1.840960e-01
-2.190350e-01
-5.979130e-02
2.870030e-01
3.515530e-01
3.940250e-01
1.708420e-01
-1.840960e-01
2.582580e-01
5.923560e-03
2.870030e-01
1.991760e-01
3.940250e-01
3.828790e-01
-1.840960e-01
-2.190350e-01
5.923560e-03
6.127590e-02
3.515530e-01
3.940250e-01
7.907020e-01
4.632550e-01
2.582580e-01
5.923560e-03
-5.297020e-01
-2.682240e-01
3.940250e-01
3.828790e-01
4.632550e-01
2.143890e-01
5.923560e-03
6.127590e-02
-2.682240e-01
4.056960e-01
7.907020e-01
4.632550e-01
-1.195430e+00
-3.009190e-02
-5.297020e-01
-2.682240e-01
3.493310e-01
4.931620e-02
4.632550e-01
2.143890e-01
-3.009190e-02
6.221580e-01
-2.682240e-01
4.056960e-01
4.931620e-02
-3.455420e-01
-1.195430e+00
-3.009190e-02
-7.105070e-03
-4.606380e-01
3.493310e-01
4.931620e-02
-1.854450e-01
1.917530e-02
-3.009190e-02
6.221580e-01
-4.606380e-01
-8.769650e-02
4.931620e-02
-3.455420e-01
1.917530e-02
-4.825440e-01
-7.105070e-03
-4.606380e-01
-3.156100e-01
-3.838630e-01
-1.854450e-01
1.917530e-02
3.038430e-01
1.226750e-01
-4.606380e-01
-8.769650e-02
-3.838630e-01
-5.911610e-02
1.917530e-02
-4.825440e-01
1.226750e-01
4.369000e-02
-3.156100e-01
-3.838630e-01
4.397210e-02
2.798760e-01
3.038430e-01
1.226750e-01
-5.584280e-02
-2.045230e-01
-3.838630e-01
-5.911610e-02
2.798760e-01
2.262890e-01
1.226750e-01
4.369000e-02
-2.045230e-01
-3.665110e-01
4.397210e-02
2.798760e-01
-1.619580e-01
-8.045690e-02
-5.584280e-02
-2.045230e-01
1.560380e-01
7.806130e-02
2.798760e-01
2.262890e-01
-8.045690e-02
4.509240e-01
-2.045230e-01
-3.665110e-01
7.806130e-02
-6.007510e-01
-1.619580e-01
-8.045690e-02
-6.112270e-01
-5.540100e-01
1.560380e-01
7.806130e-02
6.824460e-01
5.334310e-01
-8.045690e-02
4.509240e-01
-5.540100e-01
-7.254800e-01
7.806130e-02
-6.007510e-01
5.334310e-01
4.940110e-01
-6.112270e-01
-5.540100e-01
-2.848820e-01
-8.406440e-02
6.824460e-01
5.334310e-01
-4.188320e-02
-4.369620e-02
-5.540100e-01
-7.254800e-01
-8.406440e-02
-9.103900e-02
5.334310e-01
4.940110e-01
-4.369620e-02
2.214860e-01
-2.848820e-01
-8.406440e-02
-8.142100e-01
-6.145580e-01
-4.188320e-02
-4.369620e-02
4.634550e-01
4.666390e-01
-8.406440e-02
-9.103900e-02
-6.145580e-01
-1.265780e-01
-4.369620e-02
2.214860e-01
4.666390e-01
1.251010e-01
-8.142100e-01
-6.145580e-01
8.222140e-01
1.511220e-01
4.634550e-01
4.666390e-01
-2.542630e-01
1.225850e-01
-6.145580e-01
-1.265780e-01
1.511220e-01
-9.322280e-02
4.666390e-01
1.251010e-01
1.225850e-01
-1.647520e-01
8.222140e-01
1.511220e-01
8.574280e-01
3.746410e-01
-2.542630e-01
1.225850e-01
-8.405980e-01
-4.496880e-02
1.511220e-01
-9.322280e-02
3.746410e-01
-3.191330e-01
1.225850e-01
-1.647520e-01
-4.496880e-02
1.039560e+00
0.000000e+00
0.000000e+00
-1.132000e-01
-9.312740e-02
0.000000e+00
0.000000e+00
-5.251220e-01
-3.775420e-01
0.000000e+00
0.000000e+00
-9.312740e-02
-8.999350e-02
0.000000e+00
0.000000e+00
-3.775420e-01
-7.678840e-02
-1.132000e-01
-9.312740e-02
-5.228150e-01
-2.460590e-01
-5.251220e-01
-3.775420e-01
3.428920e-01
8.639210e-02
-9.312740e-02
-8.999350e-02
-2.460590e-01
-1.577890e-01
-3.775420e-01
-7.678840e-02
8.639210e-02
9.342380e-02
-5.228150e-01
-2.460590e-01