<?xml version="1.0"?>
<VTKFile type="UnstructuredGrid" version="0.1" byte_order="LittleEndian" compressor="vtkZLibDataCompressor">
<UnstructuredGrid>
<Piece NumberOfPoints="960" NumberOfCells="120">
<Points>
<DataArray type="Float32" NumberOfComponents="3" format="ascii">
-4.000000e+02 -6.000000e+03 -4.000000e+02
0.000000e+00 -6.000000e+03 -4.000000e+02
-4.000490e+02 -5.600190e+03 -3.996960e+02
-9.307960e-02 -5.600390e+03 -3.995440e+02
-4.000000e+02 -6.000000e+03 0.000000e+00
0.000000e+00 -6.000000e+03 0.000000e+00
-4.001290e+02 -5.600270e+03 2.647720e-02
-1.292560e-01 -5.600130e+03 -2.957070e-01
0.000000e+00 -6.000000e+03 -4.000000e+02
4.000000e+02 -6.000000e+03 -4.000000e+02
-9.307960e-02 -5.600390e+03 -3.995440e+02
3.998590e+02 -5.600200e+03 -3.994670e+02
0.000000e+00 -6.000000e+03 0.000000e+00
4.000000e+02 -6.000000e+03 0.000000e+00
-1.292560e-01 -5.600130e+03 -2.957070e-01
3.998680e+02 -5.600180e+03 -6.364720e-01
-4.000490e+02 -5.600190e+03 -3.996960e+02
-9.307960e-02 -5.600390e+03 -3.995440e+02
-3.997600e+02 -5.200850e+03 -4.002920e+02
2.406580e-01 -5.200610e+03 -4.006860e+02
-4.001290e+02 -5.600270e+03 2.647720e-02
-1.292560e-01 -5.600130e+03 -2.957070e-01
-3.998990e+02 -5.199970e+03 -2.376890e-02
6.051280e-02 -5.199960e+03 3.276820e-01
-9.307960e-02 -5.600390e+03 -3.995440e+02
3.998590e+02 -5.600200e+03 -3.994670e+02
2.406580e-01 -5.200610e+03 -4.006860e+02
4.002610e+02 -5.200510e+03 -4.010110e+02
-1.292560e-01 -5.600130e+03 -2.957070e-01
3.998680e+02 -5.600180e+03 -6.364720e-01
6.051280e-02 -5.199960e+03 3.276820e-01
4.000220e+02 -5.199980e+03 6.051750e-01
-3.997600e+02 -5.200850e+03 -4.002920e+02
2.406580e-01 -5.200610e+03 -4.006860e+02
-3.997310e+02 -4.800990e+03 -4.010770e+02
2.110090e-01 -4.800880e+03 -4.005690e+02
-3.998990e+02 -5.199970e+03 -2.376890e-02
6.051280e-02 -5.199960e+03 3.276820e-01
-4.000740e+02 -4.799830e+03 -9.182030e-01
-2.782000e-02 -4.799920e+03 -1.042970e+00
2.406580e-01 -5.200610e+03 -4.006860e+02
4.002610e+02 -5.200510e+03 -4.010110e+02
2.110090e-01 -4.800880e+03 -4.005690e+02
4.001490e+02 -4.800710e+03 -4.001660e+02
6.051280e-02 -5.199960e+03 3.276820e-01
4.000220e+02 -5.199980e+03 6.051750e-01
-2.782000e-02 -4.799920e+03 -1.042970e+00
4.000140e+02 -4.800040e+03 -9.457740e-01
-3.997310e+02 -4.800990e+03 -4.010770e+02
2.110090e-01 -4.800880e+03 -4.005690e+02
-4.000130e+02 -4.400940e+03 -4.023650e+02
-9.852810e-03 -4.401070e+03 -4.023150e+02
-4.000740e+02 -4.799830e+03 -9.182030e-01
-2.782000e-02 -4.799920e+03 -1.042970e+00
-4.002140e+02 -4.399920e+03 -2.060520e+00
-2.261590e-01 -4.399850e+03 -2.435450e+00
2.110090e-01 -4.800880e+03 -4.005690e+02
4.001490e+02 -4.800710e+03 -4.001660e+02
-9.852810e-03 -4.401070e+03 -4.023150e+02
4.000030e+02 -4.401080e+03 -4.018200e+02
-2.782000e-02 -4.799920e+03 -1.042970e+00
4.000140e+02 -4.800040e+03 -9.457740e-01
-2.261590e-01 -4.399850e+03 -2.435450e+00
3.997640e+02 -4.399950e+03 -2.816150e+00
-4.000130e+02 -4.400940e+03 -4.023650e+02
-9.852810e-03 -4.401070e+03 -4.023150e+02
-4.001310e+02 -4.001210e+03 -4.035360e+02
-1.611920e-01 -4.001240e+03 -4.028490e+02
-4.002140e+02 -4.399920e+03 -2.060520e+00
-2.261590e-01 -4.399850e+03 -2.435450e+00
-4.001290e+02 -3.999930e+03 -3.142140e+00
-1.313340e-01 -3.999820e+03 -3.747700e+00
-9.852810e-03 -4.401070e+03 -4.023150e+02
4.000030e+02 -4.401080e+03 -4.018200e+02
-1.611920e-01 -4.001240e+03 -4.028490e+02
3.998010e+02 -4.001160e+03 -4.023150e+02
-2.261590e-01 -4.399850e+03 -2.435450e+00
3.997640e+02 -4.399950e+03 -2.816150e+00
-1.313340e-01 -3.999820e+03 -3.747700e+00
3.998630e+02 -3.999850e+03 -4.690090e+00
-4.001310e+02 -4.001210e+03 -4.035360e+02
-1.611920e-01 -4.001240e+03 -4.028490e+02
-4.003880e+02 -3.601330e+03 -4.042520e+02
-4.173740e-01 -3.601120e+03 -4.041000e+02
-4.001290e+02 -3.999930e+03 -3.142140e+00
-1.313340e-01 -3.999820e+03 -3.747700e+00
-4.001390e+02 -3.599830e+03 -4.311840e+00
-1.650120e-01 -3.600080e+03 -4.516320e+00
-1.611920e-01 -4.001240e+03 -4.028490e+02
3.998010e+02 -4.001160e+03 -4.023150e+02
-4.173740e-01 -3.601120e+03 -4.041000e+02
3.995540e+02 -3.601140e+03 -4.040700e+02
-1.313340e-01 -3.999820e+03 -3.747700e+00
3.998630e+02 -3.999850e+03 -4.690090e+00
-1.650120e-01 -3.600080e+03 -4.516320e+00
3.998100e+02 -3.600200e+03 -4.780440e+00
-4.003880e+02 -3.601330e+03 -4.042520e+02
-4.173740e-01 -3.601120e+03 -4.041000e+02
-4.003040e+02 -3.201290e+03 -4.064900e+02
-2.833300e-01 -3.201450e+03 -4.063570e+02
-4.001390e+02 -3.599830e+03 -4.311840e+00
-1.650120e-01 -3.600080e+03 -4.516320e+00
-4.001320e+02 -3.200040e+03 -5.638660e+00
-1.540160e-01 -3.199970e+03 -5.350210e+00
-4.173740e-01 -3.601120e+03 -4.041000e+02
3.995540e+02 -3.601140e+03 -4.040700e+02
-2.833300e-01 -3.201450e+03 -4.063570e+02
3.997280e+02 -3.201700e+03 -4.065370e+02
-1.650120e-01 -3.600080e+03 -4.516320e+00
3.998100e+02 -3.600200e+03 -4.780440e+00
-1.540160e-01 -3.199970e+03 -5.350210e+00
3.998220e+02 -3.199880e+03 -5.099830e+00
-4.003040e+02 -3.201290e+03 -4.064900e+02
-2.833300e-01 -3.201450e+03 -4.063570e+02
-4.002050e+02 -2.801410e+03 -4.080770e+02
-1.546750e-01 -2.801610e+03 -4.075610e+02
-4.001320e+02 -3.200040e+03 -5.638660e+00
-1.540160e-01 -3.199970e+03 -5.350210e+00
-4.001500e+02 -2.800110e+03 -6.958890e+00
-1.971280e-01 -2.800080e+03 -7.516550e+00
-2.833300e-01 -3.201450e+03 -4.063570e+02
3.997280e+02 -3.201700e+03 -4.065370e+02
-1.546750e-01 -2.801610e+03 -4.075610e+02
3.998960e+02 -2.801800e+03 -4.068090e+02
-1.540160e-01 -3.199970e+03 -5.350210e+00
3.998220e+02 -3.199880e+03 -5.099830e+00
-1.971280e-01 -2.800080e+03 -7.516550e+00
3.997590e+02 -2.800040e+03 -8.163900e+00
-4.002050e+02 -2.801410e+03 -4.080770e+02
-1.546750e-01 -2.801610e+03 -4.075610e+02
-4.005650e+02 -2.401750e+03 -4.083750e+02
-5.642370e-01 -2.401620e+03 -4.090490e+02
-4.001500e+02 -2.800110e+03 -6.958890e+00
-1.971280e-01 -2.800080e+03 -7.516550e+00
-3.999960e+02 -2.400000e+03 -8.626610e+00
-2.322700e-02 -2.400080e+03 -9.029720e+00
-1.546750e-01 -2.801610e+03 -4.075610e+02
3.998960e+02 -2.801800e+03 -4.068090e+02
-5.642370e-01 -2.401620e+03 -4.090490e+02
3.994430e+02 -2.401560e+03 -4.098650e+02
-1.971280e-01 -2.800080e+03 -7.516550e+00
3.997590e+02 -2.800040e+03 -8.163900e+00
-2.322700e-02 -2.400080e+03 -9.029720e+00
3.999540e+02 -2.400160e+03 -9.192220e+00
-4.005650e+02 -2.401750e+03 -4.083750e+02
-5.642370e-01 -2.401620e+03 -4.090490e+02
-4.003510e+02 -2.001710e+03 -4.109490e+02
-2.580460e-01 -2.001670e+03 -4.113350e+02
-3.999960e+02 -2.400000e+03 -8.626610e+00
-2.322700e-02 -2.400080e+03 -9.029720e+00
-3.999740e+02 -1.999770e+03 -1.032910e+01
-3.796900e-02 -1.999790e+03 -1.107290e+01
-5.642370e-01 -2.401620e+03 -4.090490e+02
3.994430e+02 -2.401560e+03 -4.098650e+02
-2.580460e-01 -2.001670e+03 -4.113350e+02
3.998210e+02 -2.001700e+03 -4.118070e+02
-2.322700e-02 -2.400080e+03 -9.029720e+00
3.999540e+02 -2.400160e+03 -9.192220e+00
-3.796900e-02 -1.999790e+03 -1.107290e+01
3.998940e+02 -1.999710e+03 -1.175430e+01
-4.003510e+02 -2.001710e+03 -4.109490e+02
-2.580460e-01 -2.001670e+03 -4.113350e+02
-4.005160e+02 -1.601340e+03 -4.116140e+02
-5.192850e-01 -1.601400e+03 -4.127750e+02
-3.999740e+02 -1.999770e+03 -1.032910e+01
-3.796900e-02 -1.999790e+03 -1.107290e+01
-4.000170e+02 -1.599940e+03 -1.225480e+01
-4.335400e-02 -1.599890e+03 -1.224220e+01
-2.580460e-01 -2.001670e+03 -4.113350e+02
3.998210e+02 -2.001700e+03 -4.118070e+02
-5.192850e-01 -1.601400e+03 -4.127750e+02
3.994930e+02 -1.601530e+03 -4.139700e+02
-3.796900e-02 -1.999790e+03 -1.107290e+01
3.998940e+02 -1.999710e+03 -1.175430e+01
-4.335400e-02 -1.599890e+03 -1.224220e+01
3.999330e+02 -1.599890e+03 -1.218450e+01
-4.005160e+02 -1.601340e+03 -4.116140e+02
-5.192850e-01 -1.601400e+03 -4.127750e+02
-4.005680e+02 -1.201540e+03 -4.138580e+02
-5.783480e-01 -1.201440e+03 -4.144430e+02
-4.000170e+02 -1.599940e+03 -1.225480e+01
-4.335400e-02 -1.599890e+03 -1.224220e+01
-4.001850e+02 -1.199940e+03 -1.302270e+01
-1.984500e-01 -1.200080e+03 -1.349770e+01
-5.192850e-01 -1.601400e+03 -4.127750e+02
3.994930e+02 -1.601530e+03 -4.139700e+02
-5.783480e-01 -1.201440e+03 -4.144430e+02
3.994260e+02 -1.201250e+03 -4.149780e+02
-4.335400e-02 -1.599890e+03 -1.224220e+01
3.999330e+02 -1.599890e+03 -1.218450e+01
-1.984500e-01 -1.200080e+03 -1.349770e+01
3.997790e+02 -1.200260e+03 -1.406920e+01
-4.005680e+02 -1.201540e+03 -4.138580e+02
-5.783480e-01 -1.201440e+03 -4.144430e+02
-4.002670e+02 -8.013240e+02 -4.145120e+02
-2.774480e-01 -8.014920e+02 -4.149340e+02
-4.001850e+02 -1.199940e+03 -1.302270e+01
-1.984500e-01 -1.200080e+03 -1.349770e+01
-4.001550e+02 -8.003320e+02 -1.444800e+01
-1.755040e-01 -8.000590e+02 -1.512910e+01
-5.783480e-01 -1.201440e+03 -4.144430e+02
3.994260e+02 -1.201250e+03 -4.149780e+02
-2.774480e-01 -8.014920e+02 -4.149340e+02
3.997090e+02 -8.016990e+02 -4.152630e+02
-1.984500e-01 -1.200080e+03 -1.349770e+01
3.997790e+02 -1.200260e+03 -1.406920e+01
-1.755040e-01 -8.000590e+02 -1.512910e+01
3.998000e+02 -7.998900e+02 -1.598360e+01
-4.002670e+02 -8.013240e+02 -4.145120e+02
-2.774480e-01 -8.014920e+02 -4.149340e+02
-4.006410e+02 -4.015880e+02 -4.160830e+02
-6.987270e-01 -4.017670e+02 -4.165170e+02
-4.001550e+02 -8.003320e+02 -1.444800e+01
-1.755040e-01 -8.000590e+02 -1.512910e+01
-3.999860e+02 -4.000810e+02 -1.567820e+01
4.998480e-02 -3.999050e+02 -1.689170e+01
-2.774480e-01 -8.014920e+02 -4.149340e+02
3.997090e+02 -8.016990e+02 -4.152630e+02
-6.987270e-01 -4.017670e+02 -4.165170e+02
3.992400e+02 -4.019000e+02 -4.167930e+02
-1.755040e-01 -8.000590e+02 -1.512910e+01
3.998000e+02 -7.998900e+02 -1.598360e+01
4.998480e-02 -3.999050e+02 -1.689170e+01
4.000870e+02 -3.997580e+02 -1.818460e+01
-4.006410e+02 -4.015880e+02 -4.160830e+02
-6.987270e-01 -4.017670e+02 -4.165170e+02
-4.004800e+02 -1.432380e+00 -4.181300e+02
-4.915070e-01 -1.629790e+00 -4.186590e+02
-3.999860e+02 -4.000810e+02 -1.567820e+01
4.998480e-02 -3.999050e+02 -1.689170e+01
-4.000580e+02 -1.550170e-01 -1.740370e+01
-3.211170e-02 -1.590390e-01 -1.793620e+01
-6.987270e-01 -4.017670e+02 -4.165170e+02
[...]
<PointData>
<DataArray type="Float32" Name="V1" format="ascii">
0.000000e+00
0.000000e+00
-2.686900e-01
-2.337480e-01
0.000000e+00
0.000000e+00
-8.161130e-03
-8.687770e-03
0.000000e+00
0.000000e+00
-2.337480e-01
-2.076140e-01
0.000000e+00
0.000000e+00
-8.687770e-03
-1.905380e-02
-2.686900e-01
-2.337480e-01
-7.681760e-03
1.034350e-01
-8.161130e-03
-8.687770e-03
1.711140e-01
6.867510e-02
-2.337480e-01
-2.076140e-01
1.034350e-01
1.841010e-01
-8.687770e-03
-1.905380e-02
6.867510e-02
-1.328850e-02
-7.681760e-03
1.034350e-01
4.211710e-01
3.825230e-01
1.711140e-01
6.867510e-02
-3.087540e-01
-3.744120e-01
1.034350e-01
1.841010e-01
3.825230e-01
3.567190e-01
6.867510e-02
-1.328850e-02
-3.744120e-01
-4.429020e-01
4.211710e-01
3.825230e-01
-2.208090e-01
-1.904780e-01
-3.087540e-01
-3.744120e-01
4.363450e-02
2.870660e-02
3.825230e-01
3.567190e-01
-1.904780e-01
-1.516730e-01
-3.744120e-01
-4.429020e-01
2.870660e-02
3.053580e-02
-2.208090e-01
-1.904780e-01
-1.889520e-02
-4.282100e-02
4.363450e-02
2.870660e-02
-2.351210e-01
-1.721750e-01
-1.904780e-01
-1.516730e-01
-4.282100e-02
-9.835280e-02
2.870660e-02
3.053580e-02
-1.721750e-01
-1.236240e-01
-1.889520e-02
-4.282100e-02
-3.876540e-01
-2.048910e-01
-2.351210e-01
-1.721750e-01
4.262180e-01
3.082890e-01
-4.282100e-02
-9.835280e-02
-2.048910e-01
-2.308840e-02
-1.721750e-01
-1.236240e-01
3.082890e-01
2.141950e-01
-3.876540e-01
-2.048910e-01
-3.068880e-01
-3.408640e-01
4.262180e-01
3.082890e-01
1.491750e-01
1.652870e-01
-2.048910e-01
-2.308840e-02
-3.408640e-01
-3.293500e-01
3.082890e-01
2.141950e-01
1.652870e-01
1.403080e-01
-3.068880e-01
-3.408640e-01
-2.445760e-01
-1.550350e-01
1.491750e-01
1.652870e-01
2.473360e-01
2.299920e-01
-3.408640e-01
-3.293500e-01
-1.550350e-01
-8.712500e-02
1.652870e-01
1.403080e-01
2.299920e-01
2.509910e-01
-2.445760e-01
-1.550350e-01
-1.197870e-02
4.293680e-02
2.473360e-01
2.299920e-01
-2.299440e-01
-2.107640e-01
-1.550350e-01
-8.712500e-02
4.293680e-02
7.656090e-02
2.299920e-01
2.509910e-01
-2.107640e-01
-2.146210e-01
-1.197870e-02
4.293680e-02
-1.694350e-01
-1.018390e-01
-2.299440e-01
-2.107640e-01
8.426750e-02
6.951830e-02
4.293680e-02
7.656090e-02
-1.018390e-01
-4.479900e-02
-2.107640e-01
-2.146210e-01
6.951830e-02
4.892090e-02
-1.694350e-01
-1.018390e-01
-3.294680e-02
-8.285760e-03
8.426750e-02
6.951830e-02
2.670510e-02
-3.790180e-02
-1.018390e-01
-4.479900e-02
-8.285760e-03
2.559200e-02
6.951830e-02
4.892090e-02
-3.790180e-02
-8.956790e-02
-3.294680e-02
-8.285760e-03
-3.960850e-01
-2.744210e-01
2.670510e-02
-3.790180e-02
2.808800e-01
2.731860e-01
-8.285760e-03
2.559200e-02
-2.744210e-01
-1.577220e-01
-3.790180e-02
-8.956790e-02
2.731860e-01
2.620760e-01
-3.960850e-01
-2.744210e-01
-8.922750e-02
-5.909650e-02
2.808800e-01
2.731860e-01
4.603670e-02
8.190700e-02
-2.744210e-01
-1.577220e-01
-5.909650e-02
1.263390e-02
2.731860e-01
2.620760e-01
8.190700e-02
1.093430e-01
-8.922750e-02
-5.909650e-02
-4.856090e-02
-5.228420e-02
4.603670e-02
8.190700e-02
7.832140e-02
6.502200e-02
-5.909650e-02
1.263390e-02
-5.228420e-02
-7.047850e-02
8.190700e-02
1.093430e-01
6.502200e-02
6.569460e-02
-4.856090e-02
-5.228420e-02
-4.346140e-01
-3.718610e-01
7.832140e-02
6.502200e-02
3.917970e-02
5.205640e-02
-5.228420e-02
-7.047850e-02
-3.718610e-01
-3.316620e-01
6.502200e-02
6.569460e-02
5.205640e-02
7.714820e-02
-4.346140e-01
-3.718610e-01
2.904550e-01
2.499880e-01
3.917970e-02
5.205640e-02
-2.523380e-01
-1.726520e-01
-3.718610e-01
-3.316620e-01
2.499880e-01
2.249100e-01
5.205640e-02
7.714820e-02
-1.726520e-01
-9.947140e-02
2.904550e-01
2.499880e-01
-6.367850e-01
-5.654280e-01
-2.523380e-01
-1.726520e-01
5.021550e-01
4.721490e-01
2.499880e-01
2.249100e-01
-5.654280e-01
-5.031260e-01
-1.726520e-01
-9.947140e-02
4.721490e-01
4.845040e-01
-6.367850e-01
-5.654280e-01
-3.401160e-02
4.966180e-02
5.021550e-01
4.721490e-01
3.385440e-02
-7.071790e-03
-5.654280e-01
-5.031260e-01
4.966180e-02
1.177550e-01
4.721490e-01
4.845040e-01
-7.071790e-03
-8.338170e-02
-3.401160e-02
4.966180e-02
4.018880e-01
4.418920e-01
3.385440e-02
-7.071790e-03
-1.051390e-02
-1.045740e-01
4.966180e-02
1.177550e-01
4.418920e-01
4.328540e-01
-7.071790e-03
-8.338170e-02
-1.045740e-01
-1.739670e-01
4.018880e-01
4.418920e-01
5.232100e-02
-3.936230e-02
-1.051390e-02
-1.045740e-01
-2.534150e-01
-2.228980e-01
4.418920e-01
4.328540e-01
-3.936230e-02
-5.083090e-02
-1.045740e-01
-1.739670e-01
-2.228980e-01
-2.195720e-01
5.232100e-02
-3.936230e-02
2.381220e-01
1.777070e-01
-2.534150e-01
-2.228980e-01
-2.685420e-02
2.446700e-02
-3.936230e-02
-5.083090e-02
1.777070e-01
8.753900e-02
-2.228980e-01
-2.195720e-01
2.446700e-02
1.055190e-01
2.381220e-01
1.777070e-01
3.023770e-01
1.575200e-01
-2.685420e-02
2.446700e-02
-2.303820e-01
-1.359450e-01
1.777070e-01
8.753900e-02
1.575200e-01
1.990080e-02
2.446700e-02
1.055190e-01
-1.359450e-01
-6.464070e-02
3.023770e-01
1.575200e-01
1.940840e-02
1.088050e-01
-2.303820e-01
-1.359450e-01
6.205430e-02
2.801970e-02
1.575200e-01
1.990080e-02
1.088050e-01
2.322260e-01
-1.359450e-01
-6.464070e-02
2.801970e-02
1.124450e-04
1.940840e-02
1.088050e-01
1.140270e-01
1.585580e-01
6.205430e-02
2.801970e-02
-5.386020e-02
-9.694660e-02
1.088050e-01
2.322260e-01
1.585580e-01
2.150680e-01
2.801970e-02
1.124450e-04
-9.694660e-02
-1.309290e-01
1.140270e-01
1.585580e-01
3.227270e-02
1.200130e-01
-5.386020e-02
-9.694660e-02
4.501990e-02
8.215890e-03
1.585580e-01
2.150680e-01
1.200130e-01
1.491580e-01
-9.694660e-02
-1.309290e-01
8.215890e-03
-4.361580e-02
3.227270e-02
1.200130e-01
2.281650e-01
5.847730e-02
4.501990e-02
8.215890e-03
-2.565340e-01
-1.724920e-01
1.200130e-01
1.491580e-01
5.847730e-02
-1.084940e-01
8.215890e-03
-4.361580e-02
-1.724920e-01
-8.458100e-02
2.281650e-01
5.847730e-02
2.496520e-01
9.105680e-02
-2.565340e-01
-1.724920e-01
-2.702540e-01
-2.069760e-01
5.847730e-02
-1.084940e-01
9.105680e-02
-1.844940e-02
-1.724920e-01
-8.458100e-02
-2.069760e-01
-1.277530e-01
2.496520e-01
9.105680e-02
-1.099110e-01
3.508620e-02
-2.702540e-01
-2.069760e-01
9.490590e-02
-4.836670e-02
9.105680e-02
-1.844940e-02
3.508620e-02
1.124160e-01
-2.069760e-01
-1.277530e-01
-4.836670e-02
-1.819330e-01
-1.099110e-01
3.508620e-02
1.866120e-01
1.499270e-01
9.490590e-02
-4.836670e-02
-9.644850e-02
-1.130610e-01
3.508620e-02
1.124160e-01
1.499270e-01
1.374560e-01
-4.836670e-02
-1.819330e-01
-1.130610e-01
-1.496520e-01
1.866120e-01
1.499270e-01
2.088720e-01
8.113430e-02
-9.644850e-02
-1.130610e-01
-1.083570e-01
-8.855930e-02
1.499270e-01
1.374560e-01
8.113430e-02
-9.494800e-02
-1.130610e-01
-1.496520e-01
-8.855930e-02
6.117890e-03
0.000000e+00
0.000000e+00
-8.161130e-03
-8.687770e-03
0.000000e+00
0.000000e+00
3.327590e-01
2.619790e-01
0.000000e+00
0.000000e+00
-8.687770e-03
-1.905380e-02
0.000000e+00
0.000000e+00
2.619790e-01
2.362540e-01
-8.161130e-03
-8.687770e-03
1.711140e-01
6.867510e-02
3.327590e-01
2.619790e-01
-3.754680e-01
-2.655550e-01
-8.687770e-03
-1.905380e-02
6.867510e-02
-1.328850e-02
2.619790e-01
2.362540e-01
-2.655550e-01
-1.904540e-01
1.711140e-01
6.867510e-02
-3.087540e-01
-3.744120e-01
-3.754680e-01
-2.655550e-01
2.461710e-01
3.798860e-01
6.867510e-02
-1.328850e-02
-3.744120e-01
-4.429020e-01
-2.655550e-01
-1.904540e-01
3.798860e-01
5.247520e-01
-3.087540e-01
-3.744120e-01
4.363450e-02
2.870660e-02
2.461710e-01
3.798860e-01
1.656710e-01
1.452510e-01
-3.744120e-01
-4.429020e-01
2.870660e-02
3.053580e-02
3.798860e-01
5.247520e-01
1.452510e-01
8.689540e-02
4.363450e-02
2.870660e-02
-2.351210e-01
-1.721750e-01
1.656710e-01
1.452510e-01
5.531370e-01
4.106490e-01
2.870660e-02
3.053580e-02
-1.721750e-01
-1.236240e-01
1.452510e-01
8.689540e-02
4.106490e-01
3.379830e-01
-2.351210e-01
-1.721750e-01
4.262180e-01
3.082890e-01
5.531370e-01
4.106490e-01
-5.058680e-01
-4.151600e-01
-1.721750e-01
-1.236240e-01
3.082890e-01
2.141950e-01
4.106490e-01
3.379830e-01
-4.151600e-01
-4.019450e-01
4.262180e-01
3.082890e-01
1.491750e-01
1.652870e-01
-5.058680e-01
-4.151600e-01
-1.080950e-02
-4.063940e-03
3.082890e-01
2.141950e-01
1.652870e-01
1.403080e-01
-4.151600e-01
-4.019450e-01
-4.063940e-03
5.233310e-02
1.491750e-01
1.652870e-01
2.473360e-01
2.299920e-01
-1.080950e-02
-4.063940e-03
-1.757090e-01
-2.997700e-01
1.652870e-01
1.403080e-01
2.299920e-01
2.509910e-01
-4.063940e-03
5.233310e-02
-2.997700e-01
-4.843020e-01
2.473360e-01
2.299920e-01
-2.299440e-01
-2.107640e-01
-1.757090e-01
-2.997700e-01
3.946060e-01
3.386990e-01
2.299920e-01
2.509910e-01
-2.107640e-01
-2.146210e-01
-2.997700e-01
-4.843020e-01
3.386990e-01
3.125740e-01
-2.299440e-01
-2.107640e-01
8.426750e-02
6.951830e-02
3.946060e-01
3.386990e-01
6.304480e-02
3.136520e-02
-2.107640e-01
-2.146210e-01
6.951830e-02
4.892090e-02
3.386990e-01
3.125740e-01
3.136520e-02
2.364510e-02
8.426750e-02
6.951830e-02
2.670510e-02
-3.790180e-02
6.304480e-02
3.136520e-02
-1.031020e-01
2.804830e-02
6.951830e-02
4.892090e-02
-3.790180e-02
-8.956790e-02
3.136520e-02
2.364510e-02
2.804830e-02
1.433120e-01
2.670510e-02
-3.790180e-02
2.808800e-01
2.731860e-01
-1.031020e-01
2.804830e-02
-1.362780e-01
-2.662000e-01
-3.790180e-02
-8.956790e-02
2.731860e-01
2.620760e-01
2.804830e-02
1.433120e-01
-2.662000e-01
-3.856090e-01
2.808800e-01
2.731860e-01
4.603670e-02
8.190700e-02
-1.362780e-01
-2.662000e-01
1.615940e-02
-5.888990e-02
2.731860e-01
2.620760e-01
8.190700e-02
1.093430e-01
-2.662000e-01
-3.856090e-01
-5.888990e-02
-1.865590e-01
4.603670e-02
8.190700e-02
7.832140e-02
6.502200e-02
1.615940e-02
-5.888990e-02
-1.453570e-01
-9.716530e-02
8.190700e-02
1.093430e-01
6.502200e-02
6.569460e-02
-5.888990e-02
-1.865590e-01
-9.716530e-02
-3.536320e-02
7.832140e-02
6.502200e-02
3.917970e-02
5.205640e-02
-1.453570e-01
-9.716530e-02
3.613130e-01
2.581160e-01
6.502200e-02
6.569460e-02
5.205640e-02
7.714820e-02
-9.716530e-02
-3.536320e-02
2.581160e-01
1.664050e-01
3.917970e-02
5.205640e-02
-2.523380e-01
-1.726520e-01
3.613130e-01
2.581160e-01
1.490180e-01
1.032930e-01
5.205640e-02
7.714820e-02
-1.726520e-01
-9.947140e-02
2.581160e-01
1.664050e-01
1.032930e-01
4.834660e-02
-2.523380e-01
-1.726520e-01
5.021550e-01
4.721490e-01
1.490180e-01
1.032930e-01
-3.506770e-01
-3.784170e-01
-1.726520e-01
-9.947140e-02
4.721490e-01
4.845040e-01
1.032930e-01
4.834660e-02
-3.784170e-01
-4.469350e-01
5.021550e-01
4.721490e-01
3.385440e-02
-7.071790e-03
-3.506770e-01
-3.784170e-01
-1.100920e-01
-5.992810e-02
4.721490e-01
4.845040e-01
-7.071790e-03
-8.338170e-02
-3.784170e-01
-4.469350e-01
-5.992810e-02
5.641950e-02
3.385440e-02
-7.071790e-03
-1.051390e-02
-1.045740e-01
-1.100920e-01
-5.992810e-02
-3.720390e-01
-1.958690e-01
-7.071790e-03
-8.338170e-02
-1.045740e-01
-1.739670e-01
-5.992810e-02
5.641950e-02
-1.958690e-01
-6.480190e-02
-1.051390e-02
-1.045740e-01
-2.534150e-01
-2.228980e-01
-3.720390e-01
-1.958690e-01
4.491750e-01
4.501390e-01
-1.045740e-01
-1.739670e-01
-2.228980e-01
-2.195720e-01
-1.958690e-01
-6.480190e-02
4.501390e-01
4.508790e-01
-2.534150e-01
-2.228980e-01
-2.685420e-02
2.446700e-02
4.491750e-01
4.501390e-01
-1.302140e-01
-1.963580e-01
-2.228980e-01
-2.195720e-01
2.446700e-02
1.055190e-01
4.501390e-01
4.508790e-01
-1.963580e-01
-2.369510e-01
-2.685420e-02
2.446700e-02
-2.303820e-01
-1.359450e-01
-1.302140e-01
-1.963580e-01
9.446610e-02
1.091740e-01
2.446700e-02
1.055190e-01
-1.359450e-01
-6.464070e-02
-1.963580e-01
-2.369510e-01
1.091740e-01
1.127540e-01
-2.303820e-01
-1.359450e-01
6.205430e-02
2.801970e-02
9.446610e-02
1.091740e-01
-1.769330e-01
-1.827910e-01
-1.359450e-01
-6.464070e-02
2.801970e-02
1.124450e-04
1.091740e-01
1.127540e-01
-1.827910e-01
-2.196380e-01
6.205430e-02
2.801970e-02
-5.386020e-02
-9.694660e-02
-1.769330e-01
-1.827910e-01
8.622220e-02
9.100100e-02
2.801970e-02
1.124450e-04
-9.694660e-02
-1.309290e-01
-1.827910e-01
-2.196380e-01
9.100100e-02
9.256100e-02
-5.386020e-02
-9.694660e-02
4.501990e-02
8.215890e-03
8.622220e-02
9.100100e-02
-1.678260e-01
-2.256960e-01
-9.694660e-02
-1.309290e-01
8.215890e-03
-4.361580e-02
9.100100e-02
9.256100e-02
-2.256960e-01
-2.215470e-01
4.501990e-02
8.215890e-03
-2.565340e-01
-1.724920e-01
-1.678260e-01
-2.256960e-01
2.603760e-01
3.155560e-01
8.215890e-03
-4.361580e-02
-1.724920e-01
-8.458100e-02
-2.256960e-01
-2.215470e-01
3.155560e-01
3.676740e-01
-2.565340e-01
-1.724920e-01
-2.702540e-01
-2.069760e-01
2.603760e-01
3.155560e-01
4.051060e-01
3.400800e-01
-1.724920e-01
-8.458100e-02
-2.069760e-01
-1.277530e-01
3.155560e-01
3.676740e-01
3.400800e-01
2.479330e-01
-2.702540e-01
-2.069760e-01
9.490590e-02
-4.836670e-02
4.051060e-01
3.400800e-01
-1.743520e-01
-6.310960e-03
-2.069760e-01
-1.277530e-01
-4.836670e-02
-1.819330e-01
3.400800e-01
2.479330e-01
-6.310960e-03
1.627900e-01
9.490590e-02
-4.836670e-02
-9.644850e-02
-1.130610e-01
-1.743520e-01
-6.310960e-03
1.870730e-01
2.181210e-01
-4.836670e-02
-1.819330e-01
-1.130610e-01
-1.496520e-01
-6.310960e-03
1.627900e-01
2.181210e-01
2.423470e-01
-9.644850e-02
-1.130610e-01
-1.083570e-01
-8.855930e-02
1.870730e-01
2.181210e-01
-1.640220e-01
-7.830710e-02
-1.130610e-01
-1.496520e-01
-8.855930e-02
6.117890e-03
2.181210e-01
2.423470e-01
-7.830710e-02
-3.488540e-02
</DataArray>
<DataArray type="Float32" Name="V2" format="ascii">
0.000000e+00
0.000000e+00
-1.790070e-02
-6.254690e-02
0.000000e+00
0.000000e+00
3.600850e-01
1.183470e-01
0.000000e+00
0.000000e+00
-6.254690e-02
-3.313790e-01
0.000000e+00
0.000000e+00
1.183470e-01
2.639050e-01
-1.790070e-02
-6.254690e-02
-7.519500e-03
-3.542070e-02
3.600850e-01
1.183470e-01
-6.009730e-02
1.010580e-01
-6.254690e-02
-3.313790e-01
-3.542070e-02
-4.475150e-01
1.183470e-01
2.639050e-01
1.010580e-01
3.761210e-01
-7.519500e-03
-3.542070e-02
-7.373490e-01
6.693870e-02
-6.009730e-02
1.010580e-01
7.817650e-01
-8.558950e-02
-3.542070e-02
-4.475150e-01
6.693870e-02
4.061390e-01
1.010580e-01
3.761210e-01
-8.558950e-02
-7.088080e-01
-7.373490e-01
6.693870e-02
1.150690e+00
3.478380e-01
7.817650e-01
-8.558950e-02
-5.091660e-01
-5.125830e-02
6.693870e-02
4.061390e-01
3.478380e-01
-4.675140e-01
-8.558950e-02
-7.088080e-01
-5.125830e-02
3.263700e-01
1.150690e+00
3.478380e-01
7.009420e-01
-2.595490e-01
-5.091660e-01
-5.125830e-02
-5.896520e-01
-4.784490e-03
3.478380e-01
-4.675140e-01
-2.595490e-01
-6.242900e-01
-5.125830e-02
3.263700e-01
-4.784490e-03
4.082060e-01
7.009420e-01
-2.595490e-01
2.602780e-01
-2.236690e-01
-5.896520e-01
-4.784490e-03
-2.266720e-01
4.379040e-02
-2.595490e-01
-6.242900e-01
-2.236690e-01
-3.870330e-01
-4.784490e-03
4.082060e-01
4.379040e-02
-2.971220e-01
2.602780e-01
-2.236690e-01
-2.016380e-02
1.610070e-01
-2.266720e-01
4.379040e-02
2.808350e-01
6.876430e-02
-2.236690e-01
-3.870330e-01
1.610070e-01
4.194520e-01
4.379040e-02
-2.971220e-01
6.876430e-02
-3.235330e-01
-2.016380e-02
1.610070e-01
-5.491390e-01
1.492580e-01
2.808350e-01
6.876430e-02
4.052680e-01
-5.837240e-02
1.610070e-01
4.194520e-01
1.492580e-01
4.565530e-01
6.876430e-02
-3.235330e-01
-5.837240e-02
-8.650650e-02
-5.491390e-01
1.492580e-01
3.100100e-01
5.442550e-02
4.052680e-01
-5.837240e-02
-2.578120e-01
-9.989660e-04
1.492580e-01
4.565530e-01
5.442550e-02
2.642280e-02
-5.837240e-02
-8.650650e-02
-9.989660e-04
2.064910e-01
3.100100e-01
5.442550e-02
8.506280e-01
4.873900e-01
-2.578120e-01
-9.989660e-04
-8.697950e-01
-5.281550e-01
5.442550e-02
2.642280e-02
4.873900e-01
1.036110e-01
-9.989660e-04
2.064910e-01
-5.281550e-01
-5.978850e-02
8.506280e-01
4.873900e-01
-1.220980e+00
-3.528010e-01
-8.697950e-01
-5.281550e-01
7.091310e-01
3.050980e-01
4.873900e-01
1.036110e-01
-3.528010e-01
3.278270e-01
-5.281550e-01
-5.978850e-02
3.050980e-01
-1.846580e-01
-1.220980e+00
-3.528010e-01
-9.492670e-02
7.743670e-02
7.091310e-01
3.050980e-01
9.897070e-02
-2.097670e-02
-3.528010e-01
3.278270e-01
7.743670e-02
4.462330e-02
3.050980e-01
-1.846580e-01
-2.097670e-02
3.347700e-01
-9.492670e-02
7.743670e-02
-3.064140e-01
-1.390090e-01
9.897070e-02
-2.097670e-02
2.232310e-01
1.646570e-01
7.743670e-02
4.462330e-02
-1.390090e-01
-4.013680e-01
-2.097670e-02
3.347700e-01
1.646570e-01
5.391200e-01
-3.064140e-01
-1.390090e-01
-2.330460e-01
-3.621690e-01
2.232310e-01
1.646570e-01
1.659760e-01
2.564680e-01
-1.390090e-01
-4.013680e-01
-3.621690e-01
-3.428670e-01
1.646570e-01
5.391200e-01
2.564680e-01
1.568630e-01
-2.330460e-01
-3.621690e-01
1.011220e+00
3.212520e-01
1.659760e-01
2.564680e-01
-5.990070e-01
-2.405170e-01
-3.621690e-01
-3.428670e-01
3.212520e-01
-3.184620e-01
2.564680e-01
1.568630e-01
-2.405170e-01
1.498080e-01
1.011220e+00
3.212520e-01
-2.245600e-01
4.605550e-01
-5.990070e-01
-2.405170e-01
-5.519130e-02
-5.806730e-01
3.212520e-01
-3.184620e-01
4.605550e-01
5.198020e-01
-2.405170e-01
1.498080e-01
-5.806730e-01
-7.725390e-01
-2.245600e-01
4.605550e-01
4.502810e-01
-6.663020e-01
-5.519130e-02
-5.806730e-01
7.561290e-02
5.473200e-01
4.605550e-01
5.198020e-01
-6.663020e-01
-1.600410e+00
-5.806730e-01
-7.725390e-01
5.473200e-01
7.992070e-01
4.502810e-01
-6.663020e-01
3.635590e-01
1.624520e-01
7.561290e-02
5.473200e-01
1.072970e-01
-2.627090e-02
-6.663020e-01
-1.600410e+00
1.624520e-01
-1.149540e-01
5.473200e-01
7.992070e-01
-2.627090e-02
-1.565560e-01
3.635590e-01
1.624520e-01
1.705680e-01
3.564970e-01
1.072970e-01
-2.627090e-02
-1.253330e-01
-1.170050e-01
1.624520e-01
-1.149540e-01
3.564970e-01
6.189440e-01
-2.627090e-02
-1.565560e-01
-1.170050e-01
-4.569210e-01
1.705680e-01
3.564970e-01
-1.832730e-01
-4.178020e-01
-1.253330e-01
-1.170050e-01
2.861540e-01
5.879890e-01
3.564970e-01
6.189440e-01
-4.178020e-01
-9.435220e-01
-1.170050e-01
-4.569210e-01
5.879890e-01
1.301800e+00
-1.832730e-01
-4.178020e-01
-1.263380e-01
6.343160e-01
2.861540e-01
5.879890e-01
-3.380990e-01
-6.310950e-01
-4.178020e-01
-9.435220e-01
6.343160e-01
1.095730e+00
5.879890e-01
1.301800e+00
-6.310950e-01
-6.587320e-01
-1.263380e-01
6.343160e-01
7.077460e-02
5.718820e-01
-3.380990e-01
-6.310950e-01
-2.545780e-01
-6.274560e-01
6.343160e-01
1.095730e+00
5.718820e-01
9.766240e-01
-6.310950e-01
-6.587320e-01
-6.274560e-01
-9.572810e-01
7.077460e-02
5.718820e-01
-3.942510e-01
-4.880540e-01
-2.545780e-01
-6.274560e-01
2.780590e-01
4.248030e-01
5.718820e-01
9.766240e-01
-4.880540e-01
-2.754430e-01
-6.274560e-01
-9.572810e-01
4.248030e-01
5.598760e-01
-3.942510e-01
-4.880540e-01
-4.742680e-02
-1.999520e-02
2.780590e-01
4.248030e-01
2.944710e-01
5.658490e-02
-4.880540e-01
-2.754430e-01
-1.999520e-02
2.840350e-01
4.248030e-01
5.598760e-01
5.658490e-02
-4.951480e-01
-4.742680e-02
-1.999520e-02
-6.268610e-01
-2.977910e-01
2.944710e-01
5.658490e-02
6.221080e-01
1.815310e-01
-1.999520e-02
2.840350e-01
-2.977910e-01
-6.749980e-02
5.658490e-02
-4.951480e-01
1.815310e-01
-1.089920e-01
-6.268610e-01
-2.977910e-01
-2.637940e-01
-1.855540e-01
6.221080e-01
1.815310e-01
2.930440e-01
1.587000e-01
-2.977910e-01
-6.749980e-02
-1.855540e-01
3.566840e-01
1.815310e-01
-1.089920e-01
1.587000e-01
-4.493070e-01
-2.637940e-01
-1.855540e-01
6.762340e-01
6.699090e-01
2.930440e-01
1.587000e-01
-5.710510e-01
-4.208770e-01
-1.855540e-01
3.566840e-01
6.699090e-01
1.347860e-01
1.587000e-01
-4.493070e-01
-4.208770e-01
-1.189260e-01
6.762340e-01
6.699090e-01
3.894240e-01
2.253970e-01
-5.710510e-01
-4.208770e-01
-2.644570e-01
-2.341680e-01
6.699090e-01
1.347860e-01
2.253970e-01
8.842150e-02
-4.208770e-01
-1.189260e-01
-2.341680e-01
-4.012740e-01
3.894240e-01
2.253970e-01
-4.656710e-01
1.588390e-01
-2.644570e-01
-2.341680e-01
3.982870e-01
-2.590040e-01
2.253970e-01
8.842150e-02
1.588390e-01
5.633450e-01
-2.341680e-01
-4.012740e-01
-2.590040e-01
-5.251260e-01
-4.656710e-01
1.588390e-01
-8.157630e-02
1.788750e-01
3.982870e-01
-2.590040e-01
-4.753840e-02
-2.277060e-01
1.588390e-01
5.633450e-01
1.788750e-01
3.558390e-01
-2.590040e-01
-5.251260e-01
-2.277060e-01
-3.617980e-01
0.000000e+00
0.000000e+00
3.600850e-01
1.183470e-01
0.000000e+00
0.000000e+00
-3.858500e-01
-1.818710e-01
0.000000e+00
0.000000e+00
1.183470e-01
2.639050e-01
0.000000e+00
0.000000e+00
-1.818710e-01
-2.601770e-01
3.600850e-01
1.183470e-01
-6.009730e-02
1.010580e-01
-3.858500e-01
-1.818710e-01
8.826380e-02
-1.016900e-01
1.183470e-01
2.639050e-01
1.010580e-01
3.761210e-01
-1.818710e-01
-2.601770e-01
-1.016900e-01
-3.041120e-01