<?xml version="1.0"?>
<VTKFile type="UnstructuredGrid" version="0.1" byte_order="LittleEndian" compressor="vtkZLibDataCompressor">
<UnstructuredGrid>
<Piece NumberOfPoints="960" NumberOfCells="120">
<Points>
<DataArray type="Float32" NumberOfComponents="3" format="ascii">
-4.000000e+02 -6.000000e+03 -4.000000e+02
0.000000e+00 -6.000000e+03 -4.000000e+02
-4.003160e+02 -5.600290e+03 -4.003910e+02
-2.886210e-01 -5.600320e+03 -4.005620e+02
-4.000000e+02 -6.000000e+03 0.000000e+00
0.000000e+00 -6.000000e+03 0.000000e+00
-4.000990e+02 -5.599970e+03 1.277480e+00
-1.131300e-01 -5.600040e+03 7.901080e-01
0.000000e+00 -6.000000e+03 -4.000000e+02
4.000000e+02 -6.000000e+03 -4.000000e+02
-2.886210e-01 -5.600320e+03 -4.005620e+02
3.997430e+02 -5.600490e+03 -4.005780e+02
0.000000e+00 -6.000000e+03 0.000000e+00
4.000000e+02 -6.000000e+03 0.000000e+00
-1.131300e-01 -5.600040e+03 7.901080e-01
3.998770e+02 -5.600020e+03 1.816850e-01
-4.003160e+02 -5.600290e+03 -4.003910e+02
-2.886210e-01 -5.600320e+03 -4.005620e+02
-4.006300e+02 -5.200260e+03 -4.001200e+02
-5.827160e-01 -5.200480e+03 -4.008530e+02
-4.000990e+02 -5.599970e+03 1.277480e+00
-1.131300e-01 -5.600040e+03 7.901080e-01
-4.000180e+02 -5.200360e+03 2.437940e-01
-1.946670e-02 -5.200150e+03 -1.135220e-01
-2.886210e-01 -5.600320e+03 -4.005620e+02
3.997430e+02 -5.600490e+03 -4.005780e+02
-5.827160e-01 -5.200480e+03 -4.008530e+02
3.994650e+02 -5.200560e+03 -4.017270e+02
-1.131300e-01 -5.600040e+03 7.901080e-01
3.998770e+02 -5.600020e+03 1.816850e-01
-1.946670e-02 -5.200150e+03 -1.135220e-01
3.999770e+02 -5.199890e+03 -3.634710e-01
-4.006300e+02 -5.200260e+03 -4.001200e+02
-5.827160e-01 -5.200480e+03 -4.008530e+02
-4.005390e+02 -4.800580e+03 -4.013680e+02
-5.389730e-01 -4.800470e+03 -4.017740e+02
-4.000180e+02 -5.200360e+03 2.437940e-01
-1.946670e-02 -5.200150e+03 -1.135220e-01
-3.999720e+02 -4.799870e+03 -4.270410e-01
5.594570e-02 -4.800250e+03 -8.450920e-01
-5.827160e-01 -5.200480e+03 -4.008530e+02
3.994650e+02 -5.200560e+03 -4.017270e+02
-5.389730e-01 -4.800470e+03 -4.017740e+02
3.994740e+02 -4.800500e+03 -4.019080e+02
-1.946670e-02 -5.200150e+03 -1.135220e-01
3.999770e+02 -5.199890e+03 -3.634710e-01
5.594570e-02 -4.800250e+03 -8.450920e-01
4.000870e+02 -4.800520e+03 -1.213980e+00
-4.005390e+02 -4.800580e+03 -4.013680e+02
-5.389730e-01 -4.800470e+03 -4.017740e+02
-4.004050e+02 -4.400840e+03 -4.009040e+02
-3.387140e-01 -4.400950e+03 -4.018750e+02
-3.999720e+02 -4.799870e+03 -4.270410e-01
5.594570e-02 -4.800250e+03 -8.450920e-01
-3.998480e+02 -4.399750e+03 -2.942490e+00
1.210480e-01 -4.400040e+03 -2.473470e+00
-5.389730e-01 -4.800470e+03 -4.017740e+02
3.994740e+02 -4.800500e+03 -4.019080e+02
-3.387140e-01 -4.400950e+03 -4.018750e+02
3.997480e+02 -4.401130e+03 -4.026300e+02
5.594570e-02 -4.800250e+03 -8.450920e-01
4.000870e+02 -4.800520e+03 -1.213980e+00
1.210480e-01 -4.400040e+03 -2.473470e+00
4.000900e+02 -4.400270e+03 -2.231080e+00
-4.004050e+02 -4.400840e+03 -4.009040e+02
-3.387140e-01 -4.400950e+03 -4.018750e+02
-3.996480e+02 -4.001550e+03 -4.026720e+02
2.787720e-01 -4.001610e+03 -4.025910e+02
-3.998480e+02 -4.399750e+03 -2.942490e+00
1.210480e-01 -4.400040e+03 -2.473470e+00
-4.001080e+02 -3.999870e+03 -3.729090e+00
-6.027470e-02 -3.999800e+03 -3.397260e+00
-3.387140e-01 -4.400950e+03 -4.018750e+02
3.997480e+02 -4.401130e+03 -4.026300e+02
2.787720e-01 -4.001610e+03 -4.025910e+02
4.001900e+02 -4.001620e+03 -4.025490e+02
1.210480e-01 -4.400040e+03 -2.473470e+00
4.000900e+02 -4.400270e+03 -2.231080e+00
-6.027470e-02 -3.999800e+03 -3.397260e+00
3.999880e+02 -3.999800e+03 -3.258090e+00
-3.996480e+02 -4.001550e+03 -4.026720e+02
2.787720e-01 -4.001610e+03 -4.025910e+02
-3.992920e+02 -3.601430e+03 -4.052940e+02
7.537600e-01 -3.601450e+03 -4.048070e+02
-4.001080e+02 -3.999870e+03 -3.729090e+00
-6.027470e-02 -3.999800e+03 -3.397260e+00
-4.000330e+02 -3.599940e+03 -5.400570e+00
-3.547150e-02 -3.599880e+03 -4.609560e+00
2.787720e-01 -4.001610e+03 -4.025910e+02
4.001900e+02 -4.001620e+03 -4.025490e+02
7.537600e-01 -3.601450e+03 -4.048070e+02
4.007960e+02 -3.601340e+03 -4.043270e+02
-6.027470e-02 -3.999800e+03 -3.397260e+00
3.999880e+02 -3.999800e+03 -3.258090e+00
-3.547150e-02 -3.599880e+03 -4.609560e+00
3.999600e+02 -3.600050e+03 -3.668690e+00
-3.992920e+02 -3.601430e+03 -4.052940e+02
7.537600e-01 -3.601450e+03 -4.048070e+02
-3.991590e+02 -3.201370e+03 -4.076500e+02
7.949860e-01 -3.201230e+03 -4.065200e+02
-4.000330e+02 -3.599940e+03 -5.400570e+00
-3.547150e-02 -3.599880e+03 -4.609560e+00
-4.000240e+02 -3.199880e+03 -6.154550e+00
3.777690e-02 -3.199960e+03 -5.768410e+00
7.537600e-01 -3.601450e+03 -4.048070e+02
4.007960e+02 -3.601340e+03 -4.043270e+02
7.949860e-01 -3.201230e+03 -4.065200e+02
4.007450e+02 -3.201030e+03 -4.054370e+02
-3.547150e-02 -3.599880e+03 -4.609560e+00
3.999600e+02 -3.600050e+03 -3.668690e+00
3.777690e-02 -3.199960e+03 -5.768410e+00
4.000960e+02 -3.200060e+03 -5.371050e+00
-3.991590e+02 -3.201370e+03 -4.076500e+02
7.949860e-01 -3.201230e+03 -4.065200e+02
-3.989600e+02 -2.801630e+03 -4.078420e+02
9.233700e-01 -2.801420e+03 -4.072810e+02
-4.000240e+02 -3.199880e+03 -6.154550e+00
3.777690e-02 -3.199960e+03 -5.768410e+00
-4.001050e+02 -2.799790e+03 -8.705980e+00
4.673720e-03 -2.799860e+03 -7.214910e+00
7.949860e-01 -3.201230e+03 -4.065200e+02
4.007450e+02 -3.201030e+03 -4.054370e+02
9.233700e-01 -2.801420e+03 -4.072810e+02
4.007950e+02 -2.801190e+03 -4.069690e+02
3.777690e-02 -3.199960e+03 -5.768410e+00
4.000960e+02 -3.200060e+03 -5.371050e+00
4.673720e-03 -2.799860e+03 -7.214910e+00
4.001230e+02 -2.799890e+03 -5.807460e+00
-3.989600e+02 -2.801630e+03 -4.078420e+02
9.233700e-01 -2.801420e+03 -4.072810e+02
-3.991560e+02 -2.401360e+03 -4.101430e+02
8.071220e-01 -2.401350e+03 -4.086560e+02
-4.001050e+02 -2.799790e+03 -8.705980e+00
4.673720e-03 -2.799860e+03 -7.214910e+00
-4.000700e+02 -2.400220e+03 -9.601660e+00
-3.788970e-02 -2.399960e+03 -9.371610e+00
9.233700e-01 -2.801420e+03 -4.072810e+02
4.007950e+02 -2.801190e+03 -4.069690e+02
8.071220e-01 -2.401350e+03 -4.086560e+02
4.007640e+02 -2.401270e+03 -4.074720e+02
4.673720e-03 -2.799860e+03 -7.214910e+00
4.001230e+02 -2.799890e+03 -5.807460e+00
-3.788970e-02 -2.399960e+03 -9.371610e+00
3.999870e+02 -2.399860e+03 -8.977780e+00
-3.991560e+02 -2.401360e+03 -4.101430e+02
8.071220e-01 -2.401350e+03 -4.086560e+02
-3.993680e+02 -2.001230e+03 -4.122080e+02
7.122440e-01 -2.001220e+03 -4.107530e+02
-4.000700e+02 -2.400220e+03 -9.601660e+00
-3.788970e-02 -2.399960e+03 -9.371610e+00
-4.001450e+02 -2.000230e+03 -1.060220e+01
-1.378890e-01 -2.000050e+03 -1.022030e+01
8.071220e-01 -2.401350e+03 -4.086560e+02
4.007640e+02 -2.401270e+03 -4.074720e+02
7.122440e-01 -2.001220e+03 -4.107530e+02
4.007850e+02 -2.001080e+03 -4.092450e+02
-3.788970e-02 -2.399960e+03 -9.371610e+00
3.999870e+02 -2.399860e+03 -8.977780e+00
-1.378890e-01 -2.000050e+03 -1.022030e+01
3.998700e+02 -2.000060e+03 -9.784320e+00
-3.993680e+02 -2.001230e+03 -4.122080e+02
7.122440e-01 -2.001220e+03 -4.107530e+02
-3.997680e+02 -1.601180e+03 -4.114730e+02
2.162340e-01 -1.601340e+03 -4.116320e+02
-4.001450e+02 -2.000230e+03 -1.060220e+01
-1.378890e-01 -2.000050e+03 -1.022030e+01
-3.999750e+02 -1.600210e+03 -1.173800e+01
3.416710e-02 -1.600070e+03 -1.141290e+01
7.122440e-01 -2.001220e+03 -4.107530e+02
4.007850e+02 -2.001080e+03 -4.092450e+02
2.162340e-01 -1.601340e+03 -4.116320e+02
4.002110e+02 -1.601700e+03 -4.115230e+02
-1.378890e-01 -2.000050e+03 -1.022030e+01
3.998700e+02 -2.000060e+03 -9.784320e+00
3.416710e-02 -1.600070e+03 -1.141290e+01
4.000460e+02 -1.599650e+03 -1.126330e+01
-3.997680e+02 -1.601180e+03 -4.114730e+02
2.162340e-01 -1.601340e+03 -4.116320e+02
-3.996230e+02 -1.201460e+03 -4.138720e+02
3.400360e-01 -1.201180e+03 -4.138320e+02
-3.999750e+02 -1.600210e+03 -1.173800e+01
3.416710e-02 -1.600070e+03 -1.141290e+01
-4.001330e+02 -1.200100e+03 -1.236910e+01
-1.203700e-01 -1.200130e+03 -1.220230e+01
2.162340e-01 -1.601340e+03 -4.116320e+02
4.002110e+02 -1.601700e+03 -4.115230e+02
3.400360e-01 -1.201180e+03 -4.138320e+02
4.002950e+02 -1.201050e+03 -4.138780e+02
3.416710e-02 -1.600070e+03 -1.141290e+01
4.000460e+02 -1.599650e+03 -1.126330e+01
-1.203700e-01 -1.200130e+03 -1.220230e+01
3.998960e+02 -1.200000e+03 -1.199460e+01
-3.996230e+02 -1.201460e+03 -4.138720e+02
3.400360e-01 -1.201180e+03 -4.138320e+02
-4.001130e+02 -8.018610e+02 -4.138760e+02
-1.762850e-01 -8.014970e+02 -4.141900e+02
-4.001330e+02 -1.200100e+03 -1.236910e+01
-1.203700e-01 -1.200130e+03 -1.220230e+01
-4.000630e+02 -7.997200e+02 -1.399200e+01
-1.442450e-02 -7.998790e+02 -1.375560e+01
3.400360e-01 -1.201180e+03 -4.138320e+02
4.002950e+02 -1.201050e+03 -4.138780e+02
-1.762850e-01 -8.014970e+02 -4.141900e+02
3.997740e+02 -8.011470e+02 -4.144860e+02
-1.203700e-01 -1.200130e+03 -1.220230e+01
3.998960e+02 -1.200000e+03 -1.199460e+01
-1.442450e-02 -7.998790e+02 -1.375560e+01
4.000360e+02 -8.000480e+02 -1.366330e+01
-4.001130e+02 -8.018610e+02 -4.138760e+02
-1.762850e-01 -8.014970e+02 -4.141900e+02
-3.999570e+02 -4.016630e+02 -4.166700e+02
3.944320e-02 -4.017910e+02 -4.162070e+02
-4.000630e+02 -7.997200e+02 -1.399200e+01
-1.442450e-02 -7.998790e+02 -1.375560e+01
-4.000870e+02 -4.003220e+02 -1.575360e+01
-7.467060e-02 -4.001030e+02 -1.589290e+01
-1.762850e-01 -8.014970e+02 -4.141900e+02
3.997740e+02 -8.011470e+02 -4.144860e+02
3.944320e-02 -4.017910e+02 -4.162070e+02
4.000540e+02 -4.017050e+02 -4.159450e+02
-1.442450e-02 -7.998790e+02 -1.375560e+01
4.000360e+02 -8.000480e+02 -1.366330e+01
-7.467060e-02 -4.001030e+02 -1.589290e+01
3.999420e+02 -3.999750e+02 -1.568300e+01
-3.999570e+02 -4.016630e+02 -4.166700e+02
3.944320e-02 -4.017910e+02 -4.162070e+02
-4.003660e+02 -1.832490e+00 -4.181280e+02
-3.357510e-01 -2.031510e+00 -4.186950e+02
-4.000870e+02 -4.003220e+02 -1.575360e+01
-7.467060e-02 -4.001030e+02 -1.589290e+01
-3.998220e+02 -1.744360e-01 -1.812810e+01
1.418850e-01 -1.687960e-01 -1.773490e+01
3.944320e-02 -4.017910e+02 -4.162070e+02
4.000540e+02 -4.017050e+02 -4.159450e+02
[...]
<PointData>
<DataArray type="Float32" Name="V1" format="ascii">
0.000000e+00
0.000000e+00
4.354620e-01
4.425170e-01
0.000000e+00
0.000000e+00
-3.688050e-01
-3.900210e-01
0.000000e+00
0.000000e+00
4.425170e-01
4.908150e-01
0.000000e+00
0.000000e+00
-3.900210e-01
-3.992500e-01
4.354620e-01
4.425170e-01
-6.081270e-01
-5.281150e-01
-3.688050e-01
-3.900210e-01
3.771710e-01
2.983200e-01
4.425170e-01
4.908150e-01
-5.281150e-01
-4.620350e-01
-3.900210e-01
-3.992500e-01
2.983200e-01
2.087880e-01
-6.081270e-01
-5.281150e-01
-4.638160e-01
-4.122360e-01
3.771710e-01
2.983200e-01
3.618390e-01
4.504460e-01
-5.281150e-01
-4.620350e-01
-4.122360e-01
-3.466680e-01
2.983200e-01
2.087880e-01
4.504460e-01
5.266420e-01
-4.638160e-01
-4.122360e-01
9.989030e-02
1.219770e-01
3.618390e-01
4.504460e-01
5.006760e-02
2.753490e-02
-4.122360e-01
-3.466680e-01
1.219770e-01
1.199480e-01
4.504460e-01
5.266420e-01
2.753490e-02
3.566500e-02
9.989030e-02
1.219770e-01
-5.980340e-01
-5.922050e-01
5.006760e-02
2.753490e-02
2.803360e-01
3.957270e-01
1.219770e-01
1.199480e-01
-5.922050e-01
-5.902880e-01
2.753490e-02
3.566500e-02
3.957270e-01
4.795080e-01
-5.980340e-01
-5.922050e-01
-4.542020e-02
9.105810e-02
2.803360e-01
3.957270e-01
-8.930950e-02
-1.169250e-01
-5.922050e-01
-5.902880e-01
9.105810e-02
1.787990e-01
3.957270e-01
4.795080e-01
-1.169250e-01
-1.194070e-01
-4.542020e-02
9.105810e-02
-3.706350e-01
-2.338130e-01
-8.930950e-02
-1.169250e-01
4.360110e-01
3.098640e-01
9.105810e-02
1.787990e-01
-2.338130e-01
-7.060310e-02
-1.169250e-01
-1.194070e-01
3.098640e-01
1.732080e-01
-3.706350e-01
-2.338130e-01
1.814750e-01
1.042390e-01
4.360110e-01
3.098640e-01
7.633240e-03
4.413800e-02
-2.338130e-01
-7.060310e-02
1.042390e-01
5.782430e-02
3.098640e-01
1.732080e-01
4.413800e-02
7.075540e-02
1.814750e-01
1.042390e-01
-7.429620e-01
-6.493670e-01
7.633240e-03
4.413800e-02
3.298760e-01
3.396750e-01
1.042390e-01
5.782430e-02
-6.493670e-01
-5.717470e-01
4.413800e-02
7.075540e-02
3.396750e-01
3.333400e-01
-7.429620e-01
-6.493670e-01
-2.253440e-03
7.627120e-02
3.298760e-01
3.396750e-01
-5.974350e-02
2.145420e-02
-6.493670e-01
-5.717470e-01
7.627120e-02
1.510670e-01
3.396750e-01
3.333400e-01
2.145420e-02
1.232610e-01
-2.253440e-03
7.627120e-02
-7.225610e-01
-5.009080e-01
-5.974350e-02
2.145420e-02
4.729790e-01
4.041040e-01
7.627120e-02
1.510670e-01
-5.009080e-01
-2.302320e-01
2.145420e-02
1.232610e-01
4.041040e-01
3.167730e-01
-7.225610e-01
-5.009080e-01
9.677050e-02
-3.345500e-02
4.729790e-01
4.041040e-01
-3.469100e-02
4.613670e-02
-5.009080e-01
-2.302320e-01
-3.345500e-02
-1.703840e-01
4.041040e-01
3.167730e-01
4.613670e-02
1.162120e-01
9.677050e-02
-3.345500e-02
4.942550e-02
1.032680e-01
-3.469100e-02
4.613670e-02
-5.088200e-02
-9.613990e-02
-3.345500e-02
-1.703840e-01
1.032680e-01
1.705330e-01
4.613670e-02
1.162120e-01
-9.613990e-02
-1.260210e-01
4.942550e-02
1.032680e-01
6.151930e-02
-2.123310e-02
-5.088200e-02
-9.613990e-02
3.990530e-02
1.108900e-01
1.032680e-01
1.705330e-01
-2.123310e-02
-1.118810e-01
-9.613990e-02
-1.260210e-01
1.108900e-01
1.546610e-01
6.151930e-02
-2.123310e-02
4.602160e-01
5.435250e-01
3.990530e-02
1.108900e-01
-2.175740e-01
-2.973240e-01
-2.123310e-02
-1.118810e-01
5.435250e-01
6.239790e-01
1.108900e-01
1.546610e-01
-2.973240e-01
-3.688230e-01
4.602160e-01
5.435250e-01
-3.725490e-01
-4.080140e-01
-2.175740e-01
-2.973240e-01
2.324390e-01
2.583900e-01
5.435250e-01
6.239790e-01
-4.080140e-01
-4.238140e-01
-2.973240e-01
-3.688230e-01
2.583900e-01
2.725540e-01
-3.725490e-01
-4.080140e-01
4.654850e-01
5.099640e-01
2.324390e-01
2.583900e-01
-1.957840e-01
-1.971560e-01
-4.080140e-01
-4.238140e-01
5.099640e-01
5.325510e-01
2.583900e-01
2.725540e-01
-1.971560e-01
-1.824630e-01
4.654850e-01
5.099640e-01
5.009710e-01
3.503050e-01
-1.957840e-01
-1.971560e-01
-3.596820e-02
5.795180e-02
5.099640e-01
5.325510e-01
3.503050e-01
2.534640e-01
-1.971560e-01
-1.824630e-01
5.795180e-02
1.141430e-01
5.009710e-01
3.503050e-01
-3.664630e-02
3.923740e-02
-3.596820e-02
5.795180e-02
-1.767280e-01
-2.220650e-01
3.503050e-01
2.534640e-01
3.923740e-02
8.076370e-02
5.795180e-02
1.141430e-01
-2.220650e-01
-2.340600e-01
-3.664630e-02
3.923740e-02
1.016620e-01
1.382450e-01
-1.767280e-01
-2.220650e-01
2.216440e-01
2.052230e-01
3.923740e-02
8.076370e-02
1.382450e-01
1.899330e-01
-2.220650e-01
-2.340600e-01
2.052230e-01
1.529620e-01
1.016620e-01
1.382450e-01
4.293100e-01
3.940260e-01
2.216440e-01
2.052230e-01
-5.600240e-01
-5.458850e-01
1.382450e-01
1.899330e-01
3.940260e-01
3.099650e-01
2.052230e-01
1.529620e-01
-5.458850e-01
-5.055720e-01
4.293100e-01
3.940260e-01
-5.146690e-01
-4.756170e-01
-5.600240e-01
-5.458850e-01
2.508530e-01
2.774960e-01
3.940260e-01
3.099650e-01
-4.756170e-01
-3.458540e-01
-5.458850e-01
-5.055720e-01
2.774960e-01
2.781750e-01
-5.146690e-01
-4.756170e-01
3.203900e-01
2.845420e-01
2.508530e-01
2.774960e-01
-3.751420e-01
-4.028200e-01
-4.756170e-01
-3.458540e-01
2.845420e-01
2.010840e-01
2.774960e-01
2.781750e-01
-4.028200e-01
-4.275930e-01
3.203900e-01
2.845420e-01
1.753670e-01
2.096120e-01
-3.751420e-01
-4.028200e-01
-2.098050e-01
-2.479210e-01
2.845420e-01
2.010840e-01
2.096120e-01
2.509110e-01
-4.028200e-01
-4.275930e-01
-2.479210e-01
-2.605260e-01
1.753670e-01
2.096120e-01
2.235610e-01
3.625000e-02
-2.098050e-01
-2.479210e-01
-7.644250e-02
-2.034480e-04
2.096120e-01
2.509110e-01
3.625000e-02
-1.059270e-01
-2.479210e-01
-2.605260e-01
-2.034480e-04
4.766420e-02
2.235610e-01
3.625000e-02
2.208740e-01
2.295080e-01
-7.644250e-02
-2.034480e-04
-1.254770e-01
-1.321140e-01
3.625000e-02
-1.059270e-01
2.295080e-01
2.144410e-01
-2.034480e-04
4.766420e-02
-1.321140e-01
-1.256260e-01
2.208740e-01
2.295080e-01
2.378620e-01
1.001110e-01
-1.254770e-01
-1.321140e-01
-3.107160e-01
-2.470370e-01
2.295080e-01
2.144410e-01
1.001110e-01
-2.162120e-02
-1.321140e-01
-1.256260e-01
-2.470370e-01
-1.967010e-01
2.378620e-01
1.001110e-01
-2.247950e-01
-3.489980e-01
-3.107160e-01
-2.470370e-01
9.283500e-02
1.645790e-01
1.001110e-01
-2.162120e-02
-3.489980e-01
-4.872240e-01
-2.470370e-01
-1.967010e-01
1.645790e-01
2.639860e-01
-2.247950e-01
-3.489980e-01
-4.444670e-02
-1.203630e-01
9.283500e-02
1.645790e-01
2.605010e-01
2.850830e-01
-3.489980e-01
-4.872240e-01
-1.203630e-01
-1.681220e-01
1.645790e-01
2.639860e-01
2.850830e-01
2.795790e-01
-4.444670e-02
-1.203630e-01
1.117930e-01
2.984040e-01
2.605010e-01
2.850830e-01
-2.578790e-01
-3.793210e-01
-1.203630e-01
-1.681220e-01
2.984040e-01
3.872620e-01
2.850830e-01
2.795790e-01
-3.793210e-01
-4.650710e-01
0.000000e+00
0.000000e+00
-3.688050e-01
-3.900210e-01
0.000000e+00
0.000000e+00
3.469660e-01
3.515680e-01
0.000000e+00
0.000000e+00
-3.900210e-01
-3.992500e-01
0.000000e+00
0.000000e+00
3.515680e-01
3.262260e-01
-3.688050e-01
-3.900210e-01
3.771710e-01
2.983200e-01
3.469660e-01
3.515680e-01
-1.563640e-01
-7.762200e-02
-3.900210e-01
-3.992500e-01
2.983200e-01
2.087880e-01
3.515680e-01
3.262260e-01
-7.762200e-02
1.210740e-03
3.771710e-01
2.983200e-01
3.618390e-01
4.504460e-01
-1.563640e-01
-7.762200e-02
-2.437160e-01
-4.728290e-01
2.983200e-01
2.087880e-01
4.504460e-01
5.266420e-01
-7.762200e-02
1.210740e-03
-4.728290e-01
-6.854500e-01
3.618390e-01
4.504460e-01
5.006760e-02
2.753490e-02
-2.437160e-01
-4.728290e-01
-1.546700e-01
-1.449140e-01
4.504460e-01
5.266420e-01
2.753490e-02
3.566500e-02
-4.728290e-01
-6.854500e-01
-1.449140e-01
-2.053850e-01
5.006760e-02
2.753490e-02
2.803360e-01
3.957270e-01
-1.546700e-01
-1.449140e-01
2.093080e-02
-2.463140e-01
2.753490e-02
3.566500e-02
3.957270e-01
4.795080e-01
-1.449140e-01
-2.053850e-01
-2.463140e-01
-4.290780e-01
2.803360e-01
3.957270e-01
-8.930950e-02
-1.169250e-01
2.093080e-02
-2.463140e-01
1.997130e-01
1.576620e-01
3.957270e-01
4.795080e-01
-1.169250e-01
-1.194070e-01
-2.463140e-01
-4.290780e-01
1.576620e-01
8.714790e-02
-8.930950e-02
-1.169250e-01
4.360110e-01
3.098640e-01
1.997130e-01
1.576620e-01
-5.125410e-01
-4.128550e-01
-1.169250e-01
-1.194070e-01
3.098640e-01
1.732080e-01
1.576620e-01
8.714790e-02
-4.128550e-01
-2.891850e-01
4.360110e-01
3.098640e-01
7.633240e-03
4.413800e-02
-5.125410e-01
-4.128550e-01
-1.885670e-01
-1.532990e-01
3.098640e-01
1.732080e-01
4.413800e-02
7.075540e-02
-4.128550e-01
-2.891850e-01
-1.532990e-01
-1.689310e-01
7.633240e-03
4.413800e-02
3.298760e-01
3.396750e-01
-1.885670e-01
-1.532990e-01
8.649010e-02
-3.284130e-02
4.413800e-02
7.075540e-02
3.396750e-01
3.333400e-01
-1.532990e-01
-1.689310e-01
-3.284130e-02
-1.165330e-01
3.298760e-01
3.396750e-01
-5.974350e-02
2.145420e-02
8.649010e-02
-3.284130e-02
1.029570e-01
-1.400160e-01
3.396750e-01
3.333400e-01
2.145420e-02
1.232610e-01
-3.284130e-02
-1.165330e-01
-1.400160e-01
-3.873360e-01
-5.974350e-02
2.145420e-02
4.729790e-01
4.041040e-01
1.029570e-01
-1.400160e-01
-2.314570e-01
-3.327410e-01
2.145420e-02
1.232610e-01
4.041040e-01
3.167730e-01
-1.400160e-01
-3.873360e-01
-3.327410e-01
-4.428020e-01
4.729790e-01
4.041040e-01
-3.469100e-02
4.613670e-02
-2.314570e-01
-3.327410e-01
-3.877990e-02
-2.893810e-02
4.041040e-01
3.167730e-01
4.613670e-02
1.162120e-01
-3.327410e-01
-4.428020e-01
-2.893810e-02
2.526960e-02
-3.469100e-02
4.613670e-02
-5.088200e-02
-9.613990e-02
-3.877990e-02
-2.893810e-02
5.148430e-02
7.651150e-02
4.613670e-02
1.162120e-01
-9.613990e-02
-1.260210e-01
-2.893810e-02
2.526960e-02
7.651150e-02
4.996060e-02
-5.088200e-02
-9.613990e-02
3.990530e-02
1.108900e-01
5.148430e-02
7.651150e-02
-1.379040e-01
-1.879800e-01
-9.613990e-02
-1.260210e-01
1.108900e-01
1.546610e-01
7.651150e-02
4.996060e-02
-1.879800e-01
-1.780270e-01
3.990530e-02
1.108900e-01
-2.175740e-01
-2.973240e-01
-1.379040e-01
-1.879800e-01
-2.257420e-02
6.540130e-02
1.108900e-01
1.546610e-01
-2.973240e-01
-3.688230e-01
-1.879800e-01
-1.780270e-01
6.540130e-02
1.398370e-01
-2.175740e-01
-2.973240e-01
2.324390e-01
2.583900e-01
-2.257420e-02
6.540130e-02
-1.650470e-01
-1.812210e-01
-2.973240e-01
-3.688230e-01
2.583900e-01
2.725540e-01
6.540130e-02
1.398370e-01
-1.812210e-01
-1.768310e-01
2.324390e-01
2.583900e-01
-1.957840e-01
-1.971560e-01
-1.650470e-01
-1.812210e-01
5.717120e-03
-2.795800e-02
2.583900e-01
2.725540e-01
-1.971560e-01
-1.824630e-01
-1.812210e-01
-1.768310e-01
-2.795800e-02
-4.357130e-02
-1.957840e-01
-1.971560e-01
-3.596820e-02
5.795180e-02
5.717120e-03
-2.795800e-02
-5.190640e-01
-5.206070e-01
-1.971560e-01
-1.824630e-01
5.795180e-02
1.141430e-01
-2.795800e-02
-4.357130e-02
-5.206070e-01
-5.220260e-01
-3.596820e-02
5.795180e-02
-1.767280e-01
-2.220650e-01
-5.190640e-01
-5.206070e-01
4.256970e-01
4.241840e-01
5.795180e-02
1.141430e-01
-2.220650e-01
-2.340600e-01
-5.206070e-01
-5.220260e-01
4.241840e-01
4.005230e-01
-1.767280e-01
-2.220650e-01
2.216440e-01
2.052230e-01
4.256970e-01
4.241840e-01
-5.434470e-01
-5.290850e-01
-2.220650e-01
-2.340600e-01
2.052230e-01
1.529620e-01
4.241840e-01
4.005230e-01
-5.290850e-01
-4.688230e-01
2.216440e-01
2.052230e-01
-5.600240e-01
-5.458850e-01
-5.434470e-01
-5.290850e-01
6.285020e-01
6.244810e-01
2.052230e-01
1.529620e-01
-5.458850e-01
-5.055720e-01
-5.290850e-01
-4.688230e-01
6.244810e-01
6.321750e-01
-5.600240e-01
-5.458850e-01
2.508530e-01
2.774960e-01
6.285020e-01
6.244810e-01
9.411150e-03
-3.523350e-02
-5.458850e-01
-5.055720e-01
2.774960e-01
2.781750e-01
6.244810e-01
6.321750e-01
-3.523350e-02
-1.288840e-01
2.508530e-01
2.774960e-01
-3.751420e-01
-4.028200e-01
9.411150e-03
-3.523350e-02
4.706150e-01
5.213660e-01
2.774960e-01
2.781750e-01
-4.028200e-01
-4.275930e-01
-3.523350e-02
-1.288840e-01
5.213660e-01
6.230200e-01
-3.751420e-01
-4.028200e-01
-2.098050e-01
-2.479210e-01
4.706150e-01
5.213660e-01
2.410920e-01
2.576380e-01
-4.028200e-01
-4.275930e-01
-2.479210e-01
-2.605260e-01
5.213660e-01
6.230200e-01
2.576380e-01
2.720140e-01
-2.098050e-01
-2.479210e-01
-7.644250e-02
-2.034480e-04
2.410920e-01
2.576380e-01
-2.516150e-02
2.262060e-02
-2.479210e-01
-2.605260e-01
-2.034480e-04
4.766420e-02
2.576380e-01
2.720140e-01
2.262060e-02
4.862540e-02
-7.644250e-02
-2.034480e-04
-1.254770e-01
-1.321140e-01
-2.516150e-02
2.262060e-02
-7.934120e-03
-3.281050e-02
-2.034480e-04
4.766420e-02
-1.321140e-01
-1.256260e-01
2.262060e-02
4.862540e-02
-3.281050e-02
-6.116860e-02
-1.254770e-01
-1.321140e-01
-3.107160e-01
-2.470370e-01
-7.934120e-03
-3.281050e-02
4.474690e-01
4.439020e-01
-1.321140e-01
-1.256260e-01
-2.470370e-01
-1.967010e-01
-3.281050e-02
-6.116860e-02
4.439020e-01
4.656140e-01
-3.107160e-01
-2.470370e-01
9.283500e-02
1.645790e-01
4.474690e-01
4.439020e-01
3.646940e-02
-1.223850e-02
-2.470370e-01
-1.967010e-01
1.645790e-01
2.639860e-01
4.439020e-01
4.656140e-01
-1.223850e-02
-8.538570e-02
9.283500e-02
1.645790e-01
2.605010e-01
2.850830e-01
3.646940e-02
-1.223850e-02
-4.650540e-01
-4.016510e-01
1.645790e-01
2.639860e-01
2.850830e-01
2.795790e-01
-1.223850e-02
-8.538570e-02
-4.016510e-01
-3.572180e-01
2.605010e-01
2.850830e-01
-2.578790e-01
-3.793210e-01
-4.650540e-01
-4.016510e-01
3.943160e-01
4.017950e-01
2.850830e-01
2.795790e-01
-3.793210e-01
-4.650710e-01
-4.016510e-01
-3.572180e-01
4.017950e-01
4.567990e-01
</DataArray>
<DataArray type="Float32" Name="V2" format="ascii">
0.000000e+00
0.000000e+00
3.190760e-01
2.195750e-02
0.000000e+00
0.000000e+00
-5.426920e-01
-1.251700e-01
0.000000e+00
0.000000e+00
2.195750e-02
3.313060e-01
0.000000e+00
0.000000e+00
-1.251700e-01
5.003910e-02
3.190760e-01
2.195750e-02
-6.947590e-01
-2.910660e-01
-5.426920e-01
-1.251700e-01
4.069940e-01
3.350220e-01
2.195750e-02
3.313060e-01
-2.910660e-01
-1.307970e-01
-1.251700e-01
5.003910e-02
3.350220e-01
1.152370e-01
-6.947590e-01
-2.910660e-01
-9.721180e-02
-4.652340e-02
4.069940e-01
3.350220e-01
3.188870e-02
-1.377460e-01
-2.910660e-01
-1.307970e-01
-4.652340e-02
6.150470e-02
3.350220e-01
1.152370e-01
-1.377460e-01
-1.995410e-01
-9.721180e-02
-4.652340e-02
-5.187640e-02
1.611290e-01
3.188870e-02
-1.377460e-01
-1.720850e-02
-2.131540e-01
-4.652340e-02
6.150470e-02
1.611290e-01
2.171850e-01
-1.377460e-01
-1.995410e-01
-2.131540e-01
-3.380890e-01
-5.187640e-02
1.611290e-01
5.903270e-01
2.545190e-01
-1.720850e-02
-2.131540e-01
-6.405300e-01
-2.474530e-01
1.611290e-01
2.171850e-01
2.545190e-01
5.124680e-01
-2.131540e-01
-3.380890e-01
-2.474530e-01
-2.163680e-01
5.903270e-01
2.545190e-01
-2.238950e-01
2.982900e-02
-6.405300e-01
-2.474530e-01
-1.163220e-01
-2.040720e-01
2.545190e-01
5.124680e-01
2.982900e-02
-2.169590e-03
-2.474530e-01
-2.163680e-01
-2.040720e-01
4.935570e-02
-2.238950e-01
2.982900e-02
-3.006520e-02
-2.037360e-01
-1.163220e-01
-2.040720e-01
1.042630e-01
2.766010e-01
2.982900e-02
-2.169590e-03
-2.037360e-01
-8.663750e-02
-2.040720e-01
4.935570e-02
2.766010e-01
2.386780e-01
-3.006520e-02
-2.037360e-01
-6.437390e-01
6.534410e-02
1.042630e-01
2.766010e-01
5.545740e-01
1.805460e-01
-2.037360e-01
-8.663750e-02
6.534410e-02
3.005520e-01
2.766010e-01
2.386780e-01
1.805460e-01
7.762210e-02
-6.437390e-01
6.534410e-02
-1.908610e-03
-1.975060e-01
5.545740e-01
1.805460e-01
2.288020e-01
2.356480e-01
6.534410e-02
3.005520e-01
-1.975060e-01
-5.293760e-01
1.805460e-01
7.762210e-02
2.356480e-01
2.572420e-01
-1.908610e-03
-1.975060e-01
9.368900e-02
-8.143990e-02
2.288020e-01
2.356480e-01
-1.369120e-01
2.998620e-02
-1.975060e-01
-5.293760e-01
-8.143990e-02
-3.066770e-01
2.356480e-01
2.572420e-01
2.998620e-02
3.023540e-01
9.368900e-02
-8.143990e-02
-6.819530e-01
1.309630e-01
-1.369120e-01
2.998620e-02
4.600840e-03
-8.466380e-02
-8.143990e-02
-3.066770e-01
1.309630e-01
6.794010e-01
2.998620e-02
3.023540e-01
-8.466380e-02
-2.993610e-01
-6.819530e-01
1.309630e-01
7.610120e-01
4.134360e-01
4.600840e-03
-8.466380e-02
-4.007570e-01
-4.167180e-01
1.309630e-01
6.794010e-01
4.134360e-01
2.356490e-01
-8.466380e-02
-2.993610e-01
-4.167180e-01
-1.916400e-01
7.610120e-01
4.134360e-01
8.942780e-02
-3.829320e-01
-4.007570e-01
-4.167180e-01
-1.768420e-01
3.295660e-01
4.134360e-01
2.356490e-01
-3.829320e-01
-4.280440e-01
-4.167180e-01
-1.916400e-01
3.295660e-01
3.869080e-01
8.942780e-02
-3.829320e-01
-2.086690e-01
-3.219580e-01
-1.768420e-01
3.295660e-01
2.663930e-02
4.439030e-01
-3.829320e-01
-4.280440e-01
-3.219580e-01
-4.347550e-01
3.295660e-01
3.869080e-01
4.439030e-01
6.105070e-01
-2.086690e-01
-3.219580e-01
-9.900970e-02
3.808930e-01
2.663930e-02
4.439030e-01
9.729710e-02
-2.991810e-01
-3.219580e-01
-4.347550e-01
3.808930e-01
8.555920e-01
4.439030e-01
6.105070e-01
-2.991810e-01
-8.010470e-01
-9.900970e-02
3.808930e-01
1.646230e-01
-1.361590e-01
9.729710e-02
-2.991810e-01
-3.225520e-01
-1.005910e-02
3.808930e-01
8.555920e-01
-1.361590e-01
-2.054010e-01
-2.991810e-01
-8.010470e-01
-1.005910e-02
7.507180e-02
1.646230e-01
-1.361590e-01
-1.482100e-01
-3.022890e-02
-3.225520e-01
-1.005910e-02
1.062890e-01
-2.539040e-01
-1.361590e-01
-2.054010e-01
-3.022890e-02
4.524330e-03
-1.005910e-02
7.507180e-02
-2.539040e-01
-6.680500e-01
-1.482100e-01
-3.022890e-02
5.448250e-01
1.884260e-01
1.062890e-01
-2.539040e-01
-4.429540e-01
-6.492240e-02
-3.022890e-02
4.524330e-03
1.884260e-01
-2.817220e-01
-2.539040e-01
-6.680500e-01
-6.492240e-02
3.004000e-01
5.448250e-01
1.884260e-01
-9.440150e-02
1.266420e-01
-4.429540e-01
-6.492240e-02
4.435420e-01
-2.613740e-03
1.884260e-01
-2.817220e-01
1.266420e-01
2.997180e-01
-6.492240e-02
3.004000e-01
-2.613740e-03
-4.148060e-01
-9.440150e-02
1.266420e-01
-3.276930e-01
-2.092230e-01
4.435420e-01
-2.613740e-03
3.018260e-01
3.504070e-01
1.266420e-01
2.997180e-01
-2.092230e-01
-2.120000e-01
-2.613740e-03
-4.148060e-01
3.504070e-01
3.881280e-01
-3.276930e-01
-2.092230e-01
-4.119970e-01
-3.026090e-02
3.018260e-01
3.504070e-01
1.274730e-01
8.448540e-02
-2.092230e-01
-2.120000e-01
-3.026090e-02
2.817970e-01
3.504070e-01
3.881280e-01
8.448540e-02
7.976080e-02
-4.119970e-01
-3.026090e-02
-5.210680e-01
3.230310e-01
1.274730e-01
8.448540e-02
2.458490e-01
-1.503690e-01
-3.026090e-02
2.817970e-01
3.230310e-01
6.591770e-01
8.448540e-02
7.976080e-02
-1.503690e-01
-3.549390e-01
-5.210680e-01
3.230310e-01
1.877690e-01
-2.054180e-01
2.458490e-01
-1.503690e-01
-1.875860e-01
2.603500e-01
3.230310e-01
6.591770e-01
-2.054180e-01
-5.926560e-01
-1.503690e-01
-3.549390e-01
2.603500e-01
7.582130e-01
1.877690e-01
-2.054180e-01
-5.994350e-01
-4.435180e-01
-1.875860e-01
2.603500e-01
3.220380e-01
1.836350e-01
-2.054180e-01
-5.926560e-01
-4.435180e-01
1.627360e-01
2.603500e-01
7.582130e-01
1.836350e-01
-4.916090e-02
-5.994350e-01
-4.435180e-01
1.661010e-01
2.514380e-01
3.220380e-01
1.836350e-01
9.764200e-02
-1.391730e-01
-4.435180e-01
1.627360e-01
2.514380e-01
4.018660e-01
1.836350e-01
-4.916090e-02
-1.391730e-01
-7.228070e-01
1.661010e-01
2.514380e-01
1.315560e-01
4.658480e-02
9.764200e-02
-1.391730e-01
-1.165760e-01
-5.768050e-02
2.514380e-01
4.018660e-01
4.658480e-02
-7.767000e-02
-1.391730e-01
-7.228070e-01
-5.768050e-02
-5.999960e-02
1.315560e-01
4.658480e-02
1.166750e-01
8.452560e-02
-1.165760e-01
-5.768050e-02
-2.171600e-01
-1.672120e-01
4.658480e-02
-7.767000e-02
8.452560e-02
-4.004060e-01
-5.768050e-02
-5.999960e-02
-1.672120e-01
3.556160e-01
1.166750e-01
8.452560e-02
9.403020e-03
-4.763320e-01
-2.171600e-01
-1.672120e-01
-2.248840e-01
2.094100e-01
8.452560e-02
-4.004060e-01
-4.763320e-01
-7.360200e-01
-1.672120e-01
3.556160e-01
2.094100e-01
6.084180e-01
9.403020e-03
-4.763320e-01
-4.694430e-02
-3.737960e-01
-2.248840e-01
2.094100e-01
-2.075900e-01
2.086770e-01
-4.763320e-01
-7.360200e-01
-3.737960e-01
-9.956790e-01
2.094100e-01
6.084180e-01
2.086770e-01
7.231840e-01
-4.694430e-02
-3.737960e-01
-4.536020e-01
-3.487600e-01
-2.075900e-01
2.086770e-01
6.968850e-01
5.154510e-01
-3.737960e-01
-9.956790e-01
-3.487600e-01
-9.501730e-02
2.086770e-01
7.231840e-01
5.154510e-01
-8.663560e-02
0.000000e+00
0.000000e+00
-5.426920e-01
-1.251700e-01
0.000000e+00
0.000000e+00
6.002020e-01
2.003360e-01
0.000000e+00
0.000000e+00
-1.251700e-01
5.003910e-02
0.000000e+00
0.000000e+00
2.003360e-01
-4.082530e-01
-5.426920e-01
-1.251700e-01
4.069940e-01
3.350220e-01
6.002020e-01
2.003360e-01
3.700640e-02
-3.613520e-01
-1.251700e-01
5.003910e-02
3.350220e-01
1.152370e-01
2.003360e-01
-4.082530e-01
-3.613520e-01
-1.537980e-01
4.069940e-01
3.350220e-01