<?xml version="1.0"?>
<VTKFile type="UnstructuredGrid" version="0.1" byte_order="LittleEndian" compressor="vtkZLibDataCompressor">
<UnstructuredGrid>
<Piece NumberOfPoints="960" NumberOfCells="120">
<Points>
<DataArray type="Float32" NumberOfComponents="3" format="ascii">
-4.000000e+02 -6.000000e+03 -4.000000e+02
0.000000e+00 -6.000000e+03 -4.000000e+02
-4.003090e+02 -5.600710e+03 -4.000940e+02
-2.200470e-01 -5.600120e+03 -4.013860e+02
-4.000000e+02 -6.000000e+03 0.000000e+00
0.000000e+00 -6.000000e+03 0.000000e+00
-3.998670e+02 -5.600240e+03 -7.921360e-01
-1.126340e-02 -5.599950e+03 -9.523380e-01
0.000000e+00 -6.000000e+03 -4.000000e+02
4.000000e+02 -6.000000e+03 -4.000000e+02
-2.200470e-01 -5.600120e+03 -4.013860e+02
3.998980e+02 -5.600340e+03 -4.008120e+02
0.000000e+00 -6.000000e+03 0.000000e+00
4.000000e+02 -6.000000e+03 0.000000e+00
-1.126340e-02 -5.599950e+03 -9.523380e-01
3.998970e+02 -5.600090e+03 -9.444410e-01
-4.003090e+02 -5.600710e+03 -4.000940e+02
-2.200470e-01 -5.600120e+03 -4.013860e+02
-4.004260e+02 -5.200810e+03 -4.008030e+02
-7.189620e-01 -5.201090e+03 -4.011600e+02
-3.998670e+02 -5.600240e+03 -7.921360e-01
-1.126340e-02 -5.599950e+03 -9.523380e-01
-4.003450e+02 -5.200080e+03 -1.268000e+00
6.707600e-02 -5.200000e+03 -1.135030e+00
-2.200470e-01 -5.600120e+03 -4.013860e+02
3.998980e+02 -5.600340e+03 -4.008120e+02
-7.189620e-01 -5.201090e+03 -4.011600e+02
3.989960e+02 -5.201500e+03 -4.020730e+02
-1.126340e-02 -5.599950e+03 -9.523380e-01
3.998970e+02 -5.600090e+03 -9.444410e-01
6.707600e-02 -5.200000e+03 -1.135030e+00
4.003670e+02 -5.199780e+03 -1.883320e+00
-4.004260e+02 -5.200810e+03 -4.008030e+02
-7.189620e-01 -5.201090e+03 -4.011600e+02
-4.011490e+02 -4.801160e+03 -4.023540e+02
-7.723250e-01 -4.801960e+03 -4.032370e+02
-4.003450e+02 -5.200080e+03 -1.268000e+00
6.707600e-02 -5.200000e+03 -1.135030e+00
-3.999650e+02 -4.800290e+03 -1.393870e+00
-4.655520e-02 -4.799870e+03 -2.712450e+00
-7.189620e-01 -5.201090e+03 -4.011600e+02
3.989960e+02 -5.201500e+03 -4.020730e+02
-7.723250e-01 -4.801960e+03 -4.032370e+02
3.996400e+02 -4.801980e+03 -4.031000e+02
6.707600e-02 -5.200000e+03 -1.135030e+00
4.003670e+02 -5.199780e+03 -1.883320e+00
-4.655520e-02 -4.799870e+03 -2.712450e+00
3.999040e+02 -4.799800e+03 -3.806230e+00
-4.011490e+02 -4.801160e+03 -4.023540e+02
-7.723250e-01 -4.801960e+03 -4.032370e+02
-4.008280e+02 -4.402200e+03 -4.041320e+02
-9.453760e-01 -4.402280e+03 -4.042480e+02
-3.999650e+02 -4.800290e+03 -1.393870e+00
-4.655520e-02 -4.799870e+03 -2.712450e+00
-4.000740e+02 -4.399750e+03 -3.251620e+00
-1.399900e-01 -4.399700e+03 -4.058410e+00
-7.723250e-01 -4.801960e+03 -4.032370e+02
3.996400e+02 -4.801980e+03 -4.031000e+02
-9.453760e-01 -4.402280e+03 -4.042480e+02
3.988880e+02 -4.402160e+03 -4.047250e+02
-4.655520e-02 -4.799870e+03 -2.712450e+00
3.999040e+02 -4.799800e+03 -3.806230e+00
-1.399900e-01 -4.399700e+03 -4.058410e+00
3.998470e+02 -4.399930e+03 -6.270530e+00
-4.008280e+02 -4.402200e+03 -4.041320e+02
-9.453760e-01 -4.402280e+03 -4.042480e+02
-4.009940e+02 -4.002310e+03 -4.069300e+02
-1.032970e+00 -4.002620e+03 -4.082690e+02
-4.000740e+02 -4.399750e+03 -3.251620e+00
-1.399900e-01 -4.399700e+03 -4.058410e+00
-4.000340e+02 -4.000150e+03 -6.295470e+00
-6.115340e-02 -4.000250e+03 -6.761670e+00
-9.453760e-01 -4.402280e+03 -4.042480e+02
3.988880e+02 -4.402160e+03 -4.047250e+02
-1.032970e+00 -4.002620e+03 -4.082690e+02
3.990000e+02 -4.003050e+03 -4.088820e+02
-1.399900e-01 -4.399700e+03 -4.058410e+00
3.998470e+02 -4.399930e+03 -6.270530e+00
-6.115340e-02 -4.000250e+03 -6.761670e+00
3.998470e+02 -4.000010e+03 -8.036330e+00
-4.009940e+02 -4.002310e+03 -4.069300e+02
-1.032970e+00 -4.002620e+03 -4.082690e+02
-4.006200e+02 -3.602920e+03 -4.088070e+02
-3.229700e-01 -3.603090e+03 -4.094060e+02
-4.000340e+02 -4.000150e+03 -6.295470e+00
-6.115340e-02 -4.000250e+03 -6.761670e+00
-3.999640e+02 -3.600270e+03 -1.113000e+01
-1.210790e-01 -3.600630e+03 -1.129270e+01
-1.032970e+00 -4.002620e+03 -4.082690e+02
3.990000e+02 -4.003050e+03 -4.088820e+02
-3.229700e-01 -3.603090e+03 -4.094060e+02
3.997010e+02 -3.603770e+03 -4.101160e+02
-6.115340e-02 -4.000250e+03 -6.761670e+00
3.998470e+02 -4.000010e+03 -8.036330e+00
-1.210790e-01 -3.600630e+03 -1.129270e+01
3.998160e+02 -3.600140e+03 -1.127280e+01
-4.006200e+02 -3.602920e+03 -4.088070e+02
-3.229700e-01 -3.603090e+03 -4.094060e+02
-4.001960e+02 -3.204280e+03 -4.132740e+02
-2.195340e-01 -3.203800e+03 -4.142130e+02
-3.999640e+02 -3.600270e+03 -1.113000e+01
-1.210790e-01 -3.600630e+03 -1.129270e+01
-4.003570e+02 -3.199630e+03 -1.327950e+01
-1.704540e-01 -3.200000e+03 -1.359230e+01
-3.229700e-01 -3.603090e+03 -4.094060e+02
3.997010e+02 -3.603770e+03 -4.101160e+02
-2.195340e-01 -3.203800e+03 -4.142130e+02
3.998750e+02 -3.203840e+03 -4.139960e+02
-1.210790e-01 -3.600630e+03 -1.129270e+01
3.998160e+02 -3.600140e+03 -1.127280e+01
-1.704540e-01 -3.200000e+03 -1.359230e+01
3.999350e+02 -3.200050e+03 -1.426660e+01
-4.001960e+02 -3.204280e+03 -4.132740e+02
-2.195340e-01 -3.203800e+03 -4.142130e+02
-3.998740e+02 -2.804710e+03 -4.180320e+02
-6.617520e-02 -2.804800e+03 -4.172220e+02
-4.003570e+02 -3.199630e+03 -1.327950e+01
-1.704540e-01 -3.200000e+03 -1.359230e+01
-4.000530e+02 -2.799850e+03 -1.708680e+01
-1.527680e-02 -2.799620e+03 -1.821010e+01
-2.195340e-01 -3.203800e+03 -4.142130e+02
3.998750e+02 -3.203840e+03 -4.139960e+02
-6.617520e-02 -2.804800e+03 -4.172220e+02
3.997970e+02 -2.804040e+03 -4.183000e+02
-1.704540e-01 -3.200000e+03 -1.359230e+01
3.999350e+02 -3.200050e+03 -1.426660e+01
-1.527680e-02 -2.799620e+03 -1.821010e+01
4.001000e+02 -2.800090e+03 -1.840900e+01
-3.998740e+02 -2.804710e+03 -4.180320e+02
-6.617520e-02 -2.804800e+03 -4.172220e+02
-3.989750e+02 -2.404530e+03 -4.241780e+02
6.090540e-01 -2.405060e+03 -4.234230e+02
-4.000530e+02 -2.799850e+03 -1.708680e+01
-1.527680e-02 -2.799620e+03 -1.821010e+01
-4.002720e+02 -2.400430e+03 -2.313070e+01
-9.866170e-02 -2.399980e+03 -2.336660e+01
-6.617520e-02 -2.804800e+03 -4.172220e+02
3.997970e+02 -2.804040e+03 -4.183000e+02
6.090540e-01 -2.405060e+03 -4.234230e+02
4.001480e+02 -2.404420e+03 -4.217000e+02
-1.527680e-02 -2.799620e+03 -1.821010e+01
4.001000e+02 -2.800090e+03 -1.840900e+01
-9.866170e-02 -2.399980e+03 -2.336660e+01
4.000940e+02 -2.400120e+03 -2.393900e+01
-3.989750e+02 -2.404530e+03 -4.241780e+02
6.090540e-01 -2.405060e+03 -4.234230e+02
-3.999180e+02 -2.005820e+03 -4.282090e+02
-2.012180e-01 -2.005000e+03 -4.279290e+02
-4.002720e+02 -2.400430e+03 -2.313070e+01
-9.866170e-02 -2.399980e+03 -2.336660e+01
-3.999860e+02 -1.999780e+03 -2.769070e+01
6.703900e-02 -2.000330e+03 -2.758260e+01
6.090540e-01 -2.405060e+03 -4.234230e+02
4.001480e+02 -2.404420e+03 -4.217000e+02
-2.012180e-01 -2.005000e+03 -4.279290e+02
3.994660e+02 -2.005320e+03 -4.278520e+02
-9.866170e-02 -2.399980e+03 -2.336660e+01
4.000940e+02 -2.400120e+03 -2.393900e+01
6.703900e-02 -2.000330e+03 -2.758260e+01
4.001670e+02 -2.000100e+03 -2.878600e+01
-3.999180e+02 -2.005820e+03 -4.282090e+02
-2.012180e-01 -2.005000e+03 -4.279290e+02
-3.998870e+02 -1.606010e+03 -4.331110e+02
3.155220e-01 -1.605590e+03 -4.326040e+02
-3.999860e+02 -1.999780e+03 -2.769070e+01
6.703900e-02 -2.000330e+03 -2.758260e+01
-3.998480e+02 -1.599880e+03 -3.383690e+01
-1.768050e-01 -1.600300e+03 -3.349700e+01
-2.012180e-01 -2.005000e+03 -4.279290e+02
3.994660e+02 -2.005320e+03 -4.278520e+02
3.155220e-01 -1.605590e+03 -4.326040e+02
4.005280e+02 -1.606090e+03 -4.329960e+02
6.703900e-02 -2.000330e+03 -2.758260e+01
4.001670e+02 -2.000100e+03 -2.878600e+01
-1.768050e-01 -1.600300e+03 -3.349700e+01
3.994850e+02 -1.599990e+03 -3.247850e+01
-3.998870e+02 -1.606010e+03 -4.331110e+02
3.155220e-01 -1.605590e+03 -4.326040e+02
-3.989670e+02 -1.205650e+03 -4.397100e+02
6.886720e-01 -1.206090e+03 -4.384050e+02
-3.998480e+02 -1.599880e+03 -3.383690e+01
-1.768050e-01 -1.600300e+03 -3.349700e+01
-4.001440e+02 -1.200300e+03 -3.934120e+01
-1.499700e-01 -1.200220e+03 -3.883550e+01
3.155220e-01 -1.605590e+03 -4.326040e+02
4.005280e+02 -1.606090e+03 -4.329960e+02
6.886720e-01 -1.206090e+03 -4.384050e+02
4.003950e+02 -1.206160e+03 -4.385230e+02
-1.768050e-01 -1.600300e+03 -3.349700e+01
3.994850e+02 -1.599990e+03 -3.247850e+01
-1.499700e-01 -1.200220e+03 -3.883550e+01
3.998200e+02 -1.200480e+03 -3.778740e+01
-3.989670e+02 -1.205650e+03 -4.397100e+02
6.886720e-01 -1.206090e+03 -4.384050e+02
-3.992830e+02 -8.061770e+02 -4.454250e+02
8.015780e-01 -8.063540e+02 -4.447180e+02
-4.001440e+02 -1.200300e+03 -3.934120e+01
-1.499700e-01 -1.200220e+03 -3.883550e+01
-3.997970e+02 -8.002590e+02 -4.549100e+01
1.083480e-02 -8.001680e+02 -4.553170e+01
6.886720e-01 -1.206090e+03 -4.384050e+02
4.003950e+02 -1.206160e+03 -4.385230e+02
8.015780e-01 -8.063540e+02 -4.447180e+02
4.006720e+02 -8.060150e+02 -4.445640e+02
-1.499700e-01 -1.200220e+03 -3.883550e+01
3.998200e+02 -1.200480e+03 -3.778740e+01
1.083480e-02 -8.001680e+02 -4.553170e+01
3.999240e+02 -8.003580e+02 -4.451940e+01
-3.992830e+02 -8.061770e+02 -4.454250e+02
8.015780e-01 -8.063540e+02 -4.447180e+02
-3.998330e+02 -4.067750e+02 -4.501610e+02
1.683150e-01 -4.067690e+02 -4.495780e+02
-3.997970e+02 -8.002590e+02 -4.549100e+01
1.083480e-02 -8.001680e+02 -4.553170e+01
-4.001900e+02 -4.000940e+02 -5.180560e+01
-1.319570e-01 -4.001070e+02 -5.174830e+01
8.015780e-01 -8.063540e+02 -4.447180e+02
4.006720e+02 -8.060150e+02 -4.445640e+02
1.683150e-01 -4.067690e+02 -4.495780e+02
4.003420e+02 -4.060390e+02 -4.495290e+02
1.083480e-02 -8.001680e+02 -4.553170e+01
3.999240e+02 -8.003580e+02 -4.451940e+01
-1.319570e-01 -4.001070e+02 -5.174830e+01
3.998400e+02 -4.007140e+02 -5.193280e+01
-3.998330e+02 -4.067750e+02 -4.501610e+02
1.683150e-01 -4.067690e+02 -4.495780e+02
-3.997610e+02 -6.972790e+00 -4.601160e+02
2.672320e-01 -7.373910e+00 -4.588710e+02
-4.001900e+02 -4.000940e+02 -5.180560e+01
-1.319570e-01 -4.001070e+02 -5.174830e+01
-4.000770e+02 -2.273190e-01 -5.837870e+01
-5.240690e-02 -1.092020e-01 -5.817860e+01
1.683150e-01 -4.067690e+02 -4.495780e+02
[...]
<PointData>
<DataArray type="Float32" Name="V1" format="ascii">
0.000000e+00
0.000000e+00
-6.959950e-01
-1.301360e-01
0.000000e+00
0.000000e+00
5.914750e-01
2.318910e-01
0.000000e+00
0.000000e+00
-1.301360e-01
4.703250e-01
0.000000e+00
0.000000e+00
2.318910e-01
-1.624390e-01
-6.959950e-01
-1.301360e-01
9.165470e-02
1.713420e-02
5.914750e-01
2.318910e-01
-6.689240e-01
-1.454630e-01
-1.301360e-01
4.703250e-01
1.713420e-02
-3.837270e-01
2.318910e-01
-1.624390e-01
-1.454630e-01
4.225990e-01
9.165470e-02
1.713420e-02
-7.510410e-02
-1.456370e-01
-6.689240e-01
-1.454630e-01
2.710040e-01
-1.139770e-01
1.713420e-02
-3.837270e-01
-1.456370e-01
6.561500e-02
-1.454630e-01
4.225990e-01
-1.139770e-01
-6.362020e-01
-7.510410e-02
-1.456370e-01
7.628160e-01
6.563440e-01
2.710040e-01
-1.139770e-01
-8.318990e-01
-3.251480e-01
-1.456370e-01
6.561500e-02
6.563440e-01
-3.392680e-02
-1.139770e-01
-6.362020e-01
-3.251480e-01
1.938420e-01
7.628160e-01
6.563440e-01
9.052880e-02
3.460720e-02
-8.318990e-01
-3.251480e-01
-2.771850e-01
-3.046510e-01
6.563440e-01
-3.392680e-02
3.460720e-02
3.276570e-01
-3.251480e-01
1.938420e-01
-3.046510e-01
-4.304680e-01
9.052880e-02
3.460720e-02
2.184410e-01
-2.048710e-02
-2.771850e-01
-3.046510e-01
2.757670e-01
3.191660e-01
3.460720e-02
3.276570e-01
-2.048710e-02
-3.949650e-01
-3.046510e-01
-4.304680e-01
3.191660e-01
6.512520e-01
2.184410e-01
-2.048710e-02
-9.494320e-02
-8.428910e-02
2.757670e-01
3.191660e-01
5.360250e-01
3.069960e-01
-2.048710e-02
-3.949650e-01
-8.428910e-02
3.142960e-01
3.191660e-01
6.512520e-01
3.069960e-01
-1.993410e-01
-9.494320e-02
-8.428910e-02
3.784670e-01
4.730100e-01
5.360250e-01
3.069960e-01
-5.017590e-01
-3.943190e-01
-8.428910e-02
3.142960e-01
4.730100e-01
2.879540e-01
3.069960e-01
-1.993410e-01
-3.943190e-01
9.627510e-02
3.784670e-01
4.730100e-01
-7.198870e-01
-2.141840e-01
-5.017590e-01
-3.943190e-01
4.852870e-01
1.470650e-02
4.730100e-01
2.879540e-01
-2.141840e-01
3.946400e-01
-3.943190e-01
9.627510e-02
1.470650e-02
-6.815210e-01
-7.198870e-01
-2.141840e-01
3.011620e-01
2.547730e-01
4.852870e-01
1.470650e-02
-2.977990e-01
-5.057600e-01
-2.141840e-01
3.946400e-01
2.547730e-01
4.162240e-01
1.470650e-02
-6.815210e-01
-5.057600e-01
-6.363690e-01
3.011620e-01
2.547730e-01
-1.893630e-01
9.871480e-02
-2.977990e-01
-5.057600e-01
3.267650e-01
-2.882250e-01
2.547730e-01
4.162240e-01
9.871480e-02
3.793990e-03
-5.057600e-01
-6.363690e-01
-2.882250e-01
-8.418610e-01
-1.893630e-01
9.871480e-02
3.738370e-01
1.569860e-01
3.267650e-01
-2.882250e-01
-1.804800e-01
1.116510e-01
9.871480e-02
3.793990e-03
1.569860e-01
1.556780e-01
-2.882250e-01
-8.418610e-01
1.116510e-01
3.494610e-01
3.738370e-01
1.569860e-01
3.465690e-01
-1.714810e-01
-1.804800e-01
1.116510e-01
-7.211530e-01
-2.811870e-01
1.569860e-01
1.556780e-01
-1.714810e-01
-8.390990e-01
1.116510e-01
3.494610e-01
-2.811870e-01
1.217430e-01
3.465690e-01
-1.714810e-01
-1.829120e-01
3.682250e-01
-7.211530e-01
-2.811870e-01
5.903140e-01
1.168380e-01
-1.714810e-01
-8.390990e-01
3.682250e-01
1.067650e+00
-2.811870e-01
1.217430e-01
1.168380e-01
-5.127910e-01
-1.829120e-01
3.682250e-01
-2.962850e-01
-8.037430e-02
5.903140e-01
1.168380e-01
1.757620e-02
1.254140e-01
3.682250e-01
1.067650e+00
-8.037430e-02
-1.646310e-01
1.168380e-01
-5.127910e-01
1.254140e-01
4.326080e-01
-2.962850e-01
-8.037430e-02
-1.464810e-01
-7.204650e-01
1.757620e-02
1.254140e-01
-5.976120e-02
1.479580e-01
-8.037430e-02
-1.646310e-01
-7.204650e-01
-8.748850e-01
1.254140e-01
4.326080e-01
1.479580e-01
6.070610e-02
-1.464810e-01
-7.204650e-01
-5.778160e-01
-4.427780e-01
-5.976120e-02
1.479580e-01
5.318320e-01
4.321540e-01
-7.204650e-01
-8.748850e-01
-4.427780e-01
-4.979530e-01
1.479580e-01
6.070610e-02
4.321540e-01
6.483020e-01
-5.778160e-01
-4.427780e-01
5.766600e-01
5.140500e-01
5.318320e-01
4.321540e-01
1.329090e-01
-1.222800e-01
-4.427780e-01
-4.979530e-01
5.140500e-01
6.199870e-01
4.321540e-01
6.483020e-01
-1.222800e-01
-6.914720e-01
5.766600e-01
5.140500e-01
-1.075430e+00
-2.449750e-01
1.329090e-01
-1.222800e-01
2.048200e-01
-2.448610e-01
5.140500e-01
6.199870e-01
-2.449750e-01
4.916180e-01
-1.222800e-01
-6.914720e-01
-2.448610e-01
-4.973440e-01
-1.075430e+00
-2.449750e-01
3.515760e-01
6.767090e-01
2.048200e-01
-2.448610e-01
-6.701830e-02
-4.728420e-01
-2.449750e-01
4.916180e-01
6.767090e-01
1.387210e+00
-2.448610e-01
-4.973440e-01
-4.728420e-01
-1.111780e+00
3.515760e-01
6.767090e-01
-2.699110e-01
-3.255920e-01
-6.701830e-02
-4.728420e-01
7.528740e-02
3.750420e-01
6.767090e-01
1.387210e+00
-3.255920e-01
-6.149780e-01
-4.728420e-01
-1.111780e+00
3.750420e-01
8.258220e-01
-2.699110e-01
-3.255920e-01
1.061550e-01
-8.871050e-02
7.528740e-02
3.750420e-01
-1.967290e-01
8.017060e-02
-3.255920e-01
-6.149780e-01
-8.871050e-02
-3.284320e-01
3.750420e-01
8.258220e-01
8.017060e-02
2.557880e-01
1.061550e-01
-8.871050e-02
6.001460e-01
6.796010e-01
-1.967290e-01
8.017060e-02
-3.131650e-02
-1.475220e-01
-8.871050e-02
-3.284320e-01
6.796010e-01
7.273550e-01
8.017060e-02
2.557880e-01
-1.475220e-01
-1.993600e-01
6.001460e-01
6.796010e-01
-8.116350e-02
1.033430e-01
-3.131650e-02
-1.475220e-01
4.127440e-01
4.988040e-02
6.796010e-01
7.273550e-01
1.033430e-01
3.132430e-01
-1.475220e-01
-1.993600e-01
4.988040e-02
-2.172230e-01
-8.116350e-02
1.033430e-01
5.432530e-02
1.710240e-01
4.127440e-01
4.988040e-02
-1.131880e-01
-1.734830e-01
1.033430e-01
3.132430e-01
1.710240e-01
4.127040e-01
4.988040e-02
-2.172230e-01
-1.734830e-01
-4.560230e-01
5.432530e-02
1.710240e-01
5.666170e-01
-1.113390e-01
-1.131880e-01
-1.734830e-01
-7.604600e-01
6.739400e-02
1.710240e-01
4.127040e-01
-1.113390e-01
-7.477430e-01
-1.734830e-01
-4.560230e-01
6.739400e-02
9.764220e-01
5.666170e-01
-1.113390e-01
-4.027900e-01
-4.469820e-01
-7.604600e-01
6.739400e-02
3.044560e-01
5.324430e-02
-1.113390e-01
-7.477430e-01
-4.469820e-01
-4.734060e-02
6.739400e-02
9.764220e-01
5.324430e-02
-4.303400e-01
-4.027900e-01
-4.469820e-01
-1.126810e-01
-6.489430e-02
3.044560e-01
5.324430e-02
-3.279980e-02
-8.878430e-02
-4.469820e-01
-4.734060e-02
-6.489430e-02
-3.834800e-01
5.324430e-02
-4.303400e-01
-8.878430e-02
1.704420e-02
-1.126810e-01
-6.489430e-02
-4.658080e-01
1.908040e-01
-3.279980e-02
-8.878430e-02
4.098870e-01
-3.766310e-02
-6.489430e-02
-3.834800e-01
1.908040e-01
8.261300e-01
-8.878430e-02
1.704420e-02
-3.766310e-02
-6.190980e-01
-4.658080e-01
1.908040e-01
1.164410e+00
-1.590280e-02
4.098870e-01
-3.766310e-02
-7.759530e-01
-3.506290e-02
1.908040e-01
8.261300e-01
-1.590280e-02
-1.228700e+00
-3.766310e-02
-6.190980e-01
-3.506290e-02
7.805770e-01
0.000000e+00
0.000000e+00
5.914750e-01
2.318910e-01
0.000000e+00
0.000000e+00
-5.669160e-01
-4.054600e-01
0.000000e+00
0.000000e+00
2.318910e-01
-1.624390e-01
0.000000e+00
0.000000e+00
-4.054600e-01
-6.695980e-03
5.914750e-01
2.318910e-01
-6.689240e-01
-1.454630e-01
-5.669160e-01
-4.054600e-01
1.181970e+00
4.188990e-01
2.318910e-01
-1.624390e-01
-1.454630e-01
4.225990e-01
-4.054600e-01
-6.695980e-03
4.188990e-01
-4.785360e-01
-6.689240e-01
-1.454630e-01
2.710040e-01
-1.139770e-01
1.181970e+00
4.188990e-01
-4.857010e-01
3.574740e-01
-1.454630e-01
4.225990e-01
-1.139770e-01
-6.362020e-01
4.188990e-01
-4.785360e-01
3.574740e-01
1.185180e+00
2.710040e-01
-1.139770e-01
-8.318990e-01
-3.251480e-01
-4.857010e-01
3.574740e-01
7.587540e-01
1.702850e-01
-1.139770e-01
-6.362020e-01
-3.251480e-01
1.938420e-01
3.574740e-01
1.185180e+00
1.702850e-01
-5.409040e-01
-8.318990e-01
-3.251480e-01
-2.771850e-01
-3.046510e-01
7.587540e-01
1.702850e-01
6.093630e-01
4.294730e-01
-3.251480e-01
1.938420e-01
-3.046510e-01
-4.304680e-01
1.702850e-01
-5.409040e-01
4.294730e-01
5.549530e-01
-2.771850e-01
-3.046510e-01
2.757670e-01
3.191660e-01
6.093630e-01
4.294730e-01
-7.698230e-01
-6.921000e-01
-3.046510e-01
-4.304680e-01
3.191660e-01
6.512520e-01
4.294730e-01
5.549530e-01
-6.921000e-01
-1.019510e+00
2.757670e-01
3.191660e-01
5.360250e-01
3.069960e-01
-7.698230e-01
-6.921000e-01
-9.685230e-01
-5.008080e-01
3.191660e-01
6.512520e-01
3.069960e-01
-1.993410e-01
-6.921000e-01
-1.019510e+00
-5.008080e-01
2.629110e-01
5.360250e-01
3.069960e-01
-5.017590e-01
-3.943190e-01
-9.685230e-01
-5.008080e-01
8.513440e-01
2.624460e-01
3.069960e-01
-1.993410e-01
-3.943190e-01
9.627510e-02
-5.008080e-01
2.629110e-01
2.624460e-01
-4.682710e-01
-5.017590e-01
-3.943190e-01
4.852870e-01
1.470650e-02
8.513440e-01
2.624460e-01
-2.895490e-01
2.106080e-01
-3.943190e-01
9.627510e-02
1.470650e-02
-6.815210e-01
2.624460e-01
-4.682710e-01
2.106080e-01
8.695130e-01
4.852870e-01
1.470650e-02
-2.977990e-01
-5.057600e-01
-2.895490e-01
2.106080e-01
4.483220e-01
6.338490e-01
1.470650e-02
-6.815210e-01
-5.057600e-01
-6.363690e-01
2.106080e-01
8.695130e-01
6.338490e-01
8.477660e-01
-2.977990e-01
-5.057600e-01
3.267650e-01
-2.882250e-01
4.483220e-01
6.338490e-01
-6.243690e-01
5.976970e-01
-5.057600e-01
-6.363690e-01
-2.882250e-01
-8.418610e-01
6.338490e-01
8.477660e-01
5.976970e-01
1.710590e+00
3.267650e-01
-2.882250e-01
-1.804800e-01
1.116510e-01
-6.243690e-01
5.976970e-01
3.830360e-02
-4.009370e-01
-2.882250e-01
-8.418610e-01
1.116510e-01
3.494610e-01
5.976970e-01
1.710590e+00
-4.009370e-01
-7.447740e-01
-1.804800e-01
1.116510e-01
-7.211530e-01
-2.811870e-01
3.830360e-02
-4.009370e-01
9.033100e-01
7.230650e-01
1.116510e-01
3.494610e-01
-2.811870e-01
1.217430e-01
-4.009370e-01
-7.447740e-01
7.230650e-01
4.823150e-01
-7.211530e-01
-2.811870e-01
5.903140e-01
1.168380e-01
9.033100e-01
7.230650e-01
-8.419110e-01
-5.445730e-01
-2.811870e-01
1.217430e-01
1.168380e-01
-5.127910e-01
7.230650e-01
4.823150e-01
-5.445730e-01
-2.008310e-01
5.903140e-01
1.168380e-01
1.757620e-02
1.254140e-01
-8.419110e-01
-5.445730e-01
3.227190e-01
-2.181920e-01
1.168380e-01
-5.127910e-01
1.254140e-01
4.326080e-01
-5.445730e-01
-2.008310e-01
-2.181920e-01
-6.211580e-01
1.757620e-02
1.254140e-01
-5.976120e-02
1.479580e-01
3.227190e-01
-2.181920e-01
2.237600e-02
4.104820e-01
1.254140e-01
4.326080e-01
1.479580e-01
6.070610e-02
-2.181920e-01
-6.211580e-01
4.104820e-01
7.065090e-01
-5.976120e-02
1.479580e-01
5.318320e-01
4.321540e-01
2.237600e-02
4.104820e-01
-3.472280e-01
-3.747540e-01
1.479580e-01
6.070610e-02
4.321540e-01
6.483020e-01
4.104820e-01
7.065090e-01
-3.747540e-01
-5.878070e-01
5.318320e-01
4.321540e-01
1.329090e-01
-1.222800e-01
-3.472280e-01
-3.747540e-01
-8.844460e-01
-2.416950e-01
4.321540e-01
6.483020e-01
-1.222800e-01
-6.914720e-01
-3.747540e-01
-5.878070e-01
-2.416950e-01
5.732000e-01
1.329090e-01
-1.222800e-01
2.048200e-01
-2.448610e-01
-8.844460e-01
-2.416950e-01
7.127290e-01
7.161670e-01
-1.222800e-01
-6.914720e-01
-2.448610e-01
-4.973440e-01
-2.416950e-01
5.732000e-01
7.161670e-01
5.721370e-01
2.048200e-01
-2.448610e-01
-6.701830e-02
-4.728420e-01
7.127290e-01
7.161670e-01
-1.286530e-01
2.775710e-01
-2.448610e-01
-4.973440e-01
-4.728420e-01
-1.111780e+00
7.161670e-01
5.721370e-01
2.775710e-01
7.268500e-01
-6.701830e-02
-4.728420e-01
7.528740e-02
3.750420e-01
-1.286530e-01
2.775710e-01
4.483890e-02
-4.202210e-01
-4.728420e-01
-1.111780e+00
3.750420e-01
8.258220e-01
2.775710e-01
7.268500e-01
-4.202210e-01
-8.595440e-01
7.528740e-02
3.750420e-01
-1.967290e-01
8.017060e-02
4.483890e-02
-4.202210e-01
2.779200e-01
-1.132530e-01
3.750420e-01
8.258220e-01
8.017060e-02
2.557880e-01
-4.202210e-01
-8.595440e-01
-1.132530e-01
-1.497060e-01
-1.967290e-01
8.017060e-02
-3.131650e-02
-1.475220e-01
2.779200e-01
-1.132530e-01
-5.601080e-01
-3.576300e-01
8.017060e-02
2.557880e-01
-1.475220e-01
-1.993600e-01
-1.132530e-01
-1.497060e-01
-3.576300e-01
-4.023730e-01
-3.131650e-02
-1.475220e-01
4.127440e-01
4.988040e-02
-5.601080e-01
-3.576300e-01
-7.158750e-01
-3.621080e-01
-1.475220e-01
-1.993600e-01
4.988040e-02
-2.172230e-01
-3.576300e-01
-4.023730e-01
-3.621080e-01
1.737530e-01
4.127440e-01
4.988040e-02
-1.131880e-01
-1.734830e-01
-7.158750e-01
-3.621080e-01
1.794680e-01
3.575260e-01
4.988040e-02
-2.172230e-01
-1.734830e-01
-4.560230e-01
-3.621080e-01
1.737530e-01
3.575260e-01
4.266370e-01
-1.131880e-01
-1.734830e-01
-7.604600e-01
6.739400e-02
1.794680e-01
3.575260e-01
8.780240e-01
-1.069150e-03
-1.734830e-01
-4.560230e-01
6.739400e-02
9.764220e-01
3.575260e-01
4.266370e-01
-1.069150e-03
-1.150460e+00
-7.604600e-01
6.739400e-02
3.044560e-01
5.324430e-02
8.780240e-01
-1.069150e-03
-2.366140e-01
2.823640e-01
6.739400e-02
9.764220e-01
5.324430e-02
-4.303400e-01
-1.069150e-03
-1.150460e+00
2.823640e-01
8.691250e-01
3.044560e-01
5.324430e-02
-3.279980e-02
-8.878430e-02
-2.366140e-01
2.823640e-01
1.373430e-01
3.342580e-01
5.324430e-02
-4.303400e-01
-8.878430e-02
1.704420e-02
2.823640e-01
8.691250e-01
3.342580e-01
4.572500e-01
-3.279980e-02
-8.878430e-02
4.098870e-01
-3.766310e-02
1.373430e-01
3.342580e-01
-4.047260e-01
-2.028720e-01
-8.878430e-02
1.704420e-02
-3.766310e-02
-6.190980e-01
3.342580e-01
4.572500e-01
-2.028720e-01
3.004950e-01
4.098870e-01
-3.766310e-02
-7.759530e-01
-3.506290e-02
-4.047260e-01
-2.028720e-01
4.813390e-01
2.226470e-01
-3.766310e-02
-6.190980e-01
-3.506290e-02
7.805770e-01
-2.028720e-01
3.004950e-01
2.226470e-01
-3.169730e-01
</DataArray>
<DataArray type="Float32" Name="V2" format="ascii">
0.000000e+00
0.000000e+00
4.206890e-01
-3.421720e-01
0.000000e+00
0.000000e+00
-5.359220e-01
7.510770e-01
0.000000e+00
0.000000e+00
-3.421720e-01
-2.062610e-01
0.000000e+00
0.000000e+00
7.510770e-01
7.089370e-01
4.206890e-01
-3.421720e-01
7.941220e-01
3.778580e-01
-5.359220e-01
7.510770e-01
-4.311710e-01
-3.054500e-02
-3.421720e-01
-2.062610e-01
3.778580e-01
8.530980e-01
7.510770e-01
7.089370e-01
-3.054500e-02
-6.461880e-01
7.941220e-01
3.778580e-01
-3.094220e-02
2.480110e-01
-4.311710e-01
-3.054500e-02
4.699030e-02
-3.112150e-01
3.778580e-01
8.530980e-01
2.480110e-01
-9.495160e-02
-3.054500e-02
-6.461880e-01
-3.112150e-01
7.493140e-03
-3.094220e-02
2.480110e-01
6.668280e-01
5.681560e-01
4.699030e-02
-3.112150e-01
-3.130790e-01
-4.380410e-01
2.480110e-01
-9.495160e-02
5.681560e-01
-4.200540e-01
-3.112150e-01
7.493140e-03
-4.380410e-01
-4.064670e-01
6.668280e-01
5.681560e-01
1.301440e-02
-6.307500e-01
-3.130790e-01
-4.380410e-01
4.751960e-01
2.761200e-01
5.681560e-01
-4.200540e-01
-6.307500e-01
-5.149370e-01
-4.380410e-01
-4.064670e-01
2.761200e-01
-2.508580e-01
1.301440e-02
-6.307500e-01
8.147670e-01
1.314800e+00
4.751960e-01
2.761200e-01
-1.026290e+00
-6.281270e-01
-6.307500e-01
-5.149370e-01
1.314800e+00
-1.013050e+00
2.761200e-01
-2.508580e-01
-6.281270e-01
1.003340e+00
8.147670e-01
1.314800e+00
-4.588730e-01
4.908820e-01
-1.026290e+00
-6.281270e-01
1.129700e+00
-3.836980e-01
1.314800e+00
-1.013050e+00
4.908820e-01
-2.482200e-01
-6.281270e-01
1.003340e+00
-3.836980e-01
6.836570e-01
-4.588730e-01
4.908820e-01
8.658350e-01
-6.025440e-01
1.129700e+00
-3.836980e-01
1.810870e-01
-1.627890e-01
4.908820e-01
-2.482200e-01
-6.025440e-01
2.035670e-01
-3.836980e-01
6.836570e-01
-1.627890e-01
-1.085420e-01
8.658350e-01
-6.025440e-01
-3.943260e-01
-8.085780e-02
1.810870e-01
-1.627890e-01
5.921600e-02
1.602290e-01
-6.025440e-01
2.035670e-01
-8.085780e-02
7.569570e-01
-1.627890e-01
-1.085420e-01
1.602290e-01
-3.544190e-01
-3.943260e-01
-8.085780e-02
-1.957940e-01
-4.667670e-01
5.921600e-02
1.602290e-01
-5.599490e-01
6.077020e-01
-8.085780e-02
7.569570e-01
-4.667670e-01
-5.130160e-02
1.602290e-01
-3.544190e-01
6.077020e-01
-1.953030e-01
-1.957940e-01
-4.667670e-01
-9.776930e-01
-3.892850e-01
-5.599490e-01
6.077020e-01
4.235800e-01
3.438190e-01
-4.667670e-01
-5.130160e-02
-3.892850e-01
-3.985770e-03
6.077020e-01
-1.953030e-01
3.438190e-01
-4.041350e-01
-9.776930e-01
-3.892850e-01
8.607910e-01
1.197210e-01
4.235800e-01
3.438190e-01
-1.165330e+00
-3.226920e-01
-3.892850e-01
-3.985770e-03
1.197210e-01
-1.582740e-01
3.438190e-01
-4.041350e-01
-3.226920e-01
3.741070e-01
8.607910e-01
1.197210e-01
-1.003330e+00
2.090780e-01
-1.165330e+00
-3.226920e-01
1.280260e+00
1.259780e-01
1.197210e-01
-1.582740e-01
2.090780e-01
1.023770e+00
-3.226920e-01
3.741070e-01
1.259780e-01
-1.345100e-01
-1.003330e+00
2.090780e-01
-6.519440e-01
1.240250e-01
1.280260e+00
1.259780e-01
2.833570e-01
4.082650e-01
2.090780e-01
1.023770e+00
1.240250e-01
1.233840e+00
1.259780e-01
-1.345100e-01
4.082650e-01
-7.486770e-01
-6.519440e-01
1.240250e-01
5.093140e-01
-1.396530e-02
2.833570e-01
4.082650e-01
-6.588080e-01
-1.323820e-01
1.240250e-01
1.233840e+00
-1.396530e-02
3.980790e-01
4.082650e-01
-7.486770e-01
-1.323820e-01
-2.821870e-01
5.093140e-01
-1.396530e-02
-4.411040e-01
5.721450e-02
-6.588080e-01
-1.323820e-01
-1.161610e-01
-1.018530e-01
-1.396530e-02
3.980790e-01
5.721450e-02
2.623480e-01
-1.323820e-01
-2.821870e-01
-1.018530e-01
-2.537000e-01
-4.411040e-01
5.721450e-02
7.843240e-01
-3.160970e-01
-1.161610e-01
-1.018530e-01
-5.926310e-01
1.624670e-01
5.721450e-02
2.623480e-01
-3.160970e-01
7.718970e-01
-1.018530e-01
-2.537000e-01
1.624670e-01
-6.734410e-01
7.843240e-01
-3.160970e-01
-7.084010e-01
7.010920e-02
-5.926310e-01
1.624670e-01
7.735930e-01
-2.112050e-01
-3.160970e-01
7.718970e-01
7.010920e-02
-1.235200e+00
1.624670e-01
-6.734410e-01
-2.112050e-01
9.200490e-01
-7.084010e-01
7.010920e-02
-6.582740e-01
6.331130e-01
7.735930e-01
-2.112050e-01
5.271770e-01
-4.230840e-01
7.010920e-02
-1.235200e+00
6.331130e-01
-2.877840e-01
-2.112050e-01
9.200490e-01
-4.230840e-01
-3.697100e-01
-6.582740e-01
6.331130e-01
2.488050e-01
5.440440e-01
5.271770e-01
-4.230840e-01
-1.656850e-01
-2.748810e-01
6.331130e-01
-2.877840e-01
5.440440e-01
-5.393440e-01
-4.230840e-01
-3.697100e-01
-2.748810e-01
7.228130e-01
2.488050e-01
5.440440e-01
-2.099850e-01
5.227380e-01
-1.656850e-01
-2.748810e-01
2.379300e-01
-2.472830e-01
5.440440e-01
-5.393440e-01
5.227380e-01
-1.700260e+00
-2.748810e-01
7.228130e-01
-2.472830e-01
8.517460e-01
-2.099850e-01
5.227380e-01
5.536240e-01
-1.525540e-02
2.379300e-01
-2.472830e-01
-8.829950e-01
-2.151710e-01
5.227380e-01
-1.700260e+00
-1.525540e-02
-4.748910e-01
-2.472830e-01
8.517460e-01
-2.151710e-01
2.987350e-02
5.536240e-01
-1.525540e-02
6.802740e-01
-1.329160e+00
-8.829950e-01
-2.151710e-01
-5.047710e-01
6.915450e-01
-1.525540e-02
-4.748910e-01
-1.329160e+00
1.761460e+00
-2.151710e-01
2.987350e-02
6.915450e-01
-9.787520e-01
6.802740e-01
-1.329160e+00
-4.614510e-01
-1.870890e-01
-5.047710e-01
6.915450e-01
9.448890e-01
5.139160e-01
-1.329160e+00
1.761460e+00
-1.870890e-01
6.073490e-01
6.915450e-01
-9.787520e-01
5.139160e-01
-1.299180e-01
-4.614510e-01
-1.870890e-01
2.886580e-01
2.739220e-01
9.448890e-01
5.139160e-01
2.950890e-02
3.743340e-01
-1.870890e-01
6.073490e-01
2.739220e-01
3.285880e-02
5.139160e-01
-1.299180e-01
3.743340e-01
-1.740510e-02
2.886580e-01
2.739220e-01
-4.764360e-02
7.579080e-01
2.950890e-02
3.743340e-01
7.037250e-02
-4.060590e-01
2.739220e-01
3.285880e-02
7.579080e-01
-1.341770e-01
3.743340e-01
-1.740510e-02
-4.060590e-01
-6.597190e-02
-4.764360e-02
7.579080e-01
-3.578710e-02
-9.387770e-02
7.037250e-02
-4.060590e-01
3.206070e-01
7.260800e-02
7.579080e-01
-1.341770e-01
-9.387770e-02
-8.108570e-01
-4.060590e-01
-6.597190e-02
7.260800e-02
6.164140e-01
-3.578710e-02
-9.387770e-02
-2.133590e-01
3.120640e-01
3.206070e-01
7.260800e-02
-7.190270e-02
-5.451170e-01
-9.387770e-02
-8.108570e-01
3.120640e-01
5.562270e-01
7.260800e-02
6.164140e-01
-5.451170e-01
-4.500940e-01
-2.133590e-01
3.120640e-01
-8.835790e-01
7.446110e-01
-7.190270e-02
-5.451170e-01
8.915810e-01
-5.727110e-01
3.120640e-01
5.562270e-01
7.446110e-01
-2.229970e-01
-5.451170e-01
-4.500940e-01
-5.727110e-01
6.800520e-03
-8.835790e-01
7.446110e-01
-3.064030e-01
-1.401500e+00
8.915810e-01
-5.727110e-01
9.550070e-01
1.291650e+00
7.446110e-01
-2.229970e-01
-1.401500e+00
-4.526500e-01
-5.727110e-01
6.800520e-03
1.291650e+00
9.569270e-01
0.000000e+00
0.000000e+00
-5.359220e-01
7.510770e-01
0.000000e+00
0.000000e+00
4.665080e-02
-1.139080e+00
0.000000e+00
0.000000e+00
7.510770e-01
7.089370e-01
0.000000e+00
0.000000e+00
-1.139080e+00
-9.197050e-01
-5.359220e-01
7.510770e-01
-4.311710e-01
-3.054500e-02
4.665080e-02
-1.139080e+00
2.409370e-01
-3.000030e-01
7.510770e-01
7.089370e-01
-3.054500e-02
-6.461880e-01
-1.139080e+00
-9.197050e-01
-3.000030e-01