<?xml version="1.0"?>
<VTKFile type="UnstructuredGrid" version="0.1" byte_order="LittleEndian" compressor="vtkZLibDataCompressor">
<UnstructuredGrid>
<Piece NumberOfPoints="960" NumberOfCells="120">
<Points>
<DataArray type="Float32" NumberOfComponents="3" format="ascii">
-4.000000e+02 -6.000000e+03 -4.000000e+02
0.000000e+00 -6.000000e+03 -4.000000e+02
-4.000000e+02 -5.599990e+03 -3.999690e+02
-6.808950e-10 -5.599990e+03 -3.999690e+02
-4.000000e+02 -6.000000e+03 0.000000e+00
0.000000e+00 -6.000000e+03 0.000000e+00
-4.000000e+02 -5.599990e+03 -4.405920e-02
7.153490e-10 -5.599990e+03 -4.405920e-02
0.000000e+00 -6.000000e+03 -4.000000e+02
4.000000e+02 -6.000000e+03 -4.000000e+02
-6.808950e-10 -5.599990e+03 -3.999690e+02
4.000000e+02 -5.599990e+03 -3.999690e+02
0.000000e+00 -6.000000e+03 0.000000e+00
4.000000e+02 -6.000000e+03 0.000000e+00
7.153490e-10 -5.599990e+03 -4.405920e-02
4.000000e+02 -5.599990e+03 -4.405920e-02
-4.000000e+02 -5.599990e+03 -3.999690e+02
-6.808950e-10 -5.599990e+03 -3.999690e+02
-4.000000e+02 -5.200000e+03 -4.002710e+02
1.902420e-10 -5.200000e+03 -4.002710e+02
-4.000000e+02 -5.599990e+03 -4.405920e-02
7.153490e-10 -5.599990e+03 -4.405920e-02
-4.000000e+02 -5.200060e+03 8.487520e-02
2.041620e-10 -5.200060e+03 8.487520e-02
-6.808950e-10 -5.599990e+03 -3.999690e+02
4.000000e+02 -5.599990e+03 -3.999690e+02
1.902420e-10 -5.200000e+03 -4.002710e+02
4.000000e+02 -5.200000e+03 -4.002710e+02
7.153490e-10 -5.599990e+03 -4.405920e-02
4.000000e+02 -5.599990e+03 -4.405920e-02
2.041620e-10 -5.200060e+03 8.487520e-02
4.000000e+02 -5.200060e+03 8.487520e-02
-4.000000e+02 -5.200000e+03 -4.002710e+02
1.902420e-10 -5.200000e+03 -4.002710e+02
-4.000000e+02 -4.800120e+03 -4.001060e+02
1.110250e-10 -4.800120e+03 -4.001060e+02
-4.000000e+02 -5.200060e+03 8.487520e-02
2.041620e-10 -5.200060e+03 8.487520e-02
-4.000000e+02 -4.800040e+03 -1.819980e-01
-6.966330e-10 -4.800040e+03 -1.819980e-01
1.902420e-10 -5.200000e+03 -4.002710e+02
4.000000e+02 -5.200000e+03 -4.002710e+02
1.110250e-10 -4.800120e+03 -4.001060e+02
4.000000e+02 -4.800120e+03 -4.001060e+02
2.041620e-10 -5.200060e+03 8.487520e-02
4.000000e+02 -5.200060e+03 8.487520e-02
-6.966330e-10 -4.800040e+03 -1.819980e-01
4.000000e+02 -4.800040e+03 -1.819980e-01
-4.000000e+02 -4.800120e+03 -4.001060e+02
1.110250e-10 -4.800120e+03 -4.001060e+02
-4.000000e+02 -4.400180e+03 -4.001410e+02
1.684450e-09 -4.400180e+03 -4.001410e+02
-4.000000e+02 -4.800040e+03 -1.819980e-01
-6.966330e-10 -4.800040e+03 -1.819980e-01
-4.000000e+02 -4.399960e+03 -3.359160e-01
2.150970e-10 -4.399960e+03 -3.359160e-01
1.110250e-10 -4.800120e+03 -4.001060e+02
4.000000e+02 -4.800120e+03 -4.001060e+02
1.684450e-09 -4.400180e+03 -4.001410e+02
4.000000e+02 -4.400180e+03 -4.001410e+02
-6.966330e-10 -4.800040e+03 -1.819980e-01
4.000000e+02 -4.800040e+03 -1.819980e-01
2.150970e-10 -4.399960e+03 -3.359160e-01
4.000000e+02 -4.399960e+03 -3.359160e-01
-4.000000e+02 -4.400180e+03 -4.001410e+02
1.684450e-09 -4.400180e+03 -4.001410e+02
-4.000000e+02 -4.000080e+03 -4.005980e+02
4.173160e-09 -4.000080e+03 -4.005980e+02
-4.000000e+02 -4.399960e+03 -3.359160e-01
2.150970e-10 -4.399960e+03 -3.359160e-01
-4.000000e+02 -3.999960e+03 -2.616600e-01
2.831650e-09 -3.999960e+03 -2.616600e-01
1.684450e-09 -4.400180e+03 -4.001410e+02
4.000000e+02 -4.400180e+03 -4.001410e+02
4.173160e-09 -4.000080e+03 -4.005980e+02
4.000000e+02 -4.000080e+03 -4.005980e+02
2.150970e-10 -4.399960e+03 -3.359160e-01
4.000000e+02 -4.399960e+03 -3.359160e-01
2.831650e-09 -3.999960e+03 -2.616600e-01
4.000000e+02 -3.999960e+03 -2.616600e-01
-4.000000e+02 -4.000080e+03 -4.005980e+02
4.173160e-09 -4.000080e+03 -4.005980e+02
-4.000000e+02 -3.599900e+03 -4.004540e+02
1.014480e-08 -3.599900e+03 -4.004540e+02
-4.000000e+02 -3.999960e+03 -2.616600e-01
2.831650e-09 -3.999960e+03 -2.616600e-01
-4.000000e+02 -3.600070e+03 -4.096060e-01
1.464620e-09 -3.600070e+03 -4.096060e-01
4.173160e-09 -4.000080e+03 -4.005980e+02
4.000000e+02 -4.000080e+03 -4.005980e+02
1.014480e-08 -3.599900e+03 -4.004540e+02
4.000000e+02 -3.599900e+03 -4.004540e+02
2.831650e-09 -3.999960e+03 -2.616600e-01
4.000000e+02 -3.999960e+03 -2.616600e-01
1.464620e-09 -3.600070e+03 -4.096060e-01
4.000000e+02 -3.600070e+03 -4.096060e-01
-4.000000e+02 -3.599900e+03 -4.004540e+02
1.014480e-08 -3.599900e+03 -4.004540e+02
-4.000000e+02 -3.200010e+03 -4.001470e+02
8.743190e-09 -3.200010e+03 -4.001470e+02
-4.000000e+02 -3.600070e+03 -4.096060e-01
1.464620e-09 -3.600070e+03 -4.096060e-01
-4.000000e+02 -3.200010e+03 -4.280060e-01
2.373310e-09 -3.200010e+03 -4.280060e-01
1.014480e-08 -3.599900e+03 -4.004540e+02
4.000000e+02 -3.599900e+03 -4.004540e+02
8.743190e-09 -3.200010e+03 -4.001470e+02
4.000000e+02 -3.200010e+03 -4.001470e+02
1.464620e-09 -3.600070e+03 -4.096060e-01
4.000000e+02 -3.600070e+03 -4.096060e-01
2.373310e-09 -3.200010e+03 -4.280060e-01
4.000000e+02 -3.200010e+03 -4.280060e-01
-4.000000e+02 -3.200010e+03 -4.001470e+02
8.743190e-09 -3.200010e+03 -4.001470e+02
-4.000000e+02 -2.800150e+03 -4.003950e+02
-3.808010e-10 -2.800150e+03 -4.003950e+02
-4.000000e+02 -3.200010e+03 -4.280060e-01
2.373310e-09 -3.200010e+03 -4.280060e-01
-4.000000e+02 -2.799930e+03 -4.875350e-01
1.925230e-09 -2.799930e+03 -4.875350e-01
8.743190e-09 -3.200010e+03 -4.001470e+02
4.000000e+02 -3.200010e+03 -4.001470e+02
-3.808010e-10 -2.800150e+03 -4.003950e+02
4.000000e+02 -2.800150e+03 -4.003950e+02
2.373310e-09 -3.200010e+03 -4.280060e-01
4.000000e+02 -3.200010e+03 -4.280060e-01
1.925230e-09 -2.799930e+03 -4.875350e-01
4.000000e+02 -2.799930e+03 -4.875350e-01
-4.000000e+02 -2.800150e+03 -4.003950e+02
-3.808010e-10 -2.800150e+03 -4.003950e+02
-4.000000e+02 -2.400090e+03 -4.006170e+02
-4.690310e-09 -2.400090e+03 -4.006170e+02
-4.000000e+02 -2.799930e+03 -4.875350e-01
1.925230e-09 -2.799930e+03 -4.875350e-01
-4.000000e+02 -2.399990e+03 -4.724480e-01
2.533590e-09 -2.399990e+03 -4.724480e-01
-3.808010e-10 -2.800150e+03 -4.003950e+02
4.000000e+02 -2.800150e+03 -4.003950e+02
-4.690310e-09 -2.400090e+03 -4.006170e+02
4.000000e+02 -2.400090e+03 -4.006170e+02
1.925230e-09 -2.799930e+03 -4.875350e-01
4.000000e+02 -2.799930e+03 -4.875350e-01
2.533590e-09 -2.399990e+03 -4.724480e-01
4.000000e+02 -2.399990e+03 -4.724480e-01
-4.000000e+02 -2.400090e+03 -4.006170e+02
-4.690310e-09 -2.400090e+03 -4.006170e+02
-4.000000e+02 -2.000020e+03 -4.006260e+02
-9.073700e-09 -2.000020e+03 -4.006260e+02
-4.000000e+02 -2.399990e+03 -4.724480e-01
2.533590e-09 -2.399990e+03 -4.724480e-01
-4.000000e+02 -2.000050e+03 -5.441280e-01
4.963040e-09 -2.000050e+03 -5.441280e-01
-4.690310e-09 -2.400090e+03 -4.006170e+02
4.000000e+02 -2.400090e+03 -4.006170e+02
-9.073700e-09 -2.000020e+03 -4.006260e+02
4.000000e+02 -2.000020e+03 -4.006260e+02
2.533590e-09 -2.399990e+03 -4.724480e-01
4.000000e+02 -2.399990e+03 -4.724480e-01
4.963040e-09 -2.000050e+03 -5.441280e-01
4.000000e+02 -2.000050e+03 -5.441280e-01
-4.000000e+02 -2.000020e+03 -4.006260e+02
-9.073700e-09 -2.000020e+03 -4.006260e+02
-4.000000e+02 -1.600040e+03 -4.004900e+02
-5.547730e-09 -1.600040e+03 -4.004900e+02
-4.000000e+02 -2.000050e+03 -5.441280e-01
4.963040e-09 -2.000050e+03 -5.441280e-01
-4.000000e+02 -1.600020e+03 -7.644650e-01
2.398800e-09 -1.600020e+03 -7.644650e-01
-9.073700e-09 -2.000020e+03 -4.006260e+02
4.000000e+02 -2.000020e+03 -4.006260e+02
-5.547730e-09 -1.600040e+03 -4.004900e+02
4.000000e+02 -1.600040e+03 -4.004900e+02
4.963040e-09 -2.000050e+03 -5.441280e-01
4.000000e+02 -2.000050e+03 -5.441280e-01
2.398800e-09 -1.600020e+03 -7.644650e-01
4.000000e+02 -1.600020e+03 -7.644650e-01
-4.000000e+02 -1.600040e+03 -4.004900e+02
-5.547730e-09 -1.600040e+03 -4.004900e+02
-4.000000e+02 -1.200090e+03 -4.008410e+02
1.553540e-09 -1.200090e+03 -4.008410e+02
-4.000000e+02 -1.600020e+03 -7.644650e-01
2.398800e-09 -1.600020e+03 -7.644650e-01
-4.000000e+02 -1.199960e+03 -7.105850e-01
2.561250e-09 -1.199960e+03 -7.105850e-01
-5.547730e-09 -1.600040e+03 -4.004900e+02
4.000000e+02 -1.600040e+03 -4.004900e+02
1.553540e-09 -1.200090e+03 -4.008410e+02
4.000000e+02 -1.200090e+03 -4.008410e+02
2.398800e-09 -1.600020e+03 -7.644650e-01
4.000000e+02 -1.600020e+03 -7.644650e-01
2.561250e-09 -1.199960e+03 -7.105850e-01
4.000000e+02 -1.199960e+03 -7.105850e-01
-4.000000e+02 -1.200090e+03 -4.008410e+02
1.553540e-09 -1.200090e+03 -4.008410e+02
-4.000000e+02 -8.000680e+02 -4.008800e+02
4.164150e-09 -8.000680e+02 -4.008800e+02
-4.000000e+02 -1.199960e+03 -7.105850e-01
2.561250e-09 -1.199960e+03 -7.105850e-01
-4.000000e+02 -7.999970e+02 -7.745950e-01
5.387620e-09 -7.999970e+02 -7.745950e-01
1.553540e-09 -1.200090e+03 -4.008410e+02
4.000000e+02 -1.200090e+03 -4.008410e+02
4.164150e-09 -8.000680e+02 -4.008800e+02
4.000000e+02 -8.000680e+02 -4.008800e+02
2.561250e-09 -1.199960e+03 -7.105850e-01
4.000000e+02 -1.199960e+03 -7.105850e-01
5.387620e-09 -7.999970e+02 -7.745950e-01
4.000000e+02 -7.999970e+02 -7.745950e-01
-4.000000e+02 -8.000680e+02 -4.008800e+02
4.164150e-09 -8.000680e+02 -4.008800e+02
-4.000000e+02 -4.000600e+02 -4.007970e+02
1.065170e-08 -4.000600e+02 -4.007970e+02
-4.000000e+02 -7.999970e+02 -7.745950e-01
5.387620e-09 -7.999970e+02 -7.745950e-01
-4.000000e+02 -4.000170e+02 -8.309690e-01
3.639690e-09 -4.000170e+02 -8.309690e-01
4.164150e-09 -8.000680e+02 -4.008800e+02
4.000000e+02 -8.000680e+02 -4.008800e+02
1.065170e-08 -4.000600e+02 -4.007970e+02
4.000000e+02 -4.000600e+02 -4.007970e+02
5.387620e-09 -7.999970e+02 -7.745950e-01
4.000000e+02 -7.999970e+02 -7.745950e-01
3.639690e-09 -4.000170e+02 -8.309690e-01
4.000000e+02 -4.000170e+02 -8.309690e-01
-4.000000e+02 -4.000600e+02 -4.007970e+02
1.065170e-08 -4.000600e+02 -4.007970e+02
-4.000000e+02 -4.987190e-02 -4.009980e+02
1.342760e-08 -4.987190e-02 -4.009980e+02
-4.000000e+02 -4.000170e+02 -8.309690e-01
3.639690e-09 -4.000170e+02 -8.309690e-01
-4.000000e+02 4.301340e-03 -7.877220e-01
7.420360e-09 4.301350e-03 -7.877220e-01
1.065170e-08 -4.000600e+02 -4.007970e+02
4.000000e+02 -4.000600e+02 -4.007970e+02
1.342760e-08 -4.987190e-02 -4.009980e+02
[...]
<PointData>
<DataArray type="Float32" Name="V1" format="ascii">
0.000000e+00
0.000000e+00
5.922160e-09
5.879810e-09
0.000000e+00
0.000000e+00
-1.059530e-09
-1.401890e-09
0.000000e+00
0.000000e+00
5.879810e-09
6.170600e-09
0.000000e+00
0.000000e+00
-1.401890e-09
-1.637900e-09
5.922160e-09
5.879810e-09
5.001090e-09
4.494500e-09
-1.059530e-09
-1.401890e-09
-2.867300e-10
7.068250e-11
5.879810e-09
6.170600e-09
4.494500e-09
3.925850e-09
-1.401890e-09
-1.637900e-09
7.068250e-11
3.210990e-10
5.001090e-09
4.494500e-09
-9.524950e-11
-5.521690e-10
-2.867300e-10
7.068250e-11
2.993980e-09
2.769360e-09
4.494500e-09
3.925850e-09
-5.521690e-10
-1.069350e-09
7.068250e-11
3.210990e-10
2.769360e-09
2.289920e-09
-9.524950e-11
-5.521690e-10
1.875530e-09
2.054250e-09
2.993980e-09
2.769360e-09
-2.493180e-09
-2.329820e-09
-5.521690e-10
-1.069350e-09
2.054250e-09
2.731790e-09
2.769360e-09
2.289920e-09
-2.329820e-09
-1.847050e-09
1.875530e-09
2.054250e-09
-1.588800e-09
-1.721570e-09
-2.493180e-09
-2.329820e-09
-1.581930e-09
-1.209420e-09
2.054250e-09
2.731790e-09
-1.721570e-09
-2.140660e-09
-2.329820e-09
-1.847050e-09
-1.209420e-09
-8.552810e-10
-1.588800e-09
-1.721570e-09
3.868900e-10
2.937280e-10
-1.581930e-09
-1.209420e-09
-1.552470e-09
-1.429350e-09
-1.721570e-09
-2.140660e-09
2.937280e-10
-6.088110e-11
-1.209420e-09
-8.552810e-10
-1.429350e-09
-1.039890e-09
3.868900e-10
2.937280e-10
-2.003190e-10
8.611960e-10
-1.552470e-09
-1.429350e-09
7.462850e-11
-3.915140e-10
2.937280e-10
-6.088110e-11
8.611960e-10
1.609420e-09
-1.429350e-09
-1.039890e-09
-3.915140e-10
-9.917730e-10
-2.003190e-10
8.611960e-10
-3.802120e-09
-3.863980e-09
7.462850e-11
-3.915140e-10
1.989440e-09
1.394240e-09
8.611960e-10
1.609420e-09
-3.863980e-09
-3.844350e-09
-3.915140e-10
-9.917730e-10
1.394240e-09
9.957010e-10
-3.802120e-09
-3.863980e-09
1.650660e-09
2.028570e-09
1.989440e-09
1.394240e-09
-1.987470e-09
-2.066420e-09
-3.863980e-09
-3.844350e-09
2.028570e-09
2.581560e-09
1.394240e-09
9.957010e-10
-2.066420e-09
-2.325270e-09
1.650660e-09
2.028570e-09
1.323670e-09
2.095130e-09
-1.987470e-09
-2.066420e-09
-4.026010e-09
-4.248810e-09
2.028570e-09
2.581560e-09
2.095130e-09
2.214300e-09
-2.066420e-09
-2.325270e-09
-4.248810e-09
-4.612240e-09
1.323670e-09
2.095130e-09
2.791690e-09
1.632200e-09
-4.026010e-09
-4.248810e-09
5.312370e-10
6.234500e-10
2.095130e-09
2.214300e-09
1.632200e-09
3.132430e-10
-4.248810e-09
-4.612240e-09
6.234500e-10
7.600320e-10
2.791690e-09
1.632200e-09
-3.172690e-09
-3.198200e-09
5.312370e-10
6.234500e-10
2.211360e-09
1.331660e-09
1.632200e-09
3.132430e-10
-3.198200e-09
-2.923280e-09
6.234500e-10
7.600320e-10
1.331660e-09
7.394110e-10
-3.172690e-09
-3.198200e-09
2.991030e-09
2.889800e-09
2.211360e-09
1.331660e-09
-1.217620e-09
-5.501540e-10
-3.198200e-09
-2.923280e-09
2.889800e-09
3.312130e-09
1.331660e-09
7.394110e-10
-5.501540e-10
1.355100e-10
2.991030e-09
2.889800e-09
5.744430e-09
4.777370e-09
-1.217620e-09
-5.501540e-10
-2.590390e-09
-2.579730e-09
2.889800e-09
3.312130e-09
4.777370e-09
3.356320e-09
-5.501540e-10
1.355100e-10
-2.579730e-09
-3.113770e-09
5.744430e-09
4.777370e-09
-6.635060e-09
-5.690270e-09
-2.590390e-09
-2.579730e-09
2.023810e-09
2.707670e-09
4.777370e-09
3.356320e-09
-5.690270e-09
-5.144450e-09
-2.579730e-09
-3.113770e-09
2.707670e-09
3.551730e-09
-6.635060e-09
-5.690270e-09
5.281930e-09
5.111360e-09
2.023810e-09
2.707670e-09
-2.656180e-09
-2.426780e-09
-5.690270e-09
-5.144450e-09
5.111360e-09
4.867540e-09
2.707670e-09
3.551730e-09
-2.426780e-09
-2.596280e-09
5.281930e-09
5.111360e-09
-3.881660e-09
-3.101470e-09
-2.656180e-09
-2.426780e-09
-1.470970e-09
-1.233610e-09
5.111360e-09
4.867540e-09
-3.101470e-09
-2.607090e-09
-2.426780e-09
-2.596280e-09
-1.233610e-09
-1.087020e-09
-3.881660e-09
-3.101470e-09
7.364650e-10
1.567840e-10
-1.470970e-09
-1.233610e-09
9.623140e-11
4.846340e-12
-3.101470e-09
-2.607090e-09
1.567840e-10
-8.542990e-11
-1.233610e-09
-1.087020e-09
4.846340e-12
2.553080e-11
7.364650e-10
1.567840e-10
2.318390e-09
1.464500e-09
9.623140e-11
4.846340e-12
-9.485670e-10
-9.899800e-10
1.567840e-10
-8.542990e-11
1.464500e-09
7.914540e-10
4.846340e-12
2.553080e-11
-9.899800e-10
-1.117460e-09
2.318390e-09
1.464500e-09
-6.159790e-09
-5.888270e-09
-9.485670e-10
-9.899800e-10
2.915420e-09
2.875720e-09
1.464500e-09
7.914540e-10
-5.888270e-09
-5.901540e-09
-9.899800e-10
-1.117460e-09
2.875720e-09
3.124580e-09
-6.159790e-09
-5.888270e-09
-3.044060e-10
-9.443190e-10
2.915420e-09
2.875720e-09
2.547190e-09
2.714060e-09
-5.888270e-09
-5.901540e-09
-9.443190e-10
-1.134160e-09
2.875720e-09
3.124580e-09
2.714060e-09
2.813300e-09
-3.044060e-10
-9.443190e-10
1.467040e-09
1.492710e-09
2.547190e-09
2.714060e-09
9.485670e-10
7.085140e-10
-9.443190e-10
-1.134160e-09
1.492710e-09
1.383570e-09
2.714060e-09
2.813300e-09
7.085140e-10
2.906580e-10
1.467040e-09
1.492710e-09
2.604140e-09
2.324300e-09
9.485670e-10
7.085140e-10
-1.109610e-09
-1.975410e-09
1.492710e-09
1.383570e-09
2.324300e-09
2.070940e-09
7.085140e-10
2.906580e-10
-1.975410e-09
-2.938990e-09
2.604140e-09
2.324300e-09
-1.412050e-09
-1.166690e-09
-1.109610e-09
-1.975410e-09
-6.765660e-10
-5.316580e-10
2.324300e-09
2.070940e-09
-1.166690e-09
-8.680470e-10
-1.975410e-09
-2.938990e-09
-5.316580e-10
-6.323780e-10
-1.412050e-09
-1.166690e-09
-1.656560e-09
-6.302960e-10
-6.765660e-10
-5.316580e-10
-2.602180e-10
3.379510e-10
-1.166690e-09
-8.680470e-10
-6.302960e-10
4.045650e-10
-5.316580e-10
-6.323780e-10
3.379510e-10
1.144960e-09
-1.656560e-09
-6.302960e-10
2.456850e-09
1.087010e-09
-2.602180e-10
3.379510e-10
-8.641190e-11
-5.733450e-10
-6.302960e-10
4.045650e-10
1.087010e-09
-4.261680e-10
3.379510e-10
1.144960e-09
-5.733450e-10
-1.664410e-09
2.456850e-09
1.087010e-09
-6.423940e-09
-5.137680e-09
-8.641190e-11
-5.733450e-10
4.008330e-09
4.162420e-09
1.087010e-09
-4.261680e-10
-5.137680e-09
-3.866930e-09
-5.733450e-10
-1.664410e-09
4.162420e-09
4.518950e-09
-6.423940e-09
-5.137680e-09
1.633970e-09
1.290270e-09
4.008330e-09
4.162420e-09
-2.760270e-09
-2.228610e-09
-5.137680e-09
-3.866930e-09
1.290270e-09
6.461250e-10
4.162420e-09
4.518950e-09
-2.228610e-09
-1.498460e-09
1.633970e-09
1.290270e-09
-6.089090e-09
-4.154480e-09
-2.760270e-09
-2.228610e-09
1.195040e-09
2.227190e-09
1.290270e-09
6.461250e-10
-4.154480e-09
-3.074500e-09
-2.228610e-09
-1.498460e-09
2.227190e-09
3.223750e-09
-6.089090e-09
-4.154480e-09
6.137210e-10
-1.812080e-09
1.195040e-09
2.227190e-09
2.313480e-09
-1.283650e-10
-4.154480e-09
-3.074500e-09
-1.812080e-09
-3.942540e-09
2.227190e-09
3.223750e-09
-1.283650e-10
-2.891850e-09
0.000000e+00
0.000000e+00
-1.059530e-09
-1.401890e-09
0.000000e+00
0.000000e+00
-1.179330e-09
-1.326350e-09
0.000000e+00
0.000000e+00
-1.401890e-09
-1.637900e-09
0.000000e+00
0.000000e+00
-1.326350e-09
-1.241190e-09
-1.059530e-09
-1.401890e-09
-2.867300e-10
7.068250e-11
-1.179330e-09
-1.326350e-09
-3.328820e-09
-4.074930e-09
-1.401890e-09
-1.637900e-09
7.068250e-11
3.210990e-10
-1.326350e-09
-1.241190e-09
-4.074930e-09
-4.800770e-09
-2.867300e-10
7.068250e-11
2.993980e-09
2.769360e-09
-3.328820e-09
-4.074930e-09
-5.254430e-09
-5.477670e-09
7.068250e-11
3.210990e-10
2.769360e-09
2.289920e-09
-4.074930e-09
-4.800770e-09
-5.477670e-09
-5.279960e-09
2.993980e-09
2.769360e-09
-2.493180e-09
-2.329820e-09
-5.254430e-09
-5.477670e-09
1.612370e-09
6.633130e-10
2.769360e-09
2.289920e-09
-2.329820e-09
-1.847050e-09
-5.477670e-09
-5.279960e-09
6.633130e-10
3.338640e-10
-2.493180e-09
-2.329820e-09
-1.581930e-09
-1.209420e-09
1.612370e-09
6.633130e-10
4.714360e-09
4.318270e-09
-2.329820e-09
-1.847050e-09
-1.209420e-09
-8.552810e-10
6.633130e-10
3.338640e-10
4.318270e-09
3.867910e-09
-1.581930e-09
-1.209420e-09
-1.552470e-09
-1.429350e-09
4.714360e-09
4.318270e-09
1.468020e-09
1.950300e-09
-1.209420e-09
-8.552810e-10
-1.429350e-09
-1.039890e-09
4.318270e-09
3.867910e-09
1.950300e-09
2.246710e-09
-1.552470e-09
-1.429350e-09
7.462850e-11
-3.915140e-10
1.468020e-09
1.950300e-09
1.230390e-09
1.771950e-09
-1.429350e-09
-1.039890e-09
-3.915140e-10
-9.917730e-10
1.950300e-09
2.246710e-09
1.771950e-09
2.216270e-09
7.462850e-11
-3.915140e-10
1.989440e-09
1.394240e-09
1.230390e-09
1.771950e-09
1.306000e-09
1.877870e-09
-3.915140e-10
-9.917730e-10
1.394240e-09
9.957010e-10
1.771950e-09
2.216270e-09
1.877870e-09
2.155390e-09
1.989440e-09
1.394240e-09
-1.987470e-09
-2.066420e-09
1.306000e-09
1.877870e-09
1.181290e-09
1.744830e-09
1.394240e-09
9.957010e-10
-2.066420e-09
-2.325270e-09
1.877870e-09
2.155390e-09
1.744830e-09
2.555040e-09
-1.987470e-09
-2.066420e-09
-4.026010e-09
-4.248810e-09
1.181290e-09
1.744830e-09
6.153900e-09
6.090660e-09
-2.066420e-09
-2.325270e-09
-4.248810e-09
-4.612240e-09
1.744830e-09
2.555040e-09
6.090660e-09
5.993840e-09
-4.026010e-09
-4.248810e-09
5.312370e-10
6.234500e-10
6.153900e-09
6.090660e-09
-1.617280e-09
-2.033660e-09
-4.248810e-09
-4.612240e-09
6.234500e-10
7.600320e-10
6.090660e-09
5.993840e-09
-2.033660e-09
-2.619850e-09
5.312370e-10
6.234500e-10
2.211360e-09
1.331660e-09
-1.617280e-09
-2.033660e-09
6.196130e-10
-2.479180e-11
6.234500e-10
7.600320e-10
1.331660e-09
7.394110e-10
-2.033660e-09
-2.619850e-09
-2.479180e-11
-7.197720e-10
2.211360e-09
1.331660e-09
-1.217620e-09
-5.501540e-10
6.196130e-10
-2.479180e-11
-4.302920e-09
-3.700840e-09
1.331660e-09
7.394110e-10
-5.501540e-10
1.355100e-10
-2.479180e-11
-7.197720e-10
-3.700840e-09
-3.400500e-09
-1.217620e-09
-5.501540e-10
-2.590390e-09
-2.579730e-09
-4.302920e-09
-3.700840e-09
2.118070e-09
1.444900e-09
-5.501540e-10
1.355100e-10
-2.579730e-09
-3.113770e-09
-3.700840e-09
-3.400500e-09
1.444900e-09
6.942410e-10
-2.590390e-09
-2.579730e-09
2.023810e-09
2.707670e-09
2.118070e-09
1.444900e-09
-1.809740e-09
-1.495980e-09
-2.579730e-09
-3.113770e-09
2.707670e-09
3.551730e-09
1.444900e-09
6.942410e-10
-1.495980e-09
-1.520060e-09
2.023810e-09
2.707670e-09
-2.656180e-09
-2.426780e-09
-1.809740e-09
-1.495980e-09
1.087020e-09
1.575330e-09
2.707670e-09
3.551730e-09
-2.426780e-09
-2.596280e-09
-1.495980e-09
-1.520060e-09
1.575330e-09
1.658520e-09
-2.656180e-09
-2.426780e-09
-1.470970e-09
-1.233610e-09
1.087020e-09
1.575330e-09
5.631500e-09
5.368630e-09
-2.426780e-09
-2.596280e-09
-1.233610e-09
-1.087020e-09
1.575330e-09
1.658520e-09
5.368630e-09
5.170970e-09
-1.470970e-09
-1.233610e-09
9.623140e-11
4.846340e-12
5.631500e-09
5.368630e-09
-1.292250e-09
-1.502670e-09
-1.233610e-09
-1.087020e-09
4.846340e-12
2.553080e-11
5.368630e-09
5.170970e-09
-1.502670e-09
-1.615310e-09
9.623140e-11
4.846340e-12
-9.485670e-10
-9.899800e-10
-1.292250e-09
-1.502670e-09
2.189760e-09
1.349200e-09
4.846340e-12
2.553080e-11
-9.899800e-10
-1.117460e-09
-1.502670e-09
-1.615310e-09
1.349200e-09
1.463110e-10
-9.485670e-10
-9.899800e-10
2.915420e-09
2.875720e-09
2.189760e-09
1.349200e-09
4.026010e-10
-9.368300e-13
-9.899800e-10
-1.117460e-09
2.875720e-09
3.124580e-09
1.349200e-09
1.463110e-10
-9.368300e-13
-2.386150e-10
2.915420e-09
2.875720e-09
2.547190e-09
2.714060e-09
4.026010e-10
-9.368300e-13
-5.366380e-09
-5.274250e-09
2.875720e-09
3.124580e-09
2.714060e-09
2.813300e-09
-9.368300e-13
-2.386150e-10
-5.274250e-09
-4.902890e-09
2.547190e-09
2.714060e-09
9.485670e-10
7.085140e-10
-5.366380e-09
-5.274250e-09
-2.553080e-10
-4.595290e-10
2.714060e-09
2.813300e-09
7.085140e-10
2.906580e-10
-5.274250e-09
-4.902890e-09
-4.595290e-10
-5.813160e-10
9.485670e-10
7.085140e-10
-1.109610e-09
-1.975410e-09
-2.553080e-10
-4.595290e-10
-1.349200e-09
1.437090e-10
7.085140e-10
2.906580e-10
-1.975410e-09
-2.938990e-09
-4.595290e-10
-5.813160e-10
1.437090e-10
1.770460e-09
-1.109610e-09
-1.975410e-09
-6.765660e-10
-5.316580e-10
-1.349200e-09
1.437090e-10
2.448010e-09
1.722890e-09
-1.975410e-09
-2.938990e-09
-5.316580e-10
-6.323780e-10
1.437090e-10
1.770460e-09
1.722890e-09
7.600320e-10
-6.765660e-10
-5.316580e-10
-2.602180e-10
3.379510e-10
2.448010e-09
1.722890e-09
9.642780e-10
1.469810e-09
-5.316580e-10
-6.323780e-10
3.379510e-10
1.144960e-09
1.722890e-09
7.600320e-10
1.469810e-09
2.577630e-09
-2.602180e-10
3.379510e-10
-8.641190e-11
-5.733450e-10
9.642780e-10
1.469810e-09
1.415980e-09
7.458430e-10
3.379510e-10
1.144960e-09
-5.733450e-10
-1.664410e-09
1.469810e-09
2.577630e-09
7.458430e-10
-3.152070e-10
-8.641190e-11
-5.733450e-10
4.008330e-09
4.162420e-09
1.415980e-09
7.458430e-10
-3.685270e-09
-3.389310e-09
-5.733450e-10
-1.664410e-09
4.162420e-09
4.518950e-09
7.458430e-10
-3.152070e-10
-3.389310e-09
-3.156000e-09
4.008330e-09
4.162420e-09
-2.760270e-09
-2.228610e-09
-3.685270e-09
-3.389310e-09
2.859450e-09
2.958720e-09
4.162420e-09
4.518950e-09
-2.228610e-09
-1.498460e-09
-3.389310e-09
-3.156000e-09
2.958720e-09
3.326860e-09
-2.760270e-09
-2.228610e-09
1.195040e-09
2.227190e-09
2.859450e-09
2.958720e-09
-5.273090e-10
-1.426050e-10
-2.228610e-09
-1.498460e-09
2.227190e-09
3.223750e-09
2.958720e-09
3.326860e-09
-1.426050e-10
2.376330e-10
1.195040e-09
2.227190e-09
2.313480e-09
-1.283650e-10
-5.273090e-10
-1.426050e-10
2.874180e-09
1.749820e-09
2.227190e-09
3.223750e-09
-1.283650e-10
-2.891850e-09
-1.426050e-10
2.376330e-10
1.749820e-09
3.819800e-10
</DataArray>
<DataArray type="Float32" Name="V2" format="ascii">
0.000000e+00
0.000000e+00
-1.427840e-01
-1.427840e-01
0.000000e+00
0.000000e+00
6.013250e-02
6.013250e-02
0.000000e+00
0.000000e+00
-1.427840e-01
-1.427840e-01
0.000000e+00
0.000000e+00
6.013250e-02
6.013250e-02
-1.427840e-01
-1.427840e-01
7.261290e-04
7.261280e-04
6.013250e-02
6.013250e-02
1.579770e-03
1.579760e-03
-1.427840e-01
-1.427840e-01
7.261280e-04
7.261320e-04
6.013250e-02
6.013250e-02
1.579760e-03
1.579760e-03
7.261290e-04
7.261280e-04
8.574520e-02
8.574520e-02
1.579770e-03
1.579760e-03
-2.337760e-02
-2.337760e-02
7.261280e-04
7.261320e-04
8.574520e-02
8.574520e-02
1.579760e-03
1.579760e-03
-2.337760e-02
-2.337760e-02
8.574520e-02
8.574520e-02
6.708050e-02
6.708050e-02
-2.337760e-02
-2.337760e-02
-4.230270e-02
-4.230270e-02
8.574520e-02
8.574520e-02
6.708050e-02
6.708050e-02
-2.337760e-02
-2.337760e-02
-4.230270e-02
-4.230270e-02
6.708050e-02
6.708050e-02
-3.483120e-02
-3.483120e-02
-4.230270e-02
-4.230270e-02
3.282350e-02
3.282350e-02
6.708050e-02
6.708050e-02
-3.483120e-02
-3.483120e-02
-4.230270e-02
-4.230270e-02
3.282350e-02
3.282350e-02
-3.483120e-02
-3.483120e-02
-6.286060e-02
-6.286060e-02
3.282350e-02
3.282350e-02
1.274500e-02
1.274500e-02
-3.483120e-02
-3.483120e-02
-6.286060e-02
-6.286060e-02
3.282350e-02
3.282350e-02
1.274500e-02
1.274500e-02
-6.286060e-02
-6.286060e-02
8.184190e-03
8.184190e-03
1.274500e-02
1.274500e-02
-1.163700e-02
-1.163700e-02
-6.286060e-02
-6.286060e-02
8.184190e-03
8.184180e-03
1.274500e-02
1.274500e-02
-1.163700e-02
-1.163700e-02
8.184190e-03
8.184190e-03
3.630120e-02
3.630120e-02
-1.163700e-02
-1.163700e-02
2.134400e-02
2.134400e-02
8.184190e-03
8.184180e-03
3.630120e-02
3.630120e-02
-1.163700e-02
-1.163700e-02
2.134400e-02
2.134400e-02
3.630120e-02
3.630120e-02
4.768720e-02
4.768720e-02
2.134400e-02
2.134400e-02
-7.120790e-02
-7.120800e-02
3.630120e-02
3.630120e-02
4.768720e-02
4.768720e-02
2.134400e-02
2.134400e-02
-7.120800e-02
-7.120800e-02
4.768720e-02
4.768720e-02
-1.027840e-01
-1.027840e-01
-7.120790e-02
-7.120800e-02
5.632410e-02
5.632410e-02
4.768720e-02
4.768720e-02
-1.027840e-01
-1.027840e-01
-7.120800e-02
-7.120800e-02
5.632410e-02
5.632410e-02
-1.027840e-01
-1.027840e-01
-6.226610e-03
-6.226620e-03
5.632410e-02
5.632410e-02
1.013010e-02
1.013010e-02
-1.027840e-01
-1.027840e-01
-6.226620e-03
-6.226630e-03
5.632410e-02
5.632410e-02
1.013010e-02
1.013020e-02
-6.226610e-03
-6.226620e-03
4.825530e-02
4.825530e-02
1.013010e-02
1.013010e-02
-2.018260e-02
-2.018260e-02
-6.226620e-03
-6.226630e-03
4.825530e-02
4.825530e-02
1.013010e-02
1.013020e-02
-2.018260e-02
-2.018260e-02
4.825530e-02
4.825530e-02
1.663750e-02
1.663750e-02
-2.018260e-02
-2.018260e-02
1.463780e-02
1.463780e-02
4.825530e-02
4.825530e-02
1.663750e-02
1.663750e-02
-2.018260e-02
-2.018260e-02
1.463780e-02
1.463780e-02
1.663750e-02
1.663750e-02
2.080080e-02
2.080080e-02
1.463780e-02
1.463780e-02
-4.131000e-02
-4.131000e-02
1.663750e-02
1.663750e-02
2.080080e-02
2.080070e-02
1.463780e-02
1.463780e-02
-4.131000e-02
-4.131000e-02
2.080080e-02
2.080080e-02
-7.679370e-02
-7.679370e-02
-4.131000e-02
-4.131000e-02
4.349470e-02
4.349470e-02
2.080080e-02
2.080070e-02
-7.679370e-02
-7.679370e-02
-4.131000e-02
-4.131000e-02
4.349470e-02
4.349470e-02
-7.679370e-02
-7.679370e-02
1.818230e-02
1.818230e-02
4.349470e-02
4.349470e-02
-1.786390e-02
-1.786390e-02
-7.679370e-02
-7.679370e-02
1.818230e-02
1.818230e-02
4.349470e-02
4.349470e-02
-1.786390e-02
-1.786390e-02
1.818230e-02
1.818230e-02
3.648310e-02
3.648310e-02
-1.786390e-02
-1.786390e-02
-4.049470e-02
-4.049470e-02
1.818230e-02
1.818230e-02
3.648310e-02
3.648310e-02
-1.786390e-02
-1.786390e-02
-4.049470e-02
-4.049470e-02
3.648310e-02
3.648310e-02
-2.444750e-02
-2.444750e-02
-4.049470e-02
-4.049470e-02
5.072200e-02
5.072200e-02
3.648310e-02
3.648310e-02
-2.444750e-02
-2.444750e-02
-4.049470e-02
-4.049470e-02
5.072200e-02
5.072200e-02
-2.444750e-02
-2.444750e-02
-1.245980e-02
-1.245980e-02
5.072200e-02
5.072200e-02
-6.142030e-04
-6.142030e-04
-2.444750e-02
-2.444750e-02
-1.245980e-02
-1.245980e-02
5.072200e-02
5.072200e-02
-6.142030e-04
-6.142020e-04
-1.245980e-02
-1.245980e-02
-6.234990e-02
-6.234990e-02
-6.142030e-04
-6.142030e-04
1.373240e-02
1.373240e-02
-1.245980e-02
-1.245980e-02
-6.234990e-02
-6.234990e-02
-6.142030e-04
-6.142020e-04
1.373240e-02
1.373250e-02
-6.234990e-02
-6.234990e-02
8.457760e-02
8.457760e-02
1.373240e-02
1.373240e-02
-5.299140e-02
-5.299140e-02
-6.234990e-02
-6.234990e-02
8.457760e-02
8.457760e-02
1.373240e-02
1.373250e-02
-5.299140e-02
-5.299140e-02
8.457760e-02
8.457760e-02
4.191710e-02
4.191710e-02
-5.299140e-02
-5.299140e-02
-2.399270e-02
-2.399270e-02
8.457760e-02
8.457760e-02
4.191710e-02
4.191710e-02
-5.299140e-02
-5.299140e-02
-2.399270e-02
-2.399270e-02
4.191710e-02
4.191710e-02
-6.553840e-02
-6.553840e-02
-2.399270e-02
-2.399270e-02
5.345730e-02
5.345730e-02
4.191710e-02
4.191710e-02
-6.553840e-02
-6.553840e-02
-2.399270e-02
-2.399270e-02
5.345730e-02
5.345730e-02
-6.553840e-02
-6.553840e-02
2.003370e-02
2.003370e-02
5.345730e-02
5.345730e-02
-3.861010e-02
-3.861010e-02
-6.553840e-02
-6.553840e-02
2.003370e-02
2.003370e-02
5.345730e-02
5.345730e-02
-3.861010e-02
-3.861010e-02
2.003370e-02
2.003370e-02
-1.190740e-01
-1.190740e-01
-3.861010e-02
-3.861010e-02
7.522070e-02
7.522070e-02
2.003370e-02
2.003370e-02
-1.190740e-01
-1.190740e-01
-3.861010e-02
-3.861010e-02
7.522070e-02
7.522070e-02
-1.190740e-01
-1.190740e-01
4.677950e-02
4.677950e-02
7.522070e-02
7.522070e-02
-3.499840e-02
-3.499840e-02
-1.190740e-01
-1.190740e-01
4.677950e-02
4.677950e-02
7.522070e-02
7.522070e-02
-3.499840e-02
-3.499840e-02
4.677950e-02
4.677950e-02
6.766520e-02
6.766520e-02
-3.499840e-02
-3.499840e-02
-5.899090e-02
-5.899090e-02
4.677950e-02
4.677950e-02
6.766520e-02
6.766520e-02
-3.499840e-02
-3.499840e-02
-5.899090e-02
-5.899090e-02
6.766520e-02
6.766520e-02
1.209780e-02
1.209780e-02
-5.899090e-02
-5.899090e-02
1.573430e-02
1.573430e-02
6.766520e-02
6.766520e-02
1.209780e-02
1.209780e-02
-5.899090e-02
-5.899090e-02
1.573430e-02
1.573430e-02
1.209780e-02
1.209780e-02
6.965260e-02
6.965260e-02
1.573430e-02
1.573430e-02
-3.706750e-02
-3.706750e-02
1.209780e-02
1.209780e-02
6.965260e-02
6.965260e-02
1.573430e-02
1.573430e-02
-3.706750e-02
-3.706750e-02
6.965260e-02
6.965260e-02
1.709840e-03
1.709840e-03
-3.706750e-02
-3.706750e-02
-4.262030e-02
-4.262030e-02
6.965260e-02
6.965260e-02
1.709840e-03
1.709840e-03
-3.706750e-02
-3.706750e-02
-4.262030e-02
-4.262040e-02
0.000000e+00
0.000000e+00
6.013250e-02
6.013250e-02
0.000000e+00
0.000000e+00
2.192490e-02
2.192490e-02
0.000000e+00
0.000000e+00
6.013250e-02
6.013250e-02
0.000000e+00
0.000000e+00
2.192490e-02
2.192500e-02
6.013250e-02
6.013250e-02
1.579770e-03
1.579760e-03
2.192490e-02
2.192490e-02
-4.334810e-03
-4.334820e-03
6.013250e-02
6.013250e-02
1.579760e-03
1.579760e-03
2.192490e-02
2.192500e-02
-4.334820e-03
-4.334820e-03
1.579770e-03
1.579760e-03
-2.337760e-02