<?xml version="1.0"?>
<VTKFile type="UnstructuredGrid" version="0.1" byte_order="LittleEndian" compressor="vtkZLibDataCompressor">
<UnstructuredGrid>
<Piece NumberOfPoints="960" NumberOfCells="120">
<Points>
<DataArray type="Float32" NumberOfComponents="3" format="ascii">
-4.000000e+02 -6.000000e+03 -4.000000e+02
0.000000e+00 -6.000000e+03 -4.000000e+02
-3.998870e+02 -5.599760e+03 -4.001550e+02
1.272580e-01 -5.599840e+03 -3.999540e+02
-4.000000e+02 -6.000000e+03 0.000000e+00
0.000000e+00 -6.000000e+03 0.000000e+00
-4.000150e+02 -5.600190e+03 -2.449300e-01
-2.073180e-02 -5.600040e+03 -1.638060e-01
0.000000e+00 -6.000000e+03 -4.000000e+02
4.000000e+02 -6.000000e+03 -4.000000e+02
1.272580e-01 -5.599840e+03 -3.999540e+02
4.001410e+02 -5.599950e+03 -3.997470e+02
0.000000e+00 -6.000000e+03 0.000000e+00
4.000000e+02 -6.000000e+03 0.000000e+00
-2.073180e-02 -5.600040e+03 -1.638060e-01
3.999740e+02 -5.599890e+03 -8.659580e-02
-3.998870e+02 -5.599760e+03 -4.001550e+02
1.272580e-01 -5.599840e+03 -3.999540e+02
-4.000320e+02 -5.200040e+03 -3.997580e+02
-3.512630e-02 -5.200060e+03 -3.998290e+02
-4.000150e+02 -5.600190e+03 -2.449300e-01
-2.073180e-02 -5.600040e+03 -1.638060e-01
-3.998570e+02 -5.199960e+03 -2.420530e-01
1.417000e-01 -5.199980e+03 -5.671400e-02
1.272580e-01 -5.599840e+03 -3.999540e+02
4.001410e+02 -5.599950e+03 -3.997470e+02
-3.512630e-02 -5.200060e+03 -3.998290e+02
3.999630e+02 -5.200070e+03 -3.998980e+02
-2.073180e-02 -5.600040e+03 -1.638060e-01
3.999740e+02 -5.599890e+03 -8.659580e-02
1.417000e-01 -5.199980e+03 -5.671400e-02
4.001400e+02 -5.200000e+03 1.560470e-01
-4.000320e+02 -5.200040e+03 -3.997580e+02
-3.512630e-02 -5.200060e+03 -3.998290e+02
-3.998660e+02 -4.800410e+03 -4.010090e+02
1.296010e-01 -4.800410e+03 -4.005240e+02
-3.998570e+02 -5.199960e+03 -2.420530e-01
1.417000e-01 -5.199980e+03 -5.671400e-02
-3.999450e+02 -4.799900e+03 2.116510e-01
5.779640e-02 -4.799890e+03 -1.336070e-03
-3.512630e-02 -5.200060e+03 -3.998290e+02
3.999630e+02 -5.200070e+03 -3.998980e+02
1.296010e-01 -4.800410e+03 -4.005240e+02
4.001250e+02 -4.800410e+03 -4.000450e+02
1.417000e-01 -5.199980e+03 -5.671400e-02
4.001400e+02 -5.200000e+03 1.560470e-01
5.779640e-02 -4.799890e+03 -1.336070e-03
4.000600e+02 -4.799900e+03 -2.131410e-01
-3.998660e+02 -4.800410e+03 -4.010090e+02
1.296010e-01 -4.800410e+03 -4.005240e+02
-3.997190e+02 -4.400610e+03 -4.005080e+02
2.687300e-01 -4.400530e+03 -4.006350e+02
-3.999450e+02 -4.799900e+03 2.116510e-01
5.779640e-02 -4.799890e+03 -1.336070e-03
-4.000160e+02 -4.399900e+03 -1.074120e+00
-8.202160e-03 -4.399920e+03 -6.743670e-01
1.296010e-01 -4.800410e+03 -4.005240e+02
4.001250e+02 -4.800410e+03 -4.000450e+02
2.687300e-01 -4.400530e+03 -4.006350e+02
4.002560e+02 -4.400440e+03 -4.008100e+02
5.779640e-02 -4.799890e+03 -1.336070e-03
4.000600e+02 -4.799900e+03 -2.131410e-01
-8.202160e-03 -4.399920e+03 -6.743670e-01
4.000000e+02 -4.399930e+03 -2.606010e-01
-3.997190e+02 -4.400610e+03 -4.005080e+02
2.687300e-01 -4.400530e+03 -4.006350e+02
-3.999300e+02 -4.000450e+03 -4.011850e+02
6.571620e-02 -4.000450e+03 -4.007580e+02
-4.000160e+02 -4.399900e+03 -1.074120e+00
-8.202160e-03 -4.399920e+03 -6.743670e-01
-3.999800e+02 -3.999990e+03 -9.425460e-01
2.085770e-02 -4.000000e+03 -1.073720e+00
2.687300e-01 -4.400530e+03 -4.006350e+02
4.002560e+02 -4.400440e+03 -4.008100e+02
6.571620e-02 -4.000450e+03 -4.007580e+02
4.000610e+02 -4.000440e+03 -4.003510e+02
-8.202160e-03 -4.399920e+03 -6.743670e-01
4.000000e+02 -4.399930e+03 -2.606010e-01
2.085770e-02 -4.000000e+03 -1.073720e+00
4.000220e+02 -4.000020e+03 -1.218150e+00
-3.999300e+02 -4.000450e+03 -4.011850e+02
6.571620e-02 -4.000450e+03 -4.007580e+02
-4.000880e+02 -3.600190e+03 -4.016660e+02
-8.756800e-02 -3.600280e+03 -4.017580e+02
-3.999800e+02 -3.999990e+03 -9.425460e-01
2.085770e-02 -4.000000e+03 -1.073720e+00
-3.999260e+02 -3.599970e+03 -1.088020e+00
7.526600e-02 -3.599990e+03 -9.871310e-01
6.571620e-02 -4.000450e+03 -4.007580e+02
4.000610e+02 -4.000440e+03 -4.003510e+02
-8.756800e-02 -3.600280e+03 -4.017580e+02
3.999130e+02 -3.600360e+03 -4.018520e+02
2.085770e-02 -4.000000e+03 -1.073720e+00
4.000220e+02 -4.000020e+03 -1.218150e+00
7.526600e-02 -3.599990e+03 -9.871310e-01
4.000760e+02 -3.600010e+03 -8.807050e-01
-4.000880e+02 -3.600190e+03 -4.016660e+02
-8.756800e-02 -3.600280e+03 -4.017580e+02
-3.999300e+02 -3.200080e+03 -4.013840e+02
7.342590e-02 -3.200010e+03 -4.014940e+02
-3.999260e+02 -3.599970e+03 -1.088020e+00
7.526600e-02 -3.599990e+03 -9.871310e-01
-3.999680e+02 -3.200010e+03 -1.830470e+00
3.170360e-02 -3.200060e+03 -1.716400e+00
-8.756800e-02 -3.600280e+03 -4.017580e+02
3.999130e+02 -3.600360e+03 -4.018520e+02
7.342590e-02 -3.200010e+03 -4.014940e+02
4.000770e+02 -3.199930e+03 -4.015940e+02
7.526600e-02 -3.599990e+03 -9.871310e-01
4.000760e+02 -3.600010e+03 -8.807050e-01
3.170360e-02 -3.200060e+03 -1.716400e+00
4.000320e+02 -3.200110e+03 -1.602590e+00
-3.999300e+02 -3.200080e+03 -4.013840e+02
7.342590e-02 -3.200010e+03 -4.014940e+02
-3.998880e+02 -2.800070e+03 -4.015590e+02
1.155450e-01 -2.799980e+03 -4.015770e+02
-3.999680e+02 -3.200010e+03 -1.830470e+00
3.170360e-02 -3.200060e+03 -1.716400e+00
-4.000610e+02 -2.800070e+03 -1.809900e+00
-6.354630e-02 -2.800090e+03 -1.639700e+00
7.342590e-02 -3.200010e+03 -4.014940e+02
4.000770e+02 -3.199930e+03 -4.015940e+02
1.155450e-01 -2.799980e+03 -4.015770e+02
4.001180e+02 -2.799890e+03 -4.015720e+02
3.170360e-02 -3.200060e+03 -1.716400e+00
4.000320e+02 -3.200110e+03 -1.602590e+00
-6.354630e-02 -2.800090e+03 -1.639700e+00
3.999340e+02 -2.800110e+03 -1.434420e+00
-3.998880e+02 -2.800070e+03 -4.015590e+02
1.155450e-01 -2.799980e+03 -4.015770e+02
-4.001020e+02 -2.400250e+03 -4.017700e+02
-1.016510e-01 -2.400310e+03 -4.019480e+02
-4.000610e+02 -2.800070e+03 -1.809900e+00
-6.354630e-02 -2.800090e+03 -1.639700e+00
-3.999820e+02 -2.399960e+03 -2.066950e+00
1.955840e-02 -2.399880e+03 -2.031640e+00
1.155450e-01 -2.799980e+03 -4.015770e+02
4.001180e+02 -2.799890e+03 -4.015720e+02
-1.016510e-01 -2.400310e+03 -4.019480e+02
3.999000e+02 -2.400340e+03 -4.021330e+02
-6.354630e-02 -2.800090e+03 -1.639700e+00
3.999340e+02 -2.800110e+03 -1.434420e+00
1.955840e-02 -2.399880e+03 -2.031640e+00
4.000210e+02 -2.399820e+03 -1.998910e+00
-4.001020e+02 -2.400250e+03 -4.017700e+02
-1.016510e-01 -2.400310e+03 -4.019480e+02
-4.001240e+02 -2.000430e+03 -4.014740e+02
-1.218440e-01 -2.000400e+03 -4.017310e+02
-3.999820e+02 -2.399960e+03 -2.066950e+00
1.955840e-02 -2.399880e+03 -2.031640e+00
-3.998330e+02 -1.999970e+03 -2.368350e+00
1.665440e-01 -1.999950e+03 -2.498120e+00
-1.016510e-01 -2.400310e+03 -4.019480e+02
3.999000e+02 -2.400340e+03 -4.021330e+02
-1.218440e-01 -2.000400e+03 -4.017310e+02
3.998790e+02 -2.000360e+03 -4.019750e+02
1.955840e-02 -2.399880e+03 -2.031640e+00
4.000210e+02 -2.399820e+03 -1.998910e+00
1.665440e-01 -1.999950e+03 -2.498120e+00
4.001660e+02 -1.999940e+03 -2.663680e+00
-4.001240e+02 -2.000430e+03 -4.014740e+02
-1.218440e-01 -2.000400e+03 -4.017310e+02
-3.999150e+02 -1.600810e+03 -4.025210e+02
8.106790e-02 -1.600570e+03 -4.024020e+02
-3.998330e+02 -1.999970e+03 -2.368350e+00
1.665440e-01 -1.999950e+03 -2.498120e+00
-3.999590e+02 -1.599900e+03 -2.233520e+00
4.383990e-02 -1.600010e+03 -2.276390e+00
-1.218440e-01 -2.000400e+03 -4.017310e+02
3.998790e+02 -2.000360e+03 -4.019750e+02
8.106790e-02 -1.600570e+03 -4.024020e+02
4.000770e+02 -1.600340e+03 -4.022780e+02
1.665440e-01 -1.999950e+03 -2.498120e+00
4.001660e+02 -1.999940e+03 -2.663680e+00
4.383990e-02 -1.600010e+03 -2.276390e+00
4.000460e+02 -1.600130e+03 -2.328690e+00
-3.999150e+02 -1.600810e+03 -4.025210e+02
8.106790e-02 -1.600570e+03 -4.024020e+02
-3.999360e+02 -1.200570e+03 -4.037950e+02
6.831590e-02 -1.200470e+03 -4.033250e+02
-3.999590e+02 -1.599900e+03 -2.233520e+00
4.383990e-02 -1.600010e+03 -2.276390e+00
-4.000040e+02 -1.199920e+03 -2.802660e+00
-7.873830e-03 -1.200020e+03 -2.807790e+00
8.106790e-02 -1.600570e+03 -4.024020e+02
4.000770e+02 -1.600340e+03 -4.022780e+02
6.831590e-02 -1.200470e+03 -4.033250e+02
4.000720e+02 -1.200380e+03 -4.028220e+02
4.383990e-02 -1.600010e+03 -2.276390e+00
4.000460e+02 -1.600130e+03 -2.328690e+00
-7.873830e-03 -1.200020e+03 -2.807790e+00
3.999880e+02 -1.200100e+03 -2.805260e+00
-3.999360e+02 -1.200570e+03 -4.037950e+02
6.831590e-02 -1.200470e+03 -4.033250e+02
-3.999480e+02 -8.000640e+02 -4.029250e+02
4.938690e-02 -8.001780e+02 -4.033990e+02
-4.000040e+02 -1.199920e+03 -2.802660e+00
-7.873830e-03 -1.200020e+03 -2.807790e+00
-4.000320e+02 -8.001550e+02 -3.802000e+00
-2.847380e-02 -8.000740e+02 -3.379080e+00
6.831590e-02 -1.200470e+03 -4.033250e+02
4.000720e+02 -1.200380e+03 -4.028220e+02
4.938690e-02 -8.001780e+02 -4.033990e+02
4.000470e+02 -8.002920e+02 -4.038560e+02
-7.873830e-03 -1.200020e+03 -2.807790e+00
3.999880e+02 -1.200100e+03 -2.805260e+00
-2.847380e-02 -8.000740e+02 -3.379080e+00
3.999750e+02 -7.999870e+02 -2.940080e+00
-3.999480e+02 -8.000640e+02 -4.029250e+02
4.938690e-02 -8.001780e+02 -4.033990e+02
-3.998700e+02 -4.003090e+02 -4.038750e+02
1.371020e-01 -4.002220e+02 -4.036810e+02
-4.000320e+02 -8.001550e+02 -3.802000e+00
-2.847380e-02 -8.000740e+02 -3.379080e+00
-3.999760e+02 -4.000030e+02 -3.902380e+00
2.382220e-02 -4.000090e+02 -3.776190e+00
4.938690e-02 -8.001780e+02 -4.033990e+02
4.000470e+02 -8.002920e+02 -4.038560e+02
1.371020e-01 -4.002220e+02 -4.036810e+02
4.001440e+02 -4.001540e+02 -4.035040e+02
-2.847380e-02 -8.000740e+02 -3.379080e+00
3.999750e+02 -7.999870e+02 -2.940080e+00
2.382220e-02 -4.000090e+02 -3.776190e+00
4.000230e+02 -3.999940e+02 -3.649400e+00
-3.998700e+02 -4.003090e+02 -4.038750e+02
1.371020e-01 -4.002220e+02 -4.036810e+02
-3.997240e+02 -4.659310e-01 -4.046280e+02
2.805690e-01 -3.300150e-01 -4.040380e+02
-3.999760e+02 -4.000030e+02 -3.902380e+00
2.382220e-02 -4.000090e+02 -3.776190e+00
-4.000790e+02 1.431000e-01 -4.268560e+00
-8.150840e-02 7.008340e-02 -4.049140e+00
1.371020e-01 -4.002220e+02 -4.036810e+02
4.001440e+02 -4.001540e+02 -4.035040e+02
2.805690e-01 -3.300150e-01 -4.040380e+02
[...]
<PointData>
<DataArray type="Float32" Name="V1" format="ascii">
0.000000e+00
0.000000e+00
5.760300e-02
5.466080e-02
0.000000e+00
0.000000e+00
5.868340e-03
5.045800e-03
0.000000e+00
0.000000e+00
5.466080e-02
5.088080e-02
0.000000e+00
0.000000e+00
5.045800e-03
4.593580e-03
5.760300e-02
5.466080e-02
1.918630e-01
1.868470e-01
5.868340e-03
5.045800e-03
-2.255110e-01
-2.226800e-01
5.466080e-02
5.088080e-02
1.868470e-01
1.838940e-01
5.045800e-03
4.593580e-03
-2.226800e-01
-2.194760e-01
1.918630e-01
1.868470e-01
9.094760e-02
8.931080e-02
-2.255110e-01
-2.226800e-01
-1.250730e-01
-1.344730e-01
1.868470e-01
1.838940e-01
8.931080e-02
8.816170e-02
-2.226800e-01
-2.194760e-01
-1.344730e-01
-1.442250e-01
9.094760e-02
8.931080e-02
-1.640840e-01
-1.537760e-01
-1.250730e-01
-1.344730e-01
7.504620e-02
6.420740e-02
8.931080e-02
8.816170e-02
-1.537760e-01
-1.435690e-01
-1.344730e-01
-1.442250e-01
6.420740e-02
5.326470e-02
-1.640840e-01
-1.537760e-01
1.251700e-01
1.375100e-01
7.504620e-02
6.420740e-02
2.668670e-02
2.440890e-02
-1.537760e-01
-1.435690e-01
1.375100e-01
1.483350e-01
6.420740e-02
5.326470e-02
2.440890e-02
2.157720e-02
1.251700e-01
1.375100e-01
1.019860e-01
9.720470e-02
2.668670e-02
2.440890e-02
-5.981360e-02
-5.870420e-02
1.375100e-01
1.483350e-01
9.720470e-02
9.350170e-02
2.440890e-02
2.157720e-02
-5.870420e-02
-5.773430e-02
1.019860e-01
9.720470e-02
7.504400e-02
7.811760e-02
-5.981360e-02
-5.870420e-02
-4.202280e-02
-4.531950e-02
9.720470e-02
9.350170e-02
7.811760e-02
8.049350e-02
-5.870420e-02
-5.773430e-02
-4.531950e-02
-4.824320e-02
7.504400e-02
7.811760e-02
5.700780e-03
-1.261230e-02
-4.202280e-02
-4.531950e-02
-7.288910e-03
1.543650e-03
7.811760e-02
8.049350e-02
-1.261230e-02
-3.163980e-02
-4.531950e-02
-4.824320e-02
1.543650e-03
1.029200e-02
5.700780e-03
-1.261230e-02
-2.147600e-01
-2.158420e-01
-7.288910e-03
1.543650e-03
9.981640e-02
1.014810e-01
-1.261230e-02
-3.163980e-02
-2.158420e-01
-2.158740e-01
1.543650e-03
1.029200e-02
1.014810e-01
1.022970e-01
-2.147600e-01
-2.158420e-01
-2.677600e-02
-1.451600e-02
9.981640e-02
1.014810e-01
-2.416760e-02
-3.071370e-02
-2.158420e-01
-2.158740e-01
-1.451600e-02
-1.244360e-03
1.014810e-01
1.022970e-01
-3.071370e-02
-3.713800e-02
-2.677600e-02
-1.451600e-02
-2.555420e-02
-2.870750e-02
-2.416760e-02
-3.071370e-02
5.420790e-02
5.762740e-02
-1.451600e-02
-1.244360e-03
-2.870750e-02
-3.070790e-02
-3.071370e-02
-3.713800e-02
5.762740e-02
6.056270e-02
-2.555420e-02
-2.870750e-02
-9.660900e-02
-8.286410e-02
5.420790e-02
5.762740e-02
4.493680e-02
4.055530e-02
-2.870750e-02
-3.070790e-02
-8.286410e-02
-6.977390e-02
5.762740e-02
6.056270e-02
4.055530e-02
3.541970e-02
-9.660900e-02
-8.286410e-02
-2.218570e-01
-2.391910e-01
4.493680e-02
4.055530e-02
1.170020e-01
1.171070e-01
-8.286410e-02
-6.977390e-02
-2.391910e-01
-2.551090e-01
4.055530e-02
3.541970e-02
1.171070e-01
1.174530e-01
-2.218570e-01
-2.391910e-01
8.239590e-02
8.097510e-02
1.170020e-01
1.171070e-01
2.985560e-02
3.429080e-02
-2.391910e-01
-2.551090e-01
8.097510e-02
7.901110e-02
1.171070e-01
1.174530e-01
3.429080e-02
3.795510e-02
8.239590e-02
8.097510e-02
-1.868580e-01
-1.823280e-01
2.985560e-02
3.429080e-02
1.298530e-01
1.331550e-01
8.097510e-02
7.901110e-02
-1.823280e-01
-1.791850e-01
3.429080e-02
3.795510e-02
1.331550e-01
1.368120e-01
-1.868580e-01
-1.823280e-01
2.091290e-01
2.065740e-01
1.298530e-01
1.331550e-01
-6.085950e-02
-6.560690e-02
-1.823280e-01
-1.791850e-01
2.065740e-01
2.056220e-01
1.331550e-01
1.368120e-01
-6.560690e-02
-7.105820e-02
2.091290e-01
2.065740e-01
2.212070e-01
2.245860e-01
-6.085950e-02
-6.560690e-02
-1.781070e-01
-1.744060e-01
2.065740e-01
2.056220e-01
2.245860e-01
2.282830e-01
-6.560690e-02
-7.105820e-02
-1.744060e-01
-1.703410e-01
2.212070e-01
2.245860e-01
-2.394060e-01
-2.417740e-01
-1.781070e-01
-1.744060e-01
7.455510e-02
8.235200e-02
2.245860e-01
2.282830e-01
-2.417740e-01
-2.443040e-01
-1.744060e-01
-1.703410e-01
8.235200e-02
8.921190e-02
-2.394060e-01
-2.417740e-01
5.685110e-02
6.300000e-02
7.455510e-02
8.235200e-02
-3.410710e-02
-4.644910e-02
-2.417740e-01
-2.443040e-01
6.300000e-02
6.866200e-02
8.235200e-02
8.921190e-02
-4.644910e-02
-5.866920e-02
5.685110e-02
6.300000e-02
-2.228630e-02
-2.667490e-02
-3.410710e-02
-4.644910e-02
3.446060e-03
2.312100e-04
6.300000e-02
6.866200e-02
-2.667490e-02
-2.901310e-02
-4.644910e-02
-5.866920e-02
2.312100e-04
-3.482450e-03
-2.228630e-02
-2.667490e-02
1.740120e-02
2.345960e-02
3.446060e-03
2.312100e-04
7.245840e-02
7.139900e-02
-2.667490e-02
-2.901310e-02
2.345960e-02
2.906310e-02
2.312100e-04
-3.482450e-03
7.139900e-02
6.954210e-02
1.740120e-02
2.345960e-02
7.735260e-02
7.317770e-02
7.245840e-02
7.139900e-02
-9.219780e-02
-8.705370e-02
2.345960e-02
2.906310e-02
7.317770e-02
6.779330e-02
7.139900e-02
6.954210e-02
-8.705370e-02
-8.122620e-02
7.735260e-02
7.317770e-02
1.122500e-01
1.194270e-01
-9.219780e-02
-8.705370e-02
3.516010e-02
2.755430e-02
7.317770e-02
6.779330e-02
1.194270e-01
1.267110e-01
-8.705370e-02
-8.122620e-02
2.755430e-02
1.992800e-02
1.122500e-01
1.194270e-01
-8.058530e-02
-8.446360e-02
3.516010e-02
2.755430e-02
9.060560e-02
9.380080e-02
1.194270e-01
1.267110e-01
-8.446360e-02
-8.690360e-02
2.755430e-02
1.992800e-02
9.380080e-02
9.612740e-02
-8.058530e-02
-8.446360e-02
-5.463680e-02
-5.080900e-02
9.060560e-02
9.380080e-02
4.859820e-02
5.133140e-02
-8.446360e-02
-8.690360e-02
-5.080900e-02
-4.791020e-02
9.380080e-02
9.612740e-02
5.133140e-02
5.321810e-02
-5.463680e-02
-5.080900e-02
8.590690e-02
8.405260e-02
4.859820e-02
5.133140e-02
-8.615390e-02
-8.004850e-02
-5.080900e-02
-4.791020e-02
8.405260e-02
8.347480e-02
5.133140e-02
5.321810e-02
-8.004850e-02
-7.429320e-02
8.590690e-02
8.405260e-02
3.582500e-02
3.853700e-02
-8.615390e-02
-8.004850e-02
-6.723670e-02
-7.302010e-02
8.405260e-02
8.347480e-02
3.853700e-02
4.216700e-02
-8.004850e-02
-7.429320e-02
-7.302010e-02
-7.884310e-02
3.582500e-02
3.853700e-02
7.243030e-02
7.628590e-02
-6.723670e-02
-7.302010e-02
-5.519600e-02
-5.277490e-02
3.853700e-02
4.216700e-02
7.628590e-02
7.873240e-02
-7.302010e-02
-7.884310e-02
-5.277490e-02
-5.101960e-02
7.243030e-02
7.628590e-02
4.684850e-02
4.324820e-02
-5.519600e-02
-5.277490e-02
-4.871780e-02
-5.049240e-02
7.628590e-02
7.873240e-02
4.324820e-02
4.011970e-02
-5.277490e-02
-5.101960e-02
-5.049240e-02
-5.196410e-02
4.684850e-02
4.324820e-02
-2.128980e-01
-2.103690e-01
-4.871780e-02
-5.049240e-02
1.142730e-01
1.199250e-01
4.324820e-02
4.011970e-02
-2.103690e-01
-2.066250e-01
-5.049240e-02
-5.196410e-02
1.199250e-01
1.248210e-01
0.000000e+00
0.000000e+00
5.868340e-03
5.045800e-03
0.000000e+00
0.000000e+00
-5.686190e-02
-6.177900e-02
0.000000e+00
0.000000e+00
5.045800e-03
4.593580e-03
0.000000e+00
0.000000e+00
-6.177900e-02
-6.653080e-02
5.868340e-03
5.045800e-03
-2.255110e-01
-2.226800e-01
-5.686190e-02
-6.177900e-02
2.472630e-01
2.505640e-01
5.045800e-03
4.593580e-03
-2.226800e-01
-2.194760e-01
-6.177900e-02
-6.653080e-02
2.505640e-01
2.511210e-01
-2.255110e-01
-2.226800e-01
-1.250730e-01
-1.344730e-01
2.472630e-01
2.505640e-01
1.657800e-01
1.843980e-01
-2.226800e-01
-2.194760e-01
-1.344730e-01
-1.442250e-01
2.505640e-01
2.511210e-01
1.843980e-01
2.032350e-01
-1.250730e-01
-1.344730e-01
7.504620e-02
6.420740e-02
1.657800e-01
1.843980e-01
2.380750e-02
2.672220e-02
-1.344730e-01
-1.442250e-01
6.420740e-02
5.326470e-02
1.843980e-01
2.032350e-01
2.672220e-02
2.991930e-02
7.504620e-02
6.420740e-02
2.668670e-02
2.440890e-02
2.380750e-02
2.672220e-02
-1.762930e-01
-1.824700e-01
6.420740e-02
5.326470e-02
2.440890e-02
2.157720e-02
2.672220e-02
2.991930e-02
-1.824700e-01
-1.868980e-01
2.668670e-02
2.440890e-02
-5.981360e-02
-5.870420e-02
-1.762930e-01
-1.824700e-01
7.887350e-03
1.259480e-02
2.440890e-02
2.157720e-02
-5.870420e-02
-5.773430e-02
-1.824700e-01
-1.868980e-01
1.259480e-02
1.647480e-02
-5.981360e-02
-5.870420e-02
-4.202280e-02
-4.531950e-02
7.887350e-03
1.259480e-02
8.170540e-03
1.037960e-02
-5.870420e-02
-5.773430e-02
-4.531950e-02
-4.824320e-02
1.259480e-02
1.647480e-02
1.037960e-02
1.277250e-02
-4.202280e-02
-4.531950e-02
-7.288910e-03
1.543650e-03
8.170540e-03
1.037960e-02
1.578220e-02
1.281410e-02
-4.531950e-02
-4.824320e-02
1.543650e-03
1.029200e-02
1.037960e-02
1.277250e-02
1.281410e-02
1.180820e-02
-7.288910e-03
1.543650e-03
9.981640e-02
1.014810e-01
1.578220e-02
1.281410e-02
1.944790e-02
1.640410e-02
1.543650e-03
1.029200e-02
1.014810e-01
1.022970e-01
1.281410e-02
1.180820e-02
1.640410e-02
1.274830e-02
9.981640e-02
1.014810e-01
-2.416760e-02
-3.071370e-02
1.944790e-02
1.640410e-02
7.207110e-02
7.571820e-02
1.014810e-01
1.022970e-01
-3.071370e-02
-3.713800e-02
1.640410e-02
1.274830e-02
7.571820e-02
7.822730e-02
-2.416760e-02
-3.071370e-02
5.420790e-02
5.762740e-02
7.207110e-02
7.571820e-02
-8.831280e-02
-9.066400e-02
-3.071370e-02
-3.713800e-02
5.762740e-02
6.056270e-02
7.571820e-02
7.822730e-02
-9.066400e-02
-9.325970e-02
5.420790e-02
5.762740e-02
4.493680e-02
4.055530e-02
-8.831280e-02
-9.066400e-02
1.194050e-02
6.009430e-03
5.762740e-02
6.056270e-02
4.055530e-02
3.541970e-02
-9.066400e-02
-9.325970e-02
6.009430e-03
1.734980e-04
4.493680e-02
4.055530e-02
1.170020e-01
1.171070e-01
1.194050e-02
6.009430e-03
-6.379850e-03
4.840140e-04
4.055530e-02
3.541970e-02
1.171070e-01
1.174530e-01
6.009430e-03
1.734980e-04
4.840140e-04
7.276270e-03
1.170020e-01
1.171070e-01
2.985560e-02
3.429080e-02
-6.379850e-03
4.840140e-04
-1.547700e-01
-1.510290e-01
1.171070e-01
1.174530e-01
3.429080e-02
3.795510e-02
4.840140e-04
7.276270e-03
-1.510290e-01
-1.449070e-01
2.985560e-02
3.429080e-02
1.298530e-01
1.331550e-01
-1.547700e-01
-1.510290e-01
-6.956310e-02
-8.077650e-02
3.429080e-02
3.795510e-02
1.331550e-01
1.368120e-01
-1.510290e-01
-1.449070e-01
-8.077650e-02
-9.075040e-02
1.298530e-01
1.331550e-01
-6.085950e-02
-6.560690e-02
-6.956310e-02
-8.077650e-02
-8.233830e-02
-7.843230e-02
1.331550e-01
1.368120e-01
-6.560690e-02
-7.105820e-02
-8.077650e-02
-9.075040e-02
-7.843230e-02
-7.538630e-02
-6.085950e-02
-6.560690e-02
-1.781070e-01
-1.744060e-01
-8.233830e-02
-7.843230e-02
1.413250e-01
1.360730e-01
-6.560690e-02
-7.105820e-02
-1.744060e-01
-1.703410e-01
-7.843230e-02
-7.538630e-02
1.360730e-01
1.296050e-01
-1.781070e-01
-1.744060e-01
7.455510e-02
8.235200e-02
1.413250e-01
1.360730e-01
7.323950e-02
6.621960e-02
-1.744060e-01
-1.703410e-01
8.235200e-02
8.921190e-02
1.360730e-01
1.296050e-01
6.621960e-02
5.986370e-02
7.455510e-02
8.235200e-02
-3.410710e-02
-4.644910e-02
7.323950e-02
6.621960e-02
1.368180e-02
3.460760e-02
8.235200e-02
8.921190e-02
-4.644910e-02
-5.866920e-02
6.621960e-02
5.986370e-02
3.460760e-02
5.526150e-02
-3.410710e-02
-4.644910e-02
3.446060e-03
2.312100e-04
1.368180e-02
3.460760e-02
1.850240e-02
2.219250e-02
-4.644910e-02
-5.866920e-02
2.312100e-04
-3.482450e-03
3.460760e-02
5.526150e-02
2.219250e-02
2.537800e-02
3.446060e-03
2.312100e-04
7.245840e-02
7.139900e-02
1.850240e-02
2.219250e-02
-1.650070e-01
-1.669340e-01
2.312100e-04
-3.482450e-03
7.139900e-02
6.954210e-02
2.219250e-02
2.537800e-02
-1.669340e-01
-1.678860e-01
7.245840e-02
7.139900e-02
-9.219780e-02
-8.705370e-02
-1.650070e-01
-1.669340e-01
1.086140e-01
1.059230e-01
7.139900e-02
6.954210e-02
-8.705370e-02
-8.122620e-02
-1.669340e-01
-1.678860e-01
1.059230e-01
1.052880e-01
-9.219780e-02
-8.705370e-02
3.516010e-02
2.755430e-02
1.086140e-01
1.059230e-01
-1.908450e-01
-1.831920e-01
-8.705370e-02
-8.122620e-02
2.755430e-02
1.992800e-02
1.059230e-01
1.052880e-01
-1.831920e-01
-1.764450e-01
3.516010e-02
2.755430e-02
9.060560e-02
9.380080e-02
-1.908450e-01
-1.831920e-01
-8.749360e-02
-9.533710e-02
2.755430e-02
1.992800e-02
9.380080e-02
9.612740e-02
-1.831920e-01
-1.764450e-01
-9.533710e-02
-1.018590e-01
9.060560e-02
9.380080e-02
4.859820e-02
5.133140e-02
-8.749360e-02
-9.533710e-02
-4.592320e-02
-5.347410e-02
9.380080e-02
9.612740e-02
5.133140e-02
5.321810e-02
-9.533710e-02
-1.018590e-01
-5.347410e-02
-6.074100e-02
4.859820e-02
5.133140e-02
-8.615390e-02
-8.004850e-02
-4.592320e-02
-5.347410e-02
7.820220e-02
7.401660e-02
5.133140e-02
5.321810e-02
-8.004850e-02
-7.429320e-02
-5.347410e-02
-6.074100e-02
7.401660e-02
6.954370e-02
-8.615390e-02
-8.004850e-02
-6.723670e-02
-7.302010e-02
7.820220e-02
7.401660e-02
1.099820e-01
1.145310e-01
-8.004850e-02
-7.429320e-02
-7.302010e-02
-7.884310e-02
7.401660e-02
6.954370e-02
1.145310e-01
1.182310e-01
-6.723670e-02
-7.302010e-02
-5.519600e-02
-5.277490e-02
1.099820e-01
1.145310e-01
3.031960e-02
2.438130e-02
-7.302010e-02
-7.884310e-02
-5.277490e-02
-5.101960e-02
1.145310e-01
1.182310e-01
2.438130e-02
1.923570e-02
-5.519600e-02
-5.277490e-02
-4.871780e-02
-5.049240e-02
3.031960e-02
2.438130e-02
6.386980e-02
6.386250e-02
-5.277490e-02
-5.101960e-02
-5.049240e-02
-5.196410e-02
2.438130e-02
1.923570e-02
6.386250e-02
6.468050e-02
-4.871780e-02
-5.049240e-02
1.142730e-01
1.199250e-01
6.386980e-02
6.386250e-02
-3.965330e-02
-4.124390e-02
-5.049240e-02
-5.196410e-02
1.199250e-01
1.248210e-01
6.386250e-02
6.468050e-02
-4.124390e-02
-4.316030e-02
</DataArray>
<DataArray type="Float32" Name="V2" format="ascii">
0.000000e+00
0.000000e+00
-1.770360e-01
-1.613420e-01
0.000000e+00
0.000000e+00
3.133310e-01
2.812820e-01
0.000000e+00
0.000000e+00
-1.613420e-01
-1.795030e-01
0.000000e+00
0.000000e+00
2.812820e-01
2.752250e-01
-1.770360e-01
-1.613420e-01
1.270320e-01
-1.810070e-01
3.133310e-01
2.812820e-01
-3.694910e-02
1.182740e-01
-1.613420e-01
-1.795030e-01
-1.810070e-01
-4.871310e-01
2.812820e-01
2.752250e-01
1.182740e-01
2.707810e-01
1.270320e-01
-1.810070e-01
-1.643670e-01
-1.308880e-01
-3.694910e-02
1.182740e-01
-6.802410e-02
-8.623690e-02
-1.810070e-01
-4.871310e-01
-1.308880e-01
-1.366560e-01
1.182740e-01
2.707810e-01
-8.623690e-02
-1.014620e-01
-1.643670e-01
-1.308880e-01
1.824960e-01
2.042670e-01
-6.802410e-02
-8.623690e-02
-8.491790e-04
-1.062370e-01
-1.308880e-01
-1.366560e-01
2.042670e-01
2.824480e-01
-8.623690e-02
-1.014620e-01
-1.062370e-01
-2.201040e-01
1.824960e-01
2.042670e-01
6.664410e-02
3.324930e-01
-8.491790e-04
-1.062370e-01
-2.230710e-01
-4.211920e-01
2.042670e-01
2.824480e-01
3.324930e-01
5.794990e-01
-1.062370e-01
-2.201040e-01
-4.211920e-01
-5.925520e-01
6.664410e-02
3.324930e-01
-1.377270e-01
-2.027630e-01
-2.230710e-01
-4.211920e-01
-6.462950e-02
8.501520e-02
3.324930e-01
5.794990e-01
-2.027630e-01
-1.781850e-01
-4.211920e-01
-5.925520e-01
8.501520e-02
1.677150e-01
-1.377270e-01
-2.027630e-01
8.940550e-02
-7.429210e-02
-6.462950e-02
8.501520e-02
9.542040e-03
1.548650e-01
-2.027630e-01
-1.781850e-01
-7.429210e-02
-3.297100e-01
8.501520e-02
1.677150e-01
1.548650e-01
3.595740e-01
8.940550e-02
-7.429210e-02
-2.124080e-01
3.974060e-02
9.542040e-03
1.548650e-01
2.723850e-01
5.129770e-02
-7.429210e-02
-3.297100e-01
3.974060e-02
3.150390e-01
1.548650e-01
3.595740e-01
5.129770e-02
-2.150340e-01
-2.124080e-01
3.974060e-02
-1.261980e-01
-1.550910e-01
2.723850e-01
5.129770e-02
1.875640e-01
1.399370e-01
3.974060e-02
3.150390e-01
-1.550910e-01
-1.741930e-01
5.129770e-02
-2.150340e-01
1.399370e-01
1.177500e-01
-1.261980e-01
-1.550910e-01
2.027430e-01
3.963070e-02
1.875640e-01
1.399370e-01
-2.349390e-01
-1.379830e-01
-1.550910e-01
-1.741930e-01
3.963070e-02
-5.642470e-02
1.399370e-01
1.177500e-01
-1.379830e-01
-9.781610e-02
2.027430e-01
3.963070e-02
-7.124240e-02
-1.707790e-02
-2.349390e-01
-1.379830e-01
6.112920e-02
-3.261170e-02
3.963070e-02
-5.642470e-02
-1.707790e-02
-5.741800e-02
-1.379830e-01
-9.781610e-02
-3.261170e-02
-7.895400e-02
-7.124240e-02
-1.707790e-02
1.946920e-01
4.758250e-02
6.112920e-02
-3.261170e-02
-1.111530e-01
6.037770e-02
-1.707790e-02
-5.741800e-02
4.758250e-02
-9.411710e-02
-3.261170e-02
-7.895400e-02
6.037770e-02
2.126130e-01
1.946920e-01
4.758250e-02
-2.139290e-01
-1.420930e-01
-1.111530e-01
6.037770e-02
1.738130e-01
6.122800e-02
4.758250e-02
-9.411710e-02
-1.420930e-01
-9.481660e-02
6.037770e-02
2.126130e-01
6.122800e-02
-1.792030e-02
-2.139290e-01
-1.420930e-01
8.441380e-02
4.911430e-02
1.738130e-01
6.122800e-02
-3.420960e-01
-2.555230e-01
-1.420930e-01
-9.481660e-02
4.911430e-02
6.284900e-02
6.122800e-02
-1.792030e-02
-2.555230e-01
-2.046480e-01
8.441380e-02
4.911430e-02
-2.370310e-01
-8.790690e-02
-3.420960e-01
-2.555230e-01
1.763560e-01
1.328330e-01
4.911430e-02
6.284900e-02
-8.790690e-02
1.043840e-01
-2.555230e-01
-2.046480e-01
1.328330e-01
6.589710e-02
-2.370310e-01
-8.790690e-02
2.827240e-02
1.957880e-01
1.763560e-01
1.328330e-01
7.566220e-02
1.363670e-02
-8.790690e-02
1.043840e-01
1.957880e-01
3.493360e-01
1.328330e-01
6.589710e-02
1.363670e-02
-5.185420e-02
2.827240e-02
1.957880e-01
1.847400e-01
1.364120e-01
7.566220e-02
1.363670e-02
-1.729620e-01
-1.484780e-01
1.957880e-01
3.493360e-01
1.364120e-01
6.592870e-02
1.363670e-02
-5.185420e-02
-1.484780e-01
-7.761660e-02
1.847400e-01
1.364120e-01
-1.896240e-01
-4.413710e-01
-1.729620e-01
-1.484780e-01
5.464850e-02
2.295120e-01
1.364120e-01
6.592870e-02
-4.413710e-01
-6.567030e-01
-1.484780e-01
-7.761660e-02
2.295120e-01
3.643940e-01
-1.896240e-01
-4.413710e-01
-2.218990e-01
2.613390e-02
5.464850e-02
2.295120e-01
1.801120e-01
-7.043450e-02
-4.413710e-01
-6.567030e-01
2.613390e-02
2.239530e-01
2.295120e-01
3.643940e-01
-7.043450e-02
-3.116450e-01
-2.218990e-01
2.613390e-02
-1.503730e-02
1.817780e-01
1.801120e-01
-7.043450e-02
9.389080e-02
-1.190810e-02
2.613390e-02
2.239530e-01
1.817780e-01
4.003190e-01
-7.043450e-02
-3.116450e-01
-1.190810e-02
-1.202290e-01
-1.503730e-02
1.817780e-01
2.797510e-01
1.300210e-01
9.389080e-02
-1.190810e-02
-1.898960e-01
-3.098540e-02
1.817780e-01
4.003190e-01
1.300210e-01
-3.100070e-02
-1.190810e-02
-1.202290e-01
-3.098540e-02
1.573400e-01
2.797510e-01
1.300210e-01
-2.464900e-01
-1.850540e-01
-1.898960e-01
-3.098540e-02
2.958960e-01
8.982780e-02
1.300210e-01
-3.100070e-02
-1.850540e-01
-1.356040e-01
-3.098540e-02
1.573400e-01
8.982780e-02
-1.116250e-01
-2.464900e-01
-1.850540e-01
-1.460770e-01
1.806270e-02
2.958960e-01
8.982780e-02
-2.181860e-02
-8.460600e-02
-1.850540e-01
-1.356040e-01
1.806270e-02
1.667480e-01
8.982780e-02
-1.116250e-01
-8.460600e-02
-1.713570e-01
-1.460770e-01
1.806270e-02
2.441510e-01
-1.005990e-02
-2.181860e-02
-8.460600e-02
-2.755750e-01
1.254480e-02
1.806270e-02
1.667480e-01
-1.005990e-02
-2.616210e-01
-8.460600e-02
-1.713570e-01
1.254480e-02
3.270220e-01
2.441510e-01
-1.005990e-02
8.128440e-02
-4.612820e-02
-2.755750e-01
1.254480e-02
5.777730e-02
1.236640e-01
-1.005990e-02
-2.616210e-01
-4.612820e-02
-1.733060e-01
1.254480e-02
3.270220e-01
1.236640e-01
1.783470e-01
8.128440e-02
-4.612820e-02
1.479960e-01
3.069590e-01
5.777730e-02
1.236640e-01
-6.651550e-03
-1.937750e-01
-4.612820e-02
-1.733060e-01
3.069590e-01
4.585450e-01
1.236640e-01
1.783470e-01
-1.937750e-01
-3.496960e-01
1.479960e-01
3.069590e-01
7.798960e-02
-6.603290e-02
-6.651550e-03
-1.937750e-01
-1.339440e-04
5.435680e-02
3.069590e-01
4.585450e-01
-6.603290e-02
-1.424230e-01
-1.937750e-01
-3.496960e-01
5.435680e-02
6.520300e-02
7.798960e-02
-6.603290e-02
-2.152150e-01
-2.620210e-01
-1.339440e-04
5.435680e-02
1.407750e-01
1.105770e-01
-6.603290e-02
-1.424230e-01
-2.620210e-01
-4.140330e-01
5.435680e-02
6.520300e-02
1.105770e-01
1.282820e-01
-2.152150e-01
-2.620210e-01
1.336990e-01
5.083770e-02
1.407750e-01
1.105770e-01
-1.623160e-01
-8.889920e-02
-2.620210e-01
-4.140330e-01
5.083770e-02
4.476570e-02
1.105770e-01
1.282820e-01
-8.889920e-02
-4.129980e-02
1.336990e-01
5.083770e-02
5.286190e-01
4.315280e-01
-1.623160e-01
-8.889920e-02
-4.378330e-01
-3.213270e-01
5.083770e-02
4.476570e-02
4.315280e-01
2.430500e-01
-8.889920e-02
-4.129980e-02
-3.213270e-01
-1.536420e-01
0.000000e+00
0.000000e+00
3.133310e-01
2.812820e-01
0.000000e+00
0.000000e+00
-4.469310e-01
-4.026300e-01
0.000000e+00
0.000000e+00
2.812820e-01
2.752250e-01
0.000000e+00
0.000000e+00
-4.026300e-01
-3.549370e-01
3.133310e-01
2.812820e-01
-3.694910e-02
1.182740e-01
-4.469310e-01
-4.026300e-01
-4.603990e-02
-5.087310e-02
2.812820e-01
2.752250e-01
1.182740e-01
2.707810e-01
-4.026300e-01
-3.549370e-01
-5.087310e-02
-6.581370e-02
-3.694910e-02
1.182740e-01
-6.802410e-02
-8.623690e-02
-4.603990e-02