<?xml version="1.0"?>
<VTKFile type="UnstructuredGrid" version="0.1" byte_order="LittleEndian" compressor="vtkZLibDataCompressor">
<UnstructuredGrid>
<Piece NumberOfPoints="960" NumberOfCells="120">
<Points>
<DataArray type="Float32" NumberOfComponents="3" format="ascii">
-4.000000e+02 -6.000000e+03 -4.000000e+02
0.000000e+00 -6.000000e+03 -4.000000e+02
-3.999580e+02 -5.600030e+03 -4.004730e+02
4.101130e-02 -5.600050e+03 -4.004790e+02
-4.000000e+02 -6.000000e+03 0.000000e+00
0.000000e+00 -6.000000e+03 0.000000e+00
-4.000060e+02 -5.599990e+03 -2.943190e-01
-5.957270e-03 -5.600020e+03 -2.508550e-01
0.000000e+00 -6.000000e+03 -4.000000e+02
4.000000e+02 -6.000000e+03 -4.000000e+02
4.101130e-02 -5.600050e+03 -4.004790e+02
4.000400e+02 -5.600070e+03 -4.004860e+02
0.000000e+00 -6.000000e+03 0.000000e+00
4.000000e+02 -6.000000e+03 0.000000e+00
-5.957270e-03 -5.600020e+03 -2.508550e-01
3.999940e+02 -5.600040e+03 -2.079980e-01
-3.999580e+02 -5.600030e+03 -4.004730e+02
4.101130e-02 -5.600050e+03 -4.004790e+02
-4.000290e+02 -5.199910e+03 -4.000250e+02
-2.971560e-02 -5.199940e+03 -4.001340e+02
-4.000060e+02 -5.599990e+03 -2.943190e-01
-5.957270e-03 -5.600020e+03 -2.508550e-01
-3.999780e+02 -5.200070e+03 -2.526280e-01
2.284210e-02 -5.200070e+03 -2.172130e-01
4.101130e-02 -5.600050e+03 -4.004790e+02
4.000400e+02 -5.600070e+03 -4.004860e+02
-2.971560e-02 -5.199940e+03 -4.001340e+02
3.999700e+02 -5.199960e+03 -4.002460e+02
-5.957270e-03 -5.600020e+03 -2.508550e-01
3.999940e+02 -5.600040e+03 -2.079980e-01
2.284210e-02 -5.200070e+03 -2.172130e-01
4.000240e+02 -5.200070e+03 -1.795800e-01
-4.000290e+02 -5.199910e+03 -4.000250e+02
-2.971560e-02 -5.199940e+03 -4.001340e+02
-4.000970e+02 -4.799960e+03 -4.002620e+02
-9.677330e-02 -4.799970e+03 -4.003290e+02
-3.999780e+02 -5.200070e+03 -2.526280e-01
2.284210e-02 -5.200070e+03 -2.172130e-01
-3.999850e+02 -4.800070e+03 9.503120e-02
1.553900e-02 -4.800070e+03 1.118810e-02
-2.971560e-02 -5.199940e+03 -4.001340e+02
3.999700e+02 -5.199960e+03 -4.002460e+02
-9.677330e-02 -4.799970e+03 -4.003290e+02
3.999030e+02 -4.799970e+03 -4.003950e+02
2.284210e-02 -5.200070e+03 -2.172130e-01
4.000240e+02 -5.200070e+03 -1.795800e-01
1.553900e-02 -4.800070e+03 1.118810e-02
4.000160e+02 -4.800070e+03 -7.484970e-02
-4.000970e+02 -4.799960e+03 -4.002620e+02
-9.677330e-02 -4.799970e+03 -4.003290e+02
-4.001820e+02 -4.400060e+03 -4.000320e+02
-1.822880e-01 -4.400040e+03 -4.002490e+02
-3.999850e+02 -4.800070e+03 9.503120e-02
1.553900e-02 -4.800070e+03 1.118810e-02
-3.999690e+02 -4.400010e+03 -1.354850e-01
3.130730e-02 -4.400020e+03 -3.088140e-01
-9.677330e-02 -4.799970e+03 -4.003290e+02
3.999030e+02 -4.799970e+03 -4.003950e+02
-1.822880e-01 -4.400040e+03 -4.002490e+02
3.998170e+02 -4.400030e+03 -4.004680e+02
1.553900e-02 -4.800070e+03 1.118810e-02
4.000160e+02 -4.800070e+03 -7.484970e-02
3.130730e-02 -4.400020e+03 -3.088140e-01
4.000320e+02 -4.400030e+03 -4.800890e-01
-4.001820e+02 -4.400060e+03 -4.000320e+02
-1.822880e-01 -4.400040e+03 -4.002490e+02
-4.001890e+02 -4.000100e+03 -3.999730e+02
-1.897110e-01 -4.000110e+03 -4.001320e+02
-3.999690e+02 -4.400010e+03 -1.354850e-01
3.130730e-02 -4.400020e+03 -3.088140e-01
-4.000080e+02 -4.000030e+03 -4.705360e-02
-8.514290e-03 -4.000020e+03 -2.761240e-01
-1.822880e-01 -4.400040e+03 -4.002490e+02
3.998170e+02 -4.400030e+03 -4.004680e+02
-1.897110e-01 -4.000110e+03 -4.001320e+02
3.998100e+02 -4.000120e+03 -4.002930e+02
3.130730e-02 -4.400020e+03 -3.088140e-01
4.000320e+02 -4.400030e+03 -4.800890e-01
-8.514290e-03 -4.000020e+03 -2.761240e-01
3.999910e+02 -4.000010e+03 -5.046370e-01
-4.001890e+02 -4.000100e+03 -3.999730e+02
-1.897110e-01 -4.000110e+03 -4.001320e+02
-4.002180e+02 -3.600250e+03 -4.004290e+02
-2.186290e-01 -3.600230e+03 -4.006670e+02
-4.000080e+02 -4.000030e+03 -4.705360e-02
-8.514290e-03 -4.000020e+03 -2.761240e-01
-3.999960e+02 -3.599950e+03 -3.973990e-01
3.907680e-03 -3.599970e+03 -6.089730e-01
-1.897110e-01 -4.000110e+03 -4.001320e+02
3.998100e+02 -4.000120e+03 -4.002930e+02
-2.186290e-01 -3.600230e+03 -4.006670e+02
3.997810e+02 -3.600200e+03 -4.009040e+02
-8.514290e-03 -4.000020e+03 -2.761240e-01
3.999910e+02 -4.000010e+03 -5.046370e-01
3.907680e-03 -3.599970e+03 -6.089730e-01
4.000040e+02 -3.599990e+03 -8.213030e-01
-4.002180e+02 -3.600250e+03 -4.004290e+02
-2.186290e-01 -3.600230e+03 -4.006670e+02
-4.001030e+02 -3.200260e+03 -4.009450e+02
-1.028100e-01 -3.200210e+03 -4.010300e+02
-3.999960e+02 -3.599950e+03 -3.973990e-01
3.907680e-03 -3.599970e+03 -6.089730e-01
-4.000100e+02 -3.199980e+03 -6.831790e-01
-1.015020e-02 -3.200010e+03 -8.381010e-01
-2.186290e-01 -3.600230e+03 -4.006670e+02
3.997810e+02 -3.600200e+03 -4.009040e+02
-1.028100e-01 -3.200210e+03 -4.010300e+02
3.998970e+02 -3.200150e+03 -4.011130e+02
3.907680e-03 -3.599970e+03 -6.089730e-01
4.000040e+02 -3.599990e+03 -8.213030e-01
-1.015020e-02 -3.200010e+03 -8.381010e-01
3.999900e+02 -3.200050e+03 -9.935420e-01
-4.001030e+02 -3.200260e+03 -4.009450e+02
-1.028100e-01 -3.200210e+03 -4.010300e+02
-4.000200e+02 -2.800220e+03 -4.010460e+02
-1.924360e-02 -2.800180e+03 -4.011120e+02
-4.000100e+02 -3.199980e+03 -6.831790e-01
-1.015020e-02 -3.200010e+03 -8.381010e-01
-4.000220e+02 -2.800040e+03 -8.993170e-01
-2.244510e-02 -2.800060e+03 -1.042210e+00
-1.028100e-01 -3.200210e+03 -4.010300e+02
3.998970e+02 -3.200150e+03 -4.011130e+02
-1.924360e-02 -2.800180e+03 -4.011120e+02
3.999810e+02 -2.800140e+03 -4.011760e+02
-1.015020e-02 -3.200010e+03 -8.381010e-01
3.999900e+02 -3.200050e+03 -9.935420e-01
-2.244510e-02 -2.800060e+03 -1.042210e+00
3.999780e+02 -2.800070e+03 -1.185600e+00
-4.000200e+02 -2.800220e+03 -4.010460e+02
-1.924360e-02 -2.800180e+03 -4.011120e+02
-3.999460e+02 -2.400030e+03 -4.010800e+02
5.394170e-02 -2.400060e+03 -4.010600e+02
-4.000220e+02 -2.800040e+03 -8.993170e-01
-2.244510e-02 -2.800060e+03 -1.042210e+00
-4.000240e+02 -2.400000e+03 -1.327690e+00
-2.413990e-02 -2.399980e+03 -1.295460e+00
-1.924360e-02 -2.800180e+03 -4.011120e+02
3.999810e+02 -2.800140e+03 -4.011760e+02
5.394170e-02 -2.400060e+03 -4.010600e+02
4.000540e+02 -2.400090e+03 -4.010410e+02
-2.244510e-02 -2.800060e+03 -1.042210e+00
3.999780e+02 -2.800070e+03 -1.185600e+00
-2.413990e-02 -2.399980e+03 -1.295460e+00
3.999760e+02 -2.399960e+03 -1.262990e+00
-3.999460e+02 -2.400030e+03 -4.010800e+02
5.394170e-02 -2.400060e+03 -4.010600e+02
-3.998620e+02 -1.999980e+03 -4.012880e+02
1.384140e-01 -2.000050e+03 -4.011490e+02
-4.000240e+02 -2.400000e+03 -1.327690e+00
-2.413990e-02 -2.399980e+03 -1.295460e+00
-4.000120e+02 -1.999970e+03 -1.279670e+00
-1.195200e-02 -1.999930e+03 -1.156530e+00
5.394170e-02 -2.400060e+03 -4.010600e+02
4.000540e+02 -2.400090e+03 -4.010410e+02
1.384140e-01 -2.000050e+03 -4.011490e+02
4.001380e+02 -2.000110e+03 -4.010110e+02
-2.413990e-02 -2.399980e+03 -1.295460e+00
3.999760e+02 -2.399960e+03 -1.262990e+00
-1.195200e-02 -1.999930e+03 -1.156530e+00
3.999880e+02 -1.999890e+03 -1.034160e+00
-3.998620e+02 -1.999980e+03 -4.012880e+02
1.384140e-01 -2.000050e+03 -4.011490e+02
-3.999050e+02 -1.600110e+03 -4.016880e+02
9.440100e-02 -1.600100e+03 -4.015630e+02
-4.000120e+02 -1.999970e+03 -1.279670e+00
-1.195200e-02 -1.999930e+03 -1.156530e+00
-3.999700e+02 -1.600020e+03 -1.415510e+00
3.031320e-02 -1.600020e+03 -1.375130e+00
1.384140e-01 -2.000050e+03 -4.011490e+02
4.001380e+02 -2.000110e+03 -4.010110e+02
9.440100e-02 -1.600100e+03 -4.015630e+02
4.000940e+02 -1.600100e+03 -4.014370e+02
-1.195200e-02 -1.999930e+03 -1.156530e+00
3.999880e+02 -1.999890e+03 -1.034160e+00
3.031320e-02 -1.600020e+03 -1.375130e+00
4.000310e+02 -1.600030e+03 -1.334880e+00
-3.999050e+02 -1.600110e+03 -4.016880e+02
9.440100e-02 -1.600100e+03 -4.015630e+02
-3.999950e+02 -1.200120e+03 -4.014370e+02
4.991040e-03 -1.200120e+03 -4.014770e+02
-3.999700e+02 -1.600020e+03 -1.415510e+00
3.031320e-02 -1.600020e+03 -1.375130e+00
-3.999850e+02 -1.200050e+03 -1.734210e+00
1.611550e-02 -1.200050e+03 -1.627310e+00
9.440100e-02 -1.600100e+03 -4.015630e+02
4.000940e+02 -1.600100e+03 -4.014370e+02
4.991040e-03 -1.200120e+03 -4.014770e+02
4.000050e+02 -1.200110e+03 -4.015170e+02
3.031320e-02 -1.600020e+03 -1.375130e+00
4.000310e+02 -1.600030e+03 -1.334880e+00
1.611550e-02 -1.200050e+03 -1.627310e+00
4.000170e+02 -1.200050e+03 -1.520950e+00
-3.999950e+02 -1.200120e+03 -4.014370e+02
4.991040e-03 -1.200120e+03 -4.014770e+02
-4.000180e+02 -8.002680e+02 -4.014660e+02
-1.761770e-02 -8.002450e+02 -4.014840e+02
-3.999850e+02 -1.200050e+03 -1.734210e+00
1.611550e-02 -1.200050e+03 -1.627310e+00
-3.999890e+02 -7.999660e+02 -1.599220e+00
1.035310e-02 -7.999710e+02 -1.610390e+00
4.991040e-03 -1.200120e+03 -4.014770e+02
4.000050e+02 -1.200110e+03 -4.015170e+02
-1.761770e-02 -8.002450e+02 -4.014840e+02
3.999830e+02 -8.002250e+02 -4.015020e+02
1.611550e-02 -1.200050e+03 -1.627310e+00
4.000170e+02 -1.200050e+03 -1.520950e+00
1.035310e-02 -7.999710e+02 -1.610390e+00
4.000100e+02 -7.999740e+02 -1.621950e+00
-4.000180e+02 -8.002680e+02 -4.014660e+02
-1.761770e-02 -8.002450e+02 -4.014840e+02
-3.999920e+02 -4.002170e+02 -4.018090e+02
7.457750e-03 -4.001730e+02 -4.019030e+02
-3.999890e+02 -7.999660e+02 -1.599220e+00
1.035310e-02 -7.999710e+02 -1.610390e+00
-3.999980e+02 -3.999630e+02 -1.880670e+00
2.151710e-03 -3.999700e+02 -1.812000e+00
-1.761770e-02 -8.002450e+02 -4.014840e+02
3.999830e+02 -8.002250e+02 -4.015020e+02
7.457750e-03 -4.001730e+02 -4.019030e+02
4.000070e+02 -4.001310e+02 -4.019970e+02
1.035310e-02 -7.999710e+02 -1.610390e+00
4.000100e+02 -7.999740e+02 -1.621950e+00
2.151710e-03 -3.999700e+02 -1.812000e+00
4.000020e+02 -3.999750e+02 -1.744190e+00
-3.999920e+02 -4.002170e+02 -4.018090e+02
7.457750e-03 -4.001730e+02 -4.019030e+02
-3.999690e+02 -2.221260e-02 -4.016830e+02
3.135480e-02 -8.285660e-03 -4.017130e+02
-3.999980e+02 -3.999630e+02 -1.880670e+00
2.151710e-03 -3.999700e+02 -1.812000e+00
-3.999700e+02 -3.323010e-02 -1.932410e+00
2.987730e-02 -3.175010e-02 -1.878190e+00
7.457750e-03 -4.001730e+02 -4.019030e+02
4.000070e+02 -4.001310e+02 -4.019970e+02
[...]
<PointData>
<DataArray type="Float32" Name="V1" format="ascii">
0.000000e+00
0.000000e+00
8.329460e-02
8.379970e-02
0.000000e+00
0.000000e+00
-5.789990e-02
-5.787630e-02
0.000000e+00
0.000000e+00
8.379970e-02
8.429100e-02
0.000000e+00
0.000000e+00
-5.787630e-02
-5.785860e-02
8.329460e-02
8.379970e-02
3.472240e-02
3.313930e-02
-5.789990e-02
-5.787630e-02
-1.912040e-02
-1.885400e-02
8.379970e-02
8.429100e-02
3.313930e-02
3.156200e-02
-5.787630e-02
-5.785860e-02
-1.885400e-02
-1.860090e-02
3.472240e-02
3.313930e-02
7.744970e-03
1.039480e-02
-1.912040e-02
-1.885400e-02
1.983650e-02
1.844850e-02
3.313930e-02
3.156200e-02
1.039480e-02
1.309260e-02
-1.885400e-02
-1.860090e-02
1.844850e-02
1.706480e-02
7.744970e-03
1.039480e-02
1.071520e-01
1.068130e-01
1.983650e-02
1.844850e-02
-6.020450e-02
-6.041850e-02
1.039480e-02
1.309260e-02
1.068130e-01
1.064190e-01
1.844850e-02
1.706480e-02
-6.041850e-02
-6.062790e-02
1.071520e-01
1.068130e-01
-2.037480e-02
-2.052790e-02
-6.020450e-02
-6.041850e-02
5.954190e-02
5.947350e-02
1.068130e-01
1.064190e-01
-2.052790e-02
-2.070040e-02
-6.041850e-02
-6.062790e-02
5.947350e-02
5.939940e-02
-2.037480e-02
-2.052790e-02
2.005250e-02
1.986270e-02
5.954190e-02
5.947350e-02
-2.014400e-02
-1.938720e-02
-2.052790e-02
-2.070040e-02
1.986270e-02
1.968810e-02
5.947350e-02
5.939940e-02
-1.938720e-02
-1.862370e-02
2.005250e-02
1.986270e-02
-1.612460e-02
-1.569520e-02
-2.014400e-02
-1.938720e-02
-4.596360e-03
-4.828620e-03
1.986270e-02
1.968810e-02
-1.569520e-02
-1.527140e-02
-1.938720e-02
-1.862370e-02
-4.828620e-03
-5.057660e-03
-1.612460e-02
-1.569520e-02
-5.665430e-02
-5.744880e-02
-4.596360e-03
-4.828620e-03
4.168300e-02
4.247010e-02
-1.569520e-02
-1.527140e-02
-5.744880e-02
-5.823210e-02
-4.828620e-03
-5.057660e-03
4.247010e-02
4.323490e-02
-5.665430e-02
-5.744880e-02
-6.461100e-02
-6.496770e-02
4.168300e-02
4.247010e-02
4.196960e-02
4.224780e-02
-5.744880e-02
-5.823210e-02
-6.496770e-02
-6.534860e-02
4.247010e-02
4.323490e-02
4.224780e-02
4.252730e-02
-6.461100e-02
-6.496770e-02
3.406460e-02
3.461170e-02
4.196960e-02
4.224780e-02
-5.743990e-02
-5.749000e-02
-6.496770e-02
-6.534860e-02
3.461170e-02
3.522720e-02
4.224780e-02
4.252730e-02
-5.749000e-02
-5.752340e-02
3.406460e-02
3.461170e-02
5.501380e-02
5.523960e-02
-5.743990e-02
-5.749000e-02
-1.581250e-02
-1.591250e-02
3.461170e-02
3.522720e-02
5.523960e-02
5.542450e-02
-5.749000e-02
-5.752340e-02
-1.591250e-02
-1.602870e-02
5.501380e-02
5.523960e-02
-4.769680e-02
-4.741840e-02
-1.581250e-02
-1.591250e-02
3.877230e-02
3.800900e-02
5.523960e-02
5.542450e-02
-4.741840e-02
-4.712870e-02
-1.591250e-02
-1.602870e-02
3.800900e-02
3.724620e-02
-4.769680e-02
-4.741840e-02
5.549720e-02
5.507860e-02
3.877230e-02
3.800900e-02
-5.469750e-02
-5.403040e-02
-4.741840e-02
-4.712870e-02
5.507860e-02
5.467100e-02
3.800900e-02
3.724620e-02
-5.403040e-02
-5.335750e-02
5.549720e-02
5.507860e-02
-2.515350e-02
-2.546140e-02
-5.469750e-02
-5.403040e-02
9.518440e-03
9.634890e-03
5.507860e-02
5.467100e-02
-2.546140e-02
-2.579460e-02
-5.403040e-02
-5.335750e-02
9.634890e-03
9.737210e-03
-2.515350e-02
-2.546140e-02
-5.017430e-02
-5.083420e-02
9.518440e-03
9.634890e-03
1.907140e-02
1.943070e-02
-2.546140e-02
-2.579460e-02
-5.083420e-02
-5.150360e-02
9.634890e-03
9.737210e-03
1.943070e-02
1.978370e-02
-5.017430e-02
-5.083420e-02
-2.412540e-02
-2.452450e-02
1.907140e-02
1.943070e-02
1.649990e-02
1.648690e-02
-5.083420e-02
-5.150360e-02
-2.452450e-02
-2.493880e-02
1.943070e-02
1.978370e-02
1.648690e-02
1.649180e-02
-2.412540e-02
-2.452450e-02
-5.700280e-02
-5.759830e-02
1.649990e-02
1.648690e-02
2.173110e-02
2.270920e-02
-2.452450e-02
-2.493880e-02
-5.759830e-02
-5.816160e-02
1.648690e-02
1.649180e-02
2.270920e-02
2.368480e-02
-5.700280e-02
-5.759830e-02
3.469150e-02
3.581230e-02
2.173110e-02
2.270920e-02
-4.003720e-02
-4.171200e-02
-5.759830e-02
-5.816160e-02
3.581230e-02
3.688340e-02
2.270920e-02
2.368480e-02
-4.171200e-02
-4.340250e-02
3.469150e-02
3.581230e-02
5.935350e-02
5.799590e-02
-4.003720e-02
-4.171200e-02
-8.588010e-02
-8.474030e-02
3.581230e-02
3.688340e-02
5.799590e-02
5.664730e-02
-4.171200e-02
-4.340250e-02
-8.474030e-02
-8.359950e-02
5.935350e-02
5.799590e-02
7.700210e-02
7.755830e-02
-8.588010e-02
-8.474030e-02
-5.538520e-02
-5.582860e-02
5.799590e-02
5.664730e-02
7.755830e-02
7.813870e-02
-8.474030e-02
-8.359950e-02
-5.582860e-02
-5.627170e-02
7.700210e-02
7.755830e-02
3.875450e-02
3.829930e-02
-5.538520e-02
-5.582860e-02
4.329140e-03
4.379330e-03
7.755830e-02
7.813870e-02
3.829930e-02
3.783720e-02
-5.582860e-02
-5.627170e-02
4.379330e-03
4.430760e-03
3.875450e-02
3.829930e-02
7.562090e-02
7.539210e-02
4.329140e-03
4.379330e-03
-2.323240e-02
-2.230260e-02
3.829930e-02
3.783720e-02
7.539210e-02
7.513150e-02
4.379330e-03
4.430760e-03
-2.230260e-02
-2.136990e-02
7.562090e-02
7.539210e-02
-1.106810e-02
-1.017770e-02
-2.323240e-02
-2.230260e-02
5.868320e-02
5.793640e-02
7.539210e-02
7.513150e-02
-1.017770e-02
-9.243370e-03
-2.230260e-02
-2.136990e-02
5.793640e-02
5.720770e-02
-1.106810e-02
-1.017770e-02
3.018410e-02
2.811120e-02
5.868320e-02
5.793640e-02
-4.326620e-03
-3.546490e-03
-1.017770e-02
-9.243370e-03
2.811120e-02
2.607570e-02
5.793640e-02
5.720770e-02
-3.546490e-03
-2.774750e-03
3.018410e-02
2.811120e-02
-2.690560e-02
-2.464470e-02
-4.326620e-03
-3.546490e-03
2.505360e-02
2.355200e-02
2.811120e-02
2.607570e-02
-2.464470e-02
-2.240670e-02
-3.546490e-03
-2.774750e-03
2.355200e-02
2.205590e-02
-2.690560e-02
-2.464470e-02
-6.019070e-02
-6.112410e-02
2.505360e-02
2.355200e-02
1.811030e-02
1.890520e-02
-2.464470e-02
-2.240670e-02
-6.112410e-02
-6.203360e-02
2.355200e-02
2.205590e-02
1.890520e-02
1.968110e-02
-6.019070e-02
-6.112410e-02
-6.425450e-02
-6.311460e-02
1.811030e-02
1.890520e-02
-4.669700e-03
-5.175250e-03
-6.112410e-02
-6.203360e-02
-6.311460e-02
-6.192240e-02
1.890520e-02
1.968110e-02
-5.175250e-03
-5.651830e-03
-6.425450e-02
-6.311460e-02
-7.841200e-04
-2.515500e-03
-4.669700e-03
-5.175250e-03
-1.677000e-02
-1.573560e-02
-6.311460e-02
-6.192240e-02
-2.515500e-03
-4.329610e-03
-5.175250e-03
-5.651830e-03
-1.573560e-02
-1.473830e-02
-7.841200e-04
-2.515500e-03
-3.755010e-02
-3.566370e-02
-1.677000e-02
-1.573560e-02
-9.786670e-03
-1.176460e-02
-2.515500e-03
-4.329610e-03
-3.566370e-02
-3.376140e-02
-1.573560e-02
-1.473830e-02
-1.176460e-02
-1.373850e-02
-3.755010e-02
-3.566370e-02
5.792020e-02
5.700860e-02
-9.786670e-03
-1.176460e-02
7.073710e-03
8.304840e-03
-3.566370e-02
-3.376140e-02
5.700860e-02
5.608860e-02
-1.176460e-02
-1.373850e-02
8.304840e-03
9.550710e-03
0.000000e+00
0.000000e+00
-5.789990e-02
-5.787630e-02
0.000000e+00
0.000000e+00
3.289830e-02
3.271850e-02
0.000000e+00
0.000000e+00
-5.787630e-02
-5.785860e-02
0.000000e+00
0.000000e+00
3.271850e-02
3.255880e-02
-5.789990e-02
-5.787630e-02
-1.912040e-02
-1.885400e-02
3.289830e-02
3.271850e-02
2.491130e-03
3.145120e-03
-5.787630e-02
-5.785860e-02
-1.885400e-02
-1.860090e-02
3.271850e-02
3.255880e-02
3.145120e-03
3.799260e-03
-1.912040e-02
-1.885400e-02
1.983650e-02
1.844850e-02
2.491130e-03
3.145120e-03
-4.805660e-02
-4.759450e-02
-1.885400e-02
-1.860090e-02
1.844850e-02
1.706480e-02
3.145120e-03
3.799260e-03
-4.759450e-02
-4.719490e-02
1.983650e-02
1.844850e-02
-6.020450e-02
-6.041850e-02
-4.805660e-02
-4.759450e-02
1.503550e-02
1.562340e-02
1.844850e-02
1.706480e-02
-6.041850e-02
-6.062790e-02
-4.759450e-02
-4.719490e-02
1.562340e-02
1.628370e-02
-6.020450e-02
-6.041850e-02
5.954190e-02
5.947350e-02
1.503550e-02
1.562340e-02
-9.911080e-02
-9.862650e-02
-6.041850e-02
-6.062790e-02
5.947350e-02
5.939940e-02
1.562340e-02
1.628370e-02
-9.862650e-02
-9.814780e-02
5.954190e-02
5.947350e-02
-2.014400e-02
-1.938720e-02
-9.911080e-02
-9.862650e-02
2.001620e-02
1.869940e-02
5.947350e-02
5.939940e-02
-1.938720e-02
-1.862370e-02
-9.862650e-02
-9.814780e-02
1.869940e-02
1.740980e-02
-2.014400e-02
-1.938720e-02
-4.596360e-03
-4.828620e-03
2.001620e-02
1.869940e-02
2.564590e-02
2.584370e-02
-1.938720e-02
-1.862370e-02
-4.828620e-03
-5.057660e-03
1.869940e-02
1.740980e-02
2.584370e-02
2.606490e-02
-4.596360e-03
-4.828620e-03
4.168300e-02
4.247010e-02
2.564590e-02
2.584370e-02
-2.597110e-02
-2.662440e-02
-4.828620e-03
-5.057660e-03
4.247010e-02
4.323490e-02
2.584370e-02
2.606490e-02
-2.662440e-02
-2.729650e-02
4.168300e-02
4.247010e-02
4.196960e-02
4.224780e-02
-2.597110e-02
-2.662440e-02
-2.172160e-02
-2.197460e-02
4.247010e-02
4.323490e-02
4.224780e-02
4.252730e-02
-2.662440e-02
-2.729650e-02
-2.197460e-02
-2.220340e-02
4.196960e-02
4.224780e-02
-5.743990e-02
-5.749000e-02
-2.172160e-02
-2.197460e-02
8.145630e-02
8.142620e-02
4.224780e-02
4.252730e-02
-5.749000e-02
-5.752340e-02
-2.197460e-02
-2.220340e-02
8.142620e-02
8.134510e-02
-5.743990e-02
-5.749000e-02
-1.581250e-02
-1.591250e-02
8.145630e-02
8.142620e-02
-2.361150e-02
-2.338390e-02
-5.749000e-02
-5.752340e-02
-1.591250e-02
-1.602870e-02
8.142620e-02
8.134510e-02
-2.338390e-02
-2.310700e-02
-1.581250e-02
-1.591250e-02
3.877230e-02
3.800900e-02
-2.361150e-02
-2.338390e-02
-3.143590e-02
-3.058890e-02
-1.591250e-02
-1.602870e-02
3.800900e-02
3.724620e-02
-2.338390e-02
-2.310700e-02
-3.058890e-02
-2.978930e-02
3.877230e-02
3.800900e-02
-5.469750e-02
-5.403040e-02
-3.143590e-02
-3.058890e-02
5.613800e-02
5.557810e-02
3.800900e-02
3.724620e-02
-5.403040e-02
-5.335750e-02
-3.058890e-02
-2.978930e-02
5.557810e-02
5.504420e-02
-5.469750e-02
-5.403040e-02
9.518440e-03
9.634890e-03
5.613800e-02
5.557810e-02
7.292660e-03
7.306310e-03
-5.403040e-02
-5.335750e-02
9.634890e-03
9.737210e-03
5.557810e-02
5.504420e-02
7.306310e-03
7.331530e-03
9.518440e-03
9.634890e-03
1.907140e-02
1.943070e-02
7.292660e-03
7.306310e-03
9.196550e-03
9.301260e-03
9.634890e-03
9.737210e-03
1.943070e-02
1.978370e-02
7.306310e-03
7.331530e-03
9.301260e-03
9.392480e-03
1.907140e-02
1.943070e-02
1.649990e-02
1.648690e-02
9.196550e-03
9.301260e-03
-6.833110e-03
-6.932010e-03
1.943070e-02
1.978370e-02
1.648690e-02
1.649180e-02
9.301260e-03
9.392480e-03
-6.932010e-03
-7.038200e-03
1.649990e-02
1.648690e-02
2.173110e-02
2.270920e-02
-6.833110e-03
-6.932010e-03
1.369650e-02
1.301070e-02
1.648690e-02
1.649180e-02
2.270920e-02
2.368480e-02
-6.932010e-03
-7.038200e-03
1.301070e-02
1.228280e-02
2.173110e-02
2.270920e-02
-4.003720e-02
-4.171200e-02
1.369650e-02
1.301070e-02
4.311230e-02
4.467230e-02
2.270920e-02
2.368480e-02
-4.171200e-02
-4.340250e-02
1.301070e-02
1.228280e-02
4.467230e-02
4.629890e-02
-4.003720e-02
-4.171200e-02
-8.588010e-02
-8.474030e-02
4.311230e-02
4.467230e-02
1.143600e-01
1.138190e-01
-4.171200e-02
-4.340250e-02
-8.474030e-02
-8.359950e-02
4.467230e-02
4.629890e-02
1.138190e-01
1.132640e-01
-8.588010e-02
-8.474030e-02
-5.538520e-02
-5.582860e-02
1.143600e-01
1.138190e-01
3.300590e-02
3.337370e-02
-8.474030e-02
-8.359950e-02
-5.582860e-02
-5.627170e-02
1.138190e-01
1.132640e-01
3.337370e-02
3.375870e-02
-5.538520e-02
-5.582860e-02
4.329140e-03
4.379330e-03
3.300590e-02
3.337370e-02
-4.772770e-02
-4.836440e-02
-5.582860e-02
-5.627170e-02
4.379330e-03
4.430760e-03
3.337370e-02
3.375870e-02
-4.836440e-02
-4.899160e-02
4.329140e-03
4.379330e-03
-2.323240e-02
-2.230260e-02
-4.772770e-02
-4.836440e-02
-2.748220e-02
-2.818470e-02
4.379330e-03
4.430760e-03
-2.230260e-02
-2.136990e-02
-4.836440e-02
-4.899160e-02
-2.818470e-02
-2.893630e-02
-2.323240e-02
-2.230260e-02
5.868320e-02
5.793640e-02
-2.748220e-02
-2.818470e-02
-1.060560e-01
-1.056720e-01
-2.230260e-02
-2.136990e-02
5.793640e-02
5.720770e-02
-2.818470e-02
-2.893630e-02
-1.056720e-01
-1.052800e-01
5.868320e-02
5.793640e-02
-4.326620e-03
-3.546490e-03
-1.060560e-01
-1.056720e-01
-2.158860e-02
-2.197020e-02
5.793640e-02
5.720770e-02
-3.546490e-03
-2.774750e-03
-1.056720e-01
-1.052800e-01
-2.197020e-02
-2.236670e-02
-4.326620e-03
-3.546490e-03
2.505360e-02
2.355200e-02
-2.158860e-02
-2.197020e-02
-2.493530e-02
-2.361930e-02
-3.546490e-03
-2.774750e-03
2.355200e-02
2.205590e-02
-2.197020e-02
-2.236670e-02
-2.361930e-02
-2.230500e-02
2.505360e-02
2.355200e-02
1.811030e-02
1.890520e-02
-2.493530e-02
-2.361930e-02
2.470280e-02
2.406000e-02
2.355200e-02
2.205590e-02
1.890520e-02
1.968110e-02
-2.361930e-02
-2.230500e-02
2.406000e-02
2.342710e-02
1.811030e-02
1.890520e-02
-4.669700e-03
-5.175250e-03
2.470280e-02
2.406000e-02
7.465240e-02
7.432930e-02
1.890520e-02
1.968110e-02
-5.175250e-03
-5.651830e-03
2.406000e-02
2.342710e-02
7.432930e-02
7.395920e-02
-4.669700e-03
-5.175250e-03
-1.677000e-02
-1.573560e-02
7.465240e-02
7.432930e-02
3.231930e-02
3.254900e-02
-5.175250e-03
-5.651830e-03
-1.573560e-02
-1.473830e-02
7.432930e-02
7.395920e-02
3.254900e-02
3.284860e-02
-1.677000e-02
-1.573560e-02
-9.786670e-03
-1.176460e-02
3.231930e-02
3.254900e-02
5.918020e-02
6.054140e-02
-1.573560e-02
-1.473830e-02
-1.176460e-02
-1.373850e-02
3.254900e-02
3.284860e-02
6.054140e-02
6.185150e-02
-9.786670e-03
-1.176460e-02
7.073710e-03
8.304840e-03
5.918020e-02
6.054140e-02
-7.454750e-02
-7.507590e-02
-1.176460e-02
-1.373850e-02
8.304840e-03
9.550710e-03
6.054140e-02
6.185150e-02
-7.507590e-02
-7.556060e-02
</DataArray>
<DataArray type="Float32" Name="V2" format="ascii">
0.000000e+00
0.000000e+00
-1.015230e-01
7.876810e-02
0.000000e+00
0.000000e+00
7.307760e-02
-4.281410e-02
0.000000e+00
0.000000e+00
7.876810e-02
2.569400e-01
0.000000e+00
0.000000e+00
-4.281410e-02
-1.578780e-01
-1.015230e-01
7.876810e-02
2.139660e-01
3.829320e-03
7.307760e-02
-4.281410e-02
-1.025020e-01
4.254350e-02
7.876810e-02
2.569400e-01
3.829320e-03
-2.021180e-01
-4.281410e-02
-1.578780e-01
4.254350e-02
1.856340e-01
2.139660e-01
3.829320e-03
6.816350e-02
-1.988900e-02
-1.025020e-01
4.254350e-02
1.400560e-01
9.563570e-02
3.829320e-03
-2.021180e-01
-1.988900e-02
-1.022900e-01
4.254350e-02
1.856340e-01
9.563570e-02
4.625260e-02
6.816350e-02
-1.988900e-02
-4.966340e-02
-2.391220e-02
1.400560e-01
9.563570e-02
-4.118630e-02
-1.716740e-02
-1.988900e-02
-1.022900e-01
-2.391220e-02
-2.324470e-03
9.563570e-02
4.625260e-02
-1.716740e-02
7.451870e-03
-4.966340e-02
-2.391220e-02
1.189440e-01
1.583220e-02
-4.118630e-02
-1.716740e-02
-1.171140e-01
-1.053110e-02
-2.391220e-02
-2.324470e-03
1.583220e-02
-9.354630e-02
-1.716740e-02
7.451870e-03
-1.053110e-02
1.022210e-01
1.189440e-01
1.583220e-02
-5.672910e-02
6.062180e-02
-1.171140e-01
-1.053110e-02
1.912920e-01
5.021930e-02
1.583220e-02
-9.354630e-02
6.062180e-02
1.934690e-01
-1.053110e-02
1.022210e-01
5.021930e-02
-1.010310e-01
-5.672910e-02
6.062180e-02
-2.769900e-02
8.645280e-02
1.912920e-01
5.021930e-02
4.187840e-02
-2.549890e-02
6.062180e-02
1.934690e-01
8.645280e-02
1.933470e-01
5.021930e-02
-1.010310e-01
-2.549890e-02
-9.013930e-02
-2.769900e-02
8.645280e-02
1.620500e-01
1.240640e-03
4.187840e-02
-2.549890e-02
-1.371760e-01
1.875100e-02
8.645280e-02
1.933470e-01
1.240640e-03
-1.520880e-01
-2.549890e-02
-9.013930e-02
1.875100e-02
1.674010e-01
1.620500e-01
1.240640e-03
-1.904250e-01
-7.801850e-02
-1.371760e-01
1.875100e-02
7.663550e-02
-1.237450e-02
1.240640e-03
-1.520880e-01
-7.801850e-02
3.296350e-02
1.875100e-02
1.674010e-01
-1.237450e-02
-1.005190e-01
-1.904250e-01
-7.801850e-02
-1.080110e-01
-5.572540e-02
7.663550e-02
-1.237450e-02
-5.344030e-02
-9.297730e-02
-7.801850e-02
3.296350e-02
-5.572540e-02
5.138650e-04
-1.237450e-02
-1.005190e-01
-9.297730e-02
-1.344220e-01
-1.080110e-01
-5.572540e-02
8.803850e-02
4.161310e-02
-5.344030e-02
-9.297730e-02
5.289030e-02
7.087880e-02
-5.572540e-02
5.138650e-04
4.161310e-02
-2.892660e-03
-9.297730e-02
-1.344220e-01
7.087880e-02
8.799910e-02
8.803850e-02
4.161310e-02
7.913790e-02
1.781350e-01
5.289030e-02
7.087880e-02
-9.163600e-03
-9.284530e-02
4.161310e-02
-2.892660e-03
1.781350e-01
2.750810e-01
7.087880e-02
8.799910e-02
-9.284530e-02
-1.757160e-01
7.913790e-02
1.781350e-01
3.043740e-02
7.308070e-02
-9.163600e-03
-9.284530e-02
-8.290480e-02
-9.242790e-02
1.781350e-01
2.750810e-01
7.308070e-02
1.164980e-01
-9.284530e-02
-1.757160e-01
-9.242790e-02
-9.903700e-02
3.043740e-02
7.308070e-02
-9.053190e-02
-1.342040e-01
-8.290480e-02
-9.242790e-02
1.098680e-01
1.774990e-01
7.308070e-02
1.164980e-01
-1.342040e-01
-1.778660e-01
-9.242790e-02
-9.903700e-02
1.774990e-01
2.421280e-01
-9.053190e-02
-1.342040e-01
-1.808110e-01
-1.126170e-01
1.098680e-01
1.774990e-01
9.053580e-02
9.956130e-02
-1.342040e-01
-1.778660e-01
-1.126170e-01
-4.314990e-02
1.774990e-01
2.421280e-01
9.956130e-02
1.091920e-01
-1.808110e-01
-1.126170e-01
1.191830e-01
1.487200e-01
9.053580e-02
9.956130e-02
-5.146170e-02
-1.101600e-01
-1.126170e-01
-4.314990e-02
1.487200e-01
1.737790e-01
9.956130e-02
1.091920e-01
-1.101600e-01
-1.622600e-01
1.191830e-01
1.487200e-01
2.199060e-01
1.055490e-01
-5.146170e-02
-1.101600e-01
-8.399800e-02
-5.670650e-02
1.487200e-01
1.737790e-01
1.055490e-01
-8.762150e-03
-1.101600e-01
-1.622600e-01
-5.670650e-02
-3.471460e-02
2.199060e-01
1.055490e-01
-2.232380e-02
-1.215700e-02
-8.399800e-02
-5.670650e-02
2.293950e-02
-2.313390e-02
1.055490e-01
-8.762150e-03
-1.215700e-02
-5.188360e-03
-5.670650e-02
-3.471460e-02
-2.313390e-02
-6.473440e-02
-2.232380e-02
-1.215700e-02
-8.802840e-02
-4.862270e-02
2.293950e-02
-2.313390e-02
1.095130e-01
5.471680e-02
-1.215700e-02
-5.188360e-03
-4.862270e-02
-1.134380e-02
-2.313390e-02
-6.473440e-02
5.471680e-02
1.291330e-03
-8.802840e-02
-4.862270e-02
7.535560e-02
-3.024820e-02
1.095130e-01
5.471680e-02
-7.113490e-02
4.480760e-02
-4.862270e-02
-1.134380e-02
-3.024820e-02
-1.417040e-01
5.471680e-02
1.291330e-03
4.480760e-02
1.638980e-01
7.535560e-02
-3.024820e-02
9.974070e-02
2.632550e-02
-7.113490e-02
4.480760e-02
-9.008300e-02
-1.808340e-02
-3.024820e-02
-1.417040e-01
2.632550e-02
-5.578490e-02
4.480760e-02
1.638980e-01
-1.808340e-02
6.212300e-02
9.974070e-02
2.632550e-02
-3.890910e-02
3.354190e-02
-9.008300e-02
-1.808340e-02
1.690510e-02
-5.464590e-02
2.632550e-02
-5.578490e-02
3.354190e-02
1.087720e-01
-1.808340e-02
6.212300e-02
-5.464590e-02
-1.283200e-01
-3.890910e-02
3.354190e-02
1.868760e-01
6.017350e-02
1.690510e-02
-5.464590e-02
-2.440840e-01
-1.327910e-01
3.354190e-02
1.087720e-01
6.017350e-02
-7.073030e-02
-5.464590e-02
-1.283200e-01
-1.327910e-01
-2.054620e-02
1.868760e-01
6.017350e-02
-1.731220e-02
-8.240630e-02
-2.440840e-01
-1.327910e-01
5.239790e-02
9.868820e-02
6.017350e-02
-7.073030e-02
-8.240630e-02
-1.513230e-01
-1.327910e-01
-2.054620e-02
9.868820e-02
1.488190e-01
-1.731220e-02
-8.240630e-02
-6.422150e-03
1.899570e-03
5.239790e-02
9.868820e-02
5.453110e-02
5.824650e-02
-8.240630e-02
-1.513230e-01
1.899570e-03
1.340740e-02
9.868820e-02
1.488190e-01
5.824650e-02
6.228390e-02
-6.422150e-03
1.899570e-03
-6.226970e-02
-1.208470e-01
5.453110e-02
5.824650e-02
-7.792270e-02
-1.710420e-02
1.899570e-03
1.340740e-02
-1.208470e-01
-1.799470e-01
5.824650e-02
6.228390e-02
-1.710420e-02
4.366260e-02
-6.226970e-02
-1.208470e-01
-7.586770e-02
-1.419990e-01
-7.792270e-02
-1.710420e-02
-9.812220e-03
1.763710e-02
-1.208470e-01
-1.799470e-01
-1.419990e-01
-2.154140e-01
-1.710420e-02
4.366260e-02
1.763710e-02
5.121770e-02
-7.586770e-02
-1.419990e-01
4.724270e-02
5.683150e-02
-9.812220e-03
1.763710e-02
4.032350e-02
5.760890e-03
-1.419990e-01
-2.154140e-01
5.683150e-02
7.088510e-02
1.763710e-02
5.121770e-02
5.760890e-03
-3.244230e-02
4.724270e-02
5.683150e-02
-1.077270e-01
-2.027230e-02
4.032350e-02
5.760890e-03
1.505500e-01
8.596740e-02
5.683150e-02
7.088510e-02
-2.027230e-02
6.602940e-02
5.760890e-03
-3.244230e-02
8.596740e-02
2.276040e-02
-1.077270e-01
-2.027230e-02
-9.645500e-02
-7.337960e-02
1.505500e-01
8.596740e-02
1.606580e-01
1.484290e-01
-2.027230e-02
6.602940e-02
-7.337960e-02
-5.778490e-02
8.596740e-02
2.276040e-02
1.484290e-01
1.394770e-01
0.000000e+00
0.000000e+00
7.307760e-02
-4.281410e-02
0.000000e+00
0.000000e+00
-4.407040e-02
7.836450e-03
0.000000e+00
0.000000e+00
-4.281410e-02
-1.578780e-01
0.000000e+00
0.000000e+00
7.836450e-03
6.156680e-02
7.307760e-02
-4.281410e-02
-1.025020e-01
4.254350e-02
-4.407040e-02
7.836450e-03
-1.488560e-02
-9.254860e-02
-4.281410e-02
-1.578780e-01
4.254350e-02
1.856340e-01
7.836450e-03
6.156680e-02
-9.254860e-02
-1.703860e-01