<?xml version="1.0"?>
<VTKFile type="UnstructuredGrid" version="0.1" byte_order="LittleEndian" compressor="vtkZLibDataCompressor">
<UnstructuredGrid>
<Piece NumberOfPoints="960" NumberOfCells="120">
<Points>
<DataArray type="Float32" NumberOfComponents="3" format="ascii">
-4.000000e+02 -6.000000e+03 -4.000000e+02
0.000000e+00 -6.000000e+03 -4.000000e+02
-3.999910e+02 -5.600180e+03 -4.004640e+02
-2.349700e-02 -5.600290e+03 -4.001090e+02
-4.000000e+02 -6.000000e+03 0.000000e+00
0.000000e+00 -6.000000e+03 0.000000e+00
-4.001420e+02 -5.600080e+03 3.120940e-01
-1.321300e-01 -5.600050e+03 -1.626610e-01
0.000000e+00 -6.000000e+03 -4.000000e+02
4.000000e+02 -6.000000e+03 -4.000000e+02
-2.349700e-02 -5.600290e+03 -4.001090e+02
3.999290e+02 -5.600200e+03 -3.997260e+02
0.000000e+00 -6.000000e+03 0.000000e+00
4.000000e+02 -6.000000e+03 0.000000e+00
-1.321300e-01 -5.600050e+03 -1.626610e-01
3.998860e+02 -5.600140e+03 -5.703370e-01
-3.999910e+02 -5.600180e+03 -4.004640e+02
-2.349700e-02 -5.600290e+03 -4.001090e+02
-4.003120e+02 -5.200690e+03 -3.994480e+02
-2.735570e-01 -5.200570e+03 -4.001420e+02
-4.001420e+02 -5.600080e+03 3.120940e-01
-1.321300e-01 -5.600050e+03 -1.626610e-01
-4.002150e+02 -5.199740e+03 -4.408960e-01
-2.205490e-01 -5.199960e+03 -7.615360e-01
-2.349700e-02 -5.600290e+03 -4.001090e+02
3.999290e+02 -5.600200e+03 -3.997260e+02
-2.735570e-01 -5.200570e+03 -4.001420e+02
3.997830e+02 -5.200460e+03 -4.008240e+02
-1.321300e-01 -5.600050e+03 -1.626610e-01
3.998860e+02 -5.600140e+03 -5.703370e-01
-2.205490e-01 -5.199960e+03 -7.615360e-01
3.997640e+02 -5.200240e+03 -9.067110e-01
-4.003120e+02 -5.200690e+03 -3.994480e+02
-2.735570e-01 -5.200570e+03 -4.001420e+02
-4.005040e+02 -4.800770e+03 -4.004210e+02
-4.451510e-01 -4.800830e+03 -4.014930e+02
-4.002150e+02 -5.199740e+03 -4.408960e-01
-2.205490e-01 -5.199960e+03 -7.615360e-01
-3.999520e+02 -4.799850e+03 -5.321880e-01
1.402060e-02 -4.799840e+03 -6.280220e-01
-2.735570e-01 -5.200570e+03 -4.001420e+02
3.997830e+02 -5.200460e+03 -4.008240e+02
-4.451510e-01 -4.800830e+03 -4.014930e+02
3.996010e+02 -4.800840e+03 -4.025220e+02
-2.205490e-01 -5.199960e+03 -7.615360e-01
3.997640e+02 -5.200240e+03 -9.067110e-01
1.402060e-02 -4.799840e+03 -6.280220e-01
3.999890e+02 -4.799830e+03 -7.572650e-01
-4.005040e+02 -4.800770e+03 -4.004210e+02
-4.451510e-01 -4.800830e+03 -4.014930e+02
-4.003940e+02 -4.400680e+03 -4.012880e+02
-3.918280e-01 -4.400650e+03 -4.017030e+02
-3.999520e+02 -4.799850e+03 -5.321880e-01
1.402060e-02 -4.799840e+03 -6.280220e-01
-4.000720e+02 -4.400020e+03 -1.259420e+00
-1.152880e-01 -4.399970e+03 -1.860740e+00
-4.451510e-01 -4.800830e+03 -4.014930e+02
3.996010e+02 -4.800840e+03 -4.025220e+02
-3.918280e-01 -4.400650e+03 -4.017030e+02
3.996040e+02 -4.400570e+03 -4.022900e+02
1.402060e-02 -4.799840e+03 -6.280220e-01
3.999890e+02 -4.799830e+03 -7.572650e-01
-1.152880e-01 -4.399970e+03 -1.860740e+00
3.998450e+02 -4.399890e+03 -2.488420e+00
-4.003940e+02 -4.400680e+03 -4.012880e+02
-3.918280e-01 -4.400650e+03 -4.017030e+02
-4.003540e+02 -4.000750e+03 -4.029570e+02
-3.943100e-01 -4.000840e+03 -4.027430e+02
-4.000720e+02 -4.400020e+03 -1.259420e+00
-1.152880e-01 -4.399970e+03 -1.860740e+00
-4.003140e+02 -4.000150e+03 -2.132280e+00
-3.121610e-01 -3.999950e+03 -2.897600e+00
-3.918280e-01 -4.400650e+03 -4.017030e+02
3.996040e+02 -4.400570e+03 -4.022900e+02
-3.943100e-01 -4.000840e+03 -4.027430e+02
3.995660e+02 -4.000940e+03 -4.026800e+02
-1.152880e-01 -4.399970e+03 -1.860740e+00
3.998450e+02 -4.399890e+03 -2.488420e+00
-3.121610e-01 -3.999950e+03 -2.897600e+00
3.996910e+02 -3.999760e+03 -3.622940e+00
-4.003540e+02 -4.000750e+03 -4.029570e+02
-3.943100e-01 -4.000840e+03 -4.027430e+02
-4.002700e+02 -3.601260e+03 -4.033020e+02
-2.911270e-01 -3.601300e+03 -4.037330e+02
-4.003140e+02 -4.000150e+03 -2.132280e+00
-3.121610e-01 -3.999950e+03 -2.897600e+00
-4.001710e+02 -3.600050e+03 -3.091300e+00
-2.014600e-01 -3.599910e+03 -3.727210e+00
-3.943100e-01 -4.000840e+03 -4.027430e+02
3.995660e+02 -4.000940e+03 -4.026800e+02
-2.911270e-01 -3.601300e+03 -4.037330e+02
3.996910e+02 -3.601390e+03 -4.041420e+02
-3.121610e-01 -3.999950e+03 -2.897600e+00
3.996910e+02 -3.999760e+03 -3.622940e+00
-2.014600e-01 -3.599910e+03 -3.727210e+00
3.997670e+02 -3.599720e+03 -4.302520e+00
-4.002700e+02 -3.601260e+03 -4.033020e+02
-2.911270e-01 -3.601300e+03 -4.037330e+02
-4.002590e+02 -3.200990e+03 -4.054010e+02
-2.273170e-01 -3.201110e+03 -4.053060e+02
-4.001710e+02 -3.600050e+03 -3.091300e+00
-2.014600e-01 -3.599910e+03 -3.727210e+00
-3.999590e+02 -3.200190e+03 -4.026210e+00
2.973620e-02 -3.200120e+03 -4.611010e+00
-2.911270e-01 -3.601300e+03 -4.037330e+02
3.996910e+02 -3.601390e+03 -4.041420e+02
-2.273170e-01 -3.201110e+03 -4.053060e+02
3.997890e+02 -3.201430e+03 -4.051360e+02
-2.014600e-01 -3.599910e+03 -3.727210e+00
3.997670e+02 -3.599720e+03 -4.302520e+00
2.973620e-02 -3.200120e+03 -4.611010e+00
4.000300e+02 -3.199950e+03 -5.258060e+00
-4.002590e+02 -3.200990e+03 -4.054010e+02
-2.273170e-01 -3.201110e+03 -4.053060e+02
-3.999760e+02 -2.801060e+03 -4.067220e+02
-1.745880e-02 -2.801080e+03 -4.061580e+02
-3.999590e+02 -3.200190e+03 -4.026210e+00
2.973620e-02 -3.200120e+03 -4.611010e+00
-4.001530e+02 -2.800000e+03 -5.729280e+00
-1.424270e-01 -2.800120e+03 -5.791550e+00
-2.273170e-01 -3.201110e+03 -4.053060e+02
3.997890e+02 -3.201430e+03 -4.051360e+02
-1.745880e-02 -2.801080e+03 -4.061580e+02
3.999380e+02 -2.801240e+03 -4.057240e+02
2.973620e-02 -3.200120e+03 -4.611010e+00
4.000300e+02 -3.199950e+03 -5.258060e+00
-1.424270e-01 -2.800120e+03 -5.791550e+00
3.998630e+02 -2.800120e+03 -5.919170e+00
-3.999760e+02 -2.801060e+03 -4.067220e+02
-1.745880e-02 -2.801080e+03 -4.061580e+02
-4.002190e+02 -2.400950e+03 -4.062210e+02
-2.654560e-01 -2.401320e+03 -4.070470e+02
-4.001530e+02 -2.800000e+03 -5.729280e+00
-1.424270e-01 -2.800120e+03 -5.791550e+00
-4.000290e+02 -2.400230e+03 -7.499830e+00
-1.630890e-02 -2.400030e+03 -7.382040e+00
-1.745880e-02 -2.801080e+03 -4.061580e+02
3.999380e+02 -2.801240e+03 -4.057240e+02
-2.654560e-01 -2.401320e+03 -4.070470e+02
3.996940e+02 -2.401710e+03 -4.079110e+02
-1.424270e-01 -2.800120e+03 -5.791550e+00
3.998630e+02 -2.800120e+03 -5.919170e+00
-1.630890e-02 -2.400030e+03 -7.382040e+00
4.000010e+02 -2.399840e+03 -7.106680e+00
-4.002190e+02 -2.400950e+03 -4.062210e+02
-2.654560e-01 -2.401320e+03 -4.070470e+02
-4.000100e+02 -2.001260e+03 -4.094820e+02
-1.187350e-02 -2.001430e+03 -4.097010e+02
-4.000290e+02 -2.400230e+03 -7.499830e+00
-1.630890e-02 -2.400030e+03 -7.382040e+00
-3.999510e+02 -2.000130e+03 -8.294020e+00
4.566950e-02 -2.000140e+03 -8.359670e+00
-2.654560e-01 -2.401320e+03 -4.070470e+02
3.996940e+02 -2.401710e+03 -4.079110e+02
-1.187350e-02 -2.001430e+03 -4.097010e+02
3.999860e+02 -2.001740e+03 -4.098680e+02
-1.630890e-02 -2.400030e+03 -7.382040e+00
4.000010e+02 -2.399840e+03 -7.106680e+00
4.566950e-02 -2.000140e+03 -8.359670e+00
4.000410e+02 -2.000050e+03 -8.471240e+00
-4.000100e+02 -2.001260e+03 -4.094820e+02
-1.187350e-02 -2.001430e+03 -4.097010e+02
-3.999940e+02 -1.601940e+03 -4.117660e+02
3.517970e-03 -1.601880e+03 -4.110160e+02
-3.999510e+02 -2.000130e+03 -8.294020e+00
4.566950e-02 -2.000140e+03 -8.359670e+00
-3.999030e+02 -1.599870e+03 -1.032760e+01
4.971560e-02 -1.599830e+03 -1.067970e+01
-1.187350e-02 -2.001430e+03 -4.097010e+02
3.999860e+02 -2.001740e+03 -4.098680e+02
3.517970e-03 -1.601880e+03 -4.110160e+02
4.000070e+02 -1.601680e+03 -4.102120e+02
4.566950e-02 -2.000140e+03 -8.359670e+00
4.000410e+02 -2.000050e+03 -8.471240e+00
4.971560e-02 -1.599830e+03 -1.067970e+01
4.000000e+02 -1.599980e+03 -1.100440e+01
-3.999940e+02 -1.601940e+03 -4.117660e+02
3.517970e-03 -1.601880e+03 -4.110160e+02
-3.999170e+02 -1.201750e+03 -4.126670e+02
1.882780e-02 -1.201930e+03 -4.129140e+02
-3.999030e+02 -1.599870e+03 -1.032760e+01
4.971560e-02 -1.599830e+03 -1.067970e+01
-4.000660e+02 -1.199980e+03 -1.325740e+01
-1.081170e-02 -1.199790e+03 -1.294530e+01
3.517970e-03 -1.601880e+03 -4.110160e+02
4.000070e+02 -1.601680e+03 -4.102120e+02
1.882780e-02 -1.201930e+03 -4.129140e+02
3.999590e+02 -1.201930e+03 -4.130200e+02
4.971560e-02 -1.599830e+03 -1.067970e+01
4.000000e+02 -1.599980e+03 -1.100440e+01
-1.081170e-02 -1.199790e+03 -1.294530e+01
4.000390e+02 -1.199750e+03 -1.248540e+01
-3.999170e+02 -1.201750e+03 -4.126670e+02
1.882780e-02 -1.201930e+03 -4.129140e+02
-4.001580e+02 -8.014980e+02 -4.133550e+02
-1.625670e-01 -8.016860e+02 -4.142790e+02
-4.000660e+02 -1.199980e+03 -1.325740e+01
-1.081170e-02 -1.199790e+03 -1.294530e+01
-3.998940e+02 -8.000230e+02 -1.442030e+01
1.147150e-01 -8.000160e+02 -1.435240e+01
1.882780e-02 -1.201930e+03 -4.129140e+02
3.999590e+02 -1.201930e+03 -4.130200e+02
-1.625670e-01 -8.016860e+02 -4.142790e+02
3.998380e+02 -8.017250e+02 -4.153570e+02
-1.081170e-02 -1.199790e+03 -1.294530e+01
4.000390e+02 -1.199750e+03 -1.248540e+01
1.147150e-01 -8.000160e+02 -1.435240e+01
4.001250e+02 -8.000270e+02 -1.416900e+01
-4.001580e+02 -8.014980e+02 -4.133550e+02
-1.625670e-01 -8.016860e+02 -4.142790e+02
-4.002340e+02 -4.014460e+02 -4.144800e+02
-2.235390e-01 -4.013300e+02 -4.150740e+02
-3.998940e+02 -8.000230e+02 -1.442030e+01
1.147150e-01 -8.000160e+02 -1.435240e+01
-3.998900e+02 -4.000580e+02 -1.597310e+01
1.214090e-01 -4.000740e+02 -1.613260e+01
-1.625670e-01 -8.016860e+02 -4.142790e+02
3.998380e+02 -8.017250e+02 -4.153570e+02
-2.235390e-01 -4.013300e+02 -4.150740e+02
3.997720e+02 -4.013100e+02 -4.155520e+02
1.147150e-01 -8.000160e+02 -1.435240e+01
4.001250e+02 -8.000270e+02 -1.416900e+01
1.214090e-01 -4.000740e+02 -1.613260e+01
4.001350e+02 -4.001040e+02 -1.643730e+01
-4.002340e+02 -4.014460e+02 -4.144800e+02
-2.235390e-01 -4.013300e+02 -4.150740e+02
-4.002620e+02 -1.186370e+00 -4.170550e+02
-2.751790e-01 -1.076450e+00 -4.170940e+02
-3.998900e+02 -4.000580e+02 -1.597310e+01
1.214090e-01 -4.000740e+02 -1.613260e+01
-4.001540e+02 8.179510e-03 -1.616040e+01
-1.718130e-01 -5.635350e-02 -1.679200e+01
-2.235390e-01 -4.013300e+02 -4.150740e+02
[...]
<PointData>
<DataArray type="Float32" Name="V1" format="ascii">
0.000000e+00
0.000000e+00
1.466800e-01
2.324660e-01
0.000000e+00
0.000000e+00
6.564300e-02
6.733080e-02
0.000000e+00
0.000000e+00
2.324660e-01
3.302200e-01
0.000000e+00
0.000000e+00
6.733080e-02
6.924270e-02
1.466800e-01
2.324660e-01
-4.893530e-01
-5.279810e-01
6.564300e-02
6.733080e-02
2.634220e-01
3.194430e-01
2.324660e-01
3.302200e-01
-5.279810e-01
-5.456650e-01
6.733080e-02
6.924270e-02
3.194430e-01
3.705620e-01
-4.893530e-01
-5.279810e-01
3.262790e-02
2.486520e-02
2.634220e-01
3.194430e-01
1.643500e-01
1.781770e-01
-5.279810e-01
-5.456650e-01
2.486520e-02
5.088060e-02
3.194430e-01
3.705620e-01
1.781770e-01
1.810220e-01
3.262790e-02
2.486520e-02
2.088250e-01
2.370600e-01
1.643500e-01
1.781770e-01
-6.702730e-02
-1.102270e-01
2.486520e-02
5.088060e-02
2.370600e-01
2.695460e-01
1.781770e-01
1.810220e-01
-1.102270e-01
-1.607460e-01
2.088250e-01
2.370600e-01
-2.513690e-01
-1.391800e-01
-6.702730e-02
-1.102270e-01
9.237700e-02
1.169210e-02
2.370600e-01
2.695460e-01
-1.391800e-01
-4.961560e-02
-1.102270e-01
-1.607460e-01
1.169210e-02
-5.427520e-02
-2.513690e-01
-1.391800e-01
1.733000e-01
1.758640e-01
9.237700e-02
1.169210e-02
-8.910570e-02
-6.927060e-02
-1.391800e-01
-4.961560e-02
1.758640e-01
2.093560e-01
1.169210e-02
-5.427520e-02
-6.927060e-02
-5.760390e-02
1.733000e-01
1.758640e-01
-3.923480e-01
-2.434150e-01
-8.910570e-02
-6.927060e-02
2.187140e-01
1.850350e-01
1.758640e-01
2.093560e-01
-2.434150e-01
-1.341140e-01
-6.927060e-02
-5.760390e-02
1.850350e-01
1.617020e-01
-3.923480e-01
-2.434150e-01
4.349140e-01
3.737180e-01
2.187140e-01
1.850350e-01
-4.019510e-01
-3.592120e-01
-2.434150e-01
-1.341140e-01
3.737180e-01
3.072230e-01
1.850350e-01
1.617020e-01
-3.592120e-01
-3.438360e-01
4.349140e-01
3.737180e-01
4.561770e-01
4.312920e-01
-4.019510e-01
-3.592120e-01
5.207710e-02
1.053890e-01
3.737180e-01
3.072230e-01
4.312920e-01
4.126290e-01
-3.592120e-01
-3.438360e-01
1.053890e-01
1.591240e-01
4.561770e-01
4.312920e-01
2.855420e-01
2.509260e-01
5.207710e-02
1.053890e-01
-6.730430e-02
-9.639170e-02
4.312920e-01
4.126290e-01
2.509260e-01
2.507300e-01
1.053890e-01
1.591240e-01
-9.639170e-02
-1.181630e-01
2.855420e-01
2.509260e-01
3.078640e-01
2.776310e-01
-6.730430e-02
-9.639170e-02
-2.152020e-01
-1.434280e-01
2.509260e-01
2.507300e-01
2.776310e-01
2.309920e-01
-9.639170e-02
-1.181630e-01
-1.434280e-01
-7.908020e-02
3.078640e-01
2.776310e-01
7.400800e-02
1.192480e-01
-2.152020e-01
-1.434280e-01
1.279020e-01
6.226300e-02
2.776310e-01
2.309920e-01
1.192480e-01
1.480560e-01
-1.434280e-01
-7.908020e-02
6.226300e-02
2.072680e-02
7.400800e-02
1.192480e-01
-2.577860e-01
-2.485760e-01
1.279020e-01
6.226300e-02
-4.195190e-02
-3.748400e-02
1.192480e-01
1.480560e-01
-2.485760e-01
-2.121300e-01
6.226300e-02
2.072680e-02
-3.748400e-02
-5.182370e-02
-2.577860e-01
-2.485760e-01
1.321070e-01
1.318110e-01
-4.195190e-02
-3.748400e-02
-1.605320e-01
-2.482220e-01
-2.485760e-01
-2.121300e-01
1.318110e-01
1.307380e-01
-3.748400e-02
-5.182370e-02
-2.482220e-01
-3.136150e-01
1.321070e-01
1.318110e-01
5.178740e-01
3.445450e-01
-1.605320e-01
-2.482220e-01
-5.619900e-01
-4.708600e-01
1.318110e-01
1.307380e-01
3.445450e-01
1.559700e-01
-2.482220e-01
-3.136150e-01
-4.708600e-01
-3.940940e-01
5.178740e-01
3.445450e-01
-2.231690e-01
-2.471920e-01
-5.619900e-01
-4.708600e-01
4.691030e-02
1.163050e-02
3.445450e-01
1.559700e-01
-2.471920e-01
-2.503510e-01
-4.708600e-01
-3.940940e-01
1.163050e-02
-2.164190e-02
-2.231690e-01
-2.471920e-01
9.418510e-02
7.428770e-03
4.691030e-02
1.163050e-02
-1.152280e-01
-4.566360e-02
-2.471920e-01
-2.503510e-01
7.428770e-03
-7.337560e-02
1.163050e-02
-2.164190e-02
-4.566360e-02
1.232030e-02
9.418510e-02
7.428770e-03
3.348690e-01
4.009740e-01
-1.152280e-01
-4.566360e-02
-4.149680e-02
-1.207660e-01
7.428770e-03
-7.337560e-02
4.009740e-01
4.320970e-01
-4.566360e-02
1.232030e-02
-1.207660e-01
-1.862610e-01
3.348690e-01
4.009740e-01
-4.785900e-01
-3.555090e-01
-4.149680e-02
-1.207660e-01
7.969470e-02
1.317030e-02
4.009740e-01
4.320970e-01
-3.555090e-01
-2.104930e-01
-1.207660e-01
-1.862610e-01
1.317030e-02
-4.118780e-02
-4.785900e-01
-3.555090e-01
1.133040e-01
9.645750e-02
7.969470e-02
1.317030e-02
1.516370e-01
1.531100e-01
-3.555090e-01
-2.104930e-01
9.645750e-02
9.312640e-02
1.317030e-02
-4.118780e-02
1.531100e-01
1.577670e-01
1.133040e-01
9.645750e-02
7.819420e-01
7.024400e-01
1.516370e-01
1.531100e-01
-6.052210e-01
-6.211120e-01
9.645750e-02
9.312640e-02
7.024400e-01
6.072530e-01
1.531100e-01
1.577670e-01
-6.211120e-01
-6.396710e-01
7.819420e-01
7.024400e-01
-4.198800e-01
-3.612650e-01
-6.052210e-01
-6.211120e-01
3.913640e-01
3.281090e-01
7.024400e-01
6.072530e-01
-3.612650e-01
-2.756310e-01
-6.211120e-01
-6.396710e-01
3.281090e-01
2.627040e-01
-4.198800e-01
-3.612650e-01
4.628420e-01
5.399900e-01
3.913640e-01
3.281090e-01
-6.765190e-02
-1.735370e-01
-3.612650e-01
-2.756310e-01
5.399900e-01
6.300330e-01
3.281090e-01
2.627040e-01
-1.735370e-01
-2.839270e-01
4.628420e-01
5.399900e-01
-3.400740e-01
-3.675050e-01
-6.765190e-02
-1.735370e-01
2.422580e-01
3.086740e-01
5.399900e-01
6.300330e-01
-3.675050e-01
-3.964670e-01
-1.735370e-01
-2.839270e-01
3.086740e-01
3.702650e-01
-3.400740e-01
-3.675050e-01
1.879480e-01
1.585780e-01
2.422580e-01
3.086740e-01
-2.714290e-01
-2.954020e-01
-3.675050e-01
-3.964670e-01
1.585780e-01
1.082960e-01
3.086740e-01
3.702650e-01
-2.954020e-01
-3.149460e-01
1.879480e-01
1.585780e-01
-4.005680e-01
-2.807900e-01
-2.714290e-01
-2.954020e-01
2.813180e-01
2.465240e-01
1.585780e-01
1.082960e-01
-2.807900e-01
-1.612280e-01
-2.954020e-01
-3.149460e-01
2.465240e-01
1.853050e-01
-4.005680e-01
-2.807900e-01
-1.763790e-01
-1.362460e-01
2.813180e-01
2.465240e-01
5.401550e-03
-4.220310e-02
-2.807900e-01
-1.612280e-01
-1.362460e-01
-1.228790e-01
2.465240e-01
1.853050e-01
-4.220310e-02
-8.547820e-02
-1.763790e-01
-1.362460e-01
-5.391370e-01
-5.951270e-01
5.401550e-03
-4.220310e-02
4.019660e-01
4.059840e-01
-1.362460e-01
-1.228790e-01
-5.951270e-01
-6.580500e-01
-4.220310e-02
-8.547820e-02
4.059840e-01
4.031240e-01
-5.391370e-01
-5.951270e-01
8.536160e-02
1.260620e-01
4.019660e-01
4.059840e-01
6.183970e-02
3.173660e-02
-5.951270e-01
-6.580500e-01
1.260620e-01
2.102870e-01
4.059840e-01
4.031240e-01
3.173660e-02
-9.121020e-03
8.536160e-02
1.260620e-01
-2.610500e-01
-3.899860e-01
6.183970e-02
3.173660e-02
9.135490e-02
2.722530e-01
1.260620e-01
2.102870e-01
-3.899860e-01
-4.796930e-01
3.173660e-02
-9.121020e-03
2.722530e-01
4.439190e-01
0.000000e+00
0.000000e+00
6.564300e-02
6.733080e-02
0.000000e+00
0.000000e+00
-2.102620e-01
-3.228290e-01
0.000000e+00
0.000000e+00
6.733080e-02
6.924270e-02
0.000000e+00
0.000000e+00
-3.228290e-01
-4.244050e-01
6.564300e-02
6.733080e-02
2.634220e-01
3.194430e-01
-2.102620e-01
-3.228290e-01
-1.434560e-01
-1.950870e-01
6.733080e-02
6.924270e-02
3.194430e-01
3.705620e-01
-3.228290e-01
-4.244050e-01
-1.950870e-01
-2.739260e-01
2.634220e-01
3.194430e-01
1.643500e-01
1.781770e-01
-1.434560e-01
-1.950870e-01
-2.451460e-01
-2.930550e-01
3.194430e-01
3.705620e-01
1.781770e-01
1.810220e-01
-1.950870e-01
-2.739260e-01
-2.930550e-01
-3.520510e-01
1.643500e-01
1.781770e-01
-6.702730e-02
-1.102270e-01
-2.451460e-01
-2.930550e-01
-7.899160e-02
-1.802960e-02
1.781770e-01
1.810220e-01
-1.102270e-01
-1.607460e-01
-2.930550e-01
-3.520510e-01
-1.802960e-02
7.246230e-02
-6.702730e-02
-1.102270e-01
9.237700e-02
1.169210e-02
-7.899160e-02
-1.802960e-02
4.940680e-02
1.147790e-01
-1.102270e-01
-1.607460e-01
1.169210e-02
-5.427520e-02
-1.802960e-02
7.246230e-02
1.147790e-01
1.561000e-01
9.237700e-02
1.169210e-02
-8.910570e-02
-6.927060e-02
4.940680e-02
1.147790e-01
-3.058140e-02
-2.776770e-02
1.169210e-02
-5.427520e-02
-6.927060e-02
-5.760390e-02
1.147790e-01
1.561000e-01
-2.776770e-02
-1.989760e-02
-8.910570e-02
-6.927060e-02
2.187140e-01
1.850350e-01
-3.058140e-02
-2.776770e-02
-1.253900e-01
-1.703390e-01
-6.927060e-02
-5.760390e-02
1.850350e-01
1.617020e-01
-2.776770e-02
-1.989760e-02
-1.703390e-01
-1.974730e-01
2.187140e-01
1.850350e-01
-4.019510e-01
-3.592120e-01
-1.253900e-01
-1.703390e-01
4.177230e-01
3.757930e-01
1.850350e-01
1.617020e-01
-3.592120e-01
-3.438360e-01
-1.703390e-01
-1.974730e-01
3.757930e-01
3.994850e-01
-4.019510e-01
-3.592120e-01
5.207710e-02
1.053890e-01
4.177230e-01
3.757930e-01
-5.385390e-01
-6.212860e-01
-3.592120e-01
-3.438360e-01
1.053890e-01
1.591240e-01
3.757930e-01
3.994850e-01
-6.212860e-01
-7.300870e-01
5.207710e-02
1.053890e-01
-6.730430e-02
-9.639170e-02
-5.385390e-01
-6.212860e-01
-2.257530e-01
-1.110590e-01
1.053890e-01
1.591240e-01
-9.639170e-02
-1.181630e-01
-6.212860e-01
-7.300870e-01
-1.110590e-01
-1.090710e-02
-6.730430e-02
-9.639170e-02
-2.152020e-01
-1.434280e-01
-2.257530e-01
-1.110590e-01
1.319600e-01
3.637740e-02
-9.639170e-02
-1.181630e-01
-1.434280e-01
-7.908020e-02
-1.110590e-01
-1.090710e-02
3.637740e-02
-4.229940e-02
-2.152020e-01
-1.434280e-01
1.279020e-01
6.226300e-02
1.319600e-01
3.637740e-02
-3.336600e-01
-2.469870e-01
-1.434280e-01
-7.908020e-02
6.226300e-02
2.072680e-02
3.637740e-02
-4.229940e-02
-2.469870e-01
-1.687770e-01
1.279020e-01
6.226300e-02
-4.195190e-02
-3.748400e-02
-3.336600e-01
-2.469870e-01
2.836370e-01
3.176360e-01
6.226300e-02
2.072680e-02
-3.748400e-02
-5.182370e-02
-2.469870e-01
-1.687770e-01
3.176360e-01
2.988380e-01
-4.195190e-02
-3.748400e-02
-1.605320e-01
-2.482220e-01
2.836370e-01
3.176360e-01
2.358130e-01
3.803920e-01
-3.748400e-02
-5.182370e-02
-2.482220e-01
-3.136150e-01
3.176360e-01
2.988380e-01
3.803920e-01
5.483420e-01
-1.605320e-01
-2.482220e-01
-5.619900e-01
-4.708600e-01
2.358130e-01
3.803920e-01
6.272010e-01
6.049260e-01
-2.482220e-01
-3.136150e-01
-4.708600e-01
-3.940940e-01
3.803920e-01
5.483420e-01
6.049260e-01
5.923060e-01
-5.619900e-01
-4.708600e-01
4.691030e-02
1.163050e-02
6.272010e-01
6.049260e-01
9.190450e-02
1.897810e-01
-4.708600e-01
-3.940940e-01
1.163050e-02
-2.164190e-02
6.049260e-01
5.923060e-01
1.897810e-01
2.663140e-01
4.691030e-02
1.163050e-02
-1.152280e-01
-4.566360e-02
9.190450e-02
1.897810e-01
1.460590e-01
9.368450e-02
1.163050e-02
-2.164190e-02
-4.566360e-02
1.232030e-02
1.897810e-01
2.663140e-01
9.368450e-02
5.212160e-02
-1.152280e-01
-4.566360e-02
-4.149680e-02
-1.207660e-01
1.460590e-01
9.368450e-02
-2.531260e-01
-1.446130e-01
-4.566360e-02
1.232030e-02
-1.207660e-01
-1.862610e-01
9.368450e-02
5.212160e-02
-1.446130e-01
-3.355830e-02
-4.149680e-02
-1.207660e-01
7.969470e-02
1.317030e-02
-2.531260e-01
-1.446130e-01
3.409140e-01
3.289480e-01
-1.207660e-01
-1.862610e-01
1.317030e-02
-4.118780e-02
-1.446130e-01
-3.355830e-02
3.289480e-01
3.201690e-01
7.969470e-02
1.317030e-02
1.516370e-01
1.531100e-01
3.409140e-01
3.289480e-01
-4.079030e-01
-3.864760e-01
1.317030e-02
-4.118780e-02
1.531100e-01
1.577670e-01
3.289480e-01
3.201690e-01
-3.864760e-01
-3.850870e-01
1.516370e-01
1.531100e-01
-6.052210e-01
-6.211120e-01
-4.079030e-01
-3.864760e-01
4.438120e-01
5.058740e-01
1.531100e-01
1.577670e-01
-6.211120e-01
-6.396710e-01
-3.864760e-01
-3.850870e-01
5.058740e-01
5.772370e-01
-6.052210e-01
-6.211120e-01
3.913640e-01
3.281090e-01
4.438120e-01
5.058740e-01
-3.932500e-01
-2.774800e-01
-6.211120e-01
-6.396710e-01
3.281090e-01
2.627040e-01
5.058740e-01
5.772370e-01
-2.774800e-01
-1.972750e-01
3.913640e-01
3.281090e-01
-6.765190e-02
-1.735370e-01
-3.932500e-01
-2.774800e-01
-3.525670e-01
-2.305480e-01
3.281090e-01
2.627040e-01
-1.735370e-01
-2.839270e-01
-2.774800e-01
-1.972750e-01
-2.305480e-01
-9.483550e-02
-6.765190e-02
-1.735370e-01
2.422580e-01
3.086740e-01
-3.525670e-01
-2.305480e-01
-8.597040e-02
-1.776040e-01
-1.735370e-01
-2.839270e-01
3.086740e-01
3.702650e-01
-2.305480e-01
-9.483550e-02
-1.776040e-01
-2.896390e-01
2.422580e-01
3.086740e-01
-2.714290e-01
-2.954020e-01
-8.597040e-02
-1.776040e-01
3.912400e-01
3.978270e-01
3.086740e-01
3.702650e-01
-2.954020e-01
-3.149460e-01
-1.776040e-01
-2.896390e-01
3.978270e-01
4.574410e-01
-2.714290e-01
-2.954020e-01
2.813180e-01
2.465240e-01
3.912400e-01
3.978270e-01
-2.362580e-01
-2.352880e-01
-2.954020e-01
-3.149460e-01
2.465240e-01
1.853050e-01
3.978270e-01
4.574410e-01
-2.352880e-01
-2.147800e-01
2.813180e-01
2.465240e-01
5.401550e-03
-4.220310e-02
-2.362580e-01
-2.352880e-01
1.713050e-01
2.134880e-01
2.465240e-01
1.853050e-01
-4.220310e-02
-8.547820e-02
-2.352880e-01
-2.147800e-01
2.134880e-01
2.541640e-01
5.401550e-03
-4.220310e-02
4.019660e-01
4.059840e-01
1.713050e-01
2.134880e-01
-1.824870e-01
-1.704960e-01
-4.220310e-02
-8.547820e-02
4.059840e-01
4.031240e-01
2.134880e-01
2.541640e-01
-1.704960e-01
-1.180390e-01
4.019660e-01
4.059840e-01
6.183970e-02
3.173660e-02
-1.824870e-01
-1.704960e-01
-2.608100e-01
-2.519560e-01
4.059840e-01
4.031240e-01
3.173660e-02
-9.121020e-03
-1.704960e-01
-1.180390e-01
-2.519560e-01
-2.565820e-01
6.183970e-02
3.173660e-02
9.135490e-02
2.722530e-01
-2.608100e-01
-2.519560e-01
9.224690e-02
-8.681910e-02
3.173660e-02
-9.121020e-03
2.722530e-01
4.439190e-01
-2.519560e-01
-2.565820e-01
-8.681910e-02
-2.971120e-01
</DataArray>
<DataArray type="Float32" Name="V2" format="ascii">
0.000000e+00
0.000000e+00
-5.484820e-01
-7.960090e-01
0.000000e+00
0.000000e+00
5.149260e-01
5.044080e-01
0.000000e+00
0.000000e+00
-7.960090e-01
-1.230710e+00
0.000000e+00
0.000000e+00
5.044080e-01
8.080200e-01
-5.484820e-01
-7.960090e-01
-2.338700e-01
2.657250e-01
5.149260e-01
5.044080e-01
1.477440e-01
-2.942060e-01
-7.960090e-01
-1.230710e+00
2.657250e-01
5.858190e-01
5.044080e-01
8.080200e-01
-2.942060e-01
-7.701850e-01
-2.338700e-01
2.657250e-01
2.442270e-01
1.224400e-01
1.477440e-01
-2.942060e-01
-1.240430e-01
-1.457200e-01
2.657250e-01
5.858190e-01
1.224400e-01
-1.419550e-01
-2.942060e-01
-7.701850e-01
-1.457200e-01
-1.446130e-01
2.442270e-01
1.224400e-01
-3.296650e-01
1.609090e-01
-1.240430e-01
-1.457200e-01
1.370630e-02
-1.715000e-01
1.224400e-01
-1.419550e-01
1.609090e-01
5.487360e-01
-1.457200e-01
-1.446130e-01
-1.715000e-01
-4.670320e-01
-3.296650e-01
1.609090e-01
-1.194540e-01
-4.483430e-01
1.370630e-02
-1.715000e-01
4.441620e-02
2.643020e-01
1.609090e-01
5.487360e-01
-4.483430e-01
-4.780590e-01
-1.715000e-01
-4.670320e-01
2.643020e-01
3.268160e-01
-1.194540e-01
-4.483430e-01
-1.753520e-01
3.679130e-01
4.441620e-02
2.643020e-01
2.139790e-01
-1.332110e-01
-4.483430e-01
-4.780590e-01
3.679130e-01
5.500670e-01
2.643020e-01
3.268160e-01
-1.332110e-01
-4.021590e-01
-1.753520e-01
3.679130e-01
-3.580930e-02
-3.995720e-02
2.139790e-01
-1.332110e-01
3.299210e-02
1.764180e-01
3.679130e-01
5.500670e-01
-3.995720e-02
-2.470260e-01
-1.332110e-01
-4.021590e-01
1.764180e-01
3.441100e-01
-3.580930e-02
-3.995720e-02
-7.311810e-01
-4.673080e-02
3.299210e-02
1.764180e-01
4.217590e-01
1.257160e-02
-3.995720e-02
-2.470260e-01
-4.673080e-02
7.580340e-01
1.764180e-01
3.441100e-01
1.257160e-02
-4.904080e-01
-7.311810e-01
-4.673080e-02
-3.729040e-01
4.126180e-01
4.217590e-01
1.257160e-02
3.472080e-01
-2.627930e-01
-4.673080e-02
7.580340e-01
4.126180e-01
6.632880e-01
1.257160e-02
-4.904080e-01
-2.627930e-01
-4.466750e-01
-3.729040e-01
4.126180e-01
6.218990e-01
-1.776340e-01
3.472080e-01
-2.627930e-01
-2.976930e-01
2.095260e-01
4.126180e-01
6.632880e-01
-1.776340e-01
-6.185760e-01
-2.627930e-01
-4.466750e-01
2.095260e-01
4.775650e-01
6.218990e-01
-1.776340e-01
1.701350e-01
3.984590e-01
-2.976930e-01
2.095260e-01
-9.209390e-02
-2.012560e-01
-1.776340e-01
-6.185760e-01
3.984590e-01
5.427990e-01
2.095260e-01
4.775650e-01
-2.012560e-01
-3.404000e-01
1.701350e-01
3.984590e-01
-3.545780e-01
-2.387450e-01
-9.209390e-02
-2.012560e-01
4.024330e-02
1.046990e-01
3.984590e-01
5.427990e-01
-2.387450e-01
-4.922900e-01
-2.012560e-01
-3.404000e-01
1.046990e-01
4.790130e-01
-3.545780e-01
-2.387450e-01
-3.559410e-01
-6.937070e-01
4.024330e-02
1.046990e-01
4.777570e-02
3.953130e-01
-2.387450e-01
-4.922900e-01
-6.937070e-01
-8.067000e-01
1.046990e-01
4.790130e-01
3.953130e-01
6.070400e-01
-3.559410e-01
-6.937070e-01
-6.235090e-02
2.649350e-01
4.777570e-02
3.953130e-01
-3.518330e-01
-3.335720e-01
-6.937070e-01
-8.067000e-01
2.649350e-01
6.091800e-01
3.953130e-01
6.070400e-01
-3.335720e-01
-2.554650e-01
-6.235090e-02
2.649350e-01
2.004050e-01
1.397780e-01
-3.518330e-01
-3.335720e-01
-1.275040e-01
4.301970e-02
2.649350e-01
6.091800e-01
1.397780e-01
-4.931710e-01
-3.335720e-01
-2.554650e-01
4.301970e-02
4.144530e-01
2.004050e-01
1.397780e-01
1.195470e-01
-1.879260e-01
-1.275040e-01
4.301970e-02
-6.797860e-02
-3.212560e-02
1.397780e-01
-4.931710e-01
-1.879260e-01
-9.080270e-02
4.301970e-02
4.144530e-01
-3.212560e-02
-2.658260e-01
1.195470e-01
-1.879260e-01
4.713080e-02
1.273490e-01
-6.797860e-02
-3.212560e-02
-2.677970e-01
-1.402510e-01
-1.879260e-01
-9.080270e-02
1.273490e-01
8.431730e-01
-3.212560e-02
-2.658260e-01
-1.402510e-01
-5.289710e-01
4.713080e-02
1.273490e-01
-5.389580e-02
-1.424000e-01
-2.677970e-01
-1.402510e-01
-1.309740e-01
1.591880e-01
1.273490e-01
8.431730e-01
-1.424000e-01
-1.350090e-01
-1.402510e-01
-5.289710e-01
1.591880e-01
3.969840e-01
-5.389580e-02
-1.424000e-01
-1.147820e-01
1.497760e-01
-1.309740e-01
1.591880e-01
2.098400e-02
-2.769530e-01
-1.424000e-01
-1.350090e-01
1.497760e-01
-9.313630e-03
1.591880e-01
3.969840e-01
-2.769530e-01
-2.309120e-01
-1.147820e-01
1.497760e-01
-8.233170e-02
-2.996460e-01
2.098400e-02
-2.769530e-01
1.415160e-01
1.740660e-01
1.497760e-01
-9.313630e-03
-2.996460e-01
-5.810600e-01
-2.769530e-01
-2.309120e-01
1.740660e-01
2.178950e-01
-8.233170e-02
-2.996460e-01
1.534400e-01
-2.038350e-01
1.415160e-01
1.740660e-01
4.349360e-01
1.641240e-01
-2.996460e-01
-5.810600e-01
-2.038350e-01
-3.456120e-01
1.740660e-01
2.178950e-01
1.641240e-01
-2.300070e-01
1.534400e-01
-2.038350e-01
2.813780e-01
5.127860e-01
4.349360e-01
1.641240e-01
1.355530e-01
-2.724400e-01
-2.038350e-01
-3.456120e-01
5.127860e-01
2.028930e-01
1.641240e-01
-2.300070e-01
-2.724400e-01
-3.584840e-01
2.813780e-01
5.127860e-01
6.452350e-01
9.269890e-02
1.355530e-01
-2.724400e-01
-7.735380e-01
-9.571890e-03
5.127860e-01
2.028930e-01
9.269890e-02
-4.810300e-02
-2.724400e-01
-3.584840e-01
-9.571890e-03
3.136710e-01
6.452350e-01
9.269890e-02
-3.734370e-01
-2.833980e-02
-7.735380e-01
-9.571890e-03
2.261940e-01
2.478530e-01
9.269890e-02
-4.810300e-02
-2.833980e-02
4.074790e-01
-9.571890e-03
3.136710e-01
2.478530e-01
4.764400e-02
-3.734370e-01
-2.833980e-02
-7.354630e-01
2.423080e-01
2.261940e-01
2.478530e-01
7.693820e-01
-1.727660e-01
-2.833980e-02
4.074790e-01
2.423080e-01
5.551440e-01
2.478530e-01
4.764400e-02
-1.727660e-01
-4.588710e-01
-7.354630e-01
2.423080e-01
-4.418420e-01
-3.275080e-01
7.693820e-01
-1.727660e-01
1.401410e-01
2.267730e-01
2.423080e-01
5.551440e-01
-3.275080e-01
-5.518020e-02
-1.727660e-01
-4.588710e-01
2.267730e-01
1.730600e-01
-4.418420e-01
-3.275080e-01
-4.366310e-01
-3.577200e-01
1.401410e-01
2.267730e-01
2.683900e-01
4.007770e-01
-3.275080e-01
-5.518020e-02
-3.577200e-01
-6.007310e-01
2.267730e-01
1.730600e-01
4.007770e-01
5.388750e-01
-4.366310e-01
-3.577200e-01
2.664190e-01
4.463990e-01
2.683900e-01
4.007770e-01
-8.985560e-02
-3.761710e-01
-3.577200e-01
-6.007310e-01
4.463990e-01
5.467920e-01
4.007770e-01
5.388750e-01
-3.761710e-01
-4.956340e-01
2.664190e-01
4.463990e-01
5.285610e-01
5.620720e-01
-8.985560e-02
-3.761710e-01
-3.155800e-01
-3.717880e-01
4.463990e-01
5.467920e-01
5.620720e-01
4.915950e-01
-3.761710e-01
-4.956340e-01
-3.717880e-01
-2.896960e-01
5.285610e-01
5.620720e-01
-9.276680e-01
-2.001080e-01
-3.155800e-01
-3.717880e-01
7.903100e-01
4.941240e-01
5.620720e-01
4.915950e-01
-2.001080e-01
-2.897170e-01
-3.717880e-01
-2.896960e-01
4.941240e-01
4.121060e-01
0.000000e+00
0.000000e+00
5.149260e-01
5.044080e-01
0.000000e+00
0.000000e+00
-2.494760e-01
-2.395530e-01
0.000000e+00
0.000000e+00
5.044080e-01
8.080200e-01
0.000000e+00
0.000000e+00
-2.395530e-01
-4.177880e-01
5.149260e-01
5.044080e-01
1.477440e-01
-2.942060e-01
-2.494760e-01
-2.395530e-01
-2.912110e-01
3.118910e-01
5.044080e-01
8.080200e-01
-2.942060e-01
-7.701850e-01
-2.395530e-01
-4.177880e-01
3.118910e-01
1.089610e+00
1.477440e-01