MercuryDPM 0.14 name SingleSphere revision 5040 repository https://svn.mercurydpm.org/SourceCode/Branches/SCouplingTest
dataFile    fileType ONE_FILE saveCount 549 counter 1003 lastSavedTimeStep 549869
fStatFile   fileType ONE_FILE saveCount 549 counter 1003 lastSavedTimeStep 549869
eneFile     fileType ONE_FILE saveCount 549 counter 1003 lastSavedTimeStep 549869
restartFile fileType ONE_FILE saveCount 549 counter 1003 lastSavedTimeStep 549869
statFile    fileType ONE_FILE saveCount 549 counter 0
interactionFile fileType NO_FILE saveCount 0 counter 0
xMin -500 xMax 500 yMin -5000 yMax 5000 zMin -500 zMax 5000
timeStep 0.090930880724823 time 50000.0724529279 ntimeSteps 549869 timeMax 50000
systemDimensions 3 particleDimensions 3 gravity 0 0 -0.00981 writeVTK 1 MULTIPLE_FILES NO_FILE 1003 1003 0 random  0 1103515245 12345 1073741824 607 273 784607267
Species 1
LinearViscoelasticSpecies id 0 density 20000 stiffness 20000000000 dissipation 185190105.022123
Walls 992
TriangleWall id 0 indSpecies 0 position -199.94734539456 -5933.58379191588 -399.988698040836 orientation 1 0 0 0 velocity 0 0 0 angularVelocity 0 0 0 force 0 0 0 torque 0 0 0 vertexInLabFrame  0.10530921088008 132.832416168239 0.0226039183278317 -200.05265460544 -66.4162080841197 -0.0113019591639727 199.94734539456 -66.4162080841197 -0.0113019591639727
TriangleWall id 1 indSpecies 0 position -66.5489745141981 -5800.58239258003 -399.772594896223 orientation 1 0 0 0 velocity 0 0 0 angularVelocity 0 0 0 force 0 0 0 torque 0 0 0 vertexInLabFrame  -133.293061669482 -0.16898316760944 -0.193499226285326 66.5489745141981 -199.417607419968 -0.22740510377713 66.7440871552837 199.586590587575 0.420904330062513
TriangleWall id 2 indSpecies 0 position -199.7367269728 -5667.9189595794 -399.94349020418 orientation 1 0 0 0 velocity 0 0 0 angularVelocity 0 0 0 force 0 0 0 torque 0 0 0 vertexInLabFrame  -0.10530921088008 -132.832416168239 -0.0226039183278886 199.931839613885 66.9231575869453 0.59179963801995 -199.826530403005 65.9092585812941 -0.569195719692061
TriangleWall id 3 indSpecies 0 position -333.135097853162 -5800.92035891525 -400.159593348794 orientation 1 0 0 0 velocity 0 0 0 angularVelocity 0 0 0 force 0 0 0 torque 0 0 0 vertexInLabFrame  133.293061669482 0.16898316760853 0.193499226285326 -66.4281595226435 198.910657917142 -0.353092575078847 -66.8649021468383 -199.07964108475 0.159593348793521
TriangleWall id 4 indSpecies 0 position 200.002070033738 -5933.4871484415 -399.829278200021 orientation 1 0 0 0 velocity 0 0 0 angularVelocity 0 0 0 force 0 0 0 torque 0 0 0 vertexInLabFrame  0.00414006747541862 133.025703117001 0.341443599957188 -200.002070033738 -66.5128515584993 -0.170721799978594 199.997929966262 -66.5128515584993 -0.170721799978594
TriangleWall id 5 indSpecies 0 position 333.278645954993 -5800.43714154335 -399.36249414472 orientation 1 0 0 0 velocity 0 0 0 angularVelocity 0 0 0 force 0 0 0 torque 0 0 0 vertexInLabFrame  -133.27243585378 -0.0243037811533213 -0.12534045534403 66.7213540450066 -199.562858456654 -0.637505855279812 66.5510818087735 199.587162237806 0.762846310623786
TriangleWall id 6 indSpecies 0 position 200.010350168689 -5667.4357422075 -399.146391000107 orientation 1 0 0 0 velocity 0 0 0 angularVelocity 0 0 0 force 0 0 0 torque 0 0 0 vertexInLabFrame  -0.00414006747541862 -133.025703117001 -0.341443599957188 199.819377595078 66.5857629019583 0.546743166010629 -199.815237527603 66.4399402150411 -0.205299566053327
TriangleWall id 7 indSpecies 0 position 66.7337742474329 -5800.48574910565 -399.613175055408 orientation 1 0 0 0 velocity 0 0 0 angularVelocity 0 0 0 force 0 0 0 torque 0 0 0 vertexInLabFrame  133.27243585378 0.0243037811533213 0.125340455343974 -66.5386616063473 199.489947113196 0.261484489247835 -66.7337742474329 -199.514250894347 -0.386824944591808
TriangleWall id 8 indSpecies 0 position -199.801568778686 -5534.85335837289 -400.106456288851 orientation 1 0 0 0 velocity 0 0 0 angularVelocity 0 0 0 force 0 0 0 torque 0 0 0 vertexInLabFrame  -0.234992822653254 133.298786244782 -0.348536087669288 -199.761688597119 -67.156342625216 -0.406229635021361 199.996681419772 -66.1424436195648 0.754765722690649
TriangleWall id 9 indSpecies 0 position -66.6596749387107 -5401.24882011636 -400.254209333743 orientation 1 0 0 0 velocity 0 0 0 angularVelocity 0 0 0 force 0 0 0 torque 0 0 0 vertexInLabFrame  -133.376886662629 -0.305752011746335 -0.200783042777687 66.8547875797963 -199.746981876093 0.902518767582251 66.5220990828327 200.052733887841 -0.70173572480445
TriangleWall id 10 indSpecies 0 position -200.271554423993 -5268.25578588333 -400.80352846419 orientation 1 0 0 0 velocity 0 0 0 angularVelocity 0 0 0 force 0 0 0 torque 0 0 0 vertexInLabFrame  0.234992822653197 -133.298786244781 0.348536087669345 200.133978568115 67.0596996548065 -0.152416594357419 -200.368971390768 66.2390865899742 -0.196119493311812
TriangleWall id 11 indSpecies 0 position -333.413448263969 -5401.86032413986 -400.655775419298 orientation 1 0 0 0 velocity 0 0 0 angularVelocity 0 0 0 force 0 0 0 torque 0 0 0 vertexInLabFrame  133.376886662629 0.305752011748154 0.200783042777687 -67.2270775507923 199.843624846503 -0.34387253820347 -66.1498091118366 -200.14937685825 0.143089495425613
TriangleWall id 12 indSpecies 0 position 200.025064295705 -5534.29182721671 -399.37037468049 orientation 1 0 0 0 velocity 0 0 0 angularVelocity 0 0 0 force 0 0 0 torque 0 0 0 vertexInLabFrame  0.0252881865583561 133.262126864569 -0.789410960722364 -199.82995165462 -66.7039747757426 0.0186841143292895 199.804663468061 -66.5581520888254 0.770726846393245
TriangleWall id 13 indSpecies 0 position 333.398075208704 -5400.98553784658 -400.163764193784 orientation 1 0 0 0 velocity 0 0 0 angularVelocity 0 0 0 force 0 0 0 torque 0 0 0 vertexInLabFrame  -133.34772272644 -0.044162505562781 0.00397855257227775 66.4316525550631 -199.864441458957 1.56411635968789 66.9160701713769 199.908603964521 -1.56809491225999
TriangleWall id 14 indSpecies 0 position 200.075640668822 -5267.76757348758 -400.949196601934 orientation 1 0 0 0 velocity 0 0 0 angularVelocity 0 0 0 force 0 0 0 torque 0 0 0 vertexInLabFrame  -0.0252881865583845 -133.262126864569 0.789410960722478 200.238504711258 66.6906396055147 -0.782662504109794 -200.2132165247 66.5714872590534 -0.00674845661256995
TriangleWall id 15 indSpecies 0 position 66.7026297558238 -5401.07386285771 -400.15580708864 orientation 1 0 0 0 velocity 0 0 0 angularVelocity 0 0 0 force 0 0 0 torque 0 0 0 vertexInLabFrame  133.34772272644 0.044162505562781 -0.00397855257216406 -66.8402056117018 199.877776629185 -0.800137969907212 -66.5075171147382 -199.921939134749 0.80411652247949
TriangleWall id 16 indSpecies 0 position -200.307863976342 -5134.89535324551 -401.20478396854 orientation 1 0 0 0 velocity 0 0 0 angularVelocity 0 0 0 force 0 0 0 torque 0 0 0 vertexInLabFrame  0.162373717954949 133.422079030865 -0.453974921030976 -200.332661838419 -67.1213460478484 0.205136011038235 200.170288120464 -66.3007329830161 0.248838909992628
TriangleWall id 17 indSpecies 0 position -66.8240376279194 -5001.24386875539 -401.675422986856 orientation 1 0 0 0 velocity 0 0 0 angularVelocity 0 0 0 force 0 0 0 torque 0 0 0 vertexInLabFrame  -133.321452630468 -0.229405459252121 0.0166640972852861 66.6864617720414 -199.952217473133 0.719477928308891 66.6349908584262 200.181622932386 -0.736142025594233
TriangleWall id 18 indSpecies 0 position -199.983116540432 -4868.05119518378 -402.112733810602 orientation 1 0 0 0 velocity 0 0 0 angularVelocity 0 0 0 force 0 0 0 torque 0 0 0 vertexInLabFrame  -0.162373717954921 -133.422079030865 0.45397492103092 199.794069770939 66.9889493607725 -0.2988312018486 -199.631696052984 66.4331296700939 -0.15514371918232
TriangleWall id 19 indSpecies 0 position -333.466942888855 -5001.70267967389 -401.642094792285 orientation 1 0 0 0 velocity 0 0 0 angularVelocity 0 0 0 force 0 0 0 torque 0 0 0 vertexInLabFrame  133.321452630468 0.229405459251211 -0.0166640972852861 -66.1478697045615 200.084614160211 -0.625782737498525 -67.1735829259063 -200.314019619462 0.642446834783925
TriangleWall id 20 indSpecies 0 position 200.009488446599 -5134.48299691272 -401.525683991223 orientation 1 0 0 0 velocity 0 0 0 angularVelocity 0 0 0 force 0 0 0 torque 0 0 0 vertexInLabFrame  -0.157592631005116 133.307026285146 -0.363563817854754 -200.147064302477 -66.7130893158037 0.569738932676046 200.304656933482 -66.5939369693424 -0.206175114821178
TriangleWall id 21 indSpecies 0 position 333.195367234446 -5001.20717369545 -402.026242991464 orientation 1 0 0 0 velocity 0 0 0 angularVelocity 0 0 0 force 0 0 0 torque 0 0 0 vertexInLabFrame  -133.343471418853 0.0312030678733208 0.136995182386158 67.1187781456342 -199.869760186615 0.294383885419734 66.2246932732187 199.838557118742 -0.431379067806006
TriangleWall id 22 indSpecies 0 position 199.694303184589 -4867.86894434243 -402.252811626933 orientation 1 0 0 0 velocity 0 0 0 angularVelocity 0 0 0 force 0 0 0 torque 0 0 0 vertexInLabFrame  0.157592631005144 -133.307026285146 0.363563817854867 199.725757323077 66.5003277657224 -0.204810432337297 -199.883349954082 66.8066985194228 -0.158753385517457
TriangleWall id 23 indSpecies 0 position 66.5084243967408 -5001.1447675597 -401.752252626692 orientation 1 0 0 0 velocity 0 0 0 angularVelocity 0 0 0 force 0 0 0 torque 0 0 0 vertexInLabFrame  133.343471418853 -0.0312030678733208 -0.136995182386158 -66.697471166234 200.082521736696 -0.659312385758483 -66.6460002526188 -200.051318668823 0.796307568144641
TriangleWall id 24 indSpecies 0 position -199.927353990896 -4734.67745703375 -402.739290733485 orientation 1 0 0 0 velocity 0 0 0 angularVelocity 0 0 0 force 0 0 0 torque 0 0 0 vertexInLabFrame  -0.0508486188832364 133.325397269178 -0.799138924735871 -199.68745860252 -66.9406084799284 0.471413203701047 199.738307221403 -66.3847887892498 0.327725721034767
TriangleWall id 25 indSpecies 0 position -66.7289067180186 -4601.25172121128 -403.488458229171 orientation 1 0 0 0 velocity 0 0 0 angularVelocity 0 0 0 force 0 0 0 torque 0 0 0 vertexInLabFrame  -133.249295891761 -0.100338553300389 -0.0499714290501743 66.5398599485254 -199.810524611728 1.07689321672046 66.7094359432355 199.910863165029 -1.02692178767023
TriangleWall id 26 indSpecies 0 position -200.029051228663 -4468.0266624954 -404.337568582957 orientation 1 0 0 0 velocity 0 0 0 angularVelocity 0 0 0 force 0 0 0 torque 0 0 0 vertexInLabFrame  0.0508486188832364 -133.325397269178 0.799138924735814 200.00958045388 66.685804449151 -0.177811433884244 -200.060429072763 66.6395928200282 -0.621327490851456
TriangleWall id 27 indSpecies 0 position -333.22749850154 -4601.45239831788 -403.588401087271 orientation 1 0 0 0 velocity 0 0 0 angularVelocity 0 0 0 force 0 0 0 torque 0 0 0 vertexInLabFrame  133.249295891761 0.10033855329948 0.0499714290501174 -66.8619817998853 200.065328642506 -1.37049498653715 -66.3873140918757 -200.165667195807 1.32052355748704
TriangleWall id 28 indSpecies 0 position 199.665561851493 -4734.58439707846 -402.837449363609 orientation 1 0 0 0 velocity 0 0 0 angularVelocity 0 0 0 force 0 0 0 torque 0 0 0 vertexInLabFrame  0.100109964813157 133.262068242784 -0.805711655496964 -199.854608620986 -66.4778487445428 0.425884351158402 199.754498656173 -66.7842194982431 0.379827304338562
TriangleWall id 29 indSpecies 0 position 333.012292208602 -4601.40284676971 -403.762953355412 orientation 1 0 0 0 velocity 0 0 0 angularVelocity 0 0 0 force 0 0 0 torque 0 0 0 vertexInLabFrame  -133.246620392296 0.0805179340341056 0.119792336306659 66.4077682990636 -199.965769806993 1.30533129614219 66.8388520932322 199.885251872958 -1.42512363244884
TriangleWall id 30 indSpecies 0 position 199.865781781119 -4468.06026059289 -404.448872674602 orientation 1 0 0 0 velocity 0 0 0 angularVelocity 0 0 0 force 0 0 0 torque 0 0 0 vertexInLabFrame  -0.100109964813129 -133.262068242785 0.805711655496907 199.985362520715 66.542665696139 -0.739204313258597 -199.885252555902 66.7194025466451 -0.0665073422384239
TriangleWall id 31 indSpecies 0 position 66.5190514240098 -4601.24181090164 -403.523368682799 orientation 1 0 0 0 velocity 0 0 0 angularVelocity 0 0 0 force 0 0 0 torque 0 0 0 vertexInLabFrame  133.246620392296 -0.0805179340350151 -0.119792336306659 -66.5385221987929 199.900952855395 -0.99201133404199 -66.708098193503 -199.820434921362 1.11180367034871
TriangleWall id 32 indSpecies 0 position -200.168874495435 -4334.80081844489 -404.937840760805 orientation 1 0 0 0 velocity 0 0 0 angularVelocity 0 0 0 force 0 0 0 torque 0 0 0 vertexInLabFrame  -0.228797914661698 133.126290831836 -0.401405430961006 -199.920605805991 -66.5862512304793 -0.0210553130031599 200.149403720652 -66.5400396013565 0.422460743964052
TriangleWall id 33 indSpecies 0 position -67.127860928906 -4201.77530846338 -405.320594934035 orientation 1 0 0 0 velocity 0 0 0 angularVelocity 0 0 0 force 0 0 0 torque 0 0 0 vertexInLabFrame  -133.269811481191 0.100780850324554 -0.0186512577312783 67.1083901541229 -199.565549582868 0.80521491719378 66.161421327068 199.464768732542 -0.786563659462615
TriangleWall id 34 indSpecies 0 position -200.626470324759 -4068.54823678122 -405.740651622727 orientation 1 0 0 0 velocity 0 0 0 angularVelocity 0 0 0 force 0 0 0 torque 0 0 0 vertexInLabFrame  0.228797914661698 -133.126290831835 0.401405430960892 199.660030722921 66.2376970503819 -0.366506970770445 -199.888828637582 66.8885937814534 -0.0348984601905613
TriangleWall id 35 indSpecies 0 position -333.667483891288 -4201.57374676273 -405.357897449497 orientation 1 0 0 0 velocity 0 0 0 angularVelocity 0 0 0 force 0 0 0 torque 0 0 0 vertexInLabFrame  133.269811481191 -0.100780850324554 0.0186512577312214 -66.847815071053 199.914103762964 -0.417652633420232 -66.4219964101379 -199.81332291264 0.399001375689068
TriangleWall id 36 indSpecies 0 position 199.728905272824 -4334.89042867435 -405.119439924399 orientation 1 0 0 0 velocity 0 0 0 angularVelocity 0 0 0 force 0 0 0 torque 0 0 0 vertexInLabFrame  -0.373862981403619 133.077595594299 -0.535422844095933 -199.748376047607 -66.4504293718965 0.604059907558053 200.12223902901 -66.6271662224026 -0.0686370634621198
TriangleWall id 37 indSpecies 0 position 332.58704061124 -4201.80425587439 -405.883925077379 orientation 1 0 0 0 velocity 0 0 0 angularVelocity 0 0 0 force 0 0 0 torque 0 0 0 vertexInLabFrame  -133.23199831982 -0.00857720566000353 0.229062308883954 67.2641036905935 -199.713339022362 0.695848089517767 65.9678946292267 199.721916228021 -0.924910398401664
TriangleWall id 38 indSpecies 0 position 198.981179310016 -4068.73523748575 -406.190285612591 orientation 1 0 0 0 velocity 0 0 0 angularVelocity 0 0 0 force 0 0 0 torque 0 0 0 vertexInLabFrame  0.373862981403647 -133.077595594299 0.535422844096047 199.573755930451 66.6528978393826 -0.618549863189571 -199.947618911854 66.4246977549155 0.083127019093638
TriangleWall id 39 indSpecies 0 position 66.1230439715996 -4201.82141028571 -405.425800459611 orientation 1 0 0 0 velocity 0 0 0 angularVelocity 0 0 0 force 0 0 0 torque 0 0 0 vertexInLabFrame  133.23199831982 0.00857720566000353 -0.22906230888384 -67.0894835734376 199.510870554874 -0.681358133886249 -66.1425147463827 -199.519447760536 0.910420442770146
TriangleWall id 40 indSpecies 0 position -200.709498737384 -3935.41111737557 -406.252558859716 orientation 1 0 0 0 velocity 0 0 0 angularVelocity 0 0 0 force 0 0 0 torque 0 0 0 vertexInLabFrame  0.062741089410224 133.147947979473 -0.622409043017967 -199.805800224957 -66.2485256242003 0.477008776798982 199.743059135546 -66.8994223552718 0.145400266219099
TriangleWall id 41 indSpecies 0 position -67.4898193696206 -3802.31694546834 -406.73669272464 orientation 1 0 0 0 velocity 0 0 0 angularVelocity 0 0 0 force 0 0 0 torque 0 0 0 vertexInLabFrame  -133.156938278353 0.0537760722427265 -0.138275178093863 66.5233797677826 -199.993594262502 0.629534131143203 66.6335585105709 199.939818190259 -0.491258953049226
TriangleWall id 42 indSpecies 0 position -200.584016558564 -3669.11522141662 -407.497376945752 orientation 1 0 0 0 velocity 0 0 0 angularVelocity 0 0 0 force 0 0 0 torque 0 0 0 vertexInLabFrame  -0.0627410894102525 -133.147947979472 0.622409043018081 199.727755699514 66.738094138545 0.269425268062719 -199.665014610104 66.4098538409276 -0.891834311080856
TriangleWall id 43 indSpecies 0 position -333.803695926328 -3802.20939332385 -407.013243080828 orientation 1 0 0 0 velocity 0 0 0 angularVelocity 0 0 0 force 0 0 0 torque 0 0 0 vertexInLabFrame  133.156938278353 -0.0537760722422718 0.138275178093977 -66.4453352423401 199.504025748157 -1.37596817600496 -66.7116030360133 -199.450249675916 1.23769299791093
TriangleWall id 44 indSpecies 0 position 198.844030691735 -3935.57389036705 -406.677310175972 orientation 1 0 0 0 velocity 0 0 0 angularVelocity 0 0 0 force 0 0 0 torque 0 0 0 vertexInLabFrame  0.0995657448400777 133.245098643104 -0.43862628266686 -199.810470293573 -66.736649363786 0.570151582475148 199.710904548732 -66.5084492793189 -0.131525299808061
TriangleWall id 45 indSpecies 0 position 332.18022754792 -3802.31876387027 -407.41485734067 orientation 1 0 0 0 velocity 0 0 0 angularVelocity 0 0 0 force 0 0 0 torque 0 0 0 vertexInLabFrame  -133.236631111346 -0.0100278536729093 0.298920882030643 66.3747076925467 -199.763575776096 0.606021864889442 66.8619234187989 199.773603629769 -0.904942746919971
TriangleWall id 46 indSpecies 0 position 199.043162181415 -3669.08369308084 -407.554562741306 orientation 1 0 0 0 velocity 0 0 0 angularVelocity 0 0 0 force 0 0 0 torque 0 0 0 vertexInLabFrame  -0.0995657448400777 -133.245098643104 0.438626282667087 199.998988785305 66.5385328403377 -0.765237346283527 -199.899423040464 66.7065658027668 0.326611063616667
TriangleWall id 47 indSpecies 0 position 65.706965325229 -3802.33881957762 -406.817015576609 orientation 1 0 0 0 velocity 0 0 0 angularVelocity 0 0 0 force 0 0 0 torque 0 0 0 vertexInLabFrame  133.236631111346 0.010027853673364 -0.298920882030473 -66.5632261842787 199.961692299544 -0.410936101080893 -66.673404927067 -199.971720153217 0.709856983111536
TriangleWall id 48 indSpecies 0 position -200.478852729694 -3535.99005079871 -408.123178739503 orientation 1 0 0 0 velocity 0 0 0 angularVelocity 0 0 0 force 0 0 0 torque 0 0 0 vertexInLabFrame  0.147586568328279 133.102393256353 -0.629194544483198 -199.770178438973 -66.7153167769857 -0.266032517330132 199.622591870645 -66.3870764793683 0.895227061813443
TriangleWall id 49 indSpecies 0 position -67.1020380667236 -3402.86204313416 -408.802461711117 orientation 1 0 0 0 velocity 0 0 0 angularVelocity 0 0 0 force 0 0 0 torque 0 0 0 vertexInLabFrame  -133.229228094643 -0.0256144081963612 0.0500884271307314 66.2457772076738 -199.515084143918 1.57451003342737 66.9834508869688 199.540698552115 -1.62459846055816
TriangleWall id 50 indSpecies 0 position -200.183679593038 -3269.785264286 -409.38156782847 orientation 1 0 0 0 velocity 0 0 0 angularVelocity 0 0 0 force 0 0 0 torque 0 0 0 vertexInLabFrame  -0.147586568328279 -133.102393256353 0.629194544483255 200.065092413283 66.4639197039578 -1.04549234320564 -199.917505844955 66.6384735523957 0.416297798722439
TriangleWall id 51 indSpecies 0 position -333.560494256009 -3402.91327195055 -408.702284856856 orientation 1 0 0 0 velocity 0 0 0 angularVelocity 0 0 0 force 0 0 0 torque 0 0 0 vertexInLabFrame  133.229228094643 0.0256144081968159 -0.0500884271307314 -66.5406911819839 199.766481216946 -0.262985172891547 -66.6885369126587 -199.792095625142 0.313073600022335
TriangleWall id 52 indSpecies 0 position 199.173728542283 -3535.96466560098 -408.206053752348 orientation 1 0 0 0 velocity 0 0 0 angularVelocity 0 0 0 force 0 0 0 torque 0 0 0 vertexInLabFrame  0.161566976896125 132.99295631662 -0.864355739416226 -200.029989401333 -66.4124616770951 0.978102074658125 199.868422424436 -66.5804946395242 -0.11374633524207
TriangleWall id 53 indSpecies 0 position 332.550441878233 -3403.05335818723 -409.232345203152 orientation 1 0 0 0 velocity 0 0 0 angularVelocity 0 0 0 force 0 0 0 torque 0 0 0 vertexInLabFrame  -133.215146359054 0.081648902867073 0.161935711387684 66.4917090884862 -199.491802053277 0.912545115561841 66.723437270568 199.410153150409 -1.07448082694958
TriangleWall id 54 indSpecies 0 position 199.496862496075 -3269.97875296774 -409.93476523118 orientation 1 0 0 0 velocity 0 0 0 angularVelocity 0 0 0 force 0 0 0 torque 0 0 0 vertexInLabFrame  -0.161566976896097 -132.99295631662 0.864355739416112 199.777016652726 66.3355479309225 -0.372060798921154 -199.61544967583 66.6574083856976 -0.492294940495071
TriangleWall id 55 indSpecies 0 position 66.1201491601248 -3402.89006038149 -408.908473780376 orientation 1 0 0 0 velocity 0 0 0 angularVelocity 0 0 0 force 0 0 0 torque 0 0 0 vertexInLabFrame  133.215146359054 -0.081648902867073 -0.161935711387798 -66.2387363398796 199.56871579945 -1.51858639129898 -66.9764100191745 -199.487066896582 1.68052210268655
TriangleWall id 56 indSpecies 0 position -200.239079922297 -3136.64339202143 -410.295498856285 orientation 1 0 0 0 velocity 0 0 0 angularVelocity 0 0 0 force 0 0 0 torque 0 0 0 vertexInLabFrame  -0.258387226845826 133.181351272788 -1.19866751114751 -199.862105515696 -66.5033987121751 1.33022882653779 200.120492742542 -66.677952560613 -0.131561315390286
TriangleWall id 57 indSpecies 0 position -67.1724471015093 -3003.42491675935 -411.992297795052 orientation 1 0 0 0 velocity 0 0 0 angularVelocity 0 0 0 force 0 0 0 torque 0 0 0 vertexInLabFrame  -133.325020047633 -0.0371239892888298 0.498131427619569 67.0538599217545 -199.89642782269 1.56523762337679 66.2711601258788 199.933551811978 -2.06336905099624
TriangleWall id 58 indSpecies 0 position -200.755854375988 -2870.28068947586 -412.69283387858 orientation 1 0 0 0 velocity 0 0 0 angularVelocity 0 0 0 force 0 0 0 torque 0 0 0 vertexInLabFrame  0.258387226845826 -133.181351272787 1.19866751114745 199.854567400358 66.7893245284799 -1.36283296746836 -200.112954627204 66.3920267443073 0.164165456320859
TriangleWall id 59 indSpecies 0 position -333.822487196776 -3003.49916473793 -410.996034939813 orientation 1 0 0 0 velocity 0 0 0 angularVelocity 0 0 0 force 0 0 0 torque 0 0 0 vertexInLabFrame  133.325020047633 0.0371239892897393 -0.498131427619569 -67.0463218064162 199.610502006384 -1.53263348244616 -66.2786982412171 -199.647625995673 2.03076491006573
TriangleWall id 60 indSpecies 0 position 199.512298855514 -3136.8279967827 -411.074032595887 orientation 1 0 0 0 velocity 0 0 0 angularVelocity 0 0 0 force 0 0 0 torque 0 0 0 vertexInLabFrame  -0.130694258018593 133.308556053456 -1.41417898999777 -199.630886035269 -66.4933477993404 0.646972424211981 199.761580293287 -66.8152082541155 0.767206565785898
TriangleWall id 61 indSpecies 0 position 332.642632380954 -3003.59483137227 -412.652776970567 orientation 1 0 0 0 velocity 0 0 0 angularVelocity 0 0 0 force 0 0 0 torque 0 0 0 vertexInLabFrame  -133.261027783459 0.0753906430254574 0.164565384682192 66.6312467678472 -200.048373664546 2.34595094046585 66.6297810156115 199.972983021519 -2.51051632514816
TriangleWall id 62 indSpecies 0 position 199.250910339477 -2870.21088467579 -413.902390575883 orientation 1 0 0 0 velocity 0 0 0 angularVelocity 0 0 0 force 0 0 0 torque 0 0 0 vertexInLabFrame  0.130694258018565 -133.308556053456 1.41417898999788 200.021503057089 66.5890363250383 -1.26090271983247 -200.152197315107 66.7195197284168 -0.153276270165406
TriangleWall id 63 indSpecies 0 position 66.1205768140366 -3003.44405008622 -412.323646201203 orientation 1 0 0 0 velocity 0 0 0 angularVelocity 0 0 0 force 0 0 0 torque 0 0 0 vertexInLabFrame  133.261027783459 -0.0753906430254574 -0.164565384682135 -67.0218637896672 199.952685138847 -1.73202064484542 -66.2391639937914 -199.877294495821 1.89658602952761
TriangleWall id 64 indSpecies 0 position -200.760886950501 -2736.9412485081 -413.960827257928 orientation 1 0 0 0 velocity 0 0 0 angularVelocity 0 0 0 force 0 0 0 torque 0 0 0 vertexInLabFrame  0.248322077821058 133.49753066273 -1.33731924754915 -200.107922052691 -66.9474142234512 1.43215883566921 199.85959997487 -66.5501164392786 -0.0948395881200099
TriangleWall id 65 indSpecies 0 position -67.088047374301 -2603.40293491378 -415.481632775105 orientation 1 0 0 0 velocity 0 0 0 angularVelocity 0 0 0 force 0 0 0 torque 0 0 0 vertexInLabFrame  -133.424517498379 -0.0407829315909112 0.183486269627679 66.1867603986704 -200.0884300336 1.42596592905682 67.2377570997083 200.129212965191 -1.60945219868461
TriangleWall id 66 indSpecies 0 position -200.264242794859 -2469.94618718264 -416.635465753026 orientation 1 0 0 0 velocity 0 0 0 angularVelocity 0 0 0 force 0 0 0 torque 0 0 0 vertexInLabFrame  -0.248322077821058 -133.49753066273 1.33731924754909 200.413952520266 66.6724652340517 -0.455619220763197 -200.165630442445 66.825065428678 -0.881700026786007
TriangleWall id 67 indSpecies 0 position -333.937082371058 -2603.48450077696 -415.11466023585 orientation 1 0 0 0 velocity 0 0 0 angularVelocity 0 0 0 force 0 0 0 torque 0 0 0 vertexInLabFrame  133.424517498379 0.0407829315909112 -0.183486269627736 -66.4927908662452 200.363379022999 -2.40250554396283 -66.9317266321336 -200.404161954591 2.58599181359062
TriangleWall id 68 indSpecies 0 position 199.383405116969 -2736.89026130764 -414.996459674737 orientation 1 0 0 0 velocity 0 0 0 angularVelocity 0 0 0 force 0 0 0 torque 0 0 0 vertexInLabFrame  0.395683813002819 133.332690682849 -0.773959207711073 -200.284692092599 -66.6011036397354 0.940792828689041 199.889008279597 -66.7315870431139 -0.166833620978025
TriangleWall id 69 indSpecies 0 position 333.215673966694 -2603.67425540933 -415.901780864135 orientation 1 0 0 0 velocity 0 0 0 angularVelocity 0 0 0 force 0 0 0 torque 0 0 0 vertexInLabFrame  -133.436585036722 0.116684784540666 0.131361981686325 66.0567394298716 -199.947592941422 0.738487568419373 67.3798456068504 199.830908156882 -0.869849550105698
TriangleWall id 70 indSpecies 0 position 200.174772742974 -2470.22487994194 -416.544378090159 orientation 1 0 0 0 velocity 0 0 0 angularVelocity 0 0 0 force 0 0 0 torque 0 0 0 vertexInLabFrame  -0.395683813002762 -133.332690682849 0.773959207711073 200.42074683057 66.3815326894924 -0.227252324080951 -200.025063017567 66.9511579933569 -0.546706883630236
TriangleWall id 71 indSpecies 0 position 66.3425038932494 -2603.44088584025 -415.639056900762 orientation 1 0 0 0 velocity 0 0 0 angularVelocity 0 0 0 force 0 0 0 torque 0 0 0 vertexInLabFrame  133.436585036722 -0.116684784540666 -0.131361981686268 -66.1927941678421 200.167163891665 -1.45202807302758 -67.24379086888 -200.050479107125 1.58339005471385
TriangleWall id 72 indSpecies 0 position -199.983582010474 -2336.68234539264 -418.131399734838 orientation 1 0 0 0 velocity 0 0 0 angularVelocity 0 0 0 force 0 0 0 torque 0 0 0 vertexInLabFrame  0.312999490947732 133.030152917263 -1.65454871607369 -200.446291226829 -66.4387763613181 0.614233955025441 200.133291735882 -66.5913765559444 1.04031476104825
TriangleWall id 73 indSpecies 0 position -66.3016085283072 -2203.71978875234 -419.628178893738 orientation 1 0 0 0 velocity 0 0 0 angularVelocity 0 0 0 force 0 0 0 torque 0 0 0 vertexInLabFrame  -133.368973991219 0.0675962769673788 -0.157769557173481 66.4513182537145 -199.55393319624 2.53709391994846 66.9176557375048 199.486336919273 -2.37932436277515
TriangleWall id 74 indSpecies 0 position -199.357583028579 -2070.62203955811 -421.440497166985 orientation 1 0 0 0 velocity 0 0 0 angularVelocity 0 0 0 force 0 0 0 torque 0 0 0 vertexInLabFrame  -0.312999490947732 -133.030152917263 1.65454871607375 199.973630237776 66.388587725043 -0.567006089527922 -199.660630746829 66.6415651922193 -1.08754262654571
TriangleWall id 75 indSpecies 0 position -333.039556510746 -2203.58459619841 -419.943718008085 orientation 1 0 0 0 velocity 0 0 0 angularVelocity 0 0 0 force 0 0 0 torque 0 0 0 vertexInLabFrame  133.368973991219 -0.0675962769669241 0.157769557173481 -65.9786572646617 199.604121832515 -2.58432178544598 -67.3903167265577 -199.536525555548 2.42655222827261
TriangleWall id 76 indSpecies 0 position 200.391860169995 -2336.93755103033 -417.813193773513 orientation 1 0 0 0 velocity 0 0 0 angularVelocity 0 0 0 force 0 0 0 torque 0 0 0 vertexInLabFrame  0.0384910410379007 133.241967140384 -1.76367215899666 -200.242150444587 -66.3361709182595 0.722108799723685 200.203659403549 -66.9057962221241 1.04156335927297
TriangleWall id 77 indSpecies 0 position 333.795333040186 -2203.65691522268 -419.595247144082 orientation 1 0 0 0 velocity 0 0 0 angularVelocity 0 0 0 force 0 0 0 torque 0 0 0 vertexInLabFrame  -133.364981829153 -0.0386686672577525 0.0183812115723754 66.8001865333582 -200.186432029765 2.823616729842 66.5647952957953 200.225100697024 -2.84199794141443
TriangleWall id 78 indSpecies 0 position 200.46884225207 -2070.45361674956 -421.340538091507 orientation 1 0 0 0 velocity 0 0 0 angularVelocity 0 0 0 force 0 0 0 torque 0 0 0 vertexInLabFrame  -0.0384910410379291 -133.241967140384 1.76367215899666 199.891286083911 67.0218022238973 -1.09670699399015 -199.852795042873 66.2201649164861 -0.666965165006616
TriangleWall id 79 indSpecies 0 position 67.0653693818792 -2203.7342525572 -419.558484720938 orientation 1 0 0 0 velocity 0 0 0 angularVelocity 0 0 0 force 0 0 0 torque 0 0 0 vertexInLabFrame  133.364981829153 0.0386686672572978 -0.0183812115723185 -66.4493221726815 199.500800724127 -2.44901853557559 -66.9156596564719 -199.539469391386 2.46739974714802
TriangleWall id 80 indSpecies 0 position -199.373278487847 -1937.43877271545 -422.70635961329 orientation 1 0 0 0 velocity 0 0 0 angularVelocity 0 0 0 force 0 0 0 torque 0 0 0 vertexInLabFrame  -0.344390409483282 133.336380768073 -0.877176176535443 -199.644935287561 -66.5417016504487 0.178319819758883 199.989325697044 -66.794679117625 0.698856356776673