<?xml version="1.0"?>
<VTKFile type="UnstructuredGrid" version="0.1" byte_order="LittleEndian" compressor="vtkZLibDataCompressor">
<UnstructuredGrid>
<Piece NumberOfPoints="960" NumberOfCells="120">
<Points>
<DataArray type="Float32" NumberOfComponents="3" format="ascii">
-4.000000e+02 -6.000000e+03 -4.000000e+02
0.000000e+00 -6.000000e+03 -4.000000e+02
-4.000000e+02 -5.600010e+03 -4.001220e+02
1.212600e-10 -5.600010e+03 -4.001220e+02
-4.000000e+02 -6.000000e+03 0.000000e+00
0.000000e+00 -6.000000e+03 0.000000e+00
-4.000000e+02 -5.600020e+03 -3.009170e-03
3.442860e-10 -5.600020e+03 -3.009170e-03
0.000000e+00 -6.000000e+03 -4.000000e+02
4.000000e+02 -6.000000e+03 -4.000000e+02
1.212600e-10 -5.600010e+03 -4.001220e+02
4.000000e+02 -5.600010e+03 -4.001220e+02
0.000000e+00 -6.000000e+03 0.000000e+00
4.000000e+02 -6.000000e+03 0.000000e+00
3.442860e-10 -5.600020e+03 -3.009170e-03
4.000000e+02 -5.600020e+03 -3.009170e-03
-4.000000e+02 -5.600010e+03 -4.001220e+02
1.212600e-10 -5.600010e+03 -4.001220e+02
-4.000000e+02 -5.200010e+03 -4.000090e+02
8.120210e-10 -5.200010e+03 -4.000090e+02
-4.000000e+02 -5.600020e+03 -3.009170e-03
3.442860e-10 -5.600020e+03 -3.009170e-03
-4.000000e+02 -5.200030e+03 -8.996570e-02
1.059170e-09 -5.200030e+03 -8.996570e-02
1.212600e-10 -5.600010e+03 -4.001220e+02
4.000000e+02 -5.600010e+03 -4.001220e+02
8.120210e-10 -5.200010e+03 -4.000090e+02
4.000000e+02 -5.200010e+03 -4.000090e+02
3.442860e-10 -5.600020e+03 -3.009170e-03
4.000000e+02 -5.600020e+03 -3.009170e-03
1.059170e-09 -5.200030e+03 -8.996570e-02
4.000000e+02 -5.200030e+03 -8.996570e-02
-4.000000e+02 -5.200010e+03 -4.000090e+02
8.120210e-10 -5.200010e+03 -4.000090e+02
-4.000000e+02 -4.800060e+03 -4.000580e+02
8.631560e-10 -4.800060e+03 -4.000580e+02
-4.000000e+02 -5.200030e+03 -8.996570e-02
1.059170e-09 -5.200030e+03 -8.996570e-02
-4.000000e+02 -4.799980e+03 -1.192790e-01
1.364620e-09 -4.799980e+03 -1.192790e-01
8.120210e-10 -5.200010e+03 -4.000090e+02
4.000000e+02 -5.200010e+03 -4.000090e+02
8.631560e-10 -4.800060e+03 -4.000580e+02
4.000000e+02 -4.800060e+03 -4.000580e+02
1.059170e-09 -5.200030e+03 -8.996570e-02
4.000000e+02 -5.200030e+03 -8.996570e-02
1.364620e-09 -4.799980e+03 -1.192790e-01
4.000000e+02 -4.799980e+03 -1.192790e-01
-4.000000e+02 -4.800060e+03 -4.000580e+02
8.631560e-10 -4.800060e+03 -4.000580e+02
-4.000000e+02 -4.400050e+03 -4.002680e+02
3.350270e-10 -4.400050e+03 -4.002680e+02
-4.000000e+02 -4.799980e+03 -1.192790e-01
1.364620e-09 -4.799980e+03 -1.192790e-01
-4.000000e+02 -4.399990e+03 -1.478960e-01
5.982170e-10 -4.399990e+03 -1.478960e-01
8.631560e-10 -4.800060e+03 -4.000580e+02
4.000000e+02 -4.800060e+03 -4.000580e+02
3.350270e-10 -4.400050e+03 -4.002680e+02
4.000000e+02 -4.400050e+03 -4.002680e+02
1.364620e-09 -4.799980e+03 -1.192790e-01
4.000000e+02 -4.799980e+03 -1.192790e-01
5.982170e-10 -4.399990e+03 -1.478960e-01
4.000000e+02 -4.399990e+03 -1.478960e-01
-4.000000e+02 -4.400050e+03 -4.002680e+02
3.350270e-10 -4.400050e+03 -4.002680e+02
-4.000000e+02 -3.999990e+03 -4.002040e+02
3.006220e-10 -3.999990e+03 -4.002040e+02
-4.000000e+02 -4.399990e+03 -1.478960e-01
5.982170e-10 -4.399990e+03 -1.478960e-01
-4.000000e+02 -4.000040e+03 -1.884360e-01
3.908210e-10 -4.000040e+03 -1.884360e-01
3.350270e-10 -4.400050e+03 -4.002680e+02
4.000000e+02 -4.400050e+03 -4.002680e+02
3.006220e-10 -3.999990e+03 -4.002040e+02
4.000000e+02 -3.999990e+03 -4.002040e+02
5.982170e-10 -4.399990e+03 -1.478960e-01
4.000000e+02 -4.399990e+03 -1.478960e-01
3.908210e-10 -4.000040e+03 -1.884360e-01
4.000000e+02 -4.000040e+03 -1.884360e-01
-4.000000e+02 -3.999990e+03 -4.002040e+02
3.006220e-10 -3.999990e+03 -4.002040e+02
-4.000000e+02 -3.600040e+03 -4.001000e+02
7.260810e-10 -3.600040e+03 -4.001000e+02
-4.000000e+02 -4.000040e+03 -1.884360e-01
3.908210e-10 -4.000040e+03 -1.884360e-01
-4.000000e+02 -3.599990e+03 -2.443310e-01
9.135380e-10 -3.599990e+03 -2.443310e-01
3.006220e-10 -3.999990e+03 -4.002040e+02
4.000000e+02 -3.999990e+03 -4.002040e+02
7.260810e-10 -3.600040e+03 -4.001000e+02
4.000000e+02 -3.600040e+03 -4.001000e+02
3.908210e-10 -4.000040e+03 -1.884360e-01
4.000000e+02 -4.000040e+03 -1.884360e-01
9.135380e-10 -3.599990e+03 -2.443310e-01
4.000000e+02 -3.599990e+03 -2.443310e-01
-4.000000e+02 -3.600040e+03 -4.001000e+02
7.260810e-10 -3.600040e+03 -4.001000e+02
-4.000000e+02 -3.200070e+03 -4.003110e+02
3.587180e-10 -3.200070e+03 -4.003110e+02
-4.000000e+02 -3.599990e+03 -2.443310e-01
9.135380e-10 -3.599990e+03 -2.443310e-01
-4.000000e+02 -3.199960e+03 -2.359610e-01
2.654090e-10 -3.199960e+03 -2.359610e-01
7.260810e-10 -3.600040e+03 -4.001000e+02
4.000000e+02 -3.600040e+03 -4.001000e+02
3.587180e-10 -3.200070e+03 -4.003110e+02
4.000000e+02 -3.200070e+03 -4.003110e+02
9.135380e-10 -3.599990e+03 -2.443310e-01
4.000000e+02 -3.599990e+03 -2.443310e-01
2.654090e-10 -3.199960e+03 -2.359610e-01
4.000000e+02 -3.199960e+03 -2.359610e-01
-4.000000e+02 -3.200070e+03 -4.003110e+02
3.587180e-10 -3.200070e+03 -4.003110e+02
-4.000000e+02 -2.800000e+03 -4.003620e+02
4.708210e-10 -2.800000e+03 -4.003620e+02
-4.000000e+02 -3.199960e+03 -2.359610e-01
2.654090e-10 -3.199960e+03 -2.359610e-01
-4.000000e+02 -2.800030e+03 -2.754070e-01
3.444640e-10 -2.800030e+03 -2.754070e-01
3.587180e-10 -3.200070e+03 -4.003110e+02
4.000000e+02 -3.200070e+03 -4.003110e+02
4.708210e-10 -2.800000e+03 -4.003620e+02
4.000000e+02 -2.800000e+03 -4.003620e+02
2.654090e-10 -3.199960e+03 -2.359610e-01
4.000000e+02 -3.199960e+03 -2.359610e-01
3.444640e-10 -2.800030e+03 -2.754070e-01
4.000000e+02 -2.800030e+03 -2.754070e-01
-4.000000e+02 -2.800000e+03 -4.003620e+02
4.708210e-10 -2.800000e+03 -4.003620e+02
-4.000000e+02 -2.400020e+03 -4.002160e+02
8.689970e-11 -2.400020e+03 -4.002160e+02
-4.000000e+02 -2.800030e+03 -2.754070e-01
3.444640e-10 -2.800030e+03 -2.754070e-01
-4.000000e+02 -2.400010e+03 -3.590500e-01
8.175430e-11 -2.400010e+03 -3.590500e-01
4.708210e-10 -2.800000e+03 -4.003620e+02
4.000000e+02 -2.800000e+03 -4.003620e+02
8.689970e-11 -2.400020e+03 -4.002160e+02
4.000000e+02 -2.400020e+03 -4.002160e+02
3.444640e-10 -2.800030e+03 -2.754070e-01
4.000000e+02 -2.800030e+03 -2.754070e-01
8.175430e-11 -2.400010e+03 -3.590500e-01
4.000000e+02 -2.400010e+03 -3.590500e-01
-4.000000e+02 -2.400020e+03 -4.002160e+02
8.689970e-11 -2.400020e+03 -4.002160e+02
-4.000000e+02 -2.000050e+03 -4.003550e+02
-2.125020e-10 -2.000050e+03 -4.003550e+02
-4.000000e+02 -2.400010e+03 -3.590500e-01
8.175430e-11 -2.400010e+03 -3.590500e-01
-4.000000e+02 -1.999960e+03 -3.048290e-01
-3.468720e-10 -1.999960e+03 -3.048290e-01
8.689970e-11 -2.400020e+03 -4.002160e+02
4.000000e+02 -2.400020e+03 -4.002160e+02
-2.125020e-10 -2.000050e+03 -4.003550e+02
4.000000e+02 -2.000050e+03 -4.003550e+02
8.175430e-11 -2.400010e+03 -3.590500e-01
4.000000e+02 -2.400010e+03 -3.590500e-01
-3.468720e-10 -1.999960e+03 -3.048290e-01
4.000000e+02 -1.999960e+03 -3.048290e-01
-4.000000e+02 -2.000050e+03 -4.003550e+02
-2.125020e-10 -2.000050e+03 -4.003550e+02
-4.000000e+02 -1.600010e+03 -4.004350e+02
4.487100e-11 -1.600010e+03 -4.004350e+02
-4.000000e+02 -1.999960e+03 -3.048290e-01
-3.468720e-10 -1.999960e+03 -3.048290e-01
-4.000000e+02 -1.600010e+03 -3.570120e-01
-9.679380e-11 -1.600010e+03 -3.570120e-01
-2.125020e-10 -2.000050e+03 -4.003550e+02
4.000000e+02 -2.000050e+03 -4.003550e+02
4.487100e-11 -1.600010e+03 -4.004350e+02
4.000000e+02 -1.600010e+03 -4.004350e+02
-3.468720e-10 -1.999960e+03 -3.048290e-01
4.000000e+02 -1.999960e+03 -3.048290e-01
-9.679380e-11 -1.600010e+03 -3.570120e-01
4.000000e+02 -1.600010e+03 -3.570120e-01
-4.000000e+02 -1.600010e+03 -4.004350e+02
4.487100e-11 -1.600010e+03 -4.004350e+02
-4.000000e+02 -1.200000e+03 -4.002810e+02
1.584770e-10 -1.200000e+03 -4.002810e+02
-4.000000e+02 -1.600010e+03 -3.570120e-01
-9.679380e-11 -1.600010e+03 -3.570120e-01
-4.000000e+02 -1.200030e+03 -4.150530e-01
-1.961690e-10 -1.200030e+03 -4.150530e-01
4.487100e-11 -1.600010e+03 -4.004350e+02
4.000000e+02 -1.600010e+03 -4.004350e+02
1.584770e-10 -1.200000e+03 -4.002810e+02
4.000000e+02 -1.200000e+03 -4.002810e+02
-9.679380e-11 -1.600010e+03 -3.570120e-01
4.000000e+02 -1.600010e+03 -3.570120e-01
-1.961690e-10 -1.200030e+03 -4.150530e-01
4.000000e+02 -1.200030e+03 -4.150530e-01
-4.000000e+02 -1.200000e+03 -4.002810e+02
1.584770e-10 -1.200000e+03 -4.002810e+02
-4.000000e+02 -8.000580e+02 -4.004170e+02
-6.041080e-10 -8.000580e+02 -4.004170e+02
-4.000000e+02 -1.200030e+03 -4.150530e-01
-1.961690e-10 -1.200030e+03 -4.150530e-01
-4.000000e+02 -7.999720e+02 -3.652750e-01
-6.914380e-10 -7.999720e+02 -3.652750e-01
1.584770e-10 -1.200000e+03 -4.002810e+02
4.000000e+02 -1.200000e+03 -4.002810e+02
-6.041080e-10 -8.000580e+02 -4.004170e+02
4.000000e+02 -8.000580e+02 -4.004170e+02
-1.961690e-10 -1.200030e+03 -4.150530e-01
4.000000e+02 -1.200030e+03 -4.150530e-01
-6.914380e-10 -7.999720e+02 -3.652750e-01
4.000000e+02 -7.999720e+02 -3.652750e-01
-4.000000e+02 -8.000580e+02 -4.004170e+02
-6.041080e-10 -8.000580e+02 -4.004170e+02
-4.000000e+02 -4.000320e+02 -4.005270e+02
-6.189150e-10 -4.000320e+02 -4.005270e+02
-4.000000e+02 -7.999720e+02 -3.652750e-01
-6.914380e-10 -7.999720e+02 -3.652750e-01
-4.000000e+02 -3.999870e+02 -4.366520e-01
-4.470980e-10 -3.999870e+02 -4.366520e-01
-6.041080e-10 -8.000580e+02 -4.004170e+02
4.000000e+02 -8.000580e+02 -4.004170e+02
-6.189150e-10 -4.000320e+02 -4.005270e+02
4.000000e+02 -4.000320e+02 -4.005270e+02
-6.914380e-10 -7.999720e+02 -3.652750e-01
4.000000e+02 -7.999720e+02 -3.652750e-01
-4.470980e-10 -3.999870e+02 -4.366520e-01
4.000000e+02 -3.999870e+02 -4.366520e-01
-4.000000e+02 -4.000320e+02 -4.005270e+02
-6.189150e-10 -4.000320e+02 -4.005270e+02
-4.000000e+02 1.653730e-02 -4.003940e+02
-9.686650e-10 1.653730e-02 -4.003940e+02
-4.000000e+02 -3.999870e+02 -4.366520e-01
-4.470980e-10 -3.999870e+02 -4.366520e-01
-4.000000e+02 -3.465890e-02 -4.985810e-01
-1.113400e-09 -3.465890e-02 -4.985810e-01
-6.189150e-10 -4.000320e+02 -4.005270e+02
4.000000e+02 -4.000320e+02 -4.005270e+02
-9.686650e-10 1.653730e-02 -4.003940e+02
[...]
<PointData>
<DataArray type="Float32" Name="V1" format="ascii">
0.000000e+00
0.000000e+00
-6.176490e-10
-4.634390e-10
0.000000e+00
0.000000e+00
-3.662690e-10
1.127630e-10
0.000000e+00
0.000000e+00
-4.634390e-10
-1.669320e-11
0.000000e+00
0.000000e+00
1.127630e-10
7.953820e-10
-6.176490e-10
-4.634390e-10
1.741990e-09
7.051930e-10
-3.662690e-10
1.127630e-10
-2.209400e-10
-6.129060e-11
-4.634390e-10
-1.669320e-11
7.051930e-10
-3.554670e-10
1.127630e-10
7.953820e-10
-6.129060e-11
3.142250e-11
1.741990e-09
7.051930e-10
-3.839440e-10
-4.207710e-10
-2.209400e-10
-6.129060e-11
-4.909770e-11
-1.238100e-10
7.051930e-10
-3.554670e-10
-4.207710e-10
-3.053880e-10
-6.129060e-11
3.142250e-11
-1.238100e-10
-1.060510e-10
-3.839440e-10
-4.207710e-10
-5.459660e-10
-4.433770e-10
-4.909770e-11
-1.238100e-10
3.711780e-10
4.290560e-11
-4.207710e-10
-3.053880e-10
-4.433770e-10
-2.238850e-10
-1.238100e-10
-1.060510e-10
4.290560e-11
-2.975320e-10
-5.459660e-10
-4.433770e-10
-6.088110e-11
4.142200e-10
3.711780e-10
4.290560e-11
1.276540e-11
-1.199390e-10
-4.433770e-10
-2.238850e-10
4.142200e-10
7.865450e-10
4.290560e-11
-2.975320e-10
-1.199390e-10
4.713380e-11
-6.088110e-11
4.142200e-10
-6.313960e-10
-3.723850e-10
1.276540e-11
-1.199390e-10
3.721600e-10
2.264040e-10
4.142200e-10
7.865450e-10
-3.723850e-10
1.600580e-10
-1.199390e-10
4.713380e-11
2.264040e-10
1.178340e-10
-6.313960e-10
-3.723850e-10
-1.708600e-10
-4.375660e-10
3.721600e-10
2.264040e-10
-3.613590e-10
-4.353630e-10
-3.723850e-10
1.600580e-10
-4.375660e-10
-1.404190e-10
2.264040e-10
1.178340e-10
-4.353630e-10
-1.139070e-10
-1.708600e-10
-4.375660e-10
5.881900e-10
3.795520e-10
-3.613590e-10
-4.353630e-10
1.885350e-10
-1.854870e-11
-4.375660e-10
-1.404190e-10
3.795520e-10
3.829620e-11
-4.353630e-10
-1.139070e-10
-1.854870e-11
-1.325640e-10
5.881900e-10
3.795520e-10
-7.315550e-10
-2.730900e-10
1.885350e-10
-1.854870e-11
6.746020e-10
3.977010e-10
3.795520e-10
3.829620e-11
-2.730900e-10
3.986730e-10
-1.854870e-11
-1.325640e-10
3.977010e-10
9.917730e-11
-7.315550e-10
-2.730900e-10
2.219210e-10
1.754390e-10
6.746020e-10
3.977010e-10
-6.431790e-10
-4.232680e-10
-2.730900e-10
3.986730e-10
1.754390e-10
5.989920e-11
3.977010e-10
9.917730e-11
-4.232680e-10
-2.955680e-10
2.219210e-10
1.754390e-10
1.060510e-09
4.217710e-10
-6.431790e-10
-4.232680e-10
1.865710e-10
-1.256080e-10
1.754390e-10
5.989920e-11
4.217710e-10
-2.592360e-10
-4.232680e-10
-2.955680e-10
-1.256080e-10
-6.559450e-10
1.060510e-09
4.217710e-10
-1.448380e-09
-2.378950e-10
1.865710e-10
-1.256080e-10
5.047240e-10
7.427600e-10
4.217710e-10
-2.592360e-10
-2.378950e-10
8.464440e-10
-1.256080e-10
-6.559450e-10
7.427600e-10
1.037920e-09
-1.448380e-09
-2.378950e-10
-5.214170e-10
-3.958750e-10
5.047240e-10
7.427600e-10
4.880310e-10
2.204340e-10
-2.378950e-10
8.464440e-10
-3.958750e-10
-3.034240e-10
7.427600e-10
1.037920e-09
2.204340e-10
-2.543260e-10
-5.214170e-10
-3.958750e-10
1.963910e-10
7.903500e-12
4.880310e-10
2.204340e-10
-7.570860e-10
3.479860e-11
-3.958750e-10
-3.034240e-10
7.903500e-12
-1.963910e-10
2.204340e-10
-2.543260e-10
3.479860e-11
9.161630e-10
1.963910e-10
7.903500e-12
6.559450e-10
2.579310e-10
-7.570860e-10
3.479860e-11
9.583870e-10
2.277340e-10
7.903500e-12
-1.963910e-10
2.579310e-10
-2.121020e-10
3.479860e-11
9.161630e-10
2.277340e-10
-3.377920e-10
6.559450e-10
2.579310e-10
4.516990e-10
1.762620e-10
9.583870e-10
2.277340e-10
-8.238590e-10
-1.138030e-09
2.579310e-10
-2.121020e-10
1.762620e-10
2.327230e-10
2.277340e-10
-3.377920e-10
-1.138030e-09
-1.460160e-09
4.516990e-10
1.762620e-10
-2.828030e-10
-5.074120e-10
-8.238590e-10
-1.138030e-09
-5.027600e-10
1.969620e-10
1.762620e-10
2.327230e-10
-5.074120e-10
-8.641190e-10
-1.138030e-09
-1.460160e-09
1.969620e-10
1.077200e-09
-2.828030e-10
-5.074120e-10
-6.991510e-10
3.075070e-10
-5.027600e-10
1.969620e-10
8.091300e-10
3.479420e-10
-5.074120e-10
-8.641190e-10
3.075070e-10
1.459180e-09
1.969620e-10
1.077200e-09
3.479420e-10
2.258490e-11
-6.991510e-10
3.075070e-10
6.981690e-10
9.153700e-10
8.091300e-10
3.479420e-10
-1.036940e-09
-8.858440e-10
3.075070e-10
1.459180e-09
9.153700e-10
1.088990e-09
3.479420e-10
2.258490e-11
-8.858440e-10
-6.716560e-10
6.981690e-10
9.153700e-10
-9.230360e-11
-1.056150e-10
-1.036940e-09
-8.858440e-10
6.775480e-10
4.049040e-10
9.153700e-10
1.088990e-09
-1.056150e-10
-2.926220e-10
-8.858440e-10
-6.716560e-10
4.049040e-10
1.639860e-10
-9.230360e-11
-1.056150e-10
-7.040610e-10
-7.562150e-10
6.775480e-10
4.049040e-10
-2.808390e-10
2.519020e-10
-1.056150e-10
-2.926220e-10
-7.562150e-10
-6.598730e-10
4.049040e-10
1.639860e-10
2.519020e-10
9.564230e-10
-7.040610e-10
-7.562150e-10
-7.325370e-10
-3.155080e-10
-2.808390e-10
2.519020e-10
-2.828030e-10
1.598400e-10
-7.562150e-10
-6.598730e-10
-3.155080e-10
-2.494160e-10
2.519020e-10
9.564230e-10
1.598400e-10
5.420380e-10
-7.325370e-10
-3.155080e-10
7.335190e-10
3.525580e-11
-2.828030e-10
1.598400e-10
1.284400e-09
7.726470e-10
-3.155080e-10
-2.494160e-10
3.525580e-11
-4.516990e-10
1.598400e-10
5.420380e-10
7.726470e-10
1.472930e-11
7.335190e-10
3.525580e-11
2.965500e-10
-9.538390e-11
1.284400e-09
7.726470e-10
-2.562900e-10
-6.218030e-10
3.525580e-11
-4.516990e-10
-9.538390e-11
-2.003190e-10
7.726470e-10
1.472930e-11
-6.218030e-10
-6.097930e-10
2.965500e-10
-9.538390e-11
1.148890e-10
5.332730e-10
-2.562900e-10
-6.218030e-10
-4.251860e-10
-2.923860e-10
-9.538390e-11
-2.003190e-10
5.332730e-10
1.000610e-09
-6.218030e-10
-6.097930e-10
-2.923860e-10
-2.955680e-10
1.148890e-10
5.332730e-10
-7.119160e-10
-9.957990e-10
-4.251860e-10
-2.923860e-10
7.128980e-10
9.759390e-11
5.332730e-10
1.000610e-09
-9.957990e-10
-8.169850e-10
-2.923860e-10
-2.955680e-10
9.759390e-11
-4.065290e-10
-7.119160e-10
-9.957990e-10
-7.168260e-11
4.734850e-10
7.128980e-10
9.759390e-11
-1.505330e-09
-4.827270e-10
-9.957990e-10
-8.169850e-10
4.734850e-10
8.160030e-10
9.759390e-11
-4.065290e-10
-4.827270e-10
4.242040e-10
-7.168260e-11
4.734850e-10
1.552470e-09
9.033780e-10
-1.505330e-09
-4.827270e-10
6.107750e-10
1.064270e-10
4.734850e-10
8.160030e-10
9.033780e-10
1.148890e-10
-4.827270e-10
4.242040e-10
1.064270e-10
-3.525210e-10
1.552470e-09
9.033780e-10
-1.865710e-10
-2.123440e-10
6.107750e-10
1.064270e-10
-9.495490e-10
-2.105230e-10
9.033780e-10
1.148890e-10
-2.123440e-10
1.178340e-11
1.064270e-10
-3.525210e-10
-2.105230e-10
5.253450e-10
-1.865710e-10
-2.123440e-10
1.721360e-09
1.928820e-10
-9.495490e-10
-2.105230e-10
1.254940e-09
1.898780e-10
-2.123440e-10
1.178340e-11
1.928820e-10
-1.111570e-09
-2.105230e-10
5.253450e-10
1.898780e-10
-9.446390e-10
0.000000e+00
0.000000e+00
-3.662690e-10
1.127630e-10
0.000000e+00
0.000000e+00
-1.084080e-09
-4.954630e-10
0.000000e+00
0.000000e+00
1.127630e-10
7.953820e-10
0.000000e+00
0.000000e+00
-4.954630e-10
2.661090e-10
-3.662690e-10
1.127630e-10
-2.209400e-10
-6.129060e-11
-1.084080e-09
-4.954630e-10
5.489120e-10
1.966270e-10
1.127630e-10
7.953820e-10
-6.129060e-11
3.142250e-11
-4.954630e-10
2.661090e-10
1.966270e-10
-3.741240e-10
-2.209400e-10
-6.129060e-11
-4.909770e-11
-1.238100e-10
5.489120e-10
1.966270e-10
3.643050e-10
2.753320e-10
-6.129060e-11
3.142250e-11
-1.238100e-10
-1.060510e-10
1.966270e-10
-3.741240e-10
2.753320e-10
1.139070e-10
-4.909770e-11
-1.238100e-10
3.711780e-10
4.290560e-11
3.643050e-10
2.753320e-10
-8.317150e-10
-8.149100e-10
-1.238100e-10
-1.060510e-10
4.290560e-11
-2.975320e-10
2.753320e-10
1.139070e-10
-8.149100e-10
-1.043820e-09
3.711780e-10
4.290560e-11
1.276540e-11
-1.199390e-10
-8.317150e-10
-8.149100e-10
-6.284500e-10
-6.681050e-13
4.290560e-11
-2.975320e-10
-1.199390e-10
4.713380e-11
-8.149100e-10
-1.043820e-09
-6.681050e-13
5.449840e-10
1.276540e-11
-1.199390e-10
3.721600e-10
2.264040e-10
-6.284500e-10
-6.681050e-13
-1.276540e-10
1.161650e-10
-1.199390e-10
4.713380e-11
2.264040e-10
1.178340e-10
-6.681050e-13
5.449840e-10
1.161650e-10
2.356690e-10
3.721600e-10
2.264040e-10
-3.613590e-10
-4.353630e-10
-1.276540e-10
1.161650e-10
4.350050e-10
-4.936620e-10
2.264040e-10
1.178340e-10
-4.353630e-10
-1.139070e-10
1.161650e-10
2.356690e-10
-4.936620e-10
-1.255920e-09
-3.613590e-10
-4.353630e-10
1.885350e-10
-1.854870e-11
4.350050e-10
-4.936620e-10
8.444800e-11
2.175860e-10
-4.353630e-10
-1.139070e-10
-1.854870e-11
-1.325640e-10
-4.936620e-10
-1.255920e-09
2.175860e-10
-2.415610e-10
1.885350e-10
-1.854870e-11
6.746020e-10
3.977010e-10
8.444800e-11
2.175860e-10
2.415610e-10
2.645680e-10
-1.854870e-11
-1.325640e-10
3.977010e-10
9.917730e-11
2.175860e-10
-2.415610e-10
2.645680e-10
1.266720e-10
6.746020e-10
3.977010e-10
-6.431790e-10
-4.232680e-10
2.415610e-10
2.645680e-10
4.723200e-10
6.598590e-11
3.977010e-10
9.917730e-11
-4.232680e-10
-2.955680e-10
2.645680e-10
1.266720e-10
6.598590e-11
-2.955680e-10
-6.431790e-10
-4.232680e-10
1.865710e-10
-1.256080e-10
4.723200e-10
6.598590e-11
4.055470e-10
3.642750e-10
-4.232680e-10
-2.955680e-10
-1.256080e-10
-6.559450e-10
6.598590e-11
-2.955680e-10
3.642750e-10
2.062100e-10
1.865710e-10
-1.256080e-10
5.047240e-10
7.427600e-10
4.055470e-10
3.642750e-10
-1.089970e-10
1.367980e-11
-1.256080e-10
-6.559450e-10
7.427600e-10
1.037920e-09
3.642750e-10
2.062100e-10
1.367980e-11
2.484340e-10
5.047240e-10
7.427600e-10
4.880310e-10
2.204340e-10
-1.089970e-10
1.367980e-11
-3.485930e-10
-6.056400e-10
7.427600e-10
1.037920e-09
2.204340e-10
-2.543260e-10
1.367980e-11
2.484340e-10
-6.056400e-10
-1.117460e-09
4.880310e-10
2.204340e-10
-7.570860e-10
3.479860e-11
-3.485930e-10
-6.056400e-10
1.963910e-12
4.372410e-10
2.204340e-10
-2.543260e-10
3.479860e-11
9.161630e-10
-6.056400e-10
-1.117460e-09
4.372410e-10
9.691880e-10
-7.570860e-10
3.479860e-11
9.583870e-10
2.277340e-10
1.963910e-12
4.372410e-10
1.292250e-09
3.391460e-10
3.479860e-11
9.161630e-10
2.277340e-10
-3.377920e-10
4.372410e-10
9.691880e-10
3.391460e-10
-3.161890e-10
9.583870e-10
2.277340e-10
-8.238590e-10
-1.138030e-09
1.292250e-09
3.391460e-10
6.549630e-10
4.961580e-10
2.277340e-10
-3.377920e-10
-1.138030e-09
-1.460160e-09
3.391460e-10
-3.161890e-10
4.961580e-10
1.512210e-10
-8.238590e-10
-1.138030e-09
-5.027600e-10
1.969620e-10
6.549630e-10
4.961580e-10
-7.305730e-10
-1.123520e-10
-1.138030e-09
-1.460160e-09
1.969620e-10
1.077200e-09
4.961580e-10
1.512210e-10
-1.123520e-10
4.526810e-10
-5.027600e-10
1.969620e-10
8.091300e-10
3.479420e-10
-7.305730e-10
-1.123520e-10
3.564490e-10
-3.185070e-10
1.969620e-10
1.077200e-09
3.479420e-10
2.258490e-11
-1.123520e-10
4.526810e-10
-3.185070e-10
-5.548040e-10
8.091300e-10
3.479420e-10
-1.036940e-09
-8.858440e-10
3.564490e-10
-3.185070e-10
-1.080150e-11
4.653560e-10
3.479420e-10
2.258490e-11
-8.858440e-10
-6.716560e-10
-3.185070e-10
-5.548040e-10
4.653560e-10
6.981690e-10
-1.036940e-09
-8.858440e-10
6.775480e-10
4.049040e-10
-1.080150e-11
4.653560e-10
-1.028110e-09
2.292450e-10
-8.858440e-10
-6.716560e-10
4.049040e-10
1.639860e-10
4.653560e-10
6.981690e-10
2.292450e-10
1.157720e-09
6.775480e-10
4.049040e-10
-2.808390e-10
2.519020e-10
-1.028110e-09
2.292450e-10
5.577500e-10
-2.512900e-10
4.049040e-10
1.639860e-10
2.519020e-10
9.564230e-10
2.292450e-10
1.157720e-09
-2.512900e-10
-1.103720e-09
-2.808390e-10
2.519020e-10
-2.828030e-10
1.598400e-10
5.577500e-10
-2.512900e-10
-1.547560e-09
-5.739020e-10
2.519020e-10
9.564230e-10
1.598400e-10
5.420380e-10
-2.512900e-10
-1.103720e-09
-5.739020e-10
4.585720e-10
-2.828030e-10
1.598400e-10
1.284400e-09
7.726470e-10
-1.547560e-09
-5.739020e-10
5.970280e-10
8.845180e-12
1.598400e-10
5.420380e-10
7.726470e-10
1.472930e-11
-5.739020e-10
4.585720e-10
8.845180e-12
-7.168260e-10
1.284400e-09
7.726470e-10
-2.562900e-10
-6.218030e-10
5.970280e-10
8.845180e-12
-3.417200e-10
-1.256640e-10
7.726470e-10
1.472930e-11
-6.218030e-10
-6.097930e-10
8.845180e-12
-7.168260e-10
-1.256640e-10
-3.044060e-11
-2.562900e-10
-6.218030e-10
-4.251860e-10
-2.923860e-10
-3.417200e-10
-1.256640e-10
-9.367840e-10
1.935500e-10
-6.218030e-10
-6.097930e-10
-2.923860e-10
-2.955680e-10
-1.256640e-10
-3.044060e-11
1.935500e-10
1.248060e-09
-4.251860e-10
-2.923860e-10
7.128980e-10
9.759390e-11
-9.367840e-10
1.935500e-10
1.062470e-09
2.664260e-11
-2.923860e-10
-2.955680e-10
9.759390e-11
-4.065290e-10
1.935500e-10
1.248060e-09
2.664260e-11
-9.181260e-10
7.128980e-10
9.759390e-11
-1.505330e-09
-4.827270e-10
1.062470e-09
2.664260e-11
-6.873670e-10
8.244400e-11
9.759390e-11
-4.065290e-10
-4.827270e-10
4.242040e-10
2.664260e-11
-9.181260e-10
8.244400e-11
7.462850e-10
-1.505330e-09
-4.827270e-10
6.107750e-10
1.064270e-10
-6.873670e-10
8.244400e-11
3.348460e-10
-7.729820e-11
-4.827270e-10
4.242040e-10
1.064270e-10
-3.525210e-10
8.244400e-11
7.462850e-10
-7.729820e-11
-3.859080e-10
6.107750e-10
1.064270e-10
-9.495490e-10
-2.105230e-10
3.348460e-10
-7.729820e-11
-6.088110e-11
-7.684960e-11
1.064270e-10
-3.525210e-10
-2.105230e-10
5.253450e-10
-7.729820e-11
-3.859080e-10
-7.684960e-11
-1.620220e-10
-9.495490e-10
-2.105230e-10
1.254940e-09
1.898780e-10
-6.088110e-11
-7.684960e-11
-6.628190e-10
-5.706110e-10
-2.105230e-10
5.253450e-10
1.898780e-10
-9.446390e-10
-7.684960e-11
-1.620220e-10
-5.706110e-10
-4.654460e-10
</DataArray>
<DataArray type="Float32" Name="V2" format="ascii">
0.000000e+00
0.000000e+00
2.313050e-02
2.313050e-02
0.000000e+00
0.000000e+00
-1.595940e-02
-1.595940e-02
0.000000e+00
0.000000e+00
2.313050e-02
2.313050e-02
0.000000e+00
0.000000e+00
-1.595940e-02
-1.595940e-02
2.313050e-02
2.313050e-02
1.571270e-03
1.571270e-03
-1.595940e-02
-1.595940e-02
-4.542670e-03
-4.542670e-03
2.313050e-02
2.313050e-02
1.571270e-03
1.571270e-03
-1.595940e-02
-1.595940e-02
-4.542670e-03
-4.542670e-03
1.571270e-03
1.571270e-03
-2.582710e-02
-2.582710e-02
-4.542670e-03
-4.542670e-03
2.317000e-02
2.317000e-02
1.571270e-03
1.571270e-03
-2.582710e-02
-2.582710e-02
-4.542670e-03
-4.542670e-03
2.317000e-02
2.317000e-02
-2.582710e-02
-2.582710e-02
1.888890e-02
1.888890e-02
2.317000e-02
2.317000e-02
-1.367390e-02
-1.367390e-02
-2.582710e-02
-2.582710e-02
1.888890e-02
1.888890e-02
2.317000e-02
2.317000e-02
-1.367390e-02
-1.367390e-02
1.888890e-02
1.888890e-02
5.165490e-03
5.165490e-03
-1.367390e-02
-1.367390e-02
-2.794270e-03
-2.794270e-03
1.888890e-02
1.888890e-02
5.165490e-03
5.165490e-03
-1.367390e-02
-1.367390e-02
-2.794270e-03
-2.794270e-03
5.165490e-03
5.165490e-03
-1.894230e-02
-1.894230e-02
-2.794270e-03
-2.794270e-03
1.312590e-02
1.312590e-02
5.165490e-03
5.165490e-03
-1.894230e-02
-1.894230e-02
-2.794270e-03
-2.794270e-03
1.312590e-02
1.312590e-02
-1.894230e-02
-1.894230e-02
1.100800e-03
1.100800e-03
1.312590e-02
1.312590e-02
-5.371260e-03
-5.371260e-03
-1.894230e-02
-1.894230e-02
1.100800e-03
1.100800e-03
1.312590e-02
1.312590e-02
-5.371260e-03
-5.371260e-03
1.100800e-03
1.100800e-03
2.374820e-03
2.374820e-03
-5.371260e-03
-5.371260e-03
2.815270e-03
2.815270e-03
1.100800e-03
1.100800e-03
2.374820e-03
2.374820e-03
-5.371260e-03
-5.371260e-03
2.815270e-03
2.815270e-03
2.374820e-03
2.374820e-03
8.970850e-03
8.970860e-03
2.815270e-03
2.815270e-03
-8.593600e-03
-8.593600e-03
2.374820e-03
2.374820e-03
8.970860e-03
8.970860e-03
2.815270e-03
2.815270e-03
-8.593600e-03
-8.593590e-03
8.970850e-03
8.970860e-03
-3.757740e-03
-3.757740e-03
-8.593600e-03
-8.593600e-03
-2.124890e-04
-2.124890e-04
8.970860e-03
8.970860e-03
-3.757740e-03
-3.757740e-03
-8.593600e-03
-8.593590e-03
-2.124890e-04
-2.124890e-04
-3.757740e-03
-3.757740e-03
-1.578300e-02
-1.578300e-02
-2.124890e-04
-2.124890e-04
1.519930e-02
1.519930e-02
-3.757740e-03
-3.757740e-03
-1.578300e-02
-1.578300e-02
-2.124890e-04
-2.124890e-04
1.519930e-02
1.519930e-02
-1.578300e-02
-1.578300e-02
2.581100e-02
2.581100e-02
1.519930e-02
1.519930e-02
-1.400950e-02
-1.400950e-02
-1.578300e-02
-1.578300e-02
2.581100e-02
2.581100e-02
1.519930e-02
1.519930e-02
-1.400950e-02
-1.400950e-02
2.581100e-02
2.581100e-02
8.359070e-03
8.359070e-03
-1.400950e-02
-1.400950e-02
-1.160380e-02
-1.160380e-02
2.581100e-02
2.581100e-02
8.359070e-03
8.359070e-03
-1.400950e-02
-1.400950e-02
-1.160380e-02
-1.160380e-02
8.359070e-03
8.359070e-03
-3.029980e-02
-3.029980e-02
-1.160380e-02
-1.160380e-02
1.794240e-02
1.794240e-02
8.359070e-03
8.359070e-03
-3.029980e-02
-3.029980e-02
-1.160380e-02
-1.160380e-02
1.794240e-02
1.794240e-02
-3.029980e-02
-3.029980e-02
5.936890e-04
5.936900e-04
1.794240e-02
1.794240e-02
8.146600e-04
8.146600e-04
-3.029980e-02
-3.029980e-02
5.936900e-04
5.936910e-04
1.794240e-02
1.794240e-02
8.146600e-04
8.146610e-04
5.936890e-04
5.936900e-04
2.023810e-02
2.023810e-02
8.146600e-04
8.146600e-04
-8.001850e-03
-8.001850e-03
5.936900e-04
5.936910e-04
2.023810e-02
2.023810e-02
8.146600e-04
8.146610e-04
-8.001850e-03
-8.001850e-03
2.023810e-02
2.023810e-02
-2.705150e-02
-2.705150e-02
-8.001850e-03
-8.001850e-03
2.809290e-02
2.809290e-02
2.023810e-02
2.023810e-02
-2.705150e-02
-2.705150e-02
-8.001850e-03
-8.001850e-03
2.809290e-02
2.809290e-02
-2.705150e-02
-2.705150e-02
-6.584540e-03
-6.584540e-03
2.809290e-02
2.809290e-02
-7.998460e-03
-7.998460e-03
-2.705150e-02
-2.705150e-02
-6.584540e-03
-6.584540e-03
2.809290e-02
2.809290e-02
-7.998460e-03
-7.998460e-03
-6.584540e-03
-6.584540e-03
2.151660e-02
2.151660e-02
-7.998460e-03
-7.998460e-03
-1.943860e-02
-1.943860e-02
-6.584540e-03
-6.584540e-03
2.151660e-02
2.151660e-02
-7.998460e-03
-7.998460e-03
-1.943860e-02
-1.943860e-02
2.151660e-02
2.151660e-02
-1.369370e-02
-1.369370e-02
-1.943860e-02
-1.943860e-02
2.461850e-02
2.461850e-02
2.151660e-02
2.151660e-02
-1.369370e-02
-1.369370e-02
-1.943860e-02
-1.943860e-02
2.461850e-02
2.461850e-02
-1.369370e-02
-1.369370e-02
2.025920e-02
2.025920e-02
2.461850e-02
2.461850e-02
-2.011750e-02
-2.011750e-02
-1.369370e-02
-1.369370e-02
2.025920e-02
2.025920e-02
2.461850e-02
2.461850e-02
-2.011750e-02
-2.011750e-02
2.025920e-02
2.025920e-02
2.855280e-03
2.855290e-03
-2.011750e-02
-2.011750e-02
-1.280090e-02
-1.280090e-02
2.025920e-02
2.025920e-02
2.855290e-03
2.855280e-03
-2.011750e-02
-2.011750e-02
-1.280090e-02
-1.280090e-02
2.855280e-03
2.855290e-03
-2.713130e-02
-2.713130e-02
-1.280090e-02
-1.280090e-02
2.242550e-02
2.242550e-02
2.855290e-03
2.855280e-03
-2.713130e-02
-2.713130e-02
-1.280090e-02
-1.280090e-02
2.242550e-02
2.242550e-02
-2.713130e-02
-2.713130e-02
1.483420e-02
1.483410e-02
2.242550e-02
2.242550e-02
-8.133180e-03
-8.133180e-03
-2.713130e-02
-2.713130e-02
1.483410e-02
1.483420e-02
2.242550e-02
2.242550e-02
-8.133180e-03
-8.133180e-03
1.483420e-02
1.483410e-02
-2.220020e-04
-2.220020e-04
-8.133180e-03
-8.133180e-03
-6.476380e-04
-6.476380e-04
1.483410e-02
1.483420e-02
-2.220020e-04
-2.220000e-04
-8.133180e-03
-8.133180e-03
-6.476380e-04
-6.476380e-04
-2.220020e-04
-2.220020e-04
-1.152980e-02
-1.152980e-02
-6.476380e-04
-6.476380e-04
5.664920e-03
5.664920e-03
-2.220020e-04
-2.220000e-04
-1.152980e-02
-1.152980e-02
-6.476380e-04
-6.476380e-04
5.664920e-03
5.664920e-03
-1.152980e-02
-1.152980e-02
1.225750e-02
1.225750e-02
5.664920e-03
5.664920e-03
-9.493090e-03
-9.493090e-03
-1.152980e-02
-1.152980e-02
1.225750e-02
1.225750e-02
5.664920e-03
5.664920e-03
-9.493090e-03
-9.493100e-03
1.225750e-02
1.225750e-02
9.906930e-03
9.906930e-03
-9.493090e-03
-9.493090e-03
-2.681760e-03
-2.681760e-03
1.225750e-02
1.225750e-02
9.906930e-03
9.906930e-03
-9.493090e-03
-9.493100e-03
-2.681760e-03
-2.681760e-03
9.906930e-03
9.906930e-03
1.282330e-02
1.282330e-02
-2.681760e-03
-2.681760e-03
-1.234420e-02
-1.234420e-02
9.906930e-03
9.906930e-03
1.282330e-02
1.282330e-02
-2.681760e-03
-2.681760e-03
-1.234420e-02
-1.234420e-02
1.282330e-02
1.282330e-02
2.224130e-02
2.224130e-02
-1.234420e-02
-1.234420e-02
-2.851290e-02
-2.851290e-02
1.282330e-02
1.282330e-02
2.224130e-02
2.224130e-02
-1.234420e-02
-1.234420e-02
-2.851290e-02
-2.851290e-02
0.000000e+00
0.000000e+00
-1.595940e-02
-1.595940e-02
0.000000e+00
0.000000e+00
8.737260e-03
8.737260e-03
0.000000e+00
0.000000e+00
-1.595940e-02
-1.595940e-02
0.000000e+00
0.000000e+00
8.737260e-03
8.737260e-03
-1.595940e-02
-1.595940e-02
-4.542670e-03
-4.542670e-03
8.737260e-03
8.737260e-03
7.530460e-03
7.530460e-03
-1.595940e-02
-1.595940e-02
-4.542670e-03
-4.542670e-03
8.737260e-03
8.737260e-03
7.530460e-03
7.530460e-03
-4.542670e-03