<?xml version="1.0"?>
<VTKFile type="UnstructuredGrid" version="0.1" byte_order="LittleEndian" compressor="vtkZLibDataCompressor">
<UnstructuredGrid>
<Piece NumberOfPoints="960" NumberOfCells="120">
<Points>
<DataArray type="Float32" NumberOfComponents="3" format="ascii">
-4.000000e+02 -6.000000e+03 -4.000000e+02
0.000000e+00 -6.000000e+03 -4.000000e+02
-3.999950e+02 -5.600060e+03 -3.998640e+02
4.720610e-03 -5.600060e+03 -3.998670e+02
-4.000000e+02 -6.000000e+03 0.000000e+00
0.000000e+00 -6.000000e+03 0.000000e+00
-4.000010e+02 -5.600020e+03 1.386320e-01
-1.285980e-03 -5.600010e+03 1.474390e-01
0.000000e+00 -6.000000e+03 -4.000000e+02
4.000000e+02 -6.000000e+03 -4.000000e+02
4.720610e-03 -5.600060e+03 -3.998670e+02
4.000050e+02 -5.600060e+03 -3.998710e+02
0.000000e+00 -6.000000e+03 0.000000e+00
4.000000e+02 -6.000000e+03 0.000000e+00
-1.285980e-03 -5.600010e+03 1.474390e-01
3.999990e+02 -5.600010e+03 1.562500e-01
-3.999950e+02 -5.600060e+03 -3.998640e+02
4.720610e-03 -5.600060e+03 -3.998670e+02
-4.000090e+02 -5.200080e+03 -3.999370e+02
-9.347360e-03 -5.200080e+03 -3.999470e+02
-4.000010e+02 -5.600020e+03 1.386320e-01
-1.285980e-03 -5.600010e+03 1.474390e-01
-3.999970e+02 -5.199960e+03 -9.919420e-02
3.077010e-03 -5.199960e+03 -1.034640e-01
4.720610e-03 -5.600060e+03 -3.998670e+02
4.000050e+02 -5.600060e+03 -3.998710e+02
-9.347360e-03 -5.200080e+03 -3.999470e+02
3.999910e+02 -5.200080e+03 -3.999570e+02
-1.285980e-03 -5.600010e+03 1.474390e-01
3.999990e+02 -5.600010e+03 1.562500e-01
3.077010e-03 -5.199960e+03 -1.034640e-01
4.000030e+02 -5.199960e+03 -1.077370e-01
-4.000090e+02 -5.200080e+03 -3.999370e+02
-9.347360e-03 -5.200080e+03 -3.999470e+02
-4.000190e+02 -4.800090e+03 -4.001240e+02
-1.856570e-02 -4.800090e+03 -4.001480e+02
-3.999970e+02 -5.199960e+03 -9.919420e-02
3.077010e-03 -5.199960e+03 -1.034640e-01
-3.999970e+02 -4.799950e+03 -6.208020e-02
2.497470e-03 -4.799950e+03 -7.339580e-02
-9.347360e-03 -5.200080e+03 -3.999470e+02
3.999910e+02 -5.200080e+03 -3.999570e+02
-1.856570e-02 -4.800090e+03 -4.001480e+02
3.999810e+02 -4.800090e+03 -4.001710e+02
3.077010e-03 -5.199960e+03 -1.034640e-01
4.000030e+02 -5.199960e+03 -1.077370e-01
2.497470e-03 -4.799950e+03 -7.339580e-02
4.000020e+02 -4.799940e+03 -8.472470e-02
-4.000190e+02 -4.800090e+03 -4.001240e+02
-1.856570e-02 -4.800090e+03 -4.001480e+02
-4.000260e+02 -4.400200e+03 -4.003320e+02
-2.596600e-02 -4.400200e+03 -4.003690e+02
-3.999970e+02 -4.799950e+03 -6.208020e-02
2.497470e-03 -4.799950e+03 -7.339580e-02
-3.999940e+02 -4.399950e+03 -2.462640e-01
5.841040e-03 -4.399950e+03 -2.571450e-01
-1.856570e-02 -4.800090e+03 -4.001480e+02
3.999810e+02 -4.800090e+03 -4.001710e+02
-2.596600e-02 -4.400200e+03 -4.003690e+02
3.999740e+02 -4.400200e+03 -4.004050e+02
2.497470e-03 -4.799950e+03 -7.339580e-02
4.000020e+02 -4.799940e+03 -8.472470e-02
5.841040e-03 -4.399950e+03 -2.571450e-01
4.000060e+02 -4.399950e+03 -2.680400e-01
-4.000260e+02 -4.400200e+03 -4.003320e+02
-2.596600e-02 -4.400200e+03 -4.003690e+02
-4.000260e+02 -4.000170e+03 -4.003610e+02
-2.625510e-02 -4.000180e+03 -4.003950e+02
-3.999940e+02 -4.399950e+03 -2.462640e-01
5.841040e-03 -4.399950e+03 -2.571450e-01
-3.999940e+02 -4.000000e+03 -5.317860e-01
6.136710e-03 -4.000000e+03 -5.582570e-01
-2.596600e-02 -4.400200e+03 -4.003690e+02
3.999740e+02 -4.400200e+03 -4.004050e+02
-2.625510e-02 -4.000180e+03 -4.003950e+02
3.999740e+02 -4.000180e+03 -4.004300e+02
5.841040e-03 -4.399950e+03 -2.571450e-01
4.000060e+02 -4.399950e+03 -2.680400e-01
6.136710e-03 -4.000000e+03 -5.582570e-01
4.000060e+02 -4.000000e+03 -5.847420e-01
-4.000260e+02 -4.000170e+03 -4.003610e+02
-2.625510e-02 -4.000180e+03 -4.003950e+02
-4.000200e+02 -3.600110e+03 -4.003030e+02
-1.983650e-02 -3.600110e+03 -4.003280e+02
-3.999940e+02 -4.000000e+03 -5.317860e-01
6.136710e-03 -4.000000e+03 -5.582570e-01
-3.999970e+02 -3.600020e+03 -6.105520e-01
2.809040e-03 -3.600020e+03 -6.374670e-01
-2.625510e-02 -4.000180e+03 -4.003950e+02
3.999740e+02 -4.000180e+03 -4.004300e+02
-1.983650e-02 -3.600110e+03 -4.003280e+02
3.999800e+02 -3.600110e+03 -4.003530e+02
6.136710e-03 -4.000000e+03 -5.582570e-01
4.000060e+02 -4.000000e+03 -5.847420e-01
2.809040e-03 -3.600020e+03 -6.374670e-01
4.000030e+02 -3.600020e+03 -6.643820e-01
-4.000200e+02 -3.600110e+03 -4.003030e+02
-1.983650e-02 -3.600110e+03 -4.003280e+02
-3.999980e+02 -3.200090e+03 -4.007200e+02
1.932290e-03 -3.200090e+03 -4.007220e+02
-3.999970e+02 -3.600020e+03 -6.105520e-01
2.809040e-03 -3.600020e+03 -6.374670e-01
-4.000010e+02 -3.199940e+03 -6.615910e-01
-1.296790e-03 -3.199940e+03 -6.625200e-01
-1.983650e-02 -3.600110e+03 -4.003280e+02
3.999800e+02 -3.600110e+03 -4.003530e+02
1.932290e-03 -3.200090e+03 -4.007220e+02
4.000020e+02 -3.200090e+03 -4.007240e+02
2.809040e-03 -3.600020e+03 -6.374670e-01
4.000030e+02 -3.600020e+03 -6.643820e-01
-1.296790e-03 -3.199940e+03 -6.625200e-01
3.999990e+02 -3.199940e+03 -6.634530e-01
-3.999980e+02 -3.200090e+03 -4.007200e+02
1.932290e-03 -3.200090e+03 -4.007220e+02
-3.999740e+02 -2.799990e+03 -4.008110e+02
2.588170e-02 -2.799990e+03 -4.007860e+02
-4.000010e+02 -3.199940e+03 -6.615910e-01
-1.296790e-03 -3.199940e+03 -6.625200e-01
-4.000040e+02 -2.799990e+03 -7.958180e-01
-3.958150e-03 -2.799990e+03 -7.745730e-01
1.932290e-03 -3.200090e+03 -4.007220e+02
4.000020e+02 -3.200090e+03 -4.007240e+02
2.588170e-02 -2.799990e+03 -4.007860e+02
4.000260e+02 -2.799990e+03 -4.007600e+02
-1.296790e-03 -3.199940e+03 -6.625200e-01
3.999990e+02 -3.199940e+03 -6.634530e-01
-3.958150e-03 -2.799990e+03 -7.745730e-01
3.999960e+02 -2.799990e+03 -7.533240e-01
-3.999740e+02 -2.799990e+03 -4.008110e+02
2.588170e-02 -2.799990e+03 -4.007860e+02
-3.999680e+02 -2.399940e+03 -4.007860e+02
3.173390e-02 -2.399940e+03 -4.007390e+02
-4.000040e+02 -2.799990e+03 -7.958180e-01
-3.958150e-03 -2.799990e+03 -7.745730e-01
-4.000080e+02 -2.400110e+03 -6.658030e-01
-8.170100e-03 -2.400110e+03 -6.431060e-01
2.588170e-02 -2.799990e+03 -4.007860e+02
4.000260e+02 -2.799990e+03 -4.007600e+02
3.173390e-02 -2.399940e+03 -4.007390e+02
4.000320e+02 -2.399940e+03 -4.006920e+02
-3.958150e-03 -2.799990e+03 -7.745730e-01
3.999960e+02 -2.799990e+03 -7.533240e-01
-8.170100e-03 -2.400110e+03 -6.431060e-01
3.999920e+02 -2.400110e+03 -6.204010e-01
-3.999680e+02 -2.399940e+03 -4.007860e+02
3.173390e-02 -2.399940e+03 -4.007390e+02
-3.999720e+02 -2.000090e+03 -4.007200e+02
2.757530e-02 -2.000090e+03 -4.006900e+02
-4.000080e+02 -2.400110e+03 -6.658030e-01
-8.170100e-03 -2.400110e+03 -6.431060e-01
-4.000090e+02 -2.000020e+03 -7.838220e-01
-8.986790e-03 -2.000010e+03 -7.662810e-01
3.173390e-02 -2.399940e+03 -4.007390e+02
4.000320e+02 -2.399940e+03 -4.006920e+02
2.757530e-02 -2.000090e+03 -4.006900e+02
4.000280e+02 -2.000090e+03 -4.006590e+02
-8.170100e-03 -2.400110e+03 -6.431060e-01
3.999920e+02 -2.400110e+03 -6.204010e-01
-8.986790e-03 -2.000010e+03 -7.662810e-01
3.999910e+02 -2.000010e+03 -7.487350e-01
-3.999720e+02 -2.000090e+03 -4.007200e+02
2.757530e-02 -2.000090e+03 -4.006900e+02
-3.999870e+02 -1.600160e+03 -4.008150e+02
1.283810e-02 -1.600150e+03 -4.008120e+02
-4.000090e+02 -2.000020e+03 -7.838220e-01
-8.986790e-03 -2.000010e+03 -7.662810e-01
-4.000010e+02 -1.599930e+03 -9.804870e-01
-7.692620e-04 -1.599930e+03 -9.722650e-01
2.757530e-02 -2.000090e+03 -4.006900e+02
4.000280e+02 -2.000090e+03 -4.006590e+02
1.283810e-02 -1.600150e+03 -4.008120e+02
4.000130e+02 -1.600150e+03 -4.008100e+02
-8.986790e-03 -2.000010e+03 -7.662810e-01
3.999910e+02 -2.000010e+03 -7.487350e-01
-7.692620e-04 -1.599930e+03 -9.722650e-01
3.999990e+02 -1.599930e+03 -9.640510e-01
-3.999870e+02 -1.600160e+03 -4.008150e+02
1.283810e-02 -1.600150e+03 -4.008120e+02
-4.000020e+02 -1.200010e+03 -4.010520e+02
-1.551960e-03 -1.200000e+03 -4.010620e+02
-4.000010e+02 -1.599930e+03 -9.804870e-01
-7.692620e-04 -1.599930e+03 -9.722650e-01
-3.999950e+02 -1.200050e+03 -8.948190e-01
4.784960e-03 -1.200050e+03 -8.922570e-01
1.283810e-02 -1.600150e+03 -4.008120e+02
4.000130e+02 -1.600150e+03 -4.008100e+02
-1.551960e-03 -1.200000e+03 -4.010620e+02
3.999980e+02 -1.199990e+03 -4.010730e+02
-7.692620e-04 -1.599930e+03 -9.722650e-01
3.999990e+02 -1.599930e+03 -9.640510e-01
4.784960e-03 -1.200050e+03 -8.922570e-01
4.000050e+02 -1.200050e+03 -8.897120e-01
-4.000020e+02 -1.200010e+03 -4.010520e+02
-1.551960e-03 -1.200000e+03 -4.010620e+02
-4.000060e+02 -8.000130e+02 -4.010880e+02
-6.022490e-03 -8.000040e+02 -4.011100e+02
-3.999950e+02 -1.200050e+03 -8.948190e-01
4.784960e-03 -1.200050e+03 -8.922570e-01
-3.999930e+02 -7.999860e+02 -1.118980e+00
7.492190e-03 -7.999900e+02 -1.119880e+00
-1.551960e-03 -1.200000e+03 -4.010620e+02
3.999980e+02 -1.199990e+03 -4.010730e+02
-6.022490e-03 -8.000040e+02 -4.011100e+02
3.999940e+02 -7.999950e+02 -4.011320e+02
4.784960e-03 -1.200050e+03 -8.922570e-01
4.000050e+02 -1.200050e+03 -8.897120e-01
7.492190e-03 -7.999900e+02 -1.119880e+00
4.000070e+02 -7.999940e+02 -1.120780e+00
-4.000060e+02 -8.000130e+02 -4.010880e+02
-6.022490e-03 -8.000040e+02 -4.011100e+02
-4.000130e+02 -4.001480e+02 -4.011720e+02
-1.319510e-02 -4.001390e+02 -4.011850e+02
-3.999930e+02 -7.999860e+02 -1.118980e+00
7.492190e-03 -7.999900e+02 -1.119880e+00
-3.999940e+02 -3.999400e+02 -1.248260e+00
5.848100e-03 -3.999450e+02 -1.260400e+00
-6.022490e-03 -8.000040e+02 -4.011100e+02
3.999940e+02 -7.999950e+02 -4.011320e+02
-1.319510e-02 -4.001390e+02 -4.011850e+02
3.999870e+02 -4.001300e+02 -4.011980e+02
7.492190e-03 -7.999900e+02 -1.119880e+00
4.000070e+02 -7.999940e+02 -1.120780e+00
5.848100e-03 -3.999450e+02 -1.260400e+00
4.000060e+02 -3.999500e+02 -1.272530e+00
-4.000130e+02 -4.001480e+02 -4.011720e+02
-1.319510e-02 -4.001390e+02 -4.011850e+02
-4.000070e+02 -1.555960e-01 -4.015370e+02
-7.267770e-03 -1.555520e-01 -4.015470e+02
-3.999940e+02 -3.999400e+02 -1.248260e+00
5.848100e-03 -3.999450e+02 -1.260400e+00
-3.999990e+02 -1.132680e-02 -1.271040e+00
1.322970e-03 -1.156720e-02 -1.267590e+00
-1.319510e-02 -4.001390e+02 -4.011850e+02
3.999870e+02 -4.001300e+02 -4.011980e+02
[...]
<PointData>
<DataArray type="Float32" Name="V1" format="ascii">
0.000000e+00
0.000000e+00
-5.494570e-03
-5.495800e-03
0.000000e+00
0.000000e+00
1.243020e-03
1.243640e-03
0.000000e+00
0.000000e+00
-5.495800e-03
-5.497040e-03
0.000000e+00
0.000000e+00
1.243640e-03
1.244260e-03
-5.494570e-03
-5.495800e-03
3.555130e-04
3.554890e-04
1.243020e-03
1.243640e-03
-6.987900e-03
-6.985400e-03
-5.495800e-03
-5.497040e-03
3.554890e-04
3.554620e-04
1.243640e-03
1.244260e-03
-6.985400e-03
-6.982900e-03
3.555130e-04
3.554890e-04
-7.218380e-03
-7.219670e-03
-6.987900e-03
-6.985400e-03
1.459030e-03
1.459400e-03
3.554890e-04
3.554620e-04
-7.219670e-03
-7.220980e-03
-6.985400e-03
-6.982900e-03
1.459400e-03
1.459780e-03
-7.218380e-03
-7.219670e-03
-4.098300e-03
-4.101630e-03
1.459030e-03
1.459400e-03
6.171790e-04
6.184470e-04
-7.219670e-03
-7.220980e-03
-4.101630e-03
-4.104940e-03
1.459400e-03
1.459780e-03
6.184470e-04
6.197120e-04
-4.098300e-03
-4.101630e-03
3.411910e-03
3.409370e-03
6.171790e-04
6.184470e-04
-1.542850e-03
-1.544700e-03
-4.101630e-03
-4.104940e-03
3.409370e-03
3.406820e-03
6.184470e-04
6.197120e-04
-1.544700e-03
-1.546550e-03
3.411910e-03
3.409370e-03
1.238340e-03
1.240050e-03
-1.542850e-03
-1.544700e-03
6.654670e-03
6.652880e-03
3.409370e-03
3.406820e-03
1.240050e-03
1.241770e-03
-1.544700e-03
-1.546550e-03
6.652880e-03
6.651090e-03
1.238340e-03
1.240050e-03
-9.942690e-03
-9.935890e-03
6.654670e-03
6.652880e-03
1.094130e-02
1.093400e-02
1.240050e-03
1.241770e-03
-9.935890e-03
-9.929100e-03
6.652880e-03
6.651090e-03
1.093400e-02
1.092660e-02
-9.942690e-03
-9.935890e-03
1.603280e-04
1.638840e-04
1.094130e-02
1.093400e-02
-1.501130e-03
-1.507710e-03
-9.935890e-03
-9.929100e-03
1.638840e-04
1.674520e-04
1.093400e-02
1.092660e-02
-1.507710e-03
-1.514280e-03
1.603280e-04
1.638840e-04
5.320190e-05
5.552800e-05
-1.501130e-03
-1.507710e-03
4.748930e-03
4.747110e-03
1.638840e-04
1.674520e-04
5.552800e-05
5.784130e-05
-1.507710e-03
-1.514280e-03
4.747110e-03
4.745300e-03
5.320190e-05
5.552800e-05
1.582180e-03
1.580720e-03
4.748930e-03
4.747110e-03
-1.263440e-03
-1.260150e-03
5.552800e-05
5.784130e-05
1.580720e-03
1.579250e-03
4.747110e-03
4.745300e-03
-1.260150e-03
-1.256870e-03
1.582180e-03
1.580720e-03
5.938530e-04
5.952300e-04
-1.263440e-03
-1.260150e-03
-1.097750e-02
-1.097750e-02
1.580720e-03
1.579250e-03
5.952300e-04
5.966010e-04
-1.260150e-03
-1.256870e-03
-1.097750e-02
-1.097750e-02
5.938530e-04
5.952300e-04
-9.710960e-04
-9.731090e-04
-1.097750e-02
-1.097750e-02
-5.862750e-03
-5.861030e-03
5.952300e-04
5.966010e-04
-9.731090e-04
-9.751260e-04
-1.097750e-02
-1.097750e-02
-5.861030e-03
-5.859300e-03
-9.710960e-04
-9.731090e-04
4.102420e-03
4.097690e-03
-5.862750e-03
-5.861030e-03
2.899020e-03
2.900080e-03
-9.731090e-04
-9.751260e-04
4.097690e-03
4.092970e-03
-5.861030e-03
-5.859300e-03
2.900080e-03
2.901150e-03
4.102420e-03
4.097690e-03
-1.503620e-02
-1.503590e-02
2.899020e-03
2.900080e-03
1.102670e-02
1.102630e-02
4.097690e-03
4.092970e-03
-1.503590e-02
-1.503570e-02
2.900080e-03
2.901150e-03
1.102630e-02
1.102580e-02
-1.503620e-02
-1.503590e-02
-1.337090e-02
-1.336250e-02
1.102670e-02
1.102630e-02
5.712200e-03
5.709110e-03
-1.503590e-02
-1.503570e-02
-1.336250e-02
-1.335420e-02
1.102630e-02
1.102580e-02
5.709110e-03
5.706030e-03
-1.337090e-02
-1.336250e-02
-6.445060e-03
-6.444270e-03
5.712200e-03
5.709110e-03
7.506340e-03
7.502110e-03
-1.336250e-02
-1.335420e-02
-6.444270e-03
-6.443460e-03
5.709110e-03
5.706030e-03
7.502110e-03
7.497880e-03
-6.445060e-03
-6.444270e-03
1.069400e-03
1.078680e-03
7.506340e-03
7.502110e-03
-1.491110e-03
-1.489100e-03
-6.444270e-03
-6.443460e-03
1.078680e-03
1.087980e-03
7.502110e-03
7.497880e-03
-1.489100e-03
-1.487100e-03
1.069400e-03
1.078680e-03
-1.516110e-03
-1.517230e-03
-1.491110e-03
-1.489100e-03
-4.404030e-03
-4.403120e-03
1.078680e-03
1.087980e-03
-1.517230e-03
-1.518380e-03
-1.489100e-03
-1.487100e-03
-4.403120e-03
-4.402200e-03
-1.516110e-03
-1.517230e-03
-1.056480e-02
-1.057330e-02
-4.404030e-03
-4.403120e-03
3.072170e-03
3.075200e-03
-1.517230e-03
-1.518380e-03
-1.057330e-02
-1.058180e-02
-4.403120e-03
-4.402200e-03
3.075200e-03
3.078220e-03
-1.056480e-02
-1.057330e-02
-4.198280e-03
-4.191120e-03
3.072170e-03
3.075200e-03
-2.945410e-03
-2.949100e-03
-1.057330e-02
-1.058180e-02
-4.191120e-03
-4.183950e-03
3.075200e-03
3.078220e-03
-2.949100e-03
-2.952800e-03
-4.198280e-03
-4.191120e-03
-1.236410e-02
-1.236720e-02
-2.945410e-03
-2.949100e-03
-1.188770e-03
-1.186040e-03
-4.191120e-03
-4.183950e-03
-1.236720e-02
-1.237030e-02
-2.949100e-03
-2.952800e-03
-1.186040e-03
-1.183330e-03
-1.236410e-02
-1.236720e-02
1.871600e-03
1.870480e-03
-1.188770e-03
-1.186040e-03
-1.358210e-03
-1.358500e-03
-1.236720e-02
-1.237030e-02
1.870480e-03
1.869360e-03
-1.186040e-03
-1.183330e-03
-1.358500e-03
-1.358780e-03
1.871600e-03
1.870480e-03
1.975970e-02
1.975940e-02
-1.358210e-03
-1.358500e-03
-1.152740e-02
-1.152390e-02
1.870480e-03
1.869360e-03
1.975940e-02
1.975910e-02
-1.358500e-03
-1.358780e-03
-1.152390e-02
-1.152040e-02
1.975970e-02
1.975940e-02
6.542950e-03
6.554880e-03
-1.152740e-02
-1.152390e-02
1.139920e-03
1.135420e-03
1.975940e-02
1.975910e-02
6.554880e-03
6.566800e-03
-1.152390e-02
-1.152040e-02
1.135420e-03
1.130920e-03
6.542950e-03
6.554880e-03
-9.920680e-03
-9.936390e-03
1.139920e-03
1.135420e-03
9.046400e-03
9.045230e-03
6.554880e-03
6.566800e-03
-9.936390e-03
-9.952100e-03
1.135420e-03
1.130920e-03
9.045230e-03
9.044040e-03
-9.920680e-03
-9.936390e-03
9.554120e-03
9.557040e-03
9.046400e-03
9.045230e-03
-4.657750e-03
-4.654310e-03
-9.936390e-03
-9.952100e-03
9.557040e-03
9.559970e-03
9.045230e-03
9.044040e-03
-4.654310e-03
-4.650880e-03
9.554120e-03
9.557040e-03
2.733600e-03
2.739350e-03
-4.657750e-03
-4.654310e-03
4.857890e-03
4.852210e-03
9.557040e-03
9.559970e-03
2.739350e-03
2.745080e-03
-4.654310e-03
-4.650880e-03
4.852210e-03
4.846550e-03
2.733600e-03
2.739350e-03
-1.248930e-02
-1.248240e-02
4.857890e-03
4.852210e-03
1.813030e-04
1.846810e-04
2.739350e-03
2.745080e-03
-1.248240e-02
-1.247550e-02
4.852210e-03
4.846550e-03
1.846810e-04
1.880590e-04
-1.248930e-02
-1.248240e-02
-2.742000e-03
-2.761330e-03
1.813030e-04
1.846810e-04
-4.520340e-03
-4.522230e-03
-1.248240e-02
-1.247550e-02
-2.761330e-03
-2.780690e-03
1.846810e-04
1.880590e-04
-4.522230e-03
-4.524140e-03
-2.742000e-03
-2.761330e-03
1.568660e-03
1.582540e-03
-4.520340e-03
-4.522230e-03
-1.503240e-03
-1.501640e-03
-2.761330e-03
-2.780690e-03
1.582540e-03
1.596480e-03
-4.522230e-03
-4.524140e-03
-1.501640e-03
-1.500030e-03
0.000000e+00
0.000000e+00
1.243020e-03
1.243640e-03
0.000000e+00
0.000000e+00
3.010110e-03
3.007370e-03
0.000000e+00
0.000000e+00
1.243640e-03
1.244260e-03
0.000000e+00
0.000000e+00
3.007370e-03
3.004630e-03
1.243020e-03
1.243640e-03
-6.987900e-03
-6.985400e-03
3.010110e-03
3.007370e-03
1.371770e-02
1.371680e-02
1.243640e-03
1.244260e-03
-6.985400e-03
-6.982900e-03
3.007370e-03
3.004630e-03
1.371680e-02
1.371590e-02
-6.987900e-03
-6.985400e-03
1.459030e-03
1.459400e-03
1.371770e-02
1.371680e-02
4.227700e-03
4.225410e-03
-6.985400e-03
-6.982900e-03
1.459400e-03
1.459780e-03
1.371680e-02
1.371590e-02
4.225410e-03
4.223130e-03
1.459030e-03
1.459400e-03
6.171790e-04
6.184470e-04
4.227700e-03
4.225410e-03
2.845290e-03
2.842630e-03
1.459400e-03
1.459780e-03
6.184470e-04
6.197120e-04
4.225410e-03
4.223130e-03
2.842630e-03
2.839980e-03
6.171790e-04
6.184470e-04
-1.542850e-03
-1.544700e-03
2.845290e-03
2.842630e-03
-3.079360e-04
-3.074490e-04
6.184470e-04
6.197120e-04
-1.544700e-03
-1.546550e-03
2.842630e-03
2.839980e-03
-3.074490e-04
-3.069580e-04
-1.542850e-03
-1.544700e-03
6.654670e-03
6.652880e-03
-3.079360e-04
-3.074490e-04
-1.456080e-02
-1.455890e-02
-1.544700e-03
-1.546550e-03
6.652880e-03
6.651090e-03
-3.074490e-04
-3.069580e-04
-1.455890e-02
-1.455700e-02
6.654670e-03
6.652880e-03
1.094130e-02
1.093400e-02
-1.456080e-02
-1.455890e-02
-1.198160e-02
-1.197100e-02
6.652880e-03
6.651090e-03
1.093400e-02
1.092660e-02
-1.455890e-02
-1.455700e-02
-1.197100e-02
-1.196030e-02
1.094130e-02
1.093400e-02
-1.501130e-03
-1.507710e-03
-1.198160e-02
-1.197100e-02
2.925270e-03
2.928130e-03
1.093400e-02
1.092660e-02
-1.507710e-03
-1.514280e-03
-1.197100e-02
-1.196030e-02
2.928130e-03
2.931000e-03
-1.501130e-03
-1.507710e-03
4.748930e-03
4.747110e-03
2.925270e-03
2.928130e-03
-9.553950e-03
-9.551660e-03
-1.507710e-03
-1.514280e-03
4.747110e-03
4.745300e-03
2.928130e-03
2.931000e-03
-9.551660e-03
-9.549370e-03
4.748930e-03
4.747110e-03
-1.263440e-03
-1.260150e-03
-9.553950e-03
-9.551660e-03
9.587070e-04
9.554650e-04
4.747110e-03
4.745300e-03
-1.260150e-03
-1.256870e-03
-9.551660e-03
-9.549370e-03
9.554650e-04
9.522250e-04
-1.263440e-03
-1.260150e-03
-1.097750e-02
-1.097750e-02
9.587070e-04
9.554650e-04
2.131610e-02
2.131710e-02
-1.260150e-03
-1.256870e-03
-1.097750e-02
-1.097750e-02
9.554650e-04
9.522250e-04
2.131710e-02
2.131800e-02
-1.097750e-02
-1.097750e-02
-5.862750e-03
-5.861030e-03
2.131610e-02
2.131710e-02
1.276190e-02
1.275630e-02
-1.097750e-02
-1.097750e-02
-5.861030e-03
-5.859300e-03
2.131710e-02
2.131800e-02
1.275630e-02
1.275080e-02
-5.862750e-03
-5.861030e-03
2.899020e-03
2.900080e-03
1.276190e-02
1.275630e-02
-1.003020e-02
-1.002970e-02
-5.861030e-03
-5.859300e-03
2.900080e-03
2.901150e-03
1.275630e-02
1.275080e-02
-1.002970e-02
-1.002930e-02
2.899020e-03
2.900080e-03
1.102670e-02
1.102630e-02
-1.003020e-02
-1.002970e-02
-6.892940e-03
-6.889720e-03
2.900080e-03
2.901150e-03
1.102630e-02
1.102580e-02
-1.002970e-02
-1.002930e-02
-6.889720e-03
-6.886520e-03
1.102670e-02
1.102630e-02
5.712200e-03
5.709110e-03
-6.892940e-03
-6.889720e-03
1.973510e-03
1.973350e-03
1.102630e-02
1.102580e-02
5.709110e-03
5.706030e-03
-6.889720e-03
-6.886520e-03
1.973350e-03
1.973180e-03
5.712200e-03
5.709110e-03
7.506340e-03
7.502110e-03
1.973510e-03
1.973350e-03
-8.704690e-03
-8.696110e-03
5.709110e-03
5.706030e-03
7.502110e-03
7.497880e-03
1.973350e-03
1.973180e-03
-8.696110e-03
-8.687530e-03
7.506340e-03
7.502110e-03
-1.491110e-03
-1.489100e-03
-8.704690e-03
-8.696110e-03
1.988450e-03
1.981610e-03
7.502110e-03
7.497880e-03
-1.489100e-03
-1.487100e-03
-8.696110e-03
-8.687530e-03
1.981610e-03
1.974770e-03
-1.491110e-03
-1.489100e-03
-4.404030e-03
-4.403120e-03
1.988450e-03
1.981610e-03
1.032480e-02
1.032530e-02
-1.489100e-03
-1.487100e-03
-4.403120e-03
-4.402200e-03
1.981610e-03
1.974770e-03
1.032530e-02
1.032580e-02
-4.404030e-03
-4.403120e-03
3.072170e-03
3.075200e-03
1.032480e-02
1.032530e-02
4.298120e-03
4.296730e-03
-4.403120e-03
-4.402200e-03
3.075200e-03
3.078220e-03
1.032530e-02
1.032580e-02
4.296730e-03
4.295340e-03
3.072170e-03
3.075200e-03
-2.945410e-03
-2.949100e-03
4.298120e-03
4.296730e-03
1.029240e-02
1.029520e-02
3.075200e-03
3.078220e-03
-2.949100e-03
-2.952800e-03
4.296730e-03
4.295340e-03
1.029520e-02
1.029810e-02
-2.945410e-03
-2.949100e-03
-1.188770e-03
-1.186040e-03
1.029240e-02
1.029520e-02
1.474240e-02
1.474180e-02
-2.949100e-03
-2.952800e-03
-1.186040e-03
-1.183330e-03
1.029520e-02
1.029810e-02
1.474180e-02
1.474130e-02
-1.188770e-03
-1.186040e-03
-1.358210e-03
-1.358500e-03
1.474240e-02
1.474180e-02
6.546880e-04
6.586390e-04
-1.186040e-03
-1.183330e-03
-1.358500e-03
-1.358780e-03
1.474180e-02
1.474130e-02
6.586390e-04
6.625820e-04
-1.358210e-03
-1.358500e-03
-1.152740e-02
-1.152390e-02
6.546880e-04
6.586390e-04
3.428580e-03
3.424520e-03
-1.358500e-03
-1.358780e-03
-1.152390e-02
-1.152040e-02
6.586390e-04
6.625820e-04
3.424520e-03
3.420430e-03
-1.152740e-02
-1.152390e-02
1.139920e-03
1.135420e-03
3.428580e-03
3.424520e-03
-8.867010e-03
-8.869190e-03
-1.152390e-02
-1.152040e-02
1.135420e-03
1.130920e-03
3.424520e-03
3.420430e-03
-8.869190e-03
-8.871370e-03
1.139920e-03
1.135420e-03
9.046400e-03
9.045230e-03
-8.867010e-03
-8.869190e-03
-8.210940e-03
-8.196930e-03
1.135420e-03
1.130920e-03
9.045230e-03
9.044040e-03
-8.869190e-03
-8.871370e-03
-8.196930e-03
-8.182920e-03
9.046400e-03
9.045230e-03
-4.657750e-03
-4.654310e-03
-8.210940e-03
-8.196930e-03
-2.545620e-04
-2.670460e-04
9.045230e-03
9.044040e-03
-4.654310e-03
-4.650880e-03
-8.196930e-03
-8.182920e-03
-2.670460e-04
-2.795260e-04
-4.657750e-03
-4.654310e-03
4.857890e-03
4.852210e-03
-2.545620e-04
-2.670460e-04
-1.242950e-02
-1.242190e-02
-4.654310e-03
-4.650880e-03
4.852210e-03
4.846550e-03
-2.670460e-04
-2.795260e-04
-1.242190e-02
-1.241430e-02
4.857890e-03
4.852210e-03
1.813030e-04
1.846810e-04
-1.242950e-02
-1.242190e-02
1.211810e-02
1.210610e-02
4.852210e-03
4.846550e-03
1.846810e-04
1.880590e-04
-1.242190e-02
-1.241430e-02
1.210610e-02
1.209410e-02
1.813030e-04
1.846810e-04
-4.520340e-03
-4.522230e-03
1.211810e-02
1.210610e-02
1.179450e-02
1.180140e-02
1.846810e-04
1.880590e-04
-4.522230e-03
-4.524140e-03
1.210610e-02
1.209410e-02
1.180140e-02
1.180830e-02
-4.520340e-03
-4.522230e-03
-1.503240e-03
-1.501640e-03
1.179450e-02
1.180140e-02
1.495390e-03
1.497120e-03
-4.522230e-03
-4.524140e-03
-1.501640e-03
-1.500030e-03
1.180140e-02
1.180830e-02
1.497120e-03
1.498820e-03
</DataArray>
<DataArray type="Float32" Name="V2" format="ascii">
0.000000e+00
0.000000e+00
1.515310e-01
1.487690e-01
0.000000e+00
0.000000e+00
-1.366330e-01
-1.383070e-01
0.000000e+00
0.000000e+00
1.487690e-01
1.460010e-01
0.000000e+00
0.000000e+00
-1.383070e-01
-1.399710e-01
1.515310e-01
1.487690e-01
9.512930e-02
9.471070e-02
-1.366330e-01
-1.383070e-01
-9.558210e-02
-9.829420e-02
1.487690e-01
1.460010e-01
9.471070e-02
9.429000e-02
-1.383070e-01
-1.399710e-01
-9.829420e-02
-1.010100e-01
9.512930e-02
9.471070e-02
-1.268690e-01
-1.288570e-01
-9.558210e-02
-9.829420e-02
9.486110e-02
9.640230e-02
9.471070e-02
9.429000e-02
-1.288570e-01
-1.308290e-01
-9.829420e-02
-1.010100e-01
9.640230e-02
9.794490e-02
-1.268690e-01
-1.288570e-01
2.990400e-02
3.374360e-02
9.486110e-02
9.640230e-02
-5.733420e-03
-5.652870e-03
-1.288570e-01
-1.308290e-01
3.374360e-02
3.757810e-02
9.640230e-02
9.794490e-02
-5.652870e-03
-5.563630e-03
2.990400e-02
3.374360e-02
1.473190e-01
1.497580e-01
-5.733420e-03
-5.652870e-03
-5.380880e-02
-5.324690e-02
3.374360e-02
3.757810e-02
1.497580e-01
1.521960e-01
-5.652870e-03
-5.563630e-03
-5.324690e-02
-5.268600e-02
1.473190e-01
1.497580e-01
-4.241030e-02
-4.737110e-02
-5.380880e-02
-5.324690e-02
-4.555420e-03
-2.553070e-03
1.497580e-01
1.521960e-01
-4.737110e-02
-5.232860e-02
-5.324690e-02
-5.268600e-02
-2.553070e-03
-5.550360e-04
-4.241030e-02
-4.737110e-02
-1.195720e-01
-1.173780e-01
-4.555420e-03
-2.553070e-03
6.052070e-02
5.414180e-02
-4.737110e-02
-5.232860e-02
-1.173780e-01
-1.151990e-01
-2.553070e-03
-5.550360e-04
5.414180e-02
4.777810e-02
-1.195720e-01
-1.173780e-01
-1.718070e-01
-1.611840e-01
6.052070e-02
5.414180e-02
7.859520e-02
7.103440e-02
-1.173780e-01
-1.151990e-01
-1.611840e-01
-1.505440e-01
5.414180e-02
4.777810e-02
7.103440e-02
6.347160e-02
-1.718070e-01
-1.611840e-01
6.309000e-02
7.864590e-02
7.859520e-02
7.103440e-02
-1.120960e-01
-1.153340e-01
-1.611840e-01
-1.505440e-01
7.864590e-02
9.418690e-02
7.103440e-02
6.347160e-02
-1.153340e-01
-1.185710e-01
6.309000e-02
7.864590e-02
4.789340e-02
6.390110e-02
-1.120960e-01
-1.153340e-01
3.093680e-02
2.488660e-02
7.864590e-02
9.418690e-02
6.390110e-02
7.991790e-02
-1.153340e-01
-1.185710e-01
2.488660e-02
1.882790e-02
4.789340e-02
6.390110e-02
-7.184240e-02
-7.005930e-02
3.093680e-02
2.488660e-02
5.516330e-02
5.535560e-02
6.390110e-02
7.991790e-02
-7.005930e-02
-6.826470e-02
2.488660e-02
1.882790e-02
5.535560e-02
5.553250e-02
-7.184240e-02
-7.005930e-02
-5.112650e-02
-5.536770e-02
5.516330e-02
5.535560e-02
-1.600390e-02
-1.439570e-02
-7.005930e-02
-6.826470e-02
-5.536770e-02
-5.964890e-02
5.535560e-02
5.553250e-02
-1.439570e-02
-1.277890e-02
-5.112650e-02
-5.536770e-02
-1.631920e-01
-1.609650e-01
-1.600390e-02
-1.439570e-02
5.074990e-02
4.467900e-02
-5.536770e-02
-5.964890e-02
-1.609650e-01
-1.587320e-01
-1.439570e-02
-1.277890e-02
4.467900e-02
3.860910e-02
-1.631920e-01
-1.609650e-01
1.370390e-02
1.783510e-02
5.074990e-02
4.467900e-02
-7.274610e-03
-6.398100e-03
-1.609650e-01
-1.587320e-01
1.783510e-02
2.198210e-02
4.467900e-02
3.860910e-02
-6.398100e-03
-5.509060e-03
1.370390e-02
1.783510e-02
1.042140e-01
1.045170e-01
-7.274610e-03
-6.398100e-03
2.443280e-02
3.184930e-02
1.783510e-02
2.198210e-02
1.045170e-01
1.047980e-01
-6.398100e-03
-5.509060e-03
3.184930e-02
3.925550e-02
1.042140e-01
1.045170e-01
1.388580e-01
1.391460e-01
2.443280e-02
3.184930e-02
-9.733770e-02
-9.524190e-02
1.045170e-01
1.047980e-01
1.391460e-01
1.394590e-01
3.184930e-02
3.925550e-02
-9.524190e-02
-9.314880e-02
1.388580e-01
1.391460e-01
-9.875060e-03
-5.531210e-03
-9.733770e-02
-9.524190e-02
-7.330240e-02
-7.612840e-02
1.391460e-01
1.394590e-01
-5.531210e-03
-1.154560e-03
-9.524190e-02
-9.314880e-02
-7.612840e-02
-7.896230e-02
-9.875060e-03
-5.531210e-03
-1.415220e-01
-1.442370e-01
-7.330240e-02
-7.612840e-02
7.622170e-02
7.623480e-02
-5.531210e-03
-1.154560e-03
-1.442370e-01
-1.469600e-01
-7.612840e-02
-7.896230e-02
7.623480e-02
7.623520e-02
-1.415220e-01
-1.442370e-01
-1.533640e-02
-2.216530e-02
7.622170e-02
7.623480e-02
-3.567210e-02
-3.095320e-02
-1.442370e-01
-1.469600e-01
-2.216530e-02
-2.899530e-02
7.623480e-02
7.623520e-02
-3.095320e-02
-2.622090e-02
-1.533640e-02
-2.216530e-02
6.123650e-02
5.827530e-02
-3.567210e-02
-3.095320e-02
-4.973540e-02
-4.508140e-02
-2.216530e-02
-2.899530e-02
5.827530e-02
5.531620e-02
-3.095320e-02
-2.622090e-02
-4.508140e-02
-4.041390e-02
6.123650e-02
5.827530e-02
3.718860e-02
3.951920e-02
-4.973540e-02
-4.508140e-02
3.777210e-02
3.316050e-02
5.827530e-02
5.531620e-02
3.951920e-02
4.179980e-02
-4.508140e-02
-4.041390e-02
3.316050e-02
2.856450e-02
3.718860e-02
3.951920e-02
-2.054400e-02
-1.296760e-02
3.777210e-02
3.316050e-02
5.885650e-02
5.347900e-02
3.951920e-02
4.179980e-02
-1.296760e-02
-5.388330e-03
3.316050e-02
2.856450e-02
5.347900e-02
4.808010e-02
-2.054400e-02
-1.296760e-02
-1.609350e-03
1.508840e-03
5.885650e-02
5.347900e-02
-2.155350e-02
-1.923750e-02
-1.296760e-02
-5.388330e-03
1.508840e-03
4.704100e-03
5.347900e-02
4.808010e-02
-1.923750e-02
-1.694720e-02
-1.609350e-03
1.508840e-03
-3.145840e-02
-4.203130e-02
-2.155350e-02
-1.923750e-02
-7.698220e-02
-6.444970e-02
1.508840e-03
4.704100e-03
-4.203130e-02
-5.268890e-02
-1.923750e-02
-1.694720e-02
-6.444970e-02
-5.192380e-02
-3.145840e-02
-4.203130e-02
-1.813850e-01
-1.908320e-01
-7.698220e-02
-6.444970e-02
9.889040e-02
1.033360e-01
-4.203130e-02
-5.268890e-02
-1.908320e-01
-2.003220e-01
-6.444970e-02
-5.192380e-02
1.033360e-01
1.078120e-01
-1.813850e-01
-1.908320e-01
1.960030e-01
1.957840e-01
9.889040e-02
1.033360e-01
-6.297440e-02
-7.741850e-02
-1.908320e-01
-2.003220e-01
1.957840e-01
1.956470e-01
1.033360e-01
1.078120e-01
-7.741850e-02
-9.185110e-02
1.960030e-01
1.957840e-01
2.508900e-01
2.576230e-01
-6.297440e-02
-7.741850e-02
-1.046020e-01
-1.128230e-01
1.957840e-01
1.956470e-01
2.576230e-01
2.643500e-01
-7.741850e-02
-9.185110e-02
-1.128230e-01
-1.210650e-01
2.508900e-01
2.576230e-01
-7.213220e-02
-6.916880e-02
-1.046020e-01
-1.128230e-01
-2.265260e-02
-1.228670e-02
2.576230e-01
2.643500e-01
-6.916880e-02
-6.623590e-02
-1.128230e-01
-1.210650e-01
-1.228670e-02
-1.891950e-03
-7.213220e-02
-6.916880e-02
3.409590e-02
2.176900e-02
-2.265260e-02
-1.228670e-02
-1.343660e-01
-1.166270e-01
-6.916880e-02
-6.623590e-02
2.176900e-02
9.500430e-03
-1.228670e-02
-1.891950e-03
-1.166270e-01
-9.886900e-02
3.409590e-02
2.176900e-02
6.696930e-02
4.741890e-02
-1.343660e-01
-1.166270e-01
-1.347120e-01
-1.169960e-01
2.176900e-02
9.500430e-03
4.741890e-02
2.791940e-02
-1.166270e-01
-9.886900e-02
-1.169960e-01
-9.929400e-02
0.000000e+00
0.000000e+00
-1.366330e-01
-1.383070e-01
0.000000e+00
0.000000e+00
1.178910e-01
1.240980e-01
0.000000e+00
0.000000e+00
-1.383070e-01
-1.399710e-01
0.000000e+00
0.000000e+00
1.240980e-01
1.303020e-01
-1.366330e-01
-1.383070e-01
-9.558210e-02
-9.829420e-02
1.178910e-01
1.240980e-01
9.977580e-02
1.053860e-01
-1.383070e-01
-1.399710e-01
-9.829420e-02
-1.010100e-01
1.240980e-01
1.303020e-01
1.053860e-01
1.109930e-01
-9.558210e-02