<?xml version="1.0"?>
<VTKFile type="UnstructuredGrid" version="0.1" byte_order="LittleEndian" compressor="vtkZLibDataCompressor">
<UnstructuredGrid>
<Piece NumberOfPoints="960" NumberOfCells="120">
<Points>
<DataArray type="Float32" NumberOfComponents="3" format="ascii">
-4.000000e+02 -6.000000e+03 -4.000000e+02
0.000000e+00 -6.000000e+03 -4.000000e+02
-4.001440e+02 -5.601420e+03 -4.010630e+02
1.023770e-01 -5.601320e+03 -4.006320e+02
-4.000000e+02 -6.000000e+03 0.000000e+00
0.000000e+00 -6.000000e+03 0.000000e+00
-3.997890e+02 -5.600340e+03 -5.049160e-01
-5.638660e-02 -5.599780e+03 -4.643280e-01
0.000000e+00 -6.000000e+03 -4.000000e+02
4.000000e+02 -6.000000e+03 -4.000000e+02
1.023770e-01 -5.601320e+03 -4.006320e+02
4.003110e+02 -5.600690e+03 -3.994550e+02
0.000000e+00 -6.000000e+03 0.000000e+00
4.000000e+02 -6.000000e+03 0.000000e+00
-5.638660e-02 -5.599780e+03 -4.643280e-01
3.997020e+02 -5.600210e+03 -1.121040e+00
-4.001440e+02 -5.601420e+03 -4.010630e+02
1.023770e-01 -5.601320e+03 -4.006320e+02
-3.999590e+02 -5.200790e+03 -4.016080e+02
-5.278710e-02 -5.201230e+03 -4.017720e+02
-3.997890e+02 -5.600340e+03 -5.049160e-01
-5.638660e-02 -5.599780e+03 -4.643280e-01
-4.000380e+02 -5.200410e+03 -1.489510e+00
-1.492000e-01 -5.199960e+03 -1.584620e+00
1.023770e-01 -5.601320e+03 -4.006320e+02
4.003110e+02 -5.600690e+03 -3.994550e+02
-5.278710e-02 -5.201230e+03 -4.017720e+02
3.998080e+02 -5.201850e+03 -4.017590e+02
-5.638660e-02 -5.599780e+03 -4.643280e-01
3.997020e+02 -5.600210e+03 -1.121040e+00
-1.492000e-01 -5.199960e+03 -1.584620e+00
3.997960e+02 -5.199880e+03 -2.193310e+00
-3.999590e+02 -5.200790e+03 -4.016080e+02
-5.278710e-02 -5.201230e+03 -4.017720e+02
-3.994590e+02 -4.801230e+03 -4.023510e+02
2.271340e-01 -4.801360e+03 -4.019950e+02
-4.000380e+02 -5.200410e+03 -1.489510e+00
-1.492000e-01 -5.199960e+03 -1.584620e+00
-3.999240e+02 -4.799860e+03 -2.620720e+00
1.415410e-01 -4.799860e+03 -2.930310e+00
-5.278710e-02 -5.201230e+03 -4.017720e+02
3.998080e+02 -5.201850e+03 -4.017590e+02
2.271340e-01 -4.801360e+03 -4.019950e+02
3.999720e+02 -4.802020e+03 -4.031250e+02
-1.492000e-01 -5.199960e+03 -1.584620e+00
3.997960e+02 -5.199880e+03 -2.193310e+00
1.415410e-01 -4.799860e+03 -2.930310e+00
4.001230e+02 -4.799830e+03 -2.511960e+00
-3.994590e+02 -4.801230e+03 -4.023510e+02
2.271340e-01 -4.801360e+03 -4.019950e+02
-4.002320e+02 -4.401680e+03 -4.048060e+02
1.139080e-01 -4.402500e+03 -4.057490e+02
-3.999240e+02 -4.799860e+03 -2.620720e+00
1.415410e-01 -4.799860e+03 -2.930310e+00
-3.999460e+02 -4.400070e+03 -4.357510e+00
-1.196850e-01 -4.399490e+03 -4.434060e+00
2.271340e-01 -4.801360e+03 -4.019950e+02
3.999720e+02 -4.802020e+03 -4.031250e+02
1.139080e-01 -4.402500e+03 -4.057490e+02
4.003660e+02 -4.402070e+03 -4.050870e+02
1.415410e-01 -4.799860e+03 -2.930310e+00
4.001230e+02 -4.799830e+03 -2.511960e+00
-1.196850e-01 -4.399490e+03 -4.434060e+00
3.998230e+02 -4.399900e+03 -4.906270e+00
-4.002320e+02 -4.401680e+03 -4.048060e+02
1.139080e-01 -4.402500e+03 -4.057490e+02
-4.002320e+02 -4.002460e+03 -4.080530e+02
-1.349140e-01 -4.002330e+03 -4.078840e+02
-3.999460e+02 -4.400070e+03 -4.357510e+00
-1.196850e-01 -4.399490e+03 -4.434060e+00
-4.001520e+02 -4.000100e+03 -6.304650e+00
-1.594090e-01 -4.000200e+03 -7.466270e+00
1.139080e-01 -4.402500e+03 -4.057490e+02
4.003660e+02 -4.402070e+03 -4.050870e+02
-1.349140e-01 -4.002330e+03 -4.078840e+02
3.999500e+02 -4.002330e+03 -4.072120e+02
-1.196850e-01 -4.399490e+03 -4.434060e+00
3.998230e+02 -4.399900e+03 -4.906270e+00
-1.594090e-01 -4.000200e+03 -7.466270e+00
3.997520e+02 -4.000100e+03 -8.181450e+00
-4.002320e+02 -4.002460e+03 -4.080530e+02
-1.349140e-01 -4.002330e+03 -4.078840e+02
-4.008160e+02 -3.603610e+03 -4.100810e+02
-4.786840e-01 -3.602830e+03 -4.103900e+02
-4.001520e+02 -4.000100e+03 -6.304650e+00
-1.594090e-01 -4.000200e+03 -7.466270e+00
-4.001000e+02 -3.599710e+03 -9.478020e+00
-3.095630e-01 -3.600310e+03 -1.041010e+01
-1.349140e-01 -4.002330e+03 -4.078840e+02
3.999500e+02 -4.002330e+03 -4.072120e+02
-4.786840e-01 -3.602830e+03 -4.103900e+02
3.998480e+02 -3.603200e+03 -4.088250e+02
-1.594090e-01 -4.000200e+03 -7.466270e+00
3.997520e+02 -4.000100e+03 -8.181450e+00
-3.095630e-01 -3.600310e+03 -1.041010e+01
3.994850e+02 -3.600220e+03 -1.129630e+01
-4.008160e+02 -3.603610e+03 -4.100810e+02
-4.786840e-01 -3.602830e+03 -4.103900e+02
-4.007040e+02 -3.203420e+03 -4.137680e+02
-8.838050e-01 -3.203750e+03 -4.136340e+02
-4.001000e+02 -3.599710e+03 -9.478020e+00
-3.095630e-01 -3.600310e+03 -1.041010e+01
-4.000620e+02 -3.200310e+03 -1.194300e+01
-1.148930e-01 -3.199940e+03 -1.247970e+01
-4.786840e-01 -3.602830e+03 -4.103900e+02
3.998480e+02 -3.603200e+03 -4.088250e+02
-8.838050e-01 -3.203750e+03 -4.136340e+02
3.989330e+02 -3.203750e+03 -4.145970e+02
-3.095630e-01 -3.600310e+03 -1.041010e+01
3.994850e+02 -3.600220e+03 -1.129630e+01
-1.148930e-01 -3.199940e+03 -1.247970e+01
3.998640e+02 -3.199820e+03 -1.350710e+01
-4.007040e+02 -3.203420e+03 -4.137680e+02
-8.838050e-01 -3.203750e+03 -4.136340e+02
-4.010290e+02 -2.803880e+03 -4.152920e+02
-9.911750e-01 -2.803960e+03 -4.162330e+02
-4.000620e+02 -3.200310e+03 -1.194300e+01
-1.148930e-01 -3.199940e+03 -1.247970e+01
-4.000250e+02 -2.800250e+03 -1.592930e+01
-1.391830e-02 -2.800140e+03 -1.684700e+01
-8.838050e-01 -3.203750e+03 -4.136340e+02
3.989330e+02 -3.203750e+03 -4.145970e+02
-9.911750e-01 -2.803960e+03 -4.162330e+02
3.990450e+02 -2.803890e+03 -4.178480e+02
-1.148930e-01 -3.199940e+03 -1.247970e+01
3.998640e+02 -3.199820e+03 -1.350710e+01
-1.391830e-02 -2.800140e+03 -1.684700e+01
3.999800e+02 -2.800110e+03 -1.756700e+01
-4.010290e+02 -2.803880e+03 -4.152920e+02
-9.911750e-01 -2.803960e+03 -4.162330e+02
-4.005920e+02 -2.404640e+03 -4.198270e+02
-5.000290e-01 -2.404290e+03 -4.209230e+02
-4.000250e+02 -2.800250e+03 -1.592930e+01
-1.391830e-02 -2.800140e+03 -1.684700e+01
-3.997870e+02 -2.399760e+03 -2.121440e+01
1.406070e-01 -2.399990e+03 -2.134510e+01
-9.911750e-01 -2.803960e+03 -4.162330e+02
3.990450e+02 -2.803890e+03 -4.178480e+02
-5.000290e-01 -2.404290e+03 -4.209230e+02
3.996020e+02 -2.404810e+03 -4.215720e+02
-1.391830e-02 -2.800140e+03 -1.684700e+01
3.999800e+02 -2.800110e+03 -1.756700e+01
1.406070e-01 -2.399990e+03 -2.134510e+01
4.000840e+02 -2.400020e+03 -2.162240e+01
-4.005920e+02 -2.404640e+03 -4.198270e+02
-5.000290e-01 -2.404290e+03 -4.209230e+02
-4.011080e+02 -2.004670e+03 -4.248530e+02
-5.904720e-01 -2.004490e+03 -4.259010e+02
-3.997870e+02 -2.399760e+03 -2.121440e+01
1.406070e-01 -2.399990e+03 -2.134510e+01
-3.995830e+02 -2.000190e+03 -2.603060e+01
5.556160e-02 -2.000110e+03 -2.594470e+01
-5.000290e-01 -2.404290e+03 -4.209230e+02
3.996020e+02 -2.404810e+03 -4.215720e+02
-5.904720e-01 -2.004490e+03 -4.259010e+02
3.998290e+02 -2.004290e+03 -4.263460e+02
1.406070e-01 -2.399990e+03 -2.134510e+01
4.000840e+02 -2.400020e+03 -2.162240e+01
5.556160e-02 -2.000110e+03 -2.594470e+01
3.997520e+02 -2.000220e+03 -2.618760e+01
-4.011080e+02 -2.004670e+03 -4.248530e+02
-5.904720e-01 -2.004490e+03 -4.259010e+02
-4.008120e+02 -1.605210e+03 -4.300390e+02
-8.195740e-01 -1.605600e+03 -4.305100e+02
-3.995830e+02 -2.000190e+03 -2.603060e+01
5.556160e-02 -2.000110e+03 -2.594470e+01
-3.998770e+02 -1.600170e+03 -2.981110e+01
1.397400e-01 -1.599910e+03 -3.122410e+01
-5.904720e-01 -2.004490e+03 -4.259010e+02
3.998290e+02 -2.004290e+03 -4.263460e+02
-8.195740e-01 -1.605600e+03 -4.305100e+02
3.993610e+02 -1.605080e+03 -4.320140e+02
5.556160e-02 -2.000110e+03 -2.594470e+01
3.997520e+02 -2.000220e+03 -2.618760e+01
1.397400e-01 -1.599910e+03 -3.122410e+01
4.000470e+02 -1.600180e+03 -3.123580e+01
-4.008120e+02 -1.605210e+03 -4.300390e+02
-8.195740e-01 -1.605600e+03 -4.305100e+02
-4.013350e+02 -1.205660e+03 -4.363970e+02
-6.224580e-01 -1.206090e+03 -4.367720e+02
-3.998770e+02 -1.600170e+03 -2.981110e+01
1.397400e-01 -1.599910e+03 -3.122410e+01
-3.998430e+02 -1.200240e+03 -3.554830e+01
-8.739930e-02 -1.200030e+03 -3.605740e+01
-8.195740e-01 -1.605600e+03 -4.305100e+02
3.993610e+02 -1.605080e+03 -4.320140e+02
-6.224580e-01 -1.206090e+03 -4.367720e+02
3.999830e+02 -1.205810e+03 -4.373390e+02
1.397400e-01 -1.599910e+03 -3.122410e+01
4.000470e+02 -1.600180e+03 -3.123580e+01
-8.739930e-02 -1.200030e+03 -3.605740e+01
3.997620e+02 -1.200030e+03 -3.754800e+01
-4.013350e+02 -1.205660e+03 -4.363970e+02
-6.224580e-01 -1.206090e+03 -4.367720e+02
-4.013990e+02 -8.056120e+02 -4.405180e+02
-1.383150e+00 -8.055830e+02 -4.424600e+02
-3.998430e+02 -1.200240e+03 -3.554830e+01
-8.739930e-02 -1.200030e+03 -3.605740e+01
-3.998730e+02 -8.004440e+02 -4.087320e+01
1.595140e-01 -8.005300e+02 -4.147420e+01
-6.224580e-01 -1.206090e+03 -4.367720e+02
3.999830e+02 -1.205810e+03 -4.373390e+02
-1.383150e+00 -8.055830e+02 -4.424600e+02
3.986340e+02 -8.061890e+02 -4.438020e+02
-8.739930e-02 -1.200030e+03 -3.605740e+01
3.997620e+02 -1.200030e+03 -3.754800e+01
1.595140e-01 -8.005300e+02 -4.147420e+01
4.001410e+02 -8.002080e+02 -4.229510e+01
-4.013990e+02 -8.056120e+02 -4.405180e+02
-1.383150e+00 -8.055830e+02 -4.424600e+02
-4.006700e+02 -4.062700e+02 -4.461610e+02
-8.431530e-01 -4.058860e+02 -4.467030e+02
-3.998730e+02 -8.004440e+02 -4.087320e+01
1.595140e-01 -8.005300e+02 -4.147420e+01
-4.001590e+02 -3.998200e+02 -4.712520e+01
1.548870e-02 -4.002910e+02 -4.824250e+01
-1.383150e+00 -8.055830e+02 -4.424600e+02
3.986340e+02 -8.061890e+02 -4.438020e+02
-8.431530e-01 -4.058860e+02 -4.467030e+02
3.989920e+02 -4.061050e+02 -4.484290e+02
1.595140e-01 -8.005300e+02 -4.147420e+01
4.001410e+02 -8.002080e+02 -4.229510e+01
1.548870e-02 -4.002910e+02 -4.824250e+01
4.001130e+02 -4.004300e+02 -4.857040e+01
-4.006700e+02 -4.062700e+02 -4.461610e+02
-8.431530e-01 -4.058860e+02 -4.467030e+02
-4.009050e+02 -6.001870e+00 -4.517450e+02
-7.603480e-01 -6.643860e+00 -4.525250e+02
-4.001590e+02 -3.998200e+02 -4.712520e+01
1.548870e-02 -4.002910e+02 -4.824250e+01
-3.998660e+02 -2.182100e-01 -5.136610e+01
5.627920e-03 5.458700e-02 -5.313650e+01
-8.431530e-01 -4.058860e+02 -4.467030e+02
3.989920e+02 -4.061050e+02 -4.484290e+02
[...]
<PointData>
<DataArray type="Float32" Name="V1" format="ascii">
0.000000e+00
0.000000e+00
-2.289360e-01
1.669170e-01
0.000000e+00
0.000000e+00
3.577980e-01
1.164800e-01
0.000000e+00
0.000000e+00
1.669170e-01
6.932060e-01
0.000000e+00
0.000000e+00
1.164800e-01
-2.296910e-01
-2.289360e-01
1.669170e-01
1.519610e+00
5.408440e-01
3.577980e-01
1.164800e-01
-1.206430e+00
-3.492700e-01
1.669170e-01
6.932060e-01
5.408440e-01
-4.617570e-01
1.164800e-01
-2.296910e-01
-3.492700e-01
5.130630e-01
1.519610e+00
5.408440e-01
-2.834590e-01
2.232370e-01
-1.206430e+00
-3.492700e-01
5.009000e-01
7.320790e-02
5.408440e-01
-4.617570e-01
2.232370e-01
6.628060e-01
-3.492700e-01
5.130630e-01
7.320790e-02
-3.169060e-01
-2.834590e-01
2.232370e-01
1.481790e-01
-1.521750e-01
5.009000e-01
7.320790e-02
1.621870e-02
2.750920e-01
2.232370e-01
6.628060e-01
-1.521750e-01
-4.207920e-01
7.320790e-02
-3.169060e-01
2.750920e-01
4.624280e-01
1.481790e-01
-1.521750e-01
-5.186260e-01
4.517840e-01
1.621870e-02
2.750920e-01
-9.357960e-02
-3.917260e-01
-1.521750e-01
-4.207920e-01
4.517840e-01
1.402080e+00
2.750920e-01
4.624280e-01
-3.917260e-01
-6.429800e-01
-5.186260e-01
4.517840e-01
-2.738910e-01
-8.743370e-01
-9.357960e-02
-3.917260e-01
-2.755570e-02
3.722760e-01
4.517840e-01
1.402080e+00
-8.743370e-01
-1.355670e+00
-3.917260e-01
-6.429800e-01
3.722760e-01
5.926890e-01
-2.738910e-01
-8.743370e-01
1.196640e-01
3.133510e-01
-2.755570e-02
3.722760e-01
1.444490e-02
-1.971180e-01
-8.743370e-01
-1.355670e+00
3.133510e-01
4.601000e-01
3.722760e-01
5.926890e-01
-1.971180e-01
-2.652570e-01
1.196640e-01
3.133510e-01
5.349060e-01
-1.494440e-01
1.444490e-02
-1.971180e-01
-2.952030e-01
4.361890e-03
3.133510e-01
4.601000e-01
-1.494440e-01
-8.073740e-01
-1.971180e-01
-2.652570e-01
4.361890e-03
1.201160e-01
5.349060e-01
-1.494440e-01
-6.241390e-01
-3.525410e-01
-2.952030e-01
4.361890e-03
4.167960e-01
3.161870e-01
-1.494440e-01
-8.073740e-01
-3.525410e-01
1.183240e-01
4.361890e-03
1.201160e-01
3.161870e-01
3.152470e-01
-6.241390e-01
-3.525410e-01
-5.613270e-02
-9.309540e-02
4.167960e-01
3.161870e-01
6.134730e-02
5.779840e-02
-3.525410e-01
1.183240e-01
-9.309540e-02
7.758350e-02
3.161870e-01
3.152470e-01
5.779840e-02
-7.663050e-02
-5.613270e-02
-9.309540e-02
-2.959630e-01
2.422140e-01
6.134730e-02
5.779840e-02
4.235500e-01
-1.342270e-01
-9.309540e-02
7.758350e-02
2.422140e-01
4.807270e-01
5.779840e-02
-7.663050e-02
-1.342270e-01
-6.119480e-01
-2.959630e-01
2.422140e-01
-8.323900e-01
-1.331680e-01
4.235500e-01
-1.342270e-01
5.231430e-01
1.674420e-01
2.422140e-01
4.807270e-01
-1.331680e-01
5.023520e-01
-1.342270e-01
-6.119480e-01
1.674420e-01
-3.459870e-01
-8.323900e-01
-1.331680e-01
-7.348520e-01
-3.465000e-01
5.231430e-01
1.674420e-01
3.546830e-01
7.617900e-02
-1.331680e-01
5.023520e-01
-3.465000e-01
1.083340e-01
1.674420e-01
-3.459870e-01
7.617900e-02
-1.863630e-01
-7.348520e-01
-3.465000e-01
-2.724470e-01
-1.456360e-01
3.546830e-01
7.617900e-02
6.738440e-01
3.062090e-01
-3.465000e-01
1.083340e-01
-1.456360e-01
1.367180e-01
7.617900e-02
-1.863630e-01
3.062090e-01
-1.175920e-02
-2.724470e-01
-1.456360e-01
-1.085810e-02
1.926820e-01
6.738440e-01
3.062090e-01
8.562360e-02
1.374250e-02
-1.456360e-01
1.367180e-01
1.926820e-01
3.286780e-01
3.062090e-01
-1.175920e-02
1.374250e-02
-2.095640e-01
-1.085810e-02
1.926820e-01
1.118760e-01
-6.634830e-01
8.562360e-02
1.374250e-02
-7.239510e-02
5.137450e-01
1.926820e-01
3.286780e-01
-6.634830e-01
-1.492450e+00
1.374250e-02
-2.095640e-01
5.137450e-01
1.277990e+00
1.118760e-01
-6.634830e-01
-8.453410e-01
6.793080e-02
-7.239510e-02
5.137450e-01
4.952530e-01
-1.651270e-01
-6.634830e-01
-1.492450e+00
6.793080e-02
1.236010e+00
5.137450e-01
1.277990e+00
-1.651270e-01
-1.076450e+00
-8.453410e-01
6.793080e-02
4.482290e-01
-1.153530e-01
4.952530e-01
-1.651270e-01
2.885240e-01
3.434490e-01
6.793080e-02
1.236010e+00
-1.153530e-01
-9.217580e-01
-1.651270e-01
-1.076450e+00
3.434490e-01
5.631160e-01
4.482290e-01
-1.153530e-01
-2.440890e-01
8.627290e-03
2.885240e-01
3.434490e-01
-1.771810e-01
-5.132320e-02
-1.153530e-01
-9.217580e-01
8.627290e-03
3.080620e-01
3.434490e-01
5.631160e-01
-5.132320e-02
-4.342900e-02
-2.440890e-01
8.627290e-03
5.736980e-01
6.125830e-01
-1.771810e-01
-5.132320e-02
5.890370e-02
-4.223370e-01
8.627290e-03
3.080620e-01
6.125830e-01
4.939770e-01
-5.132320e-02
-4.342900e-02
-4.223370e-01
-5.678450e-01
5.736980e-01
6.125830e-01
-2.105230e-02
-2.465350e-02
5.890370e-02
-4.223370e-01
-2.738540e-01
-1.425420e-01
6.125830e-01
4.939770e-01
-2.465350e-02
2.506080e-01
-4.223370e-01
-5.678450e-01
-1.425420e-01
-1.821010e-01
-2.105230e-02
-2.465350e-02
6.370710e-01
-2.652280e-02
-2.738540e-01
-1.425420e-01
-1.967170e-01
2.184660e-01
-2.465350e-02
2.506080e-01
-2.652280e-02
-9.633910e-01
-1.425420e-01
-1.821010e-01
2.184660e-01
7.555560e-01
6.370710e-01
-2.652280e-02
3.627950e-01
3.312620e-01
-1.967170e-01
2.184660e-01
-1.066000e-01
-1.211870e-01
-2.652280e-02
-9.633910e-01
3.312620e-01
5.141500e-01
2.184660e-01
7.555560e-01
-1.211870e-01
-1.234780e-01
3.627950e-01
3.312620e-01
-7.136220e-01
-5.648060e-01
-1.066000e-01
-1.211870e-01
7.962620e-01
4.314290e-01
3.312620e-01
5.141500e-01
-5.648060e-01
-4.575490e-01
-1.211870e-01
-1.234780e-01
4.314290e-01
5.670670e-03
-7.136220e-01
-5.648060e-01
4.812300e-01
5.029930e-01
7.962620e-01
4.314290e-01
-2.041570e-01
-1.681800e-01
-5.648060e-01
-4.575490e-01
5.029930e-01
2.852060e-01
4.314290e-01
5.670670e-03
-1.681800e-01
1.615510e-02
4.812300e-01
5.029930e-01
-1.783040e-01
-2.535100e-01
-2.041570e-01
-1.681800e-01
5.257880e-01
3.613370e-01
5.029930e-01
2.852060e-01
-2.535100e-01
-1.606920e-01
-1.681800e-01
1.615510e-02
3.613370e-01
1.530160e-01
-1.783040e-01
-2.535100e-01
3.947990e-01
-3.377850e-01
5.257880e-01
3.613370e-01
-2.128480e-01
2.566140e-01
-2.535100e-01
-1.606920e-01
-3.377850e-01
-1.172000e+00
3.613370e-01
1.530160e-01
2.566140e-01
7.957480e-01
3.947990e-01
-3.377850e-01
1.953170e-01
-2.064850e-02
-2.128480e-01
2.566140e-01
-4.248460e-01
-2.146020e-01
-3.377850e-01
-1.172000e+00
-2.064850e-02
-2.077000e-01
2.566140e-01
7.957480e-01
-2.146020e-01
-1.629300e-01
1.953170e-01
-2.064850e-02
-1.126210e+00
3.213660e-03
-4.248460e-01
-2.146020e-01
9.501910e-01
-1.984580e-02
-2.064850e-02
-2.077000e-01
3.213660e-03
8.115680e-01
-2.146020e-01
-1.629300e-01
-1.984580e-02
-8.164390e-01
-1.126210e+00
3.213660e-03
-4.374680e-01
-2.446680e-01
9.501910e-01
-1.984580e-02
-1.421890e-01
-7.168420e-02
3.213660e-03
8.115680e-01
-2.446680e-01
3.003300e-01
-1.984580e-02
-8.164390e-01
-7.168420e-02
2.768620e-02
0.000000e+00
0.000000e+00
3.577980e-01
1.164800e-01
0.000000e+00
0.000000e+00
-4.626520e-01
-4.158680e-01
0.000000e+00
0.000000e+00
1.164800e-01
-2.296910e-01
0.000000e+00
0.000000e+00
-4.158680e-01
-3.593070e-01
3.577980e-01
1.164800e-01
-1.206430e+00
-3.492700e-01
-4.626520e-01
-4.158680e-01
1.085050e+00
2.140330e-01
1.164800e-01
-2.296910e-01
-3.492700e-01
5.130630e-01
-4.158680e-01
-3.593070e-01
2.140330e-01
-5.506670e-01
-1.206430e+00
-3.492700e-01
5.009000e-01
7.320790e-02
1.085050e+00
2.140330e-01
-7.999160e-01
-3.726430e-01
-3.492700e-01
5.130630e-01
7.320790e-02
-3.169060e-01
2.140330e-01
-5.506670e-01
-3.726430e-01
-1.292370e-01
5.009000e-01
7.320790e-02
1.621870e-02
2.750920e-01
-7.999160e-01
-3.726430e-01
-4.199910e-02
-4.022550e-01
7.320790e-02
-3.169060e-01
2.750920e-01
4.624280e-01
-3.726430e-01
-1.292370e-01
-4.022550e-01
-4.023520e-01
1.621870e-02
2.750920e-01
-9.357960e-02
-3.917260e-01
-4.199910e-02
-4.022550e-01
6.761870e-01
3.626840e-01
2.750920e-01
4.624280e-01
-3.917260e-01
-6.429800e-01
-4.022550e-01
-4.023520e-01
3.626840e-01
-1.384580e-01
-9.357960e-02
-3.917260e-01
-2.755570e-02
3.722760e-01
6.761870e-01
3.626840e-01
3.705240e-01
1.151430e-01
-3.917260e-01
-6.429800e-01
3.722760e-01
5.926890e-01
3.626840e-01
-1.384580e-01
1.151430e-01
5.980650e-02
-2.755570e-02
3.722760e-01
1.444490e-02
-1.971180e-01
3.705240e-01
1.151430e-01
-1.772990e-01
5.698520e-02
3.722760e-01
5.926890e-01
-1.971180e-01
-2.652570e-01
1.151430e-01
5.980650e-02
5.698520e-02
7.339240e-02
1.444490e-02
-1.971180e-01
-2.952030e-01
4.361890e-03
-1.772990e-01
5.698520e-02
4.513270e-02
1.749510e-01
-1.971180e-01
-2.652570e-01
4.361890e-03
1.201160e-01
5.698520e-02
7.339240e-02
1.749510e-01
5.845980e-01
-2.952030e-01
4.361890e-03
4.167960e-01
3.161870e-01
4.513270e-02
1.749510e-01
-2.107270e-01
-3.576860e-01
4.361890e-03
1.201160e-01
3.161870e-01
3.152470e-01
1.749510e-01
5.845980e-01
-3.576860e-01
-6.822880e-01
4.167960e-01
3.161870e-01
6.134730e-02
5.779840e-02
-2.107270e-01
-3.576860e-01
-1.085370e-01
-4.777360e-02
3.161870e-01
3.152470e-01
5.779840e-02
-7.663050e-02
-3.576860e-01
-6.822880e-01
-4.777360e-02
9.746390e-02
6.134730e-02
5.779840e-02
4.235500e-01
-1.342270e-01
-1.085370e-01
-4.777360e-02
-4.218020e-01
6.454690e-02
5.779840e-02
-7.663050e-02
-1.342270e-01
-6.119480e-01
-4.777360e-02
9.746390e-02
6.454690e-02
7.304120e-01
4.235500e-01
-1.342270e-01
5.231430e-01
1.674420e-01
-4.218020e-01
6.454690e-02
-3.163050e-01
-1.780250e-01
-1.342270e-01
-6.119480e-01
1.674420e-01
-3.459870e-01
6.454690e-02
7.304120e-01
-1.780250e-01
1.169780e-01
5.231430e-01
1.674420e-01
3.546830e-01
7.617900e-02
-3.163050e-01
-1.780250e-01
-5.162830e-02
1.547810e-01
1.674420e-01
-3.459870e-01
7.617900e-02
-1.863630e-01
-1.780250e-01
1.169780e-01
1.547810e-01
3.243980e-01
3.546830e-01
7.617900e-02
6.738440e-01
3.062090e-01
-5.162830e-02
1.547810e-01
-8.790460e-01
-3.716190e-01
7.617900e-02
-1.863630e-01
3.062090e-01
-1.175920e-02
1.547810e-01
3.243980e-01
-3.716190e-01
-8.576550e-02
6.738440e-01
3.062090e-01
8.562360e-02
1.374250e-02
-8.790460e-01
-3.716190e-01
-3.221400e-01
-2.590850e-01
3.062090e-01
-1.175920e-02
1.374250e-02
-2.095640e-01
-3.716190e-01
-8.576550e-02
-2.590850e-01
4.092640e-02
8.562360e-02
1.374250e-02
-7.239510e-02
5.137450e-01
-3.221400e-01
-2.590850e-01
8.827040e-02
-3.293500e-01
1.374250e-02
-2.095640e-01
5.137450e-01
1.277990e+00
-2.590850e-01
4.092640e-02
-3.293500e-01
-9.841300e-01
-7.239510e-02
5.137450e-01
4.952530e-01
-1.651270e-01
8.827040e-02
-3.293500e-01
-2.417340e-01
3.020470e-01
5.137450e-01
1.277990e+00
-1.651270e-01
-1.076450e+00
-3.293500e-01
-9.841300e-01
3.020470e-01
7.978170e-01
4.952530e-01
-1.651270e-01
2.885240e-01
3.434490e-01
-2.417340e-01
3.020470e-01
-1.066740e+00
-5.831320e-01
-1.651270e-01
-1.076450e+00
3.434490e-01
5.631160e-01
3.020470e-01
7.978170e-01
-5.831320e-01
-8.646750e-02
2.885240e-01
3.434490e-01
-1.771810e-01
-5.132320e-02
-1.066740e+00
-5.831320e-01
6.032060e-01
5.386920e-02
3.434490e-01
5.631160e-01
-5.132320e-02
-4.342900e-02
-5.831320e-01
-8.646750e-02
5.386920e-02
-2.720240e-01
-1.771810e-01
-5.132320e-02
5.890370e-02
-4.223370e-01
6.032060e-01
5.386920e-02
-6.371180e-01
1.922320e-01
-5.132320e-02
-4.342900e-02
-4.223370e-01
-5.678450e-01
5.386920e-02
-2.720240e-01
1.922320e-01
7.679780e-01
5.890370e-02
-4.223370e-01
-2.738540e-01
-1.425420e-01
-6.371180e-01
1.922320e-01
6.164340e-01
2.570960e-01
-4.223370e-01
-5.678450e-01
-1.425420e-01
-1.821010e-01
1.922320e-01
7.679780e-01
2.570960e-01
7.261370e-02
-2.738540e-01
-1.425420e-01
-1.967170e-01
2.184660e-01
6.164340e-01
2.570960e-01
-3.094990e-01
-3.845830e-01
-1.425420e-01
-1.821010e-01
2.184660e-01
7.555560e-01
2.570960e-01
7.261370e-02
-3.845830e-01
-5.542280e-01
-1.967170e-01
2.184660e-01
-1.066000e-01
-1.211870e-01
-3.094990e-01
-3.845830e-01
-3.320430e-02
-7.578400e-02
2.184660e-01
7.555560e-01
-1.211870e-01
-1.234780e-01
-3.845830e-01
-5.542280e-01
-7.578400e-02
-2.345370e-01
-1.066000e-01
-1.211870e-01
7.962620e-01
4.314290e-01
-3.320430e-02
-7.578400e-02
-8.813330e-01
-2.118390e-01
-1.211870e-01
-1.234780e-01
4.314290e-01
5.670670e-03
-7.578400e-02
-2.345370e-01
-2.118390e-01
4.368750e-01
7.962620e-01
4.314290e-01
-2.041570e-01
-1.681800e-01
-8.813330e-01
-2.118390e-01
-1.870680e-01
-2.796380e-01
4.314290e-01
5.670670e-03
-1.681800e-01
1.615510e-02
-2.118390e-01
4.368750e-01
-2.796380e-01
-3.163770e-01
-2.041570e-01
-1.681800e-01
5.257880e-01
3.613370e-01
-1.870680e-01
-2.796380e-01
-7.204780e-01
-4.230800e-01
-1.681800e-01
1.615510e-02
3.613370e-01
1.530160e-01
-2.796380e-01
-3.163770e-01
-4.230800e-01
-2.916850e-01
5.257880e-01
3.613370e-01
-2.128480e-01
2.566140e-01
-7.204780e-01
-4.230800e-01
-1.308830e-02
-4.621530e-02
3.613370e-01
1.530160e-01
2.566140e-01
7.957480e-01
-4.230800e-01
-2.916850e-01
-4.621530e-02
-4.242140e-01
-2.128480e-01
2.566140e-01
-4.248460e-01
-2.146020e-01
-1.308830e-02
-4.621530e-02
5.449340e-01
3.531400e-01
2.566140e-01
7.957480e-01
-2.146020e-01
-1.629300e-01
-4.621530e-02
-4.242140e-01
3.531400e-01
4.203060e-01
-4.248460e-01
-2.146020e-01
9.501910e-01
-1.984580e-02
5.449340e-01
3.531400e-01
-7.430910e-01
7.328180e-02
-2.146020e-01
-1.629300e-01
-1.984580e-02
-8.164390e-01
3.531400e-01
4.203060e-01
7.328180e-02
9.011850e-01
9.501910e-01
-1.984580e-02
-1.421890e-01
-7.168420e-02
-7.430910e-01
7.328180e-02
8.139120e-01
3.256180e-01
-1.984580e-02
-8.164390e-01
-7.168420e-02
2.768620e-02
7.328180e-02
9.011850e-01
3.256180e-01
-3.121820e-01
</DataArray>
<DataArray type="Float32" Name="V2" format="ascii">
0.000000e+00
0.000000e+00
-5.368600e-01
7.176330e-01
0.000000e+00
0.000000e+00
3.206410e-01
-3.363850e-01
0.000000e+00
0.000000e+00
7.176330e-01
3.853790e-01
0.000000e+00
0.000000e+00
-3.363850e-01
-2.354620e-01
-5.368600e-01
7.176330e-01
-3.899620e-01
-4.131510e-01
3.206410e-01
-3.363850e-01
6.441950e-01
3.076370e-01
7.176330e-01
3.853790e-01
-4.131510e-01
-5.662500e-01
-3.363850e-01
-2.354620e-01
3.076370e-01
2.884040e-02
-3.899620e-01
-4.131510e-01
9.647420e-01
1.588310e-01
6.441950e-01
3.076370e-01
-1.016270e+00
-1.963970e-01
-4.131510e-01
-5.662500e-01
1.588310e-01
-1.988970e-01
3.076370e-01
2.884040e-02
-1.963970e-01
1.990540e-01
9.647420e-01
1.588310e-01
-4.304620e-01
-1.299660e-01
-1.016270e+00
-1.963970e-01
1.463880e-01
-1.741490e-01
1.588310e-01
-1.988970e-01
-1.299660e-01
-3.378200e-01
-1.963970e-01
1.990540e-01
-1.741490e-01
9.652080e-03
-4.304620e-01
-1.299660e-01
-4.577370e-02
2.141230e-01
1.463880e-01
-1.741490e-01
-3.423820e-01
-4.492450e-02
-1.299660e-01
-3.378200e-01
2.141230e-01
-4.966730e-02
-1.741490e-01
9.652080e-03
-4.492450e-02
-1.734310e-01
-4.577370e-02
2.141230e-01
2.338670e-01
2.956810e-01
-3.423820e-01
-4.492450e-02
-2.769900e-01
-9.917540e-02
2.141230e-01
-4.966730e-02
2.956810e-01
-2.123140e-01
-4.492450e-02
-1.734310e-01
-9.917540e-02
5.294380e-03
2.338670e-01
2.956810e-01
2.779690e-01
1.189210e-01
-2.769900e-01
-9.917540e-02
-3.612480e-01
5.622240e-02
2.956810e-01
-2.123140e-01
1.189210e-01
4.407570e-01
-9.917540e-02
5.294380e-03
5.622240e-02
-2.775960e-01
2.779690e-01
1.189210e-01
-5.068930e-01
-2.682550e-01
-3.612480e-01
5.622240e-02
9.226500e-02
1.272620e-01
1.189210e-01
4.407570e-01
-2.682550e-01
3.635580e-02
5.622240e-02
-2.775960e-01
1.272620e-01
-1.818270e-01
-5.068930e-01
-2.682550e-01
6.580880e-01
4.144190e-01
9.226500e-02
1.272620e-01
-1.712210e-01
-1.568530e-01
-2.682550e-01
3.635580e-02
4.144190e-01
-2.511970e-01
1.272620e-01
-1.818270e-01
-1.568530e-01
-2.401590e-01
6.580880e-01
4.144190e-01
7.856470e-01
-4.410420e-01
-1.712210e-01
-1.568530e-01
-6.187010e-01
7.226770e-01
4.144190e-01
-2.511970e-01
-4.410420e-01
2.553780e-01
-1.568530e-01
-2.401590e-01
7.226770e-01
-7.275510e-02
7.856470e-01
-4.410420e-01
-1.218520e+00
2.596150e-01
-6.187010e-01
7.226770e-01
1.086920e+00
-5.257160e-01
-4.410420e-01
2.553780e-01
2.596150e-01
3.591370e-01
7.226770e-01
-7.275510e-02
-5.257160e-01
-3.382130e-01
-1.218520e+00
2.596150e-01
2.716140e-01
3.689250e-01
1.086920e+00
-5.257160e-01
-5.955550e-01
-1.966290e-01
2.596150e-01
3.591370e-01
3.689250e-01
3.786250e-01
-5.257160e-01
-3.382130e-01
-1.966290e-01
-2.937490e-01
2.716140e-01
3.689250e-01
4.119150e-01
-6.607390e-01
-5.955550e-01
-1.966290e-01
-8.264460e-02
1.811230e-01
3.689250e-01
3.786250e-01
-6.607390e-01
3.575340e-01
-1.966290e-01
-2.937490e-01
1.811230e-01
-4.110790e-01
4.119150e-01
-6.607390e-01
-6.318460e-01
1.388740e-01
-8.264460e-02
1.811230e-01
1.626510e-01
3.163030e-01
-6.607390e-01
3.575340e-01
1.388740e-01
3.505940e-01
1.811230e-01
-4.110790e-01
3.163030e-01
-1.438220e-01
-6.318460e-01
1.388740e-01
6.039860e-01
2.935300e-02
1.626510e-01
3.163030e-01
-1.195400e+00
1.642310e-01
1.388740e-01
3.505940e-01
2.935300e-02
5.709740e-02
3.163030e-01
-1.438220e-01
1.642310e-01
1.292100e-01
6.039860e-01
2.935300e-02
-1.809940e+00
-5.300950e-01
-1.195400e+00
1.642310e-01
7.572900e-01
2.220370e-01
2.935300e-02
5.709740e-02
-5.300950e-01
-3.130140e-01
1.642310e-01
1.292100e-01
2.220370e-01
6.756300e-01
-1.809940e+00
-5.300950e-01
-7.931140e-01
1.195410e-02
7.572900e-01
2.220370e-01
9.147930e-01
-5.721500e-02
-5.300950e-01
-3.130140e-01
1.195410e-02
2.438040e-01
2.220370e-01
6.756300e-01
-5.721500e-02
-4.128060e-02
-7.931140e-01
1.195410e-02
7.923760e-01
3.960860e-01
9.147930e-01
-5.721500e-02
-3.691110e-01
-6.674370e-01
1.195410e-02
2.438040e-01
3.960860e-01
1.016180e+00
-5.721500e-02
-4.128060e-02
-6.674370e-01
-8.155970e-01
7.923760e-01
3.960860e-01
-2.024380e-01
-4.472380e-01
-3.691110e-01
-6.674370e-01
7.767930e-01
1.168000e-01
3.960860e-01
1.016180e+00
-4.472380e-01
3.020890e-01
-6.674370e-01
-8.155970e-01
1.168000e-01
1.172350e-01
-2.024380e-01
-4.472380e-01
2.193130e-01
-4.478350e-01
7.767930e-01
1.168000e-01
1.455700e-01
1.952780e-01
-4.472380e-01
3.020890e-01
-4.478350e-01
-4.521900e-02
1.168000e-01
1.172350e-01
1.952780e-01
3.135370e-01
2.193130e-01
-4.478350e-01
-4.175870e-01
-9.854880e-01
1.455700e-01
1.952780e-01
2.949890e-01
6.738660e-01
-4.478350e-01
-4.521900e-02
-9.854880e-01
-6.689070e-02
1.952780e-01
3.135370e-01
6.738660e-01
-5.852720e-02
-4.175870e-01
-9.854880e-01
9.162730e-01
2.418360e-01
2.949890e-01
6.738660e-01
-6.883260e-01
-2.152930e-01
-9.854880e-01
-6.689070e-02
2.418360e-01
1.264920e-01
6.738660e-01
-5.852720e-02
-2.152930e-01
-5.778390e-01
9.162730e-01
2.418360e-01
-1.245240e-01
1.407850e+00
-6.883260e-01
-2.152930e-01
8.985780e-02
-9.174290e-01
2.418360e-01
1.264920e-01
1.407850e+00
4.730970e-01
-2.152930e-01
-5.778390e-01
-9.174290e-01
-4.213960e-01
-1.245240e-01
1.407850e+00
5.760310e-01
-3.546640e-01
8.985780e-02
-9.174290e-01
-8.897840e-02
4.041030e-01
1.407850e+00
4.730970e-01
-3.546640e-01
-3.207880e-01
-9.174290e-01
-4.213960e-01
4.041030e-01
1.859680e-01
5.760310e-01
-3.546640e-01
5.882370e-01
2.636990e-01
-8.897840e-02
4.041030e-01
-4.099040e-01
-2.414710e-02
-3.546640e-01
-3.207880e-01
2.636990e-01
-4.137440e-01
4.041030e-01
1.859680e-01
-2.414710e-02
1.484400e-01
5.882370e-01
2.636990e-01
1.990980e-01
-4.568840e-02
-4.099040e-01
-2.414710e-02
-7.704610e-02
-4.775740e-02
2.636990e-01
-4.137440e-01
-4.568840e-02
-1.470340e+00
-2.414710e-02
1.484400e-01
-4.775740e-02
9.712210e-01
1.990980e-01
-4.568840e-02
1.275340e+00
-5.078610e-01
-7.704610e-02
-4.775740e-02
-2.167550e-01
2.302670e-02
-4.568840e-02
-1.470340e+00
-5.078610e-01
-5.475490e-01
-4.775740e-02
9.712210e-01
2.302670e-02
2.004780e-01
1.275340e+00
-5.078610e-01
7.009330e-01
-6.686090e-01
-2.167550e-01
2.302670e-02
-3.959070e-01
4.035110e-01
-5.078610e-01
-5.475490e-01
-6.686090e-01
2.403490e-01
2.302670e-02
2.004780e-01
4.035110e-01
-3.755720e-02
7.009330e-01
-6.686090e-01
-1.006930e+00
-2.960700e-01
-3.959070e-01
4.035110e-01
8.210750e-01
5.267900e-01
-6.686090e-01
2.403490e-01
-2.960700e-01
6.194770e-02
4.035110e-01
-3.755720e-02
5.267900e-01
-1.655320e-01
-1.006930e+00
-2.960700e-01
-4.208780e-01
-1.066610e-01
8.210750e-01
5.267900e-01
9.083130e-01
5.398430e-01
-2.960700e-01
6.194770e-02
-1.066610e-01
-1.016390e+00
5.267900e-01
-1.655320e-01
5.398430e-01
1.372820e+00
0.000000e+00
0.000000e+00
3.206410e-01
-3.363850e-01
0.000000e+00
0.000000e+00
-1.753930e-01
1.847260e-01
0.000000e+00
0.000000e+00
-3.363850e-01
-2.354620e-01
0.000000e+00
0.000000e+00
1.847260e-01
2.458660e-01
3.206410e-01
-3.363850e-01
6.441950e-01
3.076370e-01
-1.753930e-01
1.847260e-01
-7.086000e-01
-3.977250e-01
-3.363850e-01
-2.354620e-01
3.076370e-01
2.884040e-02
1.847260e-01
2.458660e-01
-3.977250e-01
2.805600e-01