<?xml version="1.0"?>
<VTKFile type="UnstructuredGrid" version="0.1" byte_order="LittleEndian" compressor="vtkZLibDataCompressor">
<UnstructuredGrid>
<Piece NumberOfPoints="960" NumberOfCells="120">
<Points>
<DataArray type="Float32" NumberOfComponents="3" format="ascii">
-4.000000e+02 -6.000000e+03 -4.000000e+02
0.000000e+00 -6.000000e+03 -4.000000e+02
-3.999510e+02 -5.600240e+03 -4.011960e+02
6.188680e-02 -5.600240e+03 -4.002080e+02
-4.000000e+02 -6.000000e+03 0.000000e+00
0.000000e+00 -6.000000e+03 0.000000e+00
-4.001080e+02 -5.599860e+03 -4.963030e-01
-1.196100e-01 -5.599930e+03 -7.918720e-01
0.000000e+00 -6.000000e+03 -4.000000e+02
4.000000e+02 -6.000000e+03 -4.000000e+02
6.188680e-02 -5.600240e+03 -4.002080e+02
4.000770e+02 -5.600130e+03 -3.992270e+02
0.000000e+00 -6.000000e+03 0.000000e+00
4.000000e+02 -6.000000e+03 0.000000e+00
-1.196100e-01 -5.599930e+03 -7.918720e-01
3.998680e+02 -5.600040e+03 -1.129800e+00
-3.999510e+02 -5.600240e+03 -4.011960e+02
6.188680e-02 -5.600240e+03 -4.002080e+02
-3.997930e+02 -5.199910e+03 -4.011340e+02
2.283360e-01 -5.200070e+03 -4.008330e+02
-4.001080e+02 -5.599860e+03 -4.963030e-01
-1.196100e-01 -5.599930e+03 -7.918720e-01
-4.000250e+02 -5.200070e+03 -6.867290e-01
-1.992070e-02 -5.200040e+03 -6.468320e-01
6.188680e-02 -5.600240e+03 -4.002080e+02
4.000770e+02 -5.600130e+03 -3.992270e+02
2.283360e-01 -5.200070e+03 -4.008330e+02
4.002470e+02 -5.200280e+03 -4.005110e+02
-1.196100e-01 -5.599930e+03 -7.918720e-01
3.998680e+02 -5.600040e+03 -1.129800e+00
-1.992070e-02 -5.200040e+03 -6.468320e-01
3.999860e+02 -5.200040e+03 -4.723230e-01
-3.997930e+02 -5.199910e+03 -4.011340e+02
2.283360e-01 -5.200070e+03 -4.008330e+02
-3.998020e+02 -4.800220e+03 -4.013200e+02
2.211740e-01 -4.800130e+03 -4.013930e+02
-4.000250e+02 -5.200070e+03 -6.867290e-01
-1.992070e-02 -5.200040e+03 -6.468320e-01
-3.998580e+02 -4.800040e+03 -1.234330e+00
1.233540e-01 -4.800190e+03 -7.082000e-01
2.283360e-01 -5.200070e+03 -4.008330e+02
4.002470e+02 -5.200280e+03 -4.005110e+02
2.211740e-01 -4.800130e+03 -4.013930e+02
4.002480e+02 -4.800030e+03 -4.014580e+02
-1.992070e-02 -5.200040e+03 -6.468320e-01
3.999860e+02 -5.200040e+03 -4.723230e-01
1.233540e-01 -4.800190e+03 -7.082000e-01
4.001050e+02 -4.800340e+03 -1.121110e-01
-3.998020e+02 -4.800220e+03 -4.013200e+02
2.211740e-01 -4.800130e+03 -4.013930e+02
-4.000390e+02 -4.400590e+03 -4.018790e+02
-4.984360e-02 -4.400690e+03 -4.009480e+02
-3.998580e+02 -4.800040e+03 -1.234330e+00
1.233540e-01 -4.800190e+03 -7.082000e-01
-3.999520e+02 -4.399890e+03 -1.513350e+00
4.996440e-02 -4.399930e+03 -1.606110e+00
2.211740e-01 -4.800130e+03 -4.013930e+02
4.002480e+02 -4.800030e+03 -4.014580e+02
-4.984360e-02 -4.400690e+03 -4.009480e+02
3.999370e+02 -4.400750e+03 -4.001160e+02
1.233540e-01 -4.800190e+03 -7.082000e-01
4.001050e+02 -4.800340e+03 -1.121110e-01
4.996440e-02 -4.399930e+03 -1.606110e+00
4.000530e+02 -4.400000e+03 -1.747490e+00
-4.000390e+02 -4.400590e+03 -4.018790e+02
-4.984360e-02 -4.400690e+03 -4.009480e+02
-3.994850e+02 -4.000510e+03 -4.020470e+02
5.087400e-01 -4.000620e+03 -4.021310e+02
-3.999520e+02 -4.399890e+03 -1.513350e+00
4.996440e-02 -4.399930e+03 -1.606110e+00
-4.001710e+02 -4.000000e+03 -2.108800e+00
-1.818690e-01 -4.000050e+03 -1.588680e+00
-4.984360e-02 -4.400690e+03 -4.009480e+02
3.999370e+02 -4.400750e+03 -4.001160e+02
5.087400e-01 -4.000620e+03 -4.021310e+02
4.005050e+02 -4.000740e+03 -4.021660e+02
4.996440e-02 -4.399930e+03 -1.606110e+00
4.000530e+02 -4.400000e+03 -1.747490e+00
-1.818690e-01 -4.000050e+03 -1.588680e+00
3.998080e+02 -4.000130e+03 -1.126900e+00
-3.994850e+02 -4.000510e+03 -4.020470e+02
5.087400e-01 -4.000620e+03 -4.021310e+02
-3.999230e+02 -3.600440e+03 -4.016080e+02
1.048380e-01 -3.600520e+03 -4.017240e+02
-4.001710e+02 -4.000000e+03 -2.108800e+00
-1.818690e-01 -4.000050e+03 -1.588680e+00
-3.998340e+02 -3.600150e+03 -3.180970e+00
1.550440e-01 -3.600030e+03 -2.726920e+00
5.087400e-01 -4.000620e+03 -4.021310e+02
4.005050e+02 -4.000740e+03 -4.021660e+02
1.048380e-01 -3.600520e+03 -4.017240e+02
4.001250e+02 -3.600600e+03 -4.018670e+02
-1.818690e-01 -4.000050e+03 -1.588680e+00
3.998080e+02 -4.000130e+03 -1.126900e+00
1.550440e-01 -3.600030e+03 -2.726920e+00
4.001460e+02 -3.599910e+03 -2.252370e+00
-3.999230e+02 -3.600440e+03 -4.016080e+02
1.048380e-01 -3.600520e+03 -4.017240e+02
-3.995990e+02 -3.200600e+03 -4.028540e+02
4.266440e-01 -3.200580e+03 -4.029300e+02
-3.998340e+02 -3.600150e+03 -3.180970e+00
1.550440e-01 -3.600030e+03 -2.726920e+00
-3.998860e+02 -3.200130e+03 -3.329730e+00
8.252960e-02 -3.199990e+03 -2.737620e+00
1.048380e-01 -3.600520e+03 -4.017240e+02
4.001250e+02 -3.600600e+03 -4.018670e+02
4.266440e-01 -3.200580e+03 -4.029300e+02
4.004490e+02 -3.200510e+03 -4.030340e+02
1.550440e-01 -3.600030e+03 -2.726920e+00
4.001460e+02 -3.599910e+03 -2.252370e+00
8.252960e-02 -3.199990e+03 -2.737620e+00
4.000500e+02 -3.199870e+03 -2.070040e+00
-3.995990e+02 -3.200600e+03 -4.028540e+02
4.266440e-01 -3.200580e+03 -4.029300e+02
-3.992250e+02 -2.801070e+03 -4.040940e+02
7.511810e-01 -2.800860e+03 -4.039530e+02
-3.998860e+02 -3.200130e+03 -3.329730e+00
8.252960e-02 -3.199990e+03 -2.737620e+00
-3.999520e+02 -2.799910e+03 -5.006960e+00
5.519130e-02 -2.799980e+03 -3.724430e+00
4.266440e-01 -3.200580e+03 -4.029300e+02
4.004490e+02 -3.200510e+03 -4.030340e+02
7.511810e-01 -2.800860e+03 -4.039530e+02
4.007310e+02 -2.800700e+03 -4.037840e+02
8.252960e-02 -3.199990e+03 -2.737620e+00
4.000500e+02 -3.199870e+03 -2.070040e+00
5.519130e-02 -2.799980e+03 -3.724430e+00
4.000630e+02 -2.800030e+03 -2.447650e+00
-3.992250e+02 -2.801070e+03 -4.040940e+02
7.511810e-01 -2.800860e+03 -4.039530e+02
-3.994820e+02 -2.401180e+03 -4.047410e+02
5.380460e-01 -2.401000e+03 -4.046640e+02
-3.999520e+02 -2.799910e+03 -5.006960e+00
5.519130e-02 -2.799980e+03 -3.724430e+00
-3.998990e+02 -2.399980e+03 -5.512690e+00
1.004660e-01 -2.400000e+03 -4.740090e+00
7.511810e-01 -2.800860e+03 -4.039530e+02
4.007310e+02 -2.800700e+03 -4.037840e+02
5.380460e-01 -2.401000e+03 -4.046640e+02
4.005580e+02 -2.400850e+03 -4.046100e+02
5.519130e-02 -2.799980e+03 -3.724430e+00
4.000630e+02 -2.800030e+03 -2.447650e+00
1.004660e-01 -2.400000e+03 -4.740090e+00
4.000980e+02 -2.400030e+03 -3.939960e+00
-3.994820e+02 -2.401180e+03 -4.047410e+02
5.380460e-01 -2.401000e+03 -4.046640e+02
-3.994510e+02 -2.001080e+03 -4.055550e+02
5.392610e-01 -2.001020e+03 -4.054940e+02
-3.998990e+02 -2.399980e+03 -5.512690e+00
1.004660e-01 -2.400000e+03 -4.740090e+00
-3.999810e+02 -2.000000e+03 -6.323560e+00
3.014880e-02 -2.000010e+03 -5.562980e+00
5.380460e-01 -2.401000e+03 -4.046640e+02
4.005580e+02 -2.400850e+03 -4.046100e+02
5.392610e-01 -2.001020e+03 -4.054940e+02
4.005350e+02 -2.001020e+03 -4.053550e+02
1.004660e-01 -2.400000e+03 -4.740090e+00
4.000980e+02 -2.400030e+03 -3.939960e+00
3.014880e-02 -2.000010e+03 -5.562980e+00
4.000430e+02 -1.999990e+03 -4.782800e+00
-3.994510e+02 -2.001080e+03 -4.055550e+02
5.392610e-01 -2.001020e+03 -4.054940e+02
-3.993310e+02 -1.601030e+03 -4.069890e+02
6.672040e-01 -1.600960e+03 -4.062950e+02
-3.999810e+02 -2.000000e+03 -6.323560e+00
3.014880e-02 -2.000010e+03 -5.562980e+00
-3.999290e+02 -1.599880e+03 -7.585090e+00
6.617300e-02 -1.599890e+03 -7.106710e+00
5.392610e-01 -2.001020e+03 -4.054940e+02
4.005350e+02 -2.001020e+03 -4.053550e+02
6.672040e-01 -1.600960e+03 -4.062950e+02
4.006620e+02 -1.600880e+03 -4.055490e+02
3.014880e-02 -2.000010e+03 -5.562980e+00
4.000430e+02 -1.999990e+03 -4.782800e+00
6.617300e-02 -1.599890e+03 -7.106710e+00
4.000580e+02 -1.599900e+03 -6.593000e+00
-3.993310e+02 -1.601030e+03 -4.069890e+02
6.672040e-01 -1.600960e+03 -4.062950e+02
-3.995830e+02 -1.200640e+03 -4.074360e+02
4.588270e-01 -1.200560e+03 -4.073780e+02
-3.999290e+02 -1.599880e+03 -7.585090e+00
6.617300e-02 -1.599890e+03 -7.106710e+00
-4.000860e+02 -1.200240e+03 -8.042140e+00
-1.025840e-01 -1.200110e+03 -7.439470e+00
6.672040e-01 -1.600960e+03 -4.062950e+02
4.006620e+02 -1.600880e+03 -4.055490e+02
4.588270e-01 -1.200560e+03 -4.073780e+02
4.005060e+02 -1.200520e+03 -4.073040e+02
6.617300e-02 -1.599890e+03 -7.106710e+00
4.000580e+02 -1.599900e+03 -6.593000e+00
-1.025840e-01 -1.200110e+03 -7.439470e+00
3.998790e+02 -1.199950e+03 -6.750310e+00
-3.995830e+02 -1.200640e+03 -4.074360e+02
4.588270e-01 -1.200560e+03 -4.073780e+02
-3.997230e+02 -8.006520e+02 -4.076940e+02
3.089050e-01 -8.007280e+02 -4.080650e+02
-4.000860e+02 -1.200240e+03 -8.042140e+00
-1.025840e-01 -1.200110e+03 -7.439470e+00
-3.998730e+02 -7.999900e+02 -9.315240e+00
1.076740e-01 -7.999500e+02 -8.343260e+00
4.588270e-01 -1.200560e+03 -4.073780e+02
4.005060e+02 -1.200520e+03 -4.073040e+02
3.089050e-01 -8.007280e+02 -4.080650e+02
4.003370e+02 -8.008290e+02 -4.083620e+02
-1.025840e-01 -1.200110e+03 -7.439470e+00
3.998790e+02 -1.199950e+03 -6.750310e+00
1.076740e-01 -7.999500e+02 -8.343260e+00
4.000870e+02 -7.999030e+02 -7.365190e+00
-3.997230e+02 -8.006520e+02 -4.076940e+02
3.089050e-01 -8.007280e+02 -4.080650e+02
-3.999130e+02 -4.006730e+02 -4.094730e+02
6.755490e-02 -4.007180e+02 -4.090050e+02
-3.998730e+02 -7.999900e+02 -9.315240e+00
1.076740e-01 -7.999500e+02 -8.343260e+00
-3.999890e+02 -3.998990e+02 -9.238130e+00
3.387040e-02 -4.000230e+02 -9.045760e+00
3.089050e-01 -8.007280e+02 -4.080650e+02
4.003370e+02 -8.008290e+02 -4.083620e+02
6.755490e-02 -4.007180e+02 -4.090050e+02
4.000500e+02 -4.007340e+02 -4.085670e+02
1.076740e-01 -7.999500e+02 -8.343260e+00
4.000870e+02 -7.999030e+02 -7.365190e+00
3.387040e-02 -4.000230e+02 -9.045760e+00
4.000600e+02 -4.001420e+02 -8.818120e+00
-3.999130e+02 -4.006730e+02 -4.094730e+02
6.755490e-02 -4.007180e+02 -4.090050e+02
-3.997870e+02 -8.128560e-01 -4.103310e+02
2.056260e-01 -8.313780e-01 -4.094470e+02
-3.999890e+02 -3.998990e+02 -9.238130e+00
3.387040e-02 -4.000230e+02 -9.045760e+00
-4.001070e+02 2.975890e-02 -9.591400e+00
-1.098820e-01 8.879390e-03 -9.573740e+00
6.755490e-02 -4.007180e+02 -4.090050e+02
4.000500e+02 -4.007340e+02 -4.085670e+02
2.056260e-01 -8.313780e-01 -4.094470e+02
[...]
<PointData>
<DataArray type="Float32" Name="V1" format="ascii">
0.000000e+00
0.000000e+00
9.266360e-02
1.318600e-01
0.000000e+00
0.000000e+00
1.282360e-01
1.190740e-01
0.000000e+00
0.000000e+00
1.318600e-01
1.917320e-01
0.000000e+00
0.000000e+00
1.190740e-01
1.015710e-01
9.266360e-02
1.318600e-01
-2.287260e-02
3.745200e-02
1.282360e-01
1.190740e-01
3.869530e-02
1.098380e-02
1.318600e-01
1.917320e-01
3.745200e-02
1.006750e-01
1.190740e-01
1.015710e-01
1.098380e-02
-1.298720e-02
-2.287260e-02
3.745200e-02
-3.332540e-02
-5.845910e-02
3.869530e-02
1.098380e-02
7.559990e-02
6.963190e-02
3.745200e-02
1.006750e-01
-5.845910e-02
-7.567750e-02
1.098380e-02
-1.298720e-02
6.963190e-02
5.996090e-02
-3.332540e-02
-5.845910e-02
2.591110e-01
2.858350e-01
7.559990e-02
6.963190e-02
-2.001640e-01
-2.204300e-01
-5.845910e-02
-7.567750e-02
2.858350e-01
3.091820e-01
6.963190e-02
5.996090e-02
-2.204300e-01
-2.397020e-01
2.591110e-01
2.858350e-01
-1.564220e-02
1.006070e-02
-2.001640e-01
-2.204300e-01
2.452710e-01
2.057460e-01
2.858350e-01
3.091820e-01
1.006070e-02
2.474560e-02
-2.204300e-01
-2.397020e-01
2.057460e-01
1.692220e-01
-1.564220e-02
1.006070e-02
-1.851720e-01
-1.781050e-01
2.452710e-01
2.057460e-01
-1.092690e-01
-1.163420e-01
1.006070e-02
2.474560e-02
-1.781050e-01
-1.586770e-01
2.057460e-01
1.692220e-01
-1.163420e-01
-1.273040e-01
-1.851720e-01
-1.781050e-01
8.922270e-02
2.791360e-02
-1.092690e-01
-1.163420e-01
-1.407020e-01
-1.518510e-01
-1.781050e-01
-1.586770e-01
2.791360e-02
-2.717670e-02
-1.163420e-01
-1.273040e-01
-1.518510e-01
-1.614910e-01
8.922270e-02
2.791360e-02
-2.669980e-02
-9.724520e-04
-1.407020e-01
-1.518510e-01
-8.141760e-02
-9.949640e-02
2.791360e-02
-2.717670e-02
-9.724520e-04
1.661410e-03
-1.518510e-01
-1.614910e-01
-9.949640e-02
-1.068110e-01
-2.669980e-02
-9.724520e-04
6.697180e-02
7.106890e-02
-8.141760e-02
-9.949640e-02
7.199650e-02
7.622790e-02
-9.724520e-04
1.661410e-03
7.106890e-02
8.019760e-02
-9.949640e-02
-1.068110e-01
7.622790e-02
7.673860e-02
6.697180e-02
7.106890e-02
1.864310e-01
1.464090e-01
7.199650e-02
7.622790e-02
-1.946440e-01
-2.059420e-01
7.106890e-02
8.019760e-02
1.464090e-01
1.164790e-01
7.622790e-02
7.673860e-02
-2.059420e-01
-2.099940e-01
1.864310e-01
1.464090e-01
4.540750e-01
4.484670e-01
-1.946440e-01
-2.059420e-01
-4.076700e-01
-3.802700e-01
1.464090e-01
1.164790e-01
4.484670e-01
4.304640e-01
-2.059420e-01
-2.099940e-01
-3.802700e-01
-3.495750e-01
4.540750e-01
4.484670e-01
2.666670e-01
2.849520e-01
-4.076700e-01
-3.802700e-01
3.936160e-02
4.430330e-02
4.484670e-01
4.304640e-01
2.849520e-01
2.925920e-01
-3.802700e-01
-3.495750e-01
4.430330e-02
6.321240e-02
2.666670e-01
2.849520e-01
-1.539950e-01
-1.927900e-01
3.936160e-02
4.430330e-02
-2.473520e-02
-5.568790e-02
2.849520e-01
2.925920e-01
-1.927900e-01
-2.269460e-01
4.430330e-02
6.321240e-02
-5.568790e-02
-8.122180e-02
-1.539950e-01
-1.927900e-01
1.161340e-01
1.281780e-01
-2.473520e-02
-5.568790e-02
-2.883870e-02
-5.509330e-02
-1.927900e-01
-2.269460e-01
1.281780e-01
1.221770e-01
-5.568790e-02
-8.122180e-02
-5.509330e-02
-7.528010e-02
1.161340e-01
1.281780e-01
2.951390e-01
3.240630e-01
-2.883870e-02
-5.509330e-02
-2.042990e-01
-1.915750e-01
1.281780e-01
1.221770e-01
3.240630e-01
3.327730e-01
-5.509330e-02
-7.528010e-02
-1.915750e-01
-1.732890e-01
2.951390e-01
3.240630e-01
-4.930200e-01
-5.249660e-01
-2.042990e-01
-1.915750e-01
1.345860e-01
1.599750e-01
3.240630e-01
3.327730e-01
-5.249660e-01
-5.538750e-01
-1.915750e-01
-1.732890e-01
1.599750e-01
1.920620e-01
-4.930200e-01
-5.249660e-01
1.250380e-01
9.339120e-02
1.345860e-01
1.599750e-01
-1.166610e-01
-6.477140e-02
-5.249660e-01
-5.538750e-01
9.339120e-02
6.357270e-02
1.599750e-01
1.920620e-01
-6.477140e-02
-5.562300e-03
1.250380e-01
9.339120e-02
-6.956940e-02
-7.994270e-02
-1.166610e-01
-6.477140e-02
1.026430e-01
1.077940e-01
9.339120e-02
6.357270e-02
-7.994270e-02
-9.887670e-02
-6.477140e-02
-5.562300e-03
1.077940e-01
1.217620e-01
-6.956940e-02
-7.994270e-02
-1.168610e-01
-8.972070e-02
1.026430e-01
1.077940e-01
1.058370e-01
1.012450e-01
-7.994270e-02
-9.887670e-02
-8.972070e-02
-5.782960e-02
1.077940e-01
1.217620e-01
1.012450e-01
9.527460e-02
-1.168610e-01
-8.972070e-02
-1.392400e-01
-9.124360e-02
1.058370e-01
1.012450e-01
1.086890e-01
9.925060e-02
-8.972070e-02
-5.782960e-02
-9.124360e-02
-5.645620e-02
1.012450e-01
9.527460e-02
9.925060e-02
9.711520e-02
-1.392400e-01
-9.124360e-02
5.127620e-01
4.843960e-01
1.086890e-01
9.925060e-02
-5.258100e-01
-5.212090e-01
-9.124360e-02
-5.645620e-02
4.843960e-01
4.604780e-01
9.925060e-02
9.711520e-02
-5.212090e-01
-5.149880e-01
5.127620e-01
4.843960e-01
-2.113890e-01
-1.958800e-01
-5.258100e-01
-5.212090e-01
1.411690e-01
1.268880e-01
4.843960e-01
4.604780e-01
-1.958800e-01
-1.810680e-01
-5.212090e-01
-5.149880e-01
1.268880e-01
1.164480e-01
-2.113890e-01
-1.958800e-01
1.903260e-02
2.908310e-02
1.411690e-01
1.268880e-01
-3.939770e-02
-4.189740e-02
-1.958800e-01
-1.810680e-01
2.908310e-02
3.101160e-02
1.268880e-01
1.164480e-01
-4.189740e-02
-4.114190e-02
1.903260e-02
2.908310e-02
6.450210e-02
9.157100e-02
-3.939770e-02
-4.189740e-02
7.425180e-02
7.608080e-02
2.908310e-02
3.101160e-02
9.157100e-02
1.065790e-01
-4.189740e-02
-4.114190e-02
7.608080e-02
7.151000e-02
6.450210e-02
9.157100e-02
1.940960e-01
1.885360e-01
7.425180e-02
7.608080e-02
-1.050000e-02
3.945150e-03
9.157100e-02
1.065790e-01
1.885360e-01
1.703770e-01
7.608080e-02
7.151000e-02
3.945150e-03
2.966960e-02
1.940960e-01
1.885360e-01
-1.064150e-02
-1.574020e-02
-1.050000e-02
3.945150e-03
5.566360e-02
2.951800e-02
1.885360e-01
1.703770e-01
-1.574020e-02
-4.014190e-03
3.945150e-03
2.966960e-02
2.951800e-02
-4.696160e-03
-1.064150e-02
-1.574020e-02
-3.121110e-01
-2.459200e-01
5.566360e-02
2.951800e-02
7.583830e-02
1.315270e-02
-1.574020e-02
-4.014190e-03
-2.459200e-01
-1.611350e-01
2.951800e-02
-4.696160e-03
1.315270e-02
-5.400010e-02
-3.121110e-01
-2.459200e-01
-3.210790e-01
-2.634330e-01
7.583830e-02
1.315270e-02
2.765350e-01
2.484700e-01
-2.459200e-01
-1.611350e-01
-2.634330e-01
-2.194160e-01
1.315270e-02
-5.400010e-02
2.484700e-01
2.178120e-01
-3.210790e-01
-2.634330e-01
1.750970e-01
1.073440e-01
2.765350e-01
2.484700e-01
-9.727460e-02
-6.791190e-02
-2.634330e-01
-2.194160e-01
1.073440e-01
4.751350e-02
2.484700e-01
2.178120e-01
-6.791190e-02
-4.145430e-02
1.750970e-01
1.073440e-01
-1.088520e-01
-7.952880e-02
-9.727460e-02
-6.791190e-02
9.952620e-02
3.780620e-02
1.073440e-01
4.751350e-02
-7.952880e-02
-4.821600e-02
-6.791190e-02
-4.145430e-02
3.780620e-02
-1.954760e-02
0.000000e+00
0.000000e+00
1.282360e-01
1.190740e-01
0.000000e+00
0.000000e+00
-3.575390e-01
-3.485350e-01
0.000000e+00
0.000000e+00
1.190740e-01
1.015710e-01
0.000000e+00
0.000000e+00
-3.485350e-01
-3.408610e-01
1.282360e-01
1.190740e-01
3.869530e-02
1.098380e-02
-3.575390e-01
-3.485350e-01
-7.434050e-02
-8.909780e-02
1.190740e-01
1.015710e-01
1.098380e-02
-1.298720e-02
-3.485350e-01
-3.408610e-01
-8.909780e-02
-1.120630e-01
3.869530e-02
1.098380e-02
7.559990e-02
6.963190e-02
-7.434050e-02
-8.909780e-02
-1.258270e-01
-7.809850e-02
1.098380e-02
-1.298720e-02
6.963190e-02
5.996090e-02
-8.909780e-02
-1.120630e-01
-7.809850e-02
-3.256880e-02
7.559990e-02
6.963190e-02
-2.001640e-01
-2.204300e-01
-1.258270e-01
-7.809850e-02
1.333830e-01
1.522880e-01
6.963190e-02
5.996090e-02
-2.204300e-01
-2.397020e-01
-7.809850e-02
-3.256880e-02
1.522880e-01
1.832560e-01
-2.001640e-01
-2.204300e-01
2.452710e-01
2.057460e-01
1.333830e-01
1.522880e-01
-4.736100e-01
-4.187540e-01
-2.204300e-01
-2.397020e-01
2.057460e-01
1.692220e-01
1.522880e-01
1.832560e-01
-4.187540e-01
-3.625770e-01
2.452710e-01
2.057460e-01
-1.092690e-01
-1.163420e-01
-4.736100e-01
-4.187540e-01
4.400960e-01
4.182260e-01
2.057460e-01
1.692220e-01
-1.163420e-01
-1.273040e-01
-4.187540e-01
-3.625770e-01
4.182260e-01
3.914170e-01
-1.092690e-01
-1.163420e-01
-1.407020e-01
-1.518510e-01
4.400960e-01
4.182260e-01
2.033550e-01
2.743560e-01
-1.163420e-01
-1.273040e-01
-1.518510e-01
-1.614910e-01
4.182260e-01
3.914170e-01
2.743560e-01
3.381170e-01
-1.407020e-01
-1.518510e-01
-8.141760e-02
-9.949640e-02
2.033550e-01
2.743560e-01
1.741530e-01
1.998570e-01
-1.518510e-01
-1.614910e-01
-9.949640e-02
-1.068110e-01
2.743560e-01
3.381170e-01
1.998570e-01
2.363790e-01
-8.141760e-02
-9.949640e-02
7.199650e-02
7.622790e-02
1.741530e-01
1.998570e-01
-2.247210e-01
-2.390910e-01
-9.949640e-02
-1.068110e-01
7.622790e-02
7.673860e-02
1.998570e-01
2.363790e-01
-2.390910e-01
-2.559800e-01
7.199650e-02
7.622790e-02
-1.946440e-01
-2.059420e-01
-2.247210e-01
-2.390910e-01
2.577480e-01
2.995730e-01
7.622790e-02
7.673860e-02
-2.059420e-01
-2.099940e-01
-2.390910e-01
-2.559800e-01
2.995730e-01
3.278340e-01
-1.946440e-01
-2.059420e-01
-4.076700e-01
-3.802700e-01
2.577480e-01
2.995730e-01
3.424980e-01
2.834660e-01
-2.059420e-01
-2.099940e-01
-3.802700e-01
-3.495750e-01
2.995730e-01
3.278340e-01
2.834660e-01
2.162230e-01
-4.076700e-01
-3.802700e-01
3.936160e-02
4.430330e-02
3.424980e-01
2.834660e-01
-3.488680e-01
-3.803940e-01
-3.802700e-01
-3.495750e-01
4.430330e-02
6.321240e-02
2.834660e-01
2.162230e-01
-3.803940e-01
-4.185620e-01
3.936160e-02
4.430330e-02
-2.473520e-02
-5.568790e-02
-3.488680e-01
-3.803940e-01
2.401050e-01
3.204350e-01
4.430330e-02
6.321240e-02
-5.568790e-02
-8.122180e-02
-3.803940e-01
-4.185620e-01
3.204350e-01
3.753320e-01
-2.473520e-02
-5.568790e-02
-2.883870e-02
-5.509330e-02
2.401050e-01
3.204350e-01
-4.840420e-02
-3.948100e-02
-5.568790e-02
-8.122180e-02
-5.509330e-02
-7.528010e-02
3.204350e-01
3.753320e-01
-3.948100e-02
-8.259840e-03
-2.883870e-02
-5.509330e-02
-2.042990e-01
-1.915750e-01
-4.840420e-02
-3.948100e-02
7.141700e-02
5.421570e-02
-5.509330e-02
-7.528010e-02
-1.915750e-01
-1.732890e-01
-3.948100e-02
-8.259840e-03
5.421570e-02
3.565980e-02
-2.042990e-01
-1.915750e-01
1.345860e-01
1.599750e-01
7.141700e-02
5.421570e-02
2.503760e-01
2.250040e-01
-1.915750e-01
-1.732890e-01
1.599750e-01
1.920620e-01
5.421570e-02
3.565980e-02
2.250040e-01
1.878610e-01
1.345860e-01
1.599750e-01
-1.166610e-01
-6.477140e-02
2.503760e-01
2.250040e-01
6.920820e-02
3.297410e-02
1.599750e-01
1.920620e-01
-6.477140e-02
-5.562300e-03
2.250040e-01
1.878610e-01
3.297410e-02
-2.445790e-02
-1.166610e-01
-6.477140e-02
1.026430e-01
1.077940e-01
6.920820e-02
3.297410e-02
-1.155850e-01
-1.438690e-01
-6.477140e-02
-5.562300e-03
1.077940e-01
1.217620e-01
3.297410e-02
-2.445790e-02
-1.438690e-01
-1.761780e-01
1.026430e-01
1.077940e-01
1.058370e-01
1.012450e-01
-1.155850e-01
-1.438690e-01
-8.576580e-02
-8.849770e-02
1.077940e-01
1.217620e-01
1.012450e-01
9.527460e-02
-1.438690e-01
-1.761780e-01
-8.849770e-02
-8.430020e-02
1.058370e-01
1.012450e-01
1.086890e-01
9.925060e-02
-8.576580e-02
-8.849770e-02
-8.583840e-02
-1.225760e-01
1.012450e-01
9.527460e-02
9.925060e-02
9.711520e-02
-8.849770e-02
-8.430020e-02
-1.225760e-01
-1.652700e-01
1.086890e-01
9.925060e-02
-5.258100e-01
-5.212090e-01
-8.583840e-02
-1.225760e-01
5.287100e-01
5.580260e-01
9.925060e-02
9.711520e-02
-5.212090e-01
-5.149880e-01
-1.225760e-01
-1.652700e-01
5.580260e-01
5.955950e-01
-5.258100e-01
-5.212090e-01
1.411690e-01
1.268880e-01
5.287100e-01
5.580260e-01
-5.529350e-02
-6.306780e-02
-5.212090e-01
-5.149880e-01
1.268880e-01
1.164480e-01
5.580260e-01
5.955950e-01
-6.306780e-02
-8.905600e-02
1.411690e-01
1.268880e-01
-3.939770e-02
-4.189740e-02
-5.529350e-02
-6.306780e-02
3.323310e-02
5.531590e-02
1.268880e-01
1.164480e-01
-4.189740e-02
-4.114190e-02
-6.306780e-02
-8.905600e-02
5.531590e-02
8.568510e-02
-3.939770e-02
-4.189740e-02
7.425180e-02
7.608080e-02
3.323310e-02
5.531590e-02
-2.133950e-01
-2.336150e-01
-4.189740e-02
-4.114190e-02
7.608080e-02
7.151000e-02
5.531590e-02
8.568510e-02
-2.336150e-01
-2.386850e-01
7.425180e-02
7.608080e-02
-1.050000e-02
3.945150e-03
-2.133950e-01
-2.336150e-01
-1.894440e-01
-2.232750e-01
7.608080e-02
7.151000e-02
3.945150e-03
2.966960e-02
-2.336150e-01
-2.386850e-01
-2.232750e-01
-2.601970e-01
-1.050000e-02
3.945150e-03
5.566360e-02
2.951800e-02
-1.894440e-01
-2.232750e-01
-6.450000e-02
-2.011480e-02
3.945150e-03
2.966960e-02
2.951800e-02
-4.696160e-03
-2.232750e-01
-2.601970e-01
-2.011480e-02
1.119880e-02
5.566360e-02
2.951800e-02
7.583830e-02
1.315270e-02
-6.450000e-02
-2.011480e-02
1.457440e-01
2.278320e-01
2.951800e-02
-4.696160e-03
1.315270e-02
-5.400010e-02
-2.011480e-02
1.119880e-02
2.278320e-01
2.988400e-01
7.583830e-02
1.315270e-02
2.765350e-01
2.484700e-01
1.457440e-01
2.278320e-01
-2.505210e-01
-2.645290e-01
1.315270e-02
-5.400010e-02
2.484700e-01
2.178120e-01
2.278320e-01
2.988400e-01
-2.645290e-01
-2.618230e-01
2.765350e-01
2.484700e-01
-9.727460e-02
-6.791190e-02
-2.505210e-01
-2.645290e-01
4.917050e-02
6.973670e-02
2.484700e-01
2.178120e-01
-6.791190e-02
-4.145430e-02
-2.645290e-01
-2.618230e-01
6.973670e-02
9.603680e-02
-9.727460e-02
-6.791190e-02
9.952620e-02
3.780620e-02
4.917050e-02
6.973670e-02
-9.242980e-02
-3.779640e-02
-6.791190e-02
-4.145430e-02
3.780620e-02
-1.954760e-02
6.973670e-02
9.603680e-02
-3.779640e-02
1.293130e-03
</DataArray>
<DataArray type="Float32" Name="V2" format="ascii">
0.000000e+00
0.000000e+00
5.958050e-01
1.058900e-01
0.000000e+00
0.000000e+00
-2.335570e-01
1.658470e-01
0.000000e+00
0.000000e+00
1.058900e-01
-3.945850e-01
0.000000e+00
0.000000e+00
1.658470e-01
4.796090e-01
5.958050e-01
1.058900e-01
-4.010420e-01
-2.459880e-02
-2.335570e-01
1.658470e-01
5.698500e-01
1.234340e-01
1.058900e-01
-3.945850e-01
-2.459880e-02
1.966720e-01
1.658470e-01
4.796090e-01
1.234340e-01
-3.366480e-01
-4.010420e-01
-2.459880e-02
-3.714820e-01
-1.640520e-01
5.698500e-01
1.234340e-01
1.686320e-01
9.070480e-02
-2.459880e-02
1.966720e-01
-1.640520e-01
5.460760e-02
1.234340e-01
-3.366480e-01
9.070480e-02
1.415620e-01
-3.714820e-01
-1.640520e-01
1.648170e-02
1.151970e-01
1.686320e-01
9.070480e-02
-2.191080e-01
-2.386430e-01
-1.640520e-01
5.460760e-02
1.151970e-01
1.942240e-01
9.070480e-02
1.415620e-01
-2.386430e-01
-1.732470e-01
1.648170e-02
1.151970e-01
1.415320e-01
-1.078370e-01
-2.191080e-01
-2.386430e-01
-1.749710e-01
1.188050e-02
1.151970e-01
1.942240e-01
-1.078370e-01
-2.888400e-01
-2.386430e-01
-1.732470e-01
1.188050e-02
1.310410e-01
1.415320e-01
-1.078370e-01
-5.047100e-01
1.482330e-01
-1.749710e-01
1.188050e-02
2.234880e-01
-5.447560e-02
-1.078370e-01
-2.888400e-01
1.482330e-01
5.248030e-01
1.188050e-02
1.310410e-01
-5.447560e-02
-2.568770e-01
-5.047100e-01
1.482330e-01
5.474320e-01
5.473500e-01
2.234880e-01
-5.447560e-02
-1.212580e-01
-2.451590e-01
1.482330e-01
5.248030e-01
5.473500e-01
5.822310e-01
-5.447560e-02
-2.568770e-01
-2.451590e-01
-3.198950e-01
5.474320e-01
5.473500e-01
6.067400e-01
1.126890e-01
-1.212580e-01
-2.451590e-01
-2.321660e-01
5.555250e-02
5.473500e-01
5.822310e-01
1.126890e-01
-3.106740e-01
-2.451590e-01
-3.198950e-01
5.555250e-02
1.795950e-01
6.067400e-01
1.126890e-01
-3.228550e-01
-3.010230e-01
-2.321660e-01
5.555250e-02
1.617480e-01
1.523810e-01
1.126890e-01
-3.106740e-01
-3.010230e-01
-3.011510e-01
5.555250e-02
1.795950e-01
1.523810e-01
1.346670e-01
-3.228550e-01
-3.010230e-01
-3.791090e-01
-3.709530e-01
1.617480e-01
1.523810e-01
1.260460e-01
6.980620e-02
-3.010230e-01
-3.011510e-01
-3.709530e-01
-2.838350e-01
1.523810e-01
1.346670e-01
6.980620e-02
1.582960e-01
-3.791090e-01
-3.709530e-01
2.667240e-01
6.416400e-02
1.260460e-01
6.980620e-02
-3.150260e-01
-1.489390e-01
-3.709530e-01
-2.838350e-01
6.416400e-02
-1.081830e-01
6.980620e-02
1.582960e-01
-1.489390e-01
-5.855730e-02
2.667240e-01
6.416400e-02
5.284470e-02
1.991680e-01
-3.150260e-01
-1.489390e-01
-1.524760e-02
5.787550e-02
6.416400e-02
-1.081830e-01
1.991680e-01
2.547700e-01
-1.489390e-01
-5.855730e-02
5.787550e-02
1.051240e-01
5.284470e-02
1.991680e-01
1.977770e-01
3.582690e-01
-1.524760e-02
5.787550e-02
6.084480e-02
1.325340e-02
1.991680e-01
2.547700e-01
3.582690e-01
4.576170e-01
5.787550e-02
1.051240e-01
1.325340e-02
1.346360e-02
1.977770e-01
3.582690e-01
2.135990e-01
9.221860e-02
6.084480e-02
1.325340e-02
-1.321230e-01
-1.130330e-01
3.582690e-01
4.576170e-01
9.221860e-02
1.025390e-01
1.325340e-02
1.346360e-02
-1.130330e-01
-1.534440e-01
2.135990e-01
9.221860e-02
-4.903530e-01
-2.140450e-01
-1.321230e-01
-1.130330e-01
3.481880e-01
2.808450e-01
9.221860e-02
1.025390e-01
-2.140450e-01
-1.392540e-01
-1.130330e-01
-1.534440e-01
2.808450e-01
2.907380e-01
-4.903530e-01
-2.140450e-01
-2.802810e-01
-3.558200e-02
3.481880e-01
2.808450e-01
4.822190e-02
1.684530e-02
-2.140450e-01
-1.392540e-01
-3.558200e-02
2.605190e-01
2.808450e-01
2.907380e-01
1.684530e-02
-7.875630e-02
-2.802810e-01
-3.558200e-02
-1.085920e-01
1.685890e-01
4.822190e-02
1.684530e-02
-1.324150e-02
-2.434160e-01
-3.558200e-02
2.605190e-01
1.685890e-01
2.386230e-01
1.684530e-02
-7.875630e-02
-2.434160e-01
-3.353630e-01
-1.085920e-01
1.685890e-01
1.033330e-01
5.379850e-02
-1.324150e-02
-2.434160e-01
6.918680e-02
1.327300e-01
1.685890e-01
2.386230e-01
5.379850e-02
2.967230e-01
-2.434160e-01
-3.353630e-01
1.327300e-01
-6.414320e-02
1.033330e-01
5.379850e-02
4.825440e-01
2.398410e-01
6.918680e-02
1.327300e-01
-2.144440e-01
-4.937450e-02
5.379850e-02
2.967230e-01
2.398410e-01
2.092710e-02
1.327300e-01
-6.414320e-02
-4.937450e-02
1.625360e-01
4.825440e-01
2.398410e-01
3.497280e-02
2.908110e-01
-2.144440e-01
-4.937450e-02
3.961210e-02
-2.106510e-01
2.398410e-01
2.092710e-02
2.908110e-01
3.940430e-01
-4.937450e-02
1.625360e-01
-2.106510e-01
-3.225050e-01
3.497280e-02
2.908110e-01
-2.816750e-01
-1.123730e-01
3.961210e-02
-2.106510e-01
2.535340e-01
4.785440e-02
2.908110e-01
3.940430e-01
-1.123730e-01
8.660350e-02
-2.106510e-01
-3.225050e-01
4.785440e-02
-1.198820e-01
-2.816750e-01
-1.123730e-01
6.320270e-02
-3.653050e-01
2.535340e-01
4.785440e-02
-1.705570e-01
1.200470e-01
-1.123730e-01
8.660350e-02
-3.653050e-01
-8.260460e-01
4.785440e-02
-1.198820e-01
1.200470e-01
4.062960e-01
6.320270e-02
-3.653050e-01
4.788250e-02
7.787310e-02
-1.705570e-01
1.200470e-01
-3.055150e-01
-1.898730e-01
-3.653050e-01
-8.260460e-01
7.787310e-02
1.592160e-01
1.200470e-01
4.062960e-01
-1.898730e-01
-9.657620e-02
4.788250e-02
7.787310e-02
-9.052210e-02
-8.898300e-02
-3.055150e-01
-1.898730e-01
2.174200e-02
1.256540e-01
7.787310e-02
1.592160e-01
-8.898300e-02
-3.806730e-02
-1.898730e-01
-9.657620e-02
1.256540e-01
1.457780e-01
-9.052210e-02
-8.898300e-02
-6.681590e-02
-1.768060e-01
2.174200e-02
1.256540e-01
2.234800e-01
1.922820e-01
-8.898300e-02
-3.806730e-02
-1.768060e-01
-8.747510e-02
1.256540e-01
1.457780e-01
1.922820e-01
-5.215940e-03
-6.681590e-02
-1.768060e-01
5.135300e-02
1.303920e-01
2.234800e-01
1.922820e-01
3.331560e-02
3.231580e-02
-1.768060e-01
-8.747510e-02
1.303920e-01
-3.760890e-02
1.922820e-01
-5.215940e-03
3.231580e-02
9.181000e-02
5.135300e-02
1.303920e-01
2.104870e-01
7.211810e-02
3.331560e-02
3.231580e-02
-1.775810e-01
5.319780e-03
1.303920e-01
-3.760890e-02
7.211810e-02
-2.930560e-01
3.231580e-02
9.181000e-02
5.319780e-03
4.368030e-01
2.104870e-01
7.211810e-02
-2.046000e-01
-2.136330e-01
-1.775810e-01
5.319780e-03
8.456450e-02
-4.528970e-02
7.211810e-02
-2.930560e-01
-2.136330e-01
-2.305570e-01
5.319780e-03
4.368030e-01
-4.528970e-02
-1.690250e-01
-2.046000e-01
-2.136330e-01
-3.208940e-01
-2.647350e-01
8.456450e-02
-4.528970e-02
-2.600070e-01
-3.147590e-02
-2.136330e-01
-2.305570e-01
-2.647350e-01
-1.528160e-01
-4.528970e-02
-1.690250e-01
-3.147590e-02
-1.225800e-01
-3.208940e-01
-2.647350e-01
8.126200e-01
2.616460e-01
-2.600070e-01
-3.147590e-02
-8.206260e-01
-3.238600e-01
-2.647350e-01
-1.528160e-01
2.616460e-01
-4.147790e-01
-3.147590e-02
-1.225800e-01
-3.238600e-01
3.736910e-01
0.000000e+00
0.000000e+00
-2.335570e-01
1.658470e-01
0.000000e+00
0.000000e+00
-7.655670e-02
-4.570310e-01
0.000000e+00
0.000000e+00
1.658470e-01
4.796090e-01
0.000000e+00
0.000000e+00
-4.570310e-01
-6.571860e-01
-2.335570e-01
1.658470e-01
5.698500e-01
1.234340e-01
-7.655670e-02
-4.570310e-01
-8.737370e-01
-2.239710e-01
1.658470e-01
4.796090e-01
1.234340e-01
-3.366480e-01
-4.570310e-01
-6.571860e-01
-2.239710e-01
4.718560e-01
5.698500e-01
1.234340e-01
1.686320e-01
9.070480e-02