<?xml version="1.0"?>
<!-- time 33796.6-->
<VTKFile type="UnstructuredGrid" version="0.1" byte_order="LittleEndian">
<UnstructuredGrid>
<Piece NumberOfPoints="2" NumberOfCells="0">
<Points>
  <DataArray type="Float32" Name="Position" NumberOfComponents="3" format="ascii">
	271.314 4092.3 362.577
	-23.0352 3798.98 365.475
  </DataArray>
</Points>
<PointData  Vectors="vector">
  <DataArray type="Float32" Name="Velocity" NumberOfComponents="3" format="ascii">
 0.0122792 1.20436 0.0935826
 0.0091321 1.15357 -0.142767
  </DataArray>
  <DataArray type="Float32" Name="Radius" format="ascii">
	100
	100
  </DataArray>
  <DataArray type="Float32" Name="speciesType" format="ascii">
	0
	0
  </DataArray>
</PointData>
<Cells>
  <DataArray type="Int32" Name="connectivity" format="ascii">
  </DataArray>
  <DataArray type="Int32" Name="offsets" format="ascii">
  </DataArray>
  <DataArray type="UInt8"  Name="types" format="ascii">
  </DataArray>
</Cells>
</Piece>
</UnstructuredGrid>
</VTKFile>
