<?xml version="1.0"?>
<VTKFile type="UnstructuredGrid" version="0.1" byte_order="LittleEndian" compressor="vtkZLibDataCompressor">
<UnstructuredGrid>
<Piece NumberOfPoints="960" NumberOfCells="120">
<Points>
<DataArray type="Float32" NumberOfComponents="3" format="ascii">
-4.000000e+02 -6.000000e+03 -4.000000e+02
0.000000e+00 -6.000000e+03 -4.000000e+02
-3.999660e+02 -5.600320e+03 -3.995290e+02
5.767230e-02 -5.600270e+03 -3.996430e+02
-4.000000e+02 -6.000000e+03 0.000000e+00
0.000000e+00 -6.000000e+03 0.000000e+00
-3.998170e+02 -5.599970e+03 -2.641080e-01
1.684850e-01 -5.599980e+03 -4.303620e-02
0.000000e+00 -6.000000e+03 -4.000000e+02
4.000000e+02 -6.000000e+03 -4.000000e+02
5.767230e-02 -5.600270e+03 -3.996430e+02
4.000790e+02 -5.600150e+03 -3.998390e+02
0.000000e+00 -6.000000e+03 0.000000e+00
4.000000e+02 -6.000000e+03 0.000000e+00
1.684850e-01 -5.599980e+03 -4.303620e-02
4.001570e+02 -5.599960e+03 2.506950e-01
-3.999660e+02 -5.600320e+03 -3.995290e+02
5.767230e-02 -5.600270e+03 -3.996430e+02
-3.993860e+02 -5.200130e+03 -4.007830e+02
6.287980e-01 -5.200170e+03 -3.996090e+02
-3.998170e+02 -5.599970e+03 -2.641080e-01
1.684850e-01 -5.599980e+03 -4.303620e-02
-4.000240e+02 -5.199980e+03 -9.764150e-01
-4.668520e-02 -5.200090e+03 -6.499030e-01
5.767230e-02 -5.600270e+03 -3.996430e+02
4.000790e+02 -5.600150e+03 -3.998390e+02
6.287980e-01 -5.200170e+03 -3.996090e+02
4.006460e+02 -5.200290e+03 -3.983660e+02
1.684850e-01 -5.599980e+03 -4.303620e-02
4.001570e+02 -5.599960e+03 2.506950e-01
-4.668520e-02 -5.200090e+03 -6.499030e-01
3.999340e+02 -5.200230e+03 -2.965650e-01
-3.993860e+02 -5.200130e+03 -4.007830e+02
6.287980e-01 -5.200170e+03 -3.996090e+02
-3.994530e+02 -4.800460e+03 -4.009710e+02
5.431510e-01 -4.800480e+03 -4.007850e+02
-4.000240e+02 -5.199980e+03 -9.764150e-01
-4.668520e-02 -5.200090e+03 -6.499030e-01
-4.000390e+02 -4.799920e+03 -4.682250e-01
-4.969340e-02 -4.799840e+03 2.565190e-01
6.287980e-01 -5.200170e+03 -3.996090e+02
4.006460e+02 -5.200290e+03 -3.983660e+02
5.431510e-01 -4.800480e+03 -4.007850e+02
4.005370e+02 -4.800470e+03 -4.006540e+02
-4.668520e-02 -5.200090e+03 -6.499030e-01
3.999340e+02 -5.200230e+03 -2.965650e-01
-4.969340e-02 -4.799840e+03 2.565190e-01
3.999390e+02 -4.799820e+03 9.265360e-01
-3.994530e+02 -4.800460e+03 -4.009710e+02
5.431510e-01 -4.800480e+03 -4.007850e+02
-3.993110e+02 -4.400610e+03 -4.022690e+02
6.975780e-01 -4.400680e+03 -4.010550e+02
-4.000390e+02 -4.799920e+03 -4.682250e-01
-4.969340e-02 -4.799840e+03 2.565190e-01
-4.000500e+02 -4.400130e+03 -8.502000e-01
-5.569360e-02 -4.399900e+03 -4.670470e-01
5.431510e-01 -4.800480e+03 -4.007850e+02
4.005370e+02 -4.800470e+03 -4.006540e+02
6.975780e-01 -4.400680e+03 -4.010550e+02
4.007030e+02 -4.400610e+03 -3.997800e+02
-4.969340e-02 -4.799840e+03 2.565190e-01
3.999390e+02 -4.799820e+03 9.265360e-01
-5.569360e-02 -4.399900e+03 -4.670470e-01
3.999410e+02 -4.399800e+03 3.325240e-02
-3.993110e+02 -4.400610e+03 -4.022690e+02
6.975780e-01 -4.400680e+03 -4.010550e+02
-3.990410e+02 -4.000940e+03 -4.027750e+02
9.407570e-01 -4.000990e+03 -4.017140e+02
-4.000500e+02 -4.400130e+03 -8.502000e-01
-5.569360e-02 -4.399900e+03 -4.670470e-01
-4.000690e+02 -3.999990e+03 -2.470600e+00
-4.908240e-02 -3.999820e+03 -1.736670e+00
6.975780e-01 -4.400680e+03 -4.010550e+02
4.007030e+02 -4.400610e+03 -3.997800e+02
9.407570e-01 -4.000990e+03 -4.017140e+02
4.009270e+02 -4.000980e+03 -4.007430e+02
-5.569360e-02 -4.399900e+03 -4.670470e-01
3.999410e+02 -4.399800e+03 3.325240e-02
-4.908240e-02 -3.999820e+03 -1.736670e+00
3.999680e+02 -3.999680e+03 -1.117120e+00
-3.990410e+02 -4.000940e+03 -4.027750e+02
9.407570e-01 -4.000990e+03 -4.017140e+02
-3.995420e+02 -3.600890e+03 -4.036310e+02
4.856450e-01 -3.600860e+03 -4.030320e+02
-4.000690e+02 -3.999990e+03 -2.470600e+00
-4.908240e-02 -3.999820e+03 -1.736670e+00
-3.999060e+02 -3.600160e+03 -2.442840e+00
1.045560e-01 -3.600090e+03 -2.149810e+00
9.407570e-01 -4.000990e+03 -4.017140e+02
4.009270e+02 -4.000980e+03 -4.007430e+02
4.856450e-01 -3.600860e+03 -4.030320e+02
4.005140e+02 -3.600800e+03 -4.024410e+02
-4.908240e-02 -3.999820e+03 -1.736670e+00
3.999680e+02 -3.999680e+03 -1.117120e+00
1.045560e-01 -3.600090e+03 -2.149810e+00
4.001180e+02 -3.599980e+03 -1.752630e+00
-3.995420e+02 -3.600890e+03 -4.036310e+02
4.856450e-01 -3.600860e+03 -4.030320e+02
-3.993680e+02 -3.201290e+03 -4.039570e+02
6.375140e-01 -3.201110e+03 -4.032580e+02
-3.999060e+02 -3.600160e+03 -2.442840e+00
1.045560e-01 -3.600090e+03 -2.149810e+00
-3.999830e+02 -3.200030e+03 -4.556120e+00
4.093850e-02 -3.200090e+03 -3.897720e+00
4.856450e-01 -3.600860e+03 -4.030320e+02
4.005140e+02 -3.600800e+03 -4.024410e+02
6.375140e-01 -3.201110e+03 -4.032580e+02
4.006430e+02 -3.201030e+03 -4.022700e+02
1.045560e-01 -3.600090e+03 -2.149810e+00
4.001180e+02 -3.599980e+03 -1.752630e+00
4.093850e-02 -3.200090e+03 -3.897720e+00
4.000630e+02 -3.200120e+03 -3.398260e+00
-3.993680e+02 -3.201290e+03 -4.039570e+02
6.375140e-01 -3.201110e+03 -4.032580e+02
-3.997180e+02 -2.801380e+03 -4.056000e+02
3.383700e-01 -2.801370e+03 -4.048810e+02
-3.999830e+02 -3.200030e+03 -4.556120e+00
4.093850e-02 -3.200090e+03 -3.897720e+00
-3.997710e+02 -2.800070e+03 -5.242120e+00
2.228740e-01 -2.800110e+03 -5.062480e+00
6.375140e-01 -3.201110e+03 -4.032580e+02
4.006430e+02 -3.201030e+03 -4.022700e+02
3.383700e-01 -2.801370e+03 -4.048810e+02
4.004000e+02 -2.801360e+03 -4.038890e+02
4.093850e-02 -3.200090e+03 -3.897720e+00
4.000630e+02 -3.200120e+03 -3.398260e+00
2.228740e-01 -2.800110e+03 -5.062480e+00
4.002120e+02 -2.800090e+03 -4.986860e+00
-3.997180e+02 -2.801380e+03 -4.056000e+02
3.383700e-01 -2.801370e+03 -4.048810e+02
-3.995280e+02 -2.401490e+03 -4.063290e+02
5.090920e-01 -2.401590e+03 -4.063390e+02
-3.997710e+02 -2.800070e+03 -5.242120e+00
2.228740e-01 -2.800110e+03 -5.062480e+00
-3.998570e+02 -2.400020e+03 -7.429870e+00
1.442350e-01 -2.399990e+03 -6.396500e+00
3.383700e-01 -2.801370e+03 -4.048810e+02
4.004000e+02 -2.801360e+03 -4.038890e+02
5.090920e-01 -2.401590e+03 -4.063390e+02
4.005360e+02 -2.401620e+03 -4.062210e+02
2.228740e-01 -2.800110e+03 -5.062480e+00
4.002120e+02 -2.800090e+03 -4.986860e+00
1.442350e-01 -2.399990e+03 -6.396500e+00
4.001460e+02 -2.400010e+03 -5.493030e+00
-3.995280e+02 -2.401490e+03 -4.063290e+02
5.090920e-01 -2.401590e+03 -4.063390e+02
-3.994310e+02 -2.001740e+03 -4.086140e+02
5.454410e-01 -2.001600e+03 -4.081230e+02
-3.998570e+02 -2.400020e+03 -7.429870e+00
1.442350e-01 -2.399990e+03 -6.396500e+00
-4.000970e+02 -1.999760e+03 -8.838270e+00
-1.061950e-01 -1.999710e+03 -8.317710e+00
5.090920e-01 -2.401590e+03 -4.063390e+02
4.005360e+02 -2.401620e+03 -4.062210e+02
5.454410e-01 -2.001600e+03 -4.081230e+02
4.005240e+02 -2.001590e+03 -4.077020e+02
1.442350e-01 -2.399990e+03 -6.396500e+00
4.001460e+02 -2.400010e+03 -5.493030e+00
-1.061950e-01 -1.999710e+03 -8.317710e+00
3.998840e+02 -1.999690e+03 -7.810630e+00
-3.994310e+02 -2.001740e+03 -4.086140e+02
5.454410e-01 -2.001600e+03 -4.081230e+02
-3.998040e+02 -1.600940e+03 -4.104080e+02
2.258330e-01 -1.600980e+03 -4.105760e+02
-4.000970e+02 -1.999760e+03 -8.838270e+00
-1.061950e-01 -1.999710e+03 -8.317710e+00
-3.998270e+02 -1.600130e+03 -1.007280e+01
1.689690e-01 -1.600100e+03 -9.419690e+00
5.454410e-01 -2.001600e+03 -4.081230e+02
4.005240e+02 -2.001590e+03 -4.077020e+02
2.258330e-01 -1.600980e+03 -4.105760e+02
4.002670e+02 -1.601030e+03 -4.106400e+02
-1.061950e-01 -1.999710e+03 -8.317710e+00
3.998840e+02 -1.999690e+03 -7.810630e+00
1.689690e-01 -1.600100e+03 -9.419690e+00
4.001600e+02 -1.600090e+03 -8.776370e+00
-3.998040e+02 -1.600940e+03 -4.104080e+02
2.258330e-01 -1.600980e+03 -4.105760e+02
-3.997450e+02 -1.201340e+03 -4.106680e+02
3.284190e-01 -1.201140e+03 -4.106730e+02
-3.998270e+02 -1.600130e+03 -1.007280e+01
1.689690e-01 -1.600100e+03 -9.419690e+00
-3.998700e+02 -1.199860e+03 -1.066260e+01
8.885370e-02 -1.200110e+03 -1.043880e+01
2.258330e-01 -1.600980e+03 -4.105760e+02
4.002670e+02 -1.601030e+03 -4.106400e+02
3.284190e-01 -1.201140e+03 -4.106730e+02
4.004150e+02 -1.200910e+03 -4.105390e+02
1.689690e-01 -1.600100e+03 -9.419690e+00
4.001600e+02 -1.600090e+03 -8.776370e+00
8.885370e-02 -1.200110e+03 -1.043880e+01
4.000500e+02 -1.200370e+03 -1.025550e+01
-3.997450e+02 -1.201340e+03 -4.106680e+02
3.284190e-01 -1.201140e+03 -4.106730e+02
-3.993700e+02 -8.015090e+02 -4.118260e+02
6.109170e-01 -8.012480e+02 -4.109880e+02
-3.998700e+02 -1.199860e+03 -1.066260e+01
8.885370e-02 -1.200110e+03 -1.043880e+01
-4.001040e+02 -7.998620e+02 -1.275280e+01
-9.726020e-02 -8.000370e+02 -1.213340e+01
3.284190e-01 -1.201140e+03 -4.106730e+02
4.004150e+02 -1.200910e+03 -4.105390e+02
6.109170e-01 -8.012480e+02 -4.109880e+02
4.005760e+02 -8.010330e+02 -4.102030e+02
8.885370e-02 -1.200110e+03 -1.043880e+01
4.000500e+02 -1.200370e+03 -1.025550e+01
-9.726020e-02 -8.000370e+02 -1.213340e+01
3.999040e+02 -8.001870e+02 -1.152170e+01
-3.993700e+02 -8.015090e+02 -4.118260e+02
6.109170e-01 -8.012480e+02 -4.109880e+02
-3.994300e+02 -4.010090e+02 -4.139300e+02
5.874610e-01 -4.011040e+02 -4.126510e+02
-4.001040e+02 -7.998620e+02 -1.275280e+01
-9.726020e-02 -8.000370e+02 -1.213340e+01
-3.999190e+02 -4.000400e+02 -1.308740e+01
6.902200e-02 -3.999580e+02 -1.280880e+01
6.109170e-01 -8.012480e+02 -4.109880e+02
4.005760e+02 -8.010330e+02 -4.102030e+02
5.874610e-01 -4.011040e+02 -4.126510e+02
4.005990e+02 -4.012450e+02 -4.114960e+02
-9.726020e-02 -8.000370e+02 -1.213340e+01
3.999040e+02 -8.001870e+02 -1.152170e+01
6.902200e-02 -3.999580e+02 -1.280880e+01
4.000620e+02 -3.998010e+02 -1.249730e+01
-3.994300e+02 -4.010090e+02 -4.139300e+02
5.874610e-01 -4.011040e+02 -4.126510e+02
-3.995720e+02 -1.176900e+00 -4.140060e+02
4.374630e-01 -1.147260e+00 -4.137780e+02
-3.999190e+02 -4.000400e+02 -1.308740e+01
6.902200e-02 -3.999580e+02 -1.280880e+01
-3.999570e+02 1.877160e-01 -1.438910e+01
4.111470e-02 1.668160e-01 -1.363070e+01
5.874610e-01 -4.011040e+02 -4.126510e+02
4.005990e+02 -4.012450e+02 -4.114960e+02
4.374630e-01 -1.147260e+00 -4.137780e+02
[...]
<PointData>
<DataArray type="Float32" Name="V1" format="ascii">
0.000000e+00
0.000000e+00
-7.798620e-02
-4.133750e-02
0.000000e+00
0.000000e+00
2.323970e-01
1.911350e-01
0.000000e+00
0.000000e+00
-4.133750e-02
4.106820e-03
0.000000e+00
0.000000e+00
1.911350e-01
1.594980e-01
-7.798620e-02
-4.133750e-02
-3.087370e-01
-3.544390e-01
2.323970e-01
1.911350e-01
1.072210e-01
1.245460e-01
-4.133750e-02
4.106820e-03
-3.544390e-01
-4.033960e-01
1.911350e-01
1.594980e-01
1.245460e-01
1.560900e-01
-3.087370e-01
-3.544390e-01
7.623010e-03
3.136260e-02
1.072210e-01
1.245460e-01
-1.081660e-02
-9.973550e-03
-3.544390e-01
-4.033960e-01
3.136260e-02
4.739700e-02
1.245460e-01
1.560900e-01
-9.973550e-03
-6.869040e-03
7.623010e-03
3.136260e-02
1.622300e-01
2.917380e-01
-1.081660e-02
-9.973550e-03
8.466640e-03
-6.640920e-02
3.136260e-02
4.739700e-02
2.917380e-01
4.291240e-01
-9.973550e-03
-6.869040e-03
-6.640920e-02
-1.369980e-01
1.622300e-01
2.917380e-01
-4.770560e-02
-8.695960e-02
8.466640e-03
-6.640920e-02
-1.083530e-01
-6.344250e-02
2.917380e-01
4.291240e-01
-8.695960e-02
-1.392330e-01
-6.640920e-02
-1.369980e-01
-6.344250e-02
-1.875850e-02
-4.770560e-02
-8.695960e-02
-3.300920e-01
-2.672000e-01
-1.083530e-01
-6.344250e-02
3.378030e-01
3.486800e-01
-8.695960e-02
-1.392330e-01
-2.672000e-01
-1.931780e-01
-6.344250e-02
-1.875850e-02
3.486800e-01
3.555890e-01
-3.300920e-01
-2.672000e-01
-2.638150e-01
-3.663370e-01
3.378030e-01
3.486800e-01
-1.507710e-01
-5.357030e-02
-2.672000e-01
-1.931780e-01
-3.663370e-01
-4.908990e-01
3.486800e-01
3.555890e-01
-5.357030e-02
5.575600e-02
-2.638150e-01
-3.663370e-01
3.478850e-01
2.554250e-01
-1.507710e-01
-5.357030e-02
7.311400e-03
3.876960e-02
-3.663370e-01
-4.908990e-01
2.554250e-01
1.726240e-01
-5.357030e-02
5.575600e-02
3.876960e-02
6.119830e-02
3.478850e-01
2.554250e-01
2.245060e-01
1.668520e-01
7.311400e-03
3.876960e-02
-1.602670e-01
-6.235540e-02
2.554250e-01
1.726240e-01
1.668520e-01
9.476370e-02
3.876960e-02
6.119830e-02
-6.235540e-02
3.399560e-02
2.245060e-01
1.668520e-01
1.708030e-01
1.715240e-01
-1.602670e-01
-6.235540e-02
-3.760850e-02
-1.386420e-02
1.668520e-01
9.476370e-02
1.715240e-01
1.813830e-01
-6.235540e-02
3.399560e-02
-1.386420e-02
1.905800e-02
1.708030e-01
1.715240e-01
-2.521940e-01
-2.391520e-01
-3.760850e-02
-1.386420e-02
1.181680e-01
1.069540e-01
1.715240e-01
1.813830e-01
-2.391520e-01
-2.082150e-01
-1.386420e-02
1.905800e-02
1.069540e-01
8.018420e-02
-2.521940e-01
-2.391520e-01
1.688490e-01
1.607550e-01
1.181680e-01
1.069540e-01
4.340940e-03
1.621110e-02
-2.391520e-01
-2.082150e-01
1.607550e-01
1.224480e-01
1.069540e-01
8.018420e-02
1.621110e-02
2.661780e-02
1.688490e-01
1.607550e-01
-4.854540e-02
3.949540e-03
4.340940e-03
1.621110e-02
-4.908780e-02
-6.979100e-02
1.607550e-01
1.224480e-01
3.949540e-03
8.494240e-02
1.621110e-02
2.661780e-02
-6.979100e-02
-9.292010e-02
-4.854540e-02
3.949540e-03
-1.189450e-01
-1.058290e-01
-4.908780e-02
-6.979100e-02
1.172560e-02
-6.192560e-02
3.949540e-03
8.494240e-02
-1.058290e-01
-9.669780e-02
-6.979100e-02
-9.292010e-02
-6.192560e-02
-1.303110e-01
-1.189450e-01
-1.058290e-01
4.865950e-01
4.515230e-01
1.172560e-02
-6.192560e-02
-3.595540e-01
-3.526240e-01
-1.058290e-01
-9.669780e-02
4.515230e-01
4.225890e-01
-6.192560e-02
-1.303110e-01
-3.526240e-01
-3.612350e-01
4.865950e-01
4.515230e-01
-5.245180e-01
-4.536910e-01
-3.595540e-01
-3.526240e-01
3.315890e-01
2.782460e-01
4.515230e-01
4.225890e-01
-4.536910e-01
-3.827740e-01
-3.526240e-01
-3.612350e-01
2.782460e-01
2.282800e-01
-5.245180e-01
-4.536910e-01
4.099990e-01
4.553400e-01
3.315890e-01
2.782460e-01
-3.069880e-01
-2.939990e-01
-4.536910e-01
-3.827740e-01
4.553400e-01
5.017390e-01
2.782460e-01
2.282800e-01
-2.939990e-01
-2.936800e-01
4.099990e-01
4.553400e-01
8.471320e-02
1.190960e-01
-3.069880e-01
-2.939990e-01
-9.378040e-02
-1.391600e-01
4.553400e-01
5.017390e-01
1.190960e-01
1.421100e-01
-2.939990e-01
-2.936800e-01
-1.391600e-01
-2.031590e-01
8.471320e-02
1.190960e-01
4.541290e-02
4.024130e-02
-9.378040e-02
-1.391600e-01
-3.157290e-01
-3.680080e-01
1.190960e-01
1.421100e-01
4.024130e-02
4.583240e-02
-1.391600e-01
-2.031590e-01
-3.680080e-01
-4.207410e-01
4.541290e-02
4.024130e-02
-8.041410e-03
-7.077670e-02
-3.157290e-01
-3.680080e-01
-1.652260e-01
-1.162370e-01
4.024130e-02
4.583240e-02
-7.077670e-02
-1.038060e-01
-3.680080e-01
-4.207410e-01
-1.162370e-01
-6.918620e-02
-8.041410e-03
-7.077670e-02
-1.925700e-01
-2.106720e-01
-1.652260e-01
-1.162370e-01
1.449720e-02
-9.897730e-03
-7.077670e-02
-1.038060e-01
-2.106720e-01
-2.161780e-01
-1.162370e-01
-6.918620e-02
-9.897730e-03
-6.284830e-02
-1.925700e-01
-2.106720e-01
6.329460e-02
6.030760e-02
1.449720e-02
-9.897730e-03
7.545890e-02
8.379110e-02
-2.106720e-01
-2.161780e-01
6.030760e-02
4.454360e-02
-9.897730e-03
-6.284830e-02
8.379110e-02
1.005010e-01
6.329460e-02
6.030760e-02
4.456680e-01
4.316660e-01
7.545890e-02
8.379110e-02
-9.189910e-02
-9.828780e-02
6.030760e-02
4.454360e-02
4.316660e-01
4.347950e-01
8.379110e-02
1.005010e-01
-9.828780e-02
-1.131140e-01
4.456680e-01
4.316660e-01
-2.397740e-02
-6.685970e-02
-9.189910e-02
-9.828780e-02
8.433640e-02
1.328230e-01
4.316660e-01
4.347950e-01
-6.685970e-02
-1.110380e-01
-9.828780e-02
-1.131140e-01
1.328230e-01
1.699770e-01
-2.397740e-02
-6.685970e-02
2.184930e-01
2.225530e-01
8.433640e-02
1.328230e-01
-1.910310e-02
-2.055170e-02
-6.685970e-02
-1.110380e-01
2.225530e-01
2.231950e-01
1.328230e-01
1.699770e-01
-2.055170e-02
-2.334690e-02
2.184930e-01
2.225530e-01
-8.163260e-02
-7.906540e-02
-1.910310e-02
-2.055170e-02
1.627520e-01
1.859870e-01
2.225530e-01
2.231950e-01
-7.906540e-02
-6.712960e-02
-2.055170e-02
-2.334690e-02
1.859870e-01
1.962350e-01
-8.163260e-02
-7.906540e-02
1.959950e-01
2.038960e-01
1.627520e-01
1.859870e-01
-2.310090e-01
-2.477230e-01
-7.906540e-02
-6.712960e-02
2.038960e-01
2.121440e-01
1.859870e-01
1.962350e-01
-2.477230e-01
-2.573620e-01
1.959950e-01
2.038960e-01
-1.886660e-01
-1.486830e-01
-2.310090e-01
-2.477230e-01
1.110230e-01
1.820930e-01
2.038960e-01
2.121440e-01
-1.486830e-01
-1.125830e-01
-2.477230e-01
-2.573620e-01
1.820930e-01
2.372960e-01
-1.886660e-01
-1.486830e-01
-4.388960e-01
-4.161800e-01
1.110230e-01
1.820930e-01
4.702940e-01
4.230870e-01
-1.486830e-01
-1.125830e-01
-4.161800e-01
-3.695250e-01
1.820930e-01
2.372960e-01
4.230870e-01
3.911870e-01
-4.388960e-01
-4.161800e-01
-9.500730e-02
-1.138710e-01
4.702940e-01
4.230870e-01
-3.069020e-01
-3.031930e-01
-4.161800e-01
-3.695250e-01
-1.138710e-01
-1.166700e-01
4.230870e-01
3.911870e-01
-3.031930e-01
-3.239070e-01
0.000000e+00
0.000000e+00
2.323970e-01
1.911350e-01
0.000000e+00
0.000000e+00
-3.589350e-01
-3.068990e-01
0.000000e+00
0.000000e+00
1.911350e-01
1.594980e-01
0.000000e+00
0.000000e+00
-3.068990e-01
-2.743500e-01
2.323970e-01
1.911350e-01
1.072210e-01
1.245460e-01
-3.589350e-01
-3.068990e-01
8.634160e-02
7.355540e-02
1.911350e-01
1.594980e-01
1.245460e-01
1.560900e-01
-3.068990e-01
-2.743500e-01
7.355540e-02
6.379810e-02
1.072210e-01
1.245460e-01
-1.081660e-02
-9.973550e-03
8.634160e-02
7.355540e-02
-2.403420e-02
-1.285810e-02
1.245460e-01
1.560900e-01
-9.973550e-03
-6.869040e-03
7.355540e-02
6.379810e-02
-1.285810e-02
-1.433200e-02
-1.081660e-02
-9.973550e-03
8.466640e-03
-6.640920e-02
-2.403420e-02
-1.285810e-02
-1.541830e-01
-1.412160e-01
-9.973550e-03
-6.869040e-03
-6.640920e-02
-1.369980e-01
-1.285810e-02
-1.433200e-02
-1.412160e-01
-1.317730e-01
8.466640e-03
-6.640920e-02
-1.083530e-01
-6.344250e-02
-1.541830e-01
-1.412160e-01
2.247840e-01
2.188020e-01
-6.640920e-02
-1.369980e-01
-6.344250e-02
-1.875850e-02
-1.412160e-01
-1.317730e-01
2.188020e-01
1.986580e-01
-1.083530e-01
-6.344250e-02
3.378030e-01
3.486800e-01
2.247840e-01
2.188020e-01
-3.391400e-01
-4.194650e-01
-6.344250e-02
-1.875850e-02
3.486800e-01
3.555890e-01
2.188020e-01
1.986580e-01
-4.194650e-01
-4.867930e-01
3.378030e-01
3.486800e-01
-1.507710e-01
-5.357030e-02
-3.391400e-01
-4.194650e-01
4.991280e-01
4.445070e-01
3.486800e-01
3.555890e-01
-5.357030e-02
5.575600e-02
-4.194650e-01
-4.867930e-01
4.445070e-01
3.741840e-01
-1.507710e-01
-5.357030e-02
7.311400e-03
3.876960e-02
4.991280e-01
4.445070e-01
-3.276880e-01
-3.255540e-01
-5.357030e-02
5.575600e-02
3.876960e-02
6.119830e-02
4.445070e-01
3.741840e-01
-3.255540e-01
-3.198490e-01
7.311400e-03
3.876960e-02
-1.602670e-01
-6.235540e-02
-3.276880e-01
-3.255540e-01
2.836970e-02
-5.777020e-02
3.876960e-02
6.119830e-02
-6.235540e-02
3.399560e-02
-3.255540e-01
-3.198490e-01
-5.777020e-02
-1.627080e-01
-1.602670e-01
-6.235540e-02
-3.760850e-02
-1.386420e-02
2.836970e-02
-5.777020e-02
-4.445990e-02
-1.257560e-01
-6.235540e-02
3.399560e-02
-1.386420e-02
1.905800e-02
-5.777020e-02
-1.627080e-01
-1.257560e-01
-1.949530e-01
-3.760850e-02
-1.386420e-02
1.181680e-01
1.069540e-01
-4.445990e-02
-1.257560e-01
-3.503670e-02
1.904770e-03
-1.386420e-02
1.905800e-02
1.069540e-01
8.018420e-02
-1.257560e-01
-1.949530e-01
1.904770e-03
3.394110e-02
1.181680e-01
1.069540e-01
4.340940e-03
1.621110e-02
-3.503670e-02
1.904770e-03
-2.000770e-01
-1.835410e-01
1.069540e-01
8.018420e-02
1.621110e-02
2.661780e-02
1.904770e-03
3.394110e-02
-1.835410e-01
-1.394240e-01
4.340940e-03
1.621110e-02
-4.908780e-02
-6.979100e-02
-2.000770e-01
-1.835410e-01
1.517230e-01
1.591560e-01
1.621110e-02
2.661780e-02
-6.979100e-02
-9.292010e-02
-1.835410e-01
-1.394240e-01
1.591560e-01
1.568930e-01
-4.908780e-02
-6.979100e-02
1.172560e-02
-6.192560e-02
1.517230e-01
1.591560e-01
9.234050e-02
1.898540e-01
-6.979100e-02
-9.292010e-02
-6.192560e-02
-1.303110e-01
1.591560e-01
1.568930e-01
1.898540e-01
2.709710e-01
1.172560e-02
-6.192560e-02
-3.595540e-01
-3.526240e-01
9.234050e-02
1.898540e-01
2.308150e-01
2.869570e-01
-6.192560e-02
-1.303110e-01
-3.526240e-01
-3.612350e-01
1.898540e-01
2.709710e-01
2.869570e-01
3.601320e-01
-3.595540e-01
-3.526240e-01
3.315890e-01
2.782460e-01
2.308150e-01
2.869570e-01
-1.041920e-01
-9.675490e-02
-3.526240e-01
-3.612350e-01
2.782460e-01
2.282800e-01
2.869570e-01
3.601320e-01
-9.675490e-02
-9.631730e-02
3.315890e-01
2.782460e-01
-3.069880e-01
-2.939990e-01
-1.041920e-01
-9.675490e-02
1.897280e-01
1.283940e-01
2.782460e-01
2.282800e-01
-2.939990e-01
-2.936800e-01
-9.675490e-02
-9.631730e-02
1.283940e-01
7.646540e-02
-3.069880e-01
-2.939990e-01
-9.378040e-02
-1.391600e-01
1.897280e-01
1.283940e-01
1.122910e-01
1.594910e-01
-2.939990e-01
-2.936800e-01
-1.391600e-01
-2.031590e-01
1.283940e-01
7.646540e-02
1.594910e-01
2.373000e-01
-9.378040e-02
-1.391600e-01
-3.157290e-01
-3.680080e-01
1.122910e-01
1.594910e-01
6.150190e-01
7.141650e-01
-1.391600e-01
-2.031590e-01
-3.680080e-01
-4.207410e-01
1.594910e-01
2.373000e-01
7.141650e-01
8.239170e-01
-3.157290e-01
-3.680080e-01
-1.652260e-01
-1.162370e-01
6.150190e-01
7.141650e-01
2.812010e-01
2.675040e-01
-3.680080e-01
-4.207410e-01
-1.162370e-01
-6.918620e-02
7.141650e-01
8.239170e-01
2.675040e-01
2.281360e-01
-1.652260e-01
-1.162370e-01
1.449720e-02
-9.897730e-03
2.812010e-01
2.675040e-01
2.042710e-01
2.685220e-01
-1.162370e-01
-6.918620e-02
-9.897730e-03
-6.284830e-02
2.675040e-01
2.281360e-01
2.685220e-01
3.500750e-01
1.449720e-02
-9.897730e-03
7.545890e-02
8.379110e-02
2.042710e-01
2.685220e-01
-2.020160e-01
-2.305910e-01
-9.897730e-03
-6.284830e-02
8.379110e-02
1.005010e-01
2.685220e-01
3.500750e-01
-2.305910e-01
-2.491530e-01
7.545890e-02
8.379110e-02
-9.189910e-02
-9.828780e-02
-2.020160e-01
-2.305910e-01
-2.786100e-01
-2.627800e-01
8.379110e-02
1.005010e-01
-9.828780e-02
-1.131140e-01
-2.305910e-01
-2.491530e-01
-2.627800e-01
-2.552500e-01
-9.189910e-02
-9.828780e-02
8.433640e-02
1.328230e-01
-2.786100e-01
-2.627800e-01
-7.763730e-02
-1.310810e-01
-9.828780e-02
-1.131140e-01
1.328230e-01
1.699770e-01
-2.627800e-01
-2.552500e-01
-1.310810e-01
-1.670580e-01
8.433640e-02
1.328230e-01
-1.910310e-02
-2.055170e-02
-7.763730e-02
-1.310810e-01
-2.774320e-01
-2.400490e-01
1.328230e-01
1.699770e-01
-2.055170e-02
-2.334690e-02
-1.310810e-01
-1.670580e-01
-2.400490e-01
-1.975540e-01
-1.910310e-02
-2.055170e-02
1.627520e-01
1.859870e-01
-2.774320e-01
-2.400490e-01
-2.316540e-01
-2.777300e-01
-2.055170e-02
-2.334690e-02
1.859870e-01
1.962350e-01
-2.400490e-01
-1.975540e-01
-2.777300e-01
-3.079390e-01
1.627520e-01
1.859870e-01
-2.310090e-01
-2.477230e-01
-2.316540e-01
-2.777300e-01
2.445880e-01
2.903530e-01
1.859870e-01
1.962350e-01
-2.477230e-01
-2.573620e-01
-2.777300e-01
-3.079390e-01
2.903530e-01
3.372900e-01
-2.310090e-01
-2.477230e-01
1.110230e-01
1.820930e-01
2.445880e-01
2.903530e-01
-2.857110e-02
-2.373730e-01
-2.477230e-01
-2.573620e-01
1.820930e-01
2.372960e-01
2.903530e-01
3.372900e-01
-2.373730e-01
-4.238760e-01
1.110230e-01
1.820930e-01
4.702940e-01
4.230870e-01
-2.857110e-02
-2.373730e-01
-4.717620e-01
-4.137720e-01
1.820930e-01
2.372960e-01
4.230870e-01
3.911870e-01
-2.373730e-01
-4.238760e-01
-4.137720e-01
-3.707000e-01
4.702940e-01
4.230870e-01
-3.069020e-01
-3.031930e-01
-4.717620e-01
-4.137720e-01
7.395060e-01
7.083340e-01
4.230870e-01
3.911870e-01
-3.031930e-01
-3.239070e-01
-4.137720e-01
-3.707000e-01
7.083340e-01
6.696930e-01
</DataArray>
<DataArray type="Float32" Name="V2" format="ascii">
0.000000e+00
0.000000e+00
-2.914520e-02
1.267300e-01
0.000000e+00
0.000000e+00
2.203250e-01
-3.119010e-01
0.000000e+00
0.000000e+00
1.267300e-01
3.692360e-01
0.000000e+00
0.000000e+00
-3.119010e-01
-1.061580e+00
-2.914520e-02
1.267300e-01
-5.545160e-01
-4.295000e-01
2.203250e-01
-3.119010e-01
1.099780e-01
2.689330e-01
1.267300e-01
3.692360e-01
-4.295000e-01
-1.442180e-01
-3.119010e-01
-1.061580e+00
2.689330e-01
2.982090e-01
-5.545160e-01
-4.295000e-01
1.232290e-01
6.080800e-02
1.099780e-01
2.689330e-01
9.866430e-02
1.516880e-02
-4.295000e-01
-1.442180e-01
6.080800e-02
4.452360e-02
2.689330e-01
2.982090e-01
1.516880e-02
-6.816210e-02
1.232290e-01
6.080800e-02
1.859860e-01
-8.782800e-03
9.866430e-02
1.516880e-02
3.578720e-01
2.199100e-01
6.080800e-02
4.452360e-02
-8.782800e-03
-4.148970e-01
1.516880e-02
-6.816210e-02
2.199100e-01
2.017970e-01
1.859860e-01
-8.782800e-03
-4.589410e-01
-3.177890e-01
3.578720e-01
2.199100e-01
5.281060e-01
2.338980e-01
-8.782800e-03
-4.148970e-01
-3.177890e-01
4.653110e-03
2.199100e-01
2.017970e-01
2.338980e-01
-3.422670e-03
-4.589410e-01
-3.177890e-01
2.076560e-01
-7.260000e-02
5.281060e-01
2.338980e-01
-6.122980e-01
-1.259300e-01
-3.177890e-01
4.653110e-03
-7.260000e-02
-2.918780e-01
2.338980e-01
-3.422670e-03
-1.259300e-01
2.313850e-01
2.076560e-01
-7.260000e-02
9.307700e-02
1.478680e-01
-6.122980e-01
-1.259300e-01
-1.958410e-01
-3.555490e-01
-7.260000e-02
-2.918780e-01
1.478680e-01
2.138980e-01
-1.259300e-01
2.313850e-01
-3.555490e-01
-4.950470e-01
9.307700e-02
1.478680e-01
-3.034550e-01
-2.702330e-01
-1.958410e-01
-3.555490e-01
1.926460e-01
1.628700e-01
1.478680e-01
2.138980e-01
-2.702330e-01
-2.261230e-01
-3.555490e-01
-4.950470e-01
1.628700e-01
1.020770e-01
-3.034550e-01
-2.702330e-01
-1.902870e-01
-1.802300e-01
1.926460e-01
1.628700e-01
2.239930e-01
2.956850e-01
-2.702330e-01
-2.261230e-01
-1.802300e-01
-2.298190e-01
1.628700e-01
1.020770e-01
2.956850e-01
3.272790e-01
-1.902870e-01
-1.802300e-01
-7.126740e-01
7.219740e-02
2.239930e-01
2.956850e-01
3.999380e-01
-1.419540e-02
-1.802300e-01
-2.298190e-01
7.219740e-02
5.173110e-01
2.956850e-01
3.272790e-01
-1.419540e-02
-2.255650e-01
-7.126740e-01
7.219740e-02
-2.516350e-01
-1.184760e-01
3.999380e-01
-1.419540e-02
-1.752630e-01
6.246500e-02
7.219740e-02
5.173110e-01
-1.184760e-01
1.235710e-01
-1.419540e-02
-2.255650e-01
6.246500e-02
1.358340e-01
-2.516350e-01
-1.184760e-01
-6.593340e-01
-1.302200e-01
-1.752630e-01
6.246500e-02
1.429710e-01
-1.877180e-01
-1.184760e-01
1.235710e-01
-1.302200e-01
5.773320e-01
6.246500e-02
1.358340e-01
-1.877180e-01
-5.285930e-01
-6.593340e-01
-1.302200e-01
-2.881620e-01
2.196450e-01
1.429710e-01
-1.877180e-01
9.639730e-02
-1.267120e-01
-1.302200e-01
5.773320e-01
2.196450e-01
5.488050e-01
-1.877180e-01
-5.285930e-01
-1.267120e-01
-3.818170e-01
-2.881620e-01
2.196450e-01
6.264360e-01
2.668730e-02
9.639730e-02
-1.267120e-01
-2.430570e-01
7.799410e-02
2.196450e-01
5.488050e-01
2.668730e-02
-3.919210e-01
-1.267120e-01
-3.818170e-01
7.799410e-02
2.951590e-01
6.264360e-01
2.668730e-02
-3.153960e-01
5.581310e-02
-2.430570e-01
7.799410e-02
3.716280e-01
-2.995920e-02
2.668730e-02
-3.919210e-01
5.581310e-02
4.265890e-01
7.799410e-02
2.951590e-01
-2.995920e-02
-4.690160e-01
-3.153960e-01
5.581310e-02
4.173740e-01
4.036190e-03
3.716280e-01
-2.995920e-02
-1.611560e-01
-6.354790e-02
5.581310e-02
4.265890e-01
4.036190e-03
-4.339440e-01
-2.995920e-02
-4.690160e-01
-6.354790e-02
2.254720e-01
4.173740e-01
4.036190e-03
2.836690e-01
-1.644440e-01
-1.611560e-01
-6.354790e-02
-1.207920e-01
7.401680e-02
4.036190e-03
-4.339440e-01
-1.644440e-01
-4.751550e-01
-6.354790e-02
2.254720e-01
7.401680e-02
1.696170e-01
2.836690e-01
-1.644440e-01
7.756580e-02
7.581430e-02
-1.207920e-01
7.401680e-02
1.949240e-01
-1.917480e-02
-1.644440e-01
-4.751550e-01
7.581430e-02
2.687250e-02
7.401680e-02
1.696170e-01
-1.917480e-02
-2.683840e-01
7.756580e-02
7.581430e-02
7.009670e-01
-2.027450e-01
1.949240e-01
-1.917480e-02
-5.049370e-01
-3.347160e-02
7.581430e-02
2.687250e-02
-2.027450e-01
-6.515550e-01
-1.917480e-02
-2.683840e-01
-3.347160e-02
2.365690e-01
7.009670e-01
-2.027450e-01
-1.957940e-01
-1.189310e-01
-5.049370e-01
-3.347160e-02
1.549890e-01
-1.336340e-02
-2.027450e-01
-6.515550e-01
-1.189310e-01
-6.378930e-01
-3.347160e-02
2.365690e-01
-1.336340e-02
1.339240e-01
-1.957940e-01
-1.189310e-01
5.237110e-01
4.877170e-02
1.549890e-01
-1.336340e-02
-4.541940e-01
-1.841520e-01
-1.189310e-01
-6.378930e-01
4.877170e-02
-2.893760e-01
-1.336340e-02
1.339240e-01
-1.841520e-01
9.074750e-02
5.237110e-01
4.877170e-02
-1.925350e-01
-8.553000e-02
-4.541940e-01
-1.841520e-01
1.580520e-01
1.395490e-01
4.877170e-02
-2.893760e-01
-8.553000e-02
9.917350e-02
-1.841520e-01
9.074750e-02
1.395490e-01
4.932150e-03
-1.925350e-01
-8.553000e-02
-3.104790e-01
-1.011450e-01
1.580520e-01
1.395490e-01
3.342590e-01
2.452040e-01
-8.553000e-02
9.917350e-02
-1.011450e-01
1.168480e-01
1.395490e-01
4.932150e-03
2.452040e-01
-7.365030e-02
-3.104790e-01
-1.011450e-01
-1.920180e-03
2.393240e-01
3.342590e-01
2.452040e-01
-2.567240e-01
-1.129050e-01
-1.011450e-01
1.168480e-01
2.393240e-01
3.701750e-01
2.452040e-01
-7.365030e-02
-1.129050e-01
2.956170e-01
-1.920180e-03
2.393240e-01
1.423600e-01
1.873340e-01
-2.567240e-01
-1.129050e-01
-5.074860e-01
-1.710660e-01
2.393240e-01
3.701750e-01
1.873340e-01
3.014090e-01
-1.129050e-01
2.956170e-01
-1.710660e-01
1.351820e-01
1.423600e-01
1.873340e-01
2.462120e-01
1.807510e-01
-5.074860e-01
-1.710660e-01
-8.319040e-02
-1.459900e-01
1.873340e-01
3.014090e-01
1.807510e-01
4.768660e-01
-1.710660e-01
1.351820e-01
-1.459900e-01
-4.445440e-01
2.462120e-01
1.807510e-01
5.447460e-01
1.404610e-01
-8.319040e-02
-1.459900e-01
-4.211800e-01
-1.621720e-01
1.807510e-01
4.768660e-01
1.404610e-01
6.050930e-04
-1.459900e-01
-4.445440e-01
-1.621720e-01
9.217670e-02
5.447460e-01
1.404610e-01
8.790160e-01
2.534850e-01
-4.211800e-01
-1.621720e-01
-8.063420e-02
4.977420e-02
1.404610e-01
6.050930e-04
2.534850e-01
-4.641090e-01
-1.621720e-01
9.217670e-02
4.977420e-02
1.397350e-01
8.790160e-01
2.534850e-01
-1.356020e-01
3.043150e-01
-8.063420e-02
4.977420e-02
2.511800e-01
-5.867010e-02
2.534850e-01
-4.641090e-01
3.043150e-01
5.404810e-01
4.977420e-02
1.397350e-01
-5.867010e-02
-3.480910e-01
-1.356020e-01
3.043150e-01
7.286680e-01
7.827430e-01
2.511800e-01
-5.867010e-02
-7.825140e-01
-8.179070e-01
3.043150e-01
5.404810e-01
7.827430e-01
1.082570e+00
-5.867010e-02
-3.480910e-01
-8.179070e-01
-9.171550e-01
0.000000e+00
0.000000e+00
2.203250e-01
-3.119010e-01
0.000000e+00
0.000000e+00
-3.318280e-01
5.776350e-01
0.000000e+00
0.000000e+00
-3.119010e-01
-1.061580e+00
0.000000e+00
0.000000e+00
5.776350e-01
1.550170e+00
2.203250e-01
-3.119010e-01
1.099780e-01
2.689330e-01
-3.318280e-01
5.776350e-01
4.411740e-01
-1.019320e-01
-3.119010e-01
-1.061580e+00
2.689330e-01
2.982090e-01
5.776350e-01
1.550170e+00
-1.019320e-01