<?xml version="1.0"?>
<VTKFile type="UnstructuredGrid" version="0.1" byte_order="LittleEndian" compressor="vtkZLibDataCompressor">
<UnstructuredGrid>
<Piece NumberOfPoints="960" NumberOfCells="120">
<Points>
<DataArray type="Float32" NumberOfComponents="3" format="ascii">
-4.000000e+02 -6.000000e+03 -4.000000e+02
0.000000e+00 -6.000000e+03 -4.000000e+02
-3.998920e+02 -5.600200e+03 -4.000070e+02
1.055720e-01 -5.600170e+03 -3.998650e+02
-4.000000e+02 -6.000000e+03 0.000000e+00
0.000000e+00 -6.000000e+03 0.000000e+00
-4.000590e+02 -5.599960e+03 3.842100e-02
-5.900000e-02 -5.600040e+03 5.666180e-02
0.000000e+00 -6.000000e+03 -4.000000e+02
4.000000e+02 -6.000000e+03 -4.000000e+02
1.055720e-01 -5.600170e+03 -3.998650e+02
4.001040e+02 -5.600140e+03 -3.997360e+02
0.000000e+00 -6.000000e+03 0.000000e+00
4.000000e+02 -6.000000e+03 0.000000e+00
-5.900000e-02 -5.600040e+03 5.666180e-02
3.999410e+02 -5.600110e+03 5.549470e-02
-3.998920e+02 -5.600200e+03 -4.000070e+02
1.055720e-01 -5.600170e+03 -3.998650e+02
-4.000410e+02 -5.200240e+03 -4.007660e+02
-4.789010e-02 -5.200370e+03 -4.007110e+02
-4.000590e+02 -5.599960e+03 3.842100e-02
-5.900000e-02 -5.600040e+03 5.666180e-02
-3.999640e+02 -5.200020e+03 -4.585160e-02
4.294940e-02 -5.199930e+03 -3.218650e-01
1.055720e-01 -5.600170e+03 -3.998650e+02
4.001040e+02 -5.600140e+03 -3.997360e+02
-4.789010e-02 -5.200370e+03 -4.007110e+02
3.999450e+02 -5.200490e+03 -4.006670e+02
-5.900000e-02 -5.600040e+03 5.666180e-02
3.999410e+02 -5.600110e+03 5.549470e-02
4.294940e-02 -5.199930e+03 -3.218650e-01
4.000490e+02 -5.199850e+03 -6.065260e-01
-4.000410e+02 -5.200240e+03 -4.007660e+02
-4.789010e-02 -5.200370e+03 -4.007110e+02
-3.999680e+02 -4.800210e+03 -4.005310e+02
3.569840e-02 -4.800210e+03 -4.006170e+02
-3.999640e+02 -5.200020e+03 -4.585160e-02
4.294940e-02 -5.199930e+03 -3.218650e-01
-3.999440e+02 -4.800060e+03 -7.896880e-01
5.388900e-02 -4.800010e+03 -5.383460e-01
-4.789010e-02 -5.200370e+03 -4.007110e+02
3.999450e+02 -5.200490e+03 -4.006670e+02
3.569840e-02 -4.800210e+03 -4.006170e+02
4.000400e+02 -4.800190e+03 -4.007090e+02
4.294940e-02 -5.199930e+03 -3.218650e-01
4.000490e+02 -5.199850e+03 -6.065260e-01
5.388900e-02 -4.800010e+03 -5.383460e-01
4.000520e+02 -4.799990e+03 -2.793080e-01
-3.999680e+02 -4.800210e+03 -4.005310e+02
3.569840e-02 -4.800210e+03 -4.006170e+02
-3.997530e+02 -4.400090e+03 -4.013700e+02
2.419450e-01 -4.400060e+03 -4.011340e+02
-3.999440e+02 -4.800060e+03 -7.896880e-01
5.388900e-02 -4.800010e+03 -5.383460e-01
-3.999670e+02 -4.400040e+03 -6.508230e-01
3.310560e-02 -4.400070e+03 -5.076380e-01
3.569840e-02 -4.800210e+03 -4.006170e+02
4.000400e+02 -4.800190e+03 -4.007090e+02
2.419450e-01 -4.400060e+03 -4.011340e+02
4.002360e+02 -4.400040e+03 -4.009180e+02
5.388900e-02 -4.800010e+03 -5.383460e-01
4.000520e+02 -4.799990e+03 -2.793080e-01
3.310560e-02 -4.400070e+03 -5.076380e-01
4.000330e+02 -4.400100e+03 -3.542950e-01
-3.997530e+02 -4.400090e+03 -4.013700e+02
2.419450e-01 -4.400060e+03 -4.011340e+02
-3.998790e+02 -3.999750e+03 -4.007290e+02
1.247640e-01 -3.999940e+03 -4.008420e+02
-3.999670e+02 -4.400040e+03 -6.508230e-01
3.310560e-02 -4.400070e+03 -5.076380e-01
-3.999820e+02 -4.000120e+03 -1.445390e+00
1.527850e-02 -3.999980e+03 -1.253260e+00
2.419450e-01 -4.400060e+03 -4.011340e+02
4.002360e+02 -4.400040e+03 -4.009180e+02
1.247640e-01 -3.999940e+03 -4.008420e+02
4.001300e+02 -4.000130e+03 -4.009450e+02
3.310560e-02 -4.400070e+03 -5.076380e-01
4.000330e+02 -4.400100e+03 -3.542950e-01
1.527850e-02 -3.999980e+03 -1.253260e+00
4.000120e+02 -3.999820e+03 -1.053280e+00
-3.998790e+02 -3.999750e+03 -4.007290e+02
1.247640e-01 -3.999940e+03 -4.008420e+02
-3.998680e+02 -3.600060e+03 -4.012540e+02
1.298640e-01 -3.600160e+03 -4.013110e+02
-3.999820e+02 -4.000120e+03 -1.445390e+00
1.527850e-02 -3.999980e+03 -1.253260e+00
-4.000050e+02 -3.600040e+03 -7.846420e-01
-1.922210e-03 -3.600010e+03 -7.032800e-01
1.247640e-01 -3.999940e+03 -4.008420e+02
4.001300e+02 -4.000130e+03 -4.009450e+02
1.298640e-01 -3.600160e+03 -4.013110e+02
4.001270e+02 -3.600270e+03 -4.013580e+02
1.527850e-02 -3.999980e+03 -1.253260e+00
4.000120e+02 -3.999820e+03 -1.053280e+00
-1.922210e-03 -3.600010e+03 -7.032800e-01
4.000010e+02 -3.599990e+03 -6.308900e-01
-3.998680e+02 -3.600060e+03 -4.012540e+02
1.298640e-01 -3.600160e+03 -4.013110e+02
-4.002550e+02 -3.200460e+03 -4.009820e+02
-2.585990e-01 -3.200500e+03 -4.009420e+02
-4.000050e+02 -3.600040e+03 -7.846420e-01
-1.922210e-03 -3.600010e+03 -7.032800e-01
-3.999340e+02 -3.199940e+03 -1.279530e+00
6.680440e-02 -3.199970e+03 -1.736690e+00
1.298640e-01 -3.600160e+03 -4.013110e+02
4.001270e+02 -3.600270e+03 -4.013580e+02
-2.585990e-01 -3.200500e+03 -4.009420e+02
3.997380e+02 -3.200520e+03 -4.009170e+02
-1.922210e-03 -3.600010e+03 -7.032800e-01
4.000010e+02 -3.599990e+03 -6.308900e-01
6.680440e-02 -3.199970e+03 -1.736690e+00
4.000680e+02 -3.200020e+03 -2.175630e+00
-4.002550e+02 -3.200460e+03 -4.009820e+02
-2.585990e-01 -3.200500e+03 -4.009420e+02
-4.003060e+02 -2.800260e+03 -4.014600e+02
-3.115120e-01 -2.800360e+03 -4.017580e+02
-3.999340e+02 -3.199940e+03 -1.279530e+00
6.680440e-02 -3.199970e+03 -1.736690e+00
-4.000340e+02 -2.799990e+03 -1.178990e+00
-2.946570e-02 -2.799960e+03 -1.618020e+00
-2.585990e-01 -3.200500e+03 -4.009420e+02
3.997380e+02 -3.200520e+03 -4.009170e+02
-3.115120e-01 -2.800360e+03 -4.017580e+02
3.996840e+02 -2.800460e+03 -4.020530e+02
6.680440e-02 -3.199970e+03 -1.736690e+00
4.000680e+02 -3.200020e+03 -2.175630e+00
-2.946570e-02 -2.799960e+03 -1.618020e+00
3.999750e+02 -2.799920e+03 -2.058790e+00
-4.003060e+02 -2.800260e+03 -4.014600e+02
-3.115120e-01 -2.800360e+03 -4.017580e+02
-4.002640e+02 -2.400300e+03 -4.017240e+02
-2.571380e-01 -2.400310e+03 -4.020740e+02
-4.000340e+02 -2.799990e+03 -1.178990e+00
-2.946570e-02 -2.799960e+03 -1.618020e+00
-4.000830e+02 -2.400080e+03 -1.441750e+00
-8.562560e-02 -2.400040e+03 -1.828260e+00
-3.115120e-01 -2.800360e+03 -4.017580e+02
3.996840e+02 -2.800460e+03 -4.020530e+02
-2.571380e-01 -2.400310e+03 -4.020740e+02
3.997500e+02 -2.400340e+03 -4.024350e+02
-2.946570e-02 -2.799960e+03 -1.618020e+00
3.999750e+02 -2.799920e+03 -2.058790e+00
-8.562560e-02 -2.400040e+03 -1.828260e+00
3.999120e+02 -2.400000e+03 -2.217410e+00
-4.002640e+02 -2.400300e+03 -4.017240e+02
-2.571380e-01 -2.400310e+03 -4.020740e+02
-4.002530e+02 -2.000180e+03 -4.016380e+02
-2.474670e-01 -2.000220e+03 -4.021750e+02
-4.000830e+02 -2.400080e+03 -1.441750e+00
-8.562560e-02 -2.400040e+03 -1.828260e+00
-4.000850e+02 -2.000220e+03 -3.180060e+00
-8.812660e-02 -2.000130e+03 -3.008610e+00
-2.571380e-01 -2.400310e+03 -4.020740e+02
3.997500e+02 -2.400340e+03 -4.024350e+02
-2.474670e-01 -2.000220e+03 -4.021750e+02
3.997580e+02 -2.000260e+03 -4.026820e+02
-8.562560e-02 -2.400040e+03 -1.828260e+00
3.999120e+02 -2.400000e+03 -2.217410e+00
-8.812660e-02 -2.000130e+03 -3.008610e+00
3.999080e+02 -2.000020e+03 -2.820830e+00
-4.002530e+02 -2.000180e+03 -4.016380e+02
-2.474670e-01 -2.000220e+03 -4.021750e+02
-4.001570e+02 -1.600360e+03 -4.030830e+02
-1.568750e-01 -1.600290e+03 -4.030020e+02
-4.000850e+02 -2.000220e+03 -3.180060e+00
-8.812660e-02 -2.000130e+03 -3.008610e+00
-3.999840e+02 -1.599900e+03 -1.950990e+00
1.261580e-02 -1.599970e+03 -2.272230e+00
-2.474670e-01 -2.000220e+03 -4.021750e+02
3.997580e+02 -2.000260e+03 -4.026820e+02
-1.568750e-01 -1.600290e+03 -4.030020e+02
3.998430e+02 -1.600210e+03 -4.029150e+02
-8.812660e-02 -2.000130e+03 -3.008610e+00
3.999080e+02 -2.000020e+03 -2.820830e+00
1.261580e-02 -1.599970e+03 -2.272230e+00
4.000090e+02 -1.600040e+03 -2.596850e+00
-4.001570e+02 -1.600360e+03 -4.030830e+02
-1.568750e-01 -1.600290e+03 -4.030020e+02
-4.002270e+02 -1.200500e+03 -4.025140e+02
-2.283990e-01 -1.200290e+03 -4.029430e+02
-3.999840e+02 -1.599900e+03 -1.950990e+00
1.261580e-02 -1.599970e+03 -2.272230e+00
-3.999260e+02 -1.199890e+03 -3.182560e+00
7.552130e-02 -1.200010e+03 -3.400170e+00
-1.568750e-01 -1.600290e+03 -4.030020e+02
3.998430e+02 -1.600210e+03 -4.029150e+02
-2.283990e-01 -1.200290e+03 -4.029430e+02
3.997720e+02 -1.200100e+03 -4.033780e+02
1.261580e-02 -1.599970e+03 -2.272230e+00
4.000090e+02 -1.600040e+03 -2.596850e+00
7.552130e-02 -1.200010e+03 -3.400170e+00
4.000770e+02 -1.200120e+03 -3.611950e+00
-4.002270e+02 -1.200500e+03 -4.025140e+02
-2.283990e-01 -1.200290e+03 -4.029430e+02
-3.998880e+02 -8.001850e+02 -4.033530e+02
1.065530e-01 -8.001550e+02 -4.033910e+02
-3.999260e+02 -1.199890e+03 -3.182560e+00
7.552130e-02 -1.200010e+03 -3.400170e+00
-4.001060e+02 -8.001100e+02 -3.727930e+00
-1.033800e-01 -8.000700e+02 -3.538460e+00
-2.283990e-01 -1.200290e+03 -4.029430e+02
3.997720e+02 -1.200100e+03 -4.033780e+02
1.065530e-01 -8.001550e+02 -4.033910e+02
4.001000e+02 -8.001060e+02 -4.034540e+02
7.552130e-02 -1.200010e+03 -3.400170e+00
4.000770e+02 -1.200120e+03 -3.611950e+00
-1.033800e-01 -8.000700e+02 -3.538460e+00
3.998990e+02 -8.000360e+02 -3.348240e+00
-3.998880e+02 -8.001850e+02 -4.033530e+02
1.065530e-01 -8.001550e+02 -4.033910e+02
-3.999980e+02 -4.002960e+02 -4.039030e+02
-4.481660e-04 -4.003790e+02 -4.037010e+02
-4.001060e+02 -8.001100e+02 -3.727930e+00
-1.033800e-01 -8.000700e+02 -3.538460e+00
-4.000530e+02 -3.998420e+02 -3.461580e+00
-5.294670e-02 -3.998330e+02 -3.556260e+00
1.065530e-01 -8.001550e+02 -4.033910e+02
4.001000e+02 -8.001060e+02 -4.034540e+02
-4.481660e-04 -4.003790e+02 -4.037010e+02
3.999980e+02 -4.004370e+02 -4.035140e+02
-1.033800e-01 -8.000700e+02 -3.538460e+00
3.998990e+02 -8.000360e+02 -3.348240e+00
-5.294670e-02 -3.998330e+02 -3.556260e+00
3.999470e+02 -3.998240e+02 -3.655700e+00
-3.999980e+02 -4.002960e+02 -4.039030e+02
-4.481660e-04 -4.003790e+02 -4.037010e+02
-3.999800e+02 -2.456760e-01 -4.041950e+02
1.783040e-02 -1.733470e-01 -4.040940e+02
-4.000530e+02 -3.998420e+02 -3.461580e+00
-5.294670e-02 -3.998330e+02 -3.556260e+00
-3.999820e+02 5.219860e-02 -3.333780e+00
1.991730e-02 2.729360e-02 -3.513460e+00
-4.481660e-04 -4.003790e+02 -4.037010e+02
3.999980e+02 -4.004370e+02 -4.035140e+02
[...]
<PointData>
<DataArray type="Float32" Name="V1" format="ascii">
0.000000e+00
0.000000e+00
1.326950e-02
1.268650e-02
0.000000e+00
0.000000e+00
1.044440e-02
8.357500e-03
0.000000e+00
0.000000e+00
1.268650e-02
1.157380e-02
0.000000e+00
0.000000e+00
8.357500e-03
6.221970e-03
1.326950e-02
1.268650e-02
3.878380e-02
5.818190e-02
1.044440e-02
8.357500e-03
-1.021690e-01
-1.083940e-01
1.268650e-02
1.157380e-02
5.818190e-02
7.750130e-02
8.357500e-03
6.221970e-03
-1.083940e-01
-1.143290e-01
3.878380e-02
5.818190e-02
-1.949630e-01
-2.080820e-01
-1.021690e-01
-1.083940e-01
1.010850e-01
1.095160e-01
5.818190e-02
7.750130e-02
-2.080820e-01
-2.218290e-01
-1.083940e-01
-1.143290e-01
1.095160e-01
1.175860e-01
-1.949630e-01
-2.080820e-01
-6.205190e-02
-6.678620e-02
1.010850e-01
1.095160e-01
-1.135070e-01
-1.092730e-01
-2.080820e-01
-2.218290e-01
-6.678620e-02
-7.054740e-02
1.095160e-01
1.175860e-01
-1.092730e-01
-1.046260e-01
-6.205190e-02
-6.678620e-02
-3.243200e-02
-3.871570e-02
-1.135070e-01
-1.092730e-01
1.235480e-01
1.194050e-01
-6.678620e-02
-7.054740e-02
-3.871570e-02
-4.450900e-02
-1.092730e-01
-1.046260e-01
1.194050e-01
1.149420e-01
-3.243200e-02
-3.871570e-02
9.397730e-02
9.453060e-02
1.235480e-01
1.194050e-01
-8.331860e-02
-8.565770e-02
-3.871570e-02
-4.450900e-02
9.453060e-02
9.485400e-02
1.194050e-01
1.149420e-01
-8.565770e-02
-8.739930e-02
9.397730e-02
9.453060e-02
-2.288570e-02
-1.704170e-02
-8.331860e-02
-8.565770e-02
2.609300e-02
3.089460e-02
9.453060e-02
9.485400e-02
-1.704170e-02
-1.151730e-02
-8.565770e-02
-8.739930e-02
3.089460e-02
3.593330e-02
-2.288570e-02
-1.704170e-02
-2.066870e-02
-1.400880e-02
2.609300e-02
3.089460e-02
-3.016180e-02
-2.427900e-02
-1.704170e-02
-1.151730e-02
-1.400880e-02
-7.415260e-03
3.089460e-02
3.593330e-02
-2.427900e-02
-1.888670e-02
-2.066870e-02
-1.400880e-02
-1.458730e-01
-1.485830e-01
-3.016180e-02
-2.427900e-02
1.689270e-01
1.626530e-01
-1.400880e-02
-7.415260e-03
-1.485830e-01
-1.510460e-01
-2.427900e-02
-1.888670e-02
1.626530e-01
1.563130e-01
-1.458730e-01
-1.485830e-01
1.606650e-03
1.518160e-04
1.689270e-01
1.626530e-01
4.173500e-02
4.402370e-02
-1.485830e-01
-1.510460e-01
1.518160e-04
-3.008800e-03
1.626530e-01
1.563130e-01
4.402370e-02
4.671450e-02
1.606650e-03
1.518160e-04
3.174190e-02
3.120610e-02
4.173500e-02
4.402370e-02
-1.125970e-01
-1.170220e-01
1.518160e-04
-3.008800e-03
3.120610e-02
3.081800e-02
4.402370e-02
4.671450e-02
-1.170220e-01
-1.208330e-01
3.174190e-02
3.120610e-02
1.044420e-02
1.744080e-02
-1.125970e-01
-1.170220e-01
7.003600e-02
6.191110e-02
3.120610e-02
3.081800e-02
1.744080e-02
2.538950e-02
-1.170220e-01
-1.208330e-01
6.191110e-02
5.376750e-02
1.044420e-02
1.744080e-02
-8.641020e-02
-6.810190e-02
7.003600e-02
6.191110e-02
9.665390e-02
9.859850e-02
1.744080e-02
2.538950e-02
-6.810190e-02
-4.929670e-02
6.191110e-02
5.376750e-02
9.859850e-02
1.006480e-01
-8.641020e-02
-6.810190e-02
9.474800e-02
8.660290e-02
9.665390e-02
9.859850e-02
-1.687430e-02
-1.522370e-02
-6.810190e-02
-4.929670e-02
8.660290e-02
7.892710e-02
9.859850e-02
1.006480e-01
-1.522370e-02
-1.314180e-02
9.474800e-02
8.660290e-02
-1.126640e-01
-1.111830e-01
-1.687430e-02
-1.522370e-02
1.863090e-02
1.509620e-02
8.660290e-02
7.892710e-02
-1.111830e-01
-1.100280e-01
-1.522370e-02
-1.314180e-02
1.509620e-02
1.159390e-02
-1.126640e-01
-1.111830e-01
-2.644480e-02
-2.179780e-02
1.863090e-02
1.509620e-02
-4.284420e-02
-4.665640e-02
-1.111830e-01
-1.100280e-01
-2.179780e-02
-1.762200e-02
1.509620e-02
1.159390e-02
-4.665640e-02
-5.007960e-02
-2.644480e-02
-2.179780e-02
3.352350e-02
3.337510e-02
-4.284420e-02
-4.665640e-02
8.338110e-02
7.967070e-02
-2.179780e-02
-1.762200e-02
3.337510e-02
3.066660e-02
-4.665640e-02
-5.007960e-02
7.967070e-02
7.577610e-02
3.352350e-02
3.337510e-02
1.338750e-01
1.367800e-01
8.338110e-02
7.967070e-02
-1.511800e-01
-1.450750e-01
3.337510e-02
3.066660e-02
1.367800e-01
1.378510e-01
7.967070e-02
7.577610e-02
-1.450750e-01
-1.381400e-01
1.338750e-01
1.367800e-01
2.301990e-01
2.335150e-01
-1.511800e-01
-1.450750e-01
-2.063710e-01
-2.121280e-01
1.367800e-01
1.378510e-01
2.335150e-01
2.371740e-01
-1.450750e-01
-1.381400e-01
-2.121280e-01
-2.178250e-01
2.301990e-01
2.335150e-01
9.882890e-04
5.961780e-03
-2.063710e-01
-2.121280e-01
2.218100e-02
1.509230e-02
2.335150e-01
2.371740e-01
5.961780e-03
1.035500e-02
-2.121280e-01
-2.178250e-01
1.509230e-02
8.912220e-03
9.882890e-04
5.961780e-03
-3.337110e-02
-3.896440e-02
2.218100e-02
1.509230e-02
-2.537030e-02
-2.354030e-02
5.961780e-03
1.035500e-02
-3.896440e-02
-4.227440e-02
1.509230e-02
8.912220e-03
-2.354030e-02
-2.216270e-02
-3.337110e-02
-3.896440e-02
4.045690e-02
4.031860e-02
-2.537030e-02
-2.354030e-02
-7.563260e-02
-8.413990e-02
-3.896440e-02
-4.227440e-02
4.031860e-02
3.935580e-02
-2.354030e-02
-2.216270e-02
-8.413990e-02
-9.152840e-02
4.045690e-02
4.031860e-02
1.943630e-01
1.924570e-01
-7.563260e-02
-8.413990e-02
-2.414420e-02
-1.796880e-02
4.031860e-02
3.935580e-02
1.924570e-01
1.907740e-01
-8.413990e-02
-9.152840e-02
-1.796880e-02
-1.185340e-02
1.943630e-01
1.924570e-01
-1.818720e-01
-1.855910e-01
-2.414420e-02
-1.796880e-02
1.391360e-01
1.380870e-01
1.924570e-01
1.907740e-01
-1.855910e-01
-1.903510e-01
-1.796880e-02
-1.185340e-02
1.380870e-01
1.368440e-01
-1.818720e-01
-1.855910e-01
-2.566820e-02
-2.616600e-02
1.391360e-01
1.380870e-01
-1.316380e-01
-1.281300e-01
-1.855910e-01
-1.903510e-01
-2.616600e-02
-2.755150e-02
1.380870e-01
1.368440e-01
-1.281300e-01
-1.239180e-01
-2.566820e-02
-2.616600e-02
-2.151070e-01
-2.108980e-01
-1.316380e-01
-1.281300e-01
1.532860e-01
1.521100e-01
-2.616600e-02
-2.755150e-02
-2.108980e-01
-2.083710e-01
-1.281300e-01
-1.239180e-01
1.521100e-01
1.516880e-01
-2.151070e-01
-2.108980e-01
-1.065790e-01
-1.115770e-01
1.532860e-01
1.521100e-01
1.058390e-01
1.098290e-01
-2.108980e-01
-2.083710e-01
-1.115770e-01
-1.184680e-01
1.521100e-01
1.516880e-01
1.098290e-01
1.132900e-01
-1.065790e-01
-1.115770e-01
1.366030e-01
1.292010e-01
1.058390e-01
1.098290e-01
-5.143760e-02
-4.353220e-02
-1.115770e-01
-1.184680e-01
1.292010e-01
1.219240e-01
1.098290e-01
1.132900e-01
-4.353220e-02
-3.478600e-02
1.366030e-01
1.292010e-01
-1.029770e-01
-1.124410e-01
-5.143760e-02
-4.353220e-02
5.675450e-02
6.014430e-02
1.292010e-01
1.219240e-01
-1.124410e-01
-1.217460e-01
-4.353220e-02
-3.478600e-02
6.014430e-02
6.443430e-02
-1.029770e-01
-1.124410e-01
1.219780e-01
1.198280e-01
5.675450e-02
6.014430e-02
-1.671760e-04
7.601040e-03
-1.124410e-01
-1.217460e-01
1.198280e-01
1.181290e-01
6.014430e-02
6.443430e-02
7.601040e-03
1.485510e-02
0.000000e+00
0.000000e+00
1.044440e-02
8.357500e-03
0.000000e+00
0.000000e+00
-2.858880e-02
-3.255560e-02
0.000000e+00
0.000000e+00
8.357500e-03
6.221970e-03
0.000000e+00
0.000000e+00
-3.255560e-02
-3.633090e-02
1.044440e-02
8.357500e-03
-1.021690e-01
-1.083940e-01
-2.858880e-02
-3.255560e-02
1.596520e-01
1.630250e-01
8.357500e-03
6.221970e-03
-1.083940e-01
-1.143290e-01
-3.255560e-02
-3.633090e-02
1.630250e-01
1.672460e-01
-1.021690e-01
-1.083940e-01
1.010850e-01
1.095160e-01
1.596520e-01
1.630250e-01
-6.473050e-03
-9.961810e-03
-1.083940e-01
-1.143290e-01
1.095160e-01
1.175860e-01
1.630250e-01
1.672460e-01
-9.961810e-03
-1.307820e-02
1.010850e-01
1.095160e-01
-1.135070e-01
-1.092730e-01
-6.473050e-03
-9.961810e-03
2.876710e-01
2.836490e-01
1.095160e-01
1.175860e-01
-1.092730e-01
-1.046260e-01
-9.961810e-03
-1.307820e-02
2.836490e-01
2.796940e-01
-1.135070e-01
-1.092730e-01
1.235480e-01
1.194050e-01
2.876710e-01
2.836490e-01
-2.218670e-01
-2.049750e-01
-1.092730e-01
-1.046260e-01
1.194050e-01
1.149420e-01
2.836490e-01
2.796940e-01
-2.049750e-01
-1.902010e-01
1.235480e-01
1.194050e-01
-8.331860e-02
-8.565770e-02
-2.218670e-01
-2.049750e-01
7.724660e-02
8.638700e-02
1.194050e-01
1.149420e-01
-8.565770e-02
-8.739930e-02
-2.049750e-01
-1.902010e-01
8.638700e-02
9.573710e-02
-8.331860e-02
-8.565770e-02
2.609300e-02
3.089460e-02
7.724660e-02
8.638700e-02
-3.455720e-02
-4.994610e-02
-8.565770e-02
-8.739930e-02
3.089460e-02
3.593330e-02
8.638700e-02
9.573710e-02
-4.994610e-02
-6.582490e-02
2.609300e-02
3.089460e-02
-3.016180e-02
-2.427900e-02
-3.455720e-02
-4.994610e-02
7.939620e-02
6.221430e-02
3.089460e-02
3.593330e-02
-2.427900e-02
-1.888670e-02
-4.994610e-02
-6.582490e-02
6.221430e-02
4.512520e-02
-3.016180e-02
-2.427900e-02
1.689270e-01
1.626530e-01
7.939620e-02
6.221430e-02
-1.960520e-01
-1.803940e-01
-2.427900e-02
-1.888670e-02
1.626530e-01
1.563130e-01
6.221430e-02
4.512520e-02
-1.803940e-01
-1.638290e-01
1.689270e-01
1.626530e-01
4.173500e-02
4.402370e-02
-1.960520e-01
-1.803940e-01
-8.714940e-02
-8.693390e-02
1.626530e-01
1.563130e-01
4.402370e-02
4.671450e-02
-1.803940e-01
-1.638290e-01
-8.693390e-02
-8.704100e-02
4.173500e-02
4.402370e-02
-1.125970e-01
-1.170220e-01
-8.714940e-02
-8.693390e-02
1.910300e-01
1.999460e-01
4.402370e-02
4.671450e-02
-1.170220e-01
-1.208330e-01
-8.693390e-02
-8.704100e-02
1.999460e-01
2.098390e-01
-1.125970e-01
-1.170220e-01
7.003600e-02
6.191110e-02
1.910300e-01
1.999460e-01
-1.396700e-01
-1.336960e-01
-1.170220e-01
-1.208330e-01
6.191110e-02
5.376750e-02
1.999460e-01
2.098390e-01
-1.336960e-01
-1.299210e-01
7.003600e-02
6.191110e-02
9.665390e-02
9.859850e-02
-1.396700e-01
-1.336960e-01
-1.109590e-01
-1.324750e-01
6.191110e-02
5.376750e-02
9.859850e-02
1.006480e-01
-1.336960e-01
-1.299210e-01
-1.324750e-01
-1.542800e-01
9.665390e-02
9.859850e-02
-1.687430e-02
-1.522370e-02
-1.109590e-01
-1.324750e-01
-6.539600e-02
-5.636340e-02
9.859850e-02
1.006480e-01
-1.522370e-02
-1.314180e-02
-1.324750e-01
-1.542800e-01
-5.636340e-02
-4.896920e-02
-1.687430e-02
-1.522370e-02
1.863090e-02
1.509620e-02
-6.539600e-02
-5.636340e-02
7.750630e-02
8.022510e-02
-1.522370e-02
-1.314180e-02
1.509620e-02
1.159390e-02
-5.636340e-02
-4.896920e-02
8.022510e-02
8.301140e-02
1.863090e-02
1.509620e-02
-4.284420e-02
-4.665640e-02
7.750630e-02
8.022510e-02
1.220920e-01
1.228380e-01
1.509620e-02
1.159390e-02
-4.665640e-02
-5.007960e-02
8.022510e-02
8.301140e-02
1.228380e-01
1.235250e-01
-4.284420e-02
-4.665640e-02
8.338110e-02
7.967070e-02
1.220920e-01
1.228380e-01
-2.043580e-01
-2.025860e-01
-4.665640e-02
-5.007960e-02
7.967070e-02
7.577610e-02
1.228380e-01
1.235250e-01
-2.025860e-01
-1.993430e-01
8.338110e-02
7.967070e-02
-1.511800e-01
-1.450750e-01
-2.043580e-01
-2.025860e-01
1.698550e-01
1.599260e-01
7.967070e-02
7.577610e-02
-1.450750e-01
-1.381400e-01
-2.025860e-01
-1.993430e-01
1.599260e-01
1.514900e-01
-1.511800e-01
-1.450750e-01
-2.063710e-01
-2.121280e-01
1.698550e-01
1.599260e-01
1.820770e-01
1.896450e-01
-1.450750e-01
-1.381400e-01
-2.121280e-01
-2.178250e-01
1.599260e-01
1.514900e-01
1.896450e-01
1.961710e-01
-2.063710e-01
-2.121280e-01
2.218100e-02
1.509230e-02
1.820770e-01
1.896450e-01
-4.306530e-02
-3.978000e-02
-2.121280e-01
-2.178250e-01
1.509230e-02
8.912220e-03
1.896450e-01
1.961710e-01
-3.978000e-02
-3.815140e-02
2.218100e-02
1.509230e-02
-2.537030e-02
-2.354030e-02
-4.306530e-02
-3.978000e-02
8.404410e-02
8.982110e-02
1.509230e-02
8.912220e-03
-2.354030e-02
-2.216270e-02
-3.978000e-02
-3.815140e-02
8.982110e-02
9.426450e-02
-2.537030e-02
-2.354030e-02
-7.563260e-02
-8.413990e-02
8.404410e-02
8.982110e-02
1.007430e-01
1.212160e-01
-2.354030e-02
-2.216270e-02
-8.413990e-02
-9.152840e-02
8.982110e-02
9.426450e-02
1.212160e-01
1.410620e-01
-7.563260e-02
-8.413990e-02
-2.414420e-02
-1.796880e-02
1.007430e-01
1.212160e-01
-1.374080e-01
-1.498600e-01
-8.413990e-02
-9.152840e-02
-1.796880e-02
-1.185340e-02
1.212160e-01
1.410620e-01
-1.498600e-01
-1.629320e-01
-2.414420e-02
-1.796880e-02
1.391360e-01
1.380870e-01
-1.374080e-01
-1.498600e-01
-9.179820e-02
-9.162470e-02
-1.796880e-02
-1.185340e-02
1.380870e-01
1.368440e-01
-1.498600e-01
-1.629320e-01
-9.162470e-02
-9.229150e-02
1.391360e-01
1.380870e-01
-1.316380e-01
-1.281300e-01
-9.179820e-02
-9.162470e-02
2.907160e-01
2.855460e-01
1.380870e-01
1.368440e-01
-1.281300e-01
-1.239180e-01
-9.162470e-02
-9.229150e-02
2.855460e-01
2.811180e-01
-1.316380e-01
-1.281300e-01
1.532860e-01
1.521100e-01
2.907160e-01
2.855460e-01
-9.693300e-02
-9.746500e-02
-1.281300e-01
-1.239180e-01
1.521100e-01
1.516880e-01
2.855460e-01
2.811180e-01
-9.746500e-02
-9.727930e-02
1.532860e-01
1.521100e-01
1.058390e-01
1.098290e-01
-9.693300e-02
-9.746500e-02
-1.042550e-01
-1.062950e-01
1.521100e-01
1.516880e-01
1.098290e-01
1.132900e-01
-9.746500e-02
-9.727930e-02
-1.062950e-01
-1.073030e-01
1.058390e-01
1.098290e-01
-5.143760e-02
-4.353220e-02
-1.042550e-01
-1.062950e-01
-3.615790e-02
-4.779790e-02
1.098290e-01
1.132900e-01
-4.353220e-02
-3.478600e-02
-1.062950e-01
-1.073030e-01
-4.779790e-02
-6.065450e-02
-5.143760e-02
-4.353220e-02
5.675450e-02
6.014430e-02
-3.615790e-02
-4.779790e-02
-4.165270e-03
-7.393160e-03
-4.353220e-02
-3.478600e-02
6.014430e-02
6.443430e-02
-4.779790e-02
-6.065450e-02
-7.393160e-03
-1.129460e-02
5.675450e-02
6.014430e-02
-1.671760e-04
7.601040e-03
-4.165270e-03
-7.393160e-03
-1.248280e-01
-1.256200e-01
6.014430e-02
6.443430e-02
7.601040e-03
1.485510e-02
-7.393160e-03
-1.129460e-02
-1.256200e-01
-1.291060e-01
</DataArray>
<DataArray type="Float32" Name="V2" format="ascii">
0.000000e+00
0.000000e+00
2.705740e-01
2.259640e-01
0.000000e+00
0.000000e+00
-8.348760e-02
-1.249130e-01
0.000000e+00
0.000000e+00
2.259640e-01
2.541170e-01
0.000000e+00
0.000000e+00
-1.249130e-01
-1.916270e-01
2.705740e-01
2.259640e-01
3.164860e-01
5.553310e-02
-8.348760e-02
-1.249130e-01
-3.348890e-01
-6.812410e-02
2.259640e-01
2.541170e-01
5.553310e-02
-1.777820e-01
-1.249130e-01
-1.916270e-01
-6.812410e-02
1.815020e-01
3.164860e-01
5.553310e-02
-7.153660e-02
-3.175310e-01
-3.348890e-01
-6.812410e-02
2.226410e-02
2.171790e-01
5.553310e-02
-1.777820e-01
-3.175310e-01
-5.227940e-01
-6.812410e-02
1.815020e-01
2.171790e-01
3.759100e-01
-7.153660e-02
-3.175310e-01
-1.409350e-01
-2.108750e-02
2.226410e-02
2.171790e-01
4.629580e-02
-5.110810e-02
-3.175310e-01
-5.227940e-01
-2.108750e-02
5.131350e-02
2.171790e-01
3.759100e-01
-5.110810e-02
-1.190470e-01
-1.409350e-01
-2.108750e-02
-3.213220e-01
-1.805550e-01
4.629580e-02
-5.110810e-02
2.779750e-01
1.724810e-01
-2.108750e-02
5.131350e-02
-1.805550e-01
-4.201350e-02
-5.110810e-02
-1.190470e-01
1.724810e-01
4.669210e-02
-3.213220e-01
-1.805550e-01
2.316580e-01
1.422600e-01
2.779750e-01
1.724810e-01
-1.204520e-01
-1.502510e-01
-1.805550e-01
-4.201350e-02
1.422600e-01
5.695730e-02
1.724810e-01
4.669210e-02
-1.502510e-01
-1.399330e-01
2.316580e-01
1.422600e-01
1.499880e-02
-1.402110e-01
-1.204520e-01
-1.502510e-01
-5.106690e-02
1.406960e-02
1.422600e-01
5.695730e-02
-1.402110e-01
-2.364510e-01
-1.502510e-01
-1.399330e-01
1.406960e-02
1.932320e-02
1.499880e-02
-1.402110e-01
-2.490190e-02
-3.975120e-02
-5.106690e-02
1.406960e-02
-6.056840e-02
-2.013940e-02
-1.402110e-01
-2.364510e-01
-3.975120e-02
-1.083320e-01
1.406960e-02
1.932320e-02
-2.013940e-02
5.655880e-02
-2.490190e-02
-3.975120e-02
-3.767700e-02
6.582670e-02
-6.056840e-02
-2.013940e-02
1.068880e-01
3.034370e-02
-3.975120e-02
-1.083320e-01
6.582670e-02
2.020990e-01
-2.013940e-02
5.655880e-02
3.034370e-02
-8.234150e-02
-3.767700e-02
6.582670e-02
-2.828160e-01
-9.004880e-02
1.068880e-01
3.034370e-02
2.993950e-01
1.807690e-01
6.582670e-02
2.020990e-01
-9.004880e-02
1.525720e-01
3.034370e-02
-8.234150e-02
1.807690e-01
4.920350e-02
-2.828160e-01
-9.004880e-02
-9.645660e-03
2.060350e-02
2.993950e-01
1.807690e-01
-1.960090e-01
-1.437270e-01
-9.004880e-02
1.525720e-01
2.060350e-02
8.309300e-02
1.807690e-01
4.920350e-02
-1.437270e-01
-1.134520e-01
-9.645660e-03
2.060350e-02
2.726240e-02
5.972990e-02
-1.960090e-01
-1.437270e-01
-1.124530e-01
-1.070280e-01
2.060350e-02
8.309300e-02
5.972990e-02
3.820810e-02
-1.437270e-01
-1.134520e-01
-1.070280e-01
-4.736030e-02
2.726240e-02
5.972990e-02
-1.374470e-01
-5.379820e-02
-1.124530e-01
-1.070280e-01
2.212910e-01
4.538120e-02
5.972990e-02
3.820810e-02
-5.379820e-02
4.882850e-02
-1.070280e-01
-4.736030e-02
4.538120e-02
-1.484400e-01
-1.374470e-01
-5.379820e-02
1.282960e-01
-5.945280e-02
2.212910e-01
4.538120e-02
5.370460e-02
9.546810e-02
-5.379820e-02
4.882850e-02
-5.945280e-02
-2.864930e-01
4.538120e-02
-1.484400e-01
9.546810e-02
1.508340e-01
1.282960e-01
-5.945280e-02
-1.441160e-01
-6.768700e-02
5.370460e-02
9.546810e-02
1.935660e-01
6.465750e-02
-5.945280e-02
-2.864930e-01
-6.768700e-02
6.074310e-04
9.546810e-02
1.508340e-01
6.465750e-02
-7.319440e-02
-1.441160e-01
-6.768700e-02
-8.656840e-02
-8.457980e-02
1.935660e-01
6.465750e-02
-1.806490e-02
1.573160e-02
-6.768700e-02
6.074310e-04
-8.457980e-02
-1.323170e-01
6.465750e-02
-7.319440e-02
1.573160e-02
1.395870e-01
-8.656840e-02
-8.457980e-02
-1.703500e-01
-1.888740e-02
-1.806490e-02
1.573160e-02
-5.809950e-03
-7.193490e-02
-8.457980e-02
-1.323170e-01
-1.888740e-02
1.811970e-01
1.573160e-02
1.395870e-01
-7.193490e-02
-1.732810e-01
-1.703500e-01
-1.888740e-02
-2.893270e-02
1.103340e-01
-5.809950e-03
-7.193490e-02
-1.674260e-02
-3.522500e-02
-1.888740e-02
1.811970e-01
1.103340e-01
2.202080e-01
-7.193490e-02
-1.732810e-01
-3.522500e-02
-2.368590e-02
-2.893270e-02
1.103340e-01
2.327310e-01
1.609800e-01
-1.674260e-02
-3.522500e-02
-1.866840e-01
-1.122720e-01
1.103340e-01
2.202080e-01
1.609800e-01
9.404500e-02
-3.522500e-02
-2.368590e-02
-1.122720e-01
-8.024170e-02
2.327310e-01
1.609800e-01
-1.777090e-01
-5.562460e-02
-1.866840e-01
-1.122720e-01
-9.480010e-02
-6.255420e-02
1.609800e-01
9.404500e-02
-5.562460e-02
5.043060e-02
-1.122720e-01
-8.024170e-02
-6.255420e-02
-2.053810e-03
-1.777090e-01
-5.562460e-02
-3.488170e-01
-2.673430e-01
-9.480010e-02
-6.255420e-02
2.766810e-01
2.547580e-01
-5.562460e-02
5.043060e-02
-2.673430e-01
-1.621880e-01
-6.255420e-02
-2.053810e-03
2.547580e-01
2.383080e-01
-3.488170e-01
-2.673430e-01
3.167720e-02
-3.770010e-02
2.766810e-01
2.547580e-01
-6.002060e-02
4.244410e-02
-2.673430e-01
-1.621880e-01
-3.770010e-02
-6.152030e-02
2.547580e-01
2.383080e-01
4.244410e-02
1.247870e-01
3.167720e-02
-3.770010e-02
4.365230e-02
1.818390e-01
-6.002060e-02
4.244410e-02
-5.961480e-02
-1.108230e-01
-3.770010e-02
-6.152030e-02
1.818390e-01
3.286940e-01
4.244410e-02
1.247870e-01
-1.108230e-01
-1.860220e-01
4.365230e-02
1.818390e-01
-4.983840e-02
-6.169030e-02
-5.961480e-02
-1.108230e-01
-5.224460e-02
1.579350e-02
1.818390e-01
3.286940e-01
-6.169030e-02
-1.358870e-01
-1.108230e-01
-1.860220e-01
1.579350e-02
8.605460e-02
-4.983840e-02
-6.169030e-02
4.164070e-02
-8.024480e-02
-5.224460e-02
1.579350e-02
-2.254340e-02
-7.295580e-02
-6.169030e-02
-1.358870e-01
-8.024480e-02
-2.123760e-01
1.579350e-02
8.605460e-02
-7.295580e-02
-9.790070e-02
4.164070e-02
-8.024480e-02
1.080920e-01
1.554030e-01
-2.254340e-02
-7.295580e-02
-5.634620e-03
-6.930010e-02
-8.024480e-02
-2.123760e-01
1.554030e-01
2.854340e-01
-7.295580e-02
-9.790070e-02
-6.930010e-02
-1.671630e-01
1.080920e-01
1.554030e-01
1.366820e-01
4.050900e-03
-5.634620e-03
-6.930010e-02
3.275720e-02
1.803990e-01
1.554030e-01
2.854340e-01
4.050900e-03
-7.952220e-02
-6.930010e-02
-1.671630e-01
1.803990e-01
3.057470e-01
1.366820e-01
4.050900e-03
4.173950e-02
-2.100730e-02
3.275720e-02
1.803990e-01
9.607500e-02
8.205690e-03
4.050900e-03
-7.952220e-02
-2.100730e-02
-9.215190e-02
1.803990e-01
3.057470e-01
8.205690e-03
-1.113040e-01
4.173950e-02
-2.100730e-02
1.208570e-01
8.753430e-02
9.607500e-02
8.205690e-03
-1.946960e-01
-1.184030e-01
-2.100730e-02
-9.215190e-02
8.753430e-02
-2.985720e-02
8.205690e-03
-1.113040e-01
-1.184030e-01
4.296900e-02
1.208570e-01
8.753430e-02
3.063620e-01
-5.653410e-02
-1.946960e-01
-1.184030e-01
-2.417310e-01
1.404960e-01
8.753430e-02
-2.985720e-02
-5.653410e-02
-3.414780e-01
-1.184030e-01
4.296900e-02
1.404960e-01
4.190300e-01
0.000000e+00
0.000000e+00
-8.348760e-02
-1.249130e-01
0.000000e+00
0.000000e+00
-9.461880e-02
4.391300e-03
0.000000e+00
0.000000e+00
-1.249130e-01
-1.916270e-01
0.000000e+00
0.000000e+00
4.391300e-03
9.070690e-02
-8.348760e-02
-1.249130e-01
-3.348890e-01
-6.812410e-02
-9.461880e-02
4.391300e-03
3.456190e-01
9.246850e-02
-1.249130e-01
-1.916270e-01
-6.812410e-02
1.815020e-01
4.391300e-03
9.070690e-02