<?xml version="1.0"?>
<VTKFile type="UnstructuredGrid" version="0.1" byte_order="LittleEndian" compressor="vtkZLibDataCompressor">
<UnstructuredGrid>
<Piece NumberOfPoints="960" NumberOfCells="120">
<Points>
<DataArray type="Float32" NumberOfComponents="3" format="ascii">
-4.000000e+02 -6.000000e+03 -4.000000e+02
0.000000e+00 -6.000000e+03 -4.000000e+02
-4.001520e+02 -5.599910e+03 -3.997200e+02
-1.547040e-01 -5.599940e+03 -4.000810e+02
-4.000000e+02 -6.000000e+03 0.000000e+00
0.000000e+00 -6.000000e+03 0.000000e+00
-3.999220e+02 -5.599860e+03 -1.573540e-01
8.189330e-02 -5.599920e+03 -1.149510e-01
0.000000e+00 -6.000000e+03 -4.000000e+02
4.000000e+02 -6.000000e+03 -4.000000e+02
-1.547040e-01 -5.599940e+03 -4.000810e+02
3.998430e+02 -5.599950e+03 -4.004650e+02
0.000000e+00 -6.000000e+03 0.000000e+00
4.000000e+02 -6.000000e+03 0.000000e+00
8.189330e-02 -5.599920e+03 -1.149510e-01
4.000860e+02 -5.599980e+03 -5.015500e-02
-4.001520e+02 -5.599910e+03 -3.997200e+02
-1.547040e-01 -5.599940e+03 -4.000810e+02
-4.000350e+02 -5.200050e+03 -4.008200e+02
-4.692570e-02 -5.200160e+03 -4.006190e+02
-3.999220e+02 -5.599860e+03 -1.573540e-01
8.189330e-02 -5.599920e+03 -1.149510e-01
-3.998940e+02 -5.200020e+03 6.119780e-01
1.083380e-01 -5.199970e+03 5.618080e-01
-1.547040e-01 -5.599940e+03 -4.000810e+02
3.998430e+02 -5.599950e+03 -4.004650e+02
-4.692570e-02 -5.200160e+03 -4.006190e+02
3.999420e+02 -5.200270e+03 -4.004760e+02
8.189330e-02 -5.599920e+03 -1.149510e-01
4.000860e+02 -5.599980e+03 -5.015500e-02
1.083380e-01 -5.199970e+03 5.618080e-01
4.001100e+02 -5.199940e+03 4.999080e-01
-4.000350e+02 -5.200050e+03 -4.008200e+02
-4.692570e-02 -5.200160e+03 -4.006190e+02
-3.998210e+02 -4.800350e+03 -4.009900e+02
1.739380e-01 -4.800370e+03 -4.006640e+02
-3.998940e+02 -5.200020e+03 6.119780e-01
1.083380e-01 -5.199970e+03 5.618080e-01
-4.000340e+02 -4.800060e+03 -8.635790e-01
-3.040940e-02 -4.800080e+03 -5.062260e-01
-4.692570e-02 -5.200160e+03 -4.006190e+02
3.999420e+02 -5.200270e+03 -4.004760e+02
1.739380e-01 -4.800370e+03 -4.006640e+02
4.001690e+02 -4.800400e+03 -4.003240e+02
1.083380e-01 -5.199970e+03 5.618080e-01
4.001100e+02 -5.199940e+03 4.999080e-01
-3.040940e-02 -4.800080e+03 -5.062260e-01
3.999740e+02 -4.800080e+03 -1.682760e-01
-3.998210e+02 -4.800350e+03 -4.009900e+02
1.739380e-01 -4.800370e+03 -4.006640e+02
-3.998980e+02 -4.400250e+03 -4.013620e+02
1.102330e-01 -4.400360e+03 -4.010120e+02
-4.000340e+02 -4.800060e+03 -8.635790e-01
-3.040940e-02 -4.800080e+03 -5.062260e-01
-3.999300e+02 -4.400110e+03 -9.083920e-01
6.373540e-02 -4.400080e+03 -7.636760e-01
1.739380e-01 -4.800370e+03 -4.006640e+02
4.001690e+02 -4.800400e+03 -4.003240e+02
1.102330e-01 -4.400360e+03 -4.010120e+02
4.001190e+02 -4.400490e+03 -4.006730e+02
-3.040940e-02 -4.800080e+03 -5.062260e-01
3.999740e+02 -4.800080e+03 -1.682760e-01
6.373540e-02 -4.400080e+03 -7.636760e-01
4.000570e+02 -4.400030e+03 -6.145590e-01
-3.998980e+02 -4.400250e+03 -4.013620e+02
1.102330e-01 -4.400360e+03 -4.010120e+02
-3.996900e+02 -4.000360e+03 -4.015080e+02
3.095270e-01 -4.000530e+03 -4.016540e+02
-3.999300e+02 -4.400110e+03 -9.083920e-01
6.373540e-02 -4.400080e+03 -7.636760e-01
-3.999360e+02 -4.000040e+03 -1.873920e+00
6.559620e-02 -3.999940e+03 -1.244380e+00
1.102330e-01 -4.400360e+03 -4.010120e+02
4.001190e+02 -4.400490e+03 -4.006730e+02
3.095270e-01 -4.000530e+03 -4.016540e+02
4.003090e+02 -4.000700e+03 -4.017690e+02
6.373540e-02 -4.400080e+03 -7.636760e-01
4.000570e+02 -4.400030e+03 -6.145590e-01
6.559620e-02 -3.999940e+03 -1.244380e+00
4.000680e+02 -3.999870e+03 -6.236450e-01
-3.996900e+02 -4.000360e+03 -4.015080e+02
3.095270e-01 -4.000530e+03 -4.016540e+02
-3.997830e+02 -3.600410e+03 -4.020730e+02
2.279790e-01 -3.600300e+03 -4.017040e+02
-3.999360e+02 -4.000040e+03 -1.873920e+00
6.559620e-02 -3.999940e+03 -1.244380e+00
-3.998730e+02 -3.600030e+03 -2.042200e+00
1.200560e-01 -3.600050e+03 -1.939440e+00
3.095270e-01 -4.000530e+03 -4.016540e+02
4.003090e+02 -4.000700e+03 -4.017690e+02
2.279790e-01 -3.600300e+03 -4.017040e+02
4.002390e+02 -3.600190e+03 -4.013290e+02
6.559620e-02 -3.999940e+03 -1.244380e+00
4.000680e+02 -3.999870e+03 -6.236450e-01
1.200560e-01 -3.600050e+03 -1.939440e+00
4.001130e+02 -3.600060e+03 -1.826910e+00
-3.997830e+02 -3.600410e+03 -4.020730e+02
2.279790e-01 -3.600300e+03 -4.017040e+02
-3.997750e+02 -3.200250e+03 -4.023070e+02
2.281550e-01 -3.200040e+03 -4.023530e+02
-3.998730e+02 -3.600030e+03 -2.042200e+00
1.200560e-01 -3.600050e+03 -1.939440e+00
-3.998700e+02 -3.199970e+03 -2.521110e+00
1.230140e-01 -3.200050e+03 -1.996400e+00
2.279790e-01 -3.600300e+03 -4.017040e+02
4.002390e+02 -3.600190e+03 -4.013290e+02
2.281550e-01 -3.200040e+03 -4.023530e+02
4.002300e+02 -3.199830e+03 -4.024010e+02
1.200560e-01 -3.600050e+03 -1.939440e+00
4.001130e+02 -3.600060e+03 -1.826910e+00
1.230140e-01 -3.200050e+03 -1.996400e+00
4.001160e+02 -3.200110e+03 -1.461590e+00
-3.997750e+02 -3.200250e+03 -4.023070e+02
2.281550e-01 -3.200040e+03 -4.023530e+02
-3.997100e+02 -2.800210e+03 -4.027730e+02
2.901500e-01 -2.800090e+03 -4.024360e+02
-3.998700e+02 -3.199970e+03 -2.521110e+00
1.230140e-01 -3.200050e+03 -1.996400e+00
-3.998990e+02 -2.799940e+03 -2.428730e+00
9.977020e-02 -2.799980e+03 -2.110350e+00
2.281550e-01 -3.200040e+03 -4.023530e+02
4.002300e+02 -3.199830e+03 -4.024010e+02
2.901500e-01 -2.800090e+03 -4.024360e+02
4.002900e+02 -2.799960e+03 -4.021440e+02
1.230140e-01 -3.200050e+03 -1.996400e+00
4.001160e+02 -3.200110e+03 -1.461590e+00
9.977020e-02 -2.799980e+03 -2.110350e+00
4.000980e+02 -2.800040e+03 -1.774260e+00
-3.997100e+02 -2.800210e+03 -4.027730e+02
2.901500e-01 -2.800090e+03 -4.024360e+02
-3.997290e+02 -2.400060e+03 -4.021150e+02
2.701850e-01 -2.400240e+03 -4.021470e+02
-3.998990e+02 -2.799940e+03 -2.428730e+00
9.977020e-02 -2.799980e+03 -2.110350e+00
-4.000390e+02 -2.400200e+03 -3.121580e+00
-3.561250e-02 -2.400080e+03 -2.827510e+00
2.901500e-01 -2.800090e+03 -4.024360e+02
4.002900e+02 -2.799960e+03 -4.021440e+02
2.701850e-01 -2.400240e+03 -4.021470e+02
4.002710e+02 -2.400410e+03 -4.021990e+02
9.977020e-02 -2.799980e+03 -2.110350e+00
4.000980e+02 -2.800040e+03 -1.774260e+00
-3.561250e-02 -2.400080e+03 -2.827510e+00
3.999670e+02 -2.399980e+03 -2.536320e+00
-3.997290e+02 -2.400060e+03 -4.021150e+02
2.701850e-01 -2.400240e+03 -4.021470e+02
-3.998790e+02 -2.000320e+03 -4.025680e+02
1.265440e-01 -2.000480e+03 -4.023960e+02
-4.000390e+02 -2.400200e+03 -3.121580e+00
-3.561250e-02 -2.400080e+03 -2.827510e+00
-4.000660e+02 -1.999970e+03 -2.669020e+00
-6.362080e-02 -2.000010e+03 -2.765500e+00
2.701850e-01 -2.400240e+03 -4.021470e+02
4.002710e+02 -2.400410e+03 -4.021990e+02
1.265440e-01 -2.000480e+03 -4.023960e+02
4.001330e+02 -2.000640e+03 -4.021940e+02
-3.561250e-02 -2.400080e+03 -2.827510e+00
3.999670e+02 -2.399980e+03 -2.536320e+00
-6.362080e-02 -2.000010e+03 -2.765500e+00
3.999390e+02 -2.000050e+03 -2.865210e+00
-3.998790e+02 -2.000320e+03 -4.025680e+02
1.265440e-01 -2.000480e+03 -4.023960e+02
-3.999490e+02 -1.600410e+03 -4.030020e+02
6.530580e-02 -1.600460e+03 -4.028860e+02
-4.000660e+02 -1.999970e+03 -2.669020e+00
-6.362080e-02 -2.000010e+03 -2.765500e+00
-3.999800e+02 -1.599920e+03 -3.132930e+00
1.382490e-02 -1.599990e+03 -2.980000e+00
1.265440e-01 -2.000480e+03 -4.023960e+02
4.001330e+02 -2.000640e+03 -4.021940e+02
6.530580e-02 -1.600460e+03 -4.028860e+02
4.000800e+02 -1.600530e+03 -4.027960e+02
-6.362080e-02 -2.000010e+03 -2.765500e+00
3.999390e+02 -2.000050e+03 -2.865210e+00
1.382490e-02 -1.599990e+03 -2.980000e+00
4.000070e+02 -1.600040e+03 -2.802980e+00
-3.999490e+02 -1.600410e+03 -4.030020e+02
6.530580e-02 -1.600460e+03 -4.028860e+02
-3.999310e+02 -1.200290e+03 -4.035870e+02
5.979950e-02 -1.200260e+03 -4.036370e+02
-3.999800e+02 -1.599920e+03 -3.132930e+00
1.382490e-02 -1.599990e+03 -2.980000e+00
-3.999730e+02 -1.199890e+03 -3.336190e+00
2.909080e-02 -1.199940e+03 -3.338800e+00
6.530580e-02 -1.600460e+03 -4.028860e+02
4.000800e+02 -1.600530e+03 -4.027960e+02
5.979950e-02 -1.200260e+03 -4.036370e+02
4.000500e+02 -1.200210e+03 -4.036690e+02
1.382490e-02 -1.599990e+03 -2.980000e+00
4.000070e+02 -1.600040e+03 -2.802980e+00
2.909080e-02 -1.199940e+03 -3.338800e+00
4.000310e+02 -1.199990e+03 -3.313390e+00
-3.999310e+02 -1.200290e+03 -4.035870e+02
5.979950e-02 -1.200260e+03 -4.036370e+02
-3.999770e+02 -8.003240e+02 -4.041850e+02
2.333310e-02 -8.002460e+02 -4.040680e+02
-3.999730e+02 -1.199890e+03 -3.336190e+00
2.909080e-02 -1.199940e+03 -3.338800e+00
-4.000850e+02 -7.999640e+02 -3.250390e+00
-8.927560e-02 -7.999820e+02 -3.341450e+00
5.979950e-02 -1.200260e+03 -4.036370e+02
4.000500e+02 -1.200210e+03 -4.036690e+02
2.333310e-02 -8.002460e+02 -4.040680e+02
4.000250e+02 -8.001450e+02 -4.039350e+02
2.909080e-02 -1.199940e+03 -3.338800e+00
4.000310e+02 -1.199990e+03 -3.313390e+00
-8.927560e-02 -7.999820e+02 -3.341450e+00
3.999060e+02 -8.000270e+02 -3.460480e+00
-3.999770e+02 -8.003240e+02 -4.041850e+02
2.333310e-02 -8.002460e+02 -4.040680e+02
-4.000970e+02 -4.002930e+02 -4.038280e+02
-1.061590e-01 -4.003620e+02 -4.041250e+02
-4.000850e+02 -7.999640e+02 -3.250390e+00
-8.927560e-02 -7.999820e+02 -3.341450e+00
-3.999290e+02 -4.001940e+02 -4.552030e+00
7.508520e-02 -4.001360e+02 -4.338140e+00
2.333310e-02 -8.002460e+02 -4.040680e+02
4.000250e+02 -8.001450e+02 -4.039350e+02
-1.061590e-01 -4.003620e+02 -4.041250e+02
3.998840e+02 -4.004330e+02 -4.044650e+02
-8.927560e-02 -7.999820e+02 -3.341450e+00
3.999060e+02 -8.000270e+02 -3.460480e+00
7.508520e-02 -4.001360e+02 -4.338140e+00
4.000790e+02 -4.000840e+02 -4.107000e+00
-4.000970e+02 -4.002930e+02 -4.038280e+02
-1.061590e-01 -4.003620e+02 -4.041250e+02
-4.002170e+02 -4.105760e-01 -4.041210e+02
-2.174190e-01 -3.415240e-01 -4.045420e+02
-3.999290e+02 -4.001940e+02 -4.552030e+00
7.508520e-02 -4.001360e+02 -4.338140e+00
-3.998740e+02 3.737760e-02 -4.467090e+00
1.298870e-01 -8.077450e-02 -4.631440e+00
-1.061590e-01 -4.003620e+02 -4.041250e+02
3.998840e+02 -4.004330e+02 -4.044650e+02
-2.174190e-01 -3.415240e-01 -4.045420e+02
[...]
<PointData>
<DataArray type="Float32" Name="V1" format="ascii">
0.000000e+00
0.000000e+00
-1.887860e-02
-3.433290e-02
0.000000e+00
0.000000e+00
2.541150e-02
2.540430e-02
0.000000e+00
0.000000e+00
-3.433290e-02
-5.005620e-02
0.000000e+00
0.000000e+00
2.540430e-02
2.553810e-02
-1.887860e-02
-3.433290e-02
8.509820e-02
8.732860e-02
2.541150e-02
2.540430e-02
-8.460710e-03
3.086690e-03
-3.433290e-02
-5.005620e-02
8.732860e-02
8.547010e-02
2.540430e-02
2.553810e-02
3.086690e-03
1.459220e-02
8.509820e-02
8.732860e-02
1.386320e-01
1.313000e-01
-8.460710e-03
3.086690e-03
-1.595860e-01
-1.502290e-01
8.732860e-02
8.547010e-02
1.313000e-01
1.249970e-01
3.086690e-03
1.459220e-02
-1.502290e-01
-1.395980e-01
1.386320e-01
1.313000e-01
2.701360e-01
2.747490e-01
-1.595860e-01
-1.502290e-01
-1.307920e-01
-1.385770e-01
1.313000e-01
1.249970e-01
2.747490e-01
2.780740e-01
-1.502290e-01
-1.395980e-01
-1.385770e-01
-1.459570e-01
2.701360e-01
2.747490e-01
-1.750640e-01
-1.915670e-01
-1.307920e-01
-1.385770e-01
6.282060e-02
6.596370e-02
2.747490e-01
2.780740e-01
-1.915670e-01
-2.066160e-01
-1.385770e-01
-1.459570e-01
6.596370e-02
6.953060e-02
-1.750640e-01
-1.915670e-01
-7.318530e-02
-6.846020e-02
6.282060e-02
6.596370e-02
5.792780e-02
4.795390e-02
-1.915670e-01
-2.066160e-01
-6.846020e-02
-6.453860e-02
6.596370e-02
6.953060e-02
4.795390e-02
3.818050e-02
-7.318530e-02
-6.846020e-02
-5.111810e-02
-4.588720e-02
5.792780e-02
4.795390e-02
1.243900e-01
1.295700e-01
-6.846020e-02
-6.453860e-02
-4.588720e-02
-4.071150e-02
4.795390e-02
3.818050e-02
1.295700e-01
1.357170e-01
-5.111810e-02
-4.588720e-02
1.797220e-01
1.666910e-01
1.243900e-01
1.295700e-01
-1.162490e-01
-1.126740e-01
-4.588720e-02
-4.071150e-02
1.666910e-01
1.554240e-01
1.295700e-01
1.357170e-01
-1.126740e-01
-1.091460e-01
1.797220e-01
1.666910e-01
1.893540e-01
1.869220e-01
-1.162490e-01
-1.126740e-01
-6.774430e-02
-5.926840e-02
1.666910e-01
1.554240e-01
1.869220e-01
1.832560e-01
-1.126740e-01
-1.091460e-01
-5.926840e-02
-5.034430e-02
1.893540e-01
1.869220e-01
-2.881320e-02
-2.816720e-02
-6.774430e-02
-5.926840e-02
1.456820e-02
2.233890e-02
1.869220e-01
1.832560e-01
-2.816720e-02
-2.810610e-02
-5.926840e-02
-5.034430e-02
2.233890e-02
3.137160e-02
-2.881320e-02
-2.816720e-02
-2.264030e-01
-2.182650e-01
1.456820e-02
2.233890e-02
1.423980e-01
1.324670e-01
-2.816720e-02
-2.810610e-02
-2.182650e-01
-2.129420e-01
2.233890e-02
3.137160e-02
1.324670e-01
1.209100e-01
-2.264030e-01
-2.182650e-01
-5.748230e-02
-6.643140e-02
1.423980e-01
1.324670e-01
1.560690e-01
1.550040e-01
-2.182650e-01
-2.129420e-01
-6.643140e-02
-7.567650e-02
1.324670e-01
1.209100e-01
1.550040e-01
1.545860e-01
-5.748230e-02
-6.643140e-02
-1.853260e-01
-1.612390e-01
1.560690e-01
1.550040e-01
1.245110e-01
1.144550e-01
-6.643140e-02
-7.567650e-02
-1.612390e-01
-1.400280e-01
1.550040e-01
1.545860e-01
1.144550e-01
1.045170e-01
-1.853260e-01
-1.612390e-01
-7.254260e-02
-6.452170e-02
1.245110e-01
1.144550e-01
-1.545800e-02
-1.896600e-02
-1.612390e-01
-1.400280e-01
-6.452170e-02
-5.473340e-02
1.144550e-01
1.045170e-01
-1.896600e-02
-2.135060e-02
-7.254260e-02
-6.452170e-02
-1.454900e-01
-1.680640e-01
-1.545800e-02
-1.896600e-02
2.099220e-01
2.227580e-01
-6.452170e-02
-5.473340e-02
-1.680640e-01
-1.888720e-01
-1.896600e-02
-2.135060e-02
2.227580e-01
2.374230e-01
-1.454900e-01
-1.680640e-01
-1.158550e-01
-9.128610e-02
2.099220e-01
2.227580e-01
-9.600590e-03
-1.759700e-02
-1.680640e-01
-1.888720e-01
-9.128610e-02
-6.892130e-02
2.227580e-01
2.374230e-01
-1.759700e-02
-2.522730e-02
-1.158550e-01
-9.128610e-02
2.346240e-02
1.707420e-02
-9.600590e-03
-1.759700e-02
2.925440e-02
4.021450e-02
-9.128610e-02
-6.892130e-02
1.707420e-02
1.173910e-02
-1.759700e-02
-2.522730e-02
4.021450e-02
5.226590e-02
2.346240e-02
1.707420e-02
-1.610870e-01
-1.604500e-01
2.925440e-02
4.021450e-02
1.739650e-01
1.698330e-01
1.707420e-02
1.173910e-02
-1.604500e-01
-1.618500e-01
4.021450e-02
5.226590e-02
1.698330e-01
1.653750e-01
-1.610870e-01
-1.604500e-01
-1.717150e-01
-1.853400e-01
1.739650e-01
1.698330e-01
-1.366620e-02
-8.246320e-03
-1.604500e-01
-1.618500e-01
-1.853400e-01
-1.964720e-01
1.698330e-01
1.653750e-01
-8.246320e-03
-2.385060e-03
-1.717150e-01
-1.853400e-01
4.324750e-02
6.219150e-02
-1.366620e-02
-8.246320e-03
-2.034910e-02
-2.834010e-02
-1.853400e-01
-1.964720e-01
6.219150e-02
7.756880e-02
-8.246320e-03
-2.385060e-03
-2.834010e-02
-3.528380e-02
4.324750e-02
6.219150e-02
-2.010440e-03
3.220800e-04
-2.034910e-02
-2.834010e-02
-1.654710e-01
-1.635010e-01
6.219150e-02
7.756880e-02
3.220800e-04
2.269560e-03
-2.834010e-02
-3.528380e-02
-1.635010e-01
-1.613370e-01
-2.010440e-03
3.220800e-04
5.208170e-02
4.191050e-02
-1.654710e-01
-1.635010e-01
-1.789260e-02
-4.854880e-03
3.220800e-04
2.269560e-03
4.191050e-02
3.062000e-02
-1.635010e-01
-1.613370e-01
-4.854880e-03
9.601050e-03
5.208170e-02
4.191050e-02
2.052820e-01
2.220870e-01
-1.789260e-02
-4.854880e-03
-8.738880e-02
-9.144490e-02
4.191050e-02
3.062000e-02
2.220870e-01
2.361380e-01
-4.854880e-03
9.601050e-03
-9.144490e-02
-9.517280e-02
2.052820e-01
2.220870e-01
-1.392300e-01
-1.823930e-01
-8.738880e-02
-9.144490e-02
9.890840e-02
1.186700e-01
2.220870e-01
2.361380e-01
-1.823930e-01
-2.230270e-01
-9.144490e-02
-9.517280e-02
1.186700e-01
1.388560e-01
-1.392300e-01
-1.823930e-01
2.547330e-02
1.790910e-02
9.890840e-02
1.186700e-01
-8.749970e-02
-9.781480e-02
-1.823930e-01
-2.230270e-01
1.790910e-02
9.654940e-03
1.186700e-01
1.388560e-01
-9.781480e-02
-1.072610e-01
2.547330e-02
1.790910e-02
9.122610e-04
6.724330e-03
-8.749970e-02
-9.781480e-02
4.997760e-02
4.964460e-02
1.790910e-02
9.654940e-03
6.724330e-03
1.332240e-02
-9.781480e-02
-1.072610e-01
4.964460e-02
4.913780e-02
9.122610e-04
6.724330e-03
5.328460e-02
8.756800e-02
4.997760e-02
4.964460e-02
2.171980e-02
6.890710e-03
6.724330e-03
1.332240e-02
8.756800e-02
1.200750e-01
4.964460e-02
4.913780e-02
6.890710e-03
-7.876880e-03
5.328460e-02
8.756800e-02
-3.201540e-02
-3.223110e-02
2.171980e-02
6.890710e-03
-3.573220e-02
-2.643160e-02
8.756800e-02
1.200750e-01
-3.223110e-02
-3.379180e-02
6.890710e-03
-7.876880e-03
-2.643160e-02
-1.651320e-02
-3.201540e-02
-3.223110e-02
-3.843350e-02
-5.119910e-02
-3.573220e-02
-2.643160e-02
4.679540e-02
5.435190e-02
-3.223110e-02
-3.379180e-02
-5.119910e-02
-6.233020e-02
-2.643160e-02
-1.651320e-02
5.435190e-02
6.246910e-02
-3.843350e-02
-5.119910e-02
1.795200e-01
1.884930e-01
4.679540e-02
5.435190e-02
-1.499050e-01
-1.665790e-01
-5.119910e-02
-6.233020e-02
1.884930e-01
1.914180e-01
5.435190e-02
6.246910e-02
-1.665790e-01
-1.808850e-01
0.000000e+00
0.000000e+00
2.541150e-02
2.540430e-02
0.000000e+00
0.000000e+00
-1.640160e-02
-1.393100e-02
0.000000e+00
0.000000e+00
2.540430e-02
2.553810e-02
0.000000e+00
0.000000e+00
-1.393100e-02
-1.051230e-02
2.541150e-02
2.540430e-02
-8.460710e-03
3.086690e-03
-1.640160e-02
-1.393100e-02
-7.135920e-02
-9.191420e-02
2.540430e-02
2.553810e-02
3.086690e-03
1.459220e-02
-1.393100e-02
-1.051230e-02
-9.191420e-02
-1.085680e-01
-8.460710e-03
3.086690e-03
-1.595860e-01
-1.502290e-01
-7.135920e-02
-9.191420e-02
1.797090e-01
1.683070e-01
3.086690e-03
1.459220e-02
-1.502290e-01
-1.395980e-01
-9.191420e-02
-1.085680e-01
1.683070e-01
1.551660e-01
-1.595860e-01
-1.502290e-01
-1.307920e-01
-1.385770e-01
1.797090e-01
1.683070e-01
1.545090e-03
8.503590e-03
-1.502290e-01
-1.395980e-01
-1.385770e-01
-1.459570e-01
1.683070e-01
1.551660e-01
8.503590e-03
1.483560e-02
-1.307920e-01
-1.385770e-01
6.282060e-02
6.596370e-02
1.545090e-03
8.503590e-03
4.676960e-02
5.199630e-02
-1.385770e-01
-1.459570e-01
6.596370e-02
6.953060e-02
8.503590e-03
1.483560e-02
5.199630e-02
5.542430e-02
6.282060e-02
6.596370e-02
5.792780e-02
4.795390e-02
4.676960e-02
5.199630e-02
-4.338170e-02
-2.824350e-02
6.596370e-02
6.953060e-02
4.795390e-02
3.818050e-02
5.199630e-02
5.542430e-02
-2.824350e-02
-1.113380e-02
5.792780e-02
4.795390e-02
1.243900e-01
1.295700e-01
-4.338170e-02
-2.824350e-02
-1.916630e-01
-2.076470e-01
4.795390e-02
3.818050e-02
1.295700e-01
1.357170e-01
-2.824350e-02
-1.113380e-02
-2.076470e-01
-2.256550e-01
1.243900e-01
1.295700e-01
-1.162490e-01
-1.126740e-01
-1.916630e-01
-2.076470e-01
4.961570e-02
5.604850e-02
1.295700e-01
1.357170e-01
-1.126740e-01
-1.091460e-01
-2.076470e-01
-2.256550e-01
5.604850e-02
6.055860e-02
-1.162490e-01
-1.126740e-01
-6.774430e-02
-5.926840e-02
4.961570e-02
5.604850e-02
-5.864400e-02
-7.405310e-02
-1.126740e-01
-1.091460e-01
-5.926840e-02
-5.034430e-02
5.604850e-02
6.055860e-02
-7.405310e-02
-8.939180e-02
-6.774430e-02
-5.926840e-02
1.456820e-02
2.233890e-02
-5.864400e-02
-7.405310e-02
4.828860e-03
-1.083960e-02
-5.926840e-02
-5.034430e-02
2.233890e-02
3.137160e-02
-7.405310e-02
-8.939180e-02
-1.083960e-02
-2.789440e-02
1.456820e-02
2.233890e-02
1.423980e-01
1.324670e-01
4.828860e-03
-1.083960e-02
-6.295170e-02
-4.785030e-02
2.233890e-02
3.137160e-02
1.324670e-01
1.209100e-01
-1.083960e-02
-2.789440e-02
-4.785030e-02
-2.935390e-02
1.423980e-01
1.324670e-01
1.560690e-01
1.550040e-01
-6.295170e-02
-4.785030e-02
-2.470570e-01
-2.379690e-01
1.324670e-01
1.209100e-01
1.550040e-01
1.545860e-01
-4.785030e-02
-2.935390e-02
-2.379690e-01
-2.287960e-01
1.560690e-01
1.550040e-01
1.245110e-01
1.144550e-01
-2.470570e-01
-2.379690e-01
-6.860740e-02
-7.519730e-02
1.550040e-01
1.545860e-01
1.144550e-01
1.045170e-01
-2.379690e-01
-2.287960e-01
-7.519730e-02
-8.020290e-02
1.245110e-01
1.144550e-01
-1.545800e-02
-1.896600e-02
-6.860740e-02
-7.519730e-02
1.087500e-01
1.100740e-01
1.144550e-01
1.045170e-01
-1.896600e-02
-2.135060e-02
-7.519730e-02
-8.020290e-02
1.100740e-01
1.096690e-01
-1.545800e-02
-1.896600e-02
2.099220e-01
2.227580e-01
1.087500e-01
1.100740e-01
-2.695690e-01
-2.749680e-01
-1.896600e-02
-2.135060e-02
2.227580e-01
2.374230e-01
1.100740e-01
1.096690e-01
-2.749680e-01
-2.845310e-01
2.099220e-01
2.227580e-01
-9.600590e-03
-1.759700e-02
-2.695690e-01
-2.749680e-01
1.227440e-01
1.160130e-01
2.227580e-01
2.374230e-01
-1.759700e-02
-2.522730e-02
-2.749680e-01
-2.845310e-01
1.160130e-01
1.112480e-01
-9.600590e-03
-1.759700e-02
2.925440e-02
4.021450e-02
1.227440e-01
1.160130e-01
-8.135750e-02
-9.448710e-02
-1.759700e-02
-2.522730e-02
4.021450e-02
5.226590e-02
1.160130e-01
1.112480e-01
-9.448710e-02
-1.095100e-01
2.925440e-02
4.021450e-02
1.739650e-01
1.698330e-01
-8.135750e-02
-9.448710e-02
-1.919400e-01
-1.813350e-01
4.021450e-02
5.226590e-02
1.698330e-01
1.653750e-01
-9.448710e-02
-1.095100e-01
-1.813350e-01
-1.693650e-01
1.739650e-01
1.698330e-01
-1.366620e-02
-8.246320e-03
-1.919400e-01
-1.813350e-01
1.936450e-01
1.921180e-01
1.698330e-01
1.653750e-01
-8.246320e-03
-2.385060e-03
-1.813350e-01
-1.693650e-01
1.921180e-01
1.884520e-01
-1.366620e-02
-8.246320e-03
-2.034910e-02
-2.834010e-02
1.936450e-01
1.921180e-01
8.711020e-03
1.319540e-03
-8.246320e-03
-2.385060e-03
-2.834010e-02
-3.528380e-02
1.921180e-01
1.884520e-01
1.319540e-03
-4.967840e-03
-2.034910e-02
-2.834010e-02
-1.654710e-01
-1.635010e-01
8.711020e-03
1.319540e-03
3.247190e-01
3.272600e-01
-2.834010e-02
-3.528380e-02
-1.635010e-01
-1.613370e-01
1.319540e-03
-4.967840e-03
3.272600e-01
3.297720e-01
-1.654710e-01
-1.635010e-01
-1.789260e-02
-4.854880e-03
3.247190e-01
3.272600e-01
-1.314630e-02
-2.598520e-02
-1.635010e-01
-1.613370e-01
-4.854880e-03
9.601050e-03
3.272600e-01
3.297720e-01
-2.598520e-02
-3.864990e-02
-1.789260e-02
-4.854880e-03
-8.738880e-02
-9.144490e-02
-1.314630e-02
-2.598520e-02
-2.464700e-02
-3.916280e-02
-4.854880e-03
9.601050e-03
-9.144490e-02
-9.517280e-02
-2.598520e-02
-3.864990e-02
-3.916280e-02
-5.249700e-02
-8.738880e-02
-9.144490e-02
9.890840e-02
1.186700e-01
-2.464700e-02
-3.916280e-02
-5.354310e-02
-4.936800e-02
-9.144490e-02
-9.517280e-02
1.186700e-01
1.388560e-01
-3.916280e-02
-5.249700e-02
-4.936800e-02
-4.792870e-02
9.890840e-02
1.186700e-01
-8.749970e-02
-9.781480e-02
-5.354310e-02
-4.936800e-02
1.457580e-01
1.711230e-01
1.186700e-01
1.388560e-01
-9.781480e-02
-1.072610e-01
-4.936800e-02
-4.792870e-02
1.711230e-01
1.932510e-01
-8.749970e-02
-9.781480e-02
4.997760e-02
4.964460e-02
1.457580e-01
1.711230e-01
-1.100500e-01
-1.092780e-01
-9.781480e-02
-1.072610e-01
4.964460e-02
4.913780e-02
1.711230e-01
1.932510e-01
-1.092780e-01
-1.099170e-01
4.997760e-02
4.964460e-02
2.171980e-02
6.890710e-03
-1.100500e-01
-1.092780e-01
-9.513900e-02
-1.014670e-01
4.964460e-02
4.913780e-02
6.890710e-03
-7.876880e-03
-1.092780e-01
-1.099170e-01
-1.014670e-01
-1.058380e-01
2.171980e-02
6.890710e-03
-3.573220e-02
-2.643160e-02
-9.513900e-02
-1.014670e-01
1.068870e-01
8.822590e-02
6.890710e-03
-7.876880e-03
-2.643160e-02
-1.651320e-02
-1.014670e-01
-1.058380e-01
8.822590e-02
6.986160e-02
-3.573220e-02
-2.643160e-02
4.679540e-02
5.435190e-02
1.068870e-01
8.822590e-02
-5.617800e-02
-5.838680e-02
-2.643160e-02
-1.651320e-02
5.435190e-02
6.246910e-02
8.822590e-02
6.986160e-02
-5.838680e-02
-6.210340e-02
4.679540e-02
5.435190e-02
-1.499050e-01
-1.665790e-01
-5.617800e-02
-5.838680e-02
1.242740e-01
1.432730e-01
5.435190e-02
6.246910e-02
-1.665790e-01
-1.808850e-01
-5.838680e-02
-6.210340e-02
1.432730e-01
1.631940e-01
</DataArray>
<DataArray type="Float32" Name="V2" format="ascii">
0.000000e+00
0.000000e+00
6.900790e-01
2.353670e-01
0.000000e+00
0.000000e+00
-4.233100e-01
-1.166180e-01
0.000000e+00
0.000000e+00
2.353670e-01
-1.331620e-01
0.000000e+00
0.000000e+00
-1.166180e-01
1.899700e-01
6.900790e-01
2.353670e-01
-2.967870e-02
1.924600e-01
-4.233100e-01
-1.166180e-01
1.399720e-01
-2.930250e-02
2.353670e-01
-1.331620e-01
1.924600e-01
3.930390e-01
-1.166180e-01
1.899700e-01
-2.930250e-02
-2.288260e-01
-2.967870e-02
1.924600e-01
2.008390e-01
1.006600e-01
1.399720e-01
-2.930250e-02
-1.737690e-01
-1.254940e-01
1.924600e-01
3.930390e-01
1.006600e-01
7.261140e-02
-2.930250e-02
-2.288260e-01
-1.254940e-01
-1.088390e-01
2.008390e-01
1.006600e-01
-9.995770e-02
-2.503270e-01
-1.737690e-01
-1.254940e-01
-6.826680e-02
1.176760e-01
1.006600e-01
7.261140e-02
-2.503270e-01
-4.726120e-01
-1.254940e-01
-1.088390e-01
1.176760e-01
3.127280e-01
-9.995770e-02
-2.503270e-01
-2.011650e-01
-2.514840e-01
-6.826680e-02
1.176760e-01
1.810040e-01
2.272230e-01
-2.503270e-01
-4.726120e-01
-2.514840e-01
-3.398350e-01
1.176760e-01
3.127280e-01
2.272230e-01
2.554040e-01
-2.011650e-01
-2.514840e-01
3.586140e-01
3.506190e-01
1.810040e-01
2.272230e-01
-5.055760e-02
-2.716190e-01
-2.514840e-01
-3.398350e-01
3.506190e-01
3.581550e-01
2.272230e-01
2.554040e-01
-2.716190e-01
-4.169680e-01
3.586140e-01
3.506190e-01
-7.320630e-02
-1.156310e-02
-5.055760e-02
-2.716190e-01
7.441230e-02
1.586120e-01
3.506190e-01
3.581550e-01
-1.156310e-02
1.257760e-01
-2.716190e-01
-4.169680e-01
1.586120e-01
1.932200e-01
-7.320630e-02
-1.156310e-02
3.386770e-03
1.054920e-01
7.441230e-02
1.586120e-01
-3.984440e-02
-3.828900e-02
-1.156310e-02
1.257760e-01
1.054920e-01
8.267370e-02
1.586120e-01
1.932200e-01
-3.828900e-02
-4.327800e-03
3.386770e-03
1.054920e-01
-6.244110e-02
3.276850e-02
-3.984440e-02
-3.828900e-02
-8.130660e-02
-2.098580e-01
1.054920e-01
8.267370e-02
3.276850e-02
1.744310e-01
-3.828900e-02
-4.327800e-03
-2.098580e-01
-3.398950e-01
-6.244110e-02
3.276850e-02
-3.446620e-01
-3.649570e-01
-8.130660e-02
-2.098580e-01
7.573960e-02
2.194360e-01
3.276850e-02
1.744310e-01
-3.649570e-01
-4.453470e-01
-2.098580e-01
-3.398950e-01
2.194360e-01
3.916970e-01
-3.446620e-01
-3.649570e-01
3.667300e-01
1.879990e-01
7.573960e-02
2.194360e-01
-6.847030e-02
-1.671850e-02
-3.649570e-01
-4.453470e-01
1.879990e-01
1.095940e-01
2.194360e-01
3.916970e-01
-1.671850e-02
-2.144780e-02
3.667300e-01
1.879990e-01
1.496290e-01
1.533880e-01
-6.847030e-02
-1.671850e-02
-1.941550e-02
-3.233040e-02
1.879990e-01
1.095940e-01
1.533880e-01
2.171390e-01
-1.671850e-02
-2.144780e-02
-3.233040e-02
-3.702240e-02
1.496290e-01
1.533880e-01
-3.551420e-01
-1.581000e-01
-1.941550e-02
-3.233040e-02
9.155730e-02
1.814660e-02
1.533880e-01
2.171390e-01
-1.581000e-01
4.277830e-02
-3.233040e-02
-3.702240e-02
1.814660e-02
-1.346450e-01
-3.551420e-01
-1.581000e-01
-1.740370e-01
-4.967090e-02
9.155730e-02
1.814660e-02
5.139580e-02
-1.223840e-02
-1.581000e-01
4.277830e-02
-4.967090e-02
-1.524900e-02
1.814660e-02
-1.346450e-01
-1.223840e-02
-1.534660e-03
-1.740370e-01
-4.967090e-02
3.603730e-01
1.553250e-02
5.139580e-02
-1.223840e-02
-3.788940e-01
-2.556320e-02
-4.967090e-02
-1.524900e-02
1.553250e-02
-3.665350e-01
-1.223840e-02
-1.534660e-03
-2.556320e-02
3.406840e-01
3.603730e-01
1.553250e-02
-3.366980e-01
-7.333900e-02
-3.788940e-01
-2.556320e-02
4.574010e-01
1.945710e-01
1.553250e-02
-3.665350e-01
-7.333900e-02
2.224600e-01
-2.556320e-02
3.406840e-01
1.945710e-01
-5.129150e-02
-3.366980e-01
-7.333900e-02
4.116200e-02
9.093070e-02
4.574010e-01
1.945710e-01
-4.065450e-02
-7.562710e-02
-7.333900e-02
2.224600e-01
9.093070e-02
1.790350e-01
1.945710e-01
-5.129150e-02
-7.562710e-02
-1.211240e-01
4.116200e-02
9.093070e-02
2.926190e-01
-4.174230e-02
-4.065450e-02
-7.562710e-02
-4.702360e-01
-1.464760e-01
9.093070e-02
1.790350e-01
-4.174230e-02
-3.794420e-01
-7.562710e-02
-1.211240e-01
-1.464760e-01
1.671600e-01
2.926190e-01
-4.174230e-02
-5.336870e-01
-3.184680e-01
-4.702360e-01
-1.464760e-01
4.756330e-01
2.959130e-01
-4.174230e-02
-3.794420e-01
-3.184680e-01
-3.955660e-02
-1.464760e-01
1.671600e-01
2.959130e-01
6.392280e-02
-5.336870e-01
-3.184680e-01
-1.490690e-01
2.263430e-01
4.756330e-01
2.959130e-01
9.925780e-02
-1.314200e-01
-3.184680e-01
-3.955660e-02
2.263430e-01
4.949500e-01
2.959130e-01
6.392280e-02
-1.314200e-01
-3.426270e-01
-1.490690e-01
2.263430e-01
1.852680e-02
-9.715240e-02
9.925780e-02
-1.314200e-01
-4.801980e-02
6.273940e-02
2.263430e-01
4.949500e-01
-9.715240e-02
-1.367740e-01
-1.314200e-01
-3.426270e-01
6.273940e-02
1.516940e-01
1.852680e-02
-9.715240e-02
6.555290e-02
-4.815670e-02
-4.801980e-02
6.273940e-02
4.129600e-02
7.360170e-02
-9.715240e-02
-1.367740e-01
-4.815670e-02
-1.611580e-01
6.273940e-02
1.516940e-01
7.360170e-02
1.205860e-01
6.555290e-02
-4.815670e-02
-3.154790e-02
1.572960e-01
4.129600e-02
7.360170e-02
-4.128750e-02
-8.163890e-02
-4.815670e-02
-1.611580e-01
1.572960e-01
3.696220e-01
7.360170e-02
1.205860e-01
-8.163890e-02
-1.207510e-01
-3.154790e-02
1.572960e-01
-8.362890e-02
7.847330e-02
-4.128750e-02
-8.163890e-02
-2.538340e-02
-1.938300e-02
1.572960e-01
3.696220e-01
7.847330e-02
1.043950e-01
-8.163890e-02
-1.207510e-01
-1.938300e-02
5.870860e-02
-8.362890e-02
7.847330e-02
-3.797790e-01
-1.996600e-01
-2.538340e-02
-1.938300e-02
3.801310e-01
1.921600e-01
7.847330e-02
1.043950e-01
-1.996600e-01
-8.159860e-02
-1.938300e-02
5.870860e-02
1.921600e-01
2.987930e-02
-3.797790e-01
-1.996600e-01
1.930430e-01
-7.762220e-02
3.801310e-01
1.921600e-01
-2.100920e-02
-3.674860e-02
-1.996600e-01
-8.159860e-02
-7.762220e-02
-2.474210e-01
1.921600e-01
2.987930e-02
-3.674860e-02
-8.134670e-02
1.930430e-01
-7.762220e-02
1.009990e-01
1.820510e-01
-2.100920e-02
-3.674860e-02
-1.177070e-01
-2.037390e-01
-7.762220e-02
-2.474210e-01
1.820510e-01
1.384580e-01
-3.674860e-02
-8.134670e-02
-2.037390e-01
-1.710020e-01
1.009990e-01
1.820510e-01
1.287740e-01
-8.321430e-02
-1.177070e-01
-2.037390e-01
6.475730e-02
1.108050e-01
1.820510e-01
1.384580e-01
-8.321430e-02
-1.634160e-01
-2.037390e-01
-1.710020e-01
1.108050e-01
4.800860e-02
1.287740e-01
-8.321430e-02
1.498710e-01
1.495790e-01
6.475730e-02
1.108050e-01
-5.609470e-02
-1.387260e-01
-8.321430e-02
-1.634160e-01
1.495790e-01
9.730490e-02
1.108050e-01
4.800860e-02
-1.387260e-01
-2.024500e-01
1.498710e-01
1.495790e-01
8.989720e-02
2.356190e-01
-5.609470e-02
-1.387260e-01
-2.018680e-01
-8.560170e-02
1.495790e-01
9.730490e-02
2.356190e-01
4.761800e-01
-1.387260e-01
-2.024500e-01
-8.560170e-02
-3.937230e-02
0.000000e+00
0.000000e+00
-4.233100e-01
-1.166180e-01
0.000000e+00
0.000000e+00
1.469870e-01
1.356720e-02
0.000000e+00
0.000000e+00
-1.166180e-01
1.899700e-01
0.000000e+00
0.000000e+00
1.356720e-02
-2.272890e-01
-4.233100e-01
-1.166180e-01
1.399720e-01
-2.930250e-02
1.469870e-01
1.356720e-02
-2.271800e-01
-1.315750e-01
-1.166180e-01
1.899700e-01
-2.930250e-02
-2.288260e-01
1.356720e-02
-2.272890e-01