<?xml version="1.0"?>
<VTKFile type="UnstructuredGrid" version="0.1" byte_order="LittleEndian" compressor="vtkZLibDataCompressor">
<UnstructuredGrid>
<Piece NumberOfPoints="960" NumberOfCells="120">
<Points>
<DataArray type="Float32" NumberOfComponents="3" format="ascii">
-4.000000e+02 -6.000000e+03 -4.000000e+02
0.000000e+00 -6.000000e+03 -4.000000e+02
-3.997440e+02 -5.600200e+03 -4.002670e+02
4.276010e-02 -5.600480e+03 -4.000460e+02
-4.000000e+02 -6.000000e+03 0.000000e+00
0.000000e+00 -6.000000e+03 0.000000e+00
-4.004030e+02 -5.599980e+03 -8.526810e-01
-2.823990e-01 -5.600240e+03 -2.772460e-01
0.000000e+00 -6.000000e+03 -4.000000e+02
4.000000e+02 -6.000000e+03 -4.000000e+02
4.276010e-02 -5.600480e+03 -4.000460e+02
3.998590e+02 -5.601160e+03 -4.007370e+02
0.000000e+00 -6.000000e+03 0.000000e+00
4.000000e+02 -6.000000e+03 0.000000e+00
-2.823990e-01 -5.600240e+03 -2.772460e-01
3.998570e+02 -5.599980e+03 -3.485830e-01
-3.997440e+02 -5.600200e+03 -4.002670e+02
4.276010e-02 -5.600480e+03 -4.000460e+02
-4.004790e+02 -5.200960e+03 -3.992780e+02
-6.538760e-01 -5.201040e+03 -4.007750e+02
-4.004030e+02 -5.599980e+03 -8.526810e-01
-2.823990e-01 -5.600240e+03 -2.772460e-01
-4.001780e+02 -5.199930e+03 -1.550390e+00
1.201160e-01 -5.199910e+03 -1.285600e+00
4.276010e-02 -5.600480e+03 -4.000460e+02
3.998590e+02 -5.601160e+03 -4.007370e+02
-6.538760e-01 -5.201040e+03 -4.007750e+02
3.992050e+02 -5.201910e+03 -4.020370e+02
-2.823990e-01 -5.600240e+03 -2.772460e-01
3.998570e+02 -5.599980e+03 -3.485830e-01
1.201160e-01 -5.199910e+03 -1.285600e+00
4.003760e+02 -5.199350e+03 -9.684920e-01
-4.004790e+02 -5.200960e+03 -3.992780e+02
-6.538760e-01 -5.201040e+03 -4.007750e+02
-4.003250e+02 -4.801610e+03 -4.021730e+02
-3.721630e-01 -4.801430e+03 -4.025640e+02
-4.001780e+02 -5.199930e+03 -1.550390e+00
1.201160e-01 -5.199910e+03 -1.285600e+00
-3.997310e+02 -4.799700e+03 -9.675980e-01
1.358900e-01 -4.799910e+03 -1.707530e+00
-6.538760e-01 -5.201040e+03 -4.007750e+02
3.992050e+02 -5.201910e+03 -4.020370e+02
-3.721630e-01 -4.801430e+03 -4.025640e+02
3.996150e+02 -4.800970e+03 -4.018050e+02
1.201160e-01 -5.199910e+03 -1.285600e+00
4.003760e+02 -5.199350e+03 -9.684920e-01
1.358900e-01 -4.799910e+03 -1.707530e+00
4.000180e+02 -4.800110e+03 -2.877220e+00
-4.003250e+02 -4.801610e+03 -4.021730e+02
-3.721630e-01 -4.801430e+03 -4.025640e+02
-4.003830e+02 -4.401500e+03 -4.040490e+02
-5.240830e-01 -4.401660e+03 -4.040940e+02
-3.997310e+02 -4.799700e+03 -9.675980e-01
1.358900e-01 -4.799910e+03 -1.707530e+00
-3.999870e+02 -4.400360e+03 -3.649650e+00
-2.508830e-03 -4.400080e+03 -3.562470e+00
-3.721630e-01 -4.801430e+03 -4.025640e+02
3.996150e+02 -4.800970e+03 -4.018050e+02
-5.240830e-01 -4.401660e+03 -4.040940e+02
3.992250e+02 -4.401400e+03 -4.047650e+02
1.358900e-01 -4.799910e+03 -1.707530e+00
4.000180e+02 -4.800110e+03 -2.877220e+00
-2.508830e-03 -4.400080e+03 -3.562470e+00
3.999810e+02 -4.400170e+03 -3.490130e+00
-4.003830e+02 -4.401500e+03 -4.040490e+02
-5.240830e-01 -4.401660e+03 -4.040940e+02
-4.003470e+02 -4.002330e+03 -4.058160e+02
-8.108280e-01 -4.002390e+03 -4.070160e+02
-3.999870e+02 -4.400360e+03 -3.649650e+00
-2.508830e-03 -4.400080e+03 -3.562470e+00
-3.999710e+02 -4.000000e+03 -5.577300e+00
7.515640e-02 -4.000010e+03 -5.464640e+00
-5.240830e-01 -4.401660e+03 -4.040940e+02
3.992250e+02 -4.401400e+03 -4.047650e+02
-8.108280e-01 -4.002390e+03 -4.070160e+02
3.988740e+02 -4.002390e+03 -4.077240e+02
-2.508830e-03 -4.400080e+03 -3.562470e+00
3.999810e+02 -4.400170e+03 -3.490130e+00
7.515640e-02 -4.000010e+03 -5.464640e+00
4.000740e+02 -4.000060e+03 -6.617030e+00
-4.003470e+02 -4.002330e+03 -4.058160e+02
-8.108280e-01 -4.002390e+03 -4.070160e+02
-4.004850e+02 -3.602580e+03 -4.071440e+02
-5.487680e-01 -3.602680e+03 -4.077270e+02
-3.999710e+02 -4.000000e+03 -5.577300e+00
7.515640e-02 -4.000010e+03 -5.464640e+00
-4.002470e+02 -3.600100e+03 -9.183190e+00
-2.704110e-01 -3.600130e+03 -9.753050e+00
-8.108280e-01 -4.002390e+03 -4.070160e+02
3.988740e+02 -4.002390e+03 -4.077240e+02
-5.487680e-01 -3.602680e+03 -4.077270e+02
3.992790e+02 -3.602430e+03 -4.093950e+02
7.515640e-02 -4.000010e+03 -5.464640e+00
4.000740e+02 -4.000060e+03 -6.617030e+00
-2.704110e-01 -3.600130e+03 -9.753050e+00
3.997790e+02 -3.600260e+03 -9.883910e+00
-4.004850e+02 -3.602580e+03 -4.071440e+02
-5.487680e-01 -3.602680e+03 -4.077270e+02
-4.006440e+02 -3.203150e+03 -4.106920e+02
-8.188850e-01 -3.203300e+03 -4.117810e+02
-4.002470e+02 -3.600100e+03 -9.183190e+00
-2.704110e-01 -3.600130e+03 -9.753050e+00
-4.001350e+02 -3.200260e+03 -1.148670e+01
-1.554710e-02 -3.199930e+03 -1.153070e+01
-5.487680e-01 -3.602680e+03 -4.077270e+02
3.992790e+02 -3.602430e+03 -4.093950e+02
-8.188850e-01 -3.203300e+03 -4.117810e+02
3.990090e+02 -3.202770e+03 -4.125100e+02
-2.704110e-01 -3.600130e+03 -9.753050e+00
3.997790e+02 -3.600260e+03 -9.883910e+00
-1.554710e-02 -3.199930e+03 -1.153070e+01
4.000320e+02 -3.200120e+03 -1.299150e+01
-4.006440e+02 -3.203150e+03 -4.106920e+02
-8.188850e-01 -3.203300e+03 -4.117810e+02
-4.013080e+02 -2.803420e+03 -4.150200e+02
-1.412080e+00 -2.803290e+03 -4.150110e+02
-4.001350e+02 -3.200260e+03 -1.148670e+01
-1.554710e-02 -3.199930e+03 -1.153070e+01
-3.999130e+02 -2.799830e+03 -1.319810e+01
2.718940e-01 -2.799870e+03 -1.513500e+01
-8.188850e-01 -3.203300e+03 -4.117810e+02
3.990090e+02 -3.202770e+03 -4.125100e+02
-1.412080e+00 -2.803290e+03 -4.150110e+02
3.984450e+02 -2.803760e+03 -4.160990e+02
-1.554710e-02 -3.199930e+03 -1.153070e+01
4.000320e+02 -3.200120e+03 -1.299150e+01
2.718940e-01 -2.799870e+03 -1.513500e+01
4.004900e+02 -2.799670e+03 -1.621910e+01
-4.013080e+02 -2.803420e+03 -4.150200e+02
-1.412080e+00 -2.803290e+03 -4.150110e+02
-4.004020e+02 -2.403190e+03 -4.175760e+02
-6.251920e-01 -2.403230e+03 -4.174180e+02
-3.999130e+02 -2.799830e+03 -1.319810e+01
2.718940e-01 -2.799870e+03 -1.513500e+01
-3.999340e+02 -2.399940e+03 -1.680120e+01
1.317520e-01 -2.400230e+03 -1.836720e+01
-1.412080e+00 -2.803290e+03 -4.150110e+02
3.984450e+02 -2.803760e+03 -4.160990e+02
-6.251920e-01 -2.403230e+03 -4.174180e+02
3.992190e+02 -2.403560e+03 -4.192140e+02
2.718940e-01 -2.799870e+03 -1.513500e+01
4.004900e+02 -2.799670e+03 -1.621910e+01
1.317520e-01 -2.400230e+03 -1.836720e+01
4.002020e+02 -2.400120e+03 -1.859840e+01
-4.004020e+02 -2.403190e+03 -4.175760e+02
-6.251920e-01 -2.403230e+03 -4.174180e+02
-3.998040e+02 -2.003570e+03 -4.221150e+02
-2.716600e-01 -2.003660e+03 -4.221830e+02
-3.999340e+02 -2.399940e+03 -1.680120e+01
1.317520e-01 -2.400230e+03 -1.836720e+01
-4.003200e+02 -2.000020e+03 -2.134100e+01
-1.154730e-02 -2.000180e+03 -2.153010e+01
-6.251920e-01 -2.403230e+03 -4.174180e+02
3.992190e+02 -2.403560e+03 -4.192140e+02
-2.716600e-01 -2.003660e+03 -4.221830e+02
3.992620e+02 -2.003690e+03 -4.216920e+02
1.317520e-01 -2.400230e+03 -1.836720e+01
4.002020e+02 -2.400120e+03 -1.859840e+01
-1.154730e-02 -2.000180e+03 -2.153010e+01
4.003000e+02 -2.000190e+03 -2.239960e+01
-3.998040e+02 -2.003570e+03 -4.221150e+02
-2.716600e-01 -2.003660e+03 -4.221830e+02
-3.995920e+02 -1.603900e+03 -4.247590e+02
1.079960e-01 -1.603530e+03 -4.252850e+02
-4.003200e+02 -2.000020e+03 -2.134100e+01
-1.154730e-02 -2.000180e+03 -2.153010e+01
-4.002440e+02 -1.599780e+03 -2.617230e+01
-1.527680e-01 -1.600160e+03 -2.573560e+01
-2.716600e-01 -2.003660e+03 -4.221830e+02
3.992620e+02 -2.003690e+03 -4.216920e+02
1.079960e-01 -1.603530e+03 -4.252850e+02
3.997360e+02 -1.604270e+03 -4.253740e+02
-1.154730e-02 -2.000180e+03 -2.153010e+01
4.003000e+02 -2.000190e+03 -2.239960e+01
-1.527680e-01 -1.600160e+03 -2.573560e+01
3.999180e+02 -1.599810e+03 -2.583680e+01
-3.995920e+02 -1.603900e+03 -4.247590e+02
1.079960e-01 -1.603530e+03 -4.252850e+02
-4.000130e+02 -1.204230e+03 -4.307580e+02
6.029760e-02 -1.204300e+03 -4.296390e+02
-4.002440e+02 -1.599780e+03 -2.617230e+01
-1.527680e-01 -1.600160e+03 -2.573560e+01
-3.997490e+02 -1.200130e+03 -2.843160e+01
1.228500e-01 -1.200040e+03 -2.933110e+01
1.079960e-01 -1.603530e+03 -4.252850e+02
3.997360e+02 -1.604270e+03 -4.253740e+02
6.029760e-02 -1.204300e+03 -4.296390e+02
4.001470e+02 -1.204830e+03 -4.286030e+02
-1.527680e-01 -1.600160e+03 -2.573560e+01
3.999180e+02 -1.599810e+03 -2.583680e+01
1.228500e-01 -1.200040e+03 -2.933110e+01
3.999800e+02 -1.199860e+03 -2.957350e+01
-4.000130e+02 -1.204230e+03 -4.307580e+02
6.029760e-02 -1.204300e+03 -4.296390e+02
-4.001000e+02 -8.041600e+02 -4.334140e+02
1.810350e-01 -8.047640e+02 -4.339820e+02
-3.997490e+02 -1.200130e+03 -2.843160e+01
1.228500e-01 -1.200040e+03 -2.933110e+01
-3.997110e+02 -8.000580e+02 -3.456570e+01
7.092060e-02 -7.999740e+02 -3.421020e+01
6.029760e-02 -1.204300e+03 -4.296390e+02
4.001470e+02 -1.204830e+03 -4.286030e+02
1.810350e-01 -8.047640e+02 -4.339820e+02
4.004120e+02 -8.045030e+02 -4.344730e+02
1.228500e-01 -1.200040e+03 -2.933110e+01
3.999800e+02 -1.199860e+03 -2.957350e+01
7.092060e-02 -7.999740e+02 -3.421020e+01
3.998730e+02 -8.003280e+02 -3.403790e+01
-4.001000e+02 -8.041600e+02 -4.334140e+02
1.810350e-01 -8.047640e+02 -4.339820e+02
-3.991390e+02 -4.043730e+02 -4.387660e+02
5.828860e-01 -4.044970e+02 -4.380280e+02
-3.997110e+02 -8.000580e+02 -3.456570e+01
7.092060e-02 -7.999740e+02 -3.421020e+01
-3.999430e+02 -4.002920e+02 -3.911520e+01
2.412910e-01 -4.001860e+02 -3.843780e+01
1.810350e-01 -8.047640e+02 -4.339820e+02
4.004120e+02 -8.045030e+02 -4.344730e+02
5.828860e-01 -4.044970e+02 -4.380280e+02
4.003670e+02 -4.040820e+02 -4.375530e+02
7.092060e-02 -7.999740e+02 -3.421020e+01
3.998730e+02 -8.003280e+02 -3.403790e+01
2.412910e-01 -4.001860e+02 -3.843780e+01
4.003770e+02 -4.004890e+02 -3.752550e+01
-3.991390e+02 -4.043730e+02 -4.387660e+02
5.828860e-01 -4.044970e+02 -4.380280e+02
-3.986080e+02 -4.356600e+00 -4.438810e+02
1.256730e+00 -4.567280e+00 -4.427820e+02
-3.999430e+02 -4.002920e+02 -3.911520e+01
2.412910e-01 -4.001860e+02 -3.843780e+01
-4.004540e+02 -4.761340e-01 -4.364650e+01
-3.438300e-01 -1.920390e-01 -4.237740e+01
5.828860e-01 -4.044970e+02 -4.380280e+02
4.003670e+02 -4.040820e+02 -4.375530e+02
[...]
<PointData>
<DataArray type="Float32" Name="V1" format="ascii">
0.000000e+00
0.000000e+00
1.832700e-01
5.085000e-01
0.000000e+00
0.000000e+00
-3.908160e-01
-4.664720e-01
0.000000e+00
0.000000e+00
5.085000e-01
7.459880e-01
0.000000e+00
0.000000e+00
-4.664720e-01
-3.961420e-01
1.832700e-01
5.085000e-01
6.016810e-01
-8.082680e-03
-3.908160e-01
-4.664720e-01
-1.166370e-01
4.417880e-02
5.085000e-01
7.459880e-01
-8.082680e-03
-4.808960e-01
-4.664720e-01
-3.961420e-01
4.417880e-02
1.536460e-01
6.016810e-01
-8.082680e-03
-9.924630e-01
9.934960e-02
-1.166370e-01
4.417880e-02
4.198640e-01
-4.307910e-01
-8.082680e-03
-4.808960e-01
9.934960e-02
1.247050e+00
4.417880e-02
1.536460e-01
-4.307910e-01
-1.264550e+00
-9.924630e-01
9.934960e-02
-1.191020e-01
-1.533170e-01
4.198640e-01
-4.307910e-01
-1.975440e-01
-2.897040e-01
9.934960e-02
1.247050e+00
-1.533170e-01
-3.135630e-01
-4.307910e-01
-1.264550e+00
-2.897040e-01
-2.185780e-01
-1.191020e-01
-1.533170e-01
-2.224930e-01
-1.839870e-01
-1.975440e-01
-2.897040e-01
-1.946490e-01
3.113520e-01
-1.533170e-01
-3.135630e-01
-1.839870e-01
1.562100e-01
-2.897040e-01
-2.185780e-01
3.113520e-01
5.051710e-01
-2.224930e-01
-1.839870e-01
5.756770e-01
5.540040e-01
-1.946490e-01
3.113520e-01
-5.532530e-01
-1.695380e-01
-1.839870e-01
1.562100e-01
5.540040e-01
2.180590e-01
3.113520e-01
5.051710e-01
-1.695380e-01
3.608950e-01
5.756770e-01
5.540040e-01
-2.848820e-01
-3.698920e-01
-5.532530e-01
-1.695380e-01
-3.786390e-02
6.767470e-02
5.540040e-01
2.180590e-01
-3.698920e-01
-3.746370e-01
-1.695380e-01
3.608950e-01
6.767470e-02
-3.300140e-04
-2.848820e-01
-3.698920e-01
2.135830e-01
-1.788610e-02
-3.786390e-02
6.767470e-02
2.311500e-01
2.515340e-01
-3.698920e-01
-3.746370e-01
-1.788610e-02
-4.871800e-01
6.767470e-02
-3.300140e-04
2.515340e-01
4.020600e-01
2.135830e-01
-1.788610e-02
-3.180750e-01
-1.863110e-01
2.311500e-01
2.515340e-01
2.413350e-01
5.598350e-02
-1.788610e-02
-4.871800e-01
-1.863110e-01
-4.344790e-02
2.515340e-01
4.020600e-01
5.598350e-02
-2.677270e-01
-3.180750e-01
-1.863110e-01
3.959520e-01
5.843710e-01
2.413350e-01
5.598350e-02
-4.719500e-02
-1.828630e-01
-1.863110e-01
-4.344790e-02
5.843710e-01
6.422630e-01
5.598350e-02
-2.677270e-01
-1.828630e-01
-1.786500e-01
3.959520e-01
5.843710e-01
2.588120e-01
9.218030e-03
-4.719500e-02
-1.828630e-01
-4.119400e-01
-1.993080e-01
5.843710e-01
6.422630e-01
9.218030e-03
-5.489680e-03
-1.828630e-01
-1.786500e-01
-1.993080e-01
-3.595430e-02
2.588120e-01
9.218030e-03
-1.026930e-01
1.362010e-01
-4.119400e-01
-1.993080e-01
7.880770e-02
-1.143370e-01
9.218030e-03
-5.489680e-03
1.362010e-01
3.908390e-01
-1.993080e-01
-3.595430e-02
-1.143370e-01
-2.455940e-01
-1.026930e-01
1.362010e-01
6.093390e-01
5.464440e-02
7.880770e-02
-1.143370e-01
-3.840520e-01
-5.665560e-02
1.362010e-01
3.908390e-01
5.464440e-02
-5.197760e-01
-1.143370e-01
-2.455940e-01
-5.665560e-02
3.637450e-01
6.093390e-01
5.464440e-02
1.972290e-01
-1.858240e-02
-3.840520e-01
-5.665560e-02
-2.112870e-01
-2.049230e-01
5.464440e-02
-5.197760e-01
-1.858240e-02
-2.426460e-01
-5.665560e-02
3.637450e-01
-2.049230e-01
-1.973230e-01
1.972290e-01
-1.858240e-02
-9.168650e-01
-8.393690e-01
-2.112870e-01
-2.049230e-01
5.455050e-01
2.692630e-01
-1.858240e-02
-2.426460e-01
-8.393690e-01
-8.845680e-01
-2.049230e-01
-1.973230e-01
2.692630e-01
1.368810e-01
-9.168650e-01
-8.393690e-01
2.050380e-01
-2.693700e-01
5.455050e-01
2.692630e-01
2.317610e-01
6.015410e-01
-8.393690e-01
-8.845680e-01
-2.693700e-01
-6.646260e-01
2.692630e-01
1.368810e-01
6.015410e-01
8.446160e-01
2.050380e-01
-2.693700e-01
-9.951210e-02
4.572330e-01
2.317610e-01
6.015410e-01
-4.637260e-02
-2.898780e-01
-2.693700e-01
-6.646260e-01
4.572330e-01
6.785380e-01
6.015410e-01
8.446160e-01
-2.898780e-01
-4.237280e-01
-9.951210e-02
4.572330e-01
1.336670e-02
-2.435210e-01
-4.637260e-02
-2.898780e-01
-7.070850e-02
2.842710e-01
4.572330e-01
6.785380e-01
-2.435210e-01
-2.875820e-01
-2.898780e-01
-4.237280e-01
2.842710e-01
5.406910e-01
1.336670e-02
-2.435210e-01
6.284030e-01
6.302260e-01
-7.070850e-02
2.842710e-01
-4.061670e-01
-3.311560e-01
-2.435210e-01
-2.875820e-01
6.302260e-01
5.626440e-01
2.842710e-01
5.406910e-01
-3.311560e-01
-1.073610e-01
6.284030e-01
6.302260e-01
-2.753140e-01
-3.082950e-01
-4.061670e-01
-3.311560e-01
5.685160e-01
3.263380e-01
6.302260e-01
5.626440e-01
-3.082950e-01
-2.341640e-01
-3.311560e-01
-1.073610e-01
3.263380e-01
-8.545060e-02
-2.753140e-01
-3.082950e-01
-3.596660e-01
3.023370e-02
5.685160e-01
3.263380e-01
3.661170e-02
-2.188880e-01
-3.082950e-01
-2.341640e-01
3.023370e-02
2.817150e-01
3.263380e-01
-8.545060e-02
-2.188880e-01
-2.395490e-01
-3.596660e-01
3.023370e-02
5.207950e-01
3.074940e-01
3.661170e-02
-2.188880e-01
-3.404140e-01
-9.879110e-02
3.023370e-02
2.817150e-01
3.074940e-01
2.655850e-01
-2.188880e-01
-2.395490e-01
-9.879110e-02
3.124500e-02
5.207950e-01
3.074940e-01
-1.973770e-01
-1.451930e-01
-3.404140e-01
-9.879110e-02
-8.549200e-02
-2.292630e-01
3.074940e-01
2.655850e-01
-1.451930e-01
-2.064520e-01
-9.879110e-02
3.124500e-02
-2.292630e-01
-3.736880e-01
-1.973770e-01
-1.451930e-01
8.548440e-02
2.720470e-01
-8.549200e-02
-2.292630e-01
-3.679000e-02
-9.276230e-03
-1.451930e-01
-2.064520e-01
2.720470e-01
4.158040e-01
-2.292630e-01
-3.736880e-01
-9.276230e-03
2.665500e-02
8.548440e-02
2.720470e-01
6.885270e-01
4.531450e-01
-3.679000e-02
-9.276230e-03
-3.287590e-01
-2.786220e-01
2.720470e-01
4.158040e-01
4.531450e-01
4.749150e-01
-9.276230e-03
2.665500e-02
-2.786220e-01
-2.865220e-01
6.885270e-01
4.531450e-01
-1.186270e-01
3.442170e-02
-3.287590e-01
-2.786220e-01
2.769800e-01
7.196300e-02
4.531450e-01
4.749150e-01
3.442170e-02
1.606930e-02
-2.786220e-01
-2.865220e-01
7.196300e-02
-6.282190e-02
-1.186270e-01
3.442170e-02
9.484420e-01
5.383340e-01
2.769800e-01
7.196300e-02
-3.172180e-01
-3.151560e-01
3.442170e-02
1.606930e-02
5.383340e-01
2.072800e-01
7.196300e-02
-6.282190e-02
-3.151560e-01
-4.235700e-01
9.484420e-01
5.383340e-01
-7.712210e-01
-4.843040e-01
-3.172180e-01
-3.151560e-01
5.933930e-01
4.549970e-01
5.383340e-01
2.072800e-01
-4.843040e-01
-2.784440e-01
-3.151560e-01
-4.235700e-01
4.549970e-01
4.086030e-01
-7.712210e-01
-4.843040e-01
3.089170e-01
1.966390e-01
5.933930e-01
4.549970e-01
-4.322470e-01
-3.950620e-01
-4.843040e-01
-2.784440e-01
1.966390e-01
4.825480e-01
4.549970e-01
4.086030e-01
-3.950620e-01
-5.460310e-01
3.089170e-01
1.966390e-01
-8.281840e-01
-3.602400e-01
-4.322470e-01
-3.950620e-01
2.742740e-01
2.913940e-01
1.966390e-01
4.825480e-01
-3.602400e-01
-1.226970e-01
-3.950620e-01
-5.460310e-01
2.913940e-01
3.489130e-01
0.000000e+00
0.000000e+00
-3.908160e-01
-4.664720e-01
0.000000e+00
0.000000e+00
5.630950e-01
3.986140e-01
0.000000e+00
0.000000e+00
-4.664720e-01
-3.961420e-01
0.000000e+00
0.000000e+00
3.986140e-01
6.267000e-02
-3.908160e-01
-4.664720e-01
-1.166370e-01
4.417880e-02
5.630950e-01
3.986140e-01
-4.658620e-01
-1.824250e-01
-4.664720e-01
-3.961420e-01
4.417880e-02
1.536460e-01
3.986140e-01
6.267000e-02
-1.824250e-01
1.742590e-01
-1.166370e-01
4.417880e-02
4.198640e-01
-4.307910e-01
-4.658620e-01
-1.824250e-01
1.950160e-01
7.063090e-01
4.417880e-02
1.536460e-01
-4.307910e-01
-1.264550e+00
-1.824250e-01
1.742590e-01
7.063090e-01
1.281190e+00
4.198640e-01
-4.307910e-01
-1.975440e-01
-2.897040e-01
1.950160e-01
7.063090e-01
5.182340e-01
7.329100e-01
-4.307910e-01
-1.264550e+00
-2.897040e-01
-2.185780e-01
7.063090e-01
1.281190e+00
7.329100e-01
7.879590e-01
-1.975440e-01
-2.897040e-01
-1.946490e-01
3.113520e-01
5.182340e-01
7.329100e-01
6.024480e-01
-4.041780e-01
-2.897040e-01
-2.185780e-01
3.113520e-01
5.051710e-01
7.329100e-01
7.879590e-01
-4.041780e-01
-1.236790e+00
-1.946490e-01
3.113520e-01
-5.532530e-01
-1.695380e-01
6.024480e-01
-4.041780e-01
3.984040e-01
-1.416740e-01
3.113520e-01
5.051710e-01
-1.695380e-01
3.608950e-01
-4.041780e-01
-1.236790e+00
-1.416740e-01
-9.010540e-01
-5.532530e-01
-1.695380e-01
-3.786390e-02
6.767470e-02
3.984040e-01
-1.416740e-01
3.951210e-01
2.778050e-01
-1.695380e-01
3.608950e-01
6.767470e-02
-3.300140e-04
-1.416740e-01
-9.010540e-01
2.778050e-01
3.606870e-01
-3.786390e-02
6.767470e-02
2.311500e-01
2.515340e-01
3.951210e-01
2.778050e-01
-8.000170e-01
-4.528220e-01
6.767470e-02
-3.300140e-04
2.515340e-01
4.020600e-01
2.778050e-01
3.606870e-01
-4.528220e-01
-3.016630e-01
2.311500e-01
2.515340e-01
2.413350e-01
5.598350e-02
-8.000170e-01
-4.528220e-01
-2.215690e-01
8.195340e-02
2.515340e-01
4.020600e-01
5.598350e-02
-2.677270e-01
-4.528220e-01
-3.016630e-01
8.195340e-02
5.551730e-01
2.413350e-01
5.598350e-02
-4.719500e-02
-1.828630e-01
-2.215690e-01
8.195340e-02
-1.182340e-01
-1.650070e-01
5.598350e-02
-2.677270e-01
-1.828630e-01
-1.786500e-01
8.195340e-02
5.551730e-01
-1.650070e-01
-2.171830e-01
-4.719500e-02
-1.828630e-01
-4.119400e-01
-1.993080e-01
-1.182340e-01
-1.650070e-01
4.508860e-01
2.760500e-01
-1.828630e-01
-1.786500e-01
-1.993080e-01
-3.595430e-02
-1.650070e-01
-2.171830e-01
2.760500e-01
5.474480e-02
-4.119400e-01
-1.993080e-01
7.880770e-02
-1.143370e-01
4.508860e-01
2.760500e-01
-1.106910e-01
1.202620e-01
-1.993080e-01
-3.595430e-02
-1.143370e-01
-2.455940e-01
2.760500e-01
5.474480e-02
1.202620e-01
2.353080e-01
7.880770e-02
-1.143370e-01
-3.840520e-01
-5.665560e-02
-1.106910e-01
1.202620e-01
2.896520e-01
4.018340e-02
-1.143370e-01
-2.455940e-01
-5.665560e-02
3.637450e-01
1.202620e-01
2.353080e-01
4.018340e-02
-2.186730e-01
-3.840520e-01
-5.665560e-02
-2.112870e-01
-2.049230e-01
2.896520e-01
4.018340e-02
1.691070e-01
2.881820e-01
-5.665560e-02
3.637450e-01
-2.049230e-01
-1.973230e-01
4.018340e-02
-2.186730e-01
2.881820e-01
5.477080e-01
-2.112870e-01
-2.049230e-01
5.455050e-01
2.692630e-01
1.691070e-01
2.881820e-01
-2.027590e-01
4.037200e-01
-2.049230e-01
-1.973230e-01
2.692630e-01
1.368810e-01
2.881820e-01
5.477080e-01
4.037200e-01
6.777840e-01
5.455050e-01
2.692630e-01
2.317610e-01
6.015410e-01
-2.027590e-01
4.037200e-01
-6.934640e-01
-8.897060e-01
2.692630e-01
1.368810e-01
6.015410e-01
8.446160e-01
4.037200e-01
6.777840e-01
-8.897060e-01
-8.672200e-01
2.317610e-01
6.015410e-01
-4.637260e-02
-2.898780e-01
-6.934640e-01
-8.897060e-01
1.395330e-01
6.028670e-02
6.015410e-01
8.446160e-01
-2.898780e-01
-4.237280e-01
-8.897060e-01
-8.672200e-01
6.028670e-02
1.976030e-02
-4.637260e-02
-2.898780e-01
-7.070850e-02
2.842710e-01
1.395330e-01
6.028670e-02
1.037770e-01
-2.887420e-01
-2.898780e-01
-4.237280e-01
2.842710e-01
5.406910e-01
6.028670e-02
1.976030e-02
-2.887420e-01
-7.792580e-01
-7.070850e-02
2.842710e-01
-4.061670e-01
-3.311560e-01
1.037770e-01
-2.887420e-01
2.246100e-01
6.491890e-02
2.842710e-01
5.406910e-01
-3.311560e-01
-1.073610e-01
-2.887420e-01
-7.792580e-01
6.491890e-02
-2.916170e-01
-4.061670e-01
-3.311560e-01
5.685160e-01
3.263380e-01
2.246100e-01
6.491890e-02
-9.598950e-01
-4.125410e-01
-3.311560e-01
-1.073610e-01
3.263380e-01
-8.545060e-02
6.491890e-02
-2.916170e-01
-4.125410e-01
4.103220e-01
5.685160e-01
3.263380e-01
3.661170e-02
-2.188880e-01
-9.598950e-01
-4.125410e-01
3.744020e-01
4.499460e-01
3.263380e-01
-8.545060e-02
-2.188880e-01
-2.395490e-01
-4.125410e-01
4.103220e-01
4.499460e-01
2.922510e-01
3.661170e-02
-2.188880e-01
-3.404140e-01
-9.879110e-02
3.744020e-01
4.499460e-01
1.539220e-01
-1.507470e-01
-2.188880e-01
-2.395490e-01
-9.879110e-02
3.124500e-02
4.499460e-01
2.922510e-01
-1.507470e-01
-4.106130e-01
-3.404140e-01
-9.879110e-02
-8.549200e-02
-2.292630e-01
1.539220e-01
-1.507470e-01
4.077250e-01
6.027040e-01
-9.879110e-02
3.124500e-02
-2.292630e-01
-3.736880e-01
-1.507470e-01
-4.106130e-01
6.027040e-01
9.181280e-01
-8.549200e-02
-2.292630e-01
-3.679000e-02
-9.276230e-03
4.077250e-01
6.027040e-01
-2.390160e-02
-2.576080e-01
-2.292630e-01
-3.736880e-01
-9.276230e-03
2.665500e-02
6.027040e-01
9.181280e-01
-2.576080e-01
-4.607270e-01
-3.679000e-02
-9.276230e-03
-3.287590e-01
-2.786220e-01
-2.390160e-02
-2.576080e-01
-5.650160e-02
4.048030e-02
-9.276230e-03
2.665500e-02
-2.786220e-01
-2.865220e-01
-2.576080e-01
-4.607270e-01
4.048030e-02
1.155620e-01
-3.287590e-01
-2.786220e-01
2.769800e-01
7.196300e-02
-5.650160e-02
4.048030e-02
-4.089710e-01
-1.713130e-01
-2.786220e-01
-2.865220e-01
7.196300e-02
-6.282190e-02
4.048030e-02
1.155620e-01
-1.713130e-01
1.050460e-01
2.769800e-01
7.196300e-02
-3.172180e-01
-3.151560e-01
-4.089710e-01
-1.713130e-01
-1.860620e-01
1.377940e-01
7.196300e-02
-6.282190e-02
-3.151560e-01
-4.235700e-01
-1.713130e-01
1.050460e-01
1.377940e-01
7.029480e-01
-3.172180e-01
-3.151560e-01
5.933930e-01
4.549970e-01
-1.860620e-01
1.377940e-01
-4.521230e-01
-4.508300e-01
-3.151560e-01
-4.235700e-01
4.549970e-01
4.086030e-01
1.377940e-01
7.029480e-01
-4.508300e-01
-6.667790e-01
5.933930e-01
4.549970e-01
-4.322470e-01
-3.950620e-01
-4.521230e-01
-4.508300e-01
6.766730e-01
7.032770e-01
4.549970e-01
4.086030e-01
-3.950620e-01
-5.460310e-01
-4.508300e-01
-6.667790e-01
7.032770e-01
6.408710e-01
-4.322470e-01
-3.950620e-01
2.742740e-01
2.913940e-01
6.766730e-01
7.032770e-01
1.148260e-01
-4.066440e-01
-3.950620e-01
-5.460310e-01
2.913940e-01
3.489130e-01
7.032770e-01
6.408710e-01
-4.066440e-01
-6.741080e-01
</DataArray>
<DataArray type="Float32" Name="V2" format="ascii">
0.000000e+00
0.000000e+00
8.160390e-01
-3.053090e-01
0.000000e+00
0.000000e+00
-4.657830e-01
6.712610e-02
0.000000e+00
0.000000e+00
-3.053090e-01
5.619740e-01
0.000000e+00
0.000000e+00
6.712610e-02
-6.313740e-01
8.160390e-01
-3.053090e-01
2.593110e-01
1.600020e-02
-4.657830e-01
6.712610e-02
-2.287540e-01
4.956100e-02
-3.053090e-01
5.619740e-01
1.600020e-02
1.293100e+00
6.712610e-02
-6.313740e-01
4.956100e-02
-1.229980e+00
2.593110e-01
1.600020e-02
-3.766300e-01
1.132460e-01
-2.287540e-01
4.956100e-02
5.693940e-02
-3.838730e-01
1.600020e-02
1.293100e+00
1.132460e-01
-5.267250e-01
4.956100e-02
-1.229980e+00
-3.838730e-01
2.663410e-01
-3.766300e-01
1.132460e-01
-2.402530e-01
5.257920e-01
5.693940e-02
-3.838730e-01
3.280200e-01
-1.982200e-01
1.132460e-01
-5.267250e-01
5.257920e-01
5.004410e-01
-3.838730e-01
2.663410e-01
-1.982200e-01
-7.999100e-01
-2.402530e-01
5.257920e-01
-7.521860e-01
-9.943180e-02
3.280200e-01
-1.982200e-01
1.002070e+00
2.623480e-01
5.257920e-01
5.004410e-01
-9.943180e-02
-1.127470e-01
-1.982200e-01
-7.999100e-01
2.623480e-01
1.766480e-01
-7.521860e-01
-9.943180e-02
2.972650e-01
-1.048040e-01
1.002070e+00
2.623480e-01
4.301690e-01
-7.363450e-02
-9.943180e-02
-1.127470e-01
-1.048040e-01
-8.076910e-01
2.623480e-01
1.766480e-01
-7.363450e-02
2.499830e-01
2.972650e-01
-1.048040e-01
9.182610e-01
-6.208590e-03
4.301690e-01
-7.363450e-02
-9.684510e-01
-3.705600e-01
-1.048040e-01
-8.076910e-01
-6.208590e-03
2.717600e-01
-7.363450e-02
2.499830e-01
-3.705600e-01
-3.496700e-01
9.182610e-01
-6.208590e-03
5.012440e-01
2.884790e-01
-9.684510e-01
-3.705600e-01
-7.277730e-01
-4.237280e-01
-6.208590e-03
2.717600e-01
2.884790e-01
-3.044250e-01
-3.705600e-01
-3.496700e-01
-4.237280e-01
1.229940e-01
5.012440e-01
2.884790e-01
1.420520e-02
4.122840e-01
-7.277730e-01
-4.237280e-01
3.416280e-01
-1.091190e-01
2.884790e-01
-3.044250e-01
4.122840e-01
2.997520e-01
-4.237280e-01
1.229940e-01
-1.091190e-01
-4.169590e-01
1.420520e-02
4.122840e-01
1.780060e-01
-3.285130e-01
3.416280e-01
-1.091190e-01
4.212390e-01
6.067940e-02
4.122840e-01
2.997520e-01
-3.285130e-01
-8.273010e-01
-1.091190e-01
-4.169590e-01
6.067940e-02
8.783330e-01
1.780060e-01
-3.285130e-01
-9.160560e-01
-7.598930e-01
4.212390e-01
6.067940e-02
7.555270e-01
7.899320e-01
-3.285130e-01
-8.273010e-01
-7.598930e-01
2.924340e-01
6.067940e-02
8.783330e-01
7.899320e-01
2.345700e-01
-9.160560e-01
-7.598930e-01
4.153400e-01
1.997920e-01
7.555270e-01
7.899320e-01
-2.212800e-01
-4.230310e-01
-7.598930e-01
2.924340e-01
1.997920e-01
6.539080e-01
7.899320e-01
2.345700e-01
-4.230310e-01
-3.785960e-01
4.153400e-01
1.997920e-01
1.353930e-01
-2.628200e-01
-2.212800e-01
-4.230310e-01
-2.981100e-02
1.537690e-01
1.997920e-01
6.539080e-01
-2.628200e-01
-9.992630e-01
-4.230310e-01
-3.785960e-01
1.537690e-01
7.426000e-01
1.353930e-01
-2.628200e-01
8.935620e-02
-9.956150e-02
-2.981100e-02
1.537690e-01
-2.822770e-01
2.465990e-01
-2.628200e-01
-9.992630e-01
-9.956150e-02
1.195790e-02
1.537690e-01
7.426000e-01
2.465990e-01
1.289980e-01
8.935620e-02
-9.956150e-02
1.511760e-01
1.859650e-03
-2.822770e-01
2.465990e-01
-9.162180e-02
3.892760e-01
-9.956150e-02
1.195790e-02
1.859650e-03
1.379830e+00
2.465990e-01
1.289980e-01
3.892760e-01
-8.557280e-01
1.511760e-01
1.859650e-03
-2.521180e-02
-1.249620e-01
-9.162180e-02
3.892760e-01
5.187640e-02
-2.618060e-03
1.859650e-03
1.379830e+00
-1.249620e-01
-1.880860e-01
3.892760e-01
-8.557280e-01
-2.618060e-03
-1.322420e-01
-2.521180e-02
-1.249620e-01
-1.355680e-01
2.335870e-02
5.187640e-02
-2.618060e-03
-2.048990e-01
-7.379520e-02
-1.249620e-01
-1.880860e-01
2.335870e-02
-8.707280e-01
-2.618060e-03
-1.322420e-01
-7.379520e-02
5.490200e-01
-1.355680e-01
2.335870e-02
-6.373600e-01
3.978110e-01
-2.048990e-01
-7.379520e-02
4.384810e-01
7.089480e-02
2.335870e-02
-8.707280e-01
3.978110e-01
-2.274490e-01
-7.379520e-02
5.490200e-01
7.089480e-02
8.337060e-02
-6.373600e-01
3.978110e-01
-2.357160e-01
-3.741460e-01
4.384810e-01
7.089480e-02
-3.756020e-01
3.101430e-01
3.978110e-01
-2.274490e-01
-3.741460e-01
4.897070e-01
7.089480e-02
8.337060e-02
3.101430e-01
-2.468990e-01
-2.357160e-01
-3.741460e-01
-3.668620e-01
-4.090460e-01
-3.756020e-01
3.101430e-01
9.727870e-02
-4.373960e-04
-3.741460e-01
4.897070e-01
-4.090460e-01
-4.226610e-01
3.101430e-01
-2.468990e-01
-4.373960e-04
2.578240e-01
-3.668620e-01
-4.090460e-01
-1.120020e-01
1.213970e+00
9.727870e-02
-4.373960e-04
-4.116250e-01
-7.624720e-01
-4.090460e-01
-4.226610e-01
1.213970e+00
9.337320e-01
-4.373960e-04
2.578240e-01
-7.624720e-01
-9.588600e-01
-1.120020e-01
1.213970e+00
4.405380e-01
-1.790570e-01
-4.116250e-01
-7.624720e-01
-2.782320e-01
4.046550e-01
1.213970e+00
9.337320e-01
-1.790570e-01
-6.834390e-01
-7.624720e-01
-9.588600e-01
4.046550e-01
9.165110e-01
4.405380e-01
-1.790570e-01
-1.448830e-01
-2.601300e-01
-2.782320e-01
4.046550e-01
3.364890e-01
-2.930000e-01
-1.790570e-01
-6.834390e-01
-2.601300e-01
-5.966040e-01
4.046550e-01
9.165110e-01
-2.930000e-01
3.610260e-01
-1.448830e-01
-2.601300e-01
-7.484810e-01
-6.560360e-01
3.364890e-01
-2.930000e-01
9.644810e-01
2.866300e-01
-2.601300e-01
-5.966040e-01
-6.560360e-01
-9.726580e-01
-2.930000e-01
3.610260e-01
2.866300e-01
7.552730e-01
-7.484810e-01
-6.560360e-01
-1.535370e-01
2.035790e-01
9.644810e-01
2.866300e-01
1.818960e-01
-7.130840e-02
-6.560360e-01
-9.726580e-01
2.035790e-01
4.871300e-01
2.866300e-01
7.552730e-01
-7.130840e-02
1.649740e-01
-1.535370e-01
2.035790e-01
6.616460e-01
1.053740e-01
1.818960e-01
-7.130840e-02
-3.855820e-01
1.143920e-01
2.035790e-01
4.871300e-01
1.053740e-01
1.288110e+00
-7.130840e-02
1.649740e-01
1.143920e-01
-1.075610e+00
6.616460e-01
1.053740e-01
2.125320e-01
-2.781320e-01
-3.855820e-01
1.143920e-01
-3.876980e-01
-1.302770e-01
1.053740e-01
1.288110e+00
-2.781320e-01
-8.584050e-01
1.143920e-01
-1.075610e+00
-1.302770e-01
6.215450e-01
2.125320e-01
-2.781320e-01
-7.268110e-02
-1.331280e-01
-3.876980e-01
-1.302770e-01
-6.331750e-02
4.540660e-02
-2.781320e-01
-8.584050e-01
-1.331280e-01
2.596100e-01
-1.302770e-01
6.215450e-01
4.540660e-02
-5.063830e-01
-7.268110e-02
-1.331280e-01
5.053270e-01
2.878600e-01
-6.331750e-02
4.540660e-02
-6.193560e-01
-1.573420e-01
-1.331280e-01
2.596100e-01
2.878600e-01
7.637950e-02
4.540660e-02
-5.063830e-01
-1.573420e-01
9.823760e-02
5.053270e-01
2.878600e-01
-1.867240e-01
-4.358990e-01
-6.193560e-01
-1.573420e-01
6.832570e-01
1.732150e-01
2.878600e-01
7.637950e-02
-4.358990e-01
-2.670450e-01
-1.573420e-01
9.823760e-02
1.732150e-01
8.093940e-02
0.000000e+00
0.000000e+00
-4.657830e-01
6.712610e-02
0.000000e+00
0.000000e+00
2.563560e-01
2.781960e-01
0.000000e+00
0.000000e+00
6.712610e-02
-6.313740e-01
0.000000e+00
0.000000e+00
2.781960e-01
3.104450e-01
-4.657830e-01
6.712610e-02
-2.287540e-01
4.956100e-02
2.563560e-01
2.781960e-01
5.677890e-02
-2.413530e-01
6.712610e-02
-6.313740e-01
4.956100e-02
-1.229980e+00
2.781960e-01
3.104450e-01