<?xml version="1.0"?>
<VTKFile type="UnstructuredGrid" version="0.1" byte_order="LittleEndian" compressor="vtkZLibDataCompressor">
<UnstructuredGrid>
<Piece NumberOfPoints="960" NumberOfCells="120">
<Points>
<DataArray type="Float32" NumberOfComponents="3" format="ascii">
-4.000000e+02 -6.000000e+03 -4.000000e+02
0.000000e+00 -6.000000e+03 -4.000000e+02
-4.000000e+02 -5.600080e+03 -4.001530e+02
2.736780e-07 -5.600080e+03 -4.001530e+02
-4.000000e+02 -6.000000e+03 0.000000e+00
0.000000e+00 -6.000000e+03 0.000000e+00
-4.000000e+02 -5.599960e+03 -1.278590e-01
-2.511370e-08 -5.599960e+03 -1.278580e-01
0.000000e+00 -6.000000e+03 -4.000000e+02
4.000000e+02 -6.000000e+03 -4.000000e+02
2.736780e-07 -5.600080e+03 -4.001530e+02
4.000000e+02 -5.600080e+03 -4.001530e+02
0.000000e+00 -6.000000e+03 0.000000e+00
4.000000e+02 -6.000000e+03 0.000000e+00
-2.511370e-08 -5.599960e+03 -1.278580e-01
4.000000e+02 -5.599960e+03 -1.278580e-01
-4.000000e+02 -5.600080e+03 -4.001530e+02
2.736780e-07 -5.600080e+03 -4.001530e+02
-4.000000e+02 -5.200050e+03 -4.003240e+02
1.098520e-07 -5.200050e+03 -4.003240e+02
-4.000000e+02 -5.599960e+03 -1.278590e-01
-2.511370e-08 -5.599960e+03 -1.278580e-01
-4.000000e+02 -5.200020e+03 -1.207680e-01
-6.308950e-09 -5.200020e+03 -1.207680e-01
2.736780e-07 -5.600080e+03 -4.001530e+02
4.000000e+02 -5.600080e+03 -4.001530e+02
1.098520e-07 -5.200050e+03 -4.003240e+02
4.000000e+02 -5.200050e+03 -4.003240e+02
-2.511370e-08 -5.599960e+03 -1.278580e-01
4.000000e+02 -5.599960e+03 -1.278580e-01
-6.308950e-09 -5.200020e+03 -1.207680e-01
4.000000e+02 -5.200020e+03 -1.207680e-01
-4.000000e+02 -5.200050e+03 -4.003240e+02
1.098520e-07 -5.200050e+03 -4.003240e+02
-4.000000e+02 -4.800010e+03 -4.001990e+02
1.402610e-07 -4.800010e+03 -4.001990e+02
-4.000000e+02 -5.200020e+03 -1.207680e-01
-6.308950e-09 -5.200020e+03 -1.207680e-01
-4.000000e+02 -4.800060e+03 -2.304120e-01
-1.014290e-07 -4.800060e+03 -2.304120e-01
1.098520e-07 -5.200050e+03 -4.003240e+02
4.000000e+02 -5.200050e+03 -4.003240e+02
1.402610e-07 -4.800010e+03 -4.001990e+02
4.000000e+02 -4.800010e+03 -4.001990e+02
-6.308950e-09 -5.200020e+03 -1.207680e-01
4.000000e+02 -5.200020e+03 -1.207680e-01
-1.014290e-07 -4.800060e+03 -2.304120e-01
4.000000e+02 -4.800060e+03 -2.304120e-01
-4.000000e+02 -4.800010e+03 -4.001990e+02
1.402610e-07 -4.800010e+03 -4.001990e+02
-4.000000e+02 -4.400020e+03 -4.000260e+02
-3.163310e-07 -4.400020e+03 -4.000260e+02
-4.000000e+02 -4.800060e+03 -2.304120e-01
-1.014290e-07 -4.800060e+03 -2.304120e-01
-4.000000e+02 -4.399990e+03 -2.895940e-01
1.119060e-07 -4.399990e+03 -2.895950e-01
1.402610e-07 -4.800010e+03 -4.001990e+02
4.000000e+02 -4.800010e+03 -4.001990e+02
-3.163310e-07 -4.400020e+03 -4.000260e+02
4.000000e+02 -4.400020e+03 -4.000260e+02
-1.014290e-07 -4.800060e+03 -2.304120e-01
4.000000e+02 -4.800060e+03 -2.304120e-01
1.119060e-07 -4.399990e+03 -2.895950e-01
4.000000e+02 -4.399990e+03 -2.895950e-01
-4.000000e+02 -4.400020e+03 -4.000260e+02
-3.163310e-07 -4.400020e+03 -4.000260e+02
-4.000000e+02 -4.000030e+03 -4.003240e+02
-3.131500e-07 -4.000030e+03 -4.003240e+02
-4.000000e+02 -4.399990e+03 -2.895940e-01
1.119060e-07 -4.399990e+03 -2.895950e-01
-4.000000e+02 -3.999990e+03 -2.064220e-01
2.065250e-08 -3.999990e+03 -2.064220e-01
-3.163310e-07 -4.400020e+03 -4.000260e+02
4.000000e+02 -4.400020e+03 -4.000260e+02
-3.131500e-07 -4.000030e+03 -4.003240e+02
4.000000e+02 -4.000030e+03 -4.003240e+02
1.119060e-07 -4.399990e+03 -2.895950e-01
4.000000e+02 -4.399990e+03 -2.895950e-01
2.065250e-08 -3.999990e+03 -2.064220e-01
4.000000e+02 -3.999990e+03 -2.064220e-01
-4.000000e+02 -4.000030e+03 -4.003240e+02
-3.131500e-07 -4.000030e+03 -4.003240e+02
-4.000000e+02 -3.600100e+03 -4.004880e+02
-1.671760e-07 -3.600100e+03 -4.004880e+02
-4.000000e+02 -3.999990e+03 -2.064220e-01
2.065250e-08 -3.999990e+03 -2.064220e-01
-4.000000e+02 -3.600000e+03 -3.321750e-01
-2.440390e-08 -3.600000e+03 -3.321750e-01
-3.131500e-07 -4.000030e+03 -4.003240e+02
4.000000e+02 -4.000030e+03 -4.003240e+02
-1.671760e-07 -3.600100e+03 -4.004880e+02
4.000000e+02 -3.600100e+03 -4.004880e+02
2.065250e-08 -3.999990e+03 -2.064220e-01
4.000000e+02 -3.999990e+03 -2.064220e-01
-2.440390e-08 -3.600000e+03 -3.321750e-01
4.000000e+02 -3.600000e+03 -3.321750e-01
-4.000000e+02 -3.600100e+03 -4.004880e+02
-1.671760e-07 -3.600100e+03 -4.004880e+02
-4.000000e+02 -3.200170e+03 -4.004360e+02
-1.591170e-07 -3.200170e+03 -4.004360e+02
-4.000000e+02 -3.600000e+03 -3.321750e-01
-2.440390e-08 -3.600000e+03 -3.321750e-01
-4.000000e+02 -3.199980e+03 -4.423970e-01
-1.540950e-08 -3.199980e+03 -4.423970e-01
-1.671760e-07 -3.600100e+03 -4.004880e+02
4.000000e+02 -3.600100e+03 -4.004880e+02
-1.591170e-07 -3.200170e+03 -4.004360e+02
4.000000e+02 -3.200170e+03 -4.004360e+02
-2.440390e-08 -3.600000e+03 -3.321750e-01
4.000000e+02 -3.600000e+03 -3.321750e-01
-1.540950e-08 -3.199980e+03 -4.423970e-01
4.000000e+02 -3.199980e+03 -4.423970e-01
-4.000000e+02 -3.200170e+03 -4.004360e+02
-1.591170e-07 -3.200170e+03 -4.004360e+02
-4.000000e+02 -2.800120e+03 -4.005620e+02
-5.340670e-09 -2.800120e+03 -4.005620e+02
-4.000000e+02 -3.199980e+03 -4.423970e-01
-1.540950e-08 -3.199980e+03 -4.423970e-01
-4.000000e+02 -2.800000e+03 -5.362420e-01
1.126980e-08 -2.800000e+03 -5.362420e-01
-1.591170e-07 -3.200170e+03 -4.004360e+02
4.000000e+02 -3.200170e+03 -4.004360e+02
-5.340670e-09 -2.800120e+03 -4.005620e+02
4.000000e+02 -2.800120e+03 -4.005620e+02
-1.540950e-08 -3.199980e+03 -4.423970e-01
4.000000e+02 -3.199980e+03 -4.423970e-01
1.126980e-08 -2.800000e+03 -5.362420e-01
4.000000e+02 -2.800000e+03 -5.362420e-01
-4.000000e+02 -2.800120e+03 -4.005620e+02
-5.340670e-09 -2.800120e+03 -4.005620e+02
-4.000000e+02 -2.400060e+03 -4.005960e+02
3.379170e-08 -2.400060e+03 -4.005960e+02
-4.000000e+02 -2.800000e+03 -5.362420e-01
1.126980e-08 -2.800000e+03 -5.362420e-01
-4.000000e+02 -2.399980e+03 -5.970880e-01
2.342850e-08 -2.399980e+03 -5.970880e-01
-5.340670e-09 -2.800120e+03 -4.005620e+02
4.000000e+02 -2.800120e+03 -4.005620e+02
3.379170e-08 -2.400060e+03 -4.005960e+02
4.000000e+02 -2.400060e+03 -4.005960e+02
1.126980e-08 -2.800000e+03 -5.362420e-01
4.000000e+02 -2.800000e+03 -5.362420e-01
2.342850e-08 -2.399980e+03 -5.970880e-01
4.000000e+02 -2.399980e+03 -5.970880e-01
-4.000000e+02 -2.400060e+03 -4.005960e+02
3.379170e-08 -2.400060e+03 -4.005960e+02
-4.000000e+02 -2.000050e+03 -4.006410e+02
-3.216710e-09 -2.000050e+03 -4.006410e+02
-4.000000e+02 -2.399980e+03 -5.970880e-01
2.342850e-08 -2.399980e+03 -5.970880e-01
-4.000000e+02 -1.999980e+03 -7.647780e-01
5.782760e-09 -1.999980e+03 -7.647780e-01
3.379170e-08 -2.400060e+03 -4.005960e+02
4.000000e+02 -2.400060e+03 -4.005960e+02
-3.216710e-09 -2.000050e+03 -4.006410e+02
4.000000e+02 -2.000050e+03 -4.006410e+02
2.342850e-08 -2.399980e+03 -5.970880e-01
4.000000e+02 -2.399980e+03 -5.970880e-01
5.782760e-09 -1.999980e+03 -7.647780e-01
4.000000e+02 -1.999980e+03 -7.647780e-01
-4.000000e+02 -2.000050e+03 -4.006410e+02
-3.216710e-09 -2.000050e+03 -4.006410e+02
-4.000000e+02 -1.600060e+03 -4.006810e+02
6.758720e-08 -1.600060e+03 -4.006810e+02
-4.000000e+02 -1.999980e+03 -7.647780e-01
5.782760e-09 -1.999980e+03 -7.647780e-01
-4.000000e+02 -1.599980e+03 -7.367670e-01
1.146810e-08 -1.599980e+03 -7.367670e-01
-3.216710e-09 -2.000050e+03 -4.006410e+02
4.000000e+02 -2.000050e+03 -4.006410e+02
6.758720e-08 -1.600060e+03 -4.006810e+02
4.000000e+02 -1.600060e+03 -4.006810e+02
5.782760e-09 -1.999980e+03 -7.647780e-01
4.000000e+02 -1.999980e+03 -7.647780e-01
1.146810e-08 -1.599980e+03 -7.367670e-01
4.000000e+02 -1.599980e+03 -7.367670e-01
-4.000000e+02 -1.600060e+03 -4.006810e+02
6.758720e-08 -1.600060e+03 -4.006810e+02
-4.000000e+02 -1.200060e+03 -4.009380e+02
7.778200e-08 -1.200060e+03 -4.009380e+02
-4.000000e+02 -1.599980e+03 -7.367670e-01
1.146810e-08 -1.599980e+03 -7.367670e-01
-4.000000e+02 -1.200010e+03 -8.150400e-01
2.410250e-08 -1.200010e+03 -8.150400e-01
6.758720e-08 -1.600060e+03 -4.006810e+02
4.000000e+02 -1.600060e+03 -4.006810e+02
7.778200e-08 -1.200060e+03 -4.009380e+02
4.000000e+02 -1.200060e+03 -4.009380e+02
1.146810e-08 -1.599980e+03 -7.367670e-01
4.000000e+02 -1.599980e+03 -7.367670e-01
2.410250e-08 -1.200010e+03 -8.150400e-01
4.000000e+02 -1.200010e+03 -8.150400e-01
-4.000000e+02 -1.200060e+03 -4.009380e+02
7.778200e-08 -1.200060e+03 -4.009380e+02
-4.000000e+02 -8.000070e+02 -4.009120e+02
1.809750e-07 -8.000070e+02 -4.009120e+02
-4.000000e+02 -1.200010e+03 -8.150400e-01
2.410250e-08 -1.200010e+03 -8.150400e-01
-4.000000e+02 -8.000530e+02 -7.865210e-01
-2.643870e-08 -8.000530e+02 -7.865210e-01
7.778200e-08 -1.200060e+03 -4.009380e+02
4.000000e+02 -1.200060e+03 -4.009380e+02
1.809750e-07 -8.000070e+02 -4.009120e+02
4.000000e+02 -8.000070e+02 -4.009120e+02
2.410250e-08 -1.200010e+03 -8.150400e-01
4.000000e+02 -1.200010e+03 -8.150400e-01
-2.643870e-08 -8.000530e+02 -7.865210e-01
4.000000e+02 -8.000530e+02 -7.865210e-01
-4.000000e+02 -8.000070e+02 -4.009120e+02
1.809750e-07 -8.000070e+02 -4.009120e+02
-4.000000e+02 -4.000980e+02 -4.006560e+02
1.114590e-07 -4.000980e+02 -4.006560e+02
-4.000000e+02 -8.000530e+02 -7.865210e-01
-2.643870e-08 -8.000530e+02 -7.865210e-01
-4.000000e+02 -3.999870e+02 -8.782210e-01
4.732750e-09 -3.999870e+02 -8.782210e-01
1.809750e-07 -8.000070e+02 -4.009120e+02
4.000000e+02 -8.000070e+02 -4.009120e+02
1.114590e-07 -4.000980e+02 -4.006560e+02
4.000000e+02 -4.000980e+02 -4.006560e+02
-2.643870e-08 -8.000530e+02 -7.865210e-01
4.000000e+02 -8.000530e+02 -7.865210e-01
4.732750e-09 -3.999870e+02 -8.782210e-01
4.000000e+02 -3.999870e+02 -8.782210e-01
-4.000000e+02 -4.000980e+02 -4.006560e+02
1.114590e-07 -4.000980e+02 -4.006560e+02
-4.000000e+02 -1.548210e-01 -4.009340e+02
7.555150e-08 -1.548210e-01 -4.009340e+02
-4.000000e+02 -3.999870e+02 -8.782210e-01
4.732750e-09 -3.999870e+02 -8.782210e-01
-4.000000e+02 5.680670e-02 -1.020250e+00
3.653420e-08 5.680670e-02 -1.020250e+00
1.114590e-07 -4.000980e+02 -4.006560e+02
4.000000e+02 -4.000980e+02 -4.006560e+02
[...]
<PointData>
<DataArray type="Float32" Name="V1" format="ascii">
0.000000e+00
0.000000e+00
4.316290e-07
4.309840e-07
0.000000e+00
0.000000e+00
-3.442480e-07
-3.438640e-07
0.000000e+00
0.000000e+00
4.309840e-07
4.302260e-07
0.000000e+00
0.000000e+00
-3.438640e-07
-3.433680e-07
4.316290e-07
4.309840e-07
-4.357320e-08
-4.385120e-08
-3.442480e-07
-3.438640e-07
1.395650e-07
1.392170e-07
4.309840e-07
4.302260e-07
-4.385120e-08
-4.397090e-08
-3.438640e-07
-3.433680e-07
1.392170e-07
1.387280e-07
-4.357320e-08
-4.385120e-08
2.153680e-07
2.153510e-07
1.395650e-07
1.392170e-07
-1.399010e-07
-1.399070e-07
-4.385120e-08
-4.397090e-08
2.153510e-07
2.154240e-07
1.392170e-07
1.387280e-07
-1.399070e-07
-1.399890e-07
2.153680e-07
2.153510e-07
2.363700e-07
2.371730e-07
-1.399010e-07
-1.399070e-07
-6.479030e-08
-6.408600e-08
2.153510e-07
2.154240e-07
2.371730e-07
2.380160e-07
-1.399070e-07
-1.399890e-07
-6.408600e-08
-6.332220e-08
2.363700e-07
2.371730e-07
-1.560490e-07
-1.558020e-07
-6.479030e-08
-6.408600e-08
1.023800e-07
1.017770e-07
2.371730e-07
2.380160e-07
-1.558020e-07
-1.553450e-07
-6.408600e-08
-6.332220e-08
1.017770e-07
1.010940e-07
-1.560490e-07
-1.558020e-07
-1.497580e-08
-1.497290e-08
1.023800e-07
1.017770e-07
2.632320e-08
2.638710e-08
-1.558020e-07
-1.553450e-07
-1.497290e-08
-1.473130e-08
1.017770e-07
1.010940e-07
2.638710e-08
2.656580e-08
-1.497580e-08
-1.497290e-08
-1.703690e-09
-2.517040e-09
2.632320e-08
2.638710e-08
-1.415290e-08
-1.442410e-08
-1.497290e-08
-1.473130e-08
-2.517040e-09
-2.846680e-09
2.638710e-08
2.656580e-08
-1.442410e-08
-1.475580e-08
-1.703690e-09
-2.517040e-09
-6.839110e-08
-6.895530e-08
-1.415290e-08
-1.442410e-08
-4.837890e-08
-4.784170e-08
-2.517040e-09
-2.846680e-09
-6.895530e-08
-6.959300e-08
-1.442410e-08
-1.475580e-08
-4.784170e-08
-4.713570e-08
-6.839110e-08
-6.895530e-08
1.002480e-08
9.936100e-09
-4.837890e-08
-4.784170e-08
6.396050e-08
6.371710e-08
-6.895530e-08
-6.959300e-08
9.936100e-09
9.841140e-09
-4.784170e-08
-4.713570e-08
6.371710e-08
6.340080e-08
1.002480e-08
9.936100e-09
-1.764080e-08
-1.908110e-08
6.396050e-08
6.371710e-08
-7.226200e-09
-7.758010e-09
9.936100e-09
9.841140e-09
-1.908110e-08
-2.027240e-08
6.371710e-08
6.340080e-08
-7.758010e-09
-7.886070e-09
-1.764080e-08
-1.908110e-08
-7.443210e-09
-6.132410e-09
-7.226200e-09
-7.758010e-09
-1.674720e-08
-1.544290e-08
-1.908110e-08
-2.027240e-08
-6.132410e-09
-5.470460e-09
-7.758010e-09
-7.886070e-09
-1.544290e-08
-1.432180e-08
-7.443210e-09
-6.132410e-09
-7.156670e-08
-7.117340e-08
-1.674720e-08
-1.544290e-08
3.213930e-08
3.139540e-08
-6.132410e-09
-5.470460e-09
-7.117340e-08
-7.055430e-08
-1.544290e-08
-1.432180e-08
3.139540e-08
3.071550e-08
-7.156670e-08
-7.117340e-08
-2.447620e-08
-2.438540e-08
3.213930e-08
3.139540e-08
2.498290e-08
2.458640e-08
-7.117340e-08
-7.055430e-08
-2.438540e-08
-2.447420e-08
3.139540e-08
3.071550e-08
2.458640e-08
2.413540e-08
-2.447620e-08
-2.438540e-08
1.253500e-07
1.251820e-07
2.498290e-08
2.458640e-08
-7.940470e-08
-7.965780e-08
-2.438540e-08
-2.447420e-08
1.251820e-07
1.246070e-07
2.458640e-08
2.413540e-08
-7.965780e-08
-7.990060e-08
1.253500e-07
1.251820e-07
-7.280790e-08
-7.417650e-08
-7.940470e-08
-7.965780e-08
7.288450e-08
7.259190e-08
1.251820e-07
1.246070e-07
-7.417650e-08
-7.564280e-08
-7.965780e-08
-7.990060e-08
7.259190e-08
7.213820e-08
-7.280790e-08
-7.417650e-08
1.344200e-07
1.359410e-07
7.288450e-08
7.259190e-08
-1.428050e-08
-1.378160e-08
-7.417650e-08
-7.564280e-08
1.359410e-07
1.375050e-07
7.259190e-08
7.213820e-08
-1.378160e-08
-1.324560e-08
1.344200e-07
1.359410e-07
3.947450e-08
4.108450e-08
-1.428050e-08
-1.378160e-08
-5.830450e-08
-5.823860e-08
1.359410e-07
1.375050e-07
4.108450e-08
4.303800e-08
-1.378160e-08
-1.324560e-08
-5.823860e-08
-5.828680e-08
3.947450e-08
4.108450e-08
-8.432030e-08
-8.558570e-08
-5.830450e-08
-5.823860e-08
6.042160e-08
6.104230e-08
4.108450e-08
4.303800e-08
-8.558570e-08
-8.696870e-08
-5.823860e-08
-5.828680e-08
6.104230e-08
6.169220e-08
-8.432030e-08
-8.558570e-08
4.371170e-08
4.536080e-08
6.042160e-08
6.104230e-08
-7.639600e-09
-7.472170e-09
-8.558570e-08
-8.696870e-08
4.536080e-08
4.707680e-08
6.104230e-08
6.169220e-08
-7.472170e-09
-7.346980e-09
4.371170e-08
4.536080e-08
-7.001330e-08
-7.050260e-08
-7.639600e-09
-7.472170e-09
-1.064540e-08
-1.100100e-08
4.536080e-08
4.707680e-08
-7.050260e-08
-7.045710e-08
-7.472170e-09
-7.346980e-09
-1.100100e-08
-1.088790e-08
-7.001330e-08
-7.050260e-08
-2.585680e-08
-2.685150e-08
-1.064540e-08
-1.100100e-08
1.770950e-08
1.775290e-08
-7.050260e-08
-7.045710e-08
-2.685150e-08
-2.764400e-08
-1.100100e-08
-1.088790e-08
1.775290e-08
1.754060e-08
-2.585680e-08
-2.685150e-08
2.238070e-08
2.144790e-08
1.770950e-08
1.775290e-08
-2.021650e-08
-2.009800e-08
-2.685150e-08
-2.764400e-08
2.144790e-08
2.065340e-08
1.775290e-08
1.754060e-08
-2.009800e-08
-2.002400e-08
2.238070e-08
2.144790e-08
-6.725400e-09
-7.297810e-09
-2.021650e-08
-2.009800e-08
-9.386490e-09
-8.560470e-09
2.144790e-08
2.065340e-08
-7.297810e-09
-8.300450e-09
-2.009800e-08
-2.002400e-08
-8.560470e-09
-7.751540e-09
-6.725400e-09
-7.297810e-09
4.628040e-08
4.647650e-08
-9.386490e-09
-8.560470e-09
2.807400e-09
1.772060e-09
-7.297810e-09
-8.300450e-09
4.647650e-08
4.698940e-08
-8.560470e-09
-7.751540e-09
1.772060e-09
7.325370e-10
4.628040e-08
4.647650e-08
-1.480790e-08
-1.439290e-08
2.807400e-09
1.772060e-09
-6.528030e-09
-6.148120e-09
4.647650e-08
4.698940e-08
-1.439290e-08
-1.355590e-08
1.772060e-09
7.325370e-10
-6.148120e-09
-5.827890e-09
-1.480790e-08
-1.439290e-08
-1.752890e-08
-1.653110e-08
-6.528030e-09
-6.148120e-09
-4.328450e-09
-5.371620e-09
-1.439290e-08
-1.355590e-08
-1.653110e-08
-1.543730e-08
-6.148120e-09
-5.827890e-09
-5.371620e-09
-6.496600e-09
-1.752890e-08
-1.653110e-08
-1.190230e-08
-1.160680e-08
-4.328450e-09
-5.371620e-09
6.527040e-09
6.772050e-09
-1.653110e-08
-1.543730e-08
-1.160680e-08
-1.131600e-08
-5.371620e-09
-6.496600e-09
6.772050e-09
7.164330e-09
-1.190230e-08
-1.160680e-08
-2.432300e-09
-2.336520e-09
6.527040e-09
6.772050e-09
-8.593070e-09
-8.292470e-09
-1.160680e-08
-1.131600e-08
-2.336520e-09
-2.402840e-09
6.772050e-09
7.164330e-09
-8.292470e-09
-7.917490e-09
-2.432300e-09
-2.336520e-09
8.823830e-09
8.581480e-09
-8.593070e-09
-8.292470e-09
4.900930e-09
4.520300e-09
-2.336520e-09
-2.402840e-09
8.581480e-09
8.038270e-09
-8.292470e-09
-7.917490e-09
4.520300e-09
4.016190e-09
8.823830e-09
8.581480e-09
3.665140e-08
3.586440e-08
4.900930e-09
4.520300e-09
-9.199920e-09
-7.908670e-09
8.581480e-09
8.038270e-09
3.586440e-08
3.510290e-08
4.520300e-09
4.016190e-09
-7.908670e-09
-6.795120e-09
0.000000e+00
0.000000e+00
-3.442480e-07
-3.438640e-07
0.000000e+00
0.000000e+00
2.595540e-07
2.595150e-07
0.000000e+00
0.000000e+00
-3.438640e-07
-3.433680e-07
0.000000e+00
0.000000e+00
2.595150e-07
2.598590e-07
-3.442480e-07
-3.438640e-07
1.395650e-07
1.392170e-07
2.595540e-07
2.595150e-07
-2.370960e-07
-2.369250e-07
-3.438640e-07
-3.433680e-07
1.392170e-07
1.387280e-07
2.595150e-07
2.598590e-07
-2.369250e-07
-2.372700e-07
1.395650e-07
1.392170e-07
-1.399010e-07
-1.399070e-07
-2.370960e-07
-2.369250e-07
6.841760e-08
6.721210e-08
1.392170e-07
1.387280e-07
-1.399070e-07
-1.399890e-07
-2.369250e-07
-2.372700e-07
6.721210e-08
6.631820e-08
-1.399010e-07
-1.399070e-07
-6.479030e-08
-6.408600e-08
6.841760e-08
6.721210e-08
-1.117160e-07
-1.106850e-07
-1.399070e-07
-1.399890e-07
-6.408600e-08
-6.332220e-08
6.721210e-08
6.631820e-08
-1.106850e-07
-1.097960e-07
-6.479030e-08
-6.408600e-08
1.023800e-07
1.017770e-07
-1.117160e-07
-1.106850e-07
-4.968390e-08
-5.027110e-08
-6.408600e-08
-6.332220e-08
1.017770e-07
1.010940e-07
-1.106850e-07
-1.097960e-07
-5.027110e-08
-5.082490e-08
1.023800e-07
1.017770e-07
2.632320e-08
2.638710e-08
-4.968390e-08
-5.027110e-08
-3.521090e-08
-3.535770e-08
1.017770e-07
1.010940e-07
2.638710e-08
2.656580e-08
-5.027110e-08
-5.082490e-08
-3.535770e-08
-3.554970e-08
2.632320e-08
2.638710e-08
-1.415290e-08
-1.442410e-08
-3.521090e-08
-3.535770e-08
3.347180e-08
3.343560e-08
2.638710e-08
2.656580e-08
-1.442410e-08
-1.475580e-08
-3.535770e-08
-3.554970e-08
3.343560e-08
3.353960e-08
-1.415290e-08
-1.442410e-08
-4.837890e-08
-4.784170e-08
3.347180e-08
3.343560e-08
1.622020e-07
1.611670e-07
-1.442410e-08
-1.475580e-08
-4.784170e-08
-4.713570e-08
3.343560e-08
3.353960e-08
1.611670e-07
1.597820e-07
-4.837890e-08
-4.784170e-08
6.396050e-08
6.371710e-08
1.622020e-07
1.611670e-07
-1.371530e-07
-1.362630e-07
-4.784170e-08
-4.713570e-08
6.371710e-08
6.340080e-08
1.611670e-07
1.597820e-07
-1.362630e-07
-1.353500e-07
6.396050e-08
6.371710e-08
-7.226200e-09
-7.758010e-09
-1.371530e-07
-1.362630e-07
3.401390e-08
3.390490e-08
6.371710e-08
6.340080e-08
-7.758010e-09
-7.886070e-09
-1.362630e-07
-1.353500e-07
3.390490e-08
3.343060e-08
-7.226200e-09
-7.758010e-09
-1.674720e-08
-1.544290e-08
3.401390e-08
3.390490e-08
3.764710e-08
3.787120e-08
-7.758010e-09
-7.886070e-09
-1.544290e-08
-1.432180e-08
3.390490e-08
3.343060e-08
3.787120e-08
3.793580e-08
-1.674720e-08
-1.544290e-08
3.213930e-08
3.139540e-08
3.764710e-08
3.787120e-08
5.968310e-09
7.185550e-09
-1.544290e-08
-1.432180e-08
3.139540e-08
3.071550e-08
3.787120e-08
3.793580e-08
7.185550e-09
8.843470e-09
3.213930e-08
3.139540e-08
2.498290e-08
2.458640e-08
5.968310e-09
7.185550e-09
-2.541590e-08
-2.472850e-08
3.139540e-08
3.071550e-08
2.458640e-08
2.413540e-08
7.185550e-09
8.843470e-09
-2.472850e-08
-2.423070e-08
2.498290e-08
2.458640e-08
-7.940470e-08
-7.965780e-08
-2.541590e-08
-2.472850e-08
3.554970e-08
3.481570e-08
2.458640e-08
2.413540e-08
-7.965780e-08
-7.990060e-08
-2.472850e-08
-2.423070e-08
3.481570e-08
3.401980e-08
-7.940470e-08
-7.965780e-08
7.288450e-08
7.259190e-08
3.554970e-08
3.481570e-08
-7.099430e-08
-7.173010e-08
-7.965780e-08
-7.990060e-08
7.259190e-08
7.213820e-08
3.481570e-08
3.401980e-08
-7.173010e-08
-7.242790e-08
7.288450e-08
7.259190e-08
-1.428050e-08
-1.378160e-08
-7.099430e-08
-7.173010e-08
-1.074270e-07
-1.066960e-07
7.259190e-08
7.213820e-08
-1.378160e-08
-1.324560e-08
-7.173010e-08
-7.242790e-08
-1.066960e-07
-1.058960e-07
-1.428050e-08
-1.378160e-08
-5.830450e-08
-5.823860e-08
-1.074270e-07
-1.066960e-07
7.531880e-08
7.555170e-08
-1.378160e-08
-1.324560e-08
-5.823860e-08
-5.828680e-08
-1.066960e-07
-1.058960e-07
7.555170e-08
7.628110e-08
-5.830450e-08
-5.823860e-08
6.042160e-08
6.104230e-08
7.531880e-08
7.555170e-08
-3.727890e-08
-3.797660e-08
-5.823860e-08
-5.828680e-08
6.104230e-08
6.169220e-08
7.555170e-08
7.628110e-08
-3.797660e-08
-3.846210e-08
6.042160e-08
6.104230e-08
-7.639600e-09
-7.472170e-09
-3.727890e-08
-3.797660e-08
-2.930150e-08
-2.973990e-08
6.104230e-08
6.169220e-08
-7.472170e-09
-7.346980e-09
-3.797660e-08
-3.846210e-08
-2.973990e-08
-3.001830e-08
-7.639600e-09
-7.472170e-09
-1.064540e-08
-1.100100e-08
-2.930150e-08
-2.973990e-08
9.315300e-08
9.360710e-08
-7.472170e-09
-7.346980e-09
-1.100100e-08
-1.088790e-08
-2.973990e-08
-3.001830e-08
9.360710e-08
9.455520e-08
-1.064540e-08
-1.100100e-08
1.770950e-08
1.775290e-08
9.315300e-08
9.360710e-08
-1.087710e-08
-1.158710e-08
-1.100100e-08
-1.088790e-08
1.775290e-08
1.754060e-08
9.360710e-08
9.455520e-08
-1.158710e-08
-1.236380e-08
1.770950e-08
1.775290e-08
-2.021650e-08
-2.009800e-08
-1.087710e-08
-1.158710e-08
1.741990e-08
1.753520e-08
1.775290e-08
1.754060e-08
-2.009800e-08
-2.002400e-08
-1.158710e-08
-1.236380e-08
1.753520e-08
1.781170e-08
-2.021650e-08
-2.009800e-08
-9.386490e-09
-8.560470e-09
1.741990e-08
1.753520e-08
2.841680e-08
2.663450e-08
-2.009800e-08
-2.002400e-08
-8.560470e-09
-7.751540e-09
1.753520e-08
1.781170e-08
2.663450e-08
2.494360e-08
-9.386490e-09
-8.560470e-09
2.807400e-09
1.772060e-09
2.841680e-08
2.663450e-08
-5.104490e-08
-5.086280e-08
-8.560470e-09
-7.751540e-09
1.772060e-09
7.325370e-10
2.663450e-08
2.494360e-08
-5.086280e-08
-5.020830e-08
2.807400e-09
1.772060e-09
-6.528030e-09
-6.148120e-09
-5.104490e-08
-5.086280e-08
2.718240e-08
2.633840e-08
1.772060e-09
7.325370e-10
-6.148120e-09
-5.827890e-09
-5.086280e-08
-5.020830e-08
2.633840e-08
2.576650e-08
-6.528030e-09
-6.148120e-09
-4.328450e-09
-5.371620e-09
2.718240e-08
2.633840e-08
2.869860e-08
2.919120e-08
-6.148120e-09
-5.827890e-09
-5.371620e-09
-6.496600e-09
2.633840e-08
2.576650e-08
2.919120e-08
2.983470e-08
-4.328450e-09
-5.371620e-09
6.527040e-09
6.772050e-09
2.869860e-08
2.919120e-08
-4.734980e-09
-3.866540e-09
-5.371620e-09
-6.496600e-09
6.772050e-09
7.164330e-09
2.919120e-08
2.983470e-08
-3.866540e-09
-2.509870e-09
6.527040e-09
6.772050e-09
-8.593070e-09
-8.292470e-09
-4.734980e-09
-3.866540e-09
1.745030e-08
1.767620e-08
6.772050e-09
7.164330e-09
-8.292470e-09
-7.917490e-09
-3.866540e-09
-2.509870e-09
1.767620e-08
1.761530e-08
-8.593070e-09
-8.292470e-09
4.900930e-09
4.520300e-09
1.745030e-08
1.767620e-08
-1.591450e-08
-1.639630e-08
-8.292470e-09
-7.917490e-09
4.520300e-09
4.016190e-09
1.767620e-08
1.761530e-08
-1.639630e-08
-1.693480e-08
4.900930e-09
4.520300e-09
-9.199920e-09
-7.908670e-09
-1.591450e-08
-1.639630e-08
-2.024890e-08
-1.949200e-08
4.520300e-09
4.016190e-09
-7.908670e-09
-6.795120e-09
-1.639630e-08
-1.693480e-08
-1.949200e-08
-1.938470e-08
</DataArray>
<DataArray type="Float32" Name="V2" format="ascii">
0.000000e+00
0.000000e+00
-6.932350e-02
-6.932380e-02
0.000000e+00
0.000000e+00
6.957560e-02
6.957570e-02
0.000000e+00
0.000000e+00
-6.932380e-02
-6.932400e-02
0.000000e+00
0.000000e+00
6.957570e-02
6.957590e-02
-6.932350e-02
-6.932380e-02
-7.704070e-02
-7.704090e-02
6.957560e-02
6.957570e-02
4.515360e-02
4.515380e-02
-6.932380e-02
-6.932400e-02
-7.704090e-02
-7.704100e-02
6.957570e-02
6.957590e-02
4.515380e-02
4.515390e-02
-7.704070e-02
-7.704090e-02
7.860200e-02
7.860220e-02
4.515360e-02
4.515380e-02
-1.060710e-01
-1.060710e-01
-7.704090e-02
-7.704100e-02
7.860220e-02
7.860240e-02
4.515380e-02
4.515390e-02
-1.060710e-01
-1.060710e-01
7.860200e-02
7.860220e-02
2.532750e-02
2.532760e-02
-1.060710e-01
-1.060710e-01
8.586630e-03
8.586600e-03
7.860220e-02
7.860240e-02
2.532760e-02
2.532780e-02
-1.060710e-01
-1.060710e-01
8.586600e-03
8.586570e-03
2.532750e-02
2.532760e-02
8.006490e-02
8.006480e-02
8.586630e-03
8.586600e-03
1.786380e-03
1.786480e-03
2.532760e-02
2.532780e-02
8.006480e-02
8.006470e-02
8.586600e-03
8.586570e-03
1.786480e-03
1.786590e-03
8.006490e-02
8.006480e-02
-3.324990e-02
-3.324990e-02
1.786380e-03
1.786480e-03
-6.261500e-02
-6.261510e-02
8.006480e-02
8.006470e-02
-3.324990e-02
-3.325000e-02
1.786480e-03
1.786590e-03
-6.261510e-02
-6.261510e-02
-3.324990e-02
-3.324990e-02
-1.167490e-01
-1.167490e-01
-6.261500e-02
-6.261510e-02
6.521420e-02
6.521410e-02
-3.324990e-02
-3.325000e-02
-1.167490e-01
-1.167490e-01
-6.261510e-02
-6.261510e-02
6.521410e-02
6.521410e-02
-1.167490e-01
-1.167490e-01
8.819290e-02
8.819290e-02
6.521420e-02
6.521410e-02
-2.699780e-02
-2.699770e-02
-1.167490e-01
-1.167490e-01
8.819290e-02
8.819290e-02
6.521410e-02
6.521410e-02
-2.699770e-02
-2.699770e-02
8.819290e-02
8.819290e-02
5.734710e-02
5.734710e-02
-2.699780e-02
-2.699770e-02
-5.188140e-03
-5.188090e-03
8.819290e-02
8.819290e-02
5.734710e-02
5.734700e-02
-2.699770e-02
-2.699770e-02
-5.188090e-03
-5.188030e-03
5.734710e-02
5.734710e-02
5.299720e-02
5.299730e-02
-5.188140e-03
-5.188090e-03
-9.310910e-02
-9.310920e-02
5.734710e-02
5.734700e-02
5.299730e-02
5.299730e-02
-5.188090e-03
-5.188030e-03
-9.310920e-02
-9.310920e-02
5.299720e-02
5.299730e-02
-1.048120e-01
-1.048120e-01
-9.310910e-02
-9.310920e-02
3.861890e-02
3.861890e-02
5.299730e-02
5.299730e-02
-1.048120e-01
-1.048120e-01
-9.310920e-02
-9.310920e-02
3.861890e-02
3.861880e-02
-1.048120e-01
-1.048120e-01
-6.364670e-02
-6.364670e-02
3.861890e-02
3.861890e-02
7.644120e-02
7.644120e-02
-1.048120e-01
-1.048120e-01
-6.364670e-02
-6.364670e-02
3.861890e-02
3.861880e-02
7.644120e-02
7.644130e-02
-6.364670e-02
-6.364670e-02
1.447700e-01
1.447700e-01
7.644120e-02
7.644120e-02
-9.336010e-02
-9.336010e-02
-6.364670e-02
-6.364670e-02
1.447700e-01
1.447700e-01
7.644120e-02
7.644130e-02
-9.336010e-02
-9.336010e-02
1.447700e-01
1.447700e-01
-3.590250e-02
-3.590250e-02
-9.336010e-02
-9.336010e-02
3.456230e-02
3.456240e-02
1.447700e-01
1.447700e-01
-3.590250e-02
-3.590260e-02
-9.336010e-02
-9.336010e-02
3.456240e-02
3.456240e-02
-3.590250e-02
-3.590250e-02
-1.971470e-02
-1.971470e-02
3.456230e-02
3.456240e-02
1.800090e-02
1.800090e-02
-3.590250e-02
-3.590260e-02
-1.971470e-02
-1.971460e-02
3.456240e-02
3.456240e-02
1.800090e-02
1.800080e-02
-1.971470e-02
-1.971470e-02
-1.288350e-02
-1.288350e-02
1.800090e-02
1.800090e-02
4.158020e-02
4.158020e-02
-1.971470e-02
-1.971460e-02
-1.288350e-02
-1.288350e-02
1.800090e-02
1.800080e-02
4.158020e-02
4.158030e-02
-1.288350e-02
-1.288350e-02
-1.943960e-02
-1.943960e-02
4.158020e-02
4.158020e-02
1.394080e-02
1.394090e-02
-1.288350e-02
-1.288350e-02
-1.943960e-02
-1.943960e-02
4.158020e-02
4.158030e-02
1.394090e-02
1.394090e-02
-1.943960e-02
-1.943960e-02
1.561920e-01
1.561920e-01
1.394080e-02
1.394090e-02
-1.139590e-01
-1.139590e-01
-1.943960e-02
-1.943960e-02
1.561920e-01
1.561920e-01
1.394090e-02
1.394090e-02
-1.139590e-01
-1.139590e-01
1.561920e-01
1.561920e-01
7.148570e-03
7.148600e-03
-1.139590e-01
-1.139590e-01
-7.175410e-03
-7.175440e-03
1.561920e-01
1.561920e-01
7.148600e-03
7.148630e-03
-1.139590e-01
-1.139590e-01
-7.175440e-03
-7.175450e-03
7.148570e-03
7.148600e-03
-1.070860e-01
-1.070860e-01
-7.175410e-03
-7.175440e-03
5.250560e-02
5.250560e-02
7.148600e-03
7.148630e-03
-1.070860e-01
-1.070860e-01
-7.175440e-03
-7.175450e-03
5.250560e-02
5.250560e-02
-1.070860e-01
-1.070860e-01
-5.521500e-02
-5.521500e-02
5.250560e-02
5.250560e-02
4.834260e-02
4.834260e-02
-1.070860e-01
-1.070860e-01
-5.521500e-02
-5.521510e-02
5.250560e-02
5.250560e-02
4.834260e-02
4.834260e-02
-5.521500e-02
-5.521500e-02
5.707320e-02
5.707330e-02
4.834260e-02
4.834260e-02
-5.806980e-02
-5.806980e-02
-5.521500e-02
-5.521510e-02
5.707330e-02
5.707330e-02
4.834260e-02
4.834260e-02
-5.806980e-02
-5.806980e-02
5.707320e-02
5.707330e-02
6.816770e-02
6.816770e-02
-5.806980e-02
-5.806980e-02
-3.655910e-02
-3.655910e-02
5.707330e-02
5.707330e-02
6.816770e-02
6.816770e-02
-5.806980e-02
-5.806980e-02
-3.655910e-02
-3.655910e-02
6.816770e-02
6.816770e-02
-5.945940e-02
-5.945940e-02
-3.655910e-02
-3.655910e-02
5.434350e-02
5.434350e-02
6.816770e-02
6.816770e-02
-5.945940e-02
-5.945940e-02
-3.655910e-02
-3.655910e-02
5.434350e-02
5.434350e-02
-5.945940e-02
-5.945940e-02
5.138090e-02
5.138090e-02
5.434350e-02
5.434350e-02
-7.663320e-02
-7.663320e-02
-5.945940e-02
-5.945940e-02
5.138090e-02
5.138090e-02
5.434350e-02
5.434350e-02
-7.663320e-02
-7.663320e-02
5.138090e-02
5.138090e-02
8.971950e-02
8.971950e-02
-7.663320e-02
-7.663320e-02
-5.684630e-02
-5.684630e-02
5.138090e-02
5.138090e-02
8.971950e-02
8.971950e-02
-7.663320e-02
-7.663320e-02
-5.684630e-02
-5.684630e-02
8.971950e-02
8.971950e-02
6.301810e-02
6.301810e-02
-5.684630e-02
-5.684630e-02
-1.379600e-02
-1.379600e-02
8.971950e-02
8.971950e-02
6.301810e-02
6.301810e-02
-5.684630e-02
-5.684630e-02
-1.379600e-02
-1.379600e-02
6.301810e-02
6.301810e-02
-1.960400e-02
-1.960400e-02
-1.379600e-02
-1.379600e-02
7.057540e-02
7.057540e-02
6.301810e-02
6.301810e-02
-1.960400e-02
-1.960400e-02
-1.379600e-02
-1.379600e-02
7.057540e-02
7.057540e-02
-1.960400e-02
-1.960400e-02
-4.722020e-02
-4.722010e-02
7.057540e-02
7.057540e-02
-1.053010e-02
-1.053010e-02
-1.960400e-02
-1.960400e-02
-4.722010e-02
-4.722010e-02
7.057540e-02
7.057540e-02
-1.053010e-02
-1.053010e-02
-4.722020e-02
-4.722010e-02
-1.626720e-02
-1.626720e-02
-1.053010e-02
-1.053010e-02
-1.297690e-01
-1.297690e-01
-4.722010e-02
-4.722010e-02
-1.626720e-02
-1.626720e-02
-1.053010e-02
-1.053010e-02
-1.297690e-01
-1.297690e-01
0.000000e+00
0.000000e+00
6.957560e-02
6.957570e-02
0.000000e+00
0.000000e+00
-6.846130e-02
-6.846140e-02
0.000000e+00
0.000000e+00
6.957570e-02
6.957590e-02
0.000000e+00
0.000000e+00
-6.846140e-02
-6.846150e-02
6.957560e-02
6.957570e-02
4.515360e-02
4.515380e-02
-6.846130e-02
-6.846140e-02
-1.356710e-02
-1.356720e-02
6.957570e-02
6.957590e-02
4.515380e-02