<?xml version="1.0"?>
<VTKFile type="UnstructuredGrid" version="0.1" byte_order="LittleEndian" compressor="vtkZLibDataCompressor">
<UnstructuredGrid>
<Piece NumberOfPoints="960" NumberOfCells="120">
<Points>
<DataArray type="Float32" NumberOfComponents="3" format="ascii">
-4.000000e+02 -6.000000e+03 -4.000000e+02
0.000000e+00 -6.000000e+03 -4.000000e+02
-4.000000e+02 -5.600130e+03 -4.000840e+02
-1.206180e-08 -5.600130e+03 -4.000840e+02
-4.000000e+02 -6.000000e+03 0.000000e+00
0.000000e+00 -6.000000e+03 0.000000e+00
-4.000000e+02 -5.599970e+03 -1.311940e-02
2.619890e-09 -5.599970e+03 -1.311950e-02
0.000000e+00 -6.000000e+03 -4.000000e+02
4.000000e+02 -6.000000e+03 -4.000000e+02
-1.206180e-08 -5.600130e+03 -4.000840e+02
4.000000e+02 -5.600130e+03 -4.000840e+02
0.000000e+00 -6.000000e+03 0.000000e+00
4.000000e+02 -6.000000e+03 0.000000e+00
2.619890e-09 -5.599970e+03 -1.311950e-02
4.000000e+02 -5.599970e+03 -1.311950e-02
-4.000000e+02 -5.600130e+03 -4.000840e+02
-1.206180e-08 -5.600130e+03 -4.000840e+02
-4.000000e+02 -5.200130e+03 -3.999290e+02
-1.226740e-08 -5.200130e+03 -3.999290e+02
-4.000000e+02 -5.599970e+03 -1.311940e-02
2.619890e-09 -5.599970e+03 -1.311950e-02
-4.000000e+02 -5.199990e+03 -2.455320e-01
-2.925690e-10 -5.199990e+03 -2.455320e-01
-1.206180e-08 -5.600130e+03 -4.000840e+02
4.000000e+02 -5.600130e+03 -4.000840e+02
-1.226740e-08 -5.200130e+03 -3.999290e+02
4.000000e+02 -5.200130e+03 -3.999290e+02
2.619890e-09 -5.599970e+03 -1.311950e-02
4.000000e+02 -5.599970e+03 -1.311950e-02
-2.925690e-10 -5.199990e+03 -2.455320e-01
4.000000e+02 -5.199990e+03 -2.455320e-01
-4.000000e+02 -5.200130e+03 -3.999290e+02
-1.226740e-08 -5.200130e+03 -3.999290e+02
-4.000000e+02 -4.800020e+03 -4.002750e+02
-1.171380e-08 -4.800020e+03 -4.002750e+02
-4.000000e+02 -5.199990e+03 -2.455320e-01
-2.925690e-10 -5.199990e+03 -2.455320e-01
-4.000000e+02 -4.800030e+03 -1.503290e-01
2.341180e-09 -4.800030e+03 -1.503290e-01
-1.226740e-08 -5.200130e+03 -3.999290e+02
4.000000e+02 -5.200130e+03 -3.999290e+02
-1.171380e-08 -4.800020e+03 -4.002750e+02
4.000000e+02 -4.800020e+03 -4.002750e+02
-2.925690e-10 -5.199990e+03 -2.455320e-01
4.000000e+02 -5.199990e+03 -2.455320e-01
2.341180e-09 -4.800030e+03 -1.503290e-01
4.000000e+02 -4.800030e+03 -1.503290e-01
-4.000000e+02 -4.800020e+03 -4.002750e+02
-1.171380e-08 -4.800020e+03 -4.002750e+02
-4.000000e+02 -4.400010e+03 -4.003340e+02
-1.032820e-08 -4.400010e+03 -4.003340e+02
-4.000000e+02 -4.800030e+03 -1.503290e-01
2.341180e-09 -4.800030e+03 -1.503290e-01
-4.000000e+02 -4.400010e+03 -1.718530e-01
-1.360980e-09 -4.400010e+03 -1.718530e-01
-1.171380e-08 -4.800020e+03 -4.002750e+02
4.000000e+02 -4.800020e+03 -4.002750e+02
-1.032820e-08 -4.400010e+03 -4.003340e+02
4.000000e+02 -4.400010e+03 -4.003340e+02
2.341180e-09 -4.800030e+03 -1.503290e-01
4.000000e+02 -4.800030e+03 -1.503290e-01
-1.360980e-09 -4.400010e+03 -1.718530e-01
4.000000e+02 -4.400010e+03 -1.718530e-01
-4.000000e+02 -4.400010e+03 -4.003340e+02
-1.032820e-08 -4.400010e+03 -4.003340e+02
-4.000000e+02 -4.000030e+03 -4.002850e+02
-9.373390e-09 -4.000030e+03 -4.002850e+02
-4.000000e+02 -4.400010e+03 -1.718530e-01
-1.360980e-09 -4.400010e+03 -1.718530e-01
-4.000000e+02 -4.000040e+03 -4.199020e-01
2.990490e-09 -4.000040e+03 -4.199020e-01
-1.032820e-08 -4.400010e+03 -4.003340e+02
4.000000e+02 -4.400010e+03 -4.003340e+02
-9.373390e-09 -4.000030e+03 -4.002850e+02
4.000000e+02 -4.000030e+03 -4.002850e+02
-1.360980e-09 -4.400010e+03 -1.718530e-01
4.000000e+02 -4.400010e+03 -1.718530e-01
2.990490e-09 -4.000040e+03 -4.199020e-01
4.000000e+02 -4.000040e+03 -4.199020e-01
-4.000000e+02 -4.000030e+03 -4.002850e+02
-9.373390e-09 -4.000030e+03 -4.002850e+02
-4.000000e+02 -3.600130e+03 -4.003960e+02
-7.372330e-09 -3.600130e+03 -4.003960e+02
-4.000000e+02 -4.000040e+03 -4.199020e-01
2.990490e-09 -4.000040e+03 -4.199020e-01
-4.000000e+02 -3.599970e+03 -3.355110e-01
4.268810e-09 -3.599970e+03 -3.355110e-01
-9.373390e-09 -4.000030e+03 -4.002850e+02
4.000000e+02 -4.000030e+03 -4.002850e+02
-7.372330e-09 -3.600130e+03 -4.003960e+02
4.000000e+02 -3.600130e+03 -4.003960e+02
2.990490e-09 -4.000040e+03 -4.199020e-01
4.000000e+02 -4.000040e+03 -4.199020e-01
4.268810e-09 -3.599970e+03 -3.355110e-01
4.000000e+02 -3.599970e+03 -3.355110e-01
-4.000000e+02 -3.600130e+03 -4.003960e+02
-7.372330e-09 -3.600130e+03 -4.003960e+02
-4.000000e+02 -3.200080e+03 -4.004420e+02
2.313460e-09 -3.200080e+03 -4.004420e+02
-4.000000e+02 -3.599970e+03 -3.355110e-01
4.268810e-09 -3.599970e+03 -3.355110e-01
-4.000000e+02 -3.199970e+03 -4.402980e-01
-1.325070e-09 -3.199970e+03 -4.402980e-01
-7.372330e-09 -3.600130e+03 -4.003960e+02
4.000000e+02 -3.600130e+03 -4.003960e+02
2.313460e-09 -3.200080e+03 -4.004420e+02
4.000000e+02 -3.200080e+03 -4.004420e+02
4.268810e-09 -3.599970e+03 -3.355110e-01
4.000000e+02 -3.599970e+03 -3.355110e-01
-1.325070e-09 -3.199970e+03 -4.402980e-01
4.000000e+02 -3.199970e+03 -4.402980e-01
-4.000000e+02 -3.200080e+03 -4.004420e+02
2.313460e-09 -3.200080e+03 -4.004420e+02
-4.000000e+02 -2.799980e+03 -4.004720e+02
8.134540e-09 -2.799980e+03 -4.004720e+02
-4.000000e+02 -3.199970e+03 -4.402980e-01
-1.325070e-09 -3.199970e+03 -4.402980e-01
-4.000000e+02 -2.800040e+03 -3.538720e-01
6.072060e-09 -2.800040e+03 -3.538720e-01
2.313460e-09 -3.200080e+03 -4.004420e+02
4.000000e+02 -3.200080e+03 -4.004420e+02
8.134540e-09 -2.799980e+03 -4.004720e+02
4.000000e+02 -2.799980e+03 -4.004720e+02
-1.325070e-09 -3.199970e+03 -4.402980e-01
4.000000e+02 -3.199970e+03 -4.402980e-01
6.072060e-09 -2.800040e+03 -3.538720e-01
4.000000e+02 -2.800040e+03 -3.538720e-01
-4.000000e+02 -2.799980e+03 -4.004720e+02
8.134540e-09 -2.799980e+03 -4.004720e+02
-4.000000e+02 -2.400090e+03 -4.004390e+02
1.852150e-08 -2.400090e+03 -4.004390e+02
-4.000000e+02 -2.800040e+03 -3.538720e-01
6.072060e-09 -2.800040e+03 -3.538720e-01
-4.000000e+02 -2.399970e+03 -5.148000e-01
-1.466780e-09 -2.399970e+03 -5.147990e-01
8.134540e-09 -2.799980e+03 -4.004720e+02
4.000000e+02 -2.799980e+03 -4.004720e+02
1.852150e-08 -2.400090e+03 -4.004390e+02
4.000000e+02 -2.400090e+03 -4.004390e+02
6.072060e-09 -2.800040e+03 -3.538720e-01
4.000000e+02 -2.800040e+03 -3.538720e-01
-1.466780e-09 -2.399970e+03 -5.147990e-01
4.000000e+02 -2.399970e+03 -5.147990e-01
-4.000000e+02 -2.400090e+03 -4.004390e+02
1.852150e-08 -2.400090e+03 -4.004390e+02
-4.000000e+02 -2.000130e+03 -4.005590e+02
2.193800e-08 -2.000130e+03 -4.005590e+02
-4.000000e+02 -2.399970e+03 -5.148000e-01
-1.466780e-09 -2.399970e+03 -5.147990e-01
-4.000000e+02 -1.999990e+03 -6.907180e-01
-5.526840e-09 -1.999990e+03 -6.907180e-01
1.852150e-08 -2.400090e+03 -4.004390e+02
4.000000e+02 -2.400090e+03 -4.004390e+02
2.193800e-08 -2.000130e+03 -4.005590e+02
4.000000e+02 -2.000130e+03 -4.005590e+02
-1.466780e-09 -2.399970e+03 -5.147990e-01
4.000000e+02 -2.399970e+03 -5.147990e-01
-5.526840e-09 -1.999990e+03 -6.907180e-01
4.000000e+02 -1.999990e+03 -6.907180e-01
-4.000000e+02 -2.000130e+03 -4.005590e+02
2.193800e-08 -2.000130e+03 -4.005590e+02
-4.000000e+02 -1.600130e+03 -4.007420e+02
9.512240e-09 -1.600130e+03 -4.007420e+02
-4.000000e+02 -1.999990e+03 -6.907180e-01
-5.526840e-09 -1.999990e+03 -6.907180e-01
-4.000000e+02 -1.600020e+03 -6.700710e-01
3.054220e-09 -1.600020e+03 -6.700710e-01
2.193800e-08 -2.000130e+03 -4.005590e+02
4.000000e+02 -2.000130e+03 -4.005590e+02
9.512240e-09 -1.600130e+03 -4.007420e+02
4.000000e+02 -1.600130e+03 -4.007420e+02
-5.526840e-09 -1.999990e+03 -6.907180e-01
4.000000e+02 -1.999990e+03 -6.907180e-01
3.054220e-09 -1.600020e+03 -6.700710e-01
4.000000e+02 -1.600020e+03 -6.700710e-01
-4.000000e+02 -1.600130e+03 -4.007420e+02
9.512240e-09 -1.600130e+03 -4.007420e+02
-4.000000e+02 -1.200090e+03 -4.007640e+02
-3.117230e-09 -1.200090e+03 -4.007640e+02
-4.000000e+02 -1.600020e+03 -6.700710e-01
3.054220e-09 -1.600020e+03 -6.700710e-01
-4.000000e+02 -1.199980e+03 -9.106570e-01
-2.216160e-09 -1.199980e+03 -9.106570e-01
9.512240e-09 -1.600130e+03 -4.007420e+02
4.000000e+02 -1.600130e+03 -4.007420e+02
-3.117230e-09 -1.200090e+03 -4.007640e+02
4.000000e+02 -1.200090e+03 -4.007640e+02
3.054220e-09 -1.600020e+03 -6.700710e-01
4.000000e+02 -1.600020e+03 -6.700710e-01
-2.216160e-09 -1.199980e+03 -9.106570e-01
4.000000e+02 -1.199980e+03 -9.106570e-01
-4.000000e+02 -1.200090e+03 -4.007640e+02
-3.117230e-09 -1.200090e+03 -4.007640e+02
-4.000000e+02 -7.999560e+02 -4.007900e+02
-1.087090e-08 -7.999560e+02 -4.007900e+02
-4.000000e+02 -1.199980e+03 -9.106570e-01
-2.216160e-09 -1.199980e+03 -9.106570e-01
-4.000000e+02 -8.000210e+02 -7.718930e-01
-9.179810e-12 -8.000210e+02 -7.718930e-01
-3.117230e-09 -1.200090e+03 -4.007640e+02
4.000000e+02 -1.200090e+03 -4.007640e+02
-1.087090e-08 -7.999560e+02 -4.007900e+02
4.000000e+02 -7.999560e+02 -4.007900e+02
-2.216160e-09 -1.199980e+03 -9.106570e-01
4.000000e+02 -1.199980e+03 -9.106570e-01
-9.179810e-12 -8.000210e+02 -7.718930e-01
4.000000e+02 -8.000210e+02 -7.718930e-01
-4.000000e+02 -7.999560e+02 -4.007900e+02
-1.087090e-08 -7.999560e+02 -4.007900e+02
-4.000000e+02 -3.999930e+02 -4.008630e+02
-1.804070e-08 -3.999930e+02 -4.008630e+02
-4.000000e+02 -8.000210e+02 -7.718930e-01
-9.179810e-12 -8.000210e+02 -7.718930e-01
-4.000000e+02 -4.000040e+02 -6.915670e-01
3.112780e-10 -4.000040e+02 -6.915670e-01
-1.087090e-08 -7.999560e+02 -4.007900e+02
4.000000e+02 -7.999560e+02 -4.007900e+02
-1.804070e-08 -3.999930e+02 -4.008630e+02
4.000000e+02 -3.999930e+02 -4.008630e+02
-9.179810e-12 -8.000210e+02 -7.718930e-01
4.000000e+02 -8.000210e+02 -7.718930e-01
3.112780e-10 -4.000040e+02 -6.915670e-01
4.000000e+02 -4.000040e+02 -6.915670e-01
-4.000000e+02 -3.999930e+02 -4.008630e+02
-1.804070e-08 -3.999930e+02 -4.008630e+02
-4.000000e+02 -9.717780e-02 -4.007610e+02
-1.305670e-08 -9.717780e-02 -4.007610e+02
-4.000000e+02 -4.000040e+02 -6.915670e-01
3.112780e-10 -4.000040e+02 -6.915670e-01
-4.000000e+02 6.749570e-03 -9.256660e-01
1.889260e-09 6.749570e-03 -9.256660e-01
-1.804070e-08 -3.999930e+02 -4.008630e+02
4.000000e+02 -3.999930e+02 -4.008630e+02
[...]
<PointData>
<DataArray type="Float32" Name="V1" format="ascii">
0.000000e+00
0.000000e+00
1.211440e-08
1.233420e-08
0.000000e+00
0.000000e+00
-1.130420e-08
-1.066450e-08
0.000000e+00
0.000000e+00
1.233420e-08
1.265540e-08
0.000000e+00
0.000000e+00
-1.066450e-08
-1.014260e-08
1.211440e-08
1.233420e-08
-3.405410e-09
-3.790680e-09
-1.130420e-08
-1.066450e-08
-3.525210e-10
2.967460e-10
1.233420e-08
1.265540e-08
-3.790680e-09
-4.671150e-09
-1.066450e-08
-1.014260e-08
2.967460e-10
4.978500e-10
-3.405410e-09
-3.790680e-09
9.249020e-09
9.630410e-09
-3.525210e-10
2.967460e-10
-4.247930e-09
-4.940210e-09
-3.790680e-09
-4.671150e-09
9.630410e-09
1.060900e-08
2.967460e-10
4.978500e-10
-4.940210e-09
-5.304510e-09
9.249020e-09
9.630410e-09
1.165580e-09
1.906730e-09
-4.247930e-09
-4.940210e-09
9.957010e-10
2.574010e-10
9.630410e-09
1.060900e-08
1.906730e-09
2.622800e-09
-4.940210e-09
-5.304510e-09
2.574010e-10
-4.723200e-10
1.165580e-09
1.906730e-09
1.617280e-09
1.171120e-09
9.957010e-10
2.574010e-10
5.205340e-09
5.226560e-09
1.906730e-09
2.622800e-09
1.171120e-09
1.180310e-09
2.574010e-10
-4.723200e-10
5.226560e-09
5.303530e-09
1.617280e-09
1.171120e-09
8.282780e-09
8.866520e-09
5.205340e-09
5.226560e-09
-4.572960e-09
-5.250290e-09
1.171120e-09
1.180310e-09
8.866520e-09
9.638850e-09
5.226560e-09
5.303530e-09
-5.250290e-09
-5.714970e-09
8.282780e-09
8.866520e-09
-3.482990e-09
-3.327480e-09
-4.572960e-09
-5.250290e-09
7.914540e-10
1.464410e-09
8.866520e-09
9.638850e-09
-3.327480e-09
-3.087260e-09
-5.250290e-09
-5.714970e-09
1.464410e-09
2.273220e-09
-3.482990e-09
-3.327480e-09
-1.088100e-08
-1.136430e-08
7.914540e-10
1.464410e-09
8.950510e-09
9.191070e-09
-3.327480e-09
-3.087260e-09
-1.136430e-08
-1.221550e-08
1.464410e-09
2.273220e-09
9.191070e-09
9.450320e-09
-1.088100e-08
-1.136430e-08
-7.382330e-09
-7.175120e-09
8.950510e-09
9.191070e-09
-3.437820e-09
-2.879670e-09
-1.136430e-08
-1.221550e-08
-7.175120e-09
-6.825560e-09
9.191070e-09
9.450320e-09
-2.879670e-09
-2.818210e-09
-7.382330e-09
-7.175120e-09
-5.107140e-09
-5.844610e-09
-3.437820e-09
-2.879670e-09
0.000000e+00
1.055880e-10
-7.175120e-09
-6.825560e-09
-5.844610e-09
-6.588910e-09
-2.879670e-09
-2.818210e-09
1.055880e-10
-3.338640e-11
-5.107140e-09
-5.844610e-09
9.122350e-10
1.174220e-09
0.000000e+00
1.055880e-10
1.283410e-09
1.148470e-09
-5.844610e-09
-6.588910e-09
1.174220e-09
1.553450e-09
1.055880e-10
-3.338640e-11
1.148470e-09
8.238590e-10
9.122350e-10
1.174220e-09
-1.047740e-09
-1.060990e-09
1.283410e-09
1.148470e-09
1.093900e-09
2.012820e-10
1.174220e-09
1.553450e-09
-1.060990e-09
-1.379640e-09
1.148470e-09
8.238590e-10
2.012820e-10
-1.093900e-09
-1.047740e-09
-1.060990e-09
7.799660e-09
8.539180e-09
1.093900e-09
2.012820e-10
-3.368100e-10
-5.347530e-10
-1.060990e-09
-1.379640e-09
8.539180e-09
9.105650e-09
2.012820e-10
-1.093900e-09
-5.347530e-10
-7.944000e-10
7.799660e-09
8.539180e-09
-3.931740e-09
-3.060700e-09
-3.368100e-10
-5.347530e-10
3.239460e-09
3.682100e-09
8.539180e-09
9.105650e-09
-3.060700e-09
-2.426410e-09
-5.347530e-10
-7.944000e-10
3.682100e-09
3.722590e-09
-3.931740e-09
-3.060700e-09
7.773140e-09
6.716930e-09
3.239460e-09
3.682100e-09
-4.989310e-09
-4.702080e-09
-3.060700e-09
-2.426410e-09
6.716930e-09
5.680600e-09
3.682100e-09
3.722590e-09
-4.702080e-09
-4.266590e-09
7.773140e-09
6.716930e-09
4.850850e-09
4.747590e-09
-4.989310e-09
-4.702080e-09
-3.183490e-09
-3.621660e-09
6.716930e-09
5.680600e-09
4.747590e-09
4.272480e-09
-4.702080e-09
-4.266590e-09
-3.621660e-09
-4.133040e-09
4.850850e-09
4.747590e-09
-1.796970e-10
-6.087460e-10
-3.183490e-09
-3.621660e-09
1.023200e-09
1.731200e-09
4.747590e-09
4.272480e-09
-6.087460e-10
-1.232350e-09
-3.621660e-09
-4.133040e-09
1.731200e-09
1.924630e-09
-1.796970e-10
-6.087460e-10
3.314090e-09
4.207540e-09
1.023200e-09
1.731200e-09
-5.181770e-09
-4.960980e-09
-6.087460e-10
-1.232350e-09
4.207540e-09
5.027600e-09
1.731200e-09
1.924630e-09
-4.960980e-09
-4.440390e-09
3.314090e-09
4.207540e-09
-8.185560e-09
-8.222290e-09
-5.181770e-09
-4.960980e-09
4.946100e-09
4.453800e-09
4.207540e-09
5.027600e-09
-8.222290e-09
-8.289650e-09
-4.960980e-09
-4.440390e-09
4.453800e-09
4.078050e-09
-8.185560e-09
-8.222290e-09
-6.538830e-09
-5.859100e-09
4.946100e-09
4.453800e-09
2.399890e-09
1.846870e-09
-8.222290e-09
-8.289650e-09
-5.859100e-09
-5.463590e-09
4.453800e-09
4.078050e-09
1.846870e-09
1.192090e-09
-6.538830e-09
-5.859100e-09
-6.377790e-09
-5.742270e-09
2.399890e-09
1.846870e-09
4.447270e-09
4.950900e-09
-5.859100e-09
-5.463590e-09
-5.742270e-09
-4.939230e-09
1.846870e-09
1.192090e-09
4.950900e-09
5.581420e-09
-6.377790e-09
-5.742270e-09
1.044700e-08
1.000010e-08
4.447270e-09
4.950900e-09
-9.471920e-09
-8.875790e-09
-5.742270e-09
-4.939230e-09
1.000010e-08
9.645730e-09
4.950900e-09
5.581420e-09
-8.875790e-09
-7.950880e-09
1.044700e-08
1.000010e-08
5.775850e-09
5.917610e-09
-9.471920e-09
-8.875790e-09
-3.604750e-09
-3.472660e-09
1.000010e-08
9.645730e-09
5.917610e-09
5.856370e-09
-8.875790e-09
-7.950880e-09
-3.472660e-09
-2.997900e-09
5.775850e-09
5.917610e-09
-8.601910e-10
-1.587180e-09
-3.604750e-09
-3.472660e-09
1.997290e-09
1.871800e-09
5.917610e-09
5.856370e-09
-1.587180e-09
-2.256530e-09
-3.472660e-09
-2.997900e-09
1.871800e-09
1.906950e-09
-8.601910e-10
-1.587180e-09
-4.400130e-09
-3.982160e-09
1.997290e-09
1.871800e-09
-2.857480e-10
-2.940520e-10
-1.587180e-09
-2.256530e-09
-3.982160e-09
-3.837470e-09
1.871800e-09
1.906950e-09
-2.940520e-10
-4.026010e-10
-4.400130e-09
-3.982160e-09
-5.362450e-09
-3.991170e-09
-2.857480e-10
-2.940520e-10
3.177600e-09
3.270610e-09
-3.982160e-09
-3.837470e-09
-3.991170e-09
-2.315450e-09
-2.940520e-10
-4.026010e-10
3.270610e-09
3.357300e-09
-5.362450e-09
-3.991170e-09
3.667600e-09
3.043500e-09
3.177600e-09
3.270610e-09
-2.154410e-09
-3.111850e-09
-3.991170e-09
-2.315450e-09
3.043500e-09
2.704300e-09
3.270610e-09
3.357300e-09
-3.111850e-09
-3.898360e-09
3.667600e-09
3.043500e-09
9.014330e-10
8.412000e-10
-2.154410e-09
-3.111850e-09
2.174040e-09
2.354180e-09
3.043500e-09
2.704300e-09
8.412000e-10
9.338380e-10
-3.111850e-09
-3.898360e-09
2.354180e-09
2.613960e-09
9.014330e-10
8.412000e-10
-2.569770e-09
-3.680240e-09
2.174040e-09
2.354180e-09
1.277520e-09
1.432300e-09
8.412000e-10
9.338380e-10
-3.680240e-09
-5.014840e-09
2.354180e-09
2.613960e-09
1.432300e-09
1.337420e-09
-2.569770e-09
-3.680240e-09
1.731180e-09
2.420230e-09
1.277520e-09
1.432300e-09
-4.446290e-09
-3.674180e-09
-3.680240e-09
-5.014840e-09
2.420230e-09
3.407380e-09
1.432300e-09
1.337420e-09
-3.674180e-09
-3.002810e-09
0.000000e+00
0.000000e+00
-1.130420e-08
-1.066450e-08
0.000000e+00
0.000000e+00
8.234660e-09
9.227040e-09
0.000000e+00
0.000000e+00
-1.066450e-08
-1.014260e-08
0.000000e+00
0.000000e+00
9.227040e-09
9.880420e-09
-1.130420e-08
-1.066450e-08
-3.525210e-10
2.967460e-10
8.234660e-09
9.227040e-09
3.235540e-09
3.478050e-09
-1.066450e-08
-1.014260e-08
2.967460e-10
4.978500e-10
9.227040e-09
9.880420e-09
3.478050e-09
3.633230e-09
-3.525210e-10
2.967460e-10
-4.247930e-09
-4.940210e-09
3.235540e-09
3.478050e-09
-9.073250e-10
-5.358560e-10
2.967460e-10
4.978500e-10
-4.940210e-09
-5.304510e-09
3.478050e-09
3.633230e-09
-5.358560e-10
-4.330410e-10
-4.247930e-09
-4.940210e-09
9.957010e-10
2.574010e-10
-9.073250e-10
-5.358560e-10
-3.972000e-09
-4.391170e-09
-4.940210e-09
-5.304510e-09
2.574010e-10
-4.723200e-10
-5.358560e-10
-4.330410e-10
-4.391170e-09
-4.861650e-09
9.957010e-10
2.574010e-10
5.205340e-09
5.226560e-09
-3.972000e-09
-4.391170e-09
-1.238240e-08
-1.277330e-08
2.574010e-10
-4.723200e-10
5.226560e-09
5.303530e-09
-4.391170e-09
-4.861650e-09
-1.277330e-08
-1.311200e-08
5.205340e-09
5.226560e-09
-4.572960e-09
-5.250290e-09
-1.238240e-08
-1.277330e-08
1.448380e-09
3.279100e-09
5.226560e-09
5.303530e-09
-5.250290e-09
-5.714970e-09
-1.277330e-08
-1.311200e-08
3.279100e-09
4.566080e-09
-4.572960e-09
-5.250290e-09
7.914540e-10
1.464410e-09
1.448380e-09
3.279100e-09
9.407110e-10
-5.765690e-10
-5.250290e-09
-5.714970e-09
1.464410e-09
2.273220e-09
3.279100e-09
4.566080e-09
-5.765690e-10
-2.167170e-09
7.914540e-10
1.464410e-09
8.950510e-09
9.191070e-09
9.407110e-10
-5.765690e-10
-5.949660e-09
-5.765770e-09
1.464410e-09
2.273220e-09
9.191070e-09
9.450320e-09
-5.765690e-10
-2.167170e-09
-5.765770e-09
-5.779780e-09
8.950510e-09
9.191070e-09
-3.437820e-09
-2.879670e-09
-5.949660e-09
-5.765770e-09
1.131410e-08
1.145440e-08
9.191070e-09
9.450320e-09
-2.879670e-09
-2.818210e-09
-5.765770e-09
-5.779780e-09
1.145440e-08
1.141910e-08
-3.437820e-09
-2.879670e-09
0.000000e+00
1.055880e-10
1.131410e-08
1.145440e-08
4.898970e-09
6.329570e-09
-2.879670e-09
-2.818210e-09
1.055880e-10
-3.338640e-11
1.145440e-08
1.141910e-08
6.329570e-09
8.007830e-09
0.000000e+00
1.055880e-10
1.283410e-09
1.148470e-09
4.898970e-09
6.329570e-09
-3.494770e-09
-3.263600e-09
1.055880e-10
-3.338640e-11
1.148470e-09
8.238590e-10
6.329570e-09
8.007830e-09
-3.263600e-09
-2.866320e-09
1.283410e-09
1.148470e-09
1.093900e-09
2.012820e-10
-3.494770e-09
-3.263600e-09
2.670910e-09
1.816330e-09
1.148470e-09
8.238590e-10
2.012820e-10
-1.093900e-09
-3.263600e-09
-2.866320e-09
1.816330e-09
7.855630e-10
1.093900e-09
2.012820e-10
-3.368100e-10
-5.347530e-10
2.670910e-09
1.816330e-09
-8.884710e-09
-7.617380e-09
2.012820e-10
-1.093900e-09
-5.347530e-10
-7.944000e-10
1.816330e-09
7.855630e-10
-7.617380e-09
-6.447510e-09
-3.368100e-10
-5.347530e-10
3.239460e-09
3.682100e-09
-8.884710e-09
-7.617380e-09
-2.924260e-09
-3.617160e-09
-5.347530e-10
-7.944000e-10
3.682100e-09
3.722590e-09
-7.617380e-09
-6.447510e-09
-3.617160e-09
-4.313720e-09
3.239460e-09
3.682100e-09
-4.989310e-09
-4.702080e-09
-2.924260e-09
-3.617160e-09
1.469980e-09
1.598640e-09
3.682100e-09
3.722590e-09
-4.702080e-09
-4.266590e-09
-3.617160e-09
-4.313720e-09
1.598640e-09
1.854910e-09
-4.989310e-09
-4.702080e-09
-3.183490e-09
-3.621660e-09
1.469980e-09
1.598640e-09
1.522030e-09
2.125160e-09
-4.702080e-09
-4.266590e-09
-3.621660e-09
-4.133040e-09
1.598640e-09
1.854910e-09
2.125160e-09
2.550130e-09
-3.183490e-09
-3.621660e-09
1.023200e-09
1.731200e-09
1.522030e-09
2.125160e-09
-1.064440e-09
-1.182340e-09
-3.621660e-09
-4.133040e-09
1.731200e-09
1.924630e-09
2.125160e-09
2.550130e-09
-1.182340e-09
-1.495520e-09
1.023200e-09
1.731200e-09
-5.181770e-09
-4.960980e-09
-1.064440e-09
-1.182340e-09
3.926830e-09
4.355730e-09
1.731200e-09
1.924630e-09
-4.960980e-09
-4.440390e-09
-1.182340e-09
-1.495520e-09
4.355730e-09
4.981450e-09
-5.181770e-09
-4.960980e-09
4.946100e-09
4.453800e-09
3.926830e-09
4.355730e-09
4.654460e-10
2.102800e-10
-4.960980e-09
-4.440390e-09
4.453800e-09
4.078050e-09
4.355730e-09
4.981450e-09
2.102800e-10
3.633230e-11
4.946100e-09
4.453800e-09
2.399890e-09
1.846870e-09
4.654460e-10
2.102800e-10
3.487900e-09
3.386520e-09
4.453800e-09
4.078050e-09
1.846870e-09
1.192090e-09
2.102800e-10
3.633230e-11
3.386520e-09
3.230630e-09
2.399890e-09
1.846870e-09
4.447270e-09
4.950900e-09
3.487900e-09
3.386520e-09
-5.006000e-09
-5.207940e-09
1.846870e-09
1.192090e-09
4.950900e-09
5.581420e-09
3.386520e-09
3.230630e-09
-5.207940e-09
-5.444930e-09
4.447270e-09
4.950900e-09
-9.471920e-09
-8.875790e-09
-5.006000e-09
-5.207940e-09
6.697900e-09
7.356830e-09
4.950900e-09
5.581420e-09
-8.875790e-09
-7.950880e-09
-5.207940e-09
-5.444930e-09
7.356830e-09
8.145300e-09
-9.471920e-09
-8.875790e-09
-3.604750e-09
-3.472660e-09
6.697900e-09
7.356830e-09
9.564230e-10
1.053180e-09
-8.875790e-09
-7.950880e-09
-3.472660e-09
-2.997900e-09
7.356830e-09
8.145300e-09
1.053180e-09
1.040870e-09
-3.604750e-09
-3.472660e-09
1.997290e-09
1.871800e-09
9.564230e-10
1.053180e-09
-1.300110e-09
-2.713280e-09
-3.472660e-09
-2.997900e-09
1.871800e-09
1.906950e-09
1.053180e-09
1.040870e-09
-2.713280e-09
-4.306850e-09
1.997290e-09
1.871800e-09
-2.857480e-10
-2.940520e-10
-1.300110e-09
-2.713280e-09
4.558230e-09
5.274560e-09
1.871800e-09
1.906950e-09
-2.940520e-10
-4.026010e-10
-2.713280e-09
-4.306850e-09
5.274560e-09
6.029190e-09
-2.857480e-10
-2.940520e-10
3.177600e-09
3.270610e-09
4.558230e-09
5.274560e-09
-1.598620e-09
-1.334320e-09
-2.940520e-10
-4.026010e-10
3.270610e-09
3.357300e-09
5.274560e-09
6.029190e-09
-1.334320e-09
-9.338380e-10
3.177600e-09
3.270610e-09
-2.154410e-09
-3.111850e-09
-1.598620e-09
-1.334320e-09
2.826060e-09
2.246830e-09
3.270610e-09
3.357300e-09
-3.111850e-09
-3.898360e-09
-1.334320e-09
-9.338380e-10
2.246830e-09
1.435620e-09
-2.154410e-09
-3.111850e-09
2.174040e-09
2.354180e-09
2.826060e-09
2.246830e-09
-6.143100e-09
-6.140500e-09
-3.111850e-09
-3.898360e-09
2.354180e-09
2.613960e-09
2.246830e-09
1.435620e-09
-6.140500e-09
-5.856370e-09
2.174040e-09
2.354180e-09
1.277520e-09
1.432300e-09
-6.143100e-09
-6.140500e-09
1.257880e-09
1.308060e-09
2.354180e-09
2.613960e-09
1.432300e-09
1.337420e-09
-6.140500e-09
-5.856370e-09
1.308060e-09
8.592090e-10
1.277520e-09
1.432300e-09
-4.446290e-09
-3.674180e-09
1.257880e-09
1.308060e-09
4.159550e-09
3.523650e-09
1.432300e-09
1.337420e-09
-3.674180e-09
-3.002810e-09
1.308060e-09
8.592090e-10
3.523650e-09
3.496740e-09
</DataArray>
<DataArray type="Float32" Name="V2" format="ascii">
0.000000e+00
0.000000e+00
-5.401130e-02
-5.401120e-02
0.000000e+00
0.000000e+00
3.251850e-02
3.251840e-02
0.000000e+00
0.000000e+00
-5.401120e-02
-5.401120e-02
0.000000e+00
0.000000e+00
3.251840e-02
3.251840e-02
-5.401130e-02
-5.401120e-02
-8.140560e-02
-8.140560e-02
3.251850e-02
3.251840e-02
7.163990e-02
7.163990e-02
-5.401120e-02
-5.401120e-02
-8.140560e-02
-8.140570e-02
3.251840e-02
3.251840e-02
7.163990e-02
7.163990e-02
-8.140560e-02
-8.140560e-02
3.572900e-02
3.572900e-02
7.163990e-02
7.163990e-02
-2.721530e-02
-2.721530e-02
-8.140560e-02
-8.140570e-02
3.572900e-02
3.572900e-02
7.163990e-02
7.163990e-02
-2.721530e-02
-2.721530e-02
3.572900e-02
3.572900e-02
5.190170e-02
5.190170e-02
-2.721530e-02
-2.721530e-02
-3.221840e-02
-3.221840e-02
3.572900e-02
3.572900e-02
5.190170e-02
5.190170e-02
-2.721530e-02
-2.721530e-02
-3.221840e-02
-3.221840e-02
5.190170e-02
5.190170e-02
-5.483570e-02
-5.483570e-02
-3.221840e-02
-3.221840e-02
3.132770e-02
3.132770e-02
5.190170e-02
5.190170e-02
-5.483570e-02
-5.483570e-02
-3.221840e-02
-3.221840e-02
3.132770e-02
3.132770e-02
-5.483570e-02
-5.483570e-02
-6.224940e-02
-6.224940e-02
3.132770e-02
3.132770e-02
2.832000e-02
2.832000e-02
-5.483570e-02
-5.483570e-02
-6.224940e-02
-6.224940e-02
3.132770e-02
3.132770e-02
2.832000e-02
2.832000e-02
-6.224940e-02
-6.224940e-02
2.561300e-02
2.561300e-02
2.832000e-02
2.832000e-02
-5.352140e-02
-5.352140e-02
-6.224940e-02
-6.224940e-02
2.561300e-02
2.561300e-02
2.832000e-02
2.832000e-02
-5.352140e-02
-5.352140e-02
2.561300e-02
2.561300e-02
1.043320e-01
1.043320e-01
-5.352140e-02
-5.352140e-02
-7.957740e-02
-7.957740e-02
2.561300e-02
2.561300e-02
1.043320e-01
1.043320e-01
-5.352140e-02
-5.352140e-02
-7.957740e-02
-7.957740e-02
1.043320e-01
1.043320e-01
2.325020e-02
2.325020e-02
-7.957740e-02
-7.957740e-02
2.757260e-02
2.757260e-02
1.043320e-01
1.043320e-01
2.325020e-02
2.325030e-02
-7.957740e-02
-7.957740e-02
2.757260e-02
2.757260e-02
2.325020e-02
2.325020e-02
-5.172910e-02
-5.172910e-02
2.757260e-02
2.757260e-02
6.599490e-02
6.599490e-02
2.325020e-02
2.325030e-02
-5.172910e-02
-5.172910e-02
2.757260e-02
2.757260e-02
6.599490e-02
6.599490e-02
-5.172910e-02
-5.172910e-02
-8.120810e-02
-8.120810e-02
6.599490e-02
6.599490e-02
2.003640e-02
2.003640e-02
-5.172910e-02
-5.172910e-02
-8.120810e-02
-8.120810e-02
6.599490e-02
6.599490e-02
2.003640e-02
2.003640e-02
-8.120810e-02
-8.120810e-02
5.363050e-02
5.363050e-02
2.003640e-02
2.003640e-02
-6.979970e-02
-6.979970e-02
-8.120810e-02
-8.120810e-02
5.363050e-02
5.363050e-02
2.003640e-02
2.003640e-02
-6.979970e-02
-6.979970e-02
5.363050e-02
5.363050e-02
8.656860e-02
8.656860e-02
-6.979970e-02
-6.979970e-02
1.784650e-04
1.784540e-04
5.363050e-02
5.363050e-02
8.656860e-02
8.656860e-02
-6.979970e-02
-6.979970e-02
1.784540e-04
1.784470e-04
8.656860e-02
8.656860e-02
-1.595200e-01
-1.595200e-01
1.784650e-04
1.784540e-04
1.388900e-01
1.388900e-01
8.656860e-02
8.656860e-02
-1.595200e-01
-1.595200e-01
1.784540e-04
1.784470e-04
1.388900e-01
1.388900e-01
-1.595200e-01
-1.595200e-01
3.307980e-02
3.307980e-02
1.388900e-01
1.388900e-01
-7.488710e-02
-7.488710e-02
-1.595200e-01
-1.595200e-01
3.307980e-02
3.307970e-02
1.388900e-01
1.388900e-01
-7.488710e-02
-7.488710e-02
3.307980e-02
3.307980e-02
3.473630e-02
3.473640e-02
-7.488710e-02
-7.488710e-02
-3.006720e-02
-3.006720e-02
3.307980e-02
3.307970e-02
3.473640e-02
3.473640e-02
-7.488710e-02
-7.488710e-02
-3.006720e-02
-3.006720e-02
3.473630e-02
3.473640e-02
-3.561880e-02
-3.561880e-02
-3.006720e-02
-3.006720e-02
4.595110e-02
4.595110e-02
3.473640e-02
3.473640e-02
-3.561880e-02
-3.561880e-02
-3.006720e-02
-3.006720e-02
4.595110e-02
4.595110e-02
-3.561880e-02
-3.561880e-02
-3.413050e-02
-3.413050e-02
4.595110e-02
4.595110e-02
7.283110e-02
7.283110e-02
-3.561880e-02
-3.561880e-02
-3.413050e-02
-3.413050e-02
4.595110e-02
4.595110e-02
7.283110e-02
7.283110e-02
-3.413050e-02
-3.413050e-02
-4.763970e-02
-4.763970e-02
7.283110e-02
7.283110e-02
9.770760e-03
9.770770e-03
-3.413050e-02
-3.413050e-02
-4.763970e-02
-4.763970e-02
7.283110e-02
7.283110e-02
9.770770e-03
9.770780e-03
-4.763970e-02
-4.763970e-02
3.465330e-02
3.465330e-02
9.770760e-03
9.770770e-03
-5.789490e-02
-5.789490e-02
-4.763970e-02
-4.763970e-02
3.465330e-02
3.465330e-02
9.770770e-03
9.770780e-03
-5.789490e-02
-5.789490e-02
3.465330e-02
3.465330e-02
7.902560e-02
7.902560e-02
-5.789490e-02
-5.789490e-02
-4.876140e-02
-4.876140e-02
3.465330e-02
3.465330e-02
7.902560e-02
7.902560e-02
-5.789490e-02
-5.789490e-02
-4.876140e-02
-4.876140e-02
7.902560e-02
7.902560e-02
6.377730e-02
6.377730e-02
-4.876140e-02
-4.876140e-02
-5.706310e-02
-5.706310e-02
7.902560e-02
7.902560e-02
6.377730e-02
6.377730e-02
-4.876140e-02
-4.876140e-02
-5.706310e-02
-5.706310e-02
6.377730e-02
6.377730e-02
-5.133960e-02
-5.133960e-02
-5.706310e-02
-5.706310e-02
6.376630e-02
6.376630e-02
6.377730e-02
6.377730e-02
-5.133960e-02
-5.133960e-02
-5.706310e-02
-5.706310e-02
6.376630e-02
6.376630e-02
-5.133960e-02
-5.133960e-02
-2.570110e-02
-2.570110e-02
6.376630e-02
6.376630e-02
1.379820e-02
1.379820e-02
-5.133960e-02
-5.133960e-02
-2.570110e-02
-2.570110e-02
6.376630e-02
6.376630e-02
1.379820e-02
1.379810e-02
-2.570110e-02
-2.570110e-02
6.407280e-02
6.407280e-02
1.379820e-02
1.379820e-02
-8.535410e-02
-8.535410e-02
-2.570110e-02
-2.570110e-02
6.407280e-02
6.407280e-02
1.379820e-02
1.379810e-02
-8.535410e-02
-8.535410e-02
6.407280e-02
6.407280e-02
-7.524420e-02
-7.524420e-02
-8.535410e-02
-8.535410e-02
9.210960e-02
9.210970e-02
6.407280e-02
6.407280e-02
-7.524420e-02
-7.524420e-02
-8.535410e-02
-8.535410e-02
9.210970e-02
9.210970e-02
-7.524420e-02
-7.524420e-02
-7.273320e-02
-7.273320e-02
9.210960e-02
9.210970e-02
8.275430e-02
8.275430e-02
-7.524420e-02
-7.524420e-02
-7.273320e-02
-7.273320e-02
9.210970e-02
9.210970e-02
8.275430e-02
8.275430e-02
-7.273320e-02
-7.273320e-02
1.299320e-01
1.299320e-01
8.275430e-02
8.275430e-02
-1.085540e-01
-1.085540e-01
-7.273320e-02
-7.273320e-02
1.299320e-01
1.299320e-01
8.275430e-02
8.275430e-02
-1.085540e-01
-1.085540e-01
1.299320e-01
1.299320e-01
-3.231060e-02
-3.231060e-02
-1.085540e-01
-1.085540e-01
4.488190e-02
4.488190e-02
1.299320e-01
1.299320e-01
-3.231060e-02
-3.231060e-02
-1.085540e-01
-1.085540e-01
4.488190e-02
4.488190e-02
-3.231060e-02
-3.231060e-02
-2.015330e-01
-2.015330e-01
4.488190e-02
4.488190e-02
1.589950e-01
1.589950e-01
-3.231060e-02
-3.231060e-02
-2.015330e-01
-2.015330e-01
4.488190e-02
4.488190e-02
1.589950e-01
1.589950e-01
0.000000e+00
0.000000e+00
3.251850e-02
3.251840e-02
0.000000e+00
0.000000e+00
-1.118490e-02
-1.118490e-02
0.000000e+00
0.000000e+00
3.251840e-02
3.251840e-02
0.000000e+00
0.000000e+00
-1.118490e-02
-1.118490e-02
3.251850e-02
3.251840e-02
7.163990e-02
7.163990e-02
-1.118490e-02
-1.118490e-02
-6.148120e-02
-6.148120e-02
3.251840e-02
3.251840e-02
7.163990e-02
7.163990e-02
-1.118490e-02
-1.118490e-02
-6.148120e-02
-6.148120e-02
7.163990e-02
7.163990e-02
-2.721530e-02
-2.721530e-02