<?xml version="1.0"?>
<VTKFile type="UnstructuredGrid" version="0.1" byte_order="LittleEndian" compressor="vtkZLibDataCompressor">
<UnstructuredGrid>
<Piece NumberOfPoints="960" NumberOfCells="120">
<Points>
<DataArray type="Float32" NumberOfComponents="3" format="ascii">
-4.000000e+02 -6.000000e+03 -4.000000e+02
0.000000e+00 -6.000000e+03 -4.000000e+02
-4.000000e+02 -5.600010e+03 -4.000720e+02
2.680490e-10 -5.600010e+03 -4.000720e+02
-4.000000e+02 -6.000000e+03 0.000000e+00
0.000000e+00 -6.000000e+03 0.000000e+00
-4.000000e+02 -5.600010e+03 -5.512590e-02
6.342770e-10 -5.600010e+03 -5.512590e-02
0.000000e+00 -6.000000e+03 -4.000000e+02
4.000000e+02 -6.000000e+03 -4.000000e+02
2.680490e-10 -5.600010e+03 -4.000720e+02
4.000000e+02 -5.600010e+03 -4.000720e+02
0.000000e+00 -6.000000e+03 0.000000e+00
4.000000e+02 -6.000000e+03 0.000000e+00
6.342770e-10 -5.600010e+03 -5.512590e-02
4.000000e+02 -5.600010e+03 -5.512590e-02
-4.000000e+02 -5.600010e+03 -4.000720e+02
2.680490e-10 -5.600010e+03 -4.000720e+02
-4.000000e+02 -5.200000e+03 -4.000740e+02
-7.141020e-10 -5.200000e+03 -4.000740e+02
-4.000000e+02 -5.600010e+03 -5.512590e-02
6.342770e-10 -5.600010e+03 -5.512590e-02
-4.000000e+02 -5.200030e+03 -3.181340e-02
-3.892440e-10 -5.200030e+03 -3.181340e-02
2.680490e-10 -5.600010e+03 -4.000720e+02
4.000000e+02 -5.600010e+03 -4.000720e+02
-7.141020e-10 -5.200000e+03 -4.000740e+02
4.000000e+02 -5.200000e+03 -4.000740e+02
6.342770e-10 -5.600010e+03 -5.512590e-02
4.000000e+02 -5.600010e+03 -5.512590e-02
-3.892440e-10 -5.200030e+03 -3.181340e-02
4.000000e+02 -5.200030e+03 -3.181340e-02
-4.000000e+02 -5.200000e+03 -4.000740e+02
-7.141020e-10 -5.200000e+03 -4.000740e+02
-4.000000e+02 -4.800030e+03 -4.000640e+02
-1.665680e-10 -4.800030e+03 -4.000640e+02
-4.000000e+02 -5.200030e+03 -3.181340e-02
-3.892440e-10 -5.200030e+03 -3.181340e-02
-4.000000e+02 -4.800000e+03 -8.419350e-02
1.946900e-11 -4.800000e+03 -8.419350e-02
-7.141020e-10 -5.200000e+03 -4.000740e+02
4.000000e+02 -5.200000e+03 -4.000740e+02
-1.665680e-10 -4.800030e+03 -4.000640e+02
4.000000e+02 -4.800030e+03 -4.000640e+02
-3.892440e-10 -5.200030e+03 -3.181340e-02
4.000000e+02 -5.200030e+03 -3.181340e-02
1.946900e-11 -4.800000e+03 -8.419350e-02
4.000000e+02 -4.800000e+03 -8.419350e-02
-4.000000e+02 -4.800030e+03 -4.000640e+02
-1.665680e-10 -4.800030e+03 -4.000640e+02
-4.000000e+02 -4.400040e+03 -4.001220e+02
6.608330e-10 -4.400040e+03 -4.001220e+02
-4.000000e+02 -4.800000e+03 -8.419350e-02
1.946900e-11 -4.800000e+03 -8.419350e-02
-4.000000e+02 -4.399990e+03 -1.476320e-01
5.737380e-10 -4.399990e+03 -1.476320e-01
-1.665680e-10 -4.800030e+03 -4.000640e+02
4.000000e+02 -4.800030e+03 -4.000640e+02
6.608330e-10 -4.400040e+03 -4.001220e+02
4.000000e+02 -4.400040e+03 -4.001220e+02
1.946900e-11 -4.800000e+03 -8.419350e-02
4.000000e+02 -4.800000e+03 -8.419350e-02
5.737380e-10 -4.399990e+03 -1.476320e-01
4.000000e+02 -4.399990e+03 -1.476320e-01
-4.000000e+02 -4.400040e+03 -4.001220e+02
6.608330e-10 -4.400040e+03 -4.001220e+02
-4.000000e+02 -4.000010e+03 -4.001700e+02
5.990520e-10 -4.000010e+03 -4.001700e+02
-4.000000e+02 -4.399990e+03 -1.476320e-01
5.737380e-10 -4.399990e+03 -1.476320e-01
-4.000000e+02 -4.000010e+03 -1.339500e-01
4.260380e-10 -4.000010e+03 -1.339500e-01
6.608330e-10 -4.400040e+03 -4.001220e+02
4.000000e+02 -4.400040e+03 -4.001220e+02
5.990520e-10 -4.000010e+03 -4.001700e+02
4.000000e+02 -4.000010e+03 -4.001700e+02
5.737380e-10 -4.399990e+03 -1.476320e-01
4.000000e+02 -4.399990e+03 -1.476320e-01
4.260380e-10 -4.000010e+03 -1.339500e-01
4.000000e+02 -4.000010e+03 -1.339500e-01
-4.000000e+02 -4.000010e+03 -4.001700e+02
5.990520e-10 -4.000010e+03 -4.001700e+02
-4.000000e+02 -3.600010e+03 -4.001650e+02
6.936310e-10 -3.600010e+03 -4.001650e+02
-4.000000e+02 -4.000010e+03 -1.339500e-01
4.260380e-10 -4.000010e+03 -1.339500e-01
-4.000000e+02 -3.600010e+03 -1.503920e-01
9.228670e-10 -3.600010e+03 -1.503920e-01
5.990520e-10 -4.000010e+03 -4.001700e+02
4.000000e+02 -4.000010e+03 -4.001700e+02
6.936310e-10 -3.600010e+03 -4.001650e+02
4.000000e+02 -3.600010e+03 -4.001650e+02
4.260380e-10 -4.000010e+03 -1.339500e-01
4.000000e+02 -4.000010e+03 -1.339500e-01
9.228670e-10 -3.600010e+03 -1.503920e-01
4.000000e+02 -3.600010e+03 -1.503920e-01
-4.000000e+02 -3.600010e+03 -4.001650e+02
6.936310e-10 -3.600010e+03 -4.001650e+02
-4.000000e+02 -3.200030e+03 -4.001460e+02
7.206270e-10 -3.200030e+03 -4.001460e+02
-4.000000e+02 -3.600010e+03 -1.503920e-01
9.228670e-10 -3.600010e+03 -1.503920e-01
-4.000000e+02 -3.199990e+03 -2.167630e-01
7.104240e-10 -3.199990e+03 -2.167630e-01
6.936310e-10 -3.600010e+03 -4.001650e+02
4.000000e+02 -3.600010e+03 -4.001650e+02
7.206270e-10 -3.200030e+03 -4.001460e+02
4.000000e+02 -3.200030e+03 -4.001460e+02
9.228670e-10 -3.600010e+03 -1.503920e-01
4.000000e+02 -3.600010e+03 -1.503920e-01
7.104240e-10 -3.199990e+03 -2.167630e-01
4.000000e+02 -3.199990e+03 -2.167630e-01
-4.000000e+02 -3.200030e+03 -4.001460e+02
7.206270e-10 -3.200030e+03 -4.001460e+02
-4.000000e+02 -2.800020e+03 -4.002390e+02
5.295200e-10 -2.800020e+03 -4.002390e+02
-4.000000e+02 -3.199990e+03 -2.167630e-01
7.104240e-10 -3.199990e+03 -2.167630e-01
-4.000000e+02 -2.800000e+03 -2.019740e-01
1.645120e-10 -2.800000e+03 -2.019740e-01
7.206270e-10 -3.200030e+03 -4.001460e+02
4.000000e+02 -3.200030e+03 -4.001460e+02
5.295200e-10 -2.800020e+03 -4.002390e+02
4.000000e+02 -2.800020e+03 -4.002390e+02
7.104240e-10 -3.199990e+03 -2.167630e-01
4.000000e+02 -3.199990e+03 -2.167630e-01
1.645120e-10 -2.800000e+03 -2.019740e-01
4.000000e+02 -2.800000e+03 -2.019740e-01
-4.000000e+02 -2.800020e+03 -4.002390e+02
5.295200e-10 -2.800020e+03 -4.002390e+02
-4.000000e+02 -2.400020e+03 -4.002640e+02
2.083020e-10 -2.400020e+03 -4.002640e+02
-4.000000e+02 -2.800000e+03 -2.019740e-01
1.645120e-10 -2.800000e+03 -2.019740e-01
-4.000000e+02 -2.400010e+03 -1.959220e-01
7.539500e-11 -2.400010e+03 -1.959220e-01
5.295200e-10 -2.800020e+03 -4.002390e+02
4.000000e+02 -2.800020e+03 -4.002390e+02
2.083020e-10 -2.400020e+03 -4.002640e+02
4.000000e+02 -2.400020e+03 -4.002640e+02
1.645120e-10 -2.800000e+03 -2.019740e-01
4.000000e+02 -2.800000e+03 -2.019740e-01
7.539500e-11 -2.400010e+03 -1.959220e-01
4.000000e+02 -2.400010e+03 -1.959220e-01
-4.000000e+02 -2.400020e+03 -4.002640e+02
2.083020e-10 -2.400020e+03 -4.002640e+02
-4.000000e+02 -2.000030e+03 -4.001950e+02
-2.365750e-10 -2.000030e+03 -4.001950e+02
-4.000000e+02 -2.400010e+03 -1.959220e-01
7.539500e-11 -2.400010e+03 -1.959220e-01
-4.000000e+02 -2.000000e+03 -3.109580e-01
-1.882860e-10 -2.000000e+03 -3.109580e-01
2.083020e-10 -2.400020e+03 -4.002640e+02
4.000000e+02 -2.400020e+03 -4.002640e+02
-2.365750e-10 -2.000030e+03 -4.001950e+02
4.000000e+02 -2.000030e+03 -4.001950e+02
7.539500e-11 -2.400010e+03 -1.959220e-01
4.000000e+02 -2.400010e+03 -1.959220e-01
-1.882860e-10 -2.000000e+03 -3.109580e-01
4.000000e+02 -2.000000e+03 -3.109580e-01
-4.000000e+02 -2.000030e+03 -4.001950e+02
-2.365750e-10 -2.000030e+03 -4.001950e+02
-4.000000e+02 -1.600030e+03 -4.003100e+02
6.388000e-10 -1.600030e+03 -4.003100e+02
-4.000000e+02 -2.000000e+03 -3.109580e-01
-1.882860e-10 -2.000000e+03 -3.109580e-01
-4.000000e+02 -1.599990e+03 -2.745060e-01
1.567390e-10 -1.599990e+03 -2.745060e-01
-2.365750e-10 -2.000030e+03 -4.001950e+02
4.000000e+02 -2.000030e+03 -4.001950e+02
6.388000e-10 -1.600030e+03 -4.003100e+02
4.000000e+02 -1.600030e+03 -4.003100e+02
-1.882860e-10 -2.000000e+03 -3.109580e-01
4.000000e+02 -2.000000e+03 -3.109580e-01
1.567390e-10 -1.599990e+03 -2.745060e-01
4.000000e+02 -1.599990e+03 -2.745060e-01
-4.000000e+02 -1.600030e+03 -4.003100e+02
6.388000e-10 -1.600030e+03 -4.003100e+02
-4.000000e+02 -1.200010e+03 -4.003710e+02
5.461710e-10 -1.200010e+03 -4.003710e+02
-4.000000e+02 -1.599990e+03 -2.745060e-01
1.567390e-10 -1.599990e+03 -2.745060e-01
-4.000000e+02 -1.200010e+03 -2.804460e-01
9.777110e-11 -1.200010e+03 -2.804460e-01
6.388000e-10 -1.600030e+03 -4.003100e+02
4.000000e+02 -1.600030e+03 -4.003100e+02
5.461710e-10 -1.200010e+03 -4.003710e+02
4.000000e+02 -1.200010e+03 -4.003710e+02
1.567390e-10 -1.599990e+03 -2.745060e-01
4.000000e+02 -1.599990e+03 -2.745060e-01
9.777110e-11 -1.200010e+03 -2.804460e-01
4.000000e+02 -1.200010e+03 -2.804460e-01
-4.000000e+02 -1.200010e+03 -4.003710e+02
5.461710e-10 -1.200010e+03 -4.003710e+02
-4.000000e+02 -8.000180e+02 -4.002570e+02
4.909640e-10 -8.000180e+02 -4.002570e+02
-4.000000e+02 -1.200010e+03 -2.804460e-01
9.777110e-11 -1.200010e+03 -2.804460e-01
-4.000000e+02 -7.999960e+02 -3.872610e-01
5.343550e-10 -7.999960e+02 -3.872610e-01
5.461710e-10 -1.200010e+03 -4.003710e+02
4.000000e+02 -1.200010e+03 -4.003710e+02
4.909640e-10 -8.000180e+02 -4.002570e+02
4.000000e+02 -8.000180e+02 -4.002570e+02
9.777110e-11 -1.200010e+03 -2.804460e-01
4.000000e+02 -1.200010e+03 -2.804460e-01
5.343550e-10 -7.999960e+02 -3.872610e-01
4.000000e+02 -7.999960e+02 -3.872610e-01
-4.000000e+02 -8.000180e+02 -4.002570e+02
4.909640e-10 -8.000180e+02 -4.002570e+02
-4.000000e+02 -4.000280e+02 -4.004000e+02
8.508290e-10 -4.000280e+02 -4.004000e+02
-4.000000e+02 -7.999960e+02 -3.872610e-01
5.343550e-10 -7.999960e+02 -3.872610e-01
-4.000000e+02 -3.999900e+02 -3.396730e-01
6.101000e-10 -3.999900e+02 -3.396730e-01
4.909640e-10 -8.000180e+02 -4.002570e+02
4.000000e+02 -8.000180e+02 -4.002570e+02
8.508290e-10 -4.000280e+02 -4.004000e+02
4.000000e+02 -4.000280e+02 -4.004000e+02
5.343550e-10 -7.999960e+02 -3.872610e-01
4.000000e+02 -7.999960e+02 -3.872610e-01
6.101000e-10 -3.999900e+02 -3.396730e-01
4.000000e+02 -3.999900e+02 -3.396730e-01
-4.000000e+02 -4.000280e+02 -4.004000e+02
8.508290e-10 -4.000280e+02 -4.004000e+02
-4.000000e+02 -2.751970e-03 -4.004100e+02
1.231670e-09 -2.751970e-03 -4.004100e+02
-4.000000e+02 -3.999900e+02 -3.396730e-01
6.101000e-10 -3.999900e+02 -3.396730e-01
-4.000000e+02 -1.696770e-02 -3.568820e-01
9.036260e-10 -1.696770e-02 -3.568820e-01
8.508290e-10 -4.000280e+02 -4.004000e+02
4.000000e+02 -4.000280e+02 -4.004000e+02
1.231670e-09 -2.751970e-03 -4.004100e+02
[...]
<PointData>
<DataArray type="Float32" Name="V1" format="ascii">
0.000000e+00
0.000000e+00
1.965870e-09
8.679400e-10
0.000000e+00
0.000000e+00
-4.919590e-10
-1.207920e-10
0.000000e+00
0.000000e+00
8.679400e-10
-1.904990e-10
0.000000e+00
0.000000e+00
-1.207920e-10
-7.561040e-11
1.965870e-09
8.679400e-10
-5.498940e-10
3.577300e-10
-4.919590e-10
-1.207920e-10
5.214170e-10
-1.004980e-10
8.679400e-10
-1.904990e-10
3.577300e-10
1.147900e-09
-1.207920e-10
-7.561040e-11
-1.004980e-10
-6.657640e-10
-5.498940e-10
3.577300e-10
-5.872080e-10
-4.870770e-10
5.214170e-10
-1.004980e-10
-3.456480e-10
-4.310340e-10
3.577300e-10
1.147900e-09
-4.870770e-10
-1.895170e-10
-1.004980e-10
-6.657640e-10
-4.310340e-10
-4.850850e-10
-5.872080e-10
-4.870770e-10
4.497350e-10
4.993430e-10
-3.456480e-10
-4.310340e-10
7.197720e-10
2.106640e-10
-4.870770e-10
-1.895170e-10
4.993430e-10
2.572720e-10
-4.310340e-10
-4.850850e-10
2.106640e-10
-2.798570e-10
4.497350e-10
4.993430e-10
1.227440e-10
-2.379930e-10
7.197720e-10
2.106640e-10
-5.204350e-11
1.665000e-10
4.993430e-10
2.572720e-10
-2.379930e-10
-1.423830e-10
2.106640e-10
-2.798570e-10
1.665000e-10
9.230360e-11
1.227440e-10
-2.379930e-10
8.798300e-10
-2.341640e-10
-5.204350e-11
1.665000e-10
-3.741240e-10
-5.540610e-10
-2.379930e-10
-1.423830e-10
-2.341640e-10
-1.245120e-09
1.665000e-10
9.230360e-11
-5.540610e-10
-6.981690e-10
8.798300e-10
-2.341640e-10
8.444800e-11
1.521390e-10
-3.741240e-10
-5.540610e-10
6.883490e-10
3.686700e-10
-2.341640e-10
-1.245120e-09
1.521390e-10
1.708600e-10
-5.540610e-10
-6.981690e-10
3.686700e-10
2.121020e-10
8.444800e-11
1.521390e-10
-3.623410e-10
-3.925410e-10
6.883490e-10
3.686700e-10
6.284500e-10
4.685310e-10
1.521390e-10
1.708600e-10
-3.925410e-10
-5.793530e-10
3.686700e-10
2.121020e-10
4.685310e-10
5.351650e-10
-3.623410e-10
-3.925410e-10
3.485930e-10
6.321100e-10
6.284500e-10
4.685310e-10
-8.867040e-10
-5.741160e-10
-3.925410e-10
-5.793530e-10
6.321100e-10
1.209770e-09
4.685310e-10
5.351650e-10
-5.741160e-10
-2.170120e-10
3.485930e-10
6.321100e-10
3.279720e-10
-2.671330e-10
-8.867040e-10
-5.741160e-10
2.415610e-10
-2.291180e-12
6.321100e-10
1.209770e-09
-2.671330e-10
-6.294320e-10
-5.741160e-10
-2.170120e-10
-2.291180e-12
-4.379510e-10
3.279720e-10
-2.671330e-10
4.733020e-10
5.046650e-10
2.415610e-10
-2.291180e-12
-5.057060e-10
-3.608850e-10
-2.671330e-10
-6.294320e-10
5.046650e-10
2.189760e-10
-2.291180e-12
-4.379510e-10
-3.608850e-10
-2.906580e-10
4.733020e-10
5.046650e-10
-5.783710e-10
-1.325180e-10
-5.057060e-10
-3.608850e-10
4.320600e-11
-1.842710e-11
5.046650e-10
2.189760e-10
-1.325180e-10
9.033970e-11
-3.608850e-10
-2.906580e-10
-1.842710e-11
-4.713380e-11
-5.783710e-10
-1.325180e-10
-5.027600e-10
-3.847720e-10
4.320600e-11
-1.842710e-11
-3.034240e-10
-3.586460e-10
-1.325180e-10
9.033970e-11
-3.847720e-10
-4.497350e-10
-1.842710e-11
-4.713380e-11
-3.586460e-10
-4.320600e-10
-5.027600e-10
-3.847720e-10
-1.276540e-11
1.459230e-10
-3.034240e-10
-3.586460e-10
-2.386150e-10
3.611580e-10
-3.847720e-10
-4.497350e-10
1.459230e-10
4.222400e-11
-3.586460e-10
-4.320600e-10
3.611580e-10
1.069350e-09
-1.276540e-11
1.459230e-10
4.733020e-10
1.094320e-10
-2.386150e-10
3.611580e-10
9.259820e-10
5.922820e-10
1.459230e-10
4.222400e-11
1.094320e-10
-5.341830e-10
3.611580e-10
1.069350e-09
5.922820e-10
3.181530e-10
4.733020e-10
1.094320e-10
-1.052650e-09
-5.867980e-10
9.259820e-10
5.922820e-10
-1.406160e-09
-1.112740e-09
1.094320e-10
-5.341830e-10
-5.867980e-10
-1.129250e-10
5.922820e-10
3.181530e-10
-1.112740e-09
-7.060250e-10
-1.052650e-09
-5.867980e-10
-1.973730e-10
4.352750e-10
-1.406160e-09
-1.112740e-09
7.462850e-11
1.007510e-10
-5.867980e-10
-1.129250e-10
4.352750e-10
1.102730e-09
-1.112740e-09
-7.060250e-10
1.007510e-10
-1.767520e-11
-1.973730e-10
4.352750e-10
1.571130e-11
-2.961700e-10
7.462850e-11
1.007510e-10
-9.819530e-11
3.214860e-10
4.352750e-10
1.102730e-09
-2.961700e-10
-6.156850e-10
1.007510e-10
-1.767520e-11
3.214860e-10
7.364650e-10
1.571130e-11
-2.961700e-10
-9.132170e-11
4.956410e-11
-9.819530e-11
3.214860e-10
1.011410e-10
-1.014760e-10
-2.961700e-10
-6.156850e-10
4.956410e-11
1.050690e-10
3.214860e-10
7.364650e-10
-1.014760e-10
-2.602180e-10
-9.132170e-11
4.956410e-11
-3.446660e-10
3.250570e-10
1.011410e-10
-1.014760e-10
4.183120e-10
4.764020e-10
4.956410e-11
1.050690e-10
3.250570e-10
1.173430e-09
-1.014760e-10
-2.602180e-10
4.764020e-10
5.037420e-10
-3.446660e-10
3.250570e-10
4.811570e-11
-3.797460e-11
4.183120e-10
4.764020e-10
4.114380e-10
4.394890e-12
3.250570e-10
1.173430e-09
-3.797460e-11
-6.363060e-10
4.764020e-10
5.037420e-10
4.394890e-12
-5.390920e-10
4.811570e-11
-3.797460e-11
-1.944270e-10
7.917280e-11
4.114380e-10
4.394890e-12
-3.152070e-10
-4.246800e-10
-3.797460e-11
-6.363060e-10
7.917280e-11
8.248410e-10
4.394890e-12
-5.390920e-10
-4.246800e-10
-3.083330e-10
-1.944270e-10
7.917280e-11
3.142250e-11
1.565990e-10
-3.152070e-10
-4.246800e-10
5.852440e-10
3.734670e-10
7.917280e-11
8.248410e-10
1.565990e-10
2.052280e-10
-4.246800e-10
-3.083330e-10
3.734670e-10
1.698780e-10
3.142250e-11
1.565990e-10
3.485930e-10
-5.716630e-10
5.852440e-10
3.734670e-10
-1.423830e-10
1.714290e-10
1.565990e-10
2.052280e-10
-5.716630e-10
-1.287340e-09
3.734670e-10
1.698780e-10
1.714290e-10
5.430200e-10
3.485930e-10
-5.716630e-10
-6.245220e-10
-1.142180e-10
-1.423830e-10
1.714290e-10
3.888540e-10
-2.207980e-10
-5.716630e-10
-1.287340e-09
-1.142180e-10
4.242040e-10
1.714290e-10
5.430200e-10
-2.207980e-10
-9.740980e-10
-6.245220e-10
-1.142180e-10
-7.070060e-10
-3.337270e-10
3.888540e-10
-2.207980e-10
2.533440e-10
1.582840e-10
-1.142180e-10
4.242040e-10
-3.337270e-10
-2.189760e-10
-2.207980e-10
-9.740980e-10
1.582840e-10
7.561040e-11
-7.070060e-10
-3.337270e-10
2.749470e-11
-2.842840e-10
2.533440e-10
1.582840e-10
1.247080e-10
-1.177070e-10
-3.337270e-10
-2.189760e-10
-2.842840e-10
-3.652870e-10
1.582840e-10
7.561040e-11
-1.177070e-10
-4.006370e-10
2.749470e-11
-2.842840e-10
1.068370e-09
6.955370e-10
1.247080e-10
-1.177070e-10
-1.227440e-10
-4.738930e-11
-2.842840e-10
-3.652870e-10
6.955370e-10
-7.462850e-11
-1.177070e-10
-4.006370e-10
-4.738930e-11
-9.623140e-11
1.068370e-09
6.955370e-10
4.065290e-10
3.325180e-11
-1.227440e-10
-4.738930e-11
2.798570e-10
3.195210e-10
6.955370e-10
-7.462850e-11
3.325180e-11
-5.371290e-10
-4.738930e-11
-9.623140e-11
3.195210e-10
2.886940e-10
4.065290e-10
3.325180e-11
-1.070330e-09
1.066190e-10
2.798570e-10
3.195210e-10
-1.703690e-09
-1.668650e-10
3.325180e-11
-5.371290e-10
1.066190e-10
9.947190e-10
3.195210e-10
2.886940e-10
-1.668650e-10
1.331530e-09
0.000000e+00
0.000000e+00
-4.919590e-10
-1.207920e-10
0.000000e+00
0.000000e+00
4.703560e-10
3.312990e-10
0.000000e+00
0.000000e+00
-1.207920e-10
-7.561040e-11
0.000000e+00
0.000000e+00
3.312990e-10
1.679140e-10
-4.919590e-10
-1.207920e-10
5.214170e-10
-1.004980e-10
4.703560e-10
3.312990e-10
1.080150e-10
-2.077680e-10
-1.207920e-10
-7.561040e-11
-1.004980e-10
-6.657640e-10
3.312990e-10
1.679140e-10
-2.077680e-10
-5.341830e-10
5.214170e-10
-1.004980e-10
-3.456480e-10
-4.310340e-10
1.080150e-10
-2.077680e-10
-7.580680e-10
-7.179060e-10
-1.004980e-10
-6.657640e-10
-4.310340e-10
-4.850850e-10
-2.077680e-10
-5.341830e-10
-7.179060e-10
-4.899950e-10
-3.456480e-10
-4.310340e-10
7.197720e-10
2.106640e-10
-7.580680e-10
-7.179060e-10
-1.541670e-10
2.362150e-10
-4.310340e-10
-4.850850e-10
2.106640e-10
-2.798570e-10
-7.179060e-10
-4.899950e-10
2.362150e-10
5.793530e-10
7.197720e-10
2.106640e-10
-5.204350e-11
1.665000e-10
-1.541670e-10
2.362150e-10
-6.608550e-10
-1.754880e-10
2.106640e-10
-2.798570e-10
1.665000e-10
9.230360e-11
2.362150e-10
5.793530e-10
-1.754880e-10
2.553080e-10
-5.204350e-11
1.665000e-10
-3.741240e-10
-5.540610e-10
-6.608550e-10
-1.754880e-10
2.523620e-10
-1.639110e-10
1.665000e-10
9.230360e-11
-5.540610e-10
-6.981690e-10
-1.754880e-10
2.553080e-10
-1.639110e-10
-4.742840e-10
-3.741240e-10
-5.540610e-10
6.883490e-10
3.686700e-10
2.523620e-10
-1.639110e-10
4.369690e-10
6.566060e-10
-5.540610e-10
-6.981690e-10
3.686700e-10
2.121020e-10
-1.639110e-10
-4.742840e-10
6.566060e-10
9.328560e-10
6.883490e-10
3.686700e-10
6.284500e-10
4.685310e-10
4.369690e-10
6.566060e-10
4.929410e-10
-2.810500e-10
3.686700e-10
2.121020e-10
4.685310e-10
5.351650e-10
6.566060e-10
9.328560e-10
-2.810500e-10
-9.839170e-10
6.284500e-10
4.685310e-10
-8.867040e-10
-5.741160e-10
4.929410e-10
-2.810500e-10
-3.800160e-10
4.721420e-10
4.685310e-10
5.351650e-10
-5.741160e-10
-2.170120e-10
-2.810500e-10
-9.839170e-10
4.721420e-10
1.075240e-09
-8.867040e-10
-5.741160e-10
2.415610e-10
-2.291180e-12
-3.800160e-10
4.721420e-10
8.965230e-10
2.139690e-10
-5.741160e-10
-2.170120e-10
-2.291180e-12
-4.379510e-10
4.721420e-10
1.075240e-09
2.139690e-10
-2.464700e-10
2.415610e-10
-2.291180e-12
-5.057060e-10
-3.608850e-10
8.965230e-10
2.139690e-10
8.474260e-10
4.444380e-10
-2.291180e-12
-4.379510e-10
-3.608850e-10
-2.906580e-10
2.139690e-10
-2.464700e-10
4.444380e-10
2.651270e-10
-5.057060e-10
-3.608850e-10
4.320600e-11
-1.842710e-11
8.474260e-10
4.444380e-10
-8.523360e-10
2.595470e-11
-3.608850e-10
-2.906580e-10
-1.842710e-11
-4.713380e-11
4.444380e-10
2.651270e-10
2.595470e-11
7.345010e-10
4.320600e-11
-1.842710e-11
-3.034240e-10
-3.586460e-10
-8.523360e-10
2.595470e-11
7.659240e-11
-2.981400e-10
-1.842710e-11
-4.713380e-11
-3.586460e-10
-4.320600e-10
2.595470e-11
7.345010e-10
-2.981400e-10
-6.431790e-10
-3.034240e-10
-3.586460e-10
-2.386150e-10
3.611580e-10
7.659240e-11
-2.981400e-10
-6.323780e-10
-4.452280e-10
-3.586460e-10
-4.320600e-10
3.611580e-10
1.069350e-09
-2.981400e-10
-6.431790e-10
-4.452280e-10
-2.307590e-10
-2.386150e-10
3.611580e-10
9.259820e-10
5.922820e-10
-6.323780e-10
-4.452280e-10
-9.623140e-11
2.386970e-10
3.611580e-10
1.069350e-09
5.922820e-10
3.181530e-10
-4.452280e-10
-2.307590e-10
2.386970e-10
3.132430e-10
9.259820e-10
5.922820e-10
-1.406160e-09
-1.112740e-09
-9.623140e-11
2.386970e-10
-9.338380e-10
-1.014490e-09
5.922820e-10
3.181530e-10
-1.112740e-09
-7.060250e-10
2.386970e-10
3.132430e-10
-1.014490e-09
-9.937370e-10
-1.406160e-09
-1.112740e-09
7.462850e-11
1.007510e-10
-9.338380e-10
-1.014490e-09
6.716560e-10
7.642090e-10
-1.112740e-09
-7.060250e-10
1.007510e-10
-1.767520e-11
-1.014490e-09
-9.937370e-10
7.642090e-10
1.152810e-09
7.462850e-11
1.007510e-10
-9.819530e-11
3.214860e-10
6.716560e-10
7.642090e-10
8.444800e-10
1.812840e-10
1.007510e-10
-1.767520e-11
3.214860e-10
7.364650e-10
7.642090e-10
1.152810e-09
1.812840e-10
-4.526810e-10
-9.819530e-11
3.214860e-10
1.011410e-10
-1.014760e-10
8.444800e-10
1.812840e-10
-1.050690e-10
-5.540770e-10
3.214860e-10
7.364650e-10
-1.014760e-10
-2.602180e-10
1.812840e-10
-4.526810e-10
-5.540770e-10
-5.783710e-10
1.011410e-10
-1.014760e-10
4.183120e-10
4.764020e-10
-1.050690e-10
-5.540770e-10
6.618370e-10
4.422690e-10
-1.014760e-10
-2.602180e-10
4.764020e-10
5.037420e-10
-5.540770e-10
-5.783710e-10
4.422690e-10
1.453290e-10
4.183120e-10
4.764020e-10
4.114380e-10
4.394890e-12
6.618370e-10
4.422690e-10
-1.080150e-11
-2.596310e-10
4.764020e-10
5.037420e-10
4.394890e-12
-5.390920e-10
4.422690e-10
1.453290e-10
-2.596310e-10
-6.893310e-10
4.114380e-10
4.394890e-12
-3.152070e-10
-4.246800e-10
-1.080150e-11
-2.596310e-10
-1.328580e-09
-4.339370e-10
4.394890e-12
-5.390920e-10
-4.246800e-10
-3.083330e-10
-2.596310e-10
-6.893310e-10
-4.339370e-10
4.890130e-10
-3.152070e-10
-4.246800e-10
5.852440e-10
3.734670e-10
-1.328580e-09
-4.339370e-10
6.510350e-10
3.801440e-11
-4.246800e-10
-3.083330e-10
3.734670e-10
1.698780e-10
-4.339370e-10
4.890130e-10
3.801440e-11
-8.101120e-10
5.852440e-10
3.734670e-10
-1.423830e-10
1.714290e-10
6.510350e-10
3.801440e-11
-9.132170e-11
-7.231080e-11
3.734670e-10
1.698780e-10
1.714290e-10
5.430200e-10
3.801440e-11
-8.101120e-10
-7.231080e-11
2.140660e-10
-1.423830e-10
1.714290e-10
3.888540e-10
-2.207980e-10
-9.132170e-11
-7.231080e-11
4.399150e-10
1.468590e-10
1.714290e-10
5.430200e-10
-2.207980e-10
-9.740980e-10
-7.231080e-11
2.140660e-10
1.468590e-10
-7.757430e-11
3.888540e-10
-2.207980e-10
2.533440e-10
1.582840e-10
4.399150e-10
1.468590e-10
-4.418790e-10
1.424420e-10
-2.207980e-10
-9.740980e-10
1.582840e-10
7.561040e-11
1.468590e-10
-7.757430e-11
1.424420e-10
6.795120e-10
2.533440e-10
1.582840e-10
1.247080e-10
-1.177070e-10
-4.418790e-10
1.424420e-10
-4.222400e-10
-3.202350e-10
1.582840e-10
7.561040e-11
-1.177070e-10
-4.006370e-10
1.424420e-10
6.795120e-10
-3.202350e-10
-2.857480e-10
1.247080e-10
-1.177070e-10
-1.227440e-10
-4.738930e-11
-4.222400e-10
-3.202350e-10
1.286360e-09
5.115430e-10
-1.177070e-10
-4.006370e-10
-4.738930e-11
-9.623140e-11
-3.202350e-10
-2.857480e-10
5.115430e-10
-4.634820e-10
-1.227440e-10
-4.738930e-11
2.798570e-10
3.195210e-10
1.286360e-09
5.115430e-10
-1.019270e-09
-5.877690e-10
-4.738930e-11
-9.623140e-11
3.195210e-10
2.886940e-10
5.115430e-10
-4.634820e-10
-5.877690e-10
9.524950e-11
2.798570e-10
3.195210e-10
-1.703690e-09
-1.668650e-10
-1.019270e-09
-5.877690e-10
-1.242170e-09
-5.346440e-10
3.195210e-10
2.886940e-10
-1.668650e-10
1.331530e-09
-5.877690e-10
9.524950e-11
-5.346440e-10
1.787160e-10
</DataArray>
<DataArray type="Float32" Name="V2" format="ascii">
0.000000e+00
0.000000e+00
6.506810e-03
6.506810e-03
0.000000e+00
0.000000e+00
-1.621950e-02
-1.621950e-02
0.000000e+00
0.000000e+00
6.506810e-03
6.506810e-03
0.000000e+00
0.000000e+00
-1.621950e-02
-1.621950e-02
6.506810e-03
6.506810e-03
2.493330e-02
2.493330e-02
-1.621950e-02
-1.621950e-02
-2.051530e-02
-2.051530e-02
6.506810e-03
6.506810e-03
2.493330e-02
2.493330e-02
-1.621950e-02
-1.621950e-02
-2.051530e-02
-2.051530e-02
2.493330e-02
2.493330e-02
-2.627920e-02
-2.627920e-02
-2.051530e-02
-2.051530e-02
3.384610e-02
3.384610e-02
2.493330e-02
2.493330e-02
-2.627920e-02
-2.627920e-02
-2.051530e-02
-2.051530e-02
3.384610e-02
3.384610e-02
-2.627920e-02
-2.627920e-02
1.682690e-02
1.682690e-02
3.384610e-02
3.384610e-02
-1.854340e-02
-1.854340e-02
-2.627920e-02
-2.627920e-02
1.682690e-02
1.682690e-02
3.384610e-02
3.384610e-02
-1.854340e-02
-1.854340e-02
1.682690e-02
1.682690e-02
9.534770e-03
9.534770e-03
-1.854340e-02
-1.854340e-02
-1.649930e-02
-1.649930e-02
1.682690e-02
1.682690e-02
9.534770e-03
9.534770e-03
-1.854340e-02
-1.854340e-02
-1.649930e-02
-1.649930e-02
9.534770e-03
9.534770e-03
-3.363540e-02
-3.363540e-02
-1.649930e-02
-1.649930e-02
3.387960e-02
3.387960e-02
9.534770e-03
9.534770e-03
-3.363540e-02
-3.363540e-02
-1.649930e-02
-1.649930e-02
3.387960e-02
3.387960e-02
-3.363540e-02
-3.363540e-02
2.226340e-02
2.226340e-02
3.387960e-02
3.387960e-02
-1.295800e-02
-1.295810e-02
-3.363540e-02
-3.363540e-02
2.226340e-02
2.226340e-02
3.387960e-02
3.387960e-02
-1.295810e-02
-1.295800e-02
2.226340e-02
2.226340e-02
1.183990e-02
1.183990e-02
-1.295800e-02
-1.295810e-02
-1.521050e-02
-1.521050e-02
2.226340e-02
2.226340e-02
1.183990e-02
1.183990e-02
-1.295810e-02
-1.295800e-02
-1.521050e-02
-1.521050e-02
1.183990e-02
1.183990e-02
-2.303670e-02
-2.303670e-02
-1.521050e-02
-1.521050e-02
1.809740e-02
1.809740e-02
1.183990e-02
1.183990e-02
-2.303670e-02
-2.303670e-02
-1.521050e-02
-1.521050e-02
1.809740e-02
1.809740e-02
-2.303670e-02
-2.303670e-02
8.746500e-04
8.746530e-04
1.809740e-02
1.809740e-02
4.969450e-04
4.969440e-04
-2.303670e-02
-2.303670e-02
8.746530e-04
8.746510e-04
1.809740e-02
1.809740e-02
4.969440e-04
4.969420e-04
8.746500e-04
8.746530e-04
3.581960e-02
3.581960e-02
4.969450e-04
4.969440e-04
-2.816400e-02
-2.816400e-02
8.746530e-04
8.746510e-04
3.581960e-02
3.581960e-02
4.969440e-04
4.969420e-04
-2.816400e-02
-2.816400e-02
3.581960e-02
3.581960e-02
-1.934450e-02
-1.934450e-02
-2.816400e-02
-2.816400e-02
1.818520e-02
1.818520e-02
3.581960e-02
3.581960e-02
-1.934450e-02
-1.934450e-02
-2.816400e-02
-2.816400e-02
1.818520e-02
1.818520e-02
-1.934450e-02
-1.934450e-02
-2.062060e-02
-2.062060e-02
1.818520e-02
1.818520e-02
1.338990e-02
1.338990e-02
-1.934450e-02
-1.934450e-02
-2.062060e-02
-2.062060e-02
1.818520e-02
1.818520e-02
1.338990e-02
1.338990e-02
-2.062060e-02
-2.062060e-02
3.460590e-02
3.460590e-02
1.338990e-02
1.338990e-02
-3.339020e-02
-3.339020e-02
-2.062060e-02
-2.062060e-02
3.460590e-02
3.460590e-02
1.338990e-02
1.338990e-02
-3.339020e-02
-3.339020e-02
3.460590e-02
3.460590e-02
-2.515000e-02
-2.515000e-02
-3.339020e-02
-3.339020e-02
2.563400e-02
2.563400e-02
3.460590e-02
3.460590e-02
-2.515000e-02
-2.515000e-02
-3.339020e-02
-3.339020e-02
2.563400e-02
2.563400e-02
-2.515000e-02
-2.515000e-02
-1.233210e-02
-1.233210e-02
2.563400e-02
2.563400e-02
9.466320e-03
9.466320e-03
-2.515000e-02
-2.515000e-02
-1.233210e-02
-1.233210e-02
2.563400e-02
2.563400e-02
9.466320e-03
9.466320e-03
-1.233210e-02
-1.233210e-02
2.041080e-02
2.041080e-02
9.466320e-03
9.466320e-03
-2.499990e-02
-2.499990e-02
-1.233210e-02
-1.233210e-02
2.041080e-02
2.041080e-02
9.466320e-03
9.466320e-03
-2.499990e-02
-2.499990e-02
2.041080e-02
2.041080e-02
-9.042360e-03
-9.042360e-03
-2.499990e-02
-2.499990e-02
1.141170e-02
1.141170e-02
2.041080e-02
2.041080e-02
-9.042360e-03
-9.042360e-03
-2.499990e-02
-2.499990e-02
1.141170e-02
1.141170e-02
-9.042360e-03
-9.042360e-03
-3.053540e-03
-3.053540e-03
1.141170e-02
1.141170e-02
5.042530e-03
5.042530e-03
-9.042360e-03
-9.042360e-03
-3.053540e-03
-3.053540e-03
1.141170e-02
1.141170e-02
5.042530e-03
5.042530e-03
-3.053540e-03
-3.053540e-03
4.284370e-03
4.284370e-03
5.042530e-03
5.042530e-03
-1.059310e-02
-1.059310e-02
-3.053540e-03
-3.053540e-03
4.284370e-03
4.284370e-03
5.042530e-03
5.042530e-03
-1.059310e-02
-1.059310e-02
4.284370e-03
4.284370e-03
9.010950e-03
9.010940e-03
-1.059310e-02
-1.059310e-02
-9.800000e-03
-9.800000e-03
4.284370e-03
4.284370e-03
9.010940e-03
9.010940e-03
-1.059310e-02
-1.059310e-02
-9.800000e-03
-9.800000e-03
9.010950e-03
9.010940e-03
-1.373840e-02
-1.373840e-02
-9.800000e-03
-9.800000e-03
1.956410e-02
1.956410e-02
9.010940e-03
9.010940e-03
-1.373840e-02
-1.373840e-02
-9.800000e-03
-9.800000e-03
1.956410e-02
1.956410e-02
-1.373840e-02
-1.373840e-02
8.892430e-03
8.892440e-03
1.956410e-02
1.956410e-02
-4.606520e-03
-4.606520e-03
-1.373840e-02
-1.373840e-02
8.892440e-03
8.892430e-03
1.956410e-02
1.956410e-02
-4.606520e-03
-4.606520e-03
8.892430e-03
8.892440e-03
1.878130e-02
1.878130e-02
-4.606520e-03
-4.606520e-03
-2.231650e-02
-2.231650e-02
8.892440e-03
8.892430e-03
1.878130e-02
1.878130e-02
-4.606520e-03
-4.606520e-03
-2.231650e-02
-2.231650e-02
1.878130e-02
1.878130e-02
-2.957080e-02
-2.957080e-02
-2.231650e-02
-2.231650e-02
2.447100e-02
2.447100e-02
1.878130e-02
1.878130e-02
-2.957080e-02
-2.957080e-02
-2.231650e-02
-2.231650e-02
2.447100e-02
2.447100e-02
-2.957080e-02
-2.957080e-02
9.268670e-03
9.268670e-03
2.447100e-02
2.447100e-02
-5.683980e-03
-5.683980e-03
-2.957080e-02
-2.957080e-02
9.268670e-03
9.268670e-03
2.447100e-02
2.447100e-02
-5.683980e-03
-5.683980e-03
9.268670e-03
9.268670e-03
2.711190e-02
2.711190e-02
-5.683980e-03
-5.683980e-03
-2.079580e-02
-2.079580e-02
9.268670e-03
9.268670e-03
2.711190e-02
2.711190e-02
-5.683980e-03
-5.683980e-03
-2.079580e-02
-2.079580e-02
2.711190e-02
2.711190e-02
-1.935780e-02
-1.935780e-02
-2.079580e-02
-2.079580e-02
1.768160e-02
1.768160e-02
2.711190e-02
2.711190e-02
-1.935780e-02
-1.935780e-02
-2.079580e-02
-2.079580e-02
1.768160e-02
1.768160e-02
-1.935780e-02
-1.935780e-02
4.778490e-03
4.778490e-03
1.768160e-02
1.768160e-02
-1.013350e-02
-1.013350e-02
-1.935780e-02
-1.935780e-02
4.778490e-03
4.778500e-03
1.768160e-02
1.768160e-02
-1.013350e-02
-1.013350e-02
4.778490e-03
4.778490e-03
4.433890e-02
4.433890e-02
-1.013350e-02
-1.013350e-02
-4.754520e-02
-4.754520e-02
4.778490e-03
4.778500e-03
4.433890e-02
4.433890e-02
-1.013350e-02
-1.013350e-02
-4.754520e-02
-4.754520e-02
0.000000e+00
0.000000e+00
-1.621950e-02
-1.621950e-02
0.000000e+00
0.000000e+00
2.592390e-02
2.592390e-02
0.000000e+00
0.000000e+00
-1.621950e-02
-1.621950e-02
0.000000e+00
0.000000e+00
2.592390e-02
2.592390e-02
-1.621950e-02
-1.621950e-02
-2.051530e-02
-2.051530e-02
2.592390e-02
2.592390e-02
1.611290e-02
1.611290e-02
-1.621950e-02
-1.621950e-02
-2.051530e-02
-2.051530e-02
2.592390e-02
2.592390e-02
1.611290e-02
1.611290e-02