<?xml version="1.0"?>
<VTKFile type="UnstructuredGrid" version="0.1" byte_order="LittleEndian" compressor="vtkZLibDataCompressor">
<UnstructuredGrid>
<Piece NumberOfPoints="960" NumberOfCells="120">
<Points>
<DataArray type="Float32" NumberOfComponents="3" format="ascii">
-4.000000e+02 -6.000000e+03 -4.000000e+02
0.000000e+00 -6.000000e+03 -4.000000e+02
-3.998910e+02 -5.600330e+03 -4.003080e+02
1.170890e-01 -5.600240e+03 -3.999430e+02
-4.000000e+02 -6.000000e+03 0.000000e+00
0.000000e+00 -6.000000e+03 0.000000e+00
-4.001600e+02 -5.599910e+03 2.887180e-01
-1.360370e-01 -5.599990e+03 4.713140e-02
0.000000e+00 -6.000000e+03 -4.000000e+02
4.000000e+02 -6.000000e+03 -4.000000e+02
1.170890e-01 -5.600240e+03 -3.999430e+02
4.001220e+02 -5.600090e+03 -3.996140e+02
0.000000e+00 -6.000000e+03 0.000000e+00
4.000000e+02 -6.000000e+03 0.000000e+00
-1.360370e-01 -5.599990e+03 4.713140e-02
3.998850e+02 -5.600090e+03 -1.108710e-01
-3.998910e+02 -5.600330e+03 -4.003080e+02
1.170890e-01 -5.600240e+03 -3.999430e+02
-3.999280e+02 -5.200630e+03 -3.999110e+02
3.863060e-02 -5.200480e+03 -3.999110e+02
-4.001600e+02 -5.599910e+03 2.887180e-01
-1.360370e-01 -5.599990e+03 4.713140e-02
-4.001060e+02 -5.199970e+03 -5.270780e-01
-9.148210e-02 -5.200040e+03 -3.629540e-01
1.170890e-01 -5.600240e+03 -3.999430e+02
4.001220e+02 -5.600090e+03 -3.996140e+02
3.863060e-02 -5.200480e+03 -3.999110e+02
4.000090e+02 -5.200330e+03 -3.998990e+02
-1.360370e-01 -5.599990e+03 4.713140e-02
3.998850e+02 -5.600090e+03 -1.108710e-01
-9.148210e-02 -5.200040e+03 -3.629540e-01
3.999250e+02 -5.200150e+03 -1.885860e-01
-3.999280e+02 -5.200630e+03 -3.999110e+02
3.863060e-02 -5.200480e+03 -3.999110e+02
-3.997320e+02 -4.800650e+03 -4.011480e+02
2.429160e-01 -4.800570e+03 -4.007760e+02
-4.001060e+02 -5.199970e+03 -5.270780e-01
-9.148210e-02 -5.200040e+03 -3.629540e-01
-4.001070e+02 -4.799970e+03 -5.717460e-01
-1.004460e-01 -4.800020e+03 -5.565170e-01
3.863060e-02 -5.200480e+03 -3.999110e+02
4.000090e+02 -5.200330e+03 -3.998990e+02
2.429160e-01 -4.800570e+03 -4.007760e+02
4.002240e+02 -4.800500e+03 -4.004850e+02
-9.148210e-02 -5.200040e+03 -3.629540e-01
3.999250e+02 -5.200150e+03 -1.885860e-01
-1.004460e-01 -4.800020e+03 -5.565170e-01
3.999040e+02 -4.800040e+03 -6.634410e-01
-3.997320e+02 -4.800650e+03 -4.011480e+02
2.429160e-01 -4.800570e+03 -4.007760e+02
-3.998380e+02 -4.401150e+03 -4.027220e+02
1.554480e-01 -4.400810e+03 -4.018650e+02
-4.001070e+02 -4.799970e+03 -5.717460e-01
-1.004460e-01 -4.800020e+03 -5.565170e-01
-4.000630e+02 -4.399890e+03 -9.803240e-01
-5.826430e-02 -4.400000e+03 -1.496240e+00
2.429160e-01 -4.800570e+03 -4.007760e+02
4.002240e+02 -4.800500e+03 -4.004850e+02
1.554480e-01 -4.400810e+03 -4.018650e+02
4.001420e+02 -4.400570e+03 -4.010740e+02
-1.004460e-01 -4.800020e+03 -5.565170e-01
3.999040e+02 -4.800040e+03 -6.634410e-01
-5.826430e-02 -4.400000e+03 -1.496240e+00
3.999480e+02 -4.400120e+03 -1.941470e+00
-3.998380e+02 -4.401150e+03 -4.027220e+02
1.554480e-01 -4.400810e+03 -4.018650e+02
-3.998680e+02 -4.001130e+03 -4.030670e+02
1.221660e-01 -4.001110e+03 -4.028510e+02
-4.000630e+02 -4.399890e+03 -9.803240e-01
-5.826430e-02 -4.400000e+03 -1.496240e+00
-4.000990e+02 -4.000090e+03 -3.298440e+00
-8.334980e-02 -3.999860e+03 -2.988910e+00
1.554480e-01 -4.400810e+03 -4.018650e+02
4.001420e+02 -4.400570e+03 -4.010740e+02
1.221660e-01 -4.001110e+03 -4.028510e+02
4.001160e+02 -4.001070e+03 -4.027520e+02
-5.826430e-02 -4.400000e+03 -1.496240e+00
3.999480e+02 -4.400120e+03 -1.941470e+00
-8.334980e-02 -3.999860e+03 -2.988910e+00
3.999340e+02 -3.999670e+03 -2.713200e+00
-3.998680e+02 -4.001130e+03 -4.030670e+02
1.221660e-01 -4.001110e+03 -4.028510e+02
-3.998010e+02 -3.600840e+03 -4.040900e+02
1.959430e-01 -3.600960e+03 -4.036400e+02
-4.000990e+02 -4.000090e+03 -3.298440e+00
-8.334980e-02 -3.999860e+03 -2.988910e+00
-4.001110e+02 -3.600150e+03 -3.402990e+00
-1.163320e-01 -3.600060e+03 -3.266350e+00
1.221660e-01 -4.001110e+03 -4.028510e+02
4.001160e+02 -4.001070e+03 -4.027520e+02
1.959430e-01 -3.600960e+03 -4.036400e+02
4.001920e+02 -3.601010e+03 -4.031630e+02
-8.334980e-02 -3.999860e+03 -2.988910e+00
3.999340e+02 -3.999670e+03 -2.713200e+00
-1.163320e-01 -3.600060e+03 -3.266350e+00
3.998780e+02 -3.600030e+03 -3.153260e+00
-3.998010e+02 -3.600840e+03 -4.040900e+02
1.959430e-01 -3.600960e+03 -4.036400e+02
-4.000110e+02 -3.200630e+03 -4.049380e+02
1.669010e-03 -3.200870e+03 -4.043680e+02
-4.001110e+02 -3.600150e+03 -3.402990e+00
-1.163320e-01 -3.600060e+03 -3.266350e+00
-4.000550e+02 -3.200020e+03 -4.546990e+00
-6.354070e-02 -3.200010e+03 -5.152140e+00
1.959430e-01 -3.600960e+03 -4.036400e+02
4.001920e+02 -3.601010e+03 -4.031630e+02
1.669010e-03 -3.200870e+03 -4.043680e+02
4.000080e+02 -3.201010e+03 -4.036530e+02
-1.163320e-01 -3.600060e+03 -3.266350e+00
3.998780e+02 -3.600030e+03 -3.153260e+00
-6.354070e-02 -3.200010e+03 -5.152140e+00
3.999270e+02 -3.199970e+03 -5.717820e+00
-4.000110e+02 -3.200630e+03 -4.049380e+02
1.669010e-03 -3.200870e+03 -4.043680e+02
-4.002070e+02 -2.800680e+03 -4.051240e+02
-2.457690e-01 -2.800620e+03 -4.051950e+02
-4.000550e+02 -3.200020e+03 -4.546990e+00
-6.354070e-02 -3.200010e+03 -5.152140e+00
-4.001690e+02 -2.799920e+03 -4.440460e+00
-1.516090e-01 -2.800010e+03 -5.064210e+00
1.669010e-03 -3.200870e+03 -4.043680e+02
4.000080e+02 -3.201010e+03 -4.036530e+02
-2.457690e-01 -2.800620e+03 -4.051950e+02
3.997230e+02 -2.800660e+03 -4.053050e+02
-6.354070e-02 -3.200010e+03 -5.152140e+00
3.999270e+02 -3.199970e+03 -5.717820e+00
-1.516090e-01 -2.800010e+03 -5.064210e+00
3.998670e+02 -2.799990e+03 -5.798830e+00
-4.002070e+02 -2.800680e+03 -4.051240e+02
-2.457690e-01 -2.800620e+03 -4.051950e+02
-4.002790e+02 -2.400800e+03 -4.056880e+02
-3.143820e-01 -2.400860e+03 -4.057510e+02
-4.001690e+02 -2.799920e+03 -4.440460e+00
-1.516090e-01 -2.800010e+03 -5.064210e+00
-4.001180e+02 -2.400070e+03 -5.415580e+00
-1.010700e-01 -2.399970e+03 -5.989170e+00
-2.457690e-01 -2.800620e+03 -4.051950e+02
3.997230e+02 -2.800660e+03 -4.053050e+02
-3.143820e-01 -2.400860e+03 -4.057510e+02
3.996580e+02 -2.400950e+03 -4.059080e+02
-1.516090e-01 -2.800010e+03 -5.064210e+00
3.998670e+02 -2.799990e+03 -5.798830e+00
-1.010700e-01 -2.399970e+03 -5.989170e+00
3.999120e+02 -2.399920e+03 -6.579500e+00
-4.002790e+02 -2.400800e+03 -4.056880e+02
-3.143820e-01 -2.400860e+03 -4.057510e+02
-4.003640e+02 -2.000940e+03 -4.064120e+02
-4.026180e-01 -2.001060e+03 -4.069940e+02
-4.001180e+02 -2.400070e+03 -5.415580e+00
-1.010700e-01 -2.399970e+03 -5.989170e+00
-3.998470e+02 -1.999990e+03 -6.815780e+00
1.768040e-01 -1.999860e+03 -7.194930e+00
-3.143820e-01 -2.400860e+03 -4.057510e+02
3.996580e+02 -2.400950e+03 -4.059080e+02
-4.026180e-01 -2.001060e+03 -4.069940e+02
3.995610e+02 -2.001150e+03 -4.076330e+02
-1.010700e-01 -2.399970e+03 -5.989170e+00
3.999120e+02 -2.399920e+03 -6.579500e+00
1.768040e-01 -1.999860e+03 -7.194930e+00
4.001990e+02 -1.999680e+03 -7.497940e+00
-4.003640e+02 -2.000940e+03 -4.064120e+02
-4.026180e-01 -2.001060e+03 -4.069940e+02
-4.001600e+02 -1.600470e+03 -4.083110e+02
-1.319950e-01 -1.600420e+03 -4.086230e+02
-3.998470e+02 -1.999990e+03 -6.815780e+00
1.768040e-01 -1.999860e+03 -7.194930e+00
-3.998210e+02 -1.600000e+03 -7.452880e+00
1.551380e-01 -1.600080e+03 -7.101160e+00
-4.026180e-01 -2.001060e+03 -4.069940e+02
3.995610e+02 -2.001150e+03 -4.076330e+02
-1.319950e-01 -1.600420e+03 -4.086230e+02
3.998920e+02 -1.600310e+03 -4.090500e+02
1.768040e-01 -1.999860e+03 -7.194930e+00
4.001990e+02 -1.999680e+03 -7.497940e+00
1.551380e-01 -1.600080e+03 -7.101160e+00
4.001320e+02 -1.600170e+03 -6.671710e+00
-4.001600e+02 -1.600470e+03 -4.083110e+02
-1.319950e-01 -1.600420e+03 -4.086230e+02
-3.998230e+02 -1.200270e+03 -4.087380e+02
1.794670e-01 -1.200210e+03 -4.079510e+02
-3.998210e+02 -1.600000e+03 -7.452880e+00
1.551380e-01 -1.600080e+03 -7.101160e+00
-3.999610e+02 -1.200010e+03 -8.287800e+00
1.978980e-02 -1.200120e+03 -8.227180e+00
-1.319950e-01 -1.600420e+03 -4.086230e+02
3.998920e+02 -1.600310e+03 -4.090500e+02
1.794670e-01 -1.200210e+03 -4.079510e+02
4.001830e+02 -1.200160e+03 -4.070810e+02
1.551380e-01 -1.600080e+03 -7.101160e+00
4.001320e+02 -1.600170e+03 -6.671710e+00
1.978980e-02 -1.200120e+03 -8.227180e+00
4.000020e+02 -1.200220e+03 -8.151900e+00
-3.998230e+02 -1.200270e+03 -4.087380e+02
1.794670e-01 -1.200210e+03 -4.079510e+02
-4.000100e+02 -8.002680e+02 -4.078880e+02
2.606540e-02 -8.005450e+02 -4.086140e+02
-3.999610e+02 -1.200010e+03 -8.287800e+00
1.978980e-02 -1.200120e+03 -8.227180e+00
-3.999510e+02 -8.002610e+02 -9.098970e+00
4.596260e-02 -7.999910e+02 -8.398030e+00
1.794670e-01 -1.200210e+03 -4.079510e+02
4.001830e+02 -1.200160e+03 -4.070810e+02
2.606540e-02 -8.005450e+02 -4.086140e+02
4.000600e+02 -8.008250e+02 -4.091830e+02
1.978980e-02 -1.200120e+03 -8.227180e+00
4.000020e+02 -1.200220e+03 -8.151900e+00
4.596260e-02 -7.999910e+02 -8.398030e+00
4.000400e+02 -7.997370e+02 -7.790160e+00
-4.000100e+02 -8.002680e+02 -4.078880e+02
2.606540e-02 -8.005450e+02 -4.086140e+02
-4.003060e+02 -4.009940e+02 -4.082790e+02
-2.627030e-01 -4.009240e+02 -4.084640e+02
-3.999510e+02 -8.002610e+02 -9.098970e+00
4.596260e-02 -7.999910e+02 -8.398030e+00
-3.998060e+02 -3.999710e+02 -8.985060e+00
1.901900e-01 -3.999880e+02 -9.676140e+00
2.606540e-02 -8.005450e+02 -4.086140e+02
4.000600e+02 -8.008250e+02 -4.091830e+02
-2.627030e-01 -4.009240e+02 -4.084640e+02
3.997790e+02 -4.008910e+02 -4.086260e+02
4.596260e-02 -7.999910e+02 -8.398030e+00
4.000400e+02 -7.997370e+02 -7.790160e+00
1.901900e-01 -3.999880e+02 -9.676140e+00
4.001900e+02 -3.999300e+02 -1.027580e+01
-4.003060e+02 -4.009940e+02 -4.082790e+02
-2.627030e-01 -4.009240e+02 -4.084640e+02
-4.002310e+02 -1.232650e+00 -4.106420e+02
-2.487420e-01 -9.992810e-01 -4.106460e+02
-3.998060e+02 -3.999710e+02 -8.985060e+00
1.901900e-01 -3.999880e+02 -9.676140e+00
-4.000050e+02 2.208640e-01 -1.000390e+01
9.358880e-03 8.435340e-02 -1.003850e+01
-2.627030e-01 -4.009240e+02 -4.084640e+02
3.997790e+02 -4.008910e+02 -4.086260e+02
[...]
<PointData>
<DataArray type="Float32" Name="V1" format="ascii">
0.000000e+00
0.000000e+00
1.910940e-01
2.121420e-01
0.000000e+00
0.000000e+00
-1.293750e-01
-1.391050e-01
0.000000e+00
0.000000e+00
2.121420e-01
2.107270e-01
0.000000e+00
0.000000e+00
-1.391050e-01
-1.492880e-01
1.910940e-01
2.121420e-01
-9.595800e-02
1.626840e-03
-1.293750e-01
-1.391050e-01
1.050050e-01
2.824310e-02
2.121420e-01
2.107270e-01
1.626840e-03
9.395950e-02
-1.391050e-01
-1.492880e-01
2.824310e-02
-4.274420e-02
-9.595800e-02
1.626840e-03
4.974010e-01
4.268740e-01
1.050050e-01
2.824310e-02
-4.761110e-01
-4.139850e-01
1.626840e-03
9.395950e-02
4.268740e-01
3.704350e-01
2.824310e-02
-4.274420e-02
-4.139850e-01
-3.588140e-01
4.974010e-01
4.268740e-01
-1.873110e-01
-1.390630e-01
-4.761110e-01
-4.139850e-01
1.264700e-02
-1.836200e-02
4.268740e-01
3.704350e-01
-1.390630e-01
-1.081390e-01
-4.139850e-01
-3.588140e-01
-1.836200e-02
-4.610940e-02
-1.873110e-01
-1.390630e-01
-1.917260e-01
-1.332380e-01
1.264700e-02
-1.836200e-02
2.063210e-01
1.780400e-01
-1.390630e-01
-1.081390e-01
-1.332380e-01
-6.343870e-02
-1.836200e-02
-4.610940e-02
1.780400e-01
1.484520e-01
-1.917260e-01
-1.332380e-01
-2.171230e-01
-2.661260e-01
2.063210e-01
1.780400e-01
1.284530e-02
3.975310e-02
-1.332380e-01
-6.343870e-02
-2.661260e-01
-3.125540e-01
1.780400e-01
1.484520e-01
3.975310e-02
7.246000e-02
-2.171230e-01
-2.661260e-01
-2.844010e-01
-2.405750e-01
1.284530e-02
3.975310e-02
8.054560e-02
7.104560e-02
-2.661260e-01
-3.125540e-01
-2.405750e-01
-1.960510e-01
3.975310e-02
7.246000e-02
7.104560e-02
6.549660e-02
-2.844010e-01
-2.405750e-01
3.266660e-02
9.095630e-02
8.054560e-02
7.104560e-02
-2.788440e-02
-7.056260e-02
-2.405750e-01
-1.960510e-01
9.095630e-02
1.378180e-01
7.104560e-02
6.549660e-02
-7.056260e-02
-1.115980e-01
3.266660e-02
9.095630e-02
2.182850e-01
2.560940e-01
-2.788440e-02
-7.056260e-02
-1.066420e-01
-1.451070e-01
9.095630e-02
1.378180e-01
2.560940e-01
3.036010e-01
-7.056260e-02
-1.115980e-01
-1.451070e-01
-1.755800e-01
2.182850e-01
2.560940e-01
6.833050e-02
3.525150e-02
-1.066420e-01
-1.451070e-01
4.738700e-02
4.938790e-02
2.560940e-01
3.036010e-01
3.525150e-02
-2.200270e-02
-1.451070e-01
-1.755800e-01
4.938790e-02
6.026120e-02
6.833050e-02
3.525150e-02
3.847280e-01
3.331830e-01
4.738700e-02
4.938790e-02
4.017880e-02
7.299000e-02
3.525150e-02
-2.200270e-02
3.331830e-01
2.731520e-01
4.938790e-02
6.026120e-02
7.299000e-02
1.044570e-01
3.847280e-01
3.331830e-01
1.578800e-01
1.765280e-01
4.017880e-02
7.299000e-02
-1.350050e-01
-1.321950e-01
3.331830e-01
2.731520e-01
1.765280e-01
1.862810e-01
7.299000e-02
1.044570e-01
-1.321950e-01
-1.332370e-01
1.578800e-01
1.765280e-01
-2.302850e-01
-1.709700e-01
-1.350050e-01
-1.321950e-01
1.596350e-01
1.301660e-01
1.765280e-01
1.862810e-01
-1.709700e-01
-1.011640e-01
-1.321950e-01
-1.332370e-01
1.301660e-01
1.034260e-01
-2.302850e-01
-1.709700e-01
2.850000e-01
2.909980e-01
1.596350e-01
1.301660e-01
-1.092090e-01
-1.400990e-01
-1.709700e-01
-1.011640e-01
2.909980e-01
3.005600e-01
1.301660e-01
1.034260e-01
-1.400990e-01
-1.765540e-01
2.850000e-01
2.909980e-01
-8.438820e-02
-1.086070e-01
-1.092090e-01
-1.400990e-01
2.123280e-01
2.189840e-01
2.909980e-01
3.005600e-01
-1.086070e-01
-1.490630e-01
-1.400990e-01
-1.765540e-01
2.189840e-01
2.352020e-01
-8.438820e-02
-1.086070e-01
3.091960e-01
3.279840e-01
2.123280e-01
2.189840e-01
-1.625000e-01
-1.854120e-01
-1.086070e-01
-1.490630e-01
3.279840e-01
3.444720e-01
2.189840e-01
2.352020e-01
-1.854120e-01
-2.130480e-01
3.091960e-01
3.279840e-01
-5.326500e-02
-8.017810e-02
-1.625000e-01
-1.854120e-01
-1.721720e-03
7.519860e-03
3.279840e-01
3.444720e-01
-8.017810e-02
-9.689150e-02
-1.854120e-01
-2.130480e-01
7.519860e-03
1.986160e-02
-5.326500e-02
-8.017810e-02
1.493070e-01
1.265740e-01
-1.721720e-03
7.519860e-03
-2.237910e-01
-2.112140e-01
-8.017810e-02
-9.689150e-02
1.265740e-01
1.097400e-01
7.519860e-03
1.986160e-02
-2.112140e-01
-1.955800e-01
1.493070e-01
1.265740e-01
-8.301110e-02
-4.980280e-02
-2.237910e-01
-2.112140e-01
1.018940e-01
1.083160e-01
1.265740e-01
1.097400e-01
-4.980280e-02
-3.810900e-02
-2.112140e-01
-1.955800e-01
1.083160e-01
1.210150e-01
-8.301110e-02
-4.980280e-02
-4.398090e-01
-4.161650e-01
1.018940e-01
1.083160e-01
1.751280e-01
1.619720e-01
-4.980280e-02
-3.810900e-02
-4.161650e-01
-3.980590e-01
1.083160e-01
1.210150e-01
1.619720e-01
1.535700e-01
-4.398090e-01
-4.161650e-01
2.202390e-01
2.054520e-01
1.751280e-01
1.619720e-01
-1.000640e-01
-8.772530e-02
-4.161650e-01
-3.980590e-01
2.054520e-01
1.867910e-01
1.619720e-01
1.535700e-01
-8.772530e-02
-7.814920e-02
2.202390e-01
2.054520e-01
1.829600e-02
-1.889820e-02
-1.000640e-01
-8.772530e-02
1.431680e-01
1.587830e-01
2.054520e-01
1.867910e-01
-1.889820e-02
-5.751070e-02
-8.772530e-02
-7.814920e-02
1.587830e-01
1.808180e-01
1.829600e-02
-1.889820e-02
-3.982230e-02
-5.889250e-02
1.431680e-01
1.587830e-01
-1.552880e-01
-1.470800e-01
-1.889820e-02
-5.751070e-02
-5.889250e-02
-7.023010e-02
1.587830e-01
1.808180e-01
-1.470800e-01
-1.370130e-01
-3.982230e-02
-5.889250e-02
3.027240e-02
1.372800e-02
-1.552880e-01
-1.470800e-01
-4.113680e-02
-1.906840e-02
-5.889250e-02
-7.023010e-02
1.372800e-02
-2.304420e-02
-1.470800e-01
-1.370130e-01
-1.906840e-02
1.156620e-02
3.027240e-02
1.372800e-02
-3.606850e-01
-3.188440e-01
-4.113680e-02
-1.906840e-02
2.963500e-01
2.552490e-01
1.372800e-02
-2.304420e-02
-3.188440e-01
-2.817330e-01
-1.906840e-02
1.156620e-02
2.552490e-01
2.199940e-01
-3.606850e-01
-3.188440e-01
-2.236680e-01
-2.363990e-01
2.963500e-01
2.552490e-01
1.045240e-02
1.746300e-02
-3.188440e-01
-2.817330e-01
-2.363990e-01
-2.379320e-01
2.552490e-01
2.199940e-01
1.746300e-02
1.893690e-02
-2.236680e-01
-2.363990e-01
7.746440e-02
9.266470e-02
1.045240e-02
1.746300e-02
-4.712770e-02
-8.380910e-02
-2.363990e-01
-2.379320e-01
9.266470e-02
1.159960e-01
1.746300e-02
1.893690e-02
-8.380910e-02
-1.113260e-01
7.746440e-02
9.266470e-02
5.118990e-02
7.814930e-02
-4.712770e-02
-8.380910e-02
-1.724500e-02
-2.871270e-02
9.266470e-02
1.159960e-01
7.814930e-02
7.472590e-02
-8.380910e-02
-1.113260e-01
-2.871270e-02
-3.473850e-02
5.118990e-02
7.814930e-02
8.754360e-02
1.403650e-01
-1.724500e-02
-2.871270e-02
-1.909500e-01
-2.187170e-01
7.814930e-02
7.472590e-02
1.403650e-01
1.945550e-01
-2.871270e-02
-3.473850e-02
-2.187170e-01
-2.554500e-01
8.754360e-02
1.403650e-01
1.823820e-01
1.792320e-01
-1.909500e-01
-2.187170e-01
3.296490e-01
3.470490e-01
1.403650e-01
1.945550e-01
1.792320e-01
1.853220e-01
-2.187170e-01
-2.554500e-01
3.470490e-01
3.702070e-01
0.000000e+00
0.000000e+00
-1.293750e-01
-1.391050e-01
0.000000e+00
0.000000e+00
6.145310e-02
5.417350e-02
0.000000e+00
0.000000e+00
-1.391050e-01
-1.492880e-01
0.000000e+00
0.000000e+00
5.417350e-02
5.462140e-02
-1.293750e-01
-1.391050e-01
1.050050e-01
2.824310e-02
6.145310e-02
5.417350e-02
-9.935850e-02
-6.570100e-02
-1.391050e-01
-1.492880e-01
2.824310e-02
-4.274420e-02
5.417350e-02
5.462140e-02
-6.570100e-02
-3.187220e-02
1.050050e-01
2.824310e-02
-4.761110e-01
-4.139850e-01
-9.935850e-02
-6.570100e-02
4.647780e-01
4.217850e-01
2.824310e-02
-4.274420e-02
-4.139850e-01
-3.588140e-01
-6.570100e-02
-3.187220e-02
4.217850e-01
3.635190e-01
-4.761110e-01
-4.139850e-01
1.264700e-02
-1.836200e-02
4.647780e-01
4.217850e-01
1.451220e-01
1.408260e-01
-4.139850e-01
-3.588140e-01
-1.836200e-02
-4.610940e-02
4.217850e-01
3.635190e-01
1.408260e-01
1.448350e-01
1.264700e-02
-1.836200e-02
2.063210e-01
1.780400e-01
1.451220e-01
1.408260e-01
-2.332350e-01
-2.093250e-01
-1.836200e-02
-4.610940e-02
1.780400e-01
1.484520e-01
1.408260e-01
1.448350e-01
-2.093250e-01
-1.988870e-01
2.063210e-01
1.780400e-01
1.284530e-02
3.975310e-02
-2.332350e-01
-2.093250e-01
2.127020e-01
1.809440e-01
1.780400e-01
1.484520e-01
3.975310e-02
7.246000e-02
-2.093250e-01
-1.988870e-01
1.809440e-01
1.536420e-01
1.284530e-02
3.975310e-02
8.054560e-02
7.104560e-02
2.127020e-01
1.809440e-01
1.389300e-01
1.136840e-01
3.975310e-02
7.246000e-02
7.104560e-02
6.549660e-02
1.809440e-01
1.536420e-01
1.136840e-01
8.078640e-02
8.054560e-02
7.104560e-02
-2.788440e-02
-7.056260e-02
1.389300e-01
1.136840e-01
6.577040e-02
4.563620e-02
7.104560e-02
6.549660e-02
-7.056260e-02
-1.115980e-01
1.136840e-01
8.078640e-02
4.563620e-02
4.574540e-02
-2.788440e-02
-7.056260e-02
-1.066420e-01
-1.451070e-01
6.577040e-02
4.563620e-02
-3.895390e-02
2.749200e-02
-7.056260e-02
-1.115980e-01
-1.451070e-01
-1.755800e-01
4.563620e-02
4.574540e-02
2.749200e-02
7.284510e-02
-1.066420e-01
-1.451070e-01
4.738700e-02
4.938790e-02
-3.895390e-02
2.749200e-02
-1.287680e-01
-9.569200e-02
-1.451070e-01
-1.755800e-01
4.938790e-02
6.026120e-02
2.749200e-02
7.284510e-02
-9.569200e-02
-7.856780e-02
4.738700e-02
4.938790e-02
4.017880e-02
7.299000e-02
-1.287680e-01
-9.569200e-02
-5.135430e-01
-5.218590e-01
4.938790e-02
6.026120e-02
7.299000e-02
1.044570e-01
-9.569200e-02
-7.856780e-02
-5.218590e-01
-4.980820e-01
4.017880e-02
7.299000e-02
-1.350050e-01
-1.321950e-01
-5.135430e-01
-5.218590e-01
1.472880e-01
1.228540e-01
7.299000e-02
1.044570e-01
-1.321950e-01
-1.332370e-01
-5.218590e-01
-4.980820e-01
1.228540e-01
8.831740e-02
-1.350050e-01
-1.321950e-01
1.596350e-01
1.301660e-01
1.472880e-01
1.228540e-01
-1.163990e-01
-1.153770e-01
-1.321950e-01
-1.332370e-01
1.301660e-01
1.034260e-01
1.228540e-01
8.831740e-02
-1.153770e-01
-1.271280e-01
1.596350e-01
1.301660e-01
-1.092090e-01
-1.400990e-01
-1.163990e-01
-1.153770e-01
-1.135080e-01
-4.939420e-02
1.301660e-01
1.034260e-01
-1.400990e-01
-1.765540e-01
-1.153770e-01
-1.271280e-01
-4.939420e-02
9.290640e-03
-1.092090e-01
-1.400990e-01
2.123280e-01
2.189840e-01
-1.135080e-01
-4.939420e-02
-3.171900e-01
-2.979660e-01
-1.400990e-01
-1.765540e-01
2.189840e-01
2.352020e-01
-4.939420e-02
9.290640e-03
-2.979660e-01
-2.828040e-01
2.123280e-01
2.189840e-01
-1.625000e-01
-1.854120e-01
-3.171900e-01
-2.979660e-01
1.478940e-02
3.562800e-02
2.189840e-01
2.352020e-01
-1.854120e-01
-2.130480e-01
-2.979660e-01
-2.828040e-01
3.562800e-02
5.672930e-02
-1.625000e-01
-1.854120e-01
-1.721720e-03
7.519860e-03
1.478940e-02
3.562800e-02
8.142310e-02
9.786700e-02
-1.854120e-01
-2.130480e-01
7.519860e-03
1.986160e-02
3.562800e-02
5.672930e-02
9.786700e-02
1.119520e-01
-1.721720e-03
7.519860e-03
-2.237910e-01
-2.112140e-01
8.142310e-02
9.786700e-02
2.783150e-01
2.803500e-01
7.519860e-03
1.986160e-02
-2.112140e-01
-1.955800e-01
9.786700e-02
1.119520e-01
2.803500e-01
2.703730e-01
-2.237910e-01
-2.112140e-01
1.018940e-01
1.083160e-01
2.783150e-01
2.803500e-01
-1.363070e-01
-1.495580e-01
-2.112140e-01
-1.955800e-01
1.083160e-01
1.210150e-01
2.803500e-01
2.703730e-01
-1.495580e-01
-1.711500e-01
1.018940e-01
1.083160e-01
1.751280e-01
1.619720e-01
-1.363070e-01
-1.495580e-01
1.262200e-01
9.256450e-02
1.083160e-01
1.210150e-01
1.619720e-01
1.535700e-01
-1.495580e-01
-1.711500e-01
9.256450e-02
6.014620e-02
1.751280e-01
1.619720e-01
-1.000640e-01
-8.772530e-02
1.262200e-01
9.256450e-02
-5.838940e-02
-3.115230e-02
1.619720e-01
1.535700e-01
-8.772530e-02
-7.814920e-02
9.256450e-02
6.014620e-02
-3.115230e-02
-1.052750e-02
-1.000640e-01
-8.772530e-02
1.431680e-01
1.587830e-01
-5.838940e-02
-3.115230e-02
-3.076810e-01
-2.900840e-01
-8.772530e-02
-7.814920e-02
1.587830e-01
1.808180e-01
-3.115230e-02
-1.052750e-02
-2.900840e-01
-2.774740e-01
1.431680e-01
1.587830e-01
-1.552880e-01
-1.470800e-01
-3.076810e-01
-2.900840e-01
3.257910e-01
3.338700e-01
1.587830e-01
1.808180e-01
-1.470800e-01
-1.370130e-01
-2.900840e-01
-2.774740e-01
3.338700e-01
3.266640e-01
-1.552880e-01
-1.470800e-01
-4.113680e-02
-1.906840e-02
3.257910e-01
3.338700e-01
5.749280e-02
2.555830e-02
-1.470800e-01
-1.370130e-01
-1.906840e-02
1.156620e-02
3.338700e-01
3.266640e-01
2.555830e-02
3.348910e-03
-4.113680e-02
-1.906840e-02
2.963500e-01
2.552490e-01
5.749280e-02
2.555830e-02
-2.124220e-01
-1.985890e-01
-1.906840e-02
1.156620e-02
2.552490e-01
2.199940e-01
2.555830e-02
3.348910e-03
-1.985890e-01
-1.943680e-01
2.963500e-01
2.552490e-01
1.045240e-02
1.746300e-02
-2.124220e-01
-1.985890e-01
2.140550e-01
2.113390e-01
2.552490e-01
2.199940e-01
1.746300e-02
1.893690e-02
-1.985890e-01
-1.943680e-01
2.113390e-01
2.078900e-01
1.045240e-02
1.746300e-02
-4.712770e-02
-8.380910e-02
2.140550e-01
2.113390e-01
3.996260e-02
8.525190e-02
1.746300e-02
1.893690e-02
-8.380910e-02
-1.113260e-01
2.113390e-01
2.078900e-01
8.525190e-02
1.140160e-01
-4.712770e-02
-8.380910e-02
-1.724500e-02
-2.871270e-02
3.996260e-02
8.525190e-02
-4.369560e-02
-4.118590e-02
-8.380910e-02
-1.113260e-01
-2.871270e-02
-3.473850e-02
8.525190e-02
1.140160e-01
-4.118590e-02
-2.200740e-02
-1.724500e-02
-2.871270e-02
-1.909500e-01
-2.187170e-01
-4.369560e-02
-4.118590e-02
3.123640e-01
3.023410e-01
-2.871270e-02
-3.473850e-02
-2.187170e-01
-2.554500e-01
-4.118590e-02
-2.200740e-02
3.023410e-01
3.064590e-01
-1.909500e-01
-2.187170e-01
3.296490e-01
3.470490e-01
3.123640e-01
3.023410e-01
-8.515330e-01
-8.628070e-01
-2.187170e-01
-2.554500e-01
3.470490e-01
3.702070e-01
3.023410e-01
3.064590e-01
-8.628070e-01
-9.114020e-01
</DataArray>
<DataArray type="Float32" Name="V2" format="ascii">
0.000000e+00
0.000000e+00
-3.833280e-01
-1.390150e-01
0.000000e+00
0.000000e+00
3.773300e-01
4.933560e-02
0.000000e+00
0.000000e+00
-1.390150e-01
3.932190e-01
0.000000e+00
0.000000e+00
4.933560e-02
-2.380940e-01
-3.833280e-01
-1.390150e-01
-8.796810e-02
-9.068500e-02
3.773300e-01
4.933560e-02
-1.519980e-01
2.972950e-02
-1.390150e-01
3.932190e-01
-9.068500e-02
1.949160e-02
4.933560e-02
-2.380940e-01
2.972950e-02
6.875740e-02
-8.796810e-02
-9.068500e-02
-6.875180e-01
-3.372100e-01
-1.519980e-01
2.972950e-02
3.891230e-01
2.901010e-01
-9.068500e-02
1.949160e-02
-3.372100e-01
-7.470020e-03
2.972950e-02
6.875740e-02
2.901010e-01
2.147500e-01
-6.875180e-01
-3.372100e-01
-2.049640e-01
-4.457320e-02
3.891230e-01
2.901010e-01
-6.336590e-02
-5.265780e-02
-3.372100e-01
-7.470020e-03
-4.457320e-02
2.246170e-01
2.901010e-01
2.147500e-01
-5.265780e-02
9.819910e-03
-2.049640e-01
-4.457320e-02
6.541420e-02
4.109850e-01
-6.336590e-02
-5.265780e-02
4.841760e-02
-1.368420e-01
-4.457320e-02
2.246170e-01
4.109850e-01
8.232020e-01
-5.265780e-02
9.819910e-03
-1.368420e-01
-4.294610e-01
6.541420e-02
4.109850e-01
-2.009400e-01
4.504500e-02
4.841760e-02
-1.368420e-01
2.165500e-01
5.827430e-02
4.109850e-01
8.232020e-01
4.504500e-02
2.008690e-01
-1.368420e-01
-4.294610e-01
5.827430e-02
-1.180380e-01
-2.009400e-01
4.504500e-02
5.307060e-01
1.643290e-01
2.165500e-01
5.827430e-02
-6.542190e-01
-3.325370e-01
4.504500e-02
2.008690e-01
1.643290e-01
-2.036910e-01
5.827430e-02
-1.180380e-01
-3.325370e-01
1.493170e-02
5.307060e-01
1.643290e-01
-6.349930e-02
-5.597480e-02
-6.542190e-01
-3.325370e-01
2.118120e-01
1.366450e-01
1.643290e-01
-2.036910e-01
-5.597480e-02
-1.085210e-01
-3.325370e-01
1.493170e-02
1.366450e-01
5.966510e-02
-6.349930e-02
-5.597480e-02
-1.798470e-01
-1.094670e-01
2.118120e-01
1.366450e-01
2.446360e-01
1.215600e-01
-5.597480e-02
-1.085210e-01
-1.094670e-01
1.868220e-02
1.366450e-01
5.966510e-02
1.215600e-01
3.187930e-02
-1.798470e-01
-1.094670e-01
5.915270e-01
2.616500e-01
2.446360e-01
1.215600e-01
-5.639230e-01
-2.801210e-01
-1.094670e-01
1.868220e-02
2.616500e-01
-2.012220e-01
1.215600e-01
3.187930e-02
-2.801210e-01
1.077220e-01
5.915270e-01
2.616500e-01
5.163240e-01
1.858840e-01
-5.639230e-01
-2.801210e-01
3.103100e-02
1.087270e-01
2.616500e-01
-2.012220e-01
1.858840e-01
-6.434670e-02
-2.801210e-01
1.077220e-01
1.087270e-01
2.019610e-03
5.163240e-01
1.858840e-01
8.149020e-02
-1.228090e-03
3.103100e-02
1.087270e-01
8.832520e-03
-5.582170e-03
1.858840e-01
-6.434670e-02
-1.228090e-03
5.246740e-04
1.087270e-01
2.019610e-03
-5.582170e-03
-3.097190e-02
8.149020e-02
-1.228090e-03
-3.279380e-01
-4.201810e-01
8.832520e-03
-5.582170e-03
-1.314770e-02
1.402890e-02
-1.228090e-03
5.246740e-04
-4.201810e-01
-7.259540e-01
-5.582170e-03
-3.097190e-02
1.402890e-02
2.449220e-01
-3.279380e-01
-4.201810e-01
-1.674520e-01
-7.225460e-02
-1.314770e-02
1.402890e-02
1.114470e-01
-1.427490e-01
-4.201810e-01
-7.259540e-01
-7.225460e-02
-3.858960e-02
1.402890e-02
2.449220e-01
-1.427490e-01
-2.606820e-01
-1.674520e-01
-7.225460e-02
-7.142440e-01
-2.473350e-01
1.114470e-01
-1.427490e-01
3.821970e-01
3.167780e-01
-7.225460e-02
-3.858960e-02
-2.473350e-01
2.247940e-01
-1.427490e-01
-2.606820e-01
3.167780e-01
2.668070e-01
-7.142440e-01
-2.473350e-01
-4.077470e-02
2.266910e-01
3.821970e-01
3.167780e-01
2.942950e-02
-1.007770e-01
-2.473350e-01
2.247940e-01
2.266910e-01
4.327450e-01
3.167780e-01
2.668070e-01
-1.007770e-01
-1.980740e-01
-4.077470e-02
2.266910e-01
-3.401530e-01
-6.474950e-02
2.942950e-02
-1.007770e-01
4.095350e-02
4.959340e-02
2.266910e-01
4.327450e-01
-6.474950e-02
3.969140e-01
-1.007770e-01
-1.980740e-01
4.959340e-02
3.361400e-02
-3.401530e-01
-6.474950e-02
-4.441200e-01
-4.002180e-01
4.095350e-02
4.959340e-02
1.048880e-01
1.983540e-01
-6.474950e-02
3.969140e-01
-4.002180e-01
-5.411700e-01
4.959340e-02
3.361400e-02
1.983540e-01
4.008760e-01
-4.441200e-01
-4.002180e-01
-1.857500e-01
1.231290e-01
1.048880e-01
1.983540e-01
7.529800e-02
1.319260e-02
-4.002180e-01
-5.411700e-01
1.231290e-01
3.696560e-01
1.983540e-01
4.008760e-01
1.319260e-02
-2.502460e-01
-1.857500e-01
1.231290e-01
1.124450e-01
2.578640e-01
7.529800e-02
1.319260e-02
5.240680e-02
-2.031310e-01
1.231290e-01
3.696560e-01
2.578640e-01
3.990630e-01
1.319260e-02
-2.502460e-01
-2.031310e-01
-3.540010e-01
1.124450e-01
2.578640e-01
6.253890e-01
2.933480e-01
5.240680e-02
-2.031310e-01
-4.000320e-01
-4.290560e-01
2.578640e-01
3.990630e-01
2.933480e-01
3.575780e-02
-2.031310e-01
-3.540010e-01
-4.290560e-01
-4.379730e-01
6.253890e-01
2.933480e-01
1.496530e-01
1.639770e-01
-4.000320e-01
-4.290560e-01
1.806470e-01
7.296690e-02
2.933480e-01
3.575780e-02
1.639770e-01
7.580910e-02
-4.290560e-01
-4.379730e-01
7.296690e-02
-3.852360e-02
1.496530e-01
1.639770e-01
7.931550e-01
4.230210e-01
1.806470e-01
7.296690e-02
-5.070370e-01
-2.193610e-01
1.639770e-01
7.580910e-02
4.230210e-01
3.043240e-01
7.296690e-02
-3.852360e-02
-2.193610e-01
-1.130470e-01
7.931550e-01
4.230210e-01
-1.888230e-01
-1.638690e-01
-5.070370e-01
-2.193610e-01
9.664430e-02
6.540870e-02
4.230210e-01
3.043240e-01
-1.638690e-01
-2.412280e-01
-2.193610e-01
-1.130470e-01
6.540870e-02
1.289280e-01
-1.888230e-01
-1.638690e-01
-8.237980e-01
-5.364840e-01
9.664430e-02
6.540870e-02
7.325060e-01
3.898050e-01
-1.638690e-01
-2.412280e-01
-5.364840e-01
-4.146440e-01
6.540870e-02
1.289280e-01
3.898050e-01
4.699060e-02
-8.237980e-01
-5.364840e-01
2.169270e-01
-4.095900e-01
7.325060e-01
3.898050e-01
-3.123650e-01
9.185170e-02
-5.364840e-01
-4.146440e-01
-4.095900e-01
-7.095360e-01
3.898050e-01
4.699060e-02
9.185170e-02
3.854500e-01
2.169270e-01
-4.095900e-01
-5.022750e-01
-1.763990e-01
-3.123650e-01
9.185170e-02
3.609180e-01
2.039960e-01
-4.095900e-01
-7.095360e-01
-1.763990e-01
4.882220e-02
9.185170e-02
3.854500e-01
2.039960e-01
2.078270e-01
-5.022750e-01
-1.763990e-01
3.369630e-01
2.436760e-01
3.609180e-01
2.039960e-01
-1.775220e-02
-1.414490e-02
-1.763990e-01
4.882220e-02
2.436760e-01
2.516530e-01
2.039960e-01
2.078270e-01
-1.414490e-02
-6.800320e-02
3.369630e-01
2.436760e-01
3.963540e-01
1.565680e-01
-1.775220e-02
-1.414490e-02
-4.033290e-01
-9.526500e-02
2.436760e-01
2.516530e-01
1.565680e-01
-9.571720e-02
-1.414490e-02
-6.800320e-02
-9.526500e-02
3.306730e-01
3.963540e-01
1.565680e-01
5.320870e-02
-3.441340e-02
-4.033290e-01
-9.526500e-02
-5.105560e-01
2.068680e-01
1.565680e-01
-9.571720e-02
-3.441340e-02
-2.297330e-01
-9.526500e-02
3.306730e-01
2.068680e-01
7.647050e-01
0.000000e+00
0.000000e+00
3.773300e-01
4.933560e-02
0.000000e+00
0.000000e+00
-2.074690e-01
1.755250e-02
0.000000e+00
0.000000e+00
4.933560e-02
-2.380940e-01
0.000000e+00
0.000000e+00
1.755250e-02
3.307120e-03
3.773300e-01
4.933560e-02
-1.519980e-01
2.972950e-02
-2.074690e-01
1.755250e-02
3.719800e-01
5.609440e-02
4.933560e-02
-2.380940e-01
2.972950e-02
6.875740e-02
1.755250e-02
3.307120e-03
5.609440e-02
-9.449700e-02
-1.519980e-01
2.972950e-02
3.891230e-01
2.901010e-01