<?xml version="1.0"?>
<VTKFile type="UnstructuredGrid" version="0.1" byte_order="LittleEndian" compressor="vtkZLibDataCompressor">
<UnstructuredGrid>
<Piece NumberOfPoints="960" NumberOfCells="120">
<Points>
<DataArray type="Float32" NumberOfComponents="3" format="ascii">
-4.000000e+02 -6.000000e+03 -4.000000e+02
0.000000e+00 -6.000000e+03 -4.000000e+02
-3.998380e+02 -5.600560e+03 -3.998020e+02
1.475480e-01 -5.600220e+03 -3.998350e+02
-4.000000e+02 -6.000000e+03 0.000000e+00
0.000000e+00 -6.000000e+03 0.000000e+00
-4.000130e+02 -5.599730e+03 -4.348670e-01
1.993850e-03 -5.599910e+03 -3.168790e-01
0.000000e+00 -6.000000e+03 -4.000000e+02
4.000000e+02 -6.000000e+03 -4.000000e+02
1.475480e-01 -5.600220e+03 -3.998350e+02
4.001300e+02 -5.599930e+03 -3.999760e+02
0.000000e+00 -6.000000e+03 0.000000e+00
4.000000e+02 -6.000000e+03 0.000000e+00
1.993850e-03 -5.599910e+03 -3.168790e-01
4.000170e+02 -5.600070e+03 -1.997190e-01
-3.998380e+02 -5.600560e+03 -3.998020e+02
1.475480e-01 -5.600220e+03 -3.998350e+02
-3.998080e+02 -5.200360e+03 -4.003430e+02
1.711910e-01 -5.200190e+03 -4.001250e+02
-4.000130e+02 -5.599730e+03 -4.348670e-01
1.993850e-03 -5.599910e+03 -3.168790e-01
-4.000460e+02 -5.199940e+03 1.538100e-02
-3.603230e-02 -5.199930e+03 1.189390e-01
1.475480e-01 -5.600220e+03 -3.998350e+02
4.001300e+02 -5.599930e+03 -3.999760e+02
1.711910e-01 -5.200190e+03 -4.001250e+02
4.001520e+02 -5.199980e+03 -3.999140e+02
1.993850e-03 -5.599910e+03 -3.168790e-01
4.000170e+02 -5.600070e+03 -1.997190e-01
-3.603230e-02 -5.199930e+03 1.189390e-01
3.999740e+02 -5.199940e+03 2.185460e-01
-3.998080e+02 -5.200360e+03 -4.003430e+02
1.711910e-01 -5.200190e+03 -4.001250e+02
-3.997670e+02 -4.800220e+03 -4.011280e+02
2.227520e-01 -4.800200e+03 -4.005170e+02
-4.000460e+02 -5.199940e+03 1.538100e-02
-3.603230e-02 -5.199930e+03 1.189390e-01
-4.001130e+02 -4.799970e+03 2.790090e-01
-1.089140e-01 -4.800000e+03 3.987350e-01
1.711910e-01 -5.200190e+03 -4.001250e+02
4.001520e+02 -5.199980e+03 -3.999140e+02
2.227520e-01 -4.800200e+03 -4.005170e+02
4.002140e+02 -4.800150e+03 -3.998810e+02
-3.603230e-02 -5.199930e+03 1.189390e-01
3.999740e+02 -5.199940e+03 2.185460e-01
-1.089140e-01 -4.800000e+03 3.987350e-01
3.998950e+02 -4.800030e+03 4.808470e-01
-3.997670e+02 -4.800220e+03 -4.011280e+02
2.227520e-01 -4.800200e+03 -4.005170e+02
-3.998050e+02 -4.400250e+03 -4.003800e+02
2.118420e-01 -4.400260e+03 -4.003100e+02
-4.001130e+02 -4.799970e+03 2.790090e-01
-1.089140e-01 -4.800000e+03 3.987350e-01
-4.000270e+02 -4.400070e+03 -7.970430e-01
-3.205370e-02 -4.400020e+03 -5.028840e-01
2.227520e-01 -4.800200e+03 -4.005170e+02
4.002140e+02 -4.800150e+03 -3.998810e+02
2.118420e-01 -4.400260e+03 -4.003100e+02
4.002290e+02 -4.400300e+03 -4.002070e+02
-1.089140e-01 -4.800000e+03 3.987350e-01
3.998950e+02 -4.800030e+03 4.808470e-01
-3.205370e-02 -4.400020e+03 -5.028840e-01
3.999630e+02 -4.399950e+03 -2.035170e-01
-3.998050e+02 -4.400250e+03 -4.003800e+02
2.118420e-01 -4.400260e+03 -4.003100e+02
-3.999960e+02 -4.000460e+03 -4.021910e+02
3.010350e-02 -4.000380e+03 -4.017980e+02
-4.000270e+02 -4.400070e+03 -7.970430e-01
-3.205370e-02 -4.400020e+03 -5.028840e-01
-3.999830e+02 -3.999990e+03 -7.630410e-01
9.635020e-03 -4.000000e+03 -7.210420e-01
2.118420e-01 -4.400260e+03 -4.003100e+02
4.002290e+02 -4.400300e+03 -4.002070e+02
3.010350e-02 -4.000380e+03 -4.017980e+02
4.000550e+02 -4.000280e+03 -4.013660e+02
-3.205370e-02 -4.400020e+03 -5.028840e-01
3.999630e+02 -4.399950e+03 -2.035170e-01
9.635020e-03 -4.000000e+03 -7.210420e-01
4.000030e+02 -4.000030e+03 -6.489520e-01
-3.999960e+02 -4.000460e+03 -4.021910e+02
3.010350e-02 -4.000380e+03 -4.017980e+02
-4.000660e+02 -3.600650e+03 -4.011640e+02
-7.690050e-02 -3.600690e+03 -4.013540e+02
-3.999830e+02 -3.999990e+03 -7.630410e-01
9.635020e-03 -4.000000e+03 -7.210420e-01
-4.000130e+02 -3.599940e+03 -2.097200e+00
-1.037590e-02 -3.599970e+03 -1.835970e+00
3.010350e-02 -4.000380e+03 -4.017980e+02
4.000550e+02 -4.000280e+03 -4.013660e+02
-7.690050e-02 -3.600690e+03 -4.013540e+02
3.999120e+02 -3.600720e+03 -4.015030e+02
9.635020e-03 -4.000000e+03 -7.210420e-01
4.000030e+02 -4.000030e+03 -6.489520e-01
-1.037590e-02 -3.599970e+03 -1.835970e+00
3.999920e+02 -3.600010e+03 -1.568520e+00
-4.000660e+02 -3.600650e+03 -4.011640e+02
-7.690050e-02 -3.600690e+03 -4.013540e+02
-4.000400e+02 -3.200570e+03 -4.020400e+02
-2.872240e-02 -3.200690e+03 -4.023920e+02
-4.000130e+02 -3.599940e+03 -2.097200e+00
-1.037590e-02 -3.599970e+03 -1.835970e+00
-4.000490e+02 -3.200080e+03 -2.553900e+00
-6.406310e-02 -3.200010e+03 -2.280740e+00
-7.690050e-02 -3.600690e+03 -4.013540e+02
3.999120e+02 -3.600720e+03 -4.015030e+02
-2.872240e-02 -3.200690e+03 -4.023920e+02
3.999830e+02 -3.200840e+03 -4.027220e+02
-1.037590e-02 -3.599970e+03 -1.835970e+00
3.999920e+02 -3.600010e+03 -1.568520e+00
-6.406310e-02 -3.200010e+03 -2.280740e+00
3.999210e+02 -3.199920e+03 -2.084270e+00
-4.000400e+02 -3.200570e+03 -4.020400e+02
-2.872240e-02 -3.200690e+03 -4.023920e+02
-4.000340e+02 -2.800330e+03 -4.029610e+02
-3.530220e-02 -2.800330e+03 -4.028440e+02
-4.000490e+02 -3.200080e+03 -2.553900e+00
-6.406310e-02 -3.200010e+03 -2.280740e+00
-3.999550e+02 -2.800130e+03 -2.823020e+00
3.871190e-02 -2.800120e+03 -2.751190e+00
-2.872240e-02 -3.200690e+03 -4.023920e+02
3.999830e+02 -3.200840e+03 -4.027220e+02
-3.530220e-02 -2.800330e+03 -4.028440e+02
3.999610e+02 -2.800320e+03 -4.028050e+02
-6.406310e-02 -3.200010e+03 -2.280740e+00
3.999210e+02 -3.199920e+03 -2.084270e+00
3.871190e-02 -2.800120e+03 -2.751190e+00
4.000320e+02 -2.800120e+03 -2.677340e+00
-4.000340e+02 -2.800330e+03 -4.029610e+02
-3.530220e-02 -2.800330e+03 -4.028440e+02
-3.996730e+02 -2.400390e+03 -4.035990e+02
3.158650e-01 -2.400400e+03 -4.032190e+02
-3.999550e+02 -2.800130e+03 -2.823020e+00
3.871190e-02 -2.800120e+03 -2.751190e+00
-4.000400e+02 -2.399890e+03 -3.558630e+00
-2.890190e-02 -2.399980e+03 -3.113330e+00
-3.530220e-02 -2.800330e+03 -4.028440e+02
3.999610e+02 -2.800320e+03 -4.028050e+02
3.158650e-01 -2.400400e+03 -4.032190e+02
4.003060e+02 -2.400410e+03 -4.028220e+02
3.871190e-02 -2.800120e+03 -2.751190e+00
4.000320e+02 -2.800120e+03 -2.677340e+00
-2.890190e-02 -2.399980e+03 -3.113330e+00
3.999830e+02 -2.400070e+03 -2.687620e+00
-3.996730e+02 -2.400390e+03 -4.035990e+02
3.158650e-01 -2.400400e+03 -4.032190e+02
-3.995790e+02 -2.000540e+03 -4.039060e+02
4.119120e-01 -2.000420e+03 -4.034250e+02
-4.000400e+02 -2.399890e+03 -3.558630e+00
-2.890190e-02 -2.399980e+03 -3.113330e+00
-3.999790e+02 -1.999940e+03 -4.084610e+00
2.494250e-02 -1.999970e+03 -3.768950e+00
3.158650e-01 -2.400400e+03 -4.032190e+02
4.003060e+02 -2.400410e+03 -4.028220e+02
4.119120e-01 -2.000420e+03 -4.034250e+02
4.004030e+02 -2.000330e+03 -4.030000e+02
-2.890190e-02 -2.399980e+03 -3.113330e+00
3.999830e+02 -2.400070e+03 -2.687620e+00
2.494250e-02 -1.999970e+03 -3.768950e+00
4.000290e+02 -1.999970e+03 -3.399370e+00
-3.995790e+02 -2.000540e+03 -4.039060e+02
4.119120e-01 -2.000420e+03 -4.034250e+02
-3.995200e+02 -1.600320e+03 -4.040450e+02
4.817990e-01 -1.600360e+03 -4.035410e+02
-3.999790e+02 -1.999940e+03 -4.084610e+00
2.494250e-02 -1.999970e+03 -3.768950e+00
-3.999400e+02 -1.600060e+03 -4.621910e+00
5.506290e-02 -1.600010e+03 -4.223830e+00
4.119120e-01 -2.000420e+03 -4.034250e+02
4.004030e+02 -2.000330e+03 -4.030000e+02
4.817990e-01 -1.600360e+03 -4.035410e+02
4.004830e+02 -1.600330e+03 -4.030030e+02
2.494250e-02 -1.999970e+03 -3.768950e+00
4.000290e+02 -1.999970e+03 -3.399370e+00
5.506290e-02 -1.600010e+03 -4.223830e+00
4.000500e+02 -1.599990e+03 -3.823650e+00
-3.995200e+02 -1.600320e+03 -4.040450e+02
4.817990e-01 -1.600360e+03 -4.035410e+02
-3.993940e+02 -1.200550e+03 -4.050440e+02
6.131050e-01 -1.200590e+03 -4.047530e+02
-3.999400e+02 -1.600060e+03 -4.621910e+00
5.506290e-02 -1.600010e+03 -4.223830e+00
-4.000480e+02 -1.199780e+03 -4.991800e+00
-5.362290e-02 -1.199890e+03 -4.043000e+00
4.817990e-01 -1.600360e+03 -4.035410e+02
4.004830e+02 -1.600330e+03 -4.030030e+02
6.131050e-01 -1.200590e+03 -4.047530e+02
4.006190e+02 -1.200610e+03 -4.044330e+02
5.506290e-02 -1.600010e+03 -4.223830e+00
4.000500e+02 -1.599990e+03 -3.823650e+00
-5.362290e-02 -1.199890e+03 -4.043000e+00
3.999410e+02 -1.200000e+03 -3.137860e+00
-3.993940e+02 -1.200550e+03 -4.050440e+02
6.131050e-01 -1.200590e+03 -4.047530e+02
-3.993790e+02 -8.004610e+02 -4.058760e+02
6.148640e-01 -8.004320e+02 -4.051660e+02
-4.000480e+02 -1.199780e+03 -4.991800e+00
-5.362290e-02 -1.199890e+03 -4.043000e+00
-3.999960e+02 -7.999960e+02 -5.390830e+00
2.114750e-03 -8.000340e+02 -5.055240e+00
6.131050e-01 -1.200590e+03 -4.047530e+02
4.006190e+02 -1.200610e+03 -4.044330e+02
6.148640e-01 -8.004320e+02 -4.051660e+02
4.006110e+02 -8.004670e+02 -4.044560e+02
-5.362290e-02 -1.199890e+03 -4.043000e+00
3.999410e+02 -1.200000e+03 -3.137860e+00
2.114750e-03 -8.000340e+02 -5.055240e+00
4.000000e+02 -8.000390e+02 -4.714170e+00
-3.993790e+02 -8.004610e+02 -4.058760e+02
6.148640e-01 -8.004320e+02 -4.051660e+02
-3.994980e+02 -4.000350e+02 -4.060520e+02
5.022880e-01 -4.001330e+02 -4.056920e+02
-3.999960e+02 -7.999960e+02 -5.390830e+00
2.114750e-03 -8.000340e+02 -5.055240e+00
-3.999600e+02 -4.002410e+02 -5.360950e+00
3.473520e-02 -4.001970e+02 -5.033080e+00
6.148640e-01 -8.004320e+02 -4.051660e+02
4.006110e+02 -8.004670e+02 -4.044560e+02
5.022880e-01 -4.001330e+02 -4.056920e+02
4.005030e+02 -4.002340e+02 -4.053340e+02
2.114750e-03 -8.000340e+02 -5.055240e+00
4.000000e+02 -8.000390e+02 -4.714170e+00
3.473520e-02 -4.001970e+02 -5.033080e+00
4.000300e+02 -4.001500e+02 -4.685500e+00
-3.994980e+02 -4.000350e+02 -4.060520e+02
5.022880e-01 -4.001330e+02 -4.056920e+02
-3.995510e+02 -2.492860e-01 -4.061150e+02
4.348940e-01 -2.345340e-01 -4.054440e+02
-3.999600e+02 -4.002410e+02 -5.360950e+00
3.473520e-02 -4.001970e+02 -5.033080e+00
-4.001190e+02 4.966970e-03 -5.463930e+00
-1.107770e-01 -7.146820e-02 -5.218550e+00
5.022880e-01 -4.001330e+02 -4.056920e+02
4.005030e+02 -4.002340e+02 -4.053340e+02
4.348940e-01 -2.345340e-01 -4.054440e+02
[...]
<PointData>
<DataArray type="Float32" Name="V1" format="ascii">
0.000000e+00
0.000000e+00
-1.659490e-01
-1.497670e-01
0.000000e+00
0.000000e+00
2.806660e-02
6.514910e-03
0.000000e+00
0.000000e+00
-1.497670e-01
-1.338980e-01
0.000000e+00
0.000000e+00
6.514910e-03
-1.557130e-02
-1.659490e-01
-1.497670e-01
1.633210e-01
1.619010e-01
2.806660e-02
6.514910e-03
5.461780e-02
4.880740e-02
-1.497670e-01
-1.338980e-01
1.619010e-01
1.581460e-01
6.514910e-03
-1.557130e-02
4.880740e-02
4.517980e-02
1.633210e-01
1.619010e-01
-3.213130e-01
-3.174390e-01
5.461780e-02
4.880740e-02
1.798470e-01
1.788840e-01
1.619010e-01
1.581460e-01
-3.174390e-01
-3.159460e-01
4.880740e-02
4.517980e-02
1.788840e-01
1.781030e-01
-3.213130e-01
-3.174390e-01
-3.452470e-01
-3.318010e-01
1.798470e-01
1.788840e-01
2.213330e-01
2.227080e-01
-3.174390e-01
-3.159460e-01
-3.318010e-01
-3.226200e-01
1.788840e-01
1.781030e-01
2.227080e-01
2.263620e-01
-3.452470e-01
-3.318010e-01
-2.813280e-01
-2.493050e-01
2.213330e-01
2.227080e-01
2.270830e-01
2.257590e-01
-3.318010e-01
-3.226200e-01
-2.493050e-01
-2.176230e-01
2.227080e-01
2.263620e-01
2.257590e-01
2.242210e-01
-2.813280e-01
-2.493050e-01
1.364940e-01
1.009230e-01
2.270830e-01
2.257590e-01
-1.338290e-01
-1.115750e-01
-2.493050e-01
-2.176230e-01
1.009230e-01
6.549340e-02
2.257590e-01
2.242210e-01
-1.115750e-01
-8.840150e-02
1.364940e-01
1.009230e-01
-6.332440e-03
-2.602900e-03
-1.338290e-01
-1.115750e-01
4.680500e-02
3.790970e-02
1.009230e-01
6.549340e-02
-2.602900e-03
4.557000e-04
-1.115750e-01
-8.840150e-02
3.790970e-02
3.219070e-02
-6.332440e-03
-2.602900e-03
-1.359020e-01
-1.368140e-01
4.680500e-02
3.790970e-02
8.043660e-02
5.531340e-02
-2.602900e-03
4.557000e-04
-1.368140e-01
-1.373690e-01
3.790970e-02
3.219070e-02
5.531340e-02
3.061630e-02
-1.359020e-01
-1.368140e-01
-1.845870e-01
-1.716400e-01
8.043660e-02
5.531340e-02
2.343530e-01
2.342820e-01
-1.368140e-01
-1.373690e-01
-1.716400e-01
-1.586880e-01
5.531340e-02
3.061630e-02
2.342820e-01
2.345980e-01
-1.845870e-01
-1.716400e-01
1.210110e-01
1.567350e-01
2.343530e-01
2.342820e-01
-1.387260e-01
-1.502550e-01
-1.716400e-01
-1.586880e-01
1.567350e-01
1.895660e-01
2.342820e-01
2.345980e-01
-1.502550e-01
-1.603570e-01
1.210110e-01
1.567350e-01
-2.241100e-01
-2.016470e-01
-1.387260e-01
-1.502550e-01
2.521910e-01
2.345410e-01
1.567350e-01
1.895660e-01
-2.016470e-01
-1.796920e-01
-1.502550e-01
-1.603570e-01
2.345410e-01
2.154120e-01
-2.241100e-01
-2.016470e-01
6.817770e-02
5.972940e-02
2.521910e-01
2.345410e-01
-2.372210e-01
-2.146150e-01
-2.016470e-01
-1.796920e-01
5.972940e-02
4.686420e-02
2.345410e-01
2.154120e-01
-2.146150e-01
-1.902800e-01
6.817770e-02
5.972940e-02
4.692490e-02
3.149560e-02
-2.372210e-01
-2.146150e-01
7.672980e-02
7.634780e-02
5.972940e-02
4.686420e-02
3.149560e-02
1.370360e-02
-2.146150e-01
-1.902800e-01
7.634780e-02
7.806710e-02
4.692490e-02
3.149560e-02
-9.641290e-02
-8.645630e-02
7.672980e-02
7.634780e-02
6.085600e-02
3.780430e-02
3.149560e-02
1.370360e-02
-8.645630e-02
-7.828450e-02
7.634780e-02
7.806710e-02
3.780430e-02
1.483130e-02
-9.641290e-02
-8.645630e-02
-6.665640e-02
-6.388960e-02
6.085600e-02
3.780430e-02
-6.369570e-02
-5.666890e-02
-8.645630e-02
-7.828450e-02
-6.388960e-02
-6.302650e-02
3.780430e-02
1.483130e-02
-5.666890e-02
-4.815800e-02
-6.665640e-02
-6.388960e-02
-6.999540e-02
-5.253310e-02
-6.369570e-02
-5.666890e-02
1.188990e-01
1.098610e-01
-6.388960e-02
-6.302650e-02
-5.253310e-02
-3.257560e-02
-5.666890e-02
-4.815800e-02
1.098610e-01
1.011090e-01
-6.999540e-02
-5.253310e-02
1.214760e-01
1.460170e-01
1.188990e-01
1.098610e-01
-2.376720e-02
-5.408740e-02
-5.253310e-02
-3.257560e-02
1.460170e-01
1.718740e-01
1.098610e-01
1.011090e-01
-5.408740e-02
-8.123650e-02
1.214760e-01
1.460170e-01
-3.685450e-02
-5.716360e-02
-2.376720e-02
-5.408740e-02
1.092180e-01
1.035950e-01
1.460170e-01
1.718740e-01
-5.716360e-02
-7.738960e-02
-5.408740e-02
-8.123650e-02
1.035950e-01
9.737670e-02
-3.685450e-02
-5.716360e-02
3.154840e-02
2.260250e-02
1.092180e-01
1.035950e-01
-2.042890e-01
-1.970980e-01
-5.716360e-02
-7.738960e-02
2.260250e-02
1.198780e-02
1.035950e-01
9.737670e-02
-1.970980e-01
-1.889080e-01
3.154840e-02
2.260250e-02
-1.149710e-01
-1.245670e-01
-2.042890e-01
-1.970980e-01
1.851580e-02
2.830100e-02
2.260250e-02
1.198780e-02
-1.245670e-01
-1.364380e-01
-1.970980e-01
-1.889080e-01
2.830100e-02
4.129470e-02
-1.149710e-01
-1.245670e-01
-1.648740e-01
-1.535010e-01
1.851580e-02
2.830100e-02
9.392420e-03
1.955730e-02
-1.245670e-01
-1.364380e-01
-1.535010e-01
-1.449630e-01
2.830100e-02
4.129470e-02
1.955730e-02
2.936190e-02
-1.648740e-01
-1.535010e-01
3.235380e-03
-2.178570e-03
9.392420e-03
1.955730e-02
1.511910e-01
1.528800e-01
-1.535010e-01
-1.449630e-01
-2.178570e-03
-8.997540e-03
1.955730e-02
2.936190e-02
1.528800e-01
1.544520e-01
3.235380e-03
-2.178570e-03
2.101230e-01
1.841110e-01
1.511910e-01
1.528800e-01
-2.929910e-01
-2.793830e-01
-2.178570e-03
-8.997540e-03
1.841110e-01
1.576540e-01
1.528800e-01
1.544520e-01
-2.793830e-01
-2.637750e-01
2.101230e-01
1.841110e-01
3.537100e-01
3.443200e-01
-2.929910e-01
-2.793830e-01
-1.466610e-01
-1.324820e-01
1.841110e-01
1.576540e-01
3.443200e-01
3.360170e-01
-2.793830e-01
-2.637750e-01
-1.324820e-01
-1.195160e-01
3.537100e-01
3.443200e-01
-1.479710e-01
-1.631230e-01
-1.466610e-01
-1.324820e-01
9.287620e-02
1.080380e-01
3.443200e-01
3.360170e-01
-1.631230e-01
-1.814190e-01
-1.324820e-01
-1.195160e-01
1.080380e-01
1.250320e-01
-1.479710e-01
-1.631230e-01
1.621580e-02
1.990020e-02
9.287620e-02
1.080380e-01
-2.225440e-01
-2.393520e-01
-1.631230e-01
-1.814190e-01
1.990020e-02
2.486280e-02
1.080380e-01
1.250320e-01
-2.393520e-01
-2.550820e-01
1.621580e-02
1.990020e-02
2.203370e-01
2.339370e-01
-2.225440e-01
-2.393520e-01
-2.953890e-02
-2.819650e-02
1.990020e-02
2.486280e-02
2.339370e-01
2.478410e-01
-2.393520e-01
-2.550820e-01
-2.819650e-02
-2.367200e-02
2.203370e-01
2.339370e-01
-2.323310e-01
-2.191830e-01
-2.953890e-02
-2.819650e-02
1.566570e-01
1.371440e-01
2.339370e-01
2.478410e-01
-2.191830e-01
-2.101960e-01
-2.819650e-02
-2.367200e-02
1.371440e-01
1.216550e-01
-2.323310e-01
-2.191830e-01
3.963340e-02
2.716060e-02
1.566570e-01
1.371440e-01
1.238100e-02
2.089370e-02
-2.191830e-01
-2.101960e-01
2.716060e-02
1.005510e-02
1.371440e-01
1.216550e-01
2.089370e-02
2.858500e-02
3.963340e-02
2.716060e-02
1.140740e-01
1.268420e-01
1.238100e-02
2.089370e-02
2.176750e-02
2.148530e-02
2.716060e-02
1.005510e-02
1.268420e-01
1.361890e-01
2.089370e-02
2.858500e-02
2.148530e-02
2.568040e-02
0.000000e+00
0.000000e+00
2.806660e-02
6.514910e-03
0.000000e+00
0.000000e+00
9.427470e-02
1.289880e-01
0.000000e+00
0.000000e+00
6.514910e-03
-1.557130e-02
0.000000e+00
0.000000e+00
1.289880e-01
1.646570e-01
2.806660e-02
6.514910e-03
5.461780e-02
4.880740e-02
9.427470e-02
1.289880e-01
-2.544450e-01
-2.524210e-01
6.514910e-03
-1.557130e-02
4.880740e-02
4.517980e-02
1.289880e-01
1.646570e-01
-2.524210e-01
-2.524520e-01
5.461780e-02
4.880740e-02
1.798470e-01
1.788840e-01
-2.544450e-01
-2.524210e-01
-5.443070e-02
-5.648350e-02
4.880740e-02
4.517980e-02
1.788840e-01
1.781030e-01
-2.524210e-01
-2.524520e-01
-5.648350e-02
-5.611570e-02
1.798470e-01
1.788840e-01
2.213330e-01
2.227080e-01
-5.443070e-02
-5.648350e-02
-9.076160e-02
-1.012950e-01
1.788840e-01
1.781030e-01
2.227080e-01
2.263620e-01
-5.648350e-02
-5.611570e-02
-1.012950e-01
-1.133240e-01
2.213330e-01
2.227080e-01
2.270830e-01
2.257590e-01
-9.076160e-02
-1.012950e-01
-1.844660e-01
-2.077860e-01
2.227080e-01
2.263620e-01
2.257590e-01
2.242210e-01
-1.012950e-01
-1.133240e-01
-2.077860e-01
-2.316290e-01
2.270830e-01
2.257590e-01
-1.338290e-01
-1.115750e-01
-1.844660e-01
-2.077860e-01
1.319320e-01
1.231800e-01
2.257590e-01
2.242210e-01
-1.115750e-01
-8.840150e-02
-2.077860e-01
-2.316290e-01
1.231800e-01
1.117790e-01
-1.338290e-01
-1.115750e-01
4.680500e-02
3.790970e-02
1.319320e-01
1.231800e-01
-7.011360e-02
-5.945080e-02
-1.115750e-01
-8.840150e-02
3.790970e-02
3.219070e-02
1.231800e-01
1.117790e-01
-5.945080e-02
-5.473110e-02
4.680500e-02
3.790970e-02
8.043660e-02
5.531340e-02
-7.011360e-02
-5.945080e-02
-3.996630e-02
1.063050e-02
3.790970e-02
3.219070e-02
5.531340e-02
3.061630e-02
-5.945080e-02
-5.473110e-02
1.063050e-02
6.219180e-02
8.043660e-02
5.531340e-02
2.343530e-01
2.342820e-01
-3.996630e-02
1.063050e-02
-2.734020e-01
-2.834410e-01
5.531340e-02
3.061630e-02
2.342820e-01
2.345980e-01
1.063050e-02
6.219180e-02
-2.834410e-01
-2.958580e-01
2.343530e-01
2.342820e-01
-1.387260e-01
-1.502550e-01
-2.734020e-01
-2.834410e-01
1.546470e-01
1.366190e-01
2.342820e-01
2.345980e-01
-1.502550e-01
-1.603570e-01
-2.834410e-01
-2.958580e-01
1.366190e-01
1.188680e-01
-1.387260e-01
-1.502550e-01
2.521910e-01
2.345410e-01
1.546470e-01
1.366190e-01
-2.628970e-01
-2.599840e-01
-1.502550e-01
-1.603570e-01
2.345410e-01
2.154120e-01
1.366190e-01
1.188680e-01
-2.599840e-01
-2.532570e-01
2.521910e-01
2.345410e-01
-2.372210e-01
-2.146150e-01
-2.628970e-01
-2.599840e-01
3.892350e-01
3.635630e-01
2.345410e-01
2.154120e-01
-2.146150e-01
-1.902800e-01
-2.599840e-01
-2.532570e-01
3.635630e-01
3.361730e-01
-2.372210e-01
-2.146150e-01
7.672980e-02
7.634780e-02
3.892350e-01
3.635630e-01
-2.100000e-01
-1.910720e-01
-2.146150e-01
-1.902800e-01
7.634780e-02
7.806710e-02
3.635630e-01
3.361730e-01
-1.910720e-01
-1.743050e-01
7.672980e-02
7.634780e-02
6.085600e-02
3.780430e-02
-2.100000e-01
-1.910720e-01
8.438880e-04
2.604130e-02
7.634780e-02
7.806710e-02
3.780430e-02
1.483130e-02
-1.910720e-01
-1.743050e-01
2.604130e-02
5.037180e-02
6.085600e-02
3.780430e-02
-6.369570e-02
-5.666890e-02
8.438880e-04
2.604130e-02
1.793620e-01
1.641960e-01
3.780430e-02
1.483130e-02
-5.666890e-02
-4.815800e-02
2.604130e-02
5.037180e-02
1.641960e-01
1.470160e-01
-6.369570e-02
-5.666890e-02
1.188990e-01
1.098610e-01
1.793620e-01
1.641960e-01
-1.556830e-01
-1.603540e-01
-5.666890e-02
-4.815800e-02
1.098610e-01
1.011090e-01
1.641960e-01
1.470160e-01
-1.603540e-01
-1.680630e-01
1.188990e-01
1.098610e-01
-2.376720e-02
-5.408740e-02
-1.556830e-01
-1.603540e-01
-8.010300e-02
-4.578200e-02
1.098610e-01
1.011090e-01
-5.408740e-02
-8.123650e-02
-1.603540e-01
-1.680630e-01
-4.578200e-02
-1.391460e-02
-2.376720e-02
-5.408740e-02
1.092180e-01
1.035950e-01
-8.010300e-02
-4.578200e-02
-1.671060e-01
-1.309850e-01
-5.408740e-02
-8.123650e-02
1.035950e-01
9.737670e-02
-4.578200e-02
-1.391460e-02
-1.309850e-01
-9.554730e-02
1.092180e-01
1.035950e-01
-2.042890e-01
-1.970980e-01
-1.671060e-01
-1.309850e-01
3.661690e-01
3.625030e-01
1.035950e-01
9.737670e-02
-1.970980e-01
-1.889080e-01
-1.309850e-01
-9.554730e-02
3.625030e-01
3.587050e-01
-2.042890e-01
-1.970980e-01
1.851580e-02
2.830100e-02
3.661690e-01
3.625030e-01
7.833660e-02
7.000940e-02
-1.970980e-01
-1.889080e-01
2.830100e-02
4.129470e-02
3.625030e-01
3.587050e-01
7.000940e-02
6.045980e-02
1.851580e-02
2.830100e-02
9.392420e-03
1.955730e-02
7.833660e-02
7.000940e-02
1.313060e-01
1.049840e-01
2.830100e-02
4.129470e-02
1.955730e-02
2.936190e-02
7.000940e-02
6.045980e-02
1.049840e-01
7.869790e-02
9.392420e-03
1.955730e-02
1.511910e-01
1.528800e-01
1.313060e-01
1.049840e-01
-2.910500e-01
-2.939810e-01
1.955730e-02
2.936190e-02
1.528800e-01
1.544520e-01
1.049840e-01
7.869790e-02
-2.939810e-01
-2.932080e-01
1.511910e-01
1.528800e-01
-2.929910e-01
-2.793830e-01
-2.910500e-01
-2.939810e-01
3.624100e-01
3.718820e-01
1.528800e-01
1.544520e-01
-2.793830e-01
-2.637750e-01
-2.939810e-01
-2.932080e-01
3.718820e-01
3.749190e-01
-2.929910e-01
-2.793830e-01
-1.466610e-01
-1.324820e-01
3.624100e-01
3.718820e-01
-6.725280e-02
-9.054680e-02
-2.793830e-01
-2.637750e-01
-1.324820e-01
-1.195160e-01
3.718820e-01
3.749190e-01
-9.054680e-02
-1.109380e-01
-1.466610e-01
-1.324820e-01
9.287620e-02
1.080380e-01
-6.725280e-02
-9.054680e-02
-3.507850e-02
-4.195160e-02
-1.324820e-01
-1.195160e-01
1.080380e-01
1.250320e-01
-9.054680e-02
-1.109380e-01
-4.195160e-02
-5.104640e-02
9.287620e-02
1.080380e-01
-2.225440e-01
-2.393520e-01
-3.507850e-02
-4.195160e-02
4.350690e-01
4.546800e-01
1.080380e-01
1.250320e-01
-2.393520e-01
-2.550820e-01
-4.195160e-02
-5.104640e-02
4.546800e-01
4.711420e-01
-2.225440e-01
-2.393520e-01
-2.953890e-02
-2.819650e-02
4.350690e-01
4.546800e-01
-1.732840e-01
-1.770970e-01
-2.393520e-01
-2.550820e-01
-2.819650e-02
-2.367200e-02
4.546800e-01
4.711420e-01
-1.770970e-01
-1.829720e-01
-2.953890e-02
-2.819650e-02
1.566570e-01
1.371440e-01
-1.732840e-01
-1.770970e-01
-7.469230e-02
-5.312370e-02
-2.819650e-02
-2.367200e-02
1.371440e-01
1.216550e-01
-1.770970e-01
-1.829720e-01
-5.312370e-02
-3.952520e-02
1.566570e-01
1.371440e-01
1.238100e-02
2.089370e-02
-7.469230e-02
-5.312370e-02
-5.598990e-02
-6.828490e-02
1.371440e-01
1.216550e-01
2.089370e-02
2.858500e-02
-5.312370e-02
-3.952520e-02
-6.828490e-02
-7.470450e-02
1.238100e-02
2.089370e-02
2.176750e-02
2.148530e-02
-5.598990e-02
-6.828490e-02
-1.677230e-01
-1.725920e-01
2.089370e-02
2.858500e-02
2.148530e-02
2.568040e-02
-6.828490e-02
-7.470450e-02
-1.725920e-01
-1.865400e-01
</DataArray>
<DataArray type="Float32" Name="V2" format="ascii">
0.000000e+00
0.000000e+00
2.163260e-01
7.029880e-02
0.000000e+00
0.000000e+00
-1.037500e-01
6.069780e-02
0.000000e+00
0.000000e+00
7.029880e-02
-1.149970e-01
0.000000e+00
0.000000e+00
6.069780e-02
2.207870e-01
2.163260e-01
7.029880e-02
4.328510e-01
3.345010e-01
-1.037500e-01
6.069780e-02
-2.754040e-01
-1.727890e-01
7.029880e-02
-1.149970e-01
3.345010e-01
2.488180e-01
6.069780e-02
2.207870e-01
-1.727890e-01
-9.703690e-02
4.328510e-01
3.345010e-01
1.641000e-01
1.928730e-01
-2.754040e-01
-1.727890e-01
-2.484510e-01
-1.894490e-01
3.345010e-01
2.488180e-01
1.928730e-01
2.063320e-01
-1.727890e-01
-9.703690e-02
-1.894490e-01
-1.277530e-01
1.641000e-01
1.928730e-01
-8.966620e-02
-1.108760e-02
-2.484510e-01
-1.894490e-01
3.864070e-02
-5.583320e-02
1.928730e-01
2.063320e-01
-1.108760e-02
1.824840e-01
-1.894490e-01
-1.277530e-01
-5.583320e-02
-1.920640e-01
-8.966620e-02
-1.108760e-02
-3.065250e-01
-2.643460e-01
3.864070e-02
-5.583320e-02
1.585440e-01
3.985660e-02
-1.108760e-02
1.824840e-01
-2.643460e-01
-1.974730e-01
-5.583320e-02
-1.920640e-01
3.985660e-02
-9.835550e-02
-3.065250e-01
-2.643460e-01
3.101360e-01
3.076820e-01
1.585440e-01
3.985660e-02
-3.784070e-01
-2.028680e-01
-2.643460e-01
-1.974730e-01
3.076820e-01
3.406310e-01
3.985660e-02
-9.835550e-02
-2.028680e-01
-1.052950e-01
3.101360e-01
3.076820e-01
2.128460e-01
2.323350e-01
-3.784070e-01
-2.028680e-01
1.587620e-01
6.414140e-02
3.076820e-01
3.406310e-01
2.323350e-01
2.061630e-01
-2.028680e-01
-1.052950e-01
6.414140e-02
3.235180e-02
2.128460e-01
2.323350e-01
-1.145470e-01
-2.046770e-01
1.587620e-01
6.414140e-02
1.641120e-01
2.230280e-01
2.323350e-01
2.061630e-01
-2.046770e-01
-1.969190e-01
6.414140e-02
3.235180e-02
2.230280e-01
1.891580e-01
-1.145470e-01
-2.046770e-01
-1.131350e-01
-4.976980e-02
1.641120e-01
2.230280e-01
5.918120e-02
1.755930e-02
-2.046770e-01
-1.969190e-01
-4.976980e-02
-3.608360e-02
2.230280e-01
1.891580e-01
1.755930e-02
3.883930e-02
-1.131350e-01
-4.976980e-02
3.935250e-01
4.303610e-02
5.918120e-02
1.755930e-02
-7.056990e-02
1.145520e-02
-4.976980e-02
-3.608360e-02
4.303610e-02
-3.298930e-01
1.755930e-02
3.883930e-02
1.145520e-02
1.517050e-01
3.935250e-01
4.303610e-02
1.007740e-01
6.848780e-03
-7.056990e-02
1.145520e-02
-1.160920e-01
-5.841420e-02
4.303610e-02
-3.298930e-01
6.848780e-03
-2.298650e-01
1.145520e-02
1.517050e-01
-5.841420e-02
9.151790e-02
1.007740e-01
6.848780e-03
2.346000e-02
4.350550e-02
-1.160920e-01
-5.841420e-02
1.508010e-02
8.554900e-02
6.848780e-03
-2.298650e-01
4.350550e-02
2.620050e-01
-5.841420e-02
9.151790e-02
8.554900e-02
-2.556930e-02
2.346000e-02
4.350550e-02
8.781310e-03
1.687280e-01
1.508010e-02
8.554900e-02
6.578480e-02
-1.146530e-01
4.350550e-02
2.620050e-01
1.687280e-01
3.731060e-01
8.554900e-02
-2.556930e-02
-1.146530e-01
-2.634040e-01
8.781310e-03
1.687280e-01
3.876720e-01
5.685930e-02
6.578480e-02
-1.146530e-01
-3.993600e-01
-1.225040e-01
1.687280e-01
3.731060e-01
5.685930e-02
-3.002880e-01
-1.146530e-01
-2.634040e-01
-1.225040e-01
1.801060e-01
3.876720e-01
5.685930e-02
2.611820e-01
3.177630e-01
-3.993600e-01
-1.225040e-01
-1.671620e-01
-2.433380e-01
5.685930e-02
-3.002880e-01
3.177630e-01
4.057590e-01
-1.225040e-01
1.801060e-01
-2.433380e-01
-3.071230e-01
2.611820e-01
3.177630e-01
-2.772170e-01
-1.978230e-01
-1.671620e-01
-2.433380e-01
3.126790e-01
3.216070e-01
3.177630e-01
4.057590e-01
-1.978230e-01
-2.535800e-01
-2.433380e-01
-3.071230e-01
3.216070e-01
4.269890e-01
-2.772170e-01
-1.978230e-01
-1.422140e-01
-5.914460e-02
3.126790e-01
3.216070e-01
7.029580e-02
-1.391480e-02
-1.978230e-01
-2.535800e-01
-5.914460e-02
1.755910e-02
3.216070e-01
4.269890e-01
-1.391480e-02
-1.247730e-01
-1.422140e-01
-5.914460e-02
6.350570e-02
1.364990e-01
7.029580e-02
-1.391480e-02
1.194030e-02
-9.669640e-02
-5.914460e-02
1.755910e-02
1.364990e-01
2.329850e-01
-1.391480e-02
-1.247730e-01
-9.669640e-02
-1.879650e-01
6.350570e-02
1.364990e-01
-7.046130e-02
1.467210e-01
1.194030e-02
-9.669640e-02
1.386350e-01
-3.917080e-02
1.364990e-01
2.329850e-01
1.467210e-01
3.320980e-01
-9.669640e-02
-1.879650e-01
-3.917080e-02
-2.114730e-01
-7.046130e-02
1.467210e-01
9.437780e-02
2.778320e-01
1.386350e-01
-3.917080e-02
1.109960e-01
-6.039640e-02
1.467210e-01
3.320980e-01
2.778320e-01
5.283260e-01
-3.917080e-02
-2.114730e-01
-6.039640e-02
-2.613990e-01
9.437780e-02
2.778320e-01
1.591950e-02
3.178660e-02
1.109960e-01
-6.039640e-02
2.160850e-01
2.584400e-01
2.778320e-01
5.283260e-01
3.178660e-02
5.623620e-02
-6.039640e-02
-2.613990e-01
2.584400e-01
2.639240e-01
1.591950e-02
3.178660e-02
-5.745790e-02
-1.651900e-01
2.160850e-01
2.584400e-01
8.256620e-02
2.427950e-03
3.178660e-02
5.623620e-02
-1.651900e-01
-3.035380e-01
2.584400e-01
2.639240e-01
2.427950e-03
-5.001930e-02
-5.745790e-02
-1.651900e-01
-4.243300e-01
-3.725200e-01
8.256620e-02
2.427950e-03
2.390470e-01
1.164510e-01
-1.651900e-01
-3.035380e-01
-3.725200e-01
-3.389440e-01
2.427950e-03
-5.001930e-02
1.164510e-01
3.836150e-02
-4.243300e-01
-3.725200e-01
1.264460e-01
1.317730e-01
2.390470e-01
1.164510e-01
-5.592810e-02
-6.197740e-02
-3.725200e-01
-3.389440e-01
1.317730e-01
1.833020e-01
1.164510e-01
3.836150e-02
-6.197740e-02
-1.116700e-01
1.264460e-01
1.317730e-01
4.545160e-01
3.328090e-01
-5.592810e-02
-6.197740e-02
-2.957470e-01
-1.514290e-01
1.317730e-01
1.833020e-01
3.328090e-01
2.367760e-01
-6.197740e-02
-1.116700e-01
-1.514290e-01
2.177430e-02
4.545160e-01
3.328090e-01
2.990960e-01
1.825040e-01
-2.957470e-01
-1.514290e-01
8.083960e-02
1.986960e-02
3.328090e-01
2.367760e-01
1.825040e-01
3.679190e-02
-1.514290e-01
2.177430e-02
1.986960e-02
-7.045370e-02
2.990960e-01
1.825040e-01
8.068270e-02
-1.804880e-01
8.083960e-02
1.986960e-02
-7.948340e-02
1.038960e-01
1.825040e-01
3.679190e-02
-1.804880e-01
-4.595610e-01
1.986960e-02
-7.045370e-02
1.038960e-01
2.916020e-01
8.068270e-02
-1.804880e-01
-6.575820e-01
-4.378640e-01
-7.948340e-02
1.038960e-01
1.478200e-01
1.289470e-01
-1.804880e-01
-4.595610e-01
-4.378640e-01
-2.172850e-01
1.038960e-01
2.916020e-01
1.289470e-01
1.114440e-01
-6.575820e-01
-4.378640e-01
-9.369020e-02
-6.010930e-02
1.478200e-01
1.289470e-01
-1.754600e-01
-1.232700e-01
-4.378640e-01
-2.172850e-01
-6.010930e-02
-1.045110e-01
1.289470e-01
1.114440e-01
-1.232700e-01
-3.514640e-02
-9.369020e-02
-6.010930e-02
5.229480e-01
1.955030e-01
-1.754600e-01
-1.232700e-01
-5.530310e-01
-2.397190e-01
-6.010930e-02
-1.045110e-01
1.955030e-01
-8.903550e-02
-1.232700e-01
-3.514640e-02
-2.397190e-01
-6.554660e-03
0.000000e+00
0.000000e+00
-1.037500e-01
6.069780e-02
0.000000e+00
0.000000e+00
-4.308030e-02
-1.937740e-01
0.000000e+00
0.000000e+00
6.069780e-02
2.207870e-01
0.000000e+00
0.000000e+00
-1.937740e-01
-3.207450e-01
-1.037500e-01
6.069780e-02
-2.754040e-01
-1.727890e-01
-4.308030e-02
-1.937740e-01
1.490350e-01
2.473810e-02
6.069780e-02
2.207870e-01
-1.727890e-01
-9.703690e-02
-1.937740e-01
-3.207450e-01
2.473810e-02
-3.558460e-02
-2.754040e-01
-1.727890e-01
-2.484510e-01
-1.894490e-01
1.490350e-01