<?xml version="1.0"?>
<VTKFile type="UnstructuredGrid" version="0.1" byte_order="LittleEndian" compressor="vtkZLibDataCompressor">
<UnstructuredGrid>
<Piece NumberOfPoints="960" NumberOfCells="120">
<Points>
<DataArray type="Float32" NumberOfComponents="3" format="ascii">
-4.000000e+02 -6.000000e+03 -4.000000e+02
0.000000e+00 -6.000000e+03 -4.000000e+02
-3.997050e+02 -5.600590e+03 -3.991020e+02
5.813790e-04 -5.601120e+03 -3.989260e+02
-4.000000e+02 -6.000000e+03 0.000000e+00
0.000000e+00 -6.000000e+03 0.000000e+00
-4.003030e+02 -5.599950e+03 -9.878780e-01
-1.944670e-01 -5.599690e+03 -7.089430e-01
0.000000e+00 -6.000000e+03 -4.000000e+02
4.000000e+02 -6.000000e+03 -4.000000e+02
5.813790e-04 -5.601120e+03 -3.989260e+02
3.997450e+02 -5.600950e+03 -3.997790e+02
0.000000e+00 -6.000000e+03 0.000000e+00
4.000000e+02 -6.000000e+03 0.000000e+00
-1.944670e-01 -5.599690e+03 -7.089430e-01
3.999230e+02 -5.599900e+03 -6.939380e-01
-3.997050e+02 -5.600590e+03 -3.991020e+02
5.813790e-04 -5.601120e+03 -3.989260e+02
-4.004850e+02 -5.201410e+03 -4.004370e+02
-4.465520e-01 -5.201110e+03 -4.017210e+02
-4.003030e+02 -5.599950e+03 -9.878780e-01
-1.944670e-01 -5.599690e+03 -7.089430e-01
-3.998770e+02 -5.199730e+03 -1.061260e+00
2.353340e-02 -5.199720e+03 -7.404220e-01
5.813790e-04 -5.601120e+03 -3.989260e+02
3.997450e+02 -5.600950e+03 -3.997790e+02
-4.465520e-01 -5.201110e+03 -4.017210e+02
3.995870e+02 -5.200970e+03 -4.016970e+02
-1.944670e-01 -5.599690e+03 -7.089430e-01
3.999230e+02 -5.599900e+03 -6.939380e-01
2.353340e-02 -5.199720e+03 -7.404220e-01
3.998950e+02 -5.200070e+03 -9.360710e-01
-4.004850e+02 -5.201410e+03 -4.004370e+02
-4.465520e-01 -5.201110e+03 -4.017210e+02
-4.007200e+02 -4.801960e+03 -4.011040e+02
-1.118220e+00 -4.801600e+03 -4.015330e+02
-3.998770e+02 -5.199730e+03 -1.061260e+00
2.353340e-02 -5.199720e+03 -7.404220e-01
-4.003660e+02 -4.799550e+03 -1.928010e+00
-1.903690e-01 -4.799800e+03 -1.845830e+00
-4.465520e-01 -5.201110e+03 -4.017210e+02
3.995870e+02 -5.200970e+03 -4.016970e+02
-1.118220e+00 -4.801600e+03 -4.015330e+02
3.983200e+02 -4.801570e+03 -4.027480e+02
2.353340e-02 -5.199720e+03 -7.404220e-01
3.998950e+02 -5.200070e+03 -9.360710e-01
-1.903690e-01 -4.799800e+03 -1.845830e+00
4.000430e+02 -4.800190e+03 -2.223940e+00
-4.007200e+02 -4.801960e+03 -4.011040e+02
-1.118220e+00 -4.801600e+03 -4.015330e+02
-4.008710e+02 -4.402100e+03 -4.022520e+02
-8.095280e-01 -4.402690e+03 -4.040870e+02
-4.003660e+02 -4.799550e+03 -1.928010e+00
-1.903690e-01 -4.799800e+03 -1.845830e+00
-4.000940e+02 -4.400130e+03 -3.322480e+00
-1.756690e-02 -4.399870e+03 -4.552080e+00
-1.118220e+00 -4.801600e+03 -4.015330e+02
3.983200e+02 -4.801570e+03 -4.027480e+02
-8.095280e-01 -4.402690e+03 -4.040870e+02
3.994010e+02 -4.403000e+03 -4.029520e+02
-1.903690e-01 -4.799800e+03 -1.845830e+00
4.000430e+02 -4.800190e+03 -2.223940e+00
-1.756690e-02 -4.399870e+03 -4.552080e+00
3.999110e+02 -4.399660e+03 -5.681790e+00
-4.008710e+02 -4.402100e+03 -4.022520e+02
-8.095280e-01 -4.402690e+03 -4.040870e+02
-4.007100e+02 -4.002570e+03 -4.055690e+02
-6.148340e-01 -4.003150e+03 -4.070270e+02
-4.000940e+02 -4.400130e+03 -3.322480e+00
-1.756690e-02 -4.399870e+03 -4.552080e+00
-3.999920e+02 -4.000160e+03 -7.145640e+00
-1.315420e-01 -3.999970e+03 -6.586160e+00
-8.095280e-01 -4.402690e+03 -4.040870e+02
3.994010e+02 -4.403000e+03 -4.029520e+02
-6.148340e-01 -4.003150e+03 -4.070270e+02
3.993550e+02 -4.003450e+03 -4.085030e+02
-1.756690e-02 -4.399870e+03 -4.552080e+00
3.999110e+02 -4.399660e+03 -5.681790e+00
-1.315420e-01 -3.999970e+03 -6.586160e+00
3.998530e+02 -4.000060e+03 -6.406580e+00
-4.007100e+02 -4.002570e+03 -4.055690e+02
-6.148340e-01 -4.003150e+03 -4.070270e+02
-4.012590e+02 -3.603640e+03 -4.072630e+02
-1.479150e+00 -3.603770e+03 -4.101490e+02
-3.999920e+02 -4.000160e+03 -7.145640e+00
-1.315420e-01 -3.999970e+03 -6.586160e+00
-3.999690e+02 -3.599940e+03 -1.006240e+01
2.924920e-01 -3.599950e+03 -1.102060e+01
-6.148340e-01 -4.003150e+03 -4.070270e+02
3.993550e+02 -4.003450e+03 -4.085030e+02
-1.479150e+00 -3.603770e+03 -4.101490e+02
3.983880e+02 -3.603800e+03 -4.119330e+02
-1.315420e-01 -3.999970e+03 -6.586160e+00
3.998530e+02 -4.000060e+03 -6.406580e+00
2.924920e-01 -3.599950e+03 -1.102060e+01
4.004400e+02 -3.600050e+03 -1.190960e+01
-4.012590e+02 -3.603640e+03 -4.072630e+02
-1.479150e+00 -3.603770e+03 -4.101490e+02
-4.014150e+02 -3.204430e+03 -4.121680e+02
-1.252410e+00 -3.204230e+03 -4.145940e+02
-3.999690e+02 -3.599940e+03 -1.006240e+01
2.924920e-01 -3.599950e+03 -1.102060e+01
-3.995420e+02 -3.199860e+03 -1.350810e+01
1.896900e-01 -3.200090e+03 -1.425840e+01
-1.479150e+00 -3.603770e+03 -4.101490e+02
3.983880e+02 -3.603800e+03 -4.119330e+02
-1.252410e+00 -3.204230e+03 -4.145940e+02
3.988580e+02 -3.204910e+03 -4.155160e+02
2.924920e-01 -3.599950e+03 -1.102060e+01
4.004400e+02 -3.600050e+03 -1.190960e+01
1.896900e-01 -3.200090e+03 -1.425840e+01
3.999320e+02 -3.199420e+03 -1.535270e+01
-4.014150e+02 -3.204430e+03 -4.121680e+02
-1.252410e+00 -3.204230e+03 -4.145940e+02
-4.001820e+02 -2.804310e+03 -4.197200e+02
-4.193540e-01 -2.804300e+03 -4.191480e+02
-3.995420e+02 -3.199860e+03 -1.350810e+01
1.896900e-01 -3.200090e+03 -1.425840e+01
-4.003330e+02 -2.800400e+03 -1.793560e+01
-1.500280e-01 -2.800390e+03 -1.869120e+01
-1.252410e+00 -3.204230e+03 -4.145940e+02
3.988580e+02 -3.204910e+03 -4.155160e+02
-4.193540e-01 -2.804300e+03 -4.191480e+02
3.993310e+02 -2.804880e+03 -4.185670e+02
1.896900e-01 -3.200090e+03 -1.425840e+01
3.999320e+02 -3.199420e+03 -1.535270e+01
-1.500280e-01 -2.800390e+03 -1.869120e+01
4.000670e+02 -2.800210e+03 -1.981030e+01
-4.001820e+02 -2.804310e+03 -4.197200e+02
-4.193540e-01 -2.804300e+03 -4.191480e+02
-3.999860e+02 -2.404730e+03 -4.232980e+02
7.374920e-02 -2.404760e+03 -4.231520e+02
-4.003330e+02 -2.800400e+03 -1.793560e+01
-1.500280e-01 -2.800390e+03 -1.869120e+01
-4.001030e+02 -2.400200e+03 -2.394580e+01
-2.277600e-01 -2.400090e+03 -2.406000e+01
-4.193540e-01 -2.804300e+03 -4.191480e+02
3.993310e+02 -2.804880e+03 -4.185670e+02
7.374920e-02 -2.404760e+03 -4.231520e+02
4.001100e+02 -2.404730e+03 -4.225230e+02
-1.500280e-01 -2.800390e+03 -1.869120e+01
4.000670e+02 -2.800210e+03 -1.981030e+01
-2.277600e-01 -2.400090e+03 -2.406000e+01
3.997060e+02 -2.400120e+03 -2.428030e+01
-3.999860e+02 -2.404730e+03 -4.232980e+02
7.374920e-02 -2.404760e+03 -4.231520e+02
-3.999220e+02 -2.004720e+03 -4.295220e+02
1.533080e-01 -2.005340e+03 -4.285610e+02
-4.001030e+02 -2.400200e+03 -2.394580e+01
-2.277600e-01 -2.400090e+03 -2.406000e+01
-3.996350e+02 -2.000160e+03 -2.822580e+01
1.387270e-01 -1.999860e+03 -2.857800e+01
7.374920e-02 -2.404760e+03 -4.231520e+02
4.001100e+02 -2.404730e+03 -4.225230e+02
1.533080e-01 -2.005340e+03 -4.285610e+02
4.003610e+02 -2.005620e+03 -4.286360e+02
-2.277600e-01 -2.400090e+03 -2.406000e+01
3.997060e+02 -2.400120e+03 -2.428030e+01
1.387270e-01 -1.999860e+03 -2.857800e+01
3.998400e+02 -2.000100e+03 -2.787560e+01
-3.999220e+02 -2.004720e+03 -4.295220e+02
1.533080e-01 -2.005340e+03 -4.285610e+02
-4.000150e+02 -1.605560e+03 -4.343810e+02
1.462090e-01 -1.606520e+03 -4.334470e+02
-3.996350e+02 -2.000160e+03 -2.822580e+01
1.387270e-01 -1.999860e+03 -2.857800e+01
-3.996680e+02 -1.600310e+03 -3.420920e+01
1.584800e-01 -1.599890e+03 -3.472190e+01
1.533080e-01 -2.005340e+03 -4.285610e+02
4.003610e+02 -2.005620e+03 -4.286360e+02
1.462090e-01 -1.606520e+03 -4.334470e+02
4.002160e+02 -1.606250e+03 -4.336490e+02
1.387270e-01 -1.999860e+03 -2.857800e+01
3.998400e+02 -2.000100e+03 -2.787560e+01
1.584800e-01 -1.599890e+03 -3.472190e+01
4.001330e+02 -1.600370e+03 -3.506220e+01
-4.000150e+02 -1.605560e+03 -4.343810e+02
1.462090e-01 -1.606520e+03 -4.334470e+02
-3.996660e+02 -1.206760e+03 -4.411530e+02
5.703080e-02 -1.206560e+03 -4.414550e+02
-3.996680e+02 -1.600310e+03 -3.420920e+01
1.584800e-01 -1.599890e+03 -3.472190e+01
-4.001590e+02 -1.200150e+03 -4.048880e+01
1.096760e-01 -1.200310e+03 -4.063310e+01
1.462090e-01 -1.606520e+03 -4.334470e+02
4.002160e+02 -1.606250e+03 -4.336490e+02
5.703080e-02 -1.206560e+03 -4.414550e+02
3.997920e+02 -1.206420e+03 -4.405150e+02
1.584800e-01 -1.599890e+03 -3.472190e+01
4.001330e+02 -1.600370e+03 -3.506220e+01
1.096760e-01 -1.200310e+03 -4.063310e+01
4.003210e+02 -1.200260e+03 -4.085700e+01
-3.996660e+02 -1.206760e+03 -4.411530e+02
5.703080e-02 -1.206560e+03 -4.414550e+02
-3.996820e+02 -8.073300e+02 -4.465100e+02
2.083950e-01 -8.066570e+02 -4.467410e+02
-4.001590e+02 -1.200150e+03 -4.048880e+01
1.096760e-01 -1.200310e+03 -4.063310e+01
-4.001320e+02 -8.000240e+02 -4.753100e+01
4.624160e-02 -8.002680e+02 -4.789660e+01
5.703080e-02 -1.206560e+03 -4.414550e+02
3.997920e+02 -1.206420e+03 -4.405150e+02
2.083950e-01 -8.066570e+02 -4.467410e+02
4.001000e+02 -8.067810e+02 -4.475400e+02
1.096760e-01 -1.200310e+03 -4.063310e+01
4.003210e+02 -1.200260e+03 -4.085700e+01
4.624160e-02 -8.002680e+02 -4.789660e+01
4.001880e+02 -8.000630e+02 -4.726650e+01
-3.996820e+02 -8.073300e+02 -4.465100e+02
2.083950e-01 -8.066570e+02 -4.467410e+02
-4.002890e+02 -4.068070e+02 -4.536120e+02
-4.164870e-01 -4.064360e+02 -4.536270e+02
-4.001320e+02 -8.000240e+02 -4.753100e+01
4.624160e-02 -8.002680e+02 -4.789660e+01
-4.000860e+02 -4.003960e+02 -5.375010e+01
5.315220e-02 -4.005710e+02 -5.341090e+01
2.083950e-01 -8.066570e+02 -4.467410e+02
4.001000e+02 -8.067810e+02 -4.475400e+02
-4.164870e-01 -4.064360e+02 -4.536270e+02
3.993750e+02 -4.068800e+02 -4.539760e+02
4.624160e-02 -8.002680e+02 -4.789660e+01
4.001880e+02 -8.000630e+02 -4.726650e+01
5.315220e-02 -4.005710e+02 -5.341090e+01
4.003040e+02 -4.003100e+02 -5.355960e+01
-4.002890e+02 -4.068070e+02 -4.536120e+02
-4.164870e-01 -4.064360e+02 -4.536270e+02
-4.000040e+02 -6.934630e+00 -4.599070e+02
-1.309810e-01 -7.017280e+00 -4.593050e+02
-4.000860e+02 -4.003960e+02 -5.375010e+01
5.315220e-02 -4.005710e+02 -5.341090e+01
-3.998630e+02 -3.099090e-01 -5.902600e+01
8.767520e-02 -4.476700e-01 -5.902740e+01
-4.164870e-01 -4.064360e+02 -4.536270e+02
3.993750e+02 -4.068800e+02 -4.539760e+02
[...]
<PointData>
<DataArray type="Float32" Name="V1" format="ascii">
0.000000e+00
0.000000e+00
7.114200e-01
5.654190e-01
0.000000e+00
0.000000e+00
-7.210230e-01
-5.575240e-01
0.000000e+00
0.000000e+00
5.654190e-01
1.718450e-01
0.000000e+00
0.000000e+00
-5.575240e-01
-2.466560e-01
7.114200e-01
5.654190e-01
5.064150e-02
-1.644590e-01
-7.210230e-01
-5.575240e-01
4.865140e-01
1.259720e-01
5.654190e-01
1.718450e-01
-1.644590e-01
-2.849860e-01
-5.575240e-01
-2.466560e-01
1.259720e-01
-4.698980e-01
5.064150e-02
-1.644590e-01
7.495560e-01
4.228140e-01
4.865140e-01
1.259720e-01
-9.112460e-01
-3.725270e-01
-1.644590e-01
-2.849860e-01
4.228140e-01
1.225120e-01
1.259720e-01
-4.698980e-01
-3.725270e-01
4.841820e-01
7.495560e-01
4.228140e-01
-7.827720e-02
4.029270e-01
-9.112460e-01
-3.725270e-01
2.665550e-01
-2.540620e-01
4.228140e-01
1.225120e-01
4.029270e-01
6.730800e-01
-3.725270e-01
4.841820e-01
-2.540620e-01
-8.849840e-01
-7.827720e-02
4.029270e-01
-6.220230e-01
-6.584860e-01
2.665550e-01
-2.540620e-01
2.454260e-01
3.017150e-01
4.029270e-01
6.730800e-01
-6.584860e-01
-4.592980e-01
-2.540620e-01
-8.849840e-01
3.017150e-01
5.230870e-01
-6.220230e-01
-6.584860e-01
1.077410e+00
6.729870e-01
2.454260e-01
3.017150e-01
-7.651890e-01
-5.016040e-01
-6.584860e-01
-4.592980e-01
6.729870e-01
4.157780e-01
3.017150e-01
5.230870e-01
-5.016040e-01
-1.785690e-01
1.077410e+00
6.729870e-01
5.694720e-01
1.202000e-01
-7.651890e-01
-5.016040e-01
-1.116520e-01
-1.487760e-01
6.729870e-01
4.157780e-01
1.202000e-01
-4.187430e-01
-5.016040e-01
-1.785690e-01
-1.487760e-01
-2.895910e-01
5.694720e-01
1.202000e-01
1.897760e-02
8.151370e-02
-1.116520e-01
-1.487760e-01
-3.224300e-01
-3.460100e-01
1.202000e-01
-4.187430e-01
8.151370e-02
-1.421320e-01
-1.487760e-01
-2.895910e-01
-3.460100e-01
-1.827940e-01
1.897760e-02
8.151370e-02
-4.919960e-02
2.609570e-01
-3.224300e-01
-3.460100e-01
2.665620e-01
-1.132510e-01
8.151370e-02
-1.421320e-01
2.609570e-01
4.928950e-01
-3.460100e-01
-1.827940e-01
-1.132510e-01
-4.923180e-01
-4.919960e-02
2.609570e-01
-6.479750e-01
-6.403100e-01
2.665620e-01
-1.132510e-01
4.287070e-01
3.512570e-01
2.609570e-01
4.928950e-01
-6.403100e-01
-2.734140e-01
-1.132510e-01
-4.923180e-01
3.512570e-01
2.715440e-01
-6.479750e-01
-6.403100e-01
4.225820e-01
5.606170e-01
4.287070e-01
3.512570e-01
-1.408090e-01
-5.428200e-03
-6.403100e-01
-2.734140e-01
5.606170e-01
2.709930e-01
3.512570e-01
2.715440e-01
-5.428200e-03
1.325090e-01
4.225820e-01
5.606170e-01
-2.234390e-01
-3.944630e-01
-1.408090e-01
-5.428200e-03
-2.147420e-01
-2.957240e-02
5.606170e-01
2.709930e-01
-3.944630e-01
-4.615530e-02
-5.428200e-03
1.325090e-01
-2.957240e-02
5.152410e-02
-2.234390e-01
-3.944630e-01
3.820030e-01
-2.659920e-01
-2.147420e-01
-2.957240e-02
-1.264870e-01
2.063850e-01
-3.944630e-01
-4.615530e-02
-2.659920e-01
-9.745680e-01
-2.957240e-02
5.152410e-02
2.063850e-01
7.620030e-01
3.820030e-01
-2.659920e-01
-5.795810e-01
-1.988020e-01
-1.264870e-01
2.063850e-01
2.969340e-01
1.236940e-01
-2.659920e-01
-9.745680e-01
-1.988020e-01
1.964500e-01
2.063850e-01
7.620030e-01
1.236940e-01
-1.118130e-02
-5.795810e-01
-1.988020e-01
1.987700e-01
-2.035080e-02
2.969340e-01
1.236940e-01
-4.436310e-02
2.900930e-01
-1.988020e-01
1.964500e-01
-2.035080e-02
-2.943250e-01
1.236940e-01
-1.118130e-02
2.900930e-01
5.447240e-01
1.987700e-01
-2.035080e-02
6.468420e-01
7.615860e-02
-4.436310e-02
2.900930e-01
-6.356820e-01
3.442320e-02
-2.035080e-02
-2.943250e-01
7.615860e-02
-8.665200e-01
2.900930e-01
5.447240e-01
3.442320e-02
9.514100e-01
6.468420e-01
7.615860e-02
1.022900e-01
3.207820e-01
-6.356820e-01
3.442320e-02
-1.916730e-01
-1.574020e-01
7.615860e-02
-8.665200e-01
3.207820e-01
1.044820e+00
3.442320e-02
9.514100e-01
-1.574020e-01
-4.294370e-01
1.022900e-01
3.207820e-01
5.460150e-01
6.070310e-01
-1.916730e-01
-1.574020e-01
-2.120400e-01
-1.567090e-02
3.207820e-01
1.044820e+00
6.070310e-01
1.594880e-01
-1.574020e-01
-4.294370e-01
-1.567090e-02
2.349340e-01
5.460150e-01
6.070310e-01
-7.149020e-02
-6.946890e-01
-2.120400e-01
-1.567090e-02
-3.309640e-01
2.323270e-01
6.070310e-01
1.594880e-01
-6.946890e-01
-9.425020e-01
-1.567090e-02
2.349340e-01
2.323270e-01
7.042420e-01
-7.149020e-02
-6.946890e-01
-1.799550e-01
-2.095610e-02
-3.309640e-01
2.323270e-01
6.520190e-01
3.083210e-01
-6.946890e-01
-9.425020e-01
-2.095610e-02
9.333340e-02
2.323270e-01
7.042420e-01
3.083210e-01
-9.853600e-02
-1.799550e-01
-2.095610e-02
-7.278960e-01
-2.162250e-01
6.520190e-01
3.083210e-01
9.055910e-01
3.599410e-01
-2.095610e-02
9.333340e-02
-2.162250e-01
2.483680e-01
3.083210e-01
-9.853600e-02
3.599410e-01
-1.158680e-01
-7.278960e-01
-2.162250e-01
3.186860e-01
-1.333050e-01
9.055910e-01
3.599410e-01
-5.179990e-01
9.611720e-03
-2.162250e-01
2.483680e-01
-1.333050e-01
-5.442060e-01
3.599410e-01
-1.158680e-01
9.611720e-03
5.322150e-01
3.186860e-01
-1.333050e-01
-1.241610e+00
-5.979740e-01
-5.179990e-01
9.611720e-03
1.011540e+00
2.161390e-01
-1.333050e-01
-5.442060e-01
-5.979740e-01
3.632980e-01
9.611720e-03
5.322150e-01
2.161390e-01
-7.187430e-01
-1.241610e+00
-5.979740e-01
-4.823870e-01
6.084690e-02
1.011540e+00
2.161390e-01
7.288750e-02
-4.329730e-02
-5.979740e-01
3.632980e-01
6.084690e-02
2.483530e-01
2.161390e-01
-7.187430e-01
-4.329730e-02
9.054190e-02
-4.823870e-01
6.084690e-02
-8.813010e-01
-5.879910e-01
7.288750e-02
-4.329730e-02
8.058820e-01
4.305980e-01
6.084690e-02
2.483530e-01
-5.879910e-01
-2.722610e-01
-4.329730e-02
9.054190e-02
4.305980e-01
-3.061470e-01
-8.813010e-01
-5.879910e-01
-3.457470e-01
6.292800e-01
8.058820e-01
4.305980e-01
4.527990e-01
-3.778070e-01
-5.879910e-01
-2.722610e-01
6.292800e-01
1.538620e+00
4.305980e-01
-3.061470e-01
-3.778070e-01
-1.037480e+00
-3.457470e-01
6.292800e-01
6.350630e-01
1.891360e-01
4.527990e-01
-3.778070e-01
-4.737500e-01
-1.364710e-01
6.292800e-01
1.538620e+00
1.891360e-01
-2.390620e-01
-3.778070e-01
-1.037480e+00
-1.364710e-01
2.616610e-01
6.350630e-01
1.891360e-01
-4.014260e-01
1.214860e-01
-4.737500e-01
-1.364710e-01
8.188140e-01
2.186390e-01
1.891360e-01
-2.390620e-01
1.214860e-01
4.441910e-01
-1.364710e-01
2.616610e-01
2.186390e-01
-5.287500e-01
-4.014260e-01
1.214860e-01
-4.446690e-01
-2.185320e-01
8.188140e-01
2.186390e-01
8.243160e-02
-2.933110e-02
1.214860e-01
4.441910e-01
-2.185320e-01
-1.364880e-01
2.186390e-01
-5.287500e-01
-2.933110e-02
2.108250e-01
-4.446690e-01
-2.185320e-01
5.125840e-02
2.331970e-01
8.243160e-02
-2.933110e-02
1.815180e-01
1.493560e-01
-2.185320e-01
-1.364880e-01
2.331970e-01
8.734750e-01
-2.933110e-02
2.108250e-01
1.493560e-01
-3.401790e-01
0.000000e+00
0.000000e+00
-7.210230e-01
-5.575240e-01
0.000000e+00
0.000000e+00
6.164600e-01
5.109070e-01
0.000000e+00
0.000000e+00
-5.575240e-01
-2.466560e-01
0.000000e+00
0.000000e+00
5.109070e-01
4.452710e-01
-7.210230e-01
-5.575240e-01
4.865140e-01
1.259720e-01
6.164600e-01
5.109070e-01
-1.006340e+00
7.813200e-02
-5.575240e-01
-2.466560e-01
1.259720e-01
-4.698980e-01
5.109070e-01
4.452710e-01
7.813200e-02
1.135530e+00
4.865140e-01
1.259720e-01
-9.112460e-01
-3.725270e-01
-1.006340e+00
7.813200e-02
9.675510e-01
8.298560e-02
1.259720e-01
-4.698980e-01
-3.725270e-01
4.841820e-01
7.813200e-02
1.135530e+00
8.298560e-02
-9.794140e-01
-9.112460e-01
-3.725270e-01
2.665550e-01
-2.540620e-01
9.675510e-01
8.298560e-02
-3.736380e-01
1.794600e-01
-3.725270e-01
4.841820e-01
-2.540620e-01
-8.849840e-01
8.298560e-02
-9.794140e-01
1.794600e-01
9.652450e-01
2.665550e-01
-2.540620e-01
2.454260e-01
3.017150e-01
-3.736380e-01
1.794600e-01
3.264500e-01
-1.111740e-01
-2.540620e-01
-8.849840e-01
3.017150e-01
5.230870e-01
1.794600e-01
9.652450e-01
-1.111740e-01
-4.325260e-01
2.454260e-01
3.017150e-01
-7.651890e-01
-5.016040e-01
3.264500e-01
-1.111740e-01
2.975060e-01
4.844250e-01
3.017150e-01
5.230870e-01
-5.016040e-01
-1.785690e-01
-1.111740e-01
-4.325260e-01
4.844250e-01
8.336990e-02
-7.651890e-01
-5.016040e-01
-1.116520e-01
-1.487760e-01
2.975060e-01
4.844250e-01
-4.681190e-01
1.870100e-01
-5.016040e-01
-1.785690e-01
-1.487760e-01
-2.895910e-01
4.844250e-01
8.336990e-02
1.870100e-01
9.989250e-01
-1.116520e-01
-1.487760e-01
-3.224300e-01
-3.460100e-01
-4.681190e-01
1.870100e-01
6.357180e-01
5.449690e-01
-1.487760e-01
-2.895910e-01
-3.460100e-01
-1.827940e-01
1.870100e-01
9.989250e-01
5.449690e-01
6.085670e-01
-3.224300e-01
-3.460100e-01
2.665620e-01
-1.132510e-01
6.357180e-01
5.449690e-01
-5.333340e-01
-3.265050e-02
-3.460100e-01
-1.827940e-01
-1.132510e-01
-4.923180e-01
5.449690e-01
6.085670e-01
-3.265050e-02
2.682440e-01
2.665620e-01
-1.132510e-01
4.287070e-01
3.512570e-01
-5.333340e-01
-3.265050e-02
-1.445240e-01
-1.562100e-01
-1.132510e-01
-4.923180e-01
3.512570e-01
2.715440e-01
-3.265050e-02
2.682440e-01
-1.562100e-01
-1.102910e-01
4.287070e-01
3.512570e-01
-1.408090e-01
-5.428200e-03
-1.445240e-01
-1.562100e-01
-1.785870e-01
-3.079350e-01
3.512570e-01
2.715440e-01
-5.428200e-03
1.325090e-01
-1.562100e-01
-1.102910e-01
-3.079350e-01
-4.335520e-01
-1.408090e-01
-5.428200e-03
-2.147420e-01
-2.957240e-02
-1.785870e-01
-3.079350e-01
5.584280e-01
2.183910e-01
-5.428200e-03
1.325090e-01
-2.957240e-02
5.152410e-02
-3.079350e-01
-4.335520e-01
2.183910e-01
6.466480e-02
-2.147420e-01
-2.957240e-02
-1.264870e-01
2.063850e-01
5.584280e-01
2.183910e-01
-1.196540e-01
-9.071150e-02
-2.957240e-02
5.152410e-02
2.063850e-01
7.620030e-01
2.183910e-01
6.466480e-02
-9.071150e-02
-5.248230e-01
-1.264870e-01
2.063850e-01
2.969340e-01
1.236940e-01
-1.196540e-01
-9.071150e-02
2.663500e-01
-7.290640e-02
2.063850e-01
7.620030e-01
1.236940e-01
-1.118130e-02
-9.071150e-02
-5.248230e-01
-7.290640e-02
-3.245150e-01
2.969340e-01
1.236940e-01
-4.436310e-02
2.900930e-01
2.663500e-01
-7.290640e-02
-1.280440e-01
-6.451000e-01
1.236940e-01
-1.118130e-02
2.900930e-01
5.447240e-01
-7.290640e-02
-3.245150e-01
-6.451000e-01
-6.420230e-01
-4.436310e-02
2.900930e-01
-6.356820e-01
3.442320e-02
-1.280440e-01
-6.451000e-01
4.677220e-01
-6.833650e-02
2.900930e-01
5.447240e-01
3.442320e-02
9.514100e-01
-6.451000e-01
-6.420230e-01
-6.833650e-02
-1.110530e+00
-6.356820e-01
3.442320e-02
-1.916730e-01
-1.574020e-01
4.677220e-01
-6.833650e-02
2.588910e-01
-7.999120e-02
3.442320e-02
9.514100e-01
-1.574020e-01
-4.294370e-01
-6.833650e-02
-1.110530e+00
-7.999120e-02
-1.797430e-01
-1.916730e-01
-1.574020e-01
-2.120400e-01
-1.567090e-02
2.588910e-01
-7.999120e-02
-1.496840e-02
-3.542100e-01
-1.574020e-01
-4.294370e-01
-1.567090e-02
2.349340e-01
-7.999120e-02
-1.797430e-01
-3.542100e-01
-7.258860e-01
-2.120400e-01
-1.567090e-02
-3.309640e-01
2.323270e-01
-1.496840e-02
-3.542100e-01
6.986690e-01
7.939860e-02
-1.567090e-02
2.349340e-01
2.323270e-01
7.042420e-01
-3.542100e-01
-7.258860e-01
7.939860e-02
-5.662070e-01
-3.309640e-01
2.323270e-01
6.520190e-01
3.083210e-01
6.986690e-01
7.939860e-02
-1.220430e+00
-5.616110e-01
2.323270e-01
7.042420e-01
3.083210e-01
-9.853600e-02
7.939860e-02
-5.662070e-01
-5.616110e-01
2.028350e-01
6.520190e-01
3.083210e-01
9.055910e-01
3.599410e-01
-1.220430e+00
-5.616110e-01
-1.094000e+00
-4.318500e-01
3.083210e-01
-9.853600e-02
3.599410e-01
-1.158680e-01
-5.616110e-01
2.028350e-01
-4.318500e-01
5.508360e-03
9.055910e-01
3.599410e-01
-5.179990e-01
9.611720e-03
-1.094000e+00
-4.318500e-01
8.471870e-01
9.213850e-02
3.599410e-01
-1.158680e-01
9.611720e-03
5.322150e-01
-4.318500e-01
5.508360e-03
9.213850e-02
-4.843550e-01
-5.179990e-01
9.611720e-03
1.011540e+00
2.161390e-01
8.471870e-01
9.213850e-02
-8.558960e-01
1.309860e-01
9.611720e-03
5.322150e-01
2.161390e-01
-7.187430e-01
9.213850e-02
-4.843550e-01
1.309860e-01
8.863020e-01
1.011540e+00
2.161390e-01
7.288750e-02
-4.329730e-02
-8.558960e-01
1.309860e-01
5.632940e-01
7.328410e-02
2.161390e-01
-7.187430e-01
-4.329730e-02
9.054190e-02
1.309860e-01
8.863020e-01
7.328410e-02
-2.841040e-01
7.288750e-02
-4.329730e-02
8.058820e-01
4.305980e-01
5.632940e-01
7.328410e-02
-9.908160e-01
-2.956450e-01
-4.329730e-02
9.054190e-02
4.305980e-01
-3.061470e-01
7.328410e-02
-2.841040e-01
-2.956450e-01
6.682140e-01
8.058820e-01
4.305980e-01
4.527990e-01
-3.778070e-01
-9.908160e-01
-2.956450e-01
-3.473450e-01
1.867510e-01
4.305980e-01
-3.061470e-01
-3.778070e-01
-1.037480e+00
-2.956450e-01
6.682140e-01
1.867510e-01
5.787890e-01
4.527990e-01
-3.778070e-01
-4.737500e-01
-1.364710e-01
-3.473450e-01
1.867510e-01
2.169100e-01
6.564580e-02
-3.778070e-01
-1.037480e+00
-1.364710e-01
2.616610e-01
1.867510e-01
5.787890e-01
6.564580e-02
-2.004650e-01
-4.737500e-01
-1.364710e-01
8.188140e-01
2.186390e-01
2.169100e-01
6.564580e-02
-1.280290e+00
-5.543090e-01
-1.364710e-01
2.616610e-01
2.186390e-01
-5.287500e-01
6.564580e-02
-2.004650e-01
-5.543090e-01
3.770910e-01
8.188140e-01
2.186390e-01
8.243160e-02
-2.933110e-02
-1.280290e+00
-5.543090e-01
3.677130e-01
3.000790e-01
2.186390e-01
-5.287500e-01
-2.933110e-02
2.108250e-01
-5.543090e-01
3.770910e-01
3.000790e-01
-3.217620e-02
8.243160e-02
-2.933110e-02
1.815180e-01
1.493560e-01
3.677130e-01
3.000790e-01
-4.877710e-01
-5.484330e-01
-2.933110e-02
2.108250e-01
1.493560e-01
-3.401790e-01
3.000790e-01
-3.217620e-02
-5.484330e-01
-5.286200e-01
</DataArray>
<DataArray type="Float32" Name="V2" format="ascii">
0.000000e+00
0.000000e+00
-1.868840e-01
-6.008790e-01
0.000000e+00
0.000000e+00
-2.811570e-01
1.153500e+00
0.000000e+00
0.000000e+00
-6.008790e-01
1.157630e+00
0.000000e+00
0.000000e+00
1.153500e+00
-5.801460e-01
-1.868840e-01
-6.008790e-01
1.328690e-01
1.207130e+00
-2.811570e-01
1.153500e+00
-6.668810e-01
-1.019920e+00
-6.008790e-01
1.157630e+00
1.207130e+00
-1.121700e-01
1.153500e+00
-5.801460e-01
-1.019920e+00
-1.909800e-01
1.328690e-01
1.207130e+00
-6.945390e-01
5.097310e-02
-6.668810e-01
-1.019920e+00
1.378190e-02
-3.648400e-01
1.207130e+00
-1.121700e-01
5.097310e-02
-2.846730e-01
-1.019920e+00
-1.909800e-01
-3.648400e-01
4.304390e-03
-6.945390e-01
5.097310e-02
-7.453200e-01
-4.354650e-01
1.378190e-02
-3.648400e-01
6.950370e-01
3.210810e-01
5.097310e-02
-2.846730e-01
-4.354650e-01
6.510790e-01
-3.648400e-01
4.304390e-03
3.210810e-01
-3.680020e-01
-7.453200e-01
-4.354650e-01
6.508870e-01
2.298250e-01
6.950370e-01
3.210810e-01
-7.729100e-01
-1.527540e-01
-4.354650e-01
6.510790e-01
2.298250e-01
8.043120e-02
3.210810e-01
-3.680020e-01
-1.527540e-01
-4.933850e-01
6.508870e-01
2.298250e-01
6.167790e-01
-5.739470e-01
-7.729100e-01
-1.527540e-01
4.028650e-02
1.969110e-01
2.298250e-01
8.043120e-02
-5.739470e-01
-1.976350e+00
-1.527540e-01
-4.933850e-01
1.969110e-01
6.352080e-01
6.167790e-01
-5.739470e-01
-2.753560e-01
6.574910e-01
4.028650e-02
1.969110e-01
1.703850e-01
4.889000e-02
-5.739470e-01
-1.976350e+00
6.574910e-01
-9.332120e-01
1.969110e-01
6.352080e-01
4.889000e-02
3.255520e-01
-2.753560e-01
6.574910e-01
9.395840e-01
5.055530e-01
1.703850e-01
4.889000e-02
-7.289730e-01
-1.009040e-01
6.574910e-01
-9.332120e-01
5.055530e-01
-1.507120e-01
4.889000e-02
3.255520e-01
-1.009040e-01
2.608910e-01
9.395840e-01
5.055530e-01
-3.796790e-01
1.446210e-01
-7.289730e-01
-1.009040e-01
8.496260e-01
-8.373680e-02
5.055530e-01
-1.507120e-01
1.446210e-01
-3.813490e-01
-1.009040e-01
2.608910e-01
-8.373680e-02
9.314660e-01
-3.796790e-01
1.446210e-01
-1.939560e-01
-2.674180e-01
8.496260e-01
-8.373680e-02
3.843390e-01
1.313560e-01
1.446210e-01
-3.813490e-01
-2.674180e-01
-1.525770e+00
-8.373680e-02
9.314660e-01
1.313560e-01
8.420540e-01
-1.939560e-01
-2.674180e-01
1.081070e-01
-3.198370e-01
3.843390e-01
1.313560e-01
-4.439130e-01
-8.745170e-02
-2.674180e-01
-1.525770e+00
-3.198370e-01
2.585920e-01
1.313560e-01
8.420540e-01
-8.745170e-02
-5.859970e-01
1.081070e-01
-3.198370e-01
1.035450e+00
-8.697880e-01
-4.439130e-01
-8.745170e-02
-5.728100e-01
5.166360e-01
-3.198370e-01
2.585920e-01
-8.697880e-01
8.901960e-01
-8.745170e-02
-5.859970e-01
5.166360e-01
-1.842250e-01
1.035450e+00
-8.697880e-01
4.454750e-01
8.163530e-02
-5.728100e-01
5.166360e-01
-1.712370e-01
-2.416460e-01
-8.697880e-01
8.901960e-01
8.163530e-02
9.320270e-01
5.166360e-01
-1.842250e-01
-2.416460e-01
-6.422960e-01
4.454750e-01
8.163530e-02
-1.060630e+00
1.210510e-01
-1.712370e-01
-2.416460e-01
7.341950e-01
-2.210760e-01
8.163530e-02
9.320270e-01
1.210510e-01
-7.745710e-02
-2.416460e-01
-6.422960e-01
-2.210760e-01
1.938670e-01
-1.060630e+00
1.210510e-01
1.603530e-01
-1.424280e-01
7.341950e-01
-2.210760e-01
7.235860e-02
4.027650e-01
1.210510e-01
-7.745710e-02
-1.424280e-01
1.098300e+00
-2.210760e-01
1.938670e-01
4.027650e-01
-1.250920e+00
1.603530e-01
-1.424280e-01
-4.940070e-01
4.463970e-01
7.235860e-02
4.027650e-01
4.260140e-01
-4.596780e-01
-1.424280e-01
1.098300e+00
4.463970e-01
-3.884850e-01
4.027650e-01
-1.250920e+00
-4.596780e-01
-1.123970e-01
-4.940070e-01
4.463970e-01
-1.510310e+00
2.679790e-01
4.260140e-01
-4.596780e-01
1.363510e+00
-6.664990e-01
4.463970e-01
-3.884850e-01
2.679790e-01
-7.100710e-01
-4.596780e-01
-1.123970e-01
-6.664990e-01
4.912030e-01
-1.510310e+00
2.679790e-01
6.702080e-01
7.998290e-01
1.363510e+00
-6.664990e-01
-9.519440e-01
-8.868320e-02
2.679790e-01
-7.100710e-01
7.998290e-01
3.185980e-01
-6.664990e-01
4.912030e-01
-8.868320e-02
-4.651360e-01
6.702080e-01
7.998290e-01
4.107340e-01
-1.252500e-01
-9.519440e-01
-8.868320e-02
-1.688960e-01
3.992150e-01
7.998290e-01
3.185980e-01
-1.252500e-01
1.477510e+00
-8.868320e-02
-4.651360e-01
3.992150e-01
-5.113660e-01
4.107340e-01
-1.252500e-01
3.391930e-01
-4.031850e-01
-1.688960e-01
3.992150e-01
3.426450e-01
2.349220e-02
-1.252500e-01
1.477510e+00
-4.031850e-01
-7.482360e-02
3.992150e-01
-5.113660e-01
2.349220e-02
2.790700e-01
3.391930e-01
-4.031850e-01
-1.130730e+00
-3.042460e-01
3.426450e-01
2.349220e-02
6.819180e-02
4.775670e-01
-4.031850e-01
-7.482360e-02
-3.042460e-01
-4.278990e-01
2.349220e-02
2.790700e-01
4.775670e-01
-1.617560e-01
-1.130730e+00
-3.042460e-01
2.884970e-01
-8.476390e-01
6.819180e-02
4.775670e-01
-2.964970e-01
3.800510e-01
-3.042460e-01
-4.278990e-01
-8.476390e-01
1.715270e-01
4.775670e-01
-1.617560e-01
3.800510e-01
-4.589670e-01
2.884970e-01
-8.476390e-01
9.006600e-02
1.076260e-01
-2.964970e-01
3.800510e-01
-2.611190e-01
2.343040e-01
-8.476390e-01
1.715270e-01
1.076260e-01
-1.594610e-01
3.800510e-01
-4.589670e-01
2.343040e-01
7.380350e-01
9.006600e-02
1.076260e-01
1.471390e+00
2.420380e-01
-2.611190e-01
2.343040e-01
-6.448780e-01
-1.446710e-01
1.076260e-01
-1.594610e-01
2.420380e-01
5.928340e-01
2.343040e-01
7.380350e-01
-1.446710e-01
-5.201110e-01
1.471390e+00
2.420380e-01
9.118110e-01
1.347360e+00
-6.448780e-01
-1.446710e-01
-9.970750e-01
-1.134560e+00
2.420380e-01
5.928340e-01
1.347360e+00
-1.192210e-01
-1.446710e-01
-5.201110e-01
-1.134560e+00
-2.313590e-01
9.118110e-01
1.347360e+00
-1.275370e+00
2.446940e-01
-9.970750e-01
-1.134560e+00
1.195850e+00
3.101840e-01
1.347360e+00
-1.192210e-01
2.446940e-01
-9.119230e-01
-1.134560e+00
-2.313590e-01
3.101840e-01
4.324770e-01
-1.275370e+00
2.446940e-01
-2.294110e-01
-5.263210e-01
1.195850e+00
3.101840e-01
3.758540e-01
1.125090e-01
2.446940e-01
-9.119230e-01
-5.263210e-01
-3.282500e-01
3.101840e-01
4.324770e-01
1.125090e-01
1.096470e+00
-2.294110e-01
-5.263210e-01
-3.307520e-01
-1.048310e-01
3.758540e-01
1.125090e-01
5.078030e-02
-1.649850e-01
-5.263210e-01
-3.282500e-01
-1.048310e-01
-9.276610e-01
1.125090e-01
1.096470e+00
-1.649850e-01
4.538340e-01
-3.307520e-01
-1.048310e-01
-2.208380e-02
-6.223160e-01
5.078030e-02
-1.649850e-01
-3.063480e-01
3.317800e-01
-1.048310e-01
-9.276610e-01
-6.223160e-01
-9.595610e-01
-1.649850e-01
4.538340e-01
3.317800e-01
6.880310e-01
-2.208380e-02
-6.223160e-01
-6.258180e-01
1.104710e+00
-3.063480e-01
3.317800e-01
4.437900e-01
-6.068830e-01
-6.223160e-01
-9.595610e-01
1.104710e+00
3.092160e-01
3.317800e-01
6.880310e-01
-6.068830e-01
-4.737790e-01
0.000000e+00
0.000000e+00
-2.811570e-01
1.153500e+00
0.000000e+00
0.000000e+00
6.189430e-01
-1.353580e+00
0.000000e+00
0.000000e+00
1.153500e+00
-5.801460e-01
0.000000e+00
0.000000e+00
-1.353580e+00
-2.785890e-01
-2.811570e-01
1.153500e+00
-6.668810e-01
-1.019920e+00
6.189430e-01
-1.353580e+00
1.016520e+00
6.981110e-01
1.153500e+00
-5.801460e-01
-1.019920e+00
-1.909800e-01
-1.353580e+00
-2.785890e-01
6.981110e-01
5.519470e-01