<?xml version="1.0"?>
<VTKFile type="UnstructuredGrid" version="0.1" byte_order="LittleEndian" compressor="vtkZLibDataCompressor">
<UnstructuredGrid>
<Piece NumberOfPoints="960" NumberOfCells="120">
<Points>
<DataArray type="Float32" NumberOfComponents="3" format="ascii">
-4.000000e+02 -6.000000e+03 -4.000000e+02
0.000000e+00 -6.000000e+03 -4.000000e+02
-4.000000e+02 -5.600010e+03 -4.000120e+02
-5.697790e-11 -5.600010e+03 -4.000120e+02
-4.000000e+02 -6.000000e+03 0.000000e+00
0.000000e+00 -6.000000e+03 0.000000e+00
-4.000000e+02 -5.600000e+03 -1.381550e-02
-8.896140e-11 -5.600000e+03 -1.381550e-02
0.000000e+00 -6.000000e+03 -4.000000e+02
4.000000e+02 -6.000000e+03 -4.000000e+02
-5.697790e-11 -5.600010e+03 -4.000120e+02
4.000000e+02 -5.600010e+03 -4.000120e+02
0.000000e+00 -6.000000e+03 0.000000e+00
4.000000e+02 -6.000000e+03 0.000000e+00
-8.896140e-11 -5.600000e+03 -1.381550e-02
4.000000e+02 -5.600000e+03 -1.381550e-02
-4.000000e+02 -5.600010e+03 -4.000120e+02
-5.697790e-11 -5.600010e+03 -4.000120e+02
-4.000000e+02 -5.200010e+03 -4.000210e+02
-5.601350e-11 -5.200010e+03 -4.000210e+02
-4.000000e+02 -5.600000e+03 -1.381550e-02
-8.896140e-11 -5.600000e+03 -1.381550e-02
-4.000000e+02 -5.200000e+03 -2.120780e-02
-6.304650e-11 -5.200000e+03 -2.120780e-02
-5.697790e-11 -5.600010e+03 -4.000120e+02
4.000000e+02 -5.600010e+03 -4.000120e+02
-5.601350e-11 -5.200010e+03 -4.000210e+02
4.000000e+02 -5.200010e+03 -4.000210e+02
-8.896140e-11 -5.600000e+03 -1.381550e-02
4.000000e+02 -5.600000e+03 -1.381550e-02
-6.304650e-11 -5.200000e+03 -2.120780e-02
4.000000e+02 -5.200000e+03 -2.120780e-02
-4.000000e+02 -5.200010e+03 -4.000210e+02
-5.601350e-11 -5.200010e+03 -4.000210e+02
-4.000000e+02 -4.800000e+03 -4.000250e+02
6.234110e-12 -4.800000e+03 -4.000250e+02
-4.000000e+02 -5.200000e+03 -2.120780e-02
-6.304650e-11 -5.200000e+03 -2.120780e-02
-4.000000e+02 -4.800000e+03 -2.451950e-02
1.034630e-10 -4.800000e+03 -2.451950e-02
-5.601350e-11 -5.200010e+03 -4.000210e+02
4.000000e+02 -5.200010e+03 -4.000210e+02
6.234110e-12 -4.800000e+03 -4.000250e+02
4.000000e+02 -4.800000e+03 -4.000250e+02
-6.304650e-11 -5.200000e+03 -2.120780e-02
4.000000e+02 -5.200000e+03 -2.120780e-02
1.034630e-10 -4.800000e+03 -2.451950e-02
4.000000e+02 -4.800000e+03 -2.451950e-02
-4.000000e+02 -4.800000e+03 -4.000250e+02
6.234110e-12 -4.800000e+03 -4.000250e+02
-4.000000e+02 -4.400000e+03 -4.000270e+02
2.247520e-10 -4.400000e+03 -4.000270e+02
-4.000000e+02 -4.800000e+03 -2.451950e-02
1.034630e-10 -4.800000e+03 -2.451950e-02
-4.000000e+02 -4.400000e+03 -2.638890e-02
2.071770e-10 -4.400000e+03 -2.638890e-02
6.234110e-12 -4.800000e+03 -4.000250e+02
4.000000e+02 -4.800000e+03 -4.000250e+02
2.247520e-10 -4.400000e+03 -4.000270e+02
4.000000e+02 -4.400000e+03 -4.000270e+02
1.034630e-10 -4.800000e+03 -2.451950e-02
4.000000e+02 -4.800000e+03 -2.451950e-02
2.071770e-10 -4.400000e+03 -2.638890e-02
4.000000e+02 -4.400000e+03 -2.638890e-02
-4.000000e+02 -4.400000e+03 -4.000270e+02
2.247520e-10 -4.400000e+03 -4.000270e+02
-4.000000e+02 -4.000000e+03 -4.000290e+02
8.076530e-11 -4.000000e+03 -4.000290e+02
-4.000000e+02 -4.400000e+03 -2.638890e-02
2.071770e-10 -4.400000e+03 -2.638890e-02
-4.000000e+02 -4.000000e+03 -2.825660e-02
1.285960e-10 -4.000000e+03 -2.825660e-02
2.247520e-10 -4.400000e+03 -4.000270e+02
4.000000e+02 -4.400000e+03 -4.000270e+02
8.076530e-11 -4.000000e+03 -4.000290e+02
4.000000e+02 -4.000000e+03 -4.000290e+02
2.071770e-10 -4.400000e+03 -2.638890e-02
4.000000e+02 -4.400000e+03 -2.638890e-02
1.285960e-10 -4.000000e+03 -2.825660e-02
4.000000e+02 -4.000000e+03 -2.825660e-02
-4.000000e+02 -4.000000e+03 -4.000290e+02
8.076530e-11 -4.000000e+03 -4.000290e+02
-4.000000e+02 -3.600010e+03 -4.000320e+02
2.183220e-10 -3.600010e+03 -4.000320e+02
-4.000000e+02 -4.000000e+03 -2.825660e-02
1.285960e-10 -4.000000e+03 -2.825660e-02
-4.000000e+02 -3.600000e+03 -3.410760e-02
2.718110e-10 -3.600000e+03 -3.410760e-02
8.076530e-11 -4.000000e+03 -4.000290e+02
4.000000e+02 -4.000000e+03 -4.000290e+02
2.183220e-10 -3.600010e+03 -4.000320e+02
4.000000e+02 -3.600010e+03 -4.000320e+02
1.285960e-10 -4.000000e+03 -2.825660e-02
4.000000e+02 -4.000000e+03 -2.825660e-02
2.718110e-10 -3.600000e+03 -3.410760e-02
4.000000e+02 -3.600000e+03 -3.410760e-02
-4.000000e+02 -3.600010e+03 -4.000320e+02
2.183220e-10 -3.600010e+03 -4.000320e+02
-4.000000e+02 -3.200000e+03 -4.000400e+02
2.805290e-10 -3.200000e+03 -4.000400e+02
-4.000000e+02 -3.600000e+03 -3.410760e-02
2.718110e-10 -3.600000e+03 -3.410760e-02
-4.000000e+02 -3.200000e+03 -3.943010e-02
3.123180e-10 -3.200000e+03 -3.943010e-02
2.183220e-10 -3.600010e+03 -4.000320e+02
4.000000e+02 -3.600010e+03 -4.000320e+02
2.805290e-10 -3.200000e+03 -4.000400e+02
4.000000e+02 -3.200000e+03 -4.000400e+02
2.718110e-10 -3.600000e+03 -3.410760e-02
4.000000e+02 -3.600000e+03 -3.410760e-02
3.123180e-10 -3.200000e+03 -3.943010e-02
4.000000e+02 -3.200000e+03 -3.943010e-02
-4.000000e+02 -3.200000e+03 -4.000400e+02
2.805290e-10 -3.200000e+03 -4.000400e+02
-4.000000e+02 -2.800000e+03 -4.000440e+02
1.185700e-11 -2.800000e+03 -4.000440e+02
-4.000000e+02 -3.200000e+03 -3.943010e-02
3.123180e-10 -3.200000e+03 -3.943010e-02
-4.000000e+02 -2.800000e+03 -4.261660e-02
2.828730e-11 -2.800000e+03 -4.261660e-02
2.805290e-10 -3.200000e+03 -4.000400e+02
4.000000e+02 -3.200000e+03 -4.000400e+02
1.185700e-11 -2.800000e+03 -4.000440e+02
4.000000e+02 -2.800000e+03 -4.000440e+02
3.123180e-10 -3.200000e+03 -3.943010e-02
4.000000e+02 -3.200000e+03 -3.943010e-02
2.828730e-11 -2.800000e+03 -4.261660e-02
4.000000e+02 -2.800000e+03 -4.261660e-02
-4.000000e+02 -2.800000e+03 -4.000440e+02
1.185700e-11 -2.800000e+03 -4.000440e+02
-4.000000e+02 -2.400000e+03 -4.000430e+02
-7.007140e-11 -2.400000e+03 -4.000430e+02
-4.000000e+02 -2.800000e+03 -4.261660e-02
2.828730e-11 -2.800000e+03 -4.261660e-02
-4.000000e+02 -2.400000e+03 -4.358190e-02
-1.685060e-10 -2.400000e+03 -4.358190e-02
1.185700e-11 -2.800000e+03 -4.000440e+02
4.000000e+02 -2.800000e+03 -4.000440e+02
-7.007140e-11 -2.400000e+03 -4.000430e+02
4.000000e+02 -2.400000e+03 -4.000430e+02
2.828730e-11 -2.800000e+03 -4.261660e-02
4.000000e+02 -2.800000e+03 -4.261660e-02
-1.685060e-10 -2.400000e+03 -4.358190e-02
4.000000e+02 -2.400000e+03 -4.358190e-02
-4.000000e+02 -2.400000e+03 -4.000430e+02
-7.007140e-11 -2.400000e+03 -4.000430e+02
-4.000000e+02 -2.000000e+03 -4.000470e+02
-2.451380e-10 -2.000000e+03 -4.000470e+02
-4.000000e+02 -2.400000e+03 -4.358190e-02
-1.685060e-10 -2.400000e+03 -4.358190e-02
-4.000000e+02 -2.000000e+03 -4.624930e-02
-1.221270e-10 -2.000000e+03 -4.624930e-02
-7.007140e-11 -2.400000e+03 -4.000430e+02
4.000000e+02 -2.400000e+03 -4.000430e+02
-2.451380e-10 -2.000000e+03 -4.000470e+02
4.000000e+02 -2.000000e+03 -4.000470e+02
-1.685060e-10 -2.400000e+03 -4.358190e-02
4.000000e+02 -2.400000e+03 -4.358190e-02
-1.221270e-10 -2.000000e+03 -4.624930e-02
4.000000e+02 -2.000000e+03 -4.624930e-02
-4.000000e+02 -2.000000e+03 -4.000470e+02
-2.451380e-10 -2.000000e+03 -4.000470e+02
-4.000000e+02 -1.600000e+03 -4.000500e+02
-2.559550e-10 -1.600000e+03 -4.000500e+02
-4.000000e+02 -2.000000e+03 -4.624930e-02
-1.221270e-10 -2.000000e+03 -4.624930e-02
-4.000000e+02 -1.600000e+03 -4.935770e-02
-3.103600e-10 -1.600000e+03 -4.935770e-02
-2.451380e-10 -2.000000e+03 -4.000470e+02
4.000000e+02 -2.000000e+03 -4.000470e+02
-2.559550e-10 -1.600000e+03 -4.000500e+02
4.000000e+02 -1.600000e+03 -4.000500e+02
-1.221270e-10 -2.000000e+03 -4.624930e-02
4.000000e+02 -2.000000e+03 -4.624930e-02
-3.103600e-10 -1.600000e+03 -4.935770e-02
4.000000e+02 -1.600000e+03 -4.935770e-02
-4.000000e+02 -1.600000e+03 -4.000500e+02
-2.559550e-10 -1.600000e+03 -4.000500e+02
-4.000000e+02 -1.200000e+03 -4.000500e+02
-5.959550e-10 -1.200000e+03 -4.000500e+02
-4.000000e+02 -1.600000e+03 -4.935770e-02
-3.103600e-10 -1.600000e+03 -4.935770e-02
-4.000000e+02 -1.200000e+03 -5.072240e-02
-5.369690e-10 -1.200000e+03 -5.072240e-02
-2.559550e-10 -1.600000e+03 -4.000500e+02
4.000000e+02 -1.600000e+03 -4.000500e+02
-5.959550e-10 -1.200000e+03 -4.000500e+02
4.000000e+02 -1.200000e+03 -4.000500e+02
-3.103600e-10 -1.600000e+03 -4.935770e-02
4.000000e+02 -1.600000e+03 -4.935770e-02
-5.369690e-10 -1.200000e+03 -5.072240e-02
4.000000e+02 -1.200000e+03 -5.072240e-02
-4.000000e+02 -1.200000e+03 -4.000500e+02
-5.959550e-10 -1.200000e+03 -4.000500e+02
-4.000000e+02 -8.000000e+02 -4.000530e+02
-5.868900e-10 -8.000000e+02 -4.000530e+02
-4.000000e+02 -1.200000e+03 -5.072240e-02
-5.369690e-10 -1.200000e+03 -5.072240e-02
-4.000000e+02 -8.000000e+02 -5.236200e-02
-6.806190e-10 -8.000000e+02 -5.236200e-02
-5.959550e-10 -1.200000e+03 -4.000500e+02
4.000000e+02 -1.200000e+03 -4.000500e+02
-5.868900e-10 -8.000000e+02 -4.000530e+02
4.000000e+02 -8.000000e+02 -4.000530e+02
-5.369690e-10 -1.200000e+03 -5.072240e-02
4.000000e+02 -1.200000e+03 -5.072240e-02
-6.806190e-10 -8.000000e+02 -5.236200e-02
4.000000e+02 -8.000000e+02 -5.236200e-02
-4.000000e+02 -8.000000e+02 -4.000530e+02
-5.868900e-10 -8.000000e+02 -4.000530e+02
-4.000000e+02 -4.000000e+02 -4.000520e+02
-7.366460e-10 -4.000000e+02 -4.000520e+02
-4.000000e+02 -8.000000e+02 -5.236200e-02
-6.806190e-10 -8.000000e+02 -5.236200e-02
-4.000000e+02 -4.000000e+02 -5.229790e-02
-8.898140e-10 -4.000000e+02 -5.229790e-02
-5.868900e-10 -8.000000e+02 -4.000530e+02
4.000000e+02 -8.000000e+02 -4.000530e+02
-7.366460e-10 -4.000000e+02 -4.000520e+02
4.000000e+02 -4.000000e+02 -4.000520e+02
-6.806190e-10 -8.000000e+02 -5.236200e-02
4.000000e+02 -8.000000e+02 -5.236200e-02
-8.898140e-10 -4.000000e+02 -5.229790e-02
4.000000e+02 -4.000000e+02 -5.229790e-02
-4.000000e+02 -4.000000e+02 -4.000520e+02
-7.366460e-10 -4.000000e+02 -4.000520e+02
-4.000000e+02 2.630260e-04 -4.000500e+02
-8.532250e-10 2.630260e-04 -4.000500e+02
-4.000000e+02 -4.000000e+02 -5.229790e-02
-8.898140e-10 -4.000000e+02 -5.229790e-02
-4.000000e+02 3.498860e-04 -4.968890e-02
-9.083320e-10 3.498860e-04 -4.968890e-02
-7.366460e-10 -4.000000e+02 -4.000520e+02
4.000000e+02 -4.000000e+02 -4.000520e+02
[...]
<PointData>
<DataArray type="Float32" Name="V1" format="ascii">
0.000000e+00
0.000000e+00
1.826430e-10
-7.684990e-11
0.000000e+00
0.000000e+00
2.111200e-10
7.664660e-11
0.000000e+00
0.000000e+00
-7.684990e-11
-2.739650e-10
0.000000e+00
0.000000e+00
7.664660e-11
2.454880e-11
1.826430e-10
-7.684990e-11
8.248410e-11
3.374410e-11
2.111200e-10
7.664660e-11
-1.129250e-10
-4.629780e-11
-7.684990e-11
-2.739650e-10
3.374410e-11
1.148890e-10
7.664660e-11
2.454880e-11
-4.629780e-11
-1.374730e-11
8.248410e-11
3.374410e-11
1.227440e-10
-7.256360e-11
-1.129250e-10
-4.629780e-11
-1.256900e-10
-2.364010e-11
3.374410e-11
1.148890e-10
-7.256360e-11
-3.584130e-10
-4.629780e-11
-1.374730e-11
-2.364010e-11
8.052020e-11
1.227440e-10
-7.256360e-11
-2.651270e-11
1.191200e-10
-1.256900e-10
-2.364010e-11
1.384550e-10
8.549410e-11
-7.256360e-11
-3.584130e-10
1.191200e-10
2.778930e-10
-2.364010e-11
8.052020e-11
8.549410e-11
5.007960e-11
-2.651270e-11
1.191200e-10
-9.819530e-13
2.644410e-11
1.384550e-10
8.549410e-11
-2.847660e-11
-1.367260e-10
1.191200e-10
2.778930e-10
2.644410e-11
-8.346600e-11
8.549410e-11
5.007960e-11
-1.367260e-10
-3.466300e-10
-9.819530e-13
2.644410e-11
-3.181530e-10
-3.301580e-11
-2.847660e-11
-1.367260e-10
-1.963910e-11
-5.930640e-11
2.644410e-11
-8.346600e-11
-3.301580e-11
2.101380e-10
-1.367260e-10
-3.466300e-10
-5.930640e-11
-1.197980e-10
-3.181530e-10
-3.301580e-11
2.160300e-11
2.745590e-12
-1.963910e-11
-5.930640e-11
3.927810e-11
7.653410e-11
-3.301580e-11
2.101380e-10
2.745590e-12
2.111200e-10
-5.930640e-11
-1.197980e-10
7.653410e-11
1.355100e-10
2.160300e-11
2.745590e-12
-9.819530e-13
2.290360e-11
3.927810e-11
7.653410e-11
2.454880e-11
4.144570e-11
2.745590e-12
2.111200e-10
2.290360e-11
-5.695330e-11
7.653410e-11
1.355100e-10
4.144570e-11
1.335460e-10
-9.819530e-13
2.290360e-11
-7.168260e-11
-6.734880e-11
2.454880e-11
4.144570e-11
-8.837580e-12
-9.246130e-12
2.290360e-11
-5.695330e-11
-6.734880e-11
-5.106160e-11
4.144570e-11
1.335460e-10
-9.246130e-12
3.044060e-11
-7.168260e-11
-6.734880e-11
8.739390e-11
3.653560e-12
-8.837580e-12
-9.246130e-12
-3.436840e-11
1.031640e-11
-6.734880e-11
-5.106160e-11
3.653560e-12
-1.021230e-10
-9.246130e-12
3.044060e-11
1.031640e-11
1.669320e-11
8.739390e-11
3.653560e-12
2.749470e-11
1.095380e-10
-3.436840e-11
1.031640e-11
-3.535030e-11
-1.345100e-12
3.653560e-12
-1.021230e-10
1.095380e-10
3.358280e-10
1.031640e-11
1.669320e-11
-1.345100e-12
3.633230e-11
2.749470e-11
1.095380e-10
3.338640e-10
1.798690e-10
-3.535030e-11
-1.345100e-12
-5.204350e-11
-1.494860e-10
1.095380e-10
3.358280e-10
1.798690e-10
8.248410e-11
-1.345100e-12
3.633230e-11
-1.494860e-10
-2.229030e-10
3.338640e-10
1.798690e-10
-2.022820e-10
-1.184770e-10
-5.204350e-11
-1.494860e-10
-2.042460e-10
-1.123110e-10
1.798690e-10
8.248410e-11
-1.184770e-10
5.891720e-12
-1.494860e-10
-2.229030e-10
-1.123110e-10
-9.819530e-13
-2.022820e-10
-1.184770e-10
1.502390e-10
-1.226610e-10
-2.042460e-10
-1.123110e-10
4.369690e-10
2.185560e-10
-1.184770e-10
5.891720e-12
-1.226610e-10
-3.515390e-10
-1.123110e-10
-9.819530e-13
2.185560e-10
1.571130e-11
1.502390e-10
-1.226610e-10
-1.001590e-10
3.653440e-14
4.369690e-10
2.185560e-10
-3.142250e-11
9.706430e-11
-1.226610e-10
-3.515390e-10
3.653440e-14
8.837580e-11
2.185560e-10
1.571130e-11
9.706430e-11
2.778930e-10
-1.001590e-10
3.653440e-14
-1.286360e-10
-1.067030e-10
-3.142250e-11
9.706430e-11
5.400740e-11
-2.855300e-11
3.653440e-14
8.837580e-11
-1.067030e-10
-7.659240e-11
9.706430e-11
2.778930e-10
-2.855300e-11
-1.865710e-10
-1.286360e-10
-1.067030e-10
1.865710e-11
-7.725370e-11
5.400740e-11
-2.855300e-11
-2.022820e-10
-1.758810e-11
-1.067030e-10
-7.659240e-11
-7.725370e-11
-2.229030e-10
-2.855300e-11
-1.865710e-10
-1.758810e-11
1.777340e-10
1.865710e-11
-7.725370e-11
-1.197980e-10
-8.714120e-11
-2.022820e-10
-1.758810e-11
1.796970e-10
1.858090e-10
-7.725370e-11
-2.229030e-10
-8.714120e-11
-1.472930e-10
-1.758810e-11
1.777340e-10
1.858090e-10
2.013000e-10
-1.197980e-10
-8.714120e-11
-1.001590e-10
-1.189390e-10
1.796970e-10
1.858090e-10
2.258490e-11
-4.864000e-11
-8.714120e-11
-1.472930e-10
-1.189390e-10
-1.836250e-10
1.858090e-10
2.013000e-10
-4.864000e-11
-8.935780e-11
-1.001590e-10
-1.189390e-10
-2.042460e-10
5.300700e-12
2.258490e-11
-4.864000e-11
2.062100e-11
6.192330e-11
-1.189390e-10
-1.836250e-10
5.300700e-12
2.739650e-10
-4.864000e-11
-8.935780e-11
6.192330e-11
1.021230e-10
-2.042460e-10
5.300700e-12
2.621820e-10
1.292290e-10
2.062100e-11
6.192330e-11
4.909770e-11
1.916610e-11
5.300700e-12
2.739650e-10
1.292290e-10
-6.775480e-11
6.192330e-11
1.021230e-10
1.916610e-11
6.088110e-11
2.621820e-10
1.292290e-10
-7.266460e-11
9.775500e-11
4.909770e-11
1.916610e-11
2.651270e-11
-6.228650e-11
1.292290e-10
-6.775480e-11
9.775500e-11
9.917730e-11
1.916610e-11
6.088110e-11
-6.228650e-11
-1.738060e-10
-7.266460e-11
9.775500e-11
5.695330e-11
5.605220e-11
2.651270e-11
-6.228650e-11
-8.346600e-11
-9.415340e-11
9.775500e-11
9.917730e-11
5.605220e-11
3.829620e-11
-6.228650e-11
-1.738060e-10
-9.415340e-11
-9.721340e-11
5.695330e-11
5.605220e-11
-1.099790e-10
-4.356250e-11
-8.346600e-11
-9.415340e-11
7.953820e-11
1.266870e-10
5.605220e-11
3.829620e-11
-4.356250e-11
8.052020e-11
-9.415340e-11
-9.721340e-11
1.266870e-10
1.247080e-10
-1.099790e-10
-4.356250e-11
-3.004780e-10
-2.032910e-10
7.953820e-11
1.266870e-10
-1.404190e-10
-1.166320e-10
-4.356250e-11
8.052020e-11
-2.032910e-10
-2.032640e-10
1.266870e-10
1.247080e-10
-1.166320e-10
-5.695330e-11
-3.004780e-10
-2.032910e-10
6.088110e-11
1.474200e-11
-1.404190e-10
-1.166320e-10
8.444800e-11
1.182720e-11
-2.032910e-10
-2.032640e-10
1.474200e-11
-8.837580e-12
-1.166320e-10
-5.695330e-11
1.182720e-11
-5.597130e-11
6.088110e-11
1.474200e-11
-1.296180e-10
-2.292090e-12
8.444800e-11
1.182720e-11
-1.983550e-10
-1.057070e-10
1.474200e-11
-8.837580e-12
-2.292090e-12
5.695330e-11
1.182720e-11
-5.597130e-11
-1.057070e-10
2.945860e-12
-1.296180e-10
-2.292090e-12
2.032640e-10
1.349210e-10
-1.983550e-10
-1.057070e-10
2.376330e-10
1.287600e-10
-2.292090e-12
5.695330e-11
1.349210e-10
8.346600e-11
-1.057070e-10
2.945860e-12
1.287600e-10
6.775480e-11
2.032640e-10
1.349210e-10
-1.639860e-10
-1.860100e-10
2.376330e-10
1.287600e-10
-4.026010e-11
6.925630e-11
1.349210e-10
8.346600e-11
-1.860100e-10
-2.013000e-10
1.287600e-10
6.775480e-11
6.925630e-11
1.630040e-10
-1.639860e-10
-1.860100e-10
2.612000e-10
3.864680e-10
-4.026010e-11
6.925630e-11
2.464700e-10
1.374560e-12
-1.860100e-10
-2.013000e-10
3.864680e-10
4.340230e-10
6.925630e-11
1.630040e-10
1.374560e-12
-3.377920e-10
0.000000e+00
0.000000e+00
2.111200e-10
7.664660e-11
0.000000e+00
0.000000e+00
-7.855630e-12
-3.137690e-11
0.000000e+00
0.000000e+00
7.664660e-11
2.454880e-11
0.000000e+00
0.000000e+00
-3.137690e-11
-2.160300e-11
2.111200e-10
7.664660e-11
-1.129250e-10
-4.629780e-11
-7.855630e-12
-3.137690e-11
2.395970e-10
9.510680e-11
7.664660e-11
2.454880e-11
-4.629780e-11
-1.374730e-11
-3.137690e-11
-2.160300e-11
9.510680e-11
-9.524950e-11
-1.129250e-10
-4.629780e-11
-1.256900e-10
-2.364010e-11
2.395970e-10
9.510680e-11
-2.111200e-10
-9.506050e-11
-4.629780e-11
-1.374730e-11
-2.364010e-11
8.052020e-11
9.510680e-11
-9.524950e-11
-9.506050e-11
-2.847660e-11
-1.256900e-10
-2.364010e-11
1.384550e-10
8.549410e-11
-2.111200e-10
-9.506050e-11
3.102970e-10
9.187930e-11
-2.364010e-11
8.052020e-11
8.549410e-11
5.007960e-11
-9.506050e-11
-2.847660e-11
9.187930e-11
-1.031050e-10
1.384550e-10
8.549410e-11
-2.847660e-11
-1.367260e-10
3.102970e-10
9.187930e-11
1.355100e-10
6.018550e-11
8.549410e-11
5.007960e-11
-1.367260e-10
-3.466300e-10
9.187930e-11
-1.031050e-10
6.018550e-11
1.561310e-10
-2.847660e-11
-1.367260e-10
-1.963910e-11
-5.930640e-11
1.355100e-10
6.018550e-11
-1.885350e-10
-1.279780e-10
-1.367260e-10
-3.466300e-10
-5.930640e-11
-1.197980e-10
6.018550e-11
1.561310e-10
-1.279780e-10
-3.927810e-11
-1.963910e-11
-5.930640e-11
3.927810e-11
7.653410e-11
-1.885350e-10
-1.279780e-10
-9.132170e-11
-4.842810e-11
-5.930640e-11
-1.197980e-10
7.653410e-11
1.355100e-10
-1.279780e-10
-3.927810e-11
-4.842810e-11
-7.855630e-12
3.927810e-11
7.653410e-11
2.454880e-11
4.144570e-11
-9.132170e-11
-4.842810e-11
3.387740e-10
1.145310e-10
7.653410e-11
1.355100e-10
4.144570e-11
1.335460e-10
-4.842810e-11
-7.855630e-12
1.145310e-10
-1.433650e-10
2.454880e-11
4.144570e-11
-8.837580e-12
-9.246130e-12
3.387740e-10
1.145310e-10
1.659500e-10
-6.138730e-11
4.144570e-11
1.335460e-10
-9.246130e-12
3.044060e-11
1.145310e-10
-1.433650e-10
-6.138730e-11
-1.777340e-10
-8.837580e-12
-9.246130e-12
-3.436840e-11
1.031640e-11
1.659500e-10
-6.138730e-11
-3.731420e-11
9.026590e-11
-9.246130e-12
3.044060e-11
1.031640e-11
1.669320e-11
-6.138730e-11
-1.777340e-10
9.026590e-11
1.423830e-10
-3.436840e-11
1.031640e-11
-3.535030e-11
-1.345100e-12
-3.731420e-11
9.026590e-11
9.132170e-11
1.560780e-10
1.031640e-11
1.669320e-11
-1.345100e-12
3.633230e-11
9.026590e-11
1.423830e-10
1.560780e-10
2.464700e-10
-3.535030e-11
-1.345100e-12
-5.204350e-11
-1.494860e-10
9.132170e-11
1.560780e-10
4.909770e-12
1.372080e-11
-1.345100e-12
3.633230e-11
-1.494860e-10
-2.229030e-10
1.560780e-10
2.464700e-10
1.372080e-11
-6.873670e-12
-5.204350e-11
-1.494860e-10
-2.042460e-10
-1.123110e-10
4.909770e-12
1.372080e-11
-2.219210e-10
-1.295740e-10
-1.494860e-10
-2.229030e-10
-1.123110e-10
-9.819530e-13
1.372080e-11
-6.873670e-12
-1.295740e-10
-1.865710e-11
-2.042460e-10
-1.123110e-10
4.369690e-10
2.185560e-10
-2.219210e-10
-1.295740e-10
-1.963910e-12
-5.843500e-12
-1.123110e-10
-9.819530e-13
2.185560e-10
1.571130e-11
-1.295740e-10
-1.865710e-11
-5.843500e-12
7.168260e-11
4.369690e-10
2.185560e-10
-3.142250e-11
9.706430e-11
-1.963910e-12
-5.843500e-12
-1.983550e-10
3.600560e-11
2.185560e-10
1.571130e-11
9.706430e-11
2.778930e-10
-5.843500e-12
7.168260e-11
3.600560e-11
2.562900e-10
-3.142250e-11
9.706430e-11
5.400740e-11
-2.855300e-11
-1.983550e-10
3.600560e-11
2.287950e-10
-4.618160e-11
9.706430e-11
2.778930e-10
-2.855300e-11
-1.865710e-10
3.600560e-11
2.562900e-10
-4.618160e-11
-2.778930e-10
5.400740e-11
-2.855300e-11
-2.022820e-10
-1.758810e-11
2.287950e-10
-4.618160e-11
-1.276540e-10
-2.552210e-11
-2.855300e-11
-1.865710e-10
-1.758810e-11
1.777340e-10
-4.618160e-11
-2.778930e-10
-2.552210e-11
9.426750e-11
-2.022820e-10
-1.758810e-11
1.796970e-10
1.858090e-10
-1.276540e-10
-2.552210e-11
8.641190e-11
2.324970e-11
-1.758810e-11
1.777340e-10
1.858090e-10
2.013000e-10
-2.552210e-11
9.426750e-11
2.324970e-11
1.963910e-12
1.796970e-10
1.858090e-10
2.258490e-11
-4.864000e-11
8.641190e-11
2.324970e-11
-1.944270e-10
3.104540e-12
1.858090e-10
2.013000e-10
-4.864000e-11
-8.935780e-11
2.324970e-11
1.963910e-12
3.104540e-12
6.677280e-11
2.258490e-11
-4.864000e-11
2.062100e-11
6.192330e-11
-1.944270e-10
3.104540e-12
-2.454880e-11
-1.135980e-10
-4.864000e-11
-8.935780e-11
6.192330e-11
1.021230e-10
3.104540e-12
6.677280e-11
-1.135980e-10
-1.266720e-10
2.062100e-11
6.192330e-11
4.909770e-11
1.916610e-11
-2.454880e-11
-1.135980e-10
4.526810e-10
2.762060e-10
6.192330e-11
1.021230e-10
1.916610e-11
6.088110e-11
-1.135980e-10
-1.266720e-10
2.762060e-10
7.659240e-11
4.909770e-11
1.916610e-11
2.651270e-11
-6.228650e-11
4.526810e-10
2.762060e-10
-9.132170e-11
-8.394480e-11
1.916610e-11
6.088110e-11
-6.228650e-11
-1.738060e-10
2.762060e-10
7.659240e-11
-8.394480e-11
-1.924630e-10
2.651270e-11
-6.228650e-11
-8.346600e-11
-9.415340e-11
-9.132170e-11
-8.394480e-11
-2.857480e-10
-1.907280e-10
-6.228650e-11
-1.738060e-10
-9.415340e-11
-9.721340e-11
-8.394480e-11
-1.924630e-10
-1.907280e-10
9.819530e-13
-8.346600e-11
-9.415340e-11
7.953820e-11
1.266870e-10
-2.857480e-10
-1.907280e-10
5.007960e-11
2.325130e-10
-9.415340e-11
-9.721340e-11
1.266870e-10
1.247080e-10
-1.907280e-10
9.819530e-13
2.325130e-10
3.201170e-10
7.953820e-11
1.266870e-10
-1.404190e-10
-1.166320e-10
5.007960e-11
2.325130e-10
-2.022820e-10
-2.443810e-10
1.266870e-10
1.247080e-10
-1.166320e-10
-5.695330e-11
2.325130e-10
3.201170e-10
-2.443810e-10
-2.592360e-10
-1.404190e-10
-1.166320e-10
8.444800e-11
1.182720e-11
-2.022820e-10
-2.443810e-10
2.641450e-10
4.989150e-11
-1.166320e-10
-5.695330e-11
1.182720e-11
-5.597130e-11
-2.443810e-10
-2.592360e-10
4.989150e-11
-1.129250e-10
8.444800e-11
1.182720e-11
-1.983550e-10
-1.057070e-10
2.641450e-10
4.989150e-11
-6.186310e-11
-1.016670e-10
1.182720e-11
-5.597130e-11
-1.057070e-10
2.945860e-12
4.989150e-11
-1.129250e-10
-1.016670e-10
-1.099790e-10
-1.983550e-10
-1.057070e-10
2.376330e-10
1.287600e-10
-6.186310e-11
-1.016670e-10
5.498940e-11
6.972830e-11
-1.057070e-10
2.945860e-12
1.287600e-10
6.775480e-11
-1.016670e-10
-1.099790e-10
6.972830e-11
7.070060e-11
2.376330e-10
1.287600e-10
-4.026010e-11
6.925630e-11
5.498940e-11
6.972830e-11
-1.139070e-10
-1.899210e-10
1.287600e-10
6.775480e-11
6.925630e-11
1.630040e-10
6.972830e-11
7.070060e-11
-1.899210e-10
-9.721340e-11
-4.026010e-11
6.925630e-11
2.464700e-10
1.374560e-12
-1.139070e-10
-1.899210e-10
-5.469480e-10
-2.939850e-10
6.925630e-11
1.630040e-10
1.374560e-12
-3.377920e-10
-1.899210e-10
-9.721340e-11
-2.939850e-10
-2.258490e-11
</DataArray>
<DataArray type="Float32" Name="V2" format="ascii">
0.000000e+00
0.000000e+00
5.942010e-04
5.942010e-04
0.000000e+00
0.000000e+00
-1.530840e-04
-1.530840e-04
0.000000e+00
0.000000e+00
5.942010e-04
5.942010e-04
0.000000e+00
0.000000e+00
-1.530840e-04
-1.530840e-04
5.942010e-04
5.942010e-04
-1.142250e-04
-1.142250e-04
-1.530840e-04
-1.530840e-04
3.767590e-04
3.767590e-04
5.942010e-04
5.942010e-04
-1.142250e-04
-1.142240e-04
-1.530840e-04
-1.530840e-04
3.767590e-04
3.767590e-04
-1.142250e-04
-1.142250e-04
-5.256680e-04
-5.256680e-04
3.767590e-04
3.767590e-04
5.844260e-04
5.844260e-04
-1.142250e-04
-1.142240e-04
-5.256680e-04
-5.256680e-04
3.767590e-04
3.767590e-04
5.844260e-04
5.844260e-04
-5.256680e-04
-5.256680e-04
1.580720e-03
1.580720e-03
5.844260e-04
5.844260e-04
-1.535280e-03
-1.535280e-03
-5.256680e-04
-5.256680e-04
1.580720e-03
1.580720e-03
5.844260e-04
5.844260e-04
-1.535280e-03
-1.535280e-03
1.580720e-03
1.580720e-03
1.116650e-03
1.116650e-03
-1.535280e-03
-1.535280e-03
-3.764700e-04
-3.764700e-04
1.580720e-03
1.580720e-03
1.116650e-03
1.116650e-03
-1.535280e-03
-1.535280e-03
-3.764700e-04
-3.764690e-04
1.116650e-03
1.116650e-03
5.082320e-04
5.082320e-04
-3.764700e-04
-3.764700e-04
8.564390e-05
8.564400e-05
1.116650e-03
1.116650e-03
5.082320e-04
5.082330e-04
-3.764700e-04
-3.764690e-04
8.564400e-05
8.564350e-05
5.082320e-04
5.082320e-04
6.424070e-04
6.424070e-04
8.564390e-05
8.564400e-05
-8.930430e-04
-8.930420e-04
5.082320e-04
5.082330e-04
6.424070e-04
6.424070e-04
8.564400e-05
8.564350e-05
-8.930420e-04
-8.930430e-04
6.424070e-04
6.424070e-04
-8.301310e-04
-8.301320e-04
-8.930430e-04
-8.930420e-04
-9.950170e-05
-9.950190e-05
6.424070e-04
6.424070e-04
-8.301320e-04
-8.301320e-04
-8.930420e-04
-8.930430e-04
-9.950190e-05
-9.950140e-05
-8.301310e-04
-8.301320e-04
-7.631250e-04
-7.631250e-04
-9.950170e-05
-9.950190e-05
3.024720e-04
3.024720e-04
-8.301320e-04
-8.301320e-04
-7.631250e-04
-7.631240e-04
-9.950190e-05
-9.950140e-05
3.024720e-04
3.024720e-04
-7.631250e-04
-7.631250e-04
2.187300e-03
2.187300e-03
3.024720e-04
3.024720e-04
-6.078790e-04
-6.078800e-04
-7.631250e-04
-7.631240e-04
2.187300e-03
2.187300e-03
3.024720e-04
3.024720e-04
-6.078800e-04
-6.078790e-04
2.187300e-03
2.187300e-03
1.277860e-03
1.277860e-03
-6.078790e-04
-6.078800e-04
9.392040e-05
9.391990e-05
2.187300e-03
2.187300e-03
1.277860e-03
1.277860e-03
-6.078800e-04
-6.078790e-04
9.391990e-05
9.392030e-05
1.277860e-03
1.277860e-03
-4.409190e-04
-4.409180e-04
9.392040e-05
9.391990e-05
3.770480e-04
3.770480e-04
1.277860e-03
1.277860e-03
-4.409180e-04
-4.409180e-04
9.391990e-05
9.392030e-05
3.770480e-04
3.770470e-04
-4.409190e-04
-4.409180e-04
4.288380e-04
4.288370e-04
3.770480e-04
3.770480e-04
-7.639540e-04
-7.639540e-04
-4.409180e-04
-4.409180e-04
4.288370e-04
4.288370e-04
3.770480e-04
3.770470e-04
-7.639540e-04
-7.639540e-04
4.288380e-04
4.288370e-04
-1.058750e-03
-1.058750e-03
-7.639540e-04
-7.639540e-04
7.772770e-04
7.772770e-04
4.288370e-04
4.288370e-04
-1.058750e-03
-1.058750e-03
-7.639540e-04
-7.639540e-04
7.772770e-04
7.772770e-04
-1.058750e-03
-1.058750e-03
-4.560640e-04
-4.560640e-04
7.772770e-04
7.772770e-04
5.028950e-04
5.028950e-04
-1.058750e-03
-1.058750e-03
-4.560640e-04
-4.560630e-04
7.772770e-04
7.772770e-04
5.028950e-04
5.028950e-04
-4.560640e-04
-4.560640e-04
1.367220e-04
1.367220e-04
5.028950e-04
5.028950e-04
-4.471930e-04
-4.471930e-04
-4.560640e-04
-4.560630e-04
1.367220e-04
1.367210e-04
5.028950e-04
5.028950e-04
-4.471930e-04
-4.471930e-04
1.367220e-04
1.367220e-04
-3.328130e-04
-3.328130e-04
-4.471930e-04
-4.471930e-04
-2.725430e-04
-2.725440e-04
1.367220e-04
1.367210e-04
-3.328130e-04
-3.328120e-04
-4.471930e-04
-4.471930e-04
-2.725440e-04
-2.725430e-04
-3.328130e-04
-3.328130e-04
-5.564090e-04
-5.564080e-04
-2.725430e-04
-2.725440e-04
-4.267240e-05
-4.267250e-05
-3.328130e-04
-3.328120e-04
-5.564080e-04
-5.564090e-04
-2.725440e-04
-2.725430e-04
-4.267250e-05
-4.267240e-05
-5.564090e-04
-5.564080e-04
-6.018410e-05
-6.018380e-05
-4.267240e-05
-4.267250e-05
-2.666900e-04
-2.666900e-04
-5.564080e-04
-5.564090e-04
-6.018380e-05
-6.018400e-05
-4.267250e-05
-4.267240e-05
-2.666900e-04
-2.666900e-04
-6.018410e-05
-6.018380e-05
-3.385670e-04
-3.385670e-04
-2.666900e-04
-2.666900e-04
8.696690e-04
8.696690e-04
-6.018380e-05
-6.018400e-05
-3.385670e-04
-3.385680e-04
-2.666900e-04
-2.666900e-04
8.696690e-04
8.696690e-04
-3.385670e-04
-3.385670e-04
-7.526830e-04
-7.526830e-04
8.696690e-04
8.696690e-04
9.991070e-04
9.991070e-04
-3.385670e-04
-3.385680e-04
-7.526830e-04
-7.526830e-04
8.696690e-04
8.696690e-04
9.991070e-04
9.991070e-04
-7.526830e-04
-7.526830e-04
9.062450e-04
9.062440e-04
9.991070e-04
9.991070e-04
-1.132490e-03
-1.132490e-03
-7.526830e-04
-7.526830e-04
9.062440e-04
9.062440e-04
9.991070e-04
9.991070e-04
-1.132490e-03
-1.132490e-03
9.062450e-04
9.062440e-04
1.019780e-03
1.019780e-03
-1.132490e-03
-1.132490e-03
-5.423330e-04
-5.423330e-04
9.062440e-04
9.062440e-04
1.019780e-03
1.019790e-03
-1.132490e-03
-1.132490e-03
-5.423330e-04
-5.423340e-04
1.019780e-03
1.019780e-03
4.649820e-04
4.649800e-04
-5.423330e-04
-5.423330e-04
5.538490e-04
5.538500e-04
1.019780e-03
1.019790e-03
4.649800e-04
4.649800e-04
-5.423330e-04
-5.423340e-04
5.538500e-04
5.538490e-04
4.649820e-04
4.649800e-04
3.160820e-04
3.160820e-04
5.538490e-04
5.538500e-04
-1.160840e-04
-1.160840e-04
4.649800e-04
4.649800e-04
3.160820e-04
3.160820e-04
5.538500e-04
5.538490e-04
-1.160840e-04
-1.160840e-04
3.160820e-04
3.160820e-04
-8.882090e-04
-8.882090e-04
-1.160840e-04
-1.160840e-04
-5.609630e-06
-5.609520e-06
3.160820e-04
3.160820e-04
-8.882090e-04
-8.882090e-04
-1.160840e-04
-1.160840e-04
-5.609520e-06
-5.609530e-06
-8.882090e-04
-8.882090e-04
-1.961510e-03
-1.961510e-03
-5.609630e-06
-5.609520e-06
8.467580e-04
8.467580e-04
-8.882090e-04
-8.882090e-04
-1.961510e-03
-1.961510e-03
-5.609520e-06
-5.609530e-06
8.467580e-04
8.467590e-04
-1.961510e-03
-1.961510e-03
-8.646660e-04
-8.646660e-04
8.467580e-04
8.467580e-04
7.119240e-04
7.119240e-04
-1.961510e-03
-1.961510e-03
-8.646660e-04
-8.646660e-04
8.467580e-04
8.467590e-04
7.119240e-04
7.119230e-04
-8.646660e-04
-8.646660e-04
3.685300e-04
3.685300e-04
7.119240e-04
7.119240e-04
3.969670e-04
3.969670e-04
-8.646660e-04
-8.646660e-04
3.685300e-04
3.685300e-04
7.119240e-04
7.119230e-04
3.969670e-04
3.969670e-04
3.685300e-04
3.685300e-04
6.721400e-04
6.721410e-04
3.969670e-04
3.969670e-04
3.329900e-04
3.329900e-04
3.685300e-04
3.685300e-04
6.721410e-04
6.721410e-04
3.969670e-04
3.969670e-04
3.329900e-04
3.329900e-04
0.000000e+00
0.000000e+00
-1.530840e-04
-1.530840e-04
0.000000e+00
0.000000e+00
-2.881060e-04
-2.881060e-04
0.000000e+00
0.000000e+00
-1.530840e-04
-1.530840e-04
0.000000e+00
0.000000e+00
-2.881060e-04
-2.881060e-04
-1.530840e-04
-1.530840e-04
3.767590e-04
3.767590e-04
-2.881060e-04
-2.881060e-04
-6.398010e-04
-6.398010e-04
-1.530840e-04
-1.530840e-04
3.767590e-04
3.767590e-04
-2.881060e-04
-2.881060e-04
-6.398010e-04
-6.398010e-04