<?xml version="1.0"?>
<VTKFile type="UnstructuredGrid" version="0.1" byte_order="LittleEndian" compressor="vtkZLibDataCompressor">
<UnstructuredGrid>
<Piece NumberOfPoints="960" NumberOfCells="120">
<Points>
<DataArray type="Float32" NumberOfComponents="3" format="ascii">
-4.000000e+02 -6.000000e+03 -4.000000e+02
0.000000e+00 -6.000000e+03 -4.000000e+02
-4.000990e+02 -5.600180e+03 -4.002720e+02
-1.024170e-01 -5.600240e+03 -4.005210e+02
-4.000000e+02 -6.000000e+03 0.000000e+00
0.000000e+00 -6.000000e+03 0.000000e+00
-4.000450e+02 -5.600050e+03 -1.691090e-02
-4.362810e-02 -5.600010e+03 2.349500e-02
0.000000e+00 -6.000000e+03 -4.000000e+02
4.000000e+02 -6.000000e+03 -4.000000e+02
-1.024170e-01 -5.600240e+03 -4.005210e+02
3.998950e+02 -5.600300e+03 -4.007620e+02
0.000000e+00 -6.000000e+03 0.000000e+00
4.000000e+02 -6.000000e+03 0.000000e+00
-4.362810e-02 -5.600010e+03 2.349500e-02
3.999580e+02 -5.599970e+03 5.365600e-02
-4.000990e+02 -5.600180e+03 -4.002720e+02
-1.024170e-01 -5.600240e+03 -4.005210e+02
-4.002750e+02 -5.200260e+03 -3.997670e+02
-2.768870e-01 -5.200220e+03 -4.002820e+02
-4.000450e+02 -5.600050e+03 -1.691090e-02
-4.362810e-02 -5.600010e+03 2.349500e-02
-3.999700e+02 -5.200110e+03 -2.938140e-01
2.930700e-02 -5.200110e+03 -4.359130e-01
-1.024170e-01 -5.600240e+03 -4.005210e+02
3.998950e+02 -5.600300e+03 -4.007620e+02
-2.768870e-01 -5.200220e+03 -4.002820e+02
3.997210e+02 -5.200190e+03 -4.007990e+02
-4.362810e-02 -5.600010e+03 2.349500e-02
3.999580e+02 -5.599970e+03 5.365600e-02
2.930700e-02 -5.200110e+03 -4.359130e-01
4.000290e+02 -5.200110e+03 -5.855060e-01
-4.002750e+02 -5.200260e+03 -3.997670e+02
-2.768870e-01 -5.200220e+03 -4.002820e+02
-4.003560e+02 -4.800180e+03 -4.003460e+02
-3.564450e-01 -4.800150e+03 -4.005200e+02
-3.999700e+02 -5.200110e+03 -2.938140e-01
2.930700e-02 -5.200110e+03 -4.359130e-01
-3.999740e+02 -4.800020e+03 -2.457550e-01
2.824550e-02 -4.800060e+03 -4.365940e-01
-2.768870e-01 -5.200220e+03 -4.002820e+02
3.997210e+02 -5.200190e+03 -4.007990e+02
-3.564450e-01 -4.800150e+03 -4.005200e+02
3.996430e+02 -4.800090e+03 -4.007060e+02
2.930700e-02 -5.200110e+03 -4.359130e-01
4.000290e+02 -5.200110e+03 -5.855060e-01
2.824550e-02 -4.800060e+03 -4.365940e-01
4.000310e+02 -4.800090e+03 -6.153300e-01
-4.003560e+02 -4.800180e+03 -4.003460e+02
-3.564450e-01 -4.800150e+03 -4.005200e+02
-4.001630e+02 -4.400090e+03 -4.007720e+02
-1.630440e-01 -4.400130e+03 -4.009370e+02
-3.999740e+02 -4.800020e+03 -2.457550e-01
2.824550e-02 -4.800060e+03 -4.365940e-01
-3.999730e+02 -4.399930e+03 -7.699160e-01
2.878220e-02 -4.399920e+03 -7.581220e-01
-3.564450e-01 -4.800150e+03 -4.005200e+02
3.996430e+02 -4.800090e+03 -4.007060e+02
-1.630440e-01 -4.400130e+03 -4.009370e+02
3.998380e+02 -4.400190e+03 -4.010940e+02
2.824550e-02 -4.800060e+03 -4.365940e-01
4.000310e+02 -4.800090e+03 -6.153300e-01
2.878220e-02 -4.399920e+03 -7.581220e-01
4.000300e+02 -4.399910e+03 -7.440980e-01
-4.001630e+02 -4.400090e+03 -4.007720e+02
-1.630440e-01 -4.400130e+03 -4.009370e+02
-4.001500e+02 -3.999960e+03 -4.010750e+02
-1.525440e-01 -3.999990e+03 -4.010960e+02
-3.999730e+02 -4.399930e+03 -7.699160e-01
2.878220e-02 -4.399920e+03 -7.581220e-01
-4.000510e+02 -3.999970e+03 -8.756430e-01
-4.828660e-02 -4.000000e+03 -1.128630e+00
-1.630440e-01 -4.400130e+03 -4.009370e+02
3.998380e+02 -4.400190e+03 -4.010940e+02
-1.525440e-01 -3.999990e+03 -4.010960e+02
3.998450e+02 -4.000020e+03 -4.011380e+02
2.878220e-02 -4.399920e+03 -7.581220e-01
4.000300e+02 -4.399910e+03 -7.440980e-01
-4.828660e-02 -4.000000e+03 -1.128630e+00
3.999550e+02 -4.000030e+03 -1.384010e+00
-4.001500e+02 -3.999960e+03 -4.010750e+02
-1.525440e-01 -3.999990e+03 -4.010960e+02
-3.999650e+02 -3.600160e+03 -4.004780e+02
3.218740e-02 -3.600160e+03 -4.008150e+02
-4.000510e+02 -3.999970e+03 -8.756430e-01
-4.828660e-02 -4.000000e+03 -1.128630e+00
-3.999810e+02 -3.600010e+03 -1.861070e+00
1.803960e-02 -3.600000e+03 -1.587460e+00
-1.525440e-01 -3.999990e+03 -4.010960e+02
3.998450e+02 -4.000020e+03 -4.011380e+02
3.218740e-02 -3.600160e+03 -4.008150e+02
4.000290e+02 -3.600160e+03 -4.011500e+02
-4.828660e-02 -4.000000e+03 -1.128630e+00
3.999550e+02 -4.000030e+03 -1.384010e+00
1.803960e-02 -3.600000e+03 -1.587460e+00
4.000170e+02 -3.599990e+03 -1.315070e+00
-3.999650e+02 -3.600160e+03 -4.004780e+02
3.218740e-02 -3.600160e+03 -4.008150e+02
-3.998330e+02 -3.200210e+03 -4.019630e+02
1.707550e-01 -3.200260e+03 -4.018790e+02
-3.999810e+02 -3.600010e+03 -1.861070e+00
1.803960e-02 -3.600000e+03 -1.587460e+00
-4.000150e+02 -3.200140e+03 -1.455820e+00
-1.854810e-02 -3.200040e+03 -1.227550e+00
3.218740e-02 -3.600160e+03 -4.008150e+02
4.000290e+02 -3.600160e+03 -4.011500e+02
1.707550e-01 -3.200260e+03 -4.018790e+02
4.001740e+02 -3.200330e+03 -4.018070e+02
1.803960e-02 -3.600000e+03 -1.587460e+00
4.000170e+02 -3.599990e+03 -1.315070e+00
-1.854810e-02 -3.200040e+03 -1.227550e+00
3.999780e+02 -3.199940e+03 -1.008660e+00
-3.998330e+02 -3.200210e+03 -4.019630e+02
1.707550e-01 -3.200260e+03 -4.018790e+02
-3.999350e+02 -2.800260e+03 -4.020710e+02
6.723760e-02 -2.800250e+03 -4.015800e+02
-4.000150e+02 -3.200140e+03 -1.455820e+00
-1.854810e-02 -3.200040e+03 -1.227550e+00
-3.999240e+02 -2.800000e+03 -1.248030e+00
7.538060e-02 -2.800040e+03 -1.489630e+00
1.707550e-01 -3.200260e+03 -4.018790e+02
4.001740e+02 -3.200330e+03 -4.018070e+02
6.723760e-02 -2.800250e+03 -4.015800e+02
4.000690e+02 -2.800240e+03 -4.010830e+02
-1.854810e-02 -3.200040e+03 -1.227550e+00
3.999780e+02 -3.199940e+03 -1.008660e+00
7.538060e-02 -2.800040e+03 -1.489630e+00
4.000750e+02 -2.800100e+03 -1.746720e+00
-3.999350e+02 -2.800260e+03 -4.020710e+02
6.723760e-02 -2.800250e+03 -4.015800e+02
-3.999230e+02 -2.400120e+03 -4.016710e+02
7.699980e-02 -2.400110e+03 -4.015610e+02
-3.999240e+02 -2.800000e+03 -1.248030e+00
7.538060e-02 -2.800040e+03 -1.489630e+00
-4.001440e+02 -2.399980e+03 -1.872070e+00
-1.427880e-01 -2.400030e+03 -1.898710e+00
6.723760e-02 -2.800250e+03 -4.015800e+02
4.000690e+02 -2.800240e+03 -4.010830e+02
7.699980e-02 -2.400110e+03 -4.015610e+02
4.000770e+02 -2.400120e+03 -4.014410e+02
7.538060e-02 -2.800040e+03 -1.489630e+00
4.000750e+02 -2.800100e+03 -1.746720e+00
-1.427880e-01 -2.400030e+03 -1.898710e+00
3.998590e+02 -2.400070e+03 -1.910590e+00
-3.999230e+02 -2.400120e+03 -4.016710e+02
7.699980e-02 -2.400110e+03 -4.015610e+02
-4.001190e+02 -2.000020e+03 -4.017360e+02
-1.195510e-01 -2.000060e+03 -4.018200e+02
-4.001440e+02 -2.399980e+03 -1.872070e+00
-1.427880e-01 -2.400030e+03 -1.898710e+00
-4.000790e+02 -2.000000e+03 -1.630950e+00
-7.901620e-02 -1.999960e+03 -1.821770e+00
7.699980e-02 -2.400110e+03 -4.015610e+02
4.000770e+02 -2.400120e+03 -4.014410e+02
-1.195510e-01 -2.000060e+03 -4.018200e+02
3.998800e+02 -2.000100e+03 -4.019080e+02
-1.427880e-01 -2.400030e+03 -1.898710e+00
3.998590e+02 -2.400070e+03 -1.910590e+00
-7.901620e-02 -1.999960e+03 -1.821770e+00
3.999210e+02 -1.999920e+03 -2.013530e+00
-4.001190e+02 -2.000020e+03 -4.017360e+02
-1.195510e-01 -2.000060e+03 -4.018200e+02
-4.000920e+02 -1.600230e+03 -4.023020e+02
-9.049520e-02 -1.600270e+03 -4.021830e+02
-4.000790e+02 -2.000000e+03 -1.630950e+00
-7.901620e-02 -1.999960e+03 -1.821770e+00
-3.999520e+02 -1.599960e+03 -2.245250e+00
4.672080e-02 -1.599890e+03 -2.423350e+00
-1.195510e-01 -2.000060e+03 -4.018200e+02
3.998800e+02 -2.000100e+03 -4.019080e+02
-9.049520e-02 -1.600270e+03 -4.021830e+02
3.999120e+02 -1.600310e+03 -4.020530e+02
-7.901620e-02 -1.999960e+03 -1.821770e+00
3.999210e+02 -1.999920e+03 -2.013530e+00
4.672080e-02 -1.599890e+03 -2.423350e+00
4.000450e+02 -1.599840e+03 -2.615890e+00
-4.000920e+02 -1.600230e+03 -4.023020e+02
-9.049520e-02 -1.600270e+03 -4.021830e+02
-3.999970e+02 -1.200390e+03 -4.027990e+02
7.657570e-03 -1.200400e+03 -4.027070e+02
-3.999520e+02 -1.599960e+03 -2.245250e+00
4.672080e-02 -1.599890e+03 -2.423350e+00
-4.000230e+02 -1.200040e+03 -2.394950e+00
-2.641640e-02 -1.200040e+03 -2.648430e+00
-9.049520e-02 -1.600270e+03 -4.021830e+02
3.999120e+02 -1.600310e+03 -4.020530e+02
7.657570e-03 -1.200400e+03 -4.027070e+02
4.000120e+02 -1.200420e+03 -4.026110e+02
4.672080e-02 -1.599890e+03 -2.423350e+00
4.000450e+02 -1.599840e+03 -2.615890e+00
-2.641640e-02 -1.200040e+03 -2.648430e+00
3.999710e+02 -1.200050e+03 -2.895220e+00
-3.999970e+02 -1.200390e+03 -4.027990e+02
7.657570e-03 -1.200400e+03 -4.027070e+02
-3.999670e+02 -8.005900e+02 -4.030330e+02
3.789680e-02 -8.005330e+02 -4.030660e+02
-4.000230e+02 -1.200040e+03 -2.394950e+00
-2.641640e-02 -1.200040e+03 -2.648430e+00
-4.000280e+02 -8.001110e+02 -2.922190e+00
-3.008900e-02 -8.001070e+02 -2.796890e+00
7.657570e-03 -1.200400e+03 -4.027070e+02
4.000120e+02 -1.200420e+03 -4.026110e+02
3.789680e-02 -8.005330e+02 -4.030660e+02
4.000420e+02 -8.004870e+02 -4.031060e+02
-2.641640e-02 -1.200040e+03 -2.648430e+00
3.999710e+02 -1.200050e+03 -2.895220e+00
-3.008900e-02 -8.001070e+02 -2.796890e+00
3.999680e+02 -8.000970e+02 -2.671970e+00
-3.999670e+02 -8.005900e+02 -4.030330e+02
3.789680e-02 -8.005330e+02 -4.030660e+02
-3.999070e+02 -4.002770e+02 -4.033410e+02
8.526800e-02 -4.003410e+02 -4.032460e+02
-4.000280e+02 -8.001110e+02 -2.922190e+00
-3.008900e-02 -8.001070e+02 -2.796890e+00
-3.999850e+02 -4.000390e+02 -3.644800e+00
1.859350e-02 -4.000130e+02 -3.423710e+00
3.789680e-02 -8.005330e+02 -4.030660e+02
4.000420e+02 -8.004870e+02 -4.031060e+02
8.526800e-02 -4.003410e+02 -4.032460e+02
4.000780e+02 -4.003900e+02 -4.031510e+02
-3.008900e-02 -8.001070e+02 -2.796890e+00
3.999680e+02 -8.000970e+02 -2.671970e+00
1.859350e-02 -4.000130e+02 -3.423710e+00
4.000220e+02 -4.000100e+02 -3.197540e+00
-3.999070e+02 -4.002770e+02 -4.033410e+02
8.526800e-02 -4.003410e+02 -4.032460e+02
-3.997030e+02 -9.432750e-02 -4.041500e+02
2.982580e-01 -1.380420e-01 -4.039180e+02
-3.999850e+02 -4.000390e+02 -3.644800e+00
1.859350e-02 -4.000130e+02 -3.423710e+00
-3.999820e+02 3.648750e-02 -3.621200e+00
1.710910e-02 2.600840e-02 -3.410970e+00
8.526800e-02 -4.003410e+02 -4.032460e+02
4.000780e+02 -4.003900e+02 -4.031510e+02
[...]
<PointData>
<DataArray type="Float32" Name="V1" format="ascii">
0.000000e+00
0.000000e+00
-3.677460e-02
-5.110530e-02
0.000000e+00
0.000000e+00
3.931620e-02
4.979120e-02
0.000000e+00
0.000000e+00
-5.110530e-02
-6.672990e-02
0.000000e+00
0.000000e+00
4.979120e-02
5.979870e-02
-3.677460e-02
-5.110530e-02
-6.138870e-02
-4.779190e-02
3.931620e-02
4.979120e-02
-3.536100e-02
-4.483540e-02
-5.110530e-02
-6.672990e-02
-4.779190e-02
-3.214310e-02
4.979120e-02
5.979870e-02
-4.483540e-02
-5.391080e-02
-6.138870e-02
-4.779190e-02
-8.504890e-02
-9.397380e-02
-3.536100e-02
-4.483540e-02
1.319130e-01
1.360120e-01
-4.779190e-02
-3.214310e-02
-9.397380e-02
-1.034250e-01
-4.483540e-02
-5.391080e-02
1.360120e-01
1.400470e-01
-8.504890e-02
-9.397380e-02
9.335920e-02
1.106670e-01
1.319130e-01
1.360120e-01
-1.603240e-01
-1.745530e-01
-9.397380e-02
-1.034250e-01
1.106670e-01
1.288360e-01
1.360120e-01
1.400470e-01
-1.745530e-01
-1.885710e-01
9.335920e-02
1.106670e-01
-1.911620e-01
-1.888280e-01
-1.603240e-01
-1.745530e-01
1.478950e-01
1.458700e-01
1.106670e-01
1.288360e-01
-1.888280e-01
-1.885110e-01
-1.745530e-01
-1.885710e-01
1.458700e-01
1.443810e-01
-1.911620e-01
-1.888280e-01
-6.323500e-02
-5.912800e-02
1.478950e-01
1.458700e-01
-5.326380e-02
-6.232140e-02
-1.888280e-01
-1.885110e-01
-5.912800e-02
-5.346370e-02
1.458700e-01
1.443810e-01
-6.232140e-02
-7.217040e-02
-6.323500e-02
-5.912800e-02
5.397320e-02
4.635070e-02
-5.326380e-02
-6.232140e-02
-5.397210e-02
-4.448160e-02
-5.912800e-02
-5.346370e-02
4.635070e-02
3.840740e-02
-6.232140e-02
-7.217040e-02
-4.448160e-02
-3.453080e-02
5.397320e-02
4.635070e-02
-7.470560e-03
-3.505600e-03
-5.397210e-02
-4.448160e-02
1.468530e-02
1.008580e-02
4.635070e-02
3.840740e-02
-3.505600e-03
-2.395450e-04
-4.448160e-02
-3.453080e-02
1.008580e-02
5.034360e-03
-7.470560e-03
-3.505600e-03
2.301170e-03
1.363870e-02
1.468530e-02
1.008580e-02
2.106770e-02
8.626770e-03
-3.505600e-03
-2.395450e-04
1.363870e-02
2.764370e-02
1.008580e-02
5.034360e-03
8.626770e-03
-3.784410e-03
2.301170e-03
1.363870e-02
1.419750e-02
1.119300e-02
2.106770e-02
8.626770e-03
4.410930e-02
4.549740e-02
1.363870e-02
2.764370e-02
1.119300e-02
7.258410e-03
8.626770e-03
-3.784410e-03
4.549740e-02
4.685000e-02
1.419750e-02
1.119300e-02
6.764790e-03
1.048130e-02
4.410930e-02
4.549740e-02
-4.104750e-03
-8.397970e-03
1.119300e-02
7.258410e-03
1.048130e-02
1.549780e-02
4.549740e-02
4.685000e-02
-8.397970e-03
-1.259210e-02
6.764790e-03
1.048130e-02
-1.194070e-01
-1.181050e-01
-4.104750e-03
-8.397970e-03
1.446680e-01
1.485350e-01
1.048130e-02
1.549780e-02
-1.181050e-01
-1.183550e-01
-8.397970e-03
-1.259210e-02
1.485350e-01
1.520270e-01
-1.194070e-01
-1.181050e-01
-4.732950e-02
-4.184470e-02
1.446680e-01
1.485350e-01
-1.977200e-02
-2.401580e-02
-1.181050e-01
-1.183550e-01
-4.184470e-02
-3.481970e-02
1.485350e-01
1.520270e-01
-2.401580e-02
-2.802580e-02
-4.732950e-02
-4.184470e-02
3.129900e-02
2.880740e-02
-1.977200e-02
-2.401580e-02
5.339090e-03
2.857910e-03
-4.184470e-02
-3.481970e-02
2.880740e-02
2.546850e-02
-2.401580e-02
-2.802580e-02
2.857910e-03
-4.826220e-05
3.129900e-02
2.880740e-02
-1.985250e-01
-1.909610e-01
5.339090e-03
2.857910e-03
1.288720e-01
1.259020e-01
2.880740e-02
2.546850e-02
-1.909610e-01
-1.856920e-01
2.857910e-03
-4.826220e-05
1.259020e-01
1.231780e-01
-1.985250e-01
-1.909610e-01
1.595040e-01
1.661840e-01
1.288720e-01
1.259020e-01
-1.682230e-01
-1.747960e-01
-1.909610e-01
-1.856920e-01
1.661840e-01
1.760340e-01
1.259020e-01
1.231780e-01
-1.747960e-01
-1.818330e-01
1.595040e-01
1.661840e-01
4.807540e-02
4.100820e-02
-1.682230e-01
-1.747960e-01
-5.191070e-02
-4.098620e-02
1.661840e-01
1.760340e-01
4.100820e-02
3.509400e-02
-1.747960e-01
-1.818330e-01
-4.098620e-02
-3.055270e-02
4.807540e-02
4.100820e-02
-2.486620e-02
-2.472680e-02
-5.191070e-02
-4.098620e-02
8.997880e-02
8.880320e-02
4.100820e-02
3.509400e-02
-2.472680e-02
-2.394830e-02
-4.098620e-02
-3.055270e-02
8.880320e-02
8.774860e-02
-2.486620e-02
-2.472680e-02
1.055470e-01
9.418760e-02
8.997880e-02
8.880320e-02
-7.410860e-02
-6.870510e-02
-2.472680e-02
-2.394830e-02
9.418760e-02
8.323270e-02
8.880320e-02
8.774860e-02
-6.870510e-02
-6.376930e-02
1.055470e-01
9.418760e-02
4.641920e-03
-7.087290e-03
-7.410860e-02
-6.870510e-02
2.639780e-02
3.621970e-02
9.418760e-02
8.323270e-02
-7.087290e-03
-1.801370e-02
-6.870510e-02
-6.376930e-02
3.621970e-02
4.554070e-02
4.641920e-03
-7.087290e-03
9.006110e-02
9.045920e-02
2.639780e-02
3.621970e-02
-8.495680e-02
-8.538360e-02
-7.087290e-03
-1.801370e-02
9.045920e-02
8.929820e-02
3.621970e-02
4.554070e-02
-8.538360e-02
-8.590310e-02
9.006110e-02
9.045920e-02
-2.000940e-01
-1.982680e-01
-8.495680e-02
-8.538360e-02
1.788580e-02
1.757470e-02
9.045920e-02
8.929820e-02
-1.982680e-01
-1.972360e-01
-8.538360e-02
-8.590310e-02
1.757470e-02
1.655690e-02
-2.000940e-01
-1.982680e-01
1.224910e-01
1.350590e-01
1.788580e-02
1.757470e-02
-1.187080e-01
-1.213810e-01
-1.982680e-01
-1.972360e-01
1.350590e-01
1.502670e-01
1.757470e-02
1.655690e-02
-1.213810e-01
-1.246900e-01
1.224910e-01
1.350590e-01
-2.029790e-01
-2.153540e-01
-1.187080e-01
-1.213810e-01
1.429750e-01
1.551600e-01
1.350590e-01
1.502670e-01
-2.153540e-01
-2.282950e-01
-1.213810e-01
-1.246900e-01
1.551600e-01
1.668740e-01
-2.029790e-01
-2.153540e-01
-3.383630e-02
-2.728420e-02
1.429750e-01
1.551600e-01
9.041520e-02
7.550750e-02
-2.153540e-01
-2.282950e-01
-2.728420e-02
-2.055660e-02
1.551600e-01
1.668740e-01
7.550750e-02
6.038120e-02
-3.383630e-02
-2.728420e-02
1.480770e-01
1.344040e-01
9.041520e-02
7.550750e-02
-9.947070e-02
-8.864730e-02
-2.728420e-02
-2.055660e-02
1.344040e-01
1.216640e-01
7.550750e-02
6.038120e-02
-8.864730e-02
-7.863140e-02
1.480770e-01
1.344040e-01
1.200810e-05
8.891660e-03
-9.947070e-02
-8.864730e-02
-1.083530e-01
-1.135200e-01
1.344040e-01
1.216640e-01
8.891660e-03
1.943300e-02
-8.864730e-02
-7.863140e-02
-1.135200e-01
-1.190930e-01
1.200810e-05
8.891660e-03
5.617200e-03
6.818460e-03
-1.083530e-01
-1.135200e-01
6.584360e-02
6.813610e-02
8.891660e-03
1.943300e-02
6.818460e-03
8.429910e-03
-1.135200e-01
-1.190930e-01
6.813610e-02
6.979750e-02
5.617200e-03
6.818460e-03
-2.231640e-01
-2.105500e-01
6.584360e-02
6.813610e-02
1.961510e-01
1.916190e-01
6.818460e-03
8.429910e-03
-2.105500e-01
-1.999900e-01
6.813610e-02
6.979750e-02
1.916190e-01
1.871040e-01
-2.231640e-01
-2.105500e-01
2.044380e-01
1.853160e-01
1.961510e-01
1.916190e-01
-1.878340e-01
-1.928260e-01
-2.105500e-01
-1.999900e-01
1.853160e-01
1.681680e-01
1.916190e-01
1.871040e-01
-1.928260e-01
-1.990470e-01
0.000000e+00
0.000000e+00
3.931620e-02
4.979120e-02
0.000000e+00
0.000000e+00
-4.628130e-02
-4.795480e-02
0.000000e+00
0.000000e+00
4.979120e-02
5.979870e-02
0.000000e+00
0.000000e+00
-4.795480e-02
-4.759960e-02
3.931620e-02
4.979120e-02
-3.536100e-02
-4.483540e-02
-4.628130e-02
-4.795480e-02
1.317100e-01
1.359300e-01
4.979120e-02
5.979870e-02
-4.483540e-02
-5.391080e-02
-4.795480e-02
-4.759960e-02
1.359300e-01
1.378610e-01
-3.536100e-02
-4.483540e-02
1.319130e-01
1.360120e-01
1.317100e-01
1.359300e-01
-1.848540e-01
-1.840790e-01
-4.483540e-02
-5.391080e-02
1.360120e-01
1.400470e-01
1.359300e-01
1.378610e-01
-1.840790e-01
-1.828310e-01
1.319130e-01
1.360120e-01
-1.603240e-01
-1.745530e-01
-1.848540e-01
-1.840790e-01
2.310140e-01
2.446520e-01
1.360120e-01
1.400470e-01
-1.745530e-01
-1.885710e-01
-1.840790e-01
-1.828310e-01
2.446520e-01
2.579570e-01
-1.603240e-01
-1.745530e-01
1.478950e-01
1.458700e-01
2.310140e-01
2.446520e-01
-1.099080e-01
-1.055820e-01
-1.745530e-01
-1.885710e-01
1.458700e-01
1.443810e-01
2.446520e-01
2.579570e-01
-1.055820e-01
-9.951760e-02
1.478950e-01
1.458700e-01
-5.326380e-02
-6.232140e-02
-1.099080e-01
-1.055820e-01
1.733220e-01
1.786160e-01
1.458700e-01
1.443810e-01
-6.232140e-02
-7.217040e-02
-1.055820e-01
-9.951760e-02
1.786160e-01
1.840600e-01
-5.326380e-02
-6.232140e-02
-5.397210e-02
-4.448160e-02
1.733220e-01
1.786160e-01
6.172860e-02
5.423570e-02
-6.232140e-02
-7.217040e-02
-4.448160e-02
-3.453080e-02
1.786160e-01
1.840600e-01
5.423570e-02
4.620240e-02
-5.397210e-02
-4.448160e-02
1.468530e-02
1.008580e-02
6.172860e-02
5.423570e-02
-3.086890e-02
-2.200310e-02
-4.448160e-02
-3.453080e-02
1.008580e-02
5.034360e-03
5.423570e-02
4.620240e-02
-2.200310e-02
-1.141150e-02
1.468530e-02
1.008580e-02
2.106770e-02
8.626770e-03
-3.086890e-02
-2.200310e-02
-4.346870e-02
-3.000710e-02
1.008580e-02
5.034360e-03
8.626770e-03
-3.784410e-03
-2.200310e-02
-1.141150e-02
-3.000710e-02
-1.912320e-02
2.106770e-02
8.626770e-03
4.410930e-02
4.549740e-02
-4.346870e-02
-3.000710e-02
-1.013890e-01
-1.049270e-01
8.626770e-03
-3.784410e-03
4.549740e-02
4.685000e-02
-3.000710e-02
-1.912320e-02
-1.049270e-01
-1.075180e-01
4.410930e-02
4.549740e-02
-4.104750e-03
-8.397970e-03
-1.013890e-01
-1.049270e-01
-9.756780e-04
5.731180e-03
4.549740e-02
4.685000e-02
-8.397970e-03
-1.259210e-02
-1.049270e-01
-1.075180e-01
5.731180e-03
1.188600e-02
-4.104750e-03
-8.397970e-03
1.446680e-01
1.485350e-01
-9.756780e-04
5.731180e-03
-1.747420e-01
-1.821800e-01
-8.397970e-03
-1.259210e-02
1.485350e-01
1.520270e-01
5.731180e-03
1.188600e-02
-1.821800e-01
-1.872130e-01
1.446680e-01
1.485350e-01
-1.977200e-02
-2.401580e-02
-1.747420e-01
-1.821800e-01
9.705260e-02
9.960440e-02
1.485350e-01
1.520270e-01
-2.401580e-02
-2.802580e-02
-1.821800e-01
-1.872130e-01
9.960440e-02
1.012920e-01
-1.977200e-02
-2.401580e-02
5.339090e-03
2.857910e-03
9.705260e-02
9.960440e-02
-5.048290e-02
-4.286490e-02
-2.401580e-02
-2.802580e-02
2.857910e-03
-4.826220e-05
9.960440e-02
1.012920e-01
-4.286490e-02
-3.387700e-02
5.339090e-03
2.857910e-03
1.288720e-01
1.259020e-01
-5.048290e-02
-4.286490e-02
-5.403890e-02
-5.912040e-02
2.857910e-03
-4.826220e-05
1.259020e-01
1.231780e-01
-4.286490e-02
-3.387700e-02
-5.912040e-02
-6.246840e-02
1.288720e-01
1.259020e-01
-1.682230e-01
-1.747960e-01
-5.403890e-02
-5.912040e-02
1.673790e-01
1.812610e-01
1.259020e-01
1.231780e-01
-1.747960e-01
-1.818330e-01
-5.912040e-02
-6.246840e-02
1.812610e-01
1.931670e-01
-1.682230e-01
-1.747960e-01
-5.191070e-02
-4.098620e-02
1.673790e-01
1.812610e-01
6.101500e-02
4.333380e-02
-1.747960e-01
-1.818330e-01
-4.098620e-02
-3.055270e-02
1.812610e-01
1.931670e-01
4.333380e-02
2.578610e-02
-5.191070e-02
-4.098620e-02
8.997880e-02
8.880320e-02
6.101500e-02
4.333380e-02
-1.527190e-01
-1.547830e-01
-4.098620e-02
-3.055270e-02
8.880320e-02
8.774860e-02
4.333380e-02
2.578610e-02
-1.547830e-01
-1.575130e-01
8.997880e-02
8.880320e-02
-7.410860e-02
-6.870510e-02
-1.527190e-01
-1.547830e-01
4.406460e-02
4.851300e-02
8.880320e-02
8.774860e-02
-6.870510e-02
-6.376930e-02
-1.547830e-01
-1.575130e-01
4.851300e-02
5.370890e-02
-7.410860e-02
-6.870510e-02
2.639780e-02
3.621970e-02
4.406460e-02
4.851300e-02
-5.983950e-02
-6.818020e-02
-6.870510e-02
-6.376930e-02
3.621970e-02
4.554070e-02
4.851300e-02
5.370890e-02
-6.818020e-02
-7.653900e-02
2.639780e-02
3.621970e-02
-8.495680e-02
-8.538360e-02
-5.983950e-02
-6.818020e-02
8.207600e-02
8.493550e-02
3.621970e-02
4.554070e-02
-8.538360e-02
-8.590310e-02
-6.818020e-02
-7.653900e-02
8.493550e-02
8.880760e-02
-8.495680e-02
-8.538360e-02
1.788580e-02
1.757470e-02
8.207600e-02
8.493550e-02
1.621140e-01
1.555980e-01
-8.538360e-02
-8.590310e-02
1.757470e-02
1.655690e-02
8.493550e-02
8.880760e-02
1.555980e-01
1.518060e-01
1.788580e-02
1.757470e-02
-1.187080e-01
-1.213810e-01
1.621140e-01
1.555980e-01
1.176520e-01
1.115290e-01
1.757470e-02
1.655690e-02
-1.213810e-01
-1.246900e-01
1.555980e-01
1.518060e-01
1.115290e-01
1.033030e-01
-1.187080e-01
-1.213810e-01
1.429750e-01
1.551600e-01
1.176520e-01
1.115290e-01
-8.858190e-02
-9.886440e-02
-1.213810e-01
-1.246900e-01
1.551600e-01
1.668740e-01
1.115290e-01
1.033030e-01
-9.886440e-02
-1.077810e-01
1.429750e-01
1.551600e-01
9.041520e-02
7.550750e-02
-8.858190e-02
-9.886440e-02
-1.473700e-01
-1.254500e-01
1.551600e-01
1.668740e-01
7.550750e-02
6.038120e-02
-9.886440e-02
-1.077810e-01
-1.254500e-01
-1.030380e-01
9.041520e-02
7.550750e-02
-9.947070e-02
-8.864730e-02
-1.473700e-01
-1.254500e-01
5.880940e-02
4.712590e-02
7.550750e-02
6.038120e-02
-8.864730e-02
-7.863140e-02
-1.254500e-01
-1.030380e-01
4.712590e-02
3.547310e-02
-9.947070e-02
-8.864730e-02
-1.083530e-01
-1.135200e-01
5.880940e-02
4.712590e-02
2.172570e-01
2.201330e-01
-8.864730e-02
-7.863140e-02
-1.135200e-01
-1.190930e-01
4.712590e-02
3.547310e-02
2.201330e-01
2.207470e-01
-1.083530e-01
-1.135200e-01
6.584360e-02
6.813610e-02
2.172570e-01
2.201330e-01
-1.355970e-01
-1.432060e-01
-1.135200e-01
-1.190930e-01
6.813610e-02
6.979750e-02
2.201330e-01
2.207470e-01
-1.432060e-01
-1.494980e-01
6.584360e-02
6.813610e-02
1.961510e-01
1.916190e-01
-1.355970e-01
-1.432060e-01
-1.743060e-01
-1.743780e-01
6.813610e-02
6.979750e-02
1.916190e-01
1.871040e-01
-1.432060e-01
-1.494980e-01
-1.743780e-01
-1.722060e-01
1.961510e-01
1.916190e-01
-1.878340e-01
-1.928260e-01
-1.743060e-01
-1.743780e-01
1.813280e-01
2.017950e-01
1.916190e-01
1.871040e-01
-1.928260e-01
-1.990470e-01
-1.743780e-01
-1.722060e-01
2.017950e-01
2.213800e-01
</DataArray>
<DataArray type="Float32" Name="V2" format="ascii">
0.000000e+00
0.000000e+00
-1.267270e-01
-2.606440e-01
0.000000e+00
0.000000e+00
-3.860010e-02
5.973580e-02
0.000000e+00
0.000000e+00
-2.606440e-01
-4.189460e-01
0.000000e+00
0.000000e+00
5.973580e-02
1.766250e-01
-1.267270e-01
-2.606440e-01
-4.142130e-01
-2.303480e-01
-3.860010e-02
5.973580e-02
3.478280e-02
8.726810e-03
-2.606440e-01
-4.189460e-01
-2.303480e-01
-3.146880e-02
5.973580e-02
1.766250e-01
8.726810e-03
-2.105990e-02
-4.142130e-01
-2.303480e-01
-1.482350e-01
4.087380e-02
3.478280e-02
8.726810e-03
1.453120e-01
1.311510e-02
-2.303480e-01
-3.146880e-02
4.087380e-02
1.805120e-01
8.726810e-03
-2.105990e-02
1.311510e-02
-7.857690e-02
-1.482350e-01
4.087380e-02
1.937530e-01
2.449690e-01
1.453120e-01
1.311510e-02
8.137000e-02
-3.500020e-02
4.087380e-02
1.805120e-01
2.449690e-01
3.271080e-01
1.311510e-02
-7.857690e-02
-3.500020e-02
-1.685140e-01
1.937530e-01
2.449690e-01
-3.381460e-02
-1.063150e-01
8.137000e-02
-3.500020e-02
5.968770e-02
1.091290e-01
2.449690e-01
3.271080e-01
-1.063150e-01
-1.939930e-01
-3.500020e-02
-1.685140e-01
1.091290e-01
1.407250e-01
-3.381460e-02
-1.063150e-01
2.571730e-02
-2.096630e-01
5.968770e-02
1.091290e-01
-1.755530e-01
-1.074030e-02
-1.063150e-01
-1.939930e-01
-2.096630e-01
-4.327630e-01
1.091290e-01
1.407250e-01
-1.074030e-02
1.484850e-01
2.571730e-02
-2.096630e-01
-2.174300e-01
-1.295370e-02
-1.755530e-01
-1.074030e-02
3.243470e-02
-9.881450e-02
-2.096630e-01
-4.327630e-01
-1.295370e-02
1.600430e-01
-1.074030e-02
1.484850e-01
-9.881450e-02
-1.849510e-01
-2.174300e-01
-1.295370e-02
2.472300e-01
3.283410e-01
3.243470e-02
-9.881450e-02
-1.870820e-01
-1.668020e-01
-1.295370e-02
1.600430e-01
3.283410e-01
4.196570e-01
-9.881450e-02
-1.849510e-01
-1.668020e-01
-1.616300e-01
2.472300e-01
3.283410e-01
-3.807250e-02
1.528840e-01
-1.870820e-01
-1.668020e-01
7.140350e-02
-2.719320e-02
3.283410e-01
4.196570e-01
1.528840e-01
2.784330e-01
-1.668020e-01
-1.616300e-01
-2.719320e-02
-1.023610e-01
-3.807250e-02
1.528840e-01
1.057600e-01
-2.662290e-02
7.140350e-02
-2.719320e-02
-9.582650e-02
9.557260e-02
1.528840e-01
2.784330e-01
-2.662290e-02
-1.344380e-01
-2.719320e-02
-1.023610e-01
9.557260e-02
2.400630e-01
1.057600e-01
-2.662290e-02
1.141390e-01
-1.409490e-01
-9.582650e-02
9.557260e-02
-4.595250e-02
5.786530e-02
-2.662290e-02
-1.344380e-01
-1.409490e-01
-3.933260e-01
9.557260e-02
2.400630e-01
5.786530e-02
2.163060e-01
1.141390e-01
-1.409490e-01
1.418550e-01
9.394940e-02
-4.595250e-02
5.786530e-02
5.049800e-02
-2.673880e-02
-1.409490e-01
-3.933260e-01
9.394940e-02
7.019130e-02
5.786530e-02
2.163060e-01
-2.673880e-02
-1.412970e-01
1.418550e-01
9.394940e-02
8.343760e-02
1.925220e-01
5.049800e-02
-2.673880e-02
-1.103100e-01
-1.476150e-01
9.394940e-02
7.019130e-02
1.925220e-01
2.701980e-01
-2.673880e-02
-1.412970e-01
-1.476150e-01
-1.708050e-01
8.343760e-02
1.925220e-01
-2.242750e-01
-2.106920e-01
-1.103100e-01
-1.476150e-01
-1.383120e-02
4.635610e-02
1.925220e-01
2.701980e-01
-2.106920e-01
-2.065770e-01
-1.476150e-01
-1.708050e-01
4.635610e-02
1.263740e-01
-2.242750e-01
-2.106920e-01
-6.114050e-02
-1.614560e-01
-1.383120e-02
4.635610e-02
-1.897850e-02
9.392850e-02
-2.106920e-01
-2.065770e-01
-1.614560e-01
-2.737300e-01
4.635610e-02
1.263740e-01
9.392850e-02
2.255040e-01
-6.114050e-02
-1.614560e-01
3.143090e-02
9.534670e-02
-1.897850e-02
9.392850e-02
7.886340e-02
3.058050e-02
-1.614560e-01
-2.737300e-01
9.534670e-02
2.516650e-01
9.392850e-02
2.255040e-01
3.058050e-02
-8.471040e-02
3.143090e-02
9.534670e-02
1.557030e-03
1.570720e-01
7.886340e-02
3.058050e-02
-2.745240e-02
-8.030140e-02
9.534670e-02
2.516650e-01
1.570720e-01
3.127030e-01
3.058050e-02
-8.471040e-02
-8.030140e-02
-1.133090e-01
1.557030e-03
1.570720e-01
-9.853740e-02
-8.923140e-02
-2.745240e-02
-8.030140e-02
-2.505590e-04
-2.376320e-03
1.570720e-01
3.127030e-01
-8.923140e-02
-7.880980e-02
-8.030140e-02
-1.133090e-01
-2.376320e-03
-3.958830e-02
-9.853740e-02
-8.923140e-02
7.049930e-02
1.332060e-02
-2.505590e-04
-2.376320e-03
-1.588910e-01
-4.765310e-02
-8.923140e-02
-7.880980e-02
1.332060e-02
-9.327950e-02
-2.376320e-03
-3.958830e-02
-4.765310e-02
9.783330e-02
7.049930e-02
1.332060e-02
-9.982650e-02
7.002510e-02
-1.588910e-01
-4.765310e-02
1.299110e-01
9.458060e-04
1.332060e-02
-9.327950e-02
7.002510e-02
2.729370e-01
-4.765310e-02
9.783330e-02
9.458060e-04
-1.471090e-01
-9.982650e-02
7.002510e-02
-2.860600e-01
-1.827500e-01
1.299110e-01
9.458060e-04
3.383180e-01
1.424940e-01
7.002510e-02
2.729370e-01
-1.827500e-01
-5.253580e-02
9.458060e-04
-1.471090e-01
1.424940e-01
-6.712910e-02
-2.860600e-01
-1.827500e-01
2.503720e-01
2.119320e-02
3.383180e-01
1.424940e-01
-1.666450e-01
-2.342710e-02
-1.827500e-01
-5.253580e-02
2.119320e-02
-2.387090e-01
1.424940e-01
-6.712910e-02
-2.342710e-02
1.578230e-01
2.503720e-01
2.119320e-02
3.522830e-01
2.706250e-01
-1.666450e-01
-2.342710e-02
-1.429920e-01
-1.415400e-01
2.119320e-02
-2.387090e-01
2.706250e-01
1.613490e-01
-2.342710e-02
1.578230e-01
-1.415400e-01
-1.211070e-01
3.522830e-01
2.706250e-01
-9.600030e-02
-9.263830e-02
-1.429920e-01
-1.415400e-01
2.037090e-01
7.846710e-02
2.706250e-01
1.613490e-01
-9.263830e-02
-5.317030e-02
-1.415400e-01
-1.211070e-01
7.846710e-02
-7.264800e-02
-9.600030e-02
-9.263830e-02
-1.943630e-01
-2.473730e-01
2.037090e-01
7.846710e-02
1.208430e-01
1.862750e-01
-9.263830e-02
-5.317030e-02
-2.473730e-01
-3.267100e-01
7.846710e-02
-7.264800e-02
1.862750e-01
2.384980e-01
-1.943630e-01
-2.473730e-01
-9.347200e-02
6.267850e-02
1.208430e-01
1.862750e-01
7.547080e-02
-5.137290e-02
-2.473730e-01
-3.267100e-01
6.267850e-02
2.085750e-01
1.862750e-01
2.384980e-01
-5.137290e-02
-1.577890e-01
-9.347200e-02
6.267850e-02
3.072480e-02
1.289840e-01
7.547080e-02
-5.137290e-02
-1.002010e-01
-1.187370e-01
6.267850e-02
2.085750e-01
1.289840e-01
2.560470e-01
-5.137290e-02
-1.577890e-01
-1.187370e-01
-1.201650e-01
3.072480e-02
1.289840e-01
1.789730e-02
1.571800e-01
-1.002010e-01
-1.187370e-01
-7.222310e-02
-5.709260e-02
1.289840e-01
2.560470e-01
1.571800e-01
2.375830e-01
-1.187370e-01
-1.201650e-01
-5.709260e-02
6.482830e-03
1.789730e-02
1.571800e-01
-1.939180e-02
3.114530e-02
-7.222310e-02
-5.709260e-02
9.249490e-02
-5.486030e-03
1.571800e-01
2.375830e-01
3.114530e-02
1.049200e-01
-5.709260e-02
6.482830e-03
-5.486030e-03
-1.517520e-01
-1.939180e-02
3.114530e-02
-8.856050e-02
-1.437950e-01
9.249490e-02
-5.486030e-03
-9.860060e-02
-5.368270e-02
3.114530e-02
1.049200e-01
-1.437950e-01
-2.576200e-01
-5.486030e-03
-1.517520e-01
-5.368270e-02
1.566500e-02
0.000000e+00
0.000000e+00
-3.860010e-02
5.973580e-02
0.000000e+00
0.000000e+00
1.884570e-01
1.345200e-01
0.000000e+00
0.000000e+00
5.973580e-02
1.766250e-01
0.000000e+00
0.000000e+00
1.345200e-01
3.788400e-02
-3.860010e-02
5.973580e-02
3.478280e-02
8.726810e-03
1.884570e-01
1.345200e-01
3.528540e-01
2.141690e-01
5.973580e-02
1.766250e-01
8.726810e-03
-2.105990e-02
1.345200e-01
3.788400e-02
2.141690e-01
6.715860e-02
3.478280e-02