<?xml version="1.0"?>
<VTKFile type="UnstructuredGrid" version="0.1" byte_order="LittleEndian" compressor="vtkZLibDataCompressor">
<UnstructuredGrid>
<Piece NumberOfPoints="960" NumberOfCells="120">
<Points>
<DataArray type="Float32" NumberOfComponents="3" format="ascii">
-4.000000e+02 -6.000000e+03 -4.000000e+02
0.000000e+00 -6.000000e+03 -4.000000e+02
-4.000000e+02 -5.600010e+03 -4.000170e+02
-1.879640e-10 -5.600010e+03 -4.000170e+02
-4.000000e+02 -6.000000e+03 0.000000e+00
0.000000e+00 -6.000000e+03 0.000000e+00
-4.000000e+02 -5.600000e+03 -1.754710e-02
-2.189220e-10 -5.600000e+03 -1.754710e-02
0.000000e+00 -6.000000e+03 -4.000000e+02
4.000000e+02 -6.000000e+03 -4.000000e+02
-1.879640e-10 -5.600010e+03 -4.000170e+02
4.000000e+02 -5.600010e+03 -4.000170e+02
0.000000e+00 -6.000000e+03 0.000000e+00
4.000000e+02 -6.000000e+03 0.000000e+00
-2.189220e-10 -5.600000e+03 -1.754710e-02
4.000000e+02 -5.600000e+03 -1.754710e-02
-4.000000e+02 -5.600010e+03 -4.000170e+02
-1.879640e-10 -5.600010e+03 -4.000170e+02
-4.000000e+02 -5.200010e+03 -4.000280e+02
7.993240e-11 -5.200010e+03 -4.000280e+02
-4.000000e+02 -5.600000e+03 -1.754710e-02
-2.189220e-10 -5.600000e+03 -1.754710e-02
-4.000000e+02 -5.200000e+03 -3.007770e-02
1.270020e-10 -5.200000e+03 -3.007770e-02
-1.879640e-10 -5.600010e+03 -4.000170e+02
4.000000e+02 -5.600010e+03 -4.000170e+02
7.993240e-11 -5.200010e+03 -4.000280e+02
4.000000e+02 -5.200010e+03 -4.000280e+02
-2.189220e-10 -5.600000e+03 -1.754710e-02
4.000000e+02 -5.600000e+03 -1.754710e-02
1.270020e-10 -5.200000e+03 -3.007770e-02
4.000000e+02 -5.200000e+03 -3.007770e-02
-4.000000e+02 -5.200010e+03 -4.000280e+02
7.993240e-11 -5.200010e+03 -4.000280e+02
-4.000000e+02 -4.800010e+03 -4.000370e+02
-9.563830e-11 -4.800010e+03 -4.000370e+02
-4.000000e+02 -5.200000e+03 -3.007770e-02
1.270020e-10 -5.200000e+03 -3.007770e-02
-4.000000e+02 -4.800000e+03 -3.685610e-02
1.266680e-11 -4.800000e+03 -3.685610e-02
7.993240e-11 -5.200010e+03 -4.000280e+02
4.000000e+02 -5.200010e+03 -4.000280e+02
-9.563830e-11 -4.800010e+03 -4.000370e+02
4.000000e+02 -4.800010e+03 -4.000370e+02
1.270020e-10 -5.200000e+03 -3.007770e-02
4.000000e+02 -5.200000e+03 -3.007770e-02
1.266680e-11 -4.800000e+03 -3.685610e-02
4.000000e+02 -4.800000e+03 -3.685610e-02
-4.000000e+02 -4.800010e+03 -4.000370e+02
-9.563830e-11 -4.800010e+03 -4.000370e+02
-4.000000e+02 -4.400010e+03 -4.000470e+02
-2.131060e-10 -4.400010e+03 -4.000470e+02
-4.000000e+02 -4.800000e+03 -3.685610e-02
1.266680e-11 -4.800000e+03 -3.685610e-02
-4.000000e+02 -4.400000e+03 -4.569730e-02
-1.187780e-10 -4.400000e+03 -4.569730e-02
-9.563830e-11 -4.800010e+03 -4.000370e+02
4.000000e+02 -4.800010e+03 -4.000370e+02
-2.131060e-10 -4.400010e+03 -4.000470e+02
4.000000e+02 -4.400010e+03 -4.000470e+02
1.266680e-11 -4.800000e+03 -3.685610e-02
4.000000e+02 -4.800000e+03 -3.685610e-02
-1.187780e-10 -4.400000e+03 -4.569730e-02
4.000000e+02 -4.400000e+03 -4.569730e-02
-4.000000e+02 -4.400010e+03 -4.000470e+02
-2.131060e-10 -4.400010e+03 -4.000470e+02
-4.000000e+02 -4.000010e+03 -4.000560e+02
1.096600e-10 -4.000010e+03 -4.000560e+02
-4.000000e+02 -4.400000e+03 -4.569730e-02
-1.187780e-10 -4.400000e+03 -4.569730e-02
-4.000000e+02 -4.000000e+03 -5.585140e-02
9.017560e-11 -4.000000e+03 -5.585140e-02
-2.131060e-10 -4.400010e+03 -4.000470e+02
4.000000e+02 -4.400010e+03 -4.000470e+02
1.096600e-10 -4.000010e+03 -4.000560e+02
4.000000e+02 -4.000010e+03 -4.000560e+02
-1.187780e-10 -4.400000e+03 -4.569730e-02
4.000000e+02 -4.400000e+03 -4.569730e-02
9.017560e-11 -4.000000e+03 -5.585140e-02
4.000000e+02 -4.000000e+03 -5.585140e-02
-4.000000e+02 -4.000010e+03 -4.000560e+02
1.096600e-10 -4.000010e+03 -4.000560e+02
-4.000000e+02 -3.600010e+03 -4.000650e+02
-4.004960e-11 -3.600010e+03 -4.000650e+02
-4.000000e+02 -4.000000e+03 -5.585140e-02
9.017560e-11 -4.000000e+03 -5.585140e-02
-4.000000e+02 -3.600000e+03 -6.543340e-02
5.537690e-11 -3.600000e+03 -6.543340e-02
1.096600e-10 -4.000010e+03 -4.000560e+02
4.000000e+02 -4.000010e+03 -4.000560e+02
-4.004960e-11 -3.600010e+03 -4.000650e+02
4.000000e+02 -3.600010e+03 -4.000650e+02
9.017560e-11 -4.000000e+03 -5.585140e-02
4.000000e+02 -4.000000e+03 -5.585140e-02
5.537690e-11 -3.600000e+03 -6.543340e-02
4.000000e+02 -3.600000e+03 -6.543340e-02
-4.000000e+02 -3.600010e+03 -4.000650e+02
-4.004960e-11 -3.600010e+03 -4.000650e+02
-4.000000e+02 -3.200010e+03 -4.000760e+02
-2.754780e-10 -3.200010e+03 -4.000760e+02
-4.000000e+02 -3.600000e+03 -6.543340e-02
5.537690e-11 -3.600000e+03 -6.543340e-02
-4.000000e+02 -3.200000e+03 -7.548500e-02
-1.585560e-10 -3.200000e+03 -7.548500e-02
-4.004960e-11 -3.600010e+03 -4.000650e+02
4.000000e+02 -3.600010e+03 -4.000650e+02
-2.754780e-10 -3.200010e+03 -4.000760e+02
4.000000e+02 -3.200010e+03 -4.000760e+02
5.537690e-11 -3.600000e+03 -6.543340e-02
4.000000e+02 -3.600000e+03 -6.543340e-02
-1.585560e-10 -3.200000e+03 -7.548500e-02
4.000000e+02 -3.200000e+03 -7.548500e-02
-4.000000e+02 -3.200010e+03 -4.000760e+02
-2.754780e-10 -3.200010e+03 -4.000760e+02
-4.000000e+02 -2.800010e+03 -4.000820e+02
-6.593760e-10 -2.800010e+03 -4.000820e+02
-4.000000e+02 -3.200000e+03 -7.548500e-02
-1.585560e-10 -3.200000e+03 -7.548500e-02
-4.000000e+02 -2.800000e+03 -8.415800e-02
-5.305930e-10 -2.800000e+03 -8.415800e-02
-2.754780e-10 -3.200010e+03 -4.000760e+02
4.000000e+02 -3.200010e+03 -4.000760e+02
-6.593760e-10 -2.800010e+03 -4.000820e+02
4.000000e+02 -2.800010e+03 -4.000820e+02
-1.585560e-10 -3.200000e+03 -7.548500e-02
4.000000e+02 -3.200000e+03 -7.548500e-02
-5.305930e-10 -2.800000e+03 -8.415800e-02
4.000000e+02 -2.800000e+03 -8.415800e-02
-4.000000e+02 -2.800010e+03 -4.000820e+02
-6.593760e-10 -2.800010e+03 -4.000820e+02
-4.000000e+02 -2.400010e+03 -4.000940e+02
-9.238910e-10 -2.400010e+03 -4.000940e+02
-4.000000e+02 -2.800000e+03 -8.415800e-02
-5.305930e-10 -2.800000e+03 -8.415800e-02
-4.000000e+02 -2.400000e+03 -9.170600e-02
-8.622850e-10 -2.400000e+03 -9.170600e-02
-6.593760e-10 -2.800010e+03 -4.000820e+02
4.000000e+02 -2.800010e+03 -4.000820e+02
-9.238910e-10 -2.400010e+03 -4.000940e+02
4.000000e+02 -2.400010e+03 -4.000940e+02
-5.305930e-10 -2.800000e+03 -8.415800e-02
4.000000e+02 -2.800000e+03 -8.415800e-02
-8.622850e-10 -2.400000e+03 -9.170600e-02
4.000000e+02 -2.400000e+03 -9.170600e-02
-4.000000e+02 -2.400010e+03 -4.000940e+02
-9.238910e-10 -2.400010e+03 -4.000940e+02
-4.000000e+02 -2.000010e+03 -4.001030e+02
-1.116110e-09 -2.000010e+03 -4.001030e+02
-4.000000e+02 -2.400000e+03 -9.170600e-02
-8.622850e-10 -2.400000e+03 -9.170600e-02
-4.000000e+02 -2.000000e+03 -1.031290e-01
-1.198100e-09 -2.000000e+03 -1.031290e-01
-9.238910e-10 -2.400010e+03 -4.000940e+02
4.000000e+02 -2.400010e+03 -4.000940e+02
-1.116110e-09 -2.000010e+03 -4.001030e+02
4.000000e+02 -2.000010e+03 -4.001030e+02
-8.622850e-10 -2.400000e+03 -9.170600e-02
4.000000e+02 -2.400000e+03 -9.170600e-02
-1.198100e-09 -2.000000e+03 -1.031290e-01
4.000000e+02 -2.000000e+03 -1.031290e-01
-4.000000e+02 -2.000010e+03 -4.001030e+02
-1.116110e-09 -2.000010e+03 -4.001030e+02
-4.000000e+02 -1.600010e+03 -4.001110e+02
-1.629790e-09 -1.600010e+03 -4.001110e+02
-4.000000e+02 -2.000000e+03 -1.031290e-01
-1.198100e-09 -2.000000e+03 -1.031290e-01
-4.000000e+02 -1.600000e+03 -1.128910e-01
-1.601510e-09 -1.600000e+03 -1.128910e-01
-1.116110e-09 -2.000010e+03 -4.001030e+02
4.000000e+02 -2.000010e+03 -4.001030e+02
-1.629790e-09 -1.600010e+03 -4.001110e+02
4.000000e+02 -1.600010e+03 -4.001110e+02
-1.198100e-09 -2.000000e+03 -1.031290e-01
4.000000e+02 -2.000000e+03 -1.031290e-01
-1.601510e-09 -1.600000e+03 -1.128910e-01
4.000000e+02 -1.600000e+03 -1.128910e-01
-4.000000e+02 -1.600010e+03 -4.001110e+02
-1.629790e-09 -1.600010e+03 -4.001110e+02
-4.000000e+02 -1.200010e+03 -4.001230e+02
-1.462100e-09 -1.200010e+03 -4.001230e+02
-4.000000e+02 -1.600000e+03 -1.128910e-01
-1.601510e-09 -1.600000e+03 -1.128910e-01
-4.000000e+02 -1.200000e+03 -1.231940e-01
-1.625700e-09 -1.200000e+03 -1.231940e-01
-1.629790e-09 -1.600010e+03 -4.001110e+02
4.000000e+02 -1.600010e+03 -4.001110e+02
-1.462100e-09 -1.200010e+03 -4.001230e+02
4.000000e+02 -1.200010e+03 -4.001230e+02
-1.601510e-09 -1.600000e+03 -1.128910e-01
4.000000e+02 -1.600000e+03 -1.128910e-01
-1.625700e-09 -1.200000e+03 -1.231940e-01
4.000000e+02 -1.200000e+03 -1.231940e-01
-4.000000e+02 -1.200010e+03 -4.001230e+02
-1.462100e-09 -1.200010e+03 -4.001230e+02
-4.000000e+02 -8.000110e+02 -4.001390e+02
-1.463910e-09 -8.000110e+02 -4.001390e+02
-4.000000e+02 -1.200000e+03 -1.231940e-01
-1.625700e-09 -1.200000e+03 -1.231940e-01
-4.000000e+02 -8.000000e+02 -1.360560e-01
-1.819650e-09 -8.000000e+02 -1.360560e-01
-1.462100e-09 -1.200010e+03 -4.001230e+02
4.000000e+02 -1.200010e+03 -4.001230e+02
-1.463910e-09 -8.000110e+02 -4.001390e+02
4.000000e+02 -8.000110e+02 -4.001390e+02
-1.625700e-09 -1.200000e+03 -1.231940e-01
4.000000e+02 -1.200000e+03 -1.231940e-01
-1.819650e-09 -8.000000e+02 -1.360560e-01
4.000000e+02 -8.000000e+02 -1.360560e-01
-4.000000e+02 -8.000110e+02 -4.001390e+02
-1.463910e-09 -8.000110e+02 -4.001390e+02
-4.000000e+02 -4.000110e+02 -4.001480e+02
-1.632710e-09 -4.000110e+02 -4.001480e+02
-4.000000e+02 -8.000000e+02 -1.360560e-01
-1.819650e-09 -8.000000e+02 -1.360560e-01
-4.000000e+02 -4.000010e+02 -1.492440e-01
-1.964360e-09 -4.000010e+02 -1.492440e-01
-1.463910e-09 -8.000110e+02 -4.001390e+02
4.000000e+02 -8.000110e+02 -4.001390e+02
-1.632710e-09 -4.000110e+02 -4.001480e+02
4.000000e+02 -4.000110e+02 -4.001480e+02
-1.819650e-09 -8.000000e+02 -1.360560e-01
4.000000e+02 -8.000000e+02 -1.360560e-01
-1.964360e-09 -4.000010e+02 -1.492440e-01
4.000000e+02 -4.000010e+02 -1.492440e-01
-4.000000e+02 -4.000110e+02 -4.001480e+02
-1.632710e-09 -4.000110e+02 -4.001480e+02
-4.000000e+02 -1.257970e-02 -4.001580e+02
-2.015910e-09 -1.257970e-02 -4.001580e+02
-4.000000e+02 -4.000010e+02 -1.492440e-01
-1.964360e-09 -4.000010e+02 -1.492440e-01
-4.000000e+02 1.003250e-03 -1.624900e-01
-2.083880e-09 1.003250e-03 -1.624900e-01
-1.632710e-09 -4.000110e+02 -4.001480e+02
[...]
<PointData>
<DataArray type="Float32" Name="V1" format="ascii">
0.000000e+00
0.000000e+00
1.924630e-10
1.418930e-11
0.000000e+00
0.000000e+00
2.052280e-10
1.246900e-10
0.000000e+00
0.000000e+00
1.418930e-11
-2.395970e-10
0.000000e+00
0.000000e+00
1.246900e-10
1.963910e-11
1.924630e-10
1.418930e-11
-5.793530e-11
-4.997250e-12
2.052280e-10
1.246900e-10
-1.796970e-10
-9.786360e-11
1.418930e-11
-2.395970e-10
-4.997250e-12
5.400740e-11
1.246900e-10
1.963910e-11
-9.786360e-11
-7.855630e-12
-5.793530e-11
-4.997250e-12
-1.502390e-10
1.496580e-10
-1.796970e-10
-9.786360e-11
-2.170120e-10
-2.162340e-10
-4.997250e-12
5.400740e-11
1.496580e-10
3.544850e-10
-9.786360e-11
-7.855630e-12
-2.162340e-10
-1.934450e-10
-1.502390e-10
1.496580e-10
-7.757430e-11
-1.395680e-11
-2.170120e-10
-2.162340e-10
-2.759290e-10
-1.209190e-11
1.496580e-10
3.544850e-10
-1.395680e-11
1.708600e-10
-2.162340e-10
-1.934450e-10
-1.209190e-11
2.562900e-10
-7.757430e-11
-1.395680e-11
3.859080e-10
8.069180e-11
-2.759290e-10
-1.209190e-11
-5.597130e-11
-1.170420e-11
-1.395680e-11
1.708600e-10
8.069180e-11
-9.230360e-11
-1.209190e-11
2.562900e-10
-1.170420e-11
-3.927810e-11
3.859080e-10
8.069180e-11
-3.122610e-10
-1.033010e-10
-5.597130e-11
-1.170420e-11
1.767520e-10
-5.290910e-11
8.069180e-11
-9.230360e-11
-1.033010e-10
5.007960e-11
-1.170420e-11
-3.927810e-11
-5.290910e-11
-3.623410e-10
-3.122610e-10
-1.033010e-10
-2.405790e-10
-4.144380e-11
1.767520e-10
-5.290910e-11
-3.260090e-10
-1.070590e-10
-1.033010e-10
5.007960e-11
-4.144380e-11
6.480890e-11
-5.290910e-11
-3.623410e-10
-1.070590e-10
1.158710e-10
-2.405790e-10
-4.144380e-11
4.664280e-10
7.345970e-11
-3.260090e-10
-1.070590e-10
1.875530e-10
6.618800e-11
-4.144380e-11
6.480890e-11
7.345970e-11
-4.232220e-10
-1.070590e-10
1.158710e-10
6.618800e-11
-4.222400e-11
4.664280e-10
7.345970e-11
-4.418790e-10
-8.942530e-11
1.875530e-10
6.618800e-11
2.945860e-12
9.924080e-12
7.345970e-11
-4.232220e-10
-8.942530e-11
3.544850e-10
6.618800e-11
-4.222400e-11
9.924080e-12
6.873670e-12
-4.418790e-10
-8.942530e-11
2.454880e-11
1.456240e-10
2.945860e-12
9.924080e-12
4.516990e-11
-3.941620e-11
-8.942530e-11
3.544850e-10
1.456240e-10
2.140660e-10
9.924080e-12
6.873670e-12
-3.941620e-11
-1.040870e-10
2.454880e-11
1.456240e-10
6.873670e-11
-5.923220e-11
4.516990e-11
-3.941620e-11
3.260090e-10
5.905000e-11
1.456240e-10
2.140660e-10
-5.923220e-11
-1.109610e-10
-3.941620e-11
-1.040870e-10
5.905000e-11
-1.060510e-10
6.873670e-11
-5.923220e-11
-2.808390e-10
-1.925590e-11
3.260090e-10
5.905000e-11
-1.306000e-10
-4.804990e-11
-5.923220e-11
-1.109610e-10
-1.925590e-11
4.035830e-10
5.905000e-11
-1.060510e-10
-4.804990e-11
-5.597130e-11
-2.808390e-10
-1.925590e-11
3.505570e-10
9.787100e-11
-1.306000e-10
-4.804990e-11
3.358280e-10
2.332030e-11
-1.925590e-11
4.035830e-10
9.787100e-11
-3.721600e-10
-4.804990e-11
-5.597130e-11
2.332030e-11
-1.109610e-10
3.505570e-10
9.787100e-11
-3.004780e-10
-1.273610e-10
3.358280e-10
2.332030e-11
-5.950640e-10
-1.340810e-10
9.787100e-11
-3.721600e-10
-1.273610e-10
-9.819530e-12
2.332030e-11
-1.109610e-10
-1.340810e-10
3.427020e-10
-3.004780e-10
-1.273610e-10
-1.728240e-10
-6.638410e-11
-5.950640e-10
-1.340810e-10
4.909770e-12
-1.598390e-11
-1.273610e-10
-9.819530e-12
-6.638410e-11
-5.891720e-12
-1.340810e-10
3.427020e-10
-1.598390e-11
4.418790e-11
-1.728240e-10
-6.638410e-11
3.201170e-10
7.376000e-11
4.909770e-12
-1.598390e-11
-1.276540e-10
-1.741060e-10
-6.638410e-11
-5.891720e-12
7.376000e-11
1.963910e-11
-1.598390e-11
4.418790e-11
-1.741060e-10
-1.148890e-10
3.201170e-10
7.376000e-11
2.543260e-10
9.273970e-11
-1.276540e-10
-1.741060e-10
1.806790e-10
2.431960e-11
7.376000e-11
1.963910e-11
9.273970e-11
5.400740e-11
-1.741060e-10
-1.148890e-10
2.431960e-11
-1.679140e-10
2.543260e-10
9.273970e-11
-1.306000e-10
-3.781640e-11
1.806790e-10
2.431960e-11
-2.003190e-10
-1.057390e-10
9.273970e-11
5.400740e-11
-3.781640e-11
-1.276540e-11
2.431960e-11
-1.679140e-10
-1.057390e-10
3.927810e-11
-1.306000e-10
-3.781640e-11
-1.414010e-10
1.828030e-10
-2.003190e-10
-1.057390e-10
3.250270e-10
2.773210e-10
-3.781640e-11
-1.276540e-11
1.828030e-10
4.291140e-10
-1.057390e-10
3.927810e-11
2.773210e-10
2.543260e-10
-1.414010e-10
1.828030e-10
3.014600e-10
5.118430e-11
3.250270e-10
2.773210e-10
-2.484340e-10
-2.513150e-10
1.828030e-10
4.291140e-10
5.118430e-11
-2.553080e-10
2.773210e-10
2.543260e-10
-2.513150e-10
-1.855890e-10
3.014600e-10
5.118430e-11
1.590760e-10
1.535400e-10
-2.484340e-10
-2.513150e-10
-3.731420e-11
6.885150e-11
5.118430e-11
-2.553080e-10
1.535400e-10
2.386150e-10
-2.513150e-10
-1.855890e-10
6.885150e-11
1.679140e-10
1.590760e-10
1.535400e-10
-3.230630e-10
-1.968080e-10
-3.731420e-11
6.885150e-11
-1.119430e-10
-6.343480e-11
1.535400e-10
2.386150e-10
-1.968080e-10
-1.590760e-10
6.885150e-11
1.679140e-10
-6.343480e-11
-5.007960e-11
-3.230630e-10
-1.968080e-10
1.060510e-10
5.214020e-12
-1.119430e-10
-6.343480e-11
1.885350e-10
1.839090e-10
-1.968080e-10
-1.590760e-10
5.214020e-12
-2.592360e-10
-6.343480e-11
-5.007960e-11
1.839090e-10
2.170120e-10
1.060510e-10
5.214020e-12
0.000000e+00
-5.447040e-11
1.885350e-10
1.839090e-10
2.553080e-11
-8.814710e-11
5.214020e-12
-2.592360e-10
-5.447040e-11
-6.677280e-11
1.839090e-10
2.170120e-10
-8.814710e-11
-1.787160e-10
0.000000e+00
-5.447040e-11
2.523620e-10
1.623350e-10
2.553080e-11
-8.814710e-11
-2.013000e-10
-1.388540e-10
-5.447040e-11
-6.677280e-11
1.623350e-10
-1.001590e-10
-8.814710e-11
-1.787160e-10
-1.388540e-10
-9.819530e-12
2.523620e-10
1.623350e-10
-8.542990e-11
4.671860e-11
-2.013000e-10
-1.388540e-10
1.256900e-10
9.303830e-11
1.623350e-10
-1.001590e-10
4.671860e-11
3.004780e-10
-1.388540e-10
-9.819530e-12
9.303830e-11
-1.963910e-12
-8.542990e-11
4.671860e-11
8.935780e-11
-1.201450e-10
1.256900e-10
9.303830e-11
-1.738060e-10
-1.068150e-10
4.671860e-11
3.004780e-10
-1.201450e-10
-3.849260e-10
9.303830e-11
-1.963910e-12
-1.068150e-10
2.945860e-12
8.935780e-11
-1.201450e-10
3.191350e-10
2.067210e-10
-1.738060e-10
-1.068150e-10
-1.276540e-10
-9.722030e-11
-1.201450e-10
-3.849260e-10
2.067210e-10
3.986730e-10
-1.068150e-10
2.945860e-12
-9.722030e-11
2.356690e-11
3.191350e-10
2.067210e-10
-2.523620e-10
-2.545510e-10
-1.276540e-10
-9.722030e-11
4.595540e-10
3.736140e-10
2.067210e-10
3.986730e-10
-2.545510e-10
-2.916400e-10
-9.722030e-11
2.356690e-11
3.736140e-10
2.690550e-10
-2.523620e-10
-2.545510e-10
-7.659240e-11
-2.112560e-10
4.595540e-10
3.736140e-10
-3.927810e-10
-1.297480e-10
-2.545510e-10
-2.916400e-10
-2.112560e-10
-2.317410e-10
3.736140e-10
2.690550e-10
-1.297480e-10
1.934450e-10
0.000000e+00
0.000000e+00
2.052280e-10
1.246900e-10
0.000000e+00
0.000000e+00
2.317410e-10
1.286030e-11
0.000000e+00
0.000000e+00
1.246900e-10
1.963910e-11
0.000000e+00
0.000000e+00
1.286030e-11
-2.366510e-10
2.052280e-10
1.246900e-10
-1.796970e-10
-9.786360e-11
2.317410e-10
1.286030e-11
-1.364920e-10
8.442990e-11
1.246900e-10
1.963910e-11
-9.786360e-11
-7.855630e-12
1.286030e-11
-2.366510e-10
8.442990e-11
2.994960e-10
-1.796970e-10
-9.786360e-11
-2.170120e-10
-2.162340e-10
-1.364920e-10
8.442990e-11
-2.199580e-10
-7.140550e-11
-9.786360e-11
-7.855630e-12
-2.162340e-10
-1.934450e-10
8.442990e-11
2.994960e-10
-7.140550e-11
1.541670e-10
-2.170120e-10
-2.162340e-10
-2.759290e-10
-1.209190e-11
-2.199580e-10
-7.140550e-11
-1.276540e-10
3.392850e-11
-2.162340e-10
-1.934450e-10
-1.209190e-11
2.562900e-10
-7.140550e-11
1.541670e-10
3.392850e-11
1.256900e-10
-2.759290e-10
-1.209190e-11
-5.597130e-11
-1.170420e-11
-1.276540e-10
3.392850e-11
9.819530e-12
5.011750e-11
-1.209190e-11
2.562900e-10
-1.170420e-11
-3.927810e-11
3.392850e-11
1.256900e-10
5.011750e-11
9.819530e-11
-5.597130e-11
-1.170420e-11
1.767520e-10
-5.290910e-11
9.819530e-12
5.011750e-11
2.729830e-10
6.111940e-11
-1.170420e-11
-3.927810e-11
-5.290910e-11
-3.623410e-10
5.011750e-11
9.819530e-11
6.111940e-11
-1.747880e-10
1.767520e-10
-5.290910e-11
-3.260090e-10
-1.070590e-10
2.729830e-10
6.111940e-11
-1.522030e-10
-1.442730e-10
-5.290910e-11
-3.623410e-10
-1.070590e-10
1.158710e-10
6.111940e-11
-1.747880e-10
-1.442730e-10
-2.062100e-10
-3.260090e-10
-1.070590e-10
1.875530e-10
6.618800e-11
-1.522030e-10
-1.442730e-10
1.129250e-10
2.685860e-10
-1.070590e-10
1.158710e-10
6.618800e-11
-4.222400e-11
-1.442730e-10
-2.062100e-10
2.685860e-10
2.729830e-10
1.875530e-10
6.618800e-11
2.945860e-12
9.924080e-12
1.129250e-10
2.685860e-10
8.052020e-11
-1.565220e-10
6.618800e-11
-4.222400e-11
9.924080e-12
6.873670e-12
2.685860e-10
2.729830e-10
-1.565220e-10
-3.250270e-10
2.945860e-12
9.924080e-12
4.516990e-11
-3.941620e-11
8.052020e-11
-1.565220e-10
9.819530e-13
-6.811750e-11
9.924080e-12
6.873670e-12
-3.941620e-11
-1.040870e-10
-1.565220e-10
-3.250270e-10
-6.811750e-11
-9.524950e-11
4.516990e-11
-3.941620e-11
3.260090e-10
5.905000e-11
9.819530e-13
-6.811750e-11
2.562900e-10
4.273400e-11
-3.941620e-11
-1.040870e-10
5.905000e-11
-1.060510e-10
-6.811750e-11
-9.524950e-11
4.273400e-11
-7.855630e-12
3.260090e-10
5.905000e-11
-1.306000e-10
-4.804990e-11
2.562900e-10
4.273400e-11
-4.035830e-10
1.066390e-10
5.905000e-11
-1.060510e-10
-4.804990e-11
-5.597130e-11
4.273400e-11
-7.855630e-12
1.066390e-10
4.467890e-10
-1.306000e-10
-4.804990e-11
3.358280e-10
2.332030e-11
-4.035830e-10
1.066390e-10
3.348460e-10
2.143970e-11
-4.804990e-11
-5.597130e-11
2.332030e-11
-1.109610e-10
1.066390e-10
4.467890e-10
2.143970e-11
-1.855890e-10
3.358280e-10
2.332030e-11
-5.950640e-10
-1.340810e-10
3.348460e-10
2.143970e-11
1.256900e-10
7.530150e-11
2.332030e-11
-1.109610e-10
-1.340810e-10
3.427020e-10
2.143970e-11
-1.855890e-10
7.530150e-11
5.695330e-11
-5.950640e-10
-1.340810e-10
4.909770e-12
-1.598390e-11
1.256900e-10
7.530150e-11
-6.677280e-11
-4.890370e-11
-1.340810e-10
3.427020e-10
-1.598390e-11
4.418790e-11
7.530150e-11
5.695330e-11
-4.890370e-11
-1.414010e-10
4.909770e-12
-1.598390e-11
-1.276540e-10
-1.741060e-10
-6.677280e-11
-4.890370e-11
-1.472930e-11
-3.224140e-11
-1.598390e-11
4.418790e-11
-1.741060e-10
-1.148890e-10
-4.890370e-11
-1.414010e-10
-3.224140e-11
1.374730e-11
-1.276540e-10
-1.741060e-10
1.806790e-10
2.431960e-11
-1.472930e-11
-3.224140e-11
2.543260e-10
2.238300e-10
-1.741060e-10
-1.148890e-10
2.431960e-11
-1.679140e-10
-3.224140e-11
1.374730e-11
2.238300e-10
2.572720e-10
1.806790e-10
2.431960e-11
-2.003190e-10
-1.057390e-10
2.543260e-10
2.238300e-10
-3.849260e-10
-2.812280e-10
2.431960e-11
-1.679140e-10
-1.057390e-10
3.927810e-11
2.238300e-10
2.572720e-10
-2.812280e-10
-1.590760e-10
-2.003190e-10
-1.057390e-10
3.250270e-10
2.773210e-10
-3.849260e-10
-2.812280e-10
7.266460e-11
-6.021610e-11
-1.057390e-10
3.927810e-11
2.773210e-10
2.543260e-10
-2.812280e-10
-1.590760e-10
-6.021610e-11
-1.139070e-10
3.250270e-10
2.773210e-10
-2.484340e-10
-2.513150e-10
7.266460e-11
-6.021610e-11
2.130840e-10
4.006020e-11
2.773210e-10
2.543260e-10
-2.513150e-10
-1.855890e-10
-6.021610e-11
-1.139070e-10
4.006020e-11
-4.516990e-11
-2.484340e-10
-2.513150e-10
-3.731420e-11
6.885150e-11
2.130840e-10
4.006020e-11
-3.800160e-10
1.622870e-11
-2.513150e-10
-1.855890e-10
6.885150e-11
1.679140e-10
4.006020e-11
-4.516990e-11
1.622870e-11
1.973730e-10
-3.731420e-11
6.885150e-11
-1.119430e-10
-6.343480e-11
-3.800160e-10
1.622870e-11
-2.317410e-10
-7.436420e-11
6.885150e-11
1.679140e-10
-6.343480e-11
-5.007960e-11
1.622870e-11
1.973730e-10
-7.436420e-11
2.013000e-10
-1.119430e-10
-6.343480e-11
1.885350e-10
1.839090e-10
-2.317410e-10
-7.436420e-11
6.775480e-11
1.303810e-11
-6.343480e-11
-5.007960e-11
1.839090e-10
2.170120e-10
-7.436420e-11
2.013000e-10
1.303810e-11
6.579090e-11
1.885350e-10
1.839090e-10
2.553080e-11
-8.814710e-11
6.775480e-11
1.303810e-11
2.474520e-10
-6.377320e-11
1.839090e-10
2.170120e-10
-8.814710e-11
-1.787160e-10
1.303810e-11
6.579090e-11
-6.377320e-11
-2.641450e-10
2.553080e-11
-8.814710e-11
-2.013000e-10
-1.388540e-10
2.474520e-10
-6.377320e-11
-2.651270e-10
-1.869020e-11
-8.814710e-11
-1.787160e-10
-1.388540e-10
-9.819530e-12
-6.377320e-11
-2.641450e-10
-1.869020e-11
1.973730e-10
-2.013000e-10
-1.388540e-10
1.256900e-10
9.303830e-11
-2.651270e-10
-1.869020e-11
-1.669320e-10
1.266550e-11
-1.388540e-10
-9.819530e-12
9.303830e-11
-1.963910e-12
-1.869020e-11
1.973730e-10
1.266550e-11
2.081740e-10
1.256900e-10
9.303830e-11
-1.738060e-10
-1.068150e-10
-1.669320e-10
1.266550e-11
-2.720010e-10
-1.839560e-10
9.303830e-11
-1.963910e-12
-1.068150e-10
2.945860e-12
1.266550e-11
2.081740e-10
-1.839560e-10
2.945860e-12
-1.738060e-10
-1.068150e-10
-1.276540e-10
-9.722030e-11
-2.720010e-10
-1.839560e-10
4.340230e-10
1.613620e-10
-1.068150e-10
2.945860e-12
-9.722030e-11
2.356690e-11
-1.839560e-10
2.945860e-12
1.613620e-10
-4.320600e-11
-1.276540e-10
-9.722030e-11
4.595540e-10
3.736140e-10
4.340230e-10
1.613620e-10
4.909770e-12
-1.824940e-10
-9.722030e-11
2.356690e-11
3.736140e-10
2.690550e-10
1.613620e-10
-4.320600e-11
-1.824940e-10
-2.287950e-10
4.595540e-10
3.736140e-10
-3.927810e-10
-1.297480e-10
4.909770e-12
-1.824940e-10
-2.356690e-10
-1.843050e-10
3.736140e-10
2.690550e-10
-1.297480e-10
1.934450e-10
-1.824940e-10
-2.287950e-10
-1.843050e-10
2.150480e-10
</DataArray>
<DataArray type="Float32" Name="V2" format="ascii">
0.000000e+00
0.000000e+00
1.476040e-03
1.476040e-03
0.000000e+00
0.000000e+00
-1.119920e-03
-1.119920e-03
0.000000e+00
0.000000e+00
1.476040e-03
1.476040e-03
0.000000e+00
0.000000e+00
-1.119920e-03
-1.119920e-03
1.476040e-03
1.476040e-03
-5.025270e-04
-5.025280e-04
-1.119920e-03
-1.119920e-03
-1.064690e-04
-1.064690e-04
1.476040e-03
1.476040e-03
-5.025280e-04
-5.025280e-04
-1.119920e-03
-1.119920e-03
-1.064690e-04
-1.064690e-04
-5.025270e-04
-5.025280e-04
-1.624830e-03
-1.624830e-03
-1.064690e-04
-1.064690e-04
7.541180e-04
7.541170e-04
-5.025280e-04
-5.025280e-04
-1.624830e-03
-1.624830e-03
-1.064690e-04
-1.064690e-04
7.541170e-04
7.541180e-04
-1.624830e-03
-1.624830e-03
2.143310e-03
2.143310e-03
7.541180e-04
7.541170e-04
-1.683810e-03
-1.683810e-03
-1.624830e-03
-1.624830e-03
2.143310e-03
2.143310e-03
7.541170e-04
7.541180e-04
-1.683810e-03
-1.683810e-03
2.143310e-03
2.143310e-03
2.626740e-03
2.626740e-03
-1.683810e-03
-1.683810e-03
-9.294570e-04
-9.294580e-04
2.143310e-03
2.143310e-03
2.626740e-03
2.626740e-03
-1.683810e-03
-1.683810e-03
-9.294580e-04
-9.294570e-04
2.626740e-03
2.626740e-03
-1.128340e-03
-1.128340e-03
-9.294570e-04
-9.294580e-04
1.194010e-03
1.194010e-03
2.626740e-03
2.626740e-03
-1.128340e-03
-1.128340e-03
-9.294580e-04
-9.294570e-04
1.194010e-03
1.194010e-03
-1.128340e-03
-1.128340e-03
-7.487840e-04
-7.487830e-04
1.194010e-03
1.194010e-03
-5.110510e-04
-5.110520e-04
-1.128340e-03
-1.128340e-03
-7.487830e-04
-7.487830e-04
1.194010e-03
1.194010e-03
-5.110520e-04
-5.110510e-04
-7.487840e-04
-7.487830e-04
4.934370e-04
4.934370e-04
-5.110510e-04
-5.110520e-04
-1.290110e-03
-1.290110e-03
-7.487830e-04
-7.487830e-04
4.934370e-04
4.934370e-04
-5.110520e-04
-5.110510e-04
-1.290110e-03
-1.290110e-03
4.934370e-04
4.934370e-04
-1.012110e-03
-1.012120e-03
-1.290110e-03
-1.290110e-03
1.294220e-03
1.294220e-03
4.934370e-04
4.934370e-04
-1.012120e-03
-1.012120e-03
-1.290110e-03
-1.290110e-03
1.294220e-03
1.294220e-03
-1.012110e-03
-1.012120e-03
7.593310e-04
7.593320e-04
1.294220e-03
1.294220e-03
-1.811550e-04
-1.811550e-04
-1.012120e-03
-1.012120e-03
7.593320e-04
7.593320e-04
1.294220e-03
1.294220e-03
-1.811550e-04
-1.811550e-04
7.593310e-04
7.593320e-04
9.756860e-04
9.756850e-04
-1.811550e-04
-1.811550e-04
-6.687420e-04
-6.687420e-04
7.593320e-04
7.593320e-04
9.756850e-04
9.756840e-04
-1.811550e-04
-1.811550e-04
-6.687420e-04
-6.687410e-04
9.756860e-04
9.756850e-04
8.361450e-04
8.361460e-04
-6.687420e-04
-6.687420e-04
5.814430e-04
5.814420e-04
9.756850e-04
9.756840e-04
8.361460e-04
8.361450e-04
-6.687420e-04
-6.687410e-04
5.814420e-04
5.814430e-04
8.361450e-04
8.361460e-04
1.298870e-03
1.298870e-03
5.814430e-04
5.814420e-04
-3.909440e-04
-3.909450e-04
8.361460e-04
8.361450e-04
1.298870e-03
1.298870e-03
5.814420e-04
5.814430e-04
-3.909450e-04
-3.909450e-04
1.298870e-03
1.298870e-03
-2.024780e-04
-2.024790e-04
-3.909440e-04
-3.909450e-04
1.704870e-04
1.704870e-04
1.298870e-03
1.298870e-03
-2.024790e-04
-2.024780e-04
-3.909450e-04
-3.909450e-04
1.704870e-04
1.704870e-04
-2.024780e-04
-2.024790e-04
4.615290e-04
4.615290e-04
1.704870e-04
1.704870e-04
-4.290720e-04
-4.290720e-04
-2.024790e-04
-2.024780e-04
4.615290e-04
4.615290e-04
1.704870e-04
1.704870e-04
-4.290720e-04
-4.290730e-04
4.615290e-04
4.615290e-04
-2.876940e-04
-2.876920e-04
-4.290720e-04
-4.290720e-04
8.677060e-05
8.677070e-05
4.615290e-04
4.615290e-04
-2.876920e-04
-2.876920e-04
-4.290720e-04
-4.290730e-04
8.677070e-05
8.677010e-05
-2.876940e-04
-2.876920e-04
3.827180e-04
3.827180e-04
8.677060e-05
8.677070e-05
-6.950720e-04
-6.950720e-04
-2.876920e-04
-2.876920e-04
3.827180e-04
3.827170e-04
8.677070e-05
8.677010e-05
-6.950720e-04
-6.950710e-04
3.827180e-04
3.827180e-04
-2.267870e-05
-2.267860e-05
-6.950720e-04
-6.950720e-04
-7.467500e-04
-7.467510e-04
3.827180e-04
3.827170e-04
-2.267860e-05
-2.267780e-05
-6.950720e-04
-6.950710e-04
-7.467510e-04
-7.467500e-04
-2.267870e-05
-2.267860e-05
-1.267830e-03
-1.267830e-03
-7.467500e-04
-7.467510e-04
1.257820e-03
1.257820e-03
-2.267860e-05
-2.267780e-05
-1.267830e-03
-1.267830e-03
-7.467510e-04
-7.467500e-04
1.257820e-03
1.257820e-03
-1.267830e-03
-1.267830e-03
-5.704610e-04
-5.704610e-04
1.257820e-03
1.257820e-03
7.384890e-04
7.384890e-04
-1.267830e-03
-1.267830e-03
-5.704610e-04
-5.704610e-04
1.257820e-03
1.257820e-03
7.384890e-04
7.384900e-04
-5.704610e-04
-5.704610e-04
-1.667750e-03
-1.667750e-03
7.384890e-04
7.384890e-04
1.139720e-03
1.139720e-03
-5.704610e-04
-5.704610e-04
-1.667750e-03
-1.667750e-03
7.384890e-04
7.384900e-04
1.139720e-03
1.139720e-03
-1.667750e-03
-1.667750e-03
-1.309500e-03
-1.309500e-03
1.139720e-03
1.139720e-03
1.317240e-03
1.317240e-03
-1.667750e-03
-1.667750e-03
-1.309500e-03
-1.309500e-03
1.139720e-03
1.139720e-03
1.317240e-03
1.317240e-03
-1.309500e-03
-1.309500e-03
5.928560e-04
5.928580e-04
1.317240e-03
1.317240e-03
-2.387630e-04
-2.387620e-04
-1.309500e-03
-1.309500e-03
5.928580e-04
5.928570e-04
1.317240e-03
1.317240e-03
-2.387620e-04
-2.387630e-04
5.928560e-04
5.928580e-04
2.267260e-03
2.267260e-03
-2.387630e-04
-2.387620e-04
-1.872140e-03
-1.872140e-03
5.928580e-04
5.928570e-04
2.267260e-03
2.267260e-03
-2.387620e-04
-2.387630e-04
-1.872140e-03
-1.872140e-03
2.267260e-03
2.267260e-03
-1.041120e-03
-1.041120e-03
-1.872140e-03
-1.872140e-03
7.480730e-04
7.480730e-04
2.267260e-03
2.267260e-03
-1.041120e-03
-1.041120e-03
-1.872140e-03
-1.872140e-03
7.480730e-04
7.480730e-04
-1.041120e-03
-1.041120e-03
-6.104530e-04
-6.104530e-04
7.480730e-04
7.480730e-04
5.696070e-05
5.696030e-05
-1.041120e-03
-1.041120e-03
-6.104530e-04
-6.104530e-04
7.480730e-04
7.480730e-04
5.696030e-05
5.696010e-05
-6.104530e-04
-6.104530e-04
2.282790e-03
2.282790e-03
5.696070e-05
5.696030e-05
-1.743470e-03
-1.743470e-03
-6.104530e-04
-6.104530e-04
2.282790e-03
2.282790e-03
5.696030e-05
5.696010e-05
-1.743470e-03
-1.743470e-03
2.282790e-03
2.282790e-03
1.584650e-04
1.584640e-04
-1.743470e-03
-1.743470e-03
6.520840e-04
6.520850e-04
2.282790e-03
2.282790e-03
1.584640e-04
1.584650e-04
-1.743470e-03
-1.743470e-03
6.520850e-04
6.520850e-04
1.584650e-04
1.584640e-04
-4.524960e-04
-4.524960e-04
6.520840e-04
6.520850e-04
-5.159930e-05
-5.159920e-05
1.584640e-04
1.584650e-04
-4.524960e-04
-4.524970e-04
6.520850e-04
6.520850e-04
-5.159920e-05
-5.159850e-05
-4.524960e-04
-4.524960e-04
-1.448210e-04
-1.448210e-04
-5.159930e-05
-5.159920e-05
-1.367650e-03
-1.367650e-03
-4.524960e-04
-4.524970e-04
-1.448210e-04
-1.448210e-04
-5.159920e-05
-5.159850e-05
-1.367650e-03
-1.367650e-03
0.000000e+00
0.000000e+00
-1.119920e-03
-1.119920e-03
0.000000e+00
0.000000e+00
7.639850e-04
7.639850e-04
0.000000e+00
0.000000e+00
-1.119920e-03
-1.119920e-03
0.000000e+00
0.000000e+00
7.639850e-04
7.639850e-04
-1.119920e-03
-1.119920e-03
-1.064690e-04
-1.064690e-04
7.639850e-04
7.639850e-04
7.145150e-04
7.145150e-04
-1.119920e-03
-1.119920e-03
-1.064690e-04
-1.064690e-04
7.639850e-04