<?xml version="1.0"?>
<VTKFile type="UnstructuredGrid" version="0.1" byte_order="LittleEndian" compressor="vtkZLibDataCompressor">
<UnstructuredGrid>
<Piece NumberOfPoints="960" NumberOfCells="120">
<Points>
<DataArray type="Float32" NumberOfComponents="3" format="ascii">
-4.000000e+02 -6.000000e+03 -4.000000e+02
0.000000e+00 -6.000000e+03 -4.000000e+02
-3.999620e+02 -5.599740e+03 -3.990620e+02
1.794440e-02 -5.599670e+03 -3.994940e+02
-4.000000e+02 -6.000000e+03 0.000000e+00
0.000000e+00 -6.000000e+03 0.000000e+00
-4.001130e+02 -5.599920e+03 -2.990800e-01
-1.202330e-01 -5.600020e+03 -4.916970e-01
0.000000e+00 -6.000000e+03 -4.000000e+02
4.000000e+02 -6.000000e+03 -4.000000e+02
1.794440e-02 -5.599670e+03 -3.994940e+02
4.000030e+02 -5.599620e+03 -3.998220e+02
0.000000e+00 -6.000000e+03 0.000000e+00
4.000000e+02 -6.000000e+03 0.000000e+00
-1.202330e-01 -5.600020e+03 -4.916970e-01
3.998750e+02 -5.600070e+03 -6.585150e-01
-3.999620e+02 -5.599740e+03 -3.990620e+02
1.794440e-02 -5.599670e+03 -3.994940e+02
-4.003370e+02 -5.199750e+03 -3.995430e+02
-3.362090e-01 -5.199820e+03 -3.995420e+02
-4.001130e+02 -5.599920e+03 -2.990800e-01
-1.202330e-01 -5.600020e+03 -4.916970e-01
-4.000690e+02 -5.200110e+03 7.457210e-01
-8.259740e-02 -5.200090e+03 -1.961400e-01
1.794440e-02 -5.599670e+03 -3.994940e+02
4.000030e+02 -5.599620e+03 -3.998220e+02
-3.362090e-01 -5.199820e+03 -3.995420e+02
3.996600e+02 -5.199870e+03 -3.995040e+02
-1.202330e-01 -5.600020e+03 -4.916970e-01
3.998750e+02 -5.600070e+03 -6.585150e-01
-8.259740e-02 -5.200090e+03 -1.961400e-01
3.999070e+02 -5.200060e+03 -1.159620e+00
-4.003370e+02 -5.199750e+03 -3.995430e+02
-3.362090e-01 -5.199820e+03 -3.995420e+02
-4.001910e+02 -4.800710e+03 -4.002170e+02
-1.975210e-01 -4.800680e+03 -4.005650e+02
-4.000690e+02 -5.200110e+03 7.457210e-01
-8.259740e-02 -5.200090e+03 -1.961400e-01
-3.999620e+02 -4.799870e+03 4.929750e-01
4.327140e-02 -4.799800e+03 3.214610e-01
-3.362090e-01 -5.199820e+03 -3.995420e+02
3.996600e+02 -5.199870e+03 -3.995040e+02
-1.975210e-01 -4.800680e+03 -4.005650e+02
3.997950e+02 -4.800670e+03 -4.008920e+02
-8.259740e-02 -5.200090e+03 -1.961400e-01
3.999070e+02 -5.200060e+03 -1.159620e+00
4.327140e-02 -4.799800e+03 3.214610e-01
4.000490e+02 -4.799790e+03 1.027240e-01
-4.001910e+02 -4.800710e+03 -4.002170e+02
-1.975210e-01 -4.800680e+03 -4.005650e+02
-4.000900e+02 -4.401030e+03 -4.012160e+02
-8.060260e-02 -4.400960e+03 -4.007300e+02
-3.999620e+02 -4.799870e+03 4.929750e-01
4.327140e-02 -4.799800e+03 3.214610e-01
-4.000690e+02 -4.399930e+03 -2.861610e-01
-6.316780e-02 -4.400000e+03 -7.984190e-01
-1.975210e-01 -4.800680e+03 -4.005650e+02
3.997950e+02 -4.800670e+03 -4.008920e+02
-8.060260e-02 -4.400960e+03 -4.007300e+02
3.999300e+02 -4.400870e+03 -4.002770e+02
4.327140e-02 -4.799800e+03 3.214610e-01
4.000490e+02 -4.799790e+03 1.027240e-01
-6.316780e-02 -4.400000e+03 -7.984190e-01
3.999440e+02 -4.400010e+03 -1.289400e+00
-4.000900e+02 -4.401030e+03 -4.012160e+02
-8.060260e-02 -4.400960e+03 -4.007300e+02
-4.002060e+02 -4.001030e+03 -4.005750e+02
-2.262140e-01 -4.000980e+03 -4.010000e+02
-4.000690e+02 -4.399930e+03 -2.861610e-01
-6.316780e-02 -4.400000e+03 -7.984190e-01
-4.001900e+02 -3.999960e+03 -2.022060e+00
-1.692800e-01 -4.000030e+03 -1.543230e+00
-8.060260e-02 -4.400960e+03 -4.007300e+02
3.999300e+02 -4.400870e+03 -4.002770e+02
-2.262140e-01 -4.000980e+03 -4.010000e+02
3.997570e+02 -4.001000e+03 -4.014900e+02
-6.316780e-02 -4.400000e+03 -7.984190e-01
3.999440e+02 -4.400010e+03 -1.289400e+00
-1.692800e-01 -4.000030e+03 -1.543230e+00
3.998520e+02 -4.000040e+03 -1.133530e+00
-4.002060e+02 -4.001030e+03 -4.005750e+02
-2.262140e-01 -4.000980e+03 -4.010000e+02
-4.003030e+02 -3.600810e+03 -4.030660e+02
-2.971510e-01 -3.600750e+03 -4.026160e+02
-4.001900e+02 -3.999960e+03 -2.022060e+00
-1.692800e-01 -4.000030e+03 -1.543230e+00
-4.000260e+02 -3.600010e+03 -1.463470e+00
1.010330e-03 -3.599950e+03 -2.428020e+00
-2.262140e-01 -4.000980e+03 -4.010000e+02
3.997570e+02 -4.001000e+03 -4.014900e+02
-2.971510e-01 -3.600750e+03 -4.026160e+02
3.997070e+02 -3.600720e+03 -4.022240e+02
-1.692800e-01 -4.000030e+03 -1.543230e+00
3.998520e+02 -4.000040e+03 -1.133530e+00
1.010330e-03 -3.599950e+03 -2.428020e+00
4.000260e+02 -3.599920e+03 -3.337680e+00
-4.003030e+02 -3.600810e+03 -4.030660e+02
-2.971510e-01 -3.600750e+03 -4.026160e+02
-4.003570e+02 -3.200520e+03 -4.027210e+02
-3.833920e-01 -3.200490e+03 -4.029040e+02
-4.000260e+02 -3.600010e+03 -1.463470e+00
1.010330e-03 -3.599950e+03 -2.428020e+00
-3.998940e+02 -3.200040e+03 -3.556310e+00
1.207300e-01 -3.200080e+03 -3.522060e+00
-2.971510e-01 -3.600750e+03 -4.026160e+02
3.997070e+02 -3.600720e+03 -4.022240e+02
-3.833920e-01 -3.200490e+03 -4.029040e+02
3.995840e+02 -3.200470e+03 -4.032500e+02
1.010330e-03 -3.599950e+03 -2.428020e+00
4.000260e+02 -3.599920e+03 -3.337680e+00
1.207300e-01 -3.200080e+03 -3.522060e+00
4.001390e+02 -3.200150e+03 -3.455120e+00
-4.003570e+02 -3.200520e+03 -4.027210e+02
-3.833920e-01 -3.200490e+03 -4.029040e+02
-3.999490e+02 -2.800530e+03 -4.044990e+02
3.572140e-02 -2.800690e+03 -4.041510e+02
-3.998940e+02 -3.200040e+03 -3.556310e+00
1.207300e-01 -3.200080e+03 -3.522060e+00
-4.002540e+02 -2.800190e+03 -3.838400e+00
-2.715850e-01 -2.800140e+03 -4.211530e+00
-3.833920e-01 -3.200490e+03 -4.029040e+02
3.995840e+02 -3.200470e+03 -4.032500e+02
3.572140e-02 -2.800690e+03 -4.041510e+02
4.000180e+02 -2.800800e+03 -4.037870e+02
1.207300e-01 -3.200080e+03 -3.522060e+00
4.001390e+02 -3.200150e+03 -3.455120e+00
-2.715850e-01 -2.800140e+03 -4.211530e+00
3.997090e+02 -2.800130e+03 -4.684380e+00
-3.999490e+02 -2.800530e+03 -4.044990e+02
3.572140e-02 -2.800690e+03 -4.041510e+02
-4.002580e+02 -2.400940e+03 -4.049640e+02
-2.938660e-01 -2.401090e+03 -4.049810e+02
-4.002540e+02 -2.800190e+03 -3.838400e+00
-2.715850e-01 -2.800140e+03 -4.211530e+00
-4.000930e+02 -2.400280e+03 -4.321140e+00
-8.771340e-02 -2.400060e+03 -5.135510e+00
3.572140e-02 -2.800690e+03 -4.041510e+02
4.000180e+02 -2.800800e+03 -4.037870e+02
-2.938660e-01 -2.401090e+03 -4.049810e+02
3.996740e+02 -2.401200e+03 -4.048980e+02
-2.715850e-01 -2.800140e+03 -4.211530e+00
3.997090e+02 -2.800130e+03 -4.684380e+00
-8.771340e-02 -2.400060e+03 -5.135510e+00
3.999160e+02 -2.399830e+03 -5.973610e+00
-4.002580e+02 -2.400940e+03 -4.049640e+02
-2.938660e-01 -2.401090e+03 -4.049810e+02
-4.005940e+02 -2.001300e+03 -4.053370e+02
-6.090510e-01 -2.001100e+03 -4.061990e+02
-4.000930e+02 -2.400280e+03 -4.321140e+00
-8.771340e-02 -2.400060e+03 -5.135510e+00
-3.999290e+02 -1.999860e+03 -5.704830e+00
8.002180e-02 -1.999990e+03 -6.302160e+00
-2.938660e-01 -2.401090e+03 -4.049810e+02
3.996740e+02 -2.401200e+03 -4.048980e+02
-6.090510e-01 -2.001100e+03 -4.061990e+02
3.993880e+02 -2.000920e+03 -4.070550e+02
-8.771340e-02 -2.400060e+03 -5.135510e+00
3.999160e+02 -2.399830e+03 -5.973610e+00
8.002180e-02 -1.999990e+03 -6.302160e+00
4.000890e+02 -2.000140e+03 -6.969040e+00
-4.005940e+02 -2.001300e+03 -4.053370e+02
-6.090510e-01 -2.001100e+03 -4.061990e+02
-4.001920e+02 -1.600710e+03 -4.069190e+02
-2.035790e-01 -1.600680e+03 -4.070940e+02
-3.999290e+02 -1.999860e+03 -5.704830e+00
8.002180e-02 -1.999990e+03 -6.302160e+00
-4.002070e+02 -1.599890e+03 -6.514360e+00
-1.699950e-01 -1.599990e+03 -6.852500e+00
-6.090510e-01 -2.001100e+03 -4.061990e+02
3.993880e+02 -2.000920e+03 -4.070550e+02
-2.035790e-01 -1.600680e+03 -4.070940e+02
3.997850e+02 -1.600630e+03 -4.073000e+02
8.002180e-02 -1.999990e+03 -6.302160e+00
4.000890e+02 -2.000140e+03 -6.969040e+00
-1.699950e-01 -1.599990e+03 -6.852500e+00
3.998630e+02 -1.600080e+03 -7.182480e+00
-4.001920e+02 -1.600710e+03 -4.069190e+02
-2.035790e-01 -1.600680e+03 -4.070940e+02
-4.001390e+02 -1.200240e+03 -4.085180e+02
-1.576980e-01 -1.200430e+03 -4.078500e+02
-4.002070e+02 -1.599890e+03 -6.514360e+00
-1.699950e-01 -1.599990e+03 -6.852500e+00
-4.001460e+02 -1.200130e+03 -6.779160e+00
-1.326150e-01 -1.199970e+03 -7.572200e+00
-2.035790e-01 -1.600680e+03 -4.070940e+02
3.997850e+02 -1.600630e+03 -4.073000e+02
-1.576980e-01 -1.200430e+03 -4.078500e+02
3.998240e+02 -1.200620e+03 -4.071840e+02
-1.699950e-01 -1.599990e+03 -6.852500e+00
3.998630e+02 -1.600080e+03 -7.182480e+00
-1.326150e-01 -1.199970e+03 -7.572200e+00
3.998790e+02 -1.199860e+03 -8.369630e+00
-4.001390e+02 -1.200240e+03 -4.085180e+02
-1.576980e-01 -1.200430e+03 -4.078500e+02
-4.002200e+02 -8.001740e+02 -4.080730e+02
-2.553600e-01 -8.004600e+02 -4.081750e+02
-4.001460e+02 -1.200130e+03 -6.779160e+00
-1.326150e-01 -1.199970e+03 -7.572200e+00
-4.000610e+02 -8.001480e+02 -8.197820e+00
-4.340350e-02 -8.000530e+02 -8.824340e+00
-1.576980e-01 -1.200430e+03 -4.078500e+02
3.998240e+02 -1.200620e+03 -4.071840e+02
-2.553600e-01 -8.004600e+02 -4.081750e+02
3.997140e+02 -8.006390e+02 -4.083110e+02
-1.326150e-01 -1.199970e+03 -7.572200e+00
3.998790e+02 -1.199860e+03 -8.369630e+00
-4.340350e-02 -8.000530e+02 -8.824340e+00
3.999730e+02 -7.999780e+02 -9.516980e+00
-4.002200e+02 -8.001740e+02 -4.080730e+02
-2.553600e-01 -8.004600e+02 -4.081750e+02
-4.006250e+02 -4.005030e+02 -4.074850e+02
-5.754970e-01 -4.008730e+02 -4.086470e+02
-4.000610e+02 -8.001480e+02 -8.197820e+00
-4.340350e-02 -8.000530e+02 -8.824340e+00
-3.998360e+02 -4.000040e+02 -9.405130e+00
1.219580e-01 -3.997950e+02 -9.600450e+00
-2.553600e-01 -8.004600e+02 -4.081750e+02
3.997140e+02 -8.006390e+02 -4.083110e+02
-5.754970e-01 -4.008730e+02 -4.086470e+02
3.994740e+02 -4.012280e+02 -4.097690e+02
-4.340350e-02 -8.000530e+02 -8.824340e+00
3.999730e+02 -7.999780e+02 -9.516980e+00
1.219580e-01 -3.997950e+02 -9.600450e+00
4.000790e+02 -3.996030e+02 -9.758460e+00
-4.006250e+02 -4.005030e+02 -4.074850e+02
-5.754970e-01 -4.008730e+02 -4.086470e+02
-4.002370e+02 -9.843070e-01 -4.094010e+02
-2.251930e-01 -9.413210e-01 -4.101310e+02
-3.998360e+02 -4.000040e+02 -9.405130e+00
1.219580e-01 -3.997950e+02 -9.600450e+00
-3.999000e+02 2.434350e-01 -1.001530e+01
9.030180e-02 1.799520e-01 -1.030980e+01
-5.754970e-01 -4.008730e+02 -4.086470e+02
3.994740e+02 -4.012280e+02 -4.097690e+02
[...]
<PointData>
<DataArray type="Float32" Name="V1" format="ascii">
0.000000e+00
0.000000e+00
-2.190250e-02
4.293990e-02
0.000000e+00
0.000000e+00
-1.311820e-01
-1.776590e-01
0.000000e+00
0.000000e+00
4.293990e-02
1.062920e-01
0.000000e+00
0.000000e+00
-1.776590e-01
-2.212600e-01
-2.190250e-02
4.293990e-02
3.807410e-01
3.773760e-01
-1.311820e-01
-1.776590e-01
-3.365880e-01
-3.155850e-01
4.293990e-02
1.062920e-01
3.773760e-01
3.658590e-01
-1.776590e-01
-2.212600e-01
-3.155850e-01
-3.017420e-01
3.807410e-01
3.773760e-01
7.339030e-02
8.796050e-02
-3.365880e-01
-3.155850e-01
1.850800e-02
-1.124250e-02
3.773760e-01
3.658590e-01
8.796050e-02
9.822880e-02
-3.155850e-01
-3.017420e-01
-1.124250e-02
-3.979740e-02
7.339030e-02
8.796050e-02
-5.673060e-02
-8.279230e-02
1.850800e-02
-1.124250e-02
5.731380e-02
7.220920e-02
8.796050e-02
9.822880e-02
-8.279230e-02
-9.645350e-02
-1.124250e-02
-3.979740e-02
7.220920e-02
8.918460e-02
-5.673060e-02
-8.279230e-02
1.848850e-01
2.420370e-01
5.731380e-02
7.220920e-02
-1.631150e-01
-1.989900e-01
-8.279230e-02
-9.645350e-02
2.420370e-01
2.963680e-01
7.220920e-02
8.918460e-02
-1.989900e-01
-2.314330e-01
1.848850e-01
2.420370e-01
-4.786200e-02
-5.928450e-02
-1.631150e-01
-1.989900e-01
2.211450e-02
-5.808400e-03
2.420370e-01
2.963680e-01
-5.928450e-02
-7.563350e-02
-1.989900e-01
-2.314330e-01
-5.808400e-03
-3.488630e-02
-4.786200e-02
-5.928450e-02
-6.696460e-01
-6.381480e-01
2.211450e-02
-5.808400e-03
3.785920e-01
3.605720e-01
-5.928450e-02
-7.563350e-02
-6.381480e-01
-5.939520e-01
-5.808400e-03
-3.488630e-02
3.605720e-01
3.467840e-01
-6.696460e-01
-6.381480e-01
1.225610e-01
1.139040e-01
3.785920e-01
3.605720e-01
-1.447620e-01
-1.455150e-01
-6.381480e-01
-5.939520e-01
1.139040e-01
1.072290e-01
3.605720e-01
3.467840e-01
-1.455150e-01
-1.570510e-01
1.225610e-01
1.139040e-01
-2.954750e-01
-3.149530e-01
-1.447620e-01
-1.455150e-01
7.549170e-02
9.558030e-02
1.139040e-01
1.072290e-01
-3.149530e-01
-3.273330e-01
-1.455150e-01
-1.570510e-01
9.558030e-02
1.190440e-01
-2.954750e-01
-3.149530e-01
3.577630e-02
1.016530e-01
7.549170e-02
9.558030e-02
6.375110e-03
-2.626710e-02
-3.149530e-01
-3.273330e-01
1.016530e-01
1.456920e-01
9.558030e-02
1.190440e-01
-2.626710e-02
-5.988740e-02
3.577630e-02
1.016530e-01
1.541550e-01
6.989280e-02
6.375110e-03
-2.626710e-02
-9.153510e-02
-5.287960e-02
1.016530e-01
1.456920e-01
6.989280e-02
9.052650e-03
-2.626710e-02
-5.988740e-02
-5.287960e-02
-1.937900e-02
1.541550e-01
6.989280e-02
2.014370e-02
8.912330e-02
-9.153510e-02
-5.287960e-02
1.319640e-01
9.524740e-02
6.989280e-02
9.052650e-03
8.912330e-02
1.441010e-01
-5.287960e-02
-1.937900e-02
9.524740e-02
5.324120e-02
2.014370e-02
8.912330e-02
1.540870e-01
1.742930e-01
1.319640e-01
9.524740e-02
-7.050310e-02
-9.075270e-02
8.912330e-02
1.441010e-01
1.742930e-01
2.014290e-01
9.524740e-02
5.324120e-02
-9.075270e-02
-1.110560e-01
1.540870e-01
1.742930e-01
2.055660e-01
1.685730e-01
-7.050310e-02
-9.075270e-02
-1.796450e-01
-1.653990e-01
1.742930e-01
2.014290e-01
1.685730e-01
1.407650e-01
-9.075270e-02
-1.110560e-01
-1.653990e-01
-1.626630e-01
2.055660e-01
1.685730e-01
-1.979230e-01
-2.570940e-01
-1.796450e-01
-1.653990e-01
6.837400e-02
9.420830e-02
1.685730e-01
1.407650e-01
-2.570940e-01
-3.008130e-01
-1.653990e-01
-1.626630e-01
9.420830e-02
1.297090e-01
-1.979230e-01
-2.570940e-01
1.716430e-01
1.950360e-01
6.837400e-02
9.420830e-02
-1.129320e-01
-1.374020e-01
-2.570940e-01
-3.008130e-01
1.950360e-01
2.255370e-01
9.420830e-02
1.297090e-01
-1.374020e-01
-1.753390e-01
1.716430e-01
1.950360e-01
3.276330e-01
3.060010e-01
-1.129320e-01
-1.374020e-01
-3.005620e-01
-2.583730e-01
1.950360e-01
2.255370e-01
3.060010e-01
2.751500e-01
-1.374020e-01
-1.753390e-01
-2.583730e-01
-2.240150e-01
3.276330e-01
3.060010e-01
-2.486760e-01
-2.729020e-01
-3.005620e-01
-2.583730e-01
5.129370e-02
6.030580e-02
3.060010e-01
2.751500e-01
-2.729020e-01
-2.950220e-01
-2.583730e-01
-2.240150e-01
6.030580e-02
7.279690e-02
-2.486760e-01
-2.729020e-01
-1.717670e-01
-1.254240e-01
5.129370e-02
6.030580e-02
5.162860e-02
6.787360e-02
-2.729020e-01
-2.950220e-01
-1.254240e-01
-7.744770e-02
6.030580e-02
7.279690e-02
6.787360e-02
7.791420e-02
-1.717670e-01
-1.254240e-01
5.390700e-02
3.532490e-02
5.162860e-02
6.787360e-02
5.995090e-02
6.572380e-02
-1.254240e-01
-7.744770e-02
3.532490e-02
2.269450e-02
6.787360e-02
7.791420e-02
6.572380e-02
6.667180e-02
5.390700e-02
3.532490e-02
-1.091980e-02
-1.767320e-02
5.995090e-02
6.572380e-02
1.884780e-01
1.843430e-01
3.532490e-02
2.269450e-02
-1.767320e-02
-8.921360e-03
6.572380e-02
6.667180e-02
1.843430e-01
1.694950e-01
-1.091980e-02
-1.767320e-02
-1.539600e-01
-2.113520e-01
1.884780e-01
1.843430e-01
-8.141170e-02
-3.905690e-02
-1.767320e-02
-8.921360e-03
-2.113520e-01
-2.538080e-01
1.843430e-01
1.694950e-01
-3.905690e-02
-2.229770e-03
-1.539600e-01
-2.113520e-01
7.840130e-03
-1.499990e-02
-8.141170e-02
-3.905690e-02
1.591990e-01
1.787660e-01
-2.113520e-01
-2.538080e-01
-1.499990e-02
-3.917700e-02
-3.905690e-02
-2.229770e-03
1.787660e-01
1.951460e-01
7.840130e-03
-1.499990e-02
3.107880e-01
3.254580e-01
1.591990e-01
1.787660e-01
-1.254620e-01
-1.461580e-01
-1.499990e-02
-3.917700e-02
3.254580e-01
3.567000e-01
1.787660e-01
1.951460e-01
-1.461580e-01
-1.634160e-01
3.107880e-01
3.254580e-01
-6.880750e-01
-6.614810e-01
-1.254620e-01
-1.461580e-01
6.678680e-01
6.681980e-01
3.254580e-01
3.567000e-01
-6.614810e-01
-6.384990e-01
-1.461580e-01
-1.634160e-01
6.681980e-01
6.674340e-01
-6.880750e-01
-6.614810e-01
-4.682480e-02
-1.611840e-02
6.678680e-01
6.681980e-01
-1.223850e-01
-1.192770e-01
-6.614810e-01
-6.384990e-01
-1.611840e-02
2.272010e-02
6.681980e-01
6.674340e-01
-1.192770e-01
-1.248850e-01
-4.682480e-02
-1.611840e-02
-1.252210e-01
-1.588120e-01
-1.223850e-01
-1.192770e-01
4.047650e-02
6.156150e-02
-1.611840e-02
2.272010e-02
-1.588120e-01
-2.084460e-01
-1.192770e-01
-1.248850e-01
6.156150e-02
8.601590e-02
-1.252210e-01
-1.588120e-01
1.698590e-01
1.493890e-01
4.047650e-02
6.156150e-02
-2.071400e-01
-1.941860e-01
-1.588120e-01
-2.084460e-01
1.493890e-01
1.324350e-01
6.156150e-02
8.601590e-02
-1.941860e-01
-1.748940e-01
1.698590e-01
1.493890e-01
7.927580e-02
8.682160e-02
-2.071400e-01
-1.941860e-01
-1.523490e-01
-1.614980e-01
1.493890e-01
1.324350e-01
8.682160e-02
1.042490e-01
-1.941860e-01
-1.748940e-01
-1.614980e-01
-1.830270e-01
7.927580e-02
8.682160e-02
4.467030e-01
4.845570e-01
-1.523490e-01
-1.614980e-01
-9.920180e-02
-1.365530e-01
8.682160e-02
1.042490e-01
4.845570e-01
5.066090e-01
-1.614980e-01
-1.830270e-01
-1.365530e-01
-1.619020e-01
0.000000e+00
0.000000e+00
-1.311820e-01
-1.776590e-01
0.000000e+00
0.000000e+00
2.912410e-01
3.109170e-01
0.000000e+00
0.000000e+00
-1.776590e-01
-2.212600e-01
0.000000e+00
0.000000e+00
3.109170e-01
3.198420e-01
-1.311820e-01
-1.776590e-01
-3.365880e-01
-3.155850e-01
2.912410e-01
3.109170e-01
2.706940e-01
2.501850e-01
-1.776590e-01
-2.212600e-01
-3.155850e-01
-3.017420e-01
3.109170e-01
3.198420e-01
2.501850e-01
2.510980e-01
-3.365880e-01
-3.155850e-01
1.850800e-02
-1.124250e-02
2.706940e-01
2.501850e-01
-9.792420e-02
-6.515620e-02
-3.155850e-01
-3.017420e-01
-1.124250e-02
-3.979740e-02
2.501850e-01
2.510980e-01
-6.515620e-02
-2.312350e-02
1.850800e-02
-1.124250e-02
5.731380e-02
7.220920e-02
-9.792420e-02
-6.515620e-02
-3.266600e-02
-4.972690e-02
-1.124250e-02
-3.979740e-02
7.220920e-02
8.918460e-02
-6.515620e-02
-2.312350e-02
-4.972690e-02
-8.803520e-02
5.731380e-02
7.220920e-02
-1.631150e-01
-1.989900e-01
-3.266600e-02
-4.972690e-02
1.258060e-01
1.350870e-01
7.220920e-02
8.918460e-02
-1.989900e-01
-2.314330e-01
-4.972690e-02
-8.803520e-02
1.350870e-01
1.518780e-01
-1.631150e-01
-1.989900e-01
2.211450e-02
-5.808400e-03
1.258060e-01
1.350870e-01
-6.136440e-03
5.963920e-02
-1.989900e-01
-2.314330e-01
-5.808400e-03
-3.488630e-02
1.350870e-01
1.518780e-01
5.963920e-02
1.303380e-01
2.211450e-02
-5.808400e-03
3.785920e-01
3.605720e-01
-6.136440e-03
5.963920e-02
-3.586570e-02
-5.172480e-02
-5.808400e-03
-3.488630e-02
3.605720e-01
3.467840e-01
5.963920e-02
1.303380e-01
-5.172480e-02
-8.231740e-02
3.785920e-01
3.605720e-01
-1.447620e-01
-1.455150e-01
-3.586570e-02
-5.172480e-02
1.488300e-01
1.646640e-01
3.605720e-01
3.467840e-01
-1.455150e-01
-1.570510e-01
-5.172480e-02
-8.231740e-02
1.646640e-01
1.946700e-01
-1.447620e-01
-1.455150e-01
7.549170e-02
9.558030e-02
1.488300e-01
1.646640e-01
2.018620e-01
1.373750e-01
-1.455150e-01
-1.570510e-01
9.558030e-02
1.190440e-01
1.646640e-01
1.946700e-01
1.373750e-01
7.968740e-02
7.549170e-02
9.558030e-02
6.375110e-03
-2.626710e-02
2.018620e-01
1.373750e-01
-9.966290e-02
-5.828100e-02
9.558030e-02
1.190440e-01
-2.626710e-02
-5.988740e-02
1.373750e-01
7.968740e-02
-5.828100e-02
-2.213350e-02
6.375110e-03
-2.626710e-02
-9.153510e-02
-5.287960e-02
-9.966290e-02
-5.828100e-02
4.725410e-02
3.537650e-02
-2.626710e-02
-5.988740e-02
-5.287960e-02
-1.937900e-02
-5.828100e-02
-2.213350e-02
3.537650e-02
2.529530e-02
-9.153510e-02
-5.287960e-02
1.319640e-01
9.524740e-02
4.725410e-02
3.537650e-02
-2.764550e-01
-2.490300e-01
-5.287960e-02
-1.937900e-02
9.524740e-02
5.324120e-02
3.537650e-02
2.529530e-02
-2.490300e-01
-2.103140e-01
1.319640e-01
9.524740e-02
-7.050310e-02
-9.075270e-02
-2.764550e-01
-2.490300e-01
-3.877310e-02
-4.779310e-02
9.524740e-02
5.324120e-02
-9.075270e-02
-1.110560e-01
-2.490300e-01
-2.103140e-01
-4.779310e-02
-4.398760e-02
-7.050310e-02
-9.075270e-02
-1.796450e-01
-1.653990e-01
-3.877310e-02
-4.779310e-02
1.824080e-01
1.887460e-01
-9.075270e-02
-1.110560e-01
-1.653990e-01
-1.626630e-01
-4.779310e-02
-4.398760e-02
1.887460e-01
1.907020e-01
-1.796450e-01
-1.653990e-01
6.837400e-02
9.420830e-02
1.824080e-01
1.887460e-01
7.307750e-02
6.791550e-02
-1.653990e-01
-1.626630e-01
9.420830e-02
1.297090e-01
1.887460e-01
1.907020e-01
6.791550e-02
4.853190e-02
6.837400e-02
9.420830e-02
-1.129320e-01
-1.374020e-01
7.307750e-02
6.791550e-02
1.799030e-02
5.301170e-02
9.420830e-02
1.297090e-01
-1.374020e-01
-1.753390e-01
6.791550e-02
4.853190e-02
5.301170e-02
9.425500e-02
-1.129320e-01
-1.374020e-01
-3.005620e-01
-2.583730e-01
1.799030e-02
5.301170e-02
3.255720e-01
2.628380e-01
-1.374020e-01
-1.753390e-01
-2.583730e-01
-2.240150e-01
5.301170e-02
9.425500e-02
2.628380e-01
2.326500e-01
-3.005620e-01
-2.583730e-01
5.129370e-02
6.030580e-02
3.255720e-01
2.628380e-01
1.179900e-01
1.146430e-01
-2.583730e-01
-2.240150e-01
6.030580e-02
7.279690e-02
2.628380e-01
2.326500e-01
1.146430e-01
1.117220e-01
5.129370e-02
6.030580e-02
5.162860e-02
6.787360e-02
1.179900e-01
1.146430e-01
7.830440e-02
5.141000e-03
6.030580e-02
7.279690e-02
6.787360e-02
7.791420e-02
1.146430e-01
1.117220e-01
5.141000e-03
-7.029180e-02
5.162860e-02
6.787360e-02
5.995090e-02
6.572380e-02
7.830440e-02
5.141000e-03
-1.505640e-01
-1.386360e-01
6.787360e-02
7.791420e-02
6.572380e-02
6.667180e-02
5.141000e-03
-7.029180e-02
-1.386360e-01
-1.236520e-01
5.995090e-02
6.572380e-02
1.884780e-01
1.843430e-01
-1.505640e-01
-1.386360e-01
-4.175910e-01
-3.892870e-01
6.572380e-02
6.667180e-02
1.843430e-01
1.694950e-01
-1.386360e-01
-1.236520e-01
-3.892870e-01
-3.587160e-01
1.884780e-01
1.843430e-01
-8.141170e-02
-3.905690e-02
-4.175910e-01
-3.892870e-01
3.108120e-01
3.010510e-01
1.843430e-01
1.694950e-01
-3.905690e-02
-2.229770e-03
-3.892870e-01
-3.587160e-01
3.010510e-01
2.955980e-01
-8.141170e-02
-3.905690e-02
1.591990e-01
1.787660e-01
3.108120e-01
3.010510e-01
-3.088660e-01
-3.406360e-01
-3.905690e-02
-2.229770e-03
1.787660e-01
1.951460e-01
3.010510e-01
2.955980e-01
-3.406360e-01
-3.658230e-01
1.591990e-01
1.787660e-01
-1.254620e-01
-1.461580e-01
-3.088660e-01
-3.406360e-01
-9.786170e-02
-7.195090e-02
1.787660e-01
1.951460e-01
-1.461580e-01
-1.634160e-01
-3.406360e-01
-3.658230e-01
-7.195090e-02
-4.541590e-02
-1.254620e-01
-1.461580e-01
6.678680e-01
6.681980e-01
-9.786170e-02
-7.195090e-02
-6.041960e-01
-6.359890e-01
-1.461580e-01
-1.634160e-01
6.681980e-01
6.674340e-01
-7.195090e-02
-4.541590e-02
-6.359890e-01
-6.837180e-01
6.678680e-01
6.681980e-01
-1.223850e-01
-1.192770e-01
-6.041960e-01
-6.359890e-01
2.912820e-01
2.401320e-01
6.681980e-01
6.674340e-01
-1.192770e-01
-1.248850e-01
-6.359890e-01
-6.837180e-01
2.401320e-01
2.148170e-01
-1.223850e-01
-1.192770e-01
4.047650e-02
6.156150e-02
2.912820e-01
2.401320e-01
4.113010e-02
3.892080e-02
-1.192770e-01
-1.248850e-01
6.156150e-02
8.601590e-02
2.401320e-01
2.148170e-01
3.892080e-02
4.788850e-02
4.047650e-02
6.156150e-02
-2.071400e-01
-1.941860e-01
4.113010e-02
3.892080e-02
2.235040e-01
2.204030e-01
6.156150e-02
8.601590e-02
-1.941860e-01
-1.748940e-01
3.892080e-02
4.788850e-02
2.204030e-01
2.099060e-01
-2.071400e-01
-1.941860e-01
-1.523490e-01
-1.614980e-01
2.235040e-01
2.204030e-01
2.489020e-01
2.562320e-01
-1.941860e-01
-1.748940e-01
-1.614980e-01
-1.830270e-01
2.204030e-01
2.099060e-01
2.562320e-01
2.636480e-01
-1.523490e-01
-1.614980e-01
-9.920180e-02
-1.365530e-01
2.489020e-01
2.562320e-01
-2.605340e-01
-2.184550e-01
-1.614980e-01
-1.830270e-01
-1.365530e-01
-1.619020e-01
2.562320e-01
2.636480e-01
-2.184550e-01
-1.736910e-01
</DataArray>
<DataArray type="Float32" Name="V2" format="ascii">
0.000000e+00
0.000000e+00
-4.968650e-01
-4.266340e-01
0.000000e+00
0.000000e+00
1.873280e-02
2.156960e-01
0.000000e+00
0.000000e+00
-4.266340e-01
-4.277060e-02
0.000000e+00
0.000000e+00
2.156960e-01
2.929600e-01
-4.968650e-01
-4.266340e-01
1.035240e-01
-2.433950e-01
1.873280e-02
2.156960e-01
-7.122560e-02
1.412950e-01
-4.266340e-01
-4.277060e-02
-2.433950e-01
-6.952050e-01
2.156960e-01
2.929600e-01
1.412950e-01
2.444020e-01
1.035240e-01
-2.433950e-01
3.855590e-01
-6.708110e-02
-7.122560e-02
1.412950e-01
-1.204530e-01
7.905670e-02
-2.433950e-01
-6.952050e-01
-6.708110e-02
-4.494810e-01
1.412950e-01
2.444020e-01
7.905670e-02
3.471290e-01
3.855590e-01
-6.708110e-02
-1.408130e-01
1.440040e-01
-1.204530e-01
7.905670e-02
-8.233640e-02
-1.617380e-01
-6.708110e-02
-4.494810e-01
1.440040e-01
4.062730e-01
7.905670e-02
3.471290e-01
-1.617380e-01
-1.516000e-01
-1.408130e-01
1.440040e-01
1.488130e-01
-4.324350e-02
-8.233640e-02
-1.617380e-01
-4.223300e-02
6.948440e-02
1.440040e-01
4.062730e-01
-4.324350e-02
-2.254420e-01
-1.617380e-01
-1.516000e-01
6.948440e-02
1.396210e-01
1.488130e-01
-4.324350e-02
-1.567460e-02
2.789090e-01
-4.223300e-02
6.948440e-02
-2.757770e-01
-1.999420e-01
-4.324350e-02
-2.254420e-01
2.789090e-01
4.096700e-01
6.948440e-02
1.396210e-01
-1.999420e-01
-6.966220e-02
-1.567460e-02
2.789090e-01
-4.494620e-01
-2.185180e-01
-2.757770e-01
-1.999420e-01
4.343520e-01
1.632200e-01
2.789090e-01
4.096700e-01
-2.185180e-01
-4.607390e-02
-1.999420e-01
-6.966220e-02
1.632200e-01
-5.438940e-02
-4.494620e-01
-2.185180e-01
-1.364230e-01
-1.076330e-01
4.343520e-01
1.632200e-01
1.917830e-01
7.324760e-02
-2.185180e-01
-4.607390e-02
-1.076330e-01
-1.058980e-01
1.632200e-01
-5.438940e-02
7.324760e-02
-1.098110e-01
-1.364230e-01
-1.076330e-01
5.011480e-01
6.281680e-02
1.917830e-01
7.324760e-02
-8.099270e-02
6.838480e-02
-1.076330e-01
-1.058980e-01
6.281680e-02
-2.718310e-01
7.324760e-02
-1.098110e-01
6.838480e-02
1.290760e-01
5.011480e-01
6.281680e-02
8.724090e-02
-8.499170e-02
-8.099270e-02
6.838480e-02
6.440750e-02
9.993300e-02
6.281680e-02
-2.718310e-01
-8.499170e-02
-2.818980e-01
6.838480e-02
1.290760e-01
9.993300e-02
1.965430e-01
8.724090e-02
-8.499170e-02
4.513660e-01
5.819380e-01
6.440750e-02
9.993300e-02
-5.813920e-01
-4.896410e-01
-8.499170e-02
-2.818980e-01
5.819380e-01
7.098590e-01
9.993300e-02
1.965430e-01
-4.896410e-01
-3.404360e-01
4.513660e-01
5.819380e-01
1.305720e-01
-1.046710e-01
-5.813920e-01
-4.896410e-01
1.565680e-01
1.598520e-01
5.819380e-01
7.098590e-01
-1.046710e-01
-4.824350e-01
-4.896410e-01
-3.404360e-01
1.598520e-01
3.119920e-01
1.305720e-01
-1.046710e-01
-4.327010e-01
-2.355920e-01
1.565680e-01
1.598520e-01
1.555200e-01
1.311350e-01
-1.046710e-01
-4.824350e-01
-2.355920e-01
2.351980e-02
1.598520e-01
3.119920e-01
1.311350e-01
-7.183130e-02
-4.327010e-01
-2.355920e-01
-1.908600e-02
-1.212390e-01
1.555200e-01
1.311350e-01
-8.867860e-02
-4.288800e-02
-2.355920e-01
2.351980e-02
-1.212390e-01
-2.435090e-01
1.311350e-01
-7.183130e-02
-4.288800e-02
2.219580e-01
-1.908600e-02
-1.212390e-01
-5.578950e-02
-2.118830e-01
-8.867860e-02
-4.288800e-02
2.109550e-01
2.598930e-01
-1.212390e-01
-2.435090e-01
-2.118830e-01
-3.857940e-01
-4.288800e-02
2.219580e-01
2.598930e-01
1.625840e-01
-5.578950e-02
-2.118830e-01
6.135540e-02
2.134770e-01
2.109550e-01
2.598930e-01
1.551170e-01
-8.695200e-02
-2.118830e-01
-3.857940e-01
2.134770e-01
2.460720e-01
2.598930e-01
1.625840e-01
-8.695200e-02
-2.321730e-01
6.135540e-02
2.134770e-01
5.335180e-01
2.442000e-01
1.551170e-01
-8.695200e-02
-3.079030e-01
-1.660980e-01
2.134770e-01
2.460720e-01
2.442000e-01
1.988000e-01
-8.695200e-02
-2.321730e-01
-1.660980e-01
-2.277580e-01
5.335180e-01
2.442000e-01
-7.813020e-01
-1.553920e-01
-3.079030e-01
-1.660980e-01
6.313380e-01
2.247510e-01
2.442000e-01
1.988000e-01
-1.553920e-01
9.570300e-02
-1.660980e-01
-2.277580e-01
2.247510e-01
-2.199810e-02
-7.813020e-01
-1.553920e-01
-1.916800e-02
-2.187330e-01
6.313380e-01
2.247510e-01
1.129900e-01
2.886180e-01
-1.553920e-01
9.570300e-02
-2.187330e-01
-2.733450e-01
2.247510e-01
-2.199810e-02
2.886180e-01
2.769580e-01
-1.916800e-02
-2.187330e-01
2.177190e-01
2.929870e-01
1.129900e-01
2.886180e-01
-1.765820e-01
-3.250540e-01
-2.187330e-01
-2.733450e-01
2.929870e-01
4.896100e-01
2.886180e-01
2.769580e-01
-3.250540e-01
-4.759180e-01
2.177190e-01
2.929870e-01
-7.161440e-02
-2.095480e-01
-1.765820e-01
-3.250540e-01
8.797270e-02
1.501170e-01
2.929870e-01
4.896100e-01
-2.095480e-01
-5.246750e-01
-3.250540e-01
-4.759180e-01
1.501170e-01
2.870340e-01
-7.161440e-02
-2.095480e-01
5.168120e-01
5.948580e-01
8.797270e-02
1.501170e-01
-2.711410e-01
-4.139690e-01
-2.095480e-01
-5.246750e-01
5.948580e-01
4.229550e-01
1.501170e-01
2.870340e-01
-4.139690e-01
-4.955720e-01
5.168120e-01
5.948580e-01
4.656700e-01
3.892640e-01
-2.711410e-01
-4.139690e-01
-1.155410e-01
-2.068290e-01
5.948580e-01
4.229550e-01
3.892640e-01
5.308350e-01
-4.139690e-01
-4.955720e-01
-2.068290e-01
-4.043680e-01
4.656700e-01
3.892640e-01
-2.568640e-01
-5.015510e-01
-1.155410e-01
-2.068290e-01
1.575180e-01
4.432500e-01
3.892640e-01
5.308350e-01
-5.015510e-01
-8.503590e-01
-2.068290e-01
-4.043680e-01
4.432500e-01
7.840580e-01
-2.568640e-01
-5.015510e-01
-1.194690e-01
-6.961160e-02
1.575180e-01
4.432500e-01
-5.464070e-02
-8.083900e-02
-5.015510e-01
-8.503590e-01
-6.961160e-02
-8.229740e-02
4.432500e-01
7.840580e-01
-8.083900e-02
3.582130e-03
-1.194690e-01
-6.961160e-02
2.645130e-02
7.829240e-03
-5.464070e-02
-8.083900e-02
-3.156460e-01
-1.213950e-01
-6.961160e-02
-8.229740e-02
7.829240e-03
-7.564280e-02
-8.083900e-02
3.582130e-03
-1.213950e-01
8.003130e-02
2.645130e-02
7.829240e-03
-7.233940e-01
-3.074710e-01
-3.156460e-01
-1.213950e-01
5.436230e-01
2.741760e-01
7.829240e-03
-7.564280e-02
-3.074710e-01
1.196890e-01
-1.213950e-01
8.003130e-02
2.741760e-01
-3.588090e-02
-7.233940e-01
-3.074710e-01
3.100270e-01
1.530960e-01
5.436230e-01
2.741760e-01
-3.913870e-01
2.452250e-02
-3.074710e-01
1.196890e-01
1.530960e-01
1.008200e-01
2.741760e-01
-3.588090e-02
2.452250e-02
4.616880e-01
3.100270e-01
1.530960e-01
-2.058320e-02
2.499150e-01
-3.913870e-01
2.452250e-02
7.320830e-02
-9.056680e-02
1.530960e-01
1.008200e-01
2.499150e-01
2.808330e-01
2.452250e-02
4.616880e-01
-9.056680e-02
-6.455020e-02
-2.058320e-02
2.499150e-01
1.438130e-01
-1.664350e-01
7.320830e-02
-9.056680e-02
1.216240e-01
9.555630e-02
2.499150e-01
2.808330e-01
-1.664350e-01
-2.985070e-02
-9.056680e-02
-6.455020e-02
9.555630e-02
-1.657210e-01
0.000000e+00
0.000000e+00
1.873280e-02
2.156960e-01
0.000000e+00
0.000000e+00
4.188000e-01
-5.172030e-02
0.000000e+00
0.000000e+00
2.156960e-01
2.929600e-01
0.000000e+00
0.000000e+00
-5.172030e-02
-3.851350e-01
1.873280e-02
2.156960e-01
-7.122560e-02
1.412950e-01
4.188000e-01
-5.172030e-02
3.232390e-02
-1.319860e-02
2.156960e-01
2.929600e-01
1.412950e-01
2.444020e-01
-5.172030e-02
-3.851350e-01
-1.319860e-02
1.596670e-01
-7.122560e-02