<?xml version="1.0"?>
<VTKFile type="UnstructuredGrid" version="0.1" byte_order="LittleEndian" compressor="vtkZLibDataCompressor">
<UnstructuredGrid>
<Piece NumberOfPoints="960" NumberOfCells="120">
<Points>
<DataArray type="Float32" NumberOfComponents="3" format="ascii">
-4.000000e+02 -6.000000e+03 -4.000000e+02
0.000000e+00 -6.000000e+03 -4.000000e+02
-3.996970e+02 -5.600820e+03 -4.008650e+02
3.319180e-01 -5.600470e+03 -4.007080e+02
-4.000000e+02 -6.000000e+03 0.000000e+00
0.000000e+00 -6.000000e+03 0.000000e+00
-4.000280e+02 -5.599820e+03 -6.772310e-01
-1.666840e-02 -5.599940e+03 -5.577000e-01
0.000000e+00 -6.000000e+03 -4.000000e+02
4.000000e+02 -6.000000e+03 -4.000000e+02
3.319180e-01 -5.600470e+03 -4.007080e+02
4.003490e+02 -5.600270e+03 -4.005570e+02
0.000000e+00 -6.000000e+03 0.000000e+00
4.000000e+02 -6.000000e+03 0.000000e+00
-1.666840e-02 -5.599940e+03 -5.577000e-01
3.999990e+02 -5.600070e+03 -4.401630e-01
-3.996970e+02 -5.600820e+03 -4.008650e+02
3.319180e-01 -5.600470e+03 -4.007080e+02
-3.992270e+02 -5.200980e+03 -4.011230e+02
7.842760e-01 -5.200680e+03 -4.006970e+02
-4.000280e+02 -5.599820e+03 -6.772310e-01
-1.666840e-02 -5.599940e+03 -5.577000e-01
-4.000210e+02 -5.199880e+03 -2.042020e+00
-3.620750e-02 -5.199960e+03 -1.326030e+00
3.319180e-01 -5.600470e+03 -4.007080e+02
4.003490e+02 -5.600270e+03 -4.005570e+02
7.842760e-01 -5.200680e+03 -4.006970e+02
4.007930e+02 -5.200300e+03 -4.004750e+02
-1.666840e-02 -5.599940e+03 -5.577000e-01
3.999990e+02 -5.600070e+03 -4.401630e-01
-3.620750e-02 -5.199960e+03 -1.326030e+00
3.999400e+02 -5.200020e+03 -4.010060e-01
-3.992270e+02 -5.200980e+03 -4.011230e+02
7.842760e-01 -5.200680e+03 -4.006970e+02
-3.992220e+02 -4.800280e+03 -4.020400e+02
7.126770e-01 -4.800320e+03 -4.016430e+02
-4.000210e+02 -5.199880e+03 -2.042020e+00
-3.620750e-02 -5.199960e+03 -1.326030e+00
-4.000860e+02 -4.800250e+03 -2.385000e+00
-5.119190e-02 -4.800200e+03 -1.482700e+00
7.842760e-01 -5.200680e+03 -4.006970e+02
4.007930e+02 -5.200300e+03 -4.004750e+02
7.126770e-01 -4.800320e+03 -4.016430e+02
4.006470e+02 -4.800500e+03 -4.011930e+02
-3.620750e-02 -5.199960e+03 -1.326030e+00
3.999400e+02 -5.200020e+03 -4.010060e-01
-5.119190e-02 -4.800200e+03 -1.482700e+00
3.999850e+02 -4.800010e+03 -6.025240e-01
-3.992220e+02 -4.800280e+03 -4.020400e+02
7.126770e-01 -4.800320e+03 -4.016430e+02
-3.996110e+02 -4.400200e+03 -4.029060e+02
3.780330e-01 -4.400460e+03 -4.025220e+02
-4.000860e+02 -4.800250e+03 -2.385000e+00
-5.119190e-02 -4.800200e+03 -1.482700e+00
-3.999550e+02 -4.400180e+03 -1.664820e+00
2.470530e-02 -4.400020e+03 -1.633600e+00
7.126770e-01 -4.800320e+03 -4.016430e+02
4.006470e+02 -4.800500e+03 -4.011930e+02
3.780330e-01 -4.400460e+03 -4.025220e+02
4.003710e+02 -4.400560e+03 -4.020840e+02
-5.119190e-02 -4.800200e+03 -1.482700e+00
3.999850e+02 -4.800010e+03 -6.025240e-01
2.470530e-02 -4.400020e+03 -1.633600e+00
4.000010e+02 -4.399940e+03 -1.751390e+00
-3.996110e+02 -4.400200e+03 -4.029060e+02
3.780330e-01 -4.400460e+03 -4.025220e+02
-3.994750e+02 -4.000360e+03 -4.026950e+02
5.328270e-01 -4.000500e+03 -4.029840e+02
-3.999550e+02 -4.400180e+03 -1.664820e+00
2.470530e-02 -4.400020e+03 -1.633600e+00
-3.999520e+02 -4.000190e+03 -4.735310e+00
5.349690e-02 -4.000010e+03 -3.401910e+00
3.780330e-01 -4.400460e+03 -4.025220e+02
4.003710e+02 -4.400560e+03 -4.020840e+02
5.328270e-01 -4.000500e+03 -4.029840e+02
4.005580e+02 -4.000400e+03 -4.032040e+02
2.470530e-02 -4.400020e+03 -1.633600e+00
4.000010e+02 -4.399940e+03 -1.751390e+00
5.349690e-02 -4.000010e+03 -3.401910e+00
4.000500e+02 -4.000030e+03 -2.031960e+00
-3.994750e+02 -4.000360e+03 -4.026950e+02
5.328270e-01 -4.000500e+03 -4.029840e+02
-3.997540e+02 -3.600910e+03 -4.050070e+02
2.992320e-01 -3.600890e+03 -4.045380e+02
-3.999520e+02 -4.000190e+03 -4.735310e+00
5.349690e-02 -4.000010e+03 -3.401910e+00
-4.000250e+02 -3.599800e+03 -3.655990e+00
-8.916030e-02 -3.600010e+03 -3.290730e+00
5.328270e-01 -4.000500e+03 -4.029840e+02
4.005580e+02 -4.000400e+03 -4.032040e+02
2.992320e-01 -3.600890e+03 -4.045380e+02
4.003620e+02 -3.601060e+03 -4.037700e+02
5.349690e-02 -4.000010e+03 -3.401910e+00
4.000500e+02 -4.000030e+03 -2.031960e+00
-8.916030e-02 -3.600010e+03 -3.290730e+00
3.998400e+02 -3.600140e+03 -3.047550e+00
-3.997540e+02 -3.600910e+03 -4.050070e+02
2.992320e-01 -3.600890e+03 -4.045380e+02
-3.992690e+02 -3.200900e+03 -4.050690e+02
6.797100e-01 -3.201200e+03 -4.048490e+02
-4.000250e+02 -3.599800e+03 -3.655990e+00
-8.916030e-02 -3.600010e+03 -3.290730e+00
-4.001390e+02 -3.200260e+03 -6.204990e+00
-1.113050e-01 -3.200100e+03 -4.778630e+00
2.992320e-01 -3.600890e+03 -4.045380e+02
4.003620e+02 -3.601060e+03 -4.037700e+02
6.797100e-01 -3.201200e+03 -4.048490e+02
4.006190e+02 -3.201370e+03 -4.045940e+02
-8.916030e-02 -3.600010e+03 -3.290730e+00
3.998400e+02 -3.600140e+03 -3.047550e+00
-1.113050e-01 -3.200100e+03 -4.778630e+00
3.999200e+02 -3.200010e+03 -3.475050e+00
-3.992690e+02 -3.200900e+03 -4.050690e+02
6.797100e-01 -3.201200e+03 -4.048490e+02
-3.993070e+02 -2.801440e+03 -4.059040e+02
6.271670e-01 -2.801450e+03 -4.056870e+02
-4.001390e+02 -3.200260e+03 -6.204990e+00
-1.113050e-01 -3.200100e+03 -4.778630e+00
-4.000870e+02 -2.799970e+03 -6.233980e+00
-4.550380e-02 -2.799900e+03 -5.694630e+00
6.797100e-01 -3.201200e+03 -4.048490e+02
4.006190e+02 -3.201370e+03 -4.045940e+02
6.271670e-01 -2.801450e+03 -4.056870e+02
4.005630e+02 -2.801440e+03 -4.054690e+02
-1.113050e-01 -3.200100e+03 -4.778630e+00
3.999200e+02 -3.200010e+03 -3.475050e+00
-4.550380e-02 -2.799900e+03 -5.694630e+00
3.999920e+02 -2.799890e+03 -5.198140e+00
-3.993070e+02 -2.801440e+03 -4.059040e+02
6.271670e-01 -2.801450e+03 -4.056870e+02
-3.997660e+02 -2.401820e+03 -4.085090e+02
2.791410e-01 -2.401640e+03 -4.078600e+02
-4.000870e+02 -2.799970e+03 -6.233980e+00
-4.550380e-02 -2.799900e+03 -5.694630e+00
-3.998960e+02 -2.399610e+03 -7.259010e+00
9.431410e-02 -2.399780e+03 -7.090210e+00
6.271670e-01 -2.801450e+03 -4.056870e+02
4.005630e+02 -2.801440e+03 -4.054690e+02
2.791410e-01 -2.401640e+03 -4.078600e+02
4.003190e+02 -2.401420e+03 -4.073000e+02
-4.550380e-02 -2.799900e+03 -5.694630e+00
3.999920e+02 -2.799890e+03 -5.198140e+00
9.431410e-02 -2.399780e+03 -7.090210e+00
4.000950e+02 -2.399880e+03 -6.910400e+00
-3.997660e+02 -2.401820e+03 -4.085090e+02
2.791410e-01 -2.401640e+03 -4.078600e+02
-3.995220e+02 -2.001540e+03 -4.090980e+02
5.358260e-01 -2.001310e+03 -4.081010e+02
-3.998960e+02 -2.399610e+03 -7.259010e+00
9.431410e-02 -2.399780e+03 -7.090210e+00
-3.999990e+02 -2.000180e+03 -9.554970e+00
-4.241070e-02 -2.000220e+03 -9.340630e+00
2.791410e-01 -2.401640e+03 -4.078600e+02
4.003190e+02 -2.401420e+03 -4.073000e+02
5.358260e-01 -2.001310e+03 -4.081010e+02
4.006030e+02 -2.000980e+03 -4.072950e+02
9.431410e-02 -2.399780e+03 -7.090210e+00
4.000950e+02 -2.399880e+03 -6.910400e+00
-4.241070e-02 -2.000220e+03 -9.340630e+00
3.999110e+02 -2.000290e+03 -9.036680e+00
-3.995220e+02 -2.001540e+03 -4.090980e+02
5.358260e-01 -2.001310e+03 -4.081010e+02
-3.996360e+02 -1.601900e+03 -4.115400e+02
4.076150e-01 -1.601790e+03 -4.110540e+02
-3.999990e+02 -2.000180e+03 -9.554970e+00
-4.241070e-02 -2.000220e+03 -9.340630e+00
-3.996170e+02 -1.600040e+03 -1.098220e+01
3.546670e-01 -1.599920e+03 -1.012270e+01
5.358260e-01 -2.001310e+03 -4.081010e+02
4.006030e+02 -2.000980e+03 -4.072950e+02
4.076150e-01 -1.601790e+03 -4.110540e+02
4.004330e+02 -1.601830e+03 -4.104730e+02
-4.241070e-02 -2.000220e+03 -9.340630e+00
3.999110e+02 -2.000290e+03 -9.036680e+00
3.546670e-01 -1.599920e+03 -1.012270e+01
4.003260e+02 -1.599760e+03 -9.419770e+00
-3.996360e+02 -1.601900e+03 -4.115400e+02
4.076150e-01 -1.601790e+03 -4.110540e+02
-3.995840e+02 -1.201810e+03 -4.123340e+02
4.492630e-01 -1.201830e+03 -4.124980e+02
-3.996170e+02 -1.600040e+03 -1.098220e+01
3.546670e-01 -1.599920e+03 -1.012270e+01
-3.999960e+02 -1.199880e+03 -1.291620e+01
1.908650e-03 -1.199950e+03 -1.226590e+01
4.076150e-01 -1.601790e+03 -4.110540e+02
4.004330e+02 -1.601830e+03 -4.104730e+02
4.492630e-01 -1.201830e+03 -4.124980e+02
4.004840e+02 -1.201960e+03 -4.122600e+02
3.546670e-01 -1.599920e+03 -1.012270e+01
4.003260e+02 -1.599760e+03 -9.419770e+00
1.908650e-03 -1.199950e+03 -1.226590e+01
4.000030e+02 -1.199840e+03 -1.177540e+01
-3.995840e+02 -1.201810e+03 -4.123340e+02
4.492630e-01 -1.201830e+03 -4.124980e+02
-3.992690e+02 -8.018270e+02 -4.154060e+02
7.295310e-01 -8.017350e+02 -4.143680e+02
-3.999960e+02 -1.199880e+03 -1.291620e+01
1.908650e-03 -1.199950e+03 -1.226590e+01
-4.000610e+02 -7.999840e+02 -1.368800e+01
-1.993410e-02 -8.000730e+02 -1.375780e+01
4.492630e-01 -1.201830e+03 -4.124980e+02
4.004840e+02 -1.201960e+03 -4.122600e+02
7.295310e-01 -8.017350e+02 -4.143680e+02
4.007340e+02 -8.017800e+02 -4.134880e+02
1.908650e-03 -1.199950e+03 -1.226590e+01
4.000030e+02 -1.199840e+03 -1.177540e+01
-1.993410e-02 -8.000730e+02 -1.375780e+01
4.000210e+02 -8.001170e+02 -1.356040e+01
-3.992690e+02 -8.018270e+02 -4.154060e+02
7.295310e-01 -8.017350e+02 -4.143680e+02
-3.993130e+02 -4.020050e+02 -4.164800e+02
7.323660e-01 -4.018430e+02 -4.157820e+02
-4.000610e+02 -7.999840e+02 -1.368800e+01
-1.993410e-02 -8.000730e+02 -1.375780e+01
-4.000980e+02 -3.999240e+02 -1.581320e+01
-1.343220e-01 -3.999390e+02 -1.562050e+01
7.295310e-01 -8.017350e+02 -4.143680e+02
4.007340e+02 -8.017800e+02 -4.134880e+02
7.323660e-01 -4.018430e+02 -4.157820e+02
4.007770e+02 -4.017270e+02 -4.147460e+02
-1.993410e-02 -8.000730e+02 -1.375780e+01
4.000210e+02 -8.001170e+02 -1.356040e+01
-1.343220e-01 -3.999390e+02 -1.562050e+01
3.998280e+02 -3.999660e+02 -1.553160e+01
-3.993130e+02 -4.020050e+02 -4.164800e+02
7.323660e-01 -4.018430e+02 -4.157820e+02
-3.995200e+02 -1.846830e+00 -4.173690e+02
5.195900e-01 -1.695870e+00 -4.174580e+02
-4.000980e+02 -3.999240e+02 -1.581320e+01
-1.343220e-01 -3.999390e+02 -1.562050e+01
-4.000310e+02 -6.601890e-02 -1.820870e+01
-3.352410e-02 -1.279710e-01 -1.739710e+01
7.323660e-01 -4.018430e+02 -4.157820e+02
4.007770e+02 -4.017270e+02 -4.147460e+02
5.195900e-01 -1.695870e+00 -4.174580e+02
[...]
<PointData>
<DataArray type="Float32" Name="V1" format="ascii">
0.000000e+00
0.000000e+00
2.659740e-01
1.580570e-01
0.000000e+00
0.000000e+00
-3.593430e-01
-3.082750e-01
0.000000e+00
0.000000e+00
1.580570e-01
4.845120e-02
0.000000e+00
0.000000e+00
-3.082750e-01
-2.586610e-01
2.659740e-01
1.580570e-01
7.357920e-02
-3.185920e-02
-3.593430e-01
-3.082750e-01
-2.790950e-01
-1.751520e-01
1.580570e-01
4.845120e-02
-3.185920e-02
-1.543470e-01
-3.082750e-01
-2.586610e-01
-1.751520e-01
-7.483960e-02
7.357920e-02
-3.185920e-02
3.005040e-01
2.484840e-01
-2.790950e-01
-1.751520e-01
-1.458100e-01
-1.936410e-01
-3.185920e-02
-1.543470e-01
2.484840e-01
2.050100e-01
-1.751520e-01
-7.483960e-02
-1.936410e-01
-2.563200e-01
3.005040e-01
2.484840e-01
2.026070e-01
2.525230e-01
-1.458100e-01
-1.936410e-01
-1.833500e-01
-2.530620e-01
2.484840e-01
2.050100e-01
2.525230e-01
3.178180e-01
-1.936410e-01
-2.563200e-01
-2.530620e-01
-3.117390e-01
2.026070e-01
2.525230e-01
-2.180700e-01
-1.916590e-01
-1.833500e-01
-2.530620e-01
1.683490e-01
2.348640e-01
2.525230e-01
3.178180e-01
-1.916590e-01
-1.734710e-01
-2.530620e-01
-3.117390e-01
2.348640e-01
2.979250e-01
-2.180700e-01
-1.916590e-01
4.658210e-01
4.162150e-01
1.683490e-01
2.348640e-01
-3.465140e-01
-3.057060e-01
-1.916590e-01
-1.734710e-01
4.162150e-01
3.593530e-01
2.348640e-01
2.979250e-01
-3.057060e-01
-2.640050e-01
4.658210e-01
4.162150e-01
2.001390e-03
-5.286980e-02
-3.465140e-01
-3.057060e-01
-1.797240e-02
-2.719210e-02
4.162150e-01
3.593530e-01
-5.286980e-02
-9.692790e-02
-3.057060e-01
-2.640050e-01
-2.719210e-02
-2.568650e-02
2.001390e-03
-5.286980e-02
-4.891430e-02
1.747110e-02
-1.797240e-02
-2.719210e-02
7.350650e-02
3.520470e-02
-5.286980e-02
-9.692790e-02
1.747110e-02
1.266180e-01
-2.719210e-02
-2.568650e-02
3.520470e-02
-1.000840e-02
-4.891430e-02
1.747110e-02
5.128120e-01
4.660490e-01
7.350650e-02
3.520470e-02
-1.906520e-01
-1.884210e-01
1.747110e-02
1.266180e-01
4.660490e-01
4.004700e-01
3.520470e-02
-1.000840e-02
-1.884210e-01
-1.967050e-01
5.128120e-01
4.660490e-01
-2.551890e-01
-2.540890e-01
-1.906520e-01
-1.884210e-01
3.150570e-01
3.367100e-01
4.660490e-01
4.004700e-01
-2.540890e-01
-2.289590e-01
-1.884210e-01
-1.967050e-01
3.367100e-01
3.624070e-01
-2.551890e-01
-2.540890e-01
-9.675450e-03
-4.921600e-02
3.150570e-01
3.367100e-01
-6.567630e-02
-2.106320e-02
-2.540890e-01
-2.289590e-01
-4.921600e-02
-9.373160e-02
3.367100e-01
3.624070e-01
-2.106320e-02
2.147520e-02
-9.675450e-03
-4.921600e-02
-2.254300e-01
-2.418060e-01
-6.567630e-02
-2.106320e-02
1.791920e-01
1.665350e-01
-4.921600e-02
-9.373160e-02
-2.418060e-01
-2.513440e-01
-2.106320e-02
2.147520e-02
1.665350e-01
1.413600e-01
-2.254300e-01
-2.418060e-01
2.409860e-01
2.742960e-01
1.791920e-01
1.665350e-01
-3.161360e-02
-1.533720e-02
-2.418060e-01
-2.513440e-01
2.742960e-01
2.872380e-01
1.665350e-01
1.413600e-01
-1.533720e-02
1.421520e-02
2.409860e-01
2.742960e-01
-2.629170e-01
-1.019430e-01
-3.161360e-02
-1.533720e-02
1.919340e-01
7.360560e-02
2.742960e-01
2.872380e-01
-1.019430e-01
5.189690e-02
-1.533720e-02
1.421520e-02
7.360560e-02
-4.741720e-02
-2.629170e-01
-1.019430e-01
-9.575630e-02
-1.992290e-03
1.919340e-01
7.360560e-02
7.955020e-02
5.210430e-02
-1.019430e-01
5.189690e-02
-1.992290e-03
9.551410e-02
7.360560e-02
-4.741720e-02
5.210430e-02
1.955190e-02
-9.575630e-02
-1.992290e-03
-1.353960e-01
-9.915460e-02
7.955020e-02
5.210430e-02
3.299590e-01
2.583460e-01
-1.992290e-03
9.551410e-02
-9.915460e-02
-3.597090e-02
5.210430e-02
1.955190e-02
2.583460e-01
1.929830e-01
-1.353960e-01
-9.915460e-02
1.451100e-01
2.166260e-01
3.299590e-01
2.583460e-01
-6.004280e-02
-5.037550e-02
-9.915460e-02
-3.597090e-02
2.166260e-01
2.799130e-01
2.583460e-01
1.929830e-01
-5.037550e-02
-5.222680e-02
1.451100e-01
2.166260e-01
-2.231810e-02
3.069410e-02
-6.004280e-02
-5.037550e-02
-1.840550e-01
-2.315390e-01
2.166260e-01
2.799130e-01
3.069410e-02
8.443260e-02
-5.037550e-02
-5.222680e-02
-2.315390e-01
-2.665270e-01
-2.231810e-02
3.069410e-02
1.466050e-01
-6.222290e-02
-1.840550e-01
-2.315390e-01
-1.552040e-01
1.462010e-02
3.069410e-02
8.443260e-02
-6.222290e-02
-2.322580e-01
-2.315390e-01
-2.665270e-01
1.462010e-02
1.673380e-01
1.466050e-01
-6.222290e-02
-1.175230e-01
-1.098170e-01
-1.552040e-01
1.462010e-02
1.303720e-01
1.051040e-01
-6.222290e-02
-2.322580e-01
-1.098170e-01
-1.293820e-01
1.462010e-02
1.673380e-01
1.051040e-01
8.926110e-02
-1.175230e-01
-1.098170e-01
-4.666710e-01
-3.213000e-01
1.303720e-01
1.051040e-01
2.624370e-01
2.057430e-01
-1.098170e-01
-1.293820e-01
-3.213000e-01
-1.953790e-01
1.051040e-01
8.926110e-02
2.057430e-01
1.424380e-01
-4.666710e-01
-3.213000e-01
1.437530e-01
2.315560e-01
2.624370e-01
2.057430e-01
-6.394700e-02
-1.043380e-01
-3.213000e-01
-1.953790e-01
2.315560e-01
3.161690e-01
2.057430e-01
1.424380e-01
-1.043380e-01
-1.568230e-01
1.437530e-01
2.315560e-01
-2.567200e-01
-2.901780e-01
-6.394700e-02
-1.043380e-01
1.262490e-01
1.622610e-01
2.315560e-01
3.161690e-01
-2.901780e-01
-3.390460e-01
-1.043380e-01
-1.568230e-01
1.622610e-01
2.102120e-01
-2.567200e-01
-2.901780e-01
-1.956550e-01
-1.245550e-01
1.262490e-01
1.622610e-01
8.929110e-02
7.384510e-04
-2.901780e-01
-3.390460e-01
-1.245550e-01
-3.731420e-02
1.622610e-01
2.102120e-01
7.384510e-04
-8.577140e-02
-1.956550e-01
-1.245550e-01
9.524710e-02
2.014570e-02
8.929110e-02
7.384510e-04
2.292690e-01
2.614410e-01
-1.245550e-01
-3.731420e-02
2.014570e-02
-1.041090e-02
7.384510e-04
-8.577140e-02
2.614410e-01
2.892240e-01
9.524710e-02
2.014570e-02
1.703140e-01
2.700860e-01
2.292690e-01
2.614410e-01
-1.510590e-01
-2.473330e-01
2.014570e-02
-1.041090e-02
2.700860e-01
3.654710e-01
2.614410e-01
2.892240e-01
-2.473330e-01
-3.268950e-01
1.703140e-01
2.700860e-01
8.160410e-03
-3.405300e-02
-1.510590e-01
-2.473330e-01
1.134760e-03
3.227720e-03
2.700860e-01
3.654710e-01
-3.405300e-02
-9.339540e-02
-2.473330e-01
-3.268950e-01
3.227720e-03
-3.453840e-03
8.160410e-03
-3.405300e-02
-1.289180e-01
-2.654100e-02
1.134760e-03
3.227720e-03
-1.051700e-02
-5.768980e-02
-3.405300e-02
-9.339540e-02
-2.654100e-02
9.278810e-02
3.227720e-03
-3.453840e-03
-5.768980e-02
-1.197210e-01
-1.289180e-01
-2.654100e-02
2.529730e-01
1.460080e-01
-1.051700e-02
-5.768980e-02
-2.339060e-01
-1.786770e-01
-2.654100e-02
9.278810e-02
1.460080e-01
1.447310e-02
-5.768980e-02
-1.197210e-01
-1.786770e-01
-8.684460e-02
2.529730e-01
1.460080e-01
-6.545500e-02
1.733510e-02
-2.339060e-01
-1.786770e-01
2.243330e-01
1.358740e-01
1.460080e-01
1.447310e-02
1.733510e-02
8.476030e-02
-1.786770e-01
-8.684460e-02
1.358740e-01
1.189010e-02
0.000000e+00
0.000000e+00
-3.593430e-01
-3.082750e-01
0.000000e+00
0.000000e+00
4.383900e-01
4.294040e-01
0.000000e+00
0.000000e+00
-3.082750e-01
-2.586610e-01
0.000000e+00
0.000000e+00
4.294040e-01
4.520680e-01
-3.593430e-01
-3.082750e-01
-2.790950e-01
-1.751520e-01
4.383900e-01
4.294040e-01
5.860040e-01
4.303190e-01
-3.082750e-01
-2.586610e-01
-1.751520e-01
-7.483960e-02
4.294040e-01
4.520680e-01
4.303190e-01
3.053440e-01
-2.790950e-01
-1.751520e-01
-1.458100e-01
-1.936410e-01
5.860040e-01
4.303190e-01
-1.037190e-01
5.408950e-02
-1.751520e-01
-7.483960e-02
-1.936410e-01
-2.563200e-01
4.303190e-01
3.053440e-01
5.408950e-02
2.126100e-01
-1.458100e-01
-1.936410e-01
-1.833500e-01
-2.530620e-01
-1.037190e-01
5.408950e-02
2.061050e-01
2.828570e-01
-1.936410e-01
-2.563200e-01
-2.530620e-01
-3.117390e-01
5.408950e-02
2.126100e-01
2.828570e-01
3.732180e-01
-1.833500e-01
-2.530620e-01
1.683490e-01
2.348640e-01
2.061050e-01
2.828570e-01
-1.182950e-01
-2.532230e-01
-2.530620e-01
-3.117390e-01
2.348640e-01
2.979250e-01
2.828570e-01
3.732180e-01
-2.532230e-01
-4.074080e-01
1.683490e-01
2.348640e-01
-3.465140e-01
-3.057060e-01
-1.182950e-01
-2.532230e-01
1.603860e-01
1.585240e-01
2.348640e-01
2.979250e-01
-3.057060e-01
-2.640050e-01
-2.532230e-01
-4.074080e-01
1.585240e-01
1.810360e-01
-3.465140e-01
-3.057060e-01
-1.797240e-02
-2.719210e-02
1.603860e-01
1.585240e-01
3.959510e-02
1.332290e-01
-3.057060e-01
-2.640050e-01
-2.719210e-02
-2.568650e-02
1.585240e-01
1.810360e-01
1.332290e-01
2.061940e-01
-1.797240e-02
-2.719210e-02
7.350650e-02
3.520470e-02
3.959510e-02
1.332290e-01
-1.200920e-01
-9.037560e-02
-2.719210e-02
-2.568650e-02
3.520470e-02
-1.000840e-02
1.332290e-01
2.061940e-01
-9.037560e-02
-7.746860e-02
7.350650e-02
3.520470e-02
-1.906520e-01
-1.884210e-01
-1.200920e-01
-9.037560e-02
-1.628820e-01
-1.008880e-01
3.520470e-02
-1.000840e-02
-1.884210e-01
-1.967050e-01
-9.037560e-02
-7.746860e-02
-1.008880e-01
-4.540810e-02
-1.906520e-01
-1.884210e-01
3.150570e-01
3.367100e-01
-1.628820e-01
-1.008880e-01
-3.689000e-01
-4.367820e-01
-1.884210e-01
-1.967050e-01
3.367100e-01
3.624070e-01
-1.008880e-01
-4.540810e-02
-4.367820e-01
-5.026940e-01
3.150570e-01
3.367100e-01
-6.567630e-02
-2.106320e-02
-3.689000e-01
-4.367820e-01
2.086840e-01
1.545710e-01
3.367100e-01
3.624070e-01
-2.106320e-02
2.147520e-02
-4.367820e-01
-5.026940e-01
1.545710e-01
9.280690e-02
-6.567630e-02
-2.106320e-02
1.791920e-01
1.665350e-01
2.086840e-01
1.545710e-01
-2.291340e-01
-1.647670e-01
-2.106320e-02
2.147520e-02
1.665350e-01
1.413600e-01
1.545710e-01
9.280690e-02
-1.647670e-01
-7.829060e-02
1.791920e-01
1.665350e-01
-3.161360e-02
-1.533720e-02
-2.291340e-01
-1.647670e-01
-1.803880e-01
-2.304630e-01
1.665350e-01
1.413600e-01
-1.533720e-02
1.421520e-02
-1.647670e-01
-7.829060e-02
-2.304630e-01
-2.682430e-01
-3.161360e-02
-1.533720e-02
1.919340e-01
7.360560e-02
-1.803880e-01
-2.304630e-01
-1.067480e-01
-4.591430e-02
-1.533720e-02
1.421520e-02
7.360560e-02
-4.741720e-02
-2.304630e-01
-2.682430e-01
-4.591430e-02
1.472670e-02
1.919340e-01
7.360560e-02
7.955020e-02
5.210430e-02
-1.067480e-01
-4.591430e-02
-7.293260e-02
-1.121300e-01
7.360560e-02
-4.741720e-02
5.210430e-02
1.955190e-02
-4.591430e-02
1.472670e-02
-1.121300e-01
-1.312590e-01
7.955020e-02
5.210430e-02
3.299590e-01
2.583460e-01
-7.293260e-02
-1.121300e-01
-5.296740e-01
-4.025940e-01
5.210430e-02
1.955190e-02
2.583460e-01
1.929830e-01
-1.121300e-01
-1.312590e-01
-4.025940e-01
-3.065700e-01
3.299590e-01
2.583460e-01
-6.004280e-02
-5.037550e-02
-5.296740e-01
-4.025940e-01
-4.407120e-02
-1.173850e-01
2.583460e-01
1.929830e-01
-5.037550e-02
-5.222680e-02
-4.025940e-01
-3.065700e-01
-1.173850e-01
-1.718860e-01
-6.004280e-02
-5.037550e-02
-1.840550e-01
-2.315390e-01
-4.407120e-02
-1.173850e-01
4.306720e-01
4.707310e-01
-5.037550e-02
-5.222680e-02
-2.315390e-01
-2.665270e-01
-1.173850e-01
-1.718860e-01
4.707310e-01
5.060720e-01
-1.840550e-01
-2.315390e-01
-1.552040e-01
1.462010e-02
4.306720e-01
4.707310e-01
1.240150e-01
8.221680e-03
-2.315390e-01
-2.665270e-01
1.462010e-02
1.673380e-01
4.707310e-01
5.060720e-01
8.221680e-03
-1.398450e-01
-1.552040e-01
1.462010e-02
1.303720e-01
1.051040e-01
1.240150e-01
8.221680e-03
-1.150150e-01
-1.060570e-01
1.462010e-02
1.673380e-01
1.051040e-01
8.926110e-02
8.221680e-03
-1.398450e-01
-1.060570e-01
-6.451790e-02
1.303720e-01
1.051040e-01
2.624370e-01
2.057430e-01
-1.150150e-01
-1.060570e-01
-5.838110e-02
-7.004050e-02
1.051040e-01
8.926110e-02
2.057430e-01
1.424380e-01
-1.060570e-01
-6.451790e-02
-7.004050e-02
-5.251010e-02
2.624370e-01
2.057430e-01
-6.394700e-02
-1.043380e-01
-5.838110e-02
-7.004050e-02
-4.063270e-02
-6.395000e-02
2.057430e-01
1.424380e-01
-1.043380e-01
-1.568230e-01
-7.004050e-02
-5.251010e-02
-6.395000e-02
-8.310020e-02
-6.394700e-02
-1.043380e-01
1.262490e-01
1.622610e-01
-4.063270e-02
-6.395000e-02
2.776230e-03
-2.146210e-02
-1.043380e-01
-1.568230e-01
1.622610e-01
2.102120e-01
-6.395000e-02
-8.310020e-02
-2.146210e-02
-4.172390e-02
1.262490e-01
1.622610e-01
8.929110e-02
7.384510e-04
2.776230e-03
-2.146210e-02
3.228700e-02
1.236050e-01
1.622610e-01
2.102120e-01
7.384510e-04
-8.577140e-02
-2.146210e-02
-4.172390e-02
1.236050e-01
2.041330e-01
8.929110e-02
7.384510e-04
2.292690e-01
2.614410e-01
3.228700e-02
1.236050e-01
-5.840710e-01
-5.436740e-01
7.384510e-04
-8.577140e-02
2.614410e-01
2.892240e-01
1.236050e-01
2.041330e-01
-5.436740e-01
-5.400270e-01
2.292690e-01
2.614410e-01
-1.510590e-01
-2.473330e-01
-5.840710e-01
-5.436740e-01
1.765000e-01
2.354270e-01
2.614410e-01
2.892240e-01
-2.473330e-01
-3.268950e-01
-5.436740e-01
-5.400270e-01
2.354270e-01
2.471130e-01
-1.510590e-01
-2.473330e-01
1.134760e-03
3.227720e-03
1.765000e-01
2.354270e-01
-2.040260e-02
2.706480e-02
-2.473330e-01
-3.268950e-01
3.227720e-03
-3.453840e-03
2.354270e-01
2.471130e-01
2.706480e-02
1.313110e-01
1.134760e-03
3.227720e-03
-1.051700e-02
-5.768980e-02
-2.040260e-02
2.706480e-02
1.727740e-01
1.697290e-01
3.227720e-03
-3.453840e-03
-5.768980e-02
-1.197210e-01
2.706480e-02
1.313110e-01
1.697290e-01
1.401650e-01
-1.051700e-02
-5.768980e-02
-2.339060e-01
-1.786770e-01
1.727740e-01
1.697290e-01
1.551000e-01
1.551140e-01
-5.768980e-02
-1.197210e-01
-1.786770e-01
-8.684460e-02
1.697290e-01
1.401650e-01
1.551140e-01
1.454630e-01
-2.339060e-01
-1.786770e-01
2.243330e-01
1.358740e-01
1.551000e-01
1.551140e-01
-2.307430e-01
-2.396970e-01
-1.786770e-01
-8.684460e-02
1.358740e-01
1.189010e-02
1.551140e-01
1.454630e-01
-2.396970e-01
-1.846180e-01
</DataArray>
<DataArray type="Float32" Name="V2" format="ascii">
0.000000e+00
0.000000e+00
-3.024380e-01
1.637060e-01
0.000000e+00
0.000000e+00
1.888070e-01
-2.818870e-02
0.000000e+00
0.000000e+00
1.637060e-01
2.049460e-01
0.000000e+00
0.000000e+00
-2.818870e-02
1.508290e-01
-3.024380e-01
1.637060e-01
4.149980e-01
2.347640e-01
1.888070e-01
-2.818870e-02
-7.815430e-01
-3.728150e-01
1.637060e-01
2.049460e-01
2.347640e-01
-4.410060e-02
-2.818870e-02
1.508290e-01
-3.728150e-01
8.528430e-02
4.149980e-01
2.347640e-01
-6.414030e-01
-2.840360e-01
-7.815430e-01
-3.728150e-01
3.303890e-01
2.102530e-01
2.347640e-01
-4.410060e-02
-2.840360e-01
-1.974580e-01
-3.728150e-01
8.528430e-02
2.102530e-01
3.295800e-01
-6.414030e-01
-2.840360e-01
-4.277760e-01
-1.202880e-01
3.303890e-01
2.102530e-01
1.203760e-01
1.131670e-01
-2.840360e-01
-1.974580e-01
-1.202880e-01
6.816030e-03
2.102530e-01
3.295800e-01
1.131670e-01
3.683570e-01
-4.277760e-01
-1.202880e-01
-1.916040e-01
-1.335470e-01
1.203760e-01
1.131670e-01
1.761030e-01
2.314960e-01
-1.202880e-01
6.816030e-03
-1.335470e-01
-2.626720e-01
1.131670e-01
3.683570e-01
2.314960e-01
3.114620e-01
-1.916040e-01
-1.335470e-01
-5.207720e-01
-5.333250e-02
1.761030e-01
2.314960e-01
4.376940e-01
1.413660e-02
-1.335470e-01
-2.626720e-01
-5.333250e-02
2.929940e-01
2.314960e-01
3.114620e-01
1.413660e-02
-4.894370e-01
-5.207720e-01
-5.333250e-02
5.563100e-01
-1.194460e-01
4.376940e-01
1.413660e-02
-4.717170e-01
1.411640e-01
-5.333250e-02
2.929940e-01
-1.194460e-01
-5.280520e-01
1.413660e-02
-4.894370e-01
1.411640e-01
6.931690e-01
5.563100e-01
-1.194460e-01
4.802570e-01
5.582170e-01
-4.717170e-01
1.411640e-01
-2.480920e-02
-1.372500e-01
-1.194460e-01
-5.280520e-01
5.582170e-01
5.966470e-01
1.411640e-01
6.931690e-01
-1.372500e-01
-3.045980e-01
4.802570e-01
5.582170e-01
1.381830e-01
2.753680e-01
-2.480920e-02
-1.372500e-01
-6.219260e-02
-1.497140e-01
5.582170e-01
5.966470e-01
2.753680e-01
9.460180e-02
-1.372500e-01
-3.045980e-01
-1.497140e-01
8.468680e-03
1.381830e-01
2.753680e-01
3.990130e-03
-1.991850e-01
-6.219260e-02
-1.497140e-01
-2.813890e-01
5.573020e-03
2.753680e-01
9.460180e-02
-1.991850e-01
-1.097980e-01
-1.497140e-01
8.468680e-03
5.573020e-03
4.827140e-02
3.990130e-03
-1.991850e-01
4.253170e-01
2.563030e-01
-2.813890e-01
5.573020e-03
-7.435510e-03
-2.682940e-01
-1.991850e-01
-1.097980e-01
2.563030e-01
1.151410e-01
5.573020e-03
4.827140e-02
-2.682940e-01
-5.628670e-01
4.253170e-01
2.563030e-01
2.868260e-01
-1.120080e-01
-7.435510e-03
-2.682940e-01
3.316110e-01
4.094160e-01
2.563030e-01
1.151410e-01
-1.120080e-01
-3.483400e-01
-2.682940e-01
-5.628670e-01
4.094160e-01
2.297300e-01
2.868260e-01
-1.120080e-01
8.887290e-02
1.116260e-01
3.316110e-01
4.094160e-01
-4.039250e-01
-7.943880e-02
-1.120080e-01
-3.483400e-01
1.116260e-01
-1.211810e-03
4.094160e-01
2.297300e-01
-7.943880e-02
3.172910e-01
8.887290e-02
1.116260e-01
4.898010e-02
-6.218970e-02
-4.039250e-01
-7.943880e-02
3.697790e-03
4.617260e-02
1.116260e-01
-1.211810e-03
-6.218970e-02
-6.228470e-01
-7.943880e-02
3.172910e-01
4.617260e-02
1.554200e-01
4.898010e-02
-6.218970e-02
-4.160930e-01
-1.436120e-02
3.697790e-03
4.617260e-02
2.714590e-01
-5.749160e-02
-6.218970e-02
-6.228470e-01
-1.436120e-02
8.837300e-02
4.617260e-02
1.554200e-01
-5.749160e-02
-1.629020e-01
-4.160930e-01
-1.436120e-02
-3.155870e-01
1.123650e-01
2.714590e-01
-5.749160e-02
4.994630e-02
-1.811850e-01
-1.436120e-02
8.837300e-02
1.123650e-01
6.579180e-01
-5.749160e-02
-1.629020e-01
-1.811850e-01
-6.562370e-01
-3.155870e-01
1.123650e-01
-3.880150e-01
-1.174120e-01
4.994630e-02
-1.811850e-01
2.424930e-01
2.548900e-01
1.123650e-01
6.579180e-01
-1.174120e-01
-2.011090e-01
-1.811850e-01
-6.562370e-01
2.548900e-01
1.680450e-01
-3.880150e-01
-1.174120e-01
-7.172550e-02
1.159260e-01
2.424930e-01
2.548900e-01
4.641740e-01
-3.071780e-02
-1.174120e-01
-2.011090e-01
1.159260e-01
6.703020e-01
2.548900e-01
1.680450e-01
-3.071780e-02
-4.678870e-01
-7.172550e-02
1.159260e-01
3.557540e-01
3.209150e-01
4.641740e-01
-3.071780e-02
-1.994000e-01
-1.205180e-01
1.159260e-01
6.703020e-01
3.209150e-01
2.415700e-01
-3.071780e-02
-4.678870e-01
-1.205180e-01
1.913550e-01
3.557540e-01
3.209150e-01
-3.589850e-01
-2.363610e-01
-1.994000e-01
-1.205180e-01
8.752240e-02
1.042200e-01
3.209150e-01
2.415700e-01
-2.363610e-01
-3.816160e-01
-1.205180e-01
1.913550e-01
1.042200e-01
3.419750e-01
-3.589850e-01
-2.363610e-01
-7.697020e-01
-1.406770e-01
8.752240e-02
1.042200e-01
4.269020e-01
5.733880e-02
-2.363610e-01
-3.816160e-01
-1.406770e-01
4.244170e-01
1.042200e-01
3.419750e-01
5.733880e-02
-4.001450e-01
-7.697020e-01
-1.406770e-01
1.156330e+00
5.198570e-01
4.269020e-01
5.733880e-02
-1.092140e+00
-4.283000e-01
-1.406770e-01
4.244170e-01
5.198570e-01
-2.552510e-03
5.733880e-02
-4.001450e-01
-4.283000e-01
1.994200e-01
1.156330e+00
5.198570e-01
1.548200e-02
8.939710e-02
-1.092140e+00
-4.283000e-01
2.711420e-01
1.871840e-01
5.198570e-01
-2.552510e-03
8.939710e-02
-6.621930e-03
-4.283000e-01
1.994200e-01
1.871840e-01
2.344490e-01
1.548200e-02
8.939710e-02
-9.726270e-02
1.589370e-01
2.711420e-01
1.871840e-01
-1.600300e-01
-2.031050e-01
8.939710e-02
-6.621930e-03
1.589370e-01
7.218410e-01
1.871840e-01
2.344490e-01
-2.031050e-01
-5.329910e-01
-9.726270e-02
1.589370e-01
9.217920e-01
1.877340e-01
-1.600300e-01
-2.031050e-01
-5.922390e-01
-2.679540e-01
1.589370e-01
7.218410e-01
1.877340e-01
-3.766240e-01
-2.031050e-01
-5.329910e-01
-2.679540e-01
3.935330e-02
9.217920e-01
1.877340e-01
3.881160e-01
-3.424020e-02
-5.922390e-01
-2.679540e-01
-2.835840e-01
2.847280e-02
1.877340e-01
-3.766240e-01
-3.424020e-02
-8.716030e-01
-2.679540e-01
3.935330e-02
2.847280e-02
5.666400e-01
3.881160e-01
-3.424020e-02
-4.915940e-01
-2.029480e-01
-2.835840e-01
2.847280e-02
2.469040e-01
1.208080e-01
-3.424020e-02
-8.716030e-01
-2.029480e-01
-3.291540e-02
2.847280e-02
5.666400e-01
1.208080e-01
1.922300e-01
-4.915940e-01
-2.029480e-01
2.043210e-01
7.407820e-02
2.469040e-01
1.208080e-01
-1.460150e-02
1.024860e-01
-2.029480e-01
-3.291540e-02
7.407820e-02
-2.632240e-01
1.208080e-01
1.922300e-01
1.024860e-01
3.940840e-01
2.043210e-01
7.407820e-02
8.619220e-01
2.890930e-03
-1.460150e-02
1.024860e-01
-9.196960e-01
-1.547440e-03
7.407820e-02
-2.632240e-01
2.890930e-03
-3.529100e-01
1.024860e-01
3.940840e-01
-1.547440e-03
5.425370e-01
8.619220e-01
2.890930e-03
9.886050e-02
2.977090e-01
-9.196960e-01
-1.547440e-03
-2.438200e-01
-3.791000e-01
2.890930e-03
-3.529100e-01
2.977090e-01
3.417790e-01
-1.547440e-03
5.425370e-01
-3.791000e-01
-3.790400e-01
0.000000e+00
0.000000e+00
1.888070e-01
-2.818870e-02
0.000000e+00
0.000000e+00
-2.345160e-01
-5.841130e-02
0.000000e+00
0.000000e+00
-2.818870e-02
1.508290e-01
0.000000e+00
0.000000e+00
-5.841130e-02
-3.149020e-01
1.888070e-01
-2.818870e-02
-7.815430e-01
-3.728150e-01
-2.345160e-01
-5.841130e-02
1.171070e+00
5.407780e-01
-2.818870e-02
1.508290e-01
-3.728150e-01
8.528430e-02
-5.841130e-02
-3.149020e-01
5.407780e-01
-2.569580e-01