<?xml version="1.0"?>
<VTKFile type="UnstructuredGrid" version="0.1" byte_order="LittleEndian" compressor="vtkZLibDataCompressor">
<UnstructuredGrid>
<Piece NumberOfPoints="960" NumberOfCells="120">
<Points>
<DataArray type="Float32" NumberOfComponents="3" format="ascii">
-4.000000e+02 -6.000000e+03 -4.000000e+02
0.000000e+00 -6.000000e+03 -4.000000e+02
-4.000440e+02 -5.599900e+03 -3.997700e+02
-5.574340e-02 -5.599720e+03 -4.000890e+02
-4.000000e+02 -6.000000e+03 0.000000e+00
0.000000e+00 -6.000000e+03 0.000000e+00
-3.999280e+02 -5.600070e+03 -4.722990e-01
7.299270e-02 -5.600140e+03 -2.386560e-01
0.000000e+00 -6.000000e+03 -4.000000e+02
4.000000e+02 -6.000000e+03 -4.000000e+02
-5.574340e-02 -5.599720e+03 -4.000890e+02
3.999300e+02 -5.599560e+03 -4.004220e+02
0.000000e+00 -6.000000e+03 0.000000e+00
4.000000e+02 -6.000000e+03 0.000000e+00
7.299270e-02 -5.600140e+03 -2.386560e-01
4.000740e+02 -5.600200e+03 -3.959460e-02
-4.000440e+02 -5.599900e+03 -3.997700e+02
-5.574340e-02 -5.599720e+03 -4.000890e+02
-4.001450e+02 -5.200180e+03 -4.002870e+02
-1.327130e-01 -5.200120e+03 -4.001650e+02
-3.999280e+02 -5.600070e+03 -4.722990e-01
7.299270e-02 -5.600140e+03 -2.386560e-01
-4.000030e+02 -5.199950e+03 5.991320e-01
-1.729170e-02 -5.200040e+03 2.775140e-01
-5.574340e-02 -5.599720e+03 -4.000890e+02
3.999300e+02 -5.599560e+03 -4.004220e+02
-1.327130e-01 -5.200120e+03 -4.001650e+02
3.998780e+02 -5.200070e+03 -4.000790e+02
7.299270e-02 -5.600140e+03 -2.386560e-01
4.000740e+02 -5.600200e+03 -3.959460e-02
-1.729170e-02 -5.200040e+03 2.775140e-01
3.999690e+02 -5.200100e+03 -1.042730e-02
-4.001450e+02 -5.200180e+03 -4.002870e+02
-1.327130e-01 -5.200120e+03 -4.001650e+02
-3.998400e+02 -4.800490e+03 -4.009900e+02
1.682540e-01 -4.800660e+03 -4.006420e+02
-4.000030e+02 -5.199950e+03 5.991320e-01
-1.729170e-02 -5.200040e+03 2.775140e-01
-4.000910e+02 -4.800070e+03 -4.582280e-01
-9.483260e-02 -4.799920e+03 -4.940530e-01
-1.327130e-01 -5.200120e+03 -4.001650e+02
3.998780e+02 -5.200070e+03 -4.000790e+02
1.682540e-01 -4.800660e+03 -4.006420e+02
4.001770e+02 -4.800880e+03 -4.002920e+02
-1.729170e-02 -5.200040e+03 2.775140e-01
3.999690e+02 -5.200100e+03 -1.042730e-02
-9.483260e-02 -4.799920e+03 -4.940530e-01
3.999020e+02 -4.799750e+03 -5.185580e-01
-3.998400e+02 -4.800490e+03 -4.009900e+02
1.682540e-01 -4.800660e+03 -4.006420e+02
-4.000540e+02 -4.400350e+03 -4.010070e+02
-5.252190e-02 -4.400420e+03 -4.012130e+02
-4.000910e+02 -4.800070e+03 -4.582280e-01
-9.483260e-02 -4.799920e+03 -4.940530e-01
-3.999840e+02 -4.400290e+03 -1.009710e+00
1.756520e-02 -4.400220e+03 -9.650270e-01
1.682540e-01 -4.800660e+03 -4.006420e+02
4.001770e+02 -4.800880e+03 -4.002920e+02
-5.252190e-02 -4.400420e+03 -4.012130e+02
3.999490e+02 -4.400500e+03 -4.013860e+02
-9.483260e-02 -4.799920e+03 -4.940530e-01
3.999020e+02 -4.799750e+03 -5.185580e-01
1.756520e-02 -4.400220e+03 -9.650270e-01
4.000190e+02 -4.400150e+03 -9.357260e-01
-4.000540e+02 -4.400350e+03 -4.010070e+02
-5.252190e-02 -4.400420e+03 -4.012130e+02
-4.001420e+02 -4.000400e+03 -4.004060e+02
-1.472220e-01 -4.000570e+03 -4.005570e+02
-3.999840e+02 -4.400290e+03 -1.009710e+00
1.756520e-02 -4.400220e+03 -9.650270e-01
-3.999080e+02 -4.000010e+03 -1.599550e+00
9.088190e-02 -3.999970e+03 -1.558830e+00
-5.252190e-02 -4.400420e+03 -4.012130e+02
3.999490e+02 -4.400500e+03 -4.013860e+02
-1.472220e-01 -4.000570e+03 -4.005570e+02
3.998480e+02 -4.000690e+03 -4.007210e+02
1.756520e-02 -4.400220e+03 -9.650270e-01
4.000190e+02 -4.400150e+03 -9.357260e-01
9.088190e-02 -3.999970e+03 -1.558830e+00
4.000900e+02 -3.999960e+03 -1.489340e+00
-4.001420e+02 -4.000400e+03 -4.004060e+02
-1.472220e-01 -4.000570e+03 -4.005570e+02
-4.000430e+02 -3.600370e+03 -4.013720e+02
-3.049170e-02 -3.600590e+03 -4.015530e+02
-3.999080e+02 -4.000010e+03 -1.599550e+00
9.088190e-02 -3.999970e+03 -1.558830e+00
-3.999850e+02 -3.599910e+03 -1.724930e+00
1.128150e-03 -3.599860e+03 -1.983870e+00
-1.472220e-01 -4.000570e+03 -4.005570e+02
3.998480e+02 -4.000690e+03 -4.007210e+02
-3.049170e-02 -3.600590e+03 -4.015530e+02
3.999830e+02 -3.600800e+03 -4.017220e+02
9.088190e-02 -3.999970e+03 -1.558830e+00
4.000900e+02 -3.999960e+03 -1.489340e+00
1.128150e-03 -3.599860e+03 -1.983870e+00
3.999880e+02 -3.599830e+03 -2.271960e+00
-4.000430e+02 -3.600370e+03 -4.013720e+02
-3.049170e-02 -3.600590e+03 -4.015530e+02
-4.001380e+02 -3.200380e+03 -4.020740e+02
-1.303020e-01 -3.200340e+03 -4.028250e+02
-3.999850e+02 -3.599910e+03 -1.724930e+00
1.128150e-03 -3.599860e+03 -1.983870e+00
-3.999540e+02 -3.199910e+03 -2.082530e+00
2.687370e-02 -3.200050e+03 -2.088130e+00
-3.049170e-02 -3.600590e+03 -4.015530e+02
3.999830e+02 -3.600800e+03 -4.017220e+02
-1.303020e-01 -3.200340e+03 -4.028250e+02
3.998780e+02 -3.200310e+03 -4.035280e+02
1.128150e-03 -3.599860e+03 -1.983870e+00
3.999880e+02 -3.599830e+03 -2.271960e+00
2.687370e-02 -3.200050e+03 -2.088130e+00
4.000070e+02 -3.200160e+03 -2.083660e+00
-4.001380e+02 -3.200380e+03 -4.020740e+02
-1.303020e-01 -3.200340e+03 -4.028250e+02
-4.002400e+02 -2.800300e+03 -4.029280e+02
-2.354360e-01 -2.800260e+03 -4.028510e+02
-3.999540e+02 -3.199910e+03 -2.082530e+00
2.687370e-02 -3.200050e+03 -2.088130e+00
-4.000350e+02 -2.800200e+03 -2.269720e+00
-4.794980e-02 -2.800180e+03 -2.719440e+00
-1.303020e-01 -3.200340e+03 -4.028250e+02
3.998780e+02 -3.200310e+03 -4.035280e+02
-2.354360e-01 -2.800260e+03 -4.028510e+02
3.997690e+02 -2.800270e+03 -4.027580e+02
2.687370e-02 -3.200050e+03 -2.088130e+00
4.000070e+02 -3.200160e+03 -2.083660e+00
-4.794980e-02 -2.800180e+03 -2.719440e+00
3.999390e+02 -2.800130e+03 -3.168760e+00
-4.002400e+02 -2.800300e+03 -4.029280e+02
-2.354360e-01 -2.800260e+03 -4.028510e+02
-4.001210e+02 -2.400500e+03 -4.035590e+02
-1.130370e-01 -2.400450e+03 -4.034270e+02
-4.000350e+02 -2.800200e+03 -2.269720e+00
-4.794980e-02 -2.800180e+03 -2.719440e+00
-4.000620e+02 -2.399930e+03 -3.675560e+00
-5.808840e-02 -2.399980e+03 -3.673300e+00
-2.354360e-01 -2.800260e+03 -4.028510e+02
3.997690e+02 -2.800270e+03 -4.027580e+02
-1.130370e-01 -2.400450e+03 -4.034270e+02
3.998970e+02 -2.400380e+03 -4.032730e+02
-4.794980e-02 -2.800180e+03 -2.719440e+00
3.999390e+02 -2.800130e+03 -3.168760e+00
-5.808840e-02 -2.399980e+03 -3.673300e+00
3.999450e+02 -2.400020e+03 -3.676280e+00
-4.001210e+02 -2.400500e+03 -4.035590e+02
-1.130370e-01 -2.400450e+03 -4.034270e+02
-3.997970e+02 -2.000690e+03 -4.033140e+02
1.887650e-01 -2.000590e+03 -4.032840e+02
-4.000620e+02 -2.399930e+03 -3.675560e+00
-5.808840e-02 -2.399980e+03 -3.673300e+00
-4.001000e+02 -1.999840e+03 -4.039300e+00
-8.693100e-02 -1.999900e+03 -3.802690e+00
-1.130370e-01 -2.400450e+03 -4.034270e+02
3.998970e+02 -2.400380e+03 -4.032730e+02
1.887650e-01 -2.000590e+03 -4.032840e+02
4.001750e+02 -2.000490e+03 -4.032470e+02
-5.808840e-02 -2.399980e+03 -3.673300e+00
3.999450e+02 -2.400020e+03 -3.676280e+00
-8.693100e-02 -1.999900e+03 -3.802690e+00
3.999250e+02 -1.999960e+03 -3.586640e+00
-3.997970e+02 -2.000690e+03 -4.033140e+02
1.887650e-01 -2.000590e+03 -4.032840e+02
-3.996550e+02 -1.600750e+03 -4.045350e+02
3.527350e-01 -1.600630e+03 -4.038760e+02
-4.001000e+02 -1.999840e+03 -4.039300e+00
-8.693100e-02 -1.999900e+03 -3.802690e+00
-4.002510e+02 -1.600000e+03 -3.830280e+00
-2.549720e-01 -1.599970e+03 -3.959980e+00
1.887650e-01 -2.000590e+03 -4.032840e+02
4.001750e+02 -2.000490e+03 -4.032470e+02
3.527350e-01 -1.600630e+03 -4.038760e+02
4.003580e+02 -1.600510e+03 -4.032490e+02
-8.693100e-02 -1.999900e+03 -3.802690e+00
3.999250e+02 -1.999960e+03 -3.586640e+00
-2.549720e-01 -1.599970e+03 -3.959980e+00
3.997410e+02 -1.599950e+03 -4.150810e+00
-3.996550e+02 -1.600750e+03 -4.045350e+02
3.527350e-01 -1.600630e+03 -4.038760e+02
-4.000620e+02 -1.200440e+03 -4.049610e+02
-7.055500e-02 -1.200440e+03 -4.047130e+02
-4.002510e+02 -1.600000e+03 -3.830280e+00
-2.549720e-01 -1.599970e+03 -3.959980e+00
-4.000940e+02 -1.199980e+03 -4.067670e+00
-8.808390e-02 -1.199900e+03 -4.241410e+00
3.527350e-01 -1.600630e+03 -4.038760e+02
4.003580e+02 -1.600510e+03 -4.032490e+02
-7.055500e-02 -1.200440e+03 -4.047130e+02
3.999200e+02 -1.200440e+03 -4.044750e+02
-2.549720e-01 -1.599970e+03 -3.959980e+00
3.997410e+02 -1.599950e+03 -4.150810e+00
-8.808390e-02 -1.199900e+03 -4.241410e+00
3.999170e+02 -1.199850e+03 -4.416120e+00
-4.000620e+02 -1.200440e+03 -4.049610e+02
-7.055500e-02 -1.200440e+03 -4.047130e+02
-4.003590e+02 -8.001480e+02 -4.043660e+02
-3.780040e-01 -8.001110e+02 -4.046680e+02
-4.000940e+02 -1.199980e+03 -4.067670e+00
-8.808390e-02 -1.199900e+03 -4.241410e+00
-3.999750e+02 -8.001130e+02 -4.161430e+00
2.838660e-02 -8.000800e+02 -4.666880e+00
-7.055500e-02 -1.200440e+03 -4.047130e+02
3.999200e+02 -1.200440e+03 -4.044750e+02
-3.780040e-01 -8.001110e+02 -4.046680e+02
3.996050e+02 -8.000460e+02 -4.049800e+02
-8.808390e-02 -1.199900e+03 -4.241410e+00
3.999170e+02 -1.199850e+03 -4.416120e+00
2.838660e-02 -8.000800e+02 -4.666880e+00
4.000310e+02 -8.000530e+02 -5.168350e+00
-4.003590e+02 -8.001480e+02 -4.043660e+02
-3.780040e-01 -8.001110e+02 -4.046680e+02
-4.002850e+02 -4.003800e+02 -4.041220e+02
-2.839280e-01 -4.002530e+02 -4.048800e+02
-3.999750e+02 -8.001130e+02 -4.161430e+00
2.838660e-02 -8.000800e+02 -4.666880e+00
-3.998420e+02 -4.000480e+02 -4.971220e+00
1.645550e-01 -4.000960e+02 -4.853950e+00
-3.780040e-01 -8.001110e+02 -4.046680e+02
3.996050e+02 -8.000460e+02 -4.049800e+02
-2.839280e-01 -4.002530e+02 -4.048800e+02
3.997180e+02 -4.001140e+02 -4.057410e+02
2.838660e-02 -8.000800e+02 -4.666880e+00
4.000310e+02 -8.000530e+02 -5.168350e+00
1.645550e-01 -4.000960e+02 -4.853950e+00
4.001700e+02 -4.001620e+02 -4.716680e+00
-4.002850e+02 -4.003800e+02 -4.041220e+02
-2.839280e-01 -4.002530e+02 -4.048800e+02
-4.001790e+02 -3.085970e-01 -4.054210e+02
-1.731810e-01 -5.400640e-01 -4.054900e+02
-3.998420e+02 -4.000480e+02 -4.971220e+00
1.645550e-01 -4.000960e+02 -4.853950e+00
-3.999060e+02 2.838000e-02 -5.098030e+00
9.547730e-02 1.164420e-01 -5.220650e+00
-2.839280e-01 -4.002530e+02 -4.048800e+02
3.997180e+02 -4.001140e+02 -4.057410e+02
[...]
<PointData>
<DataArray type="Float32" Name="V1" format="ascii">
0.000000e+00
0.000000e+00
2.363040e-01
2.174540e-01
0.000000e+00
0.000000e+00
-2.326010e-01
-2.311330e-01
0.000000e+00
0.000000e+00
2.174540e-01
2.004540e-01
0.000000e+00
0.000000e+00
-2.311330e-01
-2.290720e-01
2.363040e-01
2.174540e-01
6.678230e-02
8.110280e-02
-2.326010e-01
-2.311330e-01
-1.127790e-01
-1.096680e-01
2.174540e-01
2.004540e-01
8.110280e-02
9.485930e-02
-2.311330e-01
-2.290720e-01
-1.096680e-01
-1.097410e-01
6.678230e-02
8.110280e-02
-1.741930e-01
-1.636890e-01
-1.127790e-01
-1.096680e-01
1.402810e-01
1.476540e-01
8.110280e-02
9.485930e-02
-1.636890e-01
-1.562680e-01
-1.096680e-01
-1.097410e-01
1.476540e-01
1.562880e-01
-1.741930e-01
-1.636890e-01
-4.457240e-02
-6.024200e-02
1.402810e-01
1.476540e-01
-1.403690e-01
-1.172410e-01
-1.636890e-01
-1.562680e-01
-6.024200e-02
-7.583690e-02
1.476540e-01
1.562880e-01
-1.172410e-01
-9.600970e-02
-4.457240e-02
-6.024200e-02
3.507650e-03
-7.632970e-03
-1.403690e-01
-1.172410e-01
-3.316900e-02
-3.957680e-02
-6.024200e-02
-7.583690e-02
-7.632970e-03
-1.644780e-02
-1.172410e-01
-9.600970e-02
-3.957680e-02
-4.507870e-02
3.507650e-03
-7.632970e-03
-7.145060e-02
-7.691490e-02
-3.316900e-02
-3.957680e-02
6.542760e-02
6.896220e-02
-7.632970e-03
-1.644780e-02
-7.691490e-02
-8.246610e-02
-3.957680e-02
-4.507870e-02
6.896220e-02
7.189310e-02
-7.145060e-02
-7.691490e-02
9.850900e-02
8.278060e-02
6.542760e-02
6.896220e-02
-8.001060e-02
-7.017710e-02
-7.691490e-02
-8.246610e-02
8.278060e-02
6.892340e-02
6.896220e-02
7.189310e-02
-7.017710e-02
-6.097430e-02
9.850900e-02
8.278060e-02
1.130800e-01
1.063700e-01
-8.001060e-02
-7.017710e-02
-5.945380e-02
-5.508310e-02
8.278060e-02
6.892340e-02
1.063700e-01
1.020500e-01
-7.017710e-02
-6.097430e-02
-5.508310e-02
-5.290440e-02
1.130800e-01
1.063700e-01
5.944470e-02
7.856690e-02
-5.945380e-02
-5.508310e-02
-1.733550e-01
-1.844740e-01
1.063700e-01
1.020500e-01
7.856690e-02
9.883060e-02
-5.508310e-02
-5.290440e-02
-1.844740e-01
-1.987900e-01
5.944470e-02
7.856690e-02
1.240300e-02
2.272010e-02
-1.733550e-01
-1.844740e-01
3.209190e-03
-2.743650e-03
7.856690e-02
9.883060e-02
2.272010e-02
3.496130e-02
-1.844740e-01
-1.987900e-01
-2.743650e-03
-1.029000e-02
1.240300e-02
2.272010e-02
1.202490e-01
1.146500e-01
3.209190e-03
-2.743650e-03
-2.088520e-02
-1.962260e-02
2.272010e-02
3.496130e-02
1.146500e-01
1.081850e-01
-2.743650e-03
-1.029000e-02
-1.962260e-02
-1.812150e-02
1.202490e-01
1.146500e-01
2.007870e-02
3.646860e-02
-2.088520e-02
-1.962260e-02
-2.524240e-02
-4.286510e-02
1.146500e-01
1.081850e-01
3.646860e-02
5.166710e-02
-1.962260e-02
-1.812150e-02
-4.286510e-02
-5.995630e-02
2.007870e-02
3.646860e-02
1.625460e-01
1.626020e-01
-2.524240e-02
-4.286510e-02
-1.965390e-01
-2.100210e-01
3.646860e-02
5.166710e-02
1.626020e-01
1.627930e-01
-4.286510e-02
-5.995630e-02
-2.100210e-01
-2.253030e-01
1.625460e-01
1.626020e-01
-9.124450e-02
-7.513230e-02
-1.965390e-01
-2.100210e-01
-7.241680e-04
-1.888050e-02
1.626020e-01
1.627930e-01
-7.513230e-02
-6.010880e-02
-2.100210e-01
-2.253030e-01
-1.888050e-02
-3.776810e-02
-9.124450e-02
-7.513230e-02
-3.449330e-01
-3.300660e-01
-7.241680e-04
-1.888050e-02
1.196880e-01
1.191450e-01
-7.513230e-02
-6.010880e-02
-3.300660e-01
-3.087910e-01
-1.888050e-02
-3.776810e-02
1.191450e-01
1.182530e-01
-3.449330e-01
-3.300660e-01
2.197440e-01
2.092380e-01
1.196880e-01
1.191450e-01
-3.603960e-02
-3.349230e-02
-3.300660e-01
-3.087910e-01
2.092380e-01
1.978760e-01
1.191450e-01
1.182530e-01
-3.349230e-02
-3.312740e-02
2.197440e-01
2.092380e-01
-1.489210e-01
-1.387450e-01
-3.603960e-02
-3.349230e-02
1.720590e-01
1.669270e-01
2.092380e-01
1.978760e-01
-1.387450e-01
-1.242680e-01
-3.349230e-02
-3.312740e-02
1.669270e-01
1.599790e-01
-1.489210e-01
-1.387450e-01
-1.015040e-01
-1.189050e-01
1.720590e-01
1.669270e-01
6.563960e-02
7.240880e-02
-1.387450e-01
-1.242680e-01
-1.189050e-01
-1.364630e-01
1.669270e-01
1.599790e-01
7.240880e-02
8.005590e-02
-1.015040e-01
-1.189050e-01
5.866530e-02
5.075710e-02
6.563960e-02
7.240880e-02
5.287070e-02
5.575560e-02
-1.189050e-01
-1.364630e-01
5.075710e-02
4.314540e-02
7.240880e-02
8.005590e-02
5.575560e-02
5.777060e-02
5.866530e-02
5.075710e-02
-1.780410e-01
-1.656600e-01
5.287070e-02
5.575560e-02
7.657990e-02
6.354650e-02
5.075710e-02
4.314540e-02
-1.656600e-01
-1.549180e-01
5.575560e-02
5.777060e-02
6.354650e-02
5.009500e-02
-1.780410e-01
-1.656600e-01
-2.704730e-01
-2.539580e-01
7.657990e-02
6.354650e-02
2.183610e-01
2.119370e-01
-1.656600e-01
-1.549180e-01
-2.539580e-01
-2.373910e-01
6.354650e-02
5.009500e-02
2.119370e-01
2.058560e-01
-2.704730e-01
-2.539580e-01
3.057230e-01
3.042380e-01
2.183610e-01
2.119370e-01
-2.367770e-01
-2.214260e-01
-2.539580e-01
-2.373910e-01
3.042380e-01
3.032710e-01
2.119370e-01
2.058560e-01
-2.214260e-01
-2.080250e-01
3.057230e-01
3.042380e-01
-1.428100e-01
-1.609520e-01
-2.367770e-01
-2.214260e-01
1.291180e-01
1.545600e-01
3.042380e-01
3.032710e-01
-1.609520e-01
-1.827730e-01
-2.214260e-01
-2.080250e-01
1.545600e-01
1.799090e-01
-1.428100e-01
-1.609520e-01
-1.127530e-01
-1.589990e-01
1.291180e-01
1.545600e-01
6.290100e-02
9.245940e-02
-1.609520e-01
-1.827730e-01
-1.589990e-01
-2.005300e-01
1.545600e-01
1.799090e-01
9.245940e-02
1.217680e-01
-1.127530e-01
-1.589990e-01
4.154370e-03
1.696130e-03
6.290100e-02
9.245940e-02
-2.375270e-02
-3.334620e-02
-1.589990e-01
-2.005300e-01
1.696130e-03
4.444990e-03
9.245940e-02
1.217680e-01
-3.334620e-02
-4.439410e-02
4.154370e-03
1.696130e-03
-1.524560e-03
6.877900e-04
-2.375270e-02
-3.334620e-02
1.514540e-03
8.333730e-03
1.696130e-03
4.444990e-03
6.877900e-04
2.808360e-03
-3.334620e-02
-4.439410e-02
8.333730e-03
1.399390e-02
-1.524560e-03
6.877900e-04
-8.048460e-02
-5.701040e-02
1.514540e-03
8.333730e-03
1.163010e-01
1.053480e-01
6.877900e-04
2.808360e-03
-5.701040e-02
-3.082060e-02
8.333730e-03
1.399390e-02
1.053480e-01
9.196620e-02
-8.048460e-02
-5.701040e-02
1.475820e-01
1.594120e-01
1.163010e-01
1.053480e-01
-1.003300e-01
-1.045280e-01
-5.701040e-02
-3.082060e-02
1.594120e-01
1.752630e-01
1.053480e-01
9.196620e-02
-1.045280e-01
-1.108980e-01
1.475820e-01
1.594120e-01
-1.256970e-01
-1.257690e-01
-1.003300e-01
-1.045280e-01
1.752410e-01
1.705440e-01
1.594120e-01
1.752630e-01
-1.257690e-01
-1.242430e-01
-1.045280e-01
-1.108980e-01
1.705440e-01
1.652150e-01
-1.256970e-01
-1.257690e-01
1.085930e-01
8.528590e-02
1.752410e-01
1.705440e-01
4.505950e-02
5.324510e-02
-1.257690e-01
-1.242430e-01
8.528590e-02
5.895310e-02
1.705440e-01
1.652150e-01
5.324510e-02
5.906530e-02
0.000000e+00
0.000000e+00
-2.326010e-01
-2.311330e-01
0.000000e+00
0.000000e+00
2.167160e-01
2.360800e-01
0.000000e+00
0.000000e+00
-2.311330e-01
-2.290720e-01
0.000000e+00
0.000000e+00
2.360800e-01
2.519080e-01
-2.326010e-01
-2.311330e-01
-1.127790e-01
-1.096680e-01
2.167160e-01
2.360800e-01
1.623560e-01
1.434790e-01
-2.311330e-01
-2.290720e-01
-1.096680e-01
-1.097410e-01
2.360800e-01
2.519080e-01
1.434790e-01
1.295510e-01
-1.127790e-01
-1.096680e-01
1.402810e-01
1.476540e-01
1.623560e-01
1.434790e-01
-1.164310e-01
-1.355370e-01
-1.096680e-01
-1.097410e-01
1.476540e-01
1.562880e-01
1.434790e-01
1.295510e-01
-1.355370e-01
-1.544020e-01
1.402810e-01
1.476540e-01
-1.403690e-01
-1.172410e-01
-1.164310e-01
-1.355370e-01
3.263270e-01
2.926850e-01
1.476540e-01
1.562880e-01
-1.172410e-01
-9.600970e-02
-1.355370e-01
-1.544020e-01
2.926850e-01
2.649990e-01
-1.403690e-01
-1.172410e-01
-3.316900e-02
-3.957680e-02
3.263270e-01
2.926850e-01
6.636020e-02
9.182350e-02
-1.172410e-01
-9.600970e-02
-3.957680e-02
-4.507870e-02
2.926850e-01
2.649990e-01
9.182350e-02
1.127100e-01
-3.316900e-02
-3.957680e-02
6.542760e-02
6.896220e-02
6.636020e-02
9.182350e-02
-5.261560e-02
-6.057390e-02
-3.957680e-02
-4.507870e-02
6.896220e-02
7.189310e-02
9.182350e-02
1.127100e-01
-6.057390e-02
-6.605040e-02
6.542760e-02
6.896220e-02
-8.001060e-02
-7.017710e-02
-5.261560e-02
-6.057390e-02
3.852860e-02
4.203850e-02
6.896220e-02
7.189310e-02
-7.017710e-02
-6.097430e-02
-6.057390e-02
-6.605040e-02
4.203850e-02
4.568370e-02
-8.001060e-02
-7.017710e-02
-5.945380e-02
-5.508310e-02
3.852860e-02
4.203850e-02
2.759490e-02
2.496320e-02
-7.017710e-02
-6.097430e-02
-5.508310e-02
-5.290440e-02
4.203850e-02
4.568370e-02
2.496320e-02
2.185980e-02
-5.945380e-02
-5.508310e-02
-1.733550e-01
-1.844740e-01
2.759490e-02
2.496320e-02
2.617480e-01
2.788780e-01
-5.508310e-02
-5.290440e-02
-1.844740e-01
-1.987900e-01
2.496320e-02
2.185980e-02
2.788780e-01
2.995230e-01
-1.733550e-01
-1.844740e-01
3.209190e-03
-2.743650e-03
2.617480e-01
2.788780e-01
-2.803610e-03
-4.895360e-03
-1.844740e-01
-1.987900e-01
-2.743650e-03
-1.029000e-02
2.788780e-01
2.995230e-01
-4.895360e-03
-5.356920e-03
3.209190e-03
-2.743650e-03
-2.088520e-02
-1.962260e-02
-2.803610e-03
-4.895360e-03
-9.892240e-02
-9.191260e-02
-2.743650e-03
-1.029000e-02
-1.962260e-02
-1.812150e-02
-4.895360e-03
-5.356920e-03
-9.191260e-02
-8.600370e-02
-2.088520e-02
-1.962260e-02
-2.524240e-02
-4.286510e-02
-9.892240e-02
-9.191260e-02
5.764630e-02
6.185600e-02
-1.962260e-02
-1.812150e-02
-4.286510e-02
-5.995630e-02
-9.191260e-02
-8.600370e-02
6.185600e-02
6.642820e-02
-2.524240e-02
-4.286510e-02
-1.965390e-01
-2.100210e-01
5.764630e-02
6.185600e-02
2.134340e-01
2.417900e-01
-4.286510e-02
-5.995630e-02
-2.100210e-01
-2.253030e-01
6.185600e-02
6.642820e-02
2.417900e-01
2.734520e-01
-1.965390e-01
-2.100210e-01
-7.241680e-04
-1.888050e-02
2.134340e-01
2.417900e-01
9.682150e-02
1.194110e-01
-2.100210e-01
-2.253030e-01
-1.888050e-02
-3.776810e-02
2.417900e-01
2.734520e-01
1.194110e-01
1.443230e-01
-7.241680e-04
-1.888050e-02
1.196880e-01
1.191450e-01
9.682150e-02
1.194110e-01
1.025270e-01
9.069020e-02
-1.888050e-02
-3.776810e-02
1.191450e-01
1.182530e-01
1.194110e-01
1.443230e-01
9.069020e-02
7.500180e-02
1.196880e-01
1.191450e-01
-3.603960e-02
-3.349230e-02
1.025270e-01
9.069020e-02
-1.462040e-01
-1.400380e-01
1.191450e-01
1.182530e-01
-3.349230e-02
-3.312740e-02
9.069020e-02
7.500180e-02
-1.400380e-01
-1.316470e-01
-3.603960e-02
-3.349230e-02
1.720590e-01
1.669270e-01
-1.462040e-01
-1.400380e-01
-1.918900e-01
-1.929390e-01
-3.349230e-02
-3.312740e-02
1.669270e-01
1.599790e-01
-1.400380e-01
-1.316470e-01
-1.929390e-01
-1.972200e-01
1.720590e-01
1.669270e-01
6.563960e-02
7.240880e-02
-1.918900e-01
-1.929390e-01
-2.383440e-02
-1.764370e-02
1.669270e-01
1.599790e-01
7.240880e-02
8.005590e-02
-1.929390e-01
-1.972200e-01
-1.764370e-02
-1.156610e-02
6.563960e-02
7.240880e-02
5.287070e-02
5.575560e-02
-2.383440e-02
-1.764370e-02
-1.714670e-01
-1.697850e-01
7.240880e-02
8.005590e-02
5.575560e-02
5.777060e-02
-1.764370e-02
-1.156610e-02
-1.697850e-01
-1.670750e-01
5.287070e-02
5.575560e-02
7.657990e-02
6.354650e-02
-1.714670e-01
-1.697850e-01
2.545480e-02
3.636300e-02
5.575560e-02
5.777060e-02
6.354650e-02
5.009500e-02
-1.697850e-01
-1.670750e-01
3.636300e-02
5.122340e-02
7.657990e-02
6.354650e-02
2.183610e-01
2.119370e-01
2.545480e-02
3.636300e-02
-1.627830e-01
-1.695240e-01
6.354650e-02
5.009500e-02
2.119370e-01
2.058560e-01
3.636300e-02
5.122340e-02
-1.695240e-01
-1.752940e-01
2.183610e-01
2.119370e-01
-2.367770e-01
-2.214260e-01
-1.627830e-01
-1.695240e-01
1.621800e-01
1.401510e-01
2.119370e-01
2.058560e-01
-2.214260e-01
-2.080250e-01
-1.695240e-01
-1.752940e-01
1.401510e-01
1.213870e-01
-2.367770e-01
-2.214260e-01
1.291180e-01
1.545600e-01
1.621800e-01
1.401510e-01
-1.243480e-01
-1.635350e-01
-2.214260e-01
-2.080250e-01
1.545600e-01
1.799090e-01
1.401510e-01
1.213870e-01
-1.635350e-01
-1.989960e-01
1.291180e-01
1.545600e-01
6.290100e-02
9.245940e-02
-1.243480e-01
-1.635350e-01
1.569350e-02
-6.329390e-03
1.545600e-01
1.799090e-01
9.245940e-02
1.217680e-01
-1.635350e-01
-1.989960e-01
-6.329390e-03
-3.007700e-02
6.290100e-02
9.245940e-02
-2.375270e-02
-3.334620e-02
1.569350e-02
-6.329390e-03
2.817640e-02
5.469410e-02
9.245940e-02
1.217680e-01
-3.334620e-02
-4.439410e-02
-6.329390e-03
-3.007700e-02
5.469410e-02
7.815830e-02
-2.375270e-02
-3.334620e-02
1.514540e-03
8.333730e-03
2.817640e-02
5.469410e-02
-9.027170e-03
-2.233970e-02
-3.334620e-02
-4.439410e-02
8.333730e-03
1.399390e-02
5.469410e-02
7.815830e-02
-2.233970e-02
-3.260860e-02
1.514540e-03
8.333730e-03
1.163010e-01
1.053480e-01
-9.027170e-03
-2.233970e-02
-1.348130e-01
-1.364440e-01
8.333730e-03
1.399390e-02
1.053480e-01
9.196620e-02
-2.233970e-02
-3.260860e-02
-1.364440e-01
-1.367140e-01
1.163010e-01
1.053480e-01
-1.003300e-01
-1.045280e-01
-1.348130e-01
-1.364440e-01
4.011880e-02
4.236570e-02
1.053480e-01
9.196620e-02
-1.045280e-01
-1.108980e-01
-1.364440e-01
-1.367140e-01
4.236570e-02
4.437270e-02
-1.003300e-01
-1.045280e-01
1.752410e-01
1.705440e-01
4.011880e-02
4.236570e-02
-2.135660e-01
-2.166640e-01
-1.045280e-01
-1.108980e-01
1.705440e-01
1.652150e-01
4.236570e-02
4.437270e-02
-2.166640e-01
-2.173540e-01
1.752410e-01
1.705440e-01
4.505950e-02
5.324510e-02
-2.135660e-01
-2.166640e-01
-2.049860e-01
-1.908550e-01
1.705440e-01
1.652150e-01
5.324510e-02
5.906530e-02
-2.166640e-01
-2.173540e-01
-1.908550e-01
-1.697330e-01
</DataArray>
<DataArray type="Float32" Name="V2" format="ascii">
0.000000e+00
0.000000e+00
-6.913060e-01
-3.378980e-01
0.000000e+00
0.000000e+00
3.622050e-01
1.800620e-01
0.000000e+00
0.000000e+00
-3.378980e-01
1.033610e-01
0.000000e+00
0.000000e+00
1.800620e-01
-3.250190e-02
-6.913060e-01
-3.378980e-01
5.282750e-01
1.702720e-01
3.622050e-01
1.800620e-01
-4.998280e-01
-1.498150e-01
-3.378980e-01
1.033610e-01
1.702720e-01
-3.010140e-01
1.800620e-01
-3.250190e-02
-1.498150e-01
2.867040e-01
5.282750e-01
1.702720e-01
-5.919990e-02
3.860400e-02
-4.998280e-01
-1.498150e-01
5.933320e-02
-5.629840e-02
1.702720e-01
-3.010140e-01
3.860400e-02
1.758210e-01
-1.498150e-01
2.867040e-01
-5.629840e-02
-1.744370e-01
-5.919990e-02
3.860400e-02
2.997410e-01
1.819860e-01
5.933320e-02
-5.629840e-02
-3.482830e-03
-7.524080e-02
3.860400e-02
1.758210e-01
1.819860e-01
3.212730e-02
-5.629840e-02
-1.744370e-01
-7.524080e-02
-1.472920e-01
2.997410e-01
1.819860e-01
-4.896990e-02
-1.081180e-01
-3.482830e-03
-7.524080e-02
3.609650e-03
-3.191160e-02
1.819860e-01
3.212730e-02
-1.081180e-01
-2.088690e-01
-7.524080e-02
-1.472920e-01
-3.191160e-02
-6.171320e-02
-4.896990e-02
-1.081180e-01
-5.717460e-01
-4.548300e-01
3.609650e-03
-3.191160e-02
3.551090e-01
2.370050e-01
-1.081180e-01
-2.088690e-01
-4.548300e-01
-3.236400e-01
-3.191160e-02
-6.171320e-02
2.370050e-01
1.673000e-01
-5.717460e-01
-4.548300e-01
1.470560e-01
1.826120e-01
3.551090e-01
2.370050e-01
-1.122080e-01
-7.104660e-02
-4.548300e-01
-3.236400e-01
1.826120e-01
1.113540e-01
2.370050e-01
1.673000e-01
-7.104660e-02
5.490980e-02
1.470560e-01
1.826120e-01
7.197240e-01
3.070170e-01
-1.122080e-01
-7.104660e-02
-3.295700e-01
-3.523070e-02
1.826120e-01
1.113540e-01
3.070170e-01
3.953870e-02
-7.104660e-02
5.490980e-02
-3.523070e-02
1.011470e-01
7.197240e-01
3.070170e-01
1.511990e-01
1.830650e-01
-3.295700e-01
-3.523070e-02
-3.050290e-02
-1.316930e-01
3.070170e-01
3.953870e-02
1.830650e-01
1.541200e-01
-3.523070e-02
1.011470e-01
-1.316930e-01
-1.921750e-01
1.511990e-01
1.830650e-01
5.804220e-02
-1.073600e-01
-3.050290e-02
-1.316930e-01
-2.811830e-01
2.023420e-02
1.830650e-01
1.541200e-01
-1.073600e-01
-2.793140e-01
-1.316930e-01
-1.921750e-01
2.023420e-02
2.830650e-01
5.804220e-02
-1.073600e-01
-1.701940e-01
-3.464070e-01
-2.811830e-01
2.023420e-02
1.552400e-01
2.036260e-01
-1.073600e-01
-2.793140e-01
-3.464070e-01
-4.055430e-01
2.023420e-02
2.830650e-01
2.036260e-01
1.901960e-01
-1.701940e-01
-3.464070e-01
1.223270e-02
6.101610e-02
1.552400e-01
2.036260e-01
-4.759050e-02
-4.305170e-02
-3.464070e-01
-4.055430e-01
6.101610e-02
1.416890e-01
2.036260e-01
1.901960e-01
-4.305170e-02
-7.704840e-02
1.223270e-02
6.101610e-02
-2.498920e-02
2.784000e-01
-4.759050e-02
-4.305170e-02
8.924150e-02
-1.013130e-01
6.101610e-02
1.416890e-01
2.784000e-01
4.778230e-01
-4.305170e-02
-7.704840e-02
-1.013130e-01
-1.716200e-01
-2.498920e-02
2.784000e-01
-1.713430e-01
-9.288520e-02
8.924150e-02
-1.013130e-01
5.081070e-03
1.446150e-02
2.784000e-01
4.778230e-01
-9.288520e-02
-5.137120e-02
-1.013130e-01
-1.716200e-01
1.446150e-02
5.487810e-02
-1.713430e-01
-9.288520e-02
3.203740e-01
7.148400e-02
5.081070e-03
1.446150e-02
-3.407540e-01
-9.512920e-02
-9.288520e-02
-5.137120e-02
7.148400e-02
-1.689790e-01
1.446150e-02
5.487810e-02
-9.512920e-02
5.859290e-02
3.203740e-01
7.148400e-02
8.829160e-02
-2.854170e-02
-3.407540e-01
-9.512920e-02
-8.570250e-02
-5.937080e-02
7.148400e-02
-1.689790e-01
-2.854170e-02
-5.224300e-02
-9.512920e-02
5.859290e-02
-5.937080e-02
-1.000130e-01
8.829160e-02
-2.854170e-02
-2.057030e-01
-1.358080e-01
-8.570250e-02
-5.937080e-02
9.043620e-02
3.267100e-04
-2.854170e-02
-5.224300e-02
-1.358080e-01
2.614210e-02
-5.937080e-02
-1.000130e-01
3.267100e-04
-1.116460e-01
-2.057030e-01
-1.358080e-01
-2.540950e-01
-2.638570e-02
9.043620e-02
3.267100e-04
3.227010e-01
5.128850e-02
-1.358080e-01
2.614210e-02
-2.638570e-02
1.311140e-01
3.267100e-04
-1.116460e-01
5.128850e-02
-1.867250e-01
-2.540950e-01
-2.638570e-02
-1.326530e-01
-2.098920e-01
3.227010e-01
5.128850e-02
2.169690e-02
1.612530e-01
-2.638570e-02
1.311140e-01
-2.098920e-01
-2.973180e-01
5.128850e-02
-1.867250e-01
1.612530e-01
2.960850e-01
-1.326530e-01
-2.098920e-01
-4.041400e-01
-9.858400e-02
2.169690e-02
1.612530e-01
2.200550e-01
2.080250e-01
-2.098920e-01
-2.973180e-01
-9.858400e-02
1.582990e-01
1.612530e-01
2.960850e-01
2.080250e-01
2.039980e-01
-4.041400e-01
-9.858400e-02
1.755740e-01
3.683630e-01
2.200550e-01
2.080250e-01
3.735980e-03
-2.388360e-01
-9.858400e-02
1.582990e-01
3.683630e-01
4.806430e-01
2.080250e-01
2.039980e-01
-2.388360e-01
-4.529590e-01
1.755740e-01
3.683630e-01
2.573540e-01
5.298960e-02
3.735980e-03
-2.388360e-01
-3.647160e-01
-2.031160e-01
3.683630e-01
4.806430e-01
5.298960e-02
-1.255690e-01
-2.388360e-01
-4.529590e-01
-2.031160e-01
-1.035820e-02
2.573540e-01
5.298960e-02
-3.589250e-01
-3.071690e-01
-3.647160e-01
-2.031160e-01
6.474060e-02
1.471180e-01
5.298960e-02
-1.255690e-01
-3.071690e-01
-3.156990e-01
-2.031160e-01
-1.035820e-02
1.471180e-01
2.507670e-01
-3.589250e-01
-3.071690e-01
8.131020e-02
1.080660e-01
6.474060e-02
1.471180e-01
1.151240e-01
-5.957540e-02
-3.071690e-01
-3.156990e-01
1.080660e-01
1.245830e-01
1.471180e-01
2.507670e-01
-5.957540e-02
-2.397300e-01
8.131020e-02
1.080660e-01
6.099890e-03
-2.824340e-02
1.151240e-01
-5.957540e-02
8.115700e-02
1.143790e-01
1.080660e-01
1.245830e-01
-2.824340e-02
2.047800e-02
-5.957540e-02
-2.397300e-01
1.143790e-01
1.076500e-01
6.099890e-03
-2.824340e-02
2.478720e-01
1.954100e-01
8.115700e-02
1.143790e-01
-2.108880e-01
1.079290e-03
-2.824340e-02
2.047800e-02
1.954100e-01
1.402140e-01
1.143790e-01
1.076500e-01
1.079290e-03
2.180440e-01
2.478720e-01
1.954100e-01
1.375170e-01
4.208450e-02
-2.108880e-01
1.079290e-03
-8.184160e-02
-4.687330e-02
1.954100e-01
1.402140e-01
4.208450e-02
-8.454570e-02
1.079290e-03
2.180440e-01
-4.687330e-02
1.123310e-02
1.375170e-01
4.208450e-02
-1.749470e-01
-1.496410e-01
-8.184160e-02
-4.687330e-02
1.008030e-01
1.994740e-02
4.208450e-02
-8.454570e-02
-1.496410e-01
-1.454500e-03
-4.687330e-02
1.123310e-02
1.994740e-02
-1.592730e-01
-1.749470e-01
-1.496410e-01
-6.593900e-03
1.739360e-01
1.008030e-01
1.994740e-02
-3.588060e-02
-1.187920e-01
-1.496410e-01
-1.454500e-03
1.739360e-01
2.690040e-01
1.994740e-02
-1.592730e-01
-1.187920e-01
-1.266560e-01
-6.593900e-03
1.739360e-01
-1.985630e-01
5.647980e-03
-3.588060e-02
-1.187920e-01
2.039070e-01
1.579590e-02
1.739360e-01
2.690040e-01
5.647980e-03
1.212550e-01
-1.187920e-01
-1.266560e-01
1.579590e-02
-2.226550e-01
0.000000e+00
0.000000e+00
3.622050e-01
1.800620e-01
0.000000e+00
0.000000e+00
-1.900440e-02
-3.143540e-02
0.000000e+00
0.000000e+00
1.800620e-01
-3.250190e-02
0.000000e+00
0.000000e+00
-3.143540e-02
-5.759570e-02
3.622050e-01
1.800620e-01
-4.998280e-01
-1.498150e-01
-1.900440e-02
-3.143540e-02
4.294860e-01
1.300600e-01
1.800620e-01
-3.250190e-02
-1.498150e-01
2.867040e-01
-3.143540e-02
-5.759570e-02
1.300600e-01
-2.138950e-01