<?xml version="1.0"?>
<VTKFile type="UnstructuredGrid" version="0.1" byte_order="LittleEndian" compressor="vtkZLibDataCompressor">
<UnstructuredGrid>
<Piece NumberOfPoints="960" NumberOfCells="120">
<Points>
<DataArray type="Float32" NumberOfComponents="3" format="ascii">
-4.000000e+02 -6.000000e+03 -4.000000e+02
0.000000e+00 -6.000000e+03 -4.000000e+02
-4.000000e+02 -5.600040e+03 -3.999010e+02
-3.883790e-09 -5.600040e+03 -3.999010e+02
-4.000000e+02 -6.000000e+03 0.000000e+00
0.000000e+00 -6.000000e+03 0.000000e+00
-4.000000e+02 -5.600000e+03 -1.228390e-03
-8.522630e-10 -5.600000e+03 -1.228400e-03
0.000000e+00 -6.000000e+03 -4.000000e+02
4.000000e+02 -6.000000e+03 -4.000000e+02
-3.883790e-09 -5.600040e+03 -3.999010e+02
4.000000e+02 -5.600040e+03 -3.999010e+02
0.000000e+00 -6.000000e+03 0.000000e+00
4.000000e+02 -6.000000e+03 0.000000e+00
-8.522630e-10 -5.600000e+03 -1.228400e-03
4.000000e+02 -5.600000e+03 -1.228400e-03
-4.000000e+02 -5.600040e+03 -3.999010e+02
-3.883790e-09 -5.600040e+03 -3.999010e+02
-4.000000e+02 -5.200060e+03 -4.000640e+02
4.419800e-10 -5.200060e+03 -4.000640e+02
-4.000000e+02 -5.600000e+03 -1.228390e-03
-8.522630e-10 -5.600000e+03 -1.228400e-03
-4.000000e+02 -5.200000e+03 -5.462840e-02
-2.212840e-09 -5.200000e+03 -5.462840e-02
-3.883790e-09 -5.600040e+03 -3.999010e+02
4.000000e+02 -5.600040e+03 -3.999010e+02
4.419800e-10 -5.200060e+03 -4.000640e+02
4.000000e+02 -5.200060e+03 -4.000640e+02
-8.522630e-10 -5.600000e+03 -1.228400e-03
4.000000e+02 -5.600000e+03 -1.228400e-03
-2.212840e-09 -5.200000e+03 -5.462840e-02
4.000000e+02 -5.200000e+03 -5.462850e-02
-4.000000e+02 -5.200060e+03 -4.000640e+02
4.419800e-10 -5.200060e+03 -4.000640e+02
-4.000000e+02 -4.800080e+03 -4.001650e+02
1.032700e-10 -4.800080e+03 -4.001650e+02
-4.000000e+02 -5.200000e+03 -5.462840e-02
-2.212840e-09 -5.200000e+03 -5.462840e-02
-4.000000e+02 -4.800020e+03 -1.206320e-01
-3.956280e-10 -4.800020e+03 -1.206320e-01
4.419800e-10 -5.200060e+03 -4.000640e+02
4.000000e+02 -5.200060e+03 -4.000640e+02
1.032700e-10 -4.800080e+03 -4.001650e+02
4.000000e+02 -4.800080e+03 -4.001650e+02
-2.212840e-09 -5.200000e+03 -5.462840e-02
4.000000e+02 -5.200000e+03 -5.462850e-02
-3.956280e-10 -4.800020e+03 -1.206320e-01
4.000000e+02 -4.800020e+03 -1.206320e-01
-4.000000e+02 -4.800080e+03 -4.001650e+02
1.032700e-10 -4.800080e+03 -4.001650e+02
-4.000000e+02 -4.400090e+03 -4.002460e+02
4.317800e-09 -4.400090e+03 -4.002460e+02
-4.000000e+02 -4.800020e+03 -1.206320e-01
-3.956280e-10 -4.800020e+03 -1.206320e-01
-4.000000e+02 -4.400030e+03 -3.231540e-01
1.974850e-09 -4.400030e+03 -3.231540e-01
1.032700e-10 -4.800080e+03 -4.001650e+02
4.000000e+02 -4.800080e+03 -4.001650e+02
4.317800e-09 -4.400090e+03 -4.002460e+02
4.000000e+02 -4.400090e+03 -4.002460e+02
-3.956280e-10 -4.800020e+03 -1.206320e-01
4.000000e+02 -4.800020e+03 -1.206320e-01
1.974850e-09 -4.400030e+03 -3.231540e-01
4.000000e+02 -4.400030e+03 -3.231540e-01
-4.000000e+02 -4.400090e+03 -4.002460e+02
4.317800e-09 -4.400090e+03 -4.002460e+02
-4.000000e+02 -4.000110e+03 -4.004160e+02
9.297150e-09 -4.000110e+03 -4.004160e+02
-4.000000e+02 -4.400030e+03 -3.231540e-01
1.974850e-09 -4.400030e+03 -3.231540e-01
-4.000000e+02 -3.999960e+03 -3.807760e-01
3.629630e-09 -3.999960e+03 -3.807760e-01
4.317800e-09 -4.400090e+03 -4.002460e+02
4.000000e+02 -4.400090e+03 -4.002460e+02
9.297150e-09 -4.000110e+03 -4.004160e+02
4.000000e+02 -4.000110e+03 -4.004160e+02
1.974850e-09 -4.400030e+03 -3.231540e-01
4.000000e+02 -4.400030e+03 -3.231540e-01
3.629630e-09 -3.999960e+03 -3.807760e-01
4.000000e+02 -3.999960e+03 -3.807760e-01
-4.000000e+02 -4.000110e+03 -4.004160e+02
9.297150e-09 -4.000110e+03 -4.004160e+02
-4.000000e+02 -3.600030e+03 -4.004680e+02
1.103080e-08 -3.600030e+03 -4.004680e+02
-4.000000e+02 -3.999960e+03 -3.807760e-01
3.629630e-09 -3.999960e+03 -3.807760e-01
-4.000000e+02 -3.600000e+03 -4.434680e-01
5.056750e-09 -3.600000e+03 -4.434680e-01
9.297150e-09 -4.000110e+03 -4.004160e+02
4.000000e+02 -4.000110e+03 -4.004160e+02
1.103080e-08 -3.600030e+03 -4.004680e+02
4.000000e+02 -3.600030e+03 -4.004680e+02
3.629630e-09 -3.999960e+03 -3.807760e-01
4.000000e+02 -3.999960e+03 -3.807760e-01
5.056750e-09 -3.600000e+03 -4.434680e-01
4.000000e+02 -3.600000e+03 -4.434680e-01
-4.000000e+02 -3.600030e+03 -4.004680e+02
1.103080e-08 -3.600030e+03 -4.004680e+02
-4.000000e+02 -3.199980e+03 -4.003050e+02
1.134700e-08 -3.199980e+03 -4.003050e+02
-4.000000e+02 -3.600000e+03 -4.434680e-01
5.056750e-09 -3.600000e+03 -4.434680e-01
-4.000000e+02 -3.200030e+03 -4.973200e-01
2.043940e-09 -3.200030e+03 -4.973200e-01
1.103080e-08 -3.600030e+03 -4.004680e+02
4.000000e+02 -3.600030e+03 -4.004680e+02
1.134700e-08 -3.199980e+03 -4.003050e+02
4.000000e+02 -3.199980e+03 -4.003050e+02
5.056750e-09 -3.600000e+03 -4.434680e-01
4.000000e+02 -3.600000e+03 -4.434680e-01
2.043940e-09 -3.200030e+03 -4.973200e-01
4.000000e+02 -3.200030e+03 -4.973200e-01
-4.000000e+02 -3.199980e+03 -4.003050e+02
1.134700e-08 -3.199980e+03 -4.003050e+02
-4.000000e+02 -2.800050e+03 -4.004190e+02
2.986220e-09 -2.800050e+03 -4.004190e+02
-4.000000e+02 -3.200030e+03 -4.973200e-01
2.043940e-09 -3.200030e+03 -4.973200e-01
-4.000000e+02 -2.799970e+03 -4.118610e-01
4.587900e-09 -2.799970e+03 -4.118610e-01
1.134700e-08 -3.199980e+03 -4.003050e+02
4.000000e+02 -3.199980e+03 -4.003050e+02
2.986220e-09 -2.800050e+03 -4.004190e+02
4.000000e+02 -2.800050e+03 -4.004190e+02
2.043940e-09 -3.200030e+03 -4.973200e-01
4.000000e+02 -3.200030e+03 -4.973200e-01
4.587900e-09 -2.799970e+03 -4.118610e-01
4.000000e+02 -2.799970e+03 -4.118610e-01
-4.000000e+02 -2.800050e+03 -4.004190e+02
2.986220e-09 -2.800050e+03 -4.004190e+02
-4.000000e+02 -2.400080e+03 -4.005870e+02
2.246430e-09 -2.400080e+03 -4.005870e+02
-4.000000e+02 -2.799970e+03 -4.118610e-01
4.587900e-09 -2.799970e+03 -4.118610e-01
-4.000000e+02 -2.399980e+03 -4.576810e-01
3.683020e-09 -2.399980e+03 -4.576810e-01
2.986220e-09 -2.800050e+03 -4.004190e+02
4.000000e+02 -2.800050e+03 -4.004190e+02
2.246430e-09 -2.400080e+03 -4.005870e+02
4.000000e+02 -2.400080e+03 -4.005870e+02
4.587900e-09 -2.799970e+03 -4.118610e-01
4.000000e+02 -2.799970e+03 -4.118610e-01
3.683020e-09 -2.399980e+03 -4.576810e-01
4.000000e+02 -2.399980e+03 -4.576810e-01
-4.000000e+02 -2.400080e+03 -4.005870e+02
2.246430e-09 -2.400080e+03 -4.005870e+02
-4.000000e+02 -2.000090e+03 -4.005720e+02
3.241340e-09 -2.000090e+03 -4.005720e+02
-4.000000e+02 -2.399980e+03 -4.576810e-01
3.683020e-09 -2.399980e+03 -4.576810e-01
-4.000000e+02 -1.999990e+03 -6.044020e-01
4.693310e-09 -1.999990e+03 -6.044020e-01
2.246430e-09 -2.400080e+03 -4.005870e+02
4.000000e+02 -2.400080e+03 -4.005870e+02
3.241340e-09 -2.000090e+03 -4.005720e+02
4.000000e+02 -2.000090e+03 -4.005720e+02
3.683020e-09 -2.399980e+03 -4.576810e-01
4.000000e+02 -2.399980e+03 -4.576810e-01
4.693310e-09 -1.999990e+03 -6.044020e-01
4.000000e+02 -1.999990e+03 -6.044020e-01
-4.000000e+02 -2.000090e+03 -4.005720e+02
3.241340e-09 -2.000090e+03 -4.005720e+02
-4.000000e+02 -1.600110e+03 -4.006680e+02
3.293520e-09 -1.600110e+03 -4.006680e+02
-4.000000e+02 -1.999990e+03 -6.044020e-01
4.693310e-09 -1.999990e+03 -6.044020e-01
-4.000000e+02 -1.600010e+03 -6.904670e-01
7.573540e-09 -1.600010e+03 -6.904670e-01
3.241340e-09 -2.000090e+03 -4.005720e+02
4.000000e+02 -2.000090e+03 -4.005720e+02
3.293520e-09 -1.600110e+03 -4.006680e+02
4.000000e+02 -1.600110e+03 -4.006680e+02
4.693310e-09 -1.999990e+03 -6.044020e-01
4.000000e+02 -1.999990e+03 -6.044020e-01
7.573540e-09 -1.600010e+03 -6.904670e-01
4.000000e+02 -1.600010e+03 -6.904670e-01
-4.000000e+02 -1.600110e+03 -4.006680e+02
3.293520e-09 -1.600110e+03 -4.006680e+02
-4.000000e+02 -1.200100e+03 -4.008530e+02
5.147550e-09 -1.200100e+03 -4.008530e+02
-4.000000e+02 -1.600010e+03 -6.904670e-01
7.573540e-09 -1.600010e+03 -6.904670e-01
-4.000000e+02 -1.199980e+03 -7.730010e-01
8.209330e-09 -1.199980e+03 -7.730010e-01
3.293520e-09 -1.600110e+03 -4.006680e+02
4.000000e+02 -1.600110e+03 -4.006680e+02
5.147550e-09 -1.200100e+03 -4.008530e+02
4.000000e+02 -1.200100e+03 -4.008530e+02
7.573540e-09 -1.600010e+03 -6.904670e-01
4.000000e+02 -1.600010e+03 -6.904670e-01
8.209330e-09 -1.199980e+03 -7.730010e-01
4.000000e+02 -1.199980e+03 -7.730010e-01
-4.000000e+02 -1.200100e+03 -4.008530e+02
5.147550e-09 -1.200100e+03 -4.008530e+02
-4.000000e+02 -8.000370e+02 -4.008330e+02
5.608250e-09 -8.000370e+02 -4.008330e+02
-4.000000e+02 -1.199980e+03 -7.730010e-01
8.209330e-09 -1.199980e+03 -7.730010e-01
-4.000000e+02 -8.000130e+02 -9.479490e-01
7.563950e-09 -8.000130e+02 -9.479490e-01
5.147550e-09 -1.200100e+03 -4.008530e+02
4.000000e+02 -1.200100e+03 -4.008530e+02
5.608250e-09 -8.000370e+02 -4.008330e+02
4.000000e+02 -8.000370e+02 -4.008330e+02
8.209330e-09 -1.199980e+03 -7.730010e-01
4.000000e+02 -1.199980e+03 -7.730010e-01
7.563950e-09 -8.000130e+02 -9.479490e-01
4.000000e+02 -8.000130e+02 -9.479490e-01
-4.000000e+02 -8.000370e+02 -4.008330e+02
5.608250e-09 -8.000370e+02 -4.008330e+02
-4.000000e+02 -4.000050e+02 -4.008930e+02
4.616810e-09 -4.000050e+02 -4.008930e+02
-4.000000e+02 -8.000130e+02 -9.479490e-01
7.563950e-09 -8.000130e+02 -9.479490e-01
-4.000000e+02 -4.000260e+02 -8.738360e-01
5.311280e-09 -4.000260e+02 -8.738360e-01
5.608250e-09 -8.000370e+02 -4.008330e+02
4.000000e+02 -8.000370e+02 -4.008330e+02
4.616810e-09 -4.000050e+02 -4.008930e+02
4.000000e+02 -4.000050e+02 -4.008930e+02
7.563950e-09 -8.000130e+02 -9.479490e-01
4.000000e+02 -8.000130e+02 -9.479490e-01
5.311280e-09 -4.000260e+02 -8.738360e-01
4.000000e+02 -4.000260e+02 -8.738360e-01
-4.000000e+02 -4.000050e+02 -4.008930e+02
4.616810e-09 -4.000050e+02 -4.008930e+02
-4.000000e+02 -4.147940e-02 -4.010030e+02
2.392260e-09 -4.147940e-02 -4.010030e+02
-4.000000e+02 -4.000260e+02 -8.738360e-01
5.311280e-09 -4.000260e+02 -8.738360e-01
-4.000000e+02 2.531520e-02 -8.890810e-01
7.552480e-09 2.531520e-02 -8.890810e-01
4.616810e-09 -4.000050e+02 -4.008930e+02
4.000000e+02 -4.000050e+02 -4.008930e+02
2.392260e-09 -4.147940e-02 -4.010030e+02
[...]
<PointData>
<DataArray type="Float32" Name="V1" format="ascii">
0.000000e+00
0.000000e+00
-4.330410e-10
-1.206860e-09
0.000000e+00
0.000000e+00
-5.361470e-10
5.295330e-10
0.000000e+00
0.000000e+00
-1.206860e-09
-1.918740e-09
0.000000e+00
0.000000e+00
5.295330e-10
1.347240e-09
-4.330410e-10
-1.206860e-09
-5.909400e-09
-4.250530e-09
-5.361470e-10
5.295330e-10
4.432540e-09
3.960370e-09
-1.206860e-09
-1.918740e-09
-4.250530e-09
-2.259470e-09
5.295330e-10
1.347240e-09
3.960370e-09
3.591990e-09
-5.909400e-09
-4.250530e-09
2.693500e-09
2.927180e-09
4.432540e-09
3.960370e-09
-1.958020e-09
-3.413850e-09
-4.250530e-09
-2.259470e-09
2.927180e-09
2.678770e-09
3.960370e-09
3.591990e-09
-3.413850e-09
-4.676060e-09
2.693500e-09
2.927180e-09
-3.038160e-09
-2.716260e-09
-1.958020e-09
-3.413850e-09
-1.341350e-09
-1.009460e-09
2.927180e-09
2.678770e-09
-2.716260e-09
-2.572720e-09
-3.413850e-09
-4.676060e-09
-1.009460e-09
-3.505570e-10
-3.038160e-09
-2.716260e-09
4.314700e-09
3.781820e-09
-1.341350e-09
-1.009460e-09
-3.468260e-09
-4.071040e-09
-2.716260e-09
-2.572720e-09
3.781820e-09
3.081370e-09
-1.009460e-09
-3.505570e-10
-4.071040e-09
-4.680970e-09
4.314700e-09
3.781820e-09
-1.830360e-09
-1.235830e-09
-3.468260e-09
-4.071040e-09
6.903130e-10
2.182440e-09
3.781820e-09
3.081370e-09
-1.235830e-09
-5.980100e-10
-4.071040e-09
-4.680970e-09
2.182440e-09
3.852200e-09
-1.830360e-09
-1.235830e-09
2.604140e-09
2.159490e-09
6.903130e-10
2.182440e-09
3.466300e-10
-4.180270e-10
-1.235830e-09
-5.980100e-10
2.159490e-09
1.550500e-09
2.182440e-09
3.852200e-09
-4.180270e-10
-1.107640e-09
2.604140e-09
2.159490e-09
3.876750e-09
3.983900e-09
3.466300e-10
-4.180270e-10
-2.128880e-09
-2.333320e-09
2.159490e-09
1.550500e-09
3.983900e-09
4.308810e-09
-4.180270e-10
-1.107640e-09
-2.333320e-09
-2.155390e-09
3.876750e-09
3.983900e-09
3.835510e-09
4.137620e-09
-2.128880e-09
-2.333320e-09
-6.598730e-10
-3.590230e-10
3.983900e-09
4.308810e-09
4.137620e-09
4.424680e-09
-2.333320e-09
-2.155390e-09
-3.590230e-10
-5.852440e-10
3.835510e-09
4.137620e-09
-1.336440e-09
-1.978760e-09
-6.598730e-10
-3.590230e-10
-9.731160e-10
-8.464020e-10
4.137620e-09
4.424680e-09
-1.978760e-09
-2.759290e-09
-3.590230e-10
-5.852440e-10
-8.464020e-10
-7.688700e-10
-1.336440e-09
-1.978760e-09
-1.103720e-09
-2.168590e-09
-9.731160e-10
-8.464020e-10
1.503370e-09
2.222390e-09
-1.978760e-09
-2.759290e-09
-2.168590e-09
-3.116720e-09
-8.464020e-10
-7.688700e-10
2.222390e-09
2.945860e-09
-1.103720e-09
-2.168590e-09
3.878720e-10
1.502680e-10
1.503370e-09
2.222390e-09
1.249040e-09
-7.466680e-11
-2.168590e-09
-3.116720e-09
1.502680e-10
-5.891720e-12
2.222390e-09
2.945860e-09
-7.466680e-11
-1.414010e-09
3.878720e-10
1.502680e-10
-4.022080e-09
-3.125970e-09
1.249040e-09
-7.466680e-11
-2.837850e-10
7.629850e-10
1.502680e-10
-5.891720e-12
-3.125970e-09
-2.755360e-09
-7.466680e-11
-1.414010e-09
7.629850e-10
1.275560e-09
-4.022080e-09
-3.125970e-09
4.728110e-09
4.144670e-09
-2.837850e-10
7.629850e-10
-1.425800e-09
-1.019480e-09
-3.125970e-09
-2.755360e-09
4.144670e-09
3.836490e-09
7.629850e-10
1.275560e-09
-1.019480e-09
-3.377920e-10
4.728110e-09
4.144670e-09
-3.483970e-09
-3.873650e-09
-1.425800e-09
-1.019480e-09
6.706740e-10
-6.212740e-10
4.144670e-09
3.836490e-09
-3.873650e-09
-4.102600e-09
-1.019480e-09
-3.377920e-10
-6.212740e-10
-1.798940e-09
-3.483970e-09
-3.873650e-09
-1.536760e-09
-2.687650e-10
6.706740e-10
-6.212740e-10
3.309180e-10
6.393440e-10
-3.873650e-09
-4.102600e-09
-2.687650e-10
1.356080e-09
-6.212740e-10
-1.798940e-09
6.393440e-10
7.089700e-10
-1.536760e-09
-2.687650e-10
3.084320e-09
2.498180e-09
3.309180e-10
6.393440e-10
-2.448990e-09
-2.838390e-09
-2.687650e-10
1.356080e-09
2.498180e-09
2.094510e-09
6.393440e-10
7.089700e-10
-2.838390e-09
-3.373010e-09
3.084320e-09
2.498180e-09
-7.295910e-10
3.858370e-11
-2.448990e-09
-2.838390e-09
-1.855890e-09
-8.380080e-10
2.498180e-09
2.094510e-09
3.858370e-11
7.482490e-10
-2.838390e-09
-3.373010e-09
-8.380080e-10
1.256900e-10
-7.295910e-10
3.858370e-11
-5.106160e-11
-2.071810e-10
-1.855890e-09
-8.380080e-10
9.053610e-10
5.454400e-10
3.858370e-11
7.482490e-10
-2.071810e-10
-2.798570e-10
-8.380080e-10
1.256900e-10
5.454400e-10
8.837580e-12
-5.106160e-11
-2.071810e-10
1.238240e-09
3.716180e-10
9.053610e-10
5.454400e-10
-1.098810e-09
-1.190620e-09
-2.071810e-10
-2.798570e-10
3.716180e-10
-6.520170e-10
5.454400e-10
8.837580e-12
-1.190620e-09
-1.328580e-09
1.238240e-09
3.716180e-10
1.110590e-09
1.561000e-10
-1.098810e-09
-1.190620e-09
1.312870e-09
1.782980e-09
3.716180e-10
-6.520170e-10
1.561000e-10
-1.224500e-09
-1.190620e-09
-1.328580e-09
1.782980e-09
2.359630e-09
1.110590e-09
1.561000e-10
-3.446660e-09
-2.956390e-09
1.312870e-09
1.782980e-09
2.975320e-09
2.706460e-09
1.561000e-10
-1.224500e-09
-2.956390e-09
-2.230020e-09
1.782980e-09
2.359630e-09
2.706460e-09
2.449970e-09
-3.446660e-09
-2.956390e-09
4.058410e-09
4.683330e-09
2.975320e-09
2.706460e-09
-1.359020e-09
-2.361540e-09
-2.956390e-09
-2.230020e-09
4.683330e-09
5.074740e-09
2.706460e-09
2.449970e-09
-2.361540e-09
-2.919350e-09
4.058410e-09
4.683330e-09
-2.356690e-11
-1.441320e-10
-1.359020e-09
-2.361540e-09
-2.394980e-09
-1.819880e-09
4.683330e-09
5.074740e-09
-1.441320e-10
-4.870490e-10
-2.361540e-09
-2.919350e-09
-1.819880e-09
-1.394370e-09
-2.356690e-11
-1.441320e-10
-1.111570e-09
-1.339420e-09
-2.394980e-09
-1.819880e-09
1.884370e-09
1.231130e-09
-1.441320e-10
-4.870490e-10
-1.339420e-09
-1.527920e-09
-1.819880e-09
-1.394370e-09
1.231130e-09
7.394110e-10
-1.111570e-09
-1.339420e-09
-9.858810e-10
-1.283010e-10
1.884370e-09
1.231130e-09
3.711780e-10
7.018210e-10
-1.339420e-09
-1.527920e-09
-1.283010e-10
8.287690e-10
1.231130e-09
7.394110e-10
7.018210e-10
8.582270e-10
-9.858810e-10
-1.283010e-10
-2.292860e-09
-1.994880e-09
3.711780e-10
7.018210e-10
4.831210e-10
4.265530e-10
-1.283010e-10
8.287690e-10
-1.994880e-09
-1.969800e-09
7.018210e-10
8.582270e-10
4.265530e-10
-1.119430e-10
-2.292860e-09
-1.994880e-09
3.250270e-10
-4.222510e-10
4.831210e-10
4.265530e-10
2.376330e-09
2.296990e-09
-1.994880e-09
-1.969800e-09
-4.222510e-10
-1.230390e-09
4.265530e-10
-1.119430e-10
2.296990e-09
2.009080e-09
3.250270e-10
-4.222510e-10
-1.267700e-09
-3.778080e-10
2.376330e-09
2.296990e-09
3.161890e-10
-3.599320e-10
-4.222510e-10
-1.230390e-09
-3.778080e-10
6.677280e-11
2.296990e-09
2.009080e-09
-3.599320e-10
-1.138080e-09
-1.267700e-09
-3.778080e-10
-4.379510e-10
-1.196360e-09
3.161890e-10
-3.599320e-10
-1.316800e-09
1.563370e-09
-3.778080e-10
6.677280e-11
-1.196360e-09
-1.270650e-09
-3.599320e-10
-1.138080e-09
1.563370e-09
4.091800e-09
0.000000e+00
0.000000e+00
-5.361470e-10
5.295330e-10
0.000000e+00
0.000000e+00
-2.013000e-10
-6.042370e-11
0.000000e+00
0.000000e+00
5.295330e-10
1.347240e-09
0.000000e+00
0.000000e+00
-6.042370e-11
2.602180e-10
-5.361470e-10
5.295330e-10
4.432540e-09
3.960370e-09
-2.013000e-10
-6.042370e-11
-1.552470e-09
-6.904750e-10
5.295330e-10
1.347240e-09
3.960370e-09
3.591990e-09
-6.042370e-11
2.602180e-10
-6.904750e-10
3.102970e-10
4.432540e-09
3.960370e-09
-1.958020e-09
-3.413850e-09
-1.552470e-09
-6.904750e-10
4.482620e-09
4.534600e-09
3.960370e-09
3.591990e-09
-3.413850e-09
-4.676060e-09
-6.904750e-10
3.102970e-10
4.534600e-09
4.174280e-09
-1.958020e-09
-3.413850e-09
-1.341350e-09
-1.009460e-09
4.482620e-09
4.534600e-09
3.175640e-09
1.874590e-09
-3.413850e-09
-4.676060e-09
-1.009460e-09
-3.505570e-10
4.534600e-09
4.174280e-09
1.874590e-09
8.130570e-10
-1.341350e-09
-1.009460e-09
-3.468260e-09
-4.071040e-09
3.175640e-09
1.874590e-09
4.527790e-09
4.887400e-09
-1.009460e-09
-3.505570e-10
-4.071040e-09
-4.680970e-09
1.874590e-09
8.130570e-10
4.887400e-09
5.381100e-09
-3.468260e-09
-4.071040e-09
6.903130e-10
2.182440e-09
4.527790e-09
4.887400e-09
-1.809740e-09
-1.785320e-09
-4.071040e-09
-4.680970e-09
2.182440e-09
3.852200e-09
4.887400e-09
5.381100e-09
-1.785320e-09
-1.435620e-09
6.903130e-10
2.182440e-09
3.466300e-10
-4.180270e-10
-1.809740e-09
-1.785320e-09
-1.566220e-09
-2.794730e-09
2.182440e-09
3.852200e-09
-4.180270e-10
-1.107640e-09
-1.785320e-09
-1.435620e-09
-2.794730e-09
-3.575290e-09
3.466300e-10
-4.180270e-10
-2.128880e-09
-2.333320e-09
-1.566220e-09
-2.794730e-09
-1.233330e-09
-8.612900e-10
-4.180270e-10
-1.107640e-09
-2.333320e-09
-2.155390e-09
-2.794730e-09
-3.575290e-09
-8.612900e-10
-4.487530e-10
-2.128880e-09
-2.333320e-09
-6.598730e-10
-3.590230e-10
-1.233330e-09
-8.612900e-10
-2.066030e-09
-1.738500e-09
-2.333320e-09
-2.155390e-09
-3.590230e-10
-5.852440e-10
-8.612900e-10
-4.487530e-10
-1.738500e-09
-1.306980e-09
-6.598730e-10
-3.590230e-10
-9.731160e-10
-8.464020e-10
-2.066030e-09
-1.738500e-09
3.379880e-09
2.463600e-09
-3.590230e-10
-5.852440e-10
-8.464020e-10
-7.688700e-10
-1.738500e-09
-1.306980e-09
2.463600e-09
1.883390e-09
-9.731160e-10
-8.464020e-10
1.503370e-09
2.222390e-09
3.379880e-09
2.463600e-09
-2.676810e-09
-2.654860e-09
-8.464020e-10
-7.688700e-10
2.222390e-09
2.945860e-09
2.463600e-09
1.883390e-09
-2.654860e-09
-2.734740e-09
1.503370e-09
2.222390e-09
1.249040e-09
-7.466680e-11
-2.676810e-09
-2.654860e-09
2.684660e-09
2.083200e-09
2.222390e-09
2.945860e-09
-7.466680e-11
-1.414010e-09
-2.654860e-09
-2.734740e-09
2.083200e-09
1.435620e-09
1.249040e-09
-7.466680e-11
-2.837850e-10
7.629850e-10
2.684660e-09
2.083200e-09
5.891720e-12
9.584620e-10
-7.466680e-11
-1.414010e-09
7.629850e-10
1.275560e-09
2.083200e-09
1.435620e-09
9.584620e-10
1.076220e-09
-2.837850e-10
7.629850e-10
-1.425800e-09
-1.019480e-09
5.891720e-12
9.584620e-10
-7.119160e-10
-1.197420e-09
7.629850e-10
1.275560e-09
-1.019480e-09
-3.377920e-10
9.584620e-10
1.076220e-09
-1.197420e-09
-1.635930e-09
-1.425800e-09
-1.019480e-09
6.706740e-10
-6.212740e-10
-7.119160e-10
-1.197420e-09
3.391670e-09
3.242620e-09
-1.019480e-09
-3.377920e-10
-6.212740e-10
-1.798940e-09
-1.197420e-09
-1.635930e-09
3.242620e-09
3.178580e-09
6.706740e-10
-6.212740e-10
3.309180e-10
6.393440e-10
3.391670e-09
3.242620e-09
-7.060250e-10
-7.050640e-10
-6.212740e-10
-1.798940e-09
6.393440e-10
7.089700e-10
3.242620e-09
3.178580e-09
-7.050640e-10
-6.323780e-10
3.309180e-10
6.393440e-10
-2.448990e-09
-2.838390e-09
-7.060250e-10
-7.050640e-10
3.010670e-09
2.681400e-09
6.393440e-10
7.089700e-10
-2.838390e-09
-3.373010e-09
-7.050640e-10
-6.323780e-10
2.681400e-09
2.448990e-09
-2.448990e-09
-2.838390e-09
-1.855890e-09
-8.380080e-10
3.010670e-09
2.681400e-09
1.816610e-10
4.913200e-10
-2.838390e-09
-3.373010e-09
-8.380080e-10
1.256900e-10
2.681400e-09
2.448990e-09
4.913200e-10
8.847400e-10
-1.855890e-09
-8.380080e-10
9.053610e-10
5.454400e-10
1.816610e-10
4.913200e-10
6.500530e-10
1.231470e-09
-8.380080e-10
1.256900e-10
5.454400e-10
8.837580e-12
4.913200e-10
8.847400e-10
1.231470e-09
1.452310e-09
9.053610e-10
5.454400e-10
-1.098810e-09
-1.190620e-09
6.500530e-10
1.231470e-09
2.370440e-09
2.683890e-09
5.454400e-10
8.837580e-12
-1.190620e-09
-1.328580e-09
1.231470e-09
1.452310e-09
2.683890e-09
2.881050e-09
-1.098810e-09
-1.190620e-09
1.312870e-09
1.782980e-09
2.370440e-09
2.683890e-09
-2.285990e-09
-3.613480e-09
-1.190620e-09
-1.328580e-09
1.782980e-09
2.359630e-09
2.683890e-09
2.881050e-09
-3.613480e-09
-4.929410e-09
1.312870e-09
1.782980e-09
2.975320e-09
2.706460e-09
-2.285990e-09
-3.613480e-09
-2.703320e-09
-1.473410e-09
1.782980e-09
2.359630e-09
2.706460e-09
2.449970e-09
-3.613480e-09
-4.929410e-09
-1.473410e-09
-6.971870e-11
2.975320e-09
2.706460e-09
-1.359020e-09
-2.361540e-09
-2.703320e-09
-1.473410e-09
-3.142250e-10
-8.792640e-10
2.706460e-09
2.449970e-09
-2.361540e-09
-2.919350e-09
-1.473410e-09
-6.971870e-11
-8.792640e-10
-1.370810e-09
-1.359020e-09
-2.361540e-09
-2.394980e-09
-1.819880e-09
-3.142250e-10
-8.792640e-10
2.808390e-09
2.387670e-09
-2.361540e-09
-2.919350e-09
-1.819880e-09
-1.394370e-09
-8.792640e-10
-1.370810e-09
2.387670e-09
1.866690e-09
-2.394980e-09
-1.819880e-09
1.884370e-09
1.231130e-09
2.808390e-09
2.387670e-09
6.932590e-10
1.232340e-09
-1.819880e-09
-1.394370e-09
1.231130e-09
7.394110e-10
2.387670e-09
1.866690e-09
1.232340e-09
1.881420e-09
1.884370e-09
1.231130e-09
3.711780e-10
7.018210e-10
6.932590e-10
1.232340e-09
-2.888910e-09
-3.253920e-09
1.231130e-09
7.394110e-10
7.018210e-10
8.582270e-10
1.232340e-09
1.881420e-09
-3.253920e-09
-3.625370e-09
3.711780e-10
7.018210e-10
4.831210e-10
4.265530e-10
-2.888910e-09
-3.253920e-09
-5.253450e-10
6.202610e-10
7.018210e-10
8.582270e-10
4.265530e-10
-1.119430e-10
-3.253920e-09
-3.625370e-09
6.202610e-10
1.665390e-09
4.831210e-10
4.265530e-10
2.376330e-09
2.296990e-09
-5.253450e-10
6.202610e-10
-2.742600e-09
-2.895810e-09
4.265530e-10
-1.119430e-10
2.296990e-09
2.009080e-09
6.202610e-10
1.665390e-09
-2.895810e-09
-2.970410e-09
2.376330e-09
2.296990e-09
3.161890e-10
-3.599320e-10
-2.742600e-09
-2.895810e-09
1.966850e-09
1.044550e-09
2.296990e-09
2.009080e-09
-3.599320e-10
-1.138080e-09
-2.895810e-09
-2.970410e-09
1.044550e-09
2.916400e-10
3.161890e-10
-3.599320e-10
-1.316800e-09
1.563370e-09
1.966850e-09
1.044550e-09
-1.614330e-09
-4.322270e-10
-3.599320e-10
-1.138080e-09
1.563370e-09
4.091800e-09
1.044550e-09
2.916400e-10
-4.322270e-10
4.546440e-10
</DataArray>
<DataArray type="Float32" Name="V2" format="ascii">
0.000000e+00
0.000000e+00
1.063690e-01
1.063690e-01
0.000000e+00
0.000000e+00
2.920350e-03
2.920350e-03
0.000000e+00
0.000000e+00
1.063690e-01
1.063690e-01
0.000000e+00
0.000000e+00
2.920350e-03
2.920350e-03
1.063690e-01
1.063690e-01
2.496640e-03
2.496640e-03
2.920350e-03
2.920350e-03
3.311140e-02
3.311140e-02
1.063690e-01
1.063690e-01
2.496640e-03
2.496640e-03
2.920350e-03
2.920350e-03
3.311140e-02
3.311140e-02
2.496640e-03
2.496640e-03
-7.886600e-02
-7.886600e-02
3.311140e-02
3.311140e-02
-3.763740e-03
-3.763750e-03
2.496640e-03
2.496640e-03
-7.886600e-02
-7.886600e-02
3.311140e-02
3.311140e-02
-3.763750e-03
-3.763750e-03
-7.886600e-02
-7.886600e-02
-5.872400e-02
-5.872400e-02
-3.763740e-03
-3.763750e-03
-2.265070e-02
-2.265070e-02
-7.886600e-02
-7.886600e-02
-5.872400e-02
-5.872400e-02
-3.763750e-03
-3.763750e-03
-2.265070e-02
-2.265070e-02
-5.872400e-02
-5.872400e-02
6.111720e-02
6.111720e-02
-2.265070e-02
-2.265070e-02
-3.726480e-02
-3.726480e-02
-5.872400e-02
-5.872400e-02
6.111720e-02
6.111720e-02
-2.265070e-02
-2.265070e-02
-3.726480e-02
-3.726480e-02
6.111720e-02
6.111720e-02
2.777390e-02
2.777400e-02
-3.726480e-02
-3.726480e-02
4.121840e-02
4.121840e-02
6.111720e-02
6.111720e-02
2.777400e-02
2.777400e-02
-3.726480e-02
-3.726480e-02
4.121840e-02
4.121840e-02
2.777390e-02
2.777400e-02
2.107590e-02
2.107590e-02
4.121840e-02
4.121840e-02
2.445920e-02
2.445920e-02
2.777400e-02
2.777400e-02
2.107590e-02
2.107590e-02
4.121840e-02
4.121840e-02
2.445920e-02
2.445920e-02
2.107590e-02
2.107590e-02
3.661870e-02
3.661870e-02
2.445920e-02
2.445920e-02
-8.597720e-02
-8.597720e-02
2.107590e-02
2.107590e-02
3.661870e-02
3.661870e-02
2.445920e-02
2.445920e-02
-8.597720e-02
-8.597720e-02
3.661870e-02
3.661870e-02
-4.220760e-02
-4.220760e-02
-8.597720e-02
-8.597720e-02
-1.470000e-02
-1.470000e-02
3.661870e-02
3.661870e-02
-4.220760e-02
-4.220760e-02
-8.597720e-02
-8.597720e-02
-1.470000e-02
-1.470000e-02
-4.220760e-02
-4.220760e-02
-4.300180e-02
-4.300180e-02
-1.470000e-02
-1.470000e-02
3.477210e-02
3.477210e-02
-4.220760e-02
-4.220760e-02
-4.300180e-02
-4.300180e-02
-1.470000e-02
-1.470000e-02
3.477210e-02
3.477210e-02
-4.300180e-02
-4.300180e-02
1.031430e-01
1.031430e-01
3.477210e-02
3.477210e-02
-4.016510e-02
-4.016510e-02
-4.300180e-02
-4.300180e-02
1.031430e-01
1.031430e-01
3.477210e-02
3.477210e-02
-4.016510e-02
-4.016510e-02
1.031430e-01
1.031430e-01
3.470600e-02
3.470600e-02
-4.016510e-02
-4.016510e-02
-5.019110e-03
-5.019110e-03
1.031430e-01
1.031430e-01
3.470600e-02
3.470600e-02
-4.016510e-02
-4.016510e-02
-5.019110e-03
-5.019100e-03
3.470600e-02
3.470600e-02
-6.817620e-02
-6.817620e-02
-5.019110e-03
-5.019110e-03
-4.826620e-03
-4.826620e-03
3.470600e-02
3.470600e-02
-6.817620e-02
-6.817620e-02
-5.019110e-03
-5.019100e-03
-4.826620e-03
-4.826610e-03
-6.817620e-02
-6.817620e-02
-1.462990e-01
-1.462990e-01
-4.826620e-03
-4.826620e-03
9.158420e-02
9.158420e-02
-6.817620e-02
-6.817620e-02
-1.462990e-01
-1.462990e-01
-4.826620e-03
-4.826610e-03
9.158420e-02
9.158420e-02
-1.462990e-01
-1.462990e-01
3.984210e-02
3.984210e-02
9.158420e-02
9.158420e-02
9.426700e-03
9.426690e-03
-1.462990e-01
-1.462990e-01
3.984210e-02
3.984210e-02
9.158420e-02
9.158420e-02
9.426690e-03
9.426700e-03
3.984210e-02
3.984210e-02
1.171510e-01
1.171510e-01
9.426700e-03
9.426690e-03
-1.094190e-02
-1.094190e-02
3.984210e-02
3.984210e-02
1.171510e-01
1.171510e-01
9.426690e-03
9.426700e-03
-1.094190e-02
-1.094190e-02
1.171510e-01
1.171510e-01
2.886810e-02
2.886810e-02
-1.094190e-02
-1.094190e-02
-3.131190e-02
-3.131190e-02
1.171510e-01
1.171510e-01
2.886810e-02
2.886810e-02
-1.094190e-02
-1.094190e-02
-3.131190e-02
-3.131190e-02
2.886810e-02
2.886810e-02
-8.437030e-02
-8.437030e-02
-3.131190e-02
-3.131190e-02
6.290590e-03
6.290590e-03
2.886810e-02
2.886810e-02
-8.437030e-02
-8.437030e-02
-3.131190e-02
-3.131190e-02
6.290590e-03
6.290590e-03
-8.437030e-02
-8.437030e-02
-8.495280e-02
-8.495280e-02
6.290590e-03
6.290590e-03
6.664810e-02
6.664810e-02
-8.437030e-02
-8.437030e-02
-8.495280e-02
-8.495280e-02
6.290590e-03
6.290590e-03
6.664810e-02
6.664810e-02
-8.495280e-02
-8.495280e-02
9.048300e-02
9.048300e-02
6.664810e-02
6.664810e-02
-5.116620e-02
-5.116620e-02
-8.495280e-02
-8.495280e-02
9.048300e-02
9.048300e-02
6.664810e-02
6.664810e-02
-5.116620e-02
-5.116620e-02
9.048300e-02
9.048300e-02
3.726650e-02
3.726650e-02
-5.116620e-02
-5.116620e-02
2.593230e-03
2.593230e-03
9.048300e-02
9.048300e-02
3.726650e-02
3.726650e-02
-5.116620e-02
-5.116620e-02
2.593230e-03
2.593230e-03
3.726650e-02
3.726650e-02
-3.501270e-02
-3.501270e-02
2.593230e-03
2.593230e-03
3.062480e-02
3.062480e-02
3.726650e-02
3.726650e-02
-3.501270e-02
-3.501270e-02
2.593230e-03
2.593230e-03
3.062480e-02
3.062480e-02
-3.501270e-02
-3.501270e-02
-3.459020e-02
-3.459020e-02
3.062480e-02
3.062480e-02
-1.221220e-02
-1.221220e-02
-3.501270e-02
-3.501270e-02
-3.459020e-02
-3.459020e-02
3.062480e-02
3.062480e-02
-1.221220e-02
-1.221220e-02
-3.459020e-02
-3.459020e-02
7.291600e-02
7.291600e-02
-1.221220e-02
-1.221220e-02
-6.800210e-02
-6.800210e-02
-3.459020e-02
-3.459020e-02
7.291600e-02
7.291600e-02
-1.221220e-02
-1.221220e-02
-6.800210e-02
-6.800210e-02
7.291600e-02
7.291600e-02
6.182530e-03
6.182530e-03
-6.800210e-02
-6.800210e-02
2.275270e-02
2.275270e-02
7.291600e-02
7.291600e-02
6.182530e-03
6.182530e-03
-6.800210e-02
-6.800210e-02
2.275270e-02
2.275270e-02
6.182530e-03
6.182530e-03
-5.820390e-02
-5.820390e-02
2.275270e-02
2.275270e-02
7.156200e-02
7.156200e-02
6.182530e-03
6.182530e-03
-5.820390e-02
-5.820390e-02
2.275270e-02
2.275270e-02
7.156200e-02
7.156200e-02
-5.820390e-02
-5.820390e-02
1.128180e-01
1.128180e-01
7.156200e-02
7.156200e-02
-8.321310e-02
-8.321310e-02
-5.820390e-02
-5.820390e-02
1.128180e-01
1.128180e-01
7.156200e-02
7.156200e-02
-8.321310e-02
-8.321310e-02
1.128180e-01
1.128180e-01
-3.689610e-02
-3.689610e-02
-8.321310e-02
-8.321310e-02
6.136170e-03
6.136170e-03
1.128180e-01
1.128180e-01
-3.689610e-02
-3.689610e-02
-8.321310e-02
-8.321310e-02
6.136170e-03
6.136170e-03
-3.689610e-02
-3.689610e-02
-8.211570e-02
-8.211570e-02
6.136170e-03
6.136170e-03
4.925840e-02
4.925840e-02
-3.689610e-02
-3.689610e-02
-8.211570e-02
-8.211570e-02
6.136170e-03
6.136170e-03
4.925840e-02
4.925840e-02
-8.211570e-02
-8.211570e-02
5.447310e-02
5.447310e-02
4.925840e-02
4.925840e-02
-2.991190e-02
-2.991190e-02
-8.211570e-02
-8.211570e-02
5.447310e-02
5.447310e-02
4.925840e-02
4.925840e-02
-2.991190e-02
-2.991190e-02
0.000000e+00
0.000000e+00
2.920350e-03
2.920350e-03
0.000000e+00
0.000000e+00
-1.122420e-01
-1.122420e-01
0.000000e+00
0.000000e+00
2.920350e-03
2.920350e-03
0.000000e+00
0.000000e+00
-1.122420e-01
-1.122420e-01
2.920350e-03
2.920350e-03
3.311140e-02
3.311140e-02
-1.122420e-01
-1.122420e-01
-6.885150e-02
-6.885150e-02
2.920350e-03
2.920350e-03
3.311140e-02
3.311140e-02
-1.122420e-01
-1.122420e-01
-6.885150e-02
-6.885150e-02