<?xml version="1.0"?>
<VTKFile type="UnstructuredGrid" version="0.1" byte_order="LittleEndian" compressor="vtkZLibDataCompressor">
<UnstructuredGrid>
<Piece NumberOfPoints="960" NumberOfCells="120">
<Points>
<DataArray type="Float32" NumberOfComponents="3" format="ascii">
-4.000000e+02 -6.000000e+03 -4.000000e+02
0.000000e+00 -6.000000e+03 -4.000000e+02
-4.002150e+02 -5.600430e+03 -3.991040e+02
-1.837600e-01 -5.600320e+03 -4.001070e+02
-4.000000e+02 -6.000000e+03 0.000000e+00
0.000000e+00 -6.000000e+03 0.000000e+00
-3.997490e+02 -5.599850e+03 -1.319670e+00
2.242660e-01 -5.599770e+03 -6.908820e-01
0.000000e+00 -6.000000e+03 -4.000000e+02
4.000000e+02 -6.000000e+03 -4.000000e+02
-1.837600e-01 -5.600320e+03 -4.001070e+02
3.998520e+02 -5.600330e+03 -4.007180e+02
0.000000e+00 -6.000000e+03 0.000000e+00
4.000000e+02 -6.000000e+03 0.000000e+00
2.242660e-01 -5.599770e+03 -6.908820e-01
4.001890e+02 -5.599690e+03 -1.578400e-01
-4.002150e+02 -5.600430e+03 -3.991040e+02
-1.837600e-01 -5.600320e+03 -4.001070e+02
-4.004870e+02 -5.200460e+03 -4.001010e+02
-4.207540e-01 -5.200560e+03 -4.006370e+02
-3.997490e+02 -5.599850e+03 -1.319670e+00
2.242660e-01 -5.599770e+03 -6.908820e-01
-3.998460e+02 -5.200070e+03 -1.290070e+00
1.412010e-01 -5.200100e+03 -1.468320e+00
-1.837600e-01 -5.600320e+03 -4.001070e+02
3.998520e+02 -5.600330e+03 -4.007180e+02
-4.207540e-01 -5.200560e+03 -4.006370e+02
3.996490e+02 -5.200530e+03 -4.009310e+02
2.242660e-01 -5.599770e+03 -6.908820e-01
4.001890e+02 -5.599690e+03 -1.578400e-01
1.412010e-01 -5.200100e+03 -1.468320e+00
4.001400e+02 -5.200100e+03 -1.445630e+00
-4.004870e+02 -5.200460e+03 -4.001010e+02
-4.207540e-01 -5.200560e+03 -4.006370e+02
-4.002450e+02 -4.800960e+03 -4.030440e+02
-1.974860e-01 -4.801060e+03 -4.020630e+02
-3.998460e+02 -5.200070e+03 -1.290070e+00
1.412010e-01 -5.200100e+03 -1.468320e+00
-3.999940e+02 -4.800050e+03 -9.548730e-01
2.209700e-02 -4.800100e+03 -1.921180e+00
-4.207540e-01 -5.200560e+03 -4.006370e+02
3.996490e+02 -5.200530e+03 -4.009310e+02
-1.974860e-01 -4.801060e+03 -4.020630e+02
3.998620e+02 -4.801230e+03 -4.015900e+02
1.412010e-01 -5.200100e+03 -1.468320e+00
4.001400e+02 -5.200100e+03 -1.445630e+00
2.209700e-02 -4.800100e+03 -1.921180e+00
4.000330e+02 -4.800030e+03 -2.794630e+00
-4.002450e+02 -4.800960e+03 -4.030440e+02
-1.974860e-01 -4.801060e+03 -4.020630e+02
-3.997840e+02 -4.401370e+03 -4.038630e+02
6.474970e-02 -4.401470e+03 -4.033060e+02
-3.999940e+02 -4.800050e+03 -9.548730e-01
2.209700e-02 -4.800100e+03 -1.921180e+00
-4.001890e+02 -4.399920e+03 -2.390250e+00
-1.228050e-01 -4.399870e+03 -2.615000e+00
-1.974860e-01 -4.801060e+03 -4.020630e+02
3.998620e+02 -4.801230e+03 -4.015900e+02
6.474970e-02 -4.401470e+03 -4.033060e+02
3.999170e+02 -4.401480e+03 -4.031810e+02
2.209700e-02 -4.800100e+03 -1.921180e+00
4.000330e+02 -4.800030e+03 -2.794630e+00
-1.228050e-01 -4.399870e+03 -2.615000e+00
3.999380e+02 -4.400060e+03 -2.794660e+00
-3.997840e+02 -4.401370e+03 -4.038630e+02
6.474970e-02 -4.401470e+03 -4.033060e+02
-3.999040e+02 -4.001340e+03 -4.045430e+02
1.321820e-02 -4.001440e+03 -4.044950e+02
-4.001890e+02 -4.399920e+03 -2.390250e+00
-1.228050e-01 -4.399870e+03 -2.615000e+00
-4.000430e+02 -3.999740e+03 -4.388150e+00
-3.987530e-02 -3.999900e+03 -4.458160e+00
6.474970e-02 -4.401470e+03 -4.033060e+02
3.999170e+02 -4.401480e+03 -4.031810e+02
1.321820e-02 -4.001440e+03 -4.044950e+02
3.999280e+02 -4.001710e+03 -4.044740e+02
-1.228050e-01 -4.399870e+03 -2.615000e+00
3.999380e+02 -4.400060e+03 -2.794660e+00
-3.987530e-02 -3.999900e+03 -4.458160e+00
3.999630e+02 -3.999910e+03 -4.944300e+00
-3.999040e+02 -4.001340e+03 -4.045430e+02
1.321820e-02 -4.001440e+03 -4.044950e+02
-4.004800e+02 -3.601050e+03 -4.041220e+02
-4.599130e-01 -3.601220e+03 -4.057340e+02
-4.000430e+02 -3.999740e+03 -4.388150e+00
-3.987530e-02 -3.999900e+03 -4.458160e+00
-4.001380e+02 -3.600060e+03 -4.986170e+00
-1.908670e-01 -3.599940e+03 -5.280870e+00
1.321820e-02 -4.001440e+03 -4.044950e+02
3.999280e+02 -4.001710e+03 -4.044740e+02
-4.599130e-01 -3.601220e+03 -4.057340e+02
3.995570e+02 -3.601400e+03 -4.072460e+02
-3.987530e-02 -3.999900e+03 -4.458160e+00
3.999630e+02 -3.999910e+03 -4.944300e+00
-1.908670e-01 -3.599940e+03 -5.280870e+00
3.997640e+02 -3.599880e+03 -5.525700e+00
-4.004800e+02 -3.601050e+03 -4.041220e+02
-4.599130e-01 -3.601220e+03 -4.057340e+02
-4.006620e+02 -3.201230e+03 -4.063060e+02
-5.742250e-01 -3.201440e+03 -4.067970e+02
-4.001380e+02 -3.600060e+03 -4.986170e+00
-1.908670e-01 -3.599940e+03 -5.280870e+00
-3.999340e+02 -3.200030e+03 -5.763070e+00
5.655250e-02 -3.199810e+03 -6.838820e+00
-4.599130e-01 -3.601220e+03 -4.057340e+02
3.995570e+02 -3.601400e+03 -4.072460e+02
-5.742250e-01 -3.201440e+03 -4.067970e+02
3.994950e+02 -3.201300e+03 -4.066860e+02
-1.908670e-01 -3.599940e+03 -5.280870e+00
3.997640e+02 -3.599880e+03 -5.525700e+00
5.655250e-02 -3.199810e+03 -6.838820e+00
4.000380e+02 -3.199740e+03 -8.129350e+00
-4.006620e+02 -3.201230e+03 -4.063060e+02
-5.742250e-01 -3.201440e+03 -4.067970e+02
-4.007310e+02 -2.801620e+03 -4.073160e+02
-6.930370e-01 -2.801240e+03 -4.080390e+02
-3.999340e+02 -3.200030e+03 -5.763070e+00
5.655250e-02 -3.199810e+03 -6.838820e+00
-4.000530e+02 -2.799910e+03 -7.592070e+00
-7.408990e-02 -2.800130e+03 -8.526060e+00
-5.742250e-01 -3.201440e+03 -4.067970e+02
3.994950e+02 -3.201300e+03 -4.066860e+02
-6.930370e-01 -2.801240e+03 -4.080390e+02
3.993180e+02 -2.801060e+03 -4.085850e+02
5.655250e-02 -3.199810e+03 -6.838820e+00
4.000380e+02 -3.199740e+03 -8.129350e+00
-7.408990e-02 -2.800130e+03 -8.526060e+00
3.999160e+02 -2.800190e+03 -9.470810e+00
-4.007310e+02 -2.801620e+03 -4.073160e+02
-6.930370e-01 -2.801240e+03 -4.080390e+02
-4.013840e+02 -2.401820e+03 -4.093380e+02
-1.294960e+00 -2.401630e+03 -4.109460e+02
-4.000530e+02 -2.799910e+03 -7.592070e+00
-7.408990e-02 -2.800130e+03 -8.526060e+00
-3.998670e+02 -2.400040e+03 -8.426380e+00
-3.737380e-02 -2.400140e+03 -9.605930e+00
-6.930370e-01 -2.801240e+03 -4.080390e+02
3.993180e+02 -2.801060e+03 -4.085850e+02
-1.294960e+00 -2.401630e+03 -4.109460e+02
3.988250e+02 -2.401500e+03 -4.123130e+02
-7.408990e-02 -2.800130e+03 -8.526060e+00
3.999160e+02 -2.800190e+03 -9.470810e+00
-3.737380e-02 -2.400140e+03 -9.605930e+00
3.997770e+02 -2.400310e+03 -1.089470e+01
-4.013840e+02 -2.401820e+03 -4.093380e+02
-1.294960e+00 -2.401630e+03 -4.109460e+02
-4.011970e+02 -2.001740e+03 -4.102640e+02
-1.196240e+00 -2.001970e+03 -4.112470e+02
-3.998670e+02 -2.400040e+03 -8.426380e+00
-3.737380e-02 -2.400140e+03 -9.605930e+00
-3.999320e+02 -2.000050e+03 -1.095460e+01
7.919090e-02 -1.999970e+03 -1.246440e+01
-1.294960e+00 -2.401630e+03 -4.109460e+02
3.988250e+02 -2.401500e+03 -4.123130e+02
-1.196240e+00 -2.001970e+03 -4.112470e+02
3.987970e+02 -2.001920e+03 -4.123110e+02
-3.737380e-02 -2.400140e+03 -9.605930e+00
3.997770e+02 -2.400310e+03 -1.089470e+01
7.919090e-02 -1.999970e+03 -1.246440e+01
4.000930e+02 -2.000020e+03 -1.378490e+01
-4.011970e+02 -2.001740e+03 -4.102640e+02
-1.196240e+00 -2.001970e+03 -4.112470e+02
-4.009850e+02 -1.601800e+03 -4.128370e+02
-1.015430e+00 -1.601670e+03 -4.146690e+02
-3.999320e+02 -2.000050e+03 -1.095460e+01
7.919090e-02 -1.999970e+03 -1.246440e+01
-3.998920e+02 -1.599950e+03 -1.228710e+01
8.877160e-02 -1.600060e+03 -1.288930e+01
-1.196240e+00 -2.001970e+03 -4.112470e+02
3.987970e+02 -2.001920e+03 -4.123110e+02
-1.015430e+00 -1.601670e+03 -4.146690e+02
3.989680e+02 -1.601830e+03 -4.157190e+02
7.919090e-02 -1.999970e+03 -1.246440e+01
4.000930e+02 -2.000020e+03 -1.378490e+01
8.877160e-02 -1.600060e+03 -1.288930e+01
4.000720e+02 -1.599890e+03 -1.366760e+01
-4.009850e+02 -1.601800e+03 -4.128370e+02
-1.015430e+00 -1.601670e+03 -4.146690e+02
-4.008880e+02 -1.201670e+03 -4.143940e+02
-9.043110e-01 -1.201570e+03 -4.151720e+02
-3.998920e+02 -1.599950e+03 -1.228710e+01
8.877160e-02 -1.600060e+03 -1.288930e+01
-3.998760e+02 -1.199910e+03 -1.389020e+01
1.371110e-01 -1.199920e+03 -1.515870e+01
-1.015430e+00 -1.601670e+03 -4.146690e+02
3.989680e+02 -1.601830e+03 -4.157190e+02
-9.043110e-01 -1.201570e+03 -4.151720e+02
3.990750e+02 -1.201640e+03 -4.159800e+02
8.877160e-02 -1.600060e+03 -1.288930e+01
4.000720e+02 -1.599890e+03 -1.366760e+01
1.371110e-01 -1.199920e+03 -1.515870e+01
4.001490e+02 -1.199800e+03 -1.623960e+01
-4.008880e+02 -1.201670e+03 -4.143940e+02
-9.043110e-01 -1.201570e+03 -4.151720e+02
-4.003970e+02 -8.016560e+02 -4.166590e+02
-2.692120e-01 -8.014390e+02 -4.167140e+02
-3.998760e+02 -1.199910e+03 -1.389020e+01
1.371110e-01 -1.199920e+03 -1.515870e+01
-3.998780e+02 -7.999030e+02 -1.649820e+01
4.408030e-02 -8.001200e+02 -1.697740e+01
-9.043110e-01 -1.201570e+03 -4.151720e+02
3.990750e+02 -1.201640e+03 -4.159800e+02
-2.692120e-01 -8.014390e+02 -4.167140e+02
3.998510e+02 -8.012820e+02 -4.164670e+02
1.371110e-01 -1.199920e+03 -1.515870e+01
4.001490e+02 -1.199800e+03 -1.623960e+01
4.408030e-02 -8.001200e+02 -1.697740e+01
3.999750e+02 -8.002920e+02 -1.753690e+01
-4.003970e+02 -8.016560e+02 -4.166590e+02
-2.692120e-01 -8.014390e+02 -4.167140e+02
-4.000490e+02 -4.015860e+02 -4.190080e+02
-2.360390e-02 -4.017080e+02 -4.186350e+02
-3.998780e+02 -7.999030e+02 -1.649820e+01
4.408030e-02 -8.001200e+02 -1.697740e+01
-4.000960e+02 -4.002120e+02 -1.880330e+01
-1.231590e-01 -4.001470e+02 -1.836200e+01
-2.692120e-01 -8.014390e+02 -4.167140e+02
3.998510e+02 -8.012820e+02 -4.164670e+02
-2.360390e-02 -4.017080e+02 -4.186350e+02
4.000100e+02 -4.016350e+02 -4.181100e+02
4.408030e-02 -8.001200e+02 -1.697740e+01
3.999750e+02 -8.002920e+02 -1.753690e+01
-1.231590e-01 -4.001470e+02 -1.836200e+01
3.998410e+02 -4.000950e+02 -1.793170e+01
-4.000490e+02 -4.015860e+02 -4.190080e+02
-2.360390e-02 -4.017080e+02 -4.186350e+02
-3.997410e+02 -1.545760e+00 -4.198220e+02
2.907410e-01 -1.765330e+00 -4.198140e+02
-4.000960e+02 -4.002120e+02 -1.880330e+01
-1.231590e-01 -4.001470e+02 -1.836200e+01
-3.999390e+02 -1.625190e-01 -2.158740e+01
2.607820e-02 -1.158420e-01 -2.045620e+01
-2.360390e-02 -4.017080e+02 -4.186350e+02
4.000100e+02 -4.016350e+02 -4.181100e+02
[...]
<PointData>
<DataArray type="Float32" Name="V1" format="ascii">
0.000000e+00
0.000000e+00
3.142830e-01
1.716900e-01
0.000000e+00
0.000000e+00
7.246050e-04
3.913150e-02
0.000000e+00
0.000000e+00
1.716900e-01
2.097770e-02
0.000000e+00
0.000000e+00
3.913150e-02
8.315070e-02
3.142830e-01
1.716900e-01
8.578960e-01
4.930010e-01
7.246050e-04
3.913150e-02
-4.711970e-01
-2.644880e-01
1.716900e-01
2.097770e-02
4.930010e-01
1.492840e-01
3.913150e-02
8.315070e-02
-2.644880e-01
-6.923040e-02
8.578960e-01
4.930010e-01
1.730500e-01
1.178070e-01
-4.711970e-01
-2.644880e-01
1.327550e-01
1.142230e-01
4.930010e-01
1.492840e-01
1.178070e-01
3.064760e-02
-2.644880e-01
-6.923040e-02
1.142230e-01
8.806840e-02
1.730500e-01
1.178070e-01
1.954350e-01
1.810700e-01
1.327550e-01
1.142230e-01
-2.309490e-01
-1.271140e-01
1.178070e-01
3.064760e-02
1.810700e-01
2.422200e-01
1.142230e-01
8.806840e-02
-1.271140e-01
-5.628880e-02
1.954350e-01
1.810700e-01
1.239750e-01
4.598770e-02
-2.309490e-01
-1.271140e-01
-2.841830e-01
-1.389200e-01
1.810700e-01
2.422200e-01
4.598770e-02
-9.497230e-02
-1.271140e-01
-5.628880e-02
-1.389200e-01
3.003250e-02
1.239750e-01
4.598770e-02
-4.212520e-01
-2.920870e-01
-2.841830e-01
-1.389200e-01
3.454370e-01
3.460240e-01
4.598770e-02
-9.497230e-02
-2.920870e-01
-1.315600e-01
-1.389200e-01
3.003250e-02
3.460240e-01
3.096800e-01
-4.212520e-01
-2.920870e-01
3.322280e-02
-1.200960e-01
3.454370e-01
3.460240e-01
-3.409490e-02
-5.486550e-02
-2.920870e-01
-1.315600e-01
-1.200960e-01
-3.340250e-01
3.460240e-01
3.096800e-01
-5.486550e-02
-3.565100e-02
3.322280e-02
-1.200960e-01
5.000980e-01
4.782440e-01
-3.409490e-02
-5.486550e-02
-3.280880e-01
-3.114850e-01
-1.200960e-01
-3.340250e-01
4.782440e-01
5.141600e-01
-5.486550e-02
-3.565100e-02
-3.114850e-01
-3.258330e-01
5.000980e-01
4.782440e-01
1.236040e-01
1.387090e-01
-3.280880e-01
-3.114850e-01
5.081170e-03
-1.273320e-01
4.782440e-01
5.141600e-01
1.387090e-01
1.470340e-01
-3.114850e-01
-3.258330e-01
-1.273320e-01
-2.480040e-01
1.236040e-01
1.387090e-01
8.993010e-02
-4.152020e-02
5.081170e-03
-1.273320e-01
-1.314930e-01
-5.002630e-02
1.387090e-01
1.470340e-01
-4.152020e-02
-1.525160e-01
-1.273320e-01
-2.480040e-01
-5.002630e-02
2.355800e-02
8.993010e-02
-4.152020e-02
4.253950e-01
4.622300e-01
-1.314930e-01
-5.002630e-02
-3.464150e-01
-4.510230e-01
-4.152020e-02
-1.525160e-01
4.622300e-01
5.090250e-01
-5.002630e-02
2.355800e-02
-4.510230e-01
-5.113700e-01
4.253950e-01
4.622300e-01
2.851320e-01
3.123580e-01
-3.464150e-01
-4.510230e-01
4.614620e-02
7.978370e-02
4.622300e-01
5.090250e-01
3.123580e-01
1.898940e-01
-4.510230e-01
-5.113700e-01
7.978370e-02
1.009500e-01
2.851320e-01
3.123580e-01
-1.926300e-01
-1.755900e-02
4.614620e-02
7.978370e-02
9.818020e-02
1.027060e-02
3.123580e-01
1.898940e-01
-1.755900e-02
1.978970e-01
7.978370e-02
1.009500e-01
1.027060e-02
-9.944240e-02
-1.926300e-01
-1.755900e-02
2.075060e-01
1.120900e-01
9.818020e-02
1.027060e-02
-3.271660e-02
-2.090220e-02
-1.755900e-02
1.978970e-01
1.120900e-01
-5.941380e-02
1.027060e-02
-9.944240e-02
-2.090220e-02
3.083540e-02
2.075060e-01
1.120900e-01
1.859770e-01
1.258670e-01
-3.271660e-02
-2.090220e-02
-5.026620e-02
-1.083390e-01
1.120900e-01
-5.941380e-02
1.258670e-01
1.365280e-01
-2.090220e-02
3.083540e-02
-1.083390e-01
-2.158140e-01
1.859770e-01
1.258670e-01
-2.491090e-02
-3.991220e-02
-5.026620e-02
-1.083390e-01
1.393980e-01
8.010010e-02
1.258670e-01
1.365280e-01
-3.991220e-02
-6.897910e-02
-1.083390e-01
-2.158140e-01
8.010010e-02
4.854110e-02
-2.491090e-02
-3.991220e-02
-2.245380e-01
-2.170700e-01
1.393980e-01
8.010010e-02
-2.478170e-02
-8.179170e-02
-3.991220e-02
-6.897910e-02
-2.170700e-01
-1.550600e-01
8.010010e-02
4.854110e-02
-8.179170e-02
-1.294760e-01
-2.245380e-01
-2.170700e-01
-7.794060e-02
8.002270e-02
-2.478170e-02
-8.179170e-02
-1.682470e-01
-1.881410e-01
-2.170700e-01
-1.550600e-01
8.002270e-02
2.875300e-01
-8.179170e-02
-1.294760e-01
-1.881410e-01
-2.047690e-01
-7.794060e-02
8.002270e-02
2.663190e-01
1.145410e-01
-1.682470e-01
-1.881410e-01
-2.767170e-01
-1.991530e-01
8.002270e-02
2.875300e-01
1.145410e-01
-2.941110e-02
-1.881410e-01
-2.047690e-01
-1.991530e-01
-1.708930e-01
2.663190e-01
1.145410e-01
3.641880e-01
1.658160e-01
-2.767170e-01
-1.991530e-01
-1.182790e-01
-1.011920e-01
1.145410e-01
-2.941110e-02
1.658160e-01
-7.322340e-02
-1.991530e-01
-1.708930e-01
-1.011920e-01
5.141500e-04
3.641880e-01
1.658160e-01
1.203750e-01
-1.115330e-01
-1.182790e-01
-1.011920e-01
-1.027800e-01
9.440240e-02
1.658160e-01
-7.322340e-02
-1.115330e-01
-3.866340e-01
-1.011920e-01
5.141500e-04
9.440240e-02
2.604110e-01
1.203750e-01
-1.115330e-01
4.360980e-01
3.700760e-01
-1.027800e-01
9.440240e-02
-4.372020e-01
-3.609400e-01
-1.115330e-01
-3.866340e-01
3.700760e-01
2.745980e-01
9.440240e-02
2.604110e-01
-3.609400e-01
-2.627800e-01
4.360980e-01
3.700760e-01
-4.910560e-01
-2.494430e-01
-4.372020e-01
-3.609400e-01
5.982680e-01
3.728400e-01
3.700760e-01
2.745980e-01
-2.494430e-01
-5.861780e-02
-3.609400e-01
-2.627800e-01
3.728400e-01
1.771860e-01
-4.910560e-01
-2.494430e-01
-3.535700e-01
-9.065650e-02
5.982680e-01
3.728400e-01
3.176300e-02
-5.526890e-02
-2.494430e-01
-5.861780e-02
-9.065650e-02
2.069960e-01
3.728400e-01
1.771860e-01
-5.526890e-02
-1.661490e-01
-3.535700e-01
-9.065650e-02
-5.436760e-01
-1.815960e-01
3.176300e-02
-5.526890e-02
4.101020e-01
2.516570e-01
-9.065650e-02
2.069960e-01
-1.815960e-01
1.962200e-01
-5.526890e-02
-1.661490e-01
2.516570e-01
1.229170e-01
-5.436760e-01
-1.815960e-01
3.770790e-01
3.117180e-01
4.101020e-01
2.516570e-01
-3.435610e-01
-3.203140e-01
-1.815960e-01
1.962200e-01
3.117180e-01
2.863890e-01
2.516570e-01
1.229170e-01
-3.203140e-01
-2.981600e-01
3.770790e-01
3.117180e-01
-9.656340e-02
-1.644920e-01
-3.435610e-01
-3.203140e-01
1.994270e-01
1.419770e-01
3.117180e-01
2.863890e-01
-1.644920e-01
-2.298390e-01
-3.203140e-01
-2.981600e-01
1.419770e-01
1.053640e-01
-9.656340e-02
-1.644920e-01
1.308570e-01
1.666220e-01
1.994270e-01
1.419770e-01
-2.883550e-01
-2.678220e-01
-1.644920e-01
-2.298390e-01
1.666220e-01
2.084990e-01
1.419770e-01
1.053640e-01
-2.678220e-01
-2.681620e-01
1.308570e-01
1.666220e-01
-6.271440e-01
-3.812750e-01
-2.883550e-01
-2.678220e-01
3.502010e-01
3.576250e-01
1.666220e-01
2.084990e-01
-3.812750e-01
-1.534380e-01
-2.678220e-01
-2.681620e-01
3.576250e-01
4.061680e-01
-6.271440e-01
-3.812750e-01
1.960590e-01
-1.651820e-01
3.502010e-01
3.576250e-01
-2.318350e-01
9.508700e-02
-3.812750e-01
-1.534380e-01
-1.651820e-01
-4.923880e-01
3.576250e-01
4.061680e-01
9.508700e-02
3.583860e-01
0.000000e+00
0.000000e+00
7.246050e-04
3.913150e-02
0.000000e+00
0.000000e+00
-2.935010e-01
-2.548730e-01
0.000000e+00
0.000000e+00
3.913150e-02
8.315070e-02
0.000000e+00
0.000000e+00
-2.548730e-01
-2.369070e-01
7.246050e-04
3.913150e-02
-4.711970e-01
-2.644880e-01
-2.935010e-01
-2.548730e-01
6.242510e-02
1.416930e-02
3.913150e-02
8.315070e-02
-2.644880e-01
-6.923040e-02
-2.548730e-01
-2.369070e-01
1.416930e-02
-2.904780e-02
-4.711970e-01
-2.644880e-01
1.327550e-01
1.142230e-01
6.242510e-02
1.416930e-02
-4.359390e-01
-3.272360e-01
-2.644880e-01
-6.923040e-02
1.142230e-01
8.806840e-02
1.416930e-02
-2.904780e-02
-3.272360e-01
-2.160930e-01
1.327550e-01
1.142230e-01
-2.309490e-01
-1.271140e-01
-4.359390e-01
-3.272360e-01
2.207810e-01
5.314660e-02
1.142230e-01
8.806840e-02
-1.271140e-01
-5.628880e-02
-3.272360e-01
-2.160930e-01
5.314660e-02
-1.065110e-01
-2.309490e-01
-1.271140e-01
-2.841830e-01
-1.389200e-01
2.207810e-01
5.314660e-02
4.142370e-01
2.275140e-01
-1.271140e-01
-5.628880e-02
-1.389200e-01
3.003250e-02
5.314660e-02
-1.065110e-01
2.275140e-01
4.163020e-02
-2.841830e-01
-1.389200e-01
3.454370e-01
3.460240e-01
4.142370e-01
2.275140e-01
-3.359660e-01
-4.169790e-01
-1.389200e-01
3.003250e-02
3.460240e-01
3.096800e-01
2.275140e-01
4.163020e-02
-4.169790e-01
-4.633190e-01
3.454370e-01
3.460240e-01
-3.409490e-02
-5.486550e-02
-3.359660e-01
-4.169790e-01
9.887950e-02
2.669920e-01
3.460240e-01
3.096800e-01
-5.486550e-02
-3.565100e-02
-4.169790e-01
-4.633190e-01
2.669920e-01
4.347360e-01
-3.409490e-02
-5.486550e-02
-3.280880e-01
-3.114850e-01
9.887950e-02
2.669920e-01
1.268490e-01
1.225030e-01
-5.486550e-02
-3.565100e-02
-3.114850e-01
-3.258330e-01
2.669920e-01
4.347360e-01
1.225030e-01
1.119620e-01
-3.280880e-01
-3.114850e-01
5.081170e-03
-1.273320e-01
1.268490e-01
1.225030e-01
-1.518060e-01
1.554190e-01
-3.114850e-01
-3.258330e-01
-1.273320e-01
-2.480040e-01
1.225030e-01
1.119620e-01
1.554190e-01
3.901950e-01
5.081170e-03
-1.273320e-01
-1.314930e-01
-5.002630e-02
-1.518060e-01
1.554190e-01
1.863520e-01
1.704980e-01
-1.273320e-01
-2.480040e-01
-5.002630e-02
2.355800e-02
1.554190e-01
3.901950e-01
1.704980e-01
1.425980e-01
-1.314930e-01
-5.002630e-02
-3.464150e-01
-4.510230e-01
1.863520e-01
1.704980e-01
2.421680e-01
3.804450e-01
-5.002630e-02
2.355800e-02
-4.510230e-01
-5.113700e-01
1.704980e-01
1.425980e-01
3.804450e-01
4.735160e-01
-3.464150e-01
-4.510230e-01
4.614620e-02
7.978370e-02
2.421680e-01
3.804450e-01
-4.179490e-01
-4.326780e-01
-4.510230e-01
-5.113700e-01
7.978370e-02
1.009500e-01
3.804450e-01
4.735160e-01
-4.326780e-01
-3.414300e-01
4.614620e-02
7.978370e-02
9.818020e-02
1.027060e-02
-4.179490e-01
-4.326780e-01
1.342050e-02
-4.334370e-03
7.978370e-02
1.009500e-01
1.027060e-02
-9.944240e-02
-4.326780e-01
-3.414300e-01
-4.334370e-03
-4.086000e-02
9.818020e-02
1.027060e-02
-3.271660e-02
-2.090220e-02
1.342050e-02
-4.334370e-03
-1.522850e-01
-1.275090e-01
1.027060e-02
-9.944240e-02
-2.090220e-02
3.083540e-02
-4.334370e-03
-4.086000e-02
-1.275090e-01
-1.115250e-01
-3.271660e-02
-2.090220e-02
-5.026620e-02
-1.083390e-01
-1.522850e-01
-1.275090e-01
-5.333030e-04
1.571410e-01
-2.090220e-02
3.083540e-02
-1.083390e-01
-2.158140e-01
-1.275090e-01
-1.115250e-01
1.571410e-01
3.053580e-01
-5.026620e-02
-1.083390e-01
1.393980e-01
8.010010e-02
-5.333030e-04
1.571410e-01
-2.728630e-01
-1.239970e-01
-1.083390e-01
-2.158140e-01
8.010010e-02
4.854110e-02
1.571410e-01
3.053580e-01
-1.239970e-01
1.032080e-02
1.393980e-01
8.010010e-02
-2.478170e-02
-8.179170e-02
-2.728630e-01
-1.239970e-01
3.159850e-01
3.687530e-01
8.010010e-02
4.854110e-02
-8.179170e-02
-1.294760e-01
-1.239970e-01
1.032080e-02
3.687530e-01
3.852580e-01
-2.478170e-02
-8.179170e-02
-1.682470e-01
-1.881410e-01
3.159850e-01
3.687530e-01
4.329640e-01
2.813600e-01
-8.179170e-02
-1.294760e-01
-1.881410e-01
-2.047690e-01
3.687530e-01
3.852580e-01
2.813600e-01
5.822310e-02
-1.682470e-01
-1.881410e-01
-2.767170e-01
-1.991530e-01
4.329640e-01
2.813600e-01
2.558960e-01
3.221010e-01
-1.881410e-01
-2.047690e-01
-1.991530e-01
-1.708930e-01
2.813600e-01
5.822310e-02
3.221010e-01
3.990920e-01
-2.767170e-01
-1.991530e-01
-1.182790e-01
-1.011920e-01
2.558960e-01
3.221010e-01
-7.452830e-02
-7.716170e-03
-1.991530e-01
-1.708930e-01
-1.011920e-01
5.141500e-04
3.221010e-01
3.990920e-01
-7.716170e-03
2.704030e-02
-1.182790e-01
-1.011920e-01
-1.027800e-01
9.440240e-02
-7.452830e-02
-7.716170e-03
9.541040e-02
-4.883300e-02
-1.011920e-01
5.141500e-04
9.440240e-02
2.604110e-01
-7.716170e-03
2.704030e-02
-4.883300e-02
-7.965710e-02
-1.027800e-01
9.440240e-02
-4.372020e-01
-3.609400e-01
9.541040e-02
-4.883300e-02
4.593990e-01
3.763700e-01
9.440240e-02
2.604110e-01
-3.609400e-01
-2.627800e-01
-4.883300e-02
-7.965710e-02
3.763700e-01
2.034190e-01
-4.372020e-01
-3.609400e-01
5.982680e-01
3.728400e-01
4.593990e-01
3.763700e-01
-7.711540e-01
-5.522260e-01
-3.609400e-01
-2.627800e-01
3.728400e-01
1.771860e-01
3.763700e-01
2.034190e-01
-5.522260e-01
-2.868670e-01
5.982680e-01
3.728400e-01
3.176300e-02
-5.526890e-02
-7.711540e-01
-5.522260e-01
3.276060e-01
2.177270e-01
3.728400e-01
1.771860e-01
-5.526890e-02
-1.661490e-01
-5.522260e-01
-2.868670e-01
2.177270e-01
1.304050e-01
3.176300e-02
-5.526890e-02
4.101020e-01
2.516570e-01
3.276060e-01
2.177270e-01
-3.315640e-01
-3.365890e-01
-5.526890e-02
-1.661490e-01
2.516570e-01
1.229170e-01
2.177270e-01
1.304050e-01
-3.365890e-01
-4.266060e-01
4.101020e-01
2.516570e-01
-3.435610e-01
-3.203140e-01
-3.315640e-01
-3.365890e-01
3.942310e-01
3.446480e-01
2.516570e-01
1.229170e-01
-3.203140e-01
-2.981600e-01
-3.365890e-01
-4.266060e-01
3.446480e-01
3.178660e-01
-3.435610e-01
-3.203140e-01
1.994270e-01
1.419770e-01
3.942310e-01
3.446480e-01
-3.090690e-01
-1.289430e-01
-3.203140e-01
-2.981600e-01
1.419770e-01
1.053640e-01
3.446480e-01
3.178660e-01
-1.289430e-01
7.554370e-02
1.994270e-01
1.419770e-01
-2.883550e-01
-2.678220e-01
-3.090690e-01
-1.289430e-01
4.203720e-01
3.837480e-01
1.419770e-01
1.053640e-01
-2.678220e-01
-2.681620e-01
-1.289430e-01
7.554370e-02
3.837480e-01
3.490970e-01
-2.883550e-01
-2.678220e-01
3.502010e-01
3.576250e-01
4.203720e-01
3.837480e-01
-1.321400e-01
-3.682750e-01
-2.678220e-01
-2.681620e-01
3.576250e-01
4.061680e-01
3.837480e-01
3.490970e-01
-3.682750e-01
-6.294230e-01
3.502010e-01
3.576250e-01
-2.318350e-01
9.508700e-02
-1.321400e-01
-3.682750e-01
3.247380e-01
-2.783450e-02
3.576250e-01
4.061680e-01
9.508700e-02
3.583860e-01
-3.682750e-01
-6.294230e-01
-2.783450e-02
-2.515020e-01
</DataArray>
<DataArray type="Float32" Name="V2" format="ascii">
0.000000e+00
0.000000e+00
-1.313110e+00
-1.047700e-01
0.000000e+00
0.000000e+00
9.155680e-01
-1.888490e-01
0.000000e+00
0.000000e+00
-1.047700e-01
3.201190e-01
0.000000e+00
0.000000e+00
-1.888490e-01
-5.973880e-01
-1.313110e+00
-1.047700e-01
4.525980e-01
2.458880e-01
9.155680e-01
-1.888490e-01
-4.776660e-01
-3.792890e-01
-1.047700e-01
3.201190e-01
2.458880e-01
-2.678070e-01
-1.888490e-01
-5.973880e-01
-3.792890e-01
5.913340e-02
4.525980e-01
2.458880e-01
-6.587650e-01
1.858380e-01
-4.776660e-01
-3.792890e-01
5.228720e-01
1.434290e-01
2.458880e-01
-2.678070e-01
1.858380e-01
1.009120e+00
-3.792890e-01
5.913340e-02
1.434290e-01
-5.406840e-01
-6.587650e-01
1.858380e-01
1.701130e-01
2.861280e-02
5.228720e-01
1.434290e-01
4.918070e-02
2.609220e-02
1.858380e-01
1.009120e+00
2.861280e-02
1.386230e-01
1.434290e-01
-5.406840e-01
2.609220e-02
-3.570540e-02
1.701130e-01
2.861280e-02
-2.848000e-01
1.608530e-01
4.918070e-02
2.609220e-02
1.798620e-01
1.919190e-02
2.861280e-02
1.386230e-01
1.608530e-01
-4.052750e-01
2.609220e-02
-3.570540e-02
1.919190e-02
5.299670e-01
-2.848000e-01
1.608530e-01
3.445570e-01
-2.617420e-03
1.798620e-01
1.919190e-02
-4.035280e-01
-1.826450e-01
1.608530e-01
-4.052750e-01
-2.617420e-03
-1.939360e-02
1.919190e-02
5.299670e-01
-1.826450e-01
-2.033110e-01
3.445570e-01
-2.617420e-03
1.890430e-01
3.797570e-01
-4.035280e-01
-1.826450e-01
-2.294660e-01
-3.489570e-01
-2.617420e-03
-1.939360e-02
3.797570e-01
4.056850e-01
-1.826450e-01
-2.033110e-01
-3.489570e-01
-4.480930e-01
1.890430e-01
3.797570e-01
-4.856090e-01
5.896180e-02
-2.294660e-01
-3.489570e-01
6.505000e-01
7.932170e-02
3.797570e-01
4.056850e-01
5.896180e-02
4.537100e-01
-3.489570e-01
-4.480930e-01
7.932170e-02
-4.174290e-01
-4.856090e-01
5.896180e-02
5.567330e-01
-8.719600e-03
6.505000e-01
7.932170e-02
-5.774460e-01
-1.000290e-01
5.896180e-02
4.537100e-01
-8.719600e-03
3.064310e-01
7.932170e-02
-4.174290e-01
-1.000290e-01
-3.059510e-02
5.567330e-01
-8.719600e-03
5.415840e-01
3.513840e-01
-5.774460e-01
-1.000290e-01
-4.112090e-01
-6.997080e-02
-8.719600e-03
3.064310e-01
3.513840e-01
7.298050e-02
-1.000290e-01
-3.059510e-02
-6.997080e-02
2.439150e-01
5.415840e-01
3.513840e-01
-3.827840e-01
-4.455580e-01
-4.112090e-01
-6.997080e-02
4.790030e-01
3.968390e-01
3.513840e-01
7.298050e-02
-4.455580e-01
-5.803830e-01
-6.997080e-02
2.439150e-01
3.968390e-01
5.095210e-01
-3.827840e-01
-4.455580e-01
8.529480e-01
3.216190e-01
4.790030e-01
3.968390e-01
-1.046400e+00
-4.429670e-01
-4.455580e-01
-5.803830e-01
3.216190e-01
2.860260e-01
3.968390e-01
5.095210e-01
-4.429670e-01
-2.318660e-01
8.529480e-01
3.216190e-01
4.857590e-02
-4.360690e-01
-1.046400e+00
-4.429670e-01
9.226270e-02
3.475830e-01
3.216190e-01
2.860260e-01
-4.360690e-01
-2.665470e-01
-4.429670e-01
-2.318660e-01
3.475830e-01
1.092030e-01
4.857590e-02
-4.360690e-01
5.732920e-02
-1.400160e-01
9.226270e-02
3.475830e-01
-1.489120e-01
3.008090e-01
-4.360690e-01
-2.665470e-01
-1.400160e-01
-4.122590e-01
3.475830e-01
1.092030e-01
3.008090e-01
6.760070e-01
5.732920e-02
-1.400160e-01
-1.765740e-01
1.134360e-01
-1.489120e-01
3.008090e-01
-6.215040e-02
-1.922900e-01
-1.400160e-01
-4.122590e-01
1.134360e-01
2.345750e-01
3.008090e-01
6.760070e-01
-1.922900e-01
-1.244190e-01
-1.765740e-01
1.134360e-01
-7.100750e-01
-5.885650e-01
-6.215040e-02
-1.922900e-01
7.935610e-01
5.518660e-01
1.134360e-01
2.345750e-01
-5.885650e-01
1.687080e-01
-1.922900e-01
-1.244190e-01
5.518660e-01
-3.278930e-01
-7.100750e-01
-5.885650e-01
-9.066620e-02
2.401240e-01
7.935610e-01
5.518660e-01
-2.184040e-01
1.111970e-01
-5.885650e-01
1.687080e-01
2.401240e-01
-3.638400e-01
5.518660e-01
-3.278930e-01
1.111970e-01
5.307300e-01
-9.066620e-02
2.401240e-01
-2.683330e-01
6.072300e-01
-2.184040e-01
1.111970e-01
4.949090e-01
-4.268090e-01
2.401240e-01
-3.638400e-01
6.072300e-01
8.772790e-01
1.111970e-01
5.307300e-01
-4.268090e-01
-5.162010e-01
-2.683330e-01
6.072300e-01
1.030810e+00
1.591180e-01
4.949090e-01
-4.268090e-01
-4.754590e-01
-2.769020e-01
6.072300e-01
8.772790e-01
1.591180e-01
-4.188080e-01
-4.268090e-01
-5.162010e-01
-2.769020e-01
-1.157500e-01
1.030810e+00
1.591180e-01
2.230820e-02
-2.265180e-01
-4.754590e-01
-2.769020e-01
2.451270e-01
2.089430e-01
1.591180e-01
-4.188080e-01
-2.265180e-01
-3.326750e-01
-2.769020e-01
-1.157500e-01
2.089430e-01
9.882250e-03
2.230820e-02
-2.265180e-01
2.399600e-01
6.140030e-03
2.451270e-01
2.089430e-01
6.379480e-02
-1.506480e-01
-2.265180e-01
-3.326750e-01
6.140030e-03
3.046770e-01
2.089430e-01
9.882250e-03
-1.506480e-01
-5.172160e-01
2.399600e-01
6.140030e-03
8.007240e-01
-8.393650e-02
6.379480e-02
-1.506480e-01
-4.063390e-02
2.429820e-01
6.140030e-03
3.046770e-01
-8.393650e-02
-1.156040e+00
-1.506480e-01
-5.172160e-01
2.429820e-01
4.495230e-01
8.007240e-01
-8.393650e-02
1.003470e-01
-3.473130e-02
-4.063390e-02
2.429820e-01
-9.291750e-02
1.641170e-01
-8.393650e-02
-1.156040e+00
-3.473130e-02
-1.638280e-01
2.429820e-01
4.495230e-01
1.641170e-01
4.330300e-01
1.003470e-01
-3.473130e-02
-4.715430e-01
2.691440e-01
-9.291750e-02
1.641170e-01
1.147770e-01
-3.801340e-01
-3.473130e-02
-1.638280e-01
2.691440e-01
7.001180e-01
1.641170e-01
4.330300e-01
-3.801340e-01
-7.588570e-01
-4.715430e-01
2.691440e-01
-3.678940e-01
3.737890e-02
1.147770e-01
-3.801340e-01
-3.654180e-03
-1.086980e-01
2.691440e-01
7.001180e-01
3.737890e-02
3.634220e-01
-3.801340e-01
-7.588570e-01
-1.086980e-01
-7.137500e-02
-3.678940e-01
3.737890e-02
1.927040e-01
1.921360e-01
-3.654180e-03
-1.086980e-01
-5.410710e-01
-2.280490e-01
3.737890e-02
3.634220e-01
1.921360e-01
1.581690e-01
-1.086980e-01
-7.137500e-02
-2.280490e-01
-5.149190e-02
1.927040e-01
1.921360e-01
-3.747540e-01
-3.398120e-01
-5.410710e-01
-2.280490e-01
8.344070e-02
2.524370e-01
1.921360e-01
1.581690e-01
-3.398120e-01
-3.444010e-01
-2.280490e-01
-5.149190e-02
2.524370e-01
4.943940e-01
-3.747540e-01
-3.398120e-01
3.685200e-01
-2.673510e-02
8.344070e-02
2.524370e-01
-3.777330e-02
3.148090e-01
-3.398120e-01
-3.444010e-01
-2.673510e-02
-2.996200e-01
2.524370e-01
4.943940e-01
3.148090e-01
8.259160e-01
3.685200e-01
-2.673510e-02
-5.453610e-01
2.572360e-01
-3.777330e-02
3.148090e-01
6.267320e-01
-6.973050e-02
-2.673510e-02
-2.996200e-01
2.572360e-01
7.124710e-01
3.148090e-01
8.259160e-01
-6.973050e-02
-3.803340e-01
-5.453610e-01
2.572360e-01
-8.048540e-01
-2.002890e-02
6.267320e-01
-6.973050e-02
5.915600e-01
7.608560e-02
2.572360e-01
7.124710e-01
-2.002890e-02
7.680760e-01
-6.973050e-02
-3.803340e-01
7.608560e-02
-4.964460e-01
0.000000e+00
0.000000e+00
9.155680e-01
-1.888490e-01
0.000000e+00
0.000000e+00
-4.934370e-01
5.527580e-01
0.000000e+00
0.000000e+00
-1.888490e-01
-5.973880e-01
0.000000e+00
0.000000e+00
5.527580e-01
7.194700e-01
9.155680e-01
-1.888490e-01
-4.776660e-01
-3.792890e-01
-4.934370e-01
5.527580e-01
5.796260e-01
4.549660e-01
-1.888490e-01
-5.973880e-01
-3.792890e-01
5.913340e-02
5.527580e-01
7.194700e-01
4.549660e-01
3.136910e-01
-4.776660e-01