<?xml version="1.0"?>
<VTKFile type="UnstructuredGrid" version="0.1" byte_order="LittleEndian" compressor="vtkZLibDataCompressor">
<UnstructuredGrid>
<Piece NumberOfPoints="960" NumberOfCells="120">
<Points>
<DataArray type="Float32" NumberOfComponents="3" format="ascii">
-4.000000e+02 -6.000000e+03 -4.000000e+02
0.000000e+00 -6.000000e+03 -4.000000e+02
-3.999140e+02 -5.599980e+03 -4.005220e+02
9.184130e-02 -5.600070e+03 -4.001520e+02
-4.000000e+02 -6.000000e+03 0.000000e+00
0.000000e+00 -6.000000e+03 0.000000e+00
-4.000340e+02 -5.600140e+03 -3.985060e-02
-3.231580e-02 -5.600070e+03 -9.428080e-02
0.000000e+00 -6.000000e+03 -4.000000e+02
4.000000e+02 -6.000000e+03 -4.000000e+02
9.184130e-02 -5.600070e+03 -4.001520e+02
4.000960e+02 -5.600220e+03 -3.997560e+02
0.000000e+00 -6.000000e+03 0.000000e+00
4.000000e+02 -6.000000e+03 0.000000e+00
-3.231580e-02 -5.600070e+03 -9.428080e-02
3.999690e+02 -5.599980e+03 -1.771170e-01
-3.999140e+02 -5.599980e+03 -4.005220e+02
9.184130e-02 -5.600070e+03 -4.001520e+02
-3.997150e+02 -5.200200e+03 -4.006360e+02
2.828200e-01 -5.200180e+03 -4.005040e+02
-4.000340e+02 -5.600140e+03 -3.985060e-02
-3.231580e-02 -5.600070e+03 -9.428080e-02
-4.000260e+02 -5.200030e+03 -2.654460e-01
-2.405300e-02 -5.200090e+03 1.737350e-02
9.184130e-02 -5.600070e+03 -4.001520e+02
4.000960e+02 -5.600220e+03 -3.997560e+02
2.828200e-01 -5.200180e+03 -4.005040e+02
4.002800e+02 -5.200170e+03 -4.003570e+02
-3.231580e-02 -5.600070e+03 -9.428080e-02
3.999690e+02 -5.599980e+03 -1.771170e-01
-2.405300e-02 -5.200090e+03 1.737350e-02
3.999780e+02 -5.200150e+03 3.314340e-01
-3.997150e+02 -5.200200e+03 -4.006360e+02
2.828200e-01 -5.200180e+03 -4.005040e+02
-3.998270e+02 -4.800280e+03 -4.003290e+02
1.659380e-01 -4.800230e+03 -4.001540e+02
-4.000260e+02 -5.200030e+03 -2.654460e-01
-2.405300e-02 -5.200090e+03 1.737350e-02
-3.999860e+02 -4.799960e+03 -9.094480e-01
1.486800e-02 -4.800020e+03 -8.514310e-01
2.828200e-01 -5.200180e+03 -4.005040e+02
4.002800e+02 -5.200170e+03 -4.003570e+02
1.659380e-01 -4.800230e+03 -4.001540e+02
4.001580e+02 -4.800170e+03 -3.999860e+02
-2.405300e-02 -5.200090e+03 1.737350e-02
3.999780e+02 -5.200150e+03 3.314340e-01
1.486800e-02 -4.800020e+03 -8.514310e-01
4.000160e+02 -4.800060e+03 -7.872960e-01
-3.998270e+02 -4.800280e+03 -4.003290e+02
1.659380e-01 -4.800230e+03 -4.001540e+02
-3.997920e+02 -4.400140e+03 -4.008200e+02
1.911200e-01 -4.400230e+03 -4.008840e+02
-3.999860e+02 -4.799960e+03 -9.094480e-01
1.486800e-02 -4.800020e+03 -8.514310e-01
-3.999530e+02 -4.400180e+03 -1.288390e+00
5.335200e-02 -4.400100e+03 -6.796360e-01
1.659380e-01 -4.800230e+03 -4.001540e+02
4.001580e+02 -4.800170e+03 -3.999860e+02
1.911200e-01 -4.400230e+03 -4.008840e+02
4.001750e+02 -4.400330e+03 -4.009750e+02
1.486800e-02 -4.800020e+03 -8.514310e-01
4.000160e+02 -4.800060e+03 -7.872960e-01
5.335200e-02 -4.400100e+03 -6.796360e-01
4.000600e+02 -4.400030e+03 -8.506370e-02
-3.997920e+02 -4.400140e+03 -4.008200e+02
1.911200e-01 -4.400230e+03 -4.008840e+02
-3.999520e+02 -4.000320e+03 -4.005080e+02
3.511620e-02 -4.000280e+03 -4.007690e+02
-3.999530e+02 -4.400180e+03 -1.288390e+00
5.335200e-02 -4.400100e+03 -6.796360e-01
-3.998720e+02 -3.999920e+03 -1.592170e+00
1.365160e-01 -3.999960e+03 -1.356380e+00
1.911200e-01 -4.400230e+03 -4.008840e+02
4.001750e+02 -4.400330e+03 -4.009750e+02
3.511620e-02 -4.000280e+03 -4.007690e+02
4.000220e+02 -4.000270e+03 -4.010630e+02
5.335200e-02 -4.400100e+03 -6.796360e-01
4.000600e+02 -4.400030e+03 -8.506370e-02
1.365160e-01 -3.999960e+03 -1.356380e+00
4.001440e+02 -3.999980e+03 -1.130400e+00
-3.999520e+02 -4.000320e+03 -4.005080e+02
3.511620e-02 -4.000280e+03 -4.007690e+02
-4.000300e+02 -3.600390e+03 -4.007130e+02
-2.431370e-02 -3.600260e+03 -4.007970e+02
-3.998720e+02 -3.999920e+03 -1.592170e+00
1.365160e-01 -3.999960e+03 -1.356380e+00
-3.998910e+02 -3.599900e+03 -1.340560e+00
1.103430e-01 -3.599960e+03 -1.452630e+00
3.511620e-02 -4.000280e+03 -4.007690e+02
4.000220e+02 -4.000270e+03 -4.010630e+02
-2.431370e-02 -3.600260e+03 -4.007970e+02
3.999820e+02 -3.600150e+03 -4.009160e+02
1.365160e-01 -3.999960e+03 -1.356380e+00
4.001440e+02 -3.999980e+03 -1.130400e+00
1.103430e-01 -3.599960e+03 -1.452630e+00
4.001120e+02 -3.600020e+03 -1.555000e+00
-4.000300e+02 -3.600390e+03 -4.007130e+02
-2.431370e-02 -3.600260e+03 -4.007970e+02
-4.000250e+02 -3.200280e+03 -4.016380e+02
-2.368130e-02 -3.200320e+03 -4.016580e+02
-3.998910e+02 -3.599900e+03 -1.340560e+00
1.103430e-01 -3.599960e+03 -1.452630e+00
-4.000140e+02 -3.200100e+03 -1.364310e+00
-1.144360e-02 -3.200070e+03 -1.344530e+00
-2.431370e-02 -3.600260e+03 -4.007970e+02
3.999820e+02 -3.600150e+03 -4.009160e+02
-2.368130e-02 -3.200320e+03 -4.016580e+02
3.999780e+02 -3.200360e+03 -4.016630e+02
1.103430e-01 -3.599960e+03 -1.452630e+00
4.001120e+02 -3.600020e+03 -1.555000e+00
-1.144360e-02 -3.200070e+03 -1.344530e+00
3.999910e+02 -3.200030e+03 -1.323910e+00
-4.000250e+02 -3.200280e+03 -4.016380e+02
-2.368130e-02 -3.200320e+03 -4.016580e+02
-4.000710e+02 -2.800450e+03 -4.014970e+02
-6.927630e-02 -2.800480e+03 -4.015150e+02
-4.000140e+02 -3.200100e+03 -1.364310e+00
-1.144360e-02 -3.200070e+03 -1.344530e+00
-4.000460e+02 -2.799970e+03 -2.115520e+00
-4.002710e-02 -2.799990e+03 -2.226560e+00
-2.368130e-02 -3.200320e+03 -4.016580e+02
3.999780e+02 -3.200360e+03 -4.016630e+02
-6.927630e-02 -2.800480e+03 -4.015150e+02
3.999320e+02 -2.800500e+03 -4.015070e+02
-1.144360e-02 -3.200070e+03 -1.344530e+00
3.999910e+02 -3.200030e+03 -1.323910e+00
-4.002710e-02 -2.799990e+03 -2.226560e+00
3.999660e+02 -2.800010e+03 -2.332940e+00
-4.000710e+02 -2.800450e+03 -4.014970e+02
-6.927630e-02 -2.800480e+03 -4.015150e+02
-4.000490e+02 -2.400550e+03 -4.019500e+02
-4.586150e-02 -2.400620e+03 -4.022580e+02
-4.000460e+02 -2.799970e+03 -2.115520e+00
-4.002710e-02 -2.799990e+03 -2.226560e+00
-3.999270e+02 -2.399880e+03 -2.634020e+00
7.202410e-02 -2.399890e+03 -2.532400e+00
-6.927630e-02 -2.800480e+03 -4.015150e+02
3.999320e+02 -2.800500e+03 -4.015070e+02
-4.586150e-02 -2.400620e+03 -4.022580e+02
3.999580e+02 -2.400670e+03 -4.025820e+02
-4.002710e-02 -2.799990e+03 -2.226560e+00
3.999660e+02 -2.800010e+03 -2.332940e+00
7.202410e-02 -2.399890e+03 -2.532400e+00
4.000710e+02 -2.399910e+03 -2.425300e+00
-4.000490e+02 -2.400550e+03 -4.019500e+02
-4.586150e-02 -2.400620e+03 -4.022580e+02
-3.998070e+02 -2.000170e+03 -4.033120e+02
1.835050e-01 -2.000360e+03 -4.030550e+02
-3.999270e+02 -2.399880e+03 -2.634020e+00
7.202410e-02 -2.399890e+03 -2.532400e+00
-4.000790e+02 -2.000110e+03 -2.907590e+00
-7.677520e-02 -2.000040e+03 -2.987030e+00
-4.586150e-02 -2.400620e+03 -4.022580e+02
3.999580e+02 -2.400670e+03 -4.025820e+02
1.835050e-01 -2.000360e+03 -4.030550e+02
4.001730e+02 -2.000520e+03 -4.028120e+02
7.202410e-02 -2.399890e+03 -2.532400e+00
4.000710e+02 -2.399910e+03 -2.425300e+00
-7.677520e-02 -2.000040e+03 -2.987030e+00
3.999250e+02 -1.999980e+03 -3.059640e+00
-3.998070e+02 -2.000170e+03 -4.033120e+02
1.835050e-01 -2.000360e+03 -4.030550e+02
-3.999170e+02 -1.600000e+03 -4.037290e+02
7.662540e-02 -1.600070e+03 -4.033640e+02
-4.000790e+02 -2.000110e+03 -2.907590e+00
-7.677520e-02 -2.000040e+03 -2.987030e+00
-4.000050e+02 -1.600140e+03 -3.339510e+00
1.629140e-03 -1.600100e+03 -3.234390e+00
1.835050e-01 -2.000360e+03 -4.030550e+02
4.001730e+02 -2.000520e+03 -4.028120e+02
7.662540e-02 -1.600070e+03 -4.033640e+02
4.000700e+02 -1.600170e+03 -4.030070e+02
-7.677520e-02 -2.000040e+03 -2.987030e+00
3.999250e+02 -1.999980e+03 -3.059640e+00
1.629140e-03 -1.600100e+03 -3.234390e+00
4.000080e+02 -1.600050e+03 -3.152180e+00
-3.999170e+02 -1.600000e+03 -4.037290e+02
7.662540e-02 -1.600070e+03 -4.033640e+02
-3.997990e+02 -1.200260e+03 -4.034500e+02
1.980770e-01 -1.200220e+03 -4.030670e+02
-4.000050e+02 -1.600140e+03 -3.339510e+00
1.629140e-03 -1.600100e+03 -3.234390e+00
-4.000680e+02 -1.200010e+03 -3.034540e+00
-6.718450e-02 -1.199990e+03 -3.169710e+00
7.662540e-02 -1.600070e+03 -4.033640e+02
4.000700e+02 -1.600170e+03 -4.030070e+02
1.980770e-01 -1.200220e+03 -4.030670e+02
4.001940e+02 -1.200160e+03 -4.027050e+02
1.629140e-03 -1.600100e+03 -3.234390e+00
4.000080e+02 -1.600050e+03 -3.152180e+00
-6.718450e-02 -1.199990e+03 -3.169710e+00
3.999330e+02 -1.199980e+03 -3.297790e+00
-3.997990e+02 -1.200260e+03 -4.034500e+02
1.980770e-01 -1.200220e+03 -4.030670e+02
-3.997930e+02 -8.005540e+02 -4.039060e+02
2.117080e-01 -8.004160e+02 -4.036560e+02
-4.000680e+02 -1.200010e+03 -3.034540e+00
-6.718450e-02 -1.199990e+03 -3.169710e+00
-4.000440e+02 -7.998170e+02 -3.724970e+00
-5.192880e-02 -7.999040e+02 -3.496370e+00
1.980770e-01 -1.200220e+03 -4.030670e+02
4.001940e+02 -1.200160e+03 -4.027050e+02
2.117080e-01 -8.004160e+02 -4.036560e+02
4.002170e+02 -8.002820e+02 -4.033600e+02
-6.718450e-02 -1.199990e+03 -3.169710e+00
3.999330e+02 -1.199980e+03 -3.297790e+00
-5.192880e-02 -7.999040e+02 -3.496370e+00
3.999400e+02 -7.999910e+02 -3.276790e+00
-3.997930e+02 -8.005540e+02 -4.039060e+02
2.117080e-01 -8.004160e+02 -4.036560e+02
-3.999070e+02 -4.002590e+02 -4.041190e+02
1.031010e-01 -4.004500e+02 -4.040990e+02
-4.000440e+02 -7.998170e+02 -3.724970e+00
-5.192880e-02 -7.999040e+02 -3.496370e+00
-4.000420e+02 -3.998760e+02 -4.277280e+00
-4.572230e-02 -3.998120e+02 -4.025130e+00
2.117080e-01 -8.004160e+02 -4.036560e+02
4.002170e+02 -8.002820e+02 -4.033600e+02
1.031010e-01 -4.004500e+02 -4.040990e+02
4.001130e+02 -4.006150e+02 -4.040600e+02
-5.192880e-02 -7.999040e+02 -3.496370e+00
3.999400e+02 -7.999910e+02 -3.276790e+00
-4.572230e-02 -3.998120e+02 -4.025130e+00
3.999500e+02 -3.997720e+02 -3.775000e+00
-3.999070e+02 -4.002590e+02 -4.041190e+02
1.031010e-01 -4.004500e+02 -4.040990e+02
-3.997760e+02 -2.267510e-01 -4.045170e+02
2.221970e-01 -1.896220e-01 -4.044920e+02
-4.000420e+02 -3.998760e+02 -4.277280e+00
-4.572230e-02 -3.998120e+02 -4.025130e+00
-3.999970e+02 -7.830260e-02 -4.058370e+00
4.419910e-03 -9.065090e-02 -4.018630e+00
1.031010e-01 -4.004500e+02 -4.040990e+02
4.001130e+02 -4.006150e+02 -4.040600e+02
[...]
<PointData>
<DataArray type="Float32" Name="V1" format="ascii">
0.000000e+00
0.000000e+00
8.278070e-02
9.043240e-02
0.000000e+00
0.000000e+00
-6.287960e-02
-6.810420e-02
0.000000e+00
0.000000e+00
9.043240e-02
1.017910e-01
0.000000e+00
0.000000e+00
-6.810420e-02
-7.356940e-02
8.278070e-02
9.043240e-02
3.365640e-02
2.472850e-02
-6.287960e-02
-6.810420e-02
-4.658630e-02
-4.355460e-02
9.043240e-02
1.017910e-01
2.472850e-02
1.390510e-02
-6.810420e-02
-7.356940e-02
-4.355460e-02
-4.060430e-02
3.365640e-02
2.472850e-02
3.092260e-02
4.019660e-02
-4.658630e-02
-4.355460e-02
4.615350e-02
4.181370e-02
2.472850e-02
1.390510e-02
4.019660e-02
4.857360e-02
-4.355460e-02
-4.060430e-02
4.181370e-02
3.694910e-02
3.092260e-02
4.019660e-02
2.387350e-01
2.485540e-01
4.615350e-02
4.181370e-02
-1.280710e-01
-1.359170e-01
4.019660e-02
4.857360e-02
2.485540e-01
2.574550e-01
4.181370e-02
3.694910e-02
-1.359170e-01
-1.433580e-01
2.387350e-01
2.485540e-01
-1.576420e-01
-1.533280e-01
-1.280710e-01
-1.359170e-01
8.467820e-02
7.864970e-02
2.485540e-01
2.574550e-01
-1.533280e-01
-1.486230e-01
-1.359170e-01
-1.433580e-01
7.864970e-02
7.230120e-02
-1.576420e-01
-1.533280e-01
-8.793990e-02
-9.897250e-02
8.467820e-02
7.864970e-02
5.032770e-02
4.792960e-02
-1.533280e-01
-1.486230e-01
-9.897250e-02
-1.115510e-01
7.864970e-02
7.230120e-02
4.792960e-02
4.742080e-02
-8.793990e-02
-9.897250e-02
1.547530e-01
1.574130e-01
5.032770e-02
4.792960e-02
-1.094730e-01
-1.142110e-01
-9.897250e-02
-1.115510e-01
1.574130e-01
1.598210e-01
4.792960e-02
4.742080e-02
-1.142110e-01
-1.196080e-01
1.547530e-01
1.574130e-01
-3.731290e-02
-2.962770e-02
-1.094730e-01
-1.142110e-01
-7.294730e-02
-7.391900e-02
1.574130e-01
1.598210e-01
-2.962770e-02
-2.015020e-02
-1.142110e-01
-1.196080e-01
-7.391900e-02
-7.301390e-02
-3.731290e-02
-2.962770e-02
2.010990e-01
2.072820e-01
-7.294730e-02
-7.391900e-02
-9.069400e-02
-9.905920e-02
-2.962770e-02
-2.015020e-02
2.072820e-01
2.105170e-01
-7.391900e-02
-7.301390e-02
-9.905920e-02
-1.075870e-01
2.010990e-01
2.072820e-01
2.604960e-02
2.755870e-02
-9.069400e-02
-9.905920e-02
-4.106780e-02
-4.206990e-02
2.072820e-01
2.105170e-01
2.755870e-02
2.887860e-02
-9.905920e-02
-1.075870e-01
-4.206990e-02
-4.357220e-02
2.604960e-02
2.755870e-02
3.983320e-02
4.070660e-02
-4.106780e-02
-4.206990e-02
-1.463950e-01
-1.423450e-01
2.755870e-02
2.887860e-02
4.070660e-02
4.206070e-02
-4.206990e-02
-4.357220e-02
-1.423450e-01
-1.368330e-01
3.983320e-02
4.070660e-02
8.735800e-02
8.132780e-02
-1.463950e-01
-1.423450e-01
-7.381920e-02
-7.615800e-02
4.070660e-02
4.206070e-02
8.132780e-02
7.491140e-02
-1.423450e-01
-1.368330e-01
-7.615800e-02
-7.847960e-02
8.735800e-02
8.132780e-02
-1.514580e-01
-1.399980e-01
-7.381920e-02
-7.615800e-02
1.388530e-01
1.377040e-01
8.132780e-02
7.491140e-02
-1.399980e-01
-1.325250e-01
-7.615800e-02
-7.847960e-02
1.377040e-01
1.385170e-01
-1.514580e-01
-1.399980e-01
1.518430e-01
1.570850e-01
1.388530e-01
1.377040e-01
-7.349980e-02
-7.445510e-02
-1.399980e-01
-1.325250e-01
1.570850e-01
1.606920e-01
1.377040e-01
1.385170e-01
-7.445510e-02
-7.565190e-02
1.518430e-01
1.570850e-01
7.140750e-02
4.853840e-02
-7.349980e-02
-7.445510e-02
2.273020e-02
3.862130e-02
1.570850e-01
1.606920e-01
4.853840e-02
2.891320e-02
-7.445510e-02
-7.565190e-02
3.862130e-02
5.538840e-02
7.140750e-02
4.853840e-02
-1.283610e-01
-1.179020e-01
2.273020e-02
3.862130e-02
5.977840e-02
5.571610e-02
4.853840e-02
2.891320e-02
-1.179020e-01
-1.104860e-01
3.862130e-02
5.538840e-02
5.571610e-02
5.203390e-02
-1.283610e-01
-1.179020e-01
-5.581950e-02
-5.725330e-02
5.977840e-02
5.571610e-02
4.781530e-02
4.678330e-02
-1.179020e-01
-1.104860e-01
-5.725330e-02
-5.779760e-02
5.571610e-02
5.203390e-02
4.678330e-02
4.642480e-02
-5.581950e-02
-5.725330e-02
-8.520090e-02
-9.132350e-02
4.781530e-02
4.678330e-02
-7.811670e-02
-7.311680e-02
-5.725330e-02
-5.779760e-02
-9.132350e-02
-9.655330e-02
4.678330e-02
4.642480e-02
-7.311680e-02
-6.784150e-02
-8.520090e-02
-9.132350e-02
-2.594600e-02
-1.864830e-02
-7.811670e-02
-7.311680e-02
-4.951590e-02
-4.814150e-02
-9.132350e-02
-9.655330e-02
-1.864830e-02
-1.416640e-02
-7.311680e-02
-6.784150e-02
-4.814150e-02
-4.611870e-02
-2.594600e-02
-1.864830e-02
2.024790e-01
1.906450e-01
-4.951590e-02
-4.814150e-02
-7.414820e-02
-6.658010e-02
-1.864830e-02
-1.416640e-02
1.906450e-01
1.778190e-01
-4.814150e-02
-4.611870e-02
-6.658010e-02
-5.850630e-02
2.024790e-01
1.906450e-01
-2.466990e-01
-2.483980e-01
-7.414820e-02
-6.658010e-02
1.934690e-01
1.941580e-01
1.906450e-01
1.778190e-01
-2.483980e-01
-2.523270e-01
-6.658010e-02
-5.850630e-02
1.941580e-01
1.965940e-01
-2.466990e-01
-2.483980e-01
-4.792310e-02
-5.100170e-02
1.934690e-01
1.941580e-01
-1.469980e-02
-8.695510e-03
-2.483980e-01
-2.523270e-01
-5.100170e-02
-5.231230e-02
1.941580e-01
1.965940e-01
-8.695510e-03
-1.637630e-03
-4.792310e-02
-5.100170e-02
1.826340e-01
1.658540e-01
-1.469980e-02
-8.695510e-03
-4.875940e-02
-5.008960e-02
-5.100170e-02
-5.231230e-02
1.658540e-01
1.443100e-01
-8.695510e-03
-1.637630e-03
-5.008960e-02
-5.070610e-02
1.826340e-01
1.658540e-01
-5.976960e-02
-5.203420e-02
-4.875940e-02
-5.008960e-02
8.646060e-02
7.815030e-02
1.658540e-01
1.443100e-01
-5.203420e-02
-4.319970e-02
-5.008960e-02
-5.070610e-02
7.815030e-02
7.177650e-02
-5.976960e-02
-5.203420e-02
-6.273210e-02
-5.574140e-02
8.646060e-02
7.815030e-02
5.003860e-02
5.214530e-02
-5.203420e-02
-4.319970e-02
-5.574140e-02
-4.890100e-02
7.815030e-02
7.177650e-02
5.214530e-02
5.455900e-02
-6.273210e-02
-5.574140e-02
-2.043750e-01
-2.131550e-01
5.003860e-02
5.214530e-02
1.812910e-01
1.852920e-01
-5.574140e-02
-4.890100e-02
-2.131550e-01
-2.222570e-01
5.214530e-02
5.455900e-02
1.852920e-01
1.893510e-01
-2.043750e-01
-2.131550e-01
2.243840e-01
2.226280e-01
1.812910e-01
1.852920e-01
-1.696070e-01
-1.737190e-01
-2.131550e-01
-2.222570e-01
2.226280e-01
2.195750e-01
1.852920e-01
1.893510e-01
-1.737190e-01
-1.761040e-01
2.243840e-01
2.226280e-01
2.348440e-02
1.811390e-02
-1.696070e-01
-1.737190e-01
1.123370e-02
2.078060e-02
2.226280e-01
2.195750e-01
1.811390e-02
1.154820e-02
-1.737190e-01
-1.761040e-01
2.078060e-02
3.065900e-02
2.348440e-02
1.811390e-02
5.894970e-02
6.617260e-02
1.123370e-02
2.078060e-02
-6.773010e-02
-7.285450e-02
1.811390e-02
1.154820e-02
6.617260e-02
7.554730e-02
2.078060e-02
3.065900e-02
-7.285450e-02
-7.659100e-02
5.894970e-02
6.617260e-02
6.384130e-02
7.988190e-02
-6.773010e-02
-7.285450e-02
-4.041720e-02
-5.316390e-02
6.617260e-02
7.554730e-02
7.988190e-02
8.932840e-02
-7.285450e-02
-7.659100e-02
-5.316390e-02
-6.474850e-02
0.000000e+00
0.000000e+00
-6.287960e-02
-6.810420e-02
0.000000e+00
0.000000e+00
4.730260e-02
5.081010e-02
0.000000e+00
0.000000e+00
-6.810420e-02
-7.356940e-02
0.000000e+00
0.000000e+00
5.081010e-02
5.098260e-02
-6.287960e-02
-6.810420e-02
-4.658630e-02
-4.355460e-02
4.730260e-02
5.081010e-02
6.175510e-02
5.677560e-02
-6.810420e-02
-7.356940e-02
-4.355460e-02
-4.060430e-02
5.081010e-02
5.098260e-02
5.677560e-02
5.482650e-02
-4.658630e-02
-4.355460e-02
4.615350e-02
4.181370e-02
6.175510e-02
5.677560e-02
-1.272800e-01
-1.215510e-01
-4.355460e-02
-4.060430e-02
4.181370e-02
3.694910e-02
5.677560e-02
5.482650e-02
-1.215510e-01
-1.171980e-01
4.615350e-02
4.181370e-02
-1.280710e-01
-1.359170e-01
-1.272800e-01
-1.215510e-01
2.270160e-02
2.136180e-02
4.181370e-02
3.694910e-02
-1.359170e-01
-1.433580e-01
-1.215510e-01
-1.171980e-01
2.136180e-02
2.110970e-02
-1.280710e-01
-1.359170e-01
8.467820e-02
7.864970e-02
2.270160e-02
2.136180e-02
-1.397440e-02
-5.997050e-03
-1.359170e-01
-1.433580e-01
7.864970e-02
7.230120e-02
2.136180e-02
2.110970e-02
-5.997050e-03
1.532010e-03
8.467820e-02
7.864970e-02
5.032770e-02
4.792960e-02
-1.397440e-02
-5.997050e-03
-5.840880e-03
4.819830e-03
7.864970e-02
7.230120e-02
4.792960e-02
4.742080e-02
-5.997050e-03
1.532010e-03
4.819830e-03
1.503110e-02
5.032770e-02
4.792960e-02
-1.094730e-01
-1.142110e-01
-5.840880e-03
4.819830e-03
5.658130e-02
6.819750e-02
4.792960e-02
4.742080e-02
-1.142110e-01
-1.196080e-01
4.819830e-03
1.503110e-02
6.819750e-02
7.977560e-02
-1.094730e-01
-1.142110e-01
-7.294730e-02
-7.391900e-02
5.658130e-02
6.819750e-02
1.875130e-01
1.812970e-01
-1.142110e-01
-1.196080e-01
-7.391900e-02
-7.301390e-02
6.819750e-02
7.977560e-02
1.812970e-01
1.704470e-01
-7.294730e-02
-7.391900e-02
-9.069400e-02
-9.905920e-02
1.875130e-01
1.812970e-01
-1.752890e-02
-1.117140e-02
-7.391900e-02
-7.301390e-02
-9.905920e-02
-1.075870e-01
1.812970e-01
1.704470e-01
-1.117140e-02
-1.659070e-03
-9.069400e-02
-9.905920e-02
-4.106780e-02
-4.206990e-02
-1.752890e-02
-1.117140e-02
5.375500e-02
5.823830e-02
-9.905920e-02
-1.075870e-01
-4.206990e-02
-4.357220e-02
-1.117140e-02
-1.659070e-03
5.823830e-02
6.171750e-02
-4.106780e-02
-4.206990e-02
-1.463950e-01
-1.423450e-01
5.375500e-02
5.823830e-02
2.442570e-01
2.370390e-01
-4.206990e-02
-4.357220e-02
-1.423450e-01
-1.368330e-01
5.823830e-02
6.171750e-02
2.370390e-01
2.271650e-01
-1.463950e-01
-1.423450e-01
-7.381920e-02
-7.615800e-02
2.442570e-01
2.370390e-01
7.130940e-02
7.893210e-02
-1.423450e-01
-1.368330e-01
-7.615800e-02
-7.847960e-02
2.370390e-01
2.271650e-01
7.893210e-02
8.564680e-02
-7.381920e-02
-7.615800e-02
1.388530e-01
1.377040e-01
7.130940e-02
7.893210e-02
-1.260670e-01
-1.342550e-01
-7.615800e-02
-7.847960e-02
1.377040e-01
1.385170e-01
7.893210e-02
8.564680e-02
-1.342550e-01
-1.422540e-01
1.388530e-01
1.377040e-01
-7.349980e-02
-7.445510e-02
-1.260670e-01
-1.342550e-01
-1.853570e-02
-1.916020e-02
1.377040e-01
1.385170e-01
-7.445510e-02
-7.565190e-02
-1.342550e-01
-1.422540e-01
-1.916020e-02
-1.811480e-02
-7.349980e-02
-7.445510e-02
2.273020e-02
3.862130e-02
-1.853570e-02
-1.916020e-02
-1.080960e-01
-1.131110e-01
-7.445510e-02
-7.565190e-02
3.862130e-02
5.538840e-02
-1.916020e-02
-1.811480e-02
-1.131110e-01
-1.215680e-01
2.273020e-02
3.862130e-02
5.977840e-02
5.571610e-02
-1.080960e-01
-1.131110e-01
4.029410e-03
1.249620e-03
3.862130e-02
5.538840e-02
5.571610e-02
5.203390e-02
-1.131110e-01
-1.215680e-01
1.249620e-03
-1.028720e-03
5.977840e-02
5.571610e-02
4.781530e-02
4.678330e-02
4.029410e-03
1.249620e-03
-3.619160e-02
-2.939310e-02
5.571610e-02
5.203390e-02
4.678330e-02
4.642480e-02
1.249620e-03
-1.028720e-03
-2.939310e-02
-2.546990e-02
4.781530e-02
4.678330e-02
-7.811670e-02
-7.311680e-02
-3.619160e-02
-2.939310e-02
2.360780e-01
2.307160e-01
4.678330e-02
4.642480e-02
-7.311680e-02
-6.784150e-02
-2.939310e-02
-2.546990e-02
2.307160e-01
2.237670e-01
-7.811670e-02
-7.311680e-02
-4.951590e-02
-4.814150e-02
2.360780e-01
2.307160e-01
1.320300e-01
1.217740e-01
-7.311680e-02
-6.784150e-02
-4.814150e-02
-4.611870e-02
2.307160e-01
2.237670e-01
1.217740e-01
1.104010e-01
-4.951590e-02
-4.814150e-02
-7.414820e-02
-6.658010e-02
1.320300e-01
1.217740e-01
-5.745560e-02
-6.136270e-02
-4.814150e-02
-4.611870e-02
-6.658010e-02
-5.850630e-02
1.217740e-01
1.104010e-01
-6.136270e-02
-6.395690e-02
-7.414820e-02
-6.658010e-02
1.934690e-01
1.941580e-01
-5.745560e-02
-6.136270e-02
-1.424530e-01
-1.396820e-01
-6.658010e-02
-5.850630e-02
1.941580e-01
1.965940e-01
-6.136270e-02
-6.395690e-02
-1.396820e-01
-1.372180e-01
1.934690e-01
1.941580e-01
-1.469980e-02
-8.695510e-03
-1.424530e-01
-1.396820e-01
7.677750e-02
6.803740e-02
1.941580e-01
1.965940e-01
-8.695510e-03
-1.637630e-03
-1.396820e-01
-1.372180e-01
6.803740e-02
5.646400e-02
-1.469980e-02
-8.695510e-03
-4.875940e-02
-5.008960e-02
7.677750e-02
6.803740e-02
-8.904110e-02
-7.142830e-02
-8.695510e-03
-1.637630e-03
-5.008960e-02
-5.070610e-02
6.803740e-02
5.646400e-02
-7.142830e-02
-5.144110e-02
-4.875940e-02
-5.008960e-02
8.646060e-02
7.815030e-02
-8.904110e-02
-7.142830e-02
-1.027640e-01
-1.007250e-01
-5.008960e-02
-5.070610e-02
7.815030e-02
7.177650e-02
-7.142830e-02
-5.144110e-02
-1.007250e-01
-1.010730e-01
8.646060e-02
7.815030e-02
5.003860e-02
5.214530e-02
-1.027640e-01
-1.007250e-01
-4.663270e-02
-5.357590e-02
7.815030e-02
7.177650e-02
5.214530e-02
5.455900e-02
-1.007250e-01
-1.010730e-01
-5.357590e-02
-6.193690e-02
5.003860e-02
5.214530e-02
1.812910e-01
1.852920e-01
-4.663270e-02
-5.357590e-02
-1.491020e-01
-1.500420e-01
5.214530e-02
5.455900e-02
1.852920e-01
1.893510e-01
-5.357590e-02
-6.193690e-02
-1.500420e-01
-1.530320e-01
1.812910e-01
1.852920e-01
-1.696070e-01
-1.737190e-01
-1.491020e-01
-1.500420e-01
1.179350e-01
1.240410e-01
1.852920e-01
1.893510e-01
-1.737190e-01
-1.761040e-01
-1.500420e-01
-1.530320e-01
1.240410e-01
1.301990e-01
-1.696070e-01
-1.737190e-01
1.123370e-02
2.078060e-02
1.179350e-01
1.240410e-01
-4.484400e-02
-6.068480e-02
-1.737190e-01
-1.761040e-01
2.078060e-02
3.065900e-02
1.240410e-01
1.301990e-01
-6.068480e-02
-7.775710e-02
1.123370e-02
2.078060e-02
-6.773010e-02
-7.285450e-02
-4.484400e-02
-6.068480e-02
7.239880e-02
8.109070e-02
2.078060e-02
3.065900e-02
-7.285450e-02
-7.659100e-02
-6.068480e-02
-7.775710e-02
8.109070e-02
8.716640e-02
-6.773010e-02
-7.285450e-02
-4.041720e-02
-5.316390e-02
7.239880e-02
8.109070e-02
1.597140e-02
2.267900e-02
-7.285450e-02
-7.659100e-02
-5.316390e-02
-6.474850e-02
8.109070e-02
8.716640e-02
2.267900e-02
3.328430e-02
</DataArray>
<DataArray type="Float32" Name="V2" format="ascii">
0.000000e+00
0.000000e+00
2.404480e-01
3.638790e-01
0.000000e+00
0.000000e+00
-8.292280e-02
-1.297070e-01
0.000000e+00
0.000000e+00
3.638790e-01
4.945910e-01
0.000000e+00
0.000000e+00
-1.297070e-01
-1.887820e-01
2.404480e-01
3.638790e-01
1.983410e-01
2.160830e-01
-8.292280e-02
-1.297070e-01
3.606000e-02
8.344320e-02
3.638790e-01
4.945910e-01
2.160830e-01
2.684930e-01
-1.297070e-01
-1.887820e-01
8.344320e-02
1.250470e-01
1.983410e-01
2.160830e-01
6.497180e-02
-1.923460e-01
3.606000e-02
8.344320e-02
-1.353740e-01
9.133000e-02
2.160830e-01
2.684930e-01
-1.923460e-01
-4.524960e-01
8.344320e-02
1.250470e-01
9.133000e-02
3.049100e-01
6.497180e-02
-1.923460e-01
-2.397010e-01
-2.521530e-01
-1.353740e-01
9.133000e-02
-7.015940e-02
-2.963530e-02
-1.923460e-01
-4.524960e-01
-2.521530e-01
-2.758170e-01
9.133000e-02
3.049100e-01
-2.963530e-02
9.689970e-03
-2.397010e-01
-2.521530e-01
-3.483710e-01
-3.828620e-02
-7.015940e-02
-2.963530e-02
1.889080e-01
-4.792250e-02
-2.521530e-01
-2.758170e-01
-3.828620e-02
2.047450e-01
-2.963530e-02
9.689970e-03
-4.792250e-02
-2.342290e-01
-3.483710e-01
-3.828620e-02
4.670670e-03
-1.109560e-01
1.889080e-01
-4.792250e-02
1.997530e-01
2.379830e-01
-3.828620e-02
2.047450e-01
-1.109560e-01
-2.147860e-01
-4.792250e-02
-2.342290e-01
2.379830e-01
2.811230e-01
4.670670e-03
-1.109560e-01
3.539210e-01
3.839140e-01
1.997530e-01
2.379830e-01
-1.054420e-01
-1.080210e-01
-1.109560e-01
-2.147860e-01
3.839140e-01
3.959730e-01
2.379830e-01
2.811230e-01
-1.080210e-01
-4.537720e-02
3.539210e-01
3.839140e-01
-5.220860e-02
-1.855830e-02
-1.054420e-01
-1.080210e-01
-7.152240e-02
-5.215840e-02
3.839140e-01
3.959730e-01
-1.855830e-02
5.132890e-02
-1.080210e-01
-4.537720e-02
-5.215840e-02
-1.138790e-01
-5.220860e-02
-1.855830e-02
-3.703190e-01
-2.306260e-01
-7.152240e-02
-5.215840e-02
1.632220e-01
6.225870e-03
-1.855830e-02
5.132890e-02
-2.306260e-01
-1.267910e-01
-5.215840e-02
-1.138790e-01
6.225870e-03
-1.213080e-01
-3.703190e-01
-2.306260e-01
-1.049460e-02
-9.082050e-03
1.632220e-01
6.225870e-03
-1.313300e-01
-9.294620e-02
-2.306260e-01
-1.267910e-01
-9.082050e-03
-4.869870e-02
6.225870e-03
-1.213080e-01
-9.294620e-02
-6.281560e-02
-1.049460e-02
-9.082050e-03
-2.140830e-01
-2.453580e-01
-1.313300e-01
-9.294620e-02
1.617120e-01
1.735360e-01
-9.082050e-03
-4.869870e-02
-2.453580e-01
-3.268800e-01
-9.294620e-02
-6.281560e-02
1.735360e-01
2.447430e-01
-2.140830e-01
-2.453580e-01
3.117090e-01
2.337820e-01
1.617120e-01
1.735360e-01
-1.836100e-01
-1.078470e-01
-2.453580e-01
-3.268800e-01
2.337820e-01
2.911120e-01
1.735360e-01
2.447430e-01
-1.078470e-01
-1.148690e-01
3.117090e-01
2.337820e-01
-5.180980e-02
1.405560e-01
-1.836100e-01
-1.078470e-01
9.696020e-02
-6.352020e-02
2.337820e-01
2.911120e-01
1.405560e-01
2.496240e-01
-1.078470e-01
-1.148690e-01
-6.352020e-02
-1.682250e-01
-5.180980e-02
1.405560e-01
-4.499310e-02
-5.251840e-02
9.696020e-02
-6.352020e-02
6.455930e-02
9.486160e-02
1.405560e-01
2.496240e-01
-5.251840e-02
6.414360e-04
-6.352020e-02
-1.682250e-01
9.486160e-02
8.827910e-02
-4.499310e-02
-5.251840e-02
-2.126590e-01
-1.355790e-01
6.455930e-02
9.486160e-02
1.988720e-01
1.901750e-01
-5.251840e-02
6.414360e-04
-1.355790e-01
-9.963020e-02
9.486160e-02
8.827910e-02
1.901750e-01
1.938190e-01
-2.126590e-01
-1.355790e-01
-6.707110e-03
4.917180e-04
1.988720e-01
1.901750e-01
3.512540e-02
-9.538150e-02
-1.355790e-01
-9.963020e-02
4.917180e-04
7.200970e-02
1.901750e-01
1.938190e-01
-9.538150e-02
-2.893310e-01
-6.707110e-03
4.917180e-04
1.492220e-01
-5.290680e-02
3.512540e-02
-9.538150e-02
-7.445270e-02
-1.684690e-02
4.917180e-04
7.200970e-02
-5.290680e-02
-2.846520e-01
-9.538150e-02
-2.893310e-01
-1.684690e-02
7.219560e-02
1.492220e-01
-5.290680e-02
-2.815100e-01
-1.402770e-01
-7.445270e-02
-1.684690e-02
2.180550e-01
1.846630e-01
-5.290680e-02
-2.846520e-01
-1.402770e-01
2.584610e-02
-1.684690e-02
7.219560e-02
1.846630e-01
1.534820e-01
-2.815100e-01
-1.402770e-01
3.364470e-01
4.376550e-01
2.180550e-01
1.846630e-01
-1.373300e-01
-2.832310e-01
-1.402770e-01
2.584610e-02
4.376550e-01
5.399280e-01
1.846630e-01
1.534820e-01
-2.832310e-01
-4.046790e-01
3.364470e-01
4.376550e-01
1.969850e-01
4.904880e-02
-1.373300e-01
-2.832310e-01
-5.909670e-02
-2.377490e-02
4.376550e-01
5.399280e-01
4.904880e-02
-1.088560e-01
-2.832310e-01
-4.046790e-01
-2.377490e-02
-2.392080e-02
1.969850e-01
4.904880e-02
-1.643670e-01
-9.570680e-02
-5.909670e-02
-2.377490e-02
-2.304610e-01
-4.264690e-02
4.904880e-02
-1.088560e-01
-9.570680e-02
-3.730180e-03
-2.377490e-02
-2.392080e-02
-4.264690e-02
1.039250e-01
-1.643670e-01
-9.570680e-02
-5.513770e-01
-2.831320e-01
-2.304610e-01
-4.264690e-02
3.416630e-01
1.844090e-01
-9.570680e-02
-3.730180e-03
-2.831320e-01
-7.286320e-02
-4.264690e-02
1.039250e-01
1.844090e-01
6.611320e-02
-5.513770e-01
-2.831320e-01
-3.139670e-02
-3.140780e-02
3.416630e-01
1.844090e-01
1.768010e-01
2.064380e-02
-2.831320e-01
-7.286320e-02
-3.140780e-02
-1.535580e-02
1.844090e-01
6.611320e-02
2.064380e-02
-1.411880e-01
-3.139670e-02
-3.140780e-02
8.658130e-01
3.723510e-01
1.768010e-01
2.064380e-02
-5.958260e-01
-2.232580e-01
-3.140780e-02
-1.535580e-02
3.723510e-01
-1.013160e-01
2.064380e-02
-1.411880e-01
-2.232580e-01
1.902780e-01
8.658130e-01
3.723510e-01
2.914320e-01
1.773920e-01
-5.958260e-01
-2.232580e-01
-1.307150e-01
-1.514520e-02
3.723510e-01
-1.013160e-01
1.773920e-01
6.074320e-02
-2.232580e-01
1.902780e-01
-1.514520e-02
5.799970e-02
2.914320e-01
1.773920e-01
1.609630e-01
3.312740e-01
-1.307150e-01
-1.514520e-02
2.903650e-02
-1.506530e-01
1.773920e-01
6.074320e-02
3.312740e-01
4.537770e-01
-1.514520e-02
5.799970e-02
-1.506530e-01
-2.735910e-01
1.609630e-01
3.312740e-01
2.387900e-01
1.059270e-01
2.903650e-02
-1.506530e-01
-1.471660e-01
-1.378370e-03
3.312740e-01
4.537770e-01
1.059270e-01
3.444790e-02
-1.506530e-01
-2.735910e-01
-1.378370e-03
1.235760e-01
2.387900e-01
1.059270e-01
-6.188420e-01
-5.111580e-01
-1.471660e-01
-1.378370e-03
1.463680e-01
1.667330e-01
1.059270e-01
3.444790e-02
-5.111580e-01
-4.792090e-01
-1.378370e-03
1.235760e-01
1.667330e-01
2.134530e-01
-6.188420e-01
-5.111580e-01
-2.345300e-01
-1.620290e-01
1.463680e-01
1.667330e-01
1.823400e-01
3.234880e-02
-5.111580e-01
-4.792090e-01
-1.620290e-01
-9.361600e-03
1.667330e-01
2.134530e-01
3.234880e-02
-1.825800e-01
-2.345300e-01
-1.620290e-01
7.679050e-01
6.608540e-01
1.823400e-01
3.234880e-02
-3.033820e-01
-3.129030e-01
-1.620290e-01
-9.361600e-03
6.608540e-01
5.401840e-01
3.234880e-02
-1.825800e-01
-3.129030e-01
-2.498850e-01
0.000000e+00
0.000000e+00
-8.292280e-02
-1.297070e-01
0.000000e+00
0.000000e+00
-1.089410e-01
-1.165800e-01
0.000000e+00
0.000000e+00
-1.297070e-01
-1.887820e-01
0.000000e+00
0.000000e+00
-1.165800e-01
-1.321220e-01
-8.292280e-02
-1.297070e-01
3.606000e-02
8.344320e-02
-1.089410e-01
-1.165800e-01
-2.256020e-01
-3.675710e-01
-1.297070e-01
-1.887820e-01
8.344320e-02
1.250470e-01
-1.165800e-01