<?xml version="1.0"?>
<VTKFile type="UnstructuredGrid" version="0.1" byte_order="LittleEndian" compressor="vtkZLibDataCompressor">
<UnstructuredGrid>
<Piece NumberOfPoints="960" NumberOfCells="120">
<Points>
<DataArray type="Float32" NumberOfComponents="3" format="ascii">
-4.000000e+02 -6.000000e+03 -4.000000e+02
0.000000e+00 -6.000000e+03 -4.000000e+02
-4.001800e+02 -5.599860e+03 -3.997090e+02
-1.638420e-01 -5.599990e+03 -3.997700e+02
-4.000000e+02 -6.000000e+03 0.000000e+00
0.000000e+00 -6.000000e+03 0.000000e+00
-3.998690e+02 -5.600180e+03 -1.323760e-02
1.173000e-01 -5.600130e+03 -2.297810e-01
0.000000e+00 -6.000000e+03 -4.000000e+02
4.000000e+02 -6.000000e+03 -4.000000e+02
-1.638420e-01 -5.599990e+03 -3.997700e+02
3.998540e+02 -5.600130e+03 -3.998330e+02
0.000000e+00 -6.000000e+03 0.000000e+00
4.000000e+02 -6.000000e+03 0.000000e+00
1.173000e-01 -5.600130e+03 -2.297810e-01
4.001040e+02 -5.600050e+03 -4.084710e-01
-4.001800e+02 -5.599860e+03 -3.997090e+02
-1.638420e-01 -5.599990e+03 -3.997700e+02
-4.001830e+02 -5.200430e+03 -3.994660e+02
-1.664160e-01 -5.200360e+03 -3.998940e+02
-3.998690e+02 -5.600180e+03 -1.323760e-02
1.173000e-01 -5.600130e+03 -2.297810e-01
-3.998240e+02 -5.199970e+03 -5.112610e-01
1.659500e-01 -5.200010e+03 -4.545480e-01
-1.638420e-01 -5.599990e+03 -3.997700e+02
3.998540e+02 -5.600130e+03 -3.998330e+02
-1.664160e-01 -5.200360e+03 -3.998940e+02
3.998520e+02 -5.200310e+03 -4.002780e+02
1.173000e-01 -5.600130e+03 -2.297810e-01
4.001040e+02 -5.600050e+03 -4.084710e-01
1.659500e-01 -5.200010e+03 -4.545480e-01
4.001560e+02 -5.200050e+03 -4.283020e-01
-4.001830e+02 -5.200430e+03 -3.994660e+02
-1.664160e-01 -5.200360e+03 -3.998940e+02
-4.000780e+02 -4.800520e+03 -4.010560e+02
-9.682480e-02 -4.800580e+03 -4.009620e+02
-3.998240e+02 -5.199970e+03 -5.112610e-01
1.659500e-01 -5.200010e+03 -4.545480e-01
-3.999320e+02 -4.799950e+03 -8.983400e-01
7.939960e-02 -4.799910e+03 -9.537710e-01
-1.664160e-01 -5.200360e+03 -3.998940e+02
3.998520e+02 -5.200310e+03 -4.002780e+02
-9.682480e-02 -4.800580e+03 -4.009620e+02
3.998860e+02 -4.800640e+03 -4.009290e+02
1.659500e-01 -5.200010e+03 -4.545480e-01
4.001560e+02 -5.200050e+03 -4.283020e-01
7.939960e-02 -4.799910e+03 -9.537710e-01
4.000900e+02 -4.799850e+03 -1.009660e+00
-4.000780e+02 -4.800520e+03 -4.010560e+02
-9.682480e-02 -4.800580e+03 -4.009620e+02
-3.997310e+02 -4.400130e+03 -4.012120e+02
2.588900e-01 -4.400260e+03 -4.011540e+02
-3.999320e+02 -4.799950e+03 -8.983400e-01
7.939960e-02 -4.799910e+03 -9.537710e-01
-4.000100e+02 -4.400110e+03 -1.938150e+00
-9.180380e-03 -4.400040e+03 -1.652820e+00
-9.682480e-02 -4.800580e+03 -4.009620e+02
3.998860e+02 -4.800640e+03 -4.009290e+02
2.588900e-01 -4.400260e+03 -4.011540e+02
4.002480e+02 -4.400420e+03 -4.011370e+02
7.939960e-02 -4.799910e+03 -9.537710e-01
4.000900e+02 -4.799850e+03 -1.009660e+00
-9.180380e-03 -4.400040e+03 -1.652820e+00
3.999930e+02 -4.399960e+03 -1.394900e+00
-3.997310e+02 -4.400130e+03 -4.012120e+02
2.588900e-01 -4.400260e+03 -4.011540e+02
-3.997120e+02 -4.000210e+03 -4.022050e+02
2.781710e-01 -4.000230e+03 -4.017760e+02
-4.000100e+02 -4.400110e+03 -1.938150e+00
-9.180380e-03 -4.400040e+03 -1.652820e+00
-3.998890e+02 -3.999910e+03 -1.254510e+00
1.124300e-01 -3.999970e+03 -1.201570e+00
2.588900e-01 -4.400260e+03 -4.011540e+02
4.002480e+02 -4.400420e+03 -4.011370e+02
2.781710e-01 -4.000230e+03 -4.017760e+02
4.002670e+02 -4.000230e+03 -4.013210e+02
-9.180380e-03 -4.400040e+03 -1.652820e+00
3.999930e+02 -4.399960e+03 -1.394900e+00
1.124300e-01 -3.999970e+03 -1.201570e+00
4.001140e+02 -4.000070e+03 -1.161920e+00
-3.997120e+02 -4.000210e+03 -4.022050e+02
2.781710e-01 -4.000230e+03 -4.017760e+02
-3.994270e+02 -3.600140e+03 -4.023410e+02
5.802310e-01 -3.600210e+03 -4.016440e+02
-3.998890e+02 -3.999910e+03 -1.254510e+00
1.124300e-01 -3.999970e+03 -1.201570e+00
-4.001270e+02 -3.599960e+03 -2.150530e+00
-1.262610e-01 -3.600010e+03 -1.721290e+00
2.781710e-01 -4.000230e+03 -4.017760e+02
4.002670e+02 -4.000230e+03 -4.013210e+02
5.802310e-01 -3.600210e+03 -4.016440e+02
4.005890e+02 -3.600300e+03 -4.008720e+02
1.124300e-01 -3.999970e+03 -1.201570e+00
4.001140e+02 -4.000070e+03 -1.161920e+00
-1.262610e-01 -3.600010e+03 -1.721290e+00
3.998740e+02 -3.600040e+03 -1.272130e+00
-3.994270e+02 -3.600140e+03 -4.023410e+02
5.802310e-01 -3.600210e+03 -4.016440e+02
-3.995970e+02 -3.200150e+03 -4.026370e+02
4.165140e-01 -3.200250e+03 -4.019190e+02
-4.001270e+02 -3.599960e+03 -2.150530e+00
-1.262610e-01 -3.600010e+03 -1.721290e+00
-4.000140e+02 -3.200200e+03 -2.171200e+00
-1.244110e-02 -3.200080e+03 -2.190100e+00
5.802310e-01 -3.600210e+03 -4.016440e+02
4.005890e+02 -3.600300e+03 -4.008720e+02
4.165140e-01 -3.200250e+03 -4.019190e+02
4.004290e+02 -3.200330e+03 -4.012090e+02
-1.262610e-01 -3.600010e+03 -1.721290e+00
3.998740e+02 -3.600040e+03 -1.272130e+00
-1.244110e-02 -3.200080e+03 -2.190100e+00
3.999900e+02 -3.199950e+03 -2.168570e+00
-3.995970e+02 -3.200150e+03 -4.026370e+02
4.165140e-01 -3.200250e+03 -4.019190e+02
-3.997460e+02 -2.800510e+03 -4.028470e+02
2.713190e-01 -2.800370e+03 -4.025420e+02
-4.000140e+02 -3.200200e+03 -2.171200e+00
-1.244110e-02 -3.200080e+03 -2.190100e+00
-3.999500e+02 -2.800040e+03 -2.278140e+00
4.369040e-02 -2.800070e+03 -2.160220e+00
4.165140e-01 -3.200250e+03 -4.019190e+02
4.004290e+02 -3.200330e+03 -4.012090e+02
2.713190e-01 -2.800370e+03 -4.025420e+02
4.002860e+02 -2.800230e+03 -4.022680e+02
-1.244110e-02 -3.200080e+03 -2.190100e+00
3.999900e+02 -3.199950e+03 -2.168570e+00
4.369040e-02 -2.800070e+03 -2.160220e+00
4.000370e+02 -2.800090e+03 -2.006000e+00
-3.997460e+02 -2.800510e+03 -4.028470e+02
2.713190e-01 -2.800370e+03 -4.025420e+02
-3.998340e+02 -2.400580e+03 -4.028160e+02
1.565930e-01 -2.400470e+03 -4.027020e+02
-3.999500e+02 -2.800040e+03 -2.278140e+00
4.369040e-02 -2.800070e+03 -2.160220e+00
-4.000530e+02 -2.399860e+03 -3.777250e+00
-4.612170e-02 -2.399970e+03 -3.253990e+00
2.713190e-01 -2.800370e+03 -4.025420e+02
4.002860e+02 -2.800230e+03 -4.022680e+02
1.565930e-01 -2.400470e+03 -4.027020e+02
4.001470e+02 -2.400390e+03 -4.025790e+02
4.369040e-02 -2.800070e+03 -2.160220e+00
4.000370e+02 -2.800090e+03 -2.006000e+00
-4.612170e-02 -2.399970e+03 -3.253990e+00
3.999610e+02 -2.400070e+03 -2.725920e+00
-3.998340e+02 -2.400580e+03 -4.028160e+02
1.565930e-01 -2.400470e+03 -4.027020e+02
-3.995060e+02 -2.000250e+03 -4.042680e+02
4.715690e-01 -2.000370e+03 -4.037760e+02
-4.000530e+02 -2.399860e+03 -3.777250e+00
-4.612170e-02 -2.399970e+03 -3.253990e+00
-4.001250e+02 -1.999920e+03 -3.701590e+00
-1.207310e-01 -1.999940e+03 -3.047530e+00
1.565930e-01 -2.400470e+03 -4.027020e+02
4.001470e+02 -2.400390e+03 -4.025790e+02
4.715690e-01 -2.000370e+03 -4.037760e+02
4.004490e+02 -2.000510e+03 -4.033310e+02
-4.612170e-02 -2.399970e+03 -3.253990e+00
3.999610e+02 -2.400070e+03 -2.725920e+00
-1.207310e-01 -1.999940e+03 -3.047530e+00
3.998850e+02 -1.999940e+03 -2.412120e+00
-3.995060e+02 -2.000250e+03 -4.042680e+02
4.715690e-01 -2.000370e+03 -4.037760e+02
-3.995310e+02 -1.600160e+03 -4.042280e+02
4.568530e-01 -1.600250e+03 -4.038240e+02
-4.001250e+02 -1.999920e+03 -3.701590e+00
-1.207310e-01 -1.999940e+03 -3.047530e+00
-4.000010e+02 -1.600080e+03 -4.259690e+00
2.477270e-03 -1.600080e+03 -3.816280e+00
4.715690e-01 -2.000370e+03 -4.037760e+02
4.004490e+02 -2.000510e+03 -4.033310e+02
4.568530e-01 -1.600250e+03 -4.038240e+02
4.004450e+02 -1.600310e+03 -4.035360e+02
-1.207310e-01 -1.999940e+03 -3.047530e+00
3.998850e+02 -1.999940e+03 -2.412120e+00
2.477270e-03 -1.600080e+03 -3.816280e+00
4.000060e+02 -1.600100e+03 -3.389400e+00
-3.995310e+02 -1.600160e+03 -4.042280e+02
4.568530e-01 -1.600250e+03 -4.038240e+02
-3.997000e+02 -1.200420e+03 -4.047690e+02
2.935220e-01 -1.200260e+03 -4.041670e+02
-4.000010e+02 -1.600080e+03 -4.259690e+00
2.477270e-03 -1.600080e+03 -3.816280e+00
-4.000730e+02 -1.200060e+03 -4.018930e+00
-6.400530e-02 -1.200050e+03 -4.211890e+00
4.568530e-01 -1.600250e+03 -4.038240e+02
4.004450e+02 -1.600310e+03 -4.035360e+02
2.935220e-01 -1.200260e+03 -4.041670e+02
4.002870e+02 -1.200090e+03 -4.035820e+02
2.477270e-03 -1.600080e+03 -3.816280e+00
4.000060e+02 -1.600100e+03 -3.389400e+00
-6.400530e-02 -1.200050e+03 -4.211890e+00
3.999460e+02 -1.200060e+03 -4.401110e+00
-3.997000e+02 -1.200420e+03 -4.047690e+02
2.935220e-01 -1.200260e+03 -4.041670e+02
-3.997440e+02 -8.005930e+02 -4.042030e+02
2.777100e-01 -8.003910e+02 -4.039470e+02
-4.000730e+02 -1.200060e+03 -4.018930e+00
-6.400530e-02 -1.200050e+03 -4.211890e+00
-4.000030e+02 -7.998700e+02 -4.834720e+00
-8.546120e-03 -7.999780e+02 -4.533630e+00
2.935220e-01 -1.200260e+03 -4.041670e+02
4.002870e+02 -1.200090e+03 -4.035820e+02
2.777100e-01 -8.003910e+02 -4.039470e+02
4.003000e+02 -8.002210e+02 -4.036860e+02
-6.400530e-02 -1.200050e+03 -4.211890e+00
3.999460e+02 -1.200060e+03 -4.401110e+00
-8.546120e-03 -7.999780e+02 -4.533630e+00
3.999860e+02 -8.000660e+02 -4.221840e+00
-3.997440e+02 -8.005930e+02 -4.042030e+02
2.777100e-01 -8.003910e+02 -4.039470e+02
-3.995600e+02 -4.005560e+02 -4.048080e+02
4.571950e-01 -4.005360e+02 -4.046240e+02
-4.000030e+02 -7.998700e+02 -4.834720e+00
-8.546120e-03 -7.999780e+02 -4.533630e+00
-4.001050e+02 -3.998630e+02 -5.650810e+00
-1.219180e-01 -3.998840e+02 -5.208130e+00
2.777100e-01 -8.003910e+02 -4.039470e+02
4.003000e+02 -8.002210e+02 -4.036860e+02
4.571950e-01 -4.005360e+02 -4.046240e+02
4.004720e+02 -4.005080e+02 -4.044110e+02
-8.546120e-03 -7.999780e+02 -4.533630e+00
3.999860e+02 -8.000660e+02 -4.221840e+00
-1.219180e-01 -3.998840e+02 -5.208130e+00
3.998610e+02 -3.999240e+02 -4.749270e+00
-3.995600e+02 -4.005560e+02 -4.048080e+02
4.571950e-01 -4.005360e+02 -4.046240e+02
-3.996270e+02 -4.117120e-01 -4.062440e+02
3.673430e-01 -4.244290e-01 -4.056080e+02
-4.001050e+02 -3.998630e+02 -5.650810e+00
-1.219180e-01 -3.998840e+02 -5.208130e+00
-4.000230e+02 6.216470e-02 -5.294530e+00
-1.893130e-02 9.033700e-02 -5.187690e+00
4.571950e-01 -4.005360e+02 -4.046240e+02
4.004720e+02 -4.005080e+02 -4.044110e+02
[...]
<PointData>
<DataArray type="Float32" Name="V1" format="ascii">
0.000000e+00
0.000000e+00
7.364380e-02
8.182100e-02
0.000000e+00
0.000000e+00
-1.542320e-01
-1.497980e-01
0.000000e+00
0.000000e+00
8.182100e-02
8.881400e-02
0.000000e+00
0.000000e+00
-1.497980e-01
-1.465120e-01
7.364380e-02
8.182100e-02
1.066390e-02
1.432410e-02
-1.542320e-01
-1.497980e-01
1.624320e-01
1.542070e-01
8.182100e-02
8.881400e-02
1.432410e-02
1.991340e-02
-1.497980e-01
-1.465120e-01
1.542070e-01
1.466650e-01
1.066390e-02
1.432410e-02
-2.103020e-02
5.683780e-03
1.624320e-01
1.542070e-01
-5.019510e-02
-7.167830e-02
1.432410e-02
1.991340e-02
5.683780e-03
3.979840e-02
1.542070e-01
1.466650e-01
-7.167830e-02
-9.264590e-02
-2.103020e-02
5.683780e-03
6.042990e-02
7.534150e-02
-5.019510e-02
-7.167830e-02
-2.737530e-02
-3.646240e-02
5.683780e-03
3.979840e-02
7.534150e-02
8.715130e-02
-7.167830e-02
-9.264590e-02
-3.646240e-02
-4.539610e-02
6.042990e-02
7.534150e-02
1.074180e-01
1.127950e-01
-2.737530e-02
-3.646240e-02
-1.919950e-01
-2.019810e-01
7.534150e-02
8.715130e-02
1.127950e-01
1.167530e-01
-3.646240e-02
-4.539610e-02
-2.019810e-01
-2.102100e-01
1.074180e-01
1.127950e-01
-1.869670e-01
-1.699860e-01
-1.919950e-01
-2.019810e-01
8.091740e-02
7.819560e-02
1.127950e-01
1.167530e-01
-1.699860e-01
-1.544700e-01
-2.019810e-01
-2.102100e-01
7.819560e-02
7.537360e-02
-1.869670e-01
-1.699860e-01
-3.633000e-01
-3.491880e-01
8.091740e-02
7.819560e-02
2.198570e-01
2.184440e-01
-1.699860e-01
-1.544700e-01
-3.491880e-01
-3.394540e-01
7.819560e-02
7.537360e-02
2.184440e-01
2.171700e-01
-3.633000e-01
-3.491880e-01
1.692650e-02
-3.223730e-02
2.198570e-01
2.184440e-01
6.764470e-02
1.011360e-01
-3.491880e-01
-3.394540e-01
-3.223730e-02
-8.425770e-02
2.184440e-01
2.171700e-01
1.011360e-01
1.352730e-01
1.692650e-02
-3.223730e-02
-2.034690e-01
-1.319890e-01
6.764470e-02
1.011360e-01
1.441530e-01
9.384700e-02
-3.223730e-02
-8.425770e-02
-1.319890e-01
-5.511960e-02
1.011360e-01
1.352730e-01
9.384700e-02
4.327180e-02
-2.034690e-01
-1.319890e-01
-1.262460e-01
-1.214820e-01
1.441530e-01
9.384700e-02
4.938490e-02
5.947870e-02
-1.319890e-01
-5.511960e-02
-1.214820e-01
-1.126940e-01
9.384700e-02
4.327180e-02
5.947870e-02
6.952100e-02
-1.262460e-01
-1.214820e-01
1.317760e-02
-1.528610e-02
4.938490e-02
5.947870e-02
2.663400e-02
4.717280e-02
-1.214820e-01
-1.126940e-01
-1.528610e-02
-4.486130e-02
5.947870e-02
6.952100e-02
4.717280e-02
6.737830e-02
1.317760e-02
-1.528610e-02
1.021110e-01
1.028270e-01
2.663400e-02
4.717280e-02
-3.924580e-02
-3.194260e-02
-1.528610e-02
-4.486130e-02
1.028270e-01
1.023160e-01
4.717280e-02
6.737830e-02
-3.194260e-02
-2.421410e-02
1.021110e-01
1.028270e-01
-1.361860e-01
-1.513330e-01
-3.924580e-02
-3.194260e-02
2.974560e-01
2.984160e-01
1.028270e-01
1.023160e-01
-1.513330e-01
-1.636160e-01
-3.194260e-02
-2.421410e-02
2.984160e-01
2.983450e-01
-1.361860e-01
-1.513330e-01
-5.021450e-02
-4.014450e-02
2.974560e-01
2.984160e-01
-1.984420e-03
2.650970e-03
-1.513330e-01
-1.636160e-01
-4.014450e-02
-3.129820e-02
2.984160e-01
2.983450e-01
2.650970e-03
5.520080e-03
-5.021450e-02
-4.014450e-02
-8.210060e-03
-2.136900e-02
-1.984420e-03
2.650970e-03
2.902370e-02
4.817030e-02
-4.014450e-02
-3.129820e-02
-2.136900e-02
-3.397880e-02
2.650970e-03
5.520080e-03
4.817030e-02
6.753450e-02
-8.210060e-03
-2.136900e-02
4.783120e-02
8.045500e-02
2.902370e-02
4.817030e-02
-1.266480e-01
-1.497710e-01
-2.136900e-02
-3.397880e-02
8.045500e-02
1.122570e-01
4.817030e-02
6.753450e-02
-1.497710e-01
-1.757770e-01
4.783120e-02
8.045500e-02
1.241050e-01
1.073310e-01
-1.266480e-01
-1.497710e-01
-6.611460e-03
7.798440e-03
8.045500e-02
1.122570e-01
1.073310e-01
8.952210e-02
-1.497710e-01
-1.757770e-01
7.798440e-03
2.090570e-02
1.241050e-01
1.073310e-01
-6.678490e-02
-9.085100e-02
-6.611460e-03
7.798440e-03
4.233070e-02
5.135060e-02
1.073310e-01
8.952210e-02
-9.085100e-02
-1.185750e-01
7.798440e-03
2.090570e-02
5.135060e-02
6.017860e-02
-6.678490e-02
-9.085100e-02
-1.352110e-01
-1.559480e-01
4.233070e-02
5.135060e-02
-9.266790e-03
3.320640e-03
-9.085100e-02
-1.185750e-01
-1.559480e-01
-1.695170e-01
5.135060e-02
6.017860e-02
3.320640e-03
1.421540e-02
-1.352110e-01
-1.559480e-01
1.178820e-01
1.129660e-01
-9.266790e-03
3.320640e-03
-2.264790e-01
-2.208850e-01
-1.559480e-01
-1.695170e-01
1.129660e-01
1.132520e-01
3.320640e-03
1.421540e-02
-2.208850e-01
-2.157370e-01
1.178820e-01
1.129660e-01
9.578700e-02
7.258000e-02
-2.264790e-01
-2.208850e-01
-9.158710e-02
-8.000730e-02
1.129660e-01
1.132520e-01
7.258000e-02
4.949400e-02
-2.208850e-01
-2.157370e-01
-8.000730e-02
-7.068780e-02
9.578700e-02
7.258000e-02
5.248100e-02
7.728720e-02
-9.158710e-02
-8.000730e-02
5.235260e-02
2.095650e-02
7.258000e-02
4.949400e-02
7.728720e-02
1.052700e-01
-8.000730e-02
-7.068780e-02
2.095650e-02
-1.185840e-02
5.248100e-02
7.728720e-02
-8.564650e-02
-7.675990e-02
5.235260e-02
2.095650e-02
-8.658160e-02
-8.233820e-02
7.728720e-02
1.052700e-01
-7.675990e-02
-6.599630e-02
2.095650e-02
-1.185840e-02
-8.233820e-02
-7.938190e-02
-8.564650e-02
-7.675990e-02
-3.261760e-02
-4.224190e-02
-8.658160e-02
-8.233820e-02
1.644560e-01
1.605460e-01
-7.675990e-02
-6.599630e-02
-4.224190e-02
-4.788820e-02
-8.233820e-02
-7.938190e-02
1.605460e-01
1.542700e-01
-3.261760e-02
-4.224190e-02
7.517090e-02
8.540670e-02
1.644560e-01
1.605460e-01
-5.862950e-02
-6.774910e-02
-4.224190e-02
-4.788820e-02
8.540670e-02
9.235490e-02
1.605460e-01
1.542700e-01
-6.774910e-02
-7.579990e-02
7.517090e-02
8.540670e-02
-1.712710e-01
-1.952520e-01
-5.862950e-02
-6.774910e-02
1.274390e-01
1.514710e-01
8.540670e-02
9.235490e-02
-1.952520e-01
-2.149950e-01
-6.774910e-02
-7.579990e-02
1.514710e-01
1.732290e-01
-1.712710e-01
-1.952520e-01
1.897640e-01
1.985850e-01
1.274390e-01
1.514710e-01
-1.296390e-01
-1.362830e-01
-1.952520e-01
-2.149950e-01
1.985850e-01
2.102510e-01
1.514710e-01
1.732290e-01
-1.362830e-01
-1.439300e-01
1.897640e-01
1.985850e-01
2.390790e-02
2.324880e-02
-1.296390e-01
-1.362830e-01
-4.632980e-02
-4.483600e-02
1.985850e-01
2.102510e-01
2.324880e-02
1.579990e-02
-1.362830e-01
-1.439300e-01
-4.483600e-02
-4.275110e-02
2.390790e-02
2.324880e-02
4.618020e-03
-8.576680e-03
-4.632980e-02
-4.483600e-02
3.142330e-02
2.993230e-02
2.324880e-02
1.579990e-02
-8.576680e-03
-1.570010e-02
-4.483600e-02
-4.275110e-02
2.993230e-02
2.651050e-02
4.618020e-03
-8.576680e-03
7.041040e-02
7.038790e-02
3.142330e-02
2.993230e-02
3.837190e-02
3.382040e-02
-8.576680e-03
-1.570010e-02
7.038790e-02
7.163730e-02
2.993230e-02
2.651050e-02
3.382040e-02
2.930490e-02
0.000000e+00
0.000000e+00
-1.542320e-01
-1.497980e-01
0.000000e+00
0.000000e+00
2.354090e-01
2.108840e-01
0.000000e+00
0.000000e+00
-1.497980e-01
-1.465120e-01
0.000000e+00
0.000000e+00
2.108840e-01
1.922490e-01
-1.542320e-01
-1.497980e-01
1.624320e-01
1.542070e-01
2.354090e-01
2.108840e-01
-3.418680e-01
-3.146330e-01
-1.497980e-01
-1.465120e-01
1.542070e-01
1.466650e-01
2.108840e-01
1.922490e-01
-3.146330e-01
-2.889400e-01
1.624320e-01
1.542070e-01
-5.019510e-02
-7.167830e-02
-3.418680e-01
-3.146330e-01
1.203430e-01
1.350820e-01
1.542070e-01
1.466650e-01
-7.167830e-02
-9.264590e-02
-3.146330e-01
-2.889400e-01
1.350820e-01
1.446880e-01
-5.019510e-02
-7.167830e-02
-2.737530e-02
-3.646240e-02
1.203430e-01
1.350820e-01
-9.022700e-03
-7.698090e-04
-7.167830e-02
-9.264590e-02
-3.646240e-02
-4.539610e-02
1.350820e-01
1.446880e-01
-7.698090e-04
9.260290e-03
-2.737530e-02
-3.646240e-02
-1.919950e-01
-2.019810e-01
-9.022700e-03
-7.698090e-04
2.902770e-01
3.019450e-01
-3.646240e-02
-4.539610e-02
-2.019810e-01
-2.102100e-01
-7.698090e-04
9.260290e-03
3.019450e-01
3.107640e-01
-1.919950e-01
-2.019810e-01
8.091740e-02
7.819560e-02
2.902770e-01
3.019450e-01
1.893780e-02
4.961980e-04
-2.019810e-01
-2.102100e-01
7.819560e-02
7.537360e-02
3.019450e-01
3.107640e-01
4.961980e-04
-1.595290e-02
8.091740e-02
7.819560e-02
2.198570e-01
2.184440e-01
1.893780e-02
4.961980e-04
-8.795420e-02
-8.625320e-02
7.819560e-02
7.537360e-02
2.184440e-01
2.171700e-01
4.961980e-04
-1.595290e-02
-8.625320e-02
-8.528870e-02
2.198570e-01
2.184440e-01
6.764470e-02
1.011360e-01
-8.795420e-02
-8.625320e-02
-1.528150e-01
-1.718360e-01
2.184440e-01
2.171700e-01
1.011360e-01
1.352730e-01
-8.625320e-02
-8.528870e-02
-1.718360e-01
-1.864470e-01
6.764470e-02
1.011360e-01
1.441530e-01
9.384700e-02
-1.528150e-01
-1.718360e-01
-9.099980e-02
-5.536960e-02
1.011360e-01
1.352730e-01
9.384700e-02
4.327180e-02
-1.718360e-01
-1.864470e-01
-5.536960e-02
-2.391150e-02
1.441530e-01
9.384700e-02
4.938490e-02
5.947870e-02
-9.099980e-02
-5.536960e-02
1.928830e-02
-5.920370e-03
9.384700e-02
4.327180e-02
5.947870e-02
6.952100e-02
-5.536960e-02
-2.391150e-02
-5.920370e-03
-3.579780e-02
4.938490e-02
5.947870e-02
2.663400e-02
4.717280e-02
1.928830e-02
-5.920370e-03
-5.817340e-02
-6.580970e-02
5.947870e-02
6.952100e-02
4.717280e-02
6.737830e-02
-5.920370e-03
-3.579780e-02
-6.580970e-02
-7.083850e-02
2.663400e-02
4.717280e-02
-3.924580e-02
-3.194260e-02
-5.817340e-02
-6.580970e-02
-1.746890e-02
-4.637100e-02
4.717280e-02
6.737830e-02
-3.194260e-02
-2.421410e-02
-6.580970e-02
-7.083850e-02
-4.637100e-02
-7.431540e-02
-3.924580e-02
-3.194260e-02
2.974560e-01
2.984160e-01
-1.746890e-02
-4.637100e-02
-4.500470e-01
-4.416330e-01
-3.194260e-02
-2.421410e-02
2.984160e-01
2.983450e-01
-4.637100e-02
-7.431540e-02
-4.416330e-01
-4.351620e-01
2.974560e-01
2.984160e-01
-1.984420e-03
2.650970e-03
-4.500470e-01
-4.416330e-01
5.465170e-02
4.127580e-02
2.984160e-01
2.983450e-01
2.650970e-03
5.520080e-03
-4.416330e-01
-4.351620e-01
4.127580e-02
2.974160e-02
-1.984420e-03
2.650970e-03
2.902370e-02
4.817030e-02
5.465170e-02
4.127580e-02
-4.988780e-02
-7.516440e-02
2.650970e-03
5.520080e-03
4.817030e-02
6.753450e-02
4.127580e-02
2.974160e-02
-7.516440e-02
-9.817490e-02
2.902370e-02
4.817030e-02
-1.266480e-01
-1.497710e-01
-4.988780e-02
-7.516440e-02
2.054240e-01
2.151920e-01
4.817030e-02
6.753450e-02
-1.497710e-01
-1.757770e-01
-7.516440e-02
-9.817490e-02
2.151920e-01
2.283270e-01
-1.266480e-01
-1.497710e-01
-6.611460e-03
7.798440e-03
2.054240e-01
2.151920e-01
-1.156100e-01
-1.270540e-01
-1.497710e-01
-1.757770e-01
7.798440e-03
2.090570e-02
2.151920e-01
2.283270e-01
-1.270540e-01
-1.353770e-01
-6.611460e-03
7.798440e-03
4.233070e-02
5.135060e-02
-1.156100e-01
-1.270540e-01
-1.388060e-02
-7.478300e-03
7.798440e-03
2.090570e-02
5.135060e-02
6.017860e-02
-1.270540e-01
-1.353770e-01
-7.478300e-03
1.903020e-03
4.233070e-02
5.135060e-02
-9.266790e-03
3.320640e-03
-1.388060e-02
-7.478300e-03
1.403150e-01
1.439070e-01
5.135060e-02
6.017860e-02
3.320640e-03
1.421540e-02
-7.478300e-03
1.903020e-03
1.439070e-01
1.436460e-01
-9.266790e-03
3.320640e-03
-2.264790e-01
-2.208850e-01
1.403150e-01
1.439070e-01
3.366660e-01
3.242180e-01
3.320640e-03
1.421540e-02
-2.208850e-01
-2.157370e-01
1.439070e-01
1.436460e-01
3.242180e-01
3.100980e-01
-2.264790e-01
-2.208850e-01
-9.158710e-02
-8.000730e-02
3.366660e-01
3.242180e-01
8.999780e-02
9.313120e-02
-2.208850e-01
-2.157370e-01
-8.000730e-02
-7.068780e-02
3.242180e-01
3.100980e-01
9.313120e-02
9.933310e-02
-9.158710e-02
-8.000730e-02
5.235260e-02
2.095650e-02
8.999780e-02
9.313120e-02
-1.535850e-01
-1.206800e-01
-8.000730e-02
-7.068780e-02
2.095650e-02
-1.185840e-02
9.313120e-02
9.933310e-02
-1.206800e-01
-8.607390e-02
5.235260e-02
2.095650e-02
-8.658160e-02
-8.233820e-02
-1.535850e-01
-1.206800e-01
2.558900e-01
2.463160e-01
2.095650e-02
-1.185840e-02
-8.233820e-02
-7.938190e-02
-1.206800e-01
-8.607390e-02
2.463160e-01
2.360790e-01
-8.658160e-02
-8.233820e-02
1.644560e-01
1.605460e-01
2.558900e-01
2.463160e-01
-2.844110e-01
-2.780670e-01
-8.233820e-02
-7.938190e-02
1.605460e-01
1.542700e-01
2.463160e-01
2.360790e-01
-2.780670e-01
-2.693850e-01
1.644560e-01
1.605460e-01
-5.862950e-02
-6.774910e-02
-2.844110e-01
-2.780670e-01
3.845690e-02
5.004060e-02
1.605460e-01
1.542700e-01
-6.774910e-02
-7.579990e-02
-2.780670e-01
-2.693850e-01
5.004060e-02
6.390640e-02
-5.862950e-02
-6.774910e-02
1.274390e-01
1.514710e-01
3.845690e-02
5.004060e-02
-8.838540e-02
-1.146450e-01
-6.774910e-02
-7.579990e-02
1.514710e-01
1.732290e-01
5.004060e-02
6.390640e-02
-1.146450e-01
-1.383700e-01
1.274390e-01
1.514710e-01
-1.296390e-01
-1.362830e-01
-8.838540e-02
-1.146450e-01
7.815640e-02
7.453220e-02
1.514710e-01
1.732290e-01
-1.362830e-01
-1.439300e-01
-1.146450e-01
-1.383700e-01
7.453220e-02
7.198970e-02
-1.296390e-01
-1.362830e-01
-4.632980e-02
-4.483600e-02
7.815640e-02
7.453220e-02
6.463780e-02
6.522250e-02
-1.362830e-01
-1.439300e-01
-4.483600e-02
-4.275110e-02
7.453220e-02
7.198970e-02
6.522250e-02
7.014070e-02
-4.632980e-02
-4.483600e-02
3.142330e-02
2.993230e-02
6.463780e-02
6.522250e-02
-7.213480e-02
-5.768400e-02
-4.483600e-02
-4.275110e-02
2.993230e-02
2.651050e-02
6.522250e-02
7.014070e-02
-5.768400e-02
-4.229660e-02
3.142330e-02
2.993230e-02
3.837190e-02
3.382040e-02
-7.213480e-02
-5.768400e-02
-1.355540e-01
-1.189690e-01
2.993230e-02
2.651050e-02
3.382040e-02
2.930490e-02
-5.768400e-02
-4.229660e-02
-1.189690e-01
-1.068860e-01
</DataArray>
<DataArray type="Float32" Name="V2" format="ascii">
0.000000e+00
0.000000e+00
3.463470e-01
6.201470e-02
0.000000e+00
0.000000e+00
1.641820e-01
3.615640e-01
0.000000e+00
0.000000e+00
6.201470e-02
-2.290680e-01
0.000000e+00
0.000000e+00
3.615640e-01
5.298810e-01
3.463470e-01
6.201470e-02
2.111150e-02
1.962700e-01
1.641820e-01
3.615640e-01
6.725950e-02
-2.844550e-02
6.201470e-02
-2.290680e-01
1.962700e-01
2.821900e-01
3.615640e-01
5.298810e-01
-2.844550e-02
-6.831510e-02
2.111150e-02
1.962700e-01
3.412970e-02
-3.484840e-02
6.725950e-02
-2.844550e-02
-9.237000e-02
-1.406170e-01
1.962700e-01
2.821900e-01
-3.484840e-02
-5.995510e-02
-2.844550e-02
-6.831510e-02
-1.406170e-01
-2.863060e-01
3.412970e-02
-3.484840e-02
-1.121080e-01
-2.340690e-01
-9.237000e-02
-1.406170e-01
-9.735450e-02
1.830550e-02
-3.484840e-02
-5.995510e-02
-2.340690e-01
-2.342270e-01
-1.406170e-01
-2.863060e-01
1.830550e-02
9.353030e-02
-1.121080e-01
-2.340690e-01
2.415490e-02
-1.777820e-01
-9.735450e-02
1.830550e-02
-2.849350e-01
3.436630e-02
-2.340690e-01
-2.342270e-01
-1.777820e-01
-3.470100e-01
1.830550e-02
9.353030e-02
3.436630e-02
3.485320e-01
2.415490e-02
-1.777820e-01
6.834060e-02
3.153260e-01
-2.849350e-01
3.436630e-02
-5.073650e-02
-1.121580e-01
-1.777820e-01
-3.470100e-01
3.153260e-01
4.487770e-01
3.436630e-02
3.485320e-01
-1.121580e-01
-1.259430e-01
6.834060e-02
3.153260e-01
1.308250e-01
1.774530e-01
-5.073650e-02
-1.121580e-01
9.332590e-02
9.892260e-02
3.153260e-01
4.487770e-01
1.774530e-01
1.835610e-01
-1.121580e-01
-1.259430e-01
9.892260e-02
8.598220e-02
1.308250e-01
1.774530e-01
1.198070e-02
7.432530e-02
9.332590e-02
9.892260e-02
-5.324570e-02
-1.348820e-01
1.774530e-01
1.835610e-01
7.432530e-02
1.367580e-01
9.892260e-02
8.598220e-02
-1.348820e-01
-1.738400e-01
1.198070e-02
7.432530e-02
1.254910e-01
-5.160280e-02
-5.324570e-02
-1.348820e-01
-2.229520e-01
7.373870e-03
7.432530e-02
1.367580e-01
-5.160280e-02
-1.526400e-01
-1.348820e-01
-1.738400e-01
7.373870e-03
2.213480e-01
1.254910e-01
-5.160280e-02
3.848300e-01
2.054310e-02
-2.229520e-01
7.373870e-03
-1.297280e-01
1.086730e-01
-5.160280e-02
-1.526400e-01
2.054310e-02
-2.705050e-01
7.373870e-03
2.213480e-01
1.086730e-01
3.410660e-01
3.848300e-01
2.054310e-02
-5.935580e-01
-2.851850e-01
-1.297280e-01
1.086730e-01
5.513570e-01
1.479400e-01
2.054310e-02
-2.705050e-01
-2.851850e-01
-2.517280e-02
1.086730e-01
3.410660e-01
1.479400e-01
-2.903260e-01
-5.935580e-01
-2.851850e-01
-2.094030e-01
-2.445170e-01
5.513570e-01
1.479400e-01
1.298100e-01
1.820440e-01
-2.851850e-01
-2.517280e-02
-2.445170e-01
-3.627330e-01
1.479400e-01
-2.903260e-01
1.820440e-01
2.472970e-01
-2.094030e-01
-2.445170e-01
4.107980e-01
2.659200e-01
1.298100e-01
1.820440e-01
-1.016320e-01
-3.576220e-02
-2.445170e-01
-3.627330e-01
2.659200e-01
8.594430e-02
1.820440e-01
2.472970e-01
-3.576220e-02
9.465740e-02
4.107980e-01
2.659200e-01
3.039450e-01
3.094670e-01
-1.016320e-01
-3.576220e-02
-1.026810e-01
-8.768910e-02
2.659200e-01
8.594430e-02
3.094670e-01
2.567730e-01
-3.576220e-02
9.465740e-02
-8.768910e-02
-3.303900e-02
3.039450e-01
3.094670e-01
4.083470e-01
2.564830e-01
-1.026810e-01
-8.768910e-02
-4.400080e-01
-3.484160e-01
3.094670e-01
2.567730e-01
2.564830e-01
1.752440e-01
-8.768910e-02
-3.303900e-02
-3.484160e-01
-2.740450e-01
4.083470e-01
2.564830e-01
-7.203260e-01
-4.576050e-01
-4.400080e-01
-3.484160e-01
2.564240e-01
1.521830e-01
2.564830e-01
1.752440e-01
-4.576050e-01
-2.263390e-01
-3.484160e-01
-2.740450e-01
1.521830e-01
2.189870e-02
-7.203260e-01
-4.576050e-01
-4.379040e-01
-3.608490e-01
2.564240e-01
1.521830e-01
1.909580e-01
1.924180e-01
-4.576050e-01
-2.263390e-01
-3.608490e-01
-2.713320e-01
1.521830e-01
2.189870e-02
1.924180e-01
1.895630e-01
-4.379040e-01
-3.608490e-01
5.228540e-01
4.184180e-01
1.909580e-01
1.924180e-01
-4.288140e-01
-1.427840e-01
-3.608490e-01
-2.713320e-01
4.184180e-01
2.359460e-01
1.924180e-01
1.895630e-01
-1.427840e-01
1.980300e-01
5.228540e-01
4.184180e-01
7.372230e-02
1.540810e-01
-4.288140e-01
-1.427840e-01
1.124870e-01
1.418220e-02
4.184180e-01
2.359460e-01
1.540810e-01
2.808170e-01
-1.427840e-01
1.980300e-01
1.418220e-02
-1.220470e-01
7.372230e-02
1.540810e-01
5.565760e-01
3.303970e-01
1.124870e-01
1.418220e-02
-2.731210e-01
-2.159050e-01
1.540810e-01
2.808170e-01
3.303970e-01
1.387500e-01
1.418220e-02
-1.220470e-01
-2.159050e-01
-1.697000e-01
5.565760e-01
3.303970e-01
-8.249180e-02
1.271890e-01
-2.731210e-01
-2.159050e-01
1.896930e-01
6.069650e-02
3.303970e-01
1.387500e-01
1.271890e-01
3.381950e-01
-2.159050e-01
-1.697000e-01
6.069650e-02
-7.253260e-02
-8.249180e-02
1.271890e-01
1.603490e-01
2.875470e-02
1.896930e-01
6.069650e-02
-1.722130e-01
-1.257900e-01
1.271890e-01
3.381950e-01
2.875470e-02
-1.446400e-01
6.069650e-02
-7.253260e-02
-1.257900e-01
-5.975350e-02
1.603490e-01
2.875470e-02
-1.737080e-01
-5.462580e-01
-1.722130e-01
-1.257900e-01
-7.513030e-02
1.726850e-01
2.875470e-02
-1.446400e-01
-5.462580e-01
-9.185560e-01
-1.257900e-01
-5.975350e-02
1.726850e-01
3.420520e-01
-1.737080e-01
-5.462580e-01
-3.772390e-01
-2.581660e-01
-7.513030e-02
1.726850e-01
1.875260e-01
1.156060e-01
-5.462580e-01
-9.185560e-01
-2.581660e-01
-4.212620e-02
1.726850e-01
3.420520e-01
1.156060e-01
6.378990e-02
-3.772390e-01
-2.581660e-01
1.512720e-01
2.599920e-01
1.875260e-01
1.156060e-01
2.325390e-02
-4.627850e-02
-2.581660e-01
-4.212620e-02
2.599920e-01
4.062780e-01
1.156060e-01
6.378990e-02
-4.627850e-02
-1.764930e-01
1.512720e-01
2.599920e-01
3.053180e-01
1.290960e-01
2.325390e-02
-4.627850e-02
-1.719170e-02
2.129150e-02
2.599920e-01
4.062780e-01
1.290960e-01
-6.026020e-02
-4.627850e-02
-1.764930e-01
2.129150e-02
1.832620e-02
3.053180e-01
1.290960e-01
9.582920e-02
7.993000e-02
-1.719170e-02
2.129150e-02
-9.554480e-02
-1.128210e-01
1.290960e-01
-6.026020e-02
7.993000e-02
5.523910e-02
2.129150e-02
1.832620e-02
-1.128210e-01
-8.970500e-02
9.582920e-02
7.993000e-02
-5.801990e-01
-4.066190e-01
-9.554480e-02
-1.128210e-01
2.919410e-01
5.489070e-02
7.993000e-02
5.523910e-02
-4.066190e-01
-2.058810e-01
-1.128210e-01
-8.970500e-02
5.489070e-02
-2.303330e-01
-5.801990e-01
-4.066190e-01
3.431850e-01
-2.107670e-02
2.919410e-01
5.489070e-02
-2.862680e-01
-7.884030e-02
-4.066190e-01
-2.058810e-01
-2.107670e-02
-3.660710e-01
5.489070e-02
-2.303330e-01
-7.884030e-02
1.226910e-01
3.431850e-01
-2.107670e-02
2.035190e-01
2.716820e-01
-2.862680e-01
-7.884030e-02
-2.121860e-01
-1.478840e-01
-2.107670e-02
-3.660710e-01
2.716820e-01
3.768610e-01
-7.884030e-02
1.226910e-01
-1.478840e-01
-9.991080e-02
0.000000e+00
0.000000e+00
1.641820e-01
3.615640e-01
0.000000e+00
0.000000e+00
-6.805580e-01
-7.779400e-01
0.000000e+00
0.000000e+00
3.615640e-01
5.298810e-01
0.000000e+00
0.000000e+00
-7.779400e-01
-8.068170e-01
1.641820e-01
3.615640e-01
6.725950e-02
-2.844550e-02
-6.805580e-01
-7.779400e-01
-1.376920e-01
-1.556480e-01
3.615640e-01
5.298810e-01
-2.844550e-02
-6.831510e-02
-7.779400e-01
-8.068170e-01
-1.556480e-01
-1.638760e-01
6.725950e-02
-2.844550e-02
-9.237000e-02