<?xml version="1.0"?>
<VTKFile type="UnstructuredGrid" version="0.1" byte_order="LittleEndian" compressor="vtkZLibDataCompressor">
<UnstructuredGrid>
<Piece NumberOfPoints="960" NumberOfCells="120">
<Points>
<DataArray type="Float32" NumberOfComponents="3" format="ascii">
-4.000000e+02 -6.000000e+03 -4.000000e+02
0.000000e+00 -6.000000e+03 -4.000000e+02
-3.995870e+02 -5.601040e+03 -4.002030e+02
2.787750e-01 -5.600750e+03 -4.000440e+02
-4.000000e+02 -6.000000e+03 0.000000e+00
0.000000e+00 -6.000000e+03 0.000000e+00
-3.999670e+02 -5.599810e+03 -4.710650e-01
-3.216350e-02 -5.599950e+03 -4.925820e-01
0.000000e+00 -6.000000e+03 -4.000000e+02
4.000000e+02 -6.000000e+03 -4.000000e+02
2.787750e-01 -5.600750e+03 -4.000440e+02
4.001450e+02 -5.600890e+03 -4.006340e+02
0.000000e+00 -6.000000e+03 0.000000e+00
4.000000e+02 -6.000000e+03 0.000000e+00
-3.216350e-02 -5.599950e+03 -4.925820e-01
3.999160e+02 -5.599700e+03 -2.732160e-01
-3.995870e+02 -5.601040e+03 -4.002030e+02
2.787750e-01 -5.600750e+03 -4.000440e+02
-3.999850e+02 -5.201470e+03 -4.021180e+02
-1.265850e-01 -5.200920e+03 -4.013410e+02
-3.999670e+02 -5.599810e+03 -4.710650e-01
-3.216350e-02 -5.599950e+03 -4.925820e-01
-4.001110e+02 -5.199900e+03 1.922670e-02
-9.363810e-02 -5.200040e+03 -1.289400e-01
2.787750e-01 -5.600750e+03 -4.000440e+02
4.001450e+02 -5.600890e+03 -4.006340e+02
-1.265850e-01 -5.200920e+03 -4.013410e+02
3.997440e+02 -5.200840e+03 -4.017700e+02
-3.216350e-02 -5.599950e+03 -4.925820e-01
3.999160e+02 -5.599700e+03 -2.732160e-01
-9.363810e-02 -5.200040e+03 -1.289400e-01
3.999040e+02 -5.200080e+03 2.660120e-01
-3.999850e+02 -5.201470e+03 -4.021180e+02
-1.265850e-01 -5.200920e+03 -4.013410e+02
-3.996120e+02 -4.801350e+03 -4.028550e+02
1.162380e-01 -4.801420e+03 -4.014760e+02
-4.001110e+02 -5.199900e+03 1.922670e-02
-9.363810e-02 -5.200040e+03 -1.289400e-01
-4.007040e+02 -4.800270e+03 -1.994590e+00
-3.027040e-01 -4.799990e+03 -2.535800e+00
-1.265850e-01 -5.200920e+03 -4.013410e+02
3.997440e+02 -5.200840e+03 -4.017700e+02
1.162380e-01 -4.801420e+03 -4.014760e+02
3.998180e+02 -4.801590e+03 -4.013380e+02
-9.363810e-02 -5.200040e+03 -1.289400e-01
3.999040e+02 -5.200080e+03 2.660120e-01
-3.027040e-01 -4.799990e+03 -2.535800e+00
4.000870e+02 -4.799990e+03 -2.570930e+00
-3.996120e+02 -4.801350e+03 -4.028550e+02
1.162380e-01 -4.801420e+03 -4.014760e+02
-4.000940e+02 -4.401680e+03 -4.042090e+02
5.138820e-03 -4.401860e+03 -4.041840e+02
-4.007040e+02 -4.800270e+03 -1.994590e+00
-3.027040e-01 -4.799990e+03 -2.535800e+00
-3.999090e+02 -4.399980e+03 -3.860220e+00
1.096000e-01 -4.399870e+03 -3.179120e+00
1.162380e-01 -4.801420e+03 -4.014760e+02
3.998180e+02 -4.801590e+03 -4.013380e+02
5.138820e-03 -4.401860e+03 -4.041840e+02
4.001090e+02 -4.402230e+03 -4.041420e+02
-3.027040e-01 -4.799990e+03 -2.535800e+00
4.000870e+02 -4.799990e+03 -2.570930e+00
1.096000e-01 -4.399870e+03 -3.179120e+00
4.001430e+02 -4.399940e+03 -2.728820e+00
-4.000940e+02 -4.401680e+03 -4.042090e+02
5.138820e-03 -4.401860e+03 -4.041840e+02
-3.997420e+02 -4.001500e+03 -4.061040e+02
3.963480e-01 -4.001870e+03 -4.055660e+02
-3.999090e+02 -4.399980e+03 -3.860220e+00
1.096000e-01 -4.399870e+03 -3.179120e+00
-4.002990e+02 -4.000110e+03 -5.549500e+00
-5.464810e-02 -4.000240e+03 -5.696880e+00
5.138820e-03 -4.401860e+03 -4.041840e+02
4.001090e+02 -4.402230e+03 -4.041420e+02
3.963480e-01 -4.001870e+03 -4.055660e+02
4.005050e+02 -4.002100e+03 -4.058810e+02
1.096000e-01 -4.399870e+03 -3.179120e+00
4.001430e+02 -4.399940e+03 -2.728820e+00
-5.464810e-02 -4.000240e+03 -5.696880e+00
4.001860e+02 -4.000120e+03 -5.229380e+00
-3.997420e+02 -4.001500e+03 -4.061040e+02
3.963480e-01 -4.001870e+03 -4.055660e+02
-3.998490e+02 -3.601990e+03 -4.065040e+02
3.766860e-01 -3.602270e+03 -4.072000e+02
-4.002990e+02 -4.000110e+03 -5.549500e+00
-5.464810e-02 -4.000240e+03 -5.696880e+00
-3.997940e+02 -3.599710e+03 -8.630630e+00
1.374990e-01 -3.599810e+03 -7.636390e+00
3.963480e-01 -4.001870e+03 -4.055660e+02
4.005050e+02 -4.002100e+03 -4.058810e+02
3.766860e-01 -3.602270e+03 -4.072000e+02
4.005870e+02 -3.602230e+03 -4.071090e+02
-5.464810e-02 -4.000240e+03 -5.696880e+00
4.001860e+02 -4.000120e+03 -5.229380e+00
1.374990e-01 -3.599810e+03 -7.636390e+00
4.000710e+02 -3.599830e+03 -6.907840e+00
-3.998490e+02 -3.601990e+03 -4.065040e+02
3.766860e-01 -3.602270e+03 -4.072000e+02
-3.993320e+02 -3.202010e+03 -4.105610e+02
6.214730e-01 -3.202220e+03 -4.099820e+02
-3.997940e+02 -3.599710e+03 -8.630630e+00
1.374990e-01 -3.599810e+03 -7.636390e+00
-4.000340e+02 -3.200210e+03 -9.840030e+00
1.047980e-01 -3.200210e+03 -9.584820e+00
3.766860e-01 -3.602270e+03 -4.072000e+02
4.005870e+02 -3.602230e+03 -4.071090e+02
6.214730e-01 -3.202220e+03 -4.099820e+02
4.006010e+02 -3.202820e+03 -4.093840e+02
1.374990e-01 -3.599810e+03 -7.636390e+00
4.000710e+02 -3.599830e+03 -6.907840e+00
1.047980e-01 -3.200210e+03 -9.584820e+00
4.002480e+02 -3.199960e+03 -8.784320e+00
-3.993320e+02 -3.202010e+03 -4.105610e+02
6.214730e-01 -3.202220e+03 -4.099820e+02
-3.987460e+02 -2.802700e+03 -4.141930e+02
1.147450e+00 -2.802550e+03 -4.120230e+02
-4.000340e+02 -3.200210e+03 -9.840030e+00
1.047980e-01 -3.200210e+03 -9.584820e+00
-4.001960e+02 -2.800190e+03 -1.270680e+01
-1.006030e-01 -2.800180e+03 -1.213470e+01
6.214730e-01 -3.202220e+03 -4.099820e+02
4.006010e+02 -3.202820e+03 -4.093840e+02
1.147450e+00 -2.802550e+03 -4.120230e+02
4.010530e+02 -2.802890e+03 -4.101480e+02
1.047980e-01 -3.200210e+03 -9.584820e+00
4.002480e+02 -3.199960e+03 -8.784320e+00
-1.006030e-01 -2.800180e+03 -1.213470e+01
3.999860e+02 -2.799930e+03 -1.185350e+01
-3.987460e+02 -2.802700e+03 -4.141930e+02
1.147450e+00 -2.802550e+03 -4.120230e+02
-3.988090e+02 -2.403020e+03 -4.155810e+02
1.217160e+00 -2.403080e+03 -4.148240e+02
-4.001960e+02 -2.800190e+03 -1.270680e+01
-1.006030e-01 -2.800180e+03 -1.213470e+01
-4.001200e+02 -2.399920e+03 -1.595080e+01
-2.176340e-01 -2.399710e+03 -1.442610e+01
1.147450e+00 -2.802550e+03 -4.120230e+02
4.010530e+02 -2.802890e+03 -4.101480e+02
1.217160e+00 -2.403080e+03 -4.148240e+02
4.012410e+02 -2.403280e+03 -4.138340e+02
-1.006030e-01 -2.800180e+03 -1.213470e+01
3.999860e+02 -2.799930e+03 -1.185350e+01
-2.176340e-01 -2.399710e+03 -1.442610e+01
3.996880e+02 -2.399600e+03 -1.306860e+01
-3.988090e+02 -2.403020e+03 -4.155810e+02
1.217160e+00 -2.403080e+03 -4.148240e+02
-3.990450e+02 -2.002630e+03 -4.188210e+02
9.279320e-01 -2.002630e+03 -4.179260e+02
-4.001200e+02 -2.399920e+03 -1.595080e+01
-2.176340e-01 -2.399710e+03 -1.442610e+01
-3.999480e+02 -2.000230e+03 -1.893880e+01
7.268650e-02 -2.000100e+03 -1.764880e+01
1.217160e+00 -2.403080e+03 -4.148240e+02
4.012410e+02 -2.403280e+03 -4.138340e+02
9.279320e-01 -2.002630e+03 -4.179260e+02
4.009380e+02 -2.002480e+03 -4.162850e+02
-2.176340e-01 -2.399710e+03 -1.442610e+01
3.996880e+02 -2.399600e+03 -1.306860e+01
7.268650e-02 -2.000100e+03 -1.764880e+01
4.001190e+02 -2.000440e+03 -1.670560e+01
-3.990450e+02 -2.002630e+03 -4.188210e+02
9.279320e-01 -2.002630e+03 -4.179260e+02
-3.989410e+02 -1.602820e+03 -4.214010e+02
1.127960e+00 -1.602980e+03 -4.210630e+02
-3.999480e+02 -2.000230e+03 -1.893880e+01
7.268650e-02 -2.000100e+03 -1.764880e+01
-4.002640e+02 -1.600380e+03 -2.106170e+01
-1.558670e-01 -1.600030e+03 -2.044860e+01
9.279320e-01 -2.002630e+03 -4.179260e+02
4.009380e+02 -2.002480e+03 -4.162850e+02
1.127960e+00 -1.602980e+03 -4.210630e+02
4.011380e+02 -1.602910e+03 -4.199370e+02
7.268650e-02 -2.000100e+03 -1.764880e+01
4.001190e+02 -2.000440e+03 -1.670560e+01
-1.558670e-01 -1.600030e+03 -2.044860e+01
3.999540e+02 -1.600190e+03 -1.994040e+01
-3.989410e+02 -1.602820e+03 -4.214010e+02
1.127960e+00 -1.602980e+03 -4.210630e+02
-3.993630e+02 -1.203700e+03 -4.250830e+02
6.004030e-01 -1.203950e+03 -4.235020e+02
-4.002640e+02 -1.600380e+03 -2.106170e+01
-1.558670e-01 -1.600030e+03 -2.044860e+01
-3.998750e+02 -1.200260e+03 -2.374600e+01
3.250890e-01 -1.199740e+03 -2.403080e+01
1.127960e+00 -1.602980e+03 -4.210630e+02
4.011380e+02 -1.602910e+03 -4.199370e+02
6.004030e-01 -1.203950e+03 -4.235020e+02
4.005310e+02 -1.203280e+03 -4.229420e+02
-1.558670e-01 -1.600030e+03 -2.044860e+01
3.999540e+02 -1.600190e+03 -1.994040e+01
3.250890e-01 -1.199740e+03 -2.403080e+01
4.005220e+02 -1.199990e+03 -2.336870e+01
-3.993630e+02 -1.203700e+03 -4.250830e+02
6.004030e-01 -1.203950e+03 -4.235020e+02
-3.990450e+02 -8.040370e+02 -4.269550e+02
5.727340e-01 -8.034680e+02 -4.278000e+02
-3.998750e+02 -1.200260e+03 -2.374600e+01
3.250890e-01 -1.199740e+03 -2.403080e+01
-4.002780e+02 -7.999480e+02 -2.827670e+01
-1.138890e-01 -8.002940e+02 -2.639040e+01
6.004030e-01 -1.203950e+03 -4.235020e+02
4.005310e+02 -1.203280e+03 -4.229420e+02
5.727340e-01 -8.034680e+02 -4.278000e+02
4.001850e+02 -8.035280e+02 -4.275640e+02
3.250890e-01 -1.199740e+03 -2.403080e+01
4.005220e+02 -1.199990e+03 -2.336870e+01
-1.138890e-01 -8.002940e+02 -2.639040e+01
4.000420e+02 -8.001800e+02 -2.548920e+01
-3.990450e+02 -8.040370e+02 -4.269550e+02
5.727340e-01 -8.034680e+02 -4.278000e+02
-4.000100e+02 -4.037130e+02 -4.299450e+02
-5.281510e-02 -4.035590e+02 -4.308110e+02
-4.002780e+02 -7.999480e+02 -2.827670e+01
-1.138890e-01 -8.002940e+02 -2.639040e+01
-3.998990e+02 -4.000010e+02 -3.189530e+01
8.313120e-02 -4.002580e+02 -3.124630e+01
5.727340e-01 -8.034680e+02 -4.278000e+02
4.001850e+02 -8.035280e+02 -4.275640e+02
-5.281510e-02 -4.035590e+02 -4.308110e+02
3.999290e+02 -4.035960e+02 -4.308270e+02
-1.138890e-01 -8.002940e+02 -2.639040e+01
4.000420e+02 -8.001800e+02 -2.548920e+01
8.313120e-02 -4.002580e+02 -3.124630e+01
4.000830e+02 -4.001770e+02 -3.139390e+01
-4.000100e+02 -4.037130e+02 -4.299450e+02
-5.281510e-02 -4.035590e+02 -4.308110e+02
-4.008030e+02 -4.008200e+00 -4.334790e+02
-8.493250e-01 -3.895250e+00 -4.351140e+02
-3.998990e+02 -4.000010e+02 -3.189530e+01
8.313120e-02 -4.002580e+02 -3.124630e+01
-3.996480e+02 -2.606660e-01 -3.287670e+01
3.920550e-01 2.598350e-03 -3.363550e+01
-5.281510e-02 -4.035590e+02 -4.308110e+02
3.999290e+02 -4.035960e+02 -4.308270e+02
[...]
<PointData>
<DataArray type="Float32" Name="V1" format="ascii">
0.000000e+00
0.000000e+00
5.783710e-01
-1.643670e-01
0.000000e+00
0.000000e+00
-3.086240e-01
1.242240e-01
0.000000e+00
0.000000e+00
-1.643670e-01
-8.630120e-01
0.000000e+00
0.000000e+00
1.242240e-01
4.977860e-01
5.783710e-01
-1.643670e-01
2.607140e-01
4.868800e-01
-3.086240e-01
1.242240e-01
2.140450e-01
4.477750e-02
-1.643670e-01
-8.630120e-01
4.868800e-01
6.650030e-01
1.242240e-01
4.977860e-01
4.477750e-02
-1.281090e-01
2.607140e-01
4.868800e-01
-2.166630e-01
1.136720e-01
2.140450e-01
4.477750e-02
1.382160e-01
-8.444400e-02
4.868800e-01
6.650030e-01
1.136720e-01
3.727300e-01
4.477750e-02
-1.281090e-01
-8.444400e-02
-2.919310e-01
-2.166630e-01
1.136720e-01
-9.128630e-01
-7.667740e-01
1.382160e-01
-8.444400e-02
6.243150e-01
6.568370e-01
1.136720e-01
3.727300e-01
-7.667740e-01
-4.665230e-01
-8.444400e-02
-2.919310e-01
6.568370e-01
5.143770e-01
-9.128630e-01
-7.667740e-01
-1.360120e-01
8.049530e-02
6.243150e-01
6.568370e-01
3.266040e-01
1.406480e-01
-7.667740e-01
-4.665230e-01
8.049530e-02
8.530890e-02
6.568370e-01
5.143770e-01
1.406480e-01
1.369510e-01
-1.360120e-01
8.049530e-02
-1.111650e+00
-7.288810e-01
3.266040e-01
1.406480e-01
4.667600e-01
3.249330e-01
8.049530e-02
8.530890e-02
-7.288810e-01
1.105900e-01
1.406480e-01
1.369510e-01
3.249330e-01
-4.793320e-02
-1.111650e+00
-7.288810e-01
-4.666010e-01
-4.574970e-01
4.667600e-01
3.249330e-01
4.455610e-01
3.175920e-01
-7.288810e-01
1.105900e-01
-4.574970e-01
-7.043830e-01
3.249330e-01
-4.793320e-02
3.175920e-01
3.145230e-01
-4.666010e-01
-4.574970e-01
-4.490570e-01
-1.133090e-01
4.455610e-01
3.175920e-01
2.402880e-01
1.221160e-01
-4.574970e-01
-7.043830e-01
-1.133090e-01
2.453440e-01
3.175920e-01
3.145230e-01
1.221160e-01
-1.601700e-01
-4.490570e-01
-1.133090e-01
-1.123300e-01
-1.336380e-01
2.402880e-01
1.221160e-01
3.306170e-01
1.550620e-01
-1.133090e-01
2.453440e-01
-1.336380e-01
-1.284750e-01
1.221160e-01
-1.601700e-01
1.550620e-01
-2.292280e-03
-1.123300e-01
-1.336380e-01
-3.755720e-02
-1.298020e-01
3.306170e-01
1.550620e-01
-1.511840e-01
1.413680e-01
-1.336380e-01
-1.284750e-01
-1.298020e-01
-1.352330e-01
1.550620e-01
-2.292280e-03
1.413680e-01
3.909660e-01
-3.755720e-02
-1.298020e-01
-2.597970e-01
-4.341060e-01
-1.511840e-01
1.413680e-01
2.522300e-01
4.757270e-01
-1.298020e-01
-1.352330e-01
-4.341060e-01
-6.697230e-01
1.413680e-01
3.909660e-01
4.757270e-01
7.145110e-01
-2.597970e-01
-4.341060e-01
-1.342940e-01
-2.022610e-01
2.522300e-01
4.757270e-01
-1.637040e-01
1.763740e-02
-4.341060e-01
-6.697230e-01
-2.022610e-01
-3.008840e-01
4.757270e-01
7.145110e-01
1.763740e-02
2.095610e-01
-1.342940e-01
-2.022610e-01
1.086890e+00
5.246710e-01
-1.637040e-01
1.763740e-02
-2.807910e-01
-1.156490e-01
-2.022610e-01
-3.008840e-01
5.246710e-01
3.104940e-01
1.763740e-02
2.095610e-01
-1.156490e-01
-3.026230e-02
1.086890e+00
5.246710e-01
5.576650e-01
9.867990e-02
-2.807910e-01
-1.156490e-01
-5.215080e-01
-2.599890e-01
5.246710e-01
3.104940e-01
9.867990e-02
-4.997250e-01
-1.156490e-01
-3.026230e-02
-2.599890e-01
1.101560e-01
5.576650e-01
9.867990e-02
5.724830e-01
-9.316320e-02
-5.215080e-01
-2.599890e-01
1.192190e-01
1.261050e-01
9.867990e-02
-4.997250e-01
-9.316320e-02
-7.066780e-01
-2.599890e-01
1.101560e-01
1.261050e-01
7.243110e-02
5.724830e-01
-9.316320e-02
-1.403760e-01
3.678670e-01
1.192190e-01
1.261050e-01
-3.339900e-01
-4.206530e-01
-9.316320e-02
-7.066780e-01
3.678670e-01
7.421020e-01
1.261050e-01
7.243110e-02
-4.206530e-01
-4.817880e-01
-1.403760e-01
3.678670e-01
2.842270e-01
2.606010e-01
-3.339900e-01
-4.206530e-01
-2.854810e-01
-7.083550e-02
3.678670e-01
7.421020e-01
2.606010e-01
2.101970e-01
-4.206530e-01
-4.817880e-01
-7.083550e-02
9.569260e-02
2.842270e-01
2.606010e-01
3.284170e-01
2.309440e-01
-2.854810e-01
-7.083550e-02
-6.917080e-01
-4.481400e-01
2.606010e-01
2.101970e-01
2.309440e-01
-1.911050e-02
-7.083550e-02
9.569260e-02
-4.481400e-01
-1.610390e-01
3.284170e-01
2.309440e-01
-1.256060e-01
-9.947260e-02
-6.917080e-01
-4.481400e-01
4.968590e-01
1.204800e-01
2.309440e-01
-1.911050e-02
-9.947260e-02
2.008990e-01
-4.481400e-01
-1.610390e-01
1.204800e-01
-3.429350e-01
-1.256060e-01
-9.947260e-02
-1.001580e-01
-2.463260e-01
4.968590e-01
1.204800e-01
3.595790e-02
4.585000e-02
-9.947260e-02
2.008990e-01
-2.463260e-01
-6.208490e-01
1.204800e-01
-3.429350e-01
4.585000e-02
3.079050e-01
-1.001580e-01
-2.463260e-01
-3.754080e-01
-3.200040e-01
3.595790e-02
4.585000e-02
2.724850e-01
3.767260e-01
-2.463260e-01
-6.208490e-01
-3.200040e-01
-1.545510e-01
4.585000e-02
3.079050e-01
3.767260e-01
3.144790e-01
-3.754080e-01
-3.200040e-01
1.370200e+00
9.596670e-01
2.724850e-01
3.767260e-01
-6.515490e-01
-4.789050e-01
-3.200040e-01
-1.545510e-01
9.596670e-01
5.021530e-01
3.767260e-01
3.144790e-01
-4.789050e-01
-1.020170e-01
1.370200e+00
9.596670e-01
-4.586230e-01
-2.445370e-01
-6.515490e-01
-4.789050e-01
1.985290e-01
3.057340e-02
9.596670e-01
5.021530e-01
-2.445370e-01
-1.494320e-01
-4.789050e-01
-1.020170e-01
3.057340e-02
-7.151070e-02
-4.586230e-01
-2.445370e-01
3.827270e-01
3.378850e-01
1.985290e-01
3.057340e-02
-5.234970e-01
-1.984180e-01
-2.445370e-01
-1.494320e-01
3.378850e-01
3.429060e-01
3.057340e-02
-7.151070e-02
-1.984180e-01
2.559100e-02
3.827270e-01
3.378850e-01
-6.152410e-01
-2.850410e-01
-5.234970e-01
-1.984180e-01
4.819050e-01
3.132540e-01
3.378850e-01
3.429060e-01
-2.850410e-01
-1.083240e-01
-1.984180e-01
2.559100e-02
3.132540e-01
2.936770e-01
-6.152410e-01
-2.850410e-01
2.617630e-01
3.112830e-01
4.819050e-01
3.132540e-01
-1.416600e-01
-2.994730e-01
-2.850410e-01
-1.083240e-01
3.112830e-01
5.055330e-01
3.132540e-01
2.936770e-01
-2.994730e-01
-4.844630e-01
2.617630e-01
3.112830e-01
5.289520e-01
1.136530e-01
-1.416600e-01
-2.994730e-01
-3.351200e-01
-1.725410e-01
3.112830e-01
5.055330e-01
1.136530e-01
-4.485290e-01
-2.994730e-01
-4.844630e-01
-1.725410e-01
3.553440e-02
5.289520e-01
1.136530e-01
-1.745610e-01
3.926110e-02
-3.351200e-01
-1.725410e-01
2.240630e-01
-3.042400e-02
1.136530e-01
-4.485290e-01
3.926110e-02
2.547950e-01
-1.725410e-01
3.553440e-02
-3.042400e-02
-3.009990e-01
-1.745610e-01
3.926110e-02
9.348860e-02
4.395480e-03
2.240630e-01
-3.042400e-02
-1.916720e-01
-1.782710e-01
3.926110e-02
2.547950e-01
4.395480e-03
-7.411650e-02
-3.042400e-02
-3.009990e-01
-1.782710e-01
-4.200580e-02
9.348860e-02
4.395480e-03
-3.744780e-01
-8.440100e-01
-1.916720e-01
-1.782710e-01
6.572670e-01
8.998420e-01
4.395480e-03
-7.411650e-02
-8.440100e-01
-1.324170e+00
-1.782710e-01
-4.200580e-02
8.998420e-01
9.608330e-01
0.000000e+00
0.000000e+00
-3.086240e-01
1.242240e-01
0.000000e+00
0.000000e+00
1.457800e-02
-7.838580e-02
0.000000e+00
0.000000e+00
1.242240e-01
4.977860e-01
0.000000e+00
0.000000e+00
-7.838580e-02
-1.290050e-01
-3.086240e-01
1.242240e-01
2.140450e-01
4.477750e-02
1.457800e-02
-7.838580e-02
-8.377720e-01
-5.442330e-01
1.242240e-01
4.977860e-01
4.477750e-02
-1.281090e-01
-7.838580e-02
-1.290050e-01
-5.442330e-01
-3.016280e-01
2.140450e-01
4.477750e-02
1.382160e-01
-8.444400e-02
-8.377720e-01
-5.442330e-01
-8.285520e-02
-3.684600e-02
4.477750e-02
-1.281090e-01
-8.444400e-02
-2.919310e-01
-5.442330e-01
-3.016280e-01
-3.684600e-02
1.442520e-01
1.382160e-01
-8.444400e-02
6.243150e-01
6.568370e-01
-8.285520e-02
-3.684600e-02
-2.342310e-01
-4.132570e-01
-8.444400e-02
-2.919310e-01
6.568370e-01
5.143770e-01
-3.684600e-02
1.442520e-01
-4.132570e-01
-5.675720e-01
6.243150e-01
6.568370e-01
3.266040e-01
1.406480e-01
-2.342310e-01
-4.132570e-01
-5.153260e-01
-4.230450e-01
6.568370e-01
5.143770e-01
1.406480e-01
1.369510e-01
-4.132570e-01
-5.675720e-01
-4.230450e-01
-4.572340e-01
3.266040e-01
1.406480e-01
4.667600e-01
3.249330e-01
-5.153260e-01
-4.230450e-01
1.791520e-01
6.508940e-02
1.406480e-01
1.369510e-01
3.249330e-01
-4.793320e-02
-4.230450e-01
-4.572340e-01
6.508940e-02
4.464350e-02
4.667600e-01
3.249330e-01
4.455610e-01
3.175920e-01
1.791520e-01
6.508940e-02
-3.992270e-01
-1.614310e-01
3.249330e-01
-4.793320e-02
3.175920e-01
3.145230e-01
6.508940e-02
4.464350e-02
-1.614310e-01
5.921890e-02
4.455610e-01
3.175920e-01
2.402880e-01
1.221160e-01
-3.992270e-01
-1.614310e-01
-5.267730e-02
-5.583360e-02
3.175920e-01
3.145230e-01
1.221160e-01
-1.601700e-01
-1.614310e-01
5.921890e-02
-5.583360e-02
8.501390e-02
2.402880e-01
1.221160e-01
3.306170e-01
1.550620e-01
-5.267730e-02
-5.583360e-02
-5.528010e-01
-2.237430e-01
1.221160e-01
-1.601700e-01
1.550620e-01
-2.292280e-03
-5.583360e-02
8.501390e-02
-2.237430e-01
2.256470e-02
3.306170e-01
1.550620e-01
-1.511840e-01
1.413680e-01
-5.528010e-01
-2.237430e-01
5.097910e-01
-9.201980e-02
1.550620e-01
-2.292280e-03
1.413680e-01
3.909660e-01
-2.237430e-01
2.256470e-02
-9.201980e-02
-6.646510e-01
-1.511840e-01
1.413680e-01
2.522300e-01
4.757270e-01
5.097910e-01
-9.201980e-02
-3.036970e-01
-5.379900e-01
1.413680e-01
3.909660e-01
4.757270e-01
7.145110e-01
-9.201980e-02
-6.646510e-01
-5.379900e-01
-7.794610e-01
2.522300e-01
4.757270e-01
-1.637040e-01
1.763740e-02
-3.036970e-01
-5.379900e-01
3.407580e-01
8.777740e-02
4.757270e-01
7.145110e-01
1.763740e-02
2.095610e-01
-5.379900e-01
-7.794610e-01
8.777740e-02
-5.323820e-02
-1.637040e-01
1.763740e-02
-2.807910e-01
-1.156490e-01
3.407580e-01
8.777740e-02
-3.730870e-01
-2.724860e-01
1.763740e-02
2.095610e-01
-1.156490e-01
-3.026230e-02
8.777740e-02
-5.323820e-02
-2.724860e-01
-2.603970e-01
-2.807910e-01
-1.156490e-01
-5.215080e-01
-2.599890e-01
-3.730870e-01
-2.724860e-01
5.041220e-01
4.000800e-01
-1.156490e-01
-3.026230e-02
-2.599890e-01
1.101560e-01
-2.724860e-01
-2.603970e-01
4.000800e-01
1.989650e-01
-5.215080e-01
-2.599890e-01
1.192190e-01
1.261050e-01
5.041220e-01
4.000800e-01
-7.803180e-01
-1.798580e-01
-2.599890e-01
1.101560e-01
1.261050e-01
7.243110e-02
4.000800e-01
1.989650e-01
-1.798580e-01
5.986880e-01
1.192190e-01
1.261050e-01
-3.339900e-01
-4.206530e-01
-7.803180e-01
-1.798580e-01
6.832940e-01
4.834310e-01
1.261050e-01
7.243110e-02
-4.206530e-01
-4.817880e-01
-1.798580e-01
5.986880e-01
4.834310e-01
3.780400e-01
-3.339900e-01
-4.206530e-01
-2.854810e-01
-7.083550e-02
6.832940e-01
4.834310e-01
2.844210e-01
-5.509300e-02
-4.206530e-01
-4.817880e-01
-7.083550e-02
9.569260e-02
4.834310e-01
3.780400e-01
-5.509300e-02
-3.621400e-01
-2.854810e-01
-7.083550e-02
-6.917080e-01
-4.481400e-01
2.844210e-01
-5.509300e-02
1.016140e+00
6.333550e-01
-7.083550e-02
9.569260e-02
-4.481400e-01
-1.610390e-01
-5.509300e-02
-3.621400e-01
6.333550e-01
2.023420e-01
-6.917080e-01
-4.481400e-01
4.968590e-01
1.204800e-01
1.016140e+00
6.333550e-01
-7.603830e-01
-1.575710e-01
-4.481400e-01
-1.610390e-01
1.204800e-01
-3.429350e-01
6.333550e-01
2.023420e-01
-1.575710e-01
5.054250e-01
4.968590e-01
1.204800e-01
3.595790e-02
4.585000e-02
-7.603830e-01
-1.575710e-01
8.209340e-02
2.106510e-01
1.204800e-01
-3.429350e-01
4.585000e-02
3.079050e-01
-1.575710e-01
5.054250e-01
2.106510e-01
3.944140e-02
3.595790e-02
4.585000e-02
2.724850e-01
3.767260e-01
8.209340e-02
2.106510e-01
-3.173200e-01
-5.206580e-01
4.585000e-02
3.079050e-01
3.767260e-01
3.144790e-01
2.106510e-01
3.944140e-02
-5.206580e-01
-4.689270e-01
2.724850e-01
3.767260e-01
-6.515490e-01
-4.789050e-01
-3.173200e-01
-5.206580e-01
-2.962460e-03
-2.264620e-02
3.767260e-01
3.144790e-01
-4.789050e-01
-1.020170e-01
-5.206580e-01
-4.689270e-01
-2.264620e-02
-2.826700e-01
-6.515490e-01
-4.789050e-01
1.985290e-01
3.057340e-02
-2.962460e-03
-2.264620e-02
3.717470e-02
1.813310e-01
-4.789050e-01
-1.020170e-01
3.057340e-02
-7.151070e-02
-2.264620e-02
-2.826700e-01
1.813310e-01
2.812140e-01
1.985290e-01
3.057340e-02
-5.234970e-01
-1.984180e-01
3.717470e-02
1.813310e-01
6.737990e-01
6.801900e-02
3.057340e-02
-7.151070e-02
-1.984180e-01
2.559100e-02
1.813310e-01
2.812140e-01
6.801900e-02
-4.113340e-01
-5.234970e-01
-1.984180e-01
4.819050e-01
3.132540e-01
6.737990e-01
6.801900e-02
-2.839500e-01
-3.380720e-01
-1.984180e-01
2.559100e-02
3.132540e-01
2.936770e-01
6.801900e-02
-4.113340e-01
-3.380720e-01
-4.943220e-01
4.819050e-01
3.132540e-01
-1.416600e-01
-2.994730e-01
-2.839500e-01
-3.380720e-01
-2.958770e-02
2.768040e-01
3.132540e-01
2.936770e-01
-2.994730e-01
-4.844630e-01
-3.380720e-01
-4.943220e-01
2.768040e-01
4.802380e-01
-1.416600e-01
-2.994730e-01
-3.351200e-01
-1.725410e-01
-2.958770e-02
2.768040e-01
2.368890e-01
3.577280e-01
-2.994730e-01
-4.844630e-01
-1.725410e-01
3.553440e-02
2.768040e-01
4.802380e-01
3.577280e-01
4.396390e-01
-3.351200e-01
-1.725410e-01
2.240630e-01
-3.042400e-02
2.368890e-01
3.577280e-01
-4.097050e-01
-1.404600e-01
-1.725410e-01
3.553440e-02
-3.042400e-02
-3.009990e-01
3.577280e-01
4.396390e-01
-1.404600e-01
2.521580e-01
2.240630e-01
-3.042400e-02
-1.916720e-01
-1.782710e-01
-4.097050e-01
-1.404600e-01
5.062020e-01
5.539760e-01
-3.042400e-02
-3.009990e-01
-1.782710e-01
-4.200580e-02
-1.404600e-01
2.521580e-01
5.539760e-01
3.742330e-01
-1.916720e-01
-1.782710e-01
6.572670e-01
8.998420e-01
5.062020e-01
5.539760e-01
-1.194650e+00
-1.220170e+00
-1.782710e-01
-4.200580e-02
8.998420e-01
9.608330e-01
5.539760e-01
3.742330e-01
-1.220170e+00
-9.702700e-01
</DataArray>
<DataArray type="Float32" Name="V2" format="ascii">
0.000000e+00
0.000000e+00
6.152770e-01
3.994280e-01
0.000000e+00
0.000000e+00
-4.241090e-01
-9.926120e-01
0.000000e+00
0.000000e+00
3.994280e-01
-6.952970e-01
0.000000e+00
0.000000e+00
-9.926120e-01
3.421750e-01
6.152770e-01
3.994280e-01
5.353550e-01
4.926240e-01
-4.241090e-01
-9.926120e-01
-2.663820e-01
-1.911530e-02
3.994280e-01
-6.952970e-01
4.926240e-01
1.828220e-01
-9.926120e-01
3.421750e-01
-1.911530e-02
-4.195720e-01
5.353550e-01
4.926240e-01
-1.094500e+00
-1.751350e-01
-2.663820e-01
-1.911530e-02
6.873480e-01
3.639320e-01
4.926240e-01
1.828220e-01
-1.751350e-01
-8.010370e-01
-1.911530e-02
-4.195720e-01
3.639320e-01
1.205510e+00
-1.094500e+00
-1.751350e-01
-5.835960e-01
3.847690e-01
6.873480e-01
3.639320e-01
1.594830e-01
-7.402410e-01
-1.751350e-01
-8.010370e-01
3.847690e-01
-4.346870e-02
3.639320e-01
1.205510e+00
-7.402410e-01
1.194240e-01
-5.835960e-01
3.847690e-01
5.657410e-03
9.775380e-02
1.594830e-01
-7.402410e-01
-3.129710e-01
1.330670e-01
3.847690e-01
-4.346870e-02
9.775380e-02
3.423500e-02
-7.402410e-01
1.194240e-01
1.330670e-01
3.113280e-01
5.657410e-03
9.775380e-02
1.571450e-01
3.070920e-02
-3.129710e-01
1.330670e-01
-2.491720e-01
8.933990e-02
9.775380e-02
3.423500e-02
3.070920e-02
1.296580e+00
1.330670e-01
3.113280e-01
8.933990e-02
-8.901300e-01
1.571450e-01
3.070920e-02
5.065400e-01
-3.864790e-01
-2.491720e-01
8.933990e-02
-3.292030e-01
2.354570e-01
3.070920e-02
1.296580e+00
-3.864790e-01
6.333780e-01
8.933990e-02
-8.901300e-01
2.354570e-01
-6.574470e-01
5.065400e-01
-3.864790e-01
-2.528270e-01
-3.322300e-01
-3.292030e-01
2.354570e-01
6.280490e-01
3.465460e-01
-3.864790e-01
6.333780e-01
-3.322300e-01
-1.366150e+00
2.354570e-01
-6.574470e-01
3.465460e-01
5.782260e-01
-2.528270e-01
-3.322300e-01
-2.216880e-01
5.694720e-01
6.280490e-01
3.465460e-01
2.672370e-01
-4.020630e-01
-3.322300e-01
-1.366150e+00
5.694720e-01
-3.886230e-01
3.465460e-01
5.782260e-01
-4.020630e-01
-4.189660e-03
-2.216880e-01
5.694720e-01
-1.153010e-01
2.218880e-02
2.672370e-01
-4.020630e-01
1.639020e-01
-5.622020e-02
5.694720e-01
-3.886230e-01
2.218880e-02
1.204880e-01
-4.020630e-01
-4.189660e-03
-5.622020e-02
-1.603060e-01
-1.153010e-01
2.218880e-02
3.188050e-02
4.720820e-02
1.639020e-01
-5.622020e-02
6.484540e-02
-3.908860e-02
2.218880e-02
1.204880e-01
4.720820e-02
6.608700e-01
-5.622020e-02
-1.603060e-01
-3.908860e-02
-4.175200e-01
3.188050e-02
4.720820e-02
-3.994370e-02
6.268640e-02
6.484540e-02
-3.908860e-02
-9.978120e-02
-3.756560e-02
4.720820e-02
6.608700e-01
6.268640e-02
4.984530e-01
-3.908860e-02
-4.175200e-01
-3.756560e-02
-2.037730e-01
-3.994370e-02
6.268640e-02
8.461860e-01
1.622200e-01
-9.978120e-02
-3.756560e-02
-9.883640e-01
-3.049770e-01
6.268640e-02
4.984530e-01
1.622200e-01
-2.171140e-01
-3.756560e-02
-2.037730e-01
-3.049770e-01
-2.344160e-01
8.461860e-01
1.622200e-01
-2.416150e-01
-3.362010e-01
-9.883640e-01
-3.049770e-01
-2.869130e-03
3.476900e-01
1.622200e-01
-2.171140e-01
-3.362010e-01
-3.795240e-01
-3.049770e-01
-2.344160e-01
3.476900e-01
-1.877650e-01
-2.416150e-01
-3.362010e-01
-1.443050e-01
-2.079550e-01
-2.869130e-03
3.476900e-01
1.964610e-01
-2.073970e-01
-3.362010e-01
-3.795240e-01
-2.079550e-01
-4.790490e-01
3.476900e-01
-1.877650e-01
-2.073970e-01
3.155870e-01
-1.443050e-01
-2.079550e-01
-3.679750e-01
2.801450e-02
1.964610e-01
-2.073970e-01
5.470700e-01
3.111870e-01
-2.079550e-01
-4.790490e-01
2.801450e-02
-6.212740e-01
-2.073970e-01
3.155870e-01
3.111870e-01
8.329210e-01
-3.679750e-01
2.801450e-02
6.577730e-02
4.602700e-01
5.470700e-01
3.111870e-01
-1.149520e-01
9.675130e-02
2.801450e-02
-6.212740e-01
4.602700e-01
1.571470e-01
3.111870e-01
8.329210e-01
9.675130e-02
-1.230560e-02
6.577730e-02
4.602700e-01
-5.168490e-01
-1.012580e-01
-1.149520e-01
9.675130e-02
5.791110e-01
2.297880e-01
4.602700e-01
1.571470e-01
-1.012580e-01
-3.127420e-01
9.675130e-02
-1.230560e-02
2.297880e-01
1.423100e-01
-5.168490e-01
-1.012580e-01
2.858760e-01
-4.285310e-01
5.791110e-01
2.297880e-01
-4.236730e-01
1.356620e-01
-1.012580e-01
-3.127420e-01
-4.285310e-01
-2.797430e-01
2.297880e-01
1.423100e-01
1.356620e-01
4.593640e-01
2.858760e-01
-4.285310e-01
5.370790e-01
-1.739200e-01
-4.236730e-01
1.356620e-01
-6.056560e-01
-2.841630e-01
-4.285310e-01
-2.797430e-01
-1.739200e-01
1.106810e-01
1.356620e-01
4.593640e-01
-2.841630e-01
-4.571790e-01
5.370790e-01
-1.739200e-01
-3.763150e-01
3.237620e-01
-6.056560e-01
-2.841630e-01
1.608560e-01
-3.321230e-02
-1.739200e-01
1.106810e-01
3.237620e-01
5.080210e-01
-2.841630e-01
-4.571790e-01
-3.321230e-02
-8.022770e-01
-3.763150e-01
3.237620e-01
4.078540e-01
1.072070e+00
1.608560e-01
-3.321230e-02
2.565290e-01
-4.441380e-01
3.237620e-01
5.080210e-01
1.072070e+00
-7.416120e-01
-3.321230e-02
-8.022770e-01
-4.441380e-01
1.119390e+00
4.078540e-01
1.072070e+00
2.966950e-02
1.494160e-01
2.565290e-01
-4.441380e-01
3.538140e-01
-1.795120e-01
1.072070e+00
-7.416120e-01
1.494160e-01
1.807180e-01
-4.441380e-01
1.119390e+00
-1.795120e-01
1.219070e-01
2.966950e-02
1.494160e-01
-1.682610e-03
-3.574240e-01
3.538140e-01
-1.795120e-01
-8.894300e-02
-6.367770e-02
1.494160e-01
1.807180e-01
-3.574240e-01
2.462870e-01
-1.795120e-01
1.219070e-01
-6.367770e-02
-6.948350e-01
-1.682610e-03
-3.574240e-01
-3.074180e-01
-4.220200e-01
-8.894300e-02
-6.367770e-02
4.607420e-01
2.949290e-01
-3.574240e-01
2.462870e-01
-4.220200e-01
2.025970e-01
-6.367770e-02
-6.948350e-01
2.949290e-01
1.054360e-01
-3.074180e-01
-4.220200e-01
5.292610e-01
-3.718250e-01
4.607420e-01
2.949290e-01
-8.094310e-01
2.712080e-01
-4.220200e-01
2.025970e-01
-3.718250e-01
2.889620e-01
2.949290e-01
1.054360e-01
2.712080e-01
-5.261800e-01
5.292610e-01
-3.718250e-01
-4.716380e-01
-1.655880e-01
-8.094310e-01
2.712080e-01
4.547530e-01
4.757540e-02
-3.718250e-01
2.889620e-01
-1.655880e-01
-2.264590e-01
2.712080e-01
-5.261800e-01
4.757540e-02
-1.563230e-01
-4.716380e-01
-1.655880e-01
-3.474160e-01
-1.756850e-01
4.547530e-01
4.757540e-02
-1.052970e-01
1.538440e-01
-1.655880e-01
-2.264590e-01
-1.756850e-01
-7.225700e-01
4.757540e-02
-1.563230e-01
1.538440e-01
1.031770e+00
-3.474160e-01
-1.756850e-01
7.052350e-02
2.771750e-01
-1.052970e-01
1.538440e-01
-4.371270e-01
-1.999630e-01
-1.756850e-01
-7.225700e-01
2.771750e-01
4.321390e-01
1.538440e-01
1.031770e+00
-1.999630e-01
-1.301700e-01
7.052350e-02
2.771750e-01
5.207220e-01
7.629540e-01
-4.371270e-01
-1.999630e-01
3.631440e-01
-1.743980e-01
2.771750e-01
4.321390e-01
7.629540e-01
1.168140e-01
-1.999630e-01
-1.301700e-01
-1.743980e-01
-4.994040e-01
0.000000e+00
0.000000e+00
-4.241090e-01
-9.926120e-01
0.000000e+00
0.000000e+00
6.225370e-02
1.483780e+00
0.000000e+00
0.000000e+00
-9.926120e-01
3.421750e-01
0.000000e+00
0.000000e+00
1.483780e+00
-3.185200e-02
-4.241090e-01
-9.926120e-01
-2.663820e-01
-1.911530e-02
6.225370e-02
1.483780e+00
2.503440e-01
-2.766410e-01
-9.926120e-01
3.421750e-01
-1.911530e-02
-4.195720e-01
1.483780e+00
-3.185200e-02
-2.766410e-01
6.039890e-01
-2.663820e-01