<?xml version="1.0"?>
<VTKFile type="UnstructuredGrid" version="0.1" byte_order="LittleEndian" compressor="vtkZLibDataCompressor">
<UnstructuredGrid>
<Piece NumberOfPoints="960" NumberOfCells="120">
<Points>
<DataArray type="Float32" NumberOfComponents="3" format="ascii">
-4.000000e+02 -6.000000e+03 -4.000000e+02
0.000000e+00 -6.000000e+03 -4.000000e+02
-3.997390e+02 -5.600290e+03 -3.998930e+02
2.250860e-01 -5.600150e+03 -3.995650e+02
-4.000000e+02 -6.000000e+03 0.000000e+00
0.000000e+00 -6.000000e+03 0.000000e+00
-3.999430e+02 -5.599900e+03 -5.971050e-01
7.452890e-02 -5.599930e+03 -4.097740e-01
0.000000e+00 -6.000000e+03 -4.000000e+02
4.000000e+02 -6.000000e+03 -4.000000e+02
2.250860e-01 -5.600150e+03 -3.995650e+02
4.001930e+02 -5.599990e+03 -3.992520e+02
0.000000e+00 -6.000000e+03 0.000000e+00
4.000000e+02 -6.000000e+03 0.000000e+00
7.452890e-02 -5.599930e+03 -4.097740e-01
4.000920e+02 -5.599970e+03 -2.049360e-01
-3.997390e+02 -5.600290e+03 -3.998930e+02
2.250860e-01 -5.600150e+03 -3.995650e+02
-3.995630e+02 -5.200510e+03 -4.010250e+02
4.328610e-01 -5.200390e+03 -4.003290e+02
-3.999430e+02 -5.599900e+03 -5.971050e-01
7.452890e-02 -5.599930e+03 -4.097740e-01
-4.000510e+02 -5.199890e+03 -2.832190e-01
-5.079060e-02 -5.199990e+03 -3.435080e-01
2.250860e-01 -5.600150e+03 -3.995650e+02
4.001930e+02 -5.599990e+03 -3.992520e+02
4.328610e-01 -5.200390e+03 -4.003290e+02
4.004280e+02 -5.200250e+03 -3.996770e+02
7.452890e-02 -5.599930e+03 -4.097740e-01
4.000920e+02 -5.599970e+03 -2.049360e-01
-5.079060e-02 -5.199990e+03 -3.435080e-01
3.999500e+02 -5.200070e+03 -4.527100e-01
-3.995630e+02 -5.200510e+03 -4.010250e+02
4.328610e-01 -5.200390e+03 -4.003290e+02
-3.998260e+02 -4.800300e+03 -4.008260e+02
1.695450e-01 -4.800310e+03 -4.007230e+02
-4.000510e+02 -5.199890e+03 -2.832190e-01
-5.079060e-02 -5.199990e+03 -3.435080e-01
-3.999890e+02 -4.800240e+03 -1.127720e+00
1.589030e-02 -4.800180e+03 -7.296090e-01
4.328610e-01 -5.200390e+03 -4.003290e+02
4.004280e+02 -5.200250e+03 -3.996770e+02
1.695450e-01 -4.800310e+03 -4.007230e+02
4.001620e+02 -4.800380e+03 -4.006780e+02
-5.079060e-02 -5.199990e+03 -3.435080e-01
3.999500e+02 -5.200070e+03 -4.527100e-01
1.589030e-02 -4.800180e+03 -7.296090e-01
4.000200e+02 -4.800130e+03 -3.275350e-01
-3.998260e+02 -4.800300e+03 -4.008260e+02
1.695450e-01 -4.800310e+03 -4.007230e+02
-4.001370e+02 -4.400460e+03 -4.010660e+02
-1.365320e-01 -4.400640e+03 -4.008980e+02
-3.999890e+02 -4.800240e+03 -1.127720e+00
1.589030e-02 -4.800180e+03 -7.296090e-01
-3.998980e+02 -4.400060e+03 -9.704010e-01
1.104220e-01 -4.399920e+03 -1.121910e+00
1.695450e-01 -4.800310e+03 -4.007230e+02
4.001620e+02 -4.800380e+03 -4.006780e+02
-1.365320e-01 -4.400640e+03 -4.008980e+02
3.998630e+02 -4.400840e+03 -4.006710e+02
1.589030e-02 -4.800180e+03 -7.296090e-01
4.000200e+02 -4.800130e+03 -3.275350e-01
1.104220e-01 -4.399920e+03 -1.121910e+00
4.001200e+02 -4.399780e+03 -1.288190e+00
-4.001370e+02 -4.400460e+03 -4.010660e+02
-1.365320e-01 -4.400640e+03 -4.008980e+02
-4.001390e+02 -4.000820e+03 -4.008900e+02
-1.285200e-01 -4.000890e+03 -4.014440e+02
-3.998980e+02 -4.400060e+03 -9.704010e-01
1.104220e-01 -4.399920e+03 -1.121910e+00
-3.997610e+02 -3.999660e+03 -1.677250e+00
2.394190e-01 -3.999790e+03 -1.628250e+00
-1.365320e-01 -4.400640e+03 -4.008980e+02
3.998630e+02 -4.400840e+03 -4.006710e+02
-1.285200e-01 -4.000890e+03 -4.014440e+02
3.998820e+02 -4.000970e+03 -4.019880e+02
1.104220e-01 -4.399920e+03 -1.121910e+00
4.001200e+02 -4.399780e+03 -1.288190e+00
2.394190e-01 -3.999790e+03 -1.628250e+00
4.002400e+02 -3.999890e+03 -1.541100e+00
-4.001390e+02 -4.000820e+03 -4.008900e+02
-1.285200e-01 -4.000890e+03 -4.014440e+02
-4.000760e+02 -3.600460e+03 -4.023100e+02
-7.327570e-02 -3.600560e+03 -4.022360e+02
-3.997610e+02 -3.999660e+03 -1.677250e+00
2.394190e-01 -3.999790e+03 -1.628250e+00
-3.998340e+02 -3.599910e+03 -1.824230e+00
1.656210e-01 -3.599960e+03 -2.207820e+00
-1.285200e-01 -4.000890e+03 -4.014440e+02
3.998820e+02 -4.000970e+03 -4.019880e+02
-7.327570e-02 -3.600560e+03 -4.022360e+02
3.999300e+02 -3.600630e+03 -4.021440e+02
2.394190e-01 -3.999790e+03 -1.628250e+00
4.002400e+02 -3.999890e+03 -1.541100e+00
1.656210e-01 -3.599960e+03 -2.207820e+00
4.001670e+02 -3.600030e+03 -2.584050e+00
-4.000760e+02 -3.600460e+03 -4.023100e+02
-7.327570e-02 -3.600560e+03 -4.022360e+02
-3.997710e+02 -3.200270e+03 -4.034990e+02
2.279370e-01 -3.200380e+03 -4.030810e+02
-3.998340e+02 -3.599910e+03 -1.824230e+00
1.656210e-01 -3.599960e+03 -2.207820e+00
-3.999830e+02 -3.200060e+03 -2.669390e+00
2.849890e-02 -3.199980e+03 -2.508640e+00
-7.327570e-02 -3.600560e+03 -4.022360e+02
3.999300e+02 -3.600630e+03 -4.021440e+02
2.279370e-01 -3.200380e+03 -4.030810e+02
4.002280e+02 -3.200470e+03 -4.026640e+02
1.656210e-01 -3.599960e+03 -2.207820e+00
4.001670e+02 -3.600030e+03 -2.584050e+00
2.849890e-02 -3.199980e+03 -2.508640e+00
4.000410e+02 -3.199880e+03 -2.305350e+00
-3.997710e+02 -3.200270e+03 -4.034990e+02
2.279370e-01 -3.200380e+03 -4.030810e+02
-3.996810e+02 -2.800080e+03 -4.040240e+02
3.151470e-01 -2.800110e+03 -4.035440e+02
-3.999830e+02 -3.200060e+03 -2.669390e+00
2.849890e-02 -3.199980e+03 -2.508640e+00
-4.000370e+02 -2.800220e+03 -3.644340e+00
-2.177720e-02 -2.800150e+03 -3.321250e+00
2.279370e-01 -3.200380e+03 -4.030810e+02
4.002280e+02 -3.200470e+03 -4.026640e+02
3.151470e-01 -2.800110e+03 -4.035440e+02
4.003120e+02 -2.800150e+03 -4.030950e+02
2.849890e-02 -3.199980e+03 -2.508640e+00
4.000410e+02 -3.199880e+03 -2.305350e+00
-2.177720e-02 -2.800150e+03 -3.321250e+00
3.999940e+02 -2.800060e+03 -2.963100e+00
-3.996810e+02 -2.800080e+03 -4.040240e+02
3.151470e-01 -2.800110e+03 -4.035440e+02
-3.996300e+02 -2.400110e+03 -4.029370e+02
3.647040e-01 -2.400160e+03 -4.032110e+02
-4.000370e+02 -2.800220e+03 -3.644340e+00
-2.177720e-02 -2.800150e+03 -3.321250e+00
-3.999790e+02 -2.400260e+03 -4.553520e+00
2.493860e-02 -2.400230e+03 -3.540280e+00
3.151470e-01 -2.800110e+03 -4.035440e+02
4.003120e+02 -2.800150e+03 -4.030950e+02
3.647040e-01 -2.400160e+03 -4.032110e+02
4.003570e+02 -2.400200e+03 -4.034690e+02
-2.177720e-02 -2.800150e+03 -3.321250e+00
3.999940e+02 -2.800060e+03 -2.963100e+00
2.493860e-02 -2.400230e+03 -3.540280e+00
4.000310e+02 -2.400210e+03 -2.556990e+00
-3.996300e+02 -2.400110e+03 -4.029370e+02
3.647040e-01 -2.400160e+03 -4.032110e+02
-3.995140e+02 -2.000670e+03 -4.037950e+02
4.648760e-01 -2.000720e+03 -4.037230e+02
-3.999790e+02 -2.400260e+03 -4.553520e+00
2.493860e-02 -2.400230e+03 -3.540280e+00
-3.999690e+02 -1.999830e+03 -4.004850e+00
3.304630e-02 -1.999890e+03 -3.480340e+00
3.647040e-01 -2.400160e+03 -4.032110e+02
4.003570e+02 -2.400200e+03 -4.034690e+02
4.648760e-01 -2.000720e+03 -4.037230e+02
4.004450e+02 -2.000770e+03 -4.037140e+02
2.493860e-02 -2.400230e+03 -3.540280e+00
4.000310e+02 -2.400210e+03 -2.556990e+00
3.304630e-02 -1.999890e+03 -3.480340e+00
4.000340e+02 -1.999950e+03 -2.943440e+00
-3.995140e+02 -2.000670e+03 -4.037950e+02
4.648760e-01 -2.000720e+03 -4.037230e+02
-3.998000e+02 -1.600760e+03 -4.051170e+02
2.087820e-01 -1.600760e+03 -4.047080e+02
-3.999690e+02 -1.999830e+03 -4.004850e+00
3.304630e-02 -1.999890e+03 -3.480340e+00
-4.000160e+02 -1.599840e+03 -4.088990e+00
-2.051500e-02 -1.599890e+03 -4.326580e+00
4.648760e-01 -2.000720e+03 -4.037230e+02
4.004450e+02 -2.000770e+03 -4.037140e+02
2.087820e-01 -1.600760e+03 -4.047080e+02
4.002180e+02 -1.600790e+03 -4.043760e+02
3.304630e-02 -1.999890e+03 -3.480340e+00
4.000340e+02 -1.999950e+03 -2.943440e+00
-2.051500e-02 -1.599890e+03 -4.326580e+00
3.999760e+02 -1.599920e+03 -4.523160e+00
-3.998000e+02 -1.600760e+03 -4.051170e+02
2.087820e-01 -1.600760e+03 -4.047080e+02
-4.000630e+02 -1.200560e+03 -4.047760e+02
-5.956820e-02 -1.200480e+03 -4.052130e+02
-4.000160e+02 -1.599840e+03 -4.088990e+00
-2.051500e-02 -1.599890e+03 -4.326580e+00
-3.999390e+02 -1.200040e+03 -4.626930e+00
6.057370e-02 -1.200010e+03 -4.695380e+00
2.087820e-01 -1.600760e+03 -4.047080e+02
4.002180e+02 -1.600790e+03 -4.043760e+02
-5.956820e-02 -1.200480e+03 -4.052130e+02
3.999440e+02 -1.200410e+03 -4.055610e+02
-2.051500e-02 -1.599890e+03 -4.326580e+00
3.999760e+02 -1.599920e+03 -4.523160e+00
6.057370e-02 -1.200010e+03 -4.695380e+00
4.000600e+02 -1.199980e+03 -4.750210e+00
-4.000630e+02 -1.200560e+03 -4.047760e+02
-5.956820e-02 -1.200480e+03 -4.052130e+02
-4.002400e+02 -8.004780e+02 -4.053100e+02
-2.425300e-01 -8.003610e+02 -4.052020e+02
-3.999390e+02 -1.200040e+03 -4.626930e+00
6.057370e-02 -1.200010e+03 -4.695380e+00
-3.999850e+02 -7.999940e+02 -5.563610e+00
2.216160e-02 -8.000020e+02 -5.914160e+00
-5.956820e-02 -1.200480e+03 -4.052130e+02
3.999440e+02 -1.200410e+03 -4.055610e+02
-2.425300e-01 -8.003610e+02 -4.052020e+02
3.997510e+02 -8.002080e+02 -4.051660e+02
6.057370e-02 -1.200010e+03 -4.695380e+00
4.000600e+02 -1.199980e+03 -4.750210e+00
2.216160e-02 -8.000020e+02 -5.914160e+00
4.000310e+02 -8.000290e+02 -6.261670e+00
-4.002400e+02 -8.004780e+02 -4.053100e+02
-2.425300e-01 -8.003610e+02 -4.052020e+02
-4.001670e+02 -4.003020e+02 -4.056000e+02
-1.577340e-01 -4.003440e+02 -4.059770e+02
-3.999850e+02 -7.999940e+02 -5.563610e+00
2.216160e-02 -8.000020e+02 -5.914160e+00
-3.999150e+02 -4.000840e+02 -6.496570e+00
7.536910e-02 -4.000870e+02 -6.090740e+00
-2.425300e-01 -8.003610e+02 -4.052020e+02
3.997510e+02 -8.002080e+02 -4.051660e+02
-1.577340e-01 -4.003440e+02 -4.059770e+02
3.998500e+02 -4.003710e+02 -4.063960e+02
2.216160e-02 -8.000020e+02 -5.914160e+00
4.000310e+02 -8.000290e+02 -6.261670e+00
7.536910e-02 -4.000870e+02 -6.090740e+00
4.000660e+02 -4.001080e+02 -5.602480e+00
-4.001670e+02 -4.003020e+02 -4.056000e+02
-1.577340e-01 -4.003440e+02 -4.059770e+02
-4.002080e+02 -5.821080e-01 -4.059280e+02
-1.715700e-01 -6.017140e-01 -4.062280e+02
-3.999150e+02 -4.000840e+02 -6.496570e+00
7.536910e-02 -4.000870e+02 -6.090740e+00
-3.998740e+02 7.946410e-02 -6.754470e+00
1.077050e-01 6.945200e-02 -6.673110e+00
-1.577340e-01 -4.003440e+02 -4.059770e+02
3.998500e+02 -4.003710e+02 -4.063960e+02
-1.715700e-01 -6.017140e-01 -4.062280e+02
[...]
<PointData>
<DataArray type="Float32" Name="V1" format="ascii">
0.000000e+00
0.000000e+00
6.518040e-02
1.122650e-01
0.000000e+00
0.000000e+00
3.721410e-02
9.062670e-03
0.000000e+00
0.000000e+00
1.122650e-01
1.590200e-01
0.000000e+00
0.000000e+00
9.062670e-03
-2.002990e-02
6.518040e-02
1.122650e-01
-5.845160e-02
-4.264700e-02
3.721410e-02
9.062670e-03
2.416050e-02
5.869030e-03
1.122650e-01
1.590200e-01
-4.264700e-02
-2.619300e-02
9.062670e-03
-2.002990e-02
5.869030e-03
-1.020010e-02
-5.845160e-02
-4.264700e-02
-5.285950e-01
-5.083760e-01
2.416050e-02
5.869030e-03
2.927980e-01
2.906360e-01
-4.264700e-02
-2.619300e-02
-5.083760e-01
-4.929900e-01
5.869030e-03
-1.020010e-02
2.906360e-01
2.864940e-01
-5.285950e-01
-5.083760e-01
-2.489420e-02
-5.955490e-02
2.927980e-01
2.906360e-01
-6.805510e-02
-4.868550e-02
-5.083760e-01
-4.929900e-01
-5.955490e-02
-8.623210e-02
2.906360e-01
2.864940e-01
-4.868550e-02
-2.897700e-02
-2.489420e-02
-5.955490e-02
1.477690e-01
1.465760e-01
-6.805510e-02
-4.868550e-02
-1.106810e-02
-3.774670e-02
-5.955490e-02
-8.623210e-02
1.465760e-01
1.398320e-01
-4.868550e-02
-2.897700e-02
-3.774670e-02
-6.768650e-02
1.477690e-01
1.465760e-01
-1.477210e-01
-1.850420e-01
-1.106810e-02
-3.774670e-02
3.117150e-02
4.197080e-02
1.465760e-01
1.398320e-01
-1.850420e-01
-2.234650e-01
-3.774670e-02
-6.768650e-02
4.197080e-02
5.345090e-02
-1.477210e-01
-1.850420e-01
8.535690e-02
9.439970e-02
3.117150e-02
4.197080e-02
5.574150e-02
5.604410e-02
-1.850420e-01
-2.234650e-01
9.439970e-02
1.051870e-01
4.197080e-02
5.345090e-02
5.604410e-02
5.512340e-02
8.535690e-02
9.439970e-02
6.282610e-02
7.691660e-02
5.574150e-02
5.604410e-02
-1.947490e-02
-4.959640e-02
9.439970e-02
1.051870e-01
7.691660e-02
9.669670e-02
5.604410e-02
5.512340e-02
-4.959640e-02
-7.878230e-02
6.282610e-02
7.691660e-02
-1.243600e-01
-1.055450e-01
-1.947490e-02
-4.959640e-02
4.445210e-02
2.825590e-02
7.691660e-02
9.669670e-02
-1.055450e-01
-8.915230e-02
-4.959640e-02
-7.878230e-02
2.825590e-02
1.384890e-02
-1.243600e-01
-1.055450e-01
2.398510e-01
1.991280e-01
4.445210e-02
2.825590e-02
-3.474000e-01
-3.185210e-01
-1.055450e-01
-8.915230e-02
1.991280e-01
1.579480e-01
2.825590e-02
1.384890e-02
-3.185210e-01
-2.909120e-01
2.398510e-01
1.991280e-01
-1.013820e-01
-6.700050e-02
-3.474000e-01
-3.185210e-01
3.314070e-02
3.747920e-03
1.991280e-01
1.579480e-01
-6.700050e-02
-2.726350e-02
-3.185210e-01
-2.909120e-01
3.747920e-03
-2.388290e-02
-1.013820e-01
-6.700050e-02
-2.052190e-01
-1.983330e-01
3.314070e-02
3.747920e-03
2.003520e-01
2.056530e-01
-6.700050e-02
-2.726350e-02
-1.983330e-01
-1.917880e-01
3.747920e-03
-2.388290e-02
2.056530e-01
2.067330e-01
-2.052190e-01
-1.983330e-01
9.183280e-02
9.636780e-02
2.003520e-01
2.056530e-01
-2.250660e-02
-2.362680e-02
-1.983330e-01
-1.917880e-01
9.636780e-02
9.303360e-02
2.056530e-01
2.067330e-01
-2.362680e-02
-2.256170e-02
9.183280e-02
9.636780e-02
1.379360e-01
1.223730e-01
-2.250660e-02
-2.362680e-02
-1.666860e-01
-1.595480e-01
9.636780e-02
9.303360e-02
1.223730e-01
1.072450e-01
-2.362680e-02
-2.256170e-02
-1.595480e-01
-1.539160e-01
1.379360e-01
1.223730e-01
-2.999580e-01
-2.744280e-01
-1.666860e-01
-1.595480e-01
8.581380e-02
6.026550e-02
1.223730e-01
1.072450e-01
-2.744280e-01
-2.444550e-01
-1.595480e-01
-1.539160e-01
6.026550e-02
3.376120e-02
-2.999580e-01
-2.744280e-01
-1.733840e-02
-1.567230e-02
8.581380e-02
6.026550e-02
1.162160e-01
1.144090e-01
-2.744280e-01
-2.444550e-01
-1.567230e-02
-1.361820e-02
6.026550e-02
3.376120e-02
1.144090e-01
1.132470e-01
-1.733840e-02
-1.567230e-02
-2.611010e-02
-4.608100e-02
1.162160e-01
1.144090e-01
1.267330e-01
1.379450e-01
-1.567230e-02
-1.361820e-02
-4.608100e-02
-6.257860e-02
1.144090e-01
1.132470e-01
1.379450e-01
1.428210e-01
-2.611010e-02
-4.608100e-02
1.484600e-01
1.394060e-01
1.267330e-01
1.379450e-01
-1.258200e-01
-1.271570e-01
-4.608100e-02
-6.257860e-02
1.394060e-01
1.342070e-01
1.379450e-01
1.428210e-01
-1.271570e-01
-1.279830e-01
1.484600e-01
1.394060e-01
2.130470e-01
2.161080e-01
-1.258200e-01
-1.271570e-01
9.084300e-03
2.225170e-02
1.394060e-01
1.342070e-01
2.161080e-01
2.200820e-01
-1.271570e-01
-1.279830e-01
2.225170e-02
3.346900e-02
2.130470e-01
2.161080e-01
5.057600e-02
7.582750e-02
9.084300e-03
2.225170e-02
-2.179840e-01
-2.220210e-01
2.161080e-01
2.200820e-01
7.582750e-02
9.760110e-02
2.225170e-02
3.346900e-02
-2.220210e-01
-2.267340e-01
5.057600e-02
7.582750e-02
-1.489440e-01
-1.531420e-01
-2.179840e-01
-2.220210e-01
-2.891640e-02
-2.826250e-02
7.582750e-02
9.760110e-02
-1.531420e-01
-1.592150e-01
-2.220210e-01
-2.267340e-01
-2.826250e-02
-2.638360e-02
-1.489440e-01
-1.531420e-01
2.240160e-01
2.403390e-01
-2.891640e-02
-2.826250e-02
-5.735240e-02
-8.027400e-02
-1.531420e-01
-1.592150e-01
2.403390e-01
2.537570e-01
-2.826250e-02
-2.638360e-02
-8.027400e-02
-1.044680e-01
2.240160e-01
2.403390e-01
2.289830e-01
2.454790e-01
-5.735240e-02
-8.027400e-02
-1.894830e-01
-2.089900e-01
2.403390e-01
2.537570e-01
2.454790e-01
2.567730e-01
-8.027400e-02
-1.044680e-01
-2.089900e-01
-2.288600e-01
2.289830e-01
2.454790e-01
-1.028670e-01
-9.925650e-02
-1.894830e-01
-2.089900e-01
4.308590e-02
3.588280e-02
2.454790e-01
2.567730e-01
-9.925650e-02
-9.741570e-02
-2.089900e-01
-2.288600e-01
3.588280e-02
2.785100e-02
-1.028670e-01
-9.925650e-02
2.183660e-01
1.904500e-01
4.308590e-02
3.588280e-02
-1.412300e-01
-1.094680e-01
-9.925650e-02
-9.741570e-02
1.904500e-01
1.794620e-01
3.588280e-02
2.785100e-02
-1.094680e-01
-8.029630e-02
2.183660e-01
1.904500e-01
-2.795380e-01
-2.619250e-01
-1.412300e-01
-1.094680e-01
2.511120e-01
2.396270e-01
1.904500e-01
1.794620e-01
-2.619250e-01
-2.411430e-01
-1.094680e-01
-8.029630e-02
2.396270e-01
2.271560e-01
-2.795380e-01
-2.619250e-01
1.368510e-01
1.157700e-01
2.511120e-01
2.396270e-01
-1.059900e-01
-8.256620e-02
-2.619250e-01
-2.411430e-01
1.157700e-01
9.301060e-02
2.396270e-01
2.271560e-01
-8.256620e-02
-5.947300e-02
1.368510e-01
1.157700e-01
-6.665270e-02
-1.050520e-01
-1.059900e-01
-8.256620e-02
1.022300e-01
1.156220e-01
1.157700e-01
9.301060e-02
-1.050520e-01
-1.390920e-01
-8.256620e-02
-5.947300e-02
1.156220e-01
1.243980e-01
-6.665270e-02
-1.050520e-01
-4.326660e-01
-4.028200e-01
1.022300e-01
1.156220e-01
2.591900e-01
2.681210e-01
-1.050520e-01
-1.390920e-01
-4.028200e-01
-3.739830e-01
1.156220e-01
1.243980e-01
2.681210e-01
2.748990e-01
-4.326660e-01
-4.028200e-01
-9.002190e-02
-1.424760e-01
2.591900e-01
2.681210e-01
1.766770e-01
2.053140e-01
-4.028200e-01
-3.739830e-01
-1.424760e-01
-1.938610e-01
2.681210e-01
2.748990e-01
2.053140e-01
2.301780e-01
0.000000e+00
0.000000e+00
3.721410e-02
9.062670e-03
0.000000e+00
0.000000e+00
-1.544870e-01
-1.335490e-01
0.000000e+00
0.000000e+00
9.062670e-03
-2.002990e-02
0.000000e+00
0.000000e+00
-1.335490e-01
-1.102970e-01
3.721410e-02
9.062670e-03
2.416050e-02
5.869030e-03
-1.544870e-01
-1.335490e-01
4.180690e-02
3.456850e-02
9.062670e-03
-2.002990e-02
5.869030e-03
-1.020010e-02
-1.335490e-01
-1.102970e-01
3.456850e-02
3.293430e-02
2.416050e-02
5.869030e-03
2.927980e-01
2.906360e-01
4.180690e-02
3.456850e-02
-7.240700e-02
-7.719070e-02
5.869030e-03
-1.020010e-02
2.906360e-01
2.864940e-01
3.456850e-02
3.293430e-02
-7.719070e-02
-8.126030e-02
2.927980e-01
2.906360e-01
-6.805510e-02
-4.868550e-02
-7.240700e-02
-7.719070e-02
1.894790e-01
1.764180e-01
2.906360e-01
2.864940e-01
-4.868550e-02
-2.897700e-02
-7.719070e-02
-8.126030e-02
1.764180e-01
1.635070e-01
-6.805510e-02
-4.868550e-02
-1.106810e-02
-3.774670e-02
1.894790e-01
1.764180e-01
-1.344850e-01
-8.474530e-02
-4.868550e-02
-2.897700e-02
-3.774670e-02
-6.768650e-02
1.764180e-01
1.635070e-01
-8.474530e-02
-2.747580e-02
-1.106810e-02
-3.774670e-02
3.117150e-02
4.197080e-02
-1.344850e-01
-8.474530e-02
1.024820e-01
1.046890e-01
-3.774670e-02
-6.768650e-02
4.197080e-02
5.345090e-02
-8.474530e-02
-2.747580e-02
1.046890e-01
1.078750e-01
3.117150e-02
4.197080e-02
5.574150e-02
5.604410e-02
1.024820e-01
1.046890e-01
-1.928070e-01
-1.973790e-01
4.197080e-02
5.345090e-02
5.604410e-02
5.512340e-02
1.046890e-01
1.078750e-01
-1.973790e-01
-2.014260e-01
5.574150e-02
5.604410e-02
-1.947490e-02
-4.959640e-02
-1.928070e-01
-1.973790e-01
-4.764810e-02
-5.107100e-03
5.604410e-02
5.512340e-02
-4.959640e-02
-7.878230e-02
-1.973790e-01
-2.014260e-01
-5.107100e-03
3.376030e-02
-1.947490e-02
-4.959640e-02
4.445210e-02
2.825590e-02
-4.764810e-02
-5.107100e-03
4.863540e-02
6.309240e-02
-4.959640e-02
-7.878230e-02
2.825590e-02
1.384890e-02
-5.107100e-03
3.376030e-02
6.309240e-02
7.609410e-02
4.445210e-02
2.825590e-02
-3.474000e-01
-3.185210e-01
4.863540e-02
6.309240e-02
4.503610e-01
4.351670e-01
2.825590e-02
1.384890e-02
-3.185210e-01
-2.909120e-01
6.309240e-02
7.609410e-02
4.351670e-01
4.219520e-01
-3.474000e-01
-3.185210e-01
3.314070e-02
3.747920e-03
4.503610e-01
4.351670e-01
3.363750e-02
5.057370e-02
-3.185210e-01
-2.909120e-01
3.747920e-03
-2.388290e-02
4.351670e-01
4.219520e-01
5.057370e-02
6.359250e-02
3.314070e-02
3.747920e-03
2.003520e-01
2.056530e-01
3.363750e-02
5.057370e-02
-1.804640e-01
-1.975210e-01
3.747920e-03
-2.388290e-02
2.056530e-01
2.067330e-01
5.057370e-02
6.359250e-02
-1.975210e-01
-2.116600e-01
2.003520e-01
2.056530e-01
-2.250660e-02
-2.362680e-02
-1.804640e-01
-1.975210e-01
-4.810650e-02
-4.569870e-02
2.056530e-01
2.067330e-01
-2.362680e-02
-2.256170e-02
-1.975210e-01
-2.116600e-01
-4.569870e-02
-3.453290e-02
-2.250660e-02
-2.362680e-02
-1.666860e-01
-1.595480e-01
-4.810650e-02
-4.569870e-02
1.912660e-01
1.949550e-01
-2.362680e-02
-2.256170e-02
-1.595480e-01
-1.539160e-01
-4.569870e-02
-3.453290e-02
1.949550e-01
1.983140e-01
-1.666860e-01
-1.595480e-01
8.581380e-02
6.026550e-02
1.912660e-01
1.949550e-01
1.175030e-01
1.507640e-01
-1.595480e-01
-1.539160e-01
6.026550e-02
3.376120e-02
1.949550e-01
1.983140e-01
1.507640e-01
1.809450e-01
8.581380e-02
6.026550e-02
1.162160e-01
1.144090e-01
1.175030e-01
1.507640e-01
-2.251720e-01
-2.177190e-01
6.026550e-02
3.376120e-02
1.144090e-01
1.132470e-01
1.507640e-01
1.809450e-01
-2.177190e-01
-2.141530e-01
1.162160e-01
1.144090e-01
1.267330e-01
1.379450e-01
-2.251720e-01
-2.177190e-01
-2.189120e-01
-2.219630e-01
1.144090e-01
1.132470e-01
1.379450e-01
1.428210e-01
-2.177190e-01
-2.141530e-01
-2.219630e-01
-2.192470e-01
1.267330e-01
1.379450e-01
-1.258200e-01
-1.271570e-01
-2.189120e-01
-2.219630e-01
8.892390e-02
9.613020e-02
1.379450e-01
1.428210e-01
-1.271570e-01
-1.279830e-01
-2.219630e-01
-2.192470e-01
9.613020e-02
9.823880e-02
-1.258200e-01
-1.271570e-01
9.084300e-03
2.225170e-02
8.892390e-02
9.613020e-02
-2.211870e-01
-2.550350e-01
-1.271570e-01
-1.279830e-01
2.225170e-02
3.346900e-02
9.613020e-02
9.823880e-02
-2.550350e-01
-2.886900e-01
9.084300e-03
2.225170e-02
-2.179840e-01
-2.220210e-01
-2.211870e-01
-2.550350e-01
3.828080e-01
3.698320e-01
2.225170e-02
3.346900e-02
-2.220210e-01
-2.267340e-01
-2.550350e-01
-2.886900e-01
3.698320e-01
3.657560e-01
-2.179840e-01
-2.220210e-01
-2.891640e-02
-2.826250e-02
3.828080e-01
3.698320e-01
2.042860e-01
2.117700e-01
-2.220210e-01
-2.267340e-01
-2.826250e-02
-2.638360e-02
3.698320e-01
3.657560e-01
2.117700e-01
2.139140e-01
-2.891640e-02
-2.826250e-02
-5.735240e-02
-8.027400e-02
2.042860e-01
2.117700e-01
-1.051570e-01
-7.863770e-02
-2.826250e-02
-2.638360e-02
-8.027400e-02
-1.044680e-01
2.117700e-01
2.139140e-01
-7.863770e-02
-4.812560e-02
-5.735240e-02
-8.027400e-02
-1.894830e-01
-2.089900e-01
-1.051570e-01
-7.863770e-02
1.805680e-01
1.943900e-01
-8.027400e-02
-1.044680e-01
-2.089900e-01
-2.288600e-01
-7.863770e-02
-4.812560e-02
1.943900e-01
2.138290e-01
-1.894830e-01
-2.089900e-01
4.308590e-02
3.588280e-02
1.805680e-01
1.943900e-01
-7.612670e-03
7.093210e-03
-2.089900e-01
-2.288600e-01
3.588280e-02
2.785100e-02
1.943900e-01
2.138290e-01
7.093210e-03
2.419640e-02
4.308590e-02
3.588280e-02
-1.412300e-01
-1.094680e-01
-7.612670e-03
7.093210e-03
5.797870e-02
3.496360e-02
3.588280e-02
2.785100e-02
-1.094680e-01
-8.029630e-02
7.093210e-03
2.419640e-02
3.496360e-02
2.089870e-04
-1.412300e-01
-1.094680e-01
2.511120e-01
2.396270e-01
5.797870e-02
3.496360e-02
-2.132880e-01
-2.199460e-01
-1.094680e-01
-8.029630e-02
2.396270e-01
2.271560e-01
3.496360e-02
2.089870e-04
-2.199460e-01
-2.277770e-01
2.511120e-01
2.396270e-01
-1.059900e-01
-8.256620e-02
-2.132880e-01
-2.199460e-01
6.936260e-02
4.681640e-02
2.396270e-01
2.271560e-01
-8.256620e-02
-5.947300e-02
-2.199460e-01
-2.277770e-01
4.681640e-02
2.839510e-02
-1.059900e-01
-8.256620e-02
1.022300e-01
1.156220e-01
6.936260e-02
4.681640e-02
-1.271100e-01
-1.221480e-01
-8.256620e-02
-5.947300e-02
1.156220e-01
1.243980e-01
4.681640e-02
2.839510e-02
-1.221480e-01
-1.145830e-01
1.022300e-01
1.156220e-01
2.591900e-01
2.681210e-01
-1.271100e-01
-1.221480e-01
-1.221480e-01
-1.476540e-01
1.156220e-01
1.243980e-01
2.681210e-01
2.748990e-01
-1.221480e-01
-1.145830e-01
-1.476540e-01
-1.690350e-01
2.591900e-01
2.681210e-01
1.766770e-01
2.053140e-01
-1.221480e-01
-1.476540e-01
-2.191280e-01
-2.430480e-01
2.681210e-01
2.748990e-01
2.053140e-01
2.301780e-01
-1.476540e-01
-1.690350e-01
-2.430480e-01
-2.610910e-01
</DataArray>
<DataArray type="Float32" Name="V2" format="ascii">
0.000000e+00
0.000000e+00
-7.998040e-01
-4.852030e-01
0.000000e+00
0.000000e+00
1.881080e-01
8.826590e-02
0.000000e+00
0.000000e+00
-4.852030e-01
-2.624320e-01
0.000000e+00
0.000000e+00
8.826590e-02
-6.998220e-02
-7.998040e-01
-4.852030e-01
-2.782510e-01
-2.922110e-03
1.881080e-01
8.826590e-02
-1.591950e-01
-2.258350e-01
-4.852030e-01
-2.624320e-01
-2.922110e-03
2.776440e-01
8.826590e-02
-6.998220e-02
-2.258350e-01
-2.328290e-01
-2.782510e-01
-2.922110e-03
3.958620e-01
-6.767830e-02
-1.591950e-01
-2.258350e-01
5.031880e-02
2.936730e-01
-2.922110e-03
2.776440e-01
-6.767830e-02
-4.364640e-01
-2.258350e-01
-2.328290e-01
2.936730e-01
5.049320e-01
3.958620e-01
-6.767830e-02
4.446470e-01
1.440870e-01
5.031880e-02
2.936730e-01
6.727220e-02
1.800330e-02
-6.767830e-02
-4.364640e-01
1.440870e-01
-1.260750e-01
2.936730e-01
5.049320e-01
1.800330e-02
-5.896310e-02
4.446470e-01
1.440870e-01
3.155830e-01
3.117840e-01
6.727220e-02
1.800330e-02
-1.720980e-01
-2.526780e-01
1.440870e-01
-1.260750e-01
3.117840e-01
3.187090e-01
1.800330e-02
-5.896310e-02
-2.526780e-01
-2.668960e-01
3.155830e-01
3.117840e-01
1.359050e-01
7.363640e-02
-1.720980e-01
-2.526780e-01
-2.097190e-01
-1.635700e-01
3.117840e-01
3.187090e-01
7.363640e-02
-4.452770e-02
-2.526780e-01
-2.668960e-01
-1.635700e-01
-1.492720e-01
1.359050e-01
7.363640e-02
-3.178810e-01
-1.131940e-01
-2.097190e-01
-1.635700e-01
1.632080e-01
-9.231840e-03
7.363640e-02
-4.452770e-02
-1.131940e-01
-1.319670e-01
-1.635700e-01
-1.492720e-01
-9.231840e-03
-8.658460e-03
-3.178810e-01
-1.131940e-01
5.214350e-02
8.661310e-02
1.632080e-01
-9.231840e-03
-6.919240e-02
-2.273970e-03
-1.131940e-01
-1.319670e-01
8.661310e-02
2.399750e-01
-9.231840e-03
-8.658460e-03
-2.273970e-03
5.186530e-02
5.214350e-02
8.661310e-02
-8.064870e-02
-2.776600e-03
-6.919240e-02
-2.273970e-03
2.335430e-01
1.652520e-01
8.661310e-02
2.399750e-01
-2.776600e-03
2.304870e-01
-2.273970e-03
5.186530e-02
1.652520e-01
9.507860e-04
-8.064870e-02
-2.776600e-03
-2.058820e-01
-1.906120e-01
2.335430e-01
1.652520e-01
3.653810e-01
3.014680e-01
-2.776600e-03
2.304870e-01
-1.906120e-01
-1.646730e-01
1.652520e-01
9.507860e-04
3.014680e-01
2.378570e-01
-2.058820e-01
-1.906120e-01
6.969520e-01
4.038670e-01
3.653810e-01
3.014680e-01
-4.296370e-01
-1.260060e-01
-1.906120e-01
-1.646730e-01
4.038670e-01
1.450910e-01
3.014680e-01
2.378570e-01
-1.260060e-01
1.632550e-01
6.969520e-01
4.038670e-01
-6.616580e-01
5.313700e-02
-4.296370e-01
-1.260060e-01
3.809310e-01
-1.638580e-02
4.038670e-01
1.450910e-01
5.313700e-02
7.228780e-01
-1.260060e-01
1.632550e-01
-1.638580e-02
-4.289470e-01
-6.616580e-01
5.313700e-02
-7.970360e-02
-2.610490e-04
3.809310e-01
-1.638580e-02
1.785170e-02
-5.933270e-02
5.313700e-02
7.228780e-01
-2.610490e-04
3.003720e-02
-1.638580e-02
-4.289470e-01
-5.933270e-02
-9.452820e-02
-7.970360e-02
-2.610490e-04
3.173030e-01
-1.899530e-01
1.785170e-02
-5.933270e-02
-2.434800e-01
1.000490e-01
-2.610490e-04
3.003720e-02
-1.899530e-01
-6.525580e-01
-5.933270e-02
-9.452820e-02
1.000490e-01
5.029860e-01
3.173030e-01
-1.899530e-01
-3.951070e-01
8.346950e-02
-2.434800e-01
1.000490e-01
5.720240e-02
-1.249800e-01
-1.899530e-01
-6.525580e-01
8.346950e-02
4.918250e-01
1.000490e-01
5.029860e-01
-1.249800e-01
-2.435890e-01
-3.951070e-01
8.346950e-02
3.926060e-01
3.281340e-01
5.720240e-02
-1.249800e-01
-1.944840e-01
-7.550420e-02
8.346950e-02
4.918250e-01
3.281340e-01
2.651820e-01
-1.249800e-01
-2.435890e-01
-7.550420e-02
-2.860710e-02
3.926060e-01
3.281340e-01
7.520580e-01
3.674800e-01
-1.944840e-01
-7.550420e-02
-3.123950e-01
-7.907810e-02
3.281340e-01
2.651820e-01
3.674800e-01
-6.628630e-02
-7.550420e-02
-2.860710e-02
-7.907810e-02
1.529950e-01
7.520580e-01
3.674800e-01
-1.973350e-01
-2.588640e-01
-3.123950e-01
-7.907810e-02
2.539000e-01
1.728470e-01
3.674800e-01
-6.628630e-02
-2.588640e-01
-3.247080e-01
-7.907810e-02
1.529950e-01
1.728470e-01
1.580940e-01
-1.973350e-01
-2.588640e-01
5.486300e-02
-1.675960e-01
2.539000e-01
1.728470e-01
-4.011870e-01
-1.055920e-01
-2.588640e-01
-3.247080e-01
-1.675960e-01
-3.543380e-01
1.728470e-01
1.580940e-01
-1.055920e-01
2.206350e-01
5.486300e-02
-1.675960e-01
-7.668370e-02
-2.041980e-01
-4.011870e-01
-1.055920e-01
2.301320e-02
2.076530e-02
-1.675960e-01
-3.543380e-01
-2.041980e-01
-2.183830e-01
-1.055920e-01
2.206350e-01
2.076530e-02
2.032520e-02
-7.668370e-02
-2.041980e-01
1.611280e-01
1.402620e-01
2.301320e-02
2.076530e-02
-4.464720e-02
3.621530e-02
-2.041980e-01
-2.183830e-01
1.402620e-01
1.499310e-01
2.076530e-02
2.032520e-02
3.621530e-02
-7.319310e-03
1.611280e-01
1.402620e-01
1.295520e-01
5.843960e-01
-4.464720e-02
3.621530e-02
-5.631300e-02
-2.294570e-01
1.402620e-01
1.499310e-01
5.843960e-01
9.548300e-01
3.621530e-02
-7.319310e-03
-2.294570e-01
-3.720640e-01
1.295520e-01
5.843960e-01
-4.080020e-01
-1.898520e-01
-5.631300e-02
-2.294570e-01
5.658680e-01
3.102100e-01
5.843960e-01
9.548300e-01
-1.898520e-01
9.714200e-02
-2.294570e-01
-3.720640e-01
3.102100e-01
7.204990e-02
-4.080020e-01
-1.898520e-01
1.076950e-01
-6.072960e-02
5.658680e-01
3.102100e-01
-3.508620e-01
-6.115080e-02
-1.898520e-01
9.714200e-02
-6.072960e-02
-2.847090e-01
3.102100e-01
7.204990e-02
-6.115080e-02
2.109740e-01
1.076950e-01
-6.072960e-02
-4.045710e-01
-1.724430e-01
-3.508620e-01
-6.115080e-02
1.907090e-01
2.722760e-02
-6.072960e-02
-2.847090e-01
-1.724430e-01
-3.927940e-02
-6.115080e-02
2.109740e-01
2.722760e-02
-2.637320e-02
-4.045710e-01
-1.724430e-01
-3.319260e-01
-1.643400e-01
1.907090e-01
2.722760e-02
2.678950e-01
4.790890e-02
-1.724430e-01
-3.927940e-02
-1.643400e-01
2.932830e-02
2.722760e-02
-2.637320e-02
4.790890e-02
-1.662010e-01
-3.319260e-01
-1.643400e-01
3.375030e-01
-1.145550e-01
2.678950e-01
4.790890e-02
-2.385540e-01
3.612720e-02
-1.643400e-01
2.932830e-02
-1.145550e-01
-5.395820e-01
4.790890e-02
-1.662010e-01
3.612720e-02
2.517260e-01
3.375030e-01
-1.145550e-01
3.288140e-01
3.397630e-01
-2.385540e-01
3.612720e-02
8.279380e-02
-4.958960e-02
-1.145550e-01
-5.395820e-01
3.397630e-01
3.065150e-01
3.612720e-02
2.517260e-01
-4.958960e-02
-1.572760e-01
3.288140e-01
3.397630e-01
-1.378660e-01
3.143330e-01
8.279380e-02
-4.958960e-02
1.797290e-01
-1.618060e-01
3.397630e-01
3.065150e-01
3.143330e-01
8.512270e-01
-4.958960e-02
-1.572760e-01
-1.618060e-01
-5.486430e-01
-1.378660e-01
3.143330e-01
-5.207720e-01
-3.204180e-01
1.797290e-01
-1.618060e-01
3.253940e-01
1.897360e-01
3.143330e-01
8.512270e-01
-3.204180e-01
-4.197700e-02
-1.618060e-01
-5.486430e-01
1.897360e-01
3.418380e-02
0.000000e+00
0.000000e+00
1.881080e-01
8.826590e-02
0.000000e+00
0.000000e+00
4.041690e-01
3.293400e-01
0.000000e+00
0.000000e+00
8.826590e-02
-6.998220e-02
0.000000e+00
0.000000e+00
3.293400e-01
3.888810e-01
1.881080e-01
8.826590e-02
-1.591950e-01
-2.258350e-01
4.041690e-01
3.293400e-01
5.803360e-01
4.407840e-01
8.826590e-02
-6.998220e-02
-2.258350e-01
-2.328290e-01
3.293400e-01
3.888810e-01
4.407840e-01
1.733740e-01
-1.591950e-01