<?xml version="1.0"?>
<VTKFile type="UnstructuredGrid" version="0.1" byte_order="LittleEndian" compressor="vtkZLibDataCompressor">
<UnstructuredGrid>
<Piece NumberOfPoints="960" NumberOfCells="120">
<Points>
<DataArray type="Float32" NumberOfComponents="3" format="ascii">
-4.000000e+02 -6.000000e+03 -4.000000e+02
0.000000e+00 -6.000000e+03 -4.000000e+02
-4.000960e+02 -5.600360e+03 -3.998340e+02
-9.745580e-02 -5.600360e+03 -3.999220e+02
-4.000000e+02 -6.000000e+03 0.000000e+00
0.000000e+00 -6.000000e+03 0.000000e+00
-3.999930e+02 -5.599930e+03 -3.397360e-01
7.357840e-03 -5.599930e+03 -4.352350e-01
0.000000e+00 -6.000000e+03 -4.000000e+02
4.000000e+02 -6.000000e+03 -4.000000e+02
-9.745580e-02 -5.600360e+03 -3.999220e+02
3.999020e+02 -5.600350e+03 -4.000120e+02
0.000000e+00 -6.000000e+03 0.000000e+00
4.000000e+02 -6.000000e+03 0.000000e+00
7.357840e-03 -5.599930e+03 -4.352350e-01
4.000080e+02 -5.599930e+03 -5.291820e-01
-4.000960e+02 -5.600360e+03 -3.998340e+02
-9.745580e-02 -5.600360e+03 -3.999220e+02
-4.002200e+02 -5.200200e+03 -4.004560e+02
-2.190440e-01 -5.200200e+03 -4.006320e+02
-3.999930e+02 -5.599930e+03 -3.397360e-01
7.357840e-03 -5.599930e+03 -4.352350e-01
-3.999720e+02 -5.199960e+03 1.684960e-01
2.722550e-02 -5.200010e+03 -1.340000e-02
-9.745580e-02 -5.600360e+03 -3.999220e+02
3.999020e+02 -5.600350e+03 -4.000120e+02
-2.190440e-01 -5.200200e+03 -4.006320e+02
3.997810e+02 -5.200190e+03 -4.008100e+02
7.357840e-03 -5.599930e+03 -4.352350e-01
4.000080e+02 -5.599930e+03 -5.291820e-01
2.722550e-02 -5.200010e+03 -1.340000e-02
4.000270e+02 -5.200050e+03 -1.973360e-01
-4.002200e+02 -5.200200e+03 -4.004560e+02
-2.190440e-01 -5.200200e+03 -4.006320e+02
-4.001080e+02 -4.800010e+03 -4.003910e+02
-1.076950e-01 -4.800090e+03 -4.003500e+02
-3.999720e+02 -5.199960e+03 1.684960e-01
2.722550e-02 -5.200010e+03 -1.340000e-02
-4.000100e+02 -4.800000e+03 -7.667890e-02
-1.056810e-02 -4.799970e+03 -3.912140e-01
-2.190440e-01 -5.200200e+03 -4.006320e+02
3.997810e+02 -5.200190e+03 -4.008100e+02
-1.076950e-01 -4.800090e+03 -4.003500e+02
3.998920e+02 -4.800170e+03 -4.003100e+02
2.722550e-02 -5.200010e+03 -1.340000e-02
4.000270e+02 -5.200050e+03 -1.973360e-01
-1.056810e-02 -4.799970e+03 -3.912140e-01
3.999890e+02 -4.799940e+03 -7.003070e-01
-4.001080e+02 -4.800010e+03 -4.003910e+02
-1.076950e-01 -4.800090e+03 -4.003500e+02
-4.001230e+02 -4.399940e+03 -4.004640e+02
-1.208530e-01 -4.400000e+03 -4.005630e+02
-4.000100e+02 -4.800000e+03 -7.667890e-02
-1.056810e-02 -4.799970e+03 -3.912140e-01
-3.999510e+02 -4.400070e+03 -4.761980e-01
4.720470e-02 -4.400010e+03 -5.220470e-01
-1.076950e-01 -4.800090e+03 -4.003500e+02
3.998920e+02 -4.800170e+03 -4.003100e+02
-1.208530e-01 -4.400000e+03 -4.005630e+02
3.998810e+02 -4.400050e+03 -4.006600e+02
-1.056810e-02 -4.799970e+03 -3.912140e-01
3.999890e+02 -4.799940e+03 -7.003070e-01
4.720470e-02 -4.400010e+03 -5.220470e-01
4.000460e+02 -4.399960e+03 -5.664420e-01
-4.001230e+02 -4.399940e+03 -4.004640e+02
-1.208530e-01 -4.400000e+03 -4.005630e+02
-4.000050e+02 -4.000030e+03 -4.003650e+02
-5.616580e-03 -4.000010e+03 -4.005270e+02
-3.999510e+02 -4.400070e+03 -4.761980e-01
4.720470e-02 -4.400010e+03 -5.220470e-01
-4.000190e+02 -4.000010e+03 -6.039770e-01
-1.825560e-02 -4.000060e+03 -4.974070e-01
-1.208530e-01 -4.400000e+03 -4.005630e+02
3.998810e+02 -4.400050e+03 -4.006600e+02
-5.616580e-03 -4.000010e+03 -4.005270e+02
3.999930e+02 -3.999990e+03 -4.006890e+02
4.720470e-02 -4.400010e+03 -5.220470e-01
4.000460e+02 -4.399960e+03 -5.664420e-01
-1.825560e-02 -4.000060e+03 -4.974070e-01
3.999830e+02 -4.000100e+03 -3.899800e-01
-4.000050e+02 -4.000030e+03 -4.003650e+02
-5.616580e-03 -4.000010e+03 -4.005270e+02
-4.000110e+02 -3.600280e+03 -4.006360e+02
-1.124260e-02 -3.600200e+03 -4.004390e+02
-4.000190e+02 -4.000010e+03 -6.039770e-01
-1.825560e-02 -4.000060e+03 -4.974070e-01
-4.000130e+02 -3.599830e+03 -4.906970e-01
-1.306010e-02 -3.599920e+03 -6.694770e-01
-5.616580e-03 -4.000010e+03 -4.005270e+02
3.999930e+02 -3.999990e+03 -4.006890e+02
-1.124260e-02 -3.600200e+03 -4.004390e+02
3.999890e+02 -3.600120e+03 -4.002420e+02
-1.825560e-02 -4.000060e+03 -4.974070e-01
3.999830e+02 -4.000100e+03 -3.899800e-01
-1.306010e-02 -3.599920e+03 -6.694770e-01
3.999870e+02 -3.600000e+03 -8.466070e-01
-4.000110e+02 -3.600280e+03 -4.006360e+02
-1.124260e-02 -3.600200e+03 -4.004390e+02
-3.999630e+02 -3.200150e+03 -4.008950e+02
3.687680e-02 -3.200140e+03 -4.008400e+02
-4.000130e+02 -3.599830e+03 -4.906970e-01
-1.306010e-02 -3.599920e+03 -6.694770e-01
-4.000370e+02 -3.200030e+03 -6.769710e-01
-3.710670e-02 -3.199990e+03 -6.961950e-01
-1.124260e-02 -3.600200e+03 -4.004390e+02
3.999890e+02 -3.600120e+03 -4.002420e+02
3.687680e-02 -3.200140e+03 -4.008400e+02
4.000370e+02 -3.200140e+03 -4.007880e+02
-1.306010e-02 -3.599920e+03 -6.694770e-01
3.999870e+02 -3.600000e+03 -8.466070e-01
-3.710670e-02 -3.199990e+03 -6.961950e-01
3.999630e+02 -3.199930e+03 -7.154340e-01
-3.999630e+02 -3.200150e+03 -4.008950e+02
3.687680e-02 -3.200140e+03 -4.008400e+02
-4.000000e+02 -2.800070e+03 -4.007770e+02
-1.011800e-03 -2.800100e+03 -4.008610e+02
-4.000370e+02 -3.200030e+03 -6.769710e-01
-3.710670e-02 -3.199990e+03 -6.961950e-01
-3.999780e+02 -2.800090e+03 -7.276610e-01
2.244370e-02 -2.800060e+03 -7.424440e-01
3.687680e-02 -3.200140e+03 -4.008400e+02
4.000370e+02 -3.200140e+03 -4.007880e+02
-1.011800e-03 -2.800100e+03 -4.008610e+02
3.999980e+02 -2.800140e+03 -4.009430e+02
-3.710670e-02 -3.199990e+03 -6.961950e-01
3.999630e+02 -3.199930e+03 -7.154340e-01
2.244370e-02 -2.800060e+03 -7.424440e-01
4.000230e+02 -2.800020e+03 -7.564780e-01
-4.000000e+02 -2.800070e+03 -4.007770e+02
-1.011800e-03 -2.800100e+03 -4.008610e+02
-4.000470e+02 -2.400140e+03 -4.009110e+02
-4.686810e-02 -2.400180e+03 -4.011110e+02
-3.999780e+02 -2.800090e+03 -7.276610e-01
2.244370e-02 -2.800060e+03 -7.424440e-01
-3.999960e+02 -2.400060e+03 -9.448260e-01
3.061860e-03 -2.400010e+03 -9.757920e-01
-1.011800e-03 -2.800100e+03 -4.008610e+02
3.999980e+02 -2.800140e+03 -4.009430e+02
-4.686810e-02 -2.400180e+03 -4.011110e+02
3.999540e+02 -2.400230e+03 -4.013100e+02
2.244370e-02 -2.800060e+03 -7.424440e-01
4.000230e+02 -2.800020e+03 -7.564780e-01
3.061860e-03 -2.400010e+03 -9.757920e-01
4.000020e+02 -2.399960e+03 -1.009970e+00
-4.000470e+02 -2.400140e+03 -4.009110e+02
-4.686810e-02 -2.400180e+03 -4.011110e+02
-4.000920e+02 -2.000160e+03 -4.011520e+02
-9.271800e-02 -2.000130e+03 -4.011860e+02
-3.999960e+02 -2.400060e+03 -9.448260e-01
3.061860e-03 -2.400010e+03 -9.757920e-01
-3.999970e+02 -2.000070e+03 -1.206610e+00
3.304250e-03 -2.000080e+03 -1.308450e+00
-4.686810e-02 -2.400180e+03 -4.011110e+02
3.999540e+02 -2.400230e+03 -4.013100e+02
-9.271800e-02 -2.000130e+03 -4.011860e+02
3.999070e+02 -2.000090e+03 -4.012140e+02
3.061860e-03 -2.400010e+03 -9.757920e-01
4.000020e+02 -2.399960e+03 -1.009970e+00
3.304250e-03 -2.000080e+03 -1.308450e+00
4.000030e+02 -2.000100e+03 -1.413870e+00
-4.000920e+02 -2.000160e+03 -4.011520e+02
-9.271800e-02 -2.000130e+03 -4.011860e+02
-4.000490e+02 -1.600320e+03 -4.012450e+02
-4.747540e-02 -1.600310e+03 -4.013100e+02
-3.999970e+02 -2.000070e+03 -1.206610e+00
3.304250e-03 -2.000080e+03 -1.308450e+00
-3.999660e+02 -1.599900e+03 -1.617110e+00
3.323790e-02 -1.599900e+03 -1.570910e+00
-9.271800e-02 -2.000130e+03 -4.011860e+02
3.999070e+02 -2.000090e+03 -4.012140e+02
-4.747540e-02 -1.600310e+03 -4.013100e+02
3.999540e+02 -1.600300e+03 -4.013760e+02
3.304250e-03 -2.000080e+03 -1.308450e+00
4.000030e+02 -2.000100e+03 -1.413870e+00
3.323790e-02 -1.599900e+03 -1.570910e+00
4.000320e+02 -1.599910e+03 -1.526030e+00
-4.000490e+02 -1.600320e+03 -4.012450e+02
-4.747540e-02 -1.600310e+03 -4.013100e+02
-3.999990e+02 -1.200340e+03 -4.020110e+02
1.548690e-03 -1.200350e+03 -4.019240e+02
-3.999660e+02 -1.599900e+03 -1.617110e+00
3.323790e-02 -1.599900e+03 -1.570910e+00
-3.999950e+02 -1.199920e+03 -2.169640e+00
5.197920e-03 -1.199890e+03 -2.167490e+00
-4.747540e-02 -1.600310e+03 -4.013100e+02
3.999540e+02 -1.600300e+03 -4.013760e+02
1.548690e-03 -1.200350e+03 -4.019240e+02
4.000020e+02 -1.200370e+03 -4.018310e+02
3.323790e-02 -1.599900e+03 -1.570910e+00
4.000320e+02 -1.599910e+03 -1.526030e+00
5.197920e-03 -1.199890e+03 -2.167490e+00
4.000050e+02 -1.199870e+03 -2.165020e+00
-3.999990e+02 -1.200340e+03 -4.020110e+02
1.548690e-03 -1.200350e+03 -4.019240e+02
-3.999740e+02 -8.001030e+02 -4.023770e+02
2.650450e-02 -8.000780e+02 -4.024300e+02
-3.999950e+02 -1.199920e+03 -2.169640e+00
5.197920e-03 -1.199890e+03 -2.167490e+00
-3.999950e+02 -8.000870e+02 -2.007730e+00
4.190990e-03 -8.000730e+02 -1.916180e+00
1.548690e-03 -1.200350e+03 -4.019240e+02
4.000020e+02 -1.200370e+03 -4.018310e+02
2.650450e-02 -8.000780e+02 -4.024300e+02
4.000270e+02 -8.000550e+02 -4.024780e+02
5.197920e-03 -1.199890e+03 -2.167490e+00
4.000050e+02 -1.199870e+03 -2.165020e+00
4.190990e-03 -8.000730e+02 -1.916180e+00
4.000040e+02 -8.000550e+02 -1.824910e+00
-3.999740e+02 -8.001030e+02 -4.023770e+02
2.650450e-02 -8.000780e+02 -4.024300e+02
-3.998890e+02 -3.999700e+02 -4.018260e+02
1.111250e-01 -3.999340e+02 -4.017240e+02
-3.999950e+02 -8.000870e+02 -2.007730e+00
4.190990e-03 -8.000730e+02 -1.916180e+00
-4.000060e+02 -4.000520e+02 -2.180080e+00
-6.430520e-03 -4.000560e+02 -2.085790e+00
2.650450e-02 -8.000780e+02 -4.024300e+02
4.000270e+02 -8.000550e+02 -4.024780e+02
1.111250e-01 -3.999340e+02 -4.017240e+02
4.001110e+02 -3.999020e+02 -4.016220e+02
4.190990e-03 -8.000730e+02 -1.916180e+00
4.000040e+02 -8.000550e+02 -1.824910e+00
-6.430520e-03 -4.000560e+02 -2.085790e+00
3.999930e+02 -4.000580e+02 -1.990940e+00
-3.998890e+02 -3.999700e+02 -4.018260e+02
1.111250e-01 -3.999340e+02 -4.017240e+02
-3.999400e+02 6.510290e-02 -4.020580e+02
6.036350e-02 5.708730e-02 -4.019270e+02
-4.000060e+02 -4.000520e+02 -2.180080e+00
-6.430520e-03 -4.000560e+02 -2.085790e+00
-3.999680e+02 2.764220e-02 -1.968780e+00
3.088140e-02 4.743600e-02 -1.859220e+00
1.111250e-01 -3.999340e+02 -4.017240e+02
4.001110e+02 -3.999020e+02 -4.016220e+02
[...]
<PointData>
<DataArray type="Float32" Name="V1" format="ascii">
0.000000e+00
0.000000e+00
1.447540e-02
1.484900e-02
0.000000e+00
0.000000e+00
-3.132230e-02
-3.116100e-02
0.000000e+00
0.000000e+00
1.484900e-02
1.527150e-02
0.000000e+00
0.000000e+00
-3.116100e-02
-3.106450e-02
1.447540e-02
1.484900e-02
-2.576890e-02
-2.337690e-02
-3.132230e-02
-3.116100e-02
8.867110e-02
8.848650e-02
1.484900e-02
1.527150e-02
-2.337690e-02
-2.100890e-02
-3.116100e-02
-3.106450e-02
8.848650e-02
8.838140e-02
-2.576890e-02
-2.337690e-02
-1.538580e-02
-1.724570e-02
8.867110e-02
8.848650e-02
-2.532610e-02
-2.664170e-02
-2.337690e-02
-2.100890e-02
-1.724570e-02
-1.925460e-02
8.848650e-02
8.838140e-02
-2.664170e-02
-2.796910e-02
-1.538580e-02
-1.724570e-02
3.565790e-02
3.691410e-02
-2.532610e-02
-2.664170e-02
-4.331920e-02
-4.442450e-02
-1.724570e-02
-1.925460e-02
3.691410e-02
3.836180e-02
-2.664170e-02
-2.796910e-02
-4.442450e-02
-4.557540e-02
3.565790e-02
3.691410e-02
-2.086990e-02
-2.056010e-02
-4.331920e-02
-4.442450e-02
6.952340e-02
7.015820e-02
3.691410e-02
3.836180e-02
-2.056010e-02
-2.023720e-02
-4.442450e-02
-4.557540e-02
7.015820e-02
7.080950e-02
-2.086990e-02
-2.056010e-02
-1.287860e-02
-1.420740e-02
6.952340e-02
7.015820e-02
-2.771790e-02
-2.593930e-02
-2.056010e-02
-2.023720e-02
-1.420740e-02
-1.562700e-02
7.015820e-02
7.080950e-02
-2.593930e-02
-2.417570e-02
-1.287860e-02
-1.420740e-02
-2.562580e-03
-2.991930e-03
-2.771790e-02
-2.593930e-02
-7.778970e-03
-5.869650e-03
-1.420740e-02
-1.562700e-02
-2.991930e-03
-3.369120e-03
-2.593930e-02
-2.417570e-02
-5.869650e-03
-3.982530e-03
-2.562580e-03
-2.991930e-03
4.726350e-02
4.640280e-02
-7.778970e-03
-5.869650e-03
-4.798150e-02
-4.862170e-02
-2.991930e-03
-3.369120e-03
4.640280e-02
4.558600e-02
-5.869650e-03
-3.982530e-03
-4.862170e-02
-4.922480e-02
4.726350e-02
4.640280e-02
-6.130600e-02
-6.089350e-02
-4.798150e-02
-4.862170e-02
4.063940e-02
3.964320e-02
4.640280e-02
4.558600e-02
-6.089350e-02
-6.040820e-02
-4.862170e-02
-4.922480e-02
3.964320e-02
3.864460e-02
-6.130600e-02
-6.089350e-02
-2.003640e-02
-1.889500e-02
4.063940e-02
3.964320e-02
3.964540e-02
4.077380e-02
-6.089350e-02
-6.040820e-02
-1.889500e-02
-1.814690e-02
3.964320e-02
3.864460e-02
4.077380e-02
4.188090e-02
-2.003640e-02
-1.889500e-02
8.742500e-02
8.413880e-02
3.964540e-02
4.077380e-02
-1.044850e-01
-1.028670e-01
-1.889500e-02
-1.814690e-02
8.413880e-02
8.105090e-02
4.077380e-02
4.188090e-02
-1.028670e-01
-1.011840e-01
8.742500e-02
8.413880e-02
-8.766580e-02
-8.487620e-02
-1.044850e-01
-1.028670e-01
5.777080e-02
5.594370e-02
8.413880e-02
8.105090e-02
-8.487620e-02
-8.207380e-02
-1.028670e-01
-1.011840e-01
5.594370e-02
5.407190e-02
-8.766580e-02
-8.487620e-02
1.776720e-02
1.672450e-02
5.777080e-02
5.594370e-02
1.556980e-03
2.470500e-03
-8.487620e-02
-8.207380e-02
1.672450e-02
1.550260e-02
5.594370e-02
5.407190e-02
2.470500e-03
3.343750e-03
1.776720e-02
1.672450e-02
9.611110e-02
9.861420e-02
1.556980e-03
2.470500e-03
-1.640960e-01
-1.672900e-01
1.672450e-02
1.550260e-02
9.861420e-02
1.013620e-01
2.470500e-03
3.343750e-03
-1.672900e-01
-1.705400e-01
9.611110e-02
9.861420e-02
-2.758130e-02
-2.667780e-02
-1.640960e-01
-1.672900e-01
5.008950e-02
4.992860e-02
9.861420e-02
1.013620e-01
-2.667780e-02
-2.576470e-02
-1.672900e-01
-1.705400e-01
4.992860e-02
4.983460e-02
-2.758130e-02
-2.667780e-02
-2.727630e-02
-2.704450e-02
5.008950e-02
4.992860e-02
3.013370e-02
2.904080e-02
-2.667780e-02
-2.576470e-02
-2.704450e-02
-2.680130e-02
4.992860e-02
4.983460e-02
2.904080e-02
2.789070e-02
-2.727630e-02
-2.704450e-02
-2.942960e-02
-2.877330e-02
3.013370e-02
2.904080e-02
4.956480e-02
4.895120e-02
-2.704450e-02
-2.680130e-02
-2.877330e-02
-2.841530e-02
2.904080e-02
2.789070e-02
4.895120e-02
4.833520e-02
-2.942960e-02
-2.877330e-02
4.840410e-02
4.659240e-02
4.956480e-02
4.895120e-02
1.181590e-02
1.336110e-02
-2.877330e-02
-2.841530e-02
4.659240e-02
4.514160e-02
4.895120e-02
4.833520e-02
1.336110e-02
1.490770e-02
4.840410e-02
4.659240e-02
4.103330e-02
4.247960e-02
1.181590e-02
1.336110e-02
-4.293850e-02
-4.265680e-02
4.659240e-02
4.514160e-02
4.247960e-02
4.369960e-02
1.336110e-02
1.490770e-02
-4.265680e-02
-4.236840e-02
4.103330e-02
4.247960e-02
-7.988720e-03
-7.827730e-03
-4.293850e-02
-4.265680e-02
4.061530e-04
-3.906210e-04
4.247960e-02
4.369960e-02
-7.827730e-03
-7.804020e-03
-4.265680e-02
-4.236840e-02
-3.906210e-04
-1.211910e-03
-7.988720e-03
-7.827730e-03
-3.454950e-02
-3.392430e-02
4.061530e-04
-3.906210e-04
-1.334640e-02
-1.440660e-02
-7.827730e-03
-7.804020e-03
-3.392430e-02
-3.310720e-02
-3.906210e-04
-1.211910e-03
-1.440660e-02
-1.545410e-02
-3.454950e-02
-3.392430e-02
5.361410e-02
5.442150e-02
-1.334640e-02
-1.440660e-02
-9.196530e-02
-9.162460e-02
-3.392430e-02
-3.310720e-02
5.442150e-02
5.529980e-02
-1.440660e-02
-1.545410e-02
-9.162460e-02
-9.126370e-02
5.361410e-02
5.442150e-02
-9.222270e-02
-9.259790e-02
-9.196530e-02
-9.162460e-02
1.225510e-01
1.201770e-01
5.442150e-02
5.529980e-02
-9.259790e-02
-9.295690e-02
-9.162460e-02
-9.126370e-02
1.201770e-01
1.178460e-01
-9.222270e-02
-9.259790e-02
-1.463160e-02
-1.607960e-02
1.225510e-01
1.201770e-01
9.928430e-03
1.163210e-02
-9.259790e-02
-9.295690e-02
-1.607960e-02
-1.763390e-02
1.201770e-01
1.178460e-01
1.163210e-02
1.329960e-02
-1.463160e-02
-1.607960e-02
-1.553090e-03
1.328700e-03
9.928430e-03
1.163210e-02
-1.661530e-02
-1.722270e-02
-1.607960e-02
-1.763390e-02
1.328700e-03
4.447750e-03
1.163210e-02
1.329960e-02
-1.722270e-02
-1.785930e-02
-1.553090e-03
1.328700e-03
7.060610e-03
5.924990e-03
-1.661530e-02
-1.722270e-02
1.246410e-01
1.257390e-01
1.328700e-03
4.447750e-03
5.924990e-03
4.672140e-03
-1.722270e-02
-1.785930e-02
1.257390e-01
1.268310e-01
7.060610e-03
5.924990e-03
3.147900e-02
3.371180e-02
1.246410e-01
1.257390e-01
-2.496250e-02
-2.672280e-02
5.924990e-03
4.672140e-03
3.371180e-02
3.578160e-02
1.257390e-01
1.268310e-01
-2.672280e-02
-2.849780e-02
3.147900e-02
3.371180e-02
-8.114490e-02
-8.492370e-02
-2.496250e-02
-2.672280e-02
3.696600e-02
3.885670e-02
3.371180e-02
3.578160e-02
-8.492370e-02
-8.848080e-02
-2.672280e-02
-2.849780e-02
3.885670e-02
4.070900e-02
-8.114490e-02
-8.492370e-02
1.503770e-01
1.517420e-01
3.696600e-02
3.885670e-02
-1.584480e-01
-1.594310e-01
-8.492370e-02
-8.848080e-02
1.517420e-01
1.529510e-01
3.885670e-02
4.070900e-02
-1.594310e-01
-1.603410e-01
1.503770e-01
1.517420e-01
-1.334650e-01
-1.335940e-01
-1.584480e-01
-1.594310e-01
4.858880e-02
4.969940e-02
1.517420e-01
1.529510e-01
-1.335940e-01
-1.335520e-01
-1.594310e-01
-1.603410e-01
4.969940e-02
5.072640e-02
0.000000e+00
0.000000e+00
-3.132230e-02
-3.116100e-02
0.000000e+00
0.000000e+00
4.487440e-02
4.466450e-02
0.000000e+00
0.000000e+00
-3.116100e-02
-3.106450e-02
0.000000e+00
0.000000e+00
4.466450e-02
4.435190e-02
-3.132230e-02
-3.116100e-02
8.867110e-02
8.848650e-02
4.487440e-02
4.466450e-02
-1.485350e-01
-1.501530e-01
-3.116100e-02
-3.106450e-02
8.848650e-02
8.838140e-02
4.466450e-02
4.435190e-02
-1.501530e-01
-1.517610e-01
8.867110e-02
8.848650e-02
-2.532610e-02
-2.664170e-02
-1.485350e-01
-1.501530e-01
6.664790e-02
7.081930e-02
8.848650e-02
8.838140e-02
-2.664170e-02
-2.796910e-02
-1.501530e-01
-1.517610e-01
7.081930e-02
7.520820e-02
-2.532610e-02
-2.664170e-02
-4.331920e-02
-4.442450e-02
6.664790e-02
7.081930e-02
4.810150e-02
4.977700e-02
-2.664170e-02
-2.796910e-02
-4.442450e-02
-4.557540e-02
7.081930e-02
7.520820e-02
4.977700e-02
5.129160e-02
-4.331920e-02
-4.442450e-02
6.952340e-02
7.015820e-02
4.810150e-02
4.977700e-02
-1.171280e-01
-1.193100e-01
-4.442450e-02
-4.557540e-02
7.015820e-02
7.080950e-02
4.977700e-02
5.129160e-02
-1.193100e-01
-1.214340e-01
6.952340e-02
7.015820e-02
-2.771790e-02
-2.593930e-02
-1.171280e-01
-1.193100e-01
6.752030e-02
6.725390e-02
7.015820e-02
7.080950e-02
-2.593930e-02
-2.417570e-02
-1.193100e-01
-1.214340e-01
6.725390e-02
6.709520e-02
-2.771790e-02
-2.593930e-02
-7.778970e-03
-5.869650e-03
6.752030e-02
6.725390e-02
1.626130e-02
1.266040e-02
-2.593930e-02
-2.417570e-02
-5.869650e-03
-3.982530e-03
6.725390e-02
6.709520e-02
1.266040e-02
8.947300e-03
-7.778970e-03
-5.869650e-03
-4.798150e-02
-4.862170e-02
1.626130e-02
1.266040e-02
5.004460e-02
5.186110e-02
-5.869650e-03
-3.982530e-03
-4.862170e-02
-4.922480e-02
1.266040e-02
8.947300e-03
5.186110e-02
5.364560e-02
-4.798150e-02
-4.862170e-02
4.063940e-02
3.964320e-02
5.004460e-02
5.186110e-02
-1.673380e-02
-1.594750e-02
-4.862170e-02
-4.922480e-02
3.964320e-02
3.864460e-02
5.186110e-02
5.364560e-02
-1.594750e-02
-1.516670e-02
4.063940e-02
3.964320e-02
3.964540e-02
4.077380e-02
-1.673380e-02
-1.594750e-02
-6.414030e-02
-6.652200e-02
3.964320e-02
3.864460e-02
4.077380e-02
4.188090e-02
-1.594750e-02
-1.516670e-02
-6.652200e-02
-6.867310e-02
3.964540e-02
4.077380e-02
-1.044850e-01
-1.028670e-01
-6.414030e-02
-6.652200e-02
1.242370e-01
1.243410e-01
4.077380e-02
4.188090e-02
-1.028670e-01
-1.011840e-01
-6.652200e-02
-6.867310e-02
1.243410e-01
1.241920e-01
-1.044850e-01
-1.028670e-01
5.777080e-02
5.594370e-02
1.242370e-01
1.243410e-01
-2.776120e-02
-2.841690e-02
-1.028670e-01
-1.011840e-01
5.594370e-02
5.407190e-02
1.243410e-01
1.241920e-01
-2.841690e-02
-2.894680e-02
5.777080e-02
5.594370e-02
1.556980e-03
2.470500e-03
-2.776120e-02
-2.841690e-02
-2.228200e-02
-2.237460e-02
5.594370e-02
5.407190e-02
2.470500e-03
3.343750e-03
-2.841690e-02
-2.894680e-02
-2.237460e-02
-2.239860e-02
1.556980e-03
2.470500e-03
-1.640960e-01
-1.672900e-01
-2.228200e-02
-2.237460e-02
2.305830e-01
2.341570e-01
2.470500e-03
3.343750e-03
-1.672900e-01
-1.705400e-01
-2.237460e-02
-2.239860e-02
2.341570e-01
2.376620e-01
-1.640960e-01
-1.672900e-01
5.008950e-02
4.992860e-02
2.305830e-01
2.341570e-01
-6.785860e-02
-6.824590e-02
-1.672900e-01
-1.705400e-01
4.992860e-02
4.983460e-02
2.341570e-01
2.376620e-01
-6.824590e-02
-6.869700e-02
5.008950e-02
4.992860e-02
3.013370e-02
2.904080e-02
-6.785860e-02
-6.824590e-02
-3.750550e-02
-3.604560e-02
4.992860e-02
4.983460e-02
2.904080e-02
2.789070e-02
-6.824590e-02
-6.869700e-02
-3.604560e-02
-3.464640e-02
3.013370e-02
2.904080e-02
4.956480e-02
4.895120e-02
-3.750550e-02
-3.604560e-02
-6.663730e-02
-6.698870e-02
2.904080e-02
2.789070e-02
4.895120e-02
4.833520e-02
-3.604560e-02
-3.464640e-02
-6.698870e-02
-6.708200e-02
4.956480e-02
4.895120e-02
1.181590e-02
1.336110e-02
-6.663730e-02
-6.698870e-02
-7.210590e-02
-7.220060e-02
4.895120e-02
4.833520e-02
1.336110e-02
1.490770e-02
-6.698870e-02
-6.708200e-02
-7.220060e-02
-7.249870e-02
1.181590e-02
1.336110e-02
-4.293850e-02
-4.265680e-02
-7.210590e-02
-7.220060e-02
4.506620e-02
4.301900e-02
1.336110e-02
1.490770e-02
-4.265680e-02
-4.236840e-02
-7.220060e-02
-7.249870e-02
4.301900e-02
4.115760e-02
-4.293850e-02
-4.265680e-02
4.061530e-04
-3.906210e-04
4.506620e-02
4.301900e-02
4.599560e-03
5.808110e-03
-4.265680e-02
-4.236840e-02
-3.906210e-04
-1.211910e-03
4.301900e-02
4.115760e-02
5.808110e-03
7.136950e-03
4.061530e-04
-3.906210e-04
-1.334640e-02
-1.440660e-02
4.599560e-03
5.808110e-03
6.224480e-02
6.457230e-02
-3.906210e-04
-1.211910e-03
-1.440660e-02
-1.545410e-02
5.808110e-03
7.136950e-03
6.457230e-02
6.674770e-02
-1.334640e-02
-1.440660e-02
-9.196530e-02
-9.162460e-02
6.224480e-02
6.457230e-02
1.298330e-01
1.280680e-01
-1.440660e-02
-1.545410e-02
-9.162460e-02
-9.126370e-02
6.457230e-02
6.674770e-02
1.280680e-01
1.262580e-01
-9.196530e-02
-9.162460e-02
1.225510e-01
1.201770e-01
1.298330e-01
1.280680e-01
-1.538060e-01
-1.492300e-01
-9.162460e-02
-9.126370e-02
1.201770e-01
1.178460e-01
1.280680e-01
1.262580e-01
-1.492300e-01
-1.447450e-01
1.225510e-01
1.201770e-01
9.928430e-03
1.163210e-02
-1.538060e-01
-1.492300e-01
-3.696810e-03
-5.530690e-03
1.201770e-01
1.178460e-01
1.163210e-02
1.329960e-02
-1.492300e-01
-1.447450e-01
-5.530690e-03
-7.186310e-03
9.928430e-03
1.163210e-02
-1.661530e-02
-1.722270e-02
-3.696810e-03
-5.530690e-03
3.738270e-02
3.597870e-02
1.163210e-02
1.329960e-02
-1.722270e-02
-1.785930e-02
-5.530690e-03
-7.186310e-03
3.597870e-02
3.437760e-02
-1.661530e-02
-1.722270e-02
1.246410e-01
1.257390e-01
3.738270e-02
3.597870e-02
-2.624100e-01
-2.632030e-01
-1.722270e-02
-1.785930e-02
1.257390e-01
1.268310e-01
3.597870e-02
3.437760e-02
-2.632030e-01
-2.638210e-01
1.246410e-01
1.257390e-01
-2.496250e-02
-2.672280e-02
-2.624100e-01
-2.632030e-01
2.369190e-02
2.441210e-02
1.257390e-01
1.268310e-01
-2.672280e-02
-2.849780e-02
-2.632030e-01
-2.638210e-01
2.441210e-02
2.520430e-02
-2.496250e-02
-2.672280e-02
3.696600e-02
3.885670e-02
2.369190e-02
2.441210e-02
4.526670e-03
4.718970e-03
-2.672280e-02
-2.849780e-02
3.885670e-02
4.070900e-02
2.441210e-02
2.520430e-02
4.718970e-03
4.741660e-03
3.696600e-02
3.885670e-02
-1.584480e-01
-1.594310e-01
4.526670e-03
4.718970e-03
1.680810e-01
1.685880e-01
3.885670e-02
4.070900e-02
-1.594310e-01
-1.603410e-01
4.718970e-03
4.741660e-03
1.685880e-01
1.691470e-01
-1.584480e-01
-1.594310e-01
4.858880e-02
4.969940e-02
1.680810e-01
1.685880e-01
3.557570e-02
3.395480e-02
-1.594310e-01
-1.603410e-01
4.969940e-02
5.072640e-02
1.685880e-01
1.691470e-01
3.395480e-02
3.231930e-02
</DataArray>
<DataArray type="Float32" Name="V2" format="ascii">
0.000000e+00
0.000000e+00
-6.754300e-02
-8.736460e-02
0.000000e+00
0.000000e+00
9.785750e-02
7.499730e-04
0.000000e+00
0.000000e+00
-8.736460e-02
-1.013490e-01
0.000000e+00
0.000000e+00
7.499730e-04
-9.575590e-02
-6.754300e-02
-8.736460e-02
2.275260e-02
-2.105100e-02
9.785750e-02
7.499730e-04
3.954780e-03
-6.963240e-03
-8.736460e-02
-1.013490e-01
-2.105100e-02
-6.087760e-02
7.499730e-04
-9.575590e-02
-6.963240e-03
-2.010780e-02
2.275260e-02
-2.105100e-02
-1.992980e-01
-1.433890e-01
3.954780e-03
-6.963240e-03
1.094390e-01
1.545650e-01
-2.105100e-02
-6.087760e-02
-1.433890e-01
-8.068450e-02
-6.963240e-03
-2.010780e-02
1.545650e-01
1.900780e-01
-1.992980e-01
-1.433890e-01
-6.818250e-02
3.592410e-02
1.094390e-01
1.545650e-01
5.874500e-02
-1.009340e-02
-1.433890e-01
-8.068450e-02
3.592410e-02
1.458970e-01
1.545650e-01
1.900780e-01
-1.009340e-02
-7.757590e-02
-6.818250e-02
3.592410e-02
2.550110e-01
2.230420e-01
5.874500e-02
-1.009340e-02
-2.660080e-01
-1.674420e-01
3.592410e-02
1.458970e-01
2.230420e-01
1.790170e-01
-1.009340e-02
-7.757590e-02
-1.674420e-01
-6.368220e-02
2.550110e-01
2.230420e-01
1.559310e-01
1.315350e-01
-2.660080e-01
-1.674420e-01
-1.216200e-01
-1.441380e-01
2.230420e-01
1.790170e-01
1.315350e-01
1.150860e-01
-1.674420e-01
-6.368220e-02
-1.441380e-01
-1.701930e-01
1.559310e-01
1.315350e-01
-2.372280e-01
-2.088370e-01
-1.216200e-01
-1.441380e-01
2.966790e-01
1.582490e-01
1.315350e-01
1.150860e-01
-2.088370e-01
-1.882570e-01
-1.441380e-01
-1.701930e-01
1.582490e-01
2.291390e-02
-2.372280e-01
-2.088370e-01
-1.196450e-01
-2.301050e-01
2.966790e-01
1.582490e-01
2.317590e-02
1.056490e-01
-2.088370e-01
-1.882570e-01
-2.301050e-01
-3.471840e-01
1.582490e-01
2.291390e-02
1.056490e-01
1.926330e-01
-1.196450e-01
-2.301050e-01
2.503470e-01
1.177770e-01
2.317590e-02
1.056490e-01
-2.153140e-01
-8.333850e-02
-2.301050e-01
-3.471840e-01
1.177770e-01
-1.648420e-02
1.056490e-01
1.926330e-01
-8.333850e-02
5.201320e-02
2.503470e-01
1.177770e-01
6.001630e-02
1.543260e-01
-2.153140e-01
-8.333850e-02
1.724660e-01
7.308260e-02
1.177770e-01
-1.648420e-02
1.543260e-01
2.423350e-01
-8.333850e-02
5.201320e-02
7.308260e-02
-2.838340e-02
6.001630e-02
1.543260e-01
2.182840e-01
1.802760e-01
1.724660e-01
7.308260e-02
-1.263510e-01
-7.342380e-02
1.543260e-01
2.423350e-01
1.802760e-01
1.425170e-01
7.308260e-02
-2.838340e-02
-7.342380e-02
-2.066760e-02
2.182840e-01
1.802760e-01
-9.196010e-02
-1.332980e-01
-1.263510e-01
-7.342380e-02
-4.886740e-02
1.338470e-02
1.802760e-01
1.425170e-01
-1.332980e-01
-1.633750e-01
-7.342380e-02
-2.066760e-02
1.338470e-02
6.391110e-02
-9.196010e-02
-1.332980e-01
-4.054820e-01
-3.878350e-01
-4.886740e-02
1.338470e-02
1.816110e-01
9.915080e-02
-1.332980e-01
-1.633750e-01
-3.878350e-01
-3.850880e-01
1.338470e-02
6.391110e-02
9.915080e-02
3.671430e-02
-4.054820e-01
-3.878350e-01
-4.105150e-02
1.059120e-02
1.816110e-01
9.915080e-02
9.798050e-02
-1.582360e-03
-3.878350e-01
-3.850880e-01
1.059120e-02
5.980010e-02
9.915080e-02
3.671430e-02
-1.582360e-03
-1.017130e-01
-4.105150e-02
1.059120e-02
3.263720e-01
1.508010e-01
9.798050e-02
-1.582360e-03
-1.866480e-01
-3.798640e-02
1.059120e-02
5.980010e-02
1.508010e-01
-3.098850e-02
-1.582360e-03
-1.017130e-01
-3.798640e-02
1.179970e-01
3.263720e-01
1.508010e-01
1.685170e-01
7.576620e-02
-1.866480e-01
-3.798640e-02
-1.550200e-01
-2.412630e-02
1.508010e-01
-3.098850e-02
7.576620e-02
-1.265170e-02
-3.798640e-02
1.179970e-01
-2.412630e-02
9.999910e-02
1.685170e-01
7.576620e-02
7.099330e-02
1.851730e-01
-1.550200e-01
-2.412630e-02
-7.984300e-03
-1.050980e-01
7.576620e-02
-1.265170e-02
1.851730e-01
2.942300e-01
-2.412630e-02
9.999910e-02
-1.050980e-01
-1.977220e-01
7.099330e-02
1.851730e-01
-1.874960e-01
-2.155860e-02
-7.984300e-03
-1.050980e-01
6.725850e-02
-2.387800e-02
1.851730e-01
2.942300e-01
-2.155860e-02
1.519290e-01
-1.050980e-01
-1.977220e-01
-2.387800e-02
-1.179850e-01
-1.874960e-01
-2.155860e-02
-3.267780e-01
-2.113940e-01
6.725850e-02
-2.387800e-02
1.861330e-01
1.509640e-01
-2.155860e-02
1.519290e-01
-2.113940e-01
-9.925710e-02
-2.387800e-02
-1.179850e-01
1.509640e-01
1.182920e-01
-3.267780e-01
-2.113940e-01
5.502650e-02
-9.523880e-02
1.861330e-01
1.509640e-01
-8.688940e-03
1.120810e-01
-2.113940e-01
-9.925710e-02
-9.523880e-02
-2.468450e-01
1.509640e-01
1.182920e-01
1.120810e-01
2.301080e-01
5.502650e-02
-9.523880e-02
1.476260e-01
1.588860e-01
-8.688940e-03
1.120810e-01
-1.059020e-01
-9.179280e-02
-9.523880e-02
-2.468450e-01
1.588860e-01
1.742400e-01
1.120810e-01
2.301080e-01
-9.179280e-02
-7.773350e-02
1.476260e-01
1.588860e-01
8.693760e-02
1.702680e-01
-1.059020e-01
-9.179280e-02
-2.540090e-02
-1.025020e-01
1.588860e-01
1.742400e-01
1.702680e-01
2.456340e-01
-9.179280e-02
-7.773350e-02
-1.025020e-01
-1.786390e-01
8.693760e-02
1.702680e-01
-5.549640e-02
-1.688670e-01
-2.540090e-02
-1.025020e-01
4.975560e-02
1.751790e-01
1.702680e-01
2.456340e-01
-1.688670e-01
-2.711540e-01
-1.025020e-01
-1.786390e-01
1.751790e-01
2.864740e-01
-5.549640e-02
-1.688670e-01
2.466030e-02
-1.866530e-02
4.975560e-02
1.751790e-01
-1.325890e-02
1.300840e-02
-1.688670e-01
-2.711540e-01
-1.866530e-02
-6.024590e-02
1.751790e-01
2.864740e-01
1.300840e-02
5.088820e-02
2.466030e-02
-1.866530e-02
-7.070120e-02
2.368370e-02
-1.325890e-02
1.300840e-02
1.755590e-01
-3.002530e-04
-1.866530e-02
-6.024590e-02
2.368370e-02
1.311630e-01
1.300840e-02
5.088820e-02
-3.002530e-04
-1.864330e-01
-7.070120e-02
2.368370e-02
2.265060e-01
3.183590e-03
1.755590e-01
-3.002530e-04
-1.911150e-01
-1.031630e-02
2.368370e-02
1.311630e-01
3.183590e-03
-2.438590e-01
-3.002530e-04
-1.864330e-01
-1.031630e-02
1.830060e-01
2.265060e-01
3.183590e-03
9.041790e-02
7.958560e-02
-1.911150e-01
-1.031630e-02
-1.018630e-01
-5.788350e-02
3.183590e-03
-2.438590e-01
7.958560e-02
7.723800e-02
-1.031630e-02
1.830060e-01
-5.788350e-02
-2.966880e-02
9.041790e-02
7.958560e-02
-1.594990e-01
3.603300e-02
-1.018630e-01
-5.788350e-02
2.147750e-01
-1.343470e-03
7.958560e-02
7.723800e-02
3.603300e-02
2.199380e-01
-5.788350e-02
-2.966880e-02
-1.343470e-03
-1.992590e-01
-1.594990e-01
3.603300e-02
1.003640e-01
3.585850e-02
2.147750e-01
-1.343470e-03
-7.518600e-02
-8.053850e-03
3.603300e-02
2.199380e-01
3.585850e-02
8.260640e-04
-1.343470e-03
-1.992590e-01
-8.053850e-03
3.619770e-02
1.003640e-01
3.585850e-02
-1.631950e-01
-8.452690e-02
-7.518600e-02
-8.053850e-03
3.259980e-02
2.151160e-02
3.585850e-02
8.260640e-04
-8.452690e-02
-3.213590e-02
-8.053850e-03
3.619770e-02
2.151160e-02
3.889470e-02
0.000000e+00
0.000000e+00
9.785750e-02
7.499730e-04
0.000000e+00
0.000000e+00
-1.217930e-01
8.557970e-02
0.000000e+00
0.000000e+00
7.499730e-04
-9.575590e-02
0.000000e+00
0.000000e+00
8.557970e-02
2.883260e-01
9.785750e-02
7.499730e-04
3.954780e-03
-6.963240e-03
-1.217930e-01
8.557970e-02
-2.737940e-02
3.538700e-02
7.499730e-04
-9.575590e-02
-6.963240e-03
-2.010780e-02
8.557970e-02
2.883260e-01
3.538700e-02
9.904880e-02
3.954780e-03