<?xml version="1.0"?>
<VTKFile type="UnstructuredGrid" version="0.1" byte_order="LittleEndian" compressor="vtkZLibDataCompressor">
<UnstructuredGrid>
<Piece NumberOfPoints="960" NumberOfCells="120">
<Points>
<DataArray type="Float32" NumberOfComponents="3" format="ascii">
-4.000000e+02 -6.000000e+03 -4.000000e+02
0.000000e+00 -6.000000e+03 -4.000000e+02
-4.000000e+02 -5.600030e+03 -4.000200e+02
-1.061330e-10 -5.600030e+03 -4.000200e+02
-4.000000e+02 -6.000000e+03 0.000000e+00
0.000000e+00 -6.000000e+03 0.000000e+00
-4.000000e+02 -5.600000e+03 -5.594490e-02
-1.154890e-10 -5.600000e+03 -5.594490e-02
0.000000e+00 -6.000000e+03 -4.000000e+02
4.000000e+02 -6.000000e+03 -4.000000e+02
-1.061330e-10 -5.600030e+03 -4.000200e+02
4.000000e+02 -5.600030e+03 -4.000200e+02
0.000000e+00 -6.000000e+03 0.000000e+00
4.000000e+02 -6.000000e+03 0.000000e+00
-1.154890e-10 -5.600000e+03 -5.594490e-02
4.000000e+02 -5.600000e+03 -5.594490e-02
-4.000000e+02 -5.600030e+03 -4.000200e+02
-1.061330e-10 -5.600030e+03 -4.000200e+02
-4.000000e+02 -5.200030e+03 -4.001120e+02
-6.061910e-10 -5.200030e+03 -4.001120e+02
-4.000000e+02 -5.600000e+03 -5.594490e-02
-1.154890e-10 -5.600000e+03 -5.594490e-02
-4.000000e+02 -5.200000e+03 -4.431430e-02
-4.827000e-10 -5.200000e+03 -4.431430e-02
-1.061330e-10 -5.600030e+03 -4.000200e+02
4.000000e+02 -5.600030e+03 -4.000200e+02
-6.061910e-10 -5.200030e+03 -4.001120e+02
4.000000e+02 -5.200030e+03 -4.001120e+02
-1.154890e-10 -5.600000e+03 -5.594490e-02
4.000000e+02 -5.600000e+03 -5.594490e-02
-4.827000e-10 -5.200000e+03 -4.431430e-02
4.000000e+02 -5.200000e+03 -4.431430e-02
-4.000000e+02 -5.200030e+03 -4.001120e+02
-6.061910e-10 -5.200030e+03 -4.001120e+02
-4.000000e+02 -4.800020e+03 -4.000890e+02
4.434030e-10 -4.800020e+03 -4.000890e+02
-4.000000e+02 -5.200000e+03 -4.431430e-02
-4.827000e-10 -5.200000e+03 -4.431430e-02
-4.000000e+02 -4.800010e+03 -1.059210e-01
3.541730e-10 -4.800010e+03 -1.059210e-01
-6.061910e-10 -5.200030e+03 -4.001120e+02
4.000000e+02 -5.200030e+03 -4.001120e+02
4.434030e-10 -4.800020e+03 -4.000890e+02
4.000000e+02 -4.800020e+03 -4.000890e+02
-4.827000e-10 -5.200000e+03 -4.431430e-02
4.000000e+02 -5.200000e+03 -4.431430e-02
3.541730e-10 -4.800010e+03 -1.059210e-01
4.000000e+02 -4.800010e+03 -1.059210e-01
-4.000000e+02 -4.800020e+03 -4.000890e+02
4.434030e-10 -4.800020e+03 -4.000890e+02
-4.000000e+02 -4.400030e+03 -4.000930e+02
4.622730e-10 -4.400030e+03 -4.000930e+02
-4.000000e+02 -4.800010e+03 -1.059210e-01
3.541730e-10 -4.800010e+03 -1.059210e-01
-4.000000e+02 -4.399990e+03 -1.492090e-01
4.844940e-10 -4.399990e+03 -1.492090e-01
4.434030e-10 -4.800020e+03 -4.000890e+02
4.000000e+02 -4.800020e+03 -4.000890e+02
4.622730e-10 -4.400030e+03 -4.000930e+02
4.000000e+02 -4.400030e+03 -4.000930e+02
3.541730e-10 -4.800010e+03 -1.059210e-01
4.000000e+02 -4.800010e+03 -1.059210e-01
4.844940e-10 -4.399990e+03 -1.492090e-01
4.000000e+02 -4.399990e+03 -1.492090e-01
-4.000000e+02 -4.400030e+03 -4.000930e+02
4.622730e-10 -4.400030e+03 -4.000930e+02
-4.000000e+02 -4.000020e+03 -4.001930e+02
5.164690e-10 -4.000020e+03 -4.001930e+02
-4.000000e+02 -4.399990e+03 -1.492090e-01
4.844940e-10 -4.399990e+03 -1.492090e-01
-4.000000e+02 -4.000000e+03 -1.138900e-01
4.404630e-10 -4.000000e+03 -1.138900e-01
4.622730e-10 -4.400030e+03 -4.000930e+02
4.000000e+02 -4.400030e+03 -4.000930e+02
5.164690e-10 -4.000020e+03 -4.001930e+02
4.000000e+02 -4.000020e+03 -4.001930e+02
4.844940e-10 -4.399990e+03 -1.492090e-01
4.000000e+02 -4.399990e+03 -1.492090e-01
4.404630e-10 -4.000000e+03 -1.138900e-01
4.000000e+02 -4.000000e+03 -1.138900e-01
-4.000000e+02 -4.000020e+03 -4.001930e+02
5.164690e-10 -4.000020e+03 -4.001930e+02
-4.000000e+02 -3.600010e+03 -4.001540e+02
1.467980e-09 -3.600010e+03 -4.001540e+02
-4.000000e+02 -4.000000e+03 -1.138900e-01
4.404630e-10 -4.000000e+03 -1.138900e-01
-4.000000e+02 -3.600010e+03 -1.726920e-01
1.340740e-09 -3.600010e+03 -1.726920e-01
5.164690e-10 -4.000020e+03 -4.001930e+02
4.000000e+02 -4.000020e+03 -4.001930e+02
1.467980e-09 -3.600010e+03 -4.001540e+02
4.000000e+02 -3.600010e+03 -4.001540e+02
4.404630e-10 -4.000000e+03 -1.138900e-01
4.000000e+02 -4.000000e+03 -1.138900e-01
1.340740e-09 -3.600010e+03 -1.726920e-01
4.000000e+02 -3.600010e+03 -1.726920e-01
-4.000000e+02 -3.600010e+03 -4.001540e+02
1.467980e-09 -3.600010e+03 -4.001540e+02
-4.000000e+02 -3.200030e+03 -4.001430e+02
1.432210e-09 -3.200030e+03 -4.001430e+02
-4.000000e+02 -3.600010e+03 -1.726920e-01
1.340740e-09 -3.600010e+03 -1.726920e-01
-4.000000e+02 -3.199990e+03 -2.150610e-01
1.196190e-09 -3.199990e+03 -2.150610e-01
1.467980e-09 -3.600010e+03 -4.001540e+02
4.000000e+02 -3.600010e+03 -4.001540e+02
1.432210e-09 -3.200030e+03 -4.001430e+02
4.000000e+02 -3.200030e+03 -4.001430e+02
1.340740e-09 -3.600010e+03 -1.726920e-01
4.000000e+02 -3.600010e+03 -1.726920e-01
1.196190e-09 -3.199990e+03 -2.150610e-01
4.000000e+02 -3.199990e+03 -2.150610e-01
-4.000000e+02 -3.200030e+03 -4.001430e+02
1.432210e-09 -3.200030e+03 -4.001430e+02
-4.000000e+02 -2.800030e+03 -4.002740e+02
8.896560e-10 -2.800030e+03 -4.002740e+02
-4.000000e+02 -3.199990e+03 -2.150610e-01
1.196190e-09 -3.199990e+03 -2.150610e-01
-4.000000e+02 -2.800000e+03 -1.846750e-01
7.049660e-10 -2.800000e+03 -1.846750e-01
1.432210e-09 -3.200030e+03 -4.001430e+02
4.000000e+02 -3.200030e+03 -4.001430e+02
8.896560e-10 -2.800030e+03 -4.002740e+02
4.000000e+02 -2.800030e+03 -4.002740e+02
1.196190e-09 -3.199990e+03 -2.150610e-01
4.000000e+02 -3.199990e+03 -2.150610e-01
7.049660e-10 -2.800000e+03 -1.846750e-01
4.000000e+02 -2.800000e+03 -1.846750e-01
-4.000000e+02 -2.800030e+03 -4.002740e+02
8.896560e-10 -2.800030e+03 -4.002740e+02
-4.000000e+02 -2.400010e+03 -4.002410e+02
1.898630e-09 -2.400010e+03 -4.002410e+02
-4.000000e+02 -2.800000e+03 -1.846750e-01
7.049660e-10 -2.800000e+03 -1.846750e-01
-4.000000e+02 -2.400010e+03 -2.611200e-01
1.546440e-09 -2.400010e+03 -2.611200e-01
8.896560e-10 -2.800030e+03 -4.002740e+02
4.000000e+02 -2.800030e+03 -4.002740e+02
1.898630e-09 -2.400010e+03 -4.002410e+02
4.000000e+02 -2.400010e+03 -4.002410e+02
7.049660e-10 -2.800000e+03 -1.846750e-01
4.000000e+02 -2.800000e+03 -1.846750e-01
1.546440e-09 -2.400010e+03 -2.611200e-01
4.000000e+02 -2.400010e+03 -2.611200e-01
-4.000000e+02 -2.400010e+03 -4.002410e+02
1.898630e-09 -2.400010e+03 -4.002410e+02
-4.000000e+02 -2.000020e+03 -4.002000e+02
1.543020e-09 -2.000020e+03 -4.002000e+02
-4.000000e+02 -2.400010e+03 -2.611200e-01
1.546440e-09 -2.400010e+03 -2.611200e-01
-4.000000e+02 -2.000000e+03 -2.725840e-01
1.045780e-09 -2.000000e+03 -2.725840e-01
1.898630e-09 -2.400010e+03 -4.002410e+02
4.000000e+02 -2.400010e+03 -4.002410e+02
1.543020e-09 -2.000020e+03 -4.002000e+02
4.000000e+02 -2.000020e+03 -4.002000e+02
1.546440e-09 -2.400010e+03 -2.611200e-01
4.000000e+02 -2.400010e+03 -2.611200e-01
1.045780e-09 -2.000000e+03 -2.725840e-01
4.000000e+02 -2.000000e+03 -2.725840e-01
-4.000000e+02 -2.000020e+03 -4.002000e+02
1.543020e-09 -2.000020e+03 -4.002000e+02
-4.000000e+02 -1.600020e+03 -4.003380e+02
1.241740e-09 -1.600020e+03 -4.003380e+02
-4.000000e+02 -2.000000e+03 -2.725840e-01
1.045780e-09 -2.000000e+03 -2.725840e-01
-4.000000e+02 -1.599990e+03 -2.440810e-01
1.324210e-09 -1.599990e+03 -2.440810e-01
1.543020e-09 -2.000020e+03 -4.002000e+02
4.000000e+02 -2.000020e+03 -4.002000e+02
1.241740e-09 -1.600020e+03 -4.003380e+02
4.000000e+02 -1.600020e+03 -4.003380e+02
1.045780e-09 -2.000000e+03 -2.725840e-01
4.000000e+02 -2.000000e+03 -2.725840e-01
1.324210e-09 -1.599990e+03 -2.440810e-01
4.000000e+02 -1.599990e+03 -2.440810e-01
-4.000000e+02 -1.600020e+03 -4.003380e+02
1.241740e-09 -1.600020e+03 -4.003380e+02
-4.000000e+02 -1.200000e+03 -4.002790e+02
1.605390e-09 -1.200000e+03 -4.002790e+02
-4.000000e+02 -1.599990e+03 -2.440810e-01
1.324210e-09 -1.599990e+03 -2.440810e-01
-4.000000e+02 -1.200010e+03 -3.078010e-01
1.577890e-09 -1.200010e+03 -3.078010e-01
1.241740e-09 -1.600020e+03 -4.003380e+02
4.000000e+02 -1.600020e+03 -4.003380e+02
1.605390e-09 -1.200000e+03 -4.002790e+02
4.000000e+02 -1.200000e+03 -4.002790e+02
1.324210e-09 -1.599990e+03 -2.440810e-01
4.000000e+02 -1.599990e+03 -2.440810e-01
1.577890e-09 -1.200010e+03 -3.078010e-01
4.000000e+02 -1.200010e+03 -3.078010e-01
-4.000000e+02 -1.200000e+03 -4.002790e+02
1.605390e-09 -1.200000e+03 -4.002790e+02
-4.000000e+02 -8.000200e+02 -4.002620e+02
1.710030e-09 -8.000200e+02 -4.002620e+02
-4.000000e+02 -1.200010e+03 -3.078010e-01
1.577890e-09 -1.200010e+03 -3.078010e-01
-4.000000e+02 -8.000030e+02 -3.133520e-01
1.701280e-09 -8.000030e+02 -3.133520e-01
1.605390e-09 -1.200000e+03 -4.002790e+02
4.000000e+02 -1.200000e+03 -4.002790e+02
1.710030e-09 -8.000200e+02 -4.002620e+02
4.000000e+02 -8.000200e+02 -4.002620e+02
1.577890e-09 -1.200010e+03 -3.078010e-01
4.000000e+02 -1.200010e+03 -3.078010e-01
1.701280e-09 -8.000030e+02 -3.133520e-01
4.000000e+02 -8.000030e+02 -3.133520e-01
-4.000000e+02 -8.000200e+02 -4.002620e+02
1.710030e-09 -8.000200e+02 -4.002620e+02
-4.000000e+02 -4.000340e+02 -4.003710e+02
1.813240e-09 -4.000340e+02 -4.003710e+02
-4.000000e+02 -8.000030e+02 -3.133520e-01
1.701280e-09 -8.000030e+02 -3.133520e-01
-4.000000e+02 -3.999830e+02 -2.962260e-01
2.096670e-09 -3.999830e+02 -2.962260e-01
1.710030e-09 -8.000200e+02 -4.002620e+02
4.000000e+02 -8.000200e+02 -4.002620e+02
1.813240e-09 -4.000340e+02 -4.003710e+02
4.000000e+02 -4.000340e+02 -4.003710e+02
1.701280e-09 -8.000030e+02 -3.133520e-01
4.000000e+02 -8.000030e+02 -3.133520e-01
2.096670e-09 -3.999830e+02 -2.962260e-01
4.000000e+02 -3.999830e+02 -2.962260e-01
-4.000000e+02 -4.000340e+02 -4.003710e+02
1.813240e-09 -4.000340e+02 -4.003710e+02
-4.000000e+02 2.282860e-03 -4.003460e+02
2.400710e-09 2.282860e-03 -4.003460e+02
-4.000000e+02 -3.999830e+02 -2.962260e-01
2.096670e-09 -3.999830e+02 -2.962260e-01
-4.000000e+02 -1.438590e-02 -3.639020e-01
2.009160e-09 -1.438590e-02 -3.639020e-01
1.813240e-09 -4.000340e+02 -4.003710e+02
4.000000e+02 -4.000340e+02 -4.003710e+02
2.400710e-09 2.282860e-03 -4.003460e+02
[...]
<PointData>
<DataArray type="Float32" Name="V1" format="ascii">
0.000000e+00
0.000000e+00
-9.151810e-10
-4.743910e-10
0.000000e+00
0.000000e+00
-3.535030e-11
5.042070e-11
0.000000e+00
0.000000e+00
-4.743910e-10
-1.247080e-10
0.000000e+00
0.000000e+00
5.042070e-11
8.444800e-11
-9.151810e-10
-4.743910e-10
7.708330e-10
1.946890e-10
-3.535030e-11
5.042070e-11
3.672510e-10
-1.340870e-12
-4.743910e-10
-1.247080e-10
1.946890e-10
-5.773890e-10
5.042070e-11
8.444800e-11
-1.340870e-12
-4.507170e-10
7.708330e-10
1.946890e-10
-4.497350e-10
1.615070e-10
3.672510e-10
-1.340870e-12
-1.875530e-10
-2.883410e-10
1.946890e-10
-5.773890e-10
1.615070e-10
8.533180e-10
-1.340870e-12
-4.507170e-10
-2.883410e-10
-4.811570e-10
-4.497350e-10
1.615070e-10
7.904730e-10
-5.753880e-11
-1.875530e-10
-2.883410e-10
1.561310e-10
-2.736790e-10
1.615070e-10
8.533180e-10
-5.753880e-11
-9.377660e-10
-2.883410e-10
-4.811570e-10
-2.736790e-10
-5.106160e-10
7.904730e-10
-5.753880e-11
-1.080150e-10
2.075090e-10
1.561310e-10
-2.736790e-10
-6.088110e-10
9.912230e-11
-5.753880e-11
-9.377660e-10
2.075090e-10
2.503980e-10
-2.736790e-10
-5.106160e-10
9.912230e-11
4.065290e-10
-1.080150e-10
2.075090e-10
2.808390e-10
-8.124660e-11
-6.088110e-10
9.912230e-11
-1.816610e-10
-1.405790e-10
2.075090e-10
2.503980e-10
-8.124660e-11
-4.428610e-10
9.912230e-11
4.065290e-10
-1.405790e-10
2.651270e-11
2.808390e-10
-8.124660e-11
-3.741240e-10
-5.114120e-10
-1.816610e-10
-1.405790e-10
8.808120e-10
4.781150e-10
-8.124660e-11
-4.428610e-10
-5.114120e-10
-6.736200e-10
-1.405790e-10
2.651270e-11
4.781150e-10
3.112790e-10
-3.741240e-10
-5.114120e-10
-1.499440e-09
-4.579670e-10
8.808120e-10
4.781150e-10
-6.372880e-10
-2.924560e-10
-5.114120e-10
-6.736200e-10
-4.579670e-10
4.507170e-10
4.781150e-10
3.112790e-10
-2.924560e-10
-2.062100e-11
-1.499440e-09
-4.579670e-10
8.405520e-10
5.461530e-10
-6.372880e-10
-2.924560e-10
2.582540e-10
2.941450e-10
-4.579670e-10
4.507170e-10
5.461530e-10
1.531850e-10
-2.924560e-10
-2.062100e-11
2.941450e-10
3.053880e-10
8.405520e-10
5.461530e-10
-7.531580e-10
-6.715600e-10
2.582540e-10
2.941450e-10
-1.865710e-11
-2.598050e-10
5.461530e-10
1.531850e-10
-6.715600e-10
-4.546440e-10
2.941450e-10
3.053880e-10
-2.598050e-10
-4.585720e-10
-7.531580e-10
-6.715600e-10
-3.908170e-10
1.318090e-10
-1.865710e-11
-2.598050e-10
-6.441610e-10
-1.352920e-10
-6.715600e-10
-4.546440e-10
1.318090e-10
8.012740e-10
-2.598050e-10
-4.585720e-10
-1.352920e-10
3.122610e-10
-3.908170e-10
1.318090e-10
7.266460e-11
1.030040e-10
-6.441610e-10
-1.352920e-10
1.280470e-09
4.088730e-10
1.318090e-10
8.012740e-10
1.030040e-10
6.186310e-11
-1.352920e-10
3.122610e-10
4.088730e-10
-4.487530e-10
7.266460e-11
1.030040e-10
5.989920e-11
-3.009650e-10
1.280470e-09
4.088730e-10
-4.556260e-10
-2.307860e-10
1.030040e-10
6.186310e-11
-3.009650e-10
-5.626590e-10
4.088730e-10
-4.487530e-10
-2.307860e-10
-3.063690e-10
5.989920e-11
-3.009650e-10
9.839170e-10
9.186920e-10
-4.556260e-10
-2.307860e-10
-2.867300e-10
-1.601580e-10
-3.009650e-10
-5.626590e-10
9.186920e-10
7.315550e-10
-2.307860e-10
-3.063690e-10
-1.601580e-10
1.571130e-11
9.839170e-10
9.186920e-10
6.186310e-11
-4.366120e-10
-2.867300e-10
-1.601580e-10
6.569270e-10
3.524220e-11
9.186920e-10
7.315550e-10
-4.366120e-10
-9.858810e-10
-1.601580e-10
1.571130e-11
3.524220e-11
-5.626590e-10
6.186310e-11
-4.366120e-10
-6.274680e-10
-7.840620e-11
6.569270e-10
3.524220e-11
-4.389330e-10
5.867030e-10
-4.366120e-10
-9.858810e-10
-7.840620e-11
5.773890e-10
3.524220e-11
-5.626590e-10
5.867030e-10
1.505330e-09
-6.274680e-10
-7.840620e-11
4.291140e-10
2.575950e-10
-4.389330e-10
5.867030e-10
7.924360e-10
-9.431880e-11
-7.840620e-11
5.773890e-10
2.575950e-10
-1.571130e-11
5.867030e-10
1.505330e-09
-9.431880e-11
-1.030070e-09
4.291140e-10
2.575950e-10
-2.366510e-10
-5.609210e-10
7.924360e-10
-9.431880e-11
-1.312870e-09
-5.727760e-10
2.575950e-10
-1.571130e-11
-5.609210e-10
-7.482490e-10
-9.431880e-11
-1.030070e-09
-5.727760e-10
1.571130e-11
-2.366510e-10
-5.609210e-10
2.494160e-10
4.805210e-10
-1.312870e-09
-5.727760e-10
3.731420e-10
3.091750e-10
-5.609210e-10
-7.482490e-10
4.805210e-10
8.729570e-10
-5.727760e-10
1.571130e-11
3.091750e-10
2.945860e-10
2.494160e-10
4.805210e-10
2.945860e-12
1.864550e-10
3.731420e-10
3.091750e-10
5.822980e-10
4.085240e-10
4.805210e-10
8.729570e-10
1.864550e-10
5.498940e-11
3.091750e-10
2.945860e-10
4.085240e-10
1.482750e-10
2.945860e-12
1.864550e-10
1.963910e-10
-1.700970e-10
5.822980e-10
4.085240e-10
-8.238590e-10
-5.899080e-10
1.864550e-10
5.498940e-11
-1.700970e-10
-2.189760e-10
4.085240e-10
1.482750e-10
-5.899080e-10
-7.462850e-11
1.963910e-10
-1.700970e-10
7.364650e-11
4.692680e-10
-8.238590e-10
-5.899080e-10
2.739650e-10
2.920430e-10
-1.700970e-10
-2.189760e-10
4.692680e-10
8.552810e-10
-5.899080e-10
-7.462850e-11
2.920430e-10
3.721600e-10
7.364650e-11
4.692680e-10
3.328820e-10
-1.242760e-10
2.739650e-10
2.920430e-10
-5.734610e-10
-2.390940e-10
4.692680e-10
8.552810e-10
-1.242760e-10
-3.888540e-10
2.920430e-10
3.721600e-10
-2.390940e-10
-5.400740e-11
3.328820e-10
-1.242760e-10
-7.855630e-11
-1.714200e-12
-5.734610e-10
-2.390940e-10
-3.338640e-10
-2.934440e-10
-1.242760e-10
-3.888540e-10
-1.714200e-12
3.495750e-10
-2.390940e-10
-5.400740e-11
-2.934440e-10
-3.466300e-10
-7.855630e-11
-1.714200e-12
-4.556260e-10
-2.931200e-10
-3.338640e-10
-2.934440e-10
2.366510e-10
9.070750e-11
-1.714200e-12
3.495750e-10
-2.931200e-10
5.007960e-11
-2.934440e-10
-3.466300e-10
9.070750e-11
4.320600e-11
-4.556260e-10
-2.931200e-10
-5.881900e-10
-3.792080e-10
2.366510e-10
9.070750e-11
5.361470e-10
5.256360e-10
-2.931200e-10
5.007960e-11
-3.792080e-10
-1.001590e-10
9.070750e-11
4.320600e-11
5.256360e-10
6.156850e-10
-5.881900e-10
-3.792080e-10
4.320600e-10
-6.235620e-11
5.361470e-10
5.256360e-10
1.443470e-10
-2.396160e-11
-3.792080e-10
-1.001590e-10
-6.235620e-11
-5.852440e-10
5.256360e-10
6.156850e-10
-2.396160e-11
-7.855630e-12
4.320600e-10
-6.235620e-11
4.909770e-11
-1.026480e-10
1.443470e-10
-2.396160e-11
-3.996550e-10
-2.718380e-10
-6.235620e-11
-5.852440e-10
-1.026480e-10
-2.847660e-11
-2.396160e-11
-7.855630e-12
-2.718380e-10
-7.855630e-11
4.909770e-11
-1.026480e-10
-4.408970e-10
-2.976820e-11
-3.996550e-10
-2.718380e-10
2.494160e-10
4.907020e-10
-1.026480e-10
-2.847660e-11
-2.976820e-11
-1.600580e-10
-2.718380e-10
-7.855630e-11
4.907020e-10
4.801750e-10
-4.408970e-10
-2.976820e-11
-4.369690e-10
-5.020780e-10
2.494160e-10
4.907020e-10
5.783710e-10
-3.524520e-10
-2.976820e-11
-1.600580e-10
-5.020780e-10
-3.083330e-10
4.907020e-10
4.801750e-10
-3.524520e-10
-1.460160e-09
0.000000e+00
0.000000e+00
-3.535030e-11
5.042070e-11
0.000000e+00
0.000000e+00
9.426750e-11
3.056310e-11
0.000000e+00
0.000000e+00
5.042070e-11
8.444800e-11
0.000000e+00
0.000000e+00
3.056310e-11
-5.793530e-11
-3.535030e-11
5.042070e-11
3.672510e-10
-1.340870e-12
9.426750e-11
3.056310e-11
-6.726380e-10
-4.823900e-11
5.042070e-11
8.444800e-11
-1.340870e-12
-4.507170e-10
3.056310e-11
-5.793530e-11
-4.823900e-11
4.340230e-10
3.672510e-10
-1.340870e-12
-1.875530e-10
-2.883410e-10
-6.726380e-10
-4.823900e-11
3.407380e-10
3.672460e-10
-1.340870e-12
-4.507170e-10
-2.883410e-10
-4.811570e-10
-4.823900e-11
4.340230e-10
3.672460e-10
3.584130e-10
-1.875530e-10
-2.883410e-10
1.561310e-10
-2.736790e-10
3.407380e-10
3.672460e-10
2.543260e-10
-1.690160e-10
-2.883410e-10
-4.811570e-10
-2.736790e-10
-5.106160e-10
3.672460e-10
3.584130e-10
-1.690160e-10
-3.878720e-10
1.561310e-10
-2.736790e-10
-6.088110e-10
9.912230e-11
2.543260e-10
-1.690160e-10
-4.929410e-10
-4.577920e-10
-2.736790e-10
-5.106160e-10
9.912230e-11
4.065290e-10
-1.690160e-10
-3.878720e-10
-4.577920e-10
-1.954090e-10
-6.088110e-10
9.912230e-11
-1.816610e-10
-1.405790e-10
-4.929410e-10
-4.577920e-10
3.633230e-10
1.456170e-10
9.912230e-11
4.065290e-10
-1.405790e-10
2.651270e-11
-4.577920e-10
-1.954090e-10
1.456170e-10
-9.819530e-12
-1.816610e-10
-1.405790e-10
8.808120e-10
4.781150e-10
3.633230e-10
1.456170e-10
-1.875530e-10
-1.490230e-11
-1.405790e-10
2.651270e-11
4.781150e-10
3.112790e-10
1.456170e-10
-9.819530e-12
-1.490230e-11
8.837580e-11
8.808120e-10
4.781150e-10
-6.372880e-10
-2.924560e-10
-1.875530e-10
-1.490230e-11
-8.150210e-11
-3.502740e-10
4.781150e-10
3.112790e-10
-2.924560e-10
-2.062100e-11
-1.490230e-11
8.837580e-11
-3.502740e-10
-1.043820e-09
-6.372880e-10
-2.924560e-10
2.582540e-10
2.941450e-10
-8.150210e-11
-3.502740e-10
5.626590e-10
7.995100e-10
-2.924560e-10
-2.062100e-11
2.941450e-10
3.053880e-10
-3.502740e-10
-1.043820e-09
7.995100e-10
1.318760e-09
2.582540e-10
2.941450e-10
-1.865710e-11
-2.598050e-10
5.626590e-10
7.995100e-10
7.698510e-10
1.788580e-10
2.941450e-10
3.053880e-10
-2.598050e-10
-4.585720e-10
7.995100e-10
1.318760e-09
1.788580e-10
-4.487530e-10
-1.865710e-11
-2.598050e-10
-6.441610e-10
-1.352920e-10
7.698510e-10
1.788580e-10
-3.849260e-10
3.038240e-10
-2.598050e-10
-4.585720e-10
-1.352920e-10
3.122610e-10
1.788580e-10
-4.487530e-10
3.038240e-10
9.534770e-10
-6.441610e-10
-1.352920e-10
1.280470e-09
4.088730e-10
-3.849260e-10
3.038240e-10
1.364920e-10
2.727190e-10
-1.352920e-10
3.122610e-10
4.088730e-10
-4.487530e-10
3.038240e-10
9.534770e-10
2.727190e-10
2.425420e-10
1.280470e-09
4.088730e-10
-4.556260e-10
-2.307860e-10
1.364920e-10
2.727190e-10
-2.916400e-10
-5.993920e-11
4.088730e-10
-4.487530e-10
-2.307860e-10
-3.063690e-10
2.727190e-10
2.425420e-10
-5.993920e-11
-2.867300e-10
-4.556260e-10
-2.307860e-10
-2.867300e-10
-1.601580e-10
-2.916400e-10
-5.993920e-11
4.752650e-10
7.807090e-10
-2.307860e-10
-3.063690e-10
-1.601580e-10
1.571130e-11
-5.993920e-11
-2.867300e-10
7.807090e-10
1.403210e-09
-2.867300e-10
-1.601580e-10
6.569270e-10
3.524220e-11
4.752650e-10
7.807090e-10
-2.386150e-10
-4.139850e-10
-1.601580e-10
1.571130e-11
3.524220e-11
-5.626590e-10
7.807090e-10
1.403210e-09
-4.139850e-10
-7.777070e-10
6.569270e-10
3.524220e-11
-4.389330e-10
5.867030e-10
-2.386150e-10
-4.139850e-10
-7.855630e-10
-3.203680e-10
3.524220e-11
-5.626590e-10
5.867030e-10
1.505330e-09
-4.139850e-10
-7.777070e-10
-3.203680e-10
2.729830e-10
-4.389330e-10
5.867030e-10
7.924360e-10
-9.431880e-11
-7.855630e-10
-3.203680e-10
1.073280e-09
1.146690e-10
5.867030e-10
1.505330e-09
-9.431880e-11
-1.030070e-09
-3.203680e-10
2.729830e-10
1.146690e-10
-8.916140e-10
7.924360e-10
-9.431880e-11
-1.312870e-09
-5.727760e-10
1.073280e-09
1.146690e-10
6.579090e-11
-2.033530e-10
-9.431880e-11
-1.030070e-09
-5.727760e-10
1.571130e-11
1.146690e-10
-8.916140e-10
-2.033530e-10
-6.431790e-10
-1.312870e-09
-5.727760e-10
3.731420e-10
3.091750e-10
6.579090e-11
-2.033530e-10
3.407380e-10
5.904030e-10
-5.727760e-10
1.571130e-11
3.091750e-10
2.945860e-10
-2.033530e-10
-6.431790e-10
5.904030e-10
5.115980e-10
3.731420e-10
3.091750e-10
5.822980e-10
4.085240e-10
3.407380e-10
5.904030e-10
-3.623410e-10
-5.409110e-11
3.091750e-10
2.945860e-10
4.085240e-10
1.482750e-10
5.904030e-10
5.115980e-10
-5.409110e-11
-2.945860e-12
5.822980e-10
4.085240e-10
-8.238590e-10
-5.899080e-10
-3.623410e-10
-5.409110e-11
-8.523360e-10
-6.411610e-10
4.085240e-10
1.482750e-10
-5.899080e-10
-7.462850e-11
-5.409110e-11
-2.945860e-12
-6.411610e-10
-5.773890e-10
-8.238590e-10
-5.899080e-10
2.739650e-10
2.920430e-10
-8.523360e-10
-6.411610e-10
5.155260e-10
2.779300e-10
-5.899080e-10
-7.462850e-11
2.920430e-10
3.721600e-10
-6.411610e-10
-5.773890e-10
2.779300e-10
2.454880e-11
2.739650e-10
2.920430e-10
-5.734610e-10
-2.390940e-10
5.155260e-10
2.779300e-10
1.135140e-09
4.751450e-10
2.920430e-10
3.721600e-10
-2.390940e-10
-5.400740e-11
2.779300e-10
2.454880e-11
4.751450e-10
-7.070060e-11
-5.734610e-10
-2.390940e-10
-3.338640e-10
-2.934440e-10
1.135140e-09
4.751450e-10
-1.963910e-11
9.089760e-11
-2.390940e-10
-5.400740e-11
-2.934440e-10
-3.466300e-10
4.751450e-10
-7.070060e-11
9.089760e-11
3.387740e-10
-3.338640e-10
-2.934440e-10
2.366510e-10
9.070750e-11
-1.963910e-11
9.089760e-11
-2.494160e-10
-2.193280e-10
-2.934440e-10
-3.466300e-10
9.070750e-11
4.320600e-11
9.089760e-11
3.387740e-10
-2.193280e-10
-3.063690e-10
2.366510e-10
9.070750e-11
5.361470e-10
5.256360e-10
-2.494160e-10
-2.193280e-10
-1.006500e-09
-2.142960e-10
9.070750e-11
4.320600e-11
5.256360e-10
6.156850e-10
-2.193280e-10
-3.063690e-10
-2.142960e-10
5.047240e-10
5.361470e-10
5.256360e-10
1.443470e-10
-2.396160e-11
-1.006500e-09
-2.142960e-10
-2.896760e-10
-2.421080e-10
5.256360e-10
6.156850e-10
-2.396160e-11
-7.855630e-12
-2.142960e-10
5.047240e-10
-2.421080e-10
-1.679140e-10
1.443470e-10
-2.396160e-11
-3.996550e-10
-2.718380e-10
-2.896760e-10
-2.421080e-10
1.276540e-11
-3.125050e-10
-2.396160e-11
-7.855630e-12
-2.718380e-10
-7.855630e-11
-2.421080e-10
-1.679140e-10
-3.125050e-10
-4.526810e-10
-3.996550e-10
-2.718380e-10
2.494160e-10
4.907020e-10
1.276540e-11
-3.125050e-10
-1.286360e-10
1.587600e-10
-2.718380e-10
-7.855630e-11
4.907020e-10
4.801750e-10
-3.125050e-10
-4.526810e-10
1.587600e-10
9.033970e-11
2.494160e-10
4.907020e-10
5.783710e-10
-3.524520e-10
-1.286360e-10
1.587600e-10
5.498940e-10
-9.897530e-11
4.907020e-10
4.801750e-10
-3.524520e-10
-1.460160e-09
1.587600e-10
9.033970e-11
-9.897530e-11
-5.911360e-10
</DataArray>
<DataArray type="Float32" Name="V2" format="ascii">
0.000000e+00
0.000000e+00
1.377920e-03
1.377920e-03
0.000000e+00
0.000000e+00
-1.446090e-03
-1.446090e-03
0.000000e+00
0.000000e+00
1.377920e-03
1.377920e-03
0.000000e+00
0.000000e+00
-1.446090e-03
-1.446090e-03
1.377920e-03
1.377920e-03
-4.457300e-02
-4.457300e-02
-1.446090e-03
-1.446090e-03
3.948330e-02
3.948330e-02
1.377920e-03
1.377920e-03
-4.457300e-02
-4.457300e-02
-1.446090e-03
-1.446090e-03
3.948330e-02
3.948330e-02
-4.457300e-02
-4.457300e-02
4.860120e-04
4.860110e-04
3.948330e-02
3.948330e-02
-4.623230e-03
-4.623230e-03
-4.457300e-02
-4.457300e-02
4.860110e-04
4.860110e-04
3.948330e-02
3.948330e-02
-4.623230e-03
-4.623230e-03
4.860120e-04
4.860110e-04
1.885920e-02
1.885920e-02
-4.623230e-03
-4.623230e-03
-1.348890e-02
-1.348890e-02
4.860110e-04
4.860110e-04
1.885920e-02
1.885920e-02
-4.623230e-03
-4.623230e-03
-1.348890e-02
-1.348890e-02
1.885920e-02
1.885920e-02
-2.519250e-02
-2.519250e-02
-1.348890e-02
-1.348890e-02
2.805430e-02
2.805430e-02
1.885920e-02
1.885920e-02
-2.519250e-02
-2.519250e-02
-1.348890e-02
-1.348890e-02
2.805430e-02
2.805430e-02
-2.519250e-02
-2.519250e-02
5.605790e-03
5.605790e-03
2.805430e-02
2.805430e-02
-8.242180e-03
-8.242180e-03
-2.519250e-02
-2.519250e-02
5.605790e-03
5.605790e-03
2.805430e-02
2.805430e-02
-8.242180e-03
-8.242180e-03
5.605790e-03
5.605790e-03
1.716670e-02
1.716670e-02
-8.242180e-03
-8.242180e-03
-2.200430e-02
-2.200430e-02
5.605790e-03
5.605790e-03
1.716670e-02
1.716670e-02
-8.242180e-03
-8.242180e-03
-2.200430e-02
-2.200430e-02
1.716670e-02
1.716670e-02
-2.120160e-02
-2.120160e-02
-2.200430e-02
-2.200430e-02
2.049530e-02
2.049530e-02
1.716670e-02
1.716670e-02
-2.120160e-02
-2.120160e-02
-2.200430e-02
-2.200430e-02
2.049530e-02
2.049530e-02
-2.120160e-02
-2.120160e-02
6.080710e-03
6.080710e-03
2.049530e-02
2.049530e-02
-4.047110e-03
-4.047110e-03
-2.120160e-02
-2.120160e-02
6.080710e-03
6.080710e-03
2.049530e-02
2.049530e-02
-4.047110e-03
-4.047110e-03
6.080710e-03
6.080710e-03
1.842070e-02
1.842070e-02
-4.047110e-03
-4.047110e-03
-2.112450e-02
-2.112450e-02
6.080710e-03
6.080710e-03
1.842070e-02
1.842070e-02
-4.047110e-03
-4.047110e-03
-2.112450e-02
-2.112450e-02
1.842070e-02
1.842070e-02
-2.814220e-02
-2.814220e-02
-2.112450e-02
-2.112450e-02
2.723370e-02
2.723370e-02
1.842070e-02
1.842070e-02
-2.814220e-02
-2.814220e-02
-2.112450e-02
-2.112450e-02
2.723370e-02
2.723370e-02
-2.814220e-02
-2.814220e-02
6.587550e-03
6.587550e-03
2.723370e-02
2.723370e-02
-3.468760e-03
-3.468760e-03
-2.814220e-02
-2.814220e-02
6.587550e-03
6.587550e-03
2.723370e-02
2.723370e-02
-3.468760e-03
-3.468760e-03
6.587550e-03
6.587550e-03
2.944280e-02
2.944280e-02
-3.468760e-03
-3.468760e-03
-2.669080e-02
-2.669080e-02
6.587550e-03
6.587550e-03
2.944280e-02
2.944280e-02
-3.468760e-03
-3.468760e-03
-2.669080e-02
-2.669080e-02
2.944280e-02
2.944280e-02
-3.100420e-02
-3.100420e-02
-2.669080e-02
-2.669080e-02
3.014750e-02
3.014750e-02
2.944280e-02
2.944280e-02
-3.100420e-02
-3.100420e-02
-2.669080e-02
-2.669080e-02
3.014750e-02
3.014750e-02
-3.100420e-02
-3.100420e-02
6.252460e-03
6.252460e-03
3.014750e-02
3.014750e-02
-1.090940e-02
-1.090940e-02
-3.100420e-02
-3.100420e-02
6.252460e-03
6.252460e-03
3.014750e-02
3.014750e-02
-1.090940e-02
-1.090940e-02
6.252460e-03
6.252460e-03
2.609840e-02
2.609840e-02
-1.090940e-02
-1.090940e-02
-2.445170e-02
-2.445170e-02
6.252460e-03
6.252460e-03
2.609840e-02
2.609840e-02
-1.090940e-02
-1.090940e-02
-2.445170e-02
-2.445170e-02
2.609840e-02
2.609840e-02
-3.366880e-02
-3.366880e-02
-2.445170e-02
-2.445170e-02
3.332510e-02
3.332510e-02
2.609840e-02
2.609840e-02
-3.366880e-02
-3.366880e-02
-2.445170e-02
-2.445170e-02
3.332510e-02
3.332510e-02
-3.366880e-02
-3.366880e-02
1.932180e-03
1.932180e-03
3.332510e-02
3.332510e-02
-1.038620e-03
-1.038630e-03
-3.366880e-02
-3.366880e-02
1.932180e-03
1.932180e-03
3.332510e-02
3.332510e-02
-1.038630e-03
-1.038630e-03
1.932180e-03
1.932180e-03
2.117210e-02
2.117210e-02
-1.038620e-03
-1.038630e-03
-2.005190e-02
-2.005190e-02
1.932180e-03
1.932180e-03
2.117210e-02
2.117210e-02
-1.038630e-03
-1.038630e-03
-2.005190e-02
-2.005190e-02
2.117210e-02
2.117210e-02
-2.064630e-02
-2.064630e-02
-2.005190e-02
-2.005190e-02
1.946630e-02
1.946630e-02
2.117210e-02
2.117210e-02
-2.064630e-02
-2.064630e-02
-2.005190e-02
-2.005190e-02
1.946630e-02
1.946630e-02
-2.064630e-02
-2.064630e-02
2.718480e-03
2.718470e-03
1.946630e-02
1.946630e-02
-2.671910e-03
-2.671910e-03
-2.064630e-02
-2.064630e-02
2.718470e-03
2.718470e-03
1.946630e-02
1.946630e-02
-2.671910e-03
-2.671910e-03
2.718480e-03
2.718470e-03
1.860710e-02
1.860710e-02
-2.671910e-03
-2.671910e-03
-1.678550e-02
-1.678550e-02
2.718470e-03
2.718470e-03
1.860710e-02
1.860710e-02
-2.671910e-03
-2.671910e-03
-1.678550e-02
-1.678550e-02
1.860710e-02
1.860710e-02
-1.406060e-02
-1.406060e-02
-1.678550e-02
-1.678550e-02
1.665230e-02
1.665230e-02
1.860710e-02
1.860710e-02
-1.406060e-02
-1.406060e-02
-1.678550e-02
-1.678550e-02
1.665230e-02
1.665230e-02
-1.406060e-02
-1.406060e-02
1.985380e-04
1.985400e-04
1.665230e-02
1.665230e-02
-7.108820e-03
-7.108820e-03
-1.406060e-02
-1.406060e-02
1.985400e-04
1.985380e-04
1.665230e-02
1.665230e-02
-7.108820e-03
-7.108820e-03
1.985380e-04
1.985400e-04
2.561720e-03
2.561720e-03
-7.108820e-03
-7.108820e-03
-5.496940e-03
-5.496950e-03
1.985400e-04
1.985380e-04
2.561720e-03
2.561720e-03
-7.108820e-03
-7.108820e-03
-5.496950e-03
-5.496950e-03
2.561720e-03
2.561720e-03
-8.219430e-03
-8.219430e-03
-5.496940e-03
-5.496950e-03
1.330520e-02
1.330520e-02
2.561720e-03
2.561720e-03
-8.219430e-03
-8.219430e-03
-5.496950e-03
-5.496950e-03
1.330520e-02
1.330520e-02
-8.219430e-03
-8.219430e-03
2.536160e-02
2.536160e-02
1.330520e-02
1.330520e-02
-1.932700e-02
-1.932700e-02
-8.219430e-03
-8.219430e-03
2.536160e-02
2.536160e-02
1.330520e-02
1.330520e-02
-1.932700e-02
-1.932700e-02
2.536160e-02
2.536160e-02
2.519280e-03
2.519280e-03
-1.932700e-02
-1.932700e-02
-7.125670e-03
-7.125670e-03
2.536160e-02
2.536160e-02
2.519280e-03
2.519280e-03
-1.932700e-02
-1.932700e-02
-7.125670e-03
-7.125670e-03
2.519280e-03
2.519280e-03
-3.721600e-03
-3.721600e-03
-7.125670e-03
-7.125670e-03
-2.255890e-03
-2.255890e-03
2.519280e-03
2.519280e-03
-3.721600e-03
-3.721600e-03
-7.125670e-03
-7.125670e-03
-2.255890e-03
-2.255890e-03
-3.721600e-03
-3.721600e-03
3.145520e-02
3.145520e-02
-2.255890e-03
-2.255890e-03
-2.529190e-02
-2.529190e-02
-3.721600e-03
-3.721600e-03
3.145520e-02
3.145520e-02
-2.255890e-03
-2.255890e-03
-2.529190e-02
-2.529190e-02
0.000000e+00
0.000000e+00
-1.446090e-03
-1.446090e-03
0.000000e+00
0.000000e+00
1.383590e-03
1.383590e-03
0.000000e+00
0.000000e+00
-1.446090e-03
-1.446090e-03
0.000000e+00
0.000000e+00
1.383590e-03
1.383580e-03
-1.446090e-03
-1.446090e-03
3.948330e-02
3.948330e-02
1.383590e-03
1.383590e-03
-3.437390e-02
-3.437390e-02
-1.446090e-03
-1.446090e-03
3.948330e-02
3.948330e-02
1.383590e-03