<?xml version="1.0"?>
<VTKFile type="UnstructuredGrid" version="0.1" byte_order="LittleEndian" compressor="vtkZLibDataCompressor">
<UnstructuredGrid>
<Piece NumberOfPoints="960" NumberOfCells="120">
<Points>
<DataArray type="Float32" NumberOfComponents="3" format="ascii">
-4.000000e+02 -6.000000e+03 -4.000000e+02
0.000000e+00 -6.000000e+03 -4.000000e+02
-4.000000e+02 -5.600150e+03 -3.998290e+02
-1.368830e-05 -5.600150e+03 -3.998290e+02
-4.000000e+02 -6.000000e+03 0.000000e+00
0.000000e+00 -6.000000e+03 0.000000e+00
-4.000000e+02 -5.599950e+03 -2.636220e-01
6.896950e-07 -5.599950e+03 -2.636230e-01
0.000000e+00 -6.000000e+03 -4.000000e+02
4.000000e+02 -6.000000e+03 -4.000000e+02
-1.368830e-05 -5.600150e+03 -3.998290e+02
4.000000e+02 -5.600150e+03 -3.998290e+02
0.000000e+00 -6.000000e+03 0.000000e+00
4.000000e+02 -6.000000e+03 0.000000e+00
6.896950e-07 -5.599950e+03 -2.636230e-01
4.000000e+02 -5.599950e+03 -2.636250e-01
-4.000000e+02 -5.600150e+03 -3.998290e+02
-1.368830e-05 -5.600150e+03 -3.998290e+02
-4.000000e+02 -5.200130e+03 -4.002610e+02
-2.201260e-05 -5.200130e+03 -4.002610e+02
-4.000000e+02 -5.599950e+03 -2.636220e-01
6.896950e-07 -5.599950e+03 -2.636230e-01
-4.000000e+02 -5.199930e+03 1.745850e-02
1.012930e-05 -5.199930e+03 1.745800e-02
-1.368830e-05 -5.600150e+03 -3.998290e+02
4.000000e+02 -5.600150e+03 -3.998290e+02
-2.201260e-05 -5.200130e+03 -4.002610e+02
4.000000e+02 -5.200130e+03 -4.002610e+02
6.896950e-07 -5.599950e+03 -2.636230e-01
4.000000e+02 -5.599950e+03 -2.636250e-01
1.012930e-05 -5.199930e+03 1.745800e-02
4.000000e+02 -5.199930e+03 1.745760e-02
-4.000000e+02 -5.200130e+03 -4.002610e+02
-2.201260e-05 -5.200130e+03 -4.002610e+02
-4.000000e+02 -4.800000e+03 -4.002010e+02
-2.085610e-05 -4.800000e+03 -4.002010e+02
-4.000000e+02 -5.199930e+03 1.745850e-02
1.012930e-05 -5.199930e+03 1.745800e-02
-4.000000e+02 -4.800020e+03 -5.103710e-02
7.317250e-06 -4.800020e+03 -5.103570e-02
-2.201260e-05 -5.200130e+03 -4.002610e+02
4.000000e+02 -5.200130e+03 -4.002610e+02
-2.085610e-05 -4.800000e+03 -4.002010e+02
4.000000e+02 -4.800000e+03 -4.002010e+02
1.012930e-05 -5.199930e+03 1.745800e-02
4.000000e+02 -5.199930e+03 1.745760e-02
7.317250e-06 -4.800020e+03 -5.103570e-02
4.000000e+02 -4.800020e+03 -5.103440e-02
-4.000000e+02 -4.800000e+03 -4.002010e+02
-2.085610e-05 -4.800000e+03 -4.002010e+02
-4.000000e+02 -4.399990e+03 -4.000230e+02
-1.286260e-06 -4.399990e+03 -4.000230e+02
-4.000000e+02 -4.800020e+03 -5.103710e-02
7.317250e-06 -4.800020e+03 -5.103570e-02
-4.000000e+02 -4.400020e+03 -2.866720e-01
-1.821540e-06 -4.400020e+03 -2.866700e-01
-2.085610e-05 -4.800000e+03 -4.002010e+02
4.000000e+02 -4.800000e+03 -4.002010e+02
-1.286260e-06 -4.399990e+03 -4.000230e+02
4.000000e+02 -4.399990e+03 -4.000230e+02
7.317250e-06 -4.800020e+03 -5.103570e-02
4.000000e+02 -4.800020e+03 -5.103440e-02
-1.821540e-06 -4.400020e+03 -2.866700e-01
4.000000e+02 -4.400020e+03 -2.866670e-01
-4.000000e+02 -4.399990e+03 -4.000230e+02
-1.286260e-06 -4.399990e+03 -4.000230e+02
-4.000000e+02 -4.000090e+03 -4.003520e+02
1.913700e-06 -4.000090e+03 -4.003520e+02
-4.000000e+02 -4.400020e+03 -2.866720e-01
-1.821540e-06 -4.400020e+03 -2.866700e-01
-4.000000e+02 -4.000030e+03 -5.983390e-02
1.319750e-06 -4.000030e+03 -5.982940e-02
-1.286260e-06 -4.399990e+03 -4.000230e+02
4.000000e+02 -4.399990e+03 -4.000230e+02
1.913700e-06 -4.000090e+03 -4.003520e+02
4.000000e+02 -4.000090e+03 -4.003520e+02
-1.821540e-06 -4.400020e+03 -2.866700e-01
4.000000e+02 -4.400020e+03 -2.866670e-01
1.319750e-06 -4.000030e+03 -5.982940e-02
4.000000e+02 -4.000030e+03 -5.982500e-02
-4.000000e+02 -4.000090e+03 -4.003520e+02
1.913700e-06 -4.000090e+03 -4.003520e+02
-4.000000e+02 -3.600240e+03 -4.002620e+02
9.503390e-08 -3.600240e+03 -4.002620e+02
-4.000000e+02 -4.000030e+03 -5.983390e-02
1.319750e-06 -4.000030e+03 -5.982940e-02
-4.000000e+02 -3.599970e+03 -5.440910e-01
2.046700e-06 -3.599970e+03 -5.440890e-01
1.913700e-06 -4.000090e+03 -4.003520e+02
4.000000e+02 -4.000090e+03 -4.003520e+02
9.503390e-08 -3.600240e+03 -4.002620e+02
4.000000e+02 -3.600240e+03 -4.002620e+02
1.319750e-06 -4.000030e+03 -5.982940e-02
4.000000e+02 -4.000030e+03 -5.982500e-02
2.046700e-06 -3.599970e+03 -5.440890e-01
4.000000e+02 -3.599970e+03 -5.440880e-01
-4.000000e+02 -3.600240e+03 -4.002620e+02
9.503390e-08 -3.600240e+03 -4.002620e+02
-4.000000e+02 -3.200180e+03 -4.005680e+02
-1.197480e-06 -3.200180e+03 -4.005680e+02
-4.000000e+02 -3.599970e+03 -5.440910e-01
2.046700e-06 -3.599970e+03 -5.440890e-01
-4.000000e+02 -3.199940e+03 -6.740450e-01
1.898240e-06 -3.199940e+03 -6.740480e-01
9.503390e-08 -3.600240e+03 -4.002620e+02
4.000000e+02 -3.600240e+03 -4.002620e+02
-1.197480e-06 -3.200180e+03 -4.005680e+02
4.000000e+02 -3.200180e+03 -4.005680e+02
2.046700e-06 -3.599970e+03 -5.440890e-01
4.000000e+02 -3.599970e+03 -5.440880e-01
1.898240e-06 -3.199940e+03 -6.740480e-01
4.000000e+02 -3.199940e+03 -6.740510e-01
-4.000000e+02 -3.200180e+03 -4.005680e+02
-1.197480e-06 -3.200180e+03 -4.005680e+02
-4.000000e+02 -2.799980e+03 -4.007460e+02
-4.645760e-06 -2.799980e+03 -4.007460e+02
-4.000000e+02 -3.199940e+03 -6.740450e-01
1.898240e-06 -3.199940e+03 -6.740480e-01
-4.000000e+02 -2.800060e+03 -3.643310e-01
5.746760e-07 -2.800060e+03 -3.643340e-01
-1.197480e-06 -3.200180e+03 -4.005680e+02
4.000000e+02 -3.200180e+03 -4.005680e+02
-4.645760e-06 -2.799980e+03 -4.007460e+02
4.000000e+02 -2.799980e+03 -4.007460e+02
1.898240e-06 -3.199940e+03 -6.740480e-01
4.000000e+02 -3.199940e+03 -6.740510e-01
5.746760e-07 -2.800060e+03 -3.643340e-01
4.000000e+02 -2.800060e+03 -3.643370e-01
-4.000000e+02 -2.799980e+03 -4.007460e+02
-4.645760e-06 -2.799980e+03 -4.007460e+02
-4.000000e+02 -2.400020e+03 -4.006030e+02
-3.739980e-06 -2.400020e+03 -4.006030e+02
-4.000000e+02 -2.800060e+03 -3.643310e-01
5.746760e-07 -2.800060e+03 -3.643340e-01
-4.000000e+02 -2.400000e+03 -6.414050e-01
-1.162410e-06 -2.400000e+03 -6.414110e-01
-4.645760e-06 -2.799980e+03 -4.007460e+02
4.000000e+02 -2.799980e+03 -4.007460e+02
-3.739980e-06 -2.400020e+03 -4.006030e+02
4.000000e+02 -2.400020e+03 -4.006030e+02
5.746760e-07 -2.800060e+03 -3.643340e-01
4.000000e+02 -2.800060e+03 -3.643370e-01
-1.162410e-06 -2.400000e+03 -6.414110e-01
4.000000e+02 -2.400000e+03 -6.414160e-01
-4.000000e+02 -2.400020e+03 -4.006030e+02
-3.739980e-06 -2.400020e+03 -4.006030e+02
-4.000000e+02 -2.000070e+03 -4.006980e+02
-4.504300e-06 -2.000070e+03 -4.006980e+02
-4.000000e+02 -2.400000e+03 -6.414050e-01
-1.162410e-06 -2.400000e+03 -6.414110e-01
-4.000000e+02 -1.999980e+03 -7.174240e-01
-2.429470e-06 -1.999980e+03 -7.174340e-01
-3.739980e-06 -2.400020e+03 -4.006030e+02
4.000000e+02 -2.400020e+03 -4.006030e+02
-4.504300e-06 -2.000070e+03 -4.006980e+02
4.000000e+02 -2.000070e+03 -4.006980e+02
-1.162410e-06 -2.400000e+03 -6.414110e-01
4.000000e+02 -2.400000e+03 -6.414160e-01
-2.429470e-06 -1.999980e+03 -7.174340e-01
4.000000e+02 -1.999980e+03 -7.174430e-01
-4.000000e+02 -2.000070e+03 -4.006980e+02
-4.504300e-06 -2.000070e+03 -4.006980e+02
-4.000000e+02 -1.600130e+03 -4.007260e+02
2.355490e-06 -1.600130e+03 -4.007260e+02
-4.000000e+02 -1.999980e+03 -7.174240e-01
-2.429470e-06 -1.999980e+03 -7.174340e-01
-4.000000e+02 -1.600000e+03 -7.728820e-01
-3.402280e-06 -1.600000e+03 -7.728770e-01
-4.504300e-06 -2.000070e+03 -4.006980e+02
4.000000e+02 -2.000070e+03 -4.006980e+02
2.355490e-06 -1.600130e+03 -4.007260e+02
4.000000e+02 -1.600130e+03 -4.007260e+02
-2.429470e-06 -1.999980e+03 -7.174340e-01
4.000000e+02 -1.999980e+03 -7.174430e-01
-3.402280e-06 -1.600000e+03 -7.728770e-01
4.000000e+02 -1.600000e+03 -7.728720e-01
-4.000000e+02 -1.600130e+03 -4.007260e+02
2.355490e-06 -1.600130e+03 -4.007260e+02
-4.000000e+02 -1.200040e+03 -4.009480e+02
2.053250e-06 -1.200040e+03 -4.009480e+02
-4.000000e+02 -1.600000e+03 -7.728820e-01
-3.402280e-06 -1.600000e+03 -7.728770e-01
-4.000000e+02 -1.200020e+03 -9.297100e-01
2.742700e-06 -1.200020e+03 -9.297060e-01
2.355490e-06 -1.600130e+03 -4.007260e+02
4.000000e+02 -1.600130e+03 -4.007260e+02
2.053250e-06 -1.200040e+03 -4.009480e+02
4.000000e+02 -1.200040e+03 -4.009480e+02
-3.402280e-06 -1.600000e+03 -7.728770e-01
4.000000e+02 -1.600000e+03 -7.728720e-01
2.742700e-06 -1.200020e+03 -9.297060e-01
4.000000e+02 -1.200020e+03 -9.297020e-01
-4.000000e+02 -1.200040e+03 -4.009480e+02
2.053250e-06 -1.200040e+03 -4.009480e+02
-4.000000e+02 -7.999840e+02 -4.006960e+02
1.055600e-05 -7.999840e+02 -4.006960e+02
-4.000000e+02 -1.200020e+03 -9.297100e-01
2.742700e-06 -1.200020e+03 -9.297060e-01
-4.000000e+02 -8.000030e+02 -9.034420e-01
2.215490e-07 -8.000030e+02 -9.034360e-01
2.053250e-06 -1.200040e+03 -4.009480e+02
4.000000e+02 -1.200040e+03 -4.009480e+02
1.055600e-05 -7.999840e+02 -4.006960e+02
4.000000e+02 -7.999840e+02 -4.006960e+02
2.742700e-06 -1.200020e+03 -9.297060e-01
4.000000e+02 -1.200020e+03 -9.297020e-01
2.215490e-07 -8.000030e+02 -9.034360e-01
4.000000e+02 -8.000030e+02 -9.034300e-01
-4.000000e+02 -7.999840e+02 -4.006960e+02
1.055600e-05 -7.999840e+02 -4.006960e+02
-4.000000e+02 -4.000430e+02 -4.009730e+02
1.606500e-05 -4.000430e+02 -4.009730e+02
-4.000000e+02 -8.000030e+02 -9.034420e-01
2.215490e-07 -8.000030e+02 -9.034360e-01
-4.000000e+02 -3.999570e+02 -7.690640e-01
-2.517080e-06 -3.999570e+02 -7.690500e-01
1.055600e-05 -7.999840e+02 -4.006960e+02
4.000000e+02 -7.999840e+02 -4.006960e+02
1.606500e-05 -4.000430e+02 -4.009730e+02
4.000000e+02 -4.000430e+02 -4.009730e+02
2.215490e-07 -8.000030e+02 -9.034360e-01
4.000000e+02 -8.000030e+02 -9.034300e-01
-2.517080e-06 -3.999570e+02 -7.690500e-01
4.000000e+02 -3.999570e+02 -7.690350e-01
-4.000000e+02 -4.000430e+02 -4.009730e+02
1.606500e-05 -4.000430e+02 -4.009730e+02
-4.000000e+02 5.933460e-03 -4.010030e+02
2.465950e-06 5.932780e-03 -4.010030e+02
-4.000000e+02 -3.999570e+02 -7.690640e-01
-2.517080e-06 -3.999570e+02 -7.690500e-01
-4.000000e+02 -1.005880e-02 -7.884160e-01
2.420950e-06 -1.006000e-02 -7.884050e-01
1.606500e-05 -4.000430e+02 -4.009730e+02
4.000000e+02 -4.000430e+02 -4.009730e+02
[...]
<PointData>
<DataArray type="Float32" Name="V1" format="ascii">
0.000000e+00
0.000000e+00
-2.096260e-05
-2.096340e-05
0.000000e+00
0.000000e+00
1.471710e-05
1.471750e-05
0.000000e+00
0.000000e+00
-2.096340e-05
-2.096390e-05
0.000000e+00
0.000000e+00
1.471750e-05
1.471820e-05
-2.096260e-05
-2.096340e-05
2.161340e-06
2.162710e-06
1.471710e-05
1.471750e-05
-2.722860e-06
-2.723950e-06
-2.096340e-05
-2.096390e-05
2.162710e-06
2.163880e-06
1.471750e-05
1.471820e-05
-2.723950e-06
-2.725020e-06
2.161340e-06
2.162710e-06
-1.368370e-05
-1.368330e-05
-2.722860e-06
-2.723950e-06
1.336080e-05
1.336060e-05
2.162710e-06
2.163880e-06
-1.368330e-05
-1.368270e-05
-2.723950e-06
-2.725020e-06
1.336060e-05
1.336050e-05
-1.368370e-05
-1.368330e-05
-7.521280e-06
-7.521120e-06
1.336080e-05
1.336060e-05
1.202370e-06
1.202340e-06
-1.368330e-05
-1.368270e-05
-7.521120e-06
-7.520870e-06
1.336060e-05
1.336050e-05
1.202340e-06
1.202560e-06
-7.521280e-06
-7.521120e-06
3.294250e-06
3.295050e-06
1.202370e-06
1.202340e-06
-2.679840e-06
-2.679210e-06
-7.521120e-06
-7.520870e-06
3.295050e-06
3.295770e-06
1.202340e-06
1.202560e-06
-2.679210e-06
-2.678630e-06
3.294250e-06
3.295050e-06
1.608800e-06
1.607500e-06
-2.679840e-06
-2.679210e-06
-7.037410e-07
-7.051570e-07
3.295050e-06
3.295770e-06
1.607500e-06
1.606030e-06
-2.679210e-06
-2.678630e-06
-7.051570e-07
-7.064520e-07
1.608800e-06
1.607500e-06
-1.028900e-06
-1.028310e-06
-7.037410e-07
-7.051570e-07
4.981450e-09
5.548650e-09
1.607500e-06
1.606030e-06
-1.028310e-06
-1.027810e-06
-7.051570e-07
-7.064520e-07
5.548650e-09
6.094000e-09
-1.028900e-06
-1.028310e-06
-2.577320e-06
-2.577220e-06
4.981450e-09
5.548650e-09
2.725080e-06
2.726050e-06
-1.028310e-06
-1.027810e-06
-2.577220e-06
-2.577210e-06
5.548650e-09
6.094000e-09
2.726050e-06
2.727000e-06
-2.577320e-06
-2.577220e-06
-3.448200e-07
-3.452830e-07
2.725080e-06
2.726050e-06
1.475880e-06
1.475500e-06
-2.577220e-06
-2.577210e-06
-3.452830e-07
-3.455290e-07
2.726050e-06
2.727000e-06
1.475500e-06
1.475270e-06
-3.448200e-07
-3.452830e-07
-4.469440e-06
-4.469060e-06
1.475880e-06
1.475500e-06
3.177370e-06
3.176800e-06
-3.452830e-07
-3.455290e-07
-4.469060e-06
-4.468780e-06
1.475500e-06
1.475270e-06
3.176800e-06
3.176060e-06
-4.469440e-06
-4.469060e-06
-1.998080e-06
-1.997300e-06
3.177370e-06
3.176800e-06
-3.693120e-06
-3.692370e-06
-4.469060e-06
-4.468780e-06
-1.997300e-06
-1.996610e-06
3.176800e-06
3.176060e-06
-3.692370e-06
-3.691600e-06
-1.998080e-06
-1.997300e-06
3.121350e-06
3.121570e-06
-3.693120e-06
-3.692370e-06
-4.460460e-06
-4.461630e-06
-1.997300e-06
-1.996610e-06
3.121570e-06
3.121810e-06
-3.692370e-06
-3.691600e-06
-4.461630e-06
-4.462740e-06
3.121350e-06
3.121570e-06
-8.791070e-06
-8.791100e-06
-4.460460e-06
-4.461630e-06
5.599830e-06
5.599870e-06
3.121570e-06
3.121810e-06
-8.791100e-06
-8.791290e-06
-4.461630e-06
-4.462740e-06
5.599870e-06
5.600200e-06
-8.791070e-06
-8.791100e-06
5.008020e-06
5.008520e-06
5.599830e-06
5.599870e-06
-1.650410e-06
-1.650900e-06
-8.791100e-06
-8.791290e-06
5.008520e-06
5.008420e-06
5.599870e-06
5.600200e-06
-1.650900e-06
-1.651100e-06
5.008020e-06
5.008520e-06
2.040220e-06
2.040040e-06
-1.650410e-06
-1.650900e-06
-1.113850e-06
-1.113550e-06
5.008520e-06
5.008420e-06
2.040040e-06
2.039940e-06
-1.650900e-06
-1.651100e-06
-1.113550e-06
-1.113670e-06
2.040220e-06
2.040040e-06
4.091360e-07
4.087130e-07
-1.113850e-06
-1.113550e-06
3.028070e-06
3.028590e-06
2.040040e-06
2.039940e-06
4.087130e-07
4.087260e-07
-1.113550e-06
-1.113670e-06
3.028590e-06
3.029210e-06
4.091360e-07
4.087130e-07
7.175830e-06
7.175990e-06
3.028070e-06
3.028590e-06
-5.236530e-06
-5.236490e-06
4.087130e-07
4.087260e-07
7.175990e-06
7.175820e-06
3.028590e-06
3.029210e-06
-5.236490e-06
-5.236950e-06
7.175830e-06
7.175990e-06
-2.936260e-06
-2.938090e-06
-5.236530e-06
-5.236490e-06
2.350850e-06
2.350450e-06
7.175990e-06
7.175820e-06
-2.938090e-06
-2.939250e-06
-5.236490e-06
-5.236950e-06
2.350450e-06
2.350220e-06
-2.936260e-06
-2.938090e-06
1.475460e-06
1.476230e-06
2.350850e-06
2.350450e-06
1.694140e-06
1.694750e-06
-2.938090e-06
-2.939250e-06
1.476230e-06
1.477100e-06
2.350450e-06
2.350220e-06
1.694750e-06
1.695320e-06
1.475460e-06
1.476230e-06
1.665070e-06
1.664520e-06
1.694140e-06
1.694750e-06
-4.508030e-06
-4.508460e-06
1.476230e-06
1.477100e-06
1.664520e-06
1.664230e-06
1.694750e-06
1.695320e-06
-4.508460e-06
-4.509060e-06
1.665070e-06
1.664520e-06
-6.860850e-06
-6.860460e-06
-4.508030e-06
-4.508460e-06
2.134080e-06
2.134350e-06
1.664520e-06
1.664230e-06
-6.860460e-06
-6.859520e-06
-4.508460e-06
-4.509060e-06
2.134350e-06
2.134770e-06
-6.860850e-06
-6.860460e-06
-1.206490e-06
-1.207090e-06
2.134080e-06
2.134350e-06
-1.430270e-06
-1.430930e-06
-6.860460e-06
-6.859520e-06
-1.207090e-06
-1.207940e-06
2.134350e-06
2.134770e-06
-1.430930e-06
-1.432010e-06
-1.206490e-06
-1.207090e-06
-2.508500e-06
-2.507990e-06
-1.430270e-06
-1.430930e-06
4.363370e-07
4.363710e-07
-1.207090e-06
-1.207940e-06
-2.507990e-06
-2.507270e-06
-1.430930e-06
-1.432010e-06
4.363710e-07
4.366310e-07
-2.508500e-06
-2.507990e-06
-2.065860e-06
-2.066610e-06
4.363370e-07
4.363710e-07
-1.528220e-07
-1.524490e-07
-2.507990e-06
-2.507270e-06
-2.066610e-06
-2.066920e-06
4.363710e-07
4.366310e-07
-1.524490e-07
-1.520770e-07
-2.065860e-06
-2.066610e-06
2.441090e-06
2.442330e-06
-1.528220e-07
-1.524490e-07
2.910350e-06
2.910930e-06
-2.066610e-06
-2.066920e-06
2.442330e-06
2.443420e-06
-1.524490e-07
-1.520770e-07
2.910930e-06
2.911520e-06
2.441090e-06
2.442330e-06
8.300540e-06
8.300490e-06
2.910350e-06
2.910930e-06
-3.577560e-06
-3.577780e-06
2.442330e-06
2.443420e-06
8.300490e-06
8.300340e-06
2.910930e-06
2.911520e-06
-3.577780e-06
-3.578390e-06
8.300540e-06
8.300490e-06
9.709740e-06
9.709860e-06
-3.577560e-06
-3.577780e-06
-3.038410e-06
-3.037840e-06
8.300490e-06
8.300340e-06
9.709860e-06
9.709620e-06
-3.577780e-06
-3.578390e-06
-3.037840e-06
-3.037610e-06
9.709740e-06
9.709860e-06
-1.110080e-05
-1.110110e-05
-3.038410e-06
-3.037840e-06
1.037960e-05
1.037920e-05
9.709860e-06
9.709620e-06
-1.110110e-05
-1.110160e-05
-3.037840e-06
-3.037610e-06
1.037920e-05
1.037870e-05
-1.110080e-05
-1.110110e-05
-9.792890e-07
-9.783610e-07
1.037960e-05
1.037920e-05
-4.518770e-06
-4.518430e-06
-1.110110e-05
-1.110160e-05
-9.783610e-07
-9.775310e-07
1.037920e-05
1.037870e-05
-4.518430e-06
-4.518750e-06
-9.792890e-07
-9.783610e-07
-1.840590e-06
-1.841190e-06
-4.518770e-06
-4.518430e-06
-2.707710e-06
-2.707100e-06
-9.783610e-07
-9.775310e-07
-1.841190e-06
-1.842370e-06
-4.518430e-06
-4.518750e-06
-2.707100e-06
-2.706170e-06
0.000000e+00
0.000000e+00
1.471710e-05
1.471750e-05
0.000000e+00
0.000000e+00
-8.426430e-06
-8.426340e-06
0.000000e+00
0.000000e+00
1.471750e-05
1.471820e-05
0.000000e+00
0.000000e+00
-8.426340e-06
-8.426150e-06
1.471710e-05
1.471750e-05
-2.722860e-06
-2.723950e-06
-8.426430e-06
-8.426340e-06
3.240380e-06
3.240760e-06
1.471750e-05
1.471820e-05
-2.723950e-06
-2.725020e-06
-8.426340e-06
-8.426150e-06
3.240760e-06
3.241150e-06
-2.722860e-06
-2.723950e-06
1.336080e-05
1.336060e-05
3.240380e-06
3.240760e-06
-1.301730e-05
-1.301640e-05
-2.723950e-06
-2.725020e-06
1.336060e-05
1.336050e-05
3.240760e-06
3.241150e-06
-1.301640e-05
-1.301540e-05
1.336080e-05
1.336060e-05
1.202370e-06
1.202340e-06
-1.301730e-05
-1.301640e-05
5.134800e-06
5.134090e-06
1.336060e-05
1.336050e-05
1.202340e-06
1.202560e-06
-1.301640e-05
-1.301540e-05
5.134090e-06
5.133300e-06
1.202370e-06
1.202340e-06
-2.679840e-06
-2.679210e-06
5.134800e-06
5.134090e-06
2.040840e-06
2.041310e-06
1.202340e-06
1.202560e-06
-2.679210e-06
-2.678630e-06
5.134090e-06
5.133300e-06
2.041310e-06
2.041900e-06
-2.679840e-06
-2.679210e-06
-7.037410e-07
-7.051570e-07
2.040840e-06
2.041310e-06
-2.071280e-07
-2.073880e-07
-2.679210e-06
-2.678630e-06
-7.051570e-07
-7.064520e-07
2.041310e-06
2.041900e-06
-2.073880e-07
-2.077380e-07
-7.037410e-07
-7.051570e-07
4.981450e-09
5.548650e-09
-2.071280e-07
-2.073880e-07
1.030310e-06
1.030950e-06
-7.051570e-07
-7.064520e-07
5.548650e-09
6.094000e-09
-2.073880e-07
-2.077380e-07
1.030950e-06
1.031800e-06
4.981450e-09
5.548650e-09
2.725080e-06
2.726050e-06
1.030310e-06
1.030950e-06
-2.871830e-06
-2.871730e-06
5.548650e-09
6.094000e-09
2.726050e-06
2.727000e-06
1.030950e-06
1.031800e-06
-2.871730e-06
-2.871350e-06
2.725080e-06
2.726050e-06
1.475880e-06
1.475500e-06
-2.871830e-06
-2.871730e-06
-2.600490e-06
-2.601530e-06
2.726050e-06
2.727000e-06
1.475500e-06
1.475270e-06
-2.871730e-06
-2.871350e-06
-2.601530e-06
-2.602590e-06
1.475880e-06
1.475500e-06
3.177370e-06
3.176800e-06
-2.600490e-06
-2.601530e-06
-1.906290e-06
-1.904980e-06
1.475500e-06
1.475270e-06
3.176800e-06
3.176060e-06
-2.601530e-06
-2.602590e-06
-1.904980e-06
-1.903570e-06
3.177370e-06
3.176800e-06
-3.693120e-06
-3.692370e-06
-1.906290e-06
-1.904980e-06
9.411580e-06
9.410800e-06
3.176800e-06
3.176060e-06
-3.692370e-06
-3.691600e-06
-1.904980e-06
-1.903570e-06
9.410800e-06
9.410250e-06
-3.693120e-06
-3.692370e-06
-4.460460e-06
-4.461630e-06
9.411580e-06
9.410800e-06
5.785330e-06
5.785830e-06
-3.692370e-06
-3.691600e-06
-4.461630e-06
-4.462740e-06
9.410800e-06
9.410250e-06
5.785830e-06
5.786500e-06
-4.460460e-06
-4.461630e-06
5.599830e-06
5.599870e-06
5.785330e-06
5.785830e-06
-2.414640e-06
-2.414930e-06
-4.461630e-06
-4.462740e-06
5.599870e-06
5.600200e-06
5.785830e-06
5.786500e-06
-2.414930e-06
-2.414950e-06
5.599830e-06
5.599870e-06
-1.650410e-06
-1.650900e-06
-2.414640e-06
-2.414930e-06
-1.712030e-06
-1.712070e-06
5.599870e-06
5.600200e-06
-1.650900e-06
-1.651100e-06
-2.414930e-06
-2.414950e-06
-1.712070e-06
-1.712390e-06
-1.650410e-06
-1.650900e-06
-1.113850e-06
-1.113550e-06
-1.712030e-06
-1.712070e-06
2.193250e-07
2.213190e-07
-1.650900e-06
-1.651100e-06
-1.113550e-06
-1.113670e-06
-1.712070e-06
-1.712390e-06
2.213190e-07
2.229200e-07
-1.113850e-06
-1.113550e-06
3.028070e-06
3.028590e-06
2.193250e-07
2.213190e-07
-6.506950e-06
-6.507660e-06
-1.113550e-06
-1.113670e-06
3.028590e-06
3.029210e-06
2.213190e-07
2.229200e-07
-6.507660e-06
-6.508340e-06
3.028070e-06
3.028590e-06
-5.236530e-06
-5.236490e-06
-6.506950e-06
-6.507660e-06
3.334860e-06
3.334300e-06
3.028590e-06
3.029210e-06
-5.236490e-06
-5.236950e-06
-6.507660e-06
-6.508340e-06
3.334300e-06
3.334140e-06
-5.236530e-06
-5.236490e-06
2.350850e-06
2.350450e-06
3.334860e-06
3.334300e-06
-1.765680e-06
-1.766760e-06
-5.236490e-06
-5.236950e-06
2.350450e-06
2.350220e-06
3.334300e-06
3.334140e-06
-1.766760e-06
-1.768170e-06
2.350850e-06
2.350450e-06
1.694140e-06
1.694750e-06
-1.765680e-06
-1.766760e-06
-4.878370e-06
-4.877860e-06
2.350450e-06
2.350220e-06
1.694750e-06
1.695320e-06
-1.766760e-06
-1.768170e-06
-4.877860e-06
-4.877240e-06
1.694140e-06
1.694750e-06
-4.508030e-06
-4.508460e-06
-4.878370e-06
-4.877860e-06
7.333190e-06
7.333600e-06
1.694750e-06
1.695320e-06
-4.508460e-06
-4.509060e-06
-4.877860e-06
-4.877240e-06
7.333600e-06
7.333990e-06
-4.508030e-06
-4.508460e-06
2.134080e-06
2.134350e-06
7.333190e-06
7.333600e-06
2.621530e-06
2.622310e-06
-4.508460e-06
-4.509060e-06
2.134350e-06
2.134770e-06
7.333600e-06
7.333990e-06
2.622310e-06
2.622530e-06
2.134080e-06
2.134350e-06
-1.430270e-06
-1.430930e-06
2.621530e-06
2.622310e-06
4.049170e-06
4.049000e-06
2.134350e-06
2.134770e-06
-1.430930e-06
-1.432010e-06
2.622310e-06
2.622530e-06
4.049000e-06
4.048940e-06
-1.430270e-06
-1.430930e-06
4.363370e-07
4.363710e-07
4.049170e-06
4.049000e-06
1.660100e-06
1.659720e-06
-1.430930e-06
-1.432010e-06
4.363710e-07
4.366310e-07
4.049000e-06
4.048940e-06
1.659720e-06
1.658990e-06
4.363370e-07
4.363710e-07
-1.528220e-07
-1.524490e-07
1.660100e-06
1.659720e-06
2.366710e-06
2.366080e-06
4.363710e-07
4.366310e-07
-1.524490e-07
-1.520770e-07
1.659720e-06
1.658990e-06
2.366080e-06
2.365810e-06
-1.528220e-07
-1.524490e-07
2.910350e-06
2.910930e-06
2.366710e-06
2.366080e-06
-8.272880e-06
-8.272040e-06
-1.524490e-07
-1.520770e-07
2.910930e-06
2.911520e-06
2.366080e-06
2.365810e-06
-8.272040e-06
-8.271360e-06
2.910350e-06
2.910930e-06
-3.577560e-06
-3.577780e-06
-8.272880e-06
-8.272040e-06
-1.145110e-06
-1.144950e-06
2.910930e-06
2.911520e-06
-3.577780e-06
-3.578390e-06
-8.272040e-06
-8.271360e-06
-1.144950e-06
-1.145040e-06
-3.577560e-06
-3.577780e-06
-3.038410e-06
-3.037840e-06
-1.145110e-06
-1.144950e-06
-3.651660e-06
-3.651430e-06
-3.577780e-06
-3.578390e-06
-3.037840e-06
-3.037610e-06
-1.144950e-06
-1.145040e-06
-3.651430e-06
-3.651480e-06
-3.038410e-06
-3.037840e-06
1.037960e-05
1.037920e-05
-3.651660e-06
-3.651430e-06
-9.631570e-06
-9.632430e-06
-3.037840e-06
-3.037610e-06
1.037920e-05
1.037870e-05
-3.651430e-06
-3.651480e-06
-9.632430e-06
-9.633020e-06
1.037960e-05
1.037920e-05
-4.518770e-06
-4.518430e-06
-9.631570e-06
-9.632430e-06
1.000010e-05
1.000230e-05
1.037920e-05
1.037870e-05
-4.518430e-06
-4.518750e-06
-9.632430e-06
-9.633020e-06
1.000230e-05
1.000400e-05
-4.518770e-06
-4.518430e-06
-2.707710e-06
-2.707100e-06
1.000010e-05
1.000230e-05
7.263510e-06
7.261020e-06
-4.518430e-06
-4.518750e-06
-2.707100e-06
-2.706170e-06
1.000230e-05
1.000400e-05
7.261020e-06
7.258570e-06
</DataArray>
<DataArray type="Float32" Name="V2" format="ascii">
0.000000e+00
0.000000e+00
-2.182160e-01
-2.181960e-01
0.000000e+00
0.000000e+00
1.171480e-01
1.171330e-01
0.000000e+00
0.000000e+00
-2.181960e-01
-2.181770e-01
0.000000e+00
0.000000e+00
1.171330e-01
1.171190e-01
-2.182160e-01
-2.181960e-01
-1.009330e-01
-1.009300e-01
1.171480e-01
1.171330e-01
3.620860e-02
3.620710e-02
-2.181960e-01
-2.181770e-01
-1.009300e-01
-1.009270e-01
1.171330e-01
1.171190e-01
3.620710e-02
3.620550e-02
-1.009330e-01
-1.009300e-01
1.872000e-01
1.871830e-01
3.620860e-02
3.620710e-02
-1.442650e-01
-1.442490e-01
-1.009300e-01
-1.009270e-01
1.871830e-01
1.871660e-01
3.620710e-02
3.620550e-02
-1.442490e-01
-1.442340e-01
1.872000e-01
1.871830e-01
1.433970e-01
1.433850e-01
-1.442650e-01
-1.442490e-01
-7.200870e-02
-7.200500e-02
1.871830e-01
1.871660e-01
1.433850e-01
1.433740e-01
-1.442490e-01
-1.442340e-01
-7.200500e-02
-7.200130e-02
1.433970e-01
1.433850e-01
-9.481480e-02
-9.481590e-02
-7.200870e-02
-7.200500e-02
3.028460e-02
3.028580e-02
1.433850e-01
1.433740e-01
-9.481590e-02
-9.481700e-02
-7.200500e-02
-7.200130e-02
3.028580e-02
3.028710e-02
-9.481480e-02
-9.481590e-02
-1.344460e-01
-1.344490e-01
3.028460e-02
3.028580e-02
1.400100e-01
1.400130e-01
-9.481590e-02
-9.481700e-02
-1.344490e-01
-1.344520e-01
3.028580e-02
3.028710e-02
1.400130e-01
1.400170e-01
-1.344460e-01
-1.344490e-01
6.795770e-02
6.795580e-02
1.400100e-01
1.400130e-01
-8.795610e-04
-8.786680e-04
-1.344490e-01
-1.344520e-01
6.795580e-02
6.795380e-02
1.400130e-01
1.400170e-01
-8.786680e-04
-8.777760e-04
6.795770e-02
6.795580e-02
6.033300e-02
6.033320e-02
-8.795610e-04
-8.786680e-04
-1.212620e-01
-1.212620e-01
6.795580e-02
6.795380e-02
6.033320e-02
6.033330e-02
-8.786680e-04
-8.777760e-04
-1.212620e-01
-1.212620e-01
6.033300e-02
6.033320e-02
-9.133530e-02
-9.133850e-02
-1.212620e-01
-1.212620e-01
5.190440e-02
5.190940e-02
6.033320e-02
6.033330e-02
-9.133850e-02
-9.134160e-02
-1.212620e-01
-1.212620e-01
5.190940e-02
5.191430e-02
-9.133530e-02
-9.133850e-02
-3.813880e-02
-3.813290e-02
5.190440e-02
5.190940e-02
6.150300e-02
6.149730e-02
-9.133850e-02
-9.134160e-02
-3.813290e-02
-3.812690e-02
5.190940e-02
5.191430e-02
6.149730e-02
6.149150e-02
-3.813880e-02
-3.813290e-02
4.854780e-03
4.855180e-03
6.150300e-02
6.149730e-02
2.544140e-02
2.543860e-02
-3.813290e-02
-3.812690e-02
4.855180e-03
4.855590e-03
6.149730e-02
6.149150e-02
2.543860e-02
2.543570e-02
4.854780e-03
4.855180e-03
1.383990e-02
1.383810e-02
2.544140e-02
2.543860e-02
-3.095250e-02
-3.095180e-02
4.855180e-03
4.855590e-03
1.383810e-02
1.383620e-02
2.543860e-02
2.543570e-02
-3.095180e-02
-3.095110e-02
1.383990e-02
1.383810e-02
-5.191550e-02
-5.191850e-02
-3.095250e-02
-3.095180e-02
-3.797910e-02
-3.797680e-02
1.383810e-02
1.383620e-02
-5.191850e-02
-5.192160e-02
-3.095180e-02
-3.095110e-02
-3.797680e-02
-3.797440e-02
-5.191550e-02
-5.191850e-02
3.704200e-02
3.704250e-02
-3.797910e-02
-3.797680e-02
-2.928610e-02
-2.928500e-02
-5.191850e-02
-5.192160e-02
3.704250e-02
3.704310e-02
-3.797680e-02
-3.797440e-02
-2.928500e-02
-2.928390e-02
3.704200e-02
3.704250e-02
4.883570e-02
4.884070e-02
-2.928610e-02
-2.928500e-02
-4.697990e-03
-4.704220e-03
3.704250e-02
3.704310e-02
4.884070e-02
4.884580e-02
-2.928500e-02
-2.928390e-02
-4.704220e-03
-4.710460e-03
4.883570e-02
4.884070e-02
8.684700e-02
8.684590e-02
-4.697990e-03
-4.704220e-03
-3.282010e-02
-3.282340e-02
4.884070e-02
4.884580e-02
8.684590e-02
8.684480e-02
-4.704220e-03
-4.710460e-03
-3.282340e-02
-3.282680e-02
8.684700e-02
8.684590e-02
6.329960e-02
6.329640e-02
-3.282010e-02
-3.282340e-02
-7.516920e-02
-7.516590e-02
8.684590e-02
8.684480e-02
6.329640e-02
6.329320e-02
-3.282340e-02
-3.282680e-02
-7.516590e-02
-7.516260e-02
6.329960e-02
6.329640e-02
-1.221490e-01
-1.221540e-01
-7.516920e-02
-7.516590e-02
5.865190e-02
5.865680e-02
6.329640e-02
6.329320e-02
-1.221540e-01
-1.221590e-01
-7.516590e-02
-7.516260e-02
5.865680e-02
5.866170e-02
-1.221490e-01
-1.221540e-01
-8.143210e-02
-8.143010e-02
5.865190e-02
5.865680e-02
9.331240e-02
9.331000e-02
-1.221540e-01
-1.221590e-01
-8.143010e-02
-8.142820e-02
5.865680e-02
5.866170e-02
9.331000e-02
9.330770e-02
-8.143210e-02
-8.143010e-02
8.500470e-02
8.501300e-02
9.331240e-02
9.331000e-02
-3.647600e-02
-3.648260e-02
-8.143010e-02
-8.142820e-02
8.501300e-02
8.502140e-02
9.331000e-02
9.330770e-02
-3.648260e-02
-3.648920e-02
8.500470e-02
8.501300e-02
6.574440e-03
6.571330e-03
-3.647600e-02
-3.648260e-02
-2.154070e-03
-2.150530e-03
8.501300e-02
8.502140e-02
6.571330e-03
6.568240e-03
-3.648260e-02
-3.648920e-02
-2.150530e-03
-2.146990e-03
6.574440e-03
6.571330e-03
-1.447850e-01
-1.447900e-01
-2.154070e-03
-2.150530e-03
9.022830e-02
9.023280e-02
6.571330e-03
6.568240e-03
-1.447900e-01
-1.447950e-01
-2.150530e-03
-2.146990e-03
9.023280e-02
9.023730e-02
-1.447850e-01
-1.447900e-01
4.709200e-03
4.710440e-03
9.022830e-02
9.023280e-02
-5.933690e-02
-5.933800e-02
-1.447900e-01
-1.447950e-01
4.710440e-03
4.711680e-03
9.023280e-02
9.023730e-02
-5.933800e-02
-5.933920e-02
4.709200e-03
4.710440e-03
2.771640e-02
2.771140e-02
-5.933690e-02
-5.933800e-02
4.714240e-03
4.716390e-03
4.710440e-03
4.711680e-03
2.771140e-02
2.770650e-02
-5.933800e-02
-5.933920e-02
4.716390e-03
4.718550e-03
2.771640e-02
2.771140e-02
-1.415080e-02
-1.414300e-02
4.714240e-03
4.716390e-03
6.256450e-02
6.255810e-02
2.771140e-02
2.770650e-02
-1.414300e-02
-1.413520e-02
4.716390e-03
4.718550e-03
6.255810e-02
6.255160e-02
-1.415080e-02
-1.414300e-02
-1.158370e-02
-1.158280e-02
6.256450e-02
6.255810e-02
1.126540e-02
1.126660e-02
-1.414300e-02
-1.413520e-02
-1.158280e-02
-1.158180e-02
6.255810e-02
6.255160e-02
1.126660e-02
1.126780e-02
-1.158370e-02
-1.158280e-02
5.497610e-02
5.497070e-02
1.126540e-02
1.126660e-02
-4.798750e-02
-4.798100e-02
-1.158280e-02
-1.158180e-02
5.497070e-02
5.496530e-02
1.126660e-02
1.126780e-02
-4.798100e-02
-4.797460e-02
5.497610e-02
5.497070e-02
-1.961510e-02
-1.961340e-02
-4.798750e-02
-4.798100e-02
-3.488910e-03
-3.492130e-03
5.497070e-02
5.496530e-02
-1.961340e-02
-1.961170e-02
-4.798100e-02
-4.797460e-02
-3.492130e-03
-3.495350e-03
-1.961510e-02
-1.961340e-02
-6.809120e-02
-6.810020e-02
-3.488910e-03
-3.492130e-03
1.702650e-02
1.703240e-02
-1.961340e-02
-1.961170e-02
-6.810020e-02
-6.810910e-02
-3.492130e-03
-3.495350e-03
1.703240e-02
1.703830e-02
-6.809120e-02
-6.810020e-02
5.605190e-02
5.604050e-02
1.702650e-02
1.703240e-02
-1.232110e-01
-1.231970e-01
-6.810020e-02
-6.810910e-02
5.604050e-02
5.602920e-02
1.703240e-02
1.703830e-02
-1.231970e-01
-1.231830e-01
0.000000e+00
0.000000e+00
1.171480e-01
1.171330e-01
0.000000e+00
0.000000e+00
-1.895790e-02
-1.894880e-02
0.000000e+00
0.000000e+00
1.171330e-01
1.171190e-01
0.000000e+00
0.000000e+00
-1.894880e-02
-1.893960e-02
1.171480e-01
1.171330e-01
3.620860e-02
3.620710e-02
-1.895790e-02
-1.894880e-02
3.061900e-02
3.061910e-02
1.171330e-01
1.171190e-01
3.620710e-02
3.620550e-02
-1.894880e-02
-1.893960e-02
3.061910e-02
3.061930e-02