<?xml version="1.0"?>
<VTKFile type="UnstructuredGrid" version="0.1" byte_order="LittleEndian" compressor="vtkZLibDataCompressor">
<UnstructuredGrid>
<Piece NumberOfPoints="960" NumberOfCells="120">
<Points>
<DataArray type="Float32" NumberOfComponents="3" format="ascii">
-4.000000e+02 -6.000000e+03 -4.000000e+02
0.000000e+00 -6.000000e+03 -4.000000e+02
-4.006290e+02 -5.600340e+03 -4.006550e+02
-4.064910e-01 -5.600520e+03 -4.003800e+02
-4.000000e+02 -6.000000e+03 0.000000e+00
0.000000e+00 -6.000000e+03 0.000000e+00
-4.001980e+02 -5.600250e+03 1.066360e+00
-7.329080e-02 -5.599730e+03 -2.286410e-02
0.000000e+00 -6.000000e+03 -4.000000e+02
4.000000e+02 -6.000000e+03 -4.000000e+02
-4.064910e-01 -5.600520e+03 -4.003800e+02
3.997710e+02 -5.600910e+03 -3.997420e+02
0.000000e+00 -6.000000e+03 0.000000e+00
4.000000e+02 -6.000000e+03 0.000000e+00
-7.329080e-02 -5.599730e+03 -2.286410e-02
4.001140e+02 -5.600060e+03 -2.571490e-01
-4.006290e+02 -5.600340e+03 -4.006550e+02
-4.064910e-01 -5.600520e+03 -4.003800e+02
-3.994900e+02 -5.200480e+03 -4.007980e+02
2.826370e-01 -5.201160e+03 -4.003690e+02
-4.001980e+02 -5.600250e+03 1.066360e+00
-7.329080e-02 -5.599730e+03 -2.286410e-02
-4.000890e+02 -5.199950e+03 -1.668810e+00
-2.666790e-02 -5.199450e+03 -1.154870e+00
-4.064910e-01 -5.600520e+03 -4.003800e+02
3.997710e+02 -5.600910e+03 -3.997420e+02
2.826370e-01 -5.201160e+03 -4.003690e+02
4.003220e+02 -5.201620e+03 -4.008690e+02
-7.329080e-02 -5.599730e+03 -2.286410e-02
4.001140e+02 -5.600060e+03 -2.571490e-01
-2.666790e-02 -5.199450e+03 -1.154870e+00
3.999190e+02 -5.199580e+03 -1.128380e+00
-3.994900e+02 -5.200480e+03 -4.007980e+02
2.826370e-01 -5.201160e+03 -4.003690e+02
-4.004430e+02 -4.800690e+03 -4.007520e+02
-2.597790e-02 -4.800630e+03 -4.020260e+02
-4.000890e+02 -5.199950e+03 -1.668810e+00
-2.666790e-02 -5.199450e+03 -1.154870e+00
-3.996150e+02 -4.800080e+03 -1.670740e+00
3.414380e-03 -4.800090e+03 -1.163270e+00
2.826370e-01 -5.201160e+03 -4.003690e+02
4.003220e+02 -5.201620e+03 -4.008690e+02
-2.597790e-02 -4.800630e+03 -4.020260e+02
4.002050e+02 -4.801180e+03 -4.026450e+02
-2.666790e-02 -5.199450e+03 -1.154870e+00
3.999190e+02 -5.199580e+03 -1.128380e+00
3.414380e-03 -4.800090e+03 -1.163270e+00
3.996520e+02 -4.799780e+03 -1.270170e+00
-4.004430e+02 -4.800690e+03 -4.007520e+02
-2.597790e-02 -4.800630e+03 -4.020260e+02
-3.999440e+02 -4.401250e+03 -4.026840e+02
1.940410e-01 -4.401210e+03 -4.025720e+02
-3.996150e+02 -4.800080e+03 -1.670740e+00
3.414380e-03 -4.800090e+03 -1.163270e+00
-4.000400e+02 -4.400160e+03 -2.407950e+00
-1.306700e-01 -4.399930e+03 -2.235770e+00
-2.597790e-02 -4.800630e+03 -4.020260e+02
4.002050e+02 -4.801180e+03 -4.026450e+02
1.940410e-01 -4.401210e+03 -4.025720e+02
3.999510e+02 -4.400930e+03 -4.029740e+02
3.414380e-03 -4.800090e+03 -1.163270e+00
3.996520e+02 -4.799780e+03 -1.270170e+00
-1.306700e-01 -4.399930e+03 -2.235770e+00
3.998880e+02 -4.399680e+03 -2.603070e+00
-3.999440e+02 -4.401250e+03 -4.026840e+02
1.940410e-01 -4.401210e+03 -4.025720e+02
-4.006980e+02 -4.001200e+03 -4.031260e+02
-2.595630e-01 -4.001310e+03 -4.042800e+02
-4.000400e+02 -4.400160e+03 -2.407950e+00
-1.306700e-01 -4.399930e+03 -2.235770e+00
-3.999970e+02 -4.000290e+03 -3.855660e+00
9.315810e-02 -4.000100e+03 -4.704240e+00
1.940410e-01 -4.401210e+03 -4.025720e+02
3.999510e+02 -4.400930e+03 -4.029740e+02
-2.595630e-01 -4.001310e+03 -4.042800e+02
4.004150e+02 -4.000580e+03 -4.028000e+02
-1.306700e-01 -4.399930e+03 -2.235770e+00
3.998880e+02 -4.399680e+03 -2.603070e+00
9.315810e-02 -4.000100e+03 -4.704240e+00
3.999370e+02 -4.000190e+03 -3.855090e+00
-4.006980e+02 -4.001200e+03 -4.031260e+02
-2.595630e-01 -4.001310e+03 -4.042800e+02
-4.001340e+02 -3.602170e+03 -4.063890e+02
-2.920560e-02 -3.601710e+03 -4.049470e+02
-3.999970e+02 -4.000290e+03 -3.855660e+00
9.315810e-02 -4.000100e+03 -4.704240e+00
-4.001230e+02 -3.599530e+03 -5.194020e+00
-2.569580e-01 -3.599980e+03 -5.512570e+00
-2.595630e-01 -4.001310e+03 -4.042800e+02
4.004150e+02 -4.000580e+03 -4.028000e+02
-2.920560e-02 -3.601710e+03 -4.049470e+02
4.000810e+02 -3.601490e+03 -4.052840e+02
9.315810e-02 -4.000100e+03 -4.704240e+00
3.999370e+02 -4.000190e+03 -3.855090e+00
-2.569580e-01 -3.599980e+03 -5.512570e+00
3.997830e+02 -3.600150e+03 -5.189520e+00
-4.001340e+02 -3.602170e+03 -4.063890e+02
-2.920560e-02 -3.601710e+03 -4.049470e+02
-3.999280e+02 -3.202110e+03 -4.071570e+02
3.289220e-02 -3.202560e+03 -4.082860e+02
-4.001230e+02 -3.599530e+03 -5.194020e+00
-2.569580e-01 -3.599980e+03 -5.512570e+00
-4.002010e+02 -3.200490e+03 -8.121900e+00
-2.437130e-02 -3.200100e+03 -7.316100e+00
-2.920560e-02 -3.601710e+03 -4.049470e+02
4.000810e+02 -3.601490e+03 -4.052840e+02
3.289220e-02 -3.202560e+03 -4.082860e+02
4.000520e+02 -3.203130e+03 -4.067850e+02
-2.569580e-01 -3.599980e+03 -5.512570e+00
3.997830e+02 -3.600150e+03 -5.189520e+00
-2.437130e-02 -3.200100e+03 -7.316100e+00
4.000280e+02 -3.199620e+03 -6.986970e+00
-3.999280e+02 -3.202110e+03 -4.071570e+02
3.289220e-02 -3.202560e+03 -4.082860e+02
-4.004510e+02 -2.802560e+03 -4.087090e+02
5.524400e-02 -2.802910e+03 -4.091390e+02
-4.002010e+02 -3.200490e+03 -8.121900e+00
-2.437130e-02 -3.200100e+03 -7.316100e+00
-3.998060e+02 -2.800010e+03 -9.477540e+00
1.196420e-01 -2.799870e+03 -1.019940e+01
3.289220e-02 -3.202560e+03 -4.082860e+02
4.000520e+02 -3.203130e+03 -4.067850e+02
5.524400e-02 -2.802910e+03 -4.091390e+02
4.003300e+02 -2.802890e+03 -4.097360e+02
-2.437130e-02 -3.200100e+03 -7.316100e+00
4.000280e+02 -3.199620e+03 -6.986970e+00
1.196420e-01 -2.799870e+03 -1.019940e+01
4.000730e+02 -2.800160e+03 -1.016030e+01
-4.004510e+02 -2.802560e+03 -4.087090e+02
5.524400e-02 -2.802910e+03 -4.091390e+02
-4.009970e+02 -2.403100e+03 -4.114510e+02
-6.962290e-01 -2.402560e+03 -4.129350e+02
-3.998060e+02 -2.800010e+03 -9.477540e+00
1.196420e-01 -2.799870e+03 -1.019940e+01
-3.994790e+02 -2.399500e+03 -1.135460e+01
2.437360e-01 -2.400110e+03 -1.186430e+01
5.524400e-02 -2.802910e+03 -4.091390e+02
4.003300e+02 -2.802890e+03 -4.097360e+02
-6.962290e-01 -2.402560e+03 -4.129350e+02
3.994420e+02 -2.402390e+03 -4.138960e+02
1.196420e-01 -2.799870e+03 -1.019940e+01
4.000730e+02 -2.800160e+03 -1.016030e+01
2.437360e-01 -2.400110e+03 -1.186430e+01
4.000230e+02 -2.400240e+03 -1.198780e+01
-4.009970e+02 -2.403100e+03 -4.114510e+02
-6.962290e-01 -2.402560e+03 -4.129350e+02
-4.004100e+02 -2.002980e+03 -4.159940e+02
-5.183520e-01 -2.002440e+03 -4.159350e+02
-3.994790e+02 -2.399500e+03 -1.135460e+01
2.437360e-01 -2.400110e+03 -1.186430e+01
-4.000140e+02 -1.999890e+03 -1.534170e+01
1.114940e-01 -2.000540e+03 -1.549150e+01
-6.962290e-01 -2.402560e+03 -4.129350e+02
3.994420e+02 -2.402390e+03 -4.138960e+02
-5.183520e-01 -2.002440e+03 -4.159350e+02
3.994310e+02 -2.003220e+03 -4.159830e+02
2.437360e-01 -2.400110e+03 -1.186430e+01
4.000230e+02 -2.400240e+03 -1.198780e+01
1.114940e-01 -2.000540e+03 -1.549150e+01
4.001840e+02 -2.000080e+03 -1.629310e+01
-4.004100e+02 -2.002980e+03 -4.159940e+02
-5.183520e-01 -2.002440e+03 -4.159350e+02
-3.999240e+02 -1.603010e+03 -4.196120e+02
2.143050e-01 -1.603610e+03 -4.189560e+02
-4.000140e+02 -1.999890e+03 -1.534170e+01
1.114940e-01 -2.000540e+03 -1.549150e+01
-3.997490e+02 -1.600270e+03 -1.800820e+01
2.281400e-02 -1.599770e+03 -1.860370e+01
-5.183520e-01 -2.002440e+03 -4.159350e+02
3.994310e+02 -2.003220e+03 -4.159830e+02
2.143050e-01 -1.603610e+03 -4.189560e+02
4.002820e+02 -1.603050e+03 -4.186380e+02
1.114940e-01 -2.000540e+03 -1.549150e+01
4.001840e+02 -2.000080e+03 -1.629310e+01
2.281400e-02 -1.599770e+03 -1.860370e+01
3.998090e+02 -1.600190e+03 -1.886140e+01
-3.999240e+02 -1.603010e+03 -4.196120e+02
2.143050e-01 -1.603610e+03 -4.189560e+02
-4.000980e+02 -1.203700e+03 -4.215200e+02
-4.270740e-01 -1.203260e+03 -4.226290e+02
-3.997490e+02 -1.600270e+03 -1.800820e+01
2.281400e-02 -1.599770e+03 -1.860370e+01
-4.002390e+02 -1.200040e+03 -2.230230e+01
2.008420e-01 -1.200370e+03 -2.199470e+01
2.143050e-01 -1.603610e+03 -4.189560e+02
4.002820e+02 -1.603050e+03 -4.186380e+02
-4.270740e-01 -1.203260e+03 -4.226290e+02
3.994400e+02 -1.203200e+03 -4.239810e+02
2.281400e-02 -1.599770e+03 -1.860370e+01
3.998090e+02 -1.600190e+03 -1.886140e+01
2.008420e-01 -1.200370e+03 -2.199470e+01
4.005120e+02 -1.200770e+03 -2.172240e+01
-4.000980e+02 -1.203700e+03 -4.215200e+02
-4.270740e-01 -1.203260e+03 -4.226290e+02
-4.008140e+02 -8.037520e+02 -4.242130e+02
-8.488990e-01 -8.034480e+02 -4.249930e+02
-4.002390e+02 -1.200040e+03 -2.230230e+01
2.008420e-01 -1.200370e+03 -2.199470e+01
-3.998080e+02 -7.997560e+02 -2.621290e+01
3.060470e-01 -8.002930e+02 -2.623760e+01
-4.270740e-01 -1.203260e+03 -4.226290e+02
3.994400e+02 -1.203200e+03 -4.239810e+02
-8.488990e-01 -8.034480e+02 -4.249930e+02
3.987540e+02 -8.040390e+02 -4.259390e+02
2.008420e-01 -1.200370e+03 -2.199470e+01
4.005120e+02 -1.200770e+03 -2.172240e+01
3.060470e-01 -8.002930e+02 -2.623760e+01
4.005220e+02 -7.998610e+02 -2.770190e+01
-4.008140e+02 -8.037520e+02 -4.242130e+02
-8.488990e-01 -8.034480e+02 -4.249930e+02
-4.006720e+02 -4.039640e+02 -4.283510e+02
-2.479470e-01 -4.034640e+02 -4.295290e+02
-3.998080e+02 -7.997560e+02 -2.621290e+01
3.060470e-01 -8.002930e+02 -2.623760e+01
-3.996710e+02 -3.994150e+02 -2.728970e+01
2.247480e-01 -3.999830e+02 -2.882120e+01
-8.488990e-01 -8.034480e+02 -4.249930e+02
3.987540e+02 -8.040390e+02 -4.259390e+02
-2.479470e-01 -4.034640e+02 -4.295290e+02
4.002470e+02 -4.034600e+02 -4.285470e+02
3.060470e-01 -8.002930e+02 -2.623760e+01
4.005220e+02 -7.998610e+02 -2.770190e+01
2.247480e-01 -3.999830e+02 -2.882120e+01
4.000050e+02 -3.998620e+02 -2.941790e+01
-4.006720e+02 -4.039640e+02 -4.283510e+02
-2.479470e-01 -4.034640e+02 -4.295290e+02
-4.008840e+02 -4.210060e+00 -4.312760e+02
-4.372840e-01 -3.584450e+00 -4.325360e+02
-3.996710e+02 -3.994150e+02 -2.728970e+01
2.247480e-01 -3.999830e+02 -2.882120e+01
-3.998490e+02 1.694670e-01 -3.060120e+01
2.874600e-02 -2.490930e-02 -3.216630e+01
-2.479470e-01 -4.034640e+02 -4.295290e+02
4.002470e+02 -4.034600e+02 -4.285470e+02
[...]
<PointData>
<DataArray type="Float32" Name="V1" format="ascii">
0.000000e+00
0.000000e+00
-1.224190e-01
4.603010e-02
0.000000e+00
0.000000e+00
-1.102820e-01
2.125710e-02
0.000000e+00
0.000000e+00
4.603010e-02
1.109910e-01
0.000000e+00
0.000000e+00
2.125710e-02
-2.723760e-01
-1.224190e-01
4.603010e-02
1.523870e-01
4.395630e-01
-1.102820e-01
2.125710e-02
-3.045160e-01
-5.865990e-01
4.603010e-02
1.109910e-01
4.395630e-01
6.714000e-01
2.125710e-02
-2.723760e-01
-5.865990e-01
-4.812290e-01
1.523870e-01
4.395630e-01
-8.987380e-01
-7.755350e-02
-3.045160e-01
-5.865990e-01
3.060260e-01
-1.057000e-01
4.395630e-01
6.714000e-01
-7.755350e-02
8.787940e-01
-5.865990e-01
-4.812290e-01
-1.057000e-01
9.044430e-02
-8.987380e-01
-7.755350e-02
9.450130e-01
4.297350e-01
3.060260e-01
-1.057000e-01
-2.405180e-01
3.011350e-01
-7.755350e-02
8.787940e-01
4.297350e-01
3.771660e-01
-1.057000e-01
9.044430e-02
3.011350e-01
-6.626880e-01
9.450130e-01
4.297350e-01
-2.049620e+00
-9.313010e-01
-2.405180e-01
3.011350e-01
1.138070e+00
7.072900e-01
4.297350e-01
3.771660e-01
-9.313010e-01
-8.038120e-01
3.011350e-01
-6.626880e-01
7.072900e-01
1.205390e+00
-2.049620e+00
-9.313010e-01
-9.711940e-01
2.374780e-01
1.138070e+00
7.072900e-01
1.190780e-01
-2.672320e-01
-9.313010e-01
-8.038120e-01
2.374780e-01
1.400120e+00
7.072900e-01
1.205390e+00
-2.672320e-01
-3.170370e-01
-9.711940e-01
2.374780e-01
2.684830e-01
-8.881940e-01
1.190780e-01
-2.672320e-01
-4.396440e-01
8.678810e-01
2.374780e-01
1.400120e+00
-8.881940e-01
-6.293360e-01
-2.672320e-01
-3.170370e-01
8.678810e-01
6.104500e-01
2.684830e-01
-8.881940e-01
-3.846650e-01
4.746410e-01
-4.396440e-01
8.678810e-01
2.439460e-01
-7.598370e-01
-8.881940e-01
-6.293360e-01
4.746410e-01
-4.104520e-01
8.678810e-01
6.104500e-01
-7.598370e-01
-1.860800e-01
-3.846650e-01
4.746410e-01
1.375530e+00
-1.696070e-01
2.439460e-01
-7.598370e-01
-5.704100e-01
2.893000e-01
4.746410e-01
-4.104520e-01
-1.696070e-01
-7.557590e-01
-7.598370e-01
-1.860800e-01
2.893000e-01
4.001150e-01
1.375530e+00
-1.696070e-01
-1.912560e-01
2.119160e-01
-5.704100e-01
2.893000e-01
-1.045320e-01
-5.586760e-02
-1.696070e-01
-7.557590e-01
2.119160e-01
1.197200e+00
2.893000e-01
4.001150e-01
-5.586760e-02
-8.425390e-01
-1.912560e-01
2.119160e-01
-3.805450e-01
1.409600e-01
-1.045320e-01
-5.586760e-02
5.176530e-01
-6.070960e-02
2.119160e-01
1.197200e+00
1.409600e-01
-1.152190e+00
-5.586760e-02
-8.425390e-01
-6.070960e-02
9.170400e-01
-3.805450e-01
1.409600e-01
1.755080e+00
-5.772030e-02
5.176530e-01
-6.070960e-02
-1.706770e+00
-2.938140e-02
1.409600e-01
-1.152190e+00
-5.772030e-02
7.549910e-02
-6.070960e-02
9.170400e-01
-2.938140e-02
3.921950e-01
1.755080e+00
-5.772030e-02
-3.764330e-02
-6.118260e-02
-1.706770e+00
-2.938140e-02
6.425870e-01
2.936690e-01
-5.772030e-02
7.549910e-02
-6.118260e-02
-3.107700e-02
-2.938140e-02
3.921950e-01
2.936690e-01
1.011900e-01
-3.764330e-02
-6.118260e-02
-1.983370e-01
6.068260e-01
6.425870e-01
2.936690e-01
2.531920e-01
-4.902510e-01
-6.118260e-02
-3.107700e-02
6.068260e-01
-2.054710e-01
2.936690e-01
1.011900e-01
-4.902510e-01
-3.235230e-01
-1.983370e-01
6.068260e-01
8.082580e-01
-2.808570e-01
2.531920e-01
-4.902510e-01
-4.052790e-01
7.885090e-01
6.068260e-01
-2.054710e-01
-2.808570e-01
-3.364060e-01
-4.902510e-01
-3.235230e-01
7.885090e-01
5.128930e-01
8.082580e-01
-2.808570e-01
1.458340e-01
3.239290e-01
-4.052790e-01
7.885090e-01
-3.815520e-01
-6.633390e-01
-2.808570e-01
-3.364060e-01
3.239290e-01
1.932930e-01
7.885090e-01
5.128930e-01
-6.633390e-01
-3.201860e-01
1.458340e-01
3.239290e-01
-2.011820e-01
3.474240e-01
-3.815520e-01
-6.633390e-01
1.825570e-01
-3.760220e-01
3.239290e-01
1.932930e-01
3.474240e-01
5.178400e-01
-6.633390e-01
-3.201860e-01
-3.760220e-01
-5.227480e-01
-2.011820e-01
3.474240e-01
9.176890e-01
8.041590e-01
1.825570e-01
-3.760220e-01
-1.007950e+00
-4.465270e-01
3.474240e-01
5.178400e-01
8.041590e-01
1.266750e+00
-3.760220e-01
-5.227480e-01
-4.465270e-01
-6.461670e-01
9.176890e-01
8.041590e-01
-3.163580e-01
-2.910380e-01
-1.007950e+00
-4.465270e-01
-3.434630e-02
-5.212970e-01
8.041590e-01
1.266750e+00
-2.910380e-01
-6.057080e-01
-4.465270e-01
-6.461670e-01
-5.212970e-01
-4.631160e-01
-3.163580e-01
-2.910380e-01
-1.363140e-03
6.955140e-02
-3.434630e-02
-5.212970e-01
-4.759820e-01
-2.679120e-01
-2.910380e-01
-6.057080e-01
6.955140e-02
1.351260e-01
-5.212970e-01
-4.631160e-01
-2.679120e-01
1.406360e-01
-1.363140e-03
6.955140e-02
-9.079700e-02
1.448630e-01
-4.759820e-01
-2.679120e-01
4.039930e-02
-1.967400e-01
6.955140e-02
1.351260e-01
1.448630e-01
1.932430e-02
-2.679120e-01
1.406360e-01
-1.967400e-01
-4.877340e-01
-9.079700e-02
1.448630e-01
6.693030e-02
-1.492320e-01
4.039930e-02
-1.967400e-01
-2.157370e-01
2.027430e-01
1.448630e-01
1.932430e-02
-1.492320e-01
3.559290e-01
-1.967400e-01
-4.877340e-01
2.027430e-01
9.162410e-02
6.693030e-02
-1.492320e-01
-1.071440e+00
-4.270760e-01
-2.157370e-01
2.027430e-01
8.899320e-01
7.375010e-02
-1.492320e-01
3.559290e-01
-4.270760e-01
-4.019880e-01
2.027430e-01
9.162410e-02
7.375010e-02
9.500880e-02
-1.071440e+00
-4.270760e-01
4.425190e-01
3.205950e-01
8.899320e-01
7.375010e-02
-6.139860e-01
-3.673130e-01
-4.270760e-01
-4.019880e-01
3.205950e-01
8.009520e-01
7.375010e-02
9.500880e-02
-3.673130e-01
-7.079660e-01
4.425190e-01
3.205950e-01
-7.288480e-01
-3.426220e-01
-6.139860e-01
-3.673130e-01
1.023230e-01
3.112990e-01
3.205950e-01
8.009520e-01
-3.426220e-01
-2.678300e-01
-3.673130e-01
-7.079660e-01
3.112990e-01
-2.662520e-01
-7.288480e-01
-3.426220e-01
7.014350e-01
7.747850e-01
1.023230e-01
3.112990e-01
-5.256850e-01
-6.080630e-01
-3.426220e-01
-2.678300e-01
7.747850e-01
-7.738890e-01
3.112990e-01
-2.662520e-01
-6.080630e-01
8.793360e-01
7.014350e-01
7.747850e-01
5.239890e-01
4.620690e-02
-5.256850e-01
-6.080630e-01
-5.868610e-01
-2.021310e-01
7.747850e-01
-7.738890e-01
4.620690e-02
9.648980e-01
-6.080630e-01
8.793360e-01
-2.021310e-01
-1.047150e+00
5.239890e-01
4.620690e-02
1.555950e-01
1.141870e-01
-5.868610e-01
-2.021310e-01
2.927520e-01
2.172480e-01
4.620690e-02
9.648980e-01
1.141870e-01
6.704910e-02
-2.021310e-01
-1.047150e+00
2.172480e-01
1.624680e-01
1.555950e-01
1.141870e-01
1.531740e-01
4.123150e-01
2.927520e-01
2.172480e-01
4.364870e-01
-8.421330e-02
1.141870e-01
6.704910e-02
4.123150e-01
-1.048500e-01
2.172480e-01
1.624680e-01
-8.421330e-02
5.942370e-01
1.531740e-01
4.123150e-01
1.401530e+00
-3.164820e-01
4.364870e-01
-8.421330e-02
-1.108360e+00
2.274250e-01
4.123150e-01
-1.048500e-01
-3.164820e-01
-7.647140e-01
-8.421330e-02
5.942370e-01
2.274250e-01
7.789020e-02
0.000000e+00
0.000000e+00
-1.102820e-01
2.125710e-02
0.000000e+00
0.000000e+00
2.176600e-01
-1.946280e-01
0.000000e+00
0.000000e+00
2.125710e-02
-2.723760e-01
0.000000e+00
0.000000e+00
-1.946280e-01
4.943280e-01
-1.102820e-01
2.125710e-02
-3.045160e-01
-5.865990e-01
2.176600e-01
-1.946280e-01
4.792750e-01
7.194650e-01
2.125710e-02
-2.723760e-01
-5.865990e-01
-4.812290e-01
-1.946280e-01
4.943280e-01
7.194650e-01
4.243420e-01
-3.045160e-01
-5.865990e-01
3.060260e-01
-1.057000e-01
4.792750e-01
7.194650e-01
-2.356100e-02
1.519960e-01
-5.865990e-01
-4.812290e-01
-1.057000e-01
9.044430e-02
7.194650e-01
4.243420e-01
1.519960e-01
-7.195610e-01
3.060260e-01
-1.057000e-01
-2.405180e-01
3.011350e-01
-2.356100e-02
1.519960e-01
-9.764380e-02
-7.806930e-01
-1.057000e-01
9.044430e-02
3.011350e-01
-6.626880e-01
1.519960e-01
-7.195610e-01
-7.806930e-01
1.775920e-01
-2.405180e-01
3.011350e-01
1.138070e+00
7.072900e-01
-9.764380e-02
-7.806930e-01
-6.459030e-01
-6.797030e-01
3.011350e-01
-6.626880e-01
7.072900e-01
1.205390e+00
-7.806930e-01
1.775920e-01
-6.797030e-01
-1.530670e+00
1.138070e+00
7.072900e-01
1.190780e-01
-2.672320e-01
-6.459030e-01
-6.797030e-01
1.013730e+00
5.088150e-01
7.072900e-01
1.205390e+00
-2.672320e-01
-3.170370e-01
-6.797030e-01
-1.530670e+00
5.088150e-01
-5.353360e-01
1.190780e-01
-2.672320e-01
-4.396440e-01
8.678810e-01
1.013730e+00
5.088150e-01
2.650680e-01
-9.302560e-01
-2.672320e-01
-3.170370e-01
8.678810e-01
6.104500e-01
5.088150e-01
-5.353360e-01
-9.302560e-01
-6.457500e-01
-4.396440e-01
8.678810e-01
2.439460e-01
-7.598370e-01
2.650680e-01
-9.302560e-01
-6.842560e-02
9.913550e-01
8.678810e-01
6.104500e-01
-7.598370e-01
-1.860800e-01
-9.302560e-01
-6.457500e-01
9.913550e-01
7.680150e-01
2.439460e-01
-7.598370e-01
-5.704100e-01
2.893000e-01
-6.842560e-02
9.913550e-01
8.054480e-02
-2.066150e-01
-7.598370e-01
-1.860800e-01
2.893000e-01
4.001150e-01
9.913550e-01
7.680150e-01
-2.066150e-01
-1.466660e-01
-5.704100e-01
2.893000e-01
-1.045320e-01
-5.586760e-02
8.054480e-02
-2.066150e-01
3.953590e-01
-1.962620e-01
2.893000e-01
4.001150e-01
-5.586760e-02
-8.425390e-01
-2.066150e-01
-1.466660e-01
-1.962620e-01
4.243420e-01
-1.045320e-01
-5.586760e-02
5.176530e-01
-6.070960e-02
3.953590e-01
-1.962620e-01
-5.884710e-01
5.451080e-02
-5.586760e-02
-8.425390e-01
-6.070960e-02
9.170400e-01
-1.962620e-01
4.243420e-01
5.451080e-02
-7.106950e-01
5.176530e-01
-6.070960e-02
-1.706770e+00
-2.938140e-02
-5.884710e-01
5.451080e-02
1.232380e+00
-4.435670e-01
-6.070960e-02
9.170400e-01
-2.938140e-02
3.921950e-01
5.451080e-02
-7.106950e-01
-4.435670e-01
-8.408160e-01
-1.706770e+00
-2.938140e-02
6.425870e-01
2.936690e-01
1.232380e+00
-4.435670e-01
-8.586070e-01
7.826010e-02
-2.938140e-02
3.921950e-01
2.936690e-01
1.011900e-01
-4.435670e-01
-8.408160e-01
7.826010e-02
1.296950e-01
6.425870e-01
2.936690e-01
2.531920e-01
-4.902510e-01
-8.586070e-01
7.826010e-02
-7.004940e-01
2.675100e-01
2.936690e-01
1.011900e-01
-4.902510e-01
-3.235230e-01
7.826010e-02
1.296950e-01
2.675100e-01
2.792710e-01
2.531920e-01
-4.902510e-01
-4.052790e-01
7.885090e-01
-7.004940e-01
2.675100e-01
2.444910e-01
-1.112530e+00
-4.902510e-01
-3.235230e-01
7.885090e-01
5.128930e-01
2.675100e-01
2.792710e-01
-1.112530e+00
-4.409230e-01
-4.052790e-01
7.885090e-01
-3.815520e-01
-6.633390e-01
2.444910e-01
-1.112530e+00
5.339800e-01
9.720190e-01
7.885090e-01
5.128930e-01
-6.633390e-01
-3.201860e-01
-1.112530e+00
-4.409230e-01
9.720190e-01
2.101590e-01
-3.815520e-01
-6.633390e-01
1.825570e-01
-3.760220e-01
5.339800e-01
9.720190e-01
-2.892940e-01
3.815690e-01
-6.633390e-01
-3.201860e-01
-3.760220e-01
-5.227480e-01
9.720190e-01
2.101590e-01
3.815690e-01
6.203950e-01
1.825570e-01
-3.760220e-01
-1.007950e+00
-4.465270e-01
-2.892940e-01
3.815690e-01
1.114400e+00
1.977420e-01
-3.760220e-01
-5.227480e-01
-4.465270e-01
-6.461670e-01
3.815690e-01
6.203950e-01
1.977420e-01
4.109220e-02
-1.007950e+00
-4.465270e-01
-3.434630e-02
-5.212970e-01
1.114400e+00
1.977420e-01
6.365960e-01
1.232960e+00
-4.465270e-01
-6.461670e-01
-5.212970e-01
-4.631160e-01
1.977420e-01
4.109220e-02
1.232960e+00
1.470110e+00
-3.434630e-02
-5.212970e-01
-4.759820e-01
-2.679120e-01
6.365960e-01
1.232960e+00
9.245020e-01
4.758820e-01
-5.212970e-01
-4.631160e-01
-2.679120e-01
1.406360e-01
1.232960e+00
1.470110e+00
4.758820e-01
-2.804810e-01
-4.759820e-01
-2.679120e-01
4.039930e-02
-1.967400e-01
9.245020e-01
4.758820e-01
-4.448170e-02
8.474520e-02
-2.679120e-01
1.406360e-01
-1.967400e-01
-4.877340e-01
4.758820e-01
-2.804810e-01
8.474520e-02
5.263180e-01
4.039930e-02
-1.967400e-01
-2.157370e-01
2.027430e-01
-4.448170e-02
8.474520e-02
4.431150e-01
-1.265420e-01
-1.967400e-01
-4.877340e-01
2.027430e-01
9.162410e-02
8.474520e-02
5.263180e-01
-1.265420e-01
-1.460460e-01
-2.157370e-01
2.027430e-01
8.899320e-01
7.375010e-02
4.431150e-01
-1.265420e-01
-1.291640e+00
3.132720e-01
2.027430e-01
9.162410e-02
7.375010e-02
9.500880e-02
-1.265420e-01
-1.460460e-01
3.132720e-01
2.462230e-01
8.899320e-01
7.375010e-02
-6.139860e-01
-3.673130e-01
-1.291640e+00
3.132720e-01
1.325220e+00
6.370050e-01
7.375010e-02
9.500880e-02
-3.673130e-01
-7.079660e-01
3.132720e-01
2.462230e-01
6.370050e-01
3.033220e-01
-6.139860e-01
-3.673130e-01
1.023230e-01
3.112990e-01
1.325220e+00
6.370050e-01
3.196420e-01
-2.180340e-01
-3.673130e-01
-7.079660e-01
3.112990e-01
-2.662520e-01
6.370050e-01
3.033220e-01
-2.180340e-01
6.611560e-01
1.023230e-01
3.112990e-01
-5.256850e-01
-6.080630e-01
3.196420e-01
-2.180340e-01
8.080050e-02
3.465110e-01
3.112990e-01
-2.662520e-01
-6.080630e-01
8.793360e-01
-2.180340e-01
6.611560e-01
3.465110e-01
-6.398160e-01
-5.256850e-01
-6.080630e-01
-5.868610e-01
-2.021310e-01
8.080050e-02
3.465110e-01
3.234860e-01
3.137200e-01
-6.080630e-01
8.793360e-01
-2.021310e-01
-1.047150e+00
3.465110e-01
-6.398160e-01
3.137200e-01
1.272310e+00
-5.868610e-01
-2.021310e-01
2.927520e-01
2.172480e-01
3.234860e-01
3.137200e-01
-3.905800e-01
-4.001940e-01
-2.021310e-01
-1.047150e+00
2.172480e-01
1.624680e-01
3.137200e-01
1.272310e+00
-4.001940e-01
-7.442650e-01
2.927520e-01
2.172480e-01
4.364870e-01
-8.421330e-02
-3.905800e-01
-4.001940e-01
-8.540400e-01
-1.617570e-01
2.172480e-01
1.624680e-01
-8.421330e-02
5.942370e-01
-4.001940e-01
-7.442650e-01
-1.617570e-01
-5.730070e-01
4.364870e-01
-8.421330e-02
-1.108360e+00
2.274250e-01
-8.540400e-01
-1.617570e-01
4.518790e-01
-4.514510e-01
-8.421330e-02
5.942370e-01
2.274250e-01
7.789020e-02
-1.617570e-01
-5.730070e-01
-4.514510e-01
-1.398430e-01
</DataArray>
<DataArray type="Float32" Name="V2" format="ascii">
0.000000e+00
0.000000e+00
-1.054140e-01
4.236010e-01
0.000000e+00
0.000000e+00
1.906800e-01
-2.074580e-01
0.000000e+00
0.000000e+00
4.236010e-01
1.161610e+00
0.000000e+00
0.000000e+00
-2.074580e-01
-5.282560e-01
-1.054140e-01
4.236010e-01
3.308230e-01
3.496620e-01
1.906800e-01
-2.074580e-01
-3.295880e-01
-1.362010e-01
4.236010e-01
1.161610e+00
3.496620e-01
-4.819580e-01
-2.074580e-01
-5.282560e-01
-1.362010e-01
6.651080e-01
3.308230e-01
3.496620e-01
8.945520e-02
3.254880e-01
-3.295880e-01
-1.362010e-01
2.029580e-01
-1.520670e-01
3.496620e-01
-4.819580e-01
3.254880e-01
-7.740590e-01
-1.362010e-01
6.651080e-01
-1.520670e-01
3.799150e-01
8.945520e-02
3.254880e-01
-6.201460e-01
-6.636600e-01
2.029580e-01
-1.520670e-01
-3.273410e-01
8.291800e-01
3.254880e-01
-7.740590e-01
-6.636600e-01
-3.283510e-01
-1.520670e-01
3.799150e-01
8.291800e-01
1.386890e-01
-6.201460e-01
-6.636600e-01
1.778650e+00
-2.289490e-02
-3.273410e-01
8.291800e-01
-1.518040e+00
-2.210910e-01
-6.636600e-01
-3.283510e-01
-2.289490e-02
-4.691020e-01
8.291800e-01
1.386890e-01
-2.210910e-01
4.551290e-01
1.778650e+00
-2.289490e-02
1.517780e+00
7.932620e-01
-1.518040e+00
-2.210910e-01
-7.264280e-01
-9.125930e-01
-2.289490e-02
-4.691020e-01
7.932620e-01
8.992150e-01
-2.210910e-01
4.551290e-01
-9.125930e-01
-7.716810e-01
1.517780e+00
7.932620e-01
-8.144530e-01
-1.006690e+00
-7.264280e-01
-9.125930e-01
7.396120e-01
9.918210e-01
7.932620e-01
8.992150e-01
-1.006690e+00
-1.810760e+00
-9.125930e-01
-7.716810e-01
9.918210e-01
1.232370e+00
-8.144530e-01
-1.006690e+00
-7.245860e-02
-3.943470e-01
7.396120e-01
9.918210e-01
1.266860e-01
3.245730e-01
-1.006690e+00
-1.810760e+00
-3.943470e-01
-8.481320e-01
9.918210e-01
1.232370e+00
3.245730e-01
1.512270e-01
-7.245860e-02
-3.943470e-01
-6.105860e-03
4.378560e-01
1.266860e-01
3.245730e-01
3.531650e-02
-5.374530e-01
-3.943470e-01
-8.481320e-01
4.378560e-01
1.625350e+00
3.245730e-01
1.512270e-01
-5.374530e-01
-1.553620e+00
-6.105860e-03
4.378560e-01
1.020040e-01
7.257260e-02
3.531650e-02
-5.374530e-01
2.162250e-01
-1.511820e-01
4.378560e-01
1.625350e+00
7.257260e-02
9.728310e-01
-5.374530e-01
-1.553620e+00
-1.511820e-01
-1.041150e+00
1.020040e-01
7.257260e-02
-6.442280e-01
-8.407700e-01
2.162250e-01
-1.511820e-01
1.289500e+00
4.675550e-01
7.257260e-02
9.728310e-01
-8.407700e-01
1.176410e-01
-1.511820e-01
-1.041150e+00
4.675550e-01
-3.698620e-01
-6.442280e-01
-8.407700e-01
2.289380e-01
-3.094800e-01
1.289500e+00
4.675550e-01
-7.128490e-01
-9.643600e-02
-8.407700e-01
1.176410e-01
-3.094800e-01
-7.454560e-01
4.675550e-01
-3.698620e-01
-9.643600e-02
9.048310e-01
2.289380e-01
-3.094800e-01
-1.759730e+00
5.438610e-01
-7.128490e-01
-9.643600e-02
1.097100e+00
-1.790250e-01
-3.094800e-01
-7.454560e-01
5.438610e-01
-1.841610e-01
-9.643600e-02
9.048310e-01
-1.790250e-01
6.979230e-01
-1.759730e+00
5.438610e-01
-1.400920e-01
-3.033200e-01
1.097100e+00
-1.790250e-01
1.805080e-01
1.143360e-01
5.438610e-01
-1.841610e-01
-3.033200e-01
1.183130e+00
-1.790250e-01
6.979230e-01
1.143360e-01
-1.212110e-01
-1.400920e-01
-3.033200e-01
-3.831090e-02
1.268600e+00
1.805080e-01
1.143360e-01
-1.559130e-01
-9.832700e-01
-3.033200e-01
1.183130e+00
1.268600e+00
1.161620e+00
1.143360e-01
-1.212110e-01
-9.832700e-01
-7.328300e-01
-3.831090e-02
1.268600e+00
-3.131840e-01
3.248880e-01
-1.559130e-01
-9.832700e-01
1.166490e-01
-1.194510e-01
1.268600e+00
1.161620e+00
3.248880e-01
1.678080e-01
-9.832700e-01
-7.328300e-01
-1.194510e-01
-7.383090e-01
-3.131840e-01
3.248880e-01
1.370950e+00
-3.343460e-01
1.166490e-01
-1.194510e-01
-4.222700e-01
6.016890e-01
3.248880e-01
1.678080e-01
-3.343460e-01
-1.978800e-01
-1.194510e-01
-7.383090e-01
6.016890e-01
-7.486310e-03
1.370950e+00
-3.343460e-01
1.118480e+00
-6.602520e-01
-4.222700e-01
6.016890e-01
-5.677430e-01
8.305080e-01
-3.343460e-01
-1.978800e-01
-6.602520e-01
-4.359380e-01
6.016890e-01
-7.486310e-03
8.305080e-01
7.437540e-01
1.118480e+00
-6.602520e-01
1.341850e-01
-1.585670e-01
-5.677430e-01
8.305080e-01
-6.991090e-02
-1.286990e-01
-6.602520e-01
-4.359380e-01
-1.585670e-01
-4.280940e-01
8.305080e-01
7.437540e-01
-1.286990e-01
4.559780e-01
1.341850e-01
-1.585670e-01
-1.725510e-01
5.198670e-02
-6.991090e-02
-1.286990e-01
-2.854600e-01
-1.041110e-01
-1.585670e-01
-4.280940e-01
5.198670e-02
-1.216140e-01
-1.286990e-01
4.559780e-01
-1.041110e-01
-2.746370e-01
-1.725510e-01
5.198670e-02
-3.626480e-01
2.516750e-01
-2.854600e-01
-1.041110e-01
2.254410e-01
2.916380e-01
5.198670e-02
-1.216140e-01
2.516750e-01
-4.360770e-01
-1.041110e-01
-2.746370e-01
2.916380e-01
-3.407930e-01
-3.626480e-01
2.516750e-01
7.731490e-02
1.610700e-01
2.254410e-01
2.916380e-01
4.519490e-01
-2.575290e-01
2.516750e-01
-4.360770e-01
1.610700e-01
-5.184220e-01
2.916380e-01
-3.407930e-01
-2.575290e-01
1.037390e+00
7.731490e-02
1.610700e-01
1.084040e+00
-4.328830e-01
4.519490e-01
-2.575290e-01
-9.505210e-01
-2.264920e-01
1.610700e-01
-5.184220e-01
-4.328830e-01
-6.033870e-01
-2.575290e-01
1.037390e+00
-2.264920e-01
1.659500e-01
1.084040e+00
-4.328830e-01
-1.307820e+00
-1.227720e-01
-9.505210e-01
-2.264920e-01
5.222840e-01
4.762200e-02
-4.328830e-01
-6.033870e-01
-1.227720e-01
-4.090550e-01
-2.264920e-01
1.659500e-01
4.762200e-02
-2.799690e-01
-1.307820e+00
-1.227720e-01
2.126920e-01
-2.459680e-01
5.222840e-01
4.762200e-02
2.398830e-01
-3.156810e-01
-1.227720e-01
-4.090550e-01
-2.459680e-01
-5.760090e-01
4.762200e-02
-2.799690e-01
-3.156810e-01
1.285490e+00
2.126920e-01
-2.459680e-01
2.637440e-01
-5.777750e-01
2.398830e-01
-3.156810e-01
3.494790e-01
5.554740e-01
-2.459680e-01
-5.760090e-01
-5.777750e-01
-2.137950e-01
-3.156810e-01
1.285490e+00
5.554740e-01
-8.518560e-01
2.637440e-01
-5.777750e-01
-1.503830e+00
7.998880e-01
3.494790e-01
5.554740e-01
3.843690e-01
-5.476760e-02
-5.777750e-01
-2.137950e-01
7.998880e-01
7.064320e-02
5.554740e-01
-8.518560e-01
-5.476760e-02
2.011420e-01
-1.503830e+00
7.998880e-01
6.766430e-01
6.003700e-01
3.843690e-01
-5.476760e-02
-5.529290e-01
1.328560e-01
7.998880e-01
7.064320e-02
6.003700e-01
1.612420e+00
-5.476760e-02
2.011420e-01
1.328560e-01
-1.279990e+00
6.766430e-01
6.003700e-01
-8.245870e-03
7.515610e-01
-5.529290e-01
1.328560e-01
3.056920e-01
-3.192950e-01
6.003700e-01
1.612420e+00
7.515610e-01
2.208810e-03
1.328560e-01
-1.279990e+00
-3.192950e-01
-9.678350e-01
-8.245870e-03
7.515610e-01
-1.734850e+00
3.279310e-01
3.056920e-01
-3.192950e-01
1.662500e+00
-1.089480e-01
7.515610e-01
2.208810e-03
3.279310e-01
-3.365860e-01
-3.192950e-01
-9.678350e-01
-1.089480e-01
-6.154090e-02
0.000000e+00
0.000000e+00
1.906800e-01
-2.074580e-01
0.000000e+00
0.000000e+00
-4.561730e-01
1.516180e-01
0.000000e+00
0.000000e+00
-2.074580e-01
-5.282560e-01
0.000000e+00
0.000000e+00
1.516180e-01
-4.078240e-02
1.906800e-01
-2.074580e-01
-3.295880e-01
-1.362010e-01
-4.561730e-01
1.516180e-01
8.918750e-02
2.320640e-02
-2.074580e-01
-5.282560e-01
-1.362010e-01
6.651080e-01
1.516180e-01
-4.078240e-02
2.320640e-02