<?xml version="1.0"?>
<VTKFile type="UnstructuredGrid" version="0.1" byte_order="LittleEndian" compressor="vtkZLibDataCompressor">
<UnstructuredGrid>
<Piece NumberOfPoints="960" NumberOfCells="120">
<Points>
<DataArray type="Float32" NumberOfComponents="3" format="ascii">
-4.000000e+02 -6.000000e+03 -4.000000e+02
0.000000e+00 -6.000000e+03 -4.000000e+02
-3.999370e+02 -5.600280e+03 -3.998190e+02
3.050180e-01 -5.600630e+03 -4.007280e+02
-4.000000e+02 -6.000000e+03 0.000000e+00
0.000000e+00 -6.000000e+03 0.000000e+00
-4.000700e+02 -5.600150e+03 -1.146750e+00
-1.641310e-01 -5.600020e+03 -4.489200e-01
0.000000e+00 -6.000000e+03 -4.000000e+02
4.000000e+02 -6.000000e+03 -4.000000e+02
3.050180e-01 -5.600630e+03 -4.007280e+02
4.004640e+02 -5.600490e+03 -3.998150e+02
0.000000e+00 -6.000000e+03 0.000000e+00
4.000000e+02 -6.000000e+03 0.000000e+00
-1.641310e-01 -5.600020e+03 -4.489200e-01
3.997940e+02 -5.599880e+03 -5.961860e-01
-3.999370e+02 -5.600280e+03 -3.998190e+02
3.050180e-01 -5.600630e+03 -4.007280e+02
-3.995460e+02 -5.200790e+03 -4.023530e+02
6.192970e-03 -5.200870e+03 -4.020820e+02
-4.000700e+02 -5.600150e+03 -1.146750e+00
-1.641310e-01 -5.600020e+03 -4.489200e-01
-4.001440e+02 -5.200200e+03 -1.569060e+00
8.870420e-03 -5.199870e+03 -1.115470e+00
3.050180e-01 -5.600630e+03 -4.007280e+02
4.004640e+02 -5.600490e+03 -3.998150e+02
6.192970e-03 -5.200870e+03 -4.020820e+02
3.996700e+02 -5.200540e+03 -4.027530e+02
-1.641310e-01 -5.600020e+03 -4.489200e-01
3.997940e+02 -5.599880e+03 -5.961860e-01
8.870420e-03 -5.199870e+03 -1.115470e+00
4.001120e+02 -5.200260e+03 -6.239910e-01
-3.995460e+02 -5.200790e+03 -4.023530e+02
6.192970e-03 -5.200870e+03 -4.020820e+02
-4.001100e+02 -4.800910e+03 -4.030630e+02
1.536410e-01 -4.800930e+03 -4.025820e+02
-4.001440e+02 -5.200200e+03 -1.569060e+00
8.870420e-03 -5.199870e+03 -1.115470e+00
-3.997950e+02 -4.800220e+03 -3.340700e+00
-4.050390e-02 -4.800290e+03 -3.023700e+00
6.192970e-03 -5.200870e+03 -4.020820e+02
3.996700e+02 -5.200540e+03 -4.027530e+02
1.536410e-01 -4.800930e+03 -4.025820e+02
4.003750e+02 -4.801410e+03 -4.027990e+02
8.870420e-03 -5.199870e+03 -1.115470e+00
4.001120e+02 -5.200260e+03 -6.239910e-01
-4.050390e-02 -4.800290e+03 -3.023700e+00
3.997550e+02 -4.800080e+03 -1.694270e+00
-4.001100e+02 -4.800910e+03 -4.030630e+02
1.536410e-01 -4.800930e+03 -4.025820e+02
-3.992300e+02 -4.401290e+03 -4.059860e+02
1.002140e+00 -4.401750e+03 -4.045740e+02
-3.997950e+02 -4.800220e+03 -3.340700e+00
-4.050390e-02 -4.800290e+03 -3.023700e+00
-4.001030e+02 -4.399870e+03 -4.971890e+00
-3.054740e-01 -4.399920e+03 -4.457730e+00
1.536410e-01 -4.800930e+03 -4.025820e+02
4.003750e+02 -4.801410e+03 -4.027990e+02
1.002140e+00 -4.401750e+03 -4.045740e+02
4.012730e+02 -4.401700e+03 -4.035400e+02
-4.050390e-02 -4.800290e+03 -3.023700e+00
3.997550e+02 -4.800080e+03 -1.694270e+00
-3.054740e-01 -4.399920e+03 -4.457730e+00
3.994590e+02 -4.399980e+03 -3.736520e+00
-3.992300e+02 -4.401290e+03 -4.059860e+02
1.002140e+00 -4.401750e+03 -4.045740e+02
-3.989940e+02 -4.001690e+03 -4.063670e+02
7.645600e-01 -4.001870e+03 -4.052720e+02
-4.001030e+02 -4.399870e+03 -4.971890e+00
-3.054740e-01 -4.399920e+03 -4.457730e+00
-4.001400e+02 -4.000080e+03 -7.583050e+00
8.341540e-02 -4.000060e+03 -6.882570e+00
1.002140e+00 -4.401750e+03 -4.045740e+02
4.012730e+02 -4.401700e+03 -4.035400e+02
7.645600e-01 -4.001870e+03 -4.052720e+02
4.004640e+02 -4.001620e+03 -4.054080e+02
-3.054740e-01 -4.399920e+03 -4.457730e+00
3.994590e+02 -4.399980e+03 -3.736520e+00
8.341540e-02 -4.000060e+03 -6.882570e+00
4.003180e+02 -4.000140e+03 -5.497340e+00
-3.989940e+02 -4.001690e+03 -4.063670e+02
7.645600e-01 -4.001870e+03 -4.052720e+02
-3.987840e+02 -3.602200e+03 -4.087930e+02
9.375540e-01 -3.602320e+03 -4.079860e+02
-4.001400e+02 -4.000080e+03 -7.583050e+00
8.341540e-02 -4.000060e+03 -6.882570e+00
-4.003060e+02 -3.599930e+03 -8.813870e+00
-1.424650e-01 -3.600080e+03 -7.964370e+00
7.645600e-01 -4.001870e+03 -4.052720e+02
4.004640e+02 -4.001620e+03 -4.054080e+02
9.375540e-01 -3.602320e+03 -4.079860e+02
4.006830e+02 -3.602290e+03 -4.074410e+02
8.341540e-02 -4.000060e+03 -6.882570e+00
4.003180e+02 -4.000140e+03 -5.497340e+00
-1.424650e-01 -3.600080e+03 -7.964370e+00
4.000370e+02 -3.600120e+03 -7.726390e+00
-3.987840e+02 -3.602200e+03 -4.087930e+02
9.375540e-01 -3.602320e+03 -4.079860e+02
-3.994740e+02 -3.202700e+03 -4.102950e+02
6.427530e-01 -3.202490e+03 -4.107940e+02
-4.003060e+02 -3.599930e+03 -8.813870e+00
-1.424650e-01 -3.600080e+03 -7.964370e+00
-3.996560e+02 -3.200140e+03 -1.206610e+01
2.861910e-01 -3.200040e+03 -1.106750e+01
9.375540e-01 -3.602320e+03 -4.079860e+02
4.006830e+02 -3.602290e+03 -4.074410e+02
6.427530e-01 -3.202490e+03 -4.107940e+02
4.007210e+02 -3.202630e+03 -4.103310e+02
-1.424650e-01 -3.600080e+03 -7.964370e+00
4.000370e+02 -3.600120e+03 -7.726390e+00
2.861910e-01 -3.200040e+03 -1.106750e+01
4.002460e+02 -3.199700e+03 -1.025840e+01
-3.994740e+02 -3.202700e+03 -4.102950e+02
6.427530e-01 -3.202490e+03 -4.107940e+02
-3.998570e+02 -2.803080e+03 -4.137810e+02
3.521960e-01 -2.803150e+03 -4.130870e+02
-3.996560e+02 -3.200140e+03 -1.206610e+01
2.861910e-01 -3.200040e+03 -1.106750e+01
-4.000580e+02 -2.800060e+03 -1.436240e+01
-1.675750e-01 -2.799850e+03 -1.407860e+01
6.427530e-01 -3.202490e+03 -4.107940e+02
4.007210e+02 -3.202630e+03 -4.103310e+02
3.521960e-01 -2.803150e+03 -4.130870e+02
4.005550e+02 -2.802700e+03 -4.125680e+02
2.861910e-01 -3.200040e+03 -1.106750e+01
4.002460e+02 -3.199700e+03 -1.025840e+01
-1.675750e-01 -2.799850e+03 -1.407860e+01
3.997130e+02 -2.799950e+03 -1.399240e+01
-3.998570e+02 -2.803080e+03 -4.137810e+02
3.521960e-01 -2.803150e+03 -4.130870e+02
-3.996810e+02 -2.402840e+03 -4.181880e+02
1.128030e-01 -2.403260e+03 -4.169730e+02
-4.000580e+02 -2.800060e+03 -1.436240e+01
-1.675750e-01 -2.799850e+03 -1.407860e+01
-4.000700e+02 -2.399930e+03 -1.722660e+01
-2.506490e-01 -2.399850e+03 -1.747660e+01
3.521960e-01 -2.803150e+03 -4.130870e+02
4.005550e+02 -2.802700e+03 -4.125680e+02
1.128030e-01 -2.403260e+03 -4.169730e+02
3.999100e+02 -2.403010e+03 -4.161840e+02
-1.675750e-01 -2.799850e+03 -1.407860e+01
3.997130e+02 -2.799950e+03 -1.399240e+01
-2.506490e-01 -2.399850e+03 -1.747660e+01
3.996200e+02 -2.400050e+03 -1.735300e+01
-3.996810e+02 -2.402840e+03 -4.181880e+02
1.128030e-01 -2.403260e+03 -4.169730e+02
-4.000190e+02 -2.003370e+03 -4.203810e+02
1.012190e-02 -2.003020e+03 -4.195190e+02
-4.000700e+02 -2.399930e+03 -1.722660e+01
-2.506490e-01 -2.399850e+03 -1.747660e+01
-4.003350e+02 -1.999890e+03 -1.841260e+01
-3.427910e-01 -2.000280e+03 -1.889250e+01
1.128030e-01 -2.403260e+03 -4.169730e+02
3.999100e+02 -2.403010e+03 -4.161840e+02
1.012190e-02 -2.003020e+03 -4.195190e+02
4.000780e+02 -2.003210e+03 -4.190050e+02
-2.506490e-01 -2.399850e+03 -1.747660e+01
3.996200e+02 -2.400050e+03 -1.735300e+01
-3.427910e-01 -2.000280e+03 -1.889250e+01
3.996160e+02 -2.000250e+03 -1.971410e+01
-4.000190e+02 -2.003370e+03 -4.203810e+02
1.012190e-02 -2.003020e+03 -4.195190e+02
-4.008590e+02 -1.603760e+03 -4.222910e+02
-6.205080e-01 -1.603890e+03 -4.225610e+02
-4.003350e+02 -1.999890e+03 -1.841260e+01
-3.427910e-01 -2.000280e+03 -1.889250e+01
-3.997490e+02 -1.600280e+03 -2.135200e+01
7.812540e-02 -1.600010e+03 -2.285960e+01
1.012190e-02 -2.003020e+03 -4.195190e+02
4.000780e+02 -2.003210e+03 -4.190050e+02
-6.205080e-01 -1.603890e+03 -4.225610e+02
3.995350e+02 -1.603240e+03 -4.225060e+02
-3.427910e-01 -2.000280e+03 -1.889250e+01
3.996160e+02 -2.000250e+03 -1.971410e+01
7.812540e-02 -1.600010e+03 -2.285960e+01
3.999530e+02 -1.600090e+03 -2.430110e+01
-4.008590e+02 -1.603760e+03 -4.222910e+02
-6.205080e-01 -1.603890e+03 -4.225610e+02
-4.000160e+02 -1.204310e+03 -4.255270e+02
1.643250e-02 -1.203960e+03 -4.258210e+02
-3.997490e+02 -1.600280e+03 -2.135200e+01
7.812540e-02 -1.600010e+03 -2.285960e+01
-4.005090e+02 -1.199660e+03 -2.697290e+01
-4.797510e-01 -1.200000e+03 -2.706570e+01
-6.205080e-01 -1.603890e+03 -4.225610e+02
3.995350e+02 -1.603240e+03 -4.225060e+02
1.643250e-02 -1.203960e+03 -4.258210e+02
4.000700e+02 -1.203460e+03 -4.254100e+02
7.812540e-02 -1.600010e+03 -2.285960e+01
3.999530e+02 -1.600090e+03 -2.430110e+01
-4.797510e-01 -1.200000e+03 -2.706570e+01
3.995250e+02 -1.200200e+03 -2.670980e+01
-4.000160e+02 -1.204310e+03 -4.255270e+02
1.643250e-02 -1.203960e+03 -4.258210e+02
-4.006540e+02 -8.039180e+02 -4.308380e+02
-3.961840e-01 -8.038890e+02 -4.306130e+02
-4.005090e+02 -1.199660e+03 -2.697290e+01
-4.797510e-01 -1.200000e+03 -2.706570e+01
-3.997900e+02 -7.999450e+02 -2.985850e+01
-7.102100e-02 -8.000690e+02 -3.026250e+01
1.643250e-02 -1.203960e+03 -4.258210e+02
4.000700e+02 -1.203460e+03 -4.254100e+02
-3.961840e-01 -8.038890e+02 -4.306130e+02
3.998650e+02 -8.045630e+02 -4.299980e+02
-4.797510e-01 -1.200000e+03 -2.706570e+01
3.995250e+02 -1.200200e+03 -2.670980e+01
-7.102100e-02 -8.000690e+02 -3.026250e+01
3.996470e+02 -7.997140e+02 -3.140120e+01
-4.006540e+02 -8.039180e+02 -4.308380e+02
-3.961840e-01 -8.038890e+02 -4.306130e+02
-4.004520e+02 -4.038740e+02 -4.331720e+02
-3.993850e-01 -4.040020e+02 -4.334850e+02
-3.997900e+02 -7.999450e+02 -2.985850e+01
-7.102100e-02 -8.000690e+02 -3.026250e+01
-3.998630e+02 -4.001940e+02 -3.483140e+01
-3.935200e-03 -4.001740e+02 -3.499940e+01
-3.961840e-01 -8.038890e+02 -4.306130e+02
3.998650e+02 -8.045630e+02 -4.299980e+02
-3.993850e-01 -4.040020e+02 -4.334850e+02
3.995740e+02 -4.040850e+02 -4.343880e+02
-7.102100e-02 -8.000690e+02 -3.026250e+01
3.996470e+02 -7.997140e+02 -3.140120e+01
-3.935200e-03 -4.001740e+02 -3.499940e+01
3.998780e+02 -4.002360e+02 -3.509380e+01
-4.004520e+02 -4.038740e+02 -4.331720e+02
-3.993850e-01 -4.040020e+02 -4.334850e+02
-4.005060e+02 -3.965330e+00 -4.391130e+02
-4.018470e-01 -3.862630e+00 -4.388530e+02
-3.998630e+02 -4.001940e+02 -3.483140e+01
-3.935200e-03 -4.001740e+02 -3.499940e+01
-3.998530e+02 1.827720e-01 -3.748460e+01
1.792360e-01 -5.280840e-02 -3.788270e+01
-3.993850e-01 -4.040020e+02 -4.334850e+02
3.995740e+02 -4.040850e+02 -4.343880e+02
[...]
<PointData>
<DataArray type="Float32" Name="V1" format="ascii">
0.000000e+00
0.000000e+00
2.813240e-01
1.692380e-01
0.000000e+00
0.000000e+00
2.435120e-02
2.065530e-01
0.000000e+00
0.000000e+00
1.692380e-01
-6.702570e-02
0.000000e+00
0.000000e+00
2.065530e-01
3.308350e-01
2.813240e-01
1.692380e-01
-1.480920e-01
-2.795560e-01
2.435120e-02
2.065530e-01
3.087290e-01
1.357220e-01
1.692380e-01
-6.702570e-02
-2.795560e-01
-5.690620e-01
2.065530e-01
3.308350e-01
1.357220e-01
-4.498540e-02
-1.480920e-01
-2.795560e-01
-7.051910e-01
-1.935760e-01
3.087290e-01
1.357220e-01
6.744850e-01
1.774420e-01
-2.795560e-01
-5.690620e-01
-1.935760e-01
2.356260e-01
1.357220e-01
-4.498540e-02
1.774420e-01
-3.208540e-01
-7.051910e-01
-1.935760e-01
-6.671450e-01
-4.311560e-01
6.744850e-01
1.774420e-01
5.928520e-01
2.212930e-01
-1.935760e-01
2.356260e-01
-4.311560e-01
-2.338280e-01
1.774420e-01
-3.208540e-01
2.212930e-01
-1.989380e-01
-6.671450e-01
-4.311560e-01
4.479360e-01
3.940300e-01
5.928520e-01
2.212930e-01
-8.681250e-01
-4.514740e-01
-4.311560e-01
-2.338280e-01
3.940300e-01
3.765280e-01
2.212930e-01
-1.989380e-01
-4.514740e-01
1.230740e-01
4.479360e-01
3.940300e-01
-3.560120e-01
-1.666050e-01
-8.681250e-01
-4.514740e-01
3.850480e-01
1.733640e-01
3.940300e-01
3.765280e-01
-1.666050e-01
1.300920e-01
-4.514740e-01
1.230740e-01
1.733640e-01
-7.214810e-02
-3.560120e-01
-1.666050e-01
8.702290e-02
5.100940e-02
3.850480e-01
1.733640e-01
5.398830e-02
1.211880e-01
-1.666050e-01
1.300920e-01
5.100940e-02
3.096500e-02
1.733640e-01
-7.214810e-02
1.211880e-01
2.009190e-01
8.702290e-02
5.100940e-02
-5.226180e-01
-2.308300e-01
5.398830e-02
1.211880e-01
4.473130e-01
1.008080e-01
5.100940e-02
3.096500e-02
-2.308300e-01
2.542960e-02
1.211880e-01
2.009190e-01
1.008080e-01
-1.282380e-01
-5.226180e-01
-2.308300e-01
-7.603150e-01
-2.250710e-01
4.473130e-01
1.008080e-01
1.901880e-01
5.588420e-02
-2.308300e-01
2.542960e-02
-2.250710e-01
4.458150e-01
1.008080e-01
-1.282380e-01
5.588420e-02
-2.759990e-02
-7.603150e-01
-2.250710e-01
-8.215730e-01
-5.441600e-01
1.901880e-01
5.588420e-02
6.144670e-01
3.674710e-01
-2.250710e-01
4.458150e-01
-5.441600e-01
-3.785350e-01
5.588420e-02
-2.759990e-02
3.674710e-01
6.446230e-02
-8.215730e-01
-5.441600e-01
-1.258360e+00
-5.797750e-02
6.144670e-01
3.674710e-01
6.285720e-01
1.014540e-01
-5.441600e-01
-3.785350e-01
-5.797750e-02
8.039190e-01
3.674710e-01
6.446230e-02
1.014540e-01
-2.935520e-01
-1.258360e+00
-5.797750e-02
-6.196730e-01
-6.011790e-01
6.285720e-01
1.014540e-01
3.483920e-01
5.393500e-01
-5.797750e-02
8.039190e-01
-6.011790e-01
-4.204670e-01
1.014540e-01
-2.935520e-01
5.393500e-01
6.701530e-01
-6.196730e-01
-6.011790e-01
1.529680e-01
3.054540e-01
3.483920e-01
5.393500e-01
-3.706360e-01
-3.631120e-01
-6.011790e-01
-4.204670e-01
3.054540e-01
3.343520e-01
5.393500e-01
6.701530e-01
-3.631120e-01
-4.004040e-01
1.529680e-01
3.054540e-01
3.534410e-01
-2.916760e-02
-3.706360e-01
-3.631120e-01
-4.962940e-02
5.512000e-02
3.054540e-01
3.343520e-01
-2.916760e-02
-4.660290e-01
-3.631120e-01
-4.004040e-01
5.512000e-02
2.447480e-01
3.534410e-01
-2.916760e-02
-1.651650e-01
2.611960e-01
-4.962940e-02
5.512000e-02
1.141730e-01
-1.097040e-01
-2.916760e-02
-4.660290e-01
2.611960e-01
8.125710e-01
5.512000e-02
2.447480e-01
-1.097040e-01
-4.194280e-01
-1.651650e-01
2.611960e-01
-3.885030e-01
-4.278590e-01
1.141730e-01
-1.097040e-01
8.320620e-02
1.157380e-01
2.611960e-01
8.125710e-01
-4.278590e-01
-5.258830e-01
-1.097040e-01
-4.194280e-01
1.157380e-01
2.404760e-01
-3.885030e-01
-4.278590e-01
6.823020e-01
5.171550e-01
8.320620e-02
1.157380e-01
-4.627290e-01
-1.514820e-01
-4.278590e-01
-5.258830e-01
5.171550e-01
3.645740e-01
1.157380e-01
2.404760e-01
-1.514820e-01
1.074890e-01
6.823020e-01
5.171550e-01
1.189870e-01
1.951690e-01
-4.627290e-01
-1.514820e-01
-4.927610e-02
-1.188770e-01
5.171550e-01
3.645740e-01
1.951690e-01
3.170560e-01
-1.514820e-01
1.074890e-01
-1.188770e-01
-1.864970e-01
1.189870e-01
1.951690e-01
1.748310e-01
3.216770e-01
-4.927610e-02
-1.188770e-01
-5.233540e-01
-3.958570e-01
1.951690e-01
3.170560e-01
3.216770e-01
5.491880e-01
-1.188770e-01
-1.864970e-01
-3.958570e-01
-2.192550e-01
1.748310e-01
3.216770e-01
7.335620e-01
2.727860e-01
-5.233540e-01
-3.958570e-01
1.197910e-01
3.035550e-01
3.216770e-01
5.491880e-01
2.727860e-01
-4.805170e-01
-3.958570e-01
-2.192550e-01
3.035550e-01
5.190710e-01
7.335620e-01
2.727860e-01
3.060630e-01
3.755870e-01
1.197910e-01
3.035550e-01
3.467280e-01
-2.082240e-01
2.727860e-01
-4.805170e-01
3.755870e-01
6.863020e-01
3.035550e-01
5.190710e-01
-2.082240e-01
-8.785080e-01
3.060630e-01
3.755870e-01
-1.127310e+00
-9.344990e-01
3.467280e-01
-2.082240e-01
5.377580e-01
2.860290e-01
3.755870e-01
6.863020e-01
-9.344990e-01
-7.327370e-01
-2.082240e-01
-8.785080e-01
2.860290e-01
8.939960e-02
-1.127310e+00
-9.344990e-01
4.505430e-01
8.493900e-01
5.377580e-01
2.860290e-01
-2.346460e-01
-5.368400e-01
-9.344990e-01
-7.327370e-01
8.493900e-01
1.019730e+00
2.860290e-01
8.939960e-02
-5.368400e-01
-8.285140e-01
4.505430e-01
8.493900e-01
4.662110e-01
5.303920e-01
-2.346460e-01
-5.368400e-01
-4.260970e-01
-3.550760e-01
8.493900e-01
1.019730e+00
5.303920e-01
6.781440e-01
-5.368400e-01
-8.285140e-01
-3.550760e-01
-4.439410e-01
4.662110e-01
5.303920e-01
-1.676220e-01
-3.501710e-01
-4.260970e-01
-3.550760e-01
-8.428520e-03
1.087140e-01
5.303920e-01
6.781440e-01
-3.501710e-01
-4.382890e-01
-3.550760e-01
-4.439410e-01
1.087140e-01
2.980570e-01
-1.676220e-01
-3.501710e-01
1.658510e-01
3.003500e-01
-8.428520e-03
1.087140e-01
-9.923300e-02
-1.797990e-01
-3.501710e-01
-4.382890e-01
3.003500e-01
5.682120e-01
1.087140e-01
2.980570e-01
-1.797990e-01
-3.270460e-01
1.658510e-01
3.003500e-01
3.899000e-01
-6.261160e-02
-9.923300e-02
-1.797990e-01
-6.820110e-01
-3.049500e-01
3.003500e-01
5.682120e-01
-6.261160e-02
-5.073520e-01
-1.797990e-01
-3.270460e-01
-3.049500e-01
-5.972200e-02
3.899000e-01
-6.261160e-02
2.872200e-03
-1.399990e-03
-6.820110e-01
-3.049500e-01
5.488150e-01
1.166100e-01
-6.261160e-02
-5.073520e-01
-1.399990e-03
2.097890e-01
-3.049500e-01
-5.972200e-02
1.166100e-01
-3.097780e-01
2.872200e-03
-1.399990e-03
-2.283990e-02
-1.981390e-01
5.488150e-01
1.166100e-01
-2.991810e-01
1.708660e-01
-1.399990e-03
2.097890e-01
-1.981390e-01
-5.252880e-01
1.166100e-01
-3.097780e-01
1.708660e-01
6.454770e-01
-2.283990e-02
-1.981390e-01
-7.430410e-02
-3.655510e-01
-2.991810e-01
1.708660e-01
-1.140740e-01
3.777910e-01
-1.981390e-01
-5.252880e-01
-3.655510e-01
-4.810720e-01
1.708660e-01
6.454770e-01
3.777910e-01
7.355760e-01
0.000000e+00
0.000000e+00
2.435120e-02
2.065530e-01
0.000000e+00
0.000000e+00
-5.083330e-01
-5.620170e-01
0.000000e+00
0.000000e+00
2.065530e-01
3.308350e-01
0.000000e+00
0.000000e+00
-5.620170e-01
-6.605300e-01
2.435120e-02
2.065530e-01
3.087290e-01
1.357220e-01
-5.083330e-01
-5.620170e-01
-4.539480e-01
1.043750e-01
2.065530e-01
3.308350e-01
1.357220e-01
-4.498540e-02
-5.620170e-01
-6.605300e-01
1.043750e-01
6.558480e-01
3.087290e-01
1.357220e-01
6.744850e-01
1.774420e-01
-4.539480e-01
1.043750e-01
-7.851690e-01
-1.708870e-01
1.357220e-01
-4.498540e-02
1.774420e-01
-3.208540e-01
1.043750e-01
6.558480e-01
-1.708870e-01
4.347920e-01
6.744850e-01
1.774420e-01
5.928520e-01
2.212930e-01
-7.851690e-01
-1.708870e-01
-4.756370e-01
2.066870e-02
1.774420e-01
-3.208540e-01
2.212930e-01
-1.989380e-01
-1.708870e-01
4.347920e-01
2.066870e-02
6.272170e-01
5.928520e-01
2.212930e-01
-8.681250e-01
-4.514740e-01
-4.756370e-01
2.066870e-02
1.298630e+00
5.077080e-01
2.212930e-01
-1.989380e-01
-4.514740e-01
1.230740e-01
2.066870e-02
6.272170e-01
5.077080e-01
-6.353830e-01
-8.681250e-01
-4.514740e-01
3.850480e-01
1.733640e-01
1.298630e+00
5.077080e-01
-3.706000e-01
-1.907040e-01
-4.514740e-01
1.230740e-01
1.733640e-01
-7.214810e-02
5.077080e-01
-6.353830e-01
-1.907040e-01
9.100700e-02
3.850480e-01
1.733640e-01
5.398830e-02
1.211880e-01
-3.706000e-01
-1.907040e-01
-2.634300e-01
-3.148670e-01
1.733640e-01
-7.214810e-02
1.211880e-01
2.009190e-01
-1.907040e-01
9.100700e-02
-3.148670e-01
-4.108720e-01
5.398830e-02
1.211880e-01
4.473130e-01
1.008080e-01
-2.634300e-01
-3.148670e-01
-4.051160e-01
-2.220030e-02
1.211880e-01
2.009190e-01
1.008080e-01
-1.282380e-01
-3.148670e-01
-4.108720e-01
-2.220030e-02
3.085890e-01
4.473130e-01
1.008080e-01
1.901880e-01
5.588420e-02
-4.051160e-01
-2.220030e-02
5.523530e-01
9.553230e-02
1.008080e-01
-1.282380e-01
5.588420e-02
-2.759990e-02
-2.220030e-02
3.085890e-01
9.553230e-02
-3.697280e-01
1.901880e-01
5.588420e-02
6.144670e-01
3.674710e-01
5.523530e-01
9.553230e-02
-4.471600e-01
-1.836890e-01
5.588420e-02
-2.759990e-02
3.674710e-01
6.446230e-02
9.553230e-02
-3.697280e-01
-1.836890e-01
1.892120e-01
6.144670e-01
3.674710e-01
6.285720e-01
1.014540e-01
-4.471600e-01
-1.836890e-01
-1.189330e-01
-1.644600e-01
3.674710e-01
6.446230e-02
1.014540e-01
-2.935520e-01
-1.836890e-01
1.892120e-01
-1.644600e-01
-3.278590e-01
6.285720e-01
1.014540e-01
3.483920e-01
5.393500e-01
-1.189330e-01
-1.644600e-01
-9.709680e-02
-4.202400e-01
1.014540e-01
-2.935520e-01
5.393500e-01
6.701530e-01
-1.644600e-01
-3.278590e-01
-4.202400e-01
-7.456890e-01
3.483920e-01
5.393500e-01
-3.706360e-01
-3.631120e-01
-9.709680e-02
-4.202400e-01
5.507790e-01
4.020860e-01
5.393500e-01
6.701530e-01
-3.631120e-01
-4.004040e-01
-4.202400e-01
-7.456890e-01
4.020860e-01
3.611380e-01
-3.706360e-01
-3.631120e-01
-4.962940e-02
5.512000e-02
5.507790e-01
4.020860e-01
-2.153840e-01
-2.413220e-02
-3.631120e-01
-4.004040e-01
5.512000e-02
2.447480e-01
4.020860e-01
3.611380e-01
-2.413220e-02
-2.317520e-02
-4.962940e-02
5.512000e-02
1.141730e-01
-1.097040e-01
-2.153840e-01
-2.413220e-02
9.844610e-03
-6.213550e-02
5.512000e-02
2.447480e-01
-1.097040e-01
-4.194280e-01
-2.413220e-02
-2.317520e-02
-6.213550e-02
-6.069050e-03
1.141730e-01
-1.097040e-01
8.320620e-02
1.157380e-01
9.844610e-03
-6.213550e-02
1.918850e-01
1.562180e-01
-1.097040e-01
-4.194280e-01
1.157380e-01
2.404760e-01
-6.213550e-02
-6.069050e-03
1.562180e-01
7.503270e-02
8.320620e-02
1.157380e-01
-4.627290e-01
-1.514820e-01
1.918850e-01
1.562180e-01
2.275430e-01
-1.729890e-01
1.157380e-01
2.404760e-01
-1.514820e-01
1.074890e-01
1.562180e-01
7.503270e-02
-1.729890e-01
-6.068420e-01
-4.627290e-01
-1.514820e-01
-4.927610e-02
-1.188770e-01
2.275430e-01
-1.729890e-01
7.602480e-03
7.169790e-02
-1.514820e-01
1.074890e-01
-1.188770e-01
-1.864970e-01
-1.729890e-01
-6.068420e-01
7.169790e-02
1.438010e-01
-4.927610e-02
-1.188770e-01
-5.233540e-01
-3.958570e-01
7.602480e-03
7.169790e-02
9.483640e-01
4.223040e-01
-1.188770e-01
-1.864970e-01
-3.958570e-01
-2.192550e-01
7.169790e-02
1.438010e-01
4.223040e-01
-2.163220e-01
-5.233540e-01
-3.958570e-01
1.197910e-01
3.035550e-01
9.483640e-01
4.223040e-01
-9.686930e-01
-8.278520e-01
-3.958570e-01
-2.192550e-01
3.035550e-01
5.190710e-01
4.223040e-01
-2.163220e-01
-8.278520e-01
-5.816210e-01
1.197910e-01
3.035550e-01
3.467280e-01
-2.082240e-01
-9.686930e-01
-8.278520e-01
-1.073670e+00
2.645340e-02
3.035550e-01
5.190710e-01
-2.082240e-01
-8.785080e-01
-8.278520e-01
-5.816210e-01
2.645340e-02
1.160850e+00
3.467280e-01
-2.082240e-01
5.377580e-01
2.860290e-01
-1.073670e+00
2.645340e-02
1.220720e-02
3.530800e-01
-2.082240e-01
-8.785080e-01
2.860290e-01
8.939960e-02
2.645340e-02
1.160850e+00
3.530800e-01
5.951270e-01
5.377580e-01
2.860290e-01
-2.346460e-01
-5.368400e-01
1.220720e-02
3.530800e-01
2.514420e-03
2.171730e-01
2.860290e-01
8.939960e-02
-5.368400e-01
-8.285140e-01
3.530800e-01
5.951270e-01
2.171730e-01
5.020590e-01
-2.346460e-01
-5.368400e-01
-4.260970e-01
-3.550760e-01
2.514420e-03
2.171730e-01
3.766850e-01
2.103670e-01
-5.368400e-01
-8.285140e-01
-3.550760e-01
-4.439410e-01
2.171730e-01
5.020590e-01
2.103670e-01
2.475990e-01
-4.260970e-01
-3.550760e-01
-8.428520e-03
1.087140e-01
3.766850e-01
2.103670e-01
2.966020e-01
1.061160e-01
-3.550760e-01
-4.439410e-01
1.087140e-01
2.980570e-01
2.103670e-01
2.475990e-01
1.061160e-01
-1.573290e-01
-8.428520e-03
1.087140e-01
-9.923300e-02
-1.797990e-01
2.966020e-01
1.061160e-01
-4.775650e-02
5.523640e-02
1.087140e-01
2.980570e-01
-1.797990e-01
-3.270460e-01
1.061160e-01
-1.573290e-01
5.523640e-02
1.383220e-01
-9.923300e-02
-1.797990e-01
-6.820110e-01
-3.049500e-01
-4.775650e-02
5.523640e-02
8.665180e-01
6.803290e-01
-1.797990e-01
-3.270460e-01
-3.049500e-01
-5.972200e-02
5.523640e-02
1.383220e-01
6.803290e-01
6.565670e-01
-6.820110e-01
-3.049500e-01
5.488150e-01
1.166100e-01
8.665180e-01
6.803290e-01
-1.008000e+00
-1.864870e-01
-3.049500e-01
-5.972200e-02
1.166100e-01
-3.097780e-01
6.803290e-01
6.565670e-01
-1.864870e-01
5.051300e-01
5.488150e-01
1.166100e-01
-2.991810e-01
1.708660e-01
-1.008000e+00
-1.864870e-01
6.352030e-01
-2.772540e-01
1.166100e-01
-3.097780e-01
1.708660e-01
6.454770e-01
-1.864870e-01
5.051300e-01
-2.772540e-01
-1.066740e+00
-2.991810e-01
1.708660e-01
-1.140740e-01
3.777910e-01
6.352030e-01
-2.772540e-01
4.326770e-01
-2.400790e-01
1.708660e-01
6.454770e-01
3.777910e-01
7.355760e-01
-2.772540e-01
-1.066740e+00
-2.400790e-01
-6.850900e-01
</DataArray>
<DataArray type="Float32" Name="V2" format="ascii">
0.000000e+00
0.000000e+00
-5.081370e-01
-1.032370e+00
0.000000e+00
0.000000e+00
8.505450e-02
8.283480e-01
0.000000e+00
0.000000e+00
-1.032370e+00
4.032700e-01
0.000000e+00
0.000000e+00
8.283480e-01
-4.035110e-01
-5.081370e-01
-1.032370e+00
-3.967750e-01
-5.158870e-01
8.505450e-02
8.283480e-01
-4.244790e-01
-6.368330e-02
-1.032370e+00
4.032700e-01
-5.158870e-01
-6.015750e-01
8.283480e-01
-4.035110e-01
-6.368330e-02
5.392760e-01
-3.967750e-01
-5.158870e-01
6.307660e-01
2.745650e-01
-4.244790e-01
-6.368330e-02
-2.788090e-01
7.814780e-02
-5.158870e-01
-6.015750e-01
2.745650e-01
6.739220e-01
-6.368330e-02
5.392760e-01
7.814780e-02
-3.381980e-01
6.307660e-01
2.745650e-01
6.508570e-03
6.862870e-01
-2.788090e-01
7.814780e-02
3.017930e-01
2.992250e-02
2.745650e-01
6.739220e-01
6.862870e-01
2.753110e-01
7.814780e-02
-3.381980e-01
2.992250e-02
-4.572710e-01
6.508570e-03
6.862870e-01
1.383060e+00
5.368170e-01
3.017930e-01
2.992250e-02
-7.389930e-01
-2.305390e-01
6.862870e-01
2.753110e-01
5.368170e-01
3.242360e-02
2.992250e-02
-4.572710e-01
-2.305390e-01
-2.158720e-01
1.383060e+00
5.368170e-01
3.707910e-01
-1.796810e+00
-7.389930e-01
-2.305390e-01
-6.665730e-01
1.082040e+00
5.368170e-01
3.242360e-02
-1.796810e+00
-8.621350e-01
-2.305390e-01
-2.158720e-01
1.082040e+00
4.618300e-01
3.707910e-01
-1.796810e+00
-1.001450e+00
-8.921300e-01
-6.665730e-01
1.082040e+00
5.879430e-01
3.580340e-01
-1.796810e+00
-8.621350e-01
-8.921300e-01
-1.438400e+00
1.082040e+00
4.618300e-01
3.580340e-01
9.457490e-01
-1.001450e+00
-8.921300e-01
3.350630e-01
1.003670e+00
5.879430e-01
3.580340e-01
-3.160430e-01
-4.842010e-01
-8.921300e-01
-1.438400e+00
1.003670e+00
7.060560e-01
3.580340e-01
9.457490e-01
-4.842010e-01
-4.749180e-01
3.350630e-01
1.003670e+00
4.477170e-02
-6.344910e-01
-3.160430e-01
-4.842010e-01
1.066620e-01
7.122560e-01
1.003670e+00
7.060560e-01
-6.344910e-01
2.820090e-01
-4.842010e-01
-4.749180e-01
7.122560e-01
1.604320e-01
4.477170e-02
-6.344910e-01
4.715070e-01
2.319410e-01
1.066620e-01
7.122560e-01
-4.748360e-01
-4.445670e-01
-6.344910e-01
2.820090e-01
2.319410e-01
-1.156800e-02
7.122560e-01
1.604320e-01
-4.445670e-01
-1.046920e-01
4.715070e-01
2.319410e-01
-1.088560e-01
2.959000e-01
-4.748360e-01
-4.445670e-01
-8.737490e-02
-8.713470e-02
2.319410e-01
-1.156800e-02
2.959000e-01
9.180940e-02
-4.445670e-01
-1.046920e-01
-8.713470e-02
-1.590000e-01
-1.088560e-01
2.959000e-01
-6.254040e-01
-4.117480e-01
-8.737490e-02
-8.713470e-02
9.139590e-01
2.885800e-01
2.959000e-01
9.180940e-02
-4.117480e-01
6.064080e-01
-8.713470e-02
-1.590000e-01
2.885800e-01
2.585630e-01
-6.254040e-01
-4.117480e-01
-1.252930e-02
4.115390e-01
9.139590e-01
2.885800e-01
-1.697380e-01
-4.621440e-01
-4.117480e-01
6.064080e-01
4.115390e-01
2.302650e-01
2.885800e-01
2.585630e-01
-4.621440e-01
-3.078030e-01
-1.252930e-02
4.115390e-01
2.321780e-02
3.846140e-01
-1.697380e-01
-4.621440e-01
-1.867680e-01
-1.209000e-01
4.115390e-01
2.302650e-01
3.846140e-01
-6.657980e-01
-4.621440e-01
-3.078030e-01
-1.209000e-01
5.525230e-01
2.321780e-02
3.846140e-01
-1.108690e+00
-2.080440e-01
-1.867680e-01
-1.209000e-01
1.252670e+00
1.518850e-01
3.846140e-01
-6.657980e-01
-2.080440e-01
1.388230e-01
-1.209000e-01
5.525230e-01
1.518850e-01
4.619370e-01
-1.108690e+00
-2.080440e-01
5.826130e-01
5.576960e-01
1.252670e+00
1.518850e-01
-3.234990e-01
-4.665070e-01
-2.080440e-01
1.388230e-01
5.576960e-01
1.921540e-01
1.518850e-01
4.619370e-01
-4.665070e-01
-6.658400e-01
5.826130e-01
5.576960e-01
4.362950e-01
-3.968000e-01
-3.234990e-01
-4.665070e-01
-5.806790e-03
2.623860e-01
5.576960e-01
1.921540e-01
-3.968000e-01
5.330930e-01
-4.665070e-01
-6.658400e-01
2.623860e-01
-6.255540e-01
4.362950e-01
-3.968000e-01
-8.078230e-01
-1.589510e-01
-5.806790e-03
2.623860e-01
4.268910e-01
2.725110e-01
-3.968000e-01
5.330930e-01
-1.589510e-01
3.521430e-01
2.623860e-01
-6.255540e-01
2.725110e-01
1.786450e-01
-8.078230e-01
-1.589510e-01
3.020460e-01
-5.813630e-03
4.268910e-01
2.725110e-01
-2.554680e-01
-2.717400e-02
-1.589510e-01
3.521430e-01
-5.813630e-03
4.991670e-01
2.725110e-01
1.786450e-01
-2.717400e-02
-2.616600e-01
3.020460e-01
-5.813630e-03
8.380270e-01
-3.444560e-02
-2.554680e-01
-2.717400e-02
-9.833300e-01
-3.484720e-01
-5.813630e-03
4.991670e-01
-3.444560e-02
1.366810e-01
-2.717400e-02
-2.616600e-01
-3.484720e-01
-3.539720e-01
8.380270e-01
-3.444560e-02
-1.241280e+00
-5.792470e-01
-9.833300e-01
-3.484720e-01
1.044490e+00
3.515010e-01
-3.444560e-02
1.366810e-01
-5.792470e-01
-2.121040e-01
-3.484720e-01
-3.539720e-01
3.515010e-01
2.620260e-01
-1.241280e+00
-5.792470e-01
1.588300e-01
1.228700e-01
1.044490e+00
3.515010e-01
8.776520e-03
-1.276410e-01
-5.792470e-01
-2.121040e-01
1.228700e-01
8.248690e-01
3.515010e-01
2.620260e-01
-1.276410e-01
-4.549480e-01
1.588300e-01
1.228700e-01
5.937800e-02
6.342880e-01
8.776520e-03
-1.276410e-01
2.359730e-01
-9.929480e-02
1.228700e-01
8.248690e-01
6.342880e-01
-6.262640e-01
-1.276410e-01
-4.549480e-01
-9.929480e-02
7.444090e-01
5.937800e-02
6.342880e-01
-5.962090e-01
-3.892570e-01
2.359730e-01
-9.929480e-02
1.025890e-01
1.201430e-01
6.342880e-01
-6.262640e-01
-3.892570e-01
-9.428590e-02
-9.929480e-02
7.444090e-01
1.201430e-01
2.414990e-01
-5.962090e-01
-3.892570e-01
-9.135090e-01
1.888250e-01
1.025890e-01
1.201430e-01
5.842090e-01
-1.954380e-01
-3.892570e-01
-9.428590e-02
1.888250e-01
5.520470e-02
1.201430e-01
2.414990e-01
-1.954380e-01
1.441710e-02
-9.135090e-01
1.888250e-01
-5.022560e-01
1.153680e-02
5.842090e-01
-1.954380e-01
7.462930e-01
1.019000e-01
1.888250e-01
5.520470e-02
1.153680e-02
6.358220e-01
-1.954380e-01
1.441710e-02
1.019000e-01
-5.840840e-01
-5.022560e-01
1.153680e-02
1.305120e+00
4.697030e-01
7.462930e-01
1.019000e-01
-7.091750e-01
-4.964270e-01
1.153680e-02
6.358220e-01
4.697030e-01
-7.049080e-02
1.019000e-01
-5.840840e-01
-4.964270e-01
-4.020530e-02
1.305120e+00
4.697030e-01
5.887220e-01
6.035000e-01
-7.091750e-01
-4.964270e-01
-4.240870e-01
-2.064820e-01
4.697030e-01
-7.049080e-02
6.035000e-01
-4.883220e-01
-4.964270e-01
-4.020530e-02
-2.064820e-01
1.539820e-01
5.887220e-01
6.035000e-01
-8.438890e-02
4.922260e-02
-4.240870e-01
-2.064820e-01
-8.438630e-02
1.391820e-01
6.035000e-01
-4.883220e-01
4.922260e-02
3.151740e-01
-2.064820e-01
1.539820e-01
1.391820e-01
-1.537300e-01
-8.438890e-02
4.922260e-02
-8.992290e-01
-2.124510e-01
-8.438630e-02
1.391820e-01
9.999930e-01
1.139100e-01
4.922260e-02
3.151740e-01
-2.124510e-01
-5.813730e-01
1.391820e-01
-1.537300e-01
1.139100e-01
5.700180e-01
0.000000e+00
0.000000e+00
8.505450e-02
8.283480e-01
0.000000e+00
0.000000e+00
1.909810e-01
-6.157830e-01
0.000000e+00
0.000000e+00
8.283480e-01
-4.035110e-01
0.000000e+00
0.000000e+00
-6.157830e-01
2.559230e-01
8.505450e-02
8.283480e-01
-4.244790e-01
-6.368330e-02
1.909810e-01
-6.157830e-01
1.048940e+00
5.223210e-01
8.283480e-01
-4.035110e-01
-6.368330e-02
5.392760e-01
-6.157830e-01
2.559230e-01
5.223210e-01
-2.819550e-01
-4.244790e-01
-6.368330e-02
-2.788090e-01
7.814780e-02