<?xml version="1.0"?>
<VTKFile type="UnstructuredGrid" version="0.1" byte_order="LittleEndian" compressor="vtkZLibDataCompressor">
<UnstructuredGrid>
<Piece NumberOfPoints="960" NumberOfCells="120">
<Points>
<DataArray type="Float32" NumberOfComponents="3" format="ascii">
-4.000000e+02 -6.000000e+03 -4.000000e+02
0.000000e+00 -6.000000e+03 -4.000000e+02
-4.000000e+02 -5.600010e+03 -4.000220e+02
7.121130e-11 -5.600010e+03 -4.000220e+02
-4.000000e+02 -6.000000e+03 0.000000e+00
0.000000e+00 -6.000000e+03 0.000000e+00
-4.000000e+02 -5.600000e+03 -2.353420e-02
2.122930e-10 -5.600000e+03 -2.353420e-02
0.000000e+00 -6.000000e+03 -4.000000e+02
4.000000e+02 -6.000000e+03 -4.000000e+02
7.121130e-11 -5.600010e+03 -4.000220e+02
4.000000e+02 -5.600010e+03 -4.000220e+02
0.000000e+00 -6.000000e+03 0.000000e+00
4.000000e+02 -6.000000e+03 0.000000e+00
2.122930e-10 -5.600000e+03 -2.353420e-02
4.000000e+02 -5.600000e+03 -2.353420e-02
-4.000000e+02 -5.600010e+03 -4.000220e+02
7.121130e-11 -5.600010e+03 -4.000220e+02
-4.000000e+02 -5.200010e+03 -4.000330e+02
3.392230e-10 -5.200010e+03 -4.000330e+02
-4.000000e+02 -5.600000e+03 -2.353420e-02
2.122930e-10 -5.600000e+03 -2.353420e-02
-4.000000e+02 -5.200000e+03 -4.074250e-02
-1.401380e-11 -5.200000e+03 -4.074250e-02
7.121130e-11 -5.600010e+03 -4.000220e+02
4.000000e+02 -5.600010e+03 -4.000220e+02
3.392230e-10 -5.200010e+03 -4.000330e+02
4.000000e+02 -5.200010e+03 -4.000330e+02
2.122930e-10 -5.600000e+03 -2.353420e-02
4.000000e+02 -5.600000e+03 -2.353420e-02
-1.401380e-11 -5.200000e+03 -4.074250e-02
4.000000e+02 -5.200000e+03 -4.074250e-02
-4.000000e+02 -5.200010e+03 -4.000330e+02
3.392230e-10 -5.200010e+03 -4.000330e+02
-4.000000e+02 -4.800010e+03 -4.000520e+02
3.431990e-10 -4.800010e+03 -4.000520e+02
-4.000000e+02 -5.200000e+03 -4.074250e-02
-1.401380e-11 -5.200000e+03 -4.074250e-02
-4.000000e+02 -4.800000e+03 -4.919170e-02
3.014430e-10 -4.800000e+03 -4.919170e-02
3.392230e-10 -5.200010e+03 -4.000330e+02
4.000000e+02 -5.200010e+03 -4.000330e+02
3.431990e-10 -4.800010e+03 -4.000520e+02
4.000000e+02 -4.800010e+03 -4.000520e+02
-1.401380e-11 -5.200000e+03 -4.074250e-02
4.000000e+02 -5.200000e+03 -4.074250e-02
3.014430e-10 -4.800000e+03 -4.919170e-02
4.000000e+02 -4.800000e+03 -4.919170e-02
-4.000000e+02 -4.800010e+03 -4.000520e+02
3.431990e-10 -4.800010e+03 -4.000520e+02
-4.000000e+02 -4.400010e+03 -4.000660e+02
4.505980e-10 -4.400010e+03 -4.000660e+02
-4.000000e+02 -4.800000e+03 -4.919170e-02
3.014430e-10 -4.800000e+03 -4.919170e-02
-4.000000e+02 -4.400000e+03 -6.131800e-02
6.506040e-10 -4.400000e+03 -6.131800e-02
3.431990e-10 -4.800010e+03 -4.000520e+02
4.000000e+02 -4.800010e+03 -4.000520e+02
4.505980e-10 -4.400010e+03 -4.000660e+02
4.000000e+02 -4.400010e+03 -4.000660e+02
3.014430e-10 -4.800000e+03 -4.919170e-02
4.000000e+02 -4.800000e+03 -4.919170e-02
6.506040e-10 -4.400000e+03 -6.131800e-02
4.000000e+02 -4.400000e+03 -6.131800e-02
-4.000000e+02 -4.400010e+03 -4.000660e+02
4.505980e-10 -4.400010e+03 -4.000660e+02
-4.000000e+02 -4.000010e+03 -4.000700e+02
7.470340e-10 -4.000010e+03 -4.000700e+02
-4.000000e+02 -4.400000e+03 -6.131800e-02
6.506040e-10 -4.400000e+03 -6.131800e-02
-4.000000e+02 -4.000000e+03 -7.578580e-02
4.107300e-10 -4.000000e+03 -7.578580e-02
4.505980e-10 -4.400010e+03 -4.000660e+02
4.000000e+02 -4.400010e+03 -4.000660e+02
7.470340e-10 -4.000010e+03 -4.000700e+02
4.000000e+02 -4.000010e+03 -4.000700e+02
6.506040e-10 -4.400000e+03 -6.131800e-02
4.000000e+02 -4.400000e+03 -6.131800e-02
4.107300e-10 -4.000000e+03 -7.578580e-02
4.000000e+02 -4.000000e+03 -7.578580e-02
-4.000000e+02 -4.000010e+03 -4.000700e+02
7.470340e-10 -4.000010e+03 -4.000700e+02
-4.000000e+02 -3.600020e+03 -4.000950e+02
7.810430e-10 -3.600020e+03 -4.000950e+02
-4.000000e+02 -4.000000e+03 -7.578580e-02
4.107300e-10 -4.000000e+03 -7.578580e-02
-4.000000e+02 -3.600000e+03 -9.130200e-02
2.838140e-10 -3.600000e+03 -9.130200e-02
7.470340e-10 -4.000010e+03 -4.000700e+02
4.000000e+02 -4.000010e+03 -4.000700e+02
7.810430e-10 -3.600020e+03 -4.000950e+02
4.000000e+02 -3.600020e+03 -4.000950e+02
4.107300e-10 -4.000000e+03 -7.578580e-02
4.000000e+02 -4.000000e+03 -7.578580e-02
2.838140e-10 -3.600000e+03 -9.130200e-02
4.000000e+02 -3.600000e+03 -9.130200e-02
-4.000000e+02 -3.600020e+03 -4.000950e+02
7.810430e-10 -3.600020e+03 -4.000950e+02
-4.000000e+02 -3.200020e+03 -4.001130e+02
7.273860e-10 -3.200020e+03 -4.001130e+02
-4.000000e+02 -3.600000e+03 -9.130200e-02
2.838140e-10 -3.600000e+03 -9.130200e-02
-4.000000e+02 -3.200000e+03 -1.149220e-01
5.177270e-10 -3.200000e+03 -1.149220e-01
7.810430e-10 -3.600020e+03 -4.000950e+02
4.000000e+02 -3.600020e+03 -4.000950e+02
7.273860e-10 -3.200020e+03 -4.001130e+02
4.000000e+02 -3.200020e+03 -4.001130e+02
2.838140e-10 -3.600000e+03 -9.130200e-02
4.000000e+02 -3.600000e+03 -9.130200e-02
5.177270e-10 -3.200000e+03 -1.149220e-01
4.000000e+02 -3.200000e+03 -1.149220e-01
-4.000000e+02 -3.200020e+03 -4.001130e+02
7.273860e-10 -3.200020e+03 -4.001130e+02
-4.000000e+02 -2.800020e+03 -4.001330e+02
6.912530e-10 -2.800020e+03 -4.001330e+02
-4.000000e+02 -3.200000e+03 -1.149220e-01
5.177270e-10 -3.200000e+03 -1.149220e-01
-4.000000e+02 -2.800000e+03 -1.350890e-01
6.533180e-10 -2.800000e+03 -1.350890e-01
7.273860e-10 -3.200020e+03 -4.001130e+02
4.000000e+02 -3.200020e+03 -4.001130e+02
6.912530e-10 -2.800020e+03 -4.001330e+02
4.000000e+02 -2.800020e+03 -4.001330e+02
5.177270e-10 -3.200000e+03 -1.149220e-01
4.000000e+02 -3.200000e+03 -1.149220e-01
6.533180e-10 -2.800000e+03 -1.350890e-01
4.000000e+02 -2.800000e+03 -1.350890e-01
-4.000000e+02 -2.800020e+03 -4.001330e+02
6.912530e-10 -2.800020e+03 -4.001330e+02
-4.000000e+02 -2.400020e+03 -4.001640e+02
7.576860e-10 -2.400020e+03 -4.001640e+02
-4.000000e+02 -2.800000e+03 -1.350890e-01
6.533180e-10 -2.800000e+03 -1.350890e-01
-4.000000e+02 -2.400000e+03 -1.562830e-01
3.421720e-10 -2.400000e+03 -1.562830e-01
6.912530e-10 -2.800020e+03 -4.001330e+02
4.000000e+02 -2.800020e+03 -4.001330e+02
7.576860e-10 -2.400020e+03 -4.001640e+02
4.000000e+02 -2.400020e+03 -4.001640e+02
6.533180e-10 -2.800000e+03 -1.350890e-01
4.000000e+02 -2.800000e+03 -1.350890e-01
3.421720e-10 -2.400000e+03 -1.562830e-01
4.000000e+02 -2.400000e+03 -1.562830e-01
-4.000000e+02 -2.400020e+03 -4.001640e+02
7.576860e-10 -2.400020e+03 -4.001640e+02
-4.000000e+02 -2.000020e+03 -4.001800e+02
9.589490e-10 -2.000020e+03 -4.001800e+02
-4.000000e+02 -2.400000e+03 -1.562830e-01
3.421720e-10 -2.400000e+03 -1.562830e-01
-4.000000e+02 -2.000000e+03 -1.888860e-01
5.681820e-10 -2.000000e+03 -1.888860e-01
7.576860e-10 -2.400020e+03 -4.001640e+02
4.000000e+02 -2.400020e+03 -4.001640e+02
9.589490e-10 -2.000020e+03 -4.001800e+02
4.000000e+02 -2.000020e+03 -4.001800e+02
3.421720e-10 -2.400000e+03 -1.562830e-01
4.000000e+02 -2.400000e+03 -1.562830e-01
5.681820e-10 -2.000000e+03 -1.888860e-01
4.000000e+02 -2.000000e+03 -1.888860e-01
-4.000000e+02 -2.000020e+03 -4.001800e+02
9.589490e-10 -2.000020e+03 -4.001800e+02
-4.000000e+02 -1.600030e+03 -4.002070e+02
5.227780e-10 -1.600030e+03 -4.002070e+02
-4.000000e+02 -2.000000e+03 -1.888860e-01
5.681820e-10 -2.000000e+03 -1.888860e-01
-4.000000e+02 -1.600000e+03 -2.041780e-01
4.496740e-10 -1.600000e+03 -2.041780e-01
9.589490e-10 -2.000020e+03 -4.001800e+02
4.000000e+02 -2.000020e+03 -4.001800e+02
5.227780e-10 -1.600030e+03 -4.002070e+02
4.000000e+02 -1.600030e+03 -4.002070e+02
5.681820e-10 -2.000000e+03 -1.888860e-01
4.000000e+02 -2.000000e+03 -1.888860e-01
4.496740e-10 -1.600000e+03 -2.041780e-01
4.000000e+02 -1.600000e+03 -2.041780e-01
-4.000000e+02 -1.600030e+03 -4.002070e+02
5.227780e-10 -1.600030e+03 -4.002070e+02
-4.000000e+02 -1.200020e+03 -4.002370e+02
3.218540e-10 -1.200020e+03 -4.002370e+02
-4.000000e+02 -1.600000e+03 -2.041780e-01
4.496740e-10 -1.600000e+03 -2.041780e-01
-4.000000e+02 -1.200000e+03 -2.284040e-01
3.543060e-10 -1.200000e+03 -2.284040e-01
5.227780e-10 -1.600030e+03 -4.002070e+02
4.000000e+02 -1.600030e+03 -4.002070e+02
3.218540e-10 -1.200020e+03 -4.002370e+02
4.000000e+02 -1.200020e+03 -4.002370e+02
4.496740e-10 -1.600000e+03 -2.041780e-01
4.000000e+02 -1.600000e+03 -2.041780e-01
3.543060e-10 -1.200000e+03 -2.284040e-01
4.000000e+02 -1.200000e+03 -2.284040e-01
-4.000000e+02 -1.200020e+03 -4.002370e+02
3.218540e-10 -1.200020e+03 -4.002370e+02
-4.000000e+02 -8.000240e+02 -4.002480e+02
5.291410e-10 -8.000240e+02 -4.002480e+02
-4.000000e+02 -1.200000e+03 -2.284040e-01
3.543060e-10 -1.200000e+03 -2.284040e-01
-4.000000e+02 -7.999990e+02 -2.627350e-01
3.149720e-10 -7.999990e+02 -2.627350e-01
3.218540e-10 -1.200020e+03 -4.002370e+02
4.000000e+02 -1.200020e+03 -4.002370e+02
5.291410e-10 -8.000240e+02 -4.002480e+02
4.000000e+02 -8.000240e+02 -4.002480e+02
3.543060e-10 -1.200000e+03 -2.284040e-01
4.000000e+02 -1.200000e+03 -2.284040e-01
3.149720e-10 -7.999990e+02 -2.627350e-01
4.000000e+02 -7.999990e+02 -2.627350e-01
-4.000000e+02 -8.000240e+02 -4.002480e+02
5.291410e-10 -8.000240e+02 -4.002480e+02
-4.000000e+02 -4.000250e+02 -4.002830e+02
7.382740e-10 -4.000250e+02 -4.002830e+02
-4.000000e+02 -7.999990e+02 -2.627350e-01
3.149720e-10 -7.999990e+02 -2.627350e-01
-4.000000e+02 -4.000000e+02 -2.766260e-01
-1.323040e-11 -4.000000e+02 -2.766260e-01
5.291410e-10 -8.000240e+02 -4.002480e+02
4.000000e+02 -8.000240e+02 -4.002480e+02
7.382740e-10 -4.000250e+02 -4.002830e+02
4.000000e+02 -4.000250e+02 -4.002830e+02
3.149720e-10 -7.999990e+02 -2.627350e-01
4.000000e+02 -7.999990e+02 -2.627350e-01
-1.323040e-11 -4.000000e+02 -2.766260e-01
4.000000e+02 -4.000000e+02 -2.766260e-01
-4.000000e+02 -4.000250e+02 -4.002830e+02
7.382740e-10 -4.000250e+02 -4.002830e+02
-4.000000e+02 -2.346390e-02 -4.003120e+02
1.994920e-10 -2.346390e-02 -4.003120e+02
-4.000000e+02 -4.000000e+02 -2.766260e-01
-1.323040e-11 -4.000000e+02 -2.766260e-01
-4.000000e+02 -1.827890e-03 -3.030970e-01
1.647170e-10 -1.827890e-03 -3.030970e-01
7.382740e-10 -4.000250e+02 -4.002830e+02
4.000000e+02 -4.000250e+02 -4.002830e+02
1.994920e-10 -2.346390e-02 -4.003120e+02
[...]
<PointData>
<DataArray type="Float32" Name="V1" format="ascii">
0.000000e+00
0.000000e+00
6.952230e-10
1.801820e-11
0.000000e+00
0.000000e+00
1.747880e-10
-2.021220e-10
0.000000e+00
0.000000e+00
1.801820e-11
-4.899950e-10
0.000000e+00
0.000000e+00
-2.021220e-10
-3.790340e-10
6.952230e-10
1.801820e-11
-1.276540e-11
-2.199620e-10
1.747880e-10
-2.021220e-10
7.462850e-11
2.205360e-10
1.801820e-11
-4.899950e-10
-2.199620e-10
-3.711780e-10
-2.021220e-10
-3.790340e-10
2.205360e-10
2.062100e-10
-1.276540e-11
-2.199620e-10
2.071920e-10
-1.809760e-12
7.462850e-11
2.205360e-10
-5.263270e-10
-2.050610e-10
-2.199620e-10
-3.711780e-10
-1.809760e-12
-2.945860e-11
2.205360e-10
2.062100e-10
-2.050610e-10
2.238850e-10
2.071920e-10
-1.809760e-12
1.767520e-10
6.472020e-11
-5.263270e-10
-2.050610e-10
2.366510e-10
1.512490e-10
-1.809760e-12
-2.945860e-11
6.472020e-11
-1.414010e-10
-2.050610e-10
2.238850e-10
1.512490e-10
-7.364650e-11
1.767520e-10
6.472020e-11
5.891720e-12
2.475310e-10
2.366510e-10
1.512490e-10
-1.247080e-10
-7.346310e-11
6.472020e-11
-1.414010e-10
2.475310e-10
5.626590e-10
1.512490e-10
-7.364650e-11
-7.346310e-11
8.935780e-11
5.891720e-12
2.475310e-10
-6.088110e-11
-3.165950e-10
-1.247080e-10
-7.346310e-11
-2.543260e-10
-1.076900e-10
2.475310e-10
5.626590e-10
-3.165950e-10
-4.919590e-10
-7.346310e-11
8.935780e-11
-1.076900e-10
-5.204350e-11
-6.088110e-11
-3.165950e-10
1.433650e-10
4.218830e-11
-2.543260e-10
-1.076900e-10
3.240450e-10
2.185830e-10
-3.165950e-10
-4.919590e-10
4.218830e-11
1.276540e-10
-1.076900e-10
-5.204350e-11
2.185830e-10
2.670910e-10
1.433650e-10
4.218830e-11
-1.895170e-10
-5.070570e-11
3.240450e-10
2.185830e-10
-3.957270e-10
-2.063270e-10
4.218830e-11
1.276540e-10
-5.070570e-11
3.171710e-10
2.185830e-10
2.670910e-10
-2.063270e-10
-3.731420e-11
-1.895170e-10
-5.070570e-11
3.927810e-12
5.199940e-11
-3.957270e-10
-2.063270e-10
1.757700e-10
1.807510e-10
-5.070570e-11
3.171710e-10
5.199940e-11
-3.731420e-11
-2.063270e-10
-3.731420e-11
1.807510e-10
9.819530e-13
3.927810e-12
5.199940e-11
2.238850e-10
2.775100e-10
1.757700e-10
1.807510e-10
-1.217620e-10
-2.096780e-10
5.199940e-11
-3.731420e-11
2.775100e-10
2.337050e-10
1.807510e-10
9.819530e-13
-2.096780e-10
-5.007960e-11
2.238850e-10
2.775100e-10
-1.934450e-10
-1.485890e-10
-1.217620e-10
-2.096780e-10
5.400740e-11
-3.255330e-11
2.775100e-10
2.337050e-10
-1.485890e-10
-6.284500e-11
-2.096780e-10
-5.007960e-11
-3.255330e-11
-1.669320e-10
-1.934450e-10
-1.485890e-10
6.186310e-11
1.065400e-10
5.400740e-11
-3.255330e-11
1.993370e-10
-5.088060e-12
-1.485890e-10
-6.284500e-11
1.065400e-10
1.777340e-10
-3.255330e-11
-1.669320e-10
-5.088060e-12
-1.885350e-10
6.186310e-11
1.065400e-10
-3.417200e-10
5.641740e-11
1.993370e-10
-5.088060e-12
-3.898360e-10
5.989260e-11
1.065400e-10
1.777340e-10
5.641740e-11
4.615180e-10
-5.088060e-12
-1.885350e-10
5.989260e-11
5.273090e-10
-3.417200e-10
5.641740e-11
2.523620e-10
-6.409770e-11
-3.898360e-10
5.989260e-11
5.980100e-10
8.024210e-11
5.641740e-11
4.615180e-10
-6.409770e-11
-3.839440e-10
5.989260e-11
5.273090e-10
8.024210e-11
-3.495750e-10
2.523620e-10
-6.409770e-11
-1.865710e-10
9.237670e-11
5.980100e-10
8.024210e-11
-4.860670e-10
-1.601480e-10
-6.409770e-11
-3.839440e-10
9.237670e-11
4.634820e-10
8.024210e-11
-3.495750e-10
-1.601480e-10
1.983550e-10
-1.865710e-10
9.237670e-11
-3.093150e-10
-2.644720e-10
-4.860670e-10
-1.601480e-10
6.392520e-10
2.899730e-10
9.237670e-11
4.634820e-10
-2.644720e-10
-2.818210e-10
-1.601480e-10
1.983550e-10
2.899730e-10
-1.276540e-11
-3.093150e-10
-2.644720e-10
-1.345280e-10
-5.773540e-12
6.392520e-10
2.899730e-10
3.044060e-11
-4.616260e-11
-2.644720e-10
-2.818210e-10
-5.773540e-12
1.374730e-10
2.899730e-10
-1.276540e-11
-4.616260e-11
-2.258490e-10
-1.345280e-10
-5.773540e-12
3.152070e-10
2.486680e-10
3.044060e-11
-4.616260e-11
-3.044060e-11
-3.806840e-11
-5.773540e-12
1.374730e-10
2.486680e-10
3.476120e-10
-4.616260e-11
-2.258490e-10
-3.806840e-11
-1.472930e-11
3.152070e-10
2.486680e-10
-5.960460e-10
-1.122030e-10
-3.044060e-11
-3.806840e-11
2.366510e-10
8.292310e-11
2.486680e-10
3.476120e-10
-1.122030e-10
2.651270e-10
-3.806840e-11
-1.472930e-11
8.292310e-11
9.132170e-11
-5.960460e-10
-1.122030e-10
4.134020e-10
-6.546110e-11
2.366510e-10
8.292310e-11
-4.075110e-10
-7.409390e-11
-1.122030e-10
2.651270e-10
-6.546110e-11
-3.967090e-10
8.292310e-11
9.132170e-11
-7.409390e-11
1.796970e-10
4.134020e-10
-6.546110e-11
-5.931000e-10
-2.613550e-10
-4.075110e-10
-7.409390e-11
1.639860e-10
1.887400e-11
-6.546110e-11
-3.967090e-10
-2.613550e-10
2.121020e-10
-7.409390e-11
1.796970e-10
1.887400e-11
-4.222400e-11
-5.931000e-10
-2.613550e-10
4.026010e-11
9.492640e-11
1.639860e-10
1.887400e-11
1.472930e-11
-4.332120e-11
-2.613550e-10
2.121020e-10
9.492640e-11
5.106160e-11
1.887400e-11
-4.222400e-11
-4.332120e-11
-1.944270e-10
4.026010e-11
9.492640e-11
5.273090e-10
3.244620e-10
1.472930e-11
-4.332120e-11
-1.865710e-10
-2.185530e-10
9.492640e-11
5.106160e-11
3.244620e-10
1.080150e-11
-4.332120e-11
-1.944270e-10
-2.185530e-10
-9.623140e-11
5.273090e-10
3.244620e-10
-2.042460e-10
-5.188100e-11
-1.865710e-10
-2.185530e-10
-1.963910e-12
1.005700e-10
3.244620e-10
1.080150e-11
-5.188100e-11
2.543260e-10
-2.185530e-10
-9.623140e-11
1.005700e-10
2.405790e-10
-2.042460e-10
-5.188100e-11
2.327230e-10
-6.267590e-11
-1.963910e-12
1.005700e-10
-3.574310e-10
-1.987830e-10
-5.188100e-11
2.543260e-10
-6.267590e-11
2.258490e-11
1.005700e-10
2.405790e-10
-1.987830e-10
-5.302550e-11
2.327230e-10
-6.267590e-11
9.819530e-12
-2.214250e-11
-3.574310e-10
-1.987830e-10
3.446660e-10
2.582490e-10
-6.267590e-11
2.258490e-11
-2.214250e-11
-1.728240e-10
-1.987830e-10
-5.302550e-11
2.582490e-10
1.276540e-10
9.819530e-12
-2.214250e-11
-3.456480e-10
-2.571020e-10
3.446660e-10
2.582490e-10
1.482750e-10
3.486500e-10
-2.214250e-11
-1.728240e-10
-2.571020e-10
2.042460e-10
2.582490e-10
1.276540e-10
3.486500e-10
5.705150e-10
-3.456480e-10
-2.571020e-10
-1.688960e-10
-5.052120e-11
1.482750e-10
3.486500e-10
-3.073510e-10
-1.480530e-10
-2.571020e-10
2.042460e-10
-5.052120e-11
1.826430e-10
3.486500e-10
5.705150e-10
-1.480530e-10
5.007960e-11
-1.688960e-10
-5.052120e-11
3.908170e-10
-6.958590e-11
-3.073510e-10
-1.480530e-10
1.394370e-10
-4.665000e-11
-5.052120e-11
1.826430e-10
-6.958590e-11
-3.436840e-10
-1.480530e-10
5.007960e-11
-4.665000e-11
-1.728240e-10
3.908170e-10
-6.958590e-11
5.803340e-10
1.155710e-10
1.394370e-10
-4.665000e-11
4.408970e-10
4.368080e-11
-6.958590e-11
-3.436840e-10
1.155710e-10
-3.741240e-10
-4.665000e-11
-1.728240e-10
4.368080e-11
-3.652870e-10
0.000000e+00
0.000000e+00
1.747880e-10
-2.021220e-10
0.000000e+00
0.000000e+00
-3.495750e-10
-1.785830e-10
0.000000e+00
0.000000e+00
-2.021220e-10
-3.790340e-10
0.000000e+00
0.000000e+00
-1.785830e-10
1.472930e-10
1.747880e-10
-2.021220e-10
7.462850e-11
2.205360e-10
-3.495750e-10
-1.785830e-10
5.822980e-10
3.392710e-10
-2.021220e-10
-3.790340e-10
2.205360e-10
2.062100e-10
-1.785830e-10
1.472930e-10
3.392710e-10
-5.989920e-11
7.462850e-11
2.205360e-10
-5.263270e-10
-2.050610e-10
5.822980e-10
3.392710e-10
-5.341830e-10
-1.369150e-10
2.205360e-10
2.062100e-10
-2.050610e-10
2.238850e-10
3.392710e-10
-5.989920e-11
-1.369150e-10
1.541670e-10
-5.263270e-10
-2.050610e-10
2.366510e-10
1.512490e-10
-5.341830e-10
-1.369150e-10
-2.582540e-10
-1.718720e-10
-2.050610e-10
2.238850e-10
1.512490e-10
-7.364650e-11
-1.369150e-10
1.541670e-10
-1.718720e-10
-3.053880e-10
2.366510e-10
1.512490e-10
-1.247080e-10
-7.346310e-11
-2.582540e-10
-1.718720e-10
2.435240e-10
4.411040e-11
1.512490e-10
-7.364650e-11
-7.346310e-11
8.935780e-11
-1.718720e-10
-3.053880e-10
4.411040e-11
-9.721340e-11
-1.247080e-10
-7.346310e-11
-2.543260e-10
-1.076900e-10
2.435240e-10
4.411040e-11
-1.404190e-10
-1.996310e-10
-7.346310e-11
8.935780e-11
-1.076900e-10
-5.204350e-11
4.411040e-11
-9.721340e-11
-1.996310e-10
-1.227440e-10
-2.543260e-10
-1.076900e-10
3.240450e-10
2.185830e-10
-1.404190e-10
-1.996310e-10
2.857480e-10
4.253360e-11
-1.076900e-10
-5.204350e-11
2.185830e-10
2.670910e-10
-1.996310e-10
-1.227440e-10
4.253360e-11
-9.917730e-11
3.240450e-10
2.185830e-10
-3.957270e-10
-2.063270e-10
2.857480e-10
4.253360e-11
-2.553080e-11
9.262810e-11
2.185830e-10
2.670910e-10
-2.063270e-10
-3.731420e-11
4.253360e-11
-9.917730e-11
9.262810e-11
4.173300e-10
-3.957270e-10
-2.063270e-10
1.757700e-10
1.807510e-10
-2.553080e-11
9.262810e-11
-2.052280e-10
-8.663890e-11
-2.063270e-10
-3.731420e-11
1.807510e-10
9.819530e-13
9.262810e-11
4.173300e-10
-8.663890e-11
-1.954090e-10
1.757700e-10
1.807510e-10
-1.217620e-10
-2.096780e-10
-2.052280e-10
-8.663890e-11
9.917730e-11
2.031400e-10
1.807510e-10
9.819530e-13
-2.096780e-10
-5.007960e-11
-8.663890e-11
-1.954090e-10
2.031400e-10
3.544850e-10
-1.217620e-10
-2.096780e-10
5.400740e-11
-3.255330e-11
9.917730e-11
2.031400e-10
5.597130e-11
2.606200e-10
-2.096780e-10
-5.007960e-11
-3.255330e-11
-1.669320e-10
2.031400e-10
3.544850e-10
2.606200e-10
8.248410e-11
5.400740e-11
-3.255330e-11
1.993370e-10
-5.088060e-12
5.597130e-11
2.606200e-10
-2.219210e-10
-2.558930e-10
-3.255330e-11
-1.669320e-10
-5.088060e-12
-1.885350e-10
2.606200e-10
8.248410e-11
-2.558930e-10
-2.523620e-10
1.993370e-10
-5.088060e-12
-3.898360e-10
5.989260e-11
-2.219210e-10
-2.558930e-10
1.875530e-10
1.412790e-10
-5.088060e-12
-1.885350e-10
5.989260e-11
5.273090e-10
-2.558930e-10
-2.523620e-10
1.412790e-10
2.160300e-10
-3.898360e-10
5.989260e-11
5.980100e-10
8.024210e-11
1.875530e-10
1.412790e-10
-1.158710e-10
1.302950e-11
5.989260e-11
5.273090e-10
8.024210e-11
-3.495750e-10
1.412790e-10
2.160300e-10
1.302950e-11
1.472930e-10
5.980100e-10
8.024210e-11
-4.860670e-10
-1.601480e-10
-1.158710e-10
1.302950e-11
5.695330e-11
2.040390e-11
8.024210e-11
-3.495750e-10
-1.601480e-10
1.983550e-10
1.302950e-11
1.472930e-10
2.040390e-11
9.524950e-11
-4.860670e-10
-1.601480e-10
6.392520e-10
2.899730e-10
5.695330e-11
2.040390e-11
-1.963910e-10
-3.178640e-10
-1.601480e-10
1.983550e-10
2.899730e-10
-1.276540e-11
2.040390e-11
9.524950e-11
-3.178640e-10
-3.417200e-10
6.392520e-10
2.899730e-10
3.044060e-11
-4.616260e-11
-1.963910e-10
-3.178640e-10
-1.993370e-10
-1.829920e-10
2.899730e-10
-1.276540e-11
-4.616260e-11
-2.258490e-10
-3.178640e-10
-3.417200e-10
-1.829920e-10
-3.407380e-10
3.044060e-11
-4.616260e-11
-3.044060e-11
-3.806840e-11
-1.993370e-10
-1.829920e-10
2.828030e-10
4.745880e-10
-4.616260e-11
-2.258490e-10
-3.806840e-11
-1.472930e-11
-1.829920e-10
-3.407380e-10
4.745880e-10
6.549630e-10
-3.044060e-11
-3.806840e-11
2.366510e-10
8.292310e-11
2.828030e-10
4.745880e-10
1.679140e-10
8.604500e-11
-3.806840e-11
-1.472930e-11
8.292310e-11
9.132170e-11
4.745880e-10
6.549630e-10
8.604500e-11
-1.404190e-10
2.366510e-10
8.292310e-11
-4.075110e-10
-7.409390e-11
1.679140e-10
8.604500e-11
4.379510e-10
1.150190e-10
8.292310e-11
9.132170e-11
-7.409390e-11
1.796970e-10
8.604500e-11
-1.404190e-10
1.150190e-10
-5.204350e-11
-4.075110e-10
-7.409390e-11
1.639860e-10
1.887400e-11
4.379510e-10
1.150190e-10
-2.729830e-10
-1.200720e-10
-7.409390e-11
1.796970e-10
1.887400e-11
-4.222400e-11
1.150190e-10
-5.204350e-11
-1.200720e-10
1.394370e-10
1.639860e-10
1.887400e-11
1.472930e-11
-4.332120e-11
-2.729830e-10
-1.200720e-10
-2.877120e-10
-3.042170e-11
1.887400e-11
-4.222400e-11
-4.332120e-11
-1.944270e-10
-1.200720e-10
1.394370e-10
-3.042170e-11
8.248410e-11
1.472930e-11
-4.332120e-11
-1.865710e-10
-2.185530e-10
-2.877120e-10
-3.042170e-11
2.612000e-10
8.424100e-11
-4.332120e-11
-1.944270e-10
-2.185530e-10
-9.623140e-11
-3.042170e-11
8.248410e-11
8.424100e-11
-2.395970e-10
-1.865710e-10
-2.185530e-10
-1.963910e-12
1.005700e-10
2.612000e-10
8.424100e-11
2.641450e-10
2.146450e-10
-2.185530e-10
-9.623140e-11
1.005700e-10
2.405790e-10
8.424100e-11
-2.395970e-10
2.146450e-10
2.268310e-10
-1.963910e-12
1.005700e-10
-3.574310e-10
-1.987830e-10
2.641450e-10
2.146450e-10
-2.081740e-10
1.179980e-10
1.005700e-10
2.405790e-10
-1.987830e-10
-5.302550e-11
2.146450e-10
2.268310e-10
1.179980e-10
4.291140e-10
-3.574310e-10
-1.987830e-10
3.446660e-10
2.582490e-10
-2.081740e-10
1.179980e-10
6.775480e-10
2.956730e-10
-1.987830e-10
-5.302550e-11
2.582490e-10
1.276540e-10
1.179980e-10
4.291140e-10
2.956730e-10
-3.633230e-11
3.446660e-10
2.582490e-10
1.482750e-10
3.486500e-10
6.775480e-10
2.956730e-10
-4.281320e-10
-3.413200e-12
2.582490e-10
1.276540e-10
3.486500e-10
5.705150e-10
2.956730e-10
-3.633230e-11
-3.413200e-12
4.870490e-10
1.482750e-10
3.486500e-10
-3.073510e-10
-1.480530e-10
-4.281320e-10
-3.413200e-12
-1.551490e-10
-1.745750e-10
3.486500e-10
5.705150e-10
-1.480530e-10
5.007960e-11
-3.413200e-12
4.870490e-10
-1.745750e-10
-1.129250e-10
-3.073510e-10
-1.480530e-10
1.394370e-10
-4.665000e-11
-1.551490e-10
-1.745750e-10
-2.258490e-10
-1.188530e-10
-1.480530e-10
5.007960e-11
-4.665000e-11
-1.728240e-10
-1.745750e-10
-1.129250e-10
-1.188530e-10
1.276540e-11
1.394370e-10
-4.665000e-11
4.408970e-10
4.368080e-11
-2.258490e-10
-1.188530e-10
1.237260e-10
-3.699480e-10
-4.665000e-11
-1.728240e-10
4.368080e-11
-3.652870e-10
-1.188530e-10
1.276540e-11
-3.699480e-10
-5.931000e-10
</DataArray>
<DataArray type="Float32" Name="V2" format="ascii">
0.000000e+00
0.000000e+00
-1.792110e-04
-1.792120e-04
0.000000e+00
0.000000e+00
3.739060e-04
3.739060e-04
0.000000e+00
0.000000e+00
-1.792120e-04
-1.792120e-04
0.000000e+00
0.000000e+00
3.739060e-04
3.739060e-04
-1.792110e-04
-1.792120e-04
8.122970e-03
8.122970e-03
3.739060e-04
3.739060e-04
-7.066310e-03
-7.066310e-03
-1.792120e-04
-1.792120e-04
8.122970e-03
8.122970e-03
3.739060e-04
3.739060e-04
-7.066310e-03
-7.066310e-03
8.122970e-03
8.122970e-03
-9.499750e-04
-9.499780e-04
-7.066310e-03
-7.066310e-03
1.237550e-03
1.237540e-03
8.122970e-03
8.122970e-03
-9.499780e-04
-9.499800e-04
-7.066310e-03
-7.066310e-03
1.237540e-03
1.237550e-03
-9.499750e-04
-9.499780e-04
-4.154620e-03
-4.154620e-03
1.237550e-03
1.237540e-03
1.539960e-03
1.539960e-03
-9.499780e-04
-9.499800e-04
-4.154620e-03
-4.154610e-03
1.237540e-03
1.237550e-03
1.539960e-03
1.539960e-03
-4.154620e-03
-4.154620e-03
-6.320590e-04
-6.320610e-04
1.539960e-03
1.539960e-03
1.055610e-03
1.055610e-03
-4.154620e-03
-4.154610e-03
-6.320610e-04
-6.320590e-04
1.539960e-03
1.539960e-03
1.055610e-03
1.055610e-03
-6.320590e-04
-6.320610e-04
-6.605400e-04
-6.605390e-04
1.055610e-03
1.055610e-03
2.507480e-03
2.507480e-03
-6.320610e-04
-6.320590e-04
-6.605390e-04
-6.605400e-04
1.055610e-03
1.055610e-03
2.507480e-03
2.507480e-03
-6.605400e-04
-6.605390e-04
8.381840e-04
8.381860e-04
2.507480e-03
2.507480e-03
-1.028220e-05
-1.028300e-05
-6.605390e-04
-6.605400e-04
8.381860e-04
8.381850e-04
2.507480e-03
2.507480e-03
-1.028300e-05
-1.028090e-05
8.381840e-04
8.381860e-04
-1.055030e-03
-1.055030e-03
-1.028220e-05
-1.028300e-05
3.276480e-04
3.276490e-04
8.381860e-04
8.381850e-04
-1.055030e-03
-1.055030e-03
-1.028300e-05
-1.028090e-05
3.276490e-04
3.276500e-04
-1.055030e-03
-1.055030e-03
-4.810890e-04
-4.810890e-04
3.276480e-04
3.276490e-04
-7.293670e-05
-7.293730e-05
-1.055030e-03
-1.055030e-03
-4.810890e-04
-4.810890e-04
3.276490e-04
3.276500e-04
-7.293730e-05
-7.293660e-05
-4.810890e-04
-4.810890e-04
3.108860e-03
3.108860e-03
-7.293670e-05
-7.293730e-05
-5.867340e-04
-5.867340e-04
-4.810890e-04
-4.810890e-04
3.108860e-03
3.108860e-03
-7.293730e-05
-7.293660e-05
-5.867340e-04
-5.867350e-04
3.108860e-03
3.108860e-03
3.185400e-03
3.185400e-03
-5.867340e-04
-5.867340e-04
-3.051990e-03
-3.051990e-03
3.108860e-03
3.108860e-03
3.185400e-03
3.185400e-03
-5.867340e-04
-5.867350e-04
-3.051990e-03
-3.051990e-03
3.185400e-03
3.185400e-03
-5.341310e-03
-5.341310e-03
-3.051990e-03
-3.051990e-03
2.714700e-03
2.714700e-03
3.185400e-03
3.185400e-03
-5.341310e-03
-5.341310e-03
-3.051990e-03
-3.051990e-03
2.714700e-03
2.714700e-03
-5.341310e-03
-5.341310e-03
-3.343580e-03
-3.343580e-03
2.714700e-03
2.714700e-03
2.861200e-03
2.861200e-03
-5.341310e-03
-5.341310e-03
-3.343580e-03
-3.343580e-03
2.714700e-03
2.714700e-03
2.861200e-03
2.861200e-03
-3.343580e-03
-3.343580e-03
3.158200e-03
3.158200e-03
2.861200e-03
2.861200e-03
-3.025900e-03
-3.025900e-03
-3.343580e-03
-3.343580e-03
3.158200e-03
3.158200e-03
2.861200e-03
2.861200e-03
-3.025900e-03
-3.025900e-03
3.158200e-03
3.158200e-03
-1.905650e-03
-1.905650e-03
-3.025900e-03
-3.025900e-03
2.546290e-03
2.546290e-03
3.158200e-03
3.158200e-03
-1.905650e-03
-1.905650e-03
-3.025900e-03
-3.025900e-03
2.546290e-03
2.546290e-03
-1.905650e-03
-1.905650e-03
-1.958560e-03
-1.958560e-03
2.546290e-03
2.546290e-03
9.749900e-04
9.749900e-04
-1.905650e-03
-1.905650e-03
-1.958560e-03
-1.958560e-03
2.546290e-03
2.546290e-03
9.749900e-04
9.749900e-04
-1.958560e-03
-1.958560e-03
3.991030e-03
3.991030e-03
9.749900e-04
9.749900e-04
-3.398810e-03
-3.398810e-03
-1.958560e-03
-1.958560e-03
3.991030e-03
3.991030e-03
9.749900e-04
9.749900e-04
-3.398810e-03
-3.398810e-03
3.991030e-03
3.991030e-03
-2.018300e-03
-2.018300e-03
-3.398810e-03
-3.398810e-03
2.438850e-03
2.438850e-03
3.991030e-03
3.991030e-03
-2.018300e-03
-2.018300e-03
-3.398810e-03
-3.398810e-03
2.438850e-03
2.438850e-03
-2.018300e-03
-2.018300e-03
-5.748550e-04
-5.748560e-04
2.438850e-03
2.438850e-03
5.051690e-04
5.051690e-04
-2.018300e-03
-2.018300e-03
-5.748560e-04
-5.748550e-04
2.438850e-03
2.438850e-03
5.051690e-04
5.051690e-04
-5.748550e-04
-5.748560e-04
2.293520e-03
2.293520e-03
5.051690e-04
5.051690e-04
-7.656550e-04
-7.656540e-04
-5.748560e-04
-5.748550e-04
2.293520e-03
2.293520e-03
5.051690e-04
5.051690e-04
-7.656540e-04
-7.656550e-04
2.293520e-03
2.293520e-03
3.149900e-03
3.149900e-03
-7.656550e-04
-7.656540e-04
-3.723750e-03
-3.723750e-03
2.293520e-03
2.293520e-03
3.149900e-03
3.149900e-03
-7.656540e-04
-7.656550e-04
-3.723750e-03
-3.723750e-03
3.149900e-03
3.149900e-03
1.293750e-05
1.293840e-05
-3.723750e-03
-3.723750e-03
-9.699670e-04
-9.699660e-04
3.149900e-03
3.149900e-03
1.293840e-05
1.293850e-05
-3.723750e-03
-3.723750e-03
-9.699660e-04
-9.699670e-04
1.293750e-05
1.293840e-05
-2.246320e-03
-2.246320e-03
-9.699670e-04
-9.699660e-04
1.081810e-03
1.081810e-03
1.293840e-05
1.293850e-05
-2.246320e-03
-2.246320e-03
-9.699660e-04
-9.699670e-04
1.081810e-03
1.081810e-03
-2.246320e-03
-2.246320e-03
1.016110e-02
1.016110e-02
1.081810e-03
1.081810e-03
-7.543960e-03
-7.543960e-03
-2.246320e-03
-2.246320e-03
1.016110e-02
1.016110e-02
1.081810e-03
1.081810e-03
-7.543960e-03
-7.543960e-03
1.016110e-02
1.016110e-02
-6.784760e-03
-6.784760e-03
-7.543960e-03
-7.543960e-03
6.184510e-03
6.184510e-03
1.016110e-02
1.016110e-02
-6.784760e-03
-6.784760e-03
-7.543960e-03
-7.543960e-03
6.184510e-03
6.184510e-03
-6.784760e-03
-6.784760e-03
-4.676840e-03
-4.676840e-03
6.184510e-03
6.184510e-03
1.667410e-03
1.667410e-03
-6.784760e-03
-6.784760e-03
-4.676840e-03
-4.676840e-03
6.184510e-03
6.184510e-03
1.667410e-03
1.667410e-03
-4.676840e-03
-4.676840e-03
7.830420e-03
7.830420e-03
1.667410e-03
1.667410e-03
-7.047020e-03
-7.047020e-03
-4.676840e-03
-4.676840e-03
7.830420e-03
7.830420e-03
1.667410e-03
1.667410e-03
-7.047020e-03
-7.047020e-03
7.830420e-03
7.830420e-03
4.905810e-05
4.905820e-05
-7.047020e-03
-7.047020e-03
2.583640e-03
2.583640e-03
7.830420e-03
7.830420e-03
4.905820e-05
4.905740e-05
-7.047020e-03
-7.047020e-03
2.583640e-03
2.583640e-03
4.905810e-05
4.905820e-05
5.061970e-03
5.061970e-03
2.583640e-03
2.583640e-03
-4.225370e-03
-4.225370e-03
4.905820e-05
4.905740e-05
5.061970e-03
5.061970e-03
2.583640e-03
2.583640e-03
-4.225370e-03
-4.225370e-03
5.061970e-03
5.061970e-03
6.721220e-03
6.721220e-03
-4.225370e-03
-4.225370e-03
-9.949090e-03
-9.949090e-03
5.061970e-03
5.061970e-03
6.721220e-03
6.721220e-03
-4.225370e-03
-4.225370e-03
-9.949090e-03
-9.949090e-03
0.000000e+00
0.000000e+00
3.739060e-04
3.739060e-04
0.000000e+00
0.000000e+00
-5.715380e-04
-5.715380e-04
0.000000e+00
0.000000e+00
3.739060e-04
3.739060e-04
0.000000e+00
0.000000e+00
-5.715380e-04
-5.715390e-04
3.739060e-04
3.739060e-04
-7.066310e-03
-7.066310e-03
-5.715380e-04
-5.715380e-04
6.011100e-03
6.011100e-03
3.739060e-04
3.739060e-04
-7.066310e-03
-7.066310e-03
-5.715380e-04
-5.715390e-04
6.011100e-03