<?xml version="1.0"?>
<VTKFile type="UnstructuredGrid" version="0.1" byte_order="LittleEndian" compressor="vtkZLibDataCompressor">
<UnstructuredGrid>
<Piece NumberOfPoints="960" NumberOfCells="120">
<Points>
<DataArray type="Float32" NumberOfComponents="3" format="ascii">
-4.000000e+02 -6.000000e+03 -4.000000e+02
0.000000e+00 -6.000000e+03 -4.000000e+02
-3.999460e+02 -5.600200e+03 -4.003040e+02
2.243800e-02 -5.600160e+03 -3.999840e+02
-4.000000e+02 -6.000000e+03 0.000000e+00
0.000000e+00 -6.000000e+03 0.000000e+00
-3.998930e+02 -5.600030e+03 -6.240370e-01
1.154250e-01 -5.600080e+03 -5.915150e-01
0.000000e+00 -6.000000e+03 -4.000000e+02
4.000000e+02 -6.000000e+03 -4.000000e+02
2.243800e-02 -5.600160e+03 -3.999840e+02
3.999980e+02 -5.600160e+03 -3.995940e+02
0.000000e+00 -6.000000e+03 0.000000e+00
4.000000e+02 -6.000000e+03 0.000000e+00
1.154250e-01 -5.600080e+03 -5.915150e-01
4.001220e+02 -5.600080e+03 -6.533680e-01
-3.999460e+02 -5.600200e+03 -4.003040e+02
2.243800e-02 -5.600160e+03 -3.999840e+02
-4.003360e+02 -5.200390e+03 -4.001490e+02
-3.345880e-01 -5.200520e+03 -4.010940e+02
-3.998930e+02 -5.600030e+03 -6.240370e-01
1.154250e-01 -5.600080e+03 -5.915150e-01
-3.999620e+02 -5.199920e+03 2.386330e-02
4.978460e-02 -5.200070e+03 -2.205520e-01
2.243800e-02 -5.600160e+03 -3.999840e+02
3.999980e+02 -5.600160e+03 -3.995940e+02
-3.345880e-01 -5.200520e+03 -4.010940e+02
3.996550e+02 -5.200800e+03 -4.020720e+02
1.154250e-01 -5.600080e+03 -5.915150e-01
4.001220e+02 -5.600080e+03 -6.533680e-01
4.978460e-02 -5.200070e+03 -2.205520e-01
4.000620e+02 -5.200120e+03 -4.071330e-01
-4.003360e+02 -5.200390e+03 -4.001490e+02
-3.345880e-01 -5.200520e+03 -4.010940e+02
-3.999450e+02 -4.800760e+03 -4.017560e+02
5.699550e-02 -4.800950e+03 -4.013490e+02
-3.999620e+02 -5.199920e+03 2.386330e-02
4.978460e-02 -5.200070e+03 -2.205520e-01
-4.001150e+02 -4.799870e+03 -1.443270e+00
-1.295510e-01 -4.799920e+03 -1.820370e+00
-3.345880e-01 -5.200520e+03 -4.010940e+02
3.996550e+02 -5.200800e+03 -4.020720e+02
5.699550e-02 -4.800950e+03 -4.013490e+02
4.000590e+02 -4.800960e+03 -4.010680e+02
4.978460e-02 -5.200070e+03 -2.205520e-01
4.000620e+02 -5.200120e+03 -4.071330e-01
-1.295510e-01 -4.799920e+03 -1.820370e+00
3.998540e+02 -4.800060e+03 -2.082290e+00
-3.999450e+02 -4.800760e+03 -4.017560e+02
5.699550e-02 -4.800950e+03 -4.013490e+02
-4.000300e+02 -4.400650e+03 -4.023440e+02
-6.673790e-02 -4.400940e+03 -4.026540e+02
-4.001150e+02 -4.799870e+03 -1.443270e+00
-1.295510e-01 -4.799920e+03 -1.820370e+00
-4.000260e+02 -4.400030e+03 -2.107690e+00
-5.280980e-03 -4.400030e+03 -1.915650e+00
5.699550e-02 -4.800950e+03 -4.013490e+02
4.000590e+02 -4.800960e+03 -4.010680e+02
-6.673790e-02 -4.400940e+03 -4.026540e+02
3.999020e+02 -4.401230e+03 -4.029430e+02
-1.295510e-01 -4.799920e+03 -1.820370e+00
3.998540e+02 -4.800060e+03 -2.082290e+00
-5.280980e-03 -4.400030e+03 -1.915650e+00
4.000140e+02 -4.400010e+03 -1.834250e+00
-4.000300e+02 -4.400650e+03 -4.023440e+02
-6.673790e-02 -4.400940e+03 -4.026540e+02
-3.999570e+02 -4.000840e+03 -4.033380e+02
7.949860e-03 -4.000980e+03 -4.032730e+02
-4.000260e+02 -4.400030e+03 -2.107690e+00
-5.280980e-03 -4.400030e+03 -1.915650e+00
-3.999880e+02 -3.999950e+03 -2.607580e+00
1.678020e-02 -3.999960e+03 -2.985030e+00
-6.673790e-02 -4.400940e+03 -4.026540e+02
3.999020e+02 -4.401230e+03 -4.029430e+02
7.949860e-03 -4.000980e+03 -4.032730e+02
3.999730e+02 -4.001090e+03 -4.033590e+02
-5.280980e-03 -4.400030e+03 -1.915650e+00
4.000140e+02 -4.400010e+03 -1.834250e+00
1.678020e-02 -3.999960e+03 -2.985030e+00
4.000230e+02 -3.999990e+03 -3.379330e+00
-3.999570e+02 -4.000840e+03 -4.033380e+02
7.949860e-03 -4.000980e+03 -4.032730e+02
-3.995750e+02 -3.601150e+03 -4.041970e+02
3.955150e-01 -3.600870e+03 -4.033390e+02
-3.999880e+02 -3.999950e+03 -2.607580e+00
1.678020e-02 -3.999960e+03 -2.985030e+00
-4.000550e+02 -3.600080e+03 -3.920790e+00
-3.519060e-02 -3.600050e+03 -4.195120e+00
7.949860e-03 -4.000980e+03 -4.032730e+02
3.999730e+02 -4.001090e+03 -4.033590e+02
3.955150e-01 -3.600870e+03 -4.033390e+02
4.003590e+02 -3.600550e+03 -4.026200e+02
1.678020e-02 -3.999960e+03 -2.985030e+00
4.000230e+02 -3.999990e+03 -3.379330e+00
-3.519060e-02 -3.600050e+03 -4.195120e+00
3.999890e+02 -3.600160e+03 -4.427110e+00
-3.995750e+02 -3.601150e+03 -4.041970e+02
3.955150e-01 -3.600870e+03 -4.033390e+02
-3.993560e+02 -3.201010e+03 -4.062490e+02
6.418520e-01 -3.200760e+03 -4.054980e+02
-4.000550e+02 -3.600080e+03 -3.920790e+00
-3.519060e-02 -3.600050e+03 -4.195120e+00
-3.999230e+02 -3.199970e+03 -4.647950e+00
6.640440e-02 -3.200010e+03 -4.217740e+00
3.955150e-01 -3.600870e+03 -4.033390e+02
4.003590e+02 -3.600550e+03 -4.026200e+02
6.418520e-01 -3.200760e+03 -4.054980e+02
4.006410e+02 -3.200550e+03 -4.047770e+02
-3.519060e-02 -3.600050e+03 -4.195120e+00
3.999890e+02 -3.600160e+03 -4.427110e+00
6.640440e-02 -3.200010e+03 -4.217740e+00
4.000550e+02 -3.200030e+03 -3.795950e+00
-3.993560e+02 -3.201010e+03 -4.062490e+02
6.418520e-01 -3.200760e+03 -4.054980e+02
-3.990020e+02 -2.800870e+03 -4.073110e+02
1.012170e+00 -2.800810e+03 -4.057590e+02
-3.999230e+02 -3.199970e+03 -4.647950e+00
6.640440e-02 -3.200010e+03 -4.217740e+00
-3.999850e+02 -2.799930e+03 -6.249070e+00
-5.626440e-03 -2.799950e+03 -5.476230e+00
6.418520e-01 -3.200760e+03 -4.054980e+02
4.006410e+02 -3.200550e+03 -4.047770e+02
1.012170e+00 -2.800810e+03 -4.057590e+02
4.010370e+02 -2.800800e+03 -4.042020e+02
6.640440e-02 -3.200010e+03 -4.217740e+00
4.000550e+02 -3.200030e+03 -3.795950e+00
-5.626440e-03 -2.799950e+03 -5.476230e+00
3.999750e+02 -2.799900e+03 -4.699430e+00
-3.990020e+02 -2.800870e+03 -4.073110e+02
1.012170e+00 -2.800810e+03 -4.057590e+02
-3.990150e+02 -2.401200e+03 -4.085870e+02
9.766680e-01 -2.400920e+03 -4.071130e+02
-3.999850e+02 -2.799930e+03 -6.249070e+00
-5.626440e-03 -2.799950e+03 -5.476230e+00
-4.001210e+02 -2.399910e+03 -7.353480e+00
-1.332800e-01 -2.400040e+03 -6.568780e+00
1.012170e+00 -2.800810e+03 -4.057590e+02
4.010370e+02 -2.800800e+03 -4.042020e+02
9.766680e-01 -2.400920e+03 -4.071130e+02
4.009640e+02 -2.400700e+03 -4.056470e+02
-5.626440e-03 -2.799950e+03 -5.476230e+00
3.999750e+02 -2.799900e+03 -4.699430e+00
-1.332800e-01 -2.400040e+03 -6.568780e+00
3.998530e+02 -2.400140e+03 -5.886990e+00
-3.990150e+02 -2.401200e+03 -4.085870e+02
9.766680e-01 -2.400920e+03 -4.071130e+02
-3.993540e+02 -2.001280e+03 -4.089740e+02
6.758460e-01 -2.001090e+03 -4.078000e+02
-4.001210e+02 -2.399910e+03 -7.353480e+00
-1.332800e-01 -2.400040e+03 -6.568780e+00
-4.000660e+02 -2.000000e+03 -7.717220e+00
-8.024540e-02 -2.000000e+03 -7.384020e+00
9.766680e-01 -2.400920e+03 -4.071130e+02
4.009640e+02 -2.400700e+03 -4.056470e+02
6.758460e-01 -2.001090e+03 -4.078000e+02
4.007060e+02 -2.000890e+03 -4.065740e+02
-1.332800e-01 -2.400040e+03 -6.568780e+00
3.998530e+02 -2.400140e+03 -5.886990e+00
-8.024540e-02 -2.000000e+03 -7.384020e+00
3.999050e+02 -1.999990e+03 -6.967220e+00
-3.993540e+02 -2.001280e+03 -4.089740e+02
6.758460e-01 -2.001090e+03 -4.078000e+02
-3.994620e+02 -1.601070e+03 -4.089160e+02
5.228850e-01 -1.601050e+03 -4.084350e+02
-4.000660e+02 -2.000000e+03 -7.717220e+00
-8.024540e-02 -2.000000e+03 -7.384020e+00
-4.000570e+02 -1.600070e+03 -8.851150e+00
-4.465180e-02 -1.599920e+03 -8.288190e+00
6.758460e-01 -2.001090e+03 -4.078000e+02
4.007060e+02 -2.000890e+03 -4.065740e+02
5.228850e-01 -1.601050e+03 -4.084350e+02
4.005070e+02 -1.600950e+03 -4.078650e+02
-8.024540e-02 -2.000000e+03 -7.384020e+00
3.999050e+02 -1.999990e+03 -6.967220e+00
-4.465180e-02 -1.599920e+03 -8.288190e+00
3.999640e+02 -1.599780e+03 -7.748170e+00
-3.994620e+02 -1.601070e+03 -4.089160e+02
5.228850e-01 -1.601050e+03 -4.084350e+02
-3.994840e+02 -1.201000e+03 -4.105870e+02
5.125740e-01 -1.200940e+03 -4.097860e+02
-4.000570e+02 -1.600070e+03 -8.851150e+00
-4.465180e-02 -1.599920e+03 -8.288190e+00
-4.001480e+02 -1.199860e+03 -9.453440e+00
-1.294730e-01 -1.199900e+03 -9.313500e+00
5.228850e-01 -1.601050e+03 -4.084350e+02
4.005070e+02 -1.600950e+03 -4.078650e+02
5.125740e-01 -1.200940e+03 -4.097860e+02
4.005040e+02 -1.200950e+03 -4.089990e+02
-4.465180e-02 -1.599920e+03 -8.288190e+00
3.999640e+02 -1.599780e+03 -7.748170e+00
-1.294730e-01 -1.199900e+03 -9.313500e+00
3.998910e+02 -1.199940e+03 -9.167180e+00
-3.994840e+02 -1.201000e+03 -4.105870e+02
5.125740e-01 -1.200940e+03 -4.097860e+02
-3.994490e+02 -8.009360e+02 -4.102680e+02
5.410960e-01 -8.009550e+02 -4.103480e+02
-4.001480e+02 -1.199860e+03 -9.453440e+00
-1.294730e-01 -1.199900e+03 -9.313500e+00
-4.000500e+02 -8.000230e+02 -1.194200e+01
-4.505880e-02 -8.000330e+02 -1.083410e+01
5.125740e-01 -1.200940e+03 -4.097860e+02
4.005040e+02 -1.200950e+03 -4.089990e+02
5.410960e-01 -8.009550e+02 -4.103480e+02
4.005350e+02 -8.011110e+02 -4.104690e+02
-1.294730e-01 -1.199900e+03 -9.313500e+00
3.998910e+02 -1.199940e+03 -9.167180e+00
-4.505880e-02 -8.000330e+02 -1.083410e+01
3.999600e+02 -7.999780e+02 -9.625600e+00
-3.994490e+02 -8.009360e+02 -4.102680e+02
5.410960e-01 -8.009550e+02 -4.103480e+02
-3.998270e+02 -4.008970e+02 -4.113070e+02
1.801700e-01 -4.009830e+02 -4.113850e+02
-4.000500e+02 -8.000230e+02 -1.194200e+01
-4.505880e-02 -8.000330e+02 -1.083410e+01
-3.998630e+02 -4.001580e+02 -1.198520e+01
1.110440e-01 -4.001790e+02 -1.168410e+01
5.410960e-01 -8.009550e+02 -4.103480e+02
4.005350e+02 -8.011110e+02 -4.104690e+02
1.801700e-01 -4.009830e+02 -4.113850e+02
4.001920e+02 -4.009490e+02 -4.113930e+02
-4.505880e-02 -8.000330e+02 -1.083410e+01
3.999600e+02 -7.999780e+02 -9.625600e+00
1.110440e-01 -4.001790e+02 -1.168410e+01
4.000870e+02 -4.001770e+02 -1.126580e+01
-3.998270e+02 -4.008970e+02 -4.113070e+02
1.801700e-01 -4.009830e+02 -4.113850e+02
-3.997420e+02 -8.916630e-01 -4.131970e+02
3.239150e-01 -1.053530e+00 -4.128070e+02
-3.998630e+02 -4.001580e+02 -1.198520e+01
1.110440e-01 -4.001790e+02 -1.168410e+01
-3.998960e+02 1.764310e-02 -1.247860e+01
6.188520e-02 6.533170e-03 -1.284030e+01
1.801700e-01 -4.009830e+02 -4.113850e+02
4.001920e+02 -4.009490e+02 -4.113930e+02
[...]
<PointData>
<DataArray type="Float32" Name="V1" format="ascii">
0.000000e+00
0.000000e+00
2.141820e-01
2.119380e-01
0.000000e+00
0.000000e+00
-7.688930e-02
-8.723610e-02
0.000000e+00
0.000000e+00
2.119380e-01
2.191950e-01
0.000000e+00
0.000000e+00
-8.723610e-02
-9.900030e-02
2.141820e-01
2.119380e-01
2.123410e-01
2.252040e-01
-7.688930e-02
-8.723610e-02
-2.466860e-01
-2.466150e-01
2.119380e-01
2.191950e-01
2.252040e-01
2.440200e-01
-8.723610e-02
-9.900030e-02
-2.466150e-01
-2.475670e-01
2.123410e-01
2.252040e-01
-1.742310e-01
-1.685630e-01
-2.466860e-01
-2.466150e-01
2.727320e-01
2.406980e-01
2.252040e-01
2.440200e-01
-1.685630e-01
-1.485310e-01
-2.466150e-01
-2.475670e-01
2.406980e-01
2.110440e-01
-1.742310e-01
-1.685630e-01
3.346470e-02
1.075290e-01
2.727320e-01
2.406980e-01
-1.508640e-01
-2.354850e-01
-1.685630e-01
-1.485310e-01
1.075290e-01
1.653080e-01
2.406980e-01
2.110440e-01
-2.354850e-01
-3.417180e-01
3.346470e-02
1.075290e-01
3.830510e-01
3.412020e-01
-1.508640e-01
-2.354850e-01
-2.162680e-01
-2.069100e-01
1.075290e-01
1.653080e-01
3.412020e-01
3.144900e-01
-2.354850e-01
-3.417180e-01
-2.069100e-01
-1.948070e-01
3.830510e-01
3.412020e-01
2.311130e-01
1.958990e-01
-2.162680e-01
-2.069100e-01
-3.147170e-01
-2.804200e-01
3.412020e-01
3.144900e-01
1.958990e-01
1.735520e-01
-2.069100e-01
-1.948070e-01
-2.804200e-01
-2.640360e-01
2.311130e-01
1.958990e-01
-2.858390e-01
-2.762610e-01
-3.147170e-01
-2.804200e-01
3.840910e-01
3.718410e-01
1.958990e-01
1.735520e-01
-2.762610e-01
-2.739300e-01
-2.804200e-01
-2.640360e-01
3.718410e-01
3.647870e-01
-2.858390e-01
-2.762610e-01
6.061490e-03
3.950920e-02
3.840910e-01
3.718410e-01
-1.501560e-01
-2.481500e-01
-2.762610e-01
-2.739300e-01
3.950920e-02
6.412500e-02
3.718410e-01
3.647870e-01
-2.481500e-01
-3.497790e-01
6.061490e-03
3.950920e-02
3.050220e-02
3.199910e-02
-1.501560e-01
-2.481500e-01
6.068900e-02
7.020950e-02
3.950920e-02
6.412500e-02
3.199910e-02
4.612750e-02
-2.481500e-01
-3.497790e-01
7.020950e-02
9.172370e-02
3.050220e-02
3.199910e-02
9.548260e-02
1.506140e-01
6.068900e-02
7.020950e-02
5.094010e-02
-5.728360e-03
3.199910e-02
4.612750e-02
1.506140e-01
2.002520e-01
7.020950e-02
9.172370e-02
-5.728360e-03
-6.023130e-02
9.548260e-02
1.506140e-01
2.547530e-01
2.299080e-01
5.094010e-02
-5.728360e-03
-1.912830e-01
-1.567520e-01
1.506140e-01
2.002520e-01
2.299080e-01
2.013870e-01
-5.728360e-03
-6.023130e-02
-1.567520e-01
-1.238190e-01
2.547530e-01
2.299080e-01
6.225180e-02
6.971900e-02
-1.912830e-01
-1.567520e-01
1.906550e-01
1.630860e-01
2.299080e-01
2.013870e-01
6.971900e-02
9.268520e-02
-1.567520e-01
-1.238190e-01
1.630860e-01
1.431650e-01
6.225180e-02
6.971900e-02
-1.312200e-01
-1.642150e-01
1.906550e-01
1.630860e-01
-1.792920e-01
-9.276360e-02
6.971900e-02
9.268520e-02
-1.642150e-01
-1.785370e-01
1.630860e-01
1.431650e-01
-9.276360e-02
-1.163360e-02
-1.312200e-01
-1.642150e-01
-3.047970e-01
-3.205370e-01
-1.792920e-01
-9.276360e-02
1.068080e-01
1.363490e-01
-1.642150e-01
-1.785370e-01
-3.205370e-01
-3.655600e-01
-9.276360e-02
-1.163360e-02
1.363490e-01
1.765340e-01
-3.047970e-01
-3.205370e-01
-7.850700e-02
-1.452700e-01
1.068080e-01
1.363490e-01
-2.266540e-02
3.839780e-03
-3.205370e-01
-3.655600e-01
-1.452700e-01
-2.042850e-01
1.363490e-01
1.765340e-01
3.839780e-03
2.696160e-02
-7.850700e-02
-1.452700e-01
-5.886550e-02
-2.249470e-02
-2.266540e-02
3.839780e-03
-2.107820e-01
-2.362720e-01
-1.452700e-01
-2.042850e-01
-2.249470e-02
-1.191570e-02
3.839780e-03
2.696160e-02
-2.362720e-01
-2.641240e-01
-5.886550e-02
-2.249470e-02
-1.457290e-01
-8.312520e-02
-2.107820e-01
-2.362720e-01
2.829250e-01
2.703520e-01
-2.249470e-02
-1.191570e-02
-8.312520e-02
1.989140e-04
-2.362720e-01
-2.641240e-01
2.703520e-01
2.609070e-01
-1.457290e-01
-8.312520e-02
-1.505130e-01
-2.069440e-01
2.829250e-01
2.703520e-01
1.305560e-01
2.101780e-01
-8.312520e-02
1.989140e-04
-2.069440e-01
-2.625820e-01
2.703520e-01
2.609070e-01
2.101780e-01
2.827870e-01
-1.505130e-01
-2.069440e-01
2.146260e-01
1.642080e-01
1.305560e-01
2.101780e-01
-4.205520e-01
-3.934070e-01
-2.069440e-01
-2.625820e-01
1.642080e-01
1.101560e-01
2.101780e-01
2.827870e-01
-3.934070e-01
-3.594940e-01
2.146260e-01
1.642080e-01
-1.213680e-01
-1.797160e-01
-4.205520e-01
-3.934070e-01
1.004040e-01
1.587050e-01
1.642080e-01
1.101560e-01
-1.797160e-01
-2.537330e-01
-3.934070e-01
-3.594940e-01
1.587050e-01
2.219040e-01
-1.213680e-01
-1.797160e-01
4.507860e-01
3.879920e-01
1.004040e-01
1.587050e-01
-2.175400e-01
-2.178390e-01
-1.797160e-01
-2.537330e-01
3.879920e-01
3.497140e-01
1.587050e-01
2.219040e-01
-2.178390e-01
-2.193910e-01
4.507860e-01
3.879920e-01
3.368730e-01
3.200680e-01
-2.175400e-01
-2.178390e-01
-2.546070e-01
-2.210290e-01
3.879920e-01
3.497140e-01
3.200680e-01
3.013890e-01
-2.178390e-01
-2.193910e-01
-2.210290e-01
-1.787950e-01
3.368730e-01
3.200680e-01
1.190900e-01
1.281750e-01
-2.546070e-01
-2.210290e-01
1.276420e-01
1.629320e-01
3.200680e-01
3.013890e-01
1.281750e-01
1.155790e-01
-2.210290e-01
-1.787950e-01
1.629320e-01
2.090130e-01
1.190900e-01
1.281750e-01
-3.250290e-02
-5.726820e-03
1.276420e-01
1.629320e-01
1.689470e-02
4.623020e-03
1.281750e-01
1.155790e-01
-5.726820e-03
3.334640e-02
1.629320e-01
2.090130e-01
4.623020e-03
-1.487600e-02
-3.250290e-02
-5.726820e-03
-3.492960e-01
-2.377180e-01
1.689470e-02
4.623020e-03
1.027290e-01
9.289130e-02
-5.726820e-03
3.334640e-02
-2.377180e-01
-1.576180e-01
4.623020e-03
-1.487600e-02
9.289130e-02
8.150400e-02
-3.492960e-01
-2.377180e-01
2.515000e-01
2.175980e-01
1.027290e-01
9.289130e-02
-4.304830e-02
-5.954600e-02
-2.377180e-01
-1.576180e-01
2.175980e-01
2.008660e-01
9.289130e-02
8.150400e-02
-5.954600e-02
-7.250920e-02
2.515000e-01
2.175980e-01
-4.148400e-01
-4.108090e-01
-4.304830e-02
-5.954600e-02
2.911840e-01
2.618800e-01
2.175980e-01
2.008660e-01
-4.108090e-01
-3.970590e-01
-5.954600e-02
-7.250920e-02
2.618800e-01
2.183940e-01
-4.148400e-01
-4.108090e-01
-1.423780e-02
-2.140830e-02
2.911840e-01
2.618800e-01
9.441730e-02
5.130870e-02
-4.108090e-01
-3.970590e-01
-2.140830e-02
-1.922880e-02
2.618800e-01
2.183940e-01
5.130870e-02
1.389560e-02
-1.423780e-02
-2.140830e-02
1.142930e-01
1.199140e-01
9.441730e-02
5.130870e-02
-1.433760e-01
-1.745420e-01
-2.140830e-02
-1.922880e-02
1.199140e-01
1.138260e-01
5.130870e-02
1.389560e-02
-1.745420e-01
-2.136120e-01
1.142930e-01
1.199140e-01
-1.499330e-01
-1.946400e-01
-1.433760e-01
-1.745420e-01
-9.013700e-03
4.809700e-02
1.199140e-01
1.138260e-01
-1.946400e-01
-2.038650e-01
-1.745420e-01
-2.136120e-01
4.809700e-02
9.836250e-02
0.000000e+00
0.000000e+00
-7.688930e-02
-8.723610e-02
0.000000e+00
0.000000e+00
-4.535650e-02
-2.906720e-02
0.000000e+00
0.000000e+00
-8.723610e-02
-9.900030e-02
0.000000e+00
0.000000e+00
-2.906720e-02
-1.896920e-02
-7.688930e-02
-8.723610e-02
-2.466860e-01
-2.466150e-01
-4.535650e-02
-2.906720e-02
2.899870e-01
2.633070e-01
-8.723610e-02
-9.900030e-02
-2.466150e-01
-2.475670e-01
-2.906720e-02
-1.896920e-02
2.633070e-01
2.103890e-01
-2.466860e-01
-2.466150e-01
2.727320e-01
2.406980e-01
2.899870e-01
2.633070e-01
-3.337270e-01
-2.979480e-01
-2.466150e-01
-2.475670e-01
2.406980e-01
2.110440e-01
2.633070e-01
2.103890e-01
-2.979480e-01
-2.320590e-01
2.727320e-01
2.406980e-01
-1.508640e-01
-2.354850e-01
-3.337270e-01
-2.979480e-01
2.304010e-01
3.318040e-01
2.406980e-01
2.110440e-01
-2.354850e-01
-3.417180e-01
-2.979480e-01
-2.320590e-01
3.318040e-01
4.510130e-01
-1.508640e-01
-2.354850e-01
-2.162680e-01
-2.069100e-01
2.304010e-01
3.318040e-01
1.016130e-01
9.926400e-02
-2.354850e-01
-3.417180e-01
-2.069100e-01
-1.948070e-01
3.318040e-01
4.510130e-01
9.926400e-02
1.053990e-01
-2.162680e-01
-2.069100e-01
-3.147170e-01
-2.804200e-01
1.016130e-01
9.926400e-02
3.469580e-01
3.628580e-01
-2.069100e-01
-1.948070e-01
-2.804200e-01
-2.640360e-01
9.926400e-02
1.053990e-01
3.628580e-01
3.711070e-01
-3.147170e-01
-2.804200e-01
3.840910e-01
3.718410e-01
3.469580e-01
3.628580e-01
-4.723570e-01
-4.973710e-01
-2.804200e-01
-2.640360e-01
3.718410e-01
3.647870e-01
3.628580e-01
3.711070e-01
-4.973710e-01
-5.058680e-01
3.840910e-01
3.718410e-01
-1.501560e-01
-2.481500e-01
-4.723570e-01
-4.973710e-01
3.131650e-01
4.813640e-01
3.718410e-01
3.647870e-01
-2.481500e-01
-3.497790e-01
-4.973710e-01
-5.058680e-01
4.813640e-01
6.622060e-01
-1.501560e-01
-2.481500e-01
6.068900e-02
7.020950e-02
3.131650e-01
4.813640e-01
-1.786800e-01
-2.155550e-01
-2.481500e-01
-3.497790e-01
7.020950e-02
9.172370e-02
4.813640e-01
6.622060e-01
-2.155550e-01
-2.532490e-01
6.068900e-02
7.020950e-02
5.094010e-02
-5.728360e-03
-1.786800e-01
-2.155550e-01
-1.771280e-01
-9.181740e-02
7.020950e-02
9.172370e-02
-5.728360e-03
-6.023130e-02
-2.155550e-01
-2.532490e-01
-9.181740e-02
-2.492640e-02
5.094010e-02
-5.728360e-03
-1.912830e-01
-1.567520e-01
-1.771280e-01
-9.181740e-02
1.328440e-01
7.863730e-02
-5.728360e-03
-6.023130e-02
-1.567520e-01
-1.238190e-01
-9.181740e-02
-2.492640e-02
7.863730e-02
3.506780e-02
-1.912830e-01
-1.567520e-01
1.906550e-01
1.630860e-01
1.328440e-01
7.863730e-02
-4.428560e-01
-4.065710e-01
-1.567520e-01
-1.238190e-01
1.630860e-01
1.431650e-01
7.863730e-02
3.506780e-02
-4.065710e-01
-3.861900e-01
1.906550e-01
1.630860e-01
-1.792920e-01
-9.276360e-02
-4.428560e-01
-4.065710e-01
4.778340e-01
3.510090e-01
1.630860e-01
1.431650e-01
-9.276360e-02
-1.163360e-02
-4.065710e-01
-3.861900e-01
3.510090e-01
2.249290e-01
-1.792920e-01
-9.276360e-02
1.068080e-01
1.363490e-01
4.778340e-01
3.510090e-01
9.212100e-02
4.541320e-02
-9.276360e-02
-1.163360e-02
1.363490e-01
1.765340e-01
3.510090e-01
2.249290e-01
4.541320e-02
-7.327490e-03
1.068080e-01
1.363490e-01
-2.266540e-02
3.839780e-03
9.212100e-02
4.541320e-02
9.346150e-02
1.332780e-01
1.363490e-01
1.765340e-01
3.839780e-03
2.696160e-02
4.541320e-02
-7.327490e-03
1.332780e-01
1.818240e-01
-2.266540e-02
3.839780e-03
-2.107820e-01
-2.362720e-01
9.346150e-02
1.332780e-01
4.952030e-01
5.230740e-01
3.839780e-03
2.696160e-02
-2.362720e-01
-2.641240e-01
1.332780e-01
1.818240e-01
5.230740e-01
5.668400e-01
-2.107820e-01
-2.362720e-01
2.829250e-01
2.703520e-01
4.952030e-01
5.230740e-01
-4.491020e-01
-4.642430e-01
-2.362720e-01
-2.641240e-01
2.703520e-01
2.609070e-01
5.230740e-01
5.668400e-01
-4.642430e-01
-4.994300e-01
2.829250e-01
2.703520e-01
1.305560e-01
2.101780e-01
-4.491020e-01
-4.642430e-01
-1.551860e-01
-2.240990e-01
2.703520e-01
2.609070e-01
2.101780e-01
2.827870e-01
-4.642430e-01
-4.994300e-01
-2.240990e-01
-2.856670e-01
1.305560e-01
2.101780e-01
-4.205520e-01
-3.934070e-01
-1.551860e-01
-2.240990e-01
6.106090e-01
6.288870e-01
2.101780e-01
2.827870e-01
-3.934070e-01
-3.594940e-01
-2.240990e-01
-2.856670e-01
6.288870e-01
6.538930e-01
-4.205520e-01
-3.934070e-01
1.004040e-01
1.587050e-01
6.106090e-01
6.288870e-01
-7.895310e-02
-1.421200e-01
-3.934070e-01
-3.594940e-01
1.587050e-01
2.219040e-01
6.288870e-01
6.538930e-01
-1.421200e-01
-2.227380e-01
1.004040e-01
1.587050e-01
-2.175400e-01
-2.178390e-01
-7.895310e-02
-1.421200e-01
-1.067030e-02
4.274560e-02
1.587050e-01
2.219040e-01
-2.178390e-01
-2.193910e-01
-1.421200e-01
-2.227380e-01
4.274560e-02
1.015740e-01
-2.175400e-01
-2.178390e-01
-2.546070e-01
-2.210290e-01
-1.067030e-02
4.274560e-02
1.616200e-01
1.097520e-01
-2.178390e-01
-2.193910e-01
-2.210290e-01
-1.787950e-01
4.274560e-02
1.015740e-01
1.097520e-01
4.427980e-02
-2.546070e-01
-2.210290e-01
1.276420e-01
1.629320e-01
1.616200e-01
1.097520e-01
-4.108590e-01
-4.578000e-01
-2.210290e-01
-1.787950e-01
1.629320e-01
2.090130e-01
1.097520e-01
4.427980e-02
-4.578000e-01
-5.094970e-01
1.276420e-01
1.629320e-01
1.689470e-02
4.623020e-03
-4.108590e-01
-4.578000e-01
5.876140e-02
2.451660e-02
1.629320e-01
2.090130e-01
4.623020e-03
-1.487600e-02
-4.578000e-01
-5.094970e-01
2.451660e-02
-1.783610e-03
1.689470e-02
4.623020e-03
1.027290e-01
9.289130e-02
5.876140e-02
2.451660e-02
8.167440e-02
1.794830e-03
4.623020e-03
-1.487600e-02
9.289130e-02
8.150400e-02
2.451660e-02
-1.783610e-03
1.794830e-03
-6.773170e-02
1.027290e-01
9.289130e-02
-4.304830e-02
-5.954600e-02
8.167440e-02
1.794830e-03
-8.918060e-02
-5.600700e-02
9.289130e-02
8.150400e-02
-5.954600e-02
-7.250920e-02
1.794830e-03
-6.773170e-02
-5.600700e-02
-3.084540e-02
-4.304830e-02
-5.954600e-02
2.911840e-01
2.618800e-01
-8.918060e-02
-5.600700e-02
-1.898810e-01
-1.180610e-01
-5.954600e-02
-7.250920e-02
2.618800e-01
2.183940e-01
-5.600700e-02
-3.084540e-02
-1.180610e-01
-6.100960e-02
2.911840e-01
2.618800e-01
9.441730e-02
5.130870e-02
-1.898810e-01
-1.180610e-01
-1.328300e-01
-1.029540e-01
2.618800e-01
2.183940e-01
5.130870e-02
1.389560e-02
-1.180610e-01
-6.100960e-02
-1.029540e-01
-5.232810e-02
9.441730e-02
5.130870e-02
-1.433760e-01
-1.745420e-01
-1.328300e-01
-1.029540e-01
2.398920e-01
2.921580e-01
5.130870e-02
1.389560e-02
-1.745420e-01
-2.136120e-01
-1.029540e-01
-5.232810e-02
2.921580e-01
3.545260e-01
-1.433760e-01
-1.745420e-01
-9.013700e-03
4.809700e-02
2.398920e-01
2.921580e-01
8.625670e-02
6.836890e-03
-1.745420e-01
-2.136120e-01
4.809700e-02
9.836250e-02
2.921580e-01
3.545260e-01
6.836890e-03
-5.629920e-02
</DataArray>
<DataArray type="Float32" Name="V2" format="ascii">
0.000000e+00
0.000000e+00
2.966100e-01
1.688280e-01
0.000000e+00
0.000000e+00
-3.421130e-01
-4.553370e-02
0.000000e+00
0.000000e+00
1.688280e-01
-2.662140e-02
0.000000e+00
0.000000e+00
-4.553370e-02
1.595530e-01
2.966100e-01
1.688280e-01
-5.889650e-01
-4.626760e-01
-3.421130e-01
-4.553370e-02
6.113290e-01
4.473540e-01
1.688280e-01
-2.662140e-02
-4.626760e-01
-4.147260e-01
-4.553370e-02
1.595530e-01
4.473540e-01
4.360660e-01
-5.889650e-01
-4.626760e-01
2.107590e-01
3.558160e-01
6.113290e-01
4.473540e-01
-3.229930e-01
-2.908660e-01
-4.626760e-01
-4.147260e-01
3.558160e-01
2.809830e-01
4.473540e-01
4.360660e-01
-2.908660e-01
-2.722150e-01
2.107590e-01
3.558160e-01
6.916530e-02
-4.980400e-02
-3.229930e-01
-2.908660e-01
1.636380e-02
-4.058270e-02
3.558160e-01
2.809830e-01
-4.980400e-02
2.255290e-03
-2.908660e-01
-2.722150e-01
-4.058270e-02
-1.297670e-01
6.916530e-02
-4.980400e-02
-1.088250e-01
-3.291560e-01
1.636380e-02
-4.058270e-02
1.647290e-01
2.183010e-01
-4.980400e-02
2.255290e-03
-3.291560e-01
-4.835020e-01
-4.058270e-02
-1.297670e-01
2.183010e-01
1.917640e-01
-1.088250e-01
-3.291560e-01
2.516220e-01
-1.136590e-01
1.647290e-01
2.183010e-01
7.674940e-02
1.486430e-01
-3.291560e-01
-4.835020e-01
-1.136590e-01
-5.480420e-01
2.183010e-01
1.917640e-01
1.486430e-01
2.650440e-01
2.516220e-01
-1.136590e-01
4.364040e-01
5.568270e-01
7.674940e-02
1.486430e-01
-6.904590e-02
-2.906280e-01
-1.136590e-01
-5.480420e-01
5.568270e-01
4.384960e-01
1.486430e-01
2.650440e-01
-2.906280e-01
-1.733500e-01
4.364040e-01
5.568270e-01
4.445920e-01
1.320310e-03
-6.904590e-02
-2.906280e-01
-1.488810e-01
1.950010e-01
5.568270e-01
4.384960e-01
1.320310e-03
-2.913500e-01
-2.906280e-01
-1.733500e-01
1.950010e-01
3.091310e-01
4.445920e-01
1.320310e-03
-7.574260e-01
-3.509750e-01
-1.488810e-01
1.950010e-01
6.656060e-01
1.675000e-01
1.320310e-03
-2.913500e-01
-3.509750e-01
2.391610e-01
1.950010e-01
3.091310e-01
1.675000e-01
-3.199040e-01
-7.574260e-01
-3.509750e-01
4.884490e-01
4.102030e-01
6.656060e-01
1.675000e-01
-6.554470e-01
-4.313740e-01
-3.509750e-01
2.391610e-01
4.102030e-01
3.695410e-01
1.675000e-01
-3.199040e-01
-4.313740e-01
-1.574430e-01
4.884490e-01
4.102030e-01
-3.145480e-01
-2.808220e-01
-6.554470e-01
-4.313740e-01
-1.065680e-01
1.463310e-01
4.102030e-01
3.695410e-01
-2.808220e-01
-1.753680e-01
-4.313740e-01
-1.574430e-01
1.463310e-01
3.175330e-01
-3.145480e-01
-2.808220e-01
-2.369050e-01
-7.498060e-02
-1.065680e-01
1.463310e-01
1.545550e-01
1.168870e-01
-2.808220e-01
-1.753680e-01
-7.498060e-02
1.410770e-01
1.463310e-01
3.175330e-01
1.168870e-01
-4.987870e-02
-2.369050e-01
-7.498060e-02
-3.380370e-01
8.297880e-02
1.545550e-01
1.168870e-01
3.089490e-01
7.571180e-02
-7.498060e-02
1.410770e-01
8.297880e-02
7.067600e-01
1.168870e-01
-4.987870e-02
7.571180e-02
-3.673160e-01
-3.380370e-01
8.297880e-02
-8.946200e-02
-1.721550e-01
3.089490e-01
7.571180e-02
-9.072190e-02
1.146260e-01
8.297880e-02
7.067600e-01
-1.721550e-01
-1.801750e-01
7.571180e-02
-3.673160e-01
1.146260e-01
3.800850e-01
-8.946200e-02
-1.721550e-01
-3.377530e-01
-6.364170e-03
-9.072190e-02
1.146260e-01
3.001070e-01
2.269670e-02
-1.721550e-01
-1.801750e-01
-6.364170e-03
2.468590e-01
1.146260e-01
3.800850e-01
2.269670e-02
-2.569220e-01
-3.377530e-01
-6.364170e-03
6.392000e-02
2.021290e-01
3.001070e-01
2.269670e-02
2.285050e-02
-1.959170e-01
-6.364170e-03
2.468590e-01
2.021290e-01
4.136240e-01
2.269670e-02
-2.569220e-01
-1.959170e-01
-6.233440e-01
6.392000e-02
2.021290e-01
2.933620e-01
-3.574810e-02
2.285050e-02
-1.959170e-01
-1.633870e-01
-2.334290e-02
2.021290e-01
4.136240e-01
-3.574810e-02
-6.235860e-01
-1.959170e-01
-6.233440e-01
-2.334290e-02
4.703710e-01
2.933620e-01
-3.574810e-02
3.897290e-01
5.411060e-01
-1.633870e-01
-2.334290e-02
7.474920e-02
-2.865670e-01
-3.574810e-02
-6.235860e-01
5.411060e-01
6.783000e-01
-2.334290e-02
4.703710e-01
-2.865670e-01
-5.769160e-01
3.897290e-01
5.411060e-01
5.510010e-01
3.090510e-01
7.474920e-02
-2.865670e-01
-4.967070e-02
-8.866650e-03
5.411060e-01
6.783000e-01
3.090510e-01
8.884710e-03
-2.865670e-01
-5.769160e-01
-8.866650e-03
1.931020e-01
5.510010e-01
3.090510e-01
3.680230e-01
-2.092130e-01
-4.967070e-02
-8.866650e-03
1.306300e-01
2.544690e-01
3.090510e-01
8.884710e-03
-2.092130e-01
-6.991420e-01
-8.866650e-03
1.931020e-01
2.544690e-01
1.885980e-01
3.680230e-01
-2.092130e-01
4.985170e-02
1.545180e-01
1.306300e-01
2.544690e-01
2.587680e-01
-6.277000e-02
-2.092130e-01
-6.991420e-01
1.545180e-01
1.324370e-01
2.544690e-01
1.885980e-01
-6.277000e-02
-2.177200e-01
4.985170e-02
1.545180e-01
1.592460e-01
-1.958150e-01
2.587680e-01
-6.277000e-02
-5.878130e-02
6.959450e-02
1.545180e-01
1.324370e-01
-1.958150e-01
-4.231080e-01
-6.277000e-02
-2.177200e-01
6.959450e-02
1.588910e-01
1.592460e-01
-1.958150e-01
6.141970e-02
2.389350e-01
-5.878130e-02
6.959450e-02
-1.901170e-01
-1.397410e-01
-1.958150e-01
-4.231080e-01
2.389350e-01
9.713000e-02
6.959450e-02
1.588910e-01
-1.397410e-01
-5.276660e-02
6.141970e-02
2.389350e-01
-2.696120e-01
-1.013980e-01
-1.901170e-01
-1.397410e-01
1.360300e-01
2.922290e-02
2.389350e-01
9.713000e-02
-1.013980e-01
3.059720e-01
-1.397410e-01
-5.276660e-02
2.922290e-02
1.360850e-03
-2.696120e-01
-1.013980e-01
-5.093640e-01
-1.812890e-01
1.360300e-01
2.922290e-02
1.666470e-01
9.271160e-02
-1.013980e-01
3.059720e-01
-1.812890e-01
8.493670e-02
2.922290e-02
1.360850e-03
9.271160e-02
-9.576050e-03
-5.093640e-01
-1.812890e-01
-2.624260e-02
4.118700e-01
1.666470e-01
9.271160e-02
1.446410e-01
-2.067600e-01
-1.812890e-01
8.493670e-02
4.118700e-01
7.200960e-01
9.271160e-02
-9.576050e-03
-2.067600e-01
-6.171110e-01
-2.624260e-02
4.118700e-01
5.217000e-01
3.026430e-01
1.446410e-01
-2.067600e-01
-3.144600e-01
-2.881680e-01
4.118700e-01
7.200960e-01
3.026430e-01
5.628740e-02
-2.067600e-01
-6.171110e-01
-2.881680e-01
-1.696780e-01
5.217000e-01
3.026430e-01
-1.010160e-01
-2.152190e-01
-3.144600e-01
-2.881680e-01
-2.191450e-01
-7.783030e-02
3.026430e-01
5.628740e-02
-2.152190e-01
-6.709980e-01
-2.881680e-01
-1.696780e-01
-7.783030e-02
1.476940e-01
-1.010160e-01
-2.152190e-01
-9.898110e-01
-4.352730e-01
-2.191450e-01
-7.783030e-02
7.386890e-01
2.407100e-01
-2.152190e-01
-6.709980e-01
-4.352730e-01
1.145930e-01
-7.783030e-02
1.476940e-01
2.407100e-01
-2.787720e-01
-9.898110e-01
-4.352730e-01
-2.707590e-01
3.968960e-02
7.386890e-01
2.407100e-01
3.373840e-01
-1.308610e-01
-4.352730e-01
1.145930e-01
3.968960e-02
2.862440e-01
2.407100e-01
-2.787720e-01
-1.308610e-01
-4.309380e-01
0.000000e+00
0.000000e+00
-3.421130e-01
-4.553370e-02
0.000000e+00
0.000000e+00
3.338160e-01
-5.326820e-02
0.000000e+00
0.000000e+00
-4.553370e-02
1.595530e-01
0.000000e+00
0.000000e+00
-5.326820e-02
-3.043850e-01
-3.421130e-01
-4.553370e-02
6.113290e-01
4.473540e-01
3.338160e-01
-5.326820e-02
-5.538220e-01
-4.921620e-01
-4.553370e-02
1.595530e-01
4.473540e-01
4.360660e-01
-5.326820e-02
-3.043850e-01
-4.921620e-01
-4.714240e-01
6.113290e-01
4.473540e-01