<?xml version="1.0"?>
<VTKFile type="UnstructuredGrid" version="0.1" byte_order="LittleEndian" compressor="vtkZLibDataCompressor">
<UnstructuredGrid>
<Piece NumberOfPoints="960" NumberOfCells="120">
<Points>
<DataArray type="Float32" NumberOfComponents="3" format="ascii">
-4.000000e+02 -6.000000e+03 -4.000000e+02
0.000000e+00 -6.000000e+03 -4.000000e+02
-4.000000e+02 -5.600070e+03 -4.000100e+02
2.747430e-09 -5.600070e+03 -4.000100e+02
-4.000000e+02 -6.000000e+03 0.000000e+00
0.000000e+00 -6.000000e+03 0.000000e+00
-4.000000e+02 -5.600000e+03 1.286800e-01
-3.013260e-10 -5.600000e+03 1.286800e-01
0.000000e+00 -6.000000e+03 -4.000000e+02
4.000000e+02 -6.000000e+03 -4.000000e+02
2.747430e-09 -5.600070e+03 -4.000100e+02
4.000000e+02 -5.600070e+03 -4.000100e+02
0.000000e+00 -6.000000e+03 0.000000e+00
4.000000e+02 -6.000000e+03 0.000000e+00
-3.013260e-10 -5.600000e+03 1.286800e-01
4.000000e+02 -5.600000e+03 1.286800e-01
-4.000000e+02 -5.600070e+03 -4.000100e+02
2.747430e-09 -5.600070e+03 -4.000100e+02
-4.000000e+02 -5.200100e+03 -3.999940e+02
7.111880e-09 -5.200100e+03 -3.999940e+02
-4.000000e+02 -5.600000e+03 1.286800e-01
-3.013260e-10 -5.600000e+03 1.286800e-01
-4.000000e+02 -5.199980e+03 -9.216770e-02
1.479300e-09 -5.199980e+03 -9.216770e-02
2.747430e-09 -5.600070e+03 -4.000100e+02
4.000000e+02 -5.600070e+03 -4.000100e+02
7.111880e-09 -5.200100e+03 -3.999940e+02
4.000000e+02 -5.200100e+03 -3.999940e+02
-3.013260e-10 -5.600000e+03 1.286800e-01
4.000000e+02 -5.600000e+03 1.286800e-01
1.479300e-09 -5.199980e+03 -9.216770e-02
4.000000e+02 -5.199980e+03 -9.216770e-02
-4.000000e+02 -5.200100e+03 -3.999940e+02
7.111880e-09 -5.200100e+03 -3.999940e+02
-4.000000e+02 -4.800050e+03 -4.001900e+02
5.565960e-09 -4.800050e+03 -4.001900e+02
-4.000000e+02 -5.199980e+03 -9.216770e-02
1.479300e-09 -5.199980e+03 -9.216770e-02
-4.000000e+02 -4.800020e+03 -1.365440e-01
1.262740e-09 -4.800020e+03 -1.365440e-01
7.111880e-09 -5.200100e+03 -3.999940e+02
4.000000e+02 -5.200100e+03 -3.999940e+02
5.565960e-09 -4.800050e+03 -4.001900e+02
4.000000e+02 -4.800050e+03 -4.001900e+02
1.479300e-09 -5.199980e+03 -9.216770e-02
4.000000e+02 -5.199980e+03 -9.216770e-02
1.262740e-09 -4.800020e+03 -1.365440e-01
4.000000e+02 -4.800020e+03 -1.365440e-01
-4.000000e+02 -4.800050e+03 -4.001900e+02
5.565960e-09 -4.800050e+03 -4.001900e+02
-4.000000e+02 -4.400070e+03 -4.003150e+02
-3.416890e-09 -4.400070e+03 -4.003150e+02
-4.000000e+02 -4.800020e+03 -1.365440e-01
1.262740e-09 -4.800020e+03 -1.365440e-01
-4.000000e+02 -4.400000e+03 -2.502890e-01
3.047870e-09 -4.400000e+03 -2.502890e-01
5.565960e-09 -4.800050e+03 -4.001900e+02
4.000000e+02 -4.800050e+03 -4.001900e+02
-3.416890e-09 -4.400070e+03 -4.003150e+02
4.000000e+02 -4.400070e+03 -4.003150e+02
1.262740e-09 -4.800020e+03 -1.365440e-01
4.000000e+02 -4.800020e+03 -1.365440e-01
3.047870e-09 -4.400000e+03 -2.502890e-01
4.000000e+02 -4.400000e+03 -2.502890e-01
-4.000000e+02 -4.400070e+03 -4.003150e+02
-3.416890e-09 -4.400070e+03 -4.003150e+02
-4.000000e+02 -4.000030e+03 -4.002560e+02
-1.470800e-09 -4.000030e+03 -4.002560e+02
-4.000000e+02 -4.400000e+03 -2.502890e-01
3.047870e-09 -4.400000e+03 -2.502890e-01
-4.000000e+02 -4.000020e+03 -4.205350e-01
1.364950e-09 -4.000020e+03 -4.205350e-01
-3.416890e-09 -4.400070e+03 -4.003150e+02
4.000000e+02 -4.400070e+03 -4.003150e+02
-1.470800e-09 -4.000030e+03 -4.002560e+02
4.000000e+02 -4.000030e+03 -4.002560e+02
3.047870e-09 -4.400000e+03 -2.502890e-01
4.000000e+02 -4.400000e+03 -2.502890e-01
1.364950e-09 -4.000020e+03 -4.205350e-01
4.000000e+02 -4.000020e+03 -4.205350e-01
-4.000000e+02 -4.000030e+03 -4.002560e+02
-1.470800e-09 -4.000030e+03 -4.002560e+02
-4.000000e+02 -3.600050e+03 -4.003390e+02
4.025060e-09 -3.600050e+03 -4.003390e+02
-4.000000e+02 -4.000020e+03 -4.205350e-01
1.364950e-09 -4.000020e+03 -4.205350e-01
-4.000000e+02 -3.600000e+03 -2.337690e-01
-2.172890e-09 -3.600000e+03 -2.337690e-01
-1.470800e-09 -4.000030e+03 -4.002560e+02
4.000000e+02 -4.000030e+03 -4.002560e+02
4.025060e-09 -3.600050e+03 -4.003390e+02
4.000000e+02 -3.600050e+03 -4.003390e+02
1.364950e-09 -4.000020e+03 -4.205350e-01
4.000000e+02 -4.000020e+03 -4.205350e-01
-2.172890e-09 -3.600000e+03 -2.337690e-01
4.000000e+02 -3.600000e+03 -2.337690e-01
-4.000000e+02 -3.600050e+03 -4.003390e+02
4.025060e-09 -3.600050e+03 -4.003390e+02
-4.000000e+02 -3.200080e+03 -4.004470e+02
-1.955720e-10 -3.200080e+03 -4.004470e+02
-4.000000e+02 -3.600000e+03 -2.337690e-01
-2.172890e-09 -3.600000e+03 -2.337690e-01
-4.000000e+02 -3.200000e+03 -2.922520e-01
5.820620e-10 -3.200000e+03 -2.922520e-01
4.025060e-09 -3.600050e+03 -4.003390e+02
4.000000e+02 -3.600050e+03 -4.003390e+02
-1.955720e-10 -3.200080e+03 -4.004470e+02
4.000000e+02 -3.200080e+03 -4.004470e+02
-2.172890e-09 -3.600000e+03 -2.337690e-01
4.000000e+02 -3.600000e+03 -2.337690e-01
5.820620e-10 -3.200000e+03 -2.922520e-01
4.000000e+02 -3.200000e+03 -2.922520e-01
-4.000000e+02 -3.200080e+03 -4.004470e+02
-1.955720e-10 -3.200080e+03 -4.004470e+02
-4.000000e+02 -2.800040e+03 -4.003550e+02
-4.249160e-09 -2.800040e+03 -4.003550e+02
-4.000000e+02 -3.200000e+03 -2.922520e-01
5.820620e-10 -3.200000e+03 -2.922520e-01
-4.000000e+02 -2.800010e+03 -5.276660e-01
2.367940e-09 -2.800010e+03 -5.276660e-01
-1.955720e-10 -3.200080e+03 -4.004470e+02
4.000000e+02 -3.200080e+03 -4.004470e+02
-4.249160e-09 -2.800040e+03 -4.003550e+02
4.000000e+02 -2.800040e+03 -4.003550e+02
5.820620e-10 -3.200000e+03 -2.922520e-01
4.000000e+02 -3.200000e+03 -2.922520e-01
2.367940e-09 -2.800010e+03 -5.276660e-01
4.000000e+02 -2.800010e+03 -5.276660e-01
-4.000000e+02 -2.800040e+03 -4.003550e+02
-4.249160e-09 -2.800040e+03 -4.003550e+02
-4.000000e+02 -2.400120e+03 -4.005500e+02
-5.769010e-10 -2.400120e+03 -4.005500e+02
-4.000000e+02 -2.800010e+03 -5.276660e-01
2.367940e-09 -2.800010e+03 -5.276660e-01
-4.000000e+02 -2.399970e+03 -5.261590e-01
3.768830e-09 -2.399970e+03 -5.261590e-01
-4.249160e-09 -2.800040e+03 -4.003550e+02
4.000000e+02 -2.800040e+03 -4.003550e+02
-5.769010e-10 -2.400120e+03 -4.005500e+02
4.000000e+02 -2.400120e+03 -4.005500e+02
2.367940e-09 -2.800010e+03 -5.276660e-01
4.000000e+02 -2.800010e+03 -5.276660e-01
3.768830e-09 -2.399970e+03 -5.261590e-01
4.000000e+02 -2.399970e+03 -5.261590e-01
-4.000000e+02 -2.400120e+03 -4.005500e+02
-5.769010e-10 -2.400120e+03 -4.005500e+02
-4.000000e+02 -2.000100e+03 -4.007500e+02
3.867530e-09 -2.000100e+03 -4.007500e+02
-4.000000e+02 -2.399970e+03 -5.261590e-01
3.768830e-09 -2.399970e+03 -5.261590e-01
-4.000000e+02 -2.000010e+03 -6.915050e-01
5.021240e-09 -2.000010e+03 -6.915050e-01
-5.769010e-10 -2.400120e+03 -4.005500e+02
4.000000e+02 -2.400120e+03 -4.005500e+02
3.867530e-09 -2.000100e+03 -4.007500e+02
4.000000e+02 -2.000100e+03 -4.007500e+02
3.768830e-09 -2.399970e+03 -5.261590e-01
4.000000e+02 -2.399970e+03 -5.261590e-01
5.021240e-09 -2.000010e+03 -6.915050e-01
4.000000e+02 -2.000010e+03 -6.915050e-01
-4.000000e+02 -2.000100e+03 -4.007500e+02
3.867530e-09 -2.000100e+03 -4.007500e+02
-4.000000e+02 -1.600040e+03 -4.005950e+02
6.341500e-09 -1.600040e+03 -4.005950e+02
-4.000000e+02 -2.000010e+03 -6.915050e-01
5.021240e-09 -2.000010e+03 -6.915050e-01
-4.000000e+02 -1.600010e+03 -7.830700e-01
-3.386240e-10 -1.600010e+03 -7.830700e-01
3.867530e-09 -2.000100e+03 -4.007500e+02
4.000000e+02 -2.000100e+03 -4.007500e+02
6.341500e-09 -1.600040e+03 -4.005950e+02
4.000000e+02 -1.600040e+03 -4.005950e+02
5.021240e-09 -2.000010e+03 -6.915050e-01
4.000000e+02 -2.000010e+03 -6.915050e-01
-3.386240e-10 -1.600010e+03 -7.830700e-01
4.000000e+02 -1.600010e+03 -7.830700e-01
-4.000000e+02 -1.600040e+03 -4.005950e+02
6.341500e-09 -1.600040e+03 -4.005950e+02
-4.000000e+02 -1.200030e+03 -4.007080e+02
6.850110e-09 -1.200030e+03 -4.007080e+02
-4.000000e+02 -1.600010e+03 -7.830700e-01
-3.386240e-10 -1.600010e+03 -7.830700e-01
-4.000000e+02 -1.199980e+03 -6.654830e-01
-1.456200e-09 -1.199980e+03 -6.654830e-01
6.341500e-09 -1.600040e+03 -4.005950e+02
4.000000e+02 -1.600040e+03 -4.005950e+02
6.850110e-09 -1.200030e+03 -4.007080e+02
4.000000e+02 -1.200030e+03 -4.007080e+02
-3.386240e-10 -1.600010e+03 -7.830700e-01
4.000000e+02 -1.600010e+03 -7.830700e-01
-1.456200e-09 -1.199980e+03 -6.654830e-01
4.000000e+02 -1.199980e+03 -6.654830e-01
-4.000000e+02 -1.200030e+03 -4.007080e+02
6.850110e-09 -1.200030e+03 -4.007080e+02
-4.000000e+02 -7.999940e+02 -4.007750e+02
-4.244880e-09 -7.999940e+02 -4.007750e+02
-4.000000e+02 -1.199980e+03 -6.654830e-01
-1.456200e-09 -1.199980e+03 -6.654830e-01
-4.000000e+02 -8.000140e+02 -7.306090e-01
1.343070e-09 -8.000140e+02 -7.306090e-01
6.850110e-09 -1.200030e+03 -4.007080e+02
4.000000e+02 -1.200030e+03 -4.007080e+02
-4.244880e-09 -7.999940e+02 -4.007750e+02
4.000000e+02 -7.999940e+02 -4.007750e+02
-1.456200e-09 -1.199980e+03 -6.654830e-01
4.000000e+02 -1.199980e+03 -6.654830e-01
1.343070e-09 -8.000140e+02 -7.306090e-01
4.000000e+02 -8.000140e+02 -7.306090e-01
-4.000000e+02 -7.999940e+02 -4.007750e+02
-4.244880e-09 -7.999940e+02 -4.007750e+02
-4.000000e+02 -4.000970e+02 -4.007100e+02
-8.271600e-09 -4.000970e+02 -4.007100e+02
-4.000000e+02 -8.000140e+02 -7.306090e-01
1.343070e-09 -8.000140e+02 -7.306090e-01
-4.000000e+02 -4.000110e+02 -7.564470e-01
2.821410e-09 -4.000110e+02 -7.564470e-01
-4.244880e-09 -7.999940e+02 -4.007750e+02
4.000000e+02 -7.999940e+02 -4.007750e+02
-8.271600e-09 -4.000970e+02 -4.007100e+02
4.000000e+02 -4.000970e+02 -4.007100e+02
1.343070e-09 -8.000140e+02 -7.306090e-01
4.000000e+02 -8.000140e+02 -7.306090e-01
2.821410e-09 -4.000110e+02 -7.564470e-01
4.000000e+02 -4.000110e+02 -7.564470e-01
-4.000000e+02 -4.000970e+02 -4.007100e+02
-8.271600e-09 -4.000970e+02 -4.007100e+02
-4.000000e+02 -1.260740e-01 -4.009610e+02
-3.268850e-09 -1.260740e-01 -4.009610e+02
-4.000000e+02 -4.000110e+02 -7.564470e-01
2.821410e-09 -4.000110e+02 -7.564470e-01
-4.000000e+02 -1.042040e-02 -9.316870e-01
3.048320e-09 -1.042040e-02 -9.316870e-01
-8.271600e-09 -4.000970e+02 -4.007100e+02
4.000000e+02 -4.000970e+02 -4.007100e+02
[...]
<PointData>
<DataArray type="Float32" Name="V1" format="ascii">
0.000000e+00
0.000000e+00
5.645250e-09
5.060660e-09
0.000000e+00
0.000000e+00
-3.649920e-09
-4.410590e-09
0.000000e+00
0.000000e+00
5.060660e-09
4.588670e-09
0.000000e+00
0.000000e+00
-4.410590e-09
-5.052150e-09
5.645250e-09
5.060660e-09
3.369080e-09
3.977920e-09
-3.649920e-09
-4.410590e-09
-9.613320e-10
-1.372060e-09
5.060660e-09
4.588670e-09
3.977920e-09
5.062950e-09
-4.410590e-09
-5.052150e-09
-1.372060e-09
-1.481770e-09
3.369080e-09
3.977920e-09
-1.625130e-09
-1.961160e-09
-9.613320e-10
-1.372060e-09
1.276540e-10
-3.331040e-10
3.977920e-09
5.062950e-09
-1.961160e-09
-2.340000e-09
-1.372060e-09
-1.481770e-09
-3.331040e-10
-7.472670e-10
-1.625130e-09
-1.961160e-09
-1.474890e-09
-6.072830e-10
1.276540e-10
-3.331040e-10
-1.839200e-09
-1.502230e-09
-1.961160e-09
-2.340000e-09
-6.072830e-10
-2.454880e-11
-3.331040e-10
-7.472670e-10
-1.502230e-09
-1.102730e-09
-1.474890e-09
-6.072830e-10
-2.944880e-09
-3.024370e-09
-1.839200e-09
-1.502230e-09
-6.726380e-10
7.699750e-12
-6.072830e-10
-2.454880e-11
-3.024370e-09
-2.725900e-09
-1.502230e-09
-1.102730e-09
7.699750e-12
5.744430e-10
-2.944880e-09
-3.024370e-09
7.834020e-09
6.506220e-09
-6.726380e-10
7.699750e-12
-4.166430e-09
-4.445970e-09
-3.024370e-09
-2.725900e-09
6.506220e-09
5.212210e-09
7.699750e-12
5.744430e-10
-4.445970e-09
-4.954940e-09
7.834020e-09
6.506220e-09
-2.189760e-10
-2.861730e-11
-4.166430e-09
-4.445970e-09
4.526810e-10
1.415370e-09
6.506220e-09
5.212210e-09
-2.861730e-11
5.989920e-10
-4.445970e-09
-4.954940e-09
1.415370e-09
2.425420e-09
-2.189760e-10
-2.861730e-11
5.613830e-09
4.980210e-09
4.526810e-10
1.415370e-09
-8.042200e-10
-2.446410e-09
-2.861730e-11
5.989920e-10
4.980210e-09
4.684900e-09
1.415370e-09
2.425420e-09
-2.446410e-09
-4.280340e-09
5.613830e-09
4.980210e-09
-4.603400e-09
-3.747690e-09
-8.042200e-10
-2.446410e-09
5.218100e-09
5.443600e-09
4.980210e-09
4.684900e-09
-3.747690e-09
-2.961570e-09
-2.446410e-09
-4.280340e-09
5.443600e-09
5.565710e-09
-4.603400e-09
-3.747690e-09
-5.597130e-09
-7.642590e-09
5.218100e-09
5.443600e-09
7.828130e-09
8.053290e-09
-3.747690e-09
-2.961570e-09
-7.642590e-09
-1.006800e-08
5.443600e-09
5.565710e-09
8.053290e-09
8.033360e-09
-5.597130e-09
-7.642590e-09
-2.895780e-09
-1.711290e-09
7.828130e-09
8.053290e-09
3.046020e-09
2.143850e-09
-7.642590e-09
-1.006800e-08
-1.711290e-09
-3.574310e-10
8.053290e-09
8.033360e-09
2.143850e-09
1.515150e-09
-2.895780e-09
-1.711290e-09
1.282430e-09
1.880260e-09
3.046020e-09
2.143850e-09
-3.917990e-09
-2.371070e-09
-1.711290e-09
-3.574310e-10
1.880260e-09
2.031660e-09
2.143850e-09
1.515150e-09
-2.371070e-09
-1.150850e-09
1.282430e-09
1.880260e-09
6.795120e-10
-5.320180e-10
-3.917990e-09
-2.371070e-09
-4.240070e-09
-3.475520e-09
1.880260e-09
2.031660e-09
-5.320180e-10
-2.117090e-09
-2.371070e-09
-1.150850e-09
-3.475520e-09
-2.882030e-09
6.795120e-10
-5.320180e-10
-9.595650e-09
-9.209680e-09
-4.240070e-09
-3.475520e-09
5.825930e-09
5.168340e-09
-5.320180e-10
-2.117090e-09
-9.209680e-09
-8.899440e-09
-3.475520e-09
-2.882030e-09
5.168340e-09
4.459050e-09
-9.595650e-09
-9.209680e-09
1.741000e-09
1.446790e-09
5.825930e-09
5.168340e-09
-2.141640e-09
-1.574270e-09
-9.209680e-09
-8.899440e-09
1.446790e-09
8.434980e-10
5.168340e-09
4.459050e-09
-1.574270e-09
-1.130230e-09
1.741000e-09
1.446790e-09
2.343920e-09
2.154090e-09
-2.141640e-09
-1.574270e-09
1.301090e-09
3.498380e-10
1.446790e-09
8.434980e-10
2.154090e-09
1.567200e-09
-1.574270e-09
-1.130230e-09
3.498380e-10
-6.353240e-10
2.343920e-09
2.154090e-09
-3.078420e-09
-1.492070e-09
1.301090e-09
3.498380e-10
4.026010e-10
1.126360e-09
2.154090e-09
1.567200e-09
-1.492070e-09
9.819530e-13
3.498380e-10
-6.353240e-10
1.126360e-09
1.621210e-09
-3.078420e-09
-1.492070e-09
7.283150e-09
8.059150e-09
4.026010e-10
1.126360e-09
-6.372880e-10
-8.503150e-10
-1.492070e-09
9.819530e-13
8.059150e-09
8.599950e-09
1.126360e-09
1.621210e-09
-8.503150e-10
-1.003560e-09
7.283150e-09
8.059150e-09
2.875160e-09
1.174430e-09
-6.372880e-10
-8.503150e-10
2.393020e-09
2.246730e-09
8.059150e-09
8.599950e-09
1.174430e-09
-3.515390e-10
-8.503150e-10
-1.003560e-09
2.246730e-09
2.132800e-09
2.875160e-09
1.174430e-09
4.918600e-09
5.262170e-09
2.393020e-09
2.246730e-09
-5.014840e-09
-5.364320e-09
1.174430e-09
-3.515390e-10
5.262170e-09
5.542150e-09
2.246730e-09
2.132800e-09
-5.364320e-09
-5.544110e-09
4.918600e-09
5.262170e-09
-6.859930e-09
-7.277730e-09
-5.014840e-09
-5.364320e-09
9.368820e-09
8.348110e-09
5.262170e-09
5.542150e-09
-7.277730e-09
-7.226200e-09
-5.364320e-09
-5.544110e-09
8.348110e-09
7.352870e-09
-6.859930e-09
-7.277730e-09
4.193920e-09
5.110480e-09
9.368820e-09
8.348110e-09
-9.404170e-09
-8.982770e-09
-7.277730e-09
-7.226200e-09
5.110480e-09
5.716930e-09
8.348110e-09
7.352870e-09
-8.982770e-09
-8.660830e-09
4.193920e-09
5.110480e-09
-2.594320e-09
-3.706120e-09
-9.404170e-09
-8.982770e-09
5.051170e-09
4.702850e-09
5.110480e-09
5.716930e-09
-3.706120e-09
-4.531720e-09
-8.982770e-09
-8.660830e-09
4.702850e-09
4.724180e-09
-2.594320e-09
-3.706120e-09
-2.425420e-09
-2.128250e-09
5.051170e-09
4.702850e-09
-1.615310e-09
-2.717150e-09
-3.706120e-09
-4.531720e-09
-2.128250e-09
-2.044430e-09
4.702850e-09
4.724180e-09
-2.717150e-09
-3.654830e-09
-2.425420e-09
-2.128250e-09
-6.993470e-09
-6.430600e-09
-1.615310e-09
-2.717150e-09
1.317780e-09
2.550290e-09
-2.128250e-09
-2.044430e-09
-6.430600e-09
-6.043920e-09
-2.717150e-09
-3.654830e-09
2.550290e-09
3.770700e-09
-6.993470e-09
-6.430600e-09
-6.884480e-09
-7.943120e-09
1.317780e-09
2.550290e-09
2.288930e-09
1.926620e-09
-6.430600e-09
-6.043920e-09
-7.943120e-09
-8.791430e-09
2.550290e-09
3.770700e-09
1.926620e-09
1.702710e-09
-6.884480e-09
-7.943120e-09
1.564250e-09
2.221620e-09
2.288930e-09
1.926620e-09
-5.147400e-09
-4.675130e-09
-7.943120e-09
-8.791430e-09
2.221620e-09
2.287950e-09
1.926620e-09
1.702710e-09
-4.675130e-09
-4.408970e-09
1.564250e-09
2.221620e-09
-1.092420e-08
-1.026810e-08
-5.147400e-09
-4.675130e-09
1.374340e-08
1.316340e-08
2.221620e-09
2.287950e-09
-1.026810e-08
-1.011800e-08
-4.675130e-09
-4.408970e-09
1.316340e-08
1.299620e-08
-1.092420e-08
-1.026810e-08
9.846050e-09
8.681450e-09
1.374340e-08
1.316340e-08
-3.125560e-09
-2.909930e-09
-1.026810e-08
-1.011800e-08
8.681450e-09
7.941060e-09
1.316340e-08
1.299620e-08
-2.909930e-09
-3.076460e-09
9.846050e-09
8.681450e-09
1.678550e-08
1.818900e-08
-3.125560e-09
-2.909930e-09
-9.921660e-09
-8.293360e-09
8.681450e-09
7.941060e-09
1.818900e-08
1.982760e-08
-2.909930e-09
-3.076460e-09
-8.293360e-09
-6.673360e-09
0.000000e+00
0.000000e+00
-3.649920e-09
-4.410590e-09
0.000000e+00
0.000000e+00
4.139920e-09
4.720300e-09
0.000000e+00
0.000000e+00
-4.410590e-09
-5.052150e-09
0.000000e+00
0.000000e+00
4.720300e-09
5.414490e-09
-3.649920e-09
-4.410590e-09
-9.613320e-10
-1.372060e-09
4.139920e-09
4.720300e-09
-1.161650e-09
-1.380930e-09
-4.410590e-09
-5.052150e-09
-1.372060e-09
-1.481770e-09
4.720300e-09
5.414490e-09
-1.380930e-09
-1.630040e-09
-9.613320e-10
-1.372060e-09
1.276540e-10
-3.331040e-10
-1.161650e-09
-1.380930e-09
2.623780e-09
2.642220e-09
-1.372060e-09
-1.481770e-09
-3.331040e-10
-7.472670e-10
-1.380930e-09
-1.630040e-09
2.642220e-09
2.747510e-09
1.276540e-10
-3.331040e-10
-1.839200e-09
-1.502230e-09
2.623780e-09
2.642220e-09
1.025160e-09
1.566670e-09
-3.331040e-10
-7.472670e-10
-1.502230e-09
-1.102730e-09
2.642220e-09
2.747510e-09
1.566670e-09
1.849020e-09
-1.839200e-09
-1.502230e-09
-6.726380e-10
7.699750e-12
1.025160e-09
1.566670e-09
2.994960e-09
2.543820e-09
-1.502230e-09
-1.102730e-09
7.699750e-12
5.744430e-10
1.566670e-09
1.849020e-09
2.543820e-09
1.688960e-09
-6.726380e-10
7.699750e-12
-4.166430e-09
-4.445970e-09
2.994960e-09
2.543820e-09
3.107880e-09
2.749190e-09
7.699750e-12
5.744430e-10
-4.445970e-09
-4.954940e-09
2.543820e-09
1.688960e-09
2.749190e-09
2.327230e-09
-4.166430e-09
-4.445970e-09
4.526810e-10
1.415370e-09
3.107880e-09
2.749190e-09
-2.848650e-09
-1.747870e-09
-4.445970e-09
-4.954940e-09
1.415370e-09
2.425420e-09
2.749190e-09
2.327230e-09
-1.747870e-09
-4.212580e-10
4.526810e-10
1.415370e-09
-8.042200e-10
-2.446410e-09
-2.848650e-09
-1.747870e-09
1.229410e-09
-2.034180e-10
1.415370e-09
2.425420e-09
-2.446410e-09
-4.280340e-09
-1.747870e-09
-4.212580e-10
-2.034180e-10
-2.002200e-09
-8.042200e-10
-2.446410e-09
5.218100e-09
5.443600e-09
1.229410e-09
-2.034180e-10
-7.873300e-09
-6.682660e-09
-2.446410e-09
-4.280340e-09
5.443600e-09
5.565710e-09
-2.034180e-10
-2.002200e-09
-6.682660e-09
-5.389940e-09
5.218100e-09
5.443600e-09
7.828130e-09
8.053290e-09
-7.873300e-09
-6.682660e-09
-8.094240e-09
-8.377390e-09
5.443600e-09
5.565710e-09
8.053290e-09
8.033360e-09
-6.682660e-09
-5.389940e-09
-8.377390e-09
-8.575400e-09
7.828130e-09
8.053290e-09
3.046020e-09
2.143850e-09
-8.094240e-09
-8.377390e-09
-3.018520e-09
-3.041180e-09
8.053290e-09
8.033360e-09
2.143850e-09
1.515150e-09
-8.377390e-09
-8.575400e-09
-3.041180e-09
-3.573330e-09
3.046020e-09
2.143850e-09
-3.917990e-09
-2.371070e-09
-3.018520e-09
-3.041180e-09
2.861410e-09
3.201890e-09
2.143850e-09
1.515150e-09
-2.371070e-09
-1.150850e-09
-3.041180e-09
-3.573330e-09
3.201890e-09
3.672510e-09
-3.917990e-09
-2.371070e-09
-4.240070e-09
-3.475520e-09
2.861410e-09
3.201890e-09
7.410800e-09
7.091130e-09
-2.371070e-09
-1.150850e-09
-3.475520e-09
-2.882030e-09
3.201890e-09
3.672510e-09
7.091130e-09
6.428850e-09
-4.240070e-09
-3.475520e-09
5.825930e-09
5.168340e-09
7.410800e-09
7.091130e-09
-2.390070e-09
-2.284400e-09
-3.475520e-09
-2.882030e-09
5.168340e-09
4.459050e-09
7.091130e-09
6.428850e-09
-2.284400e-09
-2.099420e-09
5.825930e-09
5.168340e-09
-2.141640e-09
-1.574270e-09
-2.390070e-09
-2.284400e-09
2.906580e-09
3.332790e-09
5.168340e-09
4.459050e-09
-1.574270e-09
-1.130230e-09
-2.284400e-09
-2.099420e-09
3.332790e-09
3.853190e-09
-2.141640e-09
-1.574270e-09
1.301090e-09
3.498380e-10
2.906580e-09
3.332790e-09
-4.456100e-09
-3.753390e-09
-1.574270e-09
-1.130230e-09
3.498380e-10
-6.353240e-10
3.332790e-09
3.853190e-09
-3.753390e-09
-3.426040e-09
1.301090e-09
3.498380e-10
4.026010e-10
1.126360e-09
-4.456100e-09
-3.753390e-09
9.426750e-10
2.482650e-10
3.498380e-10
-6.353240e-10
1.126360e-09
1.621210e-09
-3.753390e-09
-3.426040e-09
2.482650e-10
-3.044060e-11
4.026010e-10
1.126360e-09
-6.372880e-10
-8.503150e-10
9.426750e-10
2.482650e-10
-7.809480e-09
-6.451280e-09
1.126360e-09
1.621210e-09
-8.503150e-10
-1.003560e-09
2.482650e-10
-3.044060e-11
-6.451280e-09
-5.355570e-09
-6.372880e-10
-8.503150e-10
2.393020e-09
2.246730e-09
-7.809480e-09
-6.451280e-09
-5.139540e-09
-5.422320e-09
-8.503150e-10
-1.003560e-09
2.246730e-09
2.132800e-09
-6.451280e-09
-5.355570e-09
-5.422320e-09
-5.841640e-09
2.393020e-09
2.246730e-09
-5.014840e-09
-5.364320e-09
-5.139540e-09
-5.422320e-09
7.237000e-09
6.910230e-09
2.246730e-09
2.132800e-09
-5.364320e-09
-5.544110e-09
-5.422320e-09
-5.841640e-09
6.910230e-09
6.513300e-09
-5.014840e-09
-5.364320e-09
9.368820e-09
8.348110e-09
7.237000e-09
6.910230e-09
-9.290260e-09
-9.874980e-09
-5.364320e-09
-5.544110e-09
8.348110e-09
7.352870e-09
6.910230e-09
6.513300e-09
-9.874980e-09
-1.036750e-08
9.368820e-09
8.348110e-09
-9.404170e-09
-8.982770e-09
-9.290260e-09
-9.874980e-09
1.187570e-08
1.214460e-08
8.348110e-09
7.352870e-09
-8.982770e-09
-8.660830e-09
-9.874980e-09
-1.036750e-08
1.214460e-08
1.248060e-08
-9.404170e-09
-8.982770e-09
5.051170e-09
4.702850e-09
1.187570e-08
1.214460e-08
-5.242650e-09
-5.866910e-09
-8.982770e-09
-8.660830e-09
4.702850e-09
4.724180e-09
1.214460e-08
1.248060e-08
-5.866910e-09
-6.485800e-09
5.051170e-09
4.702850e-09
-1.615310e-09
-2.717150e-09
-5.242650e-09
-5.866910e-09
5.240690e-09
4.675380e-09
4.702850e-09
4.724180e-09
-2.717150e-09
-3.654830e-09
-5.866910e-09
-6.485800e-09
4.675380e-09
3.999500e-09
-1.615310e-09
-2.717150e-09
1.317780e-09
2.550290e-09
5.240690e-09
4.675380e-09
2.078800e-09
2.821650e-09
-2.717150e-09
-3.654830e-09
2.550290e-09
3.770700e-09
4.675380e-09
3.999500e-09
2.821650e-09
3.578240e-09
1.317780e-09
2.550290e-09
2.288930e-09
1.926620e-09
2.078800e-09
2.821650e-09
6.798060e-09
5.730720e-09
2.550290e-09
3.770700e-09
1.926620e-09
1.702710e-09
2.821650e-09
3.578240e-09
5.730720e-09
4.512080e-09
2.288930e-09
1.926620e-09
-5.147400e-09
-4.675130e-09
6.798060e-09
5.730720e-09
6.073380e-09
6.354760e-09
1.926620e-09
1.702710e-09
-4.675130e-09
-4.408970e-09
5.730720e-09
4.512080e-09
6.354760e-09
6.520170e-09
-5.147400e-09
-4.675130e-09
1.374340e-08
1.316340e-08
6.073380e-09
6.354760e-09
-1.598420e-08
-1.543690e-08
-4.675130e-09
-4.408970e-09
1.316340e-08
1.299620e-08
6.354760e-09
6.520170e-09
-1.543690e-08
-1.500420e-08
1.374340e-08
1.316340e-08
-3.125560e-09
-2.909930e-09
-1.598420e-08
-1.543690e-08
-2.418550e-09
-2.974900e-09
1.316340e-08
1.299620e-08
-2.909930e-09
-3.076460e-09
-1.543690e-08
-1.500420e-08
-2.974900e-09
-3.265000e-09
-3.125560e-09
-2.909930e-09
-9.921660e-09
-8.293360e-09
-2.418550e-09
-2.974900e-09
-2.199580e-09
-1.659420e-09
-2.909930e-09
-3.076460e-09
-8.293360e-09
-6.673360e-09
-2.974900e-09
-3.265000e-09
-1.659420e-09
-1.321710e-09
</DataArray>
<DataArray type="Float32" Name="V2" format="ascii">
0.000000e+00
0.000000e+00
-2.672610e-02
-2.672610e-02
0.000000e+00
0.000000e+00
6.066900e-02
6.066900e-02
0.000000e+00
0.000000e+00
-2.672610e-02
-2.672610e-02
0.000000e+00
0.000000e+00
6.066900e-02
6.066900e-02
-2.672610e-02
-2.672610e-02
2.987330e-03
2.987330e-03
6.066900e-02
6.066900e-02
-1.867230e-02
-1.867230e-02
-2.672610e-02
-2.672610e-02
2.987330e-03
2.987340e-03
6.066900e-02
6.066900e-02
-1.867230e-02
-1.867230e-02
2.987330e-03
2.987330e-03
3.492020e-02
3.492020e-02
-1.867230e-02
-1.867230e-02
-8.244450e-02
-8.244450e-02
2.987330e-03
2.987340e-03
3.492020e-02
3.492020e-02
-1.867230e-02
-1.867230e-02
-8.244450e-02
-8.244450e-02
3.492020e-02
3.492020e-02
-6.173940e-02
-6.173940e-02
-8.244450e-02
-8.244450e-02
7.699120e-02
7.699120e-02
3.492020e-02
3.492020e-02
-6.173940e-02
-6.173940e-02
-8.244450e-02
-8.244450e-02
7.699120e-02
7.699120e-02
-6.173940e-02
-6.173940e-02
-7.195630e-02
-7.195630e-02
7.699120e-02
7.699120e-02
1.109360e-01
1.109360e-01
-6.173940e-02
-6.173940e-02
-7.195630e-02
-7.195630e-02
7.699120e-02
7.699120e-02
1.109360e-01
1.109360e-01
-7.195630e-02
-7.195630e-02
9.122190e-02
9.122190e-02
1.109360e-01
1.109360e-01
-4.790860e-02
-4.790860e-02
-7.195630e-02
-7.195630e-02
9.122190e-02
9.122180e-02
1.109360e-01
1.109360e-01
-4.790860e-02
-4.790860e-02
9.122190e-02
9.122190e-02
4.676160e-03
4.676160e-03
-4.790860e-02
-4.790860e-02
-4.131700e-02
-4.131700e-02
9.122190e-02
9.122180e-02
4.676160e-03
4.676160e-03
-4.790860e-02
-4.790860e-02
-4.131700e-02
-4.131700e-02
4.676160e-03
4.676160e-03
-1.166310e-01
-1.166310e-01
-4.131700e-02
-4.131700e-02
5.935750e-02
5.935750e-02
4.676160e-03
4.676160e-03
-1.166310e-01
-1.166310e-01
-4.131700e-02
-4.131700e-02
5.935750e-02
5.935750e-02
-1.166310e-01
-1.166310e-01
4.138480e-02
4.138480e-02
5.935750e-02
5.935750e-02
-2.218610e-02
-2.218610e-02
-1.166310e-01
-1.166310e-01
4.138480e-02
4.138480e-02
5.935750e-02
5.935750e-02
-2.218610e-02
-2.218610e-02
4.138480e-02
4.138480e-02
1.083010e-01
1.083010e-01
-2.218610e-02
-2.218610e-02
-5.027500e-02
-5.027500e-02
4.138480e-02
4.138480e-02
1.083010e-01
1.083010e-01
-2.218610e-02
-2.218610e-02
-5.027500e-02
-5.027500e-02
1.083010e-01
1.083010e-01
7.716300e-02
7.716300e-02
-5.027500e-02
-5.027500e-02
-4.007590e-02
-4.007590e-02
1.083010e-01
1.083010e-01
7.716300e-02
7.716300e-02
-5.027500e-02
-5.027500e-02
-4.007590e-02
-4.007590e-02
7.716300e-02
7.716300e-02
-4.246570e-02
-4.246570e-02
-4.007590e-02
-4.007590e-02
1.951380e-02
1.951380e-02
7.716300e-02
7.716300e-02
-4.246570e-02
-4.246570e-02
-4.007590e-02
-4.007590e-02
1.951380e-02
1.951380e-02
-4.246570e-02
-4.246570e-02
-1.130210e-01
-1.130210e-01
1.951380e-02
1.951380e-02
4.773780e-02
4.773780e-02
-4.246570e-02
-4.246570e-02
-1.130210e-01
-1.130210e-01
1.951380e-02
1.951380e-02
4.773780e-02
4.773780e-02
-1.130210e-01
-1.130210e-01
3.523700e-02
3.523700e-02
4.773780e-02
4.773780e-02
-3.050500e-02
-3.050500e-02
-1.130210e-01
-1.130210e-01
3.523700e-02
3.523700e-02
4.773780e-02
4.773780e-02
-3.050500e-02
-3.050500e-02
3.523700e-02
3.523700e-02
3.928000e-02
3.928000e-02
-3.050500e-02
-3.050500e-02
6.828690e-03
6.828700e-03
3.523700e-02
3.523700e-02
3.928000e-02
3.928000e-02
-3.050500e-02
-3.050500e-02
6.828700e-03
6.828700e-03
3.928000e-02
3.928000e-02
6.540430e-02
6.540430e-02
6.828690e-03
6.828700e-03
-1.532190e-02
-1.532190e-02
3.928000e-02
3.928000e-02
6.540430e-02
6.540430e-02
6.828700e-03
6.828700e-03
-1.532190e-02
-1.532190e-02
6.540430e-02
6.540430e-02
6.698300e-02
6.698310e-02
-1.532190e-02
-1.532190e-02
-5.194170e-02
-5.194170e-02
6.540430e-02
6.540430e-02
6.698310e-02
6.698310e-02
-1.532190e-02
-1.532190e-02
-5.194170e-02
-5.194170e-02
6.698300e-02
6.698310e-02
-1.057180e-01
-1.057180e-01
-5.194170e-02
-5.194170e-02
5.464080e-02
5.464080e-02
6.698310e-02
6.698310e-02
-1.057180e-01
-1.057180e-01
-5.194170e-02
-5.194170e-02
5.464080e-02
5.464080e-02
-1.057180e-01
-1.057180e-01
-4.248580e-02
-4.248580e-02
5.464080e-02
5.464080e-02
2.934490e-03
2.934500e-03
-1.057180e-01
-1.057180e-01
-4.248580e-02
-4.248580e-02
5.464080e-02
5.464080e-02
2.934500e-03
2.934500e-03
-4.248580e-02
-4.248580e-02
-1.994680e-02
-1.994680e-02
2.934490e-03
2.934500e-03
2.332210e-02
2.332210e-02
-4.248580e-02
-4.248580e-02
-1.994680e-02
-1.994680e-02
2.934500e-03
2.934500e-03
2.332210e-02
2.332210e-02
-1.994680e-02
-1.994680e-02
1.262260e-01
1.262260e-01
2.332210e-02
2.332210e-02
-7.360840e-02
-7.360840e-02
-1.994680e-02
-1.994680e-02
1.262260e-01
1.262260e-01
2.332210e-02
2.332210e-02
-7.360840e-02
-7.360840e-02
1.262260e-01
1.262260e-01
7.330700e-02
7.330700e-02
-7.360840e-02
-7.360840e-02
-2.489850e-02
-2.489850e-02
1.262260e-01
1.262260e-01
7.330700e-02
7.330700e-02
-7.360840e-02
-7.360840e-02
-2.489850e-02
-2.489850e-02
7.330700e-02
7.330700e-02
-7.008900e-02
-7.008900e-02
-2.489850e-02
-2.489850e-02
2.976630e-02
2.976630e-02
7.330700e-02
7.330700e-02
-7.008900e-02
-7.008900e-02
-2.489850e-02
-2.489850e-02
2.976630e-02
2.976630e-02
-7.008900e-02
-7.008900e-02
-7.364460e-02
-7.364460e-02
2.976630e-02
2.976630e-02
4.114310e-02
4.114310e-02
-7.008900e-02
-7.008900e-02
-7.364460e-02
-7.364460e-02
2.976630e-02
2.976630e-02
4.114310e-02
4.114310e-02
-7.364460e-02
-7.364460e-02
-2.631390e-02
-2.631380e-02
4.114310e-02
4.114310e-02
4.874320e-02
4.874320e-02
-7.364460e-02
-7.364460e-02
-2.631380e-02
-2.631380e-02
4.114310e-02
4.114310e-02
4.874320e-02
4.874320e-02
-2.631390e-02
-2.631380e-02
1.011680e-01
1.011680e-01
4.874320e-02
4.874320e-02
-7.311680e-02
-7.311680e-02
-2.631380e-02
-2.631380e-02
1.011680e-01
1.011680e-01
4.874320e-02
4.874320e-02
-7.311680e-02
-7.311680e-02
1.011680e-01
1.011680e-01
2.023920e-03
2.023930e-03
-7.311680e-02
-7.311680e-02
5.439240e-03
5.439230e-03
1.011680e-01
1.011680e-01
2.023930e-03
2.023930e-03
-7.311680e-02
-7.311680e-02
5.439230e-03
5.439240e-03
2.023920e-03
2.023930e-03
-6.374490e-02
-6.374490e-02
5.439240e-03
5.439230e-03
1.443900e-02
1.443900e-02
2.023930e-03
2.023930e-03
-6.374490e-02
-6.374490e-02
5.439230e-03
5.439240e-03
1.443900e-02
1.443900e-02
-6.374490e-02
-6.374490e-02
2.189520e-02
2.189520e-02
1.443900e-02
1.443900e-02
-1.521870e-02
-1.521870e-02
-6.374490e-02
-6.374490e-02
2.189520e-02
2.189520e-02
1.443900e-02
1.443900e-02
-1.521870e-02
-1.521860e-02
2.189520e-02
2.189520e-02
1.485830e-01
1.485830e-01
-1.521870e-02
-1.521870e-02
-8.482240e-02
-8.482240e-02
2.189520e-02
2.189520e-02
1.485830e-01
1.485830e-01
-1.521870e-02
-1.521860e-02
-8.482240e-02
-8.482240e-02
0.000000e+00
0.000000e+00
6.066900e-02
6.066900e-02
0.000000e+00
0.000000e+00
-9.316660e-02
-9.316660e-02
0.000000e+00
0.000000e+00
6.066900e-02
6.066900e-02
0.000000e+00
0.000000e+00
-9.316660e-02
-9.316660e-02
6.066900e-02
6.066900e-02
-1.867230e-02
-1.867230e-02
-9.316660e-02
-9.316660e-02
3.323000e-02
3.323000e-02
6.066900e-02
6.066900e-02
-1.867230e-02
-1.867230e-02
-9.316660e-02
-9.316660e-02
3.323000e-02
3.323000e-02