<?xml version="1.0"?>
<!-- time 22.1826-->
<VTKFile type="UnstructuredGrid" version="0.1" byte_order="LittleEndian">
<UnstructuredGrid>
<Piece NumberOfPoints="120" NumberOfCells="0">
<Points>
  <DataArray type="Float32" Name="Position" NumberOfComponents="3" format="ascii">
	-200 2200 -200
	-200 2200 200
	200 2200 -200
	200 2200 200
	-200 2600 -200
	-200 2600 200
	200 2600 -200
	200 2600 200
	-200 3000 -200
	-200 3000 200
	200 3000 -200
	200 3000 200
	-200 3400 -200
	-200 3400 200
	200 3400 -200
	200 3400 200
	-200 3800 -200
	-200 3800 200
	200 3800 -200
	200 3800 200
	-200 4200 -200
	-200 4200 200
	200 4200 -200
	200 4200 200
	-200 4600 -200
	-200 4600 200
	200 4600 -200
	200 4600 200
	-200 5000 -200
	-200 5000 200
	200 5000 -200
	200 5000 200
	-200 5400 -200
	-200 5400 200
	200 5400 -200
	200 5400 200
	-200 5800 -200
	-200 5800 200
	200 5800 -200
	200 5800 200
	-200 6200 -200
	-200 6200 200
	200 6200 -200
	200 6200 200
	-200 6600 -200
	-200 6600 200
	200 6600 -200
	200 6600 200
	-200 6999.99 -200
	-200 6999.99 200
	200 6999.99 -200
	200 6999.99 200
	-200 7399.98 -200
	-200 7399.98 200
	200 7399.98 -200
	200 7399.98 200
	-200 7799.96 -200
	-200 7799.96 200
	200 7799.96 -200
	200 7799.96 200
	-200 8199.91 -200
	-200 8199.91 200
	200 8199.91 -200
	200 8199.91 200
	-200 8599.84 -200
	-200 8599.84 200
	200 8599.84 -200
	200 8599.84 200
	-200 8999.79 -200
	-200 8999.79 200
	200 8999.79 -200
	200 8999.79 200
	-200 9399.78 -200
	-200 9399.78 200
	200 9399.78 -200
	200 9399.78 200
	-200 9799.79 -200
	-200 9799.79 200
	200 9799.79 -200
	200 9799.79 200
	-200 10199.8 -200
	-200 10199.8 200
	200 10199.8 -200
	200 10199.8 200
	-200 10599.8 -200
	-200 10599.8 200
	200 10599.8 -200
	200 10599.8 200
	-200 10999.8 -200
	-200 10999.8 200
	200 10999.8 -200
	200 10999.8 200
	-200 11399.8 -200
	-200 11399.8 200
	200 11399.8 -200
	200 11399.8 200
	-200 11799.8 -200
	-200 11799.8 200
	200 11799.8 -200
	200 11799.8 200
	-200 12199.9 -200
	-200 12199.9 200
	200 12199.9 -200
	200 12199.9 200
	-200 12599.9 -200
	-200 12599.9 200
	200 12599.9 -200
	200 12599.9 200
	-200 12999.9 -200
	-200 12999.9 200
	200 12999.9 -200
	200 12999.9 200
	-200 13400 -200
	-200 13400 200
	200 13400 -200
	200 13400 200
	-200 13800.1 -200
	-200 13800.1 200
	200 13800.1 -200
	200 13800.1 200
  </DataArray>
</Points>
<PointData  Vectors="vector">
  <DataArray type="Float32" Name="Velocity" NumberOfComponents="3" format="ascii">
 1.17225e-16 7.23e-14 -4.52191e-16
 1.1823e-16 7.23e-14 -4.66771e-16
 1.02575e-16 7.23e-14 -9.37558e-16
 1.03579e-16 7.23e-14 -9.52117e-16
 2.53996e-16 -2.94288e-13 -2.88565e-16
 -2.80387e-16 -2.94288e-13 -4.45082e-16
 9.08896e-17 -2.94288e-13 6.13231e-17
 -4.43499e-16 -2.94288e-13 -9.51346e-17
 -1.35486e-15 -3.49724e-12 -1.61112e-15
 -1.78416e-15 -3.49724e-12 1.39896e-15
 1.70945e-15 -3.49724e-12 -1.65262e-15
 1.28035e-15 -3.49724e-12 1.35445e-15
 -3.77466e-15 1.01813e-10 1.28089e-15
 -3.32633e-15 1.01813e-10 6.27058e-15
 3.77178e-15 1.01813e-10 7.25458e-16
 4.22973e-15 1.01813e-10 5.7304e-15
 3.53604e-13 -1.51665e-09 3.22113e-13
 3.54369e-13 -1.51665e-09 -3.49631e-13
 -3.54734e-13 -1.51665e-09 3.23458e-13
 -3.5426e-13 -1.51665e-09 -3.49725e-13
 -4.26715e-14 -3.22572e-08 -6.75192e-13
 -2.85472e-14 -3.22572e-08 5.34025e-14
 2.69315e-14 -3.22572e-08 -6.2044e-13
 2.75658e-14 -3.22572e-08 8.95008e-14
 1.52336e-11 -3.29642e-07 1.42489e-11
 1.53619e-11 -3.29642e-07 -1.54015e-11
 -1.53856e-11 -3.29642e-07 1.469e-11
 -1.53658e-11 -3.29642e-07 -1.48809e-11
 5.01346e-10 -2.39324e-06 5.01038e-10
 5.01358e-10 -2.39324e-06 -5.01935e-10
 -5.01348e-10 -2.39324e-06 5.01495e-10
 -5.01358e-10 -2.39324e-06 -5.01185e-10
 1.08657e-09 -1.37251e-05 1.08662e-09
 1.08645e-09 -1.37251e-05 -1.08699e-09
 -1.08641e-09 -1.37251e-05 1.08696e-09
 -1.08643e-09 -1.37251e-05 -1.08656e-09
 -3.72763e-10 -7.18454e-05 -3.72849e-10
 -3.72795e-10 -7.18454e-05 3.72718e-10
 3.72724e-10 -7.18454e-05 -3.72575e-10
 3.72791e-10 -7.18454e-05 3.73014e-10
 -2.33674e-09 -0.000354662 -2.33674e-09
 -2.33673e-09 -0.000354662 2.33663e-09
 2.33659e-09 -0.000354662 -2.33648e-09
 2.33671e-09 -0.000354662 2.33686e-09
 9.11018e-16 -0.00140561 9.11162e-16
 9.11008e-16 -0.00140561 -9.11233e-16
 -9.11e-16 -0.00140561 9.11052e-16
 -9.11008e-16 -0.00140561 -9.11434e-16
 0 -0.00466662 0
 0 -0.00466662 0
 0 -0.00466662 0
 0 -0.00466662 0
 0 -0.012642 0
 0 -0.012642 0
 0 -0.012642 0
 0 -0.012642 0
 0 -0.0268543 0
 0 -0.0268543 0
 0 -0.0268543 0
 0 -0.0268543 0
 0 -0.0419111 0
 0 -0.0419111 0
 0 -0.0419111 0
 0 -0.0419111 0
 0 -0.0423466 0
 0 -0.0423466 0
 0 -0.0423466 0
 0 -0.0423466 0
 0 -0.0195393 0
 0 -0.0195393 0
 0 -0.0195393 0
 0 -0.0195393 0
 0 0.000686931 0
 0 0.000686931 0
 0 0.000686931 0
 0 0.000686931 0
 0 0.00196363 0
 0 0.00196363 0
 0 0.00196363 0
 0 0.00196363 0
 0 0.00211781 0
 0 0.00211781 0
 0 0.00211781 0
 0 0.00211781 0
 0 0.00230146 0
 0 0.00230146 0
 0 0.00230146 0
 0 0.00230146 0
 0 0.00252559 0
 0 0.00252559 0
 0 0.00252559 0
 0 0.00252559 0
 0 0.00280567 0
 0 0.00280567 0
 0 0.00280567 0
 0 0.00280567 0
 0 0.00316767 0
 0 0.00316767 0
 0 0.00316767 0
 0 0.00316767 0
 0 0.00365528 0
 0 0.00365528 0
 0 0.00365528 0
 0 0.00365528 0
 0 0.00435702 0
 0 0.00435702 0
 0 0.00435702 0
 0 0.00435702 0
 0 0.00546489 0
 0 0.00546489 0
 0 0.00546489 0
 0 0.00546489 0
 0 0.00754097 0
 0 0.00754097 0
 0 0.00754097 0
 0 0.00754097 0
 0 0.0132279 0
 0 0.0132279 0
 0 0.0132279 0
 0 0.0132279 0
  </DataArray>
  <DataArray type="Float32" Name="Radius" format="ascii">
	200
	200
	200
	200
	200
	200
	200
	200
	200
	200
	200
	200
	200
	200
	200
	200
	200
	200
	200
	200
	200
	200
	200
	200
	200
	200
	200
	200
	200
	200
	200
	200
	200
	200
	200
	200
	200
	200
	200
	200
	200
	200
	200
	200
	200
	200
	200
	200
	200
	200
	200
	200
	200
	200
	200
	200
	200
	200
	200
	200
	200
	200
	200
	200
	200
	200
	200
	200
	200
	200
	200
	200
	200
	200
	200
	200
	200
	200
	200
	200
	200
	200
	200
	200
	200
	200
	200
	200
	200
	200
	200
	200
	200
	200
	200
	200
	200
	200
	200
	200
	200
	200
	200
	200
	200
	200
	200
	200
	200
	200
	200
	200
	200
	200
	200
	200
	200
	200
	200
	200
  </DataArray>
  <DataArray type="Float32" Name="speciesType" format="ascii">
	0
	0
	0
	0
	0
	0
	0
	0
	0
	0
	0
	0
	0
	0
	0
	0
	0
	0
	0
	0
	0
	0
	0
	0
	0
	0
	0
	0
	0
	0
	0
	0
	0
	0
	0
	0
	0
	0
	0
	0
	0
	0
	0
	0
	0
	0
	0
	0
	0
	0
	0
	0
	0
	0
	0
	0
	0
	0
	0
	0
	0
	0
	0
	0
	0
	0
	0
	0
	0
	0
	0
	0
	0
	0
	0
	0
	0
	0
	0
	0
	0
	0
	0
	0
	0
	0
	0
	0
	0
	0
	0
	0
	0
	0
	0
	0
	0
	0
	0
	0
	0
	0
	0
	0
	0
	0
	0
	0
	0
	0
	0
	0
	0
	0
	0
	0
	0
	0
	0
	0
  </DataArray>
</PointData>
<Cells>
  <DataArray type="Int32" Name="connectivity" format="ascii">
  </DataArray>
  <DataArray type="Int32" Name="offsets" format="ascii">
  </DataArray>
  <DataArray type="UInt8"  Name="types" format="ascii">
  </DataArray>
</Cells>
</Piece>
</UnstructuredGrid>
</VTKFile>
