<?xml version="1.0"?>
<VTKFile type="UnstructuredGrid" version="0.1" byte_order="LittleEndian" compressor="vtkZLibDataCompressor">
<UnstructuredGrid>
<Piece NumberOfPoints="960" NumberOfCells="120">
<Points>
<DataArray type="Float32" NumberOfComponents="3" format="ascii">
-4.000000e+02 -6.000000e+03 -4.000000e+02
0.000000e+00 -6.000000e+03 -4.000000e+02
-4.000000e+02 -5.600050e+03 -4.000000e+02
-1.275700e-10 -5.600050e+03 -4.000000e+02
-4.000000e+02 -6.000000e+03 0.000000e+00
0.000000e+00 -6.000000e+03 0.000000e+00
-4.000000e+02 -5.600050e+03 2.535710e-11
3.273050e-11 -5.600050e+03 -5.740740e-11
0.000000e+00 -6.000000e+03 -4.000000e+02
4.000000e+02 -6.000000e+03 -4.000000e+02
-1.275700e-10 -5.600050e+03 -4.000000e+02
4.000000e+02 -5.600050e+03 -4.000000e+02
0.000000e+00 -6.000000e+03 0.000000e+00
4.000000e+02 -6.000000e+03 0.000000e+00
3.273050e-11 -5.600050e+03 -5.740740e-11
4.000000e+02 -5.600050e+03 4.669930e-11
-4.000000e+02 -5.600050e+03 -4.000000e+02
-1.275700e-10 -5.600050e+03 -4.000000e+02
-4.000000e+02 -5.200090e+03 -4.000000e+02
-2.417990e-10 -5.200090e+03 -4.000000e+02
-4.000000e+02 -5.600050e+03 2.535710e-11
3.273050e-11 -5.600050e+03 -5.740740e-11
-4.000000e+02 -5.200090e+03 2.489550e-11
-1.478360e-10 -5.200090e+03 -9.138940e-11
-1.275700e-10 -5.600050e+03 -4.000000e+02
4.000000e+02 -5.600050e+03 -4.000000e+02
-2.417990e-10 -5.200090e+03 -4.000000e+02
4.000000e+02 -5.200090e+03 -4.000000e+02
3.273050e-11 -5.600050e+03 -5.740740e-11
4.000000e+02 -5.600050e+03 4.669930e-11
-1.478360e-10 -5.200090e+03 -9.138940e-11
4.000000e+02 -5.200090e+03 -5.820140e-11
-4.000000e+02 -5.200090e+03 -4.000000e+02
-2.417990e-10 -5.200090e+03 -4.000000e+02
-4.000000e+02 -4.800130e+03 -4.000000e+02
-3.637700e-10 -4.800130e+03 -4.000000e+02
-4.000000e+02 -5.200090e+03 2.489550e-11
-1.478360e-10 -5.200090e+03 -9.138940e-11
-4.000000e+02 -4.800130e+03 -2.016100e-10
-2.549330e-10 -4.800130e+03 -1.376730e-10
-2.417990e-10 -5.200090e+03 -4.000000e+02
4.000000e+02 -5.200090e+03 -4.000000e+02
-3.637700e-10 -4.800130e+03 -4.000000e+02
4.000000e+02 -4.800130e+03 -4.000000e+02
-1.478360e-10 -5.200090e+03 -9.138940e-11
4.000000e+02 -5.200090e+03 -5.820140e-11
-2.549330e-10 -4.800130e+03 -1.376730e-10
4.000000e+02 -4.800130e+03 -3.048030e-10
-4.000000e+02 -4.800130e+03 -4.000000e+02
-3.637700e-10 -4.800130e+03 -4.000000e+02
-4.000000e+02 -4.400160e+03 -4.000000e+02
-4.253920e-10 -4.400160e+03 -4.000000e+02
-4.000000e+02 -4.800130e+03 -2.016100e-10
-2.549330e-10 -4.800130e+03 -1.376730e-10
-4.000000e+02 -4.400160e+03 -1.459540e-10
-3.706360e-10 -4.400160e+03 -2.747540e-10
-3.637700e-10 -4.800130e+03 -4.000000e+02
4.000000e+02 -4.800130e+03 -4.000000e+02
-4.253920e-10 -4.400160e+03 -4.000000e+02
4.000000e+02 -4.400160e+03 -4.000000e+02
-2.549330e-10 -4.800130e+03 -1.376730e-10
4.000000e+02 -4.800130e+03 -3.048030e-10
-3.706360e-10 -4.400160e+03 -2.747540e-10
4.000000e+02 -4.400160e+03 -3.503070e-10
-4.000000e+02 -4.400160e+03 -4.000000e+02
-4.253920e-10 -4.400160e+03 -4.000000e+02
-4.000000e+02 -4.000170e+03 -4.000000e+02
-3.968320e-10 -4.000170e+03 -4.000000e+02
-4.000000e+02 -4.400160e+03 -1.459540e-10
-3.706360e-10 -4.400160e+03 -2.747540e-10
-4.000000e+02 -4.000170e+03 -9.913580e-11
-4.177440e-10 -4.000170e+03 -1.546150e-10
-4.253920e-10 -4.400160e+03 -4.000000e+02
4.000000e+02 -4.400160e+03 -4.000000e+02
-3.968320e-10 -4.000170e+03 -4.000000e+02
4.000000e+02 -4.000170e+03 -4.000000e+02
-3.706360e-10 -4.400160e+03 -2.747540e-10
4.000000e+02 -4.400160e+03 -3.503070e-10
-4.177440e-10 -4.000170e+03 -1.546150e-10
4.000000e+02 -4.000170e+03 -1.176190e-10
-4.000000e+02 -4.000170e+03 -4.000000e+02
-3.968320e-10 -4.000170e+03 -4.000000e+02
-4.000000e+02 -3.600180e+03 -4.000000e+02
-2.867520e-10 -3.600180e+03 -4.000000e+02
-4.000000e+02 -4.000170e+03 -9.913580e-11
-4.177440e-10 -4.000170e+03 -1.546150e-10
-4.000000e+02 -3.600180e+03 -2.026820e-10
-2.408500e-10 -3.600180e+03 -9.759560e-11
-3.968320e-10 -4.000170e+03 -4.000000e+02
4.000000e+02 -4.000170e+03 -4.000000e+02
-2.867520e-10 -3.600180e+03 -4.000000e+02
4.000000e+02 -3.600180e+03 -4.000000e+02
-4.177440e-10 -4.000170e+03 -1.546150e-10
4.000000e+02 -4.000170e+03 -1.176190e-10
-2.408500e-10 -3.600180e+03 -9.759560e-11
4.000000e+02 -3.600180e+03 -1.953790e-10
-4.000000e+02 -3.600180e+03 -4.000000e+02
-2.867520e-10 -3.600180e+03 -4.000000e+02
-4.000000e+02 -3.200190e+03 -4.000000e+02
-1.799190e-10 -3.200190e+03 -4.000000e+02
-4.000000e+02 -3.600180e+03 -2.026820e-10
-2.408500e-10 -3.600180e+03 -9.759560e-11
-4.000000e+02 -3.200190e+03 -1.250930e-10
-2.129030e-10 -3.200190e+03 -4.101690e-13
-2.867520e-10 -3.600180e+03 -4.000000e+02
4.000000e+02 -3.600180e+03 -4.000000e+02
-1.799190e-10 -3.200190e+03 -4.000000e+02
4.000000e+02 -3.200190e+03 -4.000000e+02
-2.408500e-10 -3.600180e+03 -9.759560e-11
4.000000e+02 -3.600180e+03 -1.953790e-10
-2.129030e-10 -3.200190e+03 -4.101690e-13
4.000000e+02 -3.200190e+03 4.010220e-11
-4.000000e+02 -3.200190e+03 -4.000000e+02
-1.799190e-10 -3.200190e+03 -4.000000e+02
-4.000000e+02 -2.800190e+03 -4.000000e+02
-1.005280e-10 -2.800190e+03 -4.000000e+02
-4.000000e+02 -3.200190e+03 -1.250930e-10
-2.129030e-10 -3.200190e+03 -4.101690e-13
-4.000000e+02 -2.800190e+03 -1.523150e-12
-9.807220e-11 -2.800190e+03 4.190740e-11
-1.799190e-10 -3.200190e+03 -4.000000e+02
4.000000e+02 -3.200190e+03 -4.000000e+02
-1.005280e-10 -2.800190e+03 -4.000000e+02
4.000000e+02 -2.800190e+03 -4.000000e+02
-2.129030e-10 -3.200190e+03 -4.101690e-13
4.000000e+02 -3.200190e+03 4.010220e-11
-9.807220e-11 -2.800190e+03 4.190740e-11
4.000000e+02 -2.800190e+03 1.409160e-10
-4.000000e+02 -2.800190e+03 -4.000000e+02
-1.005280e-10 -2.800190e+03 -4.000000e+02
-4.000000e+02 -2.400200e+03 -4.000000e+02
9.143420e-11 -2.400200e+03 -4.000000e+02
-4.000000e+02 -2.800190e+03 -1.523150e-12
-9.807220e-11 -2.800190e+03 4.190740e-11
-4.000000e+02 -2.400200e+03 1.811000e-10
-7.292560e-11 -2.400200e+03 1.646370e-10
-1.005280e-10 -2.800190e+03 -4.000000e+02
4.000000e+02 -2.800190e+03 -4.000000e+02
9.143420e-11 -2.400200e+03 -4.000000e+02
4.000000e+02 -2.400200e+03 -4.000000e+02
-9.807220e-11 -2.800190e+03 4.190740e-11
4.000000e+02 -2.800190e+03 1.409160e-10
-7.292560e-11 -2.400200e+03 1.646370e-10
4.000000e+02 -2.400200e+03 6.276230e-11
-4.000000e+02 -2.400200e+03 -4.000000e+02
9.143420e-11 -2.400200e+03 -4.000000e+02
-4.000000e+02 -2.000200e+03 -4.000000e+02
-7.378110e-11 -2.000200e+03 -4.000000e+02
-4.000000e+02 -2.400200e+03 1.811000e-10
-7.292560e-11 -2.400200e+03 1.646370e-10
-4.000000e+02 -2.000200e+03 1.427160e-10
-6.175270e-11 -2.000200e+03 2.003750e-10
9.143420e-11 -2.400200e+03 -4.000000e+02
4.000000e+02 -2.400200e+03 -4.000000e+02
-7.378110e-11 -2.000200e+03 -4.000000e+02
4.000000e+02 -2.000200e+03 -4.000000e+02
-7.292560e-11 -2.400200e+03 1.646370e-10
4.000000e+02 -2.400200e+03 6.276230e-11
-6.175270e-11 -2.000200e+03 2.003750e-10
4.000000e+02 -2.000200e+03 2.531740e-10
-4.000000e+02 -2.000200e+03 -4.000000e+02
-7.378110e-11 -2.000200e+03 -4.000000e+02
-4.000000e+02 -1.600200e+03 -4.000000e+02
-5.066660e-11 -1.600200e+03 -4.000000e+02
-4.000000e+02 -2.000200e+03 1.427160e-10
-6.175270e-11 -2.000200e+03 2.003750e-10
-4.000000e+02 -1.600200e+03 1.547510e-10
-3.640270e-11 -1.600200e+03 1.740660e-10
-7.378110e-11 -2.000200e+03 -4.000000e+02
4.000000e+02 -2.000200e+03 -4.000000e+02
-5.066660e-11 -1.600200e+03 -4.000000e+02
4.000000e+02 -1.600200e+03 -4.000000e+02
-6.175270e-11 -2.000200e+03 2.003750e-10
4.000000e+02 -2.000200e+03 2.531740e-10
-3.640270e-11 -1.600200e+03 1.740660e-10
4.000000e+02 -1.600200e+03 1.925200e-10
-4.000000e+02 -1.600200e+03 -4.000000e+02
-5.066660e-11 -1.600200e+03 -4.000000e+02
-4.000000e+02 -1.200200e+03 -4.000000e+02
-6.013080e-11 -1.200200e+03 -4.000000e+02
-4.000000e+02 -1.600200e+03 1.547510e-10
-3.640270e-11 -1.600200e+03 1.740660e-10
-4.000000e+02 -1.200200e+03 3.093260e-10
-7.122050e-11 -1.200200e+03 2.554890e-10
-5.066660e-11 -1.600200e+03 -4.000000e+02
4.000000e+02 -1.600200e+03 -4.000000e+02
-6.013080e-11 -1.200200e+03 -4.000000e+02
4.000000e+02 -1.200200e+03 -4.000000e+02
-3.640270e-11 -1.600200e+03 1.740660e-10
4.000000e+02 -1.600200e+03 1.925200e-10
-7.122050e-11 -1.200200e+03 2.554890e-10
4.000000e+02 -1.200200e+03 1.981800e-10
-4.000000e+02 -1.200200e+03 -4.000000e+02
-6.013080e-11 -1.200200e+03 -4.000000e+02
-4.000000e+02 -8.002050e+02 -4.000000e+02
-1.365770e-10 -8.002050e+02 -4.000000e+02
-4.000000e+02 -1.200200e+03 3.093260e-10
-7.122050e-11 -1.200200e+03 2.554890e-10
-4.000000e+02 -8.002050e+02 1.601490e-10
-1.050760e-10 -8.002050e+02 1.787940e-10
-6.013080e-11 -1.200200e+03 -4.000000e+02
4.000000e+02 -1.200200e+03 -4.000000e+02
-1.365770e-10 -8.002050e+02 -4.000000e+02
4.000000e+02 -8.002050e+02 -4.000000e+02
-7.122050e-11 -1.200200e+03 2.554890e-10
4.000000e+02 -1.200200e+03 1.981800e-10
-1.050760e-10 -8.002050e+02 1.787940e-10
4.000000e+02 -8.002050e+02 1.106370e-10
-4.000000e+02 -8.002050e+02 -4.000000e+02
-1.365770e-10 -8.002050e+02 -4.000000e+02
-4.000000e+02 -4.002070e+02 -4.000000e+02
-1.401430e-10 -4.002070e+02 -4.000000e+02
-4.000000e+02 -8.002050e+02 1.601490e-10
-1.050760e-10 -8.002050e+02 1.787940e-10
-4.000000e+02 -4.002070e+02 1.268040e-10
-1.278290e-10 -4.002070e+02 1.006930e-10
-1.365770e-10 -8.002050e+02 -4.000000e+02
4.000000e+02 -8.002050e+02 -4.000000e+02
-1.401430e-10 -4.002070e+02 -4.000000e+02
4.000000e+02 -4.002070e+02 -4.000000e+02
-1.050760e-10 -8.002050e+02 1.787940e-10
4.000000e+02 -8.002050e+02 1.106370e-10
-1.278290e-10 -4.002070e+02 1.006930e-10
4.000000e+02 -4.002070e+02 -9.816860e-12
-4.000000e+02 -4.002070e+02 -4.000000e+02
-1.401430e-10 -4.002070e+02 -4.000000e+02
-4.000000e+02 -2.079590e-01 -4.000000e+02
-1.489230e-10 -2.079590e-01 -4.000000e+02
-4.000000e+02 -4.002070e+02 1.268040e-10
-1.278290e-10 -4.002070e+02 1.006930e-10
-4.000000e+02 -2.079590e-01 1.255610e-10
-9.065450e-11 -2.079590e-01 5.650570e-11
-1.401430e-10 -4.002070e+02 -4.000000e+02
4.000000e+02 -4.002070e+02 -4.000000e+02
[...]
<PointData>
<DataArray type="Float32" Name="V1" format="ascii">
0.000000e+00
0.000000e+00
1.393200e-08
-2.585620e-12
0.000000e+00
0.000000e+00
1.336640e-08
3.969170e-11
0.000000e+00
0.000000e+00
-2.585620e-12
-1.375910e-08
0.000000e+00
0.000000e+00
3.969170e-11
-1.328780e-08
1.393200e-08
-2.585620e-12
-5.215350e-08
-1.866230e-10
1.336640e-08
3.969170e-11
-5.135620e-08
1.609080e-10
-2.585620e-12
-1.375910e-08
-1.866230e-10
5.184320e-08
3.969170e-11
-1.328780e-08
1.609080e-10
5.181960e-08
-5.215350e-08
-1.866230e-10
9.273180e-08
-4.651180e-11
-5.135620e-08
1.609080e-10
9.240970e-08
-1.062000e-10
-1.866230e-10
5.184320e-08
-4.651180e-11
-9.275530e-08
1.609080e-10
5.181960e-08
-1.062000e-10
-9.265320e-08
9.273180e-08
-4.651180e-11
-6.978940e-08
-1.906700e-10
9.240970e-08
-1.062000e-10
-6.982870e-08
4.939040e-11
-4.651180e-11
-9.275530e-08
-1.906700e-10
6.958510e-08
-1.062000e-10
-9.265320e-08
4.939040e-11
6.989150e-08
-6.978940e-08
-1.906700e-10
-6.116390e-08
-4.665310e-11
-6.982870e-08
4.939040e-11
-6.040190e-08
1.115150e-11
-1.906700e-10
6.958510e-08
-4.665310e-11
6.105390e-08
4.939040e-11
6.989150e-08
1.115150e-11
6.062190e-08
-6.116390e-08
-4.665310e-11
2.235280e-07
1.104200e-11
-6.040190e-08
1.115150e-11
2.216780e-07
1.337130e-11
-4.665310e-11
6.105390e-08
1.104200e-11
-2.234420e-07
1.115150e-11
6.062190e-08
1.337130e-11
-2.217290e-07
2.235280e-07
1.104200e-11
-2.081470e-07
1.906340e-10
2.216780e-07
1.337130e-11
-2.053420e-07
-9.241910e-11
1.104200e-11
-2.234420e-07
1.906340e-10
2.083740e-07
1.337130e-11
-2.217290e-07
-9.241910e-11
2.051460e-07
-2.081470e-07
1.906340e-10
-6.801400e-08
-1.243380e-10
-2.053420e-07
-9.241910e-11
-7.018610e-08
-1.050030e-10
1.906340e-10
2.083740e-07
-1.243380e-10
6.786480e-08
-9.241910e-11
2.051460e-07
-1.050030e-10
6.989540e-08
-6.801400e-08
-1.243380e-10
2.912280e-07
2.130740e-11
-7.018610e-08
-1.050030e-10
2.910750e-07
6.934190e-11
-1.243380e-10
6.786480e-08
2.130740e-11
-2.911450e-07
-1.050030e-10
6.989540e-08
6.934190e-11
-2.909140e-07
2.912280e-07
2.130740e-11
-1.203870e-07
1.250690e-10
2.910750e-07
6.934190e-11
-1.181600e-07
-3.244750e-11
2.130740e-11
-2.911450e-07
1.250690e-10
1.206940e-07
6.934190e-11
-2.909140e-07
-3.244750e-11
1.181370e-07
-1.203870e-07
1.250690e-10
-1.987040e-07
-5.890260e-11
-1.181600e-07
-3.244750e-11
-1.997650e-07
9.422670e-12
1.250690e-10
1.206940e-07
-5.890260e-11
1.987630e-07
-3.244750e-11
1.181370e-07
9.422670e-12
1.997060e-07
-1.987040e-07
-5.890260e-11
1.888920e-07
5.353160e-11
-1.997650e-07
9.422670e-12
1.880400e-07
-4.304370e-11
-5.890260e-11
1.987630e-07
5.353160e-11
-1.888020e-07
9.422670e-12
1.997060e-07
-4.304370e-11
-1.880910e-07
1.888920e-07
5.353160e-11
1.636010e-07
-8.175330e-11
1.880400e-07
-4.304370e-11
1.626040e-07
9.550490e-12
5.353160e-11
-1.888020e-07
-8.175330e-11
-1.635740e-07
-4.304370e-11
-1.880910e-07
9.550490e-12
-1.625880e-07
1.636010e-07
-8.175330e-11
-2.888470e-07
-9.685780e-11
1.626040e-07
9.550490e-12
-2.886630e-07
-9.404060e-12
-8.175330e-11
-1.635740e-07
-9.685780e-11
2.887530e-07
9.550490e-12
-1.625880e-07
-9.404060e-12
2.886470e-07
-2.888470e-07
-9.685780e-11
-1.654830e-07
7.536860e-11
-2.886630e-07
-9.404060e-12
-1.665510e-07
-2.106650e-11
-9.685780e-11
2.887530e-07
7.536860e-11
1.656080e-07
-9.404060e-12
2.886470e-07
-2.106650e-11
1.664730e-07
-1.654830e-07
7.536860e-11
1.931820e-07
6.577680e-11
-1.665510e-07
-2.106650e-11
1.950120e-07
4.023770e-11
7.536860e-11
1.656080e-07
6.577680e-11
-1.931700e-07
-2.106650e-11
1.664730e-07
4.023770e-11
-1.949100e-07
1.931820e-07
6.577680e-11
2.383630e-07
-4.238570e-11
1.950120e-07
4.023770e-11
2.388970e-07
-4.597850e-11
6.577680e-11
-1.931700e-07
-4.238570e-11
-2.384180e-07
4.023770e-11
-1.949100e-07
-4.597850e-11
-2.389010e-07
2.383630e-07
-4.238570e-11
4.535840e-08
-4.177430e-11
2.388970e-07
-4.597850e-11
4.557840e-08
-1.282790e-11
-4.238570e-11
-2.384180e-07
-4.177430e-11
-4.535450e-08
-4.597850e-11
-2.389010e-07
-1.282790e-11
-4.553120e-08
4.535840e-08
-4.177430e-11
-3.857110e-08
2.754650e-11
4.557840e-08
-1.282790e-11
-3.842970e-08
3.285180e-11
-4.177430e-11
-4.535450e-08
2.754650e-11
3.863000e-08
-1.282790e-11
-4.553120e-08
3.285180e-11
3.845720e-08
-3.857110e-08
2.754650e-11
-8.709930e-08
-4.945010e-11
-3.842970e-08
3.285180e-11
-8.665540e-08
-2.194830e-11
2.754650e-11
3.863000e-08
-4.945010e-11
8.705210e-08
3.285180e-11
3.845720e-08
-2.194830e-11
8.664760e-08
-8.709930e-08
-4.945010e-11
-4.208650e-08
-1.603840e-11
-8.665540e-08
-2.194830e-11
-4.190580e-08
-7.250420e-12
-4.945010e-11
8.705210e-08
-1.603840e-11
4.205120e-08
-2.194830e-11
8.664760e-08
-7.250420e-12
4.188620e-08
-4.208650e-08
-1.603840e-11
-2.340980e-09
-2.124630e-11
-4.190580e-08
-7.250420e-12
-2.395970e-09
-6.560170e-12
-1.603840e-11
4.205120e-08
-2.124630e-11
2.301700e-09
-7.250420e-12
4.188620e-08
-6.560170e-12
2.411680e-09
-2.340980e-09
-2.124630e-11
-2.515760e-08
4.575780e-12
-2.395970e-09
-6.560170e-12
-2.530690e-08
1.018690e-11
-2.124630e-11
2.301700e-09
4.575780e-12
2.516940e-08
-6.560170e-12
2.411680e-09
1.018690e-11
2.533050e-08
-2.515760e-08
4.575780e-12
-2.922290e-09
1.642740e-11
-2.530690e-08
1.018690e-11
-2.847660e-09
1.099270e-11
4.575780e-12
2.516940e-08
1.642740e-11
2.953720e-09
1.018690e-11
2.533050e-08
1.099270e-11
2.867300e-09
-2.922290e-09
1.642740e-11
1.441510e-08
-1.322710e-11
-2.847660e-09
1.099270e-11
1.446220e-08
-7.858890e-12
1.642740e-11
2.953720e-09
-1.322710e-11
-1.442690e-08
1.099270e-11
2.867300e-09
-7.858890e-12
-1.447010e-08
1.441510e-08
-1.322710e-11
-4.705520e-09
-3.449320e-11
1.446220e-08
-7.858890e-12
-4.721230e-09
-2.577170e-11
-1.322710e-11
-1.442690e-08
-3.449320e-11
4.642680e-09
-7.858890e-12
-1.447010e-08
-2.577170e-11
4.666240e-09
-4.705520e-09
-3.449320e-11
6.952230e-09
7.555890e-12
-4.721230e-09
-2.577170e-11
7.117200e-09
-3.748710e-12
-3.449320e-11
4.642680e-09
7.555890e-12
-6.944370e-09
-2.577170e-11
4.666240e-09
-3.748710e-12
-7.136840e-09
6.952230e-09
7.555890e-12
2.257710e-08
3.225220e-11
7.117200e-09
-3.748710e-12
2.266350e-08
2.628110e-11
7.555890e-12
-6.944370e-09
3.225220e-11
-2.251030e-08
-3.748710e-12
-7.136840e-09
2.628110e-11
-2.261240e-08
2.257710e-08
3.225220e-11
1.383770e-08
1.632000e-11
2.266350e-08
2.628110e-11
1.665790e-08
1.540060e-11
3.225220e-11
-2.251030e-08
1.632000e-11
-1.380630e-08
2.628110e-11
-2.261240e-08
1.540060e-11
-1.662250e-08
1.383770e-08
1.632000e-11
-1.176890e-07
-2.089610e-11
1.665790e-08
1.540060e-11
-1.249590e-07
-1.338450e-11
1.632000e-11
-1.380630e-08
-2.089610e-11
1.176500e-07
1.540060e-11
-1.662250e-08
-1.338450e-11
1.249400e-07
0.000000e+00
0.000000e+00
1.336640e-08
3.969170e-11
0.000000e+00
0.000000e+00
1.392410e-08
4.074140e-11
0.000000e+00
0.000000e+00
3.969170e-11
-1.328780e-08
0.000000e+00
0.000000e+00
4.074140e-11
-1.366880e-08
1.336640e-08
3.969170e-11
-5.135620e-08
1.609080e-10
1.392410e-08
4.074140e-11
-5.223600e-08
-6.676860e-11
3.969170e-11
-1.328780e-08
1.609080e-10
5.181960e-08
4.074140e-11
-1.366880e-08
-6.676860e-11
5.212210e-08
-5.135620e-08
1.609080e-10
9.240970e-08
-1.062000e-10
-5.223600e-08
-6.676860e-11
9.324240e-08
3.118980e-11
1.609080e-10
5.181960e-08
-1.062000e-10
-9.265320e-08
-6.676860e-11
5.212210e-08
3.118980e-11
-9.302240e-08
9.240970e-08
-1.062000e-10
-6.982870e-08
4.939040e-11
9.324240e-08
3.118980e-11
-6.983260e-08
-1.186860e-11
-1.062000e-10
-9.265320e-08
4.939040e-11
6.989150e-08
3.118980e-11
-9.302240e-08
-1.186860e-11
6.978150e-08
-6.982870e-08
4.939040e-11
-6.040190e-08
1.115150e-11
-6.983260e-08
-1.186860e-11
-6.127000e-08
-1.753150e-10
4.939040e-11
6.989150e-08
1.115150e-11
6.062190e-08
-1.186860e-11
6.978150e-08
-1.753150e-10
6.101860e-08
-6.040190e-08
1.115150e-11
2.216780e-07
1.337130e-11
-6.127000e-08
-1.753150e-10
2.236500e-07
3.934790e-11
1.115150e-11
6.062190e-08
1.337130e-11
-2.217290e-07
-1.753150e-10
6.101860e-08
3.934790e-11
-2.235910e-07
2.216780e-07
1.337130e-11
-2.053420e-07
-9.241910e-11
2.236500e-07
3.934790e-11
-2.081740e-07
-1.302670e-11
1.337130e-11
-2.217290e-07
-9.241910e-11
2.051460e-07
3.934790e-11
-2.235910e-07
-1.302670e-11
2.079740e-07
-2.053420e-07
-9.241910e-11
-7.018610e-08
-1.050030e-10
-2.081740e-07
-1.302670e-11
-6.802580e-08
5.703100e-11
-9.241910e-11
2.051460e-07
-1.050030e-10
6.989540e-08
-1.302670e-11
2.079740e-07
5.703100e-11
6.814360e-08
-7.018610e-08
-1.050030e-10
2.910750e-07
6.934190e-11
-6.802580e-08
5.703100e-11
2.911650e-07
-1.175810e-10
-1.050030e-10
6.989540e-08
6.934190e-11
-2.909140e-07
5.703100e-11
6.814360e-08
-1.175810e-10
-2.913260e-07
2.910750e-07
6.934190e-11
-1.181600e-07
-3.244750e-11
2.911650e-07
-1.175810e-10
-1.205010e-07
-5.871510e-11
6.934190e-11
-2.909140e-07
-3.244750e-11
1.181370e-07
-1.175810e-10
-2.913260e-07
-5.871510e-11
1.203870e-07
-1.181600e-07
-3.244750e-11
-1.997650e-07
9.422670e-12
-1.205010e-07
-5.871510e-11
-1.987280e-07
1.006700e-10
-3.244750e-11
1.181370e-07
9.422670e-12
1.997060e-07
-5.871510e-11
1.203870e-07
1.006700e-10
1.990970e-07
-1.997650e-07
9.422670e-12
1.880400e-07
-4.304370e-11
-1.987280e-07
1.006700e-10
1.887200e-07
3.466950e-11
9.422670e-12
1.997060e-07
-4.304370e-11
-1.880910e-07
1.006700e-10
1.990970e-07
3.466950e-11
-1.886960e-07
1.880400e-07
-4.304370e-11
1.626040e-07
9.550490e-12
1.887200e-07
3.466950e-11
1.637070e-07
-1.706320e-11
-4.304370e-11
-1.880910e-07
9.550490e-12
-1.625880e-07
3.466950e-11
-1.886960e-07
-1.706320e-11
-1.635070e-07
1.626040e-07
9.550490e-12
-2.886630e-07
-9.404060e-12
1.637070e-07
-1.706320e-11
-2.884900e-07
7.142830e-12
9.550490e-12
-1.625880e-07
-9.404060e-12
2.886470e-07
-1.706320e-11
-1.635070e-07
7.142830e-12
2.886160e-07
-2.886630e-07
-9.404060e-12
-1.665510e-07
-2.106650e-11
-2.884900e-07
7.142830e-12
-1.656010e-07
-4.468980e-11
-9.404060e-12
2.886470e-07
-2.106650e-11
1.664730e-07
7.142830e-12
2.886160e-07
-4.468980e-11
1.654590e-07
-1.665510e-07
-2.106650e-11
1.950120e-07
4.023770e-11
-1.656010e-07
-4.468980e-11
1.930170e-07
-2.331890e-11
-2.106650e-11
1.664730e-07
4.023770e-11
-1.949100e-07
-4.468980e-11
1.654590e-07
-2.331890e-11
-1.931150e-07
1.950120e-07
4.023770e-11
2.388970e-07
-4.597850e-11
1.930170e-07
-2.331890e-11
2.385130e-07
1.203050e-11
4.023770e-11
-1.949100e-07
-4.597850e-11
-2.389010e-07
-2.331890e-11
-1.931150e-07
1.203050e-11
-2.384770e-07
2.388970e-07
-4.597850e-11
4.557840e-08
-1.282790e-11
2.385130e-07
1.203050e-11
4.525230e-08
-1.955560e-11
-4.597850e-11
-2.389010e-07
-1.282790e-11
-4.553120e-08
1.203050e-11
-2.384770e-07
-1.955560e-11
-4.535050e-08
4.557840e-08
-1.282790e-11
-3.842970e-08
3.285180e-11
4.525230e-08
-1.955560e-11
-3.852010e-08
9.254140e-12
-1.282790e-11
-4.553120e-08
3.285180e-11
3.845720e-08
-1.955560e-11
-4.535050e-08
9.254140e-12
3.863400e-08
-3.842970e-08
3.285180e-11
-8.665540e-08
-2.194830e-11
-3.852010e-08
9.254140e-12
-8.697750e-08
5.668300e-11
3.285180e-11
3.845720e-08
-2.194830e-11
8.664760e-08
9.254140e-12
3.863400e-08
5.668300e-11
8.707960e-08
-8.665540e-08
-2.194830e-11
-4.190580e-08
-7.250420e-12
-8.697750e-08
5.668300e-11
-4.211790e-08
6.131830e-12
-2.194830e-11
8.664760e-08
-7.250420e-12
4.188620e-08
5.668300e-11
8.707960e-08
6.131830e-12
4.209830e-08
-4.190580e-08
-7.250420e-12
-2.395970e-09
-6.560170e-12
-4.211790e-08
6.131830e-12
-2.372400e-09
-2.210190e-11
-7.250420e-12
4.188620e-08
-6.560170e-12
2.411680e-09
6.131830e-12
4.209830e-08
-2.210190e-11
2.344900e-09
-2.395970e-09
-6.560170e-12
-2.530690e-08
1.018690e-11
-2.372400e-09
-2.210190e-11
-2.513800e-08
2.053970e-11
-6.560170e-12
2.411680e-09
1.018690e-11
2.533050e-08
-2.210190e-11
2.344900e-09
2.053970e-11
2.517340e-08
-2.530690e-08
1.018690e-11
-2.847660e-09
1.099270e-11
-2.513800e-08
2.053970e-11
-2.922290e-09
4.559860e-12
1.018690e-11
2.533050e-08
1.099270e-11
2.867300e-09
2.053970e-11
2.517340e-08
4.559860e-12
2.930150e-09
-2.847660e-09
1.099270e-11
1.446220e-08
-7.858890e-12
-2.922290e-09
4.559860e-12
1.443860e-08
-1.695990e-11
1.099270e-11
2.867300e-09
-7.858890e-12
-1.447010e-08
4.559860e-12
2.930150e-09
-1.695990e-11
-1.446610e-08
1.446220e-08
-7.858890e-12
-4.721230e-09
-2.577170e-11
1.443860e-08
-1.695990e-11
-4.674100e-09
-1.434750e-11
-7.858890e-12
-1.447010e-08
-2.577170e-11
4.666240e-09
-1.695990e-11
-1.446610e-08
-1.434750e-11
4.642680e-09
-4.721230e-09
-2.577170e-11
7.117200e-09
-3.748710e-12
-4.674100e-09
-1.434750e-11
6.940450e-09
-5.372190e-12
-2.577170e-11
4.666240e-09
-3.748710e-12
-7.136840e-09
-1.434750e-11
4.642680e-09
-5.372190e-12
-6.952230e-09
7.117200e-09
-3.748710e-12
2.266350e-08
2.628110e-11
6.940450e-09
-5.372190e-12
2.258100e-08
1.849830e-11
-3.748710e-12
-7.136840e-09
2.628110e-11
-2.261240e-08
-5.372190e-12
-6.952230e-09
1.849830e-11
-2.253780e-08
2.266350e-08
2.628110e-11
1.665790e-08
1.540060e-11
2.258100e-08
1.849830e-11
1.385340e-08
1.888210e-11
2.628110e-11
-2.261240e-08
1.540060e-11
-1.662250e-08
1.849830e-11
-2.253780e-08
1.888210e-11
-1.381410e-08
1.665790e-08
1.540060e-11
-1.249590e-07
-1.338450e-11
1.385340e-08
1.888210e-11
-1.176770e-07
-5.491140e-12
1.540060e-11
-1.662250e-08
-1.338450e-11
1.249400e-07
1.888210e-11
-1.381410e-08
-5.491140e-12
1.176810e-07
</DataArray>
<DataArray type="Float32" Name="V2" format="ascii">
0.000000e+00
0.000000e+00
-2.052460e-02
-2.052460e-02
0.000000e+00
0.000000e+00
-2.052460e-02
-2.052450e-02
0.000000e+00
0.000000e+00
-2.052460e-02
-2.052460e-02
0.000000e+00
0.000000e+00
-2.052450e-02
-2.052460e-02
-2.052460e-02
-2.052460e-02
-2.881160e-02
-2.881160e-02
-2.052460e-02
-2.052450e-02
-2.881160e-02
-2.881160e-02
-2.052460e-02
-2.052460e-02
-2.881160e-02
-2.881160e-02
-2.052450e-02
-2.052460e-02
-2.881160e-02
-2.881160e-02
-2.881160e-02
-2.881160e-02
-2.509010e-02
-2.509010e-02
-2.881160e-02
-2.881160e-02
-2.509010e-02
-2.509010e-02
-2.881160e-02
-2.881160e-02
-2.509010e-02
-2.509010e-02
-2.881160e-02
-2.881160e-02
-2.509010e-02
-2.509010e-02
-2.509010e-02
-2.509010e-02
-1.685770e-02
-1.685770e-02
-2.509010e-02
-2.509010e-02
-1.685770e-02
-1.685770e-02
-2.509010e-02
-2.509010e-02
-1.685770e-02
-1.685770e-02
-2.509010e-02
-2.509010e-02
-1.685770e-02
-1.685770e-02
-1.685770e-02
-1.685770e-02
-9.739230e-03
-9.739260e-03
-1.685770e-02
-1.685770e-02
-9.739260e-03
-9.739290e-03
-1.685770e-02
-1.685770e-02
-9.739260e-03
-9.739220e-03
-1.685770e-02
-1.685770e-02
-9.739290e-03
-9.739260e-03
-9.739230e-03
-9.739260e-03
-5.334600e-03
-5.334500e-03
-9.739260e-03
-9.739290e-03
-5.334500e-03
-5.334390e-03
-9.739260e-03
-9.739220e-03
-5.334500e-03
-5.334600e-03
-9.739290e-03
-9.739260e-03
-5.334390e-03
-5.334500e-03
-5.334600e-03
-5.334500e-03
-3.128250e-03
-3.128400e-03
-5.334500e-03
-5.334390e-03
-3.128400e-03
-3.128540e-03
-5.334500e-03
-5.334600e-03
-3.128400e-03
-3.128250e-03
-5.334390e-03
-5.334500e-03
-3.128540e-03
-3.128400e-03
-3.128250e-03
-3.128400e-03
-2.167230e-03
-2.167260e-03
-3.128400e-03
-3.128540e-03
-2.167260e-03
-2.167280e-03
-3.128400e-03
-3.128250e-03
-2.167260e-03
-2.167230e-03
-3.128540e-03
-3.128400e-03
-2.167280e-03
-2.167260e-03
-2.167230e-03
-2.167260e-03
-1.719460e-03
-1.719190e-03
-2.167260e-03
-2.167280e-03
-1.719190e-03
-1.718920e-03
-2.167260e-03
-2.167230e-03
-1.719190e-03
-1.719460e-03
-2.167280e-03
-2.167260e-03
-1.718920e-03
-1.719190e-03
-1.719460e-03
-1.719190e-03
-1.522550e-03
-1.522560e-03
-1.719190e-03
-1.718920e-03
-1.522560e-03
-1.522560e-03
-1.719190e-03
-1.719460e-03
-1.522560e-03
-1.522550e-03
-1.718920e-03
-1.719190e-03
-1.522560e-03
-1.522560e-03
-1.522550e-03
-1.522560e-03
-1.367460e-03
-1.367770e-03
-1.522560e-03
-1.522560e-03
-1.367770e-03
-1.368090e-03
-1.522560e-03
-1.522550e-03
-1.367770e-03
-1.367460e-03
-1.522560e-03
-1.522560e-03
-1.368090e-03
-1.367770e-03
-1.367460e-03
-1.367770e-03
-1.191280e-03
-1.191550e-03
-1.367770e-03
-1.368090e-03
-1.191550e-03
-1.191820e-03
-1.367770e-03
-1.367460e-03
-1.191550e-03
-1.191280e-03
-1.368090e-03
-1.367770e-03
-1.191820e-03
-1.191550e-03
-1.191280e-03
-1.191550e-03
-1.038970e-03
-1.038590e-03
-1.191550e-03
-1.191820e-03
-1.038590e-03
-1.038200e-03
-1.191550e-03
-1.191280e-03
-1.038590e-03
-1.038970e-03
-1.191820e-03
-1.191550e-03
-1.038200e-03
-1.038590e-03
-1.038970e-03
-1.038590e-03
-9.491750e-04
-9.488930e-04
-1.038590e-03
-1.038200e-03
-9.488920e-04
-9.486050e-04
-1.038590e-03
-1.038970e-03
-9.488930e-04
-9.491750e-04
-1.038200e-03
-1.038590e-03
-9.486050e-04
-9.488920e-04
-9.491750e-04
-9.488930e-04
-9.123980e-04
-9.124910e-04
-9.488920e-04
-9.486050e-04
-9.124910e-04
-9.125870e-04
-9.488930e-04
-9.491750e-04
-9.124910e-04
-9.123970e-04
-9.486050e-04
-9.488920e-04
-9.125870e-04
-9.124910e-04
-9.123980e-04
-9.124910e-04
-9.448680e-04
-9.450090e-04
-9.124910e-04
-9.125870e-04
-9.450090e-04
-9.451510e-04
-9.124910e-04
-9.123970e-04
-9.450090e-04
-9.448690e-04
-9.125870e-04
-9.124910e-04
-9.451510e-04
-9.450090e-04
-9.448680e-04
-9.450090e-04
-1.010540e-03
-1.010440e-03
-9.450090e-04
-9.451510e-04
-1.010440e-03
-1.010340e-03
-9.450090e-04
-9.448690e-04
-1.010440e-03
-1.010540e-03
-9.451510e-04
-9.450090e-04
-1.010340e-03
-1.010440e-03
-1.010540e-03
-1.010440e-03
-9.924210e-04
-9.922890e-04
-1.010440e-03
-1.010340e-03
-9.922890e-04
-9.921570e-04
-1.010440e-03
-1.010540e-03
-9.922890e-04
-9.924210e-04
-1.010340e-03
-1.010440e-03
-9.921570e-04
-9.922890e-04
-9.924210e-04
-9.922890e-04
-8.610880e-04
-8.610090e-04
-9.922890e-04
-9.921570e-04
-8.610080e-04
-8.609300e-04
-9.922890e-04
-9.924210e-04
-8.610090e-04
-8.610880e-04
-9.921570e-04
-9.922890e-04
-8.609300e-04
-8.610090e-04
-8.610880e-04
-8.610090e-04
-7.360880e-04
-7.360740e-04
-8.610080e-04
-8.609300e-04
-7.360740e-04
-7.360620e-04
-8.610090e-04
-8.610880e-04
-7.360740e-04
-7.360880e-04
-8.609300e-04
-8.610090e-04
-7.360620e-04
-7.360740e-04
-7.360880e-04
-7.360740e-04
-6.624010e-04
-6.623900e-04
-7.360740e-04
-7.360620e-04
-6.623900e-04
-6.623780e-04
-7.360740e-04
-7.360880e-04
-6.623900e-04
-6.624010e-04
-7.360620e-04
-7.360740e-04
-6.623780e-04
-6.623900e-04
-6.624010e-04
-6.623900e-04
-6.402360e-04
-6.402170e-04
-6.623900e-04
-6.623780e-04
-6.402170e-04
-6.401960e-04
-6.623900e-04
-6.624010e-04
-6.402170e-04
-6.402370e-04
-6.623780e-04
-6.623900e-04
-6.401960e-04
-6.402170e-04
-6.402360e-04
-6.402170e-04
-6.585880e-04
-6.586000e-04
-6.402170e-04
-6.401960e-04
-6.586000e-04
-6.586140e-04
-6.402170e-04
-6.402370e-04
-6.586000e-04
-6.585880e-04
-6.401960e-04
-6.402170e-04
-6.586140e-04
-6.586000e-04
-6.585880e-04
-6.586000e-04
-6.757090e-04
-6.757350e-04
-6.586000e-04
-6.586140e-04
-6.757350e-04
-6.757630e-04
-6.586000e-04
-6.585880e-04
-6.757350e-04
-6.757090e-04
-6.586140e-04
-6.586000e-04
-6.757630e-04
-6.757360e-04
-6.757090e-04
-6.757350e-04
-6.423760e-04
-6.423740e-04
-6.757350e-04
-6.757630e-04
-6.423750e-04
-6.423730e-04
-6.757350e-04
-6.757090e-04
-6.423740e-04
-6.423760e-04
-6.757630e-04
-6.757360e-04
-6.423730e-04
-6.423750e-04
-6.423760e-04
-6.423740e-04
-5.881560e-04
-5.881670e-04
-6.423750e-04
-6.423730e-04
-5.881680e-04
-5.881800e-04
-6.423740e-04
-6.423760e-04
-5.881670e-04
-5.881560e-04
-6.423730e-04
-6.423750e-04
-5.881800e-04
-5.881670e-04
-5.881560e-04
-5.881670e-04
-5.348860e-04
-5.349050e-04
-5.881680e-04
-5.881800e-04
-5.349050e-04
-5.349230e-04
-5.881670e-04
-5.881560e-04
-5.349050e-04
-5.348860e-04
-5.881800e-04
-5.881670e-04
-5.349230e-04
-5.349040e-04
-5.348860e-04
-5.349050e-04
-4.406510e-04
-4.405930e-04
-5.349050e-04
-5.349230e-04
-4.405930e-04
-4.405320e-04
-5.349050e-04
-5.348860e-04
-4.405930e-04
-4.406510e-04
-5.349230e-04
-5.349040e-04
-4.405320e-04
-4.405930e-04
-4.406510e-04
-4.405930e-04
-3.396190e-04
-3.394340e-04
-4.405930e-04
-4.405320e-04
-3.394340e-04
-3.392340e-04
-4.405930e-04
-4.406510e-04
-3.394340e-04
-3.396190e-04
-4.405320e-04
-4.405930e-04
-3.392340e-04
-3.394350e-04
-3.396190e-04
-3.394340e-04
-3.141540e-04
-3.139200e-04
-3.394340e-04
-3.392340e-04
-3.139200e-04
-3.136240e-04
-3.394340e-04
-3.396190e-04
-3.139200e-04
-3.141540e-04
-3.392340e-04
-3.394350e-04
-3.136240e-04
-3.139200e-04
0.000000e+00
0.000000e+00
-2.052460e-02
-2.052450e-02
0.000000e+00
0.000000e+00
-2.052460e-02
-2.052460e-02
0.000000e+00
0.000000e+00
-2.052450e-02
-2.052460e-02
0.000000e+00
0.000000e+00