<?xml version="1.0"?>
<VTKFile type="UnstructuredGrid" version="0.1" byte_order="LittleEndian" compressor="vtkZLibDataCompressor">
<UnstructuredGrid>
<Piece NumberOfPoints="960" NumberOfCells="120">
<Points>
<DataArray type="Float32" NumberOfComponents="3" format="ascii">
-4.000000e+02 -6.000000e+03 -4.000000e+02
0.000000e+00 -6.000000e+03 -4.000000e+02
-4.000000e+02 -5.600030e+03 -4.000000e+02
-2.061380e-10 -5.600030e+03 -4.000000e+02
-4.000000e+02 -6.000000e+03 0.000000e+00
0.000000e+00 -6.000000e+03 0.000000e+00
-4.000000e+02 -5.600030e+03 -8.274840e-11
-2.173380e-10 -5.600030e+03 -1.549180e-10
0.000000e+00 -6.000000e+03 -4.000000e+02
4.000000e+02 -6.000000e+03 -4.000000e+02
-2.061380e-10 -5.600030e+03 -4.000000e+02
4.000000e+02 -5.600030e+03 -4.000000e+02
0.000000e+00 -6.000000e+03 0.000000e+00
4.000000e+02 -6.000000e+03 0.000000e+00
-2.173380e-10 -5.600030e+03 -1.549180e-10
4.000000e+02 -5.600030e+03 5.981400e-12
-4.000000e+02 -5.600030e+03 -4.000000e+02
-2.061380e-10 -5.600030e+03 -4.000000e+02
-4.000000e+02 -5.200070e+03 -4.000000e+02
-2.162580e-10 -5.200070e+03 -4.000000e+02
-4.000000e+02 -5.600030e+03 -8.274840e-11
-2.173380e-10 -5.600030e+03 -1.549180e-10
-4.000000e+02 -5.200070e+03 -1.030800e-10
-1.457350e-10 -5.200070e+03 -1.119090e-10
-2.061380e-10 -5.600030e+03 -4.000000e+02
4.000000e+02 -5.600030e+03 -4.000000e+02
-2.162580e-10 -5.200070e+03 -4.000000e+02
4.000000e+02 -5.200070e+03 -4.000000e+02
-2.173380e-10 -5.600030e+03 -1.549180e-10
4.000000e+02 -5.600030e+03 5.981400e-12
-1.457350e-10 -5.200070e+03 -1.119090e-10
4.000000e+02 -5.200070e+03 -1.063230e-10
-4.000000e+02 -5.200070e+03 -4.000000e+02
-2.162580e-10 -5.200070e+03 -4.000000e+02
-4.000000e+02 -4.800120e+03 -4.000000e+02
-2.895630e-10 -4.800120e+03 -4.000000e+02
-4.000000e+02 -5.200070e+03 -1.030800e-10
-1.457350e-10 -5.200070e+03 -1.119090e-10
-4.000000e+02 -4.800120e+03 -3.903240e-10
-1.077910e-10 -4.800120e+03 -2.192430e-10
-2.162580e-10 -5.200070e+03 -4.000000e+02
4.000000e+02 -5.200070e+03 -4.000000e+02
-2.895630e-10 -4.800120e+03 -4.000000e+02
4.000000e+02 -4.800120e+03 -4.000000e+02
-1.457350e-10 -5.200070e+03 -1.119090e-10
4.000000e+02 -5.200070e+03 -1.063230e-10
-1.077910e-10 -4.800120e+03 -2.192430e-10
4.000000e+02 -4.800120e+03 -2.060530e-10
-4.000000e+02 -4.800120e+03 -4.000000e+02
-2.895630e-10 -4.800120e+03 -4.000000e+02
-4.000000e+02 -4.400160e+03 -4.000000e+02
-3.660610e-10 -4.400160e+03 -4.000000e+02
-4.000000e+02 -4.800120e+03 -3.903240e-10
-1.077910e-10 -4.800120e+03 -2.192430e-10
-4.000000e+02 -4.400160e+03 -4.502050e-10
-2.033580e-10 -4.400160e+03 -3.293120e-10
-2.895630e-10 -4.800120e+03 -4.000000e+02
4.000000e+02 -4.800120e+03 -4.000000e+02
-3.660610e-10 -4.400160e+03 -4.000000e+02
4.000000e+02 -4.400160e+03 -4.000000e+02
-1.077910e-10 -4.800120e+03 -2.192430e-10
4.000000e+02 -4.800120e+03 -2.060530e-10
-2.033580e-10 -4.400160e+03 -3.293120e-10
4.000000e+02 -4.400160e+03 -3.611780e-10
-4.000000e+02 -4.400160e+03 -4.000000e+02
-3.660610e-10 -4.400160e+03 -4.000000e+02
-4.000000e+02 -4.000190e+03 -4.000000e+02
-4.027710e-10 -4.000190e+03 -4.000000e+02
-4.000000e+02 -4.400160e+03 -4.502050e-10
-2.033580e-10 -4.400160e+03 -3.293120e-10
-4.000000e+02 -4.000190e+03 -1.628350e-10
-3.136510e-10 -4.000190e+03 -2.841370e-10
-3.660610e-10 -4.400160e+03 -4.000000e+02
4.000000e+02 -4.400160e+03 -4.000000e+02
-4.027710e-10 -4.000190e+03 -4.000000e+02
4.000000e+02 -4.000190e+03 -4.000000e+02
-2.033580e-10 -4.400160e+03 -3.293120e-10
4.000000e+02 -4.400160e+03 -3.611780e-10
-3.136510e-10 -4.000190e+03 -2.841370e-10
4.000000e+02 -4.000190e+03 -3.297150e-10
-4.000000e+02 -4.000190e+03 -4.000000e+02
-4.027710e-10 -4.000190e+03 -4.000000e+02
-4.000000e+02 -3.600200e+03 -4.000000e+02
-3.801630e-10 -3.600200e+03 -4.000000e+02
-4.000000e+02 -4.000190e+03 -1.628350e-10
-3.136510e-10 -4.000190e+03 -2.841370e-10
-4.000000e+02 -3.600200e+03 -9.687510e-11
-4.842630e-10 -3.600200e+03 -1.365070e-10
-4.027710e-10 -4.000190e+03 -4.000000e+02
4.000000e+02 -4.000190e+03 -4.000000e+02
-3.801630e-10 -3.600200e+03 -4.000000e+02
4.000000e+02 -3.600200e+03 -4.000000e+02
-3.136510e-10 -4.000190e+03 -2.841370e-10
4.000000e+02 -4.000190e+03 -3.297150e-10
-4.842630e-10 -3.600200e+03 -1.365070e-10
4.000000e+02 -3.600200e+03 -1.837340e-10
-4.000000e+02 -3.600200e+03 -4.000000e+02
-3.801630e-10 -3.600200e+03 -4.000000e+02
-4.000000e+02 -3.200210e+03 -4.000000e+02
-3.477570e-10 -3.200210e+03 -4.000000e+02
-4.000000e+02 -3.600200e+03 -9.687510e-11
-4.842630e-10 -3.600200e+03 -1.365070e-10
-4.000000e+02 -3.200210e+03 -6.553150e-11
-3.675120e-10 -3.200210e+03 -3.337660e-13
-3.801630e-10 -3.600200e+03 -4.000000e+02
4.000000e+02 -3.600200e+03 -4.000000e+02
-3.477570e-10 -3.200210e+03 -4.000000e+02
4.000000e+02 -3.200210e+03 -4.000000e+02
-4.842630e-10 -3.600200e+03 -1.365070e-10
4.000000e+02 -3.600200e+03 -1.837340e-10
-3.675120e-10 -3.200210e+03 -3.337660e-13
4.000000e+02 -3.200210e+03 -6.493000e-11
-4.000000e+02 -3.200210e+03 -4.000000e+02
-3.477570e-10 -3.200210e+03 -4.000000e+02
-4.000000e+02 -2.800210e+03 -4.000000e+02
-2.570610e-10 -2.800210e+03 -4.000000e+02
-4.000000e+02 -3.200210e+03 -6.553150e-11
-3.675120e-10 -3.200210e+03 -3.337660e-13
-4.000000e+02 -2.800210e+03 1.254290e-10
-2.141150e-10 -2.800210e+03 1.435580e-10
-3.477570e-10 -3.200210e+03 -4.000000e+02
4.000000e+02 -3.200210e+03 -4.000000e+02
-2.570610e-10 -2.800210e+03 -4.000000e+02
4.000000e+02 -2.800210e+03 -4.000000e+02
-3.675120e-10 -3.200210e+03 -3.337660e-13
4.000000e+02 -3.200210e+03 -6.493000e-11
-2.141150e-10 -2.800210e+03 1.435580e-10
4.000000e+02 -2.800210e+03 8.409330e-11
-4.000000e+02 -2.800210e+03 -4.000000e+02
-2.570610e-10 -2.800210e+03 -4.000000e+02
-4.000000e+02 -2.400210e+03 -4.000000e+02
-1.215550e-10 -2.400210e+03 -4.000000e+02
-4.000000e+02 -2.800210e+03 1.254290e-10
-2.141150e-10 -2.800210e+03 1.435580e-10
-4.000000e+02 -2.400210e+03 2.522390e-10
-1.951820e-10 -2.400210e+03 2.034980e-10
-2.570610e-10 -2.800210e+03 -4.000000e+02
4.000000e+02 -2.800210e+03 -4.000000e+02
-1.215550e-10 -2.400210e+03 -4.000000e+02
4.000000e+02 -2.400210e+03 -4.000000e+02
-2.141150e-10 -2.800210e+03 1.435580e-10
4.000000e+02 -2.800210e+03 8.409330e-11
-1.951820e-10 -2.400210e+03 2.034980e-10
4.000000e+02 -2.400210e+03 1.588030e-10
-4.000000e+02 -2.400210e+03 -4.000000e+02
-1.215550e-10 -2.400210e+03 -4.000000e+02
-4.000000e+02 -2.000210e+03 -4.000000e+02
-5.702650e-11 -2.000210e+03 -4.000000e+02
-4.000000e+02 -2.400210e+03 2.522390e-10
-1.951820e-10 -2.400210e+03 2.034980e-10
-4.000000e+02 -2.000210e+03 9.807440e-11
-1.482670e-10 -2.000210e+03 1.718520e-10
-1.215550e-10 -2.400210e+03 -4.000000e+02
4.000000e+02 -2.400210e+03 -4.000000e+02
-5.702650e-11 -2.000210e+03 -4.000000e+02
4.000000e+02 -2.000210e+03 -4.000000e+02
-1.951820e-10 -2.400210e+03 2.034980e-10
4.000000e+02 -2.400210e+03 1.588030e-10
-1.482670e-10 -2.000210e+03 1.718520e-10
4.000000e+02 -2.000210e+03 1.817150e-10
-4.000000e+02 -2.000210e+03 -4.000000e+02
-5.702650e-11 -2.000210e+03 -4.000000e+02
-4.000000e+02 -1.600210e+03 -4.000000e+02
-1.531860e-11 -1.600210e+03 -4.000000e+02
-4.000000e+02 -2.000210e+03 9.807440e-11
-1.482670e-10 -2.000210e+03 1.718520e-10
-4.000000e+02 -1.600210e+03 1.807560e-10
-1.268390e-10 -1.600210e+03 2.025720e-10
-5.702650e-11 -2.000210e+03 -4.000000e+02
4.000000e+02 -2.000210e+03 -4.000000e+02
-1.531860e-11 -1.600210e+03 -4.000000e+02
4.000000e+02 -1.600210e+03 -4.000000e+02
-1.482670e-10 -2.000210e+03 1.718520e-10
4.000000e+02 -2.000210e+03 1.817150e-10
-1.268390e-10 -1.600210e+03 2.025720e-10
4.000000e+02 -1.600210e+03 2.028230e-10
-4.000000e+02 -1.600210e+03 -4.000000e+02
-1.531860e-11 -1.600210e+03 -4.000000e+02
-4.000000e+02 -1.200210e+03 -4.000000e+02
4.028470e-11 -1.200210e+03 -4.000000e+02
-4.000000e+02 -1.600210e+03 1.807560e-10
-1.268390e-10 -1.600210e+03 2.025720e-10
-4.000000e+02 -1.200210e+03 1.146810e-10
-7.256210e-11 -1.200210e+03 2.502020e-10
-1.531860e-11 -1.600210e+03 -4.000000e+02
4.000000e+02 -1.600210e+03 -4.000000e+02
4.028470e-11 -1.200210e+03 -4.000000e+02
4.000000e+02 -1.200210e+03 -4.000000e+02
-1.268390e-10 -1.600210e+03 2.025720e-10
4.000000e+02 -1.600210e+03 2.028230e-10
-7.256210e-11 -1.200210e+03 2.502020e-10
4.000000e+02 -1.200210e+03 3.023750e-10
-4.000000e+02 -1.200210e+03 -4.000000e+02
4.028470e-11 -1.200210e+03 -4.000000e+02
-4.000000e+02 -8.002120e+02 -4.000000e+02
-5.817930e-11 -8.002120e+02 -4.000000e+02
-4.000000e+02 -1.200210e+03 1.146810e-10
-7.256210e-11 -1.200210e+03 2.502020e-10
-4.000000e+02 -8.002120e+02 1.524370e-10
-6.115660e-11 -8.002120e+02 2.882580e-10
4.028470e-11 -1.200210e+03 -4.000000e+02
4.000000e+02 -1.200210e+03 -4.000000e+02
-5.817930e-11 -8.002120e+02 -4.000000e+02
4.000000e+02 -8.002120e+02 -4.000000e+02
-7.256210e-11 -1.200210e+03 2.502020e-10
4.000000e+02 -1.200210e+03 3.023750e-10
-6.115660e-11 -8.002120e+02 2.882580e-10
4.000000e+02 -8.002120e+02 2.967170e-10
-4.000000e+02 -8.002120e+02 -4.000000e+02
-5.817930e-11 -8.002120e+02 -4.000000e+02
-4.000000e+02 -4.002130e+02 -4.000000e+02
-4.170420e-11 -4.002130e+02 -4.000000e+02
-4.000000e+02 -8.002120e+02 1.524370e-10
-6.115660e-11 -8.002120e+02 2.882580e-10
-4.000000e+02 -4.002130e+02 1.668370e-10
-4.053960e-11 -4.002130e+02 1.617110e-10
-5.817930e-11 -8.002120e+02 -4.000000e+02
4.000000e+02 -8.002120e+02 -4.000000e+02
-4.170420e-11 -4.002130e+02 -4.000000e+02
4.000000e+02 -4.002130e+02 -4.000000e+02
-6.115660e-11 -8.002120e+02 2.882580e-10
4.000000e+02 -8.002120e+02 2.967170e-10
-4.053960e-11 -4.002130e+02 1.617110e-10
4.000000e+02 -4.002130e+02 2.411820e-10
-4.000000e+02 -4.002130e+02 -4.000000e+02
-4.170420e-11 -4.002130e+02 -4.000000e+02
-4.000000e+02 -2.142840e-01 -4.000000e+02
-1.881780e-10 -2.142850e-01 -4.000000e+02
-4.000000e+02 -4.002130e+02 1.668370e-10
-4.053960e-11 -4.002130e+02 1.617110e-10
-4.000000e+02 -2.142850e-01 1.188880e-10
-8.050560e-11 -2.142850e-01 1.066120e-10
-4.170420e-11 -4.002130e+02 -4.000000e+02
4.000000e+02 -4.002130e+02 -4.000000e+02
[...]
<PointData>
<DataArray type="Float32" Name="V1" format="ascii">
0.000000e+00
0.000000e+00
2.213010e-07
-6.378100e-11
0.000000e+00
0.000000e+00
2.193330e-07
1.900040e-11
0.000000e+00
0.000000e+00
-6.378100e-11
-2.214540e-07
0.000000e+00
0.000000e+00
1.900040e-11
-2.194350e-07
2.213010e-07
-6.378100e-11
-1.913280e-07
1.149700e-10
2.193330e-07
1.900040e-11
-1.895210e-07
3.965350e-11
-6.378100e-11
-2.214540e-07
1.149700e-10
1.914460e-07
1.900040e-11
-2.194350e-07
3.965350e-11
1.893560e-07
-1.913280e-07
1.149700e-10
-2.046780e-08
-7.791060e-12
-1.895210e-07
3.965350e-11
-2.179150e-08
2.033420e-10
1.149700e-10
1.914460e-07
-7.791060e-12
2.039320e-08
3.965350e-11
1.893560e-07
2.033420e-10
2.220790e-08
-2.046780e-08
-7.791060e-12
2.462390e-07
-1.948660e-13
-2.179150e-08
2.033420e-10
2.462460e-07
-9.975760e-11
-7.791060e-12
2.039320e-08
-1.948660e-13
-2.462780e-07
2.033420e-10
2.220790e-08
-9.975760e-11
-2.464660e-07
2.462390e-07
-1.948660e-13
-1.811700e-07
-2.906020e-11
2.462460e-07
-9.975760e-11
-1.796230e-07
3.843930e-11
-1.948660e-13
-2.462780e-07
-2.906020e-11
1.812920e-07
-9.975760e-11
-2.464660e-07
3.843930e-11
1.797010e-07
-1.811700e-07
-2.906020e-11
-1.035920e-07
5.958340e-12
-1.796230e-07
3.843930e-11
-1.055800e-07
4.438020e-11
-2.906020e-11
1.812920e-07
5.958340e-12
1.033090e-07
3.843930e-11
1.797010e-07
4.438020e-11
1.057560e-07
-1.035920e-07
5.958340e-12
1.978440e-07
1.009740e-10
-1.055800e-07
4.438020e-11
1.998040e-07
-1.450730e-10
5.958340e-12
1.033090e-07
1.009740e-10
-1.975260e-07
4.438020e-11
1.057560e-07
-1.450730e-10
-2.001100e-07
1.978440e-07
1.009740e-10
1.654000e-08
-7.040720e-11
1.998040e-07
-1.450730e-10
1.482750e-08
-5.149470e-11
1.009740e-10
-1.975260e-07
-7.040720e-11
-1.677960e-08
-1.450730e-10
-2.001100e-07
-5.149470e-11
-1.490610e-08
1.654000e-08
-7.040720e-11
-2.354370e-07
-4.375840e-11
1.482750e-08
-5.149470e-11
-2.359910e-07
9.974060e-11
-7.040720e-11
-1.677960e-08
-4.375840e-11
2.353270e-07
-5.149470e-11
-1.490610e-08
9.974060e-11
2.361320e-07
-2.354370e-07
-4.375840e-11
1.179250e-07
-2.830660e-11
-2.359910e-07
9.974060e-11
1.201050e-07
-4.984520e-11
-4.375840e-11
2.353270e-07
-2.830660e-11
-1.177360e-07
9.974060e-11
2.361320e-07
-4.984520e-11
-1.202340e-07
1.179250e-07
-2.830660e-11
2.416980e-07
-4.100390e-11
1.201050e-07
-4.984520e-11
2.427940e-07
-5.455780e-11
-2.830660e-11
-1.177360e-07
-4.100390e-11
-2.418470e-07
-4.984520e-11
-1.202340e-07
-5.455780e-11
-2.428760e-07
2.416980e-07
-4.100390e-11
-1.451520e-07
1.073730e-10
2.427940e-07
-5.455780e-11
-1.475050e-07
4.947300e-11
-4.100390e-11
-2.418470e-07
1.073730e-10
1.453610e-07
-5.455780e-11
-2.428760e-07
4.947300e-11
1.474030e-07
-1.451520e-07
1.073730e-10
-2.553900e-07
8.537710e-11
-1.475050e-07
4.947300e-11
-2.562190e-07
3.998050e-11
1.073730e-10
1.453610e-07
8.537710e-11
2.554730e-07
4.947300e-11
1.474030e-07
3.998050e-11
2.561480e-07
-2.553900e-07
8.537710e-11
5.782530e-08
4.182970e-12
-2.562190e-07
3.998050e-11
5.768780e-08
-3.694660e-11
8.537710e-11
2.554730e-07
4.182970e-12
-5.778600e-08
3.998050e-11
2.561480e-07
-3.694660e-11
-5.774280e-08
5.782530e-08
4.182970e-12
2.068030e-07
-4.580590e-12
5.768780e-08
-3.694660e-11
2.066660e-07
-2.250730e-11
4.182970e-12
-5.778600e-08
-4.580590e-12
-2.068190e-07
-3.694660e-11
-5.774280e-08
-2.250730e-11
-2.067600e-07
2.068030e-07
-4.580590e-12
6.720100e-08
-3.819560e-11
2.066660e-07
-2.250730e-11
6.623080e-08
1.675710e-11
-4.580590e-12
-2.068190e-07
-3.819560e-11
-6.734630e-08
-2.250730e-11
-2.067600e-07
1.675710e-11
-6.620720e-08
6.720100e-08
-3.819560e-11
-1.386050e-07
3.841540e-11
6.623080e-08
1.675710e-11
-1.387150e-07
-3.502200e-11
-3.819560e-11
-6.734630e-08
3.841540e-11
1.386360e-07
1.675710e-11
-6.620720e-08
-3.502200e-11
1.386280e-07
-1.386050e-07
3.841540e-11
-2.351070e-07
-3.359140e-11
-1.387150e-07
-3.502200e-11
-2.354370e-07
-2.947570e-11
3.841540e-11
1.386360e-07
-3.359140e-11
2.350520e-07
-3.502200e-11
1.386280e-07
-2.947570e-11
2.353150e-07
-2.351070e-07
-3.359140e-11
-1.643480e-07
-1.871690e-11
-2.354370e-07
-2.947570e-11
-1.643400e-07
4.821990e-11
-3.359140e-11
2.350520e-07
-1.871690e-11
1.642380e-07
-2.947570e-11
2.353150e-07
4.821990e-11
1.644340e-07
-1.643480e-07
-1.871690e-11
-6.632110e-08
1.979980e-11
-1.643400e-07
4.821990e-11
-6.643110e-08
4.162610e-11
-1.871690e-11
1.642380e-07
1.979980e-11
6.636430e-08
4.821990e-11
1.644340e-07
4.162610e-11
6.650570e-08
-6.632110e-08
1.979980e-11
-9.957010e-09
1.723190e-11
-6.643110e-08
4.162610e-11
-1.000020e-08
-9.599080e-12
1.979980e-11
6.636430e-08
1.723190e-11
1.001590e-08
4.162610e-11
6.650570e-08
-9.599080e-12
9.968790e-09
-9.957010e-09
1.723190e-11
7.812420e-09
2.921770e-11
-1.000020e-08
-9.599080e-12
7.761360e-09
2.609840e-11
1.723190e-11
1.001590e-08
2.921770e-11
-7.733870e-09
-9.599080e-12
9.968790e-09
2.609840e-11
-7.729940e-09
7.812420e-09
2.921770e-11
-1.453290e-10
1.112330e-12
7.761360e-09
2.609840e-11
-1.846070e-10
7.689460e-12
2.921770e-11
-7.733870e-09
1.112330e-12
1.571130e-10
2.609840e-11
-7.729940e-09
7.689460e-12
1.806790e-10
-1.453290e-10
1.112330e-12
4.375580e-09
-2.506890e-11
-1.846070e-10
7.689460e-12
4.579830e-09
-1.478940e-11
1.112330e-12
1.571130e-10
-2.506890e-11
-4.410930e-09
7.689460e-12
1.806790e-10
-1.478940e-11
-4.615180e-09
4.375580e-09
-2.506890e-11
-1.635150e-08
1.632710e-11
4.579830e-09
-1.478940e-11
-1.666960e-08
1.063630e-11
-2.506890e-11
-4.410930e-09
1.632710e-11
1.638680e-08
-1.478940e-11
-4.615180e-09
1.063630e-11
1.669710e-08
-1.635150e-08
1.632710e-11
-6.264860e-09
1.553220e-11
-1.666960e-08
1.063630e-11
-6.473040e-09
1.002700e-11
1.632710e-11
1.638680e-08
1.553220e-11
6.296290e-09
1.063630e-11
1.669710e-08
1.002700e-11
6.484820e-09
-6.264860e-09
1.553220e-11
3.234160e-08
-3.350550e-12
-6.473040e-09
1.002700e-11
3.317040e-08
-6.976750e-12
1.553220e-11
6.296290e-09
-3.350550e-12
-3.235730e-08
1.002700e-11
6.484820e-09
-6.976750e-12
-3.319000e-08
3.234160e-08
-3.350550e-12
2.741610e-09
4.279770e-12
3.317040e-08
-6.976750e-12
2.388110e-09
-3.842880e-13
-3.350550e-12
-3.235730e-08
4.279770e-12
-2.737690e-09
-6.976750e-12
-3.319000e-08
-3.842880e-13
-2.388110e-09
2.741610e-09
4.279770e-12
1.174420e-09
1.668380e-11
2.388110e-09
-3.842880e-13
3.095120e-09
1.665650e-11
4.279770e-12
-2.737690e-09
1.668380e-11
-1.135140e-09
-3.842880e-13
-2.388110e-09
1.665650e-11
-3.059770e-09
1.174420e-09
1.668380e-11
-6.407440e-08
3.409410e-11
3.095120e-09
1.665650e-11
-6.893710e-08
2.602460e-11
1.668380e-11
-1.135140e-09
3.409410e-11
6.414510e-08
1.665650e-11
-3.059770e-09
2.602460e-11
6.898420e-08
0.000000e+00
0.000000e+00
2.193330e-07
1.900040e-11
0.000000e+00
0.000000e+00
2.211870e-07
-9.011340e-11
0.000000e+00
0.000000e+00
1.900040e-11
-2.194350e-07
0.000000e+00
0.000000e+00
-9.011340e-11
-2.215920e-07
2.193330e-07
1.900040e-11
-1.895210e-07
3.965350e-11
2.211870e-07
-9.011340e-11
-1.916300e-07
-3.662010e-11
1.900040e-11
-2.194350e-07
3.965350e-11
1.893560e-07
-9.011340e-11
-2.215920e-07
-3.662010e-11
1.915400e-07
-1.895210e-07
3.965350e-11
-2.179150e-08
2.033420e-10
-1.916300e-07
-3.662010e-11
-2.046780e-08
2.200080e-11
3.965350e-11
1.893560e-07
2.033420e-10
2.220790e-08
-3.662010e-11
1.915400e-07
2.200080e-11
2.034210e-08
-2.179150e-08
2.033420e-10
2.462460e-07
-9.975760e-11
-2.046780e-08
2.200080e-11
2.464270e-07
1.231840e-10
2.033420e-10
2.220790e-08
-9.975760e-11
-2.464660e-07
2.200080e-11
2.034210e-08
1.231840e-10
-2.461840e-07
2.462460e-07
-9.975760e-11
-1.796230e-07
3.843930e-11
2.464270e-07
1.231840e-10
-1.810410e-07
-1.706810e-10
-9.975760e-11
-2.464660e-07
3.843930e-11
1.797010e-07
1.231840e-10
-2.461840e-07
-1.706810e-10
1.807660e-07
-1.796230e-07
3.843930e-11
-1.055800e-07
4.438020e-11
-1.810410e-07
-1.706810e-10
-1.033800e-07
-6.987470e-11
3.843930e-11
1.797010e-07
4.438020e-11
1.057560e-07
-1.706810e-10
1.807660e-07
-6.987470e-11
1.033290e-07
-1.055800e-07
4.438020e-11
1.998040e-07
-1.450730e-10
-1.033800e-07
-6.987470e-11
1.977030e-07
-8.821930e-12
4.438020e-11
1.057560e-07
-1.450730e-10
-2.001100e-07
-6.987470e-11
1.033290e-07
-8.821930e-12
-1.976160e-07
1.998040e-07
-1.450730e-10
1.482750e-08
-5.149470e-11
1.977030e-07
-8.821930e-12
1.659500e-08
1.950770e-11
-1.450730e-10
-2.001100e-07
-5.149470e-11
-1.490610e-08
-8.821930e-12
-1.976160e-07
1.950770e-11
-1.654000e-08
1.482750e-08
-5.149470e-11
-2.359910e-07
9.974060e-11
1.659500e-08
1.950770e-11
-2.356610e-07
-1.794950e-10
-5.149470e-11
-1.490610e-08
9.974060e-11
2.361320e-07
1.950770e-11
-1.654000e-08
-1.794950e-10
2.351860e-07
-2.359910e-07
9.974060e-11
1.201050e-07
-4.984520e-11
-2.356610e-07
-1.794950e-10
1.177360e-07
8.180100e-11
9.974060e-11
2.361320e-07
-4.984520e-11
-1.202340e-07
-1.794950e-10
2.351860e-07
8.180100e-11
-1.176070e-07
1.201050e-07
-4.984520e-11
2.427940e-07
-5.455780e-11
1.177360e-07
8.180100e-11
2.419690e-07
2.329710e-10
-4.984520e-11
-1.202340e-07
-5.455780e-11
-2.428760e-07
8.180100e-11
-1.176070e-07
2.329710e-10
-2.416940e-07
2.427940e-07
-5.455780e-11
-1.475050e-07
4.947300e-11
2.419690e-07
2.329710e-10
-1.454040e-07
-1.135150e-10
-5.455780e-11
-2.428760e-07
4.947300e-11
1.474030e-07
2.329710e-10
-2.416940e-07
-1.135150e-10
1.451920e-07
-1.475050e-07
4.947300e-11
-2.562190e-07
3.998050e-11
-1.454040e-07
-1.135150e-10
-2.553160e-07
1.344630e-10
4.947300e-11
1.474030e-07
3.998050e-11
2.561480e-07
-1.135150e-10
1.451920e-07
1.344630e-10
2.555400e-07
-2.562190e-07
3.998050e-11
5.768780e-08
-3.694660e-11
-2.553160e-07
1.344630e-10
5.776240e-08
-2.283890e-11
3.998050e-11
2.561480e-07
-3.694660e-11
-5.774280e-08
1.344630e-10
2.555400e-07
-2.283890e-11
-5.793130e-08
5.768780e-08
-3.694660e-11
2.066660e-07
-2.250730e-11
5.776240e-08
-2.283890e-11
2.068500e-07
6.665440e-11
-3.694660e-11
-5.774280e-08
-2.250730e-11
-2.067600e-07
-2.283890e-11
-5.793130e-08
6.665440e-11
-2.068190e-07
2.066660e-07
-2.250730e-11
6.623080e-08
1.675710e-11
2.068500e-07
6.665440e-11
6.729920e-08
-1.414750e-11
-2.250730e-11
-2.067600e-07
1.675710e-11
-6.620720e-08
6.665440e-11
-2.068190e-07
-1.414750e-11
-6.728340e-08
6.623080e-08
1.675710e-11
-1.387150e-07
-3.502200e-11
6.729920e-08
-1.414750e-11
-1.385580e-07
-1.354330e-11
1.675710e-11
-6.620720e-08
-3.502200e-11
1.386280e-07
-1.414750e-11
-6.728340e-08
-1.354330e-11
1.385140e-07
-1.387150e-07
-3.502200e-11
-2.354370e-07
-2.947570e-11
-1.385580e-07
-1.354330e-11
-2.351500e-07
1.065430e-10
-3.502200e-11
1.386280e-07
-2.947570e-11
2.353150e-07
-1.354330e-11
1.385140e-07
1.065430e-10
2.352760e-07
-2.354370e-07
-2.947570e-11
-1.643400e-07
4.821990e-11
-2.351500e-07
1.065430e-10
-1.644380e-07
-6.847870e-11
-2.947570e-11
2.353150e-07
4.821990e-11
1.644340e-07
1.065430e-10
2.352760e-07
-6.847870e-11
1.643120e-07
-1.643400e-07
4.821990e-11
-6.643110e-08
4.162610e-11
-1.644380e-07
-6.847870e-11
-6.630150e-08
-1.487320e-11
4.821990e-11
1.644340e-07
4.162610e-11
6.650570e-08
-6.847870e-11
1.643120e-07
-1.487320e-11
6.626220e-08
-6.643110e-08
4.162610e-11
-1.000020e-08
-9.599080e-12
-6.630150e-08
-1.487320e-11
-9.980570e-09
2.911660e-11
4.162610e-11
6.650570e-08
-9.599080e-12
9.968790e-09
-1.487320e-11
6.626220e-08
2.911660e-11
1.003160e-08
-1.000020e-08
-9.599080e-12
7.761360e-09
2.609840e-11
-9.980570e-09
2.911660e-11
7.796710e-09
2.648770e-11
-9.599080e-12
9.968790e-09
2.609840e-11
-7.729940e-09
2.911660e-11
1.003160e-08
2.648770e-11
-7.753500e-09
7.761360e-09
2.609840e-11
-1.846070e-10
7.689460e-12
7.796710e-09
2.648770e-11
-1.374730e-10
3.823760e-12
2.609840e-11
-7.729940e-09
7.689460e-12
1.806790e-10
2.648770e-11
-7.753500e-09
3.823760e-12
1.178340e-10
-1.846070e-10
7.689460e-12
4.579830e-09
-1.478940e-11
-1.374730e-10
3.823760e-12
4.383440e-09
-9.862380e-13
7.689460e-12
1.806790e-10
-1.478940e-11
-4.615180e-09
3.823760e-12
1.178340e-10
-9.862380e-13
-4.403080e-09
4.579830e-09
-1.478940e-11
-1.666960e-08
1.063630e-11
4.383440e-09
-9.862380e-13
-1.635540e-08
1.768780e-11
-1.478940e-11
-4.615180e-09
1.063630e-11
1.669710e-08
-9.862380e-13
-4.403080e-09
1.768780e-11
1.637900e-08
-1.666960e-08
1.063630e-11
-6.473040e-09
1.002700e-11
-1.635540e-08
1.768780e-11
-6.257010e-09
9.030100e-12
1.063630e-11
1.669710e-08
1.002700e-11
6.484820e-09
1.768780e-11
1.637900e-08
9.030100e-12
6.260940e-09
-6.473040e-09
1.002700e-11
3.317040e-08
-6.976750e-12
-6.257010e-09
9.030100e-12
3.236910e-08
-1.197480e-12
1.002700e-11
6.484820e-09
-6.976750e-12
-3.319000e-08
9.030100e-12
6.260940e-09
-1.197480e-12
-3.236910e-08
3.317040e-08
-6.976750e-12
2.388110e-09
-3.842880e-13
3.236910e-08
-1.197480e-12
2.737690e-09
-3.245620e-12
-6.976750e-12
-3.319000e-08
-3.842880e-13
-2.388110e-09
-1.197480e-12
-3.236910e-08
-3.245620e-12
-2.741610e-09
2.388110e-09
-3.842880e-13
3.095120e-09
1.665650e-11
2.737690e-09
-3.245620e-12
1.162630e-09
1.448260e-11
-3.842880e-13
-2.388110e-09
1.665650e-11
-3.059770e-09
-3.245620e-12
-2.741610e-09
1.448260e-11
-1.131210e-09
3.095120e-09
1.665650e-11
-6.893710e-08
2.602460e-11
1.162630e-09
1.448260e-11
-6.410190e-08
2.389570e-11
1.665650e-11
-3.059770e-09
2.602460e-11
6.898420e-08
1.448260e-11
-1.131210e-09
2.389570e-11
6.414510e-08
</DataArray>
<DataArray type="Float32" Name="V2" format="ascii">
0.000000e+00
0.000000e+00
1.170700e-02
1.170720e-02
0.000000e+00
0.000000e+00
1.170720e-02
1.170740e-02
0.000000e+00
0.000000e+00
1.170720e-02
1.170700e-02
0.000000e+00
0.000000e+00
1.170740e-02
1.170720e-02
1.170700e-02
1.170720e-02
2.140620e-02
2.140610e-02
1.170720e-02
1.170740e-02
2.140610e-02
2.140600e-02
1.170720e-02
1.170700e-02
2.140610e-02
2.140620e-02
1.170740e-02
1.170720e-02
2.140600e-02
2.140610e-02
2.140620e-02
2.140610e-02
2.585370e-02
2.585370e-02
2.140610e-02
2.140600e-02
2.585370e-02
2.585360e-02
2.140610e-02
2.140620e-02
2.585370e-02
2.585370e-02
2.140600e-02
2.140610e-02
2.585360e-02
2.585370e-02
2.585370e-02
2.585370e-02
2.223370e-02
2.223390e-02
2.585370e-02
2.585360e-02
2.223390e-02
2.223410e-02
2.585370e-02
2.585370e-02
2.223390e-02
2.223370e-02
2.585360e-02
2.585370e-02
2.223410e-02
2.223390e-02
2.223370e-02
2.223390e-02
1.199310e-02
1.199290e-02
2.223390e-02
2.223410e-02
1.199290e-02
1.199270e-02
2.223390e-02
2.223370e-02
1.199290e-02
1.199310e-02
2.223410e-02
2.223390e-02
1.199270e-02
1.199290e-02
1.199310e-02
1.199290e-02
1.680900e-03
1.680730e-03
1.199290e-02
1.199270e-02
1.680720e-03
1.680560e-03
1.199290e-02
1.199310e-02
1.680730e-03
1.680900e-03
1.199270e-02
1.199290e-02
1.680560e-03
1.680730e-03
1.680900e-03
1.680730e-03
-2.833640e-03
-2.833520e-03
1.680720e-03
1.680560e-03
-2.833520e-03
-2.833400e-03
1.680730e-03
1.680900e-03
-2.833520e-03
-2.833640e-03
1.680560e-03
1.680730e-03
-2.833400e-03
-2.833520e-03
-2.833640e-03
-2.833520e-03
-2.363590e-03
-2.363220e-03
-2.833520e-03
-2.833400e-03
-2.363220e-03
-2.362850e-03
-2.833520e-03
-2.833640e-03
-2.363220e-03
-2.363590e-03
-2.833400e-03
-2.833520e-03
-2.362850e-03
-2.363220e-03
-2.363590e-03
-2.363220e-03
-1.156210e-03
-1.156290e-03
-2.363220e-03
-2.362850e-03
-1.156290e-03
-1.156360e-03
-2.363220e-03
-2.363590e-03
-1.156290e-03
-1.156210e-03
-2.362850e-03
-2.363220e-03
-1.156360e-03
-1.156290e-03
-1.156210e-03
-1.156290e-03
-8.005860e-04
-8.010110e-04
-1.156290e-03
-1.156360e-03
-8.010110e-04
-8.014410e-04
-1.156290e-03
-1.156210e-03
-8.010110e-04
-8.005860e-04
-1.156360e-03
-1.156290e-03
-8.014410e-04
-8.010110e-04
-8.005860e-04
-8.010110e-04
-8.572440e-04
-8.572400e-04
-8.010110e-04
-8.014410e-04
-8.572400e-04
-8.572380e-04
-8.010110e-04
-8.005860e-04
-8.572400e-04
-8.572450e-04
-8.014410e-04
-8.010110e-04
-8.572380e-04
-8.572400e-04
-8.572440e-04
-8.572400e-04
-9.944660e-04
-9.943170e-04
-8.572400e-04
-8.572380e-04
-9.943170e-04
-9.941660e-04
-8.572400e-04
-8.572450e-04
-9.943170e-04
-9.944650e-04
-8.572380e-04
-8.572400e-04
-9.941660e-04
-9.943170e-04
-9.944660e-04
-9.943170e-04
-1.025850e-03
-1.025860e-03
-9.943170e-04
-9.941660e-04
-1.025860e-03
-1.025880e-03
-9.943170e-04
-9.944650e-04
-1.025860e-03
-1.025850e-03
-9.941660e-04
-9.943170e-04
-1.025880e-03
-1.025860e-03
-1.025850e-03
-1.025860e-03
-8.954030e-04
-8.955680e-04
-1.025860e-03
-1.025880e-03
-8.955670e-04
-8.957310e-04
-1.025860e-03
-1.025850e-03
-8.955680e-04
-8.954040e-04
-1.025880e-03
-1.025860e-03
-8.957310e-04
-8.955680e-04
-8.954030e-04
-8.955680e-04
-7.692330e-04
-7.691430e-04
-8.955670e-04
-8.957310e-04
-7.691430e-04
-7.690520e-04
-8.955680e-04
-8.954040e-04
-7.691430e-04
-7.692330e-04
-8.957310e-04
-8.955680e-04
-7.690520e-04
-7.691430e-04
-7.692330e-04
-7.691430e-04
-6.988830e-04
-6.986870e-04
-7.691430e-04
-7.690520e-04
-6.986870e-04
-6.984910e-04
-7.691430e-04
-7.692330e-04
-6.986870e-04
-6.988820e-04
-7.690520e-04
-7.691430e-04
-6.984910e-04
-6.986870e-04
-6.988830e-04
-6.986870e-04
-6.661760e-04
-6.659680e-04
-6.986870e-04
-6.984910e-04
-6.659680e-04
-6.657620e-04
-6.986870e-04
-6.988820e-04
-6.659680e-04
-6.661760e-04
-6.984910e-04
-6.986870e-04
-6.657620e-04
-6.659690e-04
-6.661760e-04
-6.659680e-04
-6.484940e-04
-6.484520e-04
-6.659680e-04
-6.657620e-04
-6.484520e-04
-6.484110e-04
-6.659680e-04
-6.661760e-04
-6.484520e-04
-6.484940e-04
-6.657620e-04
-6.659690e-04
-6.484110e-04
-6.484520e-04
-6.484940e-04
-6.484520e-04
-6.412070e-04
-6.412430e-04
-6.484520e-04
-6.484110e-04
-6.412430e-04
-6.412780e-04
-6.484520e-04
-6.484940e-04
-6.412430e-04
-6.412070e-04
-6.484110e-04
-6.484520e-04
-6.412780e-04
-6.412430e-04
-6.412070e-04
-6.412430e-04
-6.285600e-04
-6.286190e-04
-6.412430e-04
-6.412780e-04
-6.286190e-04
-6.286770e-04
-6.412430e-04
-6.412070e-04
-6.286190e-04
-6.285600e-04
-6.412780e-04
-6.412430e-04
-6.286770e-04
-6.286190e-04
-6.285600e-04
-6.286190e-04
-6.099920e-04
-6.100210e-04
-6.286190e-04
-6.286770e-04
-6.100210e-04
-6.100490e-04
-6.286190e-04
-6.285600e-04
-6.100210e-04
-6.099920e-04
-6.286770e-04
-6.286190e-04
-6.100490e-04
-6.100210e-04
-6.099920e-04
-6.100210e-04
-5.801070e-04
-5.801120e-04
-6.100210e-04
-6.100490e-04
-5.801120e-04
-5.801170e-04
-6.100210e-04
-6.099920e-04
-5.801120e-04
-5.801070e-04
-6.100490e-04
-6.100210e-04
-5.801170e-04
-5.801120e-04
-5.801070e-04
-5.801120e-04
-5.412420e-04
-5.412450e-04
-5.801120e-04
-5.801170e-04
-5.412440e-04
-5.412470e-04
-5.801120e-04
-5.801070e-04
-5.412450e-04
-5.412420e-04
-5.801170e-04
-5.801120e-04
-5.412470e-04
-5.412450e-04
-5.412420e-04
-5.412450e-04
-4.881000e-04
-4.880950e-04
-5.412440e-04
-5.412470e-04
-4.880950e-04
-4.880900e-04
-5.412450e-04
-5.412420e-04
-4.880950e-04
-4.881000e-04
-5.412470e-04
-5.412450e-04
-4.880900e-04
-4.880950e-04
-4.881000e-04
-4.880950e-04
-4.293190e-04
-4.292740e-04
-4.880950e-04
-4.880900e-04
-4.292740e-04
-4.292250e-04
-4.880950e-04
-4.881000e-04
-4.292740e-04
-4.293190e-04
-4.880900e-04
-4.880950e-04
-4.292250e-04
-4.292740e-04
-4.293190e-04
-4.292740e-04
-3.775890e-04
-3.777160e-04
-4.292740e-04
-4.292250e-04
-3.777160e-04
-3.778520e-04
-4.292740e-04
-4.293190e-04
-3.777160e-04
-3.775890e-04
-4.292250e-04
-4.292740e-04
-3.778520e-04
-3.777160e-04
-3.775890e-04
-3.777160e-04
-2.480530e-04
-2.480760e-04
-3.777160e-04
-3.778520e-04
-2.480770e-04
-2.481010e-04
-3.777160e-04
-3.775890e-04
-2.480760e-04
-2.480530e-04
-3.778520e-04
-3.777160e-04
-2.481010e-04
-2.480760e-04
-2.480530e-04
-2.480760e-04
-6.627800e-05
-6.606340e-05
-2.480770e-04
-2.481010e-04
-6.606330e-05
-6.583450e-05
-2.480760e-04
-2.480530e-04
-6.606340e-05
-6.627810e-05
-2.481010e-04
-2.480760e-04
-6.583450e-05
-6.606330e-05
-6.627800e-05
-6.606340e-05
2.859780e-05
2.859930e-05
-6.606330e-05
-6.583450e-05
2.859930e-05
2.860130e-05
-6.606340e-05
-6.627810e-05
2.859930e-05
2.859780e-05
-6.583450e-05
-6.606330e-05
2.860130e-05
2.859920e-05
2.859780e-05
2.859930e-05
7.033370e-05
7.049170e-05
2.859930e-05
2.860130e-05
7.049180e-05
7.069440e-05
2.859930e-05
2.859780e-05
7.049170e-05
7.033370e-05
2.860130e-05
2.859920e-05
7.069440e-05
7.049180e-05
0.000000e+00
0.000000e+00
1.170720e-02
1.170740e-02
0.000000e+00
0.000000e+00
1.170700e-02
1.170720e-02
0.000000e+00
0.000000e+00
1.170740e-02
1.170720e-02
0.000000e+00
0.000000e+00
1.170720e-02
1.170700e-02
1.170720e-02
1.170740e-02
2.140610e-02
2.140600e-02
1.170700e-02
1.170720e-02
2.140620e-02
2.140610e-02
1.170740e-02
1.170720e-02