MercuryDPM 0.14 name oneDimChain revision 6406 repository https://svn.mercurydpm.org/SourceCode/Branches/OomphlibCouplingExplicit
dataFile    fileType ONE_FILE saveCount 30 counter 105 lastSavedTimeStep 3111
fStatFile   fileType ONE_FILE saveCount 30 counter 105 lastSavedTimeStep 3111
eneFile     fileType ONE_FILE saveCount 30 counter 105 lastSavedTimeStep 3111
restartFile fileType ONE_FILE saveCount 30 counter 105 lastSavedTimeStep 3111
statFile    fileType ONE_FILE saveCount 30 counter 0
interactionFile fileType NO_FILE saveCount 0 counter 0
xMin -500 xMax 500 yMin -5000 yMax 5000 zMin -500 zMax 500
timeStep 0.0321487566790692 time 100.01478202858 ntimeSteps 3111 timeMax 100
systemDimensions 3 particleDimensions 3 gravity 0 0 -0 writeVTK 1 MULTIPLE_FILES NO_FILE 105 105 0 0 random  0 1103515245 12345 1073741824 607 273 784607267
Species 1
LinearViscoelasticReversibleAdhesiveSpecies id 0 density 2500 stiffness 40000000000 dissipation -0 adhesionForceMax 0 adhesionStiffness 40000000000
Walls 0
Boundaries 0
Particles 120
BaseParticle id 0 indSpecies 0 position -200.000000699479 2199.69302765166 -200.000000699764 orientation 1 0 0 0 velocity -4.54424250608874e-07 0.0183539403625259 -4.54440224765497e-07 angularVelocity 0 0 0 force -3708.34995819059 742079260.155514 -3709.4787353097 torque 0 0 0 radius 200 invMass 1.19366207318922e-11
BaseParticle id 1 indSpecies 0 position -200.000000699401 2199.69302765179 200.000000699359 orientation 1 0 0 0 velocity -4.54355529249738e-07 0.0183539404255976 4.5442768425598e-07 angularVelocity 0 0 0 force -3707.33240025528 742079241.980703 3706.12090040939 torque 0 0 0 radius 200 invMass 1.19366207318922e-11
BaseParticle id 2 indSpecies 0 position 200.000000699718 2199.69302765182 -200.000000699897 orientation 1 0 0 0 velocity 4.54439296703614e-07 0.0183539404602116 -4.54382322691593e-07 angularVelocity 0 0 0 force 3706.22490001714 742079245.641581 -3705.95545594795 torque 0 0 0 radius 200 invMass 1.19366207318922e-11
BaseParticle id 3 indSpecies 0 position 200.000000699758 2199.69302765195 200.000000699316 orientation 1 0 0 0 velocity 4.54515019651234e-07 0.0183539405198585 4.54451072925608e-07 angularVelocity 0 0 0 force 3706.88666748874 742079232.148839 3708.92034026656 torque 0 0 0 radius 200 invMass 1.19366207318922e-11
BaseParticle id 4 indSpecies 0 position -200.000003069376 2599.69132250804 -200.000003069751 orientation 1 0 0 0 velocity -2.98459830211199e-07 0.000451139757544641 -2.98431879264306e-07 angularVelocity 0 0 0 force -16803.3361830026 513957294.598372 -16806.6558194982 torque 0 0 0 radius 200 invMass 1.19366207318922e-11
BaseParticle id 5 indSpecies 0 position -200.000003069411 2599.69132250797 200.000003069243 orientation 1 0 0 0 velocity -2.98448233295257e-07 0.000451139922252079 2.98428051697334e-07 angularVelocity 0 0 0 force -16801.1256902995 513957300.945864 16804.6659264861 torque 0 0 0 radius 200 invMass 1.19366207318922e-11
BaseParticle id 6 indSpecies 0 position 200.000003069561 2599.69132250785 -200.000003069711 orientation 1 0 0 0 velocity 2.98402242473067e-07 0.000451139798596835 -2.9845419182061e-07 angularVelocity 0 0 0 force 16804.7645997369 513957314.150951 -16804.3231073293 torque 0 0 0 radius 200 invMass 1.19366207318922e-11
BaseParticle id 7 indSpecies 0 position 200.000003069594 2599.69132250776 200.00000306916 orientation 1 0 0 0 velocity 2.98413612998628e-07 0.000451140087240036 2.98405602025004e-07 angularVelocity 0 0 0 force 16806.5499784626 513957325.103015 16805.8592926454 torque 0 0 0 radius 200 invMass 1.19366207318922e-11
BaseParticle id 8 indSpecies 0 position -200.000000555542 2999.69551169635 -200.000000555978 orientation 1 0 0 0 velocity 1.70920469932655e-07 -0.00322361119797226 1.70937677023824e-07 angularVelocity 0 0 0 force 2188.91044325826 49518648.3713275 2187.46822172275 torque 0 0 0 radius 200 invMass 1.19366207318922e-11
BaseParticle id 9 indSpecies 0 position -200.000000555538 2999.6955116964 200.000000555438 orientation 1 0 0 0 velocity 1.70924419099793e-07 -0.00322361112858834 -1.70897848101983e-07 angularVelocity 0 0 0 force 2189.56633403799 49518653.5472553 -2190.32199478002 torque 0 0 0 radius 200 invMass 1.19366207318922e-11
BaseParticle id 10 indSpecies 0 position 200.000000555838 2999.69551169682 -200.00000055599 orientation 1 0 0 0 velocity -1.70898578921418e-07 -0.00322361108223271 1.70923740967395e-07 angularVelocity 0 0 0 force -2189.76156082578 49518649.3641885 2187.41869801868 torque 0 0 0 radius 200 invMass 1.19366207318922e-11
BaseParticle id 11 indSpecies 0 position 200.00000055581 2999.69551169466 200.000000555482 orientation 1 0 0 0 velocity -1.70894960039691e-07 -0.00322361164697253 -1.70907453683191e-07 angularVelocity 0 0 0 force -2189.1797225042 49518657.2934372 -2190.03792311831 torque 0 0 0 radius 200 invMass 1.19366207318922e-11
BaseParticle id 12 indSpecies 0 position -200.000002804655 3399.7010089853 -200.000002805036 orientation 1 0 0 0 velocity 1.06216184784511e-07 -0.00155648656529513 1.06214512090643e-07 angularVelocity 0 0 0 force 7936.35863977155 -106477624.324092 7936.6839216456 torque 0 0 0 radius 200 invMass 1.19366207318922e-11
BaseParticle id 13 indSpecies 0 position -200.000002804697 3399.7010089855 200.000002804311 orientation 1 0 0 0 velocity 1.0621748108057e-07 -0.00155648657727255 -1.06189584985655e-07 angularVelocity 0 0 0 force 7936.78619942238 -106477625.635971 -7936.09273478785 torque 0 0 0 radius 200 invMass 1.19366207318922e-11
BaseParticle id 14 indSpecies 0 position 200.000002804898 3399.70100898509 -200.00000280505 orientation 1 0 0 0 velocity -1.06177861810449e-07 -0.00155648666761388 1.06214325155766e-07 angularVelocity 0 0 0 force -7935.98162364188 -106477626.075438 7936.9288230962 torque 0 0 0 radius 200 invMass 1.19366207318922e-11
BaseParticle id 15 indSpecies 0 position 200.00000280491 3399.70100898714 200.000002804358 orientation 1 0 0 0 velocity -1.06176975298134e-07 -0.00155648618903055 -1.06188611280847e-07 angularVelocity 0 0 0 force -7935.58714174274 -106477631.076705 -7935.87564026232 torque 0 0 0 radius 200 invMass 1.19366207318922e-11
BaseParticle id 16 indSpecies 0 position -200.000001622613 3799.7026446181 -200.000001623319 orientation 1 0 0 0 velocity -2.34008638148837e-08 -6.68386790642921e-05 -2.34128777639196e-08 angularVelocity 0 0 0 force 1996.10510031243 -48840355.7326636 1996.61117885249 torque 0 0 0 radius 200 invMass 1.19366207318922e-11
BaseParticle id 17 indSpecies 0 position -200.000001622598 3799.70264461818 200.000001622463 orientation 1 0 0 0 velocity -2.34009660344391e-08 -6.68385773236307e-05 2.33814853953263e-08 angularVelocity 0 0 0 force 1996.43870215076 -48840357.4132067 -1995.92373453596 torque 0 0 0 radius 200 invMass 1.19366207318922e-11
BaseParticle id 18 indSpecies 0 position 200.000001622797 3799.70264461797 -200.000001623265 orientation 1 0 0 0 velocity 2.33985855830833e-08 -6.68386847306302e-05 -2.34107026389243e-08 angularVelocity 0 0 0 force -1996.06872425925 -48840357.8423247 1996.99043479873 torque 0 0 0 radius 200 invMass 1.19366207318922e-11
BaseParticle id 19 indSpecies 0 position 200.000001622761 3799.70264461807 200.000001622422 orientation 1 0 0 0 velocity 2.33980023985089e-08 -6.68385117848781e-05 2.33830175887563e-08 angularVelocity 0 0 0 force -1995.90105905695 -48840360.8705186 -1995.84347714219 torque 0 0 0 radius 200 invMass 1.19366207318922e-11
BaseParticle id 20 indSpecies 0 position -200.000002573377 4199.70266350824 -200.000002573769 orientation 1 0 0 0 velocity -1.16956609201242e-08 0.000300888079637213 -1.17137865006273e-08 angularVelocity 0 0 0 force -932.12582268852 3126940.11534884 -931.558601882281 torque 0 0 0 radius 200 invMass 1.19366207318922e-11
BaseParticle id 21 indSpecies 0 position -200.000002573359 4199.70266350841 200.000002572913 orientation 1 0 0 0 velocity -1.16958569092702e-08 0.000300887954846145 1.16619592219717e-08 angularVelocity 0 0 0 force -931.984070138651 3126940.59248779 931.54653850857 torque 0 0 0 radius 200 invMass 1.19366207318922e-11
BaseParticle id 22 indSpecies 0 position 200.000002573558 4199.70266350809 -200.000002573777 orientation 1 0 0 0 velocity 1.1682871874018e-08 0.000300888055800062 -1.17137028834509e-08 angularVelocity 0 0 0 force 931.280983011832 3126938.48399489 -931.385138493413 torque 0 0 0 radius 200 invMass 1.19366207318922e-11
BaseParticle id 23 indSpecies 0 position 200.000002573535 4199.70266350835 200.000002572927 orientation 1 0 0 0 velocity 1.16827924556036e-08 0.000300887861290522 1.1662545533099e-08 angularVelocity 0 0 0 force 931.279754104562 3126939.63472452 931.537280764041 torque 0 0 0 radius 200 invMass 1.19366207318922e-11
BaseParticle id 24 indSpecies 0 position -200.00000356979 4599.70536217949 -200.00000357017 orientation 1 0 0 0 velocity 8.40262942164004e-09 0.000122178264311173 8.37866860916584e-09 angularVelocity 0 0 0 force -344.518359283709 8652446.61610008 -344.015417741928 torque 0 0 0 radius 200 invMass 1.19366207318922e-11
BaseParticle id 25 indSpecies 0 position -200.000003569758 4599.70536217971 200.000003569415 orientation 1 0 0 0 velocity 8.40269436000111e-09 0.00012217827725273 -8.42075473437997e-09 angularVelocity 0 0 0 force -344.45575723231 8652446.75551459 344.039144296675 torque 0 0 0 radius 200 invMass 1.19366207318922e-11
BaseParticle id 26 indSpecies 0 position 200.000003569912 4599.70536218221 -200.000003570169 orientation 1 0 0 0 velocity -8.39734167850979e-09 0.000122178390911293 8.37801698541317e-09 angularVelocity 0 0 0 force 343.561799825812 8652446.20914475 -343.949930717994 torque 0 0 0 radius 200 invMass 1.19366207318922e-11
BaseParticle id 27 indSpecies 0 position 200.000003569881 4599.7053621808 200.000003569409 orientation 1 0 0 0 velocity -8.39815737495452e-09 0.000122178310814995 -8.42124865178958e-09 angularVelocity 0 0 0 force 343.577110295473 8652446.1869674 343.98902950932 torque 0 0 0 radius 200 invMass 1.19366207318922e-11
BaseParticle id 28 indSpecies 0 position -200.00000233785 4999.70766103427 -200.00000233816 orientation 1 0 0 0 velocity -4.43086903681028e-08 5.22662856652976e-05 -4.43276131427482e-08 angularVelocity 0 0 0 force 413.769473111432 1580043.05528239 413.95285562585 torque 0 0 0 radius 200 invMass 1.19366207318922e-11
BaseParticle id 29 indSpecies 0 position -200.000002337876 4999.70766103132 200.00000233755 orientation 1 0 0 0 velocity -4.43090256553755e-08 5.22661727554014e-05 4.43027486007965e-08 angularVelocity 0 0 0 force 413.880450184564 1580043.29105072 -414.080478007814 torque 0 0 0 radius 200 invMass 1.19366207318922e-11
BaseParticle id 30 indSpecies 0 position 200.0000023378 4999.70766102251 -200.000002338176 orientation 1 0 0 0 velocity 4.43215789188327e-08 5.22659883302514e-05 -4.43287839262801e-08 angularVelocity 0 0 0 force -414.378494749276 1580043.38535778 413.988238665779 torque 0 0 0 radius 200 invMass 1.19366207318922e-11
BaseParticle id 31 indSpecies 0 position 200.000002337804 4999.70766103015 200.000002337542 orientation 1 0 0 0 velocity 4.43207746206216e-08 5.22662009369529e-05 4.43019390740448e-08 angularVelocity 0 0 0 force -414.342971004315 1580042.63891074 -414.091646566144 torque 0 0 0 radius 200 invMass 1.19366207318922e-11
BaseParticle id 32 indSpecies 0 position -200.000008085173 5399.71075479 -200.000008085139 orientation 1 0 0 0 velocity -6.10546738239968e-08 0.000167044016332739 -6.10612030496499e-08 angularVelocity 0 0 0 force -32.8058857295319 20903.8397208245 -32.8234134000333 torque 0 0 0 radius 200 invMass 1.19366207318922e-11
BaseParticle id 33 indSpecies 0 position -200.000008085183 5399.71075479349 200.000008084709 orientation 1 0 0 0 velocity -6.10542859255477e-08 0.000167044142040183 6.10491835783357e-08 angularVelocity 0 0 0 force -32.7372496954119 20903.7744286405 32.6696712419569 torque 0 0 0 radius 200 invMass 1.19366207318922e-11
BaseParticle id 34 indSpecies 0 position 200.000008084688 5399.71075480496 -200.000008085136 orientation 1 0 0 0 velocity 6.10561672593403e-08 0.000167044360588476 -6.10615406992241e-08 angularVelocity 0 0 0 force 32.6696428665643 20902.5427487558 -32.8450852235388 torque 0 0 0 radius 200 invMass 1.19366207318922e-11
BaseParticle id 35 indSpecies 0 position 200.000008084679 5399.71075479509 200.000008084707 orientation 1 0 0 0 velocity 6.10557514838757e-08 0.00016704411070864 6.10486613398388e-08 angularVelocity 0 0 0 force 32.6706491682414 20903.1048689468 32.6594615035562 torque 0 0 0 radius 200 invMass 1.19366207318922e-11
BaseParticle id 36 indSpecies 0 position -200.000017321982 5799.7168700661 -200.000017321686 orientation 1 0 0 0 velocity -4.01744628926984e-08 -0.000301856097323336 -4.01722219414673e-08 angularVelocity 0 0 0 force 186.80804487073 190781.45248109 186.731123004597 torque 0 0 0 radius 200 invMass 1.19366207318922e-11
BaseParticle id 37 indSpecies 0 position -200.000017322002 5799.71687006612 200.000017321374 orientation 1 0 0 0 velocity -4.01745172878966e-08 -0.000301856097687113 4.01642900508871e-08 angularVelocity 0 0 0 force 186.817417753302 190781.218315156 -186.792361569654 torque 0 0 0 radius 200 invMass 1.19366207318922e-11
BaseParticle id 38 indSpecies 0 position 200.000017321073 5799.71687006644 -200.000017321661 orientation 1 0 0 0 velocity 4.01619659652748e-08 -0.000301856059325027 -4.01720188114276e-08 angularVelocity 0 0 0 force -186.705165160359 190781.210554502 186.717226427732 torque 0 0 0 radius 200 invMass 1.19366207318922e-11
BaseParticle id 39 indSpecies 0 position 200.000017321093 5799.71687006659 200.000017321383 orientation 1 0 0 0 velocity 4.01622732953181e-08 -0.000301856070197 4.01639718540521e-08 angularVelocity 0 0 0 force -186.71450097159 190781.270888243 -186.811672707829 torque 0 0 0 radius 200 invMass 1.19366207318922e-11
BaseParticle id 40 indSpecies 0 position -200.000009698854 6199.72395615554 -200.000009698441 orientation 1 0 0 0 velocity 1.26356627725464e-07 0.000547537712474321 1.26365343064137e-07 angularVelocity 0 0 0 force 913.027208108637 -551848.737760694 912.966102782198 torque 0 0 0 radius 200 invMass 1.19366207318922e-11
BaseParticle id 41 indSpecies 0 position -200.000009698838 6199.72395615429 200.000009698291 orientation 1 0 0 0 velocity 1.2635662875446e-07 0.000547537663404834 -1.26369880436649e-07 angularVelocity 0 0 0 force 913.036294021138 -551848.937898145 -912.998243309274 torque 0 0 0 radius 200 invMass 1.19366207318922e-11
BaseParticle id 42 indSpecies 0 position 200.000009697884 6199.7239561503 -200.000009698417 orientation 1 0 0 0 velocity -1.26378233082283e-07 0.000547537494247876 1.26365265463253e-07 angularVelocity 0 0 0 force -912.92481960628 -551848.574735394 912.969757869118 torque 0 0 0 radius 200 invMass 1.19366207318922e-11
BaseParticle id 43 indSpecies 0 position 200.000009697888 6199.72395615343 200.000009698314 orientation 1 0 0 0 velocity -1.26378482078776e-07 0.000547537631617175 -1.26370279986953e-07 angularVelocity 0 0 0 force -912.932367605894 -551848.777850053 -913.008083028371 torque 0 0 0 radius 200 invMass 1.19366207318922e-11
BaseParticle id 44 indSpecies 0 position -200.00000001837 6599.75941914406 -200.00000001837 orientation 1 0 0 0 velocity -2.79130204498333e-10 -8.43528636019256e-05 -2.79276858911132e-10 angularVelocity 0 0 0 force 0 0 0 torque 0 0 0 radius 200 invMass 1.19366207318922e-11
BaseParticle id 45 indSpecies 0 position -200.00000001837 6599.75941914404 200.00000001837 orientation 1 0 0 0 velocity -2.79130351171617e-10 -8.43528695195394e-05 2.79276909299121e-10 angularVelocity 0 0 0 force 0 0 0 torque 0 0 0 radius 200 invMass 1.19366207318922e-11
BaseParticle id 46 indSpecies 0 position 200.00000001837 6599.75941914406 -200.00000001837 orientation 1 0 0 0 velocity 2.79132634616489e-10 -8.43528669646959e-05 -2.79277624328427e-10 angularVelocity 0 0 0 force 0 0 0 torque 0 0 0 radius 200 invMass 1.19366207318922e-11
BaseParticle id 47 indSpecies 0 position 200.00000001837 6599.75941914216 200.00000001837 orientation 1 0 0 0 velocity 2.79132479998293e-10 -8.43528712924902e-05 2.79276324080469e-10 angularVelocity 0 0 0 force 0 0 0 torque 0 0 0 radius 200 invMass 1.19366207318922e-11
BaseParticle id 48 indSpecies 0 position -200 6999.82292380044 -200 orientation 1 0 0 0 velocity -1.66646079627868e-14 0.000792968141838732 -1.66592899561027e-14 angularVelocity 0 0 0 force 0 0 0 torque 0 0 0 radius 200 invMass 1.19366207318922e-11
BaseParticle id 49 indSpecies 0 position -200 6999.82292380044 200 orientation 1 0 0 0 velocity -1.66646079606261e-14 0.000792968138139189 1.66592899539419e-14 angularVelocity 0 0 0 force 0 0 0 torque 0 0 0 radius 200 invMass 1.19366207318922e-11
BaseParticle id 50 indSpecies 0 position 200 6999.82292380045 -200 orientation 1 0 0 0 velocity 1.66580546109026e-14 0.000792968144142247 -1.66592899568763e-14 angularVelocity 0 0 0 force 0 0 0 torque 0 0 0 radius 200 invMass 1.19366207318922e-11
BaseParticle id 51 indSpecies 0 position 200 6999.82292380044 200 orientation 1 0 0 0 velocity 1.6658054606171e-14 0.000792968136436009 1.66592899521443e-14 angularVelocity 0 0 0 force 0 0 0 torque 0 0 0 radius 200 invMass 1.19366207318922e-11
BaseParticle id 52 indSpecies 0 position -200 7399.86378641712 -200 orientation 1 0 0 0 velocity 0 0.00132638728808969 0 angularVelocity 0 0 0 force 0 0 0 torque 0 0 0 radius 200 invMass 1.19366207318922e-11
BaseParticle id 53 indSpecies 0 position -200 7399.86378641712 200 orientation 1 0 0 0 velocity 0 0.00132638728857831 0 angularVelocity 0 0 0 force 0 0 0 torque 0 0 0 radius 200 invMass 1.19366207318922e-11
BaseParticle id 54 indSpecies 0 position 200 7399.86378641712 -200 orientation 1 0 0 0 velocity 0 0.00132638728863416 0 angularVelocity 0 0 0 force 0 0 0 torque 0 0 0 radius 200 invMass 1.19366207318922e-11
BaseParticle id 55 indSpecies 0 position 200 7399.86378641712 200 orientation 1 0 0 0 velocity 0 0.00132638728828515 0 angularVelocity 0 0 0 force 0 0 0 torque 0 0 0 radius 200 invMass 1.19366207318922e-11
BaseParticle id 56 indSpecies 0 position -200 7799.87734687073 -200 orientation 1 0 0 0 velocity 0 0.00145789708054704 0 angularVelocity 0 0 0 force 0 0 0 torque 0 0 0 radius 200 invMass 1.19366207318922e-11
BaseParticle id 57 indSpecies 0 position -200 7799.87734687073 200 orientation 1 0 0 0 velocity 0 0.00145789708054704 0 angularVelocity 0 0 0 force 0 0 0 torque 0 0 0 radius 200 invMass 1.19366207318922e-11
BaseParticle id 58 indSpecies 0 position 200 7799.87734687073 -200 orientation 1 0 0 0 velocity 0 0.00145789708054704 0 angularVelocity 0 0 0 force 0 0 0 torque 0 0 0 radius 200 invMass 1.19366207318922e-11
BaseParticle id 59 indSpecies 0 position 200 7799.87734687073 200 orientation 1 0 0 0 velocity 0 0.00145789708071457 0 angularVelocity 0 0 0 force 0 0 0 torque 0 0 0 radius 200 invMass 1.19366207318922e-11
BaseParticle id 60 indSpecies 0 position -200 8199.88748520516 -200 orientation 1 0 0 0 velocity 0 0.001535605359961 0 angularVelocity 0 0 0 force 0 0 0 torque 0 0 0 radius 200 invMass 1.19366207318922e-11
BaseParticle id 61 indSpecies 0 position -200 8199.88748520516 200 orientation 1 0 0 0 velocity 0 0.001535605359961 0 angularVelocity 0 0 0 force 0 0 0 torque 0 0 0 radius 200 invMass 1.19366207318922e-11
BaseParticle id 62 indSpecies 0 position 200 8199.88748520516 -200 orientation 1 0 0 0 velocity 0 0.001535605359961 0 angularVelocity 0 0 0 force 0 0 0 torque 0 0 0 radius 200 invMass 1.19366207318922e-11
BaseParticle id 63 indSpecies 0 position 200 8199.88748520516 200 orientation 1 0 0 0 velocity 0 0.001535605359961 0 angularVelocity 0 0 0 force 0 0 0 torque 0 0 0 radius 200 invMass 1.19366207318922e-11
BaseParticle id 64 indSpecies 0 position -200 8599.89870011757 -200 orientation 1 0 0 0 velocity 0 0.001622739944329 0 angularVelocity 0 0 0 force 0 0 0 torque 0 0 0 radius 200 invMass 1.19366207318922e-11
BaseParticle id 65 indSpecies 0 position -200 8599.89870011757 200 orientation 1 0 0 0 velocity 0 0.001622739944329 0 angularVelocity 0 0 0 force 0 0 0 torque 0 0 0 radius 200 invMass 1.19366207318922e-11
BaseParticle id 66 indSpecies 0 position 200 8599.89870011757 -200 orientation 1 0 0 0 velocity 0 0.001622739944329 0 angularVelocity 0 0 0 force 0 0 0 torque 0 0 0 radius 200 invMass 1.19366207318922e-11
BaseParticle id 67 indSpecies 0 position 200 8599.89870011757 200 orientation 1 0 0 0 velocity 0 0.001622739944329 0 angularVelocity 0 0 0 force 0 0 0 torque 0 0 0 radius 200 invMass 1.19366207318922e-11
BaseParticle id 68 indSpecies 0 position -200 8999.91115290023 -200 orientation 1 0 0 0 velocity 0 0.00172059925209774 0 angularVelocity 0 0 0 force 0 0 0 torque 0 0 0 radius 200 invMass 1.19366207318922e-11
BaseParticle id 69 indSpecies 0 position -200 8999.91115290023 200 orientation 1 0 0 0 velocity 0 0.00172059925209774 0 angularVelocity 0 0 0 force 0 0 0 torque 0 0 0 radius 200 invMass 1.19366207318922e-11
BaseParticle id 70 indSpecies 0 position 200 8999.91115290023 -200 orientation 1 0 0 0 velocity 0 0.00172059925209774 0 angularVelocity 0 0 0 force 0 0 0 torque 0 0 0 radius 200 invMass 1.19366207318922e-11
BaseParticle id 71 indSpecies 0 position 200 8999.91115290023 200 orientation 1 0 0 0 velocity 0 0.00172059925209774 0 angularVelocity 0 0 0 force 0 0 0 torque 0 0 0 radius 200 invMass 1.19366207318922e-11
BaseParticle id 72 indSpecies 0 position -200 9399.92521058026 -200 orientation 1 0 0 0 velocity 0 0.00183296491733134 0 angularVelocity 0 0 0 force 0 0 0 torque 0 0 0 radius 200 invMass 1.19366207318922e-11
BaseParticle id 73 indSpecies 0 position -200 9399.92521058026 200 orientation 1 0 0 0 velocity 0 0.00183296491733134 0 angularVelocity 0 0 0 force 0 0 0 torque 0 0 0 radius 200 invMass 1.19366207318922e-11
BaseParticle id 74 indSpecies 0 position 200 9399.92521058026 -200 orientation 1 0 0 0 velocity 0 0.00183296491733134 0 angularVelocity 0 0 0 force 0 0 0 torque 0 0 0 radius 200 invMass 1.19366207318922e-11
BaseParticle id 75 indSpecies 0 position 200 9399.92521058026 200 orientation 1 0 0 0 velocity 0 0.00183296491733134 0 angularVelocity 0 0 0 force 0 0 0 torque 0 0 0 radius 200 invMass 1.19366207318922e-11
BaseParticle id 76 indSpecies 0 position -200 9799.94127195103 -200 orientation 1 0 0 0 velocity 0 0.00196362914814414 0 angularVelocity 0 0 0 force 0 0 0 torque 0 0 0 radius 200 invMass 1.19366207318922e-11
BaseParticle id 77 indSpecies 0 position -200 9799.94127195103 200 orientation 1 0 0 0 velocity 0 0.00196362914814414 0 angularVelocity 0 0 0 force 0 0 0 torque 0 0 0 radius 200 invMass 1.19366207318922e-11
BaseParticle id 78 indSpecies 0 position 200 9799.94127195103 -200 orientation 1 0 0 0 velocity 0 0.00196362914814414 0 angularVelocity 0 0 0 force 0 0 0 torque 0 0 0 radius 200 invMass 1.19366207318922e-11
BaseParticle id 79 indSpecies 0 position 200 9799.94127195103 200 orientation 1 0 0 0 velocity 0 0.00196362914814414 0 angularVelocity 0 0 0 force 0 0 0 torque 0 0 0 radius 200 invMass 1.19366207318922e-11
BaseParticle id 80 indSpecies 0 position -200 10199.9598836017 -200 orientation 1 0 0 0 velocity 0 0.00211780591761501 0 angularVelocity 0 0 0 force 0 0 0 torque 0 0 0 radius 200 invMass 1.19366207318922e-11
BaseParticle id 81 indSpecies 0 position -200 10199.9598836017 200 orientation 1 0 0 0 velocity 0 0.00211780591761501 0 angularVelocity 0 0 0 force 0 0 0 torque 0 0 0 radius 200 invMass 1.19366207318922e-11
BaseParticle id 82 indSpecies 0 position 200 10199.9598836017 -200 orientation 1 0 0 0 velocity 0 0.00211780591761501 0 angularVelocity 0 0 0 force 0 0 0 torque 0 0 0 radius 200 invMass 1.19366207318922e-11
BaseParticle id 83 indSpecies 0 position 200 10199.9598836017 200 orientation 1 0 0 0 velocity 0 0.00211780591761501 0 angularVelocity 0 0 0 force 0 0 0 torque 0 0 0 radius 200 invMass 1.19366207318922e-11
BaseParticle id 84 indSpecies 0 position -200 10599.9816990082 -200 orientation 1 0 0 0 velocity 0 0.00230146420857093 0 angularVelocity 0 0 0 force 0 0 0 torque 0 0 0 radius 200 invMass 1.19366207318922e-11
BaseParticle id 85 indSpecies 0 position -200 10599.9816990082 200 orientation 1 0 0 0 velocity 0 0.00230146420857093 0 angularVelocity 0 0 0 force 0 0 0 torque 0 0 0 radius 200 invMass 1.19366207318922e-11
BaseParticle id 86 indSpecies 0 position 200 10599.9816990082 -200 orientation 1 0 0 0 velocity 0 0.00230146420857093 0 angularVelocity 0 0 0 force 0 0 0 torque 0 0 0 radius 200 invMass 1.19366207318922e-11
BaseParticle id 87 indSpecies 0 position 200 10599.9816990082 200 orientation 1 0 0 0 velocity 0 0.00230146420857093 0 angularVelocity 0 0 0 force 0 0 0 torque 0 0 0 radius 200 invMass 1.19366207318922e-11
BaseParticle id 88 indSpecies 0 position -200 11000.0078499326 -200 orientation 1 0 0 0 velocity 0 0.00252559061736983 0 angularVelocity 0 0 0 force 0 0 0 torque 0 0 0 radius 200 invMass 1.19366207318922e-11
BaseParticle id 89 indSpecies 0 position -200 11000.0078499326 200 orientation 1 0 0 0 velocity 0 0.00252559061736983 0 angularVelocity 0 0 0 force 0 0 0 torque 0 0 0 radius 200 invMass 1.19366207318922e-11
BaseParticle id 90 indSpecies 0 position 200 11000.0078499326 -200 orientation 1 0 0 0 velocity 0 0.00252559061736983 0 angularVelocity 0 0 0 force 0 0 0 torque 0 0 0 radius 200 invMass 1.19366207318922e-11
BaseParticle id 91 indSpecies 0 position 200 11000.0078499326 200 orientation 1 0 0 0 velocity 0 0.00252559061736983 0 angularVelocity 0 0 0 force 0 0 0 torque 0 0 0 radius 200 invMass 1.19366207318922e-11
BaseParticle id 92 indSpecies 0 position -200 11400.03995223 -200 orientation 1 0 0 0 velocity 0 0.00280566830038197 0 angularVelocity 0 0 0 force 0 0 0 torque 0 0 0 radius 200 invMass 1.19366207318922e-11
BaseParticle id 93 indSpecies 0 position -200 11400.03995223 200 orientation 1 0 0 0 velocity 0 0.00280566830038197 0 angularVelocity 0 0 0 force 0 0 0 torque 0 0 0 radius 200 invMass 1.19366207318922e-11
BaseParticle id 94 indSpecies 0 position 200 11400.03995223 -200 orientation 1 0 0 0 velocity 0 0.00280566830038197 0 angularVelocity 0 0 0 force 0 0 0 torque 0 0 0 radius 200 invMass 1.19366207318922e-11
BaseParticle id 95 indSpecies 0 position 200 11400.03995223 200 orientation 1 0 0 0 velocity 0 0.00280566830038197 0 angularVelocity 0 0 0 force 0 0 0 torque 0 0 0 radius 200 invMass 1.19366207318922e-11
BaseParticle id 96 indSpecies 0 position -200 11800.0806845827 -200 orientation 1 0 0 0 velocity 0 0.00316767304793931 0 angularVelocity 0 0 0 force 0 0 0 torque 0 0 0 radius 200 invMass 1.19366207318922e-11
BaseParticle id 97 indSpecies 0 position -200 11800.0806845827 200 orientation 1 0 0 0 velocity 0 0.00316767304793931 0 angularVelocity 0 0 0 force 0 0 0 torque 0 0 0 radius 200 invMass 1.19366207318922e-11
BaseParticle id 98 indSpecies 0 position 200 11800.0806845827 -200 orientation 1 0 0 0 velocity 0 0.00316767304793931 0 angularVelocity 0 0 0 force 0 0 0 torque 0 0 0 radius 200 invMass 1.19366207318922e-11
BaseParticle id 99 indSpecies 0 position 200 11800.0806845827 200 orientation 1 0 0 0 velocity 0 0.00316767304793931 0 angularVelocity 0 0 0 force 0 0 0 torque 0 0 0 radius 200 invMass 1.19366207318922e-11
BaseParticle id 100 indSpecies 0 position -200 12200.1345511605 -200 orientation 1 0 0 0 velocity 0 0.00365528361274133 0 angularVelocity 0 0 0 force 0 0 0 torque 0 0 0 radius 200 invMass 1.19366207318922e-11
BaseParticle id 101 indSpecies 0 position -200 12200.1345511605 200 orientation 1 0 0 0 velocity 0 0.00365528361274133 0 angularVelocity 0 0 0 force 0 0 0 torque 0 0 0 radius 200 invMass 1.19366207318922e-11
BaseParticle id 102 indSpecies 0 position 200 12200.1345511605 -200 orientation 1 0 0 0 velocity 0 0.00365528361274133 0 angularVelocity 0 0 0 force 0 0 0 torque 0 0 0 radius 200 invMass 1.19366207318922e-11
BaseParticle id 103 indSpecies 0 position 200 12200.1345511605 200 orientation 1 0 0 0 velocity 0 0.00365528361274133 0 angularVelocity 0 0 0 force 0 0 0 torque 0 0 0 radius 200 invMass 1.19366207318922e-11
BaseParticle id 104 indSpecies 0 position -200 12600.2105715845 -200 orientation 1 0 0 0 velocity 0 0.0043570222649936 0 angularVelocity 0 0 0 force 0 0 0 torque 0 0 0 radius 200 invMass 1.19366207318922e-11
BaseParticle id 105 indSpecies 0 position -200 12600.2105715845 200 orientation 1 0 0 0 velocity 0 0.0043570222649936 0 angularVelocity 0 0 0 force 0 0 0 torque 0 0 0 radius 200 invMass 1.19366207318922e-11
BaseParticle id 106 indSpecies 0 position 200 12600.2105715845 -200 orientation 1 0 0 0 velocity 0 0.0043570222649936 0 angularVelocity 0 0 0 force 0 0 0 torque 0 0 0 radius 200 invMass 1.19366207318922e-11
BaseParticle id 107 indSpecies 0 position 200 12600.2105715845 200 orientation 1 0 0 0 velocity 0 0.0043570222649936 0 angularVelocity 0 0 0 force 0 0 0 torque 0 0 0 radius 200 invMass 1.19366207318922e-11
BaseParticle id 108 indSpecies 0 position -200 13000.3282775058 -200 orientation 1 0 0 0 velocity 0 0.00546489405658367 0 angularVelocity 0 0 0 force 0 0 0 torque 0 0 0 radius 200 invMass 1.19366207318922e-11
BaseParticle id 109 indSpecies 0 position -200 13000.3282775058 200 orientation 1 0 0 0 velocity 0 0.00546489405658367 0 angularVelocity 0 0 0 force 0 0 0 torque 0 0 0 radius 200 invMass 1.19366207318922e-11
BaseParticle id 110 indSpecies 0 position 200 13000.3282775058 -200 orientation 1 0 0 0 velocity 0 0.00546489405658367 0 angularVelocity 0 0 0 force 0 0 0 torque 0 0 0 radius 200 invMass 1.19366207318922e-11
BaseParticle id 111 indSpecies 0 position 200 13000.3282775058 200 orientation 1 0 0 0 velocity 0 0.00546489405658367 0 angularVelocity 0 0 0 force 0 0 0 torque 0 0 0 radius 200 invMass 1.19366207318922e-11
BaseParticle id 112 indSpecies 0 position -200 13400.5444000637 -200 orientation 1 0 0 0 velocity 0 0.00754097293065658 0 angularVelocity 0 0 0 force 0 0 0 torque 0 0 0 radius 200 invMass 1.19366207318922e-11
BaseParticle id 113 indSpecies 0 position -200 13400.5444000637 200 orientation 1 0 0 0 velocity 0 0.00754097293065658 0 angularVelocity 0 0 0 force 0 0 0 torque 0 0 0 radius 200 invMass 1.19366207318922e-11