MercuryDPM 0.14 name oneDimChain revision 6406 repository https://svn.mercurydpm.org/SourceCode/Branches/OomphlibCouplingExplicit
dataFile    fileType ONE_FILE saveCount 30 counter 105 lastSavedTimeStep 3111
fStatFile   fileType ONE_FILE saveCount 30 counter 105 lastSavedTimeStep 3111
eneFile     fileType ONE_FILE saveCount 30 counter 105 lastSavedTimeStep 3111
restartFile fileType ONE_FILE saveCount 30 counter 105 lastSavedTimeStep 3111
statFile    fileType ONE_FILE saveCount 30 counter 0
interactionFile fileType NO_FILE saveCount 0 counter 0
xMin -500 xMax 500 yMin -5000 yMax 5000 zMin -500 zMax 500
timeStep 0.0321487566790692 time 100.01478202858 ntimeSteps 3111 timeMax 100
systemDimensions 3 particleDimensions 3 gravity 0 0 -0 writeVTK 1 MULTIPLE_FILES NO_FILE 105 105 0 0 random  0 1103515245 12345 1073741824 607 273 784607267
Species 1
LinearViscoelasticReversibleAdhesiveSpecies id 0 density 2500 stiffness 40000000000 dissipation -0 adhesionForceMax 0 adhesionStiffness 40000000000
Walls 0
Boundaries 0
Particles 120
BaseParticle id 0 indSpecies 0 position -200.000000000051 2199.6994498989 -200.000000000127 orientation 1 0 0 0 velocity -1.93717392858917e-11 0.0140406305026229 -2.98587224786215e-11 angularVelocity 0 0 0 force -1.2739272424208 463336024.124947 2.87171124431911 torque 0 0 0 radius 200 invMass 1.19366207318922e-11
BaseParticle id 1 indSpecies 0 position -200.000000000059 2199.69944989893 199.999999999888 orientation 1 0 0 0 velocity 7.57127205554066e-12 0.0140406305128233 7.33302362292519e-12 angularVelocity 0 0 0 force -2.63790728572544 463336019.754538 2.02483068414478 torque 0 0 0 radius 200 invMass 1.19366207318922e-11
BaseParticle id 2 indSpecies 0 position 199.999999999959 2199.69944989887 -200.000000000094 orientation 1 0 0 0 velocity -2.74676869987423e-11 0.0140406305085878 2.03349064739362e-12 angularVelocity 0 0 0 force 0.939442362041867 463336016.916813 -1.20086215631182 torque 0 0 0 radius 200 invMass 1.19366207318922e-11
BaseParticle id 3 indSpecies 0 position 199.999999999953 2199.69944989892 199.999999999916 orientation 1 0 0 0 velocity -1.17306778500011e-11 0.0140406305180145 2.49915578767057e-11 angularVelocity 0 0 0 force -0.640998889448033 463336017.254339 2.60225936854363 torque 0 0 0 radius 200 invMass 1.19366207318922e-11
BaseParticle id 4 indSpecies 0 position -200.000000000013 2599.69146862173 -200.000000000104 orientation 1 0 0 0 velocity -1.58202073811419e-11 0.00478520737872358 -4.23357592399613e-11 angularVelocity 0 0 0 force 1.21262466277947 632687615.822851 -0.0937144498088417 torque 0 0 0 radius 200 invMass 1.19366207318922e-11
BaseParticle id 5 indSpecies 0 position -200.000000000037 2599.6914686217 199.999999999908 orientation 1 0 0 0 velocity -6.39096034164431e-12 0.00478520746984836 -5.00296328564136e-11 angularVelocity 0 0 0 force 2.211645476962 632687617.420784 0.095096539719283 torque 0 0 0 radius 200 invMass 1.19366207318922e-11
BaseParticle id 6 indSpecies 0 position 199.99999999999 2599.69146862171 -200.000000000106 orientation 1 0 0 0 velocity -2.65833100304047e-11 0.00478520736502285 -3.00186072462305e-11 angularVelocity 0 0 0 force 0.193378644511569 632687620.540782 2.45885491535271 torque 0 0 0 radius 200 invMass 1.19366207318922e-11
BaseParticle id 7 indSpecies 0 position 199.999999999966 2599.69146862172 199.999999999913 orientation 1 0 0 0 velocity -2.14246904080523e-11 0.00478520744012932 -4.34357134965375e-11 angularVelocity 0 0 0 force 1.96538210534283 632687615.360591 0.820624337217709 torque 0 0 0 radius 200 invMass 1.19366207318922e-11
BaseParticle id 8 indSpecies 0 position -199.999999999972 2999.69198691658 -200.000000000032 orientation 1 0 0 0 velocity -3.3420989865159e-11 -0.00196566737093628 -2.41380991766925e-11 angularVelocity 0 0 0 force -1.45862186710411 126381357.279333 -0.46734679518654 torque 0 0 0 radius 200 invMass 1.19366207318922e-11
BaseParticle id 9 indSpecies 0 position -199.999999999991 2999.69198691653 199.999999999993 orientation 1 0 0 0 velocity -4.04816808927256e-11 -0.00196566734032097 -2.53610861105512e-11 angularVelocity 0 0 0 force -0.954792027537823 126381359.265927 -1.72653179648629 torque 0 0 0 radius 200 invMass 1.19366207318922e-11
BaseParticle id 10 indSpecies 0 position 200.000000000024 2999.69198691662 -200.000000000035 orientation 1 0 0 0 velocity -2.50361642441603e-11 -0.00196566736609327 -2.75499720196255e-11 angularVelocity 0 0 0 force -0.613348497189708 126381351.859577 0.266321293786712 torque 0 0 0 radius 200 invMass 1.19366207318922e-11
BaseParticle id 11 indSpecies 0 position 200.000000000003 2999.69198691657 199.999999999994 orientation 1 0 0 0 velocity -2.95890729992524e-11 -0.00196566732189743 -2.6446086759272e-11 angularVelocity 0 0 0 force 0.474605571235451 126381354.439919 -1.31230847145648 torque 0 0 0 radius 200 invMass 1.19366207318922e-11
BaseParticle id 12 indSpecies 0 position -199.999999999984 3399.69673695502 -200.000000000003 orientation 1 0 0 0 velocity -8.24243995281924e-12 -0.00171845497619224 -2.18568636263483e-12 angularVelocity 0 0 0 force -1.94136126918259 -76075759.843176 -0.135510752424881 torque 0 0 0 radius 200 invMass 1.19366207318922e-11
BaseParticle id 13 indSpecies 0 position -199.999999999986 3399.69673695498 200.000000000006 orientation 1 0 0 0 velocity -1.02869589883722e-11 -0.00171845495607318 -2.20642117124573e-12 angularVelocity 0 0 0 force -1.69322309080971 -76075757.8030166 -0.230705124406088 torque 0 0 0 radius 200 invMass 1.19366207318922e-11
BaseParticle id 14 indSpecies 0 position 200.000000000013 3399.69673695503 -200.000000000002 orientation 1 0 0 0 velocity -1.96224074510725e-12 -0.00171845494245804 -1.22894689669569e-12 angularVelocity 0 0 0 force -1.07324399261398 -76075758.4505244 -0.169646727424171 torque 0 0 0 radius 200 invMass 1.19366207318922e-11
BaseParticle id 15 indSpecies 0 position 200.000000000011 3399.69673695498 200.000000000009 orientation 1 0 0 0 velocity -5.30790614784293e-13 -0.00171845491753519 -1.23992202686506e-12 angularVelocity 0 0 0 force -0.698599373990186 -76075757.4990321 -0.265483575710419 torque 0 0 0 radius 200 invMass 1.19366207318922e-11
BaseParticle id 16 indSpecies 0 position -199.999999999999 3799.69925610168 -200 orientation 1 0 0 0 velocity -6.77906270458929e-14 -0.000138623507912503 -2.18290262955354e-13 angularVelocity 0 0 0 force -0.0994238732396571 -58031327.1454621 -0.108648075077389 torque 0 0 0 radius 200 invMass 1.19366207318922e-11
BaseParticle id 17 indSpecies 0 position -199.999999999999 3799.69925610169 200 orientation 1 0 0 0 velocity -1.3557623900461e-13 -0.000138623509346917 -2.18290262955368e-13 angularVelocity 0 0 0 force -0.0881273408097891 -58031325.57548 -0.10864807507739 torque 0 0 0 radius 200 invMass 1.19366207318922e-11
BaseParticle id 18 indSpecies 0 position 200.000000000001 3799.69925610166 -199.999999999998 orientation 1 0 0 0 velocity -6.77906270459284e-14 -0.000138623498669897 1.47227854403165e-14 angularVelocity 0 0 0 force -0.0994238732396594 -58031322.8955635 -0.10489091822582 torque 0 0 0 radius 200 invMass 1.19366207318922e-11
BaseParticle id 19 indSpecies 0 position 200.000000000001 3799.69925610164 200.000000000002 orientation 1 0 0 0 velocity -1.35576239004656e-13 -0.000138623490803487 1.47227854403038e-14 angularVelocity 0 0 0 force -0.0881273408097915 -58031323.6459017 -0.104890918225823 torque 0 0 0 radius 200 invMass 1.19366207318922e-11
BaseParticle id 20 indSpecies 0 position -200 4199.70035500204 -199.999999999998 orientation 1 0 0 0 velocity 4.71944598729741e-13 0.000349173621425872 3.14433989936994e-13 angularVelocity 0 0 0 force -0.0194572431881357 -4211846.86572243 -0.0186448743685672 torque 0 0 0 radius 200 invMass 1.19366207318922e-11
BaseParticle id 21 indSpecies 0 position -200.000000000002 4199.700355002 200.000000000002 orientation 1 0 0 0 velocity 1.5616486289182e-13 0.000349173610646472 3.14433989936998e-13 angularVelocity 0 0 0 force -0.0485839413411196 -4211848.0705724 -0.018644874368568 torque 0 0 0 radius 200 invMass 1.19366207318922e-11
BaseParticle id 22 indSpecies 0 position 200 4199.70035500197 -199.999999999998 orientation 1 0 0 0 velocity 4.7194459872974e-13 0.000349173618741155 -1.01695673929352e-14 angularVelocity 0 0 0 force -0.0194572431881369 -4211846.04142177 -0.0446234586692678 torque 0 0 0 radius 200 invMass 1.19366207318922e-11
BaseParticle id 23 indSpecies 0 position 199.999999999998 4199.70035500195 200.000000000002 orientation 1 0 0 0 velocity 1.561648628918e-13 0.000349173616807356 -1.01695673929385e-14 angularVelocity 0 0 0 force -0.048583941341121 -4211846.98805868 -0.0446234586692687 torque 0 0 0 radius 200 invMass 1.19366207318922e-11
BaseParticle id 24 indSpecies 0 position -200.000000000002 4599.70201358344 -199.999999999999 orientation 1 0 0 0 velocity 4.12125204263119e-13 0.000220853922486379 -7.0102339995136e-15 angularVelocity 0 0 0 force -0.0168690582181731 7968844.06701317 0.0372064013900131 torque 0 0 0 radius 200 invMass 1.19366207318922e-11
BaseParticle id 25 indSpecies 0 position -200 4599.70201358348 200.000000000001 orientation 1 0 0 0 velocity 3.11789819029453e-13 0.000220853923167271 -7.01023399951009e-15 angularVelocity 0 0 0 force -0.0361148844982896 7968842.24255912 0.0372064013900118 torque 0 0 0 radius 200 invMass 1.19366207318922e-11
BaseParticle id 26 indSpecies 0 position 199.999999999998 4599.70201358345 -200.000000000002 orientation 1 0 0 0 velocity 4.1212520426312e-13 0.000220853926819198 -1.09126853301803e-13 angularVelocity 0 0 0 force -0.0168690582181731 7968843.44992242 0.0175959988573857 torque 0 0 0 radius 200 invMass 1.19366207318922e-11
BaseParticle id 27 indSpecies 0 position 200 4599.70201358345 199.999999999998 orientation 1 0 0 0 velocity 3.11789819029455e-13 0.000220853927022953 -1.09126853301798e-13 angularVelocity 0 0 0 force -0.0361148844982904 7968842.24408704 0.0175959988573855 torque 0 0 0 radius 200 invMass 1.19366207318922e-11
BaseParticle id 28 indSpecies 0 position -199.999999999999 4999.70580771834 -200 orientation 1 0 0 0 velocity -4.80819992543197e-14 0.000120268308981498 -3.7281944562553e-13 angularVelocity 0 0 0 force -0.0119048830182385 1528159.60182627 0.0271246555269003 torque 0 0 0 radius 200 invMass 1.19366207318922e-11
BaseParticle id 29 indSpecies 0 position -199.999999999999 4999.70580771836 200 orientation 1 0 0 0 velocity 1.44422062100511e-15 0.000120268314877706 -3.72819445625528e-13 angularVelocity 0 0 0 force -0.0131976407310167 1528159.02546829 0.0271246555268998 torque 0 0 0 radius 200 invMass 1.19366207318922e-11
BaseParticle id 30 indSpecies 0 position 200.000000000001 4999.70580771833 -200 orientation 1 0 0 0 velocity -4.80819992543201e-14 0.000120268312619945 -3.2335120010375e-13 angularVelocity 0 0 0 force -0.0119048830182385 1528158.66556998 0.0257274498633023 torque 0 0 0 radius 200 invMass 1.19366207318922e-11
BaseParticle id 31 indSpecies 0 position 200.000000000001 4999.70580771835 200 orientation 1 0 0 0 velocity 1.44422062100483e-15 0.000120268314543165 -3.23351200103747e-13 angularVelocity 0 0 0 force -0.0131976407310168 1528157.98884175 0.0257274498633019 torque 0 0 0 radius 200 invMass 1.19366207318922e-11
BaseParticle id 32 indSpecies 0 position -200 5399.71253325763 -200 orientation 1 0 0 0 velocity -1.45500114887617e-14 0.000118548844145626 -3.36199069901489e-13 angularVelocity 0 0 0 force -0.0105052961508957 -1792291.90195608 0.0119062710462876 torque 0 0 0 radius 200 invMass 1.19366207318922e-11
BaseParticle id 33 indSpecies 0 position -200 5399.71253325764 200 orientation 1 0 0 0 velocity 4.03042395112634e-15 0.00011854885119793 -3.36199069901427e-13 angularVelocity 0 0 0 force -0.00608877252317533 -1792291.50027526 0.011906271046286 torque 0 0 0 radius 200 invMass 1.19366207318922e-11
BaseParticle id 34 indSpecies 0 position 200 5399.71253325764 -200 orientation 1 0 0 0 velocity -1.45500114887622e-14 0.000118548841917622 -3.15507553766407e-13 angularVelocity 0 0 0 force -0.0105052961508957 -1792292.03824093 0.0162718389241072 torque 0 0 0 radius 200 invMass 1.19366207318922e-11
BaseParticle id 35 indSpecies 0 position 200 5399.71253325763 200 orientation 1 0 0 0 velocity 4.03042395112621e-15 0.000118548846752357 -3.15507553766419e-13 angularVelocity 0 0 0 force -0.00608877252317534 -1792291.58161091 0.0162718389241074 torque 0 0 0 radius 200 invMass 1.19366207318922e-11
BaseParticle id 36 indSpecies 0 position -200.000000000003 5799.71739190294 -200.000000000001 orientation 1 0 0 0 velocity 1.14140851042366e-13 0.000129352467767707 -3.59487128155514e-14 angularVelocity 0 0 0 force 0.00523065545434641 -1890294.84782451 -0.0118287022910651 torque 0 0 0 radius 200 invMass 1.19366207318922e-11
BaseParticle id 37 indSpecies 0 position -200.000000000004 5799.71739190292 200.000000000009 orientation 1 0 0 0 velocity 8.56983945457417e-14 0.00012935247265923 -3.58952058164076e-14 angularVelocity 0 0 0 force 0.008913285948964 -1890294.41229544 -0.0118299501202215 torque 0 0 0 radius 200 invMass 1.19366207318922e-11
BaseParticle id 38 indSpecies 0 position 200.000000000003 5799.71739190291 -199.999999999998 orientation 1 0 0 0 velocity 1.17496562496938e-13 0.000129352463814597 -4.9784842267085e-14 angularVelocity 0 0 0 force 0.005152397382307 -1890294.57079877 -0.0084155248480778 torque 0 0 0 radius 200 invMass 1.19366207318922e-11
BaseParticle id 39 indSpecies 0 position 200.000000000001 5799.71739190298 200.000000000011 orientation 1 0 0 0 velocity 6.1123570664328e-14 0.00012935246790529 -4.97178603279317e-14 angularVelocity 0 0 0 force 0.00948639193966152 -1890293.93585293 -0.0084170869244036 torque 0 0 0 radius 200 invMass 1.19366207318922e-11
BaseParticle id 40 indSpecies 0 position -200 6199.7626938426 -200 orientation 1 0 0 0 velocity 0 -0.000128545722478045 0 angularVelocity 0 0 0 force 0 0 0 torque 0 0 0 radius 200 invMass 1.19366207318922e-11
BaseParticle id 41 indSpecies 0 position -200 6199.76269384261 200 orientation 1 0 0 0 velocity 0 -0.000128545718126615 0 angularVelocity 0 0 0 force 0 0 0 torque 0 0 0 radius 200 invMass 1.19366207318922e-11
BaseParticle id 42 indSpecies 0 position 200 6199.76269384281 -200 orientation 1 0 0 0 velocity 0 -0.000128545710700515 -2.1058163449726e-16 angularVelocity 0 0 0 force 0 0 0 torque 0 0 0 radius 200 invMass 1.19366207318922e-11
BaseParticle id 43 indSpecies 0 position 200 6199.7626938428 200 orientation 1 0 0 0 velocity 0 -0.000128545710089239 -2.11525613629871e-16 angularVelocity 0 0 0 force 0 0 0 torque 0 0 0 radius 200 invMass 1.19366207318922e-11
BaseParticle id 44 indSpecies 0 position -200 6599.77235836013 -200 orientation 1 0 0 0 velocity 0 0.000108396251838824 0 angularVelocity 0 0 0 force 0 0 0 torque 0 0 0 radius 200 invMass 1.19366207318922e-11
BaseParticle id 45 indSpecies 0 position -200 6599.77235836009 200 orientation 1 0 0 0 velocity 0 0.000108396241005358 0 angularVelocity 0 0 0 force 0 0 0 torque 0 0 0 radius 200 invMass 1.19366207318922e-11
BaseParticle id 46 indSpecies 0 position 200 6599.77235836067 -200 orientation 1 0 0 0 velocity 0 0.000108396256096807 0 angularVelocity 0 0 0 force 0 0 0 torque 0 0 0 radius 200 invMass 1.19366207318922e-11
BaseParticle id 47 indSpecies 0 position 200 6599.77235836014 200 orientation 1 0 0 0 velocity 0 0.000108396246910747 0 angularVelocity 0 0 0 force 0 0 0 torque 0 0 0 radius 200 invMass 1.19366207318922e-11
BaseParticle id 48 indSpecies 0 position -200 6999.84508821806 -200 orientation 1 0 0 0 velocity 0 0.00103590548442201 0 angularVelocity 0 0 0 force 0 0 0 torque 0 0 0 radius 200 invMass 1.19366207318922e-11
BaseParticle id 49 indSpecies 0 position -200 6999.84508821808 200 orientation 1 0 0 0 velocity 0 0.00103590548506414 0 angularVelocity 0 0 0 force 0 0 0 torque 0 0 0 radius 200 invMass 1.19366207318922e-11
BaseParticle id 50 indSpecies 0 position 200 6999.84508821926 -200 orientation 1 0 0 0 velocity 0 0.00103590548851245 0 angularVelocity 0 0 0 force 0 0 0 torque 0 0 0 radius 200 invMass 1.19366207318922e-11
BaseParticle id 51 indSpecies 0 position 200 6999.84508821804 200 orientation 1 0 0 0 velocity 0 0.00103590548566452 0 angularVelocity 0 0 0 force 0 0 0 torque 0 0 0 radius 200 invMass 1.19366207318922e-11
BaseParticle id 52 indSpecies 0 position -200 7399.87613192269 -200 orientation 1 0 0 0 velocity 0 0.00142455519932426 0 angularVelocity 0 0 0 force 0 0 0 torque 0 0 0 radius 200 invMass 1.19366207318922e-11
BaseParticle id 53 indSpecies 0 position -200 7399.8761319227 200 orientation 1 0 0 0 velocity 0 0.00142455519854247 0 angularVelocity 0 0 0 force 0 0 0 torque 0 0 0 radius 200 invMass 1.19366207318922e-11
BaseParticle id 54 indSpecies 0 position 200 7399.87613192267 -200 orientation 1 0 0 0 velocity 0 0.00142455520194892 0 angularVelocity 0 0 0 force 0 0 0 torque 0 0 0 radius 200 invMass 1.19366207318922e-11
BaseParticle id 55 indSpecies 0 position 200 7399.87613192267 200 orientation 1 0 0 0 velocity 0 0.00142455519618312 0 angularVelocity 0 0 0 force 0 0 0 torque 0 0 0 radius 200 invMass 1.19366207318922e-11
BaseParticle id 56 indSpecies 0 position -200 7799.88837070385 -200 orientation 1 0 0 0 velocity 0 0.00153398649477963 0 angularVelocity 0 0 0 force 0 0 0 torque 0 0 0 radius 200 invMass 1.19366207318922e-11
BaseParticle id 57 indSpecies 0 position -200 7799.88837070387 200 orientation 1 0 0 0 velocity 0 0.00153398649609193 0 angularVelocity 0 0 0 force 0 0 0 torque 0 0 0 radius 200 invMass 1.19366207318922e-11
BaseParticle id 58 indSpecies 0 position 200 7799.88837070382 -200 orientation 1 0 0 0 velocity 0 0.00153398649205732 0 angularVelocity 0 0 0 force 0 0 0 torque 0 0 0 radius 200 invMass 1.19366207318922e-11
BaseParticle id 59 indSpecies 0 position 200 7799.88837070383 200 orientation 1 0 0 0 velocity 0 0.00153398649247612 0 angularVelocity 0 0 0 force 0 0 0 torque 0 0 0 radius 200 invMass 1.19366207318922e-11
BaseParticle id 60 indSpecies 0 position -200 8199.89115619325 -200 orientation 1 0 0 0 velocity 0 0.00215867727986764 0 angularVelocity 0 0 0 force 0 0 0 torque 0 0 0 radius 200 invMass 1.19366207318922e-11
BaseParticle id 61 indSpecies 0 position -200 8199.89115619364 200 orientation 1 0 0 0 velocity 0 0.00215867728848136 0 angularVelocity 0 0 0 force 0 0 0 torque 0 0 0 radius 200 invMass 1.19366207318922e-11
BaseParticle id 62 indSpecies 0 position 200 8199.89115619243 -200 orientation 1 0 0 0 velocity 0 0.0021586772674287 0 angularVelocity 0 0 0 force 0 0 0 torque 0 0 0 radius 200 invMass 1.19366207318922e-11
BaseParticle id 63 indSpecies 0 position 200 8199.89115619319 200 orientation 1 0 0 0 velocity 0 0.00215867727404605 0 angularVelocity 0 0 0 force 0 0 0 torque 0 0 0 radius 200 invMass 1.19366207318922e-11
BaseParticle id 64 indSpecies 0 position -200 8599.89869716267 -200 orientation 1 0 0 0 velocity 0 0.00162270035294932 0 angularVelocity 0 0 0 force 0 0 0 torque 0 0 0 radius 200 invMass 1.19366207318922e-11
BaseParticle id 65 indSpecies 0 position -200 8599.89869716267 200 orientation 1 0 0 0 velocity 0 0.00162270035294932 0 angularVelocity 0 0 0 force 0 0 0 torque 0 0 0 radius 200 invMass 1.19366207318922e-11
BaseParticle id 66 indSpecies 0 position 200 8599.89869716267 -200 orientation 1 0 0 0 velocity 0 0.00162270035294932 0 angularVelocity 0 0 0 force 0 0 0 torque 0 0 0 radius 200 invMass 1.19366207318922e-11
BaseParticle id 67 indSpecies 0 position 200 8599.89869716267 200 orientation 1 0 0 0 velocity 0 0.00162270035294932 0 angularVelocity 0 0 0 force 0 0 0 torque 0 0 0 radius 200 invMass 1.19366207318922e-11
BaseParticle id 68 indSpecies 0 position -200 8999.91115286571 -200 orientation 1 0 0 0 velocity 0 0.00172059877930625 0 angularVelocity 0 0 0 force 0 0 0 torque 0 0 0 radius 200 invMass 1.19366207318922e-11
BaseParticle id 69 indSpecies 0 position -200 8999.91115286571 200 orientation 1 0 0 0 velocity 0 0.00172059877930625 0 angularVelocity 0 0 0 force 0 0 0 torque 0 0 0 radius 200 invMass 1.19366207318922e-11
BaseParticle id 70 indSpecies 0 position 200 8999.91115286571 -200 orientation 1 0 0 0 velocity 0 0.00172059877930625 0 angularVelocity 0 0 0 force 0 0 0 torque 0 0 0 radius 200 invMass 1.19366207318922e-11
BaseParticle id 71 indSpecies 0 position 200 8999.91115286571 200 orientation 1 0 0 0 velocity 0 0.00172059877930625 0 angularVelocity 0 0 0 force 0 0 0 torque 0 0 0 radius 200 invMass 1.19366207318922e-11
BaseParticle id 72 indSpecies 0 position -200 9399.92521058026 -200 orientation 1 0 0 0 velocity 0 0.00183296491548853 0 angularVelocity 0 0 0 force 0 0 0 torque 0 0 0 radius 200 invMass 1.19366207318922e-11
BaseParticle id 73 indSpecies 0 position -200 9399.92521058026 200 orientation 1 0 0 0 velocity 0 0.00183296491548853 0 angularVelocity 0 0 0 force 0 0 0 torque 0 0 0 radius 200 invMass 1.19366207318922e-11
BaseParticle id 74 indSpecies 0 position 200 9399.92521058026 -200 orientation 1 0 0 0 velocity 0 0.00183296491548853 0 angularVelocity 0 0 0 force 0 0 0 torque 0 0 0 radius 200 invMass 1.19366207318922e-11
BaseParticle id 75 indSpecies 0 position 200 9399.92521058026 200 orientation 1 0 0 0 velocity 0 0.00183296491548853 0 angularVelocity 0 0 0 force 0 0 0 torque 0 0 0 radius 200 invMass 1.19366207318922e-11
BaseParticle id 76 indSpecies 0 position -200 9799.94127195103 -200 orientation 1 0 0 0 velocity 0 0.00196362914814414 0 angularVelocity 0 0 0 force 0 0 0 torque 0 0 0 radius 200 invMass 1.19366207318922e-11
BaseParticle id 77 indSpecies 0 position -200 9799.94127195103 200 orientation 1 0 0 0 velocity 0 0.00196362914814414 0 angularVelocity 0 0 0 force 0 0 0 torque 0 0 0 radius 200 invMass 1.19366207318922e-11
BaseParticle id 78 indSpecies 0 position 200 9799.94127195103 -200 orientation 1 0 0 0 velocity 0 0.00196362914814414 0 angularVelocity 0 0 0 force 0 0 0 torque 0 0 0 radius 200 invMass 1.19366207318922e-11
BaseParticle id 79 indSpecies 0 position 200 9799.94127195103 200 orientation 1 0 0 0 velocity 0 0.00196362914814414 0 angularVelocity 0 0 0 force 0 0 0 torque 0 0 0 radius 200 invMass 1.19366207318922e-11
BaseParticle id 80 indSpecies 0 position -200 10199.9598836017 -200 orientation 1 0 0 0 velocity 0 0.00211780591761501 0 angularVelocity 0 0 0 force 0 0 0 torque 0 0 0 radius 200 invMass 1.19366207318922e-11
BaseParticle id 81 indSpecies 0 position -200 10199.9598836017 200 orientation 1 0 0 0 velocity 0 0.00211780591761501 0 angularVelocity 0 0 0 force 0 0 0 torque 0 0 0 radius 200 invMass 1.19366207318922e-11
BaseParticle id 82 indSpecies 0 position 200 10199.9598836017 -200 orientation 1 0 0 0 velocity 0 0.00211780591761501 0 angularVelocity 0 0 0 force 0 0 0 torque 0 0 0 radius 200 invMass 1.19366207318922e-11
BaseParticle id 83 indSpecies 0 position 200 10199.9598836017 200 orientation 1 0 0 0 velocity 0 0.00211780591761501 0 angularVelocity 0 0 0 force 0 0 0 torque 0 0 0 radius 200 invMass 1.19366207318922e-11
BaseParticle id 84 indSpecies 0 position -200 10599.9816990082 -200 orientation 1 0 0 0 velocity 0 0.00230146420857093 0 angularVelocity 0 0 0 force 0 0 0 torque 0 0 0 radius 200 invMass 1.19366207318922e-11
BaseParticle id 85 indSpecies 0 position -200 10599.9816990082 200 orientation 1 0 0 0 velocity 0 0.00230146420857093 0 angularVelocity 0 0 0 force 0 0 0 torque 0 0 0 radius 200 invMass 1.19366207318922e-11
BaseParticle id 86 indSpecies 0 position 200 10599.9816990082 -200 orientation 1 0 0 0 velocity 0 0.00230146420857093 0 angularVelocity 0 0 0 force 0 0 0 torque 0 0 0 radius 200 invMass 1.19366207318922e-11
BaseParticle id 87 indSpecies 0 position 200 10599.9816990082 200 orientation 1 0 0 0 velocity 0 0.00230146420857093 0 angularVelocity 0 0 0 force 0 0 0 torque 0 0 0 radius 200 invMass 1.19366207318922e-11
BaseParticle id 88 indSpecies 0 position -200 11000.0078499326 -200 orientation 1 0 0 0 velocity 0 0.00252559061736983 0 angularVelocity 0 0 0 force 0 0 0 torque 0 0 0 radius 200 invMass 1.19366207318922e-11
BaseParticle id 89 indSpecies 0 position -200 11000.0078499326 200 orientation 1 0 0 0 velocity 0 0.00252559061736983 0 angularVelocity 0 0 0 force 0 0 0 torque 0 0 0 radius 200 invMass 1.19366207318922e-11
BaseParticle id 90 indSpecies 0 position 200 11000.0078499326 -200 orientation 1 0 0 0 velocity 0 0.00252559061736983 0 angularVelocity 0 0 0 force 0 0 0 torque 0 0 0 radius 200 invMass 1.19366207318922e-11
BaseParticle id 91 indSpecies 0 position 200 11000.0078499326 200 orientation 1 0 0 0 velocity 0 0.00252559061736983 0 angularVelocity 0 0 0 force 0 0 0 torque 0 0 0 radius 200 invMass 1.19366207318922e-11
BaseParticle id 92 indSpecies 0 position -200 11400.03995223 -200 orientation 1 0 0 0 velocity 0 0.00280566830038197 0 angularVelocity 0 0 0 force 0 0 0 torque 0 0 0 radius 200 invMass 1.19366207318922e-11
BaseParticle id 93 indSpecies 0 position -200 11400.03995223 200 orientation 1 0 0 0 velocity 0 0.00280566830038197 0 angularVelocity 0 0 0 force 0 0 0 torque 0 0 0 radius 200 invMass 1.19366207318922e-11
BaseParticle id 94 indSpecies 0 position 200 11400.03995223 -200 orientation 1 0 0 0 velocity 0 0.00280566830038197 0 angularVelocity 0 0 0 force 0 0 0 torque 0 0 0 radius 200 invMass 1.19366207318922e-11
BaseParticle id 95 indSpecies 0 position 200 11400.03995223 200 orientation 1 0 0 0 velocity 0 0.00280566830038197 0 angularVelocity 0 0 0 force 0 0 0 torque 0 0 0 radius 200 invMass 1.19366207318922e-11
BaseParticle id 96 indSpecies 0 position -200 11800.0806845827 -200 orientation 1 0 0 0 velocity 0 0.00316767304793931 0 angularVelocity 0 0 0 force 0 0 0 torque 0 0 0 radius 200 invMass 1.19366207318922e-11
BaseParticle id 97 indSpecies 0 position -200 11800.0806845827 200 orientation 1 0 0 0 velocity 0 0.00316767304793931 0 angularVelocity 0 0 0 force 0 0 0 torque 0 0 0 radius 200 invMass 1.19366207318922e-11
BaseParticle id 98 indSpecies 0 position 200 11800.0806845827 -200 orientation 1 0 0 0 velocity 0 0.00316767304793931 0 angularVelocity 0 0 0 force 0 0 0 torque 0 0 0 radius 200 invMass 1.19366207318922e-11
BaseParticle id 99 indSpecies 0 position 200 11800.0806845827 200 orientation 1 0 0 0 velocity 0 0.00316767304793931 0 angularVelocity 0 0 0 force 0 0 0 torque 0 0 0 radius 200 invMass 1.19366207318922e-11
BaseParticle id 100 indSpecies 0 position -200 12200.1345511605 -200 orientation 1 0 0 0 velocity 0 0.00365528361274133 0 angularVelocity 0 0 0 force 0 0 0 torque 0 0 0 radius 200 invMass 1.19366207318922e-11
BaseParticle id 101 indSpecies 0 position -200 12200.1345511605 200 orientation 1 0 0 0 velocity 0 0.00365528361274133 0 angularVelocity 0 0 0 force 0 0 0 torque 0 0 0 radius 200 invMass 1.19366207318922e-11
BaseParticle id 102 indSpecies 0 position 200 12200.1345511605 -200 orientation 1 0 0 0 velocity 0 0.00365528361274133 0 angularVelocity 0 0 0 force 0 0 0 torque 0 0 0 radius 200 invMass 1.19366207318922e-11
BaseParticle id 103 indSpecies 0 position 200 12200.1345511605 200 orientation 1 0 0 0 velocity 0 0.00365528361274133 0 angularVelocity 0 0 0 force 0 0 0 torque 0 0 0 radius 200 invMass 1.19366207318922e-11
BaseParticle id 104 indSpecies 0 position -200 12600.2105715845 -200 orientation 1 0 0 0 velocity 0 0.0043570222649936 0 angularVelocity 0 0 0 force 0 0 0 torque 0 0 0 radius 200 invMass 1.19366207318922e-11
BaseParticle id 105 indSpecies 0 position -200 12600.2105715845 200 orientation 1 0 0 0 velocity 0 0.0043570222649936 0 angularVelocity 0 0 0 force 0 0 0 torque 0 0 0 radius 200 invMass 1.19366207318922e-11
BaseParticle id 106 indSpecies 0 position 200 12600.2105715845 -200 orientation 1 0 0 0 velocity 0 0.0043570222649936 0 angularVelocity 0 0 0 force 0 0 0 torque 0 0 0 radius 200 invMass 1.19366207318922e-11
BaseParticle id 107 indSpecies 0 position 200 12600.2105715845 200 orientation 1 0 0 0 velocity 0 0.0043570222649936 0 angularVelocity 0 0 0 force 0 0 0 torque 0 0 0 radius 200 invMass 1.19366207318922e-11
BaseParticle id 108 indSpecies 0 position -200 13000.3282775058 -200 orientation 1 0 0 0 velocity 0 0.00546489405658367 0 angularVelocity 0 0 0 force 0 0 0 torque 0 0 0 radius 200 invMass 1.19366207318922e-11
BaseParticle id 109 indSpecies 0 position -200 13000.3282775058 200 orientation 1 0 0 0 velocity 0 0.00546489405658367 0 angularVelocity 0 0 0 force 0 0 0 torque 0 0 0 radius 200 invMass 1.19366207318922e-11
BaseParticle id 110 indSpecies 0 position 200 13000.3282775058 -200 orientation 1 0 0 0 velocity 0 0.00546489405658367 0 angularVelocity 0 0 0 force 0 0 0 torque 0 0 0 radius 200 invMass 1.19366207318922e-11
BaseParticle id 111 indSpecies 0 position 200 13000.3282775058 200 orientation 1 0 0 0 velocity 0 0.00546489405658367 0 angularVelocity 0 0 0 force 0 0 0 torque 0 0 0 radius 200 invMass 1.19366207318922e-11
BaseParticle id 112 indSpecies 0 position -200 13400.5444000637 -200 orientation 1 0 0 0 velocity 0 0.00754097293065658 0 angularVelocity 0 0 0 force 0 0 0 torque 0 0 0 radius 200 invMass 1.19366207318922e-11
BaseParticle id 113 indSpecies 0 position -200 13400.5444000637 200 orientation 1 0 0 0 velocity 0 0.00754097293065658 0 angularVelocity 0 0 0 force 0 0 0 torque 0 0 0 radius 200 invMass 1.19366207318922e-11
BaseParticle id 114 indSpecies 0 position 200 13400.5444000637 -200 orientation 1 0 0 0 velocity 0 0.00754097293065658 0 angularVelocity 0 0 0 force 0 0 0 torque 0 0 0 radius 200 invMass 1.19366207318922e-11
BaseParticle id 115 indSpecies 0 position 200 13400.5444000637 200 orientation 1 0 0 0 velocity 0 0.00754097293065658 0 angularVelocity 0 0 0 force 0 0 0 torque 0 0 0 radius 200 invMass 1.19366207318922e-11
BaseParticle id 116 indSpecies 0 position -200 13801.124195325 -200 orientation 1 0 0 0 velocity 0 0.013227857120191 0 angularVelocity 0 0 0 force 0 0 0 torque 0 0 0 radius 200 invMass 1.19366207318922e-11
BaseParticle id 117 indSpecies 0 position -200 13801.124195325 200 orientation 1 0 0 0 velocity 0 0.013227857120191 0 angularVelocity 0 0 0 force 0 0 0 torque 0 0 0 radius 200 invMass 1.19366207318922e-11