MercuryDPM 0.14 name oneDimChain revision 6406 repository https://svn.mercurydpm.org/SourceCode/Branches/OomphlibCouplingExplicit
dataFile    fileType ONE_FILE saveCount 124 counter 102 lastSavedTimeStep 12443
fStatFile   fileType ONE_FILE saveCount 124 counter 102 lastSavedTimeStep 12443
eneFile     fileType ONE_FILE saveCount 124 counter 102 lastSavedTimeStep 12443
restartFile fileType ONE_FILE saveCount 124 counter 102 lastSavedTimeStep 12443
statFile    fileType ONE_FILE saveCount 124 counter 0
interactionFile fileType NO_FILE saveCount 0 counter 0
xMin -500 xMax 500 yMin -5000 yMax 5000 zMin -500 zMax 500
timeStep 0.00803718916976729 time 100.006744839431 ntimeSteps 12443 timeMax 100
systemDimensions 3 particleDimensions 3 gravity 0 0 -0 writeVTK 1 MULTIPLE_FILES NO_FILE 102 102 0 0 random  0 1103515245 12345 1073741824 607 273 784607267
Species 1
LinearViscoelasticReversibleAdhesiveSpecies id 0 density 2500 stiffness 10000000000 dissipation -0 adhesionForceMax 0 adhesionStiffness 10000000000
Walls 0
Boundaries 0
Particles 7680
BaseParticle id 0 indSpecies 0 position -350.000657288638 2049.71207237743 -350.000409176307 orientation 1 0 0 0 velocity 7.06985174857356e-05 0.0317766538503308 0.000117616918356023 angularVelocity 0 0 0 force 65931.3995295979 69542.2087295651 35755.5091990123 torque 0 0 0 radius 50 invMass 7.63943726841098e-10
BaseParticle id 1 indSpecies 0 position -350.000234993777 2049.734864537 -250.000296016608 orientation 1 0 0 0 velocity 6.63799857836603e-05 0.0175505894737483 3.98704328008305e-05 angularVelocity 0 0 0 force 59539.0574723602 48056245.0045673 3241.09393598752 torque 0 0 0 radius 50 invMass 7.63943726841098e-10
BaseParticle id 2 indSpecies 0 position -349.999996374176 2049.67246261572 -150.000268420132 orientation 1 0 0 0 velocity -0.000110709981340823 0.0309681850663966 -9.41486195062332e-06 angularVelocity 0 0 0 force 43616.046058612 78030.6516125575 -46255.1906755579 torque 0 0 0 radius 50 invMass 7.63943726841098e-10
BaseParticle id 3 indSpecies 0 position -350.000058623793 2049.70213270737 -50.0001722839563 orientation 1 0 0 0 velocity 8.43894522864554e-05 0.0425084489571216 -5.04731140082267e-05 angularVelocity 0 0 0 force 17634.1939677257 37145139.9883525 -77190.4447559063 torque 0 0 0 radius 50 invMass 7.63943726841098e-10
BaseParticle id 4 indSpecies 0 position -349.99996652607 2049.69468702999 50.0001557155692 orientation 1 0 0 0 velocity -3.781068950249e-05 0.0368762855648262 -6.71787217372862e-07 angularVelocity 0 0 0 force -755630.64971656 49705554.3753313 -95178.3813902066 torque 0 0 0 radius 50 invMass 7.63943726841098e-10
BaseParticle id 5 indSpecies 0 position -350.000025549336 2049.67461365391 150.000331938316 orientation 1 0 0 0 velocity -8.57339016682376e-05 0.0321381212399539 -1.11517755011013e-05 angularVelocity 0 0 0 force 48493.2811676565 6850715.43419342 -130673.37934284 torque 0 0 0 radius 50 invMass 7.63943726841098e-10
BaseParticle id 6 indSpecies 0 position -350.000335053328 2049.73599654493 250.000323010948 orientation 1 0 0 0 velocity 0.000149966766225692 0.0292679994805675 -2.65219593055404e-05 angularVelocity 0 0 0 force 122972.892746058 46958160.5997546 -181132.877502736 torque 0 0 0 radius 50 invMass 7.63943726841098e-10
BaseParticle id 7 indSpecies 0 position -350.000318522286 2049.71217689275 350.00067614083 orientation 1 0 0 0 velocity 0.000165810957108695 0.0310154133291632 -6.78108797072016e-05 angularVelocity 0 0 0 force 176618.878936904 -375555.661441259 -214110.874499378 torque 0 0 0 radius 50 invMass 7.63943726841098e-10
BaseParticle id 8 indSpecies 0 position -250.000173451827 2049.73548532566 -350.000567022149 orientation 1 0 0 0 velocity 4.14680701677019e-05 0.0180941704274 9.76220368719621e-05 angularVelocity 0 0 0 force 32762.4029081569 48085192.8930102 18879.2410612902 torque 0 0 0 radius 50 invMass 7.63943726841098e-10
BaseParticle id 9 indSpecies 0 position -250.000188600261 2049.70602481735 -250.000150352295 orientation 1 0 0 0 velocity -9.19696983666067e-05 0.0387112237800505 -0.000133089940226211 angularVelocity 0 0 0 force 33695.8432422632 48929217.456185 -2343.77645882558 torque 0 0 0 radius 50 invMass 7.63943726841098e-10
BaseParticle id 10 indSpecies 0 position -249.999987500536 2049.70762141188 -149.999961788697 orientation 1 0 0 0 velocity 2.10707419861907e-05 0.0416537345643866 -1.86926408826005e-06 angularVelocity 0 0 0 force -282142.947676723 10001244.4729324 -35740.1340547675 torque 0 0 0 radius 50 invMass 7.63943726841098e-10
BaseParticle id 11 indSpecies 0 position -250.000033216601 2049.71941644405 -49.9998435441078 orientation 1 0 0 0 velocity -0.000196403742534025 0.0374317124442958 9.67590299955913e-05 angularVelocity 0 0 0 force 8370.57865883965 -55653696.3672301 -58694.7316556097 torque 0 0 0 radius 50 invMass 7.63943726841098e-10
BaseParticle id 12 indSpecies 0 position -250.000046210554 2049.72017648314 50.0002007531833 orientation 1 0 0 0 velocity -7.7412698858758e-05 0.0382152151686175 6.88754886925294e-05 angularVelocity 0 0 0 force 762681.145766192 -50883287.9095737 -199803.738412873 torque 0 0 0 radius 50 invMass 7.63943726841098e-10
BaseParticle id 13 indSpecies 0 position -250.000002042284 2049.70753568722 150.000187260133 orientation 1 0 0 0 velocity 8.53818929026278e-05 0.0382978052357236 -0.000129956434106273 angularVelocity 0 0 0 force 28907.9095712742 10197190.0718598 26925.395500093 torque 0 0 0 radius 50 invMass 7.63943726841098e-10
BaseParticle id 14 indSpecies 0 position -250.000193529486 2049.71170580133 250.000244799789 orientation 1 0 0 0 velocity -6.15773196702e-05 0.0400444876657698 -4.75412870893384e-05 angularVelocity 0 0 0 force 89754.2144860739 3431895.24970639 -514843.125987198 torque 0 0 0 radius 50 invMass 7.63943726841098e-10
BaseParticle id 15 indSpecies 0 position -250.000267416358 2049.73449946618 350.000204209095 orientation 1 0 0 0 velocity 5.85144447179726e-05 0.0101574373623818 8.57885540457841e-05 angularVelocity 0 0 0 force 134221.522631401 46664272.6618968 222905.18179887 torque 0 0 0 radius 50 invMass 7.63943726841098e-10
BaseParticle id 16 indSpecies 0 position -150.000150921195 2049.67223290059 -350.00019448177 orientation 1 0 0 0 velocity -2.95574146301767e-05 0.0353770702039506 -0.000117419739971065 angularVelocity 0 0 0 force -204075.980922283 16052918.1209077 -6344.73363448758 torque 0 0 0 radius 50 invMass 7.63943726841098e-10
BaseParticle id 17 indSpecies 0 position -150.000147435334 2049.70688513085 -250.000046689398 orientation 1 0 0 0 velocity 4.84498089544864e-05 0.0403314424696434 -1.93952489488831e-05 angularVelocity 0 0 0 force -667531.317868162 10512140.440184 -10681.8148818288 torque 0 0 0 radius 50 invMass 7.63943726841098e-10
BaseParticle id 18 indSpecies 0 position -150.000019933984 2049.69062316118 -150.000030932552 orientation 1 0 0 0 velocity 5.45254348328856e-06 0.0434696487290541 9.00048438666711e-05 angularVelocity 0 0 0 force 315146.188413683 50819568.5877942 -21345.2768979328 torque 0 0 0 radius 50 invMass 7.63943726841098e-10
BaseParticle id 19 indSpecies 0 position -149.999968821212 2049.74011073586 -49.9999660477483 orientation 1 0 0 0 velocity -8.47989895571267e-05 0.052190097990179 2.4907194369985e-05 angularVelocity 0 0 0 force -2892.38917621347 -19935435.8361111 -34931.5902811743 torque 0 0 0 radius 50 invMass 7.63943726841098e-10
BaseParticle id 20 indSpecies 0 position -149.999990851835 2049.74011687543 50.0000644873073 orientation 1 0 0 0 velocity -7.52025993416003e-05 0.045671840135769 4.43804774380561e-05 angularVelocity 0 0 0 force -26829.2050694671 -18154301.5850625 -46208.5531324279 torque 0 0 0 radius 50 invMass 7.63943726841098e-10
BaseParticle id 21 indSpecies 0 position -149.99996724166 2049.69180615245 150.000155314356 orientation 1 0 0 0 velocity 5.05404979786809e-05 0.0414749659440518 0.000111472574455509 angularVelocity 0 0 0 force 3454.74810558533 50899047.4259661 -118376.444823728 torque 0 0 0 radius 50 invMass 7.63943726841098e-10
BaseParticle id 22 indSpecies 0 position -150.000052608006 2049.70728950973 250.000148457752 orientation 1 0 0 0 velocity 0.000124187822914511 0.0366531289448817 -1.89918669504168e-05 angularVelocity 0 0 0 force 24659.7670639855 10161100.8666415 -18183.0355997648 torque 0 0 0 radius 50 invMass 7.63943726841098e-10
BaseParticle id 23 indSpecies 0 position -150.000245808833 2049.68143489991 350.000149970598 orientation 1 0 0 0 velocity -2.15761635447779e-05 0.0390676976837345 -1.287114940189e-05 angularVelocity 0 0 0 force -15053.4480584981 -19158323.7748129 -79701.0356314365 torque 0 0 0 radius 50 invMass 7.63943726841098e-10
BaseParticle id 24 indSpecies 0 position -50.0001719694494 2049.69228922247 -349.999979081325 orientation 1 0 0 0 velocity -1.94175121891434e-06 0.0372792674017671 -0.000140520166564073 angularVelocity 0 0 0 force 154526.543933075 49643688.4424349 -24885.5246401206 torque 0 0 0 radius 50 invMass 7.63943726841098e-10
BaseParticle id 25 indSpecies 0 position -50.0002151509284 2049.72276768415 -249.999921592832 orientation 1 0 0 0 velocity 4.60077379166041e-05 0.0498122994105415 -2.61122632265669e-05 angularVelocity 0 0 0 force 643317.788969944 -35213631.0828509 -157846.805033125 torque 0 0 0 radius 50 invMass 7.63943726841098e-10
BaseParticle id 26 indSpecies 0 position -50.0000195128829 2049.74135877317 -149.999937326052 orientation 1 0 0 0 velocity 3.34549436838032e-05 0.0493214814682354 -2.14055384122944e-05 angularVelocity 0 0 0 force -3687.3943435964 -25199855.9863926 90756.277687578 torque 0 0 0 radius 50 invMass 7.63943726841098e-10
BaseParticle id 27 indSpecies 0 position -49.9999899032245 2049.6605760356 -49.99997327787 orientation 1 0 0 0 velocity -4.22479330466105e-05 0.0225199266366793 -7.68358031605137e-05 angularVelocity 0 0 0 force -2958.29464339328 50801195.7417254 6866.92207169586 torque 0 0 0 radius 50 invMass 7.63943726841098e-10
BaseParticle id 28 indSpecies 0 position -50.0000230698724 2049.66146631559 50.0000351557086 orientation 1 0 0 0 velocity -0.000210937303270837 0.0252116966588056 5.81055073852839e-06 angularVelocity 0 0 0 force 1884.16370082759 50978543.2668418 -363485.201438629 torque 0 0 0 radius 50 invMass 7.63943726841098e-10
BaseParticle id 29 indSpecies 0 position -49.9999433051088 2049.73982053628 149.999972251978 orientation 1 0 0 0 velocity -2.91679045933511e-06 0.0586690208134484 0.000122193664304922 angularVelocity 0 0 0 force -194798.098910477 -40929933.3308929 269929.055614911 torque 0 0 0 radius 50 invMass 7.63943726841098e-10
BaseParticle id 30 indSpecies 0 position -50.0000548826044 2049.71168488769 250.000036166251 orientation 1 0 0 0 velocity -6.84054477512542e-05 0.0239988745422318 8.80947707124053e-05 angularVelocity 0 0 0 force 51301.4779982692 -33167866.4254688 -51284.2269119859 torque 0 0 0 radius 50 invMass 7.63943726841098e-10
BaseParticle id 31 indSpecies 0 position -50.0002578228831 2049.7048807585 350.000040985435 orientation 1 0 0 0 velocity 2.30220262017584e-05 0.0398011656490193 0.000180808182569379 angularVelocity 0 0 0 force 145166.060314937 23075653.0011439 -44592.1954113752 torque 0 0 0 radius 50 invMass 7.63943726841098e-10
BaseParticle id 32 indSpecies 0 position 50.000074815214 2049.70564604521 -349.999995137527 orientation 1 0 0 0 velocity 5.15123321669175e-05 0.0367180116123782 -0.000149695116047185 angularVelocity 0 0 0 force -39357.5482291632 -2486848.34350546 -22956.4239191923 torque 0 0 0 radius 50 invMass 7.63943726841098e-10
BaseParticle id 33 indSpecies 0 position 49.9999055335837 2049.72066402694 -249.999906243887 orientation 1 0 0 0 velocity -6.11142374158517e-06 0.0445827238684894 -2.20363492019429e-05 angularVelocity 0 0 0 force -22009.1335375664 -44118232.8508215 -14913.9232472376 torque 0 0 0 radius 50 invMass 7.63943726841098e-10
BaseParticle id 34 indSpecies 0 position 50.0000594530281 2049.74184683443 -149.999903314083 orientation 1 0 0 0 velocity 1.18713020753113e-05 0.0504387025628408 -7.36957235701601e-05 angularVelocity 0 0 0 force 551.280280469825 -36925258.0503164 -146457.330151566 torque 0 0 0 radius 50 invMass 7.63943726841098e-10
BaseParticle id 35 indSpecies 0 position 50.0001255956648 2049.66201090058 -49.9999483933162 orientation 1 0 0 0 velocity 4.57822409935006e-05 0.0282586472256598 4.60393506330961e-06 angularVelocity 0 0 0 force -511001.162845769 50998671.5625087 -54151.3853019408 torque 0 0 0 radius 50 invMass 7.63943726841098e-10
BaseParticle id 36 indSpecies 0 position 50.0000256357686 2049.66375117161 50.000035977815 orientation 1 0 0 0 velocity 6.34307941346388e-05 0.0337684996430683 5.19345239847257e-05 angularVelocity 0 0 0 force 1985.62680999 51204921.3060205 -48691.4049478505 torque 0 0 0 radius 50 invMass 7.63943726841098e-10
BaseParticle id 37 indSpecies 0 position 50.0000372761202 2049.74125276441 149.999990956391 orientation 1 0 0 0 velocity -0.000102421521012743 0.0596889135466069 7.10433618857252e-05 angularVelocity 0 0 0 force 191593.392771483 -60259355.5337386 78815.6736518383 torque 0 0 0 radius 50 invMass 7.63943726841098e-10
BaseParticle id 38 indSpecies 0 position 49.9999969662018 2049.71034680573 250.000017612555 orientation 1 0 0 0 velocity -8.77554874184956e-05 0.0242803112742656 0.000105154833917067 angularVelocity 0 0 0 force -11976.1111263421 -31337977.8322736 -239053.02601915 torque 0 0 0 radius 50 invMass 7.63943726841098e-10
BaseParticle id 39 indSpecies 0 position 50.0002046348051 2049.71130880226 350.000000539932 orientation 1 0 0 0 velocity 5.02451335942201e-05 0.0445456175569656 0.000147422412841919 angularVelocity 0 0 0 force 53592.6663727034 -32596534.7979976 111521.671026617 torque 0 0 0 radius 50 invMass 7.63943726841098e-10
BaseParticle id 40 indSpecies 0 position 150.000322591909 2049.67816645079 -350.000060847742 orientation 1 0 0 0 velocity -5.92095677639155e-05 0.0287432059202301 -4.6492435431865e-05 angularVelocity 0 0 0 force -320164.254645705 -49452501.8531031 -282227.027127742 torque 0 0 0 radius 50 invMass 7.63943726841098e-10
BaseParticle id 41 indSpecies 0 position 150.000328362213 2049.70578842116 -250.000093615778 orientation 1 0 0 0 velocity 0.000165204402976927 0.049435115154853 8.16676105206741e-06 angularVelocity 0 0 0 force -164470.862374458 5630071.01544677 300141.430619441 torque 0 0 0 radius 50 invMass 7.63943726841098e-10
BaseParticle id 42 indSpecies 0 position 150.000069904589 2049.69208926119 -150.000091426566 orientation 1 0 0 0 velocity 3.07161733998005e-05 0.0463663012381372 -4.83203907371408e-05 angularVelocity 0 0 0 force -159580.628735756 50964880.4512295 1990.01363271912 torque 0 0 0 radius 50 invMass 7.63943726841098e-10
BaseParticle id 43 indSpecies 0 position 150.00004207296 2049.74177300783 -49.9999295829236 orientation 1 0 0 0 velocity -2.6511185958194e-05 0.0435491518438073 7.26631739973226e-05 angularVelocity 0 0 0 force 305647.275402445 -34008917.3023613 -67240.3474283417 torque 0 0 0 radius 50 invMass 7.63943726841098e-10
BaseParticle id 44 indSpecies 0 position 150.000050573402 2049.74073778788 50.0000661104503 orientation 1 0 0 0 velocity 5.25566919194993e-05 0.0433892214310483 -1.21841569952099e-05 angularVelocity 0 0 0 force -617.482786089091 -41416937.5784305 -13882.672288243 torque 0 0 0 radius 50 invMass 7.63943726841098e-10
BaseParticle id 45 indSpecies 0 position 150.000022561413 2049.68961719311 150.000110526039 orientation 1 0 0 0 velocity 3.88402841842525e-05 0.0433382934095278 1.66312937174106e-05 angularVelocity 0 0 0 force 15077.1373266304 51657462.9303481 -252750.076356602 torque 0 0 0 radius 50 invMass 7.63943726841098e-10
BaseParticle id 46 indSpecies 0 position 149.999992163584 2049.70651132357 250.000092069753 orientation 1 0 0 0 velocity 8.14382870786054e-05 0.0426285721887051 -9.18927271607156e-06 angularVelocity 0 0 0 force 61300.3137538335 5277284.6706844 82553.823624867 torque 0 0 0 radius 50 invMass 7.63943726841098e-10
BaseParticle id 47 indSpecies 0 position 150.000210798839 2049.67232829375 350.00019106827 orientation 1 0 0 0 velocity 4.84521125272007e-05 0.0282466976012059 0.000159630520645562 angularVelocity 0 0 0 force 25133.001974015 -28877132.5164843 -82168.5937998853 torque 0 0 0 radius 50 invMass 7.63943726841098e-10
BaseParticle id 48 indSpecies 0 position 250.000279225268 2049.73739950645 -350.000464686548 orientation 1 0 0 0 velocity -3.20006350091413e-05 0.0161818888676498 6.4532083938981e-05 angularVelocity 0 0 0 force 149356.310716837 46835086.9626323 53626.2495851298 torque 0 0 0 radius 50 invMass 7.63943726841098e-10
BaseParticle id 49 indSpecies 0 position 250.000315933332 2049.70771699829 -250.000129547463 orientation 1 0 0 0 velocity -0.000146840883256572 0.0290682588447504 -5.35568419426973e-05 angularVelocity 0 0 0 force 45025.2853022278 22883071.4311453 49296.2257865908 torque 0 0 0 radius 50 invMass 7.63943726841098e-10
BaseParticle id 50 indSpecies 0 position 250.00005382661 2049.70683906537 -150.000086918805 orientation 1 0 0 0 velocity -4.1653564684407e-05 0.0448204268343235 -0.000105145407368657 angularVelocity 0 0 0 force -308483.410467267 1911769.44993149 29970.4013590385 torque 0 0 0 radius 50 invMass 7.63943726841098e-10
BaseParticle id 51 indSpecies 0 position 250.000013595537 2049.70432186882 -50.0000840613988 orientation 1 0 0 0 velocity 6.64334856584482e-05 0.0257677918613233 0.000120387779633792 angularVelocity 0 0 0 force 197847.223023467 49952563.3081636 -3555.50951818088 torque 0 0 0 radius 50 invMass 7.63943726841098e-10
BaseParticle id 52 indSpecies 0 position 250.000057136908 2049.72161044076 50.000050650225 orientation 1 0 0 0 velocity 4.65616822991929e-05 0.0304835413863288 -9.38468560283952e-05 angularVelocity 0 0 0 force -22763.5232140496 47628560.8610978 -38466.2412524831 torque 0 0 0 radius 50 invMass 7.63943726841098e-10
BaseParticle id 53 indSpecies 0 position 250.000026078951 2049.70703603199 150.000188354211 orientation 1 0 0 0 velocity -3.62039098273009e-05 0.0452159267888219 0.000121672295329658 angularVelocity 0 0 0 force -57439.8007279894 3003502.69310832 -69844.1424090215 torque 0 0 0 radius 50 invMass 7.63943726841098e-10
BaseParticle id 54 indSpecies 0 position 250.000200111848 2049.70558163346 250.000204422935 orientation 1 0 0 0 velocity 3.05943118349382e-05 0.030717342593182 0.000130212738717071 angularVelocity 0 0 0 force -42442.1533708133 28042794.5259346 -86470.2497627347 torque 0 0 0 radius 50 invMass 7.63943726841098e-10
BaseParticle id 55 indSpecies 0 position 250.00022729077 2049.72967992855 350.000549961568 orientation 1 0 0 0 velocity -9.77348687356853e-05 0.0116060090877811 -3.44229360598142e-05 angularVelocity 0 0 0 force -44722.3212878927 48644872.5589314 -88627.2704960778 torque 0 0 0 radius 50 invMass 7.63943726841098e-10
BaseParticle id 56 indSpecies 0 position 350.000718980459 2049.71409679121 -350.000294906278 orientation 1 0 0 0 velocity -0.000101423958706539 0.032434540335775 4.53280591241316e-05 angularVelocity 0 0 0 force -142074.031795098 -5265763.60396989 84357.2086503369 torque 0 0 0 radius 50 invMass 7.63943726841098e-10
BaseParticle id 57 indSpecies 0 position 350.000447046579 2049.73081666119 -250.00027460651 orientation 1 0 0 0 velocity -0.00014603086851576 0.0129170114021049 8.02354060214341e-05 angularVelocity 0 0 0 force -106807.761720178 46684506.3128681 74060.5658375319 torque 0 0 0 radius 50 invMass 7.63943726841098e-10
BaseParticle id 58 indSpecies 0 position 350.000007723818 2049.6783512201 -150.000265052828 orientation 1 0 0 0 velocity -2.36927406837241e-05 0.0330229853919772 7.51541359559688e-06 angularVelocity 0 0 0 force 362901.990143495 48466591.3119592 48433.174296983 torque 0 0 0 radius 50 invMass 7.63943726841098e-10
BaseParticle id 59 indSpecies 0 position 350.00001813443 2049.69867648446 -50.0002436682096 orientation 1 0 0 0 velocity 6.5615142373175e-05 0.035589140338747 -1.91804828373091e-05 angularVelocity 0 0 0 force -32171.3785793274 3043747.05269624 13234.8539802655 torque 0 0 0 radius 50 invMass 7.63943726841098e-10
BaseParticle id 60 indSpecies 0 position 350.000059910234 2049.69962947505 50.0002018080528 orientation 1 0 0 0 velocity 0.000153585594482445 0.02778584384947 4.72504997030212e-06 angularVelocity 0 0 0 force -40473.9414125834 -13460456.3044779 -22138.4819107004 torque 0 0 0 radius 50 invMass 7.63943726841098e-10
BaseParticle id 61 indSpecies 0 position 350.00002308082 2049.69415515035 150.000314720588 orientation 1 0 0 0 velocity 1.67461350862801e-05 0.0317133975918989 8.15776125740878e-05 angularVelocity 0 0 0 force -42557.5097120835 48981329.0940748 -54640.4410595093 torque 0 0 0 radius 50 invMass 7.63943726841098e-10
BaseParticle id 62 indSpecies 0 position 350.000572038301 2049.72895062124 250.000338520578 orientation 1 0 0 0 velocity -0.000121079079524767 0.010261976859807 -4.56288776708068e-05 angularVelocity 0 0 0 force -84857.0552478233 47937950.3192216 -78214.6376144342 torque 0 0 0 radius 50 invMass 7.63943726841098e-10
BaseParticle id 63 indSpecies 0 position 350.000534022928 2049.70965415603 350.000407267402 orientation 1 0 0 0 velocity -0.000124144523026591 0.0328888163529948 7.40968888093038e-07 angularVelocity 0 0 0 force -95642.0385664936 4601112.58619147 -87165.1720219993 torque 0 0 0 radius 50 invMass 7.63943726841098e-10
BaseParticle id 64 indSpecies 0 position -350.000114014458 2149.70746462014 -350.00019819606 orientation 1 0 0 0 velocity 1.05894455057763e-05 0.024919897662887 -7.24265138049584e-05 angularVelocity 0 0 0 force 14079.732364625 78092811.5589218 13568.0484319095 torque 0 0 0 radius 50 invMass 7.63943726841098e-10
BaseParticle id 65 indSpecies 0 position -350.000279644061 2149.73615628031 -250.000075808451 orientation 1 0 0 0 velocity 0.000152276476989335 0.0399477236246908 3.49483898862122e-05 angularVelocity 0 0 0 force 1845.33795163162 -119107969.339153 -11446.1402361107 torque 0 0 0 radius 50 invMass 7.63943726841098e-10
BaseParticle id 66 indSpecies 0 position -350.000319556511 2149.66765235912 -150.000060644525 orientation 1 0 0 0 velocity 1.27693499212516e-05 0.0275381340949063 8.22958201365423e-05 angularVelocity 0 0 0 force -449525.633579765 81747961.3645815 -43804.0060079252 torque 0 0 0 radius 50 invMass 7.63943726841098e-10
BaseParticle id 67 indSpecies 0 position -350.000172373709 2149.70090834155 -49.9999295278003 orientation 1 0 0 0 velocity -0.000184766818585132 0.0358453910565726 -5.43520721613783e-05 angularVelocity 0 0 0 force -52383.6776516109 47431602.2402274 -360170.220168503 torque 0 0 0 radius 50 invMass 7.63943726841098e-10
BaseParticle id 68 indSpecies 0 position -350.0002351028 2149.70254964486 50.0000401537999 orientation 1 0 0 0 velocity -0.000176880416772641 0.0397456483811821 -4.19805458025317e-05 angularVelocity 0 0 0 force -64219.2203424006 35564730.506256 244481.634242855 torque 0 0 0 radius 50 invMass 7.63943726841098e-10
BaseParticle id 69 indSpecies 0 position -350.000304261249 2149.67049355076 150.000123144069 orientation 1 0 0 0 velocity -7.60088277738987e-05 0.0298180093599825 1.56250187312883e-05 angularVelocity 0 0 0 force -462288.955313699 74922553.1212246 -76920.2550559579 torque 0 0 0 radius 50 invMass 7.63943726841098e-10
BaseParticle id 70 indSpecies 0 position -350.000304852978 2149.73794724998 250.000151281703 orientation 1 0 0 0 velocity 0.000197433514322637 0.0323977924480156 -3.77847675398459e-05 angularVelocity 0 0 0 force 36530.1343259644 -153785879.46981 -559907.761008422 torque 0 0 0 radius 50 invMass 7.63943726841098e-10
BaseParticle id 71 indSpecies 0 position -350.000193459576 2149.70768946592 350.000101967851 orientation 1 0 0 0 velocity 1.51190914609319e-05 0.0427198745582447 -8.78070315415828e-05 angularVelocity 0 0 0 force 87469.2274366474 44935472.633207 307128.058139553 torque 0 0 0 radius 50 invMass 7.63943726841098e-10
BaseParticle id 72 indSpecies 0 position -250.000085326206 2149.73679802898 -350.000156989468 orientation 1 0 0 0 velocity 7.16145120358254e-05 0.0400726298758944 0.000178518366579611 angularVelocity 0 0 0 force -12414.2127299911 -121586737.496812 -6362.78312981088 torque 0 0 0 radius 50 invMass 7.63943726841098e-10
BaseParticle id 73 indSpecies 0 position -250.000141512787 2149.70708569437 -250.000087864332 orientation 1 0 0 0 velocity -0.000183448300305673 0.0599316730730377 -5.76148346235192e-05 angularVelocity 0 0 0 force -17367.0003801446 -35385794.7748129 -20820.240962047 torque 0 0 0 radius 50 invMass 7.63943726841098e-10
BaseParticle id 74 indSpecies 0 position -250.000368804465 2149.70371446093 -149.999957075478 orientation 1 0 0 0 velocity -0.000179350470258468 0.0546614066220224 -0.000121192078601255 angularVelocity 0 0 0 force 396578.170932171 73348833.4681828 -237032.215001618 torque 0 0 0 radius 50 invMass 7.63943726841098e-10
BaseParticle id 75 indSpecies 0 position -250.000172277341 2149.7090839342 -49.999977099742 orientation 1 0 0 0 velocity 6.44366314349422e-05 0.0303356307452395 0.000109252041828818 angularVelocity 0 0 0 force -55560.3267623871 136654683.494747 -53344.8329402267 torque 0 0 0 radius 50 invMass 7.63943726841098e-10
BaseParticle id 76 indSpecies 0 position -250.00018246151 2149.7103039429 50.0000018702496 orientation 1 0 0 0 velocity 5.9210743895717e-05 0.0301239196205235 -0.000127953460892076 angularVelocity 0 0 0 force -68803.9951842985 132273714.745155 12510.3840310259 torque 0 0 0 radius 50 invMass 7.63943726841098e-10
BaseParticle id 77 indSpecies 0 position -250.00035290341 2149.70366498413 149.999985868823 orientation 1 0 0 0 velocity 3.37645632207021e-05 0.0543481908398146 -2.88006719121807e-05 angularVelocity 0 0 0 force 386923.851736728 72972891.7033712 109891.231188384 torque 0 0 0 radius 50 invMass 7.63943726841098e-10
BaseParticle id 78 indSpecies 0 position -250.000181436041 2149.70734842647 250.00002211735 orientation 1 0 0 0 velocity -0.000141962337565231 0.0566640244583811 0.000103083902678919 angularVelocity 0 0 0 force 10266.1763726438 8703957.3221903 -68758.7659624587 torque 0 0 0 radius 50 invMass 7.63943726841098e-10
BaseParticle id 79 indSpecies 0 position -250.000128823074 2149.74143523334 350.000295791291 orientation 1 0 0 0 velocity 7.57525618789571e-05 0.0684024022204651 -0.000167341480909594 angularVelocity 0 0 0 force -238196.058080131 -177721788.627929 -85778.001383611 torque 0 0 0 radius 50 invMass 7.63943726841098e-10
BaseParticle id 80 indSpecies 0 position -150.000097714094 2149.66897785268 -350.000293797737 orientation 1 0 0 0 velocity -1.19944735860054e-05 0.0230091217274911 4.51392558929145e-05 angularVelocity 0 0 0 force -294055.147810616 66525499.0946793 -36023.4468576715 torque 0 0 0 radius 50 invMass 7.63943726841098e-10
BaseParticle id 81 indSpecies 0 position -149.999996690408 2149.70302333143 -250.000299355815 orientation 1 0 0 0 velocity -7.31047914815696e-05 0.0538647450064086 -0.00014968836433122 angularVelocity 0 0 0 force -37762.5212192217 72872384.892277 -34889.6652820211 torque 0 0 0 radius 50 invMass 7.63943726841098e-10
BaseParticle id 82 indSpecies 0 position -150.000313632768 2149.69947949846 -150.000244752748 orientation 1 0 0 0 velocity 7.69468154433811e-05 0.0495525424031724 7.58796424788472e-05 angularVelocity 0 0 0 force -36822.7261295968 6121988.27531621 -31151.0243687585 torque 0 0 0 radius 50 invMass 7.63943726841098e-10
BaseParticle id 83 indSpecies 0 position -150.000102383535 2149.73319990775 -50.0002097628751 orientation 1 0 0 0 velocity -3.13996325787765e-05 0.0379406137453021 -0.000173641852087165 angularVelocity 0 0 0 force -348623.718372588 -65575251.3315247 -25358.3651277521 torque 0 0 0 radius 50 invMass 7.63943726841098e-10
BaseParticle id 84 indSpecies 0 position -150.000016098148 2149.73336818188 50.000209692171 orientation 1 0 0 0 velocity -4.70328154881141e-05 0.0389275924726539 -7.43406791061929e-05 angularVelocity 0 0 0 force -64590.1335460364 -72674407.5623115 -17944.6582506578 torque 0 0 0 radius 50 invMass 7.63943726841098e-10
BaseParticle id 85 indSpecies 0 position -150.000208097863 2149.6977183098 150.000253708942 orientation 1 0 0 0 velocity -5.17923707535382e-05 0.0360441975811151 9.34791941297801e-05 angularVelocity 0 0 0 force -635076.732218373 -31695617.5001159 -14241.6184599628 torque 0 0 0 radius 50 invMass 7.63943726841098e-10
BaseParticle id 86 indSpecies 0 position -150.000045275627 2149.70342962893 250.000331144775 orientation 1 0 0 0 velocity -9.19769047500329e-05 0.0547171661339607 0.000189883106420505 angularVelocity 0 0 0 force -15215.3883008774 72545524.4712242 -14916.7452908493 torque 0 0 0 radius 50 invMass 7.63943726841098e-10
BaseParticle id 87 indSpecies 0 position -150.000180207454 2149.67481493224 350.000359068749 orientation 1 0 0 0 velocity 6.36842459529481e-05 0.0337591126694479 -4.44617046341643e-05 angularVelocity 0 0 0 force 307185.159599096 98717696.9876639 -16483.0790074992 torque 0 0 0 radius 50 invMass 7.63943726841098e-10
BaseParticle id 88 indSpecies 0 position -50.000128574268 2149.70293638463 -350.00018153113 orientation 1 0 0 0 velocity 6.24605841862376e-06 0.0410051228562227 -0.000121972970578487 angularVelocity 0 0 0 force 201720.994852345 27277007.1384019 -560210.584018618 torque 0 0 0 radius 50 invMass 7.63943726841098e-10
BaseParticle id 89 indSpecies 0 position -49.9999601332683 2149.71442960124 -250.000232358297 orientation 1 0 0 0 velocity 3.57893132785243e-05 0.0215080259224179 -1.91058631610556e-05 angularVelocity 0 0 0 force -512852.614119765 116874475.785477 454251.26187074 torque 0 0 0 radius 50 invMass 7.63943726841098e-10
BaseParticle id 90 indSpecies 0 position -50.0003163746748 2149.73393001585 -150.000051850234 orientation 1 0 0 0 velocity -0.00011949563485196 0.0344950859701542 -8.77850571261417e-05 angularVelocity 0 0 0 force -26182.9524584398 -72036668.2203681 -231398.226476217 torque 0 0 0 radius 50 invMass 7.63943726841098e-10