<?xml version="1.0"?>
<!-- time 80.7255-->
<VTKFile type="UnstructuredGrid" version="0.1" byte_order="LittleEndian">
<UnstructuredGrid>
<Piece NumberOfPoints="7680" NumberOfCells="0">
<Points>
  <DataArray type="Float32" Name="Position" NumberOfComponents="3" format="ascii">
	-350 2049.65 -350
	-350 2049.66 -250
	-350 2049.66 -150
	-350 2049.66 -50
	-350 2049.66 50
	-350 2049.66 150
	-350 2049.66 250
	-350 2049.65 350
	-250 2049.66 -350
	-250 2049.61 -250
	-250 2049.64 -150
	-250 2049.58 -50
	-250 2049.58 50.0001
	-250 2049.64 150
	-250 2049.61 250
	-250 2049.66 350
	-150 2049.66 -350
	-150 2049.64 -250
	-150 2049.64 -150
	-150 2049.66 -50
	-150 2049.66 50
	-150 2049.64 150
	-150 2049.64 250
	-150 2049.66 350
	-50 2049.66 -350
	-50 2049.58 -250
	-50 2049.66 -150
	-50 2049.67 -50
	-50 2049.67 50
	-50 2049.66 150
	-50 2049.58 250
	-50 2049.66 350
	50 2049.66 -350
	50 2049.58 -250
	50 2049.66 -150
	50 2049.67 -50
	50 2049.67 50
	50 2049.66 150
	50 2049.58 250
	50 2049.66 350
	150 2049.66 -350
	150 2049.64 -250
	150 2049.64 -150
	150 2049.66 -50
	150 2049.66 50
	150 2049.64 150
	150 2049.64 250
	150 2049.66 350
	250 2049.66 -350
	250 2049.61 -250
	250 2049.64 -150
	250 2049.58 -50
	250 2049.58 50
	250 2049.64 150
	250 2049.61 250
	250 2049.66 350
	350 2049.65 -350
	350 2049.66 -250
	350 2049.66 -150
	350 2049.66 -50
	350 2049.66 50
	350 2049.66 150
	350 2049.66 250
	350 2049.65 350
	-350 2149.66 -350
	-350 2149.66 -250
	-350.001 2149.67 -150
	-350.001 2149.66 -50
	-350.001 2149.66 50
	-350.001 2149.67 150
	-350 2149.66 250
	-350 2149.66 350
	-250 2149.66 -350
	-250 2149.66 -250
	-250 2149.67 -150
	-250 2149.65 -50
	-250 2149.65 50
	-250 2149.67 150
	-250 2149.66 250
	-250 2149.66 350
	-150 2149.67 -350.001
	-150 2149.67 -250
	-150 2149.64 -150
	-150 2149.67 -50
	-150 2149.67 50
	-150 2149.64 150
	-150 2149.67 250
	-150 2149.67 350.001
	-50 2149.66 -350.001
	-50 2149.65 -250
	-50 2149.67 -150
	-50 2149.67 -50
	-50 2149.67 50
	-50.0001 2149.67 150
	-50 2149.65 250
	-50 2149.66 350.001
	50 2149.66 -350.001
	50 2149.65 -250
	50 2149.67 -150
	50 2149.67 -50
	50 2149.67 50
	50.0001 2149.67 150
	50 2149.65 250
	50 2149.66 350.001
	150 2149.67 -350.001
	150 2149.67 -250
	150 2149.64 -150
	150 2149.67 -50
	150 2149.67 50
	150 2149.64 150
	150 2149.67 250
	150 2149.67 350.001
	250 2149.66 -350
	250 2149.66 -250
	250 2149.67 -150
	250 2149.65 -50
	250 2149.65 50
	250 2149.67 150
	250 2149.66 250
	250 2149.66 350
	350 2149.66 -350
	350 2149.66 -250
	350.001 2149.67 -150
	350.001 2149.66 -50
	350.001 2149.66 50
	350.001 2149.67 150
	350 2149.66 250
	350 2149.66 350
	-350 2249.68 -350
	-350 2249.67 -250
	-350 2249.68 -150
	-350 2249.67 -50
	-350 2249.67 50
	-350 2249.68 150
	-350 2249.67 250
	-350 2249.68 350
	-250 2249.67 -350
	-250 2249.68 -250
	-250 2249.68 -150
	-250 2249.68 -50.0001
	-250 2249.68 50.0001
	-250 2249.68 150
	-250 2249.68 250
	-250 2249.67 350
	-150 2249.68 -350
	-150 2249.68 -250
	-150 2249.65 -150
	-150 2249.67 -50.0001
	-150 2249.67 50
	-150 2249.65 150
	-150 2249.68 250
	-150 2249.68 350
	-50 2249.67 -350
	-50.0001 2249.68 -250
	-50 2249.67 -150
	-50 2249.67 -50
	-50 2249.67 50
	-50 2249.67 150
	-50.0001 2249.68 250
	-50 2249.67 350
	50 2249.67 -350
	50.0001 2249.68 -250
	50.0001 2249.67 -150
	50 2249.67 -50
	50 2249.67 50
	50 2249.67 150
	50.0001 2249.68 250
	50 2249.67 350
	150 2249.68 -350
	150 2249.68 -250
	150 2249.65 -150
	150 2249.67 -50.0001
	150 2249.67 50.0001
	150 2249.65 150
	150 2249.68 250
	150 2249.68 350
	250 2249.67 -350
	250 2249.69 -250
	250 2249.68 -150
	250 2249.68 -50.0001
	250 2249.68 50.0001
	250 2249.68 150
	250 2249.69 250
	250 2249.67 350
	350 2249.68 -350
	350 2249.67 -250
	350 2249.68 -150
	350 2249.67 -50
	350 2249.67 50
	350 2249.68 150
	350 2249.67 250
	350 2249.68 350
	-350 2349.67 -350
	-350 2349.68 -250
	-350 2349.69 -150
	-350 2349.68 -50
	-350 2349.68 50
	-350 2349.69 150
	-350 2349.68 250
	-350 2349.67 350
	-250 2349.68 -350
	-250 2349.69 -250
	-250 2349.68 -150
	-250 2349.68 -50
	-250 2349.68 50
	-250 2349.68 150
	-250 2349.69 250
	-250 2349.68 350.001
	-150 2349.69 -350
	-150 2349.68 -250
	-150 2349.66 -150
	-150 2349.68 -50
	-150 2349.68 50
	-150 2349.66 150
	-150 2349.68 250
	-150 2349.69 350
	-50 2349.68 -350
	-50 2349.68 -250
	-50 2349.68 -150
	-50 2349.68 -50
	-50 2349.68 50
	-50 2349.68 150
	-50 2349.68 250
	-50 2349.68 350
	50 2349.68 -350
	50 2349.68 -250
	50 2349.68 -150
	50 2349.68 -50
	50 2349.68 50
	50 2349.68 150
	50 2349.68 250
	50 2349.68 350
	150 2349.69 -350
	150 2349.68 -250
	150 2349.66 -150
	150 2349.68 -50
	150 2349.68 50
	150 2349.66 150
	150 2349.68 250
	150 2349.69 350
	250 2349.68 -350.001
	250 2349.69 -250
	250 2349.68 -150
	250 2349.68 -50
	250 2349.68 50
	250 2349.68 150
	250 2349.69 250
	250 2349.68 350.001
	350 2349.67 -350
	350 2349.68 -250
	350 2349.69 -150
	350 2349.68 -50
	350 2349.68 50
	350 2349.69 150
	350 2349.68 250
	350 2349.67 350
	-350 2449.67 -350
	-350 2449.68 -250
	-350 2449.69 -150
	-350 2449.68 -50
	-350 2449.68 50
	-350 2449.69 150
	-350 2449.68 250
	-350 2449.67 350
	-250 2449.68 -350
	-250 2449.69 -250
	-250 2449.68 -150
	-250 2449.67 -50.0001
	-250 2449.67 50
	-250 2449.68 150
	-250 2449.69 250
	-250 2449.68 350
	-150 2449.69 -350
	-150 2449.68 -250
	-150 2449.66 -150
	-150 2449.68 -50
	-150 2449.68 50
	-150 2449.66 150
	-150 2449.68 250
	-150 2449.69 350
	-50 2449.68 -350
	-50 2449.67 -250
	-50 2449.68 -150
	-50 2449.68 -50
	-50 2449.68 50
	-50 2449.68 150
	-50 2449.67 250
	-50 2449.68 350
	50 2449.68 -350
	50.0001 2449.67 -250
	50 2449.68 -150
	50 2449.68 -50
	50 2449.68 50
	50 2449.68 150
	50 2449.67 250
	50 2449.68 350
	150 2449.69 -350
	150 2449.68 -250
	150 2449.66 -150
	150 2449.68 -50
	150 2449.68 50
	150 2449.66 150
	150 2449.68 250
	150 2449.69 350
	250 2449.68 -350
	250 2449.69 -250
	250 2449.68 -150
	250 2449.67 -50
	250 2449.67 50
	250 2449.68 150
	250 2449.69 250
	250 2449.68 350
	350 2449.67 -350
	350 2449.68 -250
	350 2449.69 -150
	350 2449.68 -50
	350 2449.68 50
	350 2449.69 150
	350 2449.68 250
	350 2449.67 350
	-350 2549.69 -350
	-350 2549.68 -250
	-350 2549.69 -150
	-350 2549.68 -50.0001
	-350 2549.68 50
	-350 2549.69 150
	-350 2549.68 250
	-350 2549.69 350
	-250 2549.68 -350
	-250 2549.69 -250
	-250 2549.68 -150
	-250 2549.68 -50.0001
	-250 2549.68 50.0001
	-250 2549.68 150
	-250 2549.69 250
	-250 2549.68 350
	-150 2549.69 -350
	-150 2549.68 -250
	-150 2549.67 -150
	-150 2549.68 -50.0001
	-150 2549.68 50.0001
	-150 2549.67 150
	-150 2549.68 250
	-150 2549.69 350
	-50.0001 2549.68 -350
	-50.0001 2549.68 -250
	-50.0001 2549.68 -150
	-50 2549.68 -50
	-50 2549.68 50
	-50.0001 2549.68 150
	-50.0001 2549.68 250
	-50 2549.68 350
	50.0001 2549.68 -350
	50.0001 2549.68 -250
	50.0001 2549.68 -150
	50 2549.68 -50
	50.0001 2549.68 50
	50 2549.68 150
	50.0001 2549.68 250
	50.0001 2549.68 350
	150 2549.69 -350
	150 2549.68 -250
	150 2549.67 -150
	150 2549.68 -50.0001
	150 2549.68 50.0001
	150 2549.67 150
	150 2549.68 250
	150 2549.69 350
	250 2549.68 -350
	250 2549.69 -250
	250 2549.68 -150
	250 2549.68 -50.0001
	250 2549.68 50.0001
	250 2549.68 150
	250 2549.69 250
	250 2549.68 350
	350 2549.69 -350
	350 2549.68 -250
	350 2549.69 -150
	350 2549.68 -50.0001
	350 2549.68 50.0001
	350 2549.69 150
	350 2549.68 250
	350 2549.69 350
	-350 2649.69 -350
	-350 2649.68 -250
	-350.001 2649.69 -150
	-350 2649.68 -50
	-350 2649.68 50
	-350.001 2649.69 150
	-350 2649.68 250
	-350 2649.69 350
	-250 2649.68 -350
	-250 2649.69 -250
	-250 2649.69 -150
	-250 2649.68 -50
	-250 2649.68 50
	-250 2649.69 150
	-250 2649.69 250
	-250 2649.68 350
	-150 2649.69 -350.001
	-150 2649.69 -250
	-150 2649.67 -150
	-150 2649.68 -50
	-150 2649.68 50
	-150 2649.67 150
	-150 2649.69 250
	-150 2649.69 350.001
	-50 2649.68 -350
	-50 2649.68 -250
	-50 2649.68 -150
	-50 2649.68 -50
	-50 2649.68 50
	-50 2649.68 150
	-50 2649.68 250
	-50 2649.68 350
	50 2649.68 -350
	50 2649.68 -250
	50 2649.68 -150
	50 2649.68 -50
	50 2649.68 50
	50 2649.68 150
	50 2649.68 250
	50 2649.68 350
	150 2649.69 -350.001
	150 2649.69 -250
	150 2649.67 -150
	150 2649.68 -50
	150 2649.68 50
	150 2649.67 150
	150 2649.69 250
	150 2649.69 350.001
	250 2649.68 -350
	250 2649.69 -250
	250 2649.69 -150
	250 2649.68 -50
	250 2649.68 50
	250 2649.69 150
	250 2649.69 250
	250 2649.68 350
	350 2649.69 -350
	350 2649.68 -250
	350.001 2649.69 -150
	350 2649.68 -50
	350 2649.68 50
	350.001 2649.69 150
	350 2649.68 250
	350 2649.69 350
	-350 2749.69 -350
	-350 2749.68 -250
	-350.001 2749.69 -150
	-350.001 2749.68 -50.0001
	-350.001 2749.68 50.0001
	-350.001 2749.69 150
	-350 2749.68 250
	-350 2749.69 350
	-250 2749.68 -350
	-250 2749.69 -250
	-250 2749.69 -150
	-250 2749.69 -50
	-250 2749.69 50
	-250 2749.69 150
	-250 2749.69 250
	-250 2749.68 350
	-150 2749.69 -350.001
	-150 2749.69 -250
	-150 2749.66 -150
	-150 2749.69 -50
	-150 2749.69 50
	-150 2749.66 150
	-150 2749.69 250
	-150 2749.69 350.001
	-50.0001 2749.68 -350.001
	-50 2749.69 -250
	-50 2749.69 -150
	-50 2749.68 -50
	-50 2749.68 50
	-50 2749.69 150
	-50 2749.69 250
	-50.0001 2749.68 350.001
	50.0001 2749.68 -350.001
	50 2749.69 -250
	50 2749.69 -150
	50 2749.68 -50
	50 2749.68 50
	50 2749.69 150
	50 2749.69 250
	50.0001 2749.68 350.001
	150 2749.69 -350.001
	150 2749.69 -250
	150 2749.66 -150
	150 2749.69 -50
	150 2749.69 50
	150 2749.66 150
	150 2749.69 250
	150 2749.69 350.001
	250 2749.68 -350
	250 2749.69 -250
	250 2749.69 -150
	250 2749.69 -50
	250 2749.69 50
	250 2749.69 150
	250 2749.69 250
	250 2749.68 350
	350 2749.69 -350
	350 2749.68 -250
	350.001 2749.69 -150
	350.001 2749.68 -50.0001
	350.001 2749.68 50.0001
	350.001 2749.69 150
	350 2749.68 250
	350 2749.69 350
	-350 2849.69 -350.001
	-350 2849.68 -250
	-350 2849.69 -150
	-350 2849.68 -50.0001
	-350 2849.68 50.0001
	-350 2849.69 150
	-350 2849.68 250
	-350.001 2849.69 350.001
	-250 2849.68 -350
	-250 2849.68 -250
	-250 2849.68 -150
	-250 2849.69 -50
	-250 2849.69 50
	-250 2849.68 150
	-250 2849.68 250
	-250 2849.68 350
	-150 2849.69 -350
	-150 2849.68 -250
[...]
<PointData  Vectors="vector">
  <DataArray type="Float32" Name="Velocity" NumberOfComponents="3" format="ascii">
 -1.58367e-05 -0.000763765 -5.83644e-06
 -3.15472e-05 -0.0103113 -3.51023e-05
 2.0545e-05 -0.00144771 -6.847e-05
 2.99309e-05 0.000168627 -5.07187e-05
 2.41876e-05 0.00016245 5.00799e-05
 1.77529e-05 -0.00146947 6.59034e-05
 -2.86969e-05 -0.0102678 3.5823e-05
 -1.31612e-05 -0.000798777 5.18039e-06
 -3.45739e-05 -0.0103124 -2.05616e-05
 0.000105362 -0.00420842 1.9095e-05
 1.047e-05 0.00210804 0.000110069
 7.69175e-06 0.000818774 9.15594e-06
 1.11681e-05 0.0008146 -7.13125e-06
 9.9903e-06 0.00209688 -9.26474e-05
 9.87897e-05 -0.00422435 -4.98547e-05
 -3.14293e-05 -0.0102674 2.99769e-05
 -4.84261e-05 -0.00144989 2.6918e-05
 4.00457e-05 0.00210639 1.50086e-05
 -5.29058e-05 0.00467723 -6.56346e-05
 8.81285e-06 0.0121447 1.07137e-06
 1.94683e-06 0.0121444 1.15433e-05
 -5.82514e-05 0.00467386 5.03336e-05
 4.42534e-05 0.00210441 -1.52777e-05
 -4.51713e-05 -0.00148812 -2.41143e-05
 -6.02639e-05 0.000164977 1.86383e-05
 1.79896e-05 0.00081567 7.82193e-06
 -7.71877e-06 0.0121432 1.28543e-05
 -2.36903e-05 -0.00755217 6.92171e-07
 -6.95466e-06 -0.00760391 7.92222e-06
 -2.33863e-06 0.0121494 -1.94136e-05
 2.11195e-05 0.000820974 -2.91916e-05
 -6.78864e-05 0.000177352 1.39929e-06
 4.11544e-05 0.00016146 2.86999e-06
 -2.51506e-05 0.000810158 2.11983e-05
 -4.32543e-07 0.0121414 1.18227e-05
 -5.76897e-06 -0.00755249 -5.30494e-06
 1.12271e-05 -0.00755183 1.43837e-05
 -2.81661e-06 0.0121541 -1.43567e-05
 -2.04083e-05 0.000823005 -1.84355e-05
 6.86687e-05 0.000172918 -1.16265e-05
 7.01555e-05 -0.00147659 2.08993e-05
 -3.00597e-05 0.00208597 9.78048e-06
 6.13913e-05 0.0046685 -5.6135e-05
 1.89601e-05 0.0121516 -8.40468e-06
 -1.12452e-05 0.01216 4.82467e-06
 6.35498e-05 0.00468764 5.89488e-05
 -5.05087e-05 0.00210599 -1.0181e-05
 4.44355e-05 -0.00142836 -1.97733e-05
 3.39234e-05 -0.0102677 -3.11571e-05
 -0.000109982 -0.00420257 9.44581e-05
 -1.06504e-05 0.00209501 5.01853e-05
 -7.91143e-06 0.000827487 4.94508e-06
 -3.39457e-05 0.000838923 -5.01885e-06
 -9.46999e-06 0.00211961 -5.59113e-05
 -9.1492e-05 -0.00416938 -8.83009e-05
 3.35188e-05 -0.0102318 3.01131e-05
 1.36953e-05 -0.000807778 -1.36974e-05
 3.30327e-05 -0.0103567 -3.54653e-05
 -2.13093e-05 -0.00144002 -7.36523e-05
 -2.90119e-05 0.000180287 -2.74523e-05
 2.45947e-06 0.000186745 2.70805e-05
 -1.89188e-05 -0.00149124 7.37502e-05
 2.78252e-05 -0.0102964 3.51442e-05
 1.29077e-05 -0.000860796 1.32466e-05
 -5.75459e-06 -0.000814074 -1.64737e-07
 4.55394e-05 0.0109706 -5.1346e-05
 -3.53637e-05 0.00669669 -8.42667e-05
 -4.53162e-05 0.00285993 1.40806e-05
 -4.71939e-05 0.00285505 -2.71224e-05
 -3.9154e-05 0.00669 8.50296e-05
 4.63344e-05 0.0109918 5.91857e-05
 -7.76071e-06 -0.000772635 1.47525e-06
 -5.3511e-05 0.0109703 4.70048e-05
 0.000107511 0.00611487 0.000112659
 6.67769e-05 -0.00251105 -4.03274e-05
 -2.84533e-05 -0.00547208 -4.7514e-06
 -2.85479e-05 -0.00547652 6.90073e-06
 7.96092e-05 -0.00248478 3.80542e-05
 0.000107762 0.00609545 -0.000112776
 -5.36434e-05 0.0109922 -4.87672e-05
 -9.61928e-05 0.00669513 -3.95658e-05
 -1.21497e-05 -0.00246628 8.65559e-05
 -6.99233e-05 -0.00178862 -7.33084e-05
 2.15985e-05 0.00283886 9.32716e-05
 2.23261e-05 0.00281812 -9.6054e-05
 -7.61938e-05 -0.00180242 7.06859e-05
 3.80296e-05 -0.00248722 -8.15866e-05
 -8.82365e-05 0.00667406 3.96187e-05
 2.70859e-05 0.00285884 -4.49607e-05
 7.59522e-07 -0.00547004 -2.76158e-05
 9.77897e-05 0.00283782 2.29873e-05
 -8.3053e-05 -5.462e-05 -8.3157e-05
 -8.43637e-05 -9.20369e-06 8.36316e-05
 9.42992e-05 0.00282631 -2.33501e-05
 -7.00995e-05 -0.00559746 2.88291e-05
 1.83691e-05 0.00286364 4.40015e-05
 -1.37172e-05 0.00285357 -4.58095e-05
 -8.71627e-06 -0.00547316 -2.75412e-05
 -9.52326e-05 0.00283131 2.30263e-05
 8.22537e-05 -5.06521e-05 -8.30926e-05
 8.31925e-05 -4.16913e-05 8.33271e-05
 -9.42891e-05 0.00282806 -2.3285e-05
 7.43029e-05 -0.00559415 2.79648e-05
 -2.36123e-05 0.00286774 4.55202e-05
 8.11457e-05 0.00667618 -3.77038e-05
 1.74076e-05 -0.00249264 7.73091e-05
 7.22542e-05 -0.00179908 -7.26724e-05
 -2.25962e-05 0.00284399 9.41648e-05
 -2.18901e-05 0.00285027 -9.48895e-05
 7.59198e-05 -0.00177519 7.22321e-05
 -4.17268e-05 -0.00249546 -7.61797e-05
 9.06648e-05 0.00667587 3.72514e-05
 5.57503e-05 0.0109758 4.60688e-05
 -0.00010633 0.00608574 0.000107079
 -7.23739e-05 -0.00248641 1.38153e-05
 2.85775e-05 -0.00551001 -2.92244e-05
 2.99668e-05 -0.00549286 3.3113e-05
 -8.03659e-05 -0.00247714 -1.77822e-05
 -0.00010743 0.0061092 -0.000108675
 5.89329e-05 0.0110116 -4.5414e-05
 5.28021e-06 -0.000792624 -5.80215e-06
 -4.38604e-05 0.0109439 -5.56362e-05
 3.61648e-05 0.00669533 -8.87185e-05
 4.6767e-05 0.00287925 2.40922e-05
 4.59935e-05 0.00289944 -1.8145e-05
 4.00515e-05 0.00662321 8.17525e-05
 -4.61883e-05 0.0109612 5.56008e-05
 7.1084e-06 -0.000804812 5.57949e-06
 4.51678e-06 0.00303611 4.35619e-05
 2.74896e-05 -0.00424469 -3.97947e-05
 7.03777e-05 -0.000900992 5.0877e-05
 5.017e-05 -0.00278318 6.12154e-05
 5.04348e-05 -0.00279623 -6.15604e-05
 7.69253e-05 -0.000924716 -6.83235e-05
 3.13405e-05 -0.00425469 1.75427e-05
 -1.69311e-07 0.00316185 -6.39665e-06
 -2.70027e-05 -0.00424442 3.12866e-05
 -2.16209e-06 0.000313724 -1.12985e-05
 2.90032e-05 0.00379818 6.42512e-05
 3.4894e-05 0.00327882 4.11928e-05
 3.42097e-05 0.00328248 8.65754e-06
 -2.30896e-05 0.00386094 -0.000109305
 1.44022e-06 0.000314393 4.24549e-06
 -1.25924e-05 -0.00426316 -3.08384e-05
 7.1874e-05 -0.00090079 7.5023e-05
 9.4075e-05 0.00383919 2.66576e-05
 3.30507e-05 0.00885454 4.09636e-05
 1.69394e-05 -0.00521194 -7.65139e-05
 9.95779e-06 -0.0052028 7.43393e-05
 8.33871e-05 0.00885888 -3.53931e-05
 0.000102068 0.00385692 -3.32396e-05
 6.46902e-05 -0.000852696 -7.22522e-05
 6.82222e-05 -0.00278593 5.04284e-05
 -1.47317e-07 0.00331649 3.67923e-05
 -7.15424e-05 -0.00521226 1.56855e-05
 -7.33635e-05 -0.00782495 -7.09385e-05
 -7.01901e-05 -0.00783177 7.16685e-05
 -7.21689e-05 -0.00523922 -1.55321e-05
 -1.02938e-05 0.00353742 -3.72482e-05
 6.2287e-05 -0.0027866 -5.07064e-05
 -6.84816e-05 -0.00284316 5.03239e-05
 -2.52837e-05 0.0033254 3.56463e-05
 7.2904e-05 -0.00521313 1.84933e-05
 7.338e-05 -0.00781413 -7.56171e-05
 7.36822e-05 -0.00780874 7.4542e-05
 7.50663e-05 -0.0052373 -1.80719e-05
 7.24032e-06 0.00354645 -3.50065e-05
 -6.17307e-05 -0.00284223 -5.05196e-05
 -4.97114e-05 -0.000909132 7.20809e-05
 -6.31719e-05 0.00385532 5.02012e-05
 -5.19398e-05 0.00886712 1.71833e-05
 -1.6782e-05 -0.00521506 -7.85213e-05
 -1.36437e-05 -0.00521149 7.89872e-05
 -9.49889e-05 0.00887783 -1.8705e-05
 -9.60249e-05 0.00388023 -4.91773e-05
 -5.64851e-05 -0.00091379 -7.28627e-05
 1.74264e-05 -0.00417941 2.98402e-05
 -7.52373e-07 0.000415552 -5.05388e-06
 -3.9625e-06 0.00385498 6.55828e-05
 -3.43139e-05 0.00373029 3.11996e-05
 -3.43464e-05 0.00372632 -2.94875e-05
 3.37637e-05 0.00389912 -6.54017e-05
 -5.8863e-06 0.00040351 2.53876e-06
 1.4394e-05 -0.00420104 -3.04015e-05
 -1.6331e-05 0.00315393 3.65263e-05
 -2.92408e-05 -0.00423256 -3.97594e-05
 -7.68475e-05 -0.000886048 5.91951e-05
 -5.00752e-05 -0.00274009 7.04284e-05
 -4.96715e-05 -0.00273031 -7.23314e-05
 -7.83955e-05 -0.000867978 -6.24579e-05
 -2.86557e-05 -0.00420716 1.32677e-05
 -8.49481e-06 0.00290872 -6.18076e-06
 -3.49657e-05 0.00363916 -4.18075e-05
 -1.08604e-05 -0.00567575 -3.12938e-05
 2.33871e-05 0.00683659 8.82581e-05
 5.81193e-05 -0.00958464 -3.10652e-05
 6.25159e-05 -0.00957429 2.65355e-05
 2.09447e-05 0.00683019 -8.05782e-05
 -6.26425e-06 -0.00564594 3.15982e-05
 -3.77431e-05 0.00353194 3.62695e-05
 -3.33215e-05 -0.00567556 -8.30755e-06
 -5.52924e-05 -0.00486087 -9.75964e-07
 6.91784e-06 -0.010326 -5.25644e-05
 6.33886e-05 -0.00440464 -7.49233e-05
 6.05385e-05 -0.0043966 7.06717e-05
 -1.6585e-05 -0.0102784 3.25361e-05
 2.1415e-06 -0.00485572 1.82628e-05
 -3.18136e-05 -0.00564016 1.41332e-05
 6.2972e-05 0.00683595 1.86023e-05
 -1.75463e-05 -0.0102654 -4.33114e-05
 2.42552e-05 0.00700234 8.18854e-05
 -1.79423e-05 -0.00412486 -1.49327e-05
 -1.81692e-05 -0.00411323 1.45075e-05
 5.40061e-05 0.00701052 -5.6674e-05
 -5.6279e-05 -0.0101844 2.03482e-05
 8.80284e-05 0.00691118 -2.03936e-05
 -1.10305e-05 -0.00957032 6.52516e-05
 -1.76851e-05 -0.00440213 5.66757e-05
 -2.44591e-05 -0.00412565 -2.11851e-05
 2.24019e-05 0.00929476 2.12892e-05
 2.21312e-05 0.00932406 -2.22208e-05
 -2.17505e-05 -0.00412084 2.16087e-05
 -6.45276e-05 -0.00511553 -5.89002e-05
 -3.17561e-05 -0.00953954 -6.20623e-05
 2.99494e-05 -0.00942803 6.44245e-05
 4.51565e-05 -0.00441029 5.68144e-05
 2.45295e-05 -0.00412193 -2.18631e-05
 -2.06071e-05 0.00930031 2.20698e-05
 -2.20409e-05 0.00928716 -2.24551e-05
 2.33862e-05 -0.00412021 2.19741e-05
 4.34755e-05 -0.00511591 -5.80072e-05
 2.55553e-05 -0.00943645 -6.28539e-05
 -8.83588e-05 0.00683535 2.11628e-05
 4.13476e-05 -0.0102683 -2.84211e-05
 -5.76495e-05 0.00702302 6.43846e-05
 1.91246e-05 -0.00412862 -1.36059e-06
 2.07608e-05 -0.00412585 1.60377e-06
 -7.30633e-05 0.00699287 -6.53365e-05
 7.69967e-05 -0.0102583 2.8681e-05
 -8.23907e-05 0.00682788 -2.10942e-05
 3.19501e-05 -0.005761 -1.01014e-05
 8.003e-06 -0.00483929 -5.05502e-05
 2.3792e-05 -0.0102648 -4.8017e-05
 -6.02082e-05 -0.0053892 -1.44016e-05
 -6.10201e-05 -0.00552435 1.5321e-05
 3.57677e-05 -0.0102853 4.93941e-05
 1.10114e-07 -0.00484855 4.78228e-05
 3.34747e-05 -0.00574756 9.89027e-06
 4.36403e-05 0.00369015 -3.86085e-05
 8.1721e-06 -0.00582791 -3.44919e-05
 -1.90687e-05 0.00684734 8.87716e-05
 -6.26099e-05 -0.00949772 -3.22859e-05
 -6.34205e-05 -0.00951195 3.26705e-05
 -2.15025e-05 0.00684039 -8.87644e-05
 6.00428e-06 -0.00580532 3.38495e-05
 3.8739e-05 0.00383604 3.81738e-05
 -2.21856e-05 0.00241971 -3.19312e-05
 1.04184e-05 -0.00264064 3.6022e-05
 -5.36031e-05 -0.0045357 5.33981e-05
 5.52268e-05 0.00132396 3.26679e-05
 5.71815e-05 0.0013157 -3.1721e-05
 2.74287e-05 -0.00453112 -6.87167e-05
 -9.78244e-06 -0.00267 -3.29036e-05
 -3.06546e-05 0.00233053 4.22635e-05
 -4.87156e-07 -0.00264045 -6.93748e-06
 4.44725e-05 -7.49099e-05 7.89707e-05
 1.49635e-05 0.0158104 -7.52717e-05
 -7.7483e-05 -0.00268041 7.94128e-06
 -4.96335e-05 -0.00269801 -1.23196e-05
 -4.95856e-05 0.015772 7.73458e-05
 6.53687e-05 -4.81488e-05 -7.81338e-05
 7.15662e-05 -0.00266542 8.1804e-06
 8.00726e-05 -0.00453623 -8.94083e-05
 -6.81822e-05 0.0157885 -1.56375e-05
 -6.56558e-05 0.00541132 6.86355e-06
 -5.07322e-05 -0.0106033 3.25619e-05
 -7.80106e-05 -0.0105673 -3.79324e-05
 -8.60389e-05 0.00539383 7.92127e-06
 -6.81309e-05 0.0156988 1.60941e-05
 1.65566e-05 -0.00439416 8.0229e-05
 3.31696e-05 0.00129887 2.15835e-05
 1.73712e-05 -0.00269654 -1.18194e-05
 4.95694e-05 -0.0106048 -5.27605e-05
 8.8941e-05 0.00291725 6.08934e-05
 8.72436e-05 0.00290273 -8.30994e-05
 -6.21183e-05 -0.010585 7.16179e-05
 1.78092e-05 -0.00212489 2.11573e-05
 4.7161e-05 0.00129244 -2.65738e-05
 -3.27508e-05 0.00120008 1.86881e-05
 -9.30926e-06 -0.00269267 -4.60269e-06
 -4.66349e-05 -0.0105295 -7.36869e-05
 -8.75419e-05 0.00292039 8.0792e-05
 -9.11201e-05 0.0029282 -8.12778e-05
 7.20377e-05 -0.0105896 7.60485e-05
 -1.97859e-05 -0.00212196 2.48524e-07
 -4.78409e-05 0.00126763 -1.55048e-05
 -7.88876e-05 -0.00456255 -8.80945e-06
 7.63549e-05 0.0157894 -3.20357e-05
 -1.15883e-05 0.00539773 -6.11615e-05
 7.98543e-05 -0.0105508 -6.86072e-05
 6.00944e-05 -0.0105524 6.3792e-05
 6.62318e-05 0.00541826 5.82783e-05
 7.65819e-05 0.0157876 7.54868e-05
 -2.27945e-05 -0.00451557 -2.65915e-05
 -1.019e-05 -0.00259518 -9.21892e-06
 -7.84257e-05 -2.69287e-05 7.96626e-05
 3.50715e-05 0.015807 -7.31793e-05
 4.58599e-05 -0.00237188 1.74789e-05
 6.95636e-05 -0.00227386 -1.73776e-05
 3.41208e-05 0.0157562 7.40047e-05
 -3.98195e-05 -1.20691e-05 -7.93785e-05
 -3.12326e-05 -0.00261617 8.17477e-06
 3.20136e-05 0.00224301 -3.09123e-05
 8.46228e-06 -0.00260019 3.68609e-05
 7.9489e-05 -0.00445196 5.22015e-05
 -5.24513e-05 0.00124571 3.38353e-05
 -5.38899e-05 0.0012413 -3.1385e-05
 -7.21083e-07 -0.00452511 -6.2165e-05
 -2.06062e-05 -0.0025964 -4.45694e-05
 -8.80157e-07 0.00238012 4.62906e-05
 2.44055e-05 -0.00740496 2.87808e-05
 3.1946e-05 -0.00397313 -0.000105375
 -3.29832e-05 -0.00068617 -9.37853e-05
 -3.2258e-05 -0.000885684 4.83324e-06
 -3.03744e-05 -0.000896927 6.55485e-05
 -2.5638e-05 -0.000660362 3.36176e-05
 3.41813e-05 -0.00401429 9.0379e-05
 2.83183e-05 -0.00740462 -2.37774e-05
 -9.45527e-05 -0.00397311 3.55809e-05
 -6.61226e-05 0.0028549 -6.27455e-05
 5.71725e-05 -0.00327182 -0.000105645
 4.64549e-05 0.00996128 -1.21003e-06
 4.92524e-05 0.00996328 -1.76482e-06
 2.35274e-05 -0.00328423 0.000103146
 -6.51245e-05 0.00286019 6.63105e-05
 -9.36249e-05 -0.00401607 -3.30217e-05
 -2.49201e-05 -0.000675919 -3.93409e-05
 -0.000103617 -0.00326704 5.63945e-05
 -2.07569e-05 -0.0014379 -1.81183e-05
 -7.1311e-06 0.00565463 -6.65479e-05
 -1.02457e-05 0.00561497 6.75833e-05
 -5.79399e-05 -0.00146167 1.85252e-05
 -0.000103516 -0.00330054 -5.56358e-05
 -2.81262e-05 -0.00141521 3.82393e-05
 -7.02552e-05 -0.000893157 -3.52388e-05
 1.42723e-06 0.00996227 4.06233e-05
 -6.82648e-05 0.00566038 -2.85221e-05
 -5.50953e-06 -0.00134617 3.34817e-06
 -8.49423e-06 -0.00133802 6.44618e-06
 -1.20111e-06 0.00569063 1.81602e-05
 1.31512e-06 0.00992313 -3.90383e-05
 -6.49266e-05 -0.000867355 3.53543e-05
 3.15543e-06 -0.000995644 -3.51295e-05
 4.14376e-07 0.00996315 4.02502e-05
 6.75414e-05 0.00562864 -1.65804e-05
 6.7325e-06 -0.00135086 -9.04626e-06
 1.31169e-05 -0.00135289 5.26876e-06
 -2.17196e-05 0.00569412 2.07031e-05
 -1.848e-06 0.00992194 -4.0125e-05
 6.9814e-07 -0.0010102 3.55353e-05
 8.73938e-05 -0.000688128 -3.94076e-05
 0.000104941 -0.00326121 5.67248e-05
 1.33839e-05 -0.00141104 -1.77596e-05
 7.53884e-06 0.00562631 -6.59087e-05
 6.66238e-06 0.0056197 6.60033e-05
 7.46541e-05 -0.00143218 1.87587e-05
 0.000104904 -0.00328614 -5.65546e-05
 8.4767e-05 -0.000746916 3.87715e-05
 0.000103784 -0.003854 3.40769e-05
 6.61462e-05 0.00258378 -6.40283e-05
 -5.51123e-05 -0.00327607 -0.000103941
 -4.47686e-05 0.0100495 1.68952e-08
 -4.80485e-05 0.0100288 6.68905e-07
 -4.80423e-05 -0.00328117 0.00010415
 6.58031e-05 0.00249406 6.35714e-05
 9.65041e-05 -0.00387038 -3.40362e-05
 -2.88889e-05 -0.00742646 2.76989e-05
 -3.48159e-05 -0.00382518 -0.000103811
 3.95965e-05 -0.000629125 -1.64682e-05
 2.95461e-05 -0.000968717 -5.9977e-05
 2.85564e-05 -0.000963011 5.11368e-05
 5.66505e-05 -0.000831159 2.56575e-05
 -3.54022e-05 -0.00382335 0.000103878
 -2.31614e-05 -0.00740354 -2.76497e-05
 0.00015369 0.000196345 0.00015559
 0.000147566 0.00861194 -7.65572e-05
 0.000114527 -0.0031652 -0.000118738
 7.08023e-05 0.00267553 -4.45268e-06
 6.92969e-05 0.00270029 2.04018e-06
 0.000115468 -0.00319287 0.000118933
 0.000148342 0.00866968 7.75796e-05
 0.000154601 0.000195324 -0.000153649
 -8.18529e-05 0.00861176 0.000149787
 -0.000110426 -0.00242879 -0.000104547
 4.9955e-05 0.00250816 -5.03959e-05
 -1.37953e-05 -2.4591e-05 4.42618e-05
 6.60393e-06 -2.25917e-05 -4.58217e-05
 6.23082e-05 0.00265337 5.03599e-05
 -0.000109664 -0.00244912 0.000105435
 -8.55761e-05 0.008667 -0.000148334
 -0.000113561 -0.00316405 0.000116448
 -4.3357e-05 0.00258577 5.26647e-05
 0.000133396 -0.00351054 0.000128876
 0.000122343 0.000248445 -5.29649e-05
 9.96395e-05 0.000247114 5.18499e-05
 0.000124182 -0.00354066 -0.000130693
 -3.37325e-05 0.00272155 -5.0582e-05
 -0.000110465 -0.00211019 -0.000114963
 -1.79899e-06 0.0026814 7.30805e-05
 4.09584e-05 -2.63396e-05 -3.26183e-05
 -5.23703e-05 0.00024998 0.00013901
 -1.98682e-05 -0.00186228 -1.62969e-05
 -1.85468e-05 -0.00186584 1.38194e-05
 -5.34121e-05 0.000218595 -0.000136699
 4.14137e-05 -4.15366e-05 3.2659e-05
 3.52409e-05 0.00275077 -7.25642e-05
 4.2545e-06 0.00255361 7.32705e-05
 -4.24319e-05 -2.71645e-05 -3.28997e-05
 5.41931e-05 0.00022738 0.000136688
 -9.68394e-06 -0.00187055 -1.18821e-05
 -5.78312e-05 -0.0018694 1.41918e-05
 5.30045e-05 0.000210178 -0.000137771
 -4.28749e-05 -4.65809e-05 3.14494e-05
 -3.67766e-05 0.00257339 -7.28776e-05
 0.000113046 -0.00310777 0.000116455
 4.71395e-05 0.00260113 5.18443e-05
 -0.000122051 -0.00354303 0.000129916
 -0.000115531 0.00023589 -5.2321e-05
 -7.06721e-05 0.000232361 5.21133e-05
 -0.000134402 -0.00352351 -0.000128088
 4.36437e-05 0.00265933 -5.36069e-05
 0.000109108 -0.00305975 -0.00011628
 8.12396e-05 0.00842154 0.000149564
 0.000109344 -0.00235214 -0.000102864
 -6.29352e-05 0.00264837 -5.18279e-05
 3.92369e-05 8.70715e-05 4.57565e-05
 4.671e-05 7.00959e-05 -4.7103e-05
 -5.16562e-05 0.00258984 5.22979e-05
 0.000102698 -0.00230564 0.000103671
 8.69646e-05 0.00845937 -0.00014956
 -0.000155775 0.000126844 0.000155201
 -0.000149543 0.00845263 -7.79683e-05
 -0.000115515 -0.003137 -0.000118255
 -7.43775e-05 0.00247527 4.17255e-07
 -7.62434e-05 0.00244625 1.74966e-06
 -0.000116811 -0.00280961 0.000117319
 -0.000151335 0.00838797 7.66434e-05
 -0.000154672 0.000145676 -0.000155177
 3.79803e-05 -0.013548 3.71325e-05
 -2.97257e-05 0.00625448 -2.72302e-05
 1.28541e-05 -4.57939e-05 1.4657e-05
 3.96919e-05 0.00732938 6.58836e-05
 3.79329e-05 0.00732548 -7.57579e-05
 1.3065e-05 -2.36478e-05 -3.90366e-06
 -2.91729e-05 0.00595683 2.67584e-05
 3.09154e-05 -0.0135352 -3.73786e-05
 -2.66748e-05 0.00625055 -4.29618e-05
 8.60949e-05 -0.0100538 8.07274e-05
 3.87153e-05 0.00475625 -9.66146e-06
 2.18908e-05 -0.000345602 2.18723e-05
 1.46894e-05 -0.000343564 -2.01033e-05
 4.05562e-05 0.00461984 2.81001e-05
 8.64583e-05 -0.010061 -8.96916e-05
 -2.3553e-05 0.00598312 3.16336e-05
 3.21506e-07 -4.28932e-05 1.42906e-05
 -3.44752e-05 0.00460177 3.86128e-05
 -6.92648e-06 -0.0087052 -8.73587e-06
 -4.64093e-05 -0.00106947 -6.63254e-05
 -3.90216e-05 -0.00107713 6.54296e-05
 -7.53306e-06 -0.0086262 8.18468e-06
 -3.44223e-05 0.00454759 -3.83218e-05
 4.21937e-05 -0.000643116 -1.35804e-05
 7.67506e-05 0.00733715 3.91288e-05
 4.93953e-05 -0.000350389 1.23406e-05
 -6.63911e-05 -0.00107371 -3.96096e-05
 2.77629e-05 0.00245386 3.73866e-05
 3.39668e-05 0.00243573 -3.79842e-05
 -6.39202e-05 -0.00108235 4.00645e-05
 4.86476e-05 -0.000355901 -1.37712e-05
 3.95446e-05 0.00721864 -3.83034e-05
 -7.67643e-05 0.00745619 3.91779e-05
 -4.96342e-05 -0.000349191 1.24821e-05
 6.61192e-05 -0.00110095 -3.94655e-05
 -2.78101e-05 0.0024644 3.66538e-05
 -3.31656e-05 0.00245899 -3.69625e-05
 6.48338e-05 -0.0010908 4.00003e-05
 -4.9558e-05 -0.000360292 -1.3873e-05
 -8.87095e-05 0.00738302 -3.88957e-05
 -1.40731e-06 -3.66628e-05 1.44132e-05
 3.37899e-05 0.00465222 3.92993e-05
 6.97549e-06 -0.00871325 -9.00104e-06
 4.05324e-05 -0.00109565 -6.477e-05
 1.28448e-05 -0.00109705 6.415e-05
 6.52631e-06 -0.00871586 8.55517e-06
 3.19192e-05 0.00456571 -3.90906e-05
 9.88994e-06 -0.000115672 -1.44606e-05
 2.75983e-05 0.00591164 -4.43996e-05
 -8.62863e-05 -0.00988493 8.43637e-05
 -3.93716e-05 0.00458287 -2.43339e-06
 -1.64642e-05 -0.000347517 -7.15439e-05
 1.13027e-05 -0.00035177 7.12827e-05
 -4.02711e-05 0.00466098 1.58676e-06
 -8.53819e-05 -0.00976601 -8.43516e-05
 3.00797e-05 0.0060413 4.45998e-05
 -3.87761e-05 -0.0135074 3.8639e-05
 2.98031e-05 0.00645737 -2.77152e-05
 -1.31382e-05 -0.000164178 -2.1038e-06
 -4.04613e-05 0.00745938 7.91877e-05
 -3.99362e-05 0.00748593 -7.16655e-05
 -1.4899e-05 -0.000354863 -5.67723e-06
 2.95973e-05 0.00641043 2.61998e-05
 -4.24562e-05 -0.0135255 -3.77127e-05
 5.50791e-05 -6.51473e-05 5.32695e-05
 9.3459e-05 0.00277452 4.41362e-05
 0.000122814 0.0121383 -2.04236e-05
 0.000130835 -0.00119956 -5.62323e-05
 0.000130825 -0.00119328 5.55595e-05
 0.000123528 0.0121466 1.92298e-05
 9.44238e-05 0.00307741 -4.29304e-05
 5.15287e-05 -5.26821e-05 -5.31138e-05
 4.35257e-05 0.00277859 9.50139e-05
 -7.66133e-06 0.00153493 -8.36905e-06
 -6.95204e-06 0.000517462 1.93421e-05
 -3.67793e-05 -0.00861218 6.50491e-05
 -3.74564e-05 -0.00861239 -6.57022e-05
 -6.70793e-06 0.000464984 -2.14212e-05
 -9.043e-06 0.00156211 9.2661e-06
 4.31769e-05 0.00304142 -9.39447e-05
 -1.9518e-05 0.012141 0.000123801
 2.1715e-05 0.000518735 -9.94426e-06
 1.29127e-07 -0.00371099 3.12583e-06
 8.49476e-05 -0.00241352 7.22669e-05
 8.5836e-05 -0.00240694 -7.25037e-05