<?xml version="1.0"?>
<VTKFile type="UnstructuredGrid" version="0.1" byte_order="LittleEndian" compressor="vtkZLibDataCompressor">
<UnstructuredGrid>
<Piece NumberOfPoints="960" NumberOfCells="120">
<Points>
<DataArray type="Float32" NumberOfComponents="3" format="ascii">
-4.000000e+02 -6.000000e+03 -4.000000e+02
0.000000e+00 -6.000000e+03 -4.000000e+02
-4.000000e+02 -5.600140e+03 -4.000000e+02
9.071360e-10 -5.600140e+03 -4.000000e+02
-4.000000e+02 -6.000000e+03 0.000000e+00
0.000000e+00 -6.000000e+03 0.000000e+00
-4.000000e+02 -5.600140e+03 4.849310e-10
6.217780e-10 -5.600140e+03 7.120160e-10
0.000000e+00 -6.000000e+03 -4.000000e+02
4.000000e+02 -6.000000e+03 -4.000000e+02
9.071360e-10 -5.600140e+03 -4.000000e+02
4.000000e+02 -5.600140e+03 -4.000000e+02
0.000000e+00 -6.000000e+03 0.000000e+00
4.000000e+02 -6.000000e+03 0.000000e+00
6.217780e-10 -5.600140e+03 7.120160e-10
4.000000e+02 -5.600140e+03 -7.693880e-11
-4.000000e+02 -5.600140e+03 -4.000000e+02
9.071360e-10 -5.600140e+03 -4.000000e+02
-4.000000e+02 -5.200250e+03 -4.000000e+02
8.261320e-10 -5.200250e+03 -4.000000e+02
-4.000000e+02 -5.600140e+03 4.849310e-10
6.217780e-10 -5.600140e+03 7.120160e-10
-4.000000e+02 -5.200250e+03 -3.316390e-10
2.311760e-09 -5.200250e+03 1.541960e-11
9.071360e-10 -5.600140e+03 -4.000000e+02
4.000000e+02 -5.600140e+03 -4.000000e+02
8.261320e-10 -5.200250e+03 -4.000000e+02
4.000000e+02 -5.200250e+03 -4.000000e+02
6.217780e-10 -5.600140e+03 7.120160e-10
4.000000e+02 -5.600140e+03 -7.693880e-11
2.311760e-09 -5.200250e+03 1.541960e-11
4.000000e+02 -5.200250e+03 2.608430e-10
-4.000000e+02 -5.200250e+03 -4.000000e+02
8.261320e-10 -5.200250e+03 -4.000000e+02
-4.000000e+02 -4.800300e+03 -4.000000e+02
1.579100e-09 -4.800300e+03 -4.000000e+02
-4.000000e+02 -5.200250e+03 -3.316390e-10
2.311760e-09 -5.200250e+03 1.541960e-11
-4.000000e+02 -4.800300e+03 -7.010510e-10
1.248900e-09 -4.800300e+03 -6.612330e-10
8.261320e-10 -5.200250e+03 -4.000000e+02
4.000000e+02 -5.200250e+03 -4.000000e+02
1.579100e-09 -4.800300e+03 -4.000000e+02
4.000000e+02 -4.800300e+03 -4.000000e+02
2.311760e-09 -5.200250e+03 1.541960e-11
4.000000e+02 -5.200250e+03 2.608430e-10
1.248900e-09 -4.800300e+03 -6.612330e-10
4.000000e+02 -4.800300e+03 -9.987590e-10
-4.000000e+02 -4.800300e+03 -4.000000e+02
1.579100e-09 -4.800300e+03 -4.000000e+02
-4.000000e+02 -4.400300e+03 -4.000000e+02
9.072860e-10 -4.400300e+03 -4.000000e+02
-4.000000e+02 -4.800300e+03 -7.010510e-10
1.248900e-09 -4.800300e+03 -6.612330e-10
-4.000000e+02 -4.400300e+03 2.184290e-09
1.801970e-09 -4.400300e+03 1.987260e-09
1.579100e-09 -4.800300e+03 -4.000000e+02
4.000000e+02 -4.800300e+03 -4.000000e+02
9.072860e-10 -4.400300e+03 -4.000000e+02
4.000000e+02 -4.400300e+03 -4.000000e+02
1.248900e-09 -4.800300e+03 -6.612330e-10
4.000000e+02 -4.800300e+03 -9.987590e-10
1.801970e-09 -4.400300e+03 1.987260e-09
4.000000e+02 -4.400300e+03 1.868630e-09
-4.000000e+02 -4.400300e+03 -4.000000e+02
9.072860e-10 -4.400300e+03 -4.000000e+02
-4.000000e+02 -4.000270e+03 -4.000000e+02
8.959780e-10 -4.000270e+03 -4.000000e+02
-4.000000e+02 -4.400300e+03 2.184290e-09
1.801970e-09 -4.400300e+03 1.987260e-09
-4.000000e+02 -4.000270e+03 -6.800080e-10
2.678540e-09 -4.000270e+03 -1.218110e-09
9.072860e-10 -4.400300e+03 -4.000000e+02
4.000000e+02 -4.400300e+03 -4.000000e+02
8.959780e-10 -4.000270e+03 -4.000000e+02
4.000000e+02 -4.000270e+03 -4.000000e+02
1.801970e-09 -4.400300e+03 1.987260e-09
4.000000e+02 -4.400300e+03 1.868630e-09
2.678540e-09 -4.000270e+03 -1.218110e-09
4.000000e+02 -4.000270e+03 -1.402100e-10
-4.000000e+02 -4.000270e+03 -4.000000e+02
8.959780e-10 -4.000270e+03 -4.000000e+02
-4.000000e+02 -3.600270e+03 -4.000000e+02
1.082370e-09 -3.600270e+03 -4.000000e+02
-4.000000e+02 -4.000270e+03 -6.800080e-10
2.678540e-09 -4.000270e+03 -1.218110e-09
-4.000000e+02 -3.600270e+03 -1.023070e-09
1.824940e-09 -3.600270e+03 -2.849660e-10
8.959780e-10 -4.000270e+03 -4.000000e+02
4.000000e+02 -4.000270e+03 -4.000000e+02
1.082370e-09 -3.600270e+03 -4.000000e+02
4.000000e+02 -3.600270e+03 -4.000000e+02
2.678540e-09 -4.000270e+03 -1.218110e-09
4.000000e+02 -4.000270e+03 -1.402100e-10
1.824940e-09 -3.600270e+03 -2.849660e-10
4.000000e+02 -3.600270e+03 -1.803800e-09
-4.000000e+02 -3.600270e+03 -4.000000e+02
1.082370e-09 -3.600270e+03 -4.000000e+02
-4.000000e+02 -3.200290e+03 -4.000000e+02
1.137570e-09 -3.200290e+03 -4.000000e+02
-4.000000e+02 -3.600270e+03 -1.023070e-09
1.824940e-09 -3.600270e+03 -2.849660e-10
-4.000000e+02 -3.200290e+03 6.964660e-09
1.535110e-09 -3.200290e+03 4.727050e-09
1.082370e-09 -3.600270e+03 -4.000000e+02
4.000000e+02 -3.600270e+03 -4.000000e+02
1.137570e-09 -3.200290e+03 -4.000000e+02
4.000000e+02 -3.200290e+03 -4.000000e+02
1.824940e-09 -3.600270e+03 -2.849660e-10
4.000000e+02 -3.600270e+03 -1.803800e-09
1.535110e-09 -3.200290e+03 4.727050e-09
4.000000e+02 -3.200290e+03 4.884890e-09
-4.000000e+02 -3.200290e+03 -4.000000e+02
1.137570e-09 -3.200290e+03 -4.000000e+02
-4.000000e+02 -2.800300e+03 -4.000000e+02
1.237040e-09 -2.800300e+03 -4.000000e+02
-4.000000e+02 -3.200290e+03 6.964660e-09
1.535110e-09 -3.200290e+03 4.727050e-09
-4.000000e+02 -2.800300e+03 -1.001340e-08
6.434140e-10 -2.800300e+03 -1.137250e-08
1.137570e-09 -3.200290e+03 -4.000000e+02
4.000000e+02 -3.200290e+03 -4.000000e+02
1.237040e-09 -2.800300e+03 -4.000000e+02
4.000000e+02 -2.800300e+03 -4.000000e+02
1.535110e-09 -3.200290e+03 4.727050e-09
4.000000e+02 -3.200290e+03 4.884890e-09
6.434140e-10 -2.800300e+03 -1.137250e-08
4.000000e+02 -2.800300e+03 -1.186550e-08
-4.000000e+02 -2.800300e+03 -4.000000e+02
1.237040e-09 -2.800300e+03 -4.000000e+02
-4.000000e+02 -2.400290e+03 -4.000000e+02
-7.011760e-11 -2.400290e+03 -4.000000e+02
-4.000000e+02 -2.800300e+03 -1.001340e-08
6.434140e-10 -2.800300e+03 -1.137250e-08
-4.000000e+02 -2.400290e+03 9.815920e-09
-3.783280e-10 -2.400290e+03 1.076350e-08
1.237040e-09 -2.800300e+03 -4.000000e+02
4.000000e+02 -2.800300e+03 -4.000000e+02
-7.011760e-11 -2.400290e+03 -4.000000e+02
4.000000e+02 -2.400290e+03 -4.000000e+02
6.434140e-10 -2.800300e+03 -1.137250e-08
4.000000e+02 -2.800300e+03 -1.186550e-08
-3.783280e-10 -2.400290e+03 1.076350e-08
4.000000e+02 -2.400290e+03 7.740110e-09
-4.000000e+02 -2.400290e+03 -4.000000e+02
-7.011760e-11 -2.400290e+03 -4.000000e+02
-4.000000e+02 -2.000290e+03 -4.000000e+02
-8.867140e-10 -2.000290e+03 -4.000000e+02
-4.000000e+02 -2.400290e+03 9.815920e-09
-3.783280e-10 -2.400290e+03 1.076350e-08
-4.000000e+02 -2.000290e+03 1.207490e-08
-1.072210e-09 -2.000290e+03 6.012150e-09
-7.011760e-11 -2.400290e+03 -4.000000e+02
4.000000e+02 -2.400290e+03 -4.000000e+02
-8.867140e-10 -2.000290e+03 -4.000000e+02
4.000000e+02 -2.000290e+03 -4.000000e+02
-3.783280e-10 -2.400290e+03 1.076350e-08
4.000000e+02 -2.400290e+03 7.740110e-09
-1.072210e-09 -2.000290e+03 6.012150e-09
4.000000e+02 -2.000290e+03 1.149730e-08
-4.000000e+02 -2.000290e+03 -4.000000e+02
-8.867140e-10 -2.000290e+03 -4.000000e+02
-4.000000e+02 -1.600290e+03 -4.000000e+02
-9.609340e-10 -1.600290e+03 -4.000000e+02
-4.000000e+02 -2.000290e+03 1.207490e-08
-1.072210e-09 -2.000290e+03 6.012150e-09
-4.000000e+02 -1.600290e+03 -3.938690e-08
-1.122400e-09 -1.600290e+03 -2.988140e-08
-8.867140e-10 -2.000290e+03 -4.000000e+02
4.000000e+02 -2.000290e+03 -4.000000e+02
-9.609340e-10 -1.600290e+03 -4.000000e+02
4.000000e+02 -1.600290e+03 -4.000000e+02
-1.072210e-09 -2.000290e+03 6.012150e-09
4.000000e+02 -2.000290e+03 1.149730e-08
-1.122400e-09 -1.600290e+03 -2.988140e-08
4.000000e+02 -1.600290e+03 -4.013140e-08
-4.000000e+02 -1.600290e+03 -4.000000e+02
-9.609340e-10 -1.600290e+03 -4.000000e+02
-4.000000e+02 -1.200290e+03 -4.000000e+02
-1.174850e-10 -1.200290e+03 -4.000000e+02
-4.000000e+02 -1.600290e+03 -3.938690e-08
-1.122400e-09 -1.600290e+03 -2.988140e-08
-4.000000e+02 -1.200290e+03 2.116440e-08
-2.715660e-10 -1.200290e+03 1.401030e-08
-9.609340e-10 -1.600290e+03 -4.000000e+02
4.000000e+02 -1.600290e+03 -4.000000e+02
-1.174850e-10 -1.200290e+03 -4.000000e+02
4.000000e+02 -1.200290e+03 -4.000000e+02
-1.122400e-09 -1.600290e+03 -2.988140e-08
4.000000e+02 -1.600290e+03 -4.013140e-08
-2.715660e-10 -1.200290e+03 1.401030e-08
4.000000e+02 -1.200290e+03 1.996370e-08
-4.000000e+02 -1.200290e+03 -4.000000e+02
-1.174850e-10 -1.200290e+03 -4.000000e+02
-4.000000e+02 -8.002910e+02 -4.000000e+02
1.708790e-10 -8.002910e+02 -4.000000e+02
-4.000000e+02 -1.200290e+03 2.116440e-08
-2.715660e-10 -1.200290e+03 1.401030e-08
-4.000000e+02 -8.002910e+02 -8.700330e-09
7.787900e-10 -8.002920e+02 -1.013320e-08
-1.174850e-10 -1.200290e+03 -4.000000e+02
4.000000e+02 -1.200290e+03 -4.000000e+02
1.708790e-10 -8.002910e+02 -4.000000e+02
4.000000e+02 -8.002910e+02 -4.000000e+02
-2.715660e-10 -1.200290e+03 1.401030e-08
4.000000e+02 -1.200290e+03 1.996370e-08
7.787900e-10 -8.002920e+02 -1.013320e-08
4.000000e+02 -8.002910e+02 -9.397350e-09
-4.000000e+02 -8.002910e+02 -4.000000e+02
1.708790e-10 -8.002910e+02 -4.000000e+02
-4.000000e+02 -4.002920e+02 -4.000000e+02
-5.951710e-10 -4.002920e+02 -4.000000e+02
-4.000000e+02 -8.002910e+02 -8.700330e-09
7.787900e-10 -8.002920e+02 -1.013320e-08
-4.000000e+02 -4.002920e+02 8.685810e-09
-2.947130e-10 -4.002920e+02 5.271430e-09
1.708790e-10 -8.002910e+02 -4.000000e+02
4.000000e+02 -8.002910e+02 -4.000000e+02
-5.951710e-10 -4.002920e+02 -4.000000e+02
4.000000e+02 -4.002920e+02 -4.000000e+02
7.787900e-10 -8.002920e+02 -1.013320e-08
4.000000e+02 -8.002910e+02 -9.397350e-09
-2.947130e-10 -4.002920e+02 5.271430e-09
4.000000e+02 -4.002920e+02 7.539360e-09
-4.000000e+02 -4.002920e+02 -4.000000e+02
-5.951710e-10 -4.002920e+02 -4.000000e+02
-4.000000e+02 -2.916540e-01 -4.000000e+02
-1.616690e-09 -2.916140e-01 -4.000000e+02
-4.000000e+02 -4.002920e+02 8.685810e-09
-2.947130e-10 -4.002920e+02 5.271430e-09
-4.000000e+02 -2.916140e-01 8.768220e-08
-8.193760e-10 -2.915750e-01 7.838120e-08
-5.951710e-10 -4.002920e+02 -4.000000e+02
4.000000e+02 -4.002920e+02 -4.000000e+02
-1.616690e-09 -2.916140e-01 -4.000000e+02
4.000000e+02 -2.916540e-01 -4.000000e+02
[...]
<PointData>
<DataArray type="Float32" Name="V1" format="ascii">
0.000000e+00
0.000000e+00
-1.810190e-05
1.376890e-09
0.000000e+00
0.000000e+00
-1.736010e-05
6.480340e-10
0.000000e+00
0.000000e+00
1.376890e-09
1.810420e-05
0.000000e+00
0.000000e+00
6.480340e-10
1.736120e-05
-1.810190e-05
1.376890e-09
1.273170e-05
-1.116500e-09
-1.736010e-05
6.480340e-10
1.218580e-05
3.907770e-10
1.376890e-09
1.810420e-05
-1.116500e-09
-1.273340e-05
6.480340e-10
1.736120e-05
3.907770e-10
-1.218590e-05
1.273170e-05
-1.116500e-09
6.730510e-06
-2.522940e-10
1.218580e-05
3.907770e-10
6.386550e-06
6.608400e-10
-1.116500e-09
-1.273340e-05
-2.522940e-10
-6.731330e-06
3.907770e-10
-1.218590e-05
6.608400e-10
-6.385260e-06
6.730510e-06
-2.522940e-10
-2.426620e-05
1.076230e-09
6.386550e-06
6.608400e-10
-2.254050e-05
-1.574210e-09
-2.522940e-10
-6.731330e-06
1.076230e-09
2.426790e-05
6.608400e-10
-6.385260e-06
-1.574210e-09
2.253730e-05
-2.426620e-05
1.076230e-09
1.866690e-05
-1.399450e-09
-2.254050e-05
-1.574210e-09
1.540420e-05
4.087760e-10
1.076230e-09
2.426790e-05
-1.399450e-09
-1.866940e-05
-1.574210e-09
2.253730e-05
4.087760e-10
-1.540420e-05
1.866690e-05
-1.399450e-09
3.449110e-06
6.403920e-10
1.540420e-05
4.087760e-10
7.407150e-06
-3.914330e-10
-1.399450e-09
-1.866940e-05
6.403920e-10
-3.448540e-06
4.087760e-10
-1.540420e-05
-3.914330e-10
-7.407400e-06
3.449110e-06
6.403920e-10
-1.435240e-05
1.676180e-10
7.407150e-06
-3.914330e-10
-1.684700e-05
-2.004430e-10
6.403920e-10
-3.448540e-06
1.676180e-10
1.435410e-05
-3.914330e-10
-7.407400e-06
-2.004430e-10
1.684700e-05
-1.435240e-05
1.676180e-10
3.315140e-06
4.006590e-10
-1.684700e-05
-2.004430e-10
2.039310e-06
1.226330e-09
1.676180e-10
1.435410e-05
4.006590e-10
-3.314620e-06
-2.004430e-10
1.684700e-05
1.226330e-09
-2.036930e-06
3.315140e-06
4.006590e-10
1.220240e-05
6.112160e-10
2.039310e-06
1.226330e-09
1.648460e-05
4.863260e-10
4.006590e-10
-3.314620e-06
6.112160e-10
-1.219970e-05
1.226330e-09
-2.036930e-06
4.863260e-10
-1.648330e-05
1.220240e-05
6.112160e-10
-1.360910e-07
4.280860e-10
1.648460e-05
4.863260e-10
-2.176210e-06
6.328470e-10
6.112160e-10
-1.219970e-05
4.280860e-10
1.365780e-07
4.863260e-10
-1.648330e-05
6.328470e-10
2.176260e-06
-1.360910e-07
4.280860e-10
-2.500710e-05
-9.559600e-10
-2.176210e-06
6.328470e-10
-2.715500e-05
-4.248310e-10
4.280860e-10
1.365780e-07
-9.559600e-10
2.500560e-05
6.328470e-10
2.176260e-06
-4.248310e-10
2.715460e-05
-2.500710e-05
-9.559600e-10
6.434760e-06
-1.158150e-10
-2.715500e-05
-4.248310e-10
4.853770e-06
-8.057360e-10
-9.559600e-10
2.500560e-05
-1.158150e-10
-6.436050e-06
-4.248310e-10
2.715460e-05
-8.057360e-10
-4.854600e-06
6.434760e-06
-1.158150e-10
2.130230e-05
4.864630e-10
4.853770e-06
-8.057360e-10
2.683280e-05
-1.120340e-09
-1.158150e-10
-6.436050e-06
4.864630e-10
-2.130130e-05
-8.057360e-10
-4.854600e-06
-1.120340e-09
-2.683460e-05
2.130230e-05
4.864630e-10
-5.794630e-06
5.147720e-10
2.683280e-05
-1.120340e-09
-7.917910e-06
6.150190e-10
4.864630e-10
-2.130130e-05
5.147720e-10
5.796120e-06
-1.120340e-09
-2.683460e-05
6.150190e-10
7.920330e-06
-5.794630e-06
5.147720e-10
-1.807230e-05
1.289590e-09
-7.917910e-06
6.150190e-10
-1.421410e-05
6.156290e-11
5.147720e-10
5.796120e-06
1.289590e-09
1.807370e-05
6.150190e-10
7.920330e-06
6.156290e-11
1.421380e-05
-1.807230e-05
1.289590e-09
-2.071210e-06
6.119550e-11
-1.421410e-05
6.156290e-11
-6.445540e-07
-6.992120e-10
1.289590e-09
1.807370e-05
6.119550e-11
2.070820e-06
6.156290e-11
1.421380e-05
-6.992120e-10
6.430930e-07
-2.071210e-06
6.119550e-11
2.227020e-05
-9.513150e-10
-6.445540e-07
-6.992120e-10
1.856810e-05
9.440060e-10
6.119550e-11
2.070820e-06
-9.513150e-10
-2.227160e-05
-6.992120e-10
6.430930e-07
9.440060e-10
-1.856640e-05
2.227020e-05
-9.513150e-10
1.863340e-05
1.996120e-09
1.856810e-05
9.440060e-10
2.537540e-05
-1.658600e-09
-9.513150e-10
-2.227160e-05
1.996120e-09
-1.862900e-05
9.440060e-10
-1.856640e-05
-1.658600e-09
-2.537800e-05
1.863340e-05
1.996120e-09
1.635870e-05
-2.648890e-09
2.537540e-05
-1.658600e-09
5.442380e-06
4.418010e-09
1.996120e-09
-1.862900e-05
-2.648890e-09
-1.636660e-05
-1.658600e-09
-2.537800e-05
4.418010e-09
-5.440570e-06
1.635870e-05
-2.648890e-09
-1.577050e-06
-1.130140e-09
5.442380e-06
4.418010e-09
5.263270e-08
-4.557520e-09
-2.648890e-09
-1.636660e-05
-1.130140e-09
1.579560e-06
4.418010e-09
-5.440570e-06
-4.557520e-09
-4.169770e-08
-1.577050e-06
-1.130140e-09
1.999090e-05
-3.312860e-10
5.263270e-08
-4.557520e-09
2.062030e-05
-3.143190e-09
-1.130140e-09
1.579560e-06
-3.312860e-10
-1.998950e-05
-4.557520e-09
-4.169770e-08
-3.143190e-09
-2.060280e-05
1.999090e-05
-3.312860e-10
1.418670e-05
-1.388320e-09
2.062030e-05
-3.143190e-09
1.718240e-05
7.070900e-10
-3.312860e-10
-1.998950e-05
-1.388320e-09
-1.418900e-05
-3.143190e-09
-2.060280e-05
7.070900e-10
-1.718380e-05
1.418670e-05
-1.388320e-09
-2.145250e-05
-1.995870e-10
1.718240e-05
7.070900e-10
-2.425440e-05
1.909030e-10
-1.388320e-09
-1.418900e-05
-1.995870e-10
2.145190e-05
7.070900e-10
-1.718380e-05
1.909030e-10
2.425530e-05
-2.145250e-05
-1.995870e-10
-1.905150e-05
-8.353710e-11
-2.425440e-05
1.909030e-10
-1.556670e-05
2.671960e-10
-1.995870e-10
2.145190e-05
-8.353710e-11
1.905150e-05
1.909030e-10
2.425530e-05
2.671960e-10
1.556740e-05
-1.905150e-05
-8.353710e-11
4.979180e-06
-1.391020e-09
-1.556670e-05
2.671960e-10
1.032410e-05
-2.295080e-09
-8.353710e-11
1.905150e-05
-1.391020e-09
-4.981910e-06
2.671960e-10
1.556740e-05
-2.295080e-09
-1.032860e-05
4.979180e-06
-1.391020e-09
1.664630e-05
-1.512450e-09
1.032410e-05
-2.295080e-09
9.805960e-06
-1.616900e-09
-1.391020e-09
-4.981910e-06
-1.512450e-09
-1.664940e-05
-2.295080e-09
-1.032860e-05
-1.616900e-09
-9.809200e-06
1.664630e-05
-1.512450e-09
-7.398590e-07
4.891650e-10
9.805960e-06
-1.616900e-09
-3.919000e-06
1.077070e-09
-1.512450e-09
-1.664940e-05
4.891650e-10
7.408010e-07
-1.616900e-09
-9.809200e-06
1.077070e-09
3.921170e-06
-7.398590e-07
4.891650e-10
-1.148340e-05
1.724910e-09
-3.919000e-06
1.077070e-09
-9.390330e-06
1.875160e-09
4.891650e-10
7.408010e-07
1.724910e-09
1.148690e-05
1.077070e-09
3.921170e-06
1.875160e-09
9.394120e-06
-1.148340e-05
1.724910e-09
5.327840e-07
9.475990e-11
-9.390330e-06
1.875160e-09
2.423490e-06
9.364770e-12
1.724910e-09
1.148690e-05
9.475990e-11
-5.326120e-07
1.875160e-09
9.394120e-06
9.364770e-12
-2.423480e-06
5.327840e-07
9.475990e-11
-2.364970e-06
-1.483910e-10
2.423490e-06
9.364770e-12
-5.861070e-06
-1.688840e-10
9.475990e-11
-5.326120e-07
-1.483910e-10
2.364670e-06
9.364770e-12
-2.423480e-06
-1.688840e-10
5.860720e-06
0.000000e+00
0.000000e+00
-1.736010e-05
6.480340e-10
0.000000e+00
0.000000e+00
-1.810210e-05
1.778760e-09
0.000000e+00
0.000000e+00
6.480340e-10
1.736120e-05
0.000000e+00
0.000000e+00
1.778760e-09
1.810320e-05
-1.736010e-05
6.480340e-10
1.218580e-05
3.907770e-10
-1.810210e-05
1.778760e-09
1.273300e-05
3.853960e-10
6.480340e-10
1.736120e-05
3.907770e-10
-1.218590e-05
1.778760e-09
1.810320e-05
3.853960e-10
-1.273180e-05
1.218580e-05
3.907770e-10
6.386550e-06
6.608400e-10
1.273300e-05
3.853960e-10
6.730500e-06
5.633430e-10
3.907770e-10
-1.218590e-05
6.608400e-10
-6.385260e-06
3.853960e-10
-1.273180e-05
5.633430e-10
-6.729900e-06
6.386550e-06
6.608400e-10
-2.254050e-05
-1.574210e-09
6.730500e-06
5.633430e-10
-2.426380e-05
-9.310540e-10
6.608400e-10
-6.385260e-06
-1.574210e-09
2.253730e-05
5.633430e-10
-6.729900e-06
-9.310540e-10
2.426400e-05
-2.254050e-05
-1.574210e-09
1.540420e-05
4.087760e-10
-2.426380e-05
-9.310540e-10
1.866830e-05
-8.130010e-10
-1.574210e-09
2.253730e-05
4.087760e-10
-1.540420e-05
-9.310540e-10
2.426400e-05
-8.130010e-10
-1.867050e-05
1.540420e-05
4.087760e-10
7.407150e-06
-3.914330e-10
1.866830e-05
-8.130010e-10
3.453160e-06
1.724920e-09
4.087760e-10
-1.540420e-05
-3.914330e-10
-7.407400e-06
-8.130010e-10
-1.867050e-05
1.724920e-09
-3.450380e-06
7.407150e-06
-3.914330e-10
-1.684700e-05
-2.004430e-10
3.453160e-06
1.724920e-09
-1.435680e-05
-1.332030e-09
-3.914330e-10
-7.407400e-06
-2.004430e-10
1.684700e-05
1.724920e-09
-3.450380e-06
-1.332030e-09
1.435330e-05
-1.684700e-05
-2.004430e-10
2.039310e-06
1.226330e-09
-1.435680e-05
-1.332030e-09
3.314350e-06
-1.386720e-09
-2.004430e-10
1.684700e-05
1.226330e-09
-2.036930e-06
-1.332030e-09
1.435330e-05
-1.386720e-09
-3.315990e-06
2.039310e-06
1.226330e-09
1.648460e-05
4.863260e-10
3.314350e-06
-1.386720e-09
1.220370e-05
2.585960e-10
1.226330e-09
-2.036930e-06
4.863260e-10
-1.648330e-05
-1.386720e-09
-3.315990e-06
2.585960e-10
-1.220270e-05
1.648460e-05
4.863260e-10
-2.176210e-06
6.328470e-10
1.220370e-05
2.585960e-10
-1.431610e-07
-7.055170e-10
4.863260e-10
-1.648330e-05
6.328470e-10
2.176260e-06
2.585960e-10
-1.220270e-05
-7.055170e-10
1.421080e-07
-2.176210e-06
6.328470e-10
-2.715500e-05
-4.248310e-10
-1.431610e-07
-7.055170e-10
-2.500040e-05
2.111790e-10
6.328470e-10
2.176260e-06
-4.248310e-10
2.715460e-05
-7.055170e-10
1.421080e-07
2.111790e-10
2.500000e-05
-2.715500e-05
-4.248310e-10
4.853770e-06
-8.057360e-10
-2.500040e-05
2.111790e-10
6.436680e-06
-1.436880e-09
-4.248310e-10
2.715460e-05
-8.057360e-10
-4.854600e-06
2.111790e-10
2.500000e-05
-1.436880e-09
-6.440150e-06
4.853770e-06
-8.057360e-10
2.683280e-05
-1.120340e-09
6.436680e-06
-1.436880e-09
2.128130e-05
5.820490e-10
-8.057360e-10
-4.854600e-06
-1.120340e-09
-2.683460e-05
-1.436880e-09
-6.440150e-06
5.820490e-10
-2.128010e-05
2.683280e-05
-1.120340e-09
-7.917910e-06
6.150190e-10
2.128130e-05
5.820490e-10
-5.799020e-06
1.613160e-10
-1.120340e-09
-2.683460e-05
6.150190e-10
7.920330e-06
5.820490e-10
-2.128010e-05
1.613160e-10
5.800160e-06
-7.917910e-06
6.150190e-10
-1.421410e-05
6.156290e-11
-5.799020e-06
1.613160e-10
-1.795640e-05
8.048990e-11
6.150190e-10
7.920330e-06
6.156290e-11
1.421380e-05
1.613160e-10
5.800160e-06
8.048990e-11
1.795600e-05
-1.421410e-05
6.156290e-11
-6.445540e-07
-6.992120e-10
-1.795640e-05
8.048990e-11
-2.261350e-06
-3.241280e-11
6.156290e-11
1.421380e-05
-6.992120e-10
6.430930e-07
8.048990e-11
1.795600e-05
-3.241280e-11
2.262840e-06
-6.445540e-07
-6.992120e-10
1.856810e-05
9.440060e-10
-2.261350e-06
-3.241280e-11
2.252860e-05
-4.553400e-10
-6.992120e-10
6.430930e-07
9.440060e-10
-1.856640e-05
-3.241280e-11
2.262840e-06
-4.553400e-10
-2.253080e-05
1.856810e-05
9.440060e-10
2.537540e-05
-1.658600e-09
2.252860e-05
-4.553400e-10
1.834570e-05
2.321420e-09
9.440060e-10
-1.856640e-05
-1.658600e-09
-2.537800e-05
-4.553400e-10
-2.253080e-05
2.321420e-09
-1.834340e-05
2.537540e-05
-1.658600e-09
5.442380e-06
4.418010e-09
1.834570e-05
2.321420e-09
1.619360e-05
-3.236930e-09
-1.658600e-09
-2.537800e-05
4.418010e-09
-5.440570e-06
2.321420e-09
-1.834340e-05
-3.236930e-09
-1.619920e-05
5.442380e-06
4.418010e-09
5.263270e-08
-4.557520e-09
1.619360e-05
-3.236930e-09
-8.056260e-07
-3.763580e-09
4.418010e-09
-5.440570e-06
-4.557520e-09
-4.169770e-08
-3.236930e-09
-1.619920e-05
-3.763580e-09
8.097740e-07
5.263270e-08
-4.557520e-09
2.062030e-05
-3.143190e-09
-8.056260e-07
-3.763580e-09
1.954990e-05
-2.092080e-09
-4.557520e-09
-4.169770e-08
-3.143190e-09
-2.060280e-05
-3.763580e-09
8.097740e-07
-2.092080e-09
-1.954440e-05
2.062030e-05
-3.143190e-09
1.718240e-05
7.070900e-10
1.954990e-05
-2.092080e-09
1.416110e-05
8.411120e-10
-3.143190e-09
-2.060280e-05
7.070900e-10
-1.718380e-05
-2.092080e-09
-1.954440e-05
8.411120e-10
-1.416480e-05
1.718240e-05
7.070900e-10
-2.425440e-05
1.909030e-10
1.416110e-05
8.411120e-10
-2.114870e-05
3.557610e-11
7.070900e-10
-1.718380e-05
1.909030e-10
2.425530e-05
8.411120e-10
-1.416480e-05
3.557610e-11
2.114960e-05
-2.425440e-05
1.909030e-10
-1.556670e-05
2.671960e-10
-2.114870e-05
3.557610e-11
-1.939250e-05
-6.317510e-10
1.909030e-10
2.425530e-05
2.671960e-10
1.556740e-05
3.557610e-11
2.114960e-05
-6.317510e-10
1.939120e-05
-1.556670e-05
2.671960e-10
1.032410e-05
-2.295080e-09
-1.939250e-05
-6.317510e-10
5.265330e-06
-2.513340e-09
2.671960e-10
1.556740e-05
-2.295080e-09
-1.032860e-05
-6.317510e-10
1.939120e-05
-2.513340e-09
-5.270150e-06
1.032410e-05
-2.295080e-09
9.805960e-06
-1.616900e-09
5.265330e-06
-2.513340e-09
1.657650e-05
-1.070960e-09
-2.295080e-09
-1.032860e-05
-1.616900e-09
-9.809200e-06
-2.513340e-09
-5.270150e-06
-1.070960e-09
-1.657860e-05
9.805960e-06
-1.616900e-09
-3.919000e-06
1.077070e-09
1.657650e-05
-1.070960e-09
-7.321440e-07
1.277980e-09
-1.616900e-09
-9.809200e-06
1.077070e-09
3.921170e-06
-1.070960e-09
-1.657860e-05
1.277980e-09
7.347050e-07
-3.919000e-06
1.077070e-09
-9.390330e-06
1.875160e-09
-7.321440e-07
1.277980e-09
-1.151000e-05
1.582970e-09
1.077070e-09
3.921170e-06
1.875160e-09
9.394120e-06
1.277980e-09
7.347050e-07
1.582970e-09
1.151320e-05
-9.390330e-06
1.875160e-09
2.423490e-06
9.364770e-12
-1.151000e-05
1.582970e-09
5.482130e-07
1.142690e-10
1.875160e-09
9.394120e-06
9.364770e-12
-2.423480e-06
1.582970e-09
1.151320e-05
1.142690e-10
-5.480090e-07
2.423490e-06
9.364770e-12
-5.861070e-06
-1.688840e-10
5.482130e-07
1.142690e-10
-2.362560e-06
-2.335690e-10
9.364770e-12
-2.423480e-06
-1.688840e-10
5.860720e-06
1.142690e-10
-5.480090e-07
-2.335690e-10
2.362090e-06
</DataArray>
<DataArray type="Float32" Name="V2" format="ascii">
0.000000e+00
0.000000e+00
2.525810e-02
2.524690e-02
0.000000e+00
0.000000e+00
2.524690e-02
2.523450e-02
0.000000e+00
0.000000e+00
2.524690e-02
2.525810e-02
0.000000e+00
0.000000e+00
2.523450e-02
2.524690e-02
2.525810e-02
2.524690e-02
2.287450e-02
2.287480e-02
2.524690e-02
2.523450e-02
2.287480e-02
2.287690e-02
2.524690e-02
2.525810e-02
2.287480e-02
2.287450e-02
2.523450e-02
2.524690e-02
2.287690e-02
2.287480e-02
2.287450e-02
2.287480e-02
-1.275410e-03
-1.262860e-03
2.287480e-02
2.287690e-02
-1.262870e-03
-1.253310e-03
2.287480e-02
2.287450e-02
-1.262860e-03
-1.275420e-03
2.287690e-02
2.287480e-02
-1.253310e-03
-1.262870e-03
-1.275410e-03
-1.262860e-03
-2.896760e-02
-2.898020e-02
-1.262870e-03
-1.253310e-03
-2.898010e-02
-2.898910e-02
-1.262860e-03
-1.275420e-03
-2.898020e-02
-2.896760e-02
-1.253310e-03
-1.262870e-03
-2.898910e-02
-2.898020e-02
-2.896760e-02
-2.898020e-02
-2.253050e-02
-2.253670e-02
-2.898010e-02
-2.898910e-02
-2.253680e-02
-2.254550e-02
-2.898020e-02
-2.896760e-02
-2.253670e-02
-2.253050e-02
-2.898910e-02
-2.898020e-02
-2.254550e-02
-2.253680e-02
-2.253050e-02
-2.253670e-02
8.914510e-03
8.937210e-03
-2.253680e-02
-2.254550e-02
8.937220e-03
8.959760e-03
-2.253670e-02
-2.253050e-02
8.937210e-03
8.914530e-03
-2.254550e-02
-2.253680e-02
8.959760e-03
8.937220e-03
8.914510e-03
8.937210e-03
1.134200e-02
1.134980e-02
8.937220e-03
8.959760e-03
1.134980e-02
1.136110e-02
8.937210e-03
8.914530e-03
1.134980e-02
1.134200e-02
8.959760e-03
8.937220e-03
1.136110e-02
1.134980e-02
1.134200e-02
1.134980e-02
-8.031210e-03
-8.065840e-03
1.134980e-02
1.136110e-02
-8.065880e-03
-8.107930e-03
1.134980e-02
1.134200e-02
-8.065840e-03
-8.031200e-03
1.136110e-02
1.134980e-02
-8.107930e-03
-8.065880e-03
-8.031210e-03
-8.065840e-03
-4.419680e-03
-4.433320e-03
-8.065880e-03
-8.107930e-03
-4.433340e-03
-4.435280e-03
-8.065840e-03
-8.031200e-03
-4.433320e-03
-4.419680e-03
-8.107930e-03
-8.065880e-03
-4.435280e-03
-4.433340e-03
-4.419680e-03
-4.433320e-03
3.208060e-03
3.244590e-03
-4.433340e-03
-4.435280e-03
3.244680e-03
3.272610e-03
-4.433320e-03
-4.419680e-03
3.244590e-03
3.208060e-03
-4.435280e-03
-4.433340e-03
3.272610e-03
3.244670e-03
3.208060e-03
3.244590e-03
-6.033460e-05
-6.092270e-05
3.244680e-03
3.272610e-03
-6.085890e-05
-7.063580e-05
3.244590e-03
3.208060e-03
-6.092270e-05
-6.033460e-05
3.272610e-03
3.244670e-03
-7.063580e-05
-6.086210e-05
-6.033460e-05
-6.092270e-05
-1.280450e-03
-1.307830e-03
-6.085890e-05
-7.063580e-05
-1.308130e-03
-1.317980e-03
-6.092270e-05
-6.033460e-05
-1.307830e-03
-1.280460e-03
-7.063580e-05
-6.086210e-05
-1.317980e-03
-1.308140e-03
-1.280450e-03
-1.307830e-03
3.779620e-04
3.927710e-04
-1.308130e-03
-1.317980e-03
3.929440e-04
4.102940e-04
-1.307830e-03
-1.280460e-03
3.927710e-04
3.779670e-04
-1.317980e-03
-1.308140e-03
4.102940e-04
3.929450e-04
3.779620e-04
3.927710e-04
3.531920e-04
4.104050e-04
3.929440e-04
4.102940e-04
4.105100e-04
4.643430e-04
3.927710e-04
3.779670e-04
4.104050e-04
3.531940e-04
4.102940e-04
3.929450e-04
4.643430e-04
4.105110e-04
3.531920e-04
4.104050e-04
-7.383800e-05
-5.135930e-05
4.105100e-04
4.643430e-04
-5.171830e-05
-3.508780e-05
4.104050e-04
3.531940e-04
-5.135930e-05
-7.384100e-05
4.643430e-04
4.105110e-04
-3.508780e-05
-5.172030e-05
-7.383800e-05
-5.135930e-05
6.010570e-04
5.446010e-04
-5.171830e-05
-3.508780e-05
5.454400e-04
4.936860e-04
-5.135930e-05
-7.384100e-05
5.446010e-04
6.010560e-04
-3.508780e-05
-5.172030e-05
4.936860e-04
5.454430e-04
6.010570e-04
5.446010e-04
1.151040e-04
1.037340e-04
5.454400e-04
4.936860e-04
1.036130e-04
1.120170e-04
5.446010e-04
6.010560e-04
1.037340e-04
1.151010e-04
4.936860e-04
5.454430e-04
1.120170e-04
1.036140e-04
1.151040e-04
1.037340e-04
2.508800e-05
1.440280e-06
1.036130e-04
1.120170e-04
7.396230e-07
-1.537080e-05
1.037340e-04
1.151010e-04
1.440280e-06
2.508870e-05
1.120170e-04
1.036140e-04
-1.537080e-05
7.345950e-07
2.508800e-05
1.440280e-06
1.241150e-04
1.281670e-04
7.396230e-07
-1.537080e-05
1.267910e-04
1.108540e-04
1.440280e-06
2.508870e-05
1.281670e-04
1.241110e-04
-1.537080e-05
7.345950e-07
1.108540e-04
1.268050e-04
1.241150e-04
1.281670e-04
4.366690e-05
1.476560e-04
1.267910e-04
1.108540e-04
1.480930e-04
1.312900e-04
1.281670e-04
1.241110e-04
1.476560e-04
4.369460e-05
1.108540e-04
1.268050e-04
1.312900e-04
1.480500e-04
4.366690e-05
1.476560e-04
-1.471010e-04
-1.768460e-04
1.480930e-04
1.312900e-04
-1.781720e-04
-1.898840e-04
1.476560e-04
4.369460e-05
-1.768460e-04
-1.471250e-04
1.312900e-04
1.480500e-04
-1.898840e-04
-1.781040e-04
-1.471010e-04
-1.768460e-04
-1.907110e-04
-1.360710e-04
-1.781720e-04
-1.898840e-04
-1.365460e-04
-1.334090e-04
-1.768460e-04
-1.471250e-04
-1.360710e-04
-1.907060e-04
-1.898840e-04
-1.781040e-04
-1.334090e-04
-1.365140e-04
-1.907110e-04
-1.360710e-04
-1.951420e-04
-1.286810e-04
-1.365460e-04
-1.334090e-04
-1.276340e-04
-6.930020e-05
-1.360710e-04
-1.907060e-04
-1.286810e-04
-1.951500e-04
-1.334090e-04
-1.365140e-04
-6.930020e-05
-1.276710e-04
-1.951420e-04
-1.286810e-04
8.108140e-06
-3.331770e-05
-1.276340e-04
-6.930020e-05
-3.398040e-05
-1.301260e-04
-1.286810e-04
-1.951500e-04
-3.331770e-05
8.109900e-06
-6.930020e-05
-1.276710e-04
-1.301260e-04
-3.392860e-05
8.108140e-06
-3.331770e-05
-4.654910e-04
-5.149500e-04
-3.398040e-05
-1.301260e-04
-5.143210e-04
-4.589910e-04
-3.331770e-05
8.109900e-06
-5.149500e-04
-4.654890e-04
-1.301260e-04
-3.392860e-05
-4.589910e-04
-5.143110e-04
-4.654910e-04
-5.149500e-04
-2.076800e-04
-2.734110e-04
-5.143210e-04
-4.589910e-04
-2.735770e-04
-2.427600e-04
-5.149500e-04
-4.654890e-04
-2.734110e-04
-2.076740e-04
-4.589910e-04
-5.143110e-04
-2.427600e-04
-2.736530e-04
-2.076800e-04
-2.734110e-04
-1.427880e-04
-1.279030e-04
-2.735770e-04
-2.427600e-04
-1.279800e-04
-1.469660e-04
-2.734110e-04
-2.076740e-04
-1.279030e-04
-1.427950e-04
-2.427600e-04
-2.736530e-04
-1.469660e-04
-1.279610e-04
-1.427880e-04
-1.279030e-04
-2.967610e-04
-1.897030e-04
-1.279800e-04
-1.469660e-04
-1.896560e-04
-1.552060e-04
-1.279030e-04
-1.427950e-04
-1.897030e-04
-2.967770e-04
-1.469660e-04
-1.279610e-04
-1.552060e-04
-1.896670e-04
-2.967610e-04
-1.897030e-04
-4.369360e-04
-5.270590e-04
-1.896560e-04
-1.552060e-04
-5.270970e-04
-5.579790e-04
-1.897030e-04
-2.967770e-04
-5.270590e-04
-4.369330e-04
-1.552060e-04
-1.896670e-04
-5.579790e-04
-5.270930e-04
-4.369360e-04
-5.270590e-04
2.994410e-05
1.125170e-04
-5.270970e-04
-5.579790e-04
1.125150e-04
1.713510e-04
-5.270590e-04
-4.369330e-04
1.125170e-04
2.994510e-05
-5.579790e-04
-5.270930e-04
1.713510e-04
1.125150e-04
0.000000e+00
0.000000e+00
2.524690e-02
2.523450e-02
0.000000e+00
0.000000e+00
2.525810e-02
2.524690e-02
0.000000e+00
0.000000e+00
2.523450e-02
2.524690e-02
0.000000e+00
0.000000e+00
2.524690e-02
2.525810e-02
2.524690e-02
2.523450e-02
2.287480e-02
2.287690e-02
2.525810e-02
2.524690e-02
2.287450e-02
2.287480e-02
2.523450e-02
2.524690e-02
2.287690e-02
2.287480e-02
2.524690e-02
2.525810e-02
2.287480e-02
2.287450e-02