<?xml version="1.0"?>
<!-- time 49.8306-->
<VTKFile type="UnstructuredGrid" version="0.1" byte_order="LittleEndian">
<UnstructuredGrid>
<Piece NumberOfPoints="7680" NumberOfCells="0">
<Points>
  <DataArray type="Float32" Name="Position" NumberOfComponents="3" format="ascii">
	-350 2049.64 -350
	-350 2049.64 -250
	-350 2049.64 -150
	-350 2049.63 -50
	-350 2049.63 50
	-350 2049.64 150
	-350 2049.64 250
	-350 2049.64 350
	-250 2049.64 -350
	-250 2049.64 -250
	-250 2049.64 -150
	-250 2049.63 -50
	-250 2049.63 50
	-250 2049.64 150
	-250 2049.64 250
	-250 2049.64 350
	-150 2049.64 -350
	-150 2049.64 -250
	-150 2049.64 -150
	-150 2049.63 -50
	-150 2049.63 50
	-150 2049.64 150
	-150 2049.64 250
	-150 2049.64 350
	-50 2049.63 -350
	-50 2049.63 -250
	-50 2049.63 -150
	-50 2049.63 -50
	-50 2049.63 50
	-50 2049.63 150
	-50 2049.63 250
	-50 2049.63 350
	50 2049.63 -350
	50 2049.63 -250
	50 2049.63 -150
	50 2049.63 -50
	50 2049.63 50
	50 2049.63 150
	50 2049.63 250
	50 2049.63 350
	150 2049.64 -350
	150 2049.64 -250
	150 2049.64 -150
	150 2049.63 -50
	150 2049.63 50
	150 2049.64 150
	150 2049.64 250
	150 2049.64 350
	250 2049.64 -350
	250 2049.64 -250
	250 2049.64 -150
	250 2049.63 -50
	250 2049.63 50
	250 2049.64 150
	250 2049.64 250
	250 2049.64 350
	350 2049.64 -350
	350 2049.64 -250
	350 2049.64 -150
	350 2049.63 -50
	350 2049.63 50
	350 2049.64 150
	350 2049.64 250
	350 2049.64 350
	-350 2149.68 -350
	-350 2149.68 -250
	-350 2149.68 -150
	-350 2149.68 -50
	-350 2149.68 50
	-350 2149.68 150
	-350 2149.68 250
	-350 2149.68 350
	-250 2149.68 -350
	-250 2149.68 -250
	-250 2149.68 -150
	-250 2149.68 -50
	-250 2149.68 50
	-250 2149.68 150
	-250 2149.68 250
	-250 2149.68 350
	-150 2149.68 -350
	-150 2149.68 -250
	-150 2149.68 -150
	-150 2149.68 -50
	-150 2149.68 50
	-150 2149.68 150
	-150 2149.68 250
	-150 2149.68 350
	-50 2149.68 -350
	-50 2149.68 -250
	-50 2149.68 -150
	-50 2149.68 -50
	-50 2149.68 50
	-50 2149.68 150
	-50 2149.68 250
	-50 2149.68 350
	50 2149.68 -350
	50 2149.68 -250
	50 2149.68 -150
	50 2149.68 -50
	50 2149.68 50
	50 2149.68 150
	50 2149.68 250
	50 2149.68 350
	150 2149.68 -350
	150 2149.68 -250
	150 2149.68 -150
	150 2149.68 -50
	150 2149.68 50
	150 2149.68 150
	150 2149.68 250
	150 2149.68 350
	250 2149.68 -350
	250 2149.68 -250
	250 2149.68 -150
	250 2149.68 -50
	250 2149.68 50
	250 2149.68 150
	250 2149.68 250
	250 2149.68 350
	350 2149.68 -350
	350 2149.68 -250
	350 2149.68 -150
	350 2149.68 -50
	350 2149.68 50
	350 2149.68 150
	350 2149.68 250
	350 2149.68 350
	-350 2249.7 -350
	-350 2249.7 -250
	-350 2249.7 -150
	-350 2249.7 -50
	-350 2249.7 50
	-350 2249.7 150
	-350 2249.7 250
	-350 2249.7 350
	-250 2249.7 -350
	-250 2249.7 -250
	-250 2249.7 -150
	-250 2249.7 -50
	-250 2249.7 50
	-250 2249.7 150
	-250 2249.7 250
	-250 2249.7 350
	-150 2249.7 -350
	-150 2249.7 -250
	-150 2249.7 -150
	-150 2249.7 -50
	-150 2249.7 50
	-150 2249.7 150
	-150 2249.7 250
	-150 2249.7 350
	-50 2249.7 -350
	-50 2249.7 -250
	-50 2249.7 -150
	-50 2249.7 -50
	-50 2249.7 50
	-50 2249.7 150
	-50 2249.7 250
	-50 2249.7 350
	50 2249.7 -350
	50 2249.7 -250
	50 2249.7 -150
	50 2249.7 -50
	50 2249.7 50
	50 2249.7 150
	50 2249.7 250
	50 2249.7 350
	150 2249.7 -350
	150 2249.7 -250
	150 2249.7 -150
	150 2249.7 -50
	150 2249.7 50
	150 2249.7 150
	150 2249.7 250
	150 2249.7 350
	250 2249.7 -350
	250 2249.7 -250
	250 2249.7 -150
	250 2249.7 -50
	250 2249.7 50
	250 2249.7 150
	250 2249.7 250
	250 2249.7 350
	350 2249.7 -350
	350 2249.7 -250
	350 2249.7 -150
	350 2249.7 -50
	350 2249.7 50
	350 2249.7 150
	350 2249.7 250
	350 2249.7 350
	-350 2349.7 -350
	-350 2349.7 -250
	-350 2349.7 -150
	-350 2349.7 -50
	-350 2349.7 50
	-350 2349.7 150
	-350 2349.7 250
	-350 2349.7 350
	-250 2349.7 -350
	-250 2349.7 -250
	-250 2349.7 -150
	-250 2349.7 -50
	-250 2349.7 50
	-250 2349.7 150
	-250 2349.7 250
	-250 2349.7 350
	-150 2349.7 -350
	-150 2349.7 -250
	-150 2349.69 -150
	-150 2349.69 -50
	-150 2349.69 50
	-150 2349.69 150
	-150 2349.7 250
	-150 2349.7 350
	-50 2349.7 -350
	-50 2349.7 -250
	-50 2349.69 -150
	-50 2349.69 -50
	-50 2349.69 50
	-50 2349.69 150
	-50 2349.7 250
	-50 2349.7 350
	50 2349.7 -350
	50 2349.7 -250
	50 2349.69 -150
	50 2349.69 -50
	50 2349.69 50
	50 2349.69 150
	50 2349.7 250
	50 2349.7 350
	150 2349.7 -350
	150 2349.7 -250
	150 2349.69 -150
	150 2349.69 -50
	150 2349.69 50
	150 2349.69 150
	150 2349.7 250
	150 2349.7 350
	250 2349.7 -350
	250 2349.7 -250
	250 2349.7 -150
	250 2349.7 -50
	250 2349.7 50
	250 2349.7 150
	250 2349.7 250
	250 2349.7 350
	350 2349.7 -350
	350 2349.7 -250
	350 2349.7 -150
	350 2349.7 -50
	350 2349.7 50
	350 2349.7 150
	350 2349.7 250
	350 2349.7 350
	-350 2449.7 -350
	-350 2449.69 -250
	-350 2449.69 -150
	-350 2449.69 -50
	-350 2449.69 50
	-350 2449.69 150
	-350 2449.69 250
	-350 2449.7 350
	-250 2449.69 -350
	-250 2449.69 -250
	-250 2449.69 -150
	-250 2449.69 -50
	-250 2449.69 50
	-250 2449.69 150
	-250 2449.69 250
	-250 2449.69 350
	-150 2449.69 -350
	-150 2449.69 -250
	-150 2449.69 -150
	-150 2449.69 -50
	-150 2449.69 50
	-150 2449.69 150
	-150 2449.69 250
	-150 2449.69 350
	-50 2449.69 -350
	-50 2449.69 -250
	-50 2449.69 -150
	-50 2449.69 -50
	-50 2449.69 50
	-50 2449.69 150
	-50 2449.69 250
	-50 2449.69 350
	50 2449.69 -350
	50 2449.69 -250
	50 2449.69 -150
	50 2449.69 -50
	50 2449.69 50
	50 2449.69 150
	50 2449.69 250
	50 2449.69 350
	150 2449.69 -350
	150 2449.69 -250
	150 2449.69 -150
	150 2449.69 -50
	150 2449.69 50
	150 2449.69 150
	150 2449.69 250
	150 2449.69 350
	250 2449.69 -350
	250 2449.69 -250
	250 2449.69 -150
	250 2449.69 -50
	250 2449.69 50
	250 2449.69 150
	250 2449.69 250
	250 2449.69 350
	350 2449.7 -350
	350 2449.69 -250
	350 2449.69 -150
	350 2449.69 -50
	350 2449.69 50
	350 2449.69 150
	350 2449.69 250
	350 2449.7 350
	-350 2549.69 -350
	-350 2549.69 -250
	-350 2549.69 -150
	-350 2549.69 -50
	-350 2549.69 50
	-350 2549.69 150
	-350 2549.69 250
	-350 2549.69 350
	-250 2549.69 -350
	-250 2549.69 -250
	-250 2549.69 -150
	-250 2549.69 -50
	-250 2549.69 50
	-250 2549.69 150
	-250 2549.69 250
	-250 2549.69 350
	-150 2549.69 -350
	-150 2549.69 -250
	-150 2549.69 -150
	-150 2549.69 -50
	-150 2549.69 50
	-150 2549.69 150
	-150 2549.69 250
	-150 2549.69 350
	-50 2549.69 -350
	-50 2549.69 -250
	-50 2549.69 -150
	-50 2549.69 -50
	-50 2549.69 50
	-50 2549.69 150
	-50 2549.69 250
	-50 2549.69 350
	50 2549.69 -350
	50 2549.69 -250
	50 2549.69 -150
	50 2549.69 -50
	50 2549.69 50
	50 2549.69 150
	50 2549.69 250
	50 2549.69 350
	150 2549.69 -350
	150 2549.69 -250
	150 2549.69 -150
	150 2549.69 -50
	150 2549.69 50
	150 2549.69 150
	150 2549.69 250
	150 2549.69 350
	250 2549.69 -350
	250 2549.69 -250
	250 2549.69 -150
	250 2549.69 -50
	250 2549.69 50
	250 2549.69 150
	250 2549.69 250
	250 2549.69 350
	350 2549.69 -350
	350 2549.69 -250
	350 2549.69 -150
	350 2549.69 -50
	350 2549.69 50
	350 2549.69 150
	350 2549.69 250
	350 2549.69 350
	-350 2649.69 -350
	-350 2649.69 -250
	-350 2649.69 -150
	-350 2649.69 -50
	-350 2649.69 50
	-350 2649.69 150
	-350 2649.69 250
	-350 2649.69 350
	-250 2649.69 -350
	-250 2649.69 -250
	-250 2649.69 -150
	-250 2649.69 -50
	-250 2649.69 50
	-250 2649.69 150
	-250 2649.69 250
	-250 2649.69 350
	-150 2649.69 -350
	-150 2649.69 -250
	-150 2649.68 -150
	-150 2649.69 -50
	-150 2649.69 50
	-150 2649.68 150
	-150 2649.69 250
	-150 2649.69 350
	-50 2649.69 -350
	-50 2649.69 -250
	-50 2649.69 -150
	-50 2649.68 -50
	-50 2649.68 50
	-50 2649.69 150
	-50 2649.69 250
	-50 2649.69 350
	50 2649.69 -350
	50 2649.69 -250
	50 2649.69 -150
	50 2649.68 -50
	50 2649.68 50
	50 2649.69 150
	50 2649.69 250
	50 2649.69 350
	150 2649.69 -350
	150 2649.69 -250
	150 2649.68 -150
	150 2649.69 -50
	150 2649.69 50
	150 2649.68 150
	150 2649.69 250
	150 2649.69 350
	250 2649.69 -350
	250 2649.69 -250
	250 2649.69 -150
	250 2649.69 -50
	250 2649.69 50
	250 2649.69 150
	250 2649.69 250
	250 2649.69 350
	350 2649.69 -350
	350 2649.69 -250
	350 2649.69 -150
	350 2649.69 -50
	350 2649.69 50
	350 2649.69 150
	350 2649.69 250
	350 2649.69 350
	-350 2749.69 -350
	-350 2749.69 -250
	-350 2749.68 -150
	-350 2749.68 -50
	-350 2749.68 50
	-350 2749.68 150
	-350 2749.69 250
	-350 2749.69 350
	-250 2749.69 -350
	-250 2749.69 -250
	-250 2749.68 -150
	-250 2749.68 -50
	-250 2749.68 50
	-250 2749.68 150
	-250 2749.69 250
	-250 2749.69 350
	-150 2749.68 -350
	-150 2749.68 -250
	-150 2749.68 -150
	-150 2749.68 -50
	-150 2749.68 50
	-150 2749.68 150
	-150 2749.68 250
	-150 2749.68 350
	-50 2749.68 -350
	-50 2749.68 -250
	-50 2749.68 -150
	-50 2749.68 -50
	-50 2749.68 50
	-50 2749.68 150
	-50 2749.68 250
	-50 2749.68 350
	50 2749.68 -350
	50 2749.68 -250
	50 2749.68 -150
	50 2749.68 -50
	50 2749.68 50
	50 2749.68 150
	50 2749.68 250
	50 2749.68 350
	150 2749.68 -350
	150 2749.68 -250
	150 2749.68 -150
	150 2749.68 -50
	150 2749.68 50
	150 2749.68 150
	150 2749.68 250
	150 2749.68 350
	250 2749.69 -350
	250 2749.69 -250
	250 2749.68 -150
	250 2749.68 -50
	250 2749.68 50
	250 2749.68 150
	250 2749.69 250
	250 2749.69 350
	350 2749.69 -350
	350 2749.69 -250
	350 2749.68 -150
	350 2749.68 -50
	350 2749.68 50
	350 2749.68 150
	350 2749.69 250
	350 2749.69 350
	-350 2849.68 -350
	-350 2849.68 -250
	-350 2849.68 -150
	-350 2849.68 -50
	-350 2849.68 50
	-350 2849.68 150
	-350 2849.68 250
	-350 2849.68 350
	-250 2849.68 -350
	-250 2849.68 -250
	-250 2849.68 -150
	-250 2849.68 -50
	-250 2849.68 50
	-250 2849.68 150
	-250 2849.68 250
	-250 2849.68 350
	-150 2849.68 -350
	-150 2849.68 -250
	-150 2849.68 -150
	-150 2849.68 -50
	-150 2849.68 50
	-150 2849.68 150
	-150 2849.68 250
	-150 2849.68 350
	-50 2849.68 -350
	-50 2849.68 -250
	-50 2849.68 -150
	-50 2849.68 -50
	-50 2849.68 50
	-50 2849.68 150
	-50 2849.68 250
	-50 2849.68 350
	50 2849.68 -350
	50 2849.68 -250
	50 2849.68 -150
	50 2849.68 -50
	50 2849.68 50
	50 2849.68 150
	50 2849.68 250
	50 2849.68 350
	150 2849.68 -350
	150 2849.68 -250
	150 2849.68 -150
	150 2849.68 -50
	150 2849.68 50
	150 2849.68 150
	150 2849.68 250
	150 2849.68 350
	250 2849.68 -350
	250 2849.68 -250
[...]
<PointData  Vectors="vector">
  <DataArray type="Float32" Name="Velocity" NumberOfComponents="3" format="ascii">
 -0.000101898 -0.00260488 -0.000101899
 -0.000102438 -0.00291314 -1.92177e-05
 -9.62657e-05 -0.00347085 -8.36718e-05
 -0.000105911 -0.00375683 -5.6605e-05
 -0.00010591 -0.00375683 5.66113e-05
 -9.62648e-05 -0.00347085 8.36623e-05
 -0.000102439 -0.00291314 1.92213e-05
 -0.000101903 -0.00260488 0.000101901
 -1.92219e-05 -0.00291314 -0.000102439
 -1.85594e-05 -0.0034285 -1.8556e-05
 -3.39932e-05 -0.00390446 -8.58751e-05
 -1.81203e-05 -0.00407581 -5.66601e-05
 -1.81201e-05 -0.00407581 5.66686e-05
 -3.39947e-05 -0.00390446 8.58654e-05
 -1.85591e-05 -0.0034285 1.856e-05
 -1.92163e-05 -0.00291314 0.000102439
 -8.36685e-05 -0.00347085 -9.62619e-05
 -8.58709e-05 -0.00390446 -3.39977e-05
 -8.05323e-05 -0.00433149 -8.05355e-05
 -8.07045e-05 -0.00445917 -4.64914e-05
 -8.07054e-05 -0.00445917 4.65014e-05
 -8.0532e-05 -0.00433149 8.05293e-05
 -8.58693e-05 -0.00390446 3.3997e-05
 -8.36628e-05 -0.00347085 9.62607e-05
 -5.66078e-05 -0.00375683 -0.000105921
 -5.66629e-05 -0.00407581 -1.81038e-05
 -4.64938e-05 -0.00445917 -8.07031e-05
 -5.74635e-05 -0.00496293 -5.74655e-05
 -5.74635e-05 -0.00496293 5.74733e-05
 -4.64933e-05 -0.00445917 8.06923e-05
 -5.66632e-05 -0.00407581 1.81095e-05
 -5.66123e-05 -0.00375683 0.00010592
 5.66109e-05 -0.00375683 -0.000105921
 5.66647e-05 -0.00407581 -1.81041e-05
 4.64955e-05 -0.00445917 -8.07033e-05
 5.74637e-05 -0.00496293 -5.74653e-05
 5.74637e-05 -0.00496293 5.74733e-05
 4.64946e-05 -0.00445917 8.06929e-05
 5.66648e-05 -0.00407581 1.81095e-05
 5.66143e-05 -0.00375683 0.00010592
 8.36663e-05 -0.00347085 -9.62606e-05
 8.58703e-05 -0.00390446 -3.39991e-05
 8.05305e-05 -0.00433149 -8.05367e-05
 8.07072e-05 -0.00445917 -4.64906e-05
 8.07083e-05 -0.00445917 4.65005e-05
 8.05308e-05 -0.00433149 8.05305e-05
 8.58701e-05 -0.00390446 3.39982e-05
 8.36629e-05 -0.00347085 9.62597e-05
 1.92209e-05 -0.00291314 -0.000102438
 1.8559e-05 -0.0034285 -1.85585e-05
 3.3996e-05 -0.00390446 -8.58748e-05
 1.8118e-05 -0.00407581 -5.66601e-05
 1.81177e-05 -0.00407581 5.6667e-05
 3.39981e-05 -0.00390446 8.58664e-05
 1.85586e-05 -0.0034285 1.85626e-05
 1.92141e-05 -0.00291314 0.000102437
 0.000101898 -0.00260488 -0.000101901
 0.000102437 -0.00291314 -1.92188e-05
 9.62632e-05 -0.00347085 -8.36687e-05
 0.000105911 -0.00375683 -5.66066e-05
 0.000105911 -0.00375683 5.66121e-05
 9.62624e-05 -0.00347085 8.366e-05
 0.000102438 -0.00291314 1.92247e-05
 0.000101904 -0.00260488 0.000101899
 2.87668e-05 0.000848019 2.87649e-05
 3.76636e-05 0.00083823 -6.66556e-06
 4.06918e-05 0.00144723 -2.85869e-05
 3.09648e-05 0.00150425 5.49137e-05
 3.09647e-05 0.00150425 -5.49139e-05
 4.06917e-05 0.00144723 2.85887e-05
 3.76641e-05 0.00083823 6.66892e-06
 2.8767e-05 0.00084802 -2.87693e-05
 -6.66948e-06 0.00083823 3.76635e-05
 -2.07668e-05 0.000952331 -2.07648e-05
 -3.12982e-05 0.00145135 -2.90505e-05
 -1.16182e-05 0.0017621 5.46883e-05
 -1.1618e-05 0.0017621 -5.46881e-05
 -3.12978e-05 0.00145135 2.9051e-05
 -2.07688e-05 0.000952331 2.07665e-05
 -6.67161e-06 0.00083823 -3.76654e-05
 -2.85866e-05 0.00144723 4.0694e-05
 -2.90491e-05 0.00145135 -3.12999e-05
 -4.15367e-05 0.00190328 -4.15378e-05
 -2.53683e-05 0.00240834 3.68364e-05
 -2.53685e-05 0.00240834 -3.68372e-05
 -4.15374e-05 0.00190328 4.15382e-05
 -2.90488e-05 0.00145135 3.12999e-05
 -2.85861e-05 0.00144723 -4.06932e-05
 5.49143e-05 0.00150425 3.09663e-05
 5.46886e-05 0.0017621 -1.16197e-05
 3.6837e-05 0.00240834 -2.53709e-05
 5.59773e-05 0.00219552 5.59807e-05
 5.5977e-05 0.00219552 -5.5979e-05
 3.68365e-05 0.00240834 2.53682e-05
 5.469e-05 0.0017621 1.16194e-05
 5.49168e-05 0.00150425 -3.09644e-05
 -5.49146e-05 0.00150425 3.09657e-05
 -5.46889e-05 0.0017621 -1.16187e-05
 -3.68362e-05 0.00240834 -2.53709e-05
 -5.59776e-05 0.00219552 5.59802e-05
 -5.59772e-05 0.00219552 -5.59786e-05
 -3.68359e-05 0.00240834 2.53684e-05
 -5.469e-05 0.0017621 1.16194e-05
 -5.49167e-05 0.00150425 -3.0965e-05
 2.85873e-05 0.00144723 4.06933e-05
 2.90499e-05 0.00145135 -3.12982e-05
 4.15374e-05 0.00190328 -4.1538e-05
 2.53696e-05 0.00240834 3.68361e-05
 2.53699e-05 0.00240834 -3.68371e-05
 4.15378e-05 0.00190328 4.15383e-05
 2.90493e-05 0.00145135 3.12991e-05
 2.85862e-05 0.00144723 -4.0693e-05
 6.66939e-06 0.000838229 3.76628e-05
 2.07669e-05 0.000952331 -2.07635e-05
 3.12976e-05 0.00145135 -2.90508e-05
 1.16187e-05 0.0017621 5.46895e-05
 1.16187e-05 0.0017621 -5.46886e-05
 3.12991e-05 0.00145135 2.90489e-05
 2.07696e-05 0.00095233 2.07651e-05
 6.67219e-06 0.000838229 -3.76631e-05
 -2.87673e-05 0.000848019 2.87649e-05
 -3.76643e-05 0.000838229 -6.6654e-06
 -4.06924e-05 0.00144723 -2.85873e-05
 -3.09656e-05 0.00150425 5.49161e-05
 -3.09656e-05 0.00150425 -5.49153e-05
 -4.0693e-05 0.00144723 2.85851e-05
 -3.76647e-05 0.000838229 6.6666e-06
 -2.8767e-05 0.000848018 -2.87648e-05
 2.09228e-05 -0.00600528 2.09232e-05
 1.89327e-05 -0.00626179 7.81322e-05
 1.63005e-05 -0.00688776 1.13051e-05
 1.87168e-05 -0.0069325 -7.62212e-08
 1.87168e-05 -0.0069325 7.59864e-08
 1.63003e-05 -0.00688776 -1.13032e-05
 1.89323e-05 -0.00626179 -7.81353e-05
 2.09223e-05 -0.00600528 -2.09233e-05
 7.81293e-05 -0.00626179 1.89331e-05
 7.68148e-05 -0.00697538 7.68191e-05
 6.6375e-05 -0.00767037 1.30588e-05
 7.91001e-05 -0.00742593 -1.39857e-07
 7.9101e-05 -0.00742593 1.39548e-07
 6.63754e-05 -0.00767037 -1.30581e-05
 7.68135e-05 -0.00697538 -7.68207e-05
 7.81263e-05 -0.00626179 -1.89333e-05
 1.13099e-05 -0.00688776 1.63008e-05
 1.30655e-05 -0.00767037 6.638e-05
 2.57666e-05 -0.00824302 2.57587e-05
 1.0026e-05 -0.00792457 2.10022e-05
 1.00253e-05 -0.00792457 -2.10025e-05
 2.57666e-05 -0.00824302 -2.57601e-05
 1.30673e-05 -0.00767037 -6.63791e-05
 1.13135e-05 -0.00688776 -1.63013e-05
 -6.45426e-08 -0.00693249 1.87175e-05
 -1.26254e-07 -0.00742593 7.91019e-05
 2.1017e-05 -0.00792457 1.00217e-05
 -1.63538e-07 -0.00714701 -1.76721e-07
 -1.63895e-07 -0.00714701 1.76307e-07
 2.10174e-05 -0.00792457 -1.00224e-05
 -1.23531e-07 -0.00742593 -7.91015e-05
 -5.9959e-08 -0.0069325 -1.8718e-05
 6.45784e-08 -0.00693249 1.87175e-05
 1.26307e-07 -0.00742593 7.91019e-05
 -2.10168e-05 -0.00792457 1.00218e-05
 1.63797e-07 -0.00714701 -1.76933e-07
 1.64207e-07 -0.00714701 1.7649e-07
 -2.10171e-05 -0.00792457 -1.00219e-05
 1.23595e-07 -0.00742593 -7.91022e-05
 5.98751e-08 -0.00693249 -1.87179e-05
 -1.13096e-05 -0.00688776 1.63009e-05
 -1.3065e-05 -0.00767037 6.63803e-05
 -2.57656e-05 -0.00824302 2.57586e-05
 -1.00249e-05 -0.00792457 2.10011e-05
 -1.00242e-05 -0.00792457 -2.10015e-05
 -2.57653e-05 -0.00824302 -2.57598e-05
 -1.3067e-05 -0.00767037 -6.63795e-05
 -1.13138e-05 -0.00688776 -1.63013e-05
 -7.81296e-05 -0.00626179 1.8933e-05
 -7.68152e-05 -0.00697538 7.68181e-05
 -6.63758e-05 -0.00767037 1.30595e-05
 -7.91009e-05 -0.00742593 -1.41243e-07
 -7.91017e-05 -0.00742593 1.40709e-07
 -6.63763e-05 -0.00767037 -1.30603e-05
 -7.68134e-05 -0.00697538 -7.68177e-05
 -7.81257e-05 -0.00626179 -1.89334e-05
 -2.09227e-05 -0.00600528 2.0923e-05
 -1.89325e-05 -0.00626179 7.81309e-05
 -1.63004e-05 -0.00688776 1.13058e-05
 -1.87166e-05 -0.0069325 -7.80062e-08
 -1.87166e-05 -0.00693249 7.73791e-08
 -1.63001e-05 -0.00688776 -1.1307e-05
 -1.89321e-05 -0.00626179 -7.81299e-05
 -2.09221e-05 -0.00600528 -2.09234e-05
 2.71619e-05 -0.0135716 2.71619e-05
 2.52737e-05 -0.0139786 7.1236e-05
 2.38444e-05 -0.0139646 8.84814e-06
 2.61416e-05 -0.0120786 1.96152e-05
 2.61414e-05 -0.0120786 -1.96153e-05
 2.3844e-05 -0.0139646 -8.84974e-06
 2.52733e-05 -0.0139786 -7.12363e-05
 2.71615e-05 -0.0135716 -2.7162e-05
 7.1237e-05 -0.0139786 2.52727e-05
 7.17019e-05 -0.014432 7.17016e-05
 7.32103e-05 -0.014506 7.94074e-06
 7.09311e-05 -0.0124998 2.06069e-05
 7.0931e-05 -0.0124998 -2.06071e-05
 7.32103e-05 -0.014506 -7.9419e-06
 7.17026e-05 -0.014432 -7.17019e-05
 7.12381e-05 -0.0139786 -2.5273e-05
 8.84896e-06 -0.0139646 2.38447e-05
 7.94126e-06 -0.014506 7.32086e-05
 7.453e-06 -0.0146089 7.45297e-06
 9.88225e-06 -0.0126456 2.27651e-05
 9.88233e-06 -0.0126456 -2.27654e-05
 7.45304e-06 -0.0146089 -7.45364e-06
 7.94084e-06 -0.014506 -7.32089e-05
 8.84827e-06 -0.0139646 -2.38451e-05
 1.96147e-05 -0.0120786 2.61414e-05
 2.06081e-05 -0.0124998 7.09297e-05
 2.27643e-05 -0.0126456 9.88227e-06
 2.06148e-05 -0.0126694 2.06156e-05
 2.06147e-05 -0.0126694 -2.0616e-05
 2.2764e-05 -0.0126456 -9.88271e-06
 2.06075e-05 -0.0124998 -7.093e-05
 1.9614e-05 -0.0120786 -2.61419e-05
 -1.96151e-05 -0.0120786 2.61413e-05
 -2.06085e-05 -0.0124998 7.09296e-05
 -2.27651e-05 -0.0126456 9.88232e-06
 -2.06151e-05 -0.0126694 2.06156e-05
 -2.06148e-05 -0.0126694 -2.0616e-05
 -2.27642e-05 -0.0126456 -9.88286e-06
 -2.06079e-05 -0.0124998 -7.09299e-05
 -1.96144e-05 -0.0120786 -2.61418e-05
 -8.84838e-06 -0.0139646 2.38446e-05
 -7.94059e-06 -0.014506 7.32085e-05
 -7.45214e-06 -0.0146089 7.45323e-06
 -9.88153e-06 -0.0126456 2.27651e-05
 -9.88166e-06 -0.0126456 -2.27656e-05
 -7.45233e-06 -0.0146089 -7.45379e-06
 -7.9403e-06 -0.014506 -7.32088e-05
 -8.84786e-06 -0.0139646 -2.38452e-05
 -7.12371e-05 -0.0139786 2.52724e-05
 -7.1702e-05 -0.014432 7.17016e-05
 -7.321e-05 -0.014506 7.94128e-06
 -7.0931e-05 -0.0124998 2.06068e-05
 -7.09309e-05 -0.0124998 -2.06074e-05
 -7.32102e-05 -0.014506 -7.94155e-06
 -7.17026e-05 -0.014432 -7.17018e-05
 -7.12382e-05 -0.0139786 -2.52729e-05
 -2.71616e-05 -0.0135716 2.71614e-05
 -2.52735e-05 -0.0139786 7.1236e-05
 -2.38444e-05 -0.0139646 8.84885e-06
 -2.61416e-05 -0.0120786 1.96154e-05
 -2.61414e-05 -0.0120786 -1.9616e-05
 -2.38441e-05 -0.0139646 -8.84882e-06
 -2.52732e-05 -0.0139786 -7.12363e-05
 -2.71613e-05 -0.0135716 -2.7162e-05
 5.2492e-05 -0.0020755 5.24921e-05
 5.22635e-05 -0.00223823 4.5914e-05
 5.64548e-05 -0.00272762 5.26772e-05
 5.17074e-05 -0.00345403 1.63542e-05
 5.17075e-05 -0.00345403 -1.63548e-05
 5.64548e-05 -0.00272762 -5.26778e-05
 5.22636e-05 -0.00223823 -4.59139e-05
 5.24917e-05 -0.0020755 -5.24924e-05
 4.5913e-05 -0.00223823 5.22639e-05
 4.47538e-05 -0.00301354 4.47558e-05
 4.38585e-05 -0.00379486 5.04814e-05
 4.65207e-05 -0.00309799 1.62438e-05
 4.6521e-05 -0.00309799 -1.62443e-05
 4.38589e-05 -0.00379486 -5.04819e-05
 4.47534e-05 -0.00301354 -4.47557e-05
 4.59122e-05 -0.00223823 -5.22641e-05
 5.26775e-05 -0.00272762 5.64553e-05
 5.04818e-05 -0.00379486 4.38622e-05
 4.37771e-05 -0.00407873 4.37767e-05
 5.09377e-05 -0.00336419 1.46051e-05
 5.09377e-05 -0.00336419 -1.46059e-05
 4.37769e-05 -0.00407873 -4.37773e-05
 5.04814e-05 -0.00379486 -4.38616e-05
 5.26771e-05 -0.00272762 -5.64553e-05
 1.63513e-05 -0.00345403 5.17081e-05
 1.62387e-05 -0.003098 4.65234e-05
 1.45905e-05 -0.00336419 5.09376e-05
 1.46102e-05 -0.00369664 1.46236e-05
 1.46118e-05 -0.00369664 -1.46242e-05
 1.45937e-05 -0.00336419 -5.09382e-05
 1.62403e-05 -0.003098 -4.6523e-05
 1.63513e-05 -0.00345403 -5.17082e-05
 -1.63513e-05 -0.00345403 5.1708e-05
 -1.62387e-05 -0.003098 4.65229e-05
 -1.45905e-05 -0.00336419 5.09376e-05
 -1.46101e-05 -0.00369664 1.46214e-05
 -1.46118e-05 -0.00369664 -1.46221e-05
 -1.45936e-05 -0.00336418 -5.09382e-05
 -1.62403e-05 -0.00309799 -4.65228e-05
 -1.63514e-05 -0.00345403 -5.17082e-05
 -5.26775e-05 -0.00272762 5.6455e-05
 -5.04818e-05 -0.00379486 4.38614e-05
 -4.37772e-05 -0.00407873 4.3777e-05
 -5.09378e-05 -0.00336419 1.46017e-05
 -5.09377e-05 -0.00336419 -1.46023e-05
 -4.37768e-05 -0.00407873 -4.37776e-05
 -5.04813e-05 -0.00379486 -4.38616e-05
 -5.26771e-05 -0.00272762 -5.6455e-05
 -4.59129e-05 -0.00223823 5.2264e-05
 -4.47536e-05 -0.00301354 4.47557e-05
 -4.38582e-05 -0.00379486 5.04816e-05
 -4.65204e-05 -0.003098 1.62453e-05
 -4.65207e-05 -0.003098 -1.62457e-05
 -4.38588e-05 -0.00379486 -5.04819e-05
 -4.47535e-05 -0.00301354 -4.47563e-05
 -4.59125e-05 -0.00223823 -5.2264e-05
 -5.24919e-05 -0.0020755 5.24924e-05
 -5.22634e-05 -0.00223823 4.59143e-05
 -5.64547e-05 -0.00272762 5.26776e-05
 -5.17074e-05 -0.00345403 1.63591e-05
 -5.17074e-05 -0.00345403 -1.63591e-05
 -5.64548e-05 -0.00272762 -5.26777e-05
 -5.22636e-05 -0.00223823 -4.59151e-05
 -5.24917e-05 -0.0020755 -5.24924e-05
 8.03639e-05 -0.00218398 8.03642e-05
 7.99826e-05 -0.00209215 2.87584e-05
 8.05297e-05 -0.00217158 -4.05921e-05
 7.87426e-05 -0.000728915 -2.61403e-05
 7.87426e-05 -0.000728915 2.61401e-05
 8.05295e-05 -0.00217158 4.05938e-05
 7.99824e-05 -0.00209215 -2.87606e-05
 8.03636e-05 -0.00218398 -8.03643e-05
 2.87588e-05 -0.00209215 7.99829e-05
 2.94799e-05 -0.00172477 2.94802e-05
 2.54711e-05 -0.00169682 -3.76869e-05
 2.60749e-05 -0.00171593 -2.88389e-05
 2.60751e-05 -0.00171593 2.88389e-05
 2.54718e-05 -0.00169682 3.76885e-05
 2.94811e-05 -0.00172477 -2.9482e-05
 2.87599e-05 -0.00209215 -7.99831e-05
 -4.05925e-05 -0.00217158 8.05298e-05
 -3.76872e-05 -0.00169682 2.5471e-05
 -3.33908e-05 -0.00197379 -3.33902e-05
 -3.47326e-05 -0.00222212 -2.82628e-05
 -3.47327e-05 -0.00222212 2.82627e-05
 -3.33911e-05 -0.00197379 3.33919e-05
 -3.76879e-05 -0.00169682 -2.54728e-05
 -4.05934e-05 -0.00217158 -8.05299e-05
 -2.614e-05 -0.000728911 7.87426e-05
 -2.88379e-05 -0.00171593 2.60753e-05
 -2.82618e-05 -0.00222212 -3.47327e-05
 -2.71184e-05 0.0023646 -2.71195e-05
 -2.71185e-05 0.0023646 2.71192e-05
 -2.82622e-05 -0.00222212 3.47339e-05
 -2.88389e-05 -0.00171593 -2.60767e-05
 -2.6141e-05 -0.000728912 -7.87427e-05
 2.61396e-05 -0.000728911 7.87425e-05
 2.88375e-05 -0.00171593 2.60754e-05
 2.82615e-05 -0.00222212 -3.47329e-05
 2.71182e-05 0.0023646 -2.71196e-05
 2.71183e-05 0.0023646 2.71192e-05
 2.82618e-05 -0.00222212 3.47337e-05
 2.88386e-05 -0.00171593 -2.60765e-05
 2.61408e-05 -0.000728913 -7.87428e-05
 4.05904e-05 -0.00217158 8.05297e-05
 3.7685e-05 -0.00169682 2.54714e-05
 3.33896e-05 -0.00197379 -3.33906e-05
 3.47315e-05 -0.00222212 -2.82632e-05
 3.47314e-05 -0.00222212 2.82627e-05
 3.33896e-05 -0.00197379 3.33915e-05
 3.7686e-05 -0.00169682 -2.54727e-05
 4.05925e-05 -0.00217158 -8.053e-05
 -2.87562e-05 -0.00209215 7.99828e-05
 -2.94771e-05 -0.00172477 2.948e-05
 -2.54694e-05 -0.00169682 -3.7687e-05
 -2.60735e-05 -0.00171593 -2.88394e-05
 -2.60734e-05 -0.00171593 2.88392e-05
 -2.54697e-05 -0.00169682 3.76892e-05
 -2.94789e-05 -0.00172477 -2.94829e-05
 -2.87592e-05 -0.00209215 -7.99828e-05
 -8.03639e-05 -0.00218398 8.03638e-05
 -7.99828e-05 -0.00209215 2.87579e-05
 -8.05297e-05 -0.00217158 -4.0592e-05
 -7.87425e-05 -0.000728909 -2.61402e-05
 -7.87424e-05 -0.00072891 2.614e-05
 -8.05295e-05 -0.00217158 4.05934e-05
 -7.99825e-05 -0.00209215 -2.87596e-05
 -8.03636e-05 -0.00218398 -8.03641e-05
 7.49136e-05 0.00215715 7.49109e-05
 7.36805e-05 0.00125682 3.37327e-05
 7.20229e-05 0.000689018 1.67575e-05
 7.26312e-05 0.00409268 3.17106e-05
 7.26311e-05 0.00409268 -3.17108e-05
 7.20226e-05 0.000689018 -1.67577e-05
 7.36795e-05 0.00125681 -3.37329e-05
 7.49123e-05 0.00215715 -7.49112e-05
 3.37397e-05 0.00125682 7.36784e-05
 2.7353e-05 8.12854e-05 2.73498e-05
 2.72571e-05 -0.000695125 1.49475e-05
 3.23741e-05 0.00294099 3.81735e-05
 3.23739e-05 0.00294099 -3.81734e-05
 2.72567e-05 -0.000695126 -1.49477e-05
 2.73517e-05 8.12843e-05 -2.73499e-05
 3.37371e-05 0.00125682 -7.36786e-05
 1.67587e-05 0.000689021 7.20216e-05
 1.49535e-05 -0.000695124 2.72603e-05
 2.91911e-06 -0.00124348 2.91046e-06
 1.48568e-05 0.00188464 4.8778e-05
 1.48567e-05 0.00188464 -4.8778e-05
 2.91922e-06 -0.00124348 -2.91108e-06
 1.49512e-05 -0.000695125 -2.726e-05
 1.67583e-05 0.000689019 -7.20218e-05
 3.17041e-05 0.00409268 7.26302e-05
 3.81657e-05 0.00294099 3.237e-05
 4.87739e-05 0.00188464 1.48563e-05
 3.31608e-05 0.00379496 3.31641e-05
 3.31611e-05 0.00379496 -3.31642e-05
 4.87741e-05 0.00188464 -1.48563e-05
 3.81687e-05 0.00294099 -3.23704e-05
 3.17064e-05 0.00409268 -7.26304e-05
 -3.17038e-05 0.00409268 7.263e-05
 -3.81654e-05 0.00294099 3.23695e-05
 -4.8773e-05 0.00188463 1.48562e-05
 -3.31601e-05 0.00379496 3.31645e-05
 -3.31605e-05 0.00379496 -3.31653e-05
 -4.87733e-05 0.00188463 -1.48562e-05
 -3.81681e-05 0.00294099 -3.23694e-05
 -3.1706e-05 0.00409268 -7.26303e-05
 -1.67587e-05 0.00068902 7.20215e-05
 -1.49537e-05 -0.000695126 2.72595e-05
 -2.92065e-06 -0.00124348 2.91127e-06
 -1.48565e-05 0.00188463 4.87777e-05
 -1.48564e-05 0.00188463 -4.87773e-05
 -2.92033e-06 -0.00124348 -2.91253e-06
 -1.49515e-05 -0.000695127 -2.72596e-05
 -1.67583e-05 0.000689017 -7.20218e-05
 -3.374e-05 0.00125682 7.36786e-05
 -2.73531e-05 8.12859e-05 2.73506e-05
 -2.72564e-05 -0.000695125 1.49497e-05
 -3.23749e-05 0.00294099 3.81705e-05
 -3.23746e-05 0.00294099 -3.81716e-05
 -2.72561e-05 -0.000695125 -1.49492e-05
 -2.73519e-05 8.12843e-05 -2.73508e-05
 -3.37374e-05 0.00125682 -7.3679e-05
 -7.49134e-05 0.00215716 7.49116e-05
 -7.36802e-05 0.00125682 3.37358e-05
 -7.20225e-05 0.000689022 1.67576e-05
 -7.26309e-05 0.00409268 3.17078e-05
 -7.26308e-05 0.00409268 -3.17083e-05
 -7.20222e-05 0.000689021 -1.67583e-05
 -7.36793e-05 0.00125682 -3.37352e-05
 -7.49121e-05 0.00215716 -7.4912e-05
 4.53006e-05 0.00760986 4.52979e-05
 4.4453e-05 0.00723413 2.38973e-05
 4.42688e-05 0.00644282 5.24184e-05
 4.45616e-05 0.0064565 1.80041e-06
 4.45667e-05 0.0064565 -1.8007e-06
 4.42682e-05 0.00644283 -5.24185e-05
 4.44543e-05 0.00723414 -2.38977e-05
 4.52995e-05 0.00760987 -4.52983e-05
 2.38691e-05 0.00723413 4.4453e-05
 2.44728e-05 0.00631371 2.44889e-05
 2.856e-05 0.0051582 5.04719e-05
 2.23966e-05 0.00650029 2.42606e-06
 2.24122e-05 0.00650029 -2.42622e-06
 2.85667e-05 0.0051582 -5.04722e-05
 2.44749e-05 0.00631371 -2.44891e-05
 2.38807e-05 0.00723414 -4.44533e-05
 5.24403e-05 0.00644282 4.42673e-05
 5.04844e-05 0.0051582 2.85791e-05
 4.53892e-05 0.00426007 4.53727e-05
 5.33161e-05 0.0058167 3.85541e-06
 5.32969e-05 0.0058167 -3.85544e-06
 4.53835e-05 0.00426007 -4.53734e-05
 5.04832e-05 0.0051582 -2.8579e-05
 5.24317e-05 0.00644283 -4.42675e-05
 1.80543e-06 0.00645649 4.45657e-05
 2.42999e-06 0.00650029 2.24184e-05
 3.85749e-06 0.0058167 5.32917e-05
 2.61883e-06 0.0041387 2.61034e-06
 2.61155e-06 0.0041387 -2.61033e-06
 3.85711e-06 0.0058167 -5.32925e-05
 2.42845e-06 0.00650029 -2.24184e-05
 1.80313e-06 0.0064565 -4.45658e-05
 -1.80528e-06 0.00645649 4.45656e-05
 -2.42978e-06 0.00650029 2.24183e-05
 -3.85718e-06 0.0058167 5.32918e-05
 -2.61845e-06 0.0041387 2.61028e-06
 -2.61118e-06 0.00413871 -2.61036e-06
 -3.85676e-06 0.0058167 -5.32928e-05
 -2.42826e-06 0.00650029 -2.24182e-05
 -1.80301e-06 0.0064565 -4.45659e-05
 -5.24417e-05 0.00644282 4.42674e-05
 -5.04856e-05 0.0051582 2.85761e-05
 -4.53904e-05 0.00426007 4.53753e-05
 -5.33172e-05 0.0058167 3.85554e-06
 -5.32978e-05 0.0058167 -3.85584e-06
 -4.53835e-05 0.00426007 -4.53754e-05
 -5.04836e-05 0.0051582 -2.85766e-05
 -5.24317e-05 0.00644283 -4.42678e-05
 -2.3867e-05 0.00723413 4.44534e-05
 -2.44711e-05 0.00631371 2.4481e-05
 -2.85584e-05 0.0051582 5.04786e-05
 -2.23952e-05 0.00650029 2.42679e-06
 -2.24111e-05 0.00650029 -2.42731e-06
 -2.85664e-05 0.0051582 -5.04771e-05
 -2.44743e-05 0.00631371 -2.44826e-05
 -2.38804e-05 0.00723414 -4.4454e-05
 -4.53006e-05 0.00760986 4.52985e-05
 -4.44528e-05 0.00723413 2.3886e-05
 -4.42684e-05 0.00644282 5.24278e-05
 -4.45611e-05 0.00645649 1.80176e-06
 -4.45662e-05 0.00645649 -1.80242e-06
 -4.42679e-05 0.00644283 -5.2425e-05
 -4.44539e-05 0.00723413 -2.38885e-05
 -4.52991e-05 0.00760986 -4.52993e-05
 2.34299e-05 -7.01799e-05 2.34286e-05
 2.25378e-05 0.000265155 3.90685e-05
 2.84363e-05 -6.34276e-05 1.23976e-05
 2.50656e-05 -0.00191715 1.86732e-05
 2.50658e-05 -0.00191715 -1.86738e-05
 2.84352e-05 -6.34274e-05 -1.23977e-05
 2.25377e-05 0.000265155 -3.90686e-05
 2.34302e-05 -7.01778e-05 -2.3429e-05
 3.90667e-05 0.000265155 2.25378e-05
 3.85028e-05 0.000590817 3.85031e-05
 3.20403e-05 0.000480386 1.39881e-05
 3.81409e-05 -0.00146389 1.54991e-05
 3.81405e-05 -0.00146389 -1.54998e-05
 3.2041e-05 0.000480386 -1.3988e-05
 3.8503e-05 0.000590816 -3.85033e-05
 3.90674e-05 0.000265157 -2.25382e-05
 1.2403e-05 -6.34275e-05 2.84359e-05
 1.39927e-05 0.000480387 3.20401e-05
 1.15069e-05 0.000289802 1.15046e-05
 1.38812e-05 -0.0014776 1.64295e-05
 1.38814e-05 -0.0014776 -1.64299e-05
 1.15065e-05 0.000289801 -1.15046e-05