<?xml version="1.0"?>
<!-- time 75.7425-->
<VTKFile type="UnstructuredGrid" version="0.1" byte_order="LittleEndian">
<UnstructuredGrid>
<Piece NumberOfPoints="7680" NumberOfCells="0">
<Points>
  <DataArray type="Float32" Name="Position" NumberOfComponents="3" format="ascii">
	-350 2049.59 -350
	-350 2049.54 -250
	-350 2049.64 -150
	-350 2049.62 -50.0001
	-350 2049.62 50.0001
	-350 2049.64 150
	-350 2049.54 250
	-350 2049.59 350
	-250 2049.54 -350
	-250 2049.61 -250
	-250 2049.63 -150
	-250 2049.59 -50.0002
	-250 2049.59 50.0002
	-250 2049.63 150
	-250 2049.61 250
	-250 2049.54 350
	-150 2049.64 -350
	-150 2049.63 -250
	-150 2049.53 -150
	-150 2049.51 -50
	-150 2049.51 50
	-150 2049.53 150
	-150 2049.63 250
	-150 2049.64 350
	-50.0001 2049.62 -350
	-50.0002 2049.59 -250
	-50 2049.51 -150
	-50 2049.43 -50
	-50 2049.43 50
	-50 2049.51 150
	-50.0002 2049.59 250
	-50.0001 2049.62 350
	50.0001 2049.62 -350
	50.0002 2049.59 -250
	50 2049.51 -150
	50 2049.43 -50
	50 2049.43 50
	50 2049.51 150
	50.0002 2049.59 250
	50.0001 2049.62 350
	150 2049.64 -350
	150 2049.63 -250
	150 2049.53 -150
	150 2049.51 -50
	150 2049.51 50
	150 2049.53 150
	150 2049.63 250
	150 2049.64 350
	250 2049.54 -350
	250 2049.61 -250
	250 2049.63 -150
	250 2049.59 -50.0002
	250 2049.59 50.0002
	250 2049.63 150
	250 2049.61 250
	250 2049.54 350
	350 2049.59 -350
	350 2049.54 -250
	350 2049.64 -150
	350 2049.62 -50.0001
	350 2049.62 50.0001
	350 2049.64 150
	350 2049.54 250
	350 2049.59 350
	-350 2149.61 -350
	-350 2149.66 -250
	-350 2149.66 -150
	-350 2149.63 -50
	-350 2149.63 50
	-350 2149.66 150
	-350 2149.66 250
	-350 2149.61 350
	-250 2149.66 -350
	-250 2149.63 -250
	-250 2149.64 -150
	-250 2149.65 -50
	-250 2149.65 50
	-250 2149.64 150
	-250 2149.63 250
	-250 2149.66 350
	-150 2149.66 -350
	-150 2149.64 -250
	-150 2149.57 -150
	-150 2149.56 -50
	-150 2149.56 50
	-150 2149.57 150
	-150 2149.64 250
	-150 2149.66 350
	-50 2149.63 -350
	-50 2149.65 -250
	-50 2149.56 -150
	-50 2149.55 -50
	-50 2149.55 50
	-50 2149.56 150
	-50 2149.65 250
	-50 2149.63 350
	50 2149.63 -350
	50 2149.65 -250
	50 2149.56 -150
	50 2149.55 -50
	50 2149.55 50
	50 2149.56 150
	50 2149.65 250
	50 2149.63 350
	150 2149.66 -350
	150 2149.64 -250
	150 2149.57 -150
	150 2149.56 -50
	150 2149.56 50
	150 2149.57 150
	150 2149.64 250
	150 2149.66 350
	250 2149.66 -350
	250 2149.63 -250
	250 2149.64 -150
	250 2149.65 -50
	250 2149.65 50
	250 2149.64 150
	250 2149.63 250
	250 2149.66 350
	350 2149.61 -350
	350 2149.66 -250
	350 2149.66 -150
	350 2149.63 -50
	350 2149.63 50
	350 2149.66 150
	350 2149.66 250
	350 2149.61 350
	-350 2249.62 -350
	-350 2249.65 -250
	-350 2249.66 -150
	-350 2249.65 -50
	-350 2249.65 50
	-350 2249.66 150
	-350 2249.65 250
	-350 2249.62 350
	-250 2249.65 -350
	-250 2249.63 -250
	-250 2249.65 -150
	-250 2249.64 -50
	-250 2249.64 50
	-250 2249.65 150
	-250 2249.63 250
	-250 2249.65 350
	-150 2249.66 -350
	-150 2249.65 -250
	-150 2249.63 -150
	-150 2249.61 -50
	-150 2249.61 50
	-150 2249.63 150
	-150 2249.65 250
	-150 2249.66 350
	-50 2249.65 -350
	-50 2249.64 -250
	-50 2249.61 -150
	-50 2249.61 -50
	-50 2249.61 50
	-50 2249.61 150
	-50 2249.64 250
	-50 2249.65 350
	50 2249.65 -350
	50 2249.64 -250
	50 2249.61 -150
	50 2249.61 -50
	50 2249.61 50
	50 2249.61 150
	50 2249.64 250
	50 2249.65 350
	150 2249.66 -350
	150 2249.65 -250
	150 2249.63 -150
	150 2249.61 -50
	150 2249.61 50
	150 2249.63 150
	150 2249.65 250
	150 2249.66 350
	250 2249.65 -350
	250 2249.63 -250
	250 2249.65 -150
	250 2249.64 -50
	250 2249.64 50
	250 2249.65 150
	250 2249.63 250
	250 2249.65 350
	350 2249.62 -350
	350 2249.65 -250
	350 2249.66 -150
	350 2249.65 -50
	350 2249.65 50
	350 2249.66 150
	350 2249.65 250
	350 2249.62 350
	-350 2349.65 -350
	-350 2349.66 -250
	-350 2349.66 -150
	-350 2349.66 -50
	-350 2349.66 50
	-350 2349.66 150
	-350 2349.66 250
	-350 2349.65 350
	-250 2349.66 -350
	-250 2349.64 -250
	-250 2349.66 -150
	-250 2349.64 -50.0001
	-250 2349.64 50.0001
	-250 2349.66 150
	-250 2349.64 250
	-250 2349.66 350
	-150 2349.66 -350
	-150 2349.66 -250
	-150 2349.64 -150
	-150 2349.63 -50
	-150 2349.63 50
	-150 2349.64 150
	-150 2349.66 250
	-150 2349.66 350
	-50 2349.66 -350
	-50.0001 2349.64 -250
	-50 2349.63 -150
	-50.0001 2349.62 -50.0001
	-50.0001 2349.62 50.0001
	-50 2349.63 150
	-50.0001 2349.64 250
	-50 2349.66 350
	50 2349.66 -350
	50.0001 2349.64 -250
	50 2349.63 -150
	50.0001 2349.62 -50.0001
	50.0001 2349.62 50.0001
	50 2349.63 150
	50.0001 2349.64 250
	50 2349.66 350
	150 2349.66 -350
	150 2349.66 -250
	150 2349.64 -150
	150 2349.63 -50
	150 2349.63 50
	150 2349.64 150
	150 2349.66 250
	150 2349.66 350
	250 2349.66 -350
	250 2349.64 -250
	250 2349.66 -150
	250 2349.64 -50.0001
	250 2349.64 50.0001
	250 2349.66 150
	250 2349.64 250
	250 2349.66 350
	350 2349.65 -350
	350 2349.66 -250
	350 2349.66 -150
	350 2349.66 -50
	350 2349.66 50
	350 2349.66 150
	350 2349.66 250
	350 2349.65 350
	-350 2449.67 -350
	-350 2449.67 -250
	-350 2449.66 -150
	-350 2449.65 -50
	-350 2449.65 50
	-350 2449.66 150
	-350 2449.67 250
	-350 2449.67 350
	-250 2449.67 -350
	-250 2449.64 -250
	-250 2449.66 -150
	-250 2449.64 -50.0003
	-250 2449.64 50.0003
	-250 2449.66 150
	-250 2449.64 250
	-250 2449.67 350
	-150 2449.66 -350
	-150 2449.66 -250
	-150 2449.64 -150
	-150 2449.63 -50.0001
	-150 2449.63 50.0001
	-150 2449.64 150
	-150 2449.66 250
	-150 2449.66 350
	-50 2449.65 -350
	-50.0003 2449.64 -250
	-50.0001 2449.63 -150
	-50.0001 2449.64 -50.0001
	-50.0001 2449.64 50.0001
	-50.0001 2449.63 150
	-50.0003 2449.64 250
	-50 2449.65 350
	50 2449.65 -350
	50.0003 2449.64 -250
	50.0001 2449.63 -150
	50.0001 2449.64 -50.0001
	50.0001 2449.64 50.0001
	50.0001 2449.63 150
	50.0003 2449.64 250
	50 2449.65 350
	150 2449.66 -350
	150 2449.66 -250
	150 2449.64 -150
	150 2449.63 -50.0001
	150 2449.63 50.0001
	150 2449.64 150
	150 2449.66 250
	150 2449.66 350
	250 2449.67 -350
	250 2449.64 -250
	250 2449.66 -150
	250 2449.64 -50.0003
	250 2449.64 50.0003
	250 2449.66 150
	250 2449.64 250
	250 2449.67 350
	350 2449.67 -350
	350 2449.67 -250
	350 2449.66 -150
	350 2449.65 -50
	350 2449.65 50
	350 2449.66 150
	350 2449.67 250
	350 2449.67 350
	-350 2549.67 -350
	-350 2549.67 -250
	-350 2549.66 -150
	-350.001 2549.66 -50.0001
	-350.001 2549.66 50.0001
	-350 2549.66 150
	-350 2549.67 250
	-350 2549.67 350
	-250 2549.67 -350
	-250 2549.66 -250
	-250 2549.66 -150
	-250 2549.64 -50.0002
	-250 2549.64 50.0002
	-250 2549.66 150
	-250 2549.66 250
	-250 2549.67 350
	-150 2549.66 -350
	-150 2549.66 -250
	-150 2549.65 -150
	-150 2549.64 -50.0001
	-150 2549.64 50.0001
	-150 2549.65 150
	-150 2549.66 250
	-150 2549.66 350
	-50.0001 2549.66 -350.001
	-50.0002 2549.64 -250
	-50.0001 2549.64 -150
	-50.0001 2549.64 -50.0001
	-50.0001 2549.64 50.0001
	-50.0001 2549.64 150
	-50.0002 2549.64 250
	-50.0001 2549.66 350.001
	50.0001 2549.66 -350.001
	50.0002 2549.64 -250
	50.0001 2549.64 -150
	50.0001 2549.64 -50.0001
	50.0001 2549.64 50.0001
	50.0001 2549.64 150
	50.0002 2549.64 250
	50.0001 2549.66 350.001
	150 2549.66 -350
	150 2549.66 -250
	150 2549.65 -150
	150 2549.64 -50.0001
	150 2549.64 50.0001
	150 2549.65 150
	150 2549.66 250
	150 2549.66 350
	250 2549.67 -350
	250 2549.66 -250
	250 2549.66 -150
	250 2549.64 -50.0002
	250 2549.64 50.0002
	250 2549.66 150
	250 2549.66 250
	250 2549.67 350
	350 2549.67 -350
	350 2549.67 -250
	350 2549.66 -150
	350.001 2549.66 -50.0001
	350.001 2549.66 50.0001
	350 2549.66 150
	350 2549.67 250
	350 2549.67 350
	-350 2649.69 -350
	-350 2649.66 -250
	-350 2649.66 -150
	-350 2649.66 -50
	-350 2649.66 50
	-350 2649.66 150
	-350 2649.66 250
	-350 2649.69 350
	-250 2649.66 -350
	-250 2649.67 -250
	-250 2649.66 -150
	-250 2649.65 -50
	-250 2649.65 50
	-250 2649.66 150
	-250 2649.67 250
	-250 2649.66 350
	-150 2649.66 -350
	-150 2649.66 -250
	-150 2649.66 -150
	-150 2649.65 -50
	-150 2649.65 50
	-150 2649.66 150
	-150 2649.66 250
	-150 2649.66 350
	-50 2649.66 -350
	-50 2649.65 -250
	-50.0001 2649.65 -150
	-50 2649.64 -50
	-50 2649.64 50
	-50.0001 2649.65 150
	-50 2649.65 250
	-50 2649.66 350
	50 2649.66 -350
	50 2649.65 -250
	50.0001 2649.65 -150
	50 2649.64 -50
	50 2649.64 50
	50.0001 2649.65 150
	50 2649.65 250
	50 2649.66 350
	150 2649.66 -350
	150 2649.66 -250
	150 2649.66 -150
	150 2649.65 -50
	150 2649.65 50
	150 2649.66 150
	150 2649.66 250
	150 2649.66 350
	250 2649.66 -350
	250 2649.67 -250
	250 2649.66 -150
	250 2649.65 -50
	250 2649.65 50
	250 2649.66 150
	250 2649.67 250
	250 2649.66 350
	350 2649.69 -350
	350 2649.66 -250
	350 2649.66 -150
	350 2649.66 -50
	350 2649.66 50
	350 2649.66 150
	350 2649.66 250
	350 2649.69 350
	-350 2749.69 -350
	-350 2749.67 -250
	-350 2749.66 -150
	-350 2749.66 -50.0001
	-350 2749.66 50.0001
	-350 2749.66 150
	-350 2749.67 250
	-350 2749.69 350
	-250 2749.67 -350
	-250 2749.67 -250
	-250 2749.66 -150
	-250 2749.64 -50.0002
	-250 2749.64 50.0002
	-250 2749.66 150
	-250 2749.67 250
	-250 2749.67 350
	-150 2749.66 -350
	-150 2749.66 -250
	-150 2749.66 -150
	-150 2749.65 -50.0001
	-150 2749.65 50.0001
	-150 2749.66 150
	-150 2749.66 250
	-150 2749.66 350
	-50.0001 2749.66 -350
	-50.0002 2749.64 -250
	-50.0001 2749.65 -150
	-50.0002 2749.64 -50.0002
	-50.0002 2749.64 50.0002
	-50.0001 2749.65 150
	-50.0002 2749.64 250
	-50.0001 2749.66 350
	50.0001 2749.66 -350
	50.0002 2749.64 -250
	50.0001 2749.65 -150
	50.0002 2749.64 -50.0002
	50.0002 2749.64 50.0002
	50.0001 2749.65 150
	50.0002 2749.64 250
	50.0001 2749.66 350
	150 2749.66 -350
	150 2749.66 -250
	150 2749.66 -150
	150 2749.65 -50.0001
	150 2749.65 50.0001
	150 2749.66 150
	150 2749.66 250
	150 2749.66 350
	250 2749.67 -350
	250 2749.67 -250
	250 2749.66 -150
	250 2749.64 -50.0002
	250 2749.64 50.0002
	250 2749.66 150
	250 2749.67 250
	250 2749.67 350
	350 2749.69 -350
	350 2749.67 -250
	350 2749.66 -150
	350 2749.66 -50.0001
	350 2749.66 50.0001
	350 2749.66 150
	350 2749.67 250
	350 2749.69 350
	-350 2849.69 -350
	-350 2849.67 -250
	-350 2849.66 -150
	-350 2849.66 -50.0001
	-350 2849.66 50.0001
[...]
<PointData  Vectors="vector">
  <DataArray type="Float32" Name="Velocity" NumberOfComponents="3" format="ascii">
 -2.12561e-06 -0.000417879 -1.88036e-06
 -1.02575e-05 -0.00794942 7.59742e-06
 -4.70219e-06 -0.00026321 1.79494e-07
 -2.26011e-05 0.00343184 -9.18886e-06
 -2.26131e-05 0.00343168 9.20649e-06
 -4.75455e-06 -0.000263458 -3.16166e-07
 -8.52625e-06 -0.00795035 -7.55302e-06
 -2.1511e-06 -0.000418252 1.75303e-06
 7.83011e-06 -0.00794918 -7.90483e-06
 -9.02463e-06 -0.0010237 -3.04819e-05
 -1.26825e-05 -0.00623723 -1.01156e-06
 2.1388e-06 0.000699072 9.44491e-06
 1.94803e-06 0.000698877 1.92631e-05
 -1.26262e-05 -0.00623804 -6.1612e-06
 -9.14468e-06 -0.00102447 8.77109e-06
 7.9099e-06 -0.00795025 7.91409e-06
 1.16261e-07 -0.000262921 -4.69176e-06
 -1.6686e-05 -0.00623717 -1.05856e-05
 1.98777e-05 -0.00432708 1.74822e-05
 1.49534e-05 0.0105601 6.69223e-06
 1.50475e-05 0.0105599 -6.39145e-06
 1.99002e-05 -0.00432763 -1.88121e-05
 -2.32857e-05 -0.00623841 1.17585e-05
 4.25384e-07 -0.000263558 4.42272e-06
 -8.6947e-06 0.00343254 -2.25248e-05
 6.09073e-06 0.000699705 2.0518e-06
 5.97046e-06 0.0105604 1.49395e-05
 4.44667e-06 0.00764259 4.49405e-06
 4.51207e-06 0.00764238 -4.5707e-06
 5.96972e-06 0.0105598 -1.50382e-05
 1.04808e-05 0.000698872 -2.21979e-06
 -8.84057e-06 0.0034317 2.27918e-05
 9.01291e-06 0.00343271 -2.26063e-05
 -1.53787e-05 0.000699862 2.15081e-06
 -5.9897e-06 0.0105605 1.49737e-05
 -4.50253e-06 0.00764276 4.50181e-06
 -4.65471e-06 0.00764256 -4.57071e-06
 -6.03395e-06 0.01056 -1.49984e-05
 -1.01212e-05 0.000699011 -2.27259e-06
 8.75846e-06 0.00343184 2.2798e-05
 -5.62365e-07 -0.000262187 -4.50784e-06
 1.68939e-05 -0.00623722 -1.07904e-05
 -1.97098e-05 -0.00432657 1.77681e-05
 -1.49758e-05 0.0105605 6.63732e-06
 -1.49676e-05 0.0105603 -6.36105e-06
 -1.98555e-05 -0.00432714 -1.88228e-05
 2.3033e-05 -0.00623818 1.17404e-05
 -2.77804e-07 -0.00026364 4.36311e-06
 -7.8209e-06 -0.00794873 -6.2657e-06
 1.91989e-05 -0.00102321 -3.07962e-05
 1.24376e-05 -0.00623689 -4.34792e-06
 -2.11837e-06 0.000699727 1.10408e-05
 -1.92797e-06 0.000699551 2.06034e-05
 1.27115e-05 -0.00623804 -8.27925e-06
 9.17734e-06 -0.00102381 8.61631e-06
 -7.77195e-06 -0.0079495 9.49732e-06
 2.14311e-06 -0.000416637 -1.94159e-06
 9.10049e-06 -0.00794884 7.95273e-06
 4.7816e-06 -0.000262168 1.03362e-07
 2.2696e-05 0.0034327 -9.19309e-06
 2.27493e-05 0.00343251 9.41052e-06
 4.8346e-06 -0.000263092 -2.46888e-07
 8.57694e-06 -0.00794941 -7.55241e-06
 2.17469e-06 -0.000418153 1.57208e-06
 -2.32231e-05 0.00938313 -2.32888e-05
 -3.20041e-05 0.00408957 -1.73825e-05
 -2.12052e-05 0.00316384 -1.26579e-05
 -2.76141e-05 -0.00180376 6.77947e-06
 -2.76005e-05 -0.0018038 -6.84766e-06
 -2.10805e-05 0.00316398 1.26547e-05
 -3.23032e-05 0.0040969 1.7349e-05
 -2.36647e-05 0.00938199 2.32596e-05
 -1.75018e-05 0.00408931 -3.2388e-05
 -6.10621e-06 -0.0157566 -5.68825e-06
 -3.70559e-05 -0.0126473 -2.53271e-05
 -8.32446e-06 0.0114538 -1.79339e-05
 -8.48077e-06 0.011454 1.68837e-05
 -3.70574e-05 -0.0126047 2.61526e-05
 -6.05473e-06 -0.0157563 5.79015e-06
 -1.7331e-05 0.00409514 3.23942e-05
 -1.26951e-05 0.00316308 -3.54835e-05
 -2.46542e-05 -0.0126471 -3.31684e-05
 6.46546e-06 0.0128585 1.32215e-05
 -3.4643e-05 -0.00179761 5.43916e-05
 -3.42975e-05 -0.00179769 -5.47396e-05
 6.2743e-06 0.0128583 -1.18794e-05
 -2.68619e-05 -0.0126041 3.20802e-05
 -1.28237e-05 0.00316331 3.5486e-05
 7.035e-06 -0.00180326 -2.76475e-05
 -1.85809e-05 0.0114564 -8.55075e-06
 5.08782e-05 -0.0017974 -3.43222e-05
 -1.51388e-05 -0.00270129 -1.51426e-05
 -1.5195e-05 -0.00270138 1.51234e-05
 5.09876e-05 -0.00179774 3.42735e-05
 -1.68186e-05 0.0114546 8.57062e-06
 6.75479e-06 -0.00180427 2.76342e-05
 -6.94399e-06 -0.00180306 -2.7645e-05
 1.46023e-05 0.0114572 -8.51108e-06
 -5.06928e-05 -0.00179723 -3.44284e-05
 1.51244e-05 -0.00270112 -1.51507e-05
 1.52185e-05 -0.00270127 1.50373e-05
 -5.07956e-05 -0.00179768 3.42667e-05
 1.68956e-05 0.0114531 8.80663e-06
 -6.85505e-06 -0.00180427 2.75967e-05
 1.26506e-05 0.00316354 -3.5607e-05
 2.86062e-05 -0.012671 -3.25969e-05
 -6.62131e-06 0.0128589 1.28122e-05
 3.43348e-05 -0.00179722 5.44724e-05
 3.4333e-05 -0.00179742 -5.45563e-05
 -6.37759e-06 0.0128584 -1.16922e-05
 2.66333e-05 -0.0126047 3.11955e-05
 1.29413e-05 0.00316276 3.59763e-05
 1.74319e-05 0.00409694 -3.22374e-05
 5.76588e-06 -0.0157551 -5.69417e-06
 3.75233e-05 -0.0126715 -2.62994e-05
 8.35837e-06 0.0114542 -1.68201e-05
 8.47269e-06 0.0114524 1.68755e-05
 3.76517e-05 -0.0126043 2.6222e-05
 6.59229e-06 -0.015757 5.805e-06
 1.77673e-05 0.0040895 3.21788e-05
 2.32111e-05 0.00938335 -2.30854e-05
 3.23544e-05 0.00409961 -1.72371e-05
 2.07195e-05 0.00316422 -1.24936e-05
 2.7948e-05 -0.00180293 6.85608e-06
 2.76306e-05 -0.00180322 -6.84215e-06
 2.05109e-05 0.00316358 1.25839e-05
 3.20568e-05 0.0040905 1.70668e-05
 2.3369e-05 0.00938303 2.3197e-05
 1.213e-05 -0.0140392 1.23829e-05
 4.36528e-05 -0.00249875 1.20936e-05
 2.33458e-05 -5.6186e-05 4.30008e-05
 3.96637e-05 -0.0137342 -3.35113e-05
 3.96591e-05 -0.0137343 3.33522e-05
 2.33503e-05 -2.91101e-05 -4.32228e-05
 4.36405e-05 -0.00250248 -1.19994e-05
 1.20623e-05 -0.0140284 -1.2164e-05
 1.20667e-05 -0.002499 4.36435e-05
 3.32506e-05 0.00435949 3.32618e-05
 4.49112e-05 -0.00236804 -8.88996e-06
 1.67191e-05 0.0073044 -1.56957e-05
 1.68605e-05 0.00730398 1.56055e-05
 4.49034e-05 -0.00240706 8.96613e-06
 3.32596e-05 0.00435988 -3.32846e-05
 1.20536e-05 -0.00250204 -4.36725e-05
 4.32507e-05 -5.58532e-05 2.3397e-05
 -9.08905e-06 -0.00236769 4.48968e-05
 -3.53546e-05 -0.00305854 -3.51653e-05
 -1.92924e-05 0.001185 4.3521e-06
 -1.92617e-05 0.0011851 -4.01515e-06
 -3.53375e-05 -0.00305837 3.48221e-05
 -9.04777e-06 -0.0024065 -4.49382e-05
 4.32763e-05 -2.99136e-05 -2.34081e-05
 -3.33003e-05 -0.0137379 3.96884e-05
 -1.63245e-05 0.00730604 1.76917e-05
 4.28993e-06 0.001185 -2.01278e-05
 1.47738e-05 -0.00686532 1.47108e-05
 1.46154e-05 -0.00686517 -1.47042e-05
 4.35422e-06 0.00118502 1.96048e-05
 -1.65799e-05 0.00730863 -1.7177e-05
 -3.34058e-05 -0.0137365 -3.9732e-05
 3.32361e-05 -0.0137382 3.96966e-05
 1.63332e-05 0.00730444 1.77786e-05
 -4.28764e-06 0.00118518 -2.03295e-05
 -1.47126e-05 -0.00686503 1.48903e-05
 -1.46519e-05 -0.00686534 -1.47427e-05
 -4.28457e-06 0.00118493 1.96173e-05
 1.66383e-05 0.0073104 -1.71884e-05
 3.34324e-05 -0.0137364 -3.97505e-05
 -4.31539e-05 -3.17806e-05 2.34248e-05
 9.05058e-06 -0.00237192 4.4927e-05
 3.53351e-05 -0.00305821 -3.51346e-05
 1.97673e-05 0.00118528 4.44829e-06
 1.93276e-05 0.0011851 -4.1541e-06
 3.52983e-05 -0.00305872 3.49025e-05
 9.02507e-06 -0.00240701 -4.49728e-05
 -4.32121e-05 -5.40481e-05 -2.34555e-05
 -1.21468e-05 -0.00250136 4.36769e-05
 -3.32397e-05 0.0043604 3.33084e-05
 -4.4864e-05 -0.00237235 -8.86932e-06
 -1.7242e-05 0.00730254 -1.58053e-05
 -1.68518e-05 0.00730522 1.58431e-05
 -4.48686e-05 -0.00240688 8.91755e-06
 -3.32327e-05 0.00435945 -3.33312e-05
 -1.19762e-05 -0.00249973 -4.37473e-05
 -1.20606e-05 -0.0140279 1.22097e-05
 -4.36088e-05 -0.0025023 1.22203e-05
 -2.3342e-05 -3.0813e-05 4.30664e-05
 -3.96278e-05 -0.0137354 -3.32119e-05
 -3.96301e-05 -0.0137354 3.34146e-05
 -2.33338e-05 -5.45255e-05 -4.32552e-05
 -4.36149e-05 -0.00249953 -1.20237e-05
 -1.21396e-05 -0.0140381 -1.24262e-05
 -6.31002e-06 0.00325371 -6.44437e-06
 -2.88183e-05 0.00509888 -1.68174e-05
 -1.30839e-05 -0.0114027 5.53502e-06
 -7.77289e-06 0.000700634 -3.92553e-05
 -7.78538e-06 0.000701435 3.91261e-05
 -1.33281e-05 -0.0113693 -5.4911e-06
 -2.88866e-05 0.00510114 1.69496e-05
 -6.35103e-06 0.00326756 6.40161e-06
 -1.68944e-05 0.00509863 -2.86556e-05
 6.07932e-06 0.00167061 6.18393e-06
 -1.53626e-06 -0.00662647 1.03172e-05
 -3.30441e-05 -0.00585454 3.95082e-05
 -3.29039e-05 -0.00585493 -3.95601e-05
 -1.49939e-06 -0.00662268 -1.03848e-05
 6.17391e-06 0.00167229 -6.29652e-06
 -1.70246e-05 0.00510068 2.88782e-05
 5.50252e-06 -0.0114032 -1.33334e-05
 1.03297e-05 -0.00662656 -7.82661e-07
 2.73318e-05 0.00370345 2.70269e-05
 -5.15005e-06 0.00883485 -2.8456e-05
 -5.22075e-06 0.00883468 2.85771e-05
 2.735e-05 0.00370418 -2.72049e-05
 1.02915e-05 -0.00662194 9.74584e-07
 5.69478e-06 -0.0113669 1.31809e-05
 -3.92147e-05 0.00069836 -7.68304e-06
 3.95388e-05 -0.00579949 -3.28743e-05
 -2.84022e-05 0.00883125 -5.14132e-06
 2.50626e-05 -0.00207671 2.51306e-05
 2.50149e-05 -0.00207736 -2.52021e-05
 -2.81215e-05 0.00883252 5.18163e-06
 3.95426e-05 -0.00580008 3.29261e-05
 -3.95373e-05 0.000701756 7.64302e-06
 3.915e-05 0.000698345 -7.66786e-06
 -3.9381e-05 -0.00579954 -3.28084e-05
 2.83289e-05 0.0088305 -5.15039e-06
 -2.50446e-05 -0.00207686 2.50907e-05
 -2.50661e-05 -0.00207696 -2.52262e-05
 2.83949e-05 0.00883249 5.15653e-06
 -3.9439e-05 -0.00580005 3.29496e-05
 3.92259e-05 0.000701152 7.63818e-06
 -5.66122e-06 -0.0113645 -1.31769e-05
 -1.03607e-05 -0.00664482 -1.24803e-06
 -2.72907e-05 0.00370378 2.73216e-05
 5.17252e-06 0.00883316 -2.83264e-05
 5.10378e-06 0.00883432 2.82578e-05
 -2.71709e-05 0.00370354 -2.74697e-05
 -1.03607e-05 -0.00664146 1.40707e-06
 -5.44388e-06 -0.0114062 1.3216e-05
 1.71032e-05 0.00510104 -2.85163e-05
 -6.15441e-06 0.00167219 6.26421e-06
 1.41152e-06 -0.00664486 1.03105e-05
 3.29968e-05 -0.00585479 3.93949e-05
 3.30954e-05 -0.00585481 -3.94892e-05
 1.37223e-06 -0.00664041 -1.02658e-05
 -6.18334e-06 0.001671 -6.29947e-06
 1.69426e-05 0.00509843 2.85732e-05
 6.38606e-06 0.00326745 -6.39777e-06
 2.88147e-05 0.00510146 -1.69185e-05
 1.32819e-05 -0.0113668 5.46603e-06
 7.82046e-06 0.000699178 -3.92425e-05
 7.80555e-06 0.000699327 3.93091e-05
 1.30427e-05 -0.0114062 -5.6066e-06
 2.88933e-05 0.00509885 1.70014e-05
 6.51035e-06 0.00325378 6.34567e-06
 1.88927e-05 0.000637574 1.89864e-05
 2.06209e-05 0.00305506 -1.42076e-05
 6.84282e-06 0.000358926 -4.4857e-05
 -3.89007e-05 0.00775818 1.64808e-05
 -3.88991e-05 0.00775842 -1.64271e-05
 6.71566e-06 0.000350209 4.48496e-05
 2.06063e-05 0.00305561 1.42161e-05
 1.88682e-05 0.000631925 -1.89529e-05
 -1.44854e-05 0.00305514 2.07232e-05
 -1.30855e-05 0.0010496 -1.30615e-05
 1.35564e-06 -0.00412643 -1.31781e-05
 2.16093e-05 -0.00411407 -4.29749e-05
 2.16055e-05 -0.00411297 4.2998e-05
 1.462e-06 -0.00413548 1.3183e-05
 -1.30937e-05 0.00105108 1.30869e-05
 -1.47702e-05 0.00305602 -2.07145e-05
 -4.51243e-05 0.000359038 4.22502e-06
 -1.34038e-05 -0.00412716 4.04519e-06
 -3.78566e-05 -0.00458138 -3.82416e-05
 -2.53233e-05 -0.000274959 1.52561e-06
 -2.5325e-05 -0.000274415 -1.51904e-06
 -3.78441e-05 -0.00458063 3.82652e-05
 -1.34319e-05 -0.00413648 -4.24079e-06
 -4.50431e-05 0.000348021 -4.02058e-06
 1.66442e-05 0.0077591 -3.8042e-05
 -4.28557e-05 -0.00416185 2.13755e-05
 1.58973e-06 -0.000272298 -2.51614e-05
 1.09528e-05 0.00256667 1.10309e-05
 1.09503e-05 0.00256627 -1.11063e-05
 1.57301e-06 -0.000272851 2.52534e-05
 -4.28594e-05 -0.00416124 -2.13733e-05
 1.647e-05 0.00775861 3.80441e-05
 -1.63655e-05 0.00775984 -3.80396e-05
 4.28523e-05 -0.00416101 2.13781e-05
 -1.58073e-06 -0.000271339 -2.51533e-05
 -1.09582e-05 0.00256679 1.10288e-05
 -1.09597e-05 0.00256672 -1.11057e-05
 -1.57669e-06 -0.000273307 2.52419e-05
 4.28525e-05 -0.00416274 -2.13831e-05
 -1.64772e-05 0.00775817 3.80394e-05
 4.50357e-05 0.000347508 4.22559e-06
 1.34236e-05 -0.00411477 4.07281e-06
 3.78524e-05 -0.00459704 -3.82647e-05
 2.53394e-05 -0.000273361 1.57105e-06
 2.53373e-05 -0.000274667 -1.61406e-06
 3.78357e-05 -0.00458261 3.83251e-05
 1.34209e-05 -0.00411394 -4.47904e-06
 4.50424e-05 0.00035918 -3.84792e-06
 1.43367e-05 0.00305461 2.07426e-05
 1.30957e-05 0.00105032 -1.30301e-05
 -1.28599e-06 -0.00411401 -1.31869e-05
 -2.16075e-05 -0.00411355 -4.29746e-05
 -2.16063e-05 -0.00411511 4.29921e-05
 -1.41115e-06 -0.0041141 1.31833e-05
 1.30723e-05 0.00104933 1.30197e-05
 1.472e-05 0.00305539 -2.07801e-05
 -1.88552e-05 0.000630097 1.89937e-05
 -2.05943e-05 0.00305419 -1.43709e-05
 -6.8856e-06 0.000349224 -4.49931e-05
 3.89038e-05 0.00775942 1.65e-05
 3.88981e-05 0.00775878 -1.65014e-05
 -6.77185e-06 0.000360682 4.49104e-05
 -2.06098e-05 0.00305505 1.44408e-05
 -1.88812e-05 0.000637815 -1.90416e-05
 7.2553e-06 0.00313633 7.38165e-06
 9.06313e-06 0.0071391 1.18478e-05
 8.49656e-06 0.0086295 -1.41498e-05
 5.02086e-06 0.00367401 -4.75327e-05
 5.01542e-06 0.00367318 4.7583e-05
 8.48009e-06 0.00860276 1.41923e-05
 9.03571e-06 0.00715679 -1.18012e-05
 7.21721e-06 0.00308522 -7.33768e-06
 1.16874e-05 0.00713907 9.03284e-06
 -2.08821e-05 -0.00556661 -2.07475e-05
 -1.58933e-05 -0.00927116 -1.06152e-06
 7.47771e-06 0.00281131 -3.95928e-05
 7.47179e-06 0.00281165 3.88961e-05
 -1.59115e-05 -0.00926565 1.7547e-06
 -2.09062e-05 -0.00556656 2.08617e-05
 1.16501e-05 0.00712743 -9.00067e-06
 -1.42861e-05 0.00863867 8.65611e-06
 1.62608e-06 -0.00927102 -1.58857e-05
 4.50268e-06 -0.0029894 4.64841e-06
 -1.56723e-05 -0.00397066 -4.98384e-05
 -1.56748e-05 -0.00397022 4.97129e-05
 4.49811e-06 -0.00298884 -4.45128e-06
 1.6147e-06 -0.00926649 1.58983e-05
 -1.42944e-05 0.00860263 -8.6358e-06
 -4.76368e-05 0.00365679 5.19411e-06
 -4.23093e-05 0.00281846 7.46824e-06
 -4.94389e-05 -0.00396992 -1.55976e-05
 -4.76514e-05 0.0104974 -4.78296e-05
 -4.76541e-05 0.0104982 4.78557e-05
 -4.94524e-05 -0.0039696 1.56158e-05
 -4.23367e-05 0.00281811 -7.45166e-06
 -4.76808e-05 0.00367172 -5.18589e-06
 4.76664e-05 0.00365472 5.19854e-06
 4.22041e-05 0.00281921 7.46756e-06
 4.94477e-05 -0.00396964 -1.55975e-05
 4.7645e-05 0.0104973 -4.78278e-05
 4.76399e-05 0.0104974 4.78501e-05
 4.94308e-05 -0.00396989 1.56068e-05
 4.21979e-05 0.00281804 -7.46314e-06
 4.7606e-05 0.00367267 -5.1987e-06
 1.42943e-05 0.00859952 8.66298e-06
 -1.50781e-06 -0.00923614 -1.58785e-05
 -4.5203e-06 -0.00299154 4.64306e-06
 1.56682e-05 -0.00397035 -4.98368e-05
 1.56647e-05 -0.00397066 4.96934e-05
 -4.52479e-06 -0.00298918 -4.4803e-06
 -1.54256e-06 -0.00927618 1.58735e-05
 1.42833e-05 0.00863796 -8.67608e-06
 -1.16696e-05 0.00715234 9.03968e-06
 2.08972e-05 -0.00558689 -2.08228e-05
 1.59042e-05 -0.00923588 -1.66215e-06
 -7.48761e-06 0.00281296 -3.89219e-05
 -7.49198e-06 0.00281252 3.87232e-05
 1.5888e-05 -0.00927773 1.84542e-06
 2.08714e-05 -0.00556623 2.08239e-05
 -1.16986e-05 0.00713891 -9.06215e-06
 -7.22154e-06 0.00308428 7.38243e-06
 -9.03986e-06 0.00714971 1.18474e-05
 -8.4824e-06 0.00859983 -1.41545e-05
 -5.01764e-06 0.00366675 -4.75172e-05
 -5.02166e-06 0.00366948 4.75121e-05
 -8.49563e-06 0.00863883 1.4133e-05
 -9.06179e-06 0.00713723 -1.18615e-05
 -7.25449e-06 0.00313628 -7.41887e-06
 -1.72718e-05 0.0112895 -1.70545e-05
 2.597e-07 -0.00298849 2.6455e-06
 -3.83848e-06 -0.00941573 -1.58233e-05
 -2.30294e-05 -0.00677812 1.91605e-05
 -2.30304e-05 -0.00677683 -1.95157e-05
 -3.86643e-06 -0.00937575 1.62394e-05
 7.73685e-08 -0.00300075 -2.57221e-06
 -1.71937e-05 0.0112962 1.71884e-05
 2.44195e-06 -0.00298842 -3.84582e-07
 -2.45961e-06 0.00132456 -2.02483e-06
 -6.58277e-06 0.00440033 -1.88332e-05
 -1.39755e-07 -0.00478386 2.32375e-05
 -1.32325e-07 -0.00478345 -2.32032e-05
 -6.49829e-06 0.00439692 1.87721e-05
 -2.51752e-06 0.00132595 2.13707e-06
 2.35778e-06 -0.00297636 5.14954e-07
 -1.67371e-05 -0.0094648 -3.9135e-06
 -1.81804e-05 0.00439939 -9.47196e-06
 -5.26159e-06 -0.00878866 9.32069e-06
 1.1884e-05 -0.009199 9.03714e-06
 1.18427e-05 -0.00919856 -9.01306e-06
 -5.71755e-06 -0.00878926 -9.24189e-06
 -1.80887e-05 0.00439683 9.49368e-06
 -1.6512e-05 -0.00937872 3.9515e-06
 1.96658e-05 -0.00675627 -2.18654e-05
 2.37828e-05 -0.00460582 -1.61195e-06
 2.17814e-05 -0.00922154 1.29365e-05
 -2.55731e-05 -0.00541046 -2.56188e-05
 -2.55665e-05 -0.00540959 2.56082e-05
 2.20831e-05 -0.00919705 -1.32521e-05
 2.37869e-05 -0.00460541 1.73354e-06
 1.92558e-05 -0.00677571 2.21801e-05
 -1.72235e-05 -0.0067536 -2.21047e-05
 -2.37441e-05 -0.00460499 -1.69206e-06
 -2.25408e-05 -0.0091959 1.31896e-05
 2.55173e-05 -0.00541009 -2.5536e-05
 2.55373e-05 -0.00540834 2.56094e-05
 -2.22272e-05 -0.00919725 -1.28314e-05
 -2.37097e-05 -0.00460598 1.49436e-06
 -1.6864e-05 -0.00677734 2.19287e-05
 1.45179e-05 -0.00938038 -3.92015e-06
 1.80332e-05 0.0043854 -9.45992e-06
 6.10077e-06 -0.00880647 9.23498e-06
 -1.17982e-05 -0.00919803 9.08972e-06
 -1.18344e-05 -0.00919892 -9.04754e-06
 5.76135e-06 -0.00878774 -9.26644e-06
 1.81055e-05 0.00440403 9.46943e-06
 1.40082e-05 -0.00940796 3.90576e-06
 -2.49164e-06 -0.00299819 -4.83342e-07
 2.54696e-06 0.00132421 -2.10768e-06
 6.55407e-06 0.00438567 -1.87552e-05
 4.61594e-08 -0.00478305 2.32823e-05
 6.63496e-08 -0.00478376 -2.32463e-05
 6.47187e-06 0.00440524 1.87239e-05
 2.37566e-06 0.00132441 2.0806e-06
 -2.56732e-06 -0.00298857 4.59978e-07
 1.72036e-05 0.011295 -1.71275e-05
 -1.81232e-07 -0.00299614 2.63024e-06
 3.79479e-06 -0.00937791 -1.61891e-05
 2.305e-05 -0.00676966 1.95582e-05
 2.30225e-05 -0.0067733 -1.94932e-05
 3.84436e-06 -0.00946296 1.60504e-05
 -2.3451e-07 -0.00298744 -2.64305e-06
 1.72567e-05 0.0112888 1.71176e-05
 -5.40702e-06 -0.00779134 -5.09219e-06
 -4.83408e-06 0.000240195 3.40894e-05
 -1.31058e-05 0.00578822 -1.74031e-05
 -2.27793e-06 -0.00337776 6.50791e-06
 -2.28164e-06 -0.00337721 -6.37785e-06
 -1.31195e-05 0.00573667 1.74313e-05
 -4.8834e-06 0.000260302 -3.40231e-05
 -5.47794e-06 -0.00781536 5.18378e-06
 3.40466e-05 0.00023896 -5.41642e-06
 1.59438e-05 0.00142092 1.64791e-05
 7.57454e-06 0.00553766 -1.60263e-05
 1.80416e-06 -0.00781436 3.5443e-05
 1.80875e-06 -0.00781428 -3.52897e-05
 7.5776e-06 0.00554076 1.60954e-05
 1.59617e-05 0.00142215 -1.56275e-05
 3.39981e-05 0.00023908 4.59906e-06
 -1.75056e-05 0.00583092 -1.2966e-05
 -1.6e-05 0.00553711 7.49708e-06
 -7.95599e-06 -0.0104346 -8.0502e-06
 -1.87594e-05 8.68902e-05 3.54784e-05
 -1.87873e-05 8.71403e-05 -3.55301e-05
 -7.99482e-06 -0.010444 8.11019e-06
 -1.5947e-05 0.00554031 -7.42274e-06
 -1.76875e-05 0.00574126 1.30776e-05
 6.30332e-06 -0.00336863 -2.18745e-06
 3.53945e-05 -0.00797966 1.54354e-06
 3.5368e-05 0.000109972 -1.87463e-05
 3.491e-05 -0.00898604 3.4967e-05
 3.49107e-05 -0.00898521 -3.50985e-05
 3.53127e-05 8.74424e-05 1.88042e-05
 3.51924e-05 -0.00797942 -1.46726e-06
 6.52899e-06 -0.003371 2.31423e-06
 -6.25626e-06 -0.00336767 -2.16999e-06
 -3.53931e-05 -0.00798012 1.4736e-06
 -3.54188e-05 8.72603e-05 -1.87901e-05
 -3.48845e-05 -0.00898418 3.50321e-05
 -3.49796e-05 -0.00897573 -3.50995e-05
 -3.54594e-05 8.72511e-05 1.87685e-05
 -3.54145e-05 -0.00797964 -1.45866e-06
 -6.27769e-06 -0.00337117 2.30844e-06
 1.75244e-05 0.00574331 -1.28071e-05
 1.60266e-05 0.00554764 7.49097e-06
 8.03441e-06 -0.0103866 -8.04403e-06
 1.87301e-05 8.73435e-05 3.52444e-05
 1.87493e-05 8.71725e-05 -3.52961e-05
 7.98531e-06 -0.0104344 8.11954e-06
 1.59891e-05 0.00553192 -7.548e-06
 1.74768e-05 0.00578586 1.28408e-05
 -3.4025e-05 0.00025829 -5.21192e-06
 -1.59293e-05 0.00143714 1.60503e-05
 -7.59491e-06 0.00554829 -1.61534e-05
 -1.83075e-06 -0.00781534 3.52554e-05
 -1.80498e-06 -0.00781521 -3.52691e-05
 -7.57698e-06 0.0055317 1.61357e-05
 -1.59692e-05 0.00142088 -1.60615e-05
 -3.39365e-05 0.00023804 5.1944e-06
 5.44018e-06 -0.00781711 -5.15363e-06
 4.85821e-06 0.000260049 3.41008e-05
 1.31078e-05 0.00573954 -1.74121e-05
 2.25546e-06 -0.00337353 6.44332e-06
 2.26712e-06 -0.00337375 -6.43439e-06
 1.30918e-05 0.00582756 1.73583e-05
 4.82319e-06 0.000239195 -3.41529e-05
 5.06678e-06 -0.0077915 5.13399e-06
 -9.20227e-06 -0.00325615 -9.3204e-06
 -6.78554e-06 0.00220542 3.13376e-05
 -4.1297e-06 0.00461593 1.21045e-05
 -8.16336e-06 0.00187231 -3.80948e-05
 -8.18879e-06 0.00187241 3.81888e-05
 -4.17014e-06 0.00460346 -1.18372e-05
 -6.86097e-06 0.00218826 -3.1281e-05
 -9.07512e-06 -0.00321529 9.20392e-06
 3.10622e-05 0.00220681 -7.012e-06
 -1.74669e-07 -0.000582549 -4.80866e-07
 7.57726e-07 0.00572922 -2.11072e-05
 2.54469e-05 0.00181554 2.35943e-05
 2.5451e-05 0.00181567 -2.36548e-05
 8.24348e-07 0.00573227 1.89562e-05
 3.74723e-08 -0.000581729 2.53566e-06
 3.09394e-05 0.00220792 7.41495e-06
 1.12919e-05 0.00461107 -4.05053e-06
 -2.21223e-05 0.00573315 -3.91377e-07
 -2.2677e-05 -0.000482123 -2.14834e-05
 -3.16002e-05 -0.00299909 2.60584e-05
 -3.15769e-05 -0.00299912 -2.5806e-05
 -2.28054e-05 -0.000478898 1.95705e-05