<?xml version="1.0"?>
<!-- time 35.878-->
<VTKFile type="UnstructuredGrid" version="0.1" byte_order="LittleEndian">
<UnstructuredGrid>
<Piece NumberOfPoints="7680" NumberOfCells="0">
<Points>
  <DataArray type="Float32" Name="Position" NumberOfComponents="3" format="ascii">
	-350 2050 -350
	-350 2050 -250
	-350 2050 -150
	-350 2050 -50
	-350 2050 50
	-350 2050 150
	-350 2050 250
	-350 2050 350
	-250 2050 -350
	-250 2050 -250
	-250 2050 -150
	-250 2050 -50
	-250 2050 50
	-250 2050 150
	-250 2050 250
	-250 2050 350
	-150 2050 -350
	-150 2050 -250
	-150 2050 -150
	-150 2050 -50
	-150 2050 50
	-150 2050 150
	-150 2050 250
	-150 2050 350
	-50 2050 -350
	-50 2050 -250
	-50 2050 -150
	-50 2050 -50
	-50 2050 50
	-50 2050 150
	-50 2050 250
	-50 2050 350
	50 2050 -350
	50 2050 -250
	50 2050 -150
	50 2050 -50
	50 2050 50
	50 2050 150
	50 2050 250
	50 2050 350
	150 2050 -350
	150 2050 -250
	150 2050 -150
	150 2050 -50
	150 2050 50
	150 2050 150
	150 2050 250
	150 2050 350
	250 2050 -350
	250 2050 -250
	250 2050 -150
	250 2050 -50
	250 2050 50
	250 2050 150
	250 2050 250
	250 2050 350
	350 2050 -350
	350 2050 -250
	350 2050 -150
	350 2050 -50
	350 2050 50
	350 2050 150
	350 2050 250
	350 2050 350
	-350 2150 -350
	-350 2150 -250
	-350 2150 -150
	-350 2150 -50
	-350 2150 50
	-350 2150 150
	-350 2150 250
	-350 2150 350
	-250 2150 -350
	-250 2150 -250
	-250 2150 -150
	-250 2150 -50
	-250 2150 50
	-250 2150 150
	-250 2150 250
	-250 2150 350
	-150 2150 -350
	-150 2150 -250
	-150 2150 -150
	-150 2150 -50
	-150 2150 50
	-150 2150 150
	-150 2150 250
	-150 2150 350
	-50 2150 -350
	-50 2150 -250
	-50 2150 -150
	-50 2150 -50
	-50 2150 50
	-50 2150 150
	-50 2150 250
	-50 2150 350
	50 2150 -350
	50 2150 -250
	50 2150 -150
	50 2150 -50
	50 2150 50
	50 2150 150
	50 2150 250
	50 2150 350
	150 2150 -350
	150 2150 -250
	150 2150 -150
	150 2150 -50
	150 2150 50
	150 2150 150
	150 2150 250
	150 2150 350
	250 2150 -350
	250 2150 -250
	250 2150 -150
	250 2150 -50
	250 2150 50
	250 2150 150
	250 2150 250
	250 2150 350
	350 2150 -350
	350 2150 -250
	350 2150 -150
	350 2150 -50
	350 2150 50
	350 2150 150
	350 2150 250
	350 2150 350
	-350 2250 -350
	-350 2250 -250
	-350 2250 -150
	-350 2250 -50
	-350 2250 50
	-350 2250 150
	-350 2250 250
	-350 2250 350
	-250 2250 -350
	-250 2250 -250
	-250 2250 -150
	-250 2250 -50
	-250 2250 50
	-250 2250 150
	-250 2250 250
	-250 2250 350
	-150 2250 -350
	-150 2250 -250
	-150 2250 -150
	-150 2250 -50
	-150 2250 50
	-150 2250 150
	-150 2250 250
	-150 2250 350
	-50 2250 -350
	-50 2250 -250
	-50 2250 -150
	-50 2250 -50
	-50 2250 50
	-50 2250 150
	-50 2250 250
	-50 2250 350
	50 2250 -350
	50 2250 -250
	50 2250 -150
	50 2250 -50
	50 2250 50
	50 2250 150
	50 2250 250
	50 2250 350
	150 2250 -350
	150 2250 -250
	150 2250 -150
	150 2250 -50
	150 2250 50
	150 2250 150
	150 2250 250
	150 2250 350
	250 2250 -350
	250 2250 -250
	250 2250 -150
	250 2250 -50
	250 2250 50
	250 2250 150
	250 2250 250
	250 2250 350
	350 2250 -350
	350 2250 -250
	350 2250 -150
	350 2250 -50
	350 2250 50
	350 2250 150
	350 2250 250
	350 2250 350
	-350 2350 -350
	-350 2350 -250
	-350 2350 -150
	-350 2350 -50
	-350 2350 50
	-350 2350 150
	-350 2350 250
	-350 2350 350
	-250 2350 -350
	-250 2350 -250
	-250 2350 -150
	-250 2350 -50
	-250 2350 50
	-250 2350 150
	-250 2350 250
	-250 2350 350
	-150 2350 -350
	-150 2350 -250
	-150 2350 -150
	-150 2350 -50
	-150 2350 50
	-150 2350 150
	-150 2350 250
	-150 2350 350
	-50 2350 -350
	-50 2350 -250
	-50 2350 -150
	-50 2350 -50
	-50 2350 50
	-50 2350 150
	-50 2350 250
	-50 2350 350
	50 2350 -350
	50 2350 -250
	50 2350 -150
	50 2350 -50
	50 2350 50
	50 2350 150
	50 2350 250
	50 2350 350
	150 2350 -350
	150 2350 -250
	150 2350 -150
	150 2350 -50
	150 2350 50
	150 2350 150
	150 2350 250
	150 2350 350
	250 2350 -350
	250 2350 -250
	250 2350 -150
	250 2350 -50
	250 2350 50
	250 2350 150
	250 2350 250
	250 2350 350
	350 2350 -350
	350 2350 -250
	350 2350 -150
	350 2350 -50
	350 2350 50
	350 2350 150
	350 2350 250
	350 2350 350
	-350 2450 -350
	-350 2450 -250
	-350 2450 -150
	-350 2450 -50
	-350 2450 50
	-350 2450 150
	-350 2450 250
	-350 2450 350
	-250 2450 -350
	-250 2450 -250
	-250 2450 -150
	-250 2450 -50
	-250 2450 50
	-250 2450 150
	-250 2450 250
	-250 2450 350
	-150 2450 -350
	-150 2450 -250
	-150 2450 -150
	-150 2450 -50
	-150 2450 50
	-150 2450 150
	-150 2450 250
	-150 2450 350
	-50 2450 -350
	-50 2450 -250
	-50 2450 -150
	-50 2450 -50
	-50 2450 50
	-50 2450 150
	-50 2450 250
	-50 2450 350
	50 2450 -350
	50 2450 -250
	50 2450 -150
	50 2450 -50
	50 2450 50
	50 2450 150
	50 2450 250
	50 2450 350
	150 2450 -350
	150 2450 -250
	150 2450 -150
	150 2450 -50
	150 2450 50
	150 2450 150
	150 2450 250
	150 2450 350
	250 2450 -350
	250 2450 -250
	250 2450 -150
	250 2450 -50
	250 2450 50
	250 2450 150
	250 2450 250
	250 2450 350
	350 2450 -350
	350 2450 -250
	350 2450 -150
	350 2450 -50
	350 2450 50
	350 2450 150
	350 2450 250
	350 2450 350
	-350 2550 -350
	-350 2550 -250
	-350 2550 -150
	-350 2550 -50
	-350 2550 50
	-350 2550 150
	-350 2550 250
	-350 2550 350
	-250 2550 -350
	-250 2550 -250
	-250 2550 -150
	-250 2550 -50
	-250 2550 50
	-250 2550 150
	-250 2550 250
	-250 2550 350
	-150 2550 -350
	-150 2550 -250
	-150 2550 -150
	-150 2550 -50
	-150 2550 50
	-150 2550 150
	-150 2550 250
	-150 2550 350
	-50 2550 -350
	-50 2550 -250
	-50 2550 -150
	-50 2550 -50
	-50 2550 50
	-50 2550 150
	-50 2550 250
	-50 2550 350
	50 2550 -350
	50 2550 -250
	50 2550 -150
	50 2550 -50
	50 2550 50
	50 2550 150
	50 2550 250
	50 2550 350
	150 2550 -350
	150 2550 -250
	150 2550 -150
	150 2550 -50
	150 2550 50
	150 2550 150
	150 2550 250
	150 2550 350
	250 2550 -350
	250 2550 -250
	250 2550 -150
	250 2550 -50
	250 2550 50
	250 2550 150
	250 2550 250
	250 2550 350
	350 2550 -350
	350 2550 -250
	350 2550 -150
	350 2550 -50
	350 2550 50
	350 2550 150
	350 2550 250
	350 2550 350
	-350 2650 -350
	-350 2650 -250
	-350 2650 -150
	-350 2650 -50
	-350 2650 50
	-350 2650 150
	-350 2650 250
	-350 2650 350
	-250 2650 -350
	-250 2650 -250
	-250 2650 -150
	-250 2650 -50
	-250 2650 50
	-250 2650 150
	-250 2650 250
	-250 2650 350
	-150 2650 -350
	-150 2650 -250
	-150 2650 -150
	-150 2650 -50
	-150 2650 50
	-150 2650 150
	-150 2650 250
	-150 2650 350
	-50 2650 -350
	-50 2650 -250
	-50 2650 -150
	-50 2650 -50
	-50 2650 50
	-50 2650 150
	-50 2650 250
	-50 2650 350
	50 2650 -350
	50 2650 -250
	50 2650 -150
	50 2650 -50
	50 2650 50
	50 2650 150
	50 2650 250
	50 2650 350
	150 2650 -350
	150 2650 -250
	150 2650 -150
	150 2650 -50
	150 2650 50
	150 2650 150
	150 2650 250
	150 2650 350
	250 2650 -350
	250 2650 -250
	250 2650 -150
	250 2650 -50
	250 2650 50
	250 2650 150
	250 2650 250
	250 2650 350
	350 2650 -350
	350 2650 -250
	350 2650 -150
	350 2650 -50
	350 2650 50
	350 2650 150
	350 2650 250
	350 2650 350
	-350 2750 -350
	-350 2750 -250
	-350 2750 -150
	-350 2750 -50
	-350 2750 50
	-350 2750 150
	-350 2750 250
	-350 2750 350
	-250 2750 -350
	-250 2750 -250
	-250 2750 -150
	-250 2750 -50
	-250 2750 50
	-250 2750 150
	-250 2750 250
	-250 2750 350
	-150 2750 -350
	-150 2750 -250
	-150 2750 -150
	-150 2750 -50
	-150 2750 50
	-150 2750 150
	-150 2750 250
	-150 2750 350
	-50 2750 -350
	-50 2750 -250
	-50 2750 -150
	-50 2750 -50
	-50 2750 50
	-50 2750 150
	-50 2750 250
	-50 2750 350
	50 2750 -350
	50 2750 -250
	50 2750 -150
	50 2750 -50
	50 2750 50
	50 2750 150
	50 2750 250
	50 2750 350
	150 2750 -350
	150 2750 -250
	150 2750 -150
	150 2750 -50
	150 2750 50
	150 2750 150
	150 2750 250
	150 2750 350
	250 2750 -350
	250 2750 -250
	250 2750 -150
	250 2750 -50
	250 2750 50
	250 2750 150
	250 2750 250
	250 2750 350
	350 2750 -350
	350 2750 -250
	350 2750 -150
	350 2750 -50
	350 2750 50
	350 2750 150
	350 2750 250
	350 2750 350
	-350 2850 -350
	-350 2850 -250
	-350 2850 -150
	-350 2850 -50
	-350 2850 50
	-350 2850 150
	-350 2850 250
	-350 2850 350
	-250 2850 -350
	-250 2850 -250
	-250 2850 -150
	-250 2850 -50
	-250 2850 50
	-250 2850 150
	-250 2850 250
	-250 2850 350
	-150 2850 -350
	-150 2850 -250
	-150 2850 -150
	-150 2850 -50
	-150 2850 50
	-150 2850 150
	-150 2850 250
	-150 2850 350
	-50 2850 -350
	-50 2850 -250
	-50 2850 -150
	-50 2850 -50
	-50 2850 50
	-50 2850 150
	-50 2850 250
	-50 2850 350
	50 2850 -350
	50 2850 -250
	50 2850 -150
	50 2850 -50
	50 2850 50
	50 2850 150
	50 2850 250
	50 2850 350
	150 2850 -350
	150 2850 -250
	150 2850 -150
	150 2850 -50
	150 2850 50
	150 2850 150
	150 2850 250
	150 2850 350
	250 2850 -350
	250 2850 -250
	250 2850 -150
	250 2850 -50
	250 2850 50
	250 2850 150
	250 2850 250
	250 2850 350
	350 2850 -350
	350 2850 -250
	350 2850 -150
	350 2850 -50
	350 2850 50
	350 2850 150
	350 2850 250
	350 2850 350
	-350 2950 -350
	-350 2950 -250
	-350 2950 -150
	-350 2950 -50
	-350 2950 50
	-350 2950 150
	-350 2950 250
	-350 2950 350
	-250 2950 -350
	-250 2950 -250
	-250 2950 -150
	-250 2950 -50
	-250 2950 50
	-250 2950 150
	-250 2950 250
	-250 2950 350
	-150 2950 -350
	-150 2950 -250
	-150 2950 -150
	-150 2950 -50
	-150 2950 50
	-150 2950 150
	-150 2950 250
	-150 2950 350
	-50 2950 -350
	-50 2950 -250
	-50 2950 -150
	-50 2950 -50
	-50 2950 50
	-50 2950 150
	-50 2950 250
	-50 2950 350
	50 2950 -350
	50 2950 -250
	50 2950 -150
	50 2950 -50
	50 2950 50
	50 2950 150
	50 2950 250
	50 2950 350
	150 2950 -350
	150 2950 -250
	150 2950 -150
	150 2950 -50
	150 2950 50
	150 2950 150
	150 2950 250
	150 2950 350
	250 2950 -350
	250 2950 -250
	250 2950 -150
	250 2950 -50
	250 2950 50
	250 2950 150
	250 2950 250
	250 2950 350
	350 2950 -350
	350 2950 -250
	350 2950 -150
	350 2950 -50
	350 2950 50
	350 2950 150
	350 2950 250
	350 2950 350
	-350 3050 -350
	-350 3050 -250
	-350 3050 -150
	-350 3050 -50
	-350 3050 50
	-350 3050 150
	-350 3050 250
	-350 3050 350
	-250 3050 -350
	-250 3050 -250
	-250 3050 -150
	-250 3050 -50
	-250 3050 50
	-250 3050 150
	-250 3050 250
	-250 3050 350
	-150 3050 -350
	-150 3050 -250
	-150 3050 -150
	-150 3050 -50
	-150 3050 50
	-150 3050 150
	-150 3050 250
	-150 3050 350
	-50 3050 -350
	-50 3050 -250
	-50 3050 -150
	-50 3050 -50
	-50 3050 50
[...]
<PointData  Vectors="vector">
  <DataArray type="Float32" Name="Velocity" NumberOfComponents="3" format="ascii">
 2.64604e-08 -2.00902e-05 2.65837e-08
 2.80481e-08 -2.07672e-05 1.25314e-08
 2.83236e-08 -2.10659e-05 1.6924e-09
 2.7577e-08 -2.08878e-05 -1.02797e-08
 2.76089e-08 -2.08879e-05 1.02663e-08
 2.83889e-08 -2.10661e-05 -1.66481e-09
 2.81689e-08 -2.07674e-05 -1.26177e-08
 2.66338e-08 -2.00905e-05 -2.66262e-08
 1.24241e-08 -2.0767e-05 2.81968e-08
 1.41583e-08 -2.14965e-05 1.42631e-08
 1.45705e-08 -2.17619e-05 4.17616e-09
 1.40168e-08 -2.15599e-05 -9.12793e-09
 1.4008e-08 -2.156e-05 9.15726e-09
 1.46368e-08 -2.17621e-05 -4.1149e-09
 1.42722e-08 -2.14967e-05 -1.42932e-08
 1.25669e-08 -2.07672e-05 -2.82129e-08
 1.15613e-09 -2.10657e-05 2.84094e-08
 3.7689e-09 -2.17618e-05 1.46812e-08
 4.76894e-09 -2.21874e-05 5.12792e-09
 3.54975e-09 -2.18571e-05 -8.80389e-09
 3.59317e-09 -2.18572e-05 8.88242e-09
 4.85382e-09 -2.2188e-05 -5.03112e-09
 3.93694e-09 -2.1762e-05 -1.46336e-08
 1.44272e-09 -2.10658e-05 -2.83857e-08
 -1.04718e-08 -2.08876e-05 2.76626e-08
 -9.27463e-09 -2.15598e-05 1.40617e-08
 -8.93678e-09 -2.1857e-05 3.92637e-09
 -9.31505e-09 -2.15642e-05 -9.17947e-09
 -9.29933e-09 -2.15643e-05 9.31497e-09
 -8.88503e-09 -2.18575e-05 -3.77353e-09
 -9.17415e-09 -2.15599e-05 -1.39524e-08
 -1.03062e-08 -2.08876e-05 -2.75655e-08
 1.01069e-08 -2.08878e-05 2.76744e-08
 8.99161e-09 -2.156e-05 1.41066e-08
 8.72038e-09 -2.18572e-05 3.93161e-09
 9.14708e-09 -2.15644e-05 -9.15047e-09
 9.16507e-09 -2.15644e-05 9.35006e-09
 8.78143e-09 -2.18576e-05 -3.72415e-09
 9.10279e-09 -2.15599e-05 -1.38994e-08
 1.02669e-08 -2.08876e-05 -2.75123e-08
 -1.62125e-09 -2.10661e-05 2.8479e-08
 -4.13471e-09 -2.17623e-05 1.47254e-08
 -5.05296e-09 -2.21883e-05 5.185e-09
 -3.79171e-09 -2.18575e-05 -8.72085e-09
 -3.78119e-09 -2.18575e-05 8.98284e-09
 -5.01253e-09 -2.21882e-05 -4.90939e-09
 -4.06453e-09 -2.17621e-05 -1.44523e-08
 -1.5481e-09 -2.10658e-05 -2.82488e-08
 -1.26993e-08 -2.07677e-05 2.82737e-08
 -1.43617e-08 -2.14971e-05 1.43489e-08
 -1.47158e-08 -2.17626e-05 4.25768e-09
 -1.40986e-08 -2.15605e-05 -9.00797e-09
 -1.40805e-08 -2.15604e-05 9.31541e-09
 -1.46578e-08 -2.17624e-05 -3.92984e-09
 -1.42532e-08 -2.14968e-05 -1.40207e-08
 -1.24996e-08 -2.07672e-05 -2.79896e-08
 -2.67949e-08 -2.0091e-05 2.66807e-08
 -2.83067e-08 -2.07679e-05 1.26362e-08
 -2.85032e-08 -2.10666e-05 1.77902e-09
 -2.77042e-08 -2.08885e-05 -1.01307e-08
 -2.76838e-08 -2.08884e-05 1.04518e-08
 -2.84395e-08 -2.10664e-05 -1.45731e-09
 -2.8181e-08 -2.07675e-05 -1.22754e-08
 -2.65874e-08 -2.00903e-05 -2.62898e-08
 7.65467e-08 1.33071e-05 7.67424e-08
 7.60062e-08 1.36677e-05 5.40004e-08
 7.56249e-08 1.33398e-05 4.09533e-08
 7.55583e-08 1.16625e-05 -2.63009e-12
 7.55662e-08 1.16624e-05 1.21194e-10
 7.56528e-08 1.33397e-05 -4.08882e-08
 7.60765e-08 1.36676e-05 -5.39561e-08
 7.66619e-08 1.3307e-05 -7.65776e-08
 5.37827e-08 1.36678e-05 7.61528e-08
 5.35909e-08 1.40744e-05 5.37933e-08
 5.32747e-08 1.36647e-05 4.12333e-08
 5.36897e-08 1.19772e-05 7.59195e-10
 5.371e-08 1.19772e-05 -6.25175e-10
 5.33413e-08 1.36646e-05 -4.11497e-08
 5.36778e-08 1.40744e-05 -5.37044e-08
 5.39318e-08 1.36677e-05 -7.59783e-08
 4.08553e-08 1.33401e-05 7.57332e-08
 4.10617e-08 1.36648e-05 5.34284e-08
 4.10475e-08 1.35312e-05 4.1106e-08
 4.08238e-08 1.15356e-05 1.15238e-09
 4.08275e-08 1.15356e-05 -9.99906e-10
 4.10646e-08 1.35318e-05 -4.09597e-08
 4.11373e-08 1.36646e-05 -5.33239e-08
 4.0963e-08 1.33399e-05 -7.55308e-08
 -3.59563e-10 1.16628e-05 7.56502e-08
 5.49559e-10 1.19774e-05 5.38443e-08
 8.4292e-10 1.15358e-05 4.08519e-08
 9.87735e-10 9.99928e-06 1.30097e-09
 1.00914e-09 9.99924e-06 -1.00479e-09
 9.12264e-10 1.15364e-05 -4.07596e-08
 6.68239e-10 1.19773e-05 -5.36945e-08
 -1.71244e-10 1.16626e-05 -7.54134e-08
 5.40875e-11 1.16629e-05 7.5663e-08
 -6.68822e-10 1.19775e-05 5.38558e-08
 -1.03499e-09 1.15358e-05 4.08731e-08
 -1.13951e-09 9.99929e-06 1.31775e-09
 -1.13336e-09 9.99926e-06 -9.78383e-10
 -1.00869e-09 1.15364e-05 -4.07143e-08
 -6.12978e-10 1.19773e-05 -5.36627e-08
 1.50813e-10 1.16626e-05 -7.53796e-08
 -4.10093e-08 1.33403e-05 7.57628e-08
 -4.12617e-08 1.3665e-05 5.34638e-08
 -4.10659e-08 1.3532e-05 4.11625e-08
 -4.08247e-08 1.15357e-05 1.20068e-09
 -4.081e-08 1.15356e-05 -9.34125e-10
 -4.10238e-08 1.35318e-05 -4.0835e-08
 -4.11929e-08 1.36646e-05 -5.32187e-08
 -4.08861e-08 1.33398e-05 -7.5436e-08
 -5.39835e-08 1.36684e-05 7.6185e-08
 -5.3749e-08 1.40748e-05 5.38478e-08
 -5.33937e-08 1.36649e-05 4.13164e-08
 -5.37608e-08 1.19774e-05 8.32842e-10
 -5.37502e-08 1.19773e-05 -5.34224e-10
 -5.33637e-08 1.36646e-05 -4.09472e-08
 -5.36708e-08 1.40743e-05 -5.35513e-08
 -5.38782e-08 1.36676e-05 -7.5827e-08
 -7.67003e-08 1.3308e-05 7.67707e-08
 -7.6105e-08 1.36684e-05 5.40815e-08
 -7.5675e-08 1.33403e-05 4.10365e-08
 -7.55778e-08 1.16628e-05 8.96022e-11
 -7.55747e-08 1.16627e-05 2.27952e-10
 -7.56504e-08 1.33399e-05 -4.06263e-08
 -7.60566e-08 1.36676e-05 -5.37615e-08
 -7.66129e-08 1.3307e-05 -7.63814e-08
 1.39141e-07 6.09858e-05 1.39308e-07
 1.36165e-07 6.12467e-05 1.12783e-07
 1.33873e-07 6.02096e-05 7.22351e-08
 1.34158e-07 5.85563e-05 3.38305e-08
 1.34163e-07 5.85562e-05 -3.35986e-08
 1.33895e-07 6.02095e-05 -7.21276e-08
 1.36218e-07 6.12467e-05 -1.12561e-07
 1.3923e-07 6.09859e-05 -1.39095e-07
 1.12553e-07 6.12467e-05 1.36315e-07
 1.10089e-07 6.12067e-05 1.10262e-07
 1.0831e-07 6.03026e-05 7.13165e-08
 1.08419e-07 5.86409e-05 3.31712e-08
 1.08431e-07 5.86408e-05 -3.29391e-08
 1.08347e-07 6.03025e-05 -7.11901e-08
 1.10151e-07 6.12066e-05 -1.10041e-07
 1.1266e-07 6.12469e-05 -1.36104e-07
 7.22668e-08 6.02095e-05 1.34001e-07
 7.13589e-08 6.03026e-05 1.08444e-07
 7.02475e-08 5.93629e-05 7.02011e-08
 7.00742e-08 5.77571e-05 3.22724e-08
 7.00633e-08 5.77571e-05 -3.20331e-08
 7.02353e-08 5.9363e-05 -7.00397e-08
 7.13569e-08 6.03025e-05 -1.08231e-07
 7.22876e-08 6.02097e-05 -1.33773e-07
 3.34151e-08 5.85562e-05 1.34245e-07
 3.27928e-08 5.86409e-05 1.08558e-07
 3.1914e-08 5.7757e-05 7.0039e-08
 3.2182e-08 5.60503e-05 3.25274e-08
 3.21988e-08 5.60503e-05 -3.22767e-08
 3.19582e-08 5.77572e-05 -6.98363e-08
 3.28802e-08 5.8641e-05 -1.08321e-07
 3.35493e-08 5.85565e-05 -1.34e-07
 -3.36188e-08 5.8556e-05 1.34249e-07
 -3.29476e-08 5.86408e-05 1.08564e-07
 -3.20307e-08 5.77569e-05 7.00509e-08
 -3.22742e-08 5.60502e-05 3.25394e-08
 -3.22711e-08 5.60503e-05 -3.22645e-08
 -3.20061e-08 5.77572e-05 -6.98007e-08
 -3.28915e-08 5.8641e-05 -1.08303e-07
 -3.35213e-08 5.85565e-05 -1.33977e-07
 -7.22511e-08 6.02092e-05 1.3401e-07
 -7.13139e-08 6.03024e-05 1.08459e-07
 -7.01737e-08 5.93629e-05 7.02357e-08
 -6.9996e-08 5.7757e-05 3.2303e-08
 -7.00023e-08 5.7757e-05 -3.20036e-08
 -7.01757e-08 5.9363e-05 -6.99391e-08
 -7.13108e-08 6.03026e-05 -1.08197e-07
 -7.22308e-08 6.02098e-05 -1.33688e-07
 -1.12669e-07 6.12463e-05 1.36325e-07
 -1.10142e-07 6.12064e-05 1.10279e-07
 -1.08343e-07 6.03024e-05 7.13606e-08
 -1.08452e-07 5.86408e-05 3.32219e-08
 -1.08438e-07 5.86408e-05 -3.29129e-08
 -1.08337e-07 6.03025e-05 -7.10152e-08
 -1.10116e-07 6.12067e-05 -1.0996e-07
 -1.12592e-07 6.12471e-05 -1.36011e-07
 -1.3919e-07 6.09852e-05 1.39312e-07
 -1.36204e-07 6.12464e-05 1.12793e-07
 -1.33884e-07 6.02094e-05 7.22908e-08
 -1.34129e-07 5.85562e-05 3.38904e-08
 -1.34134e-07 5.85562e-05 -3.35631e-08
 -1.33877e-07 6.02097e-05 -7.19181e-08
 -1.36185e-07 6.1247e-05 -1.12458e-07
 -1.39172e-07 6.09863e-05 -1.38976e-07
 2.68968e-07 3.11065e-05 2.69125e-07
 2.65778e-07 2.71882e-05 2.17256e-07
 2.63101e-07 2.52898e-05 1.42641e-07
 2.5988e-07 2.63118e-05 4.06386e-08
 2.59882e-07 2.63119e-05 -4.04892e-08
 2.6311e-07 2.52904e-05 -1.42354e-07
 2.65808e-07 2.71895e-05 -2.17025e-07
 2.69042e-07 3.11088e-05 -2.68885e-07
 2.17184e-07 2.71881e-05 2.659e-07
 2.14791e-07 2.33464e-05 2.14855e-07
 2.12619e-07 2.1888e-05 1.40639e-07
 2.0983e-07 2.30182e-05 3.97859e-08
 2.09829e-07 2.30183e-05 -3.96291e-08
 2.12624e-07 2.18885e-05 -1.40368e-07
 2.14809e-07 2.33475e-05 -2.1464e-07
 2.17179e-07 2.71901e-05 -2.65671e-07
 1.42485e-07 2.52896e-05 2.63187e-07
 1.4051e-07 2.18879e-05 2.12692e-07
 1.38853e-07 2.04442e-05 1.38926e-07
 1.37693e-07 2.14165e-05 3.93984e-08
 1.37703e-07 2.14166e-05 -3.92323e-08
 1.38887e-07 2.04444e-05 -1.38661e-07
 1.40576e-07 2.18889e-05 -2.12478e-07
 1.42629e-07 2.52914e-05 -2.62966e-07
 4.0623e-08 2.63113e-05 2.59949e-07
 3.97892e-08 2.3018e-05 2.09903e-07
 3.93368e-08 2.14165e-05 1.37756e-07
 3.92137e-08 2.21903e-05 3.92686e-08
 3.92078e-08 2.21903e-05 -3.90891e-08
 3.93267e-08 2.14167e-05 -1.37479e-07
 3.97807e-08 2.3019e-05 -2.09684e-07
 4.06373e-08 2.63133e-05 -2.59726e-07
 -4.06425e-08 2.63114e-05 2.59948e-07
 -3.97778e-08 2.3018e-05 2.09901e-07
 -3.93202e-08 2.14166e-05 1.37747e-07
 -3.92022e-08 2.21902e-05 3.92838e-08
 -3.92136e-08 2.21903e-05 -3.90662e-08
 -3.93421e-08 2.14168e-05 -1.37471e-07
 -3.9791e-08 2.30191e-05 -2.09671e-07
 -4.0644e-08 2.63134e-05 -2.59713e-07
 -1.42578e-07 2.52896e-05 2.63181e-07
 -1.40549e-07 2.1888e-05 2.12722e-07
 -1.38868e-07 2.04441e-05 1.38912e-07
 -1.37698e-07 2.14166e-05 3.93371e-08
 -1.37702e-07 2.14167e-05 -3.90796e-08
 -1.38879e-07 2.04446e-05 -1.38638e-07
 -1.40554e-07 2.18892e-05 -2.12482e-07
 -1.42541e-07 2.52919e-05 -2.62925e-07
 -2.17153e-07 2.71883e-05 2.65873e-07
 -2.14799e-07 2.33466e-05 2.14838e-07
 -2.12619e-07 2.18884e-05 1.40619e-07
 -2.09828e-07 2.30186e-05 3.9831e-08
 -2.09836e-07 2.30188e-05 -3.95469e-08
 -2.12635e-07 2.1889e-05 -1.40331e-07
 -2.14821e-07 2.33481e-05 -2.14579e-07
 -2.17209e-07 2.71909e-05 -2.6561e-07
 -2.69013e-07 3.11069e-05 2.69081e-07
 -2.65784e-07 2.71888e-05 2.17233e-07
 -2.63094e-07 2.52905e-05 1.42589e-07
 -2.59873e-07 2.63125e-05 4.06914e-08
 -2.59881e-07 2.63127e-05 -4.03799e-08
 -2.63117e-07 2.52914e-05 -1.42294e-07
 -2.65802e-07 2.71907e-05 -2.1696e-07
 -2.69008e-07 3.11101e-05 -2.68814e-07
 4.78282e-07 -0.000215652 4.78415e-07
 4.74452e-07 -0.00021609 3.8742e-07
 4.68971e-07 -0.000214545 2.41702e-07
 4.64162e-07 -0.000211207 8.7385e-08
 4.64162e-07 -0.000211208 -8.72073e-08
 4.68976e-07 -0.000214545 -2.41639e-07
 4.74472e-07 -0.000216089 -3.87125e-07
 4.78335e-07 -0.000215651 -4.78194e-07
 3.87312e-07 -0.00021609 4.74565e-07
 3.84361e-07 -0.000217495 3.84457e-07
 3.79972e-07 -0.000215431 2.40984e-07
 3.75844e-07 -0.000212146 8.72221e-08
 3.75847e-07 -0.000212146 -8.70532e-08
 3.79982e-07 -0.000215431 -2.40923e-07
 3.84397e-07 -0.000217495 -3.84189e-07
 3.87368e-07 -0.000216089 -4.7436e-07
 2.41654e-07 -0.000214546 4.69076e-07
 2.40961e-07 -0.000215431 3.8004e-07
 2.38303e-07 -0.000213621 2.38319e-07
 2.35195e-07 -0.000210309 8.63435e-08
 2.35192e-07 -0.000210309 -8.61814e-08
 2.38303e-07 -0.000213621 -2.3825e-07
 2.40967e-07 -0.000215431 -3.79824e-07
 2.41677e-07 -0.000214545 -4.68861e-07
 8.73248e-08 -0.000211208 4.64246e-07
 8.7181e-08 -0.000212146 3.75912e-07
 8.63073e-08 -0.000210309 2.35218e-07
 8.50981e-08 -0.000207235 8.51077e-08
 8.50901e-08 -0.000207236 -8.49459e-08
 8.62946e-08 -0.000210309 -2.35138e-07
 8.71713e-08 -0.000212146 -3.75674e-07
 8.73319e-08 -0.000211208 -4.64075e-07
 -8.73435e-08 -0.000211208 4.64233e-07
 -8.71858e-08 -0.000212146 3.75899e-07
 -8.63174e-08 -0.000210309 2.35225e-07
 -8.512e-08 -0.000207235 8.51143e-08
 -8.51286e-08 -0.000207236 -8.494e-08
 -8.63459e-08 -0.000210309 -2.35122e-07
 -8.72193e-08 -0.000212146 -3.75667e-07
 -8.73726e-08 -0.000211208 -4.64074e-07
 -2.4168e-07 -0.000214546 4.69038e-07
 -2.40978e-07 -0.000215431 3.80008e-07
 -2.38319e-07 -0.000213621 2.38334e-07
 -2.35219e-07 -0.000210309 8.63519e-08
 -2.3523e-07 -0.000210309 -8.61637e-08
 -2.38352e-07 -0.000213621 -2.38194e-07
 -2.41025e-07 -0.000215431 -3.79816e-07
 -2.41727e-07 -0.000214545 -4.68853e-07
 -3.87294e-07 -0.000216089 4.74525e-07
 -3.84342e-07 -0.000217495 3.84369e-07
 -3.79977e-07 -0.000215431 2.41023e-07
 -3.75859e-07 -0.000212146 8.72169e-08
 -3.75881e-07 -0.000212146 -8.70108e-08
 -3.80022e-07 -0.000215431 -2.40852e-07
 -3.84402e-07 -0.000217495 -3.84184e-07
 -3.8736e-07 -0.000216089 -4.74341e-07
 -4.78323e-07 -0.000215651 4.78336e-07
 -4.7448e-07 -0.000216089 3.8733e-07
 -4.68976e-07 -0.000214545 2.41713e-07
 -4.64182e-07 -0.000211208 8.74093e-08
 -4.64194e-07 -0.000211208 -8.71933e-08
 -4.69018e-07 -0.000214545 -2.41525e-07
 -4.74538e-07 -0.000216089 -3.8714e-07
 -4.78386e-07 -0.000215651 -4.78154e-07
 7.55232e-07 -0.000461289 7.55397e-07
 7.46611e-07 -0.00045594 6.18389e-07
 7.38438e-07 -0.000450328 3.99472e-07
 7.32815e-07 -0.000447117 1.42481e-07
 7.32818e-07 -0.000447118 -1.42367e-07
 7.38445e-07 -0.000450329 -3.99466e-07
 7.46635e-07 -0.000455942 -6.18244e-07
 7.55296e-07 -0.000461291 -7.55179e-07
 6.18315e-07 -0.000455939 7.46749e-07
 6.11844e-07 -0.00045023 6.11914e-07
 6.05353e-07 -0.000444749 3.95908e-07
 6.00338e-07 -0.000441667 1.41191e-07
 6.00337e-07 -0.000441667 -1.41082e-07
 6.05363e-07 -0.00044475 -3.95912e-07
 6.11867e-07 -0.000450232 -6.11781e-07
 6.18337e-07 -0.000455942 -7.46557e-07
 3.99486e-07 -0.000450326 7.38563e-07
 3.9594e-07 -0.000444748 6.05412e-07
 3.91955e-07 -0.000439211 3.91914e-07
 3.88392e-07 -0.000436306 1.39682e-07
 3.88387e-07 -0.000436307 -1.39588e-07
 3.91941e-07 -0.000439213 -3.91916e-07
 3.95927e-07 -0.00044475 -6.05293e-07
 3.99478e-07 -0.000450329 -7.3839e-07
 1.42407e-07 -0.000447115 7.32933e-07
 1.41119e-07 -0.000441665 6.00378e-07
 1.39612e-07 -0.000436306 3.88342e-07
 1.38256e-07 -0.000433057 1.38339e-07
 1.3825e-07 -0.000433057 -1.38246e-07
 1.39609e-07 -0.000436307 -3.88341e-07
 1.41116e-07 -0.000441667 -6.00273e-07
 1.42423e-07 -0.000447117 -7.32776e-07
 -1.42413e-07 -0.000447115 7.32919e-07
 -1.41125e-07 -0.000441665 6.00369e-07
 -1.3963e-07 -0.000436305 3.88343e-07
 -1.38291e-07 -0.000433057 1.38345e-07
 -1.38306e-07 -0.000433057 -1.38247e-07
 -1.39675e-07 -0.000436306 -3.88328e-07
 -1.41187e-07 -0.000441667 -6.00263e-07
 -1.42482e-07 -0.000447117 -7.3278e-07
 -3.99501e-07 -0.000450326 7.3853e-07
 -3.95953e-07 -0.000444747 6.0538e-07
 -3.9196e-07 -0.000439211 3.91911e-07
 -3.88425e-07 -0.000436306 1.39691e-07
 -3.88436e-07 -0.000436306 -1.39583e-07
 -3.91993e-07 -0.000439212 -3.91873e-07
 -3.95995e-07 -0.000444749 -6.05274e-07
 -3.99546e-07 -0.000450328 -7.38399e-07
 -6.1832e-07 -0.000455938 7.46695e-07
 -6.11848e-07 -0.000450229 6.11857e-07
 -6.05386e-07 -0.000444748 3.9592e-07
 -6.0037e-07 -0.000441666 1.41188e-07
 -6.00386e-07 -0.000441666 -1.41076e-07
 -6.05443e-07 -0.000444749 -3.95856e-07
 -6.11928e-07 -0.00045023 -6.11739e-07
 -6.18405e-07 -0.000455941 -7.46576e-07
 -7.55226e-07 -0.000461287 7.55311e-07
 -7.4661e-07 -0.000455939 6.18326e-07
 -7.38442e-07 -0.000450327 3.99459e-07
 -7.32846e-07 -0.000447116 1.42501e-07
 -7.32872e-07 -0.000447116 -1.42386e-07
 -7.38499e-07 -0.000450328 -3.99369e-07
 -7.46698e-07 -0.00045594 -6.18228e-07
 -7.55347e-07 -0.00046129 -7.55177e-07
 1.04605e-06 -0.000641575 1.04621e-06
 1.02857e-06 -0.000636412 8.65695e-07
 1.01585e-06 -0.000629359 5.718e-07
 1.0126e-06 -0.000621472 1.95236e-07
 1.0126e-06 -0.000621472 -1.95185e-07
 1.0159e-06 -0.000629359 -5.71735e-07
 1.02861e-06 -0.00063641 -8.65724e-07
 1.04611e-06 -0.000641572 -1.04602e-06
 8.65696e-07 -0.000636412 1.02871e-06
 8.51608e-07 -0.000632209 8.51597e-07
 8.40878e-07 -0.000624573 5.62875e-07
 8.38178e-07 -0.000616807 1.92445e-07
 8.38174e-07 -0.000616807 -1.92408e-07
 8.40864e-07 -0.000624572 -5.62817e-07
 8.51607e-07 -0.000632208 -8.51634e-07
 8.65705e-07 -0.00063641 -1.02853e-06
 5.71803e-07 -0.00062936 1.016e-06
 5.62887e-07 -0.000624573 8.40839e-07
 5.55975e-07 -0.000617759 5.55942e-07
 5.53777e-07 -0.000609664 1.90144e-07
 5.53772e-07 -0.000609664 -1.90126e-07
 5.55934e-07 -0.000617758 -5.55884e-07
 5.6288e-07 -0.000624572 -8.40863e-07
 5.71796e-07 -0.000629358 -1.01586e-06
 1.95142e-07 -0.000621473 1.0127e-06
 1.92359e-07 -0.000616808 8.38147e-07
 1.9004e-07 -0.000609665 5.53774e-07
 1.89232e-07 -0.000602207 1.89302e-07
 1.89234e-07 -0.000602207 -1.89291e-07
 1.90069e-07 -0.000609665 -5.5372e-07
 1.92356e-07 -0.000616807 -8.38171e-07
 1.95152e-07 -0.000621471 -1.01257e-06
 -1.95131e-07 -0.000621473 1.01269e-06
 -1.92355e-07 -0.000616808 8.38146e-07
 -1.90047e-07 -0.000609665 5.53769e-07
 -1.89258e-07 -0.000602207 1.8931e-07
 -1.89275e-07 -0.000602207 -1.89289e-07
 -1.90125e-07 -0.000609665 -5.53719e-07
 -1.92419e-07 -0.000616807 -8.38162e-07
 -1.95209e-07 -0.000621471 -1.01257e-06
 -5.71781e-07 -0.00062936 1.01596e-06
 -5.62872e-07 -0.000624573 8.40834e-07
 -5.55978e-07 -0.000617758 5.55927e-07
 -5.53796e-07 -0.000609664 1.90156e-07
 -5.53812e-07 -0.000609664 -1.90124e-07
 -5.55982e-07 -0.000617758 -5.5587e-07
 -5.62926e-07 -0.000624572 -8.40832e-07
 -5.71848e-07 -0.000629358 -1.01586e-06
 -8.65677e-07 -0.000636411 1.02866e-06
 -8.51596e-07 -0.000632209 8.51576e-07
 -8.40873e-07 -0.000624573 5.62854e-07
 -8.38188e-07 -0.000616807 1.92461e-07
 -8.382e-07 -0.000616807 -1.92406e-07
 -8.40899e-07 -0.000624572 -5.62789e-07
 -8.5165e-07 -0.000632208 -8.51591e-07
 -8.65742e-07 -0.000636409 -1.02853e-06
 -1.046e-06 -0.000641574 1.04614e-06
 -1.02853e-06 -0.000636411 8.65676e-07
 -1.01583e-06 -0.000629359 5.71763e-07
 -1.0126e-06 -0.000621472 1.95254e-07
 -1.01262e-06 -0.000621472 -1.95192e-07
 -1.01593e-06 -0.000629358 -5.717e-07
 -1.02864e-06 -0.00063641 -8.65666e-07
 -1.04614e-06 -0.000641572 -1.04602e-06
 1.27579e-06 -0.000959756 1.27573e-06
 1.25381e-06 -0.000945122 1.06988e-06
 1.23895e-06 -0.000932621 7.03042e-07
 1.23455e-06 -0.000926802 2.45781e-07
 1.23455e-06 -0.000926802 -2.45742e-07
 1.23895e-06 -0.000932622 -7.02989e-07
 1.25381e-06 -0.000945122 -1.06977e-06
 1.2758e-06 -0.000959756 -1.27574e-06
 1.06981e-06 -0.000945122 1.25374e-06
 1.05121e-06 -0.000931558 1.05126e-06
 1.03858e-06 -0.00091907 6.91379e-07
 1.03526e-06 -0.000913451 2.4192e-07
 1.03526e-06 -0.000913451 -2.4189e-07
 1.03857e-06 -0.00091907 -6.91331e-07
 1.05121e-06 -0.000931558 -1.05116e-06
 1.06981e-06 -0.000945122 -1.25376e-06
 7.02945e-07 -0.000932621 1.23887e-06
 6.91295e-07 -0.00091907 1.03863e-06
 6.83153e-07 -0.0009062 6.83217e-07
 6.80648e-07 -0.0009013 2.39013e-07
 6.80657e-07 -0.0009013 -2.38995e-07
 6.83173e-07 -0.0009062 -6.83177e-07
 6.91325e-07 -0.00091907 -1.03854e-06
 7.02994e-07 -0.000932622 -1.2389e-06
 2.45822e-07 -0.000926802 1.23446e-06
 2.41958e-07 -0.000913451 1.03532e-06
 2.39044e-07 -0.0009013 6.80705e-07
 2.38106e-07 -0.000895586 2.38067e-07
 2.38086e-07 -0.000895586 -2.38043e-07
 2.39023e-07 -0.0009013 -6.80675e-07
 2.41928e-07 -0.000913451 -1.03523e-06
 2.45783e-07 -0.000926802 -1.23449e-06
 -2.45763e-07 -0.000926802 1.23445e-06
 -2.41912e-07 -0.000913451 1.03531e-06
 -2.39013e-07 -0.0009013 6.80707e-07
 -2.38092e-07 -0.000895586 2.38066e-07
 -2.38082e-07 -0.000895586 -2.38042e-07
 -2.39028e-07 -0.0009013 -6.80673e-07
 -2.41936e-07 -0.000913451 -1.03523e-06
 -2.45793e-07 -0.000926802 -1.23447e-06
 -7.0289e-07 -0.000932621 1.23886e-06
 -6.91249e-07 -0.000919069 1.0386e-06
 -6.83117e-07 -0.0009062 6.83225e-07
 -6.80629e-07 -0.0009013 2.39008e-07
 -6.80653e-07 -0.0009013 -2.38981e-07
 -6.83171e-07 -0.0009062 -6.83179e-07
 -6.91328e-07 -0.00091907 -1.03853e-06
 -7.03002e-07 -0.000932622 -1.23886e-06
 -1.06973e-06 -0.000945121 1.25371e-06
 -1.05115e-06 -0.000931557 1.05123e-06
 -1.03855e-06 -0.000919069 6.91373e-07
 -1.03525e-06 -0.00091345 2.41915e-07
 -1.03527e-06 -0.00091345 -2.41878e-07
 -1.0386e-06 -0.00091907 -6.91326e-07
 -1.05123e-06 -0.000931558 -1.05115e-06
 -1.06983e-06 -0.000945122 -1.2537e-06
 -1.2757e-06 -0.000959755 1.27569e-06
 -1.25373e-06 -0.000945121 1.06983e-06
 -1.23888e-06 -0.000932621 7.03037e-07
 -1.23449e-06 -0.000926801 2.45773e-07
 -1.2345e-06 -0.000926802 -2.45728e-07
 -1.2389e-06 -0.000932621 -7.02981e-07
 -1.25376e-06 -0.000945122 -1.06975e-06
 -1.27575e-06 -0.000959757 -1.27566e-06
 1.4073e-06 -0.00128946 1.40726e-06
 1.38533e-06 -0.00127133 1.17669e-06
 1.36839e-06 -0.0012541 7.79005e-07
 1.36267e-06 -0.00124446 2.71586e-07
 1.36267e-06 -0.00124446 -2.71518e-07
 1.36839e-06 -0.0012541 -7.78931e-07
 1.38533e-06 -0.00127133 -1.17667e-06
 1.40731e-06 -0.00128946 -1.40724e-06