MercuryDPM 0.14 name oneDimChain revision 6406 repository https://svn.mercurydpm.org/SourceCode/Branches/OomphlibCouplingExplicit
dataFile    fileType ONE_FILE saveCount 124 counter 102 lastSavedTimeStep 12443
fStatFile   fileType ONE_FILE saveCount 124 counter 102 lastSavedTimeStep 12443
eneFile     fileType ONE_FILE saveCount 124 counter 102 lastSavedTimeStep 12443
restartFile fileType ONE_FILE saveCount 124 counter 102 lastSavedTimeStep 12443
statFile    fileType ONE_FILE saveCount 124 counter 0
interactionFile fileType NO_FILE saveCount 0 counter 0
xMin -500 xMax 500 yMin -5000 yMax 5000 zMin -500 zMax 500
timeStep 0.00803718916976729 time 100.006744839431 ntimeSteps 12443 timeMax 100
systemDimensions 3 particleDimensions 3 gravity 0 0 -0 writeVTK 1 MULTIPLE_FILES NO_FILE 102 102 0 0 random  0 1103515245 12345 1073741824 607 273 784607267
Species 1
LinearViscoelasticReversibleAdhesiveSpecies id 0 density 2500 stiffness 10000000000 dissipation -0 adhesionForceMax 0 adhesionStiffness 10000000000
Walls 0
Boundaries 0
Particles 7680
BaseParticle id 0 indSpecies 0 position -350.000104428679 2049.70710248257 -350.000233900909 orientation 1 0 0 0 velocity 1.15023184986508e-05 0.0329187928024668 -6.59921127445305e-05 angularVelocity 0 0 0 force 77431.5608760409 48419208.5168175 69094.6671885049 torque 0 0 0 radius 50 invMass 7.63943726841098e-10
BaseParticle id 1 indSpecies 0 position -350.000615186549 2049.72209875579 -250.00012338194 orientation 1 0 0 0 velocity -1.23317244169662e-05 0.0333219805621478 -8.35664728339447e-06 angularVelocity 0 0 0 force 69353.580609647 -38902549.2081975 60769.0830360867 torque 0 0 0 radius 50 invMass 7.63943726841098e-10
BaseParticle id 2 indSpecies 0 position -350.00054192776 2049.71279088257 -150.000108258589 orientation 1 0 0 0 velocity 7.47266718106535e-06 0.0367224998457992 3.84351144573609e-07 angularVelocity 0 0 0 force 64711.6337386212 46767578.1649191 42087.3083699598 torque 0 0 0 radius 50 invMass 7.63943726841098e-10
BaseParticle id 3 indSpecies 0 position -350.000453014809 2049.69899430585 -50.0000695104319 orientation 1 0 0 0 velocity -9.66129628173865e-06 0.0518257596511006 0.000175284531899028 angularVelocity 0 0 0 force 64978.4546393818 46560872.4680636 12131.4192112629 torque 0 0 0 radius 50 invMass 7.63943726841098e-10
BaseParticle id 4 indSpecies 0 position -350.000462200137 2049.70007544977 50.0000344470413 orientation 1 0 0 0 velocity -1.63140817987511e-05 0.0525805541370423 -2.43597302366932e-05 angularVelocity 0 0 0 force 68782.2797019967 46729957.7339265 -23150.1851543271 torque 0 0 0 radius 50 invMass 7.63943726841098e-10
BaseParticle id 5 indSpecies 0 position -350.000458424905 2049.71208106271 150.000120701548 orientation 1 0 0 0 velocity 7.01591637242753e-07 0.0377984313462074 -2.15342595520311e-05 angularVelocity 0 0 0 force 72904.204059787 47238892.41368 -51737.8319107516 torque 0 0 0 radius 50 invMass 7.63943726841098e-10
BaseParticle id 6 indSpecies 0 position -350.000675311901 2049.72160549297 250.000190959777 orientation 1 0 0 0 velocity -5.13975827664347e-05 0.0252543221722924 -2.86105396263743e-05 angularVelocity 0 0 0 force 75854.8911653888 -90931523.6532691 -167301.419125127 torque 0 0 0 radius 50 invMass 7.63943726841098e-10
BaseParticle id 7 indSpecies 0 position -350.000307298099 2049.71140614369 350.00018053207 orientation 1 0 0 0 velocity -9.83842506195483e-05 0.0240876090615923 2.53221094914694e-05 angularVelocity 0 0 0 force 78158.7570372837 28939931.4062255 24427.030663771 torque 0 0 0 radius 50 invMass 7.63943726841098e-10
BaseParticle id 8 indSpecies 0 position -250.000097064093 2049.72345641369 -350.000767210755 orientation 1 0 0 0 velocity 6.80521954401635e-05 0.0309179358555246 -4.30951461767832e-05 angularVelocity 0 0 0 force 69327.7652373408 -47722591.6446501 61227.4822462992 torque 0 0 0 radius 50 invMass 7.63943726841098e-10
BaseParticle id 9 indSpecies 0 position -250.000327039406 2049.69907238178 -250.000161434082 orientation 1 0 0 0 velocity 4.19899037458627e-05 0.027808715718905 1.78942615802934e-05 angularVelocity 0 0 0 force 62715.063707968 -55675536.0117223 -19906.317094175 torque 0 0 0 radius 50 invMass 7.63943726841098e-10
BaseParticle id 10 indSpecies 0 position -250.000383529417 2049.71061799877 -150.000169519304 orientation 1 0 0 0 velocity -5.54126949862807e-06 0.0327263988980559 7.82208126578809e-05 angularVelocity 0 0 0 force 59102.7488121329 45724856.6416294 110934.686912002 torque 0 0 0 radius 50 invMass 7.63943726841098e-10
BaseParticle id 11 indSpecies 0 position -250.000230135212 2049.71239772997 -49.9999746871433 orientation 1 0 0 0 velocity -3.91287714779765e-05 0.0345786868124296 -8.55959343811783e-05 angularVelocity 0 0 0 force 60146.8609388794 45561280.0965272 8477.39809899251 torque 0 0 0 radius 50 invMass 7.63943726841098e-10
BaseParticle id 12 indSpecies 0 position -250.000284925063 2049.71270344715 50.0001169942367 orientation 1 0 0 0 velocity -5.16732167886541e-05 0.0341384219958248 -9.58548011553313e-05 angularVelocity 0 0 0 force 63683.9192219596 45743357.4798889 -24703.6373628127 torque 0 0 0 radius 50 invMass 7.63943726841098e-10
BaseParticle id 13 indSpecies 0 position -250.000374088895 2049.70993402504 150.000122660635 orientation 1 0 0 0 velocity -7.96115874257327e-05 0.0328494775525329 -8.37771768815256e-06 angularVelocity 0 0 0 force 66912.923854354 46230249.0310729 -51662.4312677596 torque 0 0 0 radius 50 invMass 7.63943726841098e-10
BaseParticle id 14 indSpecies 0 position -250.000202053365 2049.70436812503 250.000157016269 orientation 1 0 0 0 velocity 4.71012445198878e-05 0.036590292774992 0.000121459107278636 angularVelocity 0 0 0 force 69650.0519987464 -105412942.332888 -67602.0485975121 torque 0 0 0 radius 50 invMass 7.63943726841098e-10
BaseParticle id 15 indSpecies 0 position -250.000204147139 2049.7203186218 350.0006819648 orientation 1 0 0 0 velocity -2.57022911446355e-05 0.0273315274262491 3.83099561522938e-05 angularVelocity 0 0 0 force 70715.5291343754 -79124369.7670701 -73093.747851487 torque 0 0 0 radius 50 invMass 7.63943726841098e-10
BaseParticle id 16 indSpecies 0 position -150.000094697605 2049.71008353447 -350.000452038478 orientation 1 0 0 0 velocity 2.6260344096961e-05 0.0356017010864624 1.17217569202335e-05 angularVelocity 0 0 0 force 51470.756048306 46228113.9789685 32492.6592722222 torque 0 0 0 radius 50 invMass 7.63943726841098e-10
BaseParticle id 17 indSpecies 0 position -150.000034679019 2049.70943814197 -250.000454529812 orientation 1 0 0 0 velocity 1.99153738049499e-05 0.0318863507831868 -1.20495741898867e-05 angularVelocity 0 0 0 force -156803.115359533 45395592.536123 75706.6645556248 torque 0 0 0 radius 50 invMass 7.63943726841098e-10
BaseParticle id 18 indSpecies 0 position -150.000354177173 2049.70957965204 -150.000436255223 orientation 1 0 0 0 velocity -6.3576189285654e-05 0.017178694949265 -7.28821759510097e-05 angularVelocity 0 0 0 force 44742.4464438467 44781744.5444524 34538.1766883311 torque 0 0 0 radius 50 invMass 7.63943726841098e-10
BaseParticle id 19 indSpecies 0 position -150.000209464828 2049.68414569711 -50.0002854066771 orientation 1 0 0 0 velocity 6.61077293558868e-05 0.0137292385992289 -4.18523646899309e-05 angularVelocity 0 0 0 force 46516.2292859804 44657453.4469616 7344.59308660131 torque 0 0 0 radius 50 invMass 7.63943726841098e-10
BaseParticle id 20 indSpecies 0 position -150.000241334084 2049.68149063441 50.0002709492259 orientation 1 0 0 0 velocity 6.16286309309582e-05 0.0153040953353564 3.43160259174755e-05 angularVelocity 0 0 0 force 49965.9767471086 44863987.5641116 -24510.569295464 torque 0 0 0 radius 50 invMass 7.63943726841098e-10
BaseParticle id 21 indSpecies 0 position -150.000295693704 2049.71373646322 150.000429738198 orientation 1 0 0 0 velocity -2.08494875212671e-05 0.0218776214576972 7.10910076099762e-05 angularVelocity 0 0 0 force 52534.3527256822 45356244.1198838 -50562.9904610941 torque 0 0 0 radius 50 invMass 7.63943726841098e-10
BaseParticle id 22 indSpecies 0 position -150.000051931564 2049.71046975498 250.000465641596 orientation 1 0 0 0 velocity -0.000114284788739516 0.03272095968055 1.17596620405813e-05 angularVelocity 0 0 0 force 53806.6993902355 46238368.4472363 -65564.1881696633 torque 0 0 0 radius 50 invMass 7.63943726841098e-10
BaseParticle id 23 indSpecies 0 position -150.000146833581 2049.71530189484 350.000466447007 orientation 1 0 0 0 velocity -2.41381563928109e-05 0.0343681582196778 -1.21659449863893e-05 angularVelocity 0 0 0 force -176710.767925718 47241880.3419756 -71209.0280863579 torque 0 0 0 radius 50 invMass 7.63943726841098e-10
BaseParticle id 24 indSpecies 0 position -49.9999946237619 2049.70099655361 -350.000443913496 orientation 1 0 0 0 velocity 5.29866124900799e-05 0.0526057193902962 -8.54384588702071e-06 angularVelocity 0 0 0 force 22371.3407956255 45552822.4994876 58963.0484432971 torque 0 0 0 radius 50 invMass 7.63943726841098e-10
BaseParticle id 25 indSpecies 0 position -50.0000550989503 2049.71328748349 -250.000297900818 orientation 1 0 0 0 velocity -4.99008224895971e-05 0.0366413772448946 -4.24153545812153e-05 angularVelocity 0 0 0 force 223383.784073201 44769422.2835696 52918.9363088001 torque 0 0 0 radius 50 invMass 7.63943726841098e-10
BaseParticle id 26 indSpecies 0 position -50.0001903207058 2049.68636926369 -150.000208936698 orientation 1 0 0 0 velocity 7.24143964398296e-06 0.0187008500478942 5.52098171850645e-05 angularVelocity 0 0 0 force 19907.8468389543 44200192.1534658 36909.6385625733 torque 0 0 0 radius 50 invMass 7.63943726841098e-10
BaseParticle id 27 indSpecies 0 position -50.0000929394787 2049.68440514339 -50.0000513588066 orientation 1 0 0 0 velocity -4.9533970527998e-05 0.0417830504138761 -5.67725166407255e-05 angularVelocity 0 0 0 force 22680.7835519276 -123493928.181901 9921.66426197434 torque 0 0 0 radius 50 invMass 7.63943726841098e-10
BaseParticle id 28 indSpecies 0 position -49.9999663175408 2049.68507229296 50.0000661927093 orientation 1 0 0 0 velocity -4.05535990602866e-05 0.0459168144226475 4.77232860910773e-05 angularVelocity 0 0 0 force 26573.6138804377 -146817591.260463 -22143.8154577412 torque 0 0 0 radius 50 invMass 7.63943726841098e-10
BaseParticle id 29 indSpecies 0 position -50.0002974540172 2049.68288838761 150.000211615009 orientation 1 0 0 0 velocity -7.1663696543933e-06 0.0129492828580912 -7.53172511380132e-05 angularVelocity 0 0 0 force 28316.7777189484 44893210.6214201 -48359.1240602434 torque 0 0 0 radius 50 invMass 7.63943726841098e-10
BaseParticle id 30 indSpecies 0 position -50.0000459844489 2049.70663720883 250.000283117709 orientation 1 0 0 0 velocity 1.56238727500728e-05 0.0355446176091553 3.93471893242702e-05 angularVelocity 0 0 0 force 28109.5079127415 45788896.6605239 -63466.8001871777 torque 0 0 0 radius 50 invMass 7.63943726841098e-10
BaseParticle id 31 indSpecies 0 position -50.000170691155 2049.70263672844 350.000427155508 orientation 1 0 0 0 velocity 0.000127690725938904 0.0544990270468221 -3.54185125484941e-06 angularVelocity 0 0 0 force 256702.548631878 46780087.1933989 -68851.5288481998 torque 0 0 0 radius 50 invMass 7.63943726841098e-10
BaseParticle id 32 indSpecies 0 position 50.000092031056 2049.7031890929 -350.000464056896 orientation 1 0 0 0 velocity -0.000142665258486297 0.0534568228812204 -1.63353229609237e-05 angularVelocity 0 0 0 force -201632.695884822 45186007.1887322 65138.2504698625 torque 0 0 0 radius 50 invMass 7.63943726841098e-10
BaseParticle id 33 indSpecies 0 position 49.999962868271 2049.71397015044 -250.000315068614 orientation 1 0 0 0 velocity -3.08648834623535e-05 0.0358824122972534 -4.63191286007917e-05 angularVelocity 0 0 0 force -12622.6659195752 44431495.4896741 58628.9491043074 torque 0 0 0 radius 50 invMass 7.63943726841098e-10
BaseParticle id 34 indSpecies 0 position 50.0001362854819 2049.68698935607 -150.000218210692 orientation 1 0 0 0 velocity 2.09951019855119e-06 0.0181420172057012 4.853236137841e-05 angularVelocity 0 0 0 force -10300.0854181571 43894618.408811 42238.9606837211 torque 0 0 0 radius 50 invMass 7.63943726841098e-10
BaseParticle id 35 indSpecies 0 position 49.9999962141994 2049.68459589806 -50.0000519285997 orientation 1 0 0 0 velocity 4.89849471429968e-05 0.0389360903855989 -6.047461238979e-05 angularVelocity 0 0 0 force -6691.2794448642 -97796779.2456593 14786.500239895 torque 0 0 0 radius 50 invMass 7.63943726841098e-10
BaseParticle id 36 indSpecies 0 position 50.0000787763081 2049.68514575252 50.0000546918957 orientation 1 0 0 0 velocity 5.57671261031838e-05 0.0446873360563873 4.27786500089085e-05 angularVelocity 0 0 0 force -2618.80576396064 -142456439.767749 -18112.5056383821 torque 0 0 0 radius 50 invMass 7.63943726841098e-10
BaseParticle id 37 indSpecies 0 position 50.0002469661381 2049.68500887195 150.000226395826 orientation 1 0 0 0 velocity -9.93211193812251e-06 0.013590129968616 -7.88089853994956e-05 angularVelocity 0 0 0 force -1051.05751146784 44734539.8985225 -45249.0135769787 torque 0 0 0 radius 50 invMass 7.63943726841098e-10
BaseParticle id 38 indSpecies 0 position 50.0000293703678 2049.70821161232 250.000281234614 orientation 1 0 0 0 velocity 4.61721483784903e-06 0.0362628130290608 3.77077603767643e-05 angularVelocity 0 0 0 force -2981.23582312894 45670940.4070354 -61086.8363752912 torque 0 0 0 radius 50 invMass 7.63943726841098e-10
BaseParticle id 39 indSpecies 0 position 50.0000544572345 2049.70195455366 350.00044189842 orientation 1 0 0 0 velocity -3.4797773477349e-05 0.0537911883010398 -5.18311470478863e-06 angularVelocity 0 0 0 force -7262.46874177632 46693071.50557 -66936.7575635531 torque 0 0 0 radius 50 invMass 7.63943726841098e-10
BaseParticle id 40 indSpecies 0 position 150.00007295093 2049.71007438994 -350.000450952753 orientation 1 0 0 0 velocity -7.55962807154136e-05 0.0366720855593357 1.87836474666304e-07 angularVelocity 0 0 0 force 144172.731950363 45228980.5570908 72741.9722962572 torque 0 0 0 radius 50 invMass 7.63943726841098e-10
BaseParticle id 41 indSpecies 0 position 150.000080250596 2049.70944252945 -250.00043531131 orientation 1 0 0 0 velocity 0.000106480181447302 0.0352615965200012 -4.48659368354862e-05 angularVelocity 0 0 0 force -40910.1284994094 44467818.3201537 -100357.930175626 torque 0 0 0 radius 50 invMass 7.63943726841098e-10
BaseParticle id 42 indSpecies 0 position 150.000380814705 2049.71033271951 -150.000451862562 orientation 1 0 0 0 velocity 8.3255680434372e-05 0.0144451345604694 -6.26965827576211e-05 angularVelocity 0 0 0 force -36427.488759015 43940863.4871165 213231.207340034 torque 0 0 0 radius 50 invMass 7.63943726841098e-10
BaseParticle id 43 indSpecies 0 position 150.00023279466 2049.68591492816 -50.0003339309991 orientation 1 0 0 0 velocity -5.71109766847903e-05 0.0107857297077692 -5.28993903738476e-05 angularVelocity 0 0 0 force -31514.5922993737 43931139.5364551 19160.0698408771 torque 0 0 0 radius 50 invMass 7.63943726841098e-10
BaseParticle id 44 indSpecies 0 position 150.000149677424 2049.6852477649 50.0003107363811 orientation 1 0 0 0 velocity -6.43969352191318e-05 0.0154130281575658 2.41702149875085e-05 angularVelocity 0 0 0 force -27230.6775687536 44284343.3557314 -14925.1640927231 torque 0 0 0 radius 50 invMass 7.63943726841098e-10
BaseParticle id 45 indSpecies 0 position 150.000267275168 2049.71340370663 150.000424231891 orientation 1 0 0 0 velocity 2.37120410836311e-05 0.0198530719943792 5.8210172188677e-05 angularVelocity 0 0 0 force -25988.4787884526 44919608.0047389 -103056.066118945 torque 0 0 0 radius 50 invMass 7.63943726841098e-10
BaseParticle id 46 indSpecies 0 position 150.000048367736 2049.70380093237 250.000417825996 orientation 1 0 0 0 velocity -4.5220728883747e-05 0.0282903892396951 -5.44554874844811e-06 angularVelocity 0 0 0 force -365084.109701318 45915794.4655626 -1335.42174874795 torque 0 0 0 radius 50 invMass 7.63943726841098e-10
BaseParticle id 47 indSpecies 0 position 150.000181376599 2049.71387438633 350.000446046647 orientation 1 0 0 0 velocity -2.94603960121475e-05 0.0361068811514385 -2.59023486712507e-05 angularVelocity 0 0 0 force -35056.2905332631 47002358.7701079 -67966.7903919497 torque 0 0 0 radius 50 invMass 7.63943726841098e-10
BaseParticle id 48 indSpecies 0 position 250.000083182844 2049.69897349248 -350.000818522007 orientation 1 0 0 0 velocity 8.20113579621039e-05 0.111813971315456 -7.16713545263031e-05 angularVelocity 0 0 0 force -65492.6608867232 -103045517.410416 79756.3701770089 torque 0 0 0 radius 50 invMass 7.63943726841098e-10
BaseParticle id 49 indSpecies 0 position 250.000115445071 2049.70144737603 -250.000013637787 orientation 1 0 0 0 velocity -5.57682348173233e-05 0.0478530122509572 1.72772814852484e-06 angularVelocity 0 0 0 force -60175.9673648448 -160741336.280547 -336208.790800361 torque 0 0 0 radius 50 invMass 7.63943726841098e-10
BaseParticle id 50 indSpecies 0 position 250.000460565465 2049.70451020095 -150.000054517764 orientation 1 0 0 0 velocity 3.46636792816669e-05 0.0327236483991719 -3.48135124834089e-05 angularVelocity 0 0 0 force -53234.3716636377 44488863.0395139 460798.73625124 torque 0 0 0 radius 50 invMass 7.63943726841098e-10
BaseParticle id 51 indSpecies 0 position 250.000304946008 2049.71331886505 -50.0000529307515 orientation 1 0 0 0 velocity 5.90601463497767e-05 0.0356603939629402 -4.34570625599716e-05 angularVelocity 0 0 0 force -46972.6088085365 44496225.9477195 21893.3186736718 torque 0 0 0 radius 50 invMass 7.63943726841098e-10
BaseParticle id 52 indSpecies 0 position 250.000265660703 2049.7077911419 49.9999613658595 orientation 1 0 0 0 velocity 4.62981637796106e-05 0.0401682288869075 -1.14318717594794e-05 angularVelocity 0 0 0 force -42002.3426830622 44898161.5521351 -14664.7764671869 torque 0 0 0 radius 50 invMass 7.63943726841098e-10
BaseParticle id 53 indSpecies 0 position 250.000380866546 2049.7086038238 150.000024207419 orientation 1 0 0 0 velocity 7.40784545878866e-05 0.0326471168395934 7.63852440919542e-05 angularVelocity 0 0 0 force -40822.5293038159 45597535.1539878 -45526.8949624084 torque 0 0 0 radius 50 invMass 7.63943726841098e-10
BaseParticle id 54 indSpecies 0 position 250.000014769799 2049.70395808472 250.000054806846 orientation 1 0 0 0 velocity 3.15312031609113e-05 0.0301021754334855 -9.29004643247043e-05 angularVelocity 0 0 0 force 290717.66012568 -62626695.2178421 -64980.350356541 torque 0 0 0 radius 50 invMass 7.63943726841098e-10
BaseParticle id 55 indSpecies 0 position 250.000272092223 2049.71995715043 350.000808289753 orientation 1 0 0 0 velocity 3.49643482558633e-05 0.02408529070535 4.01877767960074e-05 angularVelocity 0 0 0 force -51727.4094021771 -87222954.1298875 -73013.5646264527 torque 0 0 0 radius 50 invMass 7.63943726841098e-10
BaseParticle id 56 indSpecies 0 position 350.000102619158 2049.7144379737 -350.000172520326 orientation 1 0 0 0 velocity 0.000107049064536739 0.0368519880607568 1.92284022706197e-05 angularVelocity 0 0 0 force -77009.1291739001 46651015.3454099 86206.2165952019 torque 0 0 0 radius 50 invMass 7.63943726841098e-10
BaseParticle id 57 indSpecies 0 position 350.000925740495 2049.72950936221 -250.000167193608 orientation 1 0 0 0 velocity 8.34395036218326e-05 0.0209019289183201 -3.20239967892337e-05 angularVelocity 0 0 0 force -69153.7907756452 -122812757.985837 76515.6289986009 torque 0 0 0 radius 50 invMass 7.63943726841098e-10
BaseParticle id 58 indSpecies 0 position 350.000525998657 2049.71330519169 -150.000100912626 orientation 1 0 0 0 velocity 5.53017316527648e-06 0.0373250662385371 -1.13984846372664e-06 angularVelocity 0 0 0 force -61658.5588691945 45257992.1352717 55849.4468713956 torque 0 0 0 radius 50 invMass 7.63943726841098e-10
BaseParticle id 59 indSpecies 0 position 350.000456665244 2049.70504771952 -50.0000744429752 orientation 1 0 0 0 velocity 1.76545452393706e-05 0.0538649774559561 1.81291552034929e-05 angularVelocity 0 0 0 force -53725.1596892586 45269517.9371478 22746.1200022723 torque 0 0 0 radius 50 invMass 7.63943726841098e-10
BaseParticle id 60 indSpecies 0 position 350.00043434525 2049.70438116671 50.0000775885783 orientation 1 0 0 0 velocity 1.2005387232741e-05 0.0547738225285107 -5.00530217925446e-05 angularVelocity 0 0 0 force -47813.2251003718 45717109.3876973 -16897.4221201898 torque 0 0 0 radius 50 invMass 7.63943726841098e-10
BaseParticle id 61 indSpecies 0 position 350.000486249309 2049.71156949204 150.000090239328 orientation 1 0 0 0 velocity -8.17698710774176e-06 0.034591465956692 -0.000110453435516234 angularVelocity 0 0 0 force -46761.6822971044 46487083.8821085 -50307.7170093212 torque 0 0 0 radius 50 invMass 7.63943726841098e-10
BaseParticle id 62 indSpecies 0 position 350.000838846337 2049.72004596278 250.000099614286 orientation 1 0 0 0 velocity 5.70220734853374e-05 0.0227836275814273 -3.75078488280825e-05 angularVelocity 0 0 0 force -50909.3255655781 -66177771.1690561 -71498.8492923884 torque 0 0 0 radius 50 invMass 7.63943726841098e-10
BaseParticle id 63 indSpecies 0 position 350.000291668002 2049.71223223501 350.000150327625 orientation 1 0 0 0 velocity -3.00166795382984e-05 0.0318013471880337 3.47385498398422e-05 angularVelocity 0 0 0 force -59023.0295592237 48857907.5158832 -81615.0328050545 torque 0 0 0 radius 50 invMass 7.63943726841098e-10
BaseParticle id 64 indSpecies 0 position -350.000169766591 2149.71720929523 -350.000235111201 orientation 1 0 0 0 velocity 2.53741221435494e-05 0.0356092194909998 -8.96591401151264e-05 angularVelocity 0 0 0 force -96557.0420608588 1127154.63960699 39074.626848986 torque 0 0 0 radius 50 invMass 7.63943726841098e-10
BaseParticle id 65 indSpecies 0 position -350.000375437639 2149.71366268502 -250.000161165014 orientation 1 0 0 0 velocity -1.96608888075015e-05 0.0817672856315558 2.95770812437488e-05 angularVelocity 0 0 0 force 38737.9435050518 -132153309.194295 38285.2463338234 torque 0 0 0 radius 50 invMass 7.63943726841098e-10
BaseParticle id 66 indSpecies 0 position -350.00010696692 2149.71763919738 -150.000017013589 orientation 1 0 0 0 velocity 6.16481695246632e-06 0.0196199850155612 -2.28441694673346e-06 angularVelocity 0 0 0 force -160883.527100588 38079323.5596036 29742.2415015268 torque 0 0 0 radius 50 invMass 7.63943726841098e-10
BaseParticle id 67 indSpecies 0 position -350.000208063466 2149.72454682436 -49.9999991872183 orientation 1 0 0 0 velocity 2.30882764835706e-05 0.0354690020682303 -1.77676432824219e-05 angularVelocity 0 0 0 force 30175.3788032169 24327302.557963 12085.1667140076 torque 0 0 0 radius 50 invMass 7.63943726841098e-10
BaseParticle id 68 indSpecies 0 position -350.000203868247 2149.72644236463 50.0000216364894 orientation 1 0 0 0 velocity 1.8355054209564e-05 0.0352100183033915 2.96195610220912e-05 angularVelocity 0 0 0 force 30839.6290414753 16651761.2766192 -9583.57710617203 torque 0 0 0 radius 50 invMass 7.63943726841098e-10
BaseParticle id 69 indSpecies 0 position -350.000102797778 2149.72145380395 150.000038686218 orientation 1 0 0 0 velocity -3.69805968718896e-05 0.0252736536651541 9.90151657909603e-06 angularVelocity 0 0 0 force -45089.6149840454 23639993.3260095 -26141.71671258 torque 0 0 0 radius 50 invMass 7.63943726841098e-10
BaseParticle id 70 indSpecies 0 position -350.000369491605 2149.7080199167 250.000133393979 orientation 1 0 0 0 velocity -4.05299123098538e-05 0.0890392147574156 5.45072387295999e-05 angularVelocity 0 0 0 force 33833.6070976849 -30329521.0915866 -32805.383814641 torque 0 0 0 radius 50 invMass 7.63943726841098e-10
BaseParticle id 71 indSpecies 0 position -350.000166109651 2149.7094223096 350.000176363333 orientation 1 0 0 0 velocity 1.50712210172748e-06 0.0394508947128226 -1.03981925692796e-05 angularVelocity 0 0 0 force -71895.0446750189 52456600.2837339 -31387.011795071 torque 0 0 0 radius 50 invMass 7.63943726841098e-10
BaseParticle id 72 indSpecies 0 position -250.00018420163 2149.71417918931 -350.000344106186 orientation 1 0 0 0 velocity -2.9194563776503e-05 0.0822938182923024 -3.42814239327263e-05 angularVelocity 0 0 0 force 190151.443378813 -110081815.036244 31206.134723283 torque 0 0 0 radius 50 invMass 7.63943726841098e-10
BaseParticle id 73 indSpecies 0 position -250.000355635391 2149.68910503296 -250.000280286839 orientation 1 0 0 0 velocity -6.05440383122187e-05 0.0982398526828832 -6.48837820257943e-05 angularVelocity 0 0 0 force 38968.9479191222 -31989888.9246229 30544.4784594496 torque 0 0 0 radius 50 invMass 7.63943726841098e-10
BaseParticle id 74 indSpecies 0 position -250.000126310938 2149.71757364583 -150.000085087491 orientation 1 0 0 0 velocity 1.68034967342221e-05 0.0159485411544384 -1.35030091718125e-06 angularVelocity 0 0 0 force 227501.237688308 -3343723.16180511 23256.2083603414 torque 0 0 0 radius 50 invMass 7.63943726841098e-10
BaseParticle id 75 indSpecies 0 position -250.000081795234 2149.71688963818 -50.0000706991511 orientation 1 0 0 0 velocity -0.000137281861578851 0.0170231745338654 -2.42506989710487e-05 angularVelocity 0 0 0 force -20987.7130271151 -34020595.4796873 7123.80771940345 torque 0 0 0 radius 50 invMass 7.63943726841098e-10
BaseParticle id 76 indSpecies 0 position -250.000103856971 2149.71658339449 49.9999799658485 orientation 1 0 0 0 velocity -0.000128634229871923 0.0159284272458839 -9.50338813018886e-07 angularVelocity 0 0 0 force 32857.6364156886 -36962870.5065217 -12561.7599366005 torque 0 0 0 radius 50 invMass 7.63943726841098e-10
BaseParticle id 77 indSpecies 0 position -250.000110606993 2149.71779077332 150.000030548046 orientation 1 0 0 0 velocity 3.73380371886863e-05 0.0194752747661137 -1.5545545268441e-05 angularVelocity 0 0 0 force 111119.593513665 -1168216.48343827 -27548.3022132266 torque 0 0 0 radius 50 invMass 7.63943726841098e-10
BaseParticle id 78 indSpecies 0 position -250.000311802199 2149.68947032486 250.000285710007 orientation 1 0 0 0 velocity -7.04537388656729e-05 0.0947064381797985 6.85365784937347e-05 angularVelocity 0 0 0 force 33790.0812649021 39255902.3350245 -33163.9650921075 torque 0 0 0 radius 50 invMass 7.63943726841098e-10
BaseParticle id 79 indSpecies 0 position -250.000176677211 2149.70788702868 350.000451871851 orientation 1 0 0 0 velocity -6.33505859502541e-05 0.0885031660674022 5.00157361523026e-05 angularVelocity 0 0 0 force 139368.051611309 -52597699.5884295 -31687.0632522378 torque 0 0 0 radius 50 invMass 7.63943726841098e-10
BaseParticle id 80 indSpecies 0 position -150.000072834353 2149.71370504255 -350.000099169618 orientation 1 0 0 0 velocity 1.08858537749625e-05 0.0231987195910066 -5.3719752648437e-05 angularVelocity 0 0 0 force 37900.0561652551 37690514.3799342 24524.9150631737 torque 0 0 0 radius 50 invMass 7.63943726841098e-10
BaseParticle id 81 indSpecies 0 position -150.000095135916 2149.71808795629 -250.000094393869 orientation 1 0 0 0 velocity 5.64698203491787e-06 0.0174476478610231 3.63489537483933e-05 angularVelocity 0 0 0 force 32059.7625465934 -10795252.8899918 25907.0878246796 torque 0 0 0 radius 50 invMass 7.63943726841098e-10
BaseParticle id 82 indSpecies 0 position -150.000079829372 2149.71363054201 -150.000069974889 orientation 1 0 0 0 velocity 1.62455366268998e-05 0.0483575260647638 -9.00459747796161e-07 angularVelocity 0 0 0 force 28365.0005498108 -90679483.5279311 19265.3783954432 torque 0 0 0 radius 50 invMass 7.63943726841098e-10
BaseParticle id 83 indSpecies 0 position -150.000091046623 2149.6889190041 -49.9999593759483 orientation 1 0 0 0 velocity -2.82948123870248e-05 0.0490893574018726 -1.40610304271278e-06 angularVelocity 0 0 0 force 80918.8687030568 -102307348.563613 -671123.041224484 torque 0 0 0 radius 50 invMass 7.63943726841098e-10
BaseParticle id 84 indSpecies 0 position -150.000096760174 2149.68769830242 49.9999730531136 orientation 1 0 0 0 velocity -4.81454437741639e-05 0.0441572546780191 -1.94708215489526e-06 angularVelocity 0 0 0 force 28014.6030495024 -82864299.5132591 661413.121632767 torque 0 0 0 radius 50 invMass 7.63943726841098e-10
BaseParticle id 85 indSpecies 0 position -150.000073099102 2149.71823635253 150.000036764513 orientation 1 0 0 0 velocity 5.11229211499565e-06 0.0515167540571339 -3.14423434799916e-05 angularVelocity 0 0 0 force 28076.6636162107 -102840758.850237 -28249.2076678976 torque 0 0 0 radius 50 invMass 7.63943726841098e-10
BaseParticle id 86 indSpecies 0 position -150.000092146576 2149.71868888413 250.000085322897 orientation 1 0 0 0 velocity -1.17195860296701e-05 0.0191780804220644 -4.9864107227365e-05 angularVelocity 0 0 0 force 27715.819942256 -8614649.11651821 -33695.2750235927 torque 0 0 0 radius 50 invMass 7.63943726841098e-10
BaseParticle id 87 indSpecies 0 position -150.000061185415 2149.72376996532 350.0001016554 orientation 1 0 0 0 velocity -1.06078039089526e-05 0.0295657890009376 5.19782879679173e-05 angularVelocity 0 0 0 force 26411.256490659 7089400.69534539 -31368.7472424543 torque 0 0 0 radius 50 invMass 7.63943726841098e-10
BaseParticle id 88 indSpecies 0 position -50.0000155000128 2149.72016545842 -350.000230601817 orientation 1 0 0 0 velocity -1.23919600335504e-05 0.0380463539789183 -7.51240122151174e-06 angularVelocity 0 0 0 force 20300.104371785 37138364.1207058 23016.4592513482 torque 0 0 0 radius 50 invMass 7.63943726841098e-10
BaseParticle id 89 indSpecies 0 position -50.000002548302 2149.71863991589 -250.000150804685 orientation 1 0 0 0 velocity 4.71634881888451e-05 0.0189233548658546 -0.000138056116110052 angularVelocity 0 0 0 force 16632.0004374007 -37000575.8066921 24919.3357312993 torque 0 0 0 radius 50 invMass 7.63943726841098e-10
BaseParticle id 90 indSpecies 0 position -49.9999815909298 2149.68961269252 -150.000118937207 orientation 1 0 0 0 velocity 0.000135580006049167 0.0484114416089433 -0.000113934092094383 angularVelocity 0 0 0 force -213083.273572386 -104665740.414697 18785.879242028 torque 0 0 0 radius 50 invMass 7.63943726841098e-10