<?xml version="1.0"?>
<VTKFile type="UnstructuredGrid" version="0.1" byte_order="LittleEndian" compressor="vtkZLibDataCompressor">
<UnstructuredGrid>
<Piece NumberOfPoints="960" NumberOfCells="120">
<Points>
<DataArray type="Float32" NumberOfComponents="3" format="ascii">
-4.000000e+02 -6.000000e+03 -4.000000e+02
0.000000e+00 -6.000000e+03 -4.000000e+02
-4.000000e+02 -5.600000e+03 -4.000000e+02
-9.009280e-10 -5.600000e+03 -4.000000e+02
-4.000000e+02 -6.000000e+03 0.000000e+00
0.000000e+00 -6.000000e+03 0.000000e+00
-4.000000e+02 -5.600000e+03 1.090050e-10
-1.029090e-09 -5.600000e+03 3.037540e-10
0.000000e+00 -6.000000e+03 -4.000000e+02
4.000000e+02 -6.000000e+03 -4.000000e+02
-9.009280e-10 -5.600000e+03 -4.000000e+02
4.000000e+02 -5.600000e+03 -4.000000e+02
0.000000e+00 -6.000000e+03 0.000000e+00
4.000000e+02 -6.000000e+03 0.000000e+00
-1.029090e-09 -5.600000e+03 3.037540e-10
4.000000e+02 -5.600000e+03 -1.300380e-10
-4.000000e+02 -5.600000e+03 -4.000000e+02
-9.009280e-10 -5.600000e+03 -4.000000e+02
-4.000000e+02 -5.200000e+03 -4.000000e+02
-1.080930e-09 -5.200000e+03 -4.000000e+02
-4.000000e+02 -5.600000e+03 1.090050e-10
-1.029090e-09 -5.600000e+03 3.037540e-10
-4.000000e+02 -5.200000e+03 -5.147790e-10
-9.854180e-10 -5.200000e+03 -5.107500e-10
-9.009280e-10 -5.600000e+03 -4.000000e+02
4.000000e+02 -5.600000e+03 -4.000000e+02
-1.080930e-09 -5.200000e+03 -4.000000e+02
4.000000e+02 -5.200000e+03 -4.000000e+02
-1.029090e-09 -5.600000e+03 3.037540e-10
4.000000e+02 -5.600000e+03 -1.300380e-10
-9.854180e-10 -5.200000e+03 -5.107500e-10
4.000000e+02 -5.200000e+03 -5.716250e-10
-4.000000e+02 -5.200000e+03 -4.000000e+02
-1.080930e-09 -5.200000e+03 -4.000000e+02
-4.000000e+02 -4.799990e+03 -4.000000e+02
-5.289470e-10 -4.799990e+03 -4.000000e+02
-4.000000e+02 -5.200000e+03 -5.147790e-10
-9.854180e-10 -5.200000e+03 -5.107500e-10
-4.000000e+02 -4.799990e+03 -1.512520e-10
-1.014670e-10 -4.799990e+03 -7.541770e-10
-1.080930e-09 -5.200000e+03 -4.000000e+02
4.000000e+02 -5.200000e+03 -4.000000e+02
-5.289470e-10 -4.799990e+03 -4.000000e+02
4.000000e+02 -4.799990e+03 -4.000000e+02
-9.854180e-10 -5.200000e+03 -5.107500e-10
4.000000e+02 -5.200000e+03 -5.716250e-10
-1.014670e-10 -4.799990e+03 -7.541770e-10
4.000000e+02 -4.799990e+03 -7.712070e-10
-4.000000e+02 -4.799990e+03 -4.000000e+02
-5.289470e-10 -4.799990e+03 -4.000000e+02
-4.000000e+02 -4.399980e+03 -4.000000e+02
-4.030500e-11 -4.399980e+03 -4.000000e+02
-4.000000e+02 -4.799990e+03 -1.512520e-10
-1.014670e-10 -4.799990e+03 -7.541770e-10
-4.000000e+02 -4.399980e+03 -6.082430e-10
-4.066280e-10 -4.399980e+03 -1.103920e-09
-5.289470e-10 -4.799990e+03 -4.000000e+02
4.000000e+02 -4.799990e+03 -4.000000e+02
-4.030500e-11 -4.399980e+03 -4.000000e+02
4.000000e+02 -4.399980e+03 -4.000000e+02
-1.014670e-10 -4.799990e+03 -7.541770e-10
4.000000e+02 -4.799990e+03 -7.712070e-10
-4.066280e-10 -4.399980e+03 -1.103920e-09
4.000000e+02 -4.399980e+03 -1.235650e-09
-4.000000e+02 -4.399980e+03 -4.000000e+02
-4.030500e-11 -4.399980e+03 -4.000000e+02
-4.000000e+02 -4.000010e+03 -4.000000e+02
-3.555200e-10 -4.000010e+03 -4.000000e+02
-4.000000e+02 -4.399980e+03 -6.082430e-10
-4.066280e-10 -4.399980e+03 -1.103920e-09
-4.000000e+02 -4.000010e+03 -4.450310e-10
-5.246780e-10 -4.000010e+03 -3.718360e-10
-4.030500e-11 -4.399980e+03 -4.000000e+02
4.000000e+02 -4.399980e+03 -4.000000e+02
-3.555200e-10 -4.000010e+03 -4.000000e+02
4.000000e+02 -4.000010e+03 -4.000000e+02
-4.066280e-10 -4.399980e+03 -1.103920e-09
4.000000e+02 -4.399980e+03 -1.235650e-09
-5.246780e-10 -4.000010e+03 -3.718360e-10
4.000000e+02 -4.000010e+03 -5.972620e-10
-4.000000e+02 -4.000010e+03 -4.000000e+02
-3.555200e-10 -4.000010e+03 -4.000000e+02
-4.000000e+02 -3.600080e+03 -4.000000e+02
-9.023480e-10 -3.600080e+03 -4.000000e+02
-4.000000e+02 -4.000010e+03 -4.450310e-10
-5.246780e-10 -4.000010e+03 -3.718360e-10
-4.000000e+02 -3.600080e+03 -2.097060e-11
-7.758580e-10 -3.600080e+03 -1.740670e-10
-3.555200e-10 -4.000010e+03 -4.000000e+02
4.000000e+02 -4.000010e+03 -4.000000e+02
-9.023480e-10 -3.600080e+03 -4.000000e+02
4.000000e+02 -3.600080e+03 -4.000000e+02
-5.246780e-10 -4.000010e+03 -3.718360e-10
4.000000e+02 -4.000010e+03 -5.972620e-10
-7.758580e-10 -3.600080e+03 -1.740670e-10
4.000000e+02 -3.600080e+03 -2.139990e-10
-4.000000e+02 -3.600080e+03 -4.000000e+02
-9.023480e-10 -3.600080e+03 -4.000000e+02
-4.000000e+02 -3.200160e+03 -4.000000e+02
-7.140330e-10 -3.200160e+03 -4.000000e+02
-4.000000e+02 -3.600080e+03 -2.097060e-11
-7.758580e-10 -3.600080e+03 -1.740670e-10
-4.000000e+02 -3.200160e+03 -1.512660e-10
-6.211740e-10 -3.200160e+03 -1.786540e-10
-9.023480e-10 -3.600080e+03 -4.000000e+02
4.000000e+02 -3.600080e+03 -4.000000e+02
-7.140330e-10 -3.200160e+03 -4.000000e+02
4.000000e+02 -3.200160e+03 -4.000000e+02
-7.758580e-10 -3.600080e+03 -1.740670e-10
4.000000e+02 -3.600080e+03 -2.139990e-10
-6.211740e-10 -3.200160e+03 -1.786540e-10
4.000000e+02 -3.200160e+03 2.327240e-11
-4.000000e+02 -3.200160e+03 -4.000000e+02
-7.140330e-10 -3.200160e+03 -4.000000e+02
-4.000000e+02 -2.800220e+03 -4.000000e+02
-7.612410e-10 -2.800220e+03 -4.000000e+02
-4.000000e+02 -3.200160e+03 -1.512660e-10
-6.211740e-10 -3.200160e+03 -1.786540e-10
-4.000000e+02 -2.800220e+03 -6.209560e-10
-4.905630e-10 -2.800220e+03 -1.372970e-10
-7.140330e-10 -3.200160e+03 -4.000000e+02
4.000000e+02 -3.200160e+03 -4.000000e+02
-7.612410e-10 -2.800220e+03 -4.000000e+02
4.000000e+02 -2.800220e+03 -4.000000e+02
-6.211740e-10 -3.200160e+03 -1.786540e-10
4.000000e+02 -3.200160e+03 2.327240e-11
-4.905630e-10 -2.800220e+03 -1.372970e-10
4.000000e+02 -2.800220e+03 -3.191740e-11
-4.000000e+02 -2.800220e+03 -4.000000e+02
-7.612410e-10 -2.800220e+03 -4.000000e+02
-4.000000e+02 -2.400260e+03 -4.000000e+02
-7.787880e-10 -2.400260e+03 -4.000000e+02
-4.000000e+02 -2.800220e+03 -6.209560e-10
-4.905630e-10 -2.800220e+03 -1.372970e-10
-4.000000e+02 -2.400260e+03 -9.260460e-10
-9.656710e-10 -2.400260e+03 -3.671720e-10
-7.612410e-10 -2.800220e+03 -4.000000e+02
4.000000e+02 -2.800220e+03 -4.000000e+02
-7.787880e-10 -2.400260e+03 -4.000000e+02
4.000000e+02 -2.400260e+03 -4.000000e+02
-4.905630e-10 -2.800220e+03 -1.372970e-10
4.000000e+02 -2.800220e+03 -3.191740e-11
-9.656710e-10 -2.400260e+03 -3.671720e-10
4.000000e+02 -2.400260e+03 -8.638310e-11
-4.000000e+02 -2.400260e+03 -4.000000e+02
-7.787880e-10 -2.400260e+03 -4.000000e+02
-4.000000e+02 -2.000280e+03 -4.000000e+02
-6.142060e-10 -2.000280e+03 -4.000000e+02
-4.000000e+02 -2.400260e+03 -9.260460e-10
-9.656710e-10 -2.400260e+03 -3.671720e-10
-4.000000e+02 -2.000280e+03 2.924220e-10
-5.478080e-10 -2.000280e+03 2.327640e-10
-7.787880e-10 -2.400260e+03 -4.000000e+02
4.000000e+02 -2.400260e+03 -4.000000e+02
-6.142060e-10 -2.000280e+03 -4.000000e+02
4.000000e+02 -2.000280e+03 -4.000000e+02
-9.656710e-10 -2.400260e+03 -3.671720e-10
4.000000e+02 -2.400260e+03 -8.638310e-11
-5.478080e-10 -2.000280e+03 2.327640e-10
4.000000e+02 -2.000280e+03 4.037220e-10
-4.000000e+02 -2.000280e+03 -4.000000e+02
-6.142060e-10 -2.000280e+03 -4.000000e+02
-4.000000e+02 -1.600290e+03 -4.000000e+02
-9.682750e-10 -1.600290e+03 -4.000000e+02
-4.000000e+02 -2.000280e+03 2.924220e-10
-5.478080e-10 -2.000280e+03 2.327640e-10
-4.000000e+02 -1.600290e+03 1.487660e-09
-3.484710e-10 -1.600290e+03 1.000700e-09
-6.142060e-10 -2.000280e+03 -4.000000e+02
4.000000e+02 -2.000280e+03 -4.000000e+02
-9.682750e-10 -1.600290e+03 -4.000000e+02
4.000000e+02 -1.600290e+03 -4.000000e+02
-5.478080e-10 -2.000280e+03 2.327640e-10
4.000000e+02 -2.000280e+03 4.037220e-10
-3.484710e-10 -1.600290e+03 1.000700e-09
4.000000e+02 -1.600290e+03 9.045140e-10
-4.000000e+02 -1.600290e+03 -4.000000e+02
-9.682750e-10 -1.600290e+03 -4.000000e+02
-4.000000e+02 -1.200300e+03 -4.000000e+02
-6.468750e-10 -1.200300e+03 -4.000000e+02
-4.000000e+02 -1.600290e+03 1.487660e-09
-3.484710e-10 -1.600290e+03 1.000700e-09
-4.000000e+02 -1.200300e+03 1.944060e-09
-2.467110e-10 -1.200300e+03 1.615920e-09
-9.682750e-10 -1.600290e+03 -4.000000e+02
4.000000e+02 -1.600290e+03 -4.000000e+02
-6.468750e-10 -1.200300e+03 -4.000000e+02
4.000000e+02 -1.200300e+03 -4.000000e+02
-3.484710e-10 -1.600290e+03 1.000700e-09
4.000000e+02 -1.600290e+03 9.045140e-10
-2.467110e-10 -1.200300e+03 1.615920e-09
4.000000e+02 -1.200300e+03 1.456730e-09
-4.000000e+02 -1.200300e+03 -4.000000e+02
-6.468750e-10 -1.200300e+03 -4.000000e+02
-4.000000e+02 -8.003000e+02 -4.000000e+02
-4.012770e-10 -8.003000e+02 -4.000000e+02
-4.000000e+02 -1.200300e+03 1.944060e-09
-2.467110e-10 -1.200300e+03 1.615920e-09
-4.000000e+02 -8.003000e+02 1.650390e-09
2.976850e-10 -8.003000e+02 1.847490e-09
-6.468750e-10 -1.200300e+03 -4.000000e+02
4.000000e+02 -1.200300e+03 -4.000000e+02
-4.012770e-10 -8.003000e+02 -4.000000e+02
4.000000e+02 -8.003000e+02 -4.000000e+02
-2.467110e-10 -1.200300e+03 1.615920e-09
4.000000e+02 -1.200300e+03 1.456730e-09
2.976850e-10 -8.003000e+02 1.847490e-09
4.000000e+02 -8.003000e+02 1.288690e-09
-4.000000e+02 -8.003000e+02 -4.000000e+02
-4.012770e-10 -8.003000e+02 -4.000000e+02
-4.000000e+02 -4.003020e+02 -4.000000e+02
1.432630e-10 -4.003020e+02 -4.000000e+02
-4.000000e+02 -8.003000e+02 1.650390e-09
2.976850e-10 -8.003000e+02 1.847490e-09
-4.000000e+02 -4.003020e+02 1.872130e-09
5.027950e-10 -4.003020e+02 1.471950e-09
-4.012770e-10 -8.003000e+02 -4.000000e+02
4.000000e+02 -8.003000e+02 -4.000000e+02
1.432630e-10 -4.003020e+02 -4.000000e+02
4.000000e+02 -4.003020e+02 -4.000000e+02
2.976850e-10 -8.003000e+02 1.847490e-09
4.000000e+02 -8.003000e+02 1.288690e-09
5.027950e-10 -4.003020e+02 1.471950e-09
4.000000e+02 -4.003020e+02 1.060930e-09
-4.000000e+02 -4.003020e+02 -4.000000e+02
1.432630e-10 -4.003020e+02 -4.000000e+02
-4.000000e+02 -3.035870e-01 -4.000000e+02
1.015030e-10 -3.035270e-01 -4.000000e+02
-4.000000e+02 -4.003020e+02 1.872130e-09
5.027950e-10 -4.003020e+02 1.471950e-09
-4.000000e+02 -3.035270e-01 2.167900e-09
5.210660e-10 -3.034630e-01 1.682680e-09
1.432630e-10 -4.003020e+02 -4.000000e+02
4.000000e+02 -4.003020e+02 -4.000000e+02
[...]
<PointData>
<DataArray type="Float32" Name="V1" format="ascii">
0.000000e+00
0.000000e+00
-2.350250e-07
-4.524890e-10
0.000000e+00
0.000000e+00
-2.379000e-07
8.596530e-10
0.000000e+00
0.000000e+00
-4.524890e-10
2.343180e-07
0.000000e+00
0.000000e+00
8.596530e-10
2.392200e-07
-2.350250e-07
-4.524890e-10
1.362290e-06
2.466660e-10
-2.379000e-07
8.596530e-10
1.375360e-06
-5.882900e-10
-4.524890e-10
2.343180e-07
2.466660e-10
-1.363750e-06
8.596530e-10
2.392200e-07
-5.882900e-10
-1.376350e-06
1.362290e-06
2.466660e-10
-3.091790e-06
-3.309650e-11
1.375360e-06
-5.882900e-10
-3.129190e-06
3.960700e-10
2.466660e-10
-1.363750e-06
-3.309650e-11
3.093370e-06
-5.882900e-10
-1.376350e-06
3.960700e-10
3.130470e-06
-3.091790e-06
-3.309650e-11
3.407690e-06
6.353080e-10
-3.129190e-06
3.960700e-10
3.499930e-06
-1.657690e-10
-3.309650e-11
3.093370e-06
6.353080e-10
-3.407720e-06
3.960700e-10
3.130470e-06
-1.657690e-10
-3.499270e-06
3.407690e-06
6.353080e-10
9.696830e-07
-4.641640e-10
3.499930e-06
-1.657690e-10
7.970160e-07
-2.906890e-11
6.353080e-10
-3.407720e-06
-4.641640e-10
-9.694940e-07
-1.657690e-10
-3.499270e-06
-2.906890e-11
-7.970480e-07
9.696830e-07
-4.641640e-10
-1.110590e-05
7.259310e-10
7.970160e-07
-2.906890e-11
-1.084270e-05
-1.829840e-10
-4.641640e-10
-9.694940e-07
7.259310e-10
1.110640e-05
-2.906890e-11
-7.970480e-07
-1.829840e-10
1.084210e-05
-1.110590e-05
7.259310e-10
2.030620e-05
1.848060e-10
-1.084270e-05
-1.829840e-10
2.001250e-05
4.096580e-11
7.259310e-10
1.110640e-05
1.848060e-10
-2.030600e-05
-1.829840e-10
1.084210e-05
4.096580e-11
-2.001300e-05
2.030620e-05
1.848060e-10
-1.405250e-05
-1.757170e-11
2.001250e-05
4.096580e-11
-1.394550e-05
3.509270e-11
1.848060e-10
-2.030600e-05
-1.757170e-11
1.405310e-05
4.096580e-11
-2.001300e-05
3.509270e-11
1.394550e-05
-1.405250e-05
-1.757170e-11
-1.607500e-05
-1.507950e-10
-1.394550e-05
3.509270e-11
-1.558300e-05
-4.627970e-10
-1.757170e-11
1.405310e-05
-1.507950e-10
1.607480e-05
3.509270e-11
1.394550e-05
-4.627970e-10
1.558250e-05
-1.607500e-05
-1.507950e-10
4.962770e-05
4.170610e-11
-1.558300e-05
-4.627970e-10
4.800730e-05
-7.283030e-11
-1.507950e-10
1.607480e-05
4.170610e-11
-4.962860e-05
-4.627970e-10
1.558250e-05
-7.283030e-11
-4.800740e-05
4.962770e-05
4.170610e-11
-3.766080e-05
1.024770e-10
4.800730e-05
-7.283030e-11
-3.472360e-05
1.986810e-10
4.170610e-11
-4.962860e-05
1.024770e-10
3.766170e-05
-7.283030e-11
-4.800740e-05
1.986810e-10
3.472420e-05
-3.766080e-05
1.024770e-10
-2.394780e-05
1.120220e-10
-3.472360e-05
1.986810e-10
-2.716250e-05
-1.510660e-11
1.024770e-10
3.766170e-05
1.120220e-10
2.394750e-05
1.986810e-10
3.472420e-05
-1.510660e-11
2.716260e-05
-2.394780e-05
1.120220e-10
3.692030e-05
3.622260e-10
-2.716250e-05
-1.510660e-11
3.774920e-05
2.029590e-11
1.120220e-10
2.394750e-05
3.622260e-10
-3.692060e-05
-1.510660e-11
2.716260e-05
2.029590e-11
-3.774930e-05
3.692030e-05
3.622260e-10
7.256490e-06
5.211130e-10
3.774920e-05
2.029590e-11
1.040280e-05
5.396040e-11
3.622260e-10
-3.692060e-05
5.211130e-10
-7.256540e-06
2.029590e-11
-3.774930e-05
5.396040e-11
-1.040280e-05
7.256490e-06
5.211130e-10
-1.034960e-05
2.406180e-10
1.040280e-05
5.396040e-11
-1.270670e-05
3.618880e-13
5.211130e-10
-7.256540e-06
2.406180e-10
1.035030e-05
5.396040e-11
-1.040280e-05
3.618880e-13
1.270620e-05
-1.034960e-05
2.406180e-10
-1.016550e-06
5.448500e-10
-1.270670e-05
3.618880e-13
-3.118640e-06
-3.240260e-11
2.406180e-10
1.035030e-05
5.448500e-10
1.016500e-06
3.618880e-13
1.270620e-05
-3.240260e-11
3.118070e-06
-1.016550e-06
5.448500e-10
1.422850e-05
1.794390e-10
-3.118640e-06
-3.240260e-11
1.210590e-05
1.006310e-10
5.448500e-10
1.016500e-06
1.794390e-10
-1.422880e-05
-3.240260e-11
3.118070e-06
1.006310e-10
-1.210550e-05
1.422850e-05
1.794390e-10
1.313930e-06
-1.143980e-10
1.210590e-05
1.006310e-10
6.428100e-07
-1.797190e-10
1.794390e-10
-1.422880e-05
-1.143980e-10
-1.313900e-06
1.006310e-10
-1.210550e-05
-1.797190e-10
-6.427000e-07
1.313930e-06
-1.143980e-10
3.846610e-05
2.011500e-10
6.428100e-07
-1.797190e-10
3.664550e-05
2.876870e-11
-1.143980e-10
-1.313900e-06
2.011500e-10
-3.846590e-05
-1.797190e-10
-6.427000e-07
2.876870e-11
-3.664610e-05
3.846610e-05
2.011500e-10
1.705780e-05
-1.779930e-09
3.664550e-05
2.876870e-11
1.420900e-05
-1.441200e-09
2.011500e-10
-3.846590e-05
-1.779930e-09
-1.705580e-05
2.876870e-11
-3.664610e-05
-1.441200e-09
-1.420670e-05
1.705780e-05
-1.779930e-09
-5.700740e-05
-2.555520e-09
1.420900e-05
-1.441200e-09
-5.865140e-05
-1.985160e-09
-1.779930e-09
-1.705580e-05
-2.555520e-09
5.701190e-05
-1.441200e-09
-1.420670e-05
-1.985160e-09
5.865590e-05
-5.700740e-05
-2.555520e-09
8.116360e-06
-4.797510e-10
-5.865140e-05
-1.985160e-09
1.423230e-05
-1.594690e-10
-2.555520e-09
5.701190e-05
-4.797510e-10
-8.113780e-06
-1.985160e-09
5.865590e-05
-1.594690e-10
-1.423040e-05
8.116360e-06
-4.797510e-10
6.776190e-05
-1.910200e-09
1.423230e-05
-1.594690e-10
7.285400e-05
-1.025660e-09
-4.797510e-10
-8.113780e-06
-1.910200e-09
-6.776200e-05
-1.594690e-10
-1.423040e-05
-1.025660e-09
-7.285380e-05
6.776190e-05
-1.910200e-09
-2.075320e-05
-6.578490e-10
7.285400e-05
-1.025660e-09
-2.525300e-05
-6.486320e-10
-1.910200e-09
-6.776200e-05
-6.578490e-10
2.075250e-05
-1.025660e-09
-7.285380e-05
-6.486320e-10
2.525180e-05
-2.075320e-05
-6.578490e-10
-4.166380e-05
1.607530e-09
-2.525300e-05
-6.486320e-10
-4.334400e-05
6.448440e-10
-6.578490e-10
2.075250e-05
1.607530e-09
4.166710e-05
-6.486320e-10
2.525180e-05
6.448440e-10
4.334530e-05
-4.166380e-05
1.607530e-09
1.254400e-05
-4.908070e-10
-4.334400e-05
6.448440e-10
1.364890e-05
-1.063720e-10
1.607530e-09
4.166710e-05
-4.908070e-10
-1.254500e-05
6.448440e-10
4.334530e-05
-1.063720e-10
-1.364910e-05
1.254400e-05
-4.908070e-10
1.128160e-05
-6.249970e-10
1.364890e-05
-1.063720e-10
1.042560e-05
-2.729890e-10
-4.908070e-10
-1.254500e-05
-6.249970e-10
-1.128290e-05
-1.063720e-10
-1.364910e-05
-2.729890e-10
-1.042610e-05
1.128160e-05
-6.249970e-10
-3.575100e-07
3.441480e-10
1.042560e-05
-2.729890e-10
-6.106650e-07
1.515540e-10
-6.249970e-10
-1.128290e-05
3.441480e-10
3.582480e-07
-2.729890e-10
-1.042610e-05
1.515540e-10
6.109950e-07
-3.575100e-07
3.441480e-10
5.329460e-06
-9.712590e-11
-6.106650e-07
1.515540e-10
5.825260e-06
-6.344250e-11
3.441480e-10
3.582480e-07
-9.712590e-11
-5.329630e-06
1.515540e-10
6.109950e-07
-6.344250e-11
-5.825400e-06
5.329460e-06
-9.712590e-11
1.837570e-06
6.204380e-12
5.825260e-06
-6.344250e-11
1.446320e-06
-4.472410e-11
-9.712590e-11
-5.329630e-06
6.204380e-12
-1.837570e-06
-6.344250e-11
-5.825400e-06
-4.472410e-11
-1.446410e-06
0.000000e+00
0.000000e+00
-2.379000e-07
8.596530e-10
0.000000e+00
0.000000e+00
-2.359670e-07
2.885380e-10
0.000000e+00
0.000000e+00
8.596530e-10
2.392200e-07
0.000000e+00
0.000000e+00
2.885380e-10
2.362340e-07
-2.379000e-07
8.596530e-10
1.375360e-06
-5.882900e-10
-2.359670e-07
2.885380e-10
1.363220e-06
9.849780e-10
8.596530e-10
2.392200e-07
-5.882900e-10
-1.376350e-06
2.885380e-10
2.362340e-07
9.849780e-10
-1.362480e-06
1.375360e-06
-5.882900e-10
-3.129190e-06
3.960700e-10
1.363220e-06
9.849780e-10
-3.091990e-06
9.607420e-11
-5.882900e-10
-1.376350e-06
3.960700e-10
3.130470e-06
9.849780e-10
-1.362480e-06
9.607420e-11
3.093040e-06
-3.129190e-06
3.960700e-10
3.499930e-06
-1.657690e-10
-3.091990e-06
9.607420e-11
3.407570e-06
-1.037850e-09
3.960700e-10
3.130470e-06
-1.657690e-10
-3.499270e-06
9.607420e-11
3.093040e-06
-1.037850e-09
-3.409190e-06
3.499930e-06
-1.657690e-10
7.970160e-07
-2.906890e-11
3.407570e-06
-1.037850e-09
9.699970e-07
2.078110e-10
-1.657690e-10
-3.499270e-06
-2.906890e-11
-7.970480e-07
-1.037850e-09
-3.409190e-06
2.078110e-10
-9.695100e-07
7.970160e-07
-2.906890e-11
-1.084270e-05
-1.829840e-10
9.699970e-07
2.078110e-10
-1.110570e-05
-2.759370e-10
-2.906890e-11
-7.970480e-07
-1.829840e-10
1.084210e-05
2.078110e-10
-9.695100e-07
-2.759370e-10
1.110560e-05
-1.084270e-05
-1.829840e-10
2.001250e-05
4.096580e-11
-1.110570e-05
-2.759370e-10
2.030550e-05
3.873790e-10
-1.829840e-10
1.084210e-05
4.096580e-11
-2.001300e-05
-2.759370e-10
1.110560e-05
3.873790e-10
-2.030580e-05
2.001250e-05
4.096580e-11
-1.394550e-05
3.509270e-11
2.030550e-05
3.873790e-10
-1.405210e-05
3.027570e-10
4.096580e-11
-2.001300e-05
3.509270e-11
1.394550e-05
3.873790e-10
-2.030580e-05
3.027570e-10
1.405220e-05
-1.394550e-05
3.509270e-11
-1.558300e-05
-4.627970e-10
-1.405210e-05
3.027570e-10
-1.607460e-05
-8.687050e-10
3.509270e-11
1.394550e-05
-4.627970e-10
1.558250e-05
3.027570e-10
1.405220e-05
-8.687050e-10
1.607340e-05
-1.558300e-05
-4.627970e-10
4.800730e-05
-7.283030e-11
-1.607460e-05
-8.687050e-10
4.962810e-05
1.210950e-10
-4.627970e-10
1.558250e-05
-7.283030e-11
-4.800740e-05
-8.687050e-10
1.607340e-05
1.210950e-10
-4.962820e-05
4.800730e-05
-7.283030e-11
-3.472360e-05
1.986810e-10
4.962810e-05
1.210950e-10
-3.766030e-05
3.404610e-11
-7.283030e-11
-4.800740e-05
1.986810e-10
3.472420e-05
1.210950e-10
-4.962820e-05
3.404610e-11
3.765980e-05
-3.472360e-05
1.986810e-10
-2.716250e-05
-1.510660e-11
-3.766030e-05
3.404610e-11
-2.394770e-05
-6.659030e-10
1.986810e-10
3.472420e-05
-1.510660e-11
2.716260e-05
3.404610e-11
3.765980e-05
-6.659030e-10
2.394640e-05
-2.716250e-05
-1.510660e-11
3.774920e-05
2.029590e-11
-2.394770e-05
-6.659030e-10
3.692100e-05
1.032910e-09
-1.510660e-11
2.716260e-05
2.029590e-11
-3.774930e-05
-6.659030e-10
2.394640e-05
1.032910e-09
-3.692030e-05
3.774920e-05
2.029590e-11
1.040280e-05
5.396040e-11
3.692100e-05
1.032910e-09
7.256370e-06
1.884880e-10
2.029590e-11
-3.774930e-05
5.396040e-11
-1.040280e-05
1.032910e-09
-3.692030e-05
1.884880e-10
-7.255280e-06
1.040280e-05
5.396040e-11
-1.270670e-05
3.618880e-13
7.256370e-06
1.884880e-10
-1.035030e-05
2.141550e-10
5.396040e-11
-1.040280e-05
3.618880e-13
1.270620e-05
1.884880e-10
-7.255280e-06
2.141550e-10
1.035130e-05
-1.270670e-05
3.618880e-13
-3.118640e-06
-3.240260e-11
-1.035030e-05
2.141550e-10
-1.016680e-06
-2.381690e-10
3.618880e-13
1.270620e-05
-3.240260e-11
3.118070e-06
2.141550e-10
1.035130e-05
-2.381690e-10
1.016020e-06
-3.118640e-06
-3.240260e-11
1.210590e-05
1.006310e-10
-1.016680e-06
-2.381690e-10
1.422930e-05
-1.255930e-10
-3.240260e-11
3.118070e-06
1.006310e-10
-1.210550e-05
-2.381690e-10
1.016020e-06
-1.255930e-10
-1.422970e-05
1.210590e-05
1.006310e-10
6.428100e-07
-1.797190e-10
1.422930e-05
-1.255930e-10
1.314480e-06
3.489580e-10
1.006310e-10
-1.210550e-05
-1.797190e-10
-6.427000e-07
-1.255930e-10
-1.422970e-05
3.489580e-10
-1.313670e-06
6.428100e-07
-1.797190e-10
3.664550e-05
2.876870e-11
1.314480e-06
3.489580e-10
3.846520e-05
4.651510e-11
-1.797190e-10
-6.427000e-07
2.876870e-11
-3.664610e-05
3.489580e-10
-1.313670e-06
4.651510e-11
-3.846610e-05
3.664550e-05
2.876870e-11
1.420900e-05
-1.441200e-09
3.846520e-05
4.651510e-11
1.705750e-05
-1.507000e-09
2.876870e-11
-3.664610e-05
-1.441200e-09
-1.420670e-05
4.651510e-11
-3.846610e-05
-1.507000e-09
-1.705570e-05
1.420900e-05
-1.441200e-09
-5.865140e-05
-1.985160e-09
1.705750e-05
-1.507000e-09
-5.700480e-05
-1.982270e-09
-1.441200e-09
-1.420670e-05
-1.985160e-09
5.865590e-05
-1.507000e-09
-1.705570e-05
-1.982270e-09
5.700940e-05
-5.865140e-05
-1.985160e-09
1.423230e-05
-1.594690e-10
-5.700480e-05
-1.982270e-09
8.121510e-06
-4.615360e-10
-1.985160e-09
5.865590e-05
-1.594690e-10
-1.423040e-05
-1.982270e-09
5.700940e-05
-4.615360e-10
-8.118700e-06
1.423230e-05
-1.594690e-10
7.285400e-05
-1.025660e-09
8.121510e-06
-4.615360e-10
6.776270e-05
-1.296490e-09
-1.594690e-10
-1.423040e-05
-1.025660e-09
-7.285380e-05
-4.615360e-10
-8.118700e-06
-1.296490e-09
-6.776060e-05
7.285400e-05
-1.025660e-09
-2.525300e-05
-6.486320e-10
6.776270e-05
-1.296490e-09
-2.075350e-05
-8.222110e-10
-1.025660e-09
-7.285380e-05
-6.486320e-10
2.525180e-05
-1.296490e-09
-6.776060e-05
-8.222110e-10
2.075250e-05
-2.525300e-05
-6.486320e-10
-4.334400e-05
6.448440e-10
-2.075350e-05
-8.222110e-10
-4.166540e-05
-2.567940e-11
-6.486320e-10
2.525180e-05
6.448440e-10
4.334530e-05
-8.222110e-10
2.075250e-05
-2.567940e-11
4.166530e-05
-4.334400e-05
6.448440e-10
1.364890e-05
-1.063720e-10
-4.166540e-05
-2.567940e-11
1.254430e-05
9.142570e-11
6.448440e-10
4.334530e-05
-1.063720e-10
-1.364910e-05
-2.567940e-11
4.166530e-05
9.142570e-11
-1.254410e-05
1.364890e-05
-1.063720e-10
1.042560e-05
-2.729890e-10
1.254430e-05
9.142570e-11
1.128220e-05
-4.892840e-11
-1.063720e-10
-1.364910e-05
-2.729890e-10
-1.042610e-05
9.142570e-11
-1.254410e-05
-4.892840e-11
-1.128230e-05
1.042560e-05
-2.729890e-10
-6.106650e-07
1.515540e-10
1.128220e-05
-4.892840e-11
-3.578080e-07
3.470570e-11
-2.729890e-10
-1.042610e-05
1.515540e-10
6.109950e-07
-4.892840e-11
-1.128230e-05
3.470570e-11
3.578400e-07
-6.106650e-07
1.515540e-10
5.825260e-06
-6.344250e-11
-3.578080e-07
3.470570e-11
5.329540e-06
-2.069720e-11
1.515540e-10
6.109950e-07
-6.344250e-11
-5.825400e-06
3.470570e-11
3.578400e-07
-2.069720e-11
-5.329590e-06
5.825260e-06
-6.344250e-11
1.446320e-06
-4.472410e-11
5.329540e-06
-2.069720e-11
1.837600e-06
-6.222510e-11
-6.344250e-11
-5.825400e-06
-4.472410e-11
-1.446410e-06
-2.069720e-11
-5.329590e-06
-6.222510e-11
-1.837730e-06
</DataArray>
<DataArray type="Float32" Name="V2" format="ascii">
0.000000e+00
0.000000e+00
-3.851310e-03
-3.852310e-03
0.000000e+00
0.000000e+00
-3.852310e-03
-3.853350e-03
0.000000e+00
0.000000e+00
-3.852310e-03
-3.851310e-03
0.000000e+00
0.000000e+00
-3.853350e-03
-3.852310e-03
-3.851310e-03
-3.852310e-03
1.708930e-03
1.710150e-03
-3.852310e-03
-3.853350e-03
1.710150e-03
1.711460e-03
-3.852310e-03
-3.851310e-03
1.710150e-03
1.708920e-03
-3.853350e-03
-3.852310e-03
1.711460e-03
1.710150e-03
1.708930e-03
1.710150e-03
1.340420e-02
1.340400e-02
1.710150e-03
1.711460e-03
1.340400e-02
1.340370e-02
1.710150e-03
1.708920e-03
1.340400e-02
1.340420e-02
1.711460e-03
1.710150e-03
1.340370e-02
1.340400e-02
1.340420e-02
1.340400e-02
-3.773980e-03
-3.777740e-03
1.340400e-02
1.340370e-02
-3.777740e-03
-3.781340e-03
1.340400e-02
1.340420e-02
-3.777740e-03
-3.773990e-03
1.340370e-02
1.340400e-02
-3.781340e-03
-3.777750e-03
-3.773980e-03
-3.777740e-03
-3.973640e-02
-3.972770e-02
-3.777740e-03
-3.781340e-03
-3.972770e-02
-3.971920e-02
-3.777740e-03
-3.773990e-03
-3.972770e-02
-3.973640e-02
-3.781340e-03
-3.777750e-03
-3.971920e-02
-3.972770e-02
-3.973640e-02
-3.972770e-02
-5.269910e-02
-5.270540e-02
-3.972770e-02
-3.971920e-02
-5.270540e-02
-5.271170e-02
-3.972770e-02
-3.973640e-02
-5.270540e-02
-5.269910e-02
-3.971920e-02
-3.972770e-02
-5.271170e-02
-5.270540e-02
-5.269910e-02
-5.270540e-02
-4.844590e-02
-4.845700e-02
-5.270540e-02
-5.271170e-02
-4.845700e-02
-4.846770e-02
-5.270540e-02
-5.269910e-02
-4.845700e-02
-4.844590e-02
-5.271170e-02
-5.270540e-02
-4.846770e-02
-4.845700e-02
-4.844590e-02
-4.845700e-02
-3.389410e-02
-3.386230e-02
-4.845700e-02
-4.846770e-02
-3.386230e-02
-3.383190e-02
-4.845700e-02
-4.844590e-02
-3.386230e-02
-3.389410e-02
-4.846770e-02
-4.845700e-02
-3.383190e-02
-3.386230e-02
-3.389410e-02
-3.386230e-02
-1.963750e-02
-1.965800e-02
-3.386230e-02
-3.383190e-02
-1.965800e-02
-1.967640e-02
-3.386230e-02
-3.389410e-02
-1.965800e-02
-1.963750e-02
-3.383190e-02
-3.386230e-02
-1.967640e-02
-1.965800e-02
-1.963750e-02
-1.965800e-02
-1.173610e-02
-1.176240e-02
-1.965800e-02
-1.967640e-02
-1.176240e-02
-1.179130e-02
-1.965800e-02
-1.963750e-02
-1.176240e-02
-1.173610e-02
-1.967640e-02
-1.965800e-02
-1.179130e-02
-1.176240e-02
-1.173610e-02
-1.176240e-02
-5.244910e-03
-5.199710e-03
-1.176240e-02
-1.179130e-02
-5.199720e-03
-5.152410e-03
-1.176240e-02
-1.173610e-02
-5.199710e-03
-5.244910e-03
-1.179130e-02
-1.176240e-02
-5.152410e-03
-5.199710e-03
-5.244910e-03
-5.199710e-03
-3.391830e-03
-3.425870e-03
-5.199720e-03
-5.152410e-03
-3.425860e-03
-3.460780e-03
-5.199710e-03
-5.244910e-03
-3.425870e-03
-3.391830e-03
-5.152410e-03
-5.199710e-03
-3.460780e-03
-3.425860e-03
-3.391830e-03
-3.425870e-03
-1.641880e-03
-1.620130e-03
-3.425860e-03
-3.460780e-03
-1.620130e-03
-1.600760e-03
-3.425870e-03
-3.391830e-03
-1.620130e-03
-1.641880e-03
-3.460780e-03
-3.425860e-03
-1.600760e-03
-1.620130e-03
-1.641880e-03
-1.620130e-03
-1.687790e-03
-1.594970e-03
-1.620130e-03
-1.600760e-03
-1.594970e-03
-1.492030e-03
-1.620130e-03
-1.641880e-03
-1.594970e-03
-1.687790e-03
-1.600760e-03
-1.620130e-03
-1.492030e-03
-1.594970e-03
-1.687790e-03
-1.594970e-03
-3.016430e-04
-3.306560e-04
-1.594970e-03
-1.492030e-03
-3.306560e-04
-3.733910e-04
-1.594970e-03
-1.687790e-03
-3.306560e-04
-3.016440e-04
-1.492030e-03
-1.594970e-03
-3.733910e-04
-3.306570e-04
-3.016430e-04
-3.306560e-04
-7.213210e-04
-8.055570e-04
-3.306560e-04
-3.733910e-04
-8.055590e-04
-8.961990e-04
-3.306560e-04
-3.016440e-04
-8.055570e-04
-7.213210e-04
-3.733910e-04
-3.306570e-04
-8.961990e-04
-8.055580e-04
-7.213210e-04
-8.055570e-04
-5.221690e-04
-5.900590e-04
-8.055590e-04
-8.961990e-04
-5.900580e-04
-6.447220e-04
-8.055570e-04
-7.213210e-04
-5.900590e-04
-5.221690e-04
-8.961990e-04
-8.055580e-04
-6.447220e-04
-5.900600e-04
-5.221690e-04
-5.900590e-04
-3.874380e-04
-4.205530e-04
-5.900580e-04
-6.447220e-04
-4.205500e-04
-4.572030e-04
-5.900590e-04
-5.221690e-04
-4.205530e-04
-3.874400e-04
-6.447220e-04
-5.900600e-04
-4.572030e-04
-4.205500e-04
-3.874380e-04
-4.205530e-04
-1.566180e-04
-1.890400e-04
-4.205500e-04
-4.572030e-04
-1.890400e-04
-2.266680e-04
-4.205530e-04
-3.874400e-04
-1.890400e-04
-1.566170e-04
-4.572030e-04
-4.205500e-04
-2.266680e-04
-1.890400e-04
-1.566180e-04
-1.890400e-04
-3.096030e-04
-2.391290e-04
-1.890400e-04
-2.266680e-04
-2.391300e-04
-1.766640e-04
-1.890400e-04
-1.566170e-04
-2.391290e-04
-3.096070e-04
-2.266680e-04
-1.890400e-04
-1.766640e-04
-2.391310e-04
-3.096030e-04
-2.391290e-04
-1.975350e-04
-2.107440e-04
-2.391300e-04
-1.766640e-04
-2.107430e-04
-2.871800e-04
-2.391290e-04
-3.096070e-04
-2.107440e-04
-1.975370e-04
-1.766640e-04
-2.391310e-04
-2.871800e-04
-2.107430e-04
-1.975350e-04
-2.107440e-04
2.339230e-04
2.799050e-04
-2.107430e-04
-2.871800e-04
2.799050e-04
1.835790e-04
-2.107440e-04
-1.975370e-04
2.799050e-04
2.339270e-04
-2.871800e-04
-2.107430e-04
1.835790e-04
2.799060e-04
2.339230e-04
2.799050e-04
1.755020e-04
9.465450e-05
2.799050e-04
1.835790e-04
9.465430e-05
7.059950e-05
2.799050e-04
2.339270e-04
9.465450e-05
1.755080e-04
1.835790e-04
2.799060e-04
7.059950e-05
9.465440e-05
1.755020e-04
9.465450e-05
8.864480e-05
5.032520e-05
9.465430e-05
7.059950e-05
5.034410e-05
1.504750e-04
9.465450e-05
1.755080e-04
5.032520e-05
8.860130e-05
7.059950e-05
9.465440e-05
1.504750e-04
5.033400e-05
8.864480e-05
5.032520e-05
3.362320e-04
5.029370e-04
5.034410e-05
1.504750e-04
5.028970e-04
6.057860e-04
5.032520e-05
8.860130e-05
5.029370e-04
3.363150e-04
1.504750e-04
5.033400e-05
6.057860e-04
5.029200e-04
3.362320e-04
5.029370e-04
8.397160e-04
7.285420e-04
5.028970e-04
6.057860e-04
7.285510e-04
5.834410e-04
5.029370e-04
3.363150e-04
7.285420e-04
8.396970e-04
6.057860e-04
5.029200e-04
5.834410e-04
7.285470e-04
8.397160e-04
7.285420e-04
5.515310e-04
5.436830e-04
7.285510e-04
5.834410e-04
5.436960e-04
5.546890e-04
7.285420e-04
8.396970e-04
5.436830e-04
5.515020e-04
5.834410e-04
7.285470e-04
5.546890e-04
5.436890e-04
5.515310e-04
5.436830e-04
6.066560e-04
6.863650e-04
5.436960e-04
5.546890e-04
6.863650e-04
7.565570e-04
5.436830e-04
5.515020e-04
6.863650e-04
6.066600e-04
5.546890e-04
5.436890e-04
7.565570e-04
6.863640e-04
6.066560e-04
6.863650e-04
5.941550e-04
5.601220e-04
6.863650e-04
7.565570e-04
5.601170e-04
5.238770e-04
6.863650e-04
6.066600e-04
5.601220e-04
5.941640e-04
7.565570e-04
6.863640e-04
5.238770e-04
5.601200e-04
5.941550e-04
5.601220e-04
-6.039050e-05
-4.732610e-05
5.601170e-04
5.238770e-04
-4.732330e-05
-2.596000e-05
5.601220e-04
5.941640e-04
-4.732610e-05
-6.039380e-05
5.238770e-04
5.601200e-04
-2.596000e-05
-4.732530e-05
0.000000e+00
0.000000e+00
-3.852310e-03
-3.853350e-03
0.000000e+00
0.000000e+00
-3.851310e-03
-3.852310e-03
0.000000e+00
0.000000e+00
-3.853350e-03
-3.852310e-03
0.000000e+00
0.000000e+00
-3.852310e-03
-3.851310e-03
-3.852310e-03
-3.853350e-03
1.710150e-03
1.711460e-03
-3.851310e-03
-3.852310e-03
1.708920e-03
1.710150e-03
-3.853350e-03