<?xml version="1.0"?>
<VTKFile type="UnstructuredGrid" version="0.1" byte_order="LittleEndian" compressor="vtkZLibDataCompressor">
<UnstructuredGrid>
<Piece NumberOfPoints="960" NumberOfCells="120">
<Points>
<DataArray type="Float32" NumberOfComponents="3" format="ascii">
-4.000000e+02 -6.000000e+03 -4.000000e+02
0.000000e+00 -6.000000e+03 -4.000000e+02
-4.000000e+02 -5.600000e+03 -4.000000e+02
-1.011220e-10 -5.600000e+03 -4.000000e+02
-4.000000e+02 -6.000000e+03 0.000000e+00
0.000000e+00 -6.000000e+03 0.000000e+00
-4.000000e+02 -5.600000e+03 -8.102400e-10
4.065230e-10 -5.600000e+03 4.444660e-11
0.000000e+00 -6.000000e+03 -4.000000e+02
4.000000e+02 -6.000000e+03 -4.000000e+02
-1.011220e-10 -5.600000e+03 -4.000000e+02
4.000000e+02 -5.600000e+03 -4.000000e+02
0.000000e+00 -6.000000e+03 0.000000e+00
4.000000e+02 -6.000000e+03 0.000000e+00
4.065230e-10 -5.600000e+03 4.444660e-11
4.000000e+02 -5.600000e+03 6.055760e-10
-4.000000e+02 -5.600000e+03 -4.000000e+02
-1.011220e-10 -5.600000e+03 -4.000000e+02
-4.000000e+02 -5.200000e+03 -4.000000e+02
7.057230e-10 -5.200000e+03 -4.000000e+02
-4.000000e+02 -5.600000e+03 -8.102400e-10
4.065230e-10 -5.600000e+03 4.444660e-11
-4.000000e+02 -5.200000e+03 1.234390e-09
-6.674270e-10 -5.200000e+03 4.766260e-10
-1.011220e-10 -5.600000e+03 -4.000000e+02
4.000000e+02 -5.600000e+03 -4.000000e+02
7.057230e-10 -5.200000e+03 -4.000000e+02
4.000000e+02 -5.200000e+03 -4.000000e+02
4.065230e-10 -5.600000e+03 4.444660e-11
4.000000e+02 -5.600000e+03 6.055760e-10
-6.674270e-10 -5.200000e+03 4.766260e-10
4.000000e+02 -5.200000e+03 -1.412700e-09
-4.000000e+02 -5.200000e+03 -4.000000e+02
7.057230e-10 -5.200000e+03 -4.000000e+02
-4.000000e+02 -4.800000e+03 -4.000000e+02
-1.148670e-09 -4.800000e+03 -4.000000e+02
-4.000000e+02 -5.200000e+03 1.234390e-09
-6.674270e-10 -5.200000e+03 4.766260e-10
-4.000000e+02 -4.800000e+03 -1.969640e-09
-5.131780e-10 -4.800000e+03 -7.719040e-10
7.057230e-10 -5.200000e+03 -4.000000e+02
4.000000e+02 -5.200000e+03 -4.000000e+02
-1.148670e-09 -4.800000e+03 -4.000000e+02
4.000000e+02 -4.800000e+03 -4.000000e+02
-6.674270e-10 -5.200000e+03 4.766260e-10
4.000000e+02 -5.200000e+03 -1.412700e-09
-5.131780e-10 -4.800000e+03 -7.719040e-10
4.000000e+02 -4.800000e+03 -5.351100e-10
-4.000000e+02 -4.800000e+03 -4.000000e+02
-1.148670e-09 -4.800000e+03 -4.000000e+02
-4.000000e+02 -4.400000e+03 -4.000000e+02
1.579470e-09 -4.400000e+03 -4.000000e+02
-4.000000e+02 -4.800000e+03 -1.969640e-09
-5.131780e-10 -4.800000e+03 -7.719040e-10
-4.000000e+02 -4.400000e+03 -2.213200e-09
2.180580e-09 -4.400000e+03 -2.730650e-09
-1.148670e-09 -4.800000e+03 -4.000000e+02
4.000000e+02 -4.800000e+03 -4.000000e+02
1.579470e-09 -4.400000e+03 -4.000000e+02
4.000000e+02 -4.400000e+03 -4.000000e+02
-5.131780e-10 -4.800000e+03 -7.719040e-10
4.000000e+02 -4.800000e+03 -5.351100e-10
2.180580e-09 -4.400000e+03 -2.730650e-09
4.000000e+02 -4.400000e+03 -2.460100e-09
-4.000000e+02 -4.400000e+03 -4.000000e+02
1.579470e-09 -4.400000e+03 -4.000000e+02
-4.000000e+02 -4.000000e+03 -4.000000e+02
5.929240e-09 -4.000000e+03 -4.000000e+02
-4.000000e+02 -4.400000e+03 -2.213200e-09
2.180580e-09 -4.400000e+03 -2.730650e-09
-4.000000e+02 -4.000000e+03 -2.028560e-10
3.644950e-09 -4.000000e+03 -2.764720e-09
1.579470e-09 -4.400000e+03 -4.000000e+02
4.000000e+02 -4.400000e+03 -4.000000e+02
5.929240e-09 -4.000000e+03 -4.000000e+02
4.000000e+02 -4.000000e+03 -4.000000e+02
2.180580e-09 -4.400000e+03 -2.730650e-09
4.000000e+02 -4.400000e+03 -2.460100e-09
3.644950e-09 -4.000000e+03 -2.764720e-09
4.000000e+02 -4.000000e+03 -5.535380e-09
-4.000000e+02 -4.000000e+03 -4.000000e+02
5.929240e-09 -4.000000e+03 -4.000000e+02
-4.000000e+02 -3.600000e+03 -4.000000e+02
-7.215320e-09 -3.600000e+03 -4.000000e+02
-4.000000e+02 -4.000000e+03 -2.028560e-10
3.644950e-09 -4.000000e+03 -2.764720e-09
-4.000000e+02 -3.600000e+03 1.274990e-09
-3.569800e-09 -3.600000e+03 4.269020e-09
5.929240e-09 -4.000000e+03 -4.000000e+02
4.000000e+02 -4.000000e+03 -4.000000e+02
-7.215320e-09 -3.600000e+03 -4.000000e+02
4.000000e+02 -3.600000e+03 -4.000000e+02
3.644950e-09 -4.000000e+03 -2.764720e-09
4.000000e+02 -4.000000e+03 -5.535380e-09
-3.569800e-09 -3.600000e+03 4.269020e-09
4.000000e+02 -3.600000e+03 8.447050e-09
-4.000000e+02 -3.600000e+03 -4.000000e+02
-7.215320e-09 -3.600000e+03 -4.000000e+02
-4.000000e+02 -3.200010e+03 -4.000000e+02
1.549180e-09 -3.200010e+03 -4.000000e+02
-4.000000e+02 -3.600000e+03 1.274990e-09
-3.569800e-09 -3.600000e+03 4.269020e-09
-4.000000e+02 -3.200010e+03 3.048580e-10
-5.493490e-10 -3.200010e+03 -2.510590e-09
-7.215320e-09 -3.600000e+03 -4.000000e+02
4.000000e+02 -3.600000e+03 -4.000000e+02
1.549180e-09 -3.200010e+03 -4.000000e+02
4.000000e+02 -3.200010e+03 -4.000000e+02
-3.569800e-09 -3.600000e+03 4.269020e-09
4.000000e+02 -3.600000e+03 8.447050e-09
-5.493490e-10 -3.200010e+03 -2.510590e-09
4.000000e+02 -3.200010e+03 -5.200110e-09
-4.000000e+02 -3.200010e+03 -4.000000e+02
1.549180e-09 -3.200010e+03 -4.000000e+02
-4.000000e+02 -2.800010e+03 -4.000000e+02
-2.345400e-09 -2.800010e+03 -4.000000e+02
-4.000000e+02 -3.200010e+03 3.048580e-10
-5.493490e-10 -3.200010e+03 -2.510590e-09
-4.000000e+02 -2.800010e+03 -1.107710e-08
3.945910e-09 -2.800010e+03 -5.689160e-09
1.549180e-09 -3.200010e+03 -4.000000e+02
4.000000e+02 -3.200010e+03 -4.000000e+02
-2.345400e-09 -2.800010e+03 -4.000000e+02
4.000000e+02 -2.800010e+03 -4.000000e+02
-5.493490e-10 -3.200010e+03 -2.510590e-09
4.000000e+02 -3.200010e+03 -5.200110e-09
3.945910e-09 -2.800010e+03 -5.689160e-09
4.000000e+02 -2.800010e+03 1.570490e-09
-4.000000e+02 -2.800010e+03 -4.000000e+02
-2.345400e-09 -2.800010e+03 -4.000000e+02
-4.000000e+02 -2.400010e+03 -4.000000e+02
8.595360e-09 -2.400010e+03 -4.000000e+02
-4.000000e+02 -2.800010e+03 -1.107710e-08
3.945910e-09 -2.800010e+03 -5.689160e-09
-4.000000e+02 -2.400010e+03 1.730190e-08
-3.195990e-10 -2.400010e+03 1.009770e-08
-2.345400e-09 -2.800010e+03 -4.000000e+02
4.000000e+02 -2.800010e+03 -4.000000e+02
8.595360e-09 -2.400010e+03 -4.000000e+02
4.000000e+02 -2.400010e+03 -4.000000e+02
3.945910e-09 -2.800010e+03 -5.689160e-09
4.000000e+02 -2.800010e+03 1.570490e-09
-3.195990e-10 -2.400010e+03 1.009770e-08
4.000000e+02 -2.400010e+03 1.554520e-09
-4.000000e+02 -2.400010e+03 -4.000000e+02
8.595360e-09 -2.400010e+03 -4.000000e+02
-4.000000e+02 -2.000020e+03 -4.000000e+02
2.261820e-08 -2.000020e+03 -4.000000e+02
-4.000000e+02 -2.400010e+03 1.730190e-08
-3.195990e-10 -2.400010e+03 1.009770e-08
-4.000000e+02 -2.000020e+03 -1.178460e-08
1.655270e-08 -2.000020e+03 -2.217420e-08
8.595360e-09 -2.400010e+03 -4.000000e+02
4.000000e+02 -2.400010e+03 -4.000000e+02
2.261820e-08 -2.000020e+03 -4.000000e+02
4.000000e+02 -2.000020e+03 -4.000000e+02
-3.195990e-10 -2.400010e+03 1.009770e-08
4.000000e+02 -2.400010e+03 1.554520e-09
1.655270e-08 -2.000020e+03 -2.217420e-08
4.000000e+02 -2.000020e+03 -2.838280e-08
-4.000000e+02 -2.000020e+03 -4.000000e+02
2.261820e-08 -2.000020e+03 -4.000000e+02
-4.000000e+02 -1.600030e+03 -4.000000e+02
-2.447940e-08 -1.600030e+03 -4.000000e+02
-4.000000e+02 -2.000020e+03 -1.178460e-08
1.655270e-08 -2.000020e+03 -2.217420e-08
-4.000000e+02 -1.600030e+03 -8.405320e-08
3.616920e-09 -1.600030e+03 -5.428210e-08
2.261820e-08 -2.000020e+03 -4.000000e+02
4.000000e+02 -2.000020e+03 -4.000000e+02
-2.447940e-08 -1.600030e+03 -4.000000e+02
4.000000e+02 -1.600030e+03 -4.000000e+02
1.655270e-08 -2.000020e+03 -2.217420e-08
4.000000e+02 -2.000020e+03 -2.838280e-08
3.616920e-09 -1.600030e+03 -5.428210e-08
4.000000e+02 -1.600030e+03 -2.574200e-08
-4.000000e+02 -1.600030e+03 -4.000000e+02
-2.447940e-08 -1.600030e+03 -4.000000e+02
-4.000000e+02 -1.200050e+03 -4.000000e+02
1.438480e-08 -1.200050e+03 -4.000000e+02
-4.000000e+02 -1.600030e+03 -8.405320e-08
3.616920e-09 -1.600030e+03 -5.428210e-08
-4.000000e+02 -1.200050e+03 9.657870e-10
-1.085730e-08 -1.200050e+03 -1.778090e-08
-2.447940e-08 -1.600030e+03 -4.000000e+02
4.000000e+02 -1.600030e+03 -4.000000e+02
1.438480e-08 -1.200050e+03 -4.000000e+02
4.000000e+02 -1.200050e+03 -4.000000e+02
3.616920e-09 -1.600030e+03 -5.428210e-08
4.000000e+02 -1.600030e+03 -2.574200e-08
-1.085730e-08 -1.200050e+03 -1.778090e-08
4.000000e+02 -1.200050e+03 -4.471760e-08
-4.000000e+02 -1.200050e+03 -4.000000e+02
1.438480e-08 -1.200050e+03 -4.000000e+02
-4.000000e+02 -8.000790e+02 -4.000000e+02
-2.528250e-08 -8.000790e+02 -4.000000e+02
-4.000000e+02 -1.200050e+03 9.657870e-10
-1.085730e-08 -1.200050e+03 -1.778090e-08
-4.000000e+02 -8.000790e+02 8.280920e-08
2.942100e-09 -8.000790e+02 9.777090e-08
1.438480e-08 -1.200050e+03 -4.000000e+02
4.000000e+02 -1.200050e+03 -4.000000e+02
-2.528250e-08 -8.000790e+02 -4.000000e+02
4.000000e+02 -8.000790e+02 -4.000000e+02
-1.085730e-08 -1.200050e+03 -1.778090e-08
4.000000e+02 -1.200050e+03 -4.471760e-08
2.942100e-09 -8.000790e+02 9.777090e-08
4.000000e+02 -8.000790e+02 1.251240e-07
-4.000000e+02 -8.000790e+02 -4.000000e+02
-2.528250e-08 -8.000790e+02 -4.000000e+02
-4.000000e+02 -4.001320e+02 -4.000000e+02
8.267790e-09 -4.001320e+02 -4.000000e+02
-4.000000e+02 -8.000790e+02 8.280920e-08
2.942100e-09 -8.000790e+02 9.777090e-08
-4.000000e+02 -4.001320e+02 1.522270e-07
-2.445770e-08 -4.001320e+02 1.284370e-07
-2.528250e-08 -8.000790e+02 -4.000000e+02
4.000000e+02 -8.000790e+02 -4.000000e+02
8.267790e-09 -4.001320e+02 -4.000000e+02
4.000000e+02 -4.001320e+02 -4.000000e+02
2.942100e-09 -8.000790e+02 9.777090e-08
4.000000e+02 -8.000790e+02 1.251240e-07
-2.445770e-08 -4.001320e+02 1.284370e-07
4.000000e+02 -4.001320e+02 9.296300e-08
-4.000000e+02 -4.001320e+02 -4.000000e+02
8.267790e-09 -4.001320e+02 -4.000000e+02
-4.000000e+02 -1.977050e-01 -4.000000e+02
-3.765740e-08 -1.976980e-01 -4.000000e+02
-4.000000e+02 -4.001320e+02 1.522270e-07
-2.445770e-08 -4.001320e+02 1.284370e-07
-4.000000e+02 -1.976980e-01 -2.652960e-08
1.955910e-09 -1.976920e-01 -1.548340e-08
8.267790e-09 -4.001320e+02 -4.000000e+02
4.000000e+02 -4.001320e+02 -4.000000e+02
-3.765740e-08 -1.976980e-01 -4.000000e+02
[...]
<PointData>
<DataArray type="Float32" Name="V1" format="ascii">
0.000000e+00
0.000000e+00
1.318320e-05
-6.454400e-12
0.000000e+00
0.000000e+00
1.445240e-05
-5.460620e-10
0.000000e+00
0.000000e+00
-6.454400e-12
-1.318380e-05
0.000000e+00
0.000000e+00
-5.460620e-10
-1.445160e-05
1.318320e-05
-6.454400e-12
-1.602770e-06
-2.496170e-09
1.445240e-05
-5.460620e-10
-4.135740e-06
-1.186600e-09
-6.454400e-12
-1.318380e-05
-2.496170e-09
1.598070e-06
-5.460620e-10
-1.445160e-05
-1.186600e-09
4.132890e-06
-1.602770e-06
-2.496170e-09
-1.890600e-05
-1.328470e-09
-4.135740e-06
-1.186600e-09
-1.673450e-05
2.177540e-11
-2.496170e-09
1.598070e-06
-1.328470e-09
1.890400e-05
-1.186600e-09
4.132890e-06
2.177540e-11
1.673560e-05
-1.890600e-05
-1.328470e-09
1.583460e-05
7.518640e-09
-1.673450e-05
2.177540e-11
1.708550e-05
1.095980e-09
-1.328470e-09
1.890400e-05
7.518640e-09
-1.581950e-05
2.177540e-11
1.673560e-05
1.095980e-09
-1.708330e-05
1.583460e-05
7.518640e-09
1.401320e-05
-5.190690e-09
1.708550e-05
1.095980e-09
1.515560e-05
-2.239830e-09
7.518640e-09
-1.581950e-05
-5.190690e-09
-1.402200e-05
1.095980e-09
-1.708330e-05
-2.239830e-09
-1.515980e-05
1.401320e-05
-5.190690e-09
-1.871240e-05
-2.200080e-09
1.515560e-05
-2.239830e-09
-2.027990e-05
-2.573560e-09
-5.190690e-09
-1.402200e-05
-2.200080e-09
1.870680e-05
-2.239830e-09
-1.515980e-05
-2.573560e-09
2.027360e-05
-1.871240e-05
-2.200080e-09
-2.258180e-05
4.876650e-09
-2.027990e-05
-2.573560e-09
-2.241580e-05
6.481980e-09
-2.200080e-09
1.870680e-05
4.876650e-09
2.259190e-05
-2.573560e-09
2.027360e-05
6.481980e-09
2.242830e-05
-2.258180e-05
4.876650e-09
3.847200e-05
-7.317860e-09
-2.241580e-05
6.481980e-09
4.010440e-05
-4.822050e-09
4.876650e-09
2.259190e-05
-7.317860e-09
-3.848690e-05
6.481980e-09
2.242830e-05
-4.822050e-09
-4.011300e-05
3.847200e-05
-7.317860e-09
6.336930e-06
3.021090e-08
4.010440e-05
-4.822050e-09
1.662020e-06
6.921200e-10
-7.317860e-09
-3.848690e-05
3.021090e-08
-6.275230e-06
-4.822050e-09
-4.011300e-05
6.921200e-10
-1.659880e-06
6.336930e-06
3.021090e-08
-3.013910e-05
-4.469980e-08
1.662020e-06
6.921200e-10
-3.044300e-05
7.816060e-09
3.021090e-08
-6.275230e-06
-4.469980e-08
3.004980e-05
6.921200e-10
-1.659880e-06
7.816060e-09
3.045840e-05
-3.013910e-05
-4.469980e-08
1.886830e-06
9.914150e-09
-3.044300e-05
7.816060e-09
2.011560e-06
-1.471360e-08
-4.469980e-08
3.004980e-05
9.914150e-09
-1.867350e-06
7.816060e-09
3.045840e-05
-1.471360e-08
-2.041880e-06
1.886830e-06
9.914150e-09
3.243820e-06
3.171270e-08
2.011560e-06
-1.471360e-08
6.137540e-06
1.128470e-08
9.914150e-09
-1.867350e-06
3.171270e-08
-3.180430e-06
-1.471360e-08
-2.041880e-06
1.128470e-08
-6.114710e-06
3.243820e-06
3.171270e-08
1.457420e-05
-3.079000e-08
6.137540e-06
1.128470e-08
1.414570e-05
-1.117480e-09
3.171270e-08
-3.180430e-06
-3.079000e-08
-1.463630e-05
1.128470e-08
-6.114710e-06
-1.117480e-09
-1.414690e-05
1.457420e-05
-3.079000e-08
1.054690e-05
3.328380e-09
1.414570e-05
-1.117480e-09
1.048010e-05
-3.125210e-08
-3.079000e-08
-1.463630e-05
3.328380e-09
-1.054150e-05
-1.117480e-09
-1.414690e-05
-3.125210e-08
-1.054480e-05
1.054690e-05
3.328380e-09
-1.246350e-05
-3.105080e-08
1.048010e-05
-3.125210e-08
-1.157550e-05
5.099580e-08
3.328380e-09
-1.054150e-05
-3.105080e-08
1.240020e-05
-3.125210e-08
-1.054480e-05
5.099580e-08
1.168040e-05
-1.246350e-05
-3.105080e-08
-3.101970e-06
1.554380e-07
-1.157550e-05
5.099580e-08
-3.637190e-06
-8.963180e-08
-3.105080e-08
1.240020e-05
1.554380e-07
3.412550e-06
5.099580e-08
1.168040e-05
-8.963180e-08
3.456540e-06
-3.101970e-06
1.554380e-07
5.207510e-06
4.859520e-08
-3.637190e-06
-8.963180e-08
7.363220e-06
4.782670e-08
1.554380e-07
3.412550e-06
4.859520e-08
-5.103310e-06
-8.963180e-08
3.456540e-06
4.782670e-08
-7.268230e-06
5.207510e-06
4.859520e-08
-1.510100e-05
-1.833520e-07
7.363220e-06
4.782670e-08
-1.358890e-05
-3.067440e-08
4.859520e-08
-5.103310e-06
-1.833520e-07
1.473230e-05
4.782670e-08
-7.268230e-06
-3.067440e-08
1.352990e-05
-1.510100e-05
-1.833520e-07
-3.039740e-05
-2.753200e-06
-1.358890e-05
-3.067440e-08
-3.266690e-05
-2.411130e-07
-1.833520e-07
1.473230e-05
-2.753200e-06
2.492040e-05
-3.067440e-08
1.352990e-05
-2.411130e-07
3.219080e-05
-3.039740e-05
-2.753200e-06
-7.086010e-06
8.828720e-08
-3.266690e-05
-2.411130e-07
-7.246360e-06
6.006790e-07
-2.753200e-06
2.492040e-05
8.828720e-08
7.107830e-06
-2.411130e-07
3.219080e-05
6.006790e-07
8.396250e-06
-7.086010e-06
8.828720e-08
4.014900e-05
1.694220e-06
-7.246360e-06
6.006790e-07
4.053260e-05
-2.263170e-07
8.828720e-08
7.107830e-06
1.694220e-06
-3.681730e-05
6.006790e-07
8.396250e-06
-2.263170e-07
-4.100520e-05
4.014900e-05
1.694220e-06
6.244640e-06
3.970070e-07
4.053260e-05
-2.263170e-07
5.348360e-06
-8.456840e-07
1.694220e-06
-3.681730e-05
3.970070e-07
-5.426570e-06
-2.263170e-07
-4.100520e-05
-8.456840e-07
-7.033600e-06
6.244640e-06
3.970070e-07
-1.375510e-05
-1.243990e-06
5.348360e-06
-8.456840e-07
-1.319270e-05
6.714410e-07
3.970070e-07
-5.426570e-06
-1.243990e-06
1.127210e-05
-8.456840e-07
-7.033600e-06
6.714410e-07
1.453490e-05
-1.375510e-05
-1.243990e-06
2.796620e-06
2.187170e-07
-1.319270e-05
6.714410e-07
4.847990e-06
7.898750e-07
-1.243990e-06
1.127210e-05
2.187170e-07
-2.358200e-06
6.714410e-07
1.453490e-05
7.898750e-07
-3.268080e-06
2.796620e-06
2.187170e-07
-7.275350e-06
1.315890e-06
4.847990e-06
7.898750e-07
-8.052740e-06
-3.677090e-07
2.187170e-07
-2.358200e-06
1.315890e-06
9.906390e-06
7.898750e-07
-3.268080e-06
-3.677090e-07
7.317710e-06
-7.275350e-06
1.315890e-06
-1.703020e-06
-2.702230e-07
-8.052740e-06
-3.677090e-07
-4.443660e-06
-1.786080e-07
1.315890e-06
9.906390e-06
-2.702230e-07
1.161330e-06
-3.677090e-07
7.317710e-06
-1.786080e-07
4.086530e-06
-1.703020e-06
-2.702230e-07
1.077990e-05
-4.892300e-07
-4.443660e-06
-1.786080e-07
1.128900e-05
-3.099440e-08
-2.702230e-07
1.161330e-06
-4.892300e-07
-1.176180e-05
-1.786080e-07
4.086530e-06
-3.099440e-08
-1.135070e-05
1.077990e-05
-4.892300e-07
1.514090e-05
-1.196620e-07
1.128900e-05
-3.099440e-08
1.596320e-05
-3.213780e-07
-4.892300e-07
-1.176180e-05
-1.196620e-07
-1.538170e-05
-3.099440e-08
-1.135070e-05
-3.213780e-07
-1.660610e-05
1.514090e-05
-1.196620e-07
2.703040e-06
1.011010e-08
1.596320e-05
-3.213780e-07
4.075990e-06
-1.782980e-08
-1.196620e-07
-1.538170e-05
1.011010e-08
-2.682700e-06
-3.213780e-07
-1.660610e-05
-1.782980e-08
-4.111490e-06
2.703040e-06
1.011010e-08
-1.528000e-05
1.008810e-07
4.075990e-06
-1.782980e-08
-1.687890e-05
2.273940e-07
1.011010e-08
-2.682700e-06
1.008810e-07
1.548230e-05
-1.782980e-08
-4.111490e-06
2.273940e-07
1.733430e-05
0.000000e+00
0.000000e+00
1.445240e-05
-5.460620e-10
0.000000e+00
0.000000e+00
1.318300e-05
-1.190000e-09
0.000000e+00
0.000000e+00
-5.460620e-10
-1.445160e-05
0.000000e+00
0.000000e+00
-1.190000e-09
-1.318480e-05
1.445240e-05
-5.460620e-10
-4.135740e-06
-1.186600e-09
1.318300e-05
-1.190000e-09
-1.603000e-06
-1.849970e-09
-5.460620e-10
-1.445160e-05
-1.186600e-09
4.132890e-06
-1.190000e-09
-1.318480e-05
-1.849970e-09
1.598930e-06
-4.135740e-06
-1.186600e-09
-1.673450e-05
2.177540e-11
-1.603000e-06
-1.849970e-09
-1.890160e-05
3.960320e-09
-1.186600e-09
4.132890e-06
2.177540e-11
1.673560e-05
-1.849970e-09
1.598930e-06
3.960320e-09
1.890960e-05
-1.673450e-05
2.177540e-11
1.708550e-05
1.095980e-09
-1.890160e-05
3.960320e-09
1.582670e-05
-7.297370e-10
2.177540e-11
1.673560e-05
1.095980e-09
-1.708330e-05
3.960320e-09
1.890960e-05
-7.297370e-10
-1.582850e-05
1.708550e-05
1.095980e-09
1.515560e-05
-2.239830e-09
1.582670e-05
-7.297370e-10
1.401590e-05
-5.965690e-11
1.095980e-09
-1.708330e-05
-2.239830e-09
-1.515980e-05
-7.297370e-10
-1.582850e-05
-5.965690e-11
-1.401710e-05
1.515560e-05
-2.239830e-09
-2.027990e-05
-2.573560e-09
1.401590e-05
-5.965690e-11
-1.871240e-05
-1.759530e-09
-2.239830e-09
-1.515980e-05
-2.573560e-09
2.027360e-05
-5.965690e-11
-1.401710e-05
-1.759530e-09
1.870720e-05
-2.027990e-05
-2.573560e-09
-2.241580e-05
6.481980e-09
-1.871240e-05
-1.759530e-09
-2.258440e-05
3.769550e-09
-2.573560e-09
2.027360e-05
6.481980e-09
2.242830e-05
-1.759530e-09
1.870720e-05
3.769550e-09
2.259230e-05
-2.241580e-05
6.481980e-09
4.010440e-05
-4.822050e-09
-2.258440e-05
3.769550e-09
3.848060e-05
-2.457220e-10
6.481980e-09
2.242830e-05
-4.822050e-09
-4.011300e-05
3.769550e-09
2.259230e-05
-2.457220e-10
-3.848050e-05
4.010440e-05
-4.822050e-09
1.662020e-06
6.921200e-10
3.848060e-05
-2.457220e-10
6.288050e-06
-2.345720e-08
-4.822050e-09
-4.011300e-05
6.921200e-10
-1.659880e-06
-2.457220e-10
-3.848050e-05
-2.345720e-08
-6.336210e-06
1.662020e-06
6.921200e-10
-3.044300e-05
7.816060e-09
6.288050e-06
-2.345720e-08
-3.005800e-05
4.918250e-08
6.921200e-10
-1.659880e-06
7.816060e-09
3.045840e-05
-2.345720e-08
-6.336210e-06
4.918250e-08
3.015680e-05
-3.044300e-05
7.816060e-09
2.011560e-06
-1.471360e-08
-3.005800e-05
4.918250e-08
1.873140e-06
-1.762420e-08
7.816060e-09
3.045840e-05
-1.471360e-08
-2.041880e-06
4.918250e-08
3.015680e-05
-1.762420e-08
-1.907820e-06
2.011560e-06
-1.471360e-08
6.137540e-06
1.128470e-08
1.873140e-06
-1.762420e-08
3.182080e-06
-2.571940e-08
-1.471360e-08
-2.041880e-06
1.128470e-08
-6.114710e-06
-1.762420e-08
-1.907820e-06
-2.571940e-08
-3.235530e-06
6.137540e-06
1.128470e-08
1.414570e-05
-1.117480e-09
3.182080e-06
-2.571940e-08
1.463480e-05
3.461370e-08
1.128470e-08
-6.114710e-06
-1.117480e-09
-1.414690e-05
-2.571940e-08
-3.235530e-06
3.461370e-08
-1.456260e-05
1.414570e-05
-1.117480e-09
1.048010e-05
-3.125210e-08
1.463480e-05
3.461370e-08
1.046160e-05
-8.324570e-08
-1.117480e-09
-1.414690e-05
-3.125210e-08
-1.054480e-05
3.461370e-08
-1.456260e-05
-8.324570e-08
-1.063050e-05
1.048010e-05
-3.125210e-08
-1.157550e-05
5.099580e-08
1.046160e-05
-8.324570e-08
-1.223590e-05
1.734360e-07
-3.125210e-08
-1.054480e-05
5.099580e-08
1.168040e-05
-8.324570e-08
-1.063050e-05
1.734360e-07
1.258970e-05
-1.157550e-05
5.099580e-08
-3.637190e-06
-8.963180e-08
-1.223590e-05
1.734360e-07
-3.527710e-06
-2.902210e-07
5.099580e-08
1.168040e-05
-8.963180e-08
3.456540e-06
1.734360e-07
1.258970e-05
-2.902210e-07
2.943500e-06
-3.637190e-06
-8.963180e-08
7.363220e-06
4.782670e-08
-3.527710e-06
-2.902210e-07
4.811300e-06
-2.069850e-07
-8.963180e-08
3.456540e-06
4.782670e-08
-7.268230e-06
-2.902210e-07
2.943500e-06
-2.069850e-07
-5.233950e-06
7.363220e-06
4.782670e-08
-1.358890e-05
-3.067440e-08
4.811300e-06
-2.069850e-07
-1.393420e-05
6.926320e-07
4.782670e-08
-7.268230e-06
-3.067440e-08
1.352990e-05
-2.069850e-07
-5.233950e-06
6.926320e-07
1.533650e-05
-1.358890e-05
-3.067440e-08
-3.266690e-05
-2.411130e-07
-1.393420e-05
6.926320e-07
-2.569590e-05
1.951400e-06
-3.067440e-08
1.352990e-05
-2.411130e-07
3.219080e-05
6.926320e-07
1.533650e-05
1.951400e-06
2.956500e-05
-3.266690e-05
-2.411130e-07
-7.246360e-06
6.006790e-07
-2.569590e-05
1.951400e-06
-6.350540e-06
1.033520e-06
-2.411130e-07
3.219080e-05
6.006790e-07
8.396250e-06
1.951400e-06
2.956500e-05
1.033520e-06
8.388820e-06
-7.246360e-06
6.006790e-07
4.053260e-05
-2.263170e-07
-6.350540e-06
1.033520e-06
3.623050e-05
-2.107710e-06
6.006790e-07
8.396250e-06
-2.263170e-07
-4.100520e-05
1.033520e-06
8.388820e-06
-2.107710e-06
-4.047110e-05
4.053260e-05
-2.263170e-07
5.348360e-06
-8.456840e-07
3.623050e-05
-2.107710e-06
4.156810e-06
-2.073250e-06
-2.263170e-07
-4.100520e-05
-8.456840e-07
-7.033600e-06
-2.107710e-06
-4.047110e-05
-2.073250e-06
-8.326530e-06
5.348360e-06
-8.456840e-07
-1.319270e-05
6.714410e-07
4.156810e-06
-2.073250e-06
-9.752930e-06
2.790950e-06
-8.456840e-07
-7.033600e-06
6.714410e-07
1.453490e-05
-2.073250e-06
-8.326530e-06
2.790950e-06
1.532520e-05
-1.319270e-05
6.714410e-07
4.847990e-06
7.898750e-07
-9.752930e-06
2.790950e-06
3.844860e-06
1.475100e-06
6.714410e-07
1.453490e-05
7.898750e-07
-3.268080e-06
2.790950e-06
1.532520e-05
1.475100e-06
-8.947090e-07
4.847990e-06
7.898750e-07
-8.052740e-06
-3.677090e-07
3.844860e-06
1.475100e-06
-1.067780e-05
-2.329500e-06
7.898750e-07
-3.268080e-06
-3.677090e-07
7.317710e-06
1.475100e-06
-8.947090e-07
-2.329500e-06
6.020510e-06
-8.052740e-06
-3.677090e-07
-4.443660e-06
-1.786080e-07
-1.067780e-05
-2.329500e-06
-1.448800e-06
-1.082990e-07
-3.677090e-07
7.317710e-06
-1.786080e-07
4.086530e-06
-2.329500e-06
6.020510e-06
-1.082990e-07
1.233870e-06
-4.443660e-06
-1.786080e-07
1.128900e-05
-3.099440e-08
-1.448800e-06
-1.082990e-07
1.162600e-05
4.800800e-07
-1.786080e-07
4.086530e-06
-3.099440e-08
-1.135070e-05
-1.082990e-07
1.233870e-06
4.800800e-07
-1.066100e-05
1.128900e-05
-3.099440e-08
1.596320e-05
-3.213780e-07
1.162600e-05
4.800800e-07
1.475160e-05
-5.339630e-07
-3.099440e-08
-1.135070e-05
-3.213780e-07
-1.660610e-05
4.800800e-07
-1.066100e-05
-5.339630e-07
-1.581820e-05
1.596320e-05
-3.213780e-07
4.075990e-06
-1.782980e-08
1.475160e-05
-5.339630e-07
2.664060e-06
-2.781110e-08
-3.213780e-07
-1.660610e-05
-1.782980e-08
-4.111490e-06
-5.339630e-07
-1.581820e-05
-2.781110e-08
-2.719450e-06
4.075990e-06
-1.782980e-08
-1.687890e-05
2.273940e-07
2.664060e-06
-2.781110e-08
-1.504700e-05
3.521140e-07
-1.782980e-08
-4.111490e-06
2.273940e-07
1.733430e-05
-2.781110e-08
-2.719450e-06
3.521140e-07
1.575210e-05
</DataArray>
<DataArray type="Float32" Name="V2" format="ascii">
0.000000e+00
0.000000e+00
-3.053380e-04
-2.981400e-04
0.000000e+00
0.000000e+00
-2.981320e-04
-2.812240e-04
0.000000e+00
0.000000e+00
-2.981400e-04
-3.053490e-04
0.000000e+00
0.000000e+00
-2.812240e-04
-2.981300e-04
-3.053380e-04
-2.981400e-04
2.373510e-04
2.471670e-04
-2.981320e-04
-2.812240e-04
2.471640e-04
2.523210e-04
-2.981400e-04
-3.053490e-04
2.471670e-04
2.373600e-04
-2.812240e-04
-2.981300e-04
2.523210e-04
2.471680e-04
2.373510e-04
2.471670e-04
-7.498430e-04
-7.580120e-04
2.471640e-04
2.523210e-04
-7.580190e-04
-7.642080e-04
2.471670e-04
2.373600e-04
-7.580120e-04
-7.498560e-04
2.523210e-04
2.471680e-04
-7.642080e-04
-7.580050e-04
-7.498430e-04
-7.580120e-04
2.561090e-04
2.128640e-04
-7.580190e-04
-7.642080e-04
2.128840e-04
1.763160e-04
-7.580120e-04
-7.498560e-04
2.128640e-04
2.561000e-04
-7.642080e-04
-7.580050e-04
1.763160e-04
2.128750e-04
2.561090e-04
2.128640e-04
-4.941900e-04
-4.431430e-04
2.128840e-04
1.763160e-04
-4.431670e-04
-4.006620e-04
2.128640e-04
2.561000e-04
-4.431430e-04
-4.941620e-04
1.763160e-04
2.128750e-04
-4.006620e-04
-4.431660e-04
-4.941900e-04
-4.431430e-04
1.076760e-03
1.086850e-03
-4.431670e-04
-4.006620e-04
1.086860e-03
1.095960e-03
-4.431430e-04
-4.941620e-04
1.086850e-03
1.076690e-03
-4.006620e-04
-4.431660e-04
1.095960e-03
1.086870e-03
1.076760e-03
1.086850e-03
3.712090e-04
3.043590e-04
1.086860e-03
1.095960e-03
3.043980e-04
2.395740e-04
1.086850e-03
1.076690e-03
3.043590e-04
3.711980e-04
1.095960e-03
1.086870e-03
2.395740e-04
3.043720e-04
3.712090e-04
3.043590e-04
1.961490e-03
1.968130e-03
3.043980e-04
2.395740e-04
1.968030e-03
1.973950e-03
3.043590e-04
3.711980e-04
1.968130e-03
1.961650e-03
2.395740e-04
3.043720e-04
1.973950e-03
1.968070e-03
1.961490e-03
1.968130e-03
3.136060e-03
3.184130e-03
1.968030e-03
1.973950e-03
3.184250e-03
3.225950e-03
1.968130e-03
1.961650e-03
3.184130e-03
3.135820e-03
1.973950e-03
1.968070e-03
3.225950e-03
3.184210e-03
3.136060e-03
3.184130e-03
4.861550e-03
4.834590e-03
3.184250e-03
3.225950e-03
4.834550e-03
4.810990e-03
3.184130e-03
3.135820e-03
4.834590e-03
4.861500e-03
3.225950e-03
3.184210e-03
4.810990e-03
4.834590e-03
4.861550e-03
4.834590e-03
9.552930e-03
9.554690e-03
4.834550e-03
4.810990e-03
9.554510e-03
9.565700e-03
4.834590e-03
4.861500e-03
9.554690e-03
9.553340e-03
4.810990e-03
4.834590e-03
9.565700e-03
9.554560e-03
9.552930e-03
9.554690e-03
1.769360e-02
1.767630e-02
9.554510e-03
9.565700e-03
1.767670e-02
1.765510e-02
9.554690e-03
9.553340e-03
1.767630e-02
1.769350e-02
9.565700e-03
9.554560e-03
1.765510e-02
1.767650e-02
1.769360e-02
1.767630e-02
2.837620e-02
2.837350e-02
1.767670e-02
1.765510e-02
2.837310e-02
2.836860e-02
1.767630e-02
1.769350e-02
2.837350e-02
2.837590e-02
1.765510e-02
1.767650e-02
2.836860e-02
2.837320e-02
2.837620e-02
2.837350e-02
3.940660e-02
3.943230e-02
2.837310e-02
2.836860e-02
3.943240e-02
3.945570e-02
2.837350e-02
2.837590e-02
3.943230e-02
3.940640e-02
2.836860e-02
2.837320e-02
3.945570e-02
3.943210e-02
3.940660e-02
3.943230e-02
5.330780e-02
5.329370e-02
3.943240e-02
3.945570e-02
5.329340e-02
5.327910e-02
3.943230e-02
3.940640e-02
5.329370e-02
5.331000e-02
3.945570e-02
3.943210e-02
5.327910e-02
5.329420e-02
5.330780e-02
5.329370e-02
4.905420e-02
4.903770e-02
5.329340e-02
5.327910e-02
4.903820e-02
4.902830e-02
5.329370e-02
5.331000e-02
4.903770e-02
4.905100e-02
5.327910e-02
5.329420e-02
4.902830e-02
4.903720e-02
4.905420e-02
4.903770e-02
2.527330e-02
2.527050e-02
4.903820e-02
4.902830e-02
2.526970e-02
2.526640e-02
4.903770e-02
4.905100e-02
2.527050e-02
2.527340e-02
4.902830e-02
4.903720e-02
2.526640e-02
2.527140e-02
2.527330e-02
2.527050e-02
-3.156510e-03
-3.151250e-03
2.526970e-02
2.526640e-02
-3.151930e-03
-3.142290e-03
2.527050e-02
2.527340e-02
-3.151250e-03
-3.155620e-03
2.526640e-02
2.527140e-02
-3.142290e-03
-3.152580e-03
-3.156510e-03
-3.151250e-03
-2.782360e-02
-2.783420e-02
-3.151930e-03
-3.142290e-03
-2.783050e-02
-2.784830e-02
-3.151250e-03
-3.155620e-03
-2.783420e-02
-2.783230e-02
-3.142290e-03
-3.152580e-03
-2.784830e-02
-2.783380e-02
-2.782360e-02
-2.783420e-02
-1.900510e-02
-1.904110e-02
-2.783050e-02
-2.784830e-02
-1.904070e-02
-1.908240e-02
-2.783420e-02
-2.783230e-02
-1.904110e-02
-1.904470e-02
-2.784830e-02
-2.783380e-02
-1.908240e-02
-1.904200e-02
-1.900510e-02
-1.904110e-02
8.378980e-03
8.197580e-03
-1.904070e-02
-1.908240e-02
8.194890e-03
7.979860e-03
-1.904110e-02
-1.904470e-02
8.197580e-03
8.347360e-03
-1.908240e-02
-1.904200e-02
7.979860e-03
8.186070e-03
8.378980e-03
8.197580e-03
1.481060e-02
1.495290e-02
8.194890e-03
7.979860e-03
1.493820e-02
1.507400e-02
8.197580e-03
8.347360e-03
1.495290e-02
1.482810e-02
7.979860e-03
8.186070e-03
1.507400e-02
1.494240e-02
1.481060e-02
1.495290e-02
-1.379780e-03
-1.313410e-03
1.493820e-02
1.507400e-02
-1.307400e-03
-1.238290e-03
1.495290e-02
1.482810e-02
-1.313410e-03
-1.355010e-03
1.507400e-02
1.494240e-02
-1.238290e-03
-1.297620e-03
-1.379780e-03
-1.313410e-03
-6.731780e-03
-6.774490e-03
-1.307400e-03
-1.238290e-03
-6.780830e-03
-6.797570e-03
-1.313410e-03
-1.355010e-03
-6.774490e-03
-6.765250e-03
-1.238290e-03
-1.297620e-03
-6.797570e-03
-6.775260e-03
-6.731780e-03
-6.774490e-03
5.796170e-04
5.588620e-04
-6.780830e-03
-6.797570e-03
5.660340e-04
5.715690e-04
-6.774490e-03
-6.765250e-03
5.588620e-04
5.584110e-04
-6.797570e-03
-6.775260e-03
5.715690e-04
5.586490e-04
5.796170e-04
5.588620e-04
1.611060e-03
1.594640e-03
5.660340e-04
5.715690e-04
1.600350e-03
1.580160e-03
5.588620e-04
5.584110e-04
1.594640e-03
1.628540e-03
5.715690e-04
5.586490e-04
1.580160e-03
1.595970e-03
1.611060e-03
1.594640e-03
-3.739790e-04
-3.713210e-04
1.600350e-03
1.580160e-03
-3.768950e-04
-4.386630e-04
1.594640e-03
1.628540e-03
-3.713210e-04
-3.537700e-04
1.580160e-03
1.595970e-03
-4.386630e-04
-3.745740e-04
-3.739790e-04
-3.713210e-04
-4.339090e-04
-4.260230e-04
-3.768950e-04
-4.386630e-04
-4.268130e-04
-4.135860e-04
-3.713210e-04
-3.537700e-04
-4.260230e-04
-4.376200e-04
-4.386630e-04
-3.745740e-04
-4.135860e-04
-4.227190e-04
-4.339090e-04
-4.260230e-04
-1.380570e-04
-7.791630e-05
-4.268130e-04
-4.135860e-04
-7.628610e-05
1.312580e-05
-4.260230e-04
-4.376200e-04
-7.791630e-05
-1.391640e-04
-4.135860e-04
-4.227190e-04
1.312580e-05
-7.859520e-05
-1.380570e-04
-7.791630e-05
-1.907690e-04
-1.428470e-04
-7.628610e-05
1.312580e-05
-1.423880e-04
-8.351730e-05
-7.791630e-05
-1.391640e-04
-1.428470e-04
-1.893190e-04
1.312580e-05
-7.859520e-05
-8.351730e-05
-1.431160e-04
0.000000e+00
0.000000e+00
-2.981320e-04
-2.812240e-04
0.000000e+00
0.000000e+00
-3.053390e-04
-2.981370e-04
0.000000e+00
0.000000e+00
-2.812240e-04
-2.981300e-04
0.000000e+00
0.000000e+00
-2.981370e-04
-3.053430e-04
-2.981320e-04
-2.812240e-04
2.471640e-04
2.523210e-04
-3.053390e-04
-2.981370e-04
2.373470e-04
2.471670e-04
-2.812240e-04
-2.981300e-04
2.523210e-04
2.471680e-04
-2.981370e-04
-3.053430e-04
2.471670e-04
2.373400e-04
2.471640e-04
2.523210e-04