<?xml version="1.0"?>
<!-- time 34.8814-->
<VTKFile type="UnstructuredGrid" version="0.1" byte_order="LittleEndian">
<UnstructuredGrid>
<Piece NumberOfPoints="7680" NumberOfCells="0">
<Points>
  <DataArray type="Float32" Name="Position" NumberOfComponents="3" format="ascii">
	-350 2050 -350
	-350 2050 -250
	-350 2050 -150
	-350 2050 -50
	-350 2050 50
	-350 2050 150
	-350 2050 250
	-350 2050 350
	-250 2050 -350
	-250 2050 -250
	-250 2050 -150
	-250 2050 -50
	-250 2050 50
	-250 2050 150
	-250 2050 250
	-250 2050 350
	-150 2050 -350
	-150 2050 -250
	-150 2050 -150
	-150 2050 -50
	-150 2050 50
	-150 2050 150
	-150 2050 250
	-150 2050 350
	-50 2050 -350
	-50 2050 -250
	-50 2050 -150
	-50 2050 -50
	-50 2050 50
	-50 2050 150
	-50 2050 250
	-50 2050 350
	50 2050 -350
	50 2050 -250
	50 2050 -150
	50 2050 -50
	50 2050 50
	50 2050 150
	50 2050 250
	50 2050 350
	150 2050 -350
	150 2050 -250
	150 2050 -150
	150 2050 -50
	150 2050 50
	150 2050 150
	150 2050 250
	150 2050 350
	250 2050 -350
	250 2050 -250
	250 2050 -150
	250 2050 -50
	250 2050 50
	250 2050 150
	250 2050 250
	250 2050 350
	350 2050 -350
	350 2050 -250
	350 2050 -150
	350 2050 -50
	350 2050 50
	350 2050 150
	350 2050 250
	350 2050 350
	-350 2150 -350
	-350 2150 -250
	-350 2150 -150
	-350 2150 -50
	-350 2150 50
	-350 2150 150
	-350 2150 250
	-350 2150 350
	-250 2150 -350
	-250 2150 -250
	-250 2150 -150
	-250 2150 -50
	-250 2150 50
	-250 2150 150
	-250 2150 250
	-250 2150 350
	-150 2150 -350
	-150 2150 -250
	-150 2150 -150
	-150 2150 -50
	-150 2150 50
	-150 2150 150
	-150 2150 250
	-150 2150 350
	-50 2150 -350
	-50 2150 -250
	-50 2150 -150
	-50 2150 -50
	-50 2150 50
	-50 2150 150
	-50 2150 250
	-50 2150 350
	50 2150 -350
	50 2150 -250
	50 2150 -150
	50 2150 -50
	50 2150 50
	50 2150 150
	50 2150 250
	50 2150 350
	150 2150 -350
	150 2150 -250
	150 2150 -150
	150 2150 -50
	150 2150 50
	150 2150 150
	150 2150 250
	150 2150 350
	250 2150 -350
	250 2150 -250
	250 2150 -150
	250 2150 -50
	250 2150 50
	250 2150 150
	250 2150 250
	250 2150 350
	350 2150 -350
	350 2150 -250
	350 2150 -150
	350 2150 -50
	350 2150 50
	350 2150 150
	350 2150 250
	350 2150 350
	-350 2250 -350
	-350 2250 -250
	-350 2250 -150
	-350 2250 -50
	-350 2250 50
	-350 2250 150
	-350 2250 250
	-350 2250 350
	-250 2250 -350
	-250 2250 -250
	-250 2250 -150
	-250 2250 -50
	-250 2250 50
	-250 2250 150
	-250 2250 250
	-250 2250 350
	-150 2250 -350
	-150 2250 -250
	-150 2250 -150
	-150 2250 -50
	-150 2250 50
	-150 2250 150
	-150 2250 250
	-150 2250 350
	-50 2250 -350
	-50 2250 -250
	-50 2250 -150
	-50 2250 -50
	-50 2250 50
	-50 2250 150
	-50 2250 250
	-50 2250 350
	50 2250 -350
	50 2250 -250
	50 2250 -150
	50 2250 -50
	50 2250 50
	50 2250 150
	50 2250 250
	50 2250 350
	150 2250 -350
	150 2250 -250
	150 2250 -150
	150 2250 -50
	150 2250 50
	150 2250 150
	150 2250 250
	150 2250 350
	250 2250 -350
	250 2250 -250
	250 2250 -150
	250 2250 -50
	250 2250 50
	250 2250 150
	250 2250 250
	250 2250 350
	350 2250 -350
	350 2250 -250
	350 2250 -150
	350 2250 -50
	350 2250 50
	350 2250 150
	350 2250 250
	350 2250 350
	-350 2350 -350
	-350 2350 -250
	-350 2350 -150
	-350 2350 -50
	-350 2350 50
	-350 2350 150
	-350 2350 250
	-350 2350 350
	-250 2350 -350
	-250 2350 -250
	-250 2350 -150
	-250 2350 -50
	-250 2350 50
	-250 2350 150
	-250 2350 250
	-250 2350 350
	-150 2350 -350
	-150 2350 -250
	-150 2350 -150
	-150 2350 -50
	-150 2350 50
	-150 2350 150
	-150 2350 250
	-150 2350 350
	-50 2350 -350
	-50 2350 -250
	-50 2350 -150
	-50 2350 -50
	-50 2350 50
	-50 2350 150
	-50 2350 250
	-50 2350 350
	50 2350 -350
	50 2350 -250
	50 2350 -150
	50 2350 -50
	50 2350 50
	50 2350 150
	50 2350 250
	50 2350 350
	150 2350 -350
	150 2350 -250
	150 2350 -150
	150 2350 -50
	150 2350 50
	150 2350 150
	150 2350 250
	150 2350 350
	250 2350 -350
	250 2350 -250
	250 2350 -150
	250 2350 -50
	250 2350 50
	250 2350 150
	250 2350 250
	250 2350 350
	350 2350 -350
	350 2350 -250
	350 2350 -150
	350 2350 -50
	350 2350 50
	350 2350 150
	350 2350 250
	350 2350 350
	-350 2450 -350
	-350 2450 -250
	-350 2450 -150
	-350 2450 -50
	-350 2450 50
	-350 2450 150
	-350 2450 250
	-350 2450 350
	-250 2450 -350
	-250 2450 -250
	-250 2450 -150
	-250 2450 -50
	-250 2450 50
	-250 2450 150
	-250 2450 250
	-250 2450 350
	-150 2450 -350
	-150 2450 -250
	-150 2450 -150
	-150 2450 -50
	-150 2450 50
	-150 2450 150
	-150 2450 250
	-150 2450 350
	-50 2450 -350
	-50 2450 -250
	-50 2450 -150
	-50 2450 -50
	-50 2450 50
	-50 2450 150
	-50 2450 250
	-50 2450 350
	50 2450 -350
	50 2450 -250
	50 2450 -150
	50 2450 -50
	50 2450 50
	50 2450 150
	50 2450 250
	50 2450 350
	150 2450 -350
	150 2450 -250
	150 2450 -150
	150 2450 -50
	150 2450 50
	150 2450 150
	150 2450 250
	150 2450 350
	250 2450 -350
	250 2450 -250
	250 2450 -150
	250 2450 -50
	250 2450 50
	250 2450 150
	250 2450 250
	250 2450 350
	350 2450 -350
	350 2450 -250
	350 2450 -150
	350 2450 -50
	350 2450 50
	350 2450 150
	350 2450 250
	350 2450 350
	-350 2550 -350
	-350 2550 -250
	-350 2550 -150
	-350 2550 -50
	-350 2550 50
	-350 2550 150
	-350 2550 250
	-350 2550 350
	-250 2550 -350
	-250 2550 -250
	-250 2550 -150
	-250 2550 -50
	-250 2550 50
	-250 2550 150
	-250 2550 250
	-250 2550 350
	-150 2550 -350
	-150 2550 -250
	-150 2550 -150
	-150 2550 -50
	-150 2550 50
	-150 2550 150
	-150 2550 250
	-150 2550 350
	-50 2550 -350
	-50 2550 -250
	-50 2550 -150
	-50 2550 -50
	-50 2550 50
	-50 2550 150
	-50 2550 250
	-50 2550 350
	50 2550 -350
	50 2550 -250
	50 2550 -150
	50 2550 -50
	50 2550 50
	50 2550 150
	50 2550 250
	50 2550 350
	150 2550 -350
	150 2550 -250
	150 2550 -150
	150 2550 -50
	150 2550 50
	150 2550 150
	150 2550 250
	150 2550 350
	250 2550 -350
	250 2550 -250
	250 2550 -150
	250 2550 -50
	250 2550 50
	250 2550 150
	250 2550 250
	250 2550 350
	350 2550 -350
	350 2550 -250
	350 2550 -150
	350 2550 -50
	350 2550 50
	350 2550 150
	350 2550 250
	350 2550 350
	-350 2650 -350
	-350 2650 -250
	-350 2650 -150
	-350 2650 -50
	-350 2650 50
	-350 2650 150
	-350 2650 250
	-350 2650 350
	-250 2650 -350
	-250 2650 -250
	-250 2650 -150
	-250 2650 -50
	-250 2650 50
	-250 2650 150
	-250 2650 250
	-250 2650 350
	-150 2650 -350
	-150 2650 -250
	-150 2650 -150
	-150 2650 -50
	-150 2650 50
	-150 2650 150
	-150 2650 250
	-150 2650 350
	-50 2650 -350
	-50 2650 -250
	-50 2650 -150
	-50 2650 -50
	-50 2650 50
	-50 2650 150
	-50 2650 250
	-50 2650 350
	50 2650 -350
	50 2650 -250
	50 2650 -150
	50 2650 -50
	50 2650 50
	50 2650 150
	50 2650 250
	50 2650 350
	150 2650 -350
	150 2650 -250
	150 2650 -150
	150 2650 -50
	150 2650 50
	150 2650 150
	150 2650 250
	150 2650 350
	250 2650 -350
	250 2650 -250
	250 2650 -150
	250 2650 -50
	250 2650 50
	250 2650 150
	250 2650 250
	250 2650 350
	350 2650 -350
	350 2650 -250
	350 2650 -150
	350 2650 -50
	350 2650 50
	350 2650 150
	350 2650 250
	350 2650 350
	-350 2750 -350
	-350 2750 -250
	-350 2750 -150
	-350 2750 -50
	-350 2750 50
	-350 2750 150
	-350 2750 250
	-350 2750 350
	-250 2750 -350
	-250 2750 -250
	-250 2750 -150
	-250 2750 -50
	-250 2750 50
	-250 2750 150
	-250 2750 250
	-250 2750 350
	-150 2750 -350
	-150 2750 -250
	-150 2750 -150
	-150 2750 -50
	-150 2750 50
	-150 2750 150
	-150 2750 250
	-150 2750 350
	-50 2750 -350
	-50 2750 -250
	-50 2750 -150
	-50 2750 -50
	-50 2750 50
	-50 2750 150
	-50 2750 250
	-50 2750 350
	50 2750 -350
	50 2750 -250
	50 2750 -150
	50 2750 -50
	50 2750 50
	50 2750 150
	50 2750 250
	50 2750 350
	150 2750 -350
	150 2750 -250
	150 2750 -150
	150 2750 -50
	150 2750 50
	150 2750 150
	150 2750 250
	150 2750 350
	250 2750 -350
	250 2750 -250
	250 2750 -150
	250 2750 -50
	250 2750 50
	250 2750 150
	250 2750 250
	250 2750 350
	350 2750 -350
	350 2750 -250
	350 2750 -150
	350 2750 -50
	350 2750 50
	350 2750 150
	350 2750 250
	350 2750 350
	-350 2850 -350
	-350 2850 -250
	-350 2850 -150
	-350 2850 -50
	-350 2850 50
	-350 2850 150
	-350 2850 250
	-350 2850 350
	-250 2850 -350
	-250 2850 -250
	-250 2850 -150
	-250 2850 -50
	-250 2850 50
	-250 2850 150
	-250 2850 250
	-250 2850 350
	-150 2850 -350
	-150 2850 -250
	-150 2850 -150
	-150 2850 -50
	-150 2850 50
	-150 2850 150
	-150 2850 250
	-150 2850 350
	-50 2850 -350
	-50 2850 -250
	-50 2850 -150
	-50 2850 -50
	-50 2850 50
	-50 2850 150
	-50 2850 250
	-50 2850 350
	50 2850 -350
	50 2850 -250
	50 2850 -150
	50 2850 -50
	50 2850 50
	50 2850 150
	50 2850 250
	50 2850 350
	150 2850 -350
	150 2850 -250
	150 2850 -150
	150 2850 -50
	150 2850 50
	150 2850 150
	150 2850 250
	150 2850 350
	250 2850 -350
	250 2850 -250
	250 2850 -150
	250 2850 -50
	250 2850 50
	250 2850 150
	250 2850 250
	250 2850 350
	350 2850 -350
	350 2850 -250
	350 2850 -150
	350 2850 -50
	350 2850 50
	350 2850 150
	350 2850 250
	350 2850 350
	-350 2950 -350
	-350 2950 -250
	-350 2950 -150
	-350 2950 -50
	-350 2950 50
	-350 2950 150
	-350 2950 250
	-350 2950 350
	-250 2950 -350
	-250 2950 -250
	-250 2950 -150
	-250 2950 -50
	-250 2950 50
	-250 2950 150
	-250 2950 250
	-250 2950 350
	-150 2950 -350
	-150 2950 -250
	-150 2950 -150
	-150 2950 -50
	-150 2950 50
	-150 2950 150
	-150 2950 250
	-150 2950 350
	-50 2950 -350
	-50 2950 -250
	-50 2950 -150
	-50 2950 -50
	-50 2950 50
	-50 2950 150
	-50 2950 250
	-50 2950 350
	50 2950 -350
	50 2950 -250
	50 2950 -150
	50 2950 -50
	50 2950 50
	50 2950 150
	50 2950 250
	50 2950 350
	150 2950 -350
	150 2950 -250
	150 2950 -150
	150 2950 -50
	150 2950 50
	150 2950 150
	150 2950 250
	150 2950 350
	250 2950 -350
	250 2950 -250
	250 2950 -150
	250 2950 -50
	250 2950 50
	250 2950 150
	250 2950 250
	250 2950 350
	350 2950 -350
	350 2950 -250
	350 2950 -150
	350 2950 -50
	350 2950 50
	350 2950 150
	350 2950 250
	350 2950 350
	-350 3050 -350
	-350 3050 -250
	-350 3050 -150
	-350 3050 -50
	-350 3050 50
	-350 3050 150
	-350 3050 250
	-350 3050 350
	-250 3050 -350
	-250 3050 -250
	-250 3050 -150
	-250 3050 -50
	-250 3050 50
	-250 3050 150
	-250 3050 250
	-250 3050 350
	-150 3050 -350
	-150 3050 -250
	-150 3050 -150
	-150 3050 -50
	-150 3050 50
	-150 3050 150
	-150 3050 250
	-150 3050 350
	-50 3050 -350
	-50 3050 -250
	-50 3050 -150
	-50 3050 -50
	-50 3050 50
[...]
<PointData  Vectors="vector">
  <DataArray type="Float32" Name="Velocity" NumberOfComponents="3" format="ascii">
 -2.95517e-09 -1.01289e-06 -2.74682e-09
 -2.40973e-09 -8.03655e-07 -6.90454e-09
 -2.09963e-09 -7.99202e-07 -7.61462e-09
 -2.26723e-09 -9.43927e-07 -3.3594e-09
 -2.2698e-09 -9.43798e-07 3.4713e-09
 -2.10599e-09 -7.98848e-07 7.7267e-09
 -2.39709e-09 -8.03034e-07 7.01959e-09
 -2.94598e-09 -1.01211e-06 2.84934e-09
 -7.1201e-09 -8.03539e-07 -2.21966e-09
 -6.62129e-09 -6.17165e-07 -6.4057e-09
 -6.32663e-09 -6.12417e-07 -7.22229e-09
 -6.37586e-09 -7.6612e-07 -3.21573e-09
 -6.37243e-09 -7.66036e-07 3.29393e-09
 -6.31195e-09 -6.12082e-07 7.29272e-09
 -6.60533e-09 -6.16485e-07 6.48455e-09
 -7.07123e-09 -8.02778e-07 2.28569e-09
 -7.77992e-09 -7.98974e-07 -1.90775e-09
 -7.39788e-09 -6.12298e-07 -6.11237e-09
 -7.29415e-09 -6.21484e-07 -7.12897e-09
 -7.18291e-09 -7.6474e-07 -3.14898e-09
 -7.17943e-09 -7.64615e-07 3.2074e-09
 -7.28225e-09 -6.2154e-07 7.17923e-09
 -7.37133e-09 -6.11777e-07 6.16474e-09
 -7.74477e-09 -7.98326e-07 1.96525e-09
 -3.56453e-09 -9.43561e-07 -2.06266e-09
 -3.37452e-09 -7.6587e-07 -6.15634e-09
 -3.29296e-09 -7.64505e-07 -7.0148e-09
 -3.30687e-09 -8.9707e-07 -3.16202e-09
 -3.3036e-09 -8.96969e-07 3.22649e-09
 -3.2818e-09 -7.64594e-07 7.07568e-09
 -3.34926e-09 -7.65412e-07 6.22632e-09
 -3.5137e-09 -9.42917e-07 2.13001e-09
 3.25204e-09 -9.43385e-07 -2.05158e-09
 3.08685e-09 -7.65713e-07 -6.14525e-09
 3.02129e-09 -7.6434e-07 -7.00294e-09
 3.04759e-09 -8.96921e-07 -3.14756e-09
 3.0559e-09 -8.96835e-07 3.24476e-09
 3.04986e-09 -7.6445e-07 7.10132e-09
 3.13605e-09 -7.6525e-07 6.25246e-09
 3.31554e-09 -9.42762e-07 2.16823e-09
 7.46812e-09 -7.9845e-07 -1.8852e-09
 7.10553e-09 -6.11787e-07 -6.0887e-09
 7.01968e-09 -6.21404e-07 -7.10179e-09
 6.91931e-09 -7.64299e-07 -3.11424e-09
 6.92763e-09 -7.64216e-07 3.25231e-09
 7.04593e-09 -6.21139e-07 7.23968e-09
 7.15307e-09 -6.11397e-07 6.23877e-09
 7.55182e-09 -7.97943e-07 2.05498e-09
 6.79188e-09 -8.02732e-07 -2.19841e-09
 6.30882e-09 -6.16358e-07 -6.39512e-09
 6.0268e-09 -6.11761e-07 -7.20227e-09
 6.09589e-09 -7.65504e-07 -3.1872e-09
 6.10314e-09 -7.65423e-07 3.34829e-09
 6.04703e-09 -6.11513e-07 7.36682e-09
 6.3656e-09 -6.15996e-07 6.57063e-09
 6.85594e-09 -8.02242e-07 2.4076e-09
 2.6356e-09 -1.0119e-06 -2.76469e-09
 2.12027e-09 -8.02722e-07 -6.90216e-09
 1.83226e-09 -7.98387e-07 -7.61723e-09
 2.00052e-09 -9.43185e-07 -3.35178e-09
 2.01166e-09 -9.43114e-07 3.49744e-09
 1.87025e-09 -7.98168e-07 7.80488e-09
 2.16821e-09 -8.02416e-07 7.10165e-09
 2.727e-09 -1.01146e-06 2.97141e-09
 2.21017e-09 1.34306e-05 2.32703e-09
 2.11374e-09 1.3358e-05 -3.58939e-09
 2.10503e-09 1.3194e-05 -7.49562e-09
 2.57971e-09 1.29268e-05 -3.38118e-09
 2.57759e-09 1.2927e-05 3.61543e-09
 2.09949e-09 1.31945e-05 7.71783e-09
 2.0996e-09 1.33588e-05 3.90674e-09
 2.20492e-09 1.34315e-05 -2.21418e-09
 -3.88954e-09 1.33581e-05 2.22163e-09
 -3.77644e-09 1.32805e-05 -3.48863e-09
 -3.61194e-09 1.31129e-05 -7.35955e-09
 -3.22653e-09 1.28501e-05 -3.27999e-09
 -3.22712e-09 1.28502e-05 3.47771e-09
 -3.60804e-09 1.31134e-05 7.54805e-09
 -3.751e-09 1.32813e-05 3.76397e-09
 -3.84803e-09 1.33589e-05 -2.13272e-09
 -7.69012e-09 1.31942e-05 2.24181e-09
 -7.53724e-09 1.3113e-05 -3.3552e-09
 -7.34567e-09 1.29827e-05 -7.17615e-09
 -7.2549e-09 1.26796e-05 -3.19071e-09
 -7.25388e-09 1.26797e-05 3.36782e-09
 -7.34022e-09 1.29838e-05 7.34616e-09
 -7.52238e-09 1.31135e-05 3.58404e-09
 -7.65937e-09 1.31948e-05 -2.13881e-09
 -3.58487e-09 1.29271e-05 2.71882e-09
 -3.45914e-09 1.28503e-05 -2.95627e-09
 -3.35471e-09 1.26798e-05 -7.0837e-09
 -3.36777e-09 1.24274e-05 -3.205e-09
 -3.36516e-09 1.24276e-05 3.38511e-09
 -3.34497e-09 1.26808e-05 7.26e-09
 -3.43641e-09 1.28507e-05 3.18678e-09
 -3.54468e-09 1.29275e-05 -2.59543e-09
 3.40299e-09 1.29274e-05 2.73144e-09
 3.2959e-09 1.28505e-05 -2.94937e-09
 3.20562e-09 1.268e-05 -7.07436e-09
 3.22711e-09 1.24277e-05 -3.1942e-09
 3.23183e-09 1.24277e-05 3.39834e-09
 3.22105e-09 1.26809e-05 7.27728e-09
 3.32661e-09 1.28507e-05 3.19616e-09
 3.45275e-09 1.29276e-05 -2.55875e-09
 7.50325e-09 1.31952e-05 2.27419e-09
 7.3707e-09 1.31139e-05 -3.34437e-09
 7.19307e-09 1.29841e-05 -7.15618e-09
 7.11166e-09 1.26802e-05 -3.16697e-09
 7.11757e-09 1.26802e-05 3.39929e-09
 7.2141e-09 1.29841e-05 7.38884e-09
 7.41019e-09 1.31137e-05 3.60336e-09
 7.56516e-09 1.31949e-05 -2.04132e-09
 3.67987e-09 1.33596e-05 2.26593e-09
 3.56933e-09 1.32819e-05 -3.49758e-09
 3.43199e-09 1.31141e-05 -7.3444e-09
 3.04597e-09 1.2851e-05 -3.26075e-09
 3.04478e-09 1.2851e-05 3.50966e-09
 3.43721e-09 1.31138e-05 7.59715e-09
 3.59219e-09 1.32814e-05 3.76863e-09
 3.71208e-09 1.33589e-05 -1.99381e-09
 -2.38757e-09 1.34326e-05 2.35661e-09
 -2.25117e-09 1.33598e-05 -3.61959e-09
 -2.23908e-09 1.31956e-05 -7.49868e-09
 -2.6954e-09 1.29281e-05 -3.38151e-09
 -2.67816e-09 1.29279e-05 3.63173e-09
 -2.19327e-09 1.31951e-05 7.75569e-09
 -2.17994e-09 1.3359e-05 3.88741e-09
 -2.27507e-09 1.34314e-05 -2.0632e-09
 1.2176e-08 2.15629e-05 1.23022e-08
 1.15899e-08 2.12661e-05 6.32987e-09
 1.13576e-08 2.07682e-05 -5.94442e-09
 1.15226e-08 2.04223e-05 -3.97835e-09
 1.15105e-08 2.04226e-05 4.2879e-09
 1.13304e-08 2.07689e-05 6.27839e-09
 1.15475e-08 2.12671e-05 -6.01252e-09
 1.21383e-08 2.15644e-05 -1.20497e-08
 6.09965e-09 2.12657e-05 1.17155e-08
 5.78209e-09 2.0907e-05 5.96931e-09
 5.45169e-09 2.04551e-05 -5.87323e-09
 5.7886e-09 2.01086e-05 -3.9115e-09
 5.78757e-09 2.01088e-05 4.18496e-09
 5.44845e-09 2.04557e-05 6.16511e-09
 5.79159e-09 2.0908e-05 -5.68555e-09
 6.11199e-09 2.12673e-05 -1.14875e-08
 -6.18198e-09 2.07676e-05 1.1484e-08
 -6.11157e-09 2.04548e-05 5.64437e-09
 -6.13085e-09 1.99448e-05 -5.91263e-09
 -6.01836e-09 1.96498e-05 -3.9495e-09
 -6.01566e-09 1.96501e-05 4.20212e-09
 -6.12294e-09 1.99452e-05 6.17416e-09
 -6.09283e-09 2.0456e-05 -5.36613e-09
 -6.14209e-09 2.07696e-05 -1.12749e-08
 -4.16924e-09 2.04216e-05 1.1663e-08
 -4.07943e-09 2.01081e-05 6.01755e-09
 -4.10267e-09 1.96491e-05 -5.83572e-09
 -3.99735e-09 1.93134e-05 -3.84654e-09
 -3.99796e-09 1.93136e-05 4.09869e-09
 -4.10061e-09 1.96495e-05 6.09249e-09
 -4.06857e-09 2.01095e-05 -5.73626e-09
 -4.1435e-09 2.04234e-05 -1.1443e-08
 4.09274e-09 2.04214e-05 1.16718e-08
 4.01889e-09 2.01081e-05 6.02348e-09
 4.05355e-09 1.96491e-05 -5.83043e-09
 3.95378e-09 1.93134e-05 -3.84061e-09
 3.95535e-09 1.93137e-05 4.10625e-09
 4.06097e-09 1.96497e-05 6.09574e-09
 4.03773e-09 2.01095e-05 -5.72164e-09
 4.12851e-09 2.04234e-05 -1.14244e-08
 6.09301e-09 2.07673e-05 1.15048e-08
 6.0146e-09 2.04546e-05 5.65698e-09
 6.04717e-09 1.99445e-05 -5.90354e-09
 5.97433e-09 1.96498e-05 -3.93738e-09
 5.98213e-09 1.96502e-05 4.2181e-09
 6.06149e-09 1.99454e-05 6.21134e-09
 6.04963e-09 2.04562e-05 -5.3694e-09
 6.12098e-09 2.07698e-05 -1.12228e-08
 -6.20514e-09 2.12653e-05 1.1735e-08
 -5.84267e-09 2.09066e-05 5.97704e-09
 -5.49824e-09 2.04551e-05 -5.87109e-09
 -5.85897e-09 2.01087e-05 -3.90682e-09
 -5.8649e-09 2.0109e-05 4.19703e-09
 -5.4798e-09 2.04559e-05 6.15917e-09
 -5.80969e-09 2.09083e-05 -5.66422e-09
 -6.11814e-09 2.12676e-05 -1.14161e-08
 -1.22133e-08 2.15622e-05 1.23144e-08
 -1.16148e-08 2.12657e-05 6.31667e-09
 -1.13761e-08 2.07681e-05 -5.96187e-09
 -1.1542e-08 2.04225e-05 -3.99258e-09
 -1.15311e-08 2.04227e-05 4.28074e-09
 -1.13636e-08 2.07691e-05 6.24347e-09
 -1.15882e-08 2.12674e-05 -5.99283e-09
 -1.21689e-08 2.15648e-05 -1.19887e-08
 4.5936e-08 2.15437e-05 4.60602e-08
 4.57192e-08 2.07625e-05 3.42985e-08
 4.54033e-08 2.02669e-05 2.31287e-08
 4.44119e-08 2.03689e-05 1.60233e-09
 4.44038e-08 2.03688e-05 -1.22206e-09
 4.53805e-08 2.02669e-05 -2.27788e-08
 4.56844e-08 2.07625e-05 -3.40033e-08
 4.59141e-08 2.15438e-05 -4.5767e-08
 3.4155e-08 2.07627e-05 4.58278e-08
 3.42479e-08 1.99946e-05 3.43924e-08
 3.40977e-08 1.95365e-05 2.33056e-08
 3.30636e-08 1.96389e-05 2.22026e-09
 3.30524e-08 1.96389e-05 -1.88352e-09
 3.40722e-08 1.95365e-05 -2.29741e-08
 3.4206e-08 1.99948e-05 -3.41443e-08
 3.41046e-08 2.07626e-05 -4.5555e-08
 2.29067e-08 2.02673e-05 4.55261e-08
 2.31012e-08 1.95367e-05 3.42299e-08
 2.30458e-08 1.90198e-05 2.31981e-08
 2.22426e-08 1.92001e-05 2.41296e-09
 2.2236e-08 1.92001e-05 -2.10392e-09
 2.30272e-08 1.90193e-05 -2.28905e-08
 2.30986e-08 1.95366e-05 -3.39991e-08
 2.29581e-08 2.0267e-05 -4.52685e-08
 1.38825e-09 2.03695e-05 4.45332e-08
 2.04031e-09 1.96393e-05 3.32298e-08
 2.2128e-09 1.92005e-05 2.23809e-08
 1.50167e-09 1.93171e-05 1.695e-09
 1.4997e-09 1.93171e-05 -1.39281e-09
 2.20983e-09 1.92e-05 -2.21042e-08
 2.04062e-09 1.96389e-05 -3.29807e-08
 1.35402e-09 2.0369e-05 -4.42761e-08
 -1.36472e-09 2.03698e-05 4.45389e-08
 -2.05928e-09 1.96395e-05 3.3235e-08
 -2.21923e-09 1.92007e-05 2.23852e-08
 -1.50311e-09 1.93173e-05 1.69199e-09
 -1.50197e-09 1.93171e-05 -1.39884e-09
 -2.20974e-09 1.92e-05 -2.21041e-08
 -2.03634e-09 1.9639e-05 -3.29697e-08
 -1.37539e-09 2.0369e-05 -4.42699e-08
 -2.29781e-08 2.0268e-05 4.55257e-08
 -2.30901e-08 1.95373e-05 3.42653e-08
 -2.30284e-08 1.90198e-05 2.31803e-08
 -2.22274e-08 1.92004e-05 2.41253e-09
 -2.22269e-08 1.92003e-05 -2.12843e-09
 -2.30309e-08 1.90195e-05 -2.28903e-08
 -2.30792e-08 1.95368e-05 -3.39833e-08
 -2.29007e-08 2.0267e-05 -4.52471e-08
 -3.41392e-08 2.07638e-05 4.58415e-08
 -3.42357e-08 1.99958e-05 3.43987e-08
 -3.40795e-08 1.95372e-05 2.32852e-08
 -3.30502e-08 1.96393e-05 2.20593e-09
 -3.30534e-08 1.96392e-05 -1.92723e-09
 -3.40786e-08 1.95368e-05 -2.29957e-08
 -3.42267e-08 1.9995e-05 -3.4114e-08
 -3.41069e-08 2.07626e-05 -4.55507e-08
 -4.5918e-08 2.15453e-05 4.60506e-08
 -4.56864e-08 2.07636e-05 3.43007e-08
 -4.53701e-08 2.02678e-05 2.30947e-08
 -4.43829e-08 2.03694e-05 1.56262e-09
 -4.43869e-08 2.03692e-05 -1.29719e-09
 -4.53787e-08 2.02671e-05 -2.28146e-08
 -4.56942e-08 2.07625e-05 -3.40156e-08
 -4.59178e-08 2.15435e-05 -4.57586e-08
 1.16316e-07 2.63399e-05 1.16403e-07
 1.16209e-07 2.51728e-05 9.48471e-08
 1.15042e-07 2.46155e-05 6.06356e-08
 1.13459e-07 2.49117e-05 2.71713e-08
 1.13452e-07 2.49117e-05 -2.67932e-08
 1.15024e-07 2.46155e-05 -6.03796e-08
 1.16188e-07 2.51729e-05 -9.45879e-08
 1.16296e-07 2.63401e-05 -1.16136e-07
 9.47589e-08 2.5173e-05 1.16288e-07
 9.48146e-08 2.40246e-05 9.48993e-08
 9.38837e-08 2.35154e-05 6.091e-08
 9.24197e-08 2.38525e-05 2.63306e-08
 9.2408e-08 2.38526e-05 -2.59926e-08
 9.38529e-08 2.35154e-05 -6.06727e-08
 9.47728e-08 2.40243e-05 -9.4664e-08
 9.47178e-08 2.51729e-05 -1.16042e-07
 6.04913e-08 2.46158e-05 1.15124e-07
 6.07744e-08 2.35156e-05 9.39652e-08
 6.02015e-08 2.29751e-05 6.03379e-08
 5.91737e-08 2.33378e-05 2.58973e-08
 5.91628e-08 2.33378e-05 -2.56106e-08
 6.01765e-08 2.29754e-05 -6.00913e-08
 6.07449e-08 2.35154e-05 -9.37445e-08
 6.04628e-08 2.46156e-05 -1.14903e-07
 2.70234e-08 2.49121e-05 1.13548e-07
 2.61771e-08 2.38528e-05 9.25127e-08
 2.57328e-08 2.33378e-05 5.93082e-08
 2.56615e-08 2.36197e-05 2.58259e-08
 2.56538e-08 2.36197e-05 -2.5533e-08
 2.57159e-08 2.33382e-05 -5.91119e-08
 2.61602e-08 2.38528e-05 -9.22971e-08
 2.70225e-08 2.4912e-05 -1.13322e-07
 -2.69703e-08 2.49123e-05 1.13549e-07
 -2.61167e-08 2.3853e-05 9.25162e-08
 -2.56931e-08 2.3338e-05 5.93061e-08
 -2.56339e-08 2.36197e-05 2.58189e-08
 -2.56416e-08 2.36197e-05 -2.55442e-08
 -2.57192e-08 2.33382e-05 -5.91151e-08
 -2.61491e-08 2.38528e-05 -9.22959e-08
 -2.70039e-08 2.49121e-05 -1.13324e-07
 -6.04863e-08 2.46163e-05 1.15125e-07
 -6.07584e-08 2.3516e-05 9.3972e-08
 -6.01585e-08 2.29757e-05 6.03293e-08
 -5.91333e-08 2.3338e-05 2.58754e-08
 -5.91448e-08 2.3338e-05 -2.56435e-08
 -6.01765e-08 2.29756e-05 -6.01044e-08
 -6.07789e-08 2.35157e-05 -9.37578e-08
 -6.04987e-08 2.46158e-05 -1.149e-07
 -9.47414e-08 2.51737e-05 1.1627e-07
 -9.47874e-08 2.4025e-05 9.49043e-08
 -9.38548e-08 2.35158e-05 6.09157e-08
 -9.24063e-08 2.38529e-05 2.6259e-08
 -9.2412e-08 2.38528e-05 -2.60437e-08
 -9.38761e-08 2.35156e-05 -6.06983e-08
 -9.4811e-08 2.40246e-05 -9.46893e-08
 -9.47605e-08 2.51731e-05 -1.16052e-07
 -1.16269e-07 2.63408e-05 1.16384e-07
 -1.16154e-07 2.51735e-05 9.4844e-08
 -1.14993e-07 2.4616e-05 6.06029e-08
 -1.1342e-07 2.4912e-05 2.71104e-08
 -1.1343e-07 2.4912e-05 -2.69131e-08
 -1.15018e-07 2.46157e-05 -6.04073e-08
 -1.16184e-07 2.5173e-05 -9.4632e-08
 -1.16296e-07 2.63401e-05 -1.16176e-07
 2.1667e-07 3.45334e-05 2.1672e-07
 2.14463e-07 3.44726e-05 1.78439e-07
 2.12266e-07 3.37712e-05 1.15284e-07
 2.10736e-07 3.19289e-05 3.83133e-08
 2.10731e-07 3.1929e-05 -3.8094e-08
 2.12252e-07 3.37713e-05 -1.14954e-07
 2.14445e-07 3.44728e-05 -1.78299e-07
 2.16641e-07 3.45337e-05 -2.16516e-07
 1.78384e-07 3.44725e-05 2.14511e-07
 1.76748e-07 3.42254e-05 1.76802e-07
 1.74978e-07 3.34456e-05 1.14183e-07
 1.73437e-07 3.18416e-05 3.80004e-08
 1.73428e-07 3.18417e-05 -3.78029e-08
 1.74957e-07 3.34458e-05 -1.13875e-07
 1.76719e-07 3.42258e-05 -1.76672e-07
 1.78369e-07 3.44728e-05 -2.14321e-07
 1.15149e-07 3.37711e-05 2.12313e-07
 1.1406e-07 3.34455e-05 1.75034e-07
 1.1282e-07 3.30718e-05 1.12936e-07
 1.11946e-07 3.10473e-05 3.75922e-08
 1.11933e-07 3.10474e-05 -3.74051e-08
 1.12786e-07 3.30721e-05 -1.12651e-07
 1.14022e-07 3.34458e-05 -1.7492e-07
 1.15116e-07 3.37714e-05 -2.12138e-07
 3.81557e-08 3.19288e-05 2.10783e-07
 3.78455e-08 3.18416e-05 1.7351e-07
 3.74298e-08 3.10474e-05 1.12063e-07
 3.67922e-08 2.93462e-05 3.69557e-08
 3.67898e-08 2.93463e-05 -3.67842e-08
 3.74159e-08 3.10476e-05 -1.11804e-07
 3.78306e-08 3.18419e-05 -1.73398e-07
 3.8143e-08 3.19292e-05 -2.10616e-07
 -3.81135e-08 3.19289e-05 2.1078e-07
 -3.77971e-08 3.18416e-05 1.73517e-07
 -3.73886e-08 3.10474e-05 1.12052e-07
 -3.67617e-08 2.93463e-05 3.69524e-08
 -3.6777e-08 2.93464e-05 -3.67888e-08
 -3.74359e-08 3.10476e-05 -1.11817e-07
 -3.78629e-08 3.18419e-05 -1.73408e-07
 -3.81836e-08 3.19292e-05 -2.10619e-07
 -1.15098e-07 3.37713e-05 2.1231e-07
 -1.14009e-07 3.34456e-05 1.75044e-07
 -1.12769e-07 3.30719e-05 1.12913e-07
 -1.11917e-07 3.10475e-05 3.75816e-08
 -1.11941e-07 3.10475e-05 -3.74285e-08
 -1.12806e-07 3.30721e-05 -1.12698e-07
 -1.14061e-07 3.34459e-05 -1.74944e-07
 -1.15168e-07 3.37715e-05 -2.12145e-07
 -1.7834e-07 3.44728e-05 2.14507e-07
 -1.76698e-07 3.42257e-05 1.76805e-07
 -1.74941e-07 3.34458e-05 1.14141e-07
 -1.7341e-07 3.18419e-05 3.79869e-08
 -1.7342e-07 3.18419e-05 -3.78361e-08
 -1.74979e-07 3.34459e-05 -1.1396e-07
 -1.76755e-07 3.42259e-05 -1.76713e-07
 -1.78398e-07 3.44729e-05 -2.14347e-07
 -2.16629e-07 3.45338e-05 2.16706e-07
 -2.14412e-07 3.44729e-05 1.78455e-07
 -2.12212e-07 3.37715e-05 1.15219e-07
 -2.10703e-07 3.19292e-05 3.82853e-08
 -2.10719e-07 3.19292e-05 -3.81673e-08
 -2.12256e-07 3.37715e-05 -1.15056e-07
 -2.14469e-07 3.44729e-05 -1.78343e-07
 -2.16687e-07 3.45338e-05 -2.16577e-07
 3.40074e-07 -0.000129087 3.40117e-07
 3.34033e-07 -0.000130249 2.78427e-07
 3.29362e-07 -0.000129256 1.7973e-07
 3.28576e-07 -0.000126195 5.29652e-08
 3.28571e-07 -0.000126195 -5.2877e-08
 3.29344e-07 -0.000129255 -1.79424e-07
 3.34024e-07 -0.000130247 -2.78275e-07
 3.40072e-07 -0.000129084 -3.39971e-07
 2.78351e-07 -0.000130249 3.34064e-07
 2.7366e-07 -0.000131434 2.73737e-07
 2.69905e-07 -0.000129989 1.76867e-07
 2.69036e-07 -0.000127209 5.23128e-08
 2.69033e-07 -0.000127209 -5.22279e-08
 2.6987e-07 -0.000129988 -1.76579e-07
 2.73643e-07 -0.000131433 -2.73599e-07
 2.78339e-07 -0.000130247 -3.33922e-07
 1.79589e-07 -0.000129257 3.29385e-07
 1.76737e-07 -0.000129989 2.69963e-07
 1.74455e-07 -0.000128894 1.74609e-07
 1.73702e-07 -0.000125943 5.15268e-08
 1.73694e-07 -0.000125943 -5.14459e-08
 1.74464e-07 -0.000128893 -1.74362e-07
 1.7672e-07 -0.000129988 -2.69814e-07
 1.79578e-07 -0.000129255 -3.29249e-07
 5.29496e-08 -0.000126196 3.2861e-07
 5.23029e-08 -0.00012721 2.69117e-07
 5.15211e-08 -0.000125943 1.73829e-07
 5.13027e-08 -0.000123186 5.12999e-08
 5.12876e-08 -0.000123186 -5.1221e-08
 5.14998e-08 -0.000125943 -1.73603e-07
 5.22467e-08 -0.000127209 -2.68979e-07
 5.28839e-08 -0.000126195 -3.28482e-07
 -5.2888e-08 -0.000126196 3.28617e-07
 -5.22375e-08 -0.00012721 2.69114e-07
 -5.14581e-08 -0.000125943 1.73824e-07
 -5.12537e-08 -0.000123186 5.12953e-08
 -5.12623e-08 -0.000123186 -5.12242e-08
 -5.14941e-08 -0.000125943 -1.73615e-07
 -5.22652e-08 -0.000127209 -2.68986e-07
 -5.29194e-08 -0.000126195 -3.28492e-07
 -1.79516e-07 -0.000129256 3.29396e-07
 -1.76665e-07 -0.000129989 2.69957e-07
 -1.74392e-07 -0.000128894 1.74592e-07
 -1.73664e-07 -0.000125943 5.15203e-08
 -1.73684e-07 -0.000125943 -5.14509e-08
 -1.74483e-07 -0.000128893 -1.74404e-07
 -1.76757e-07 -0.000129988 -2.69845e-07
 -1.79628e-07 -0.000129255 -3.29273e-07
 -2.78286e-07 -0.000130249 3.34071e-07
 -2.73596e-07 -0.000131434 2.73738e-07
 -2.69843e-07 -0.000129989 1.76834e-07
 -2.68998e-07 -0.000127209 5.23067e-08
 -2.69016e-07 -0.000127209 -5.22428e-08
 -2.6988e-07 -0.000129988 -1.7665e-07
 -2.73678e-07 -0.000131433 -2.73651e-07
 -2.78385e-07 -0.000130247 -3.33962e-07
 -3.40031e-07 -0.000129086 3.40123e-07
 -3.33981e-07 -0.000130248 2.78423e-07
 -3.29319e-07 -0.000129255 1.79688e-07
 -3.28541e-07 -0.000126195 5.2946e-08
 -3.28561e-07 -0.000126195 -5.28859e-08
 -3.29353e-07 -0.000129255 -1.79521e-07
 -3.34046e-07 -0.000130247 -2.78358e-07
 -3.40105e-07 -0.000129084 -3.40024e-07
 4.88777e-07 -0.000266364 4.88897e-07
 4.81019e-07 -0.000263218 3.98303e-07
 4.75365e-07 -0.000259893 2.53619e-07
 4.72477e-07 -0.000256989 9.06142e-08
 4.7247e-07 -0.00025699 -9.04792e-08
 4.75383e-07 -0.000259894 -2.53546e-07
 4.81045e-07 -0.000263219 -3.98111e-07
 4.88811e-07 -0.000266366 -4.88713e-07
 3.98231e-07 -0.000263218 4.81127e-07
 3.92116e-07 -0.000260521 3.92178e-07
 3.8757e-07 -0.000257127 2.50411e-07
 3.84965e-07 -0.000254167 8.93322e-08
 3.84979e-07 -0.000254167 -8.92052e-08
 3.87549e-07 -0.000257128 -2.50337e-07
 3.92097e-07 -0.000260522 -3.91997e-07
 3.98224e-07 -0.000263219 -4.80945e-07
 2.5366e-07 -0.000259892 4.75459e-07
 2.50453e-07 -0.000257127 3.8764e-07
 2.47743e-07 -0.000253818 2.4769e-07
 2.45455e-07 -0.000250856 8.82596e-08
 2.45438e-07 -0.000250856 -8.81342e-08
 2.47726e-07 -0.000253819 -2.4763e-07
 2.50425e-07 -0.000257128 -3.87446e-07
 2.53633e-07 -0.000259893 -4.75295e-07
 9.06346e-08 -0.000256988 4.72561e-07
 8.93519e-08 -0.000254166 3.85053e-07
 8.82642e-08 -0.000250856 2.45393e-07
 8.76902e-08 -0.000248098 8.76899e-08
 8.76716e-08 -0.000248099 -8.75737e-08
 8.82245e-08 -0.000250856 -2.45335e-07
 8.92965e-08 -0.000254167 -3.84878e-07
 9.05613e-08 -0.00025699 -4.72392e-07
 -9.05407e-08 -0.000256988 4.72563e-07
 -8.92592e-08 -0.000254166 3.85052e-07
 -8.81746e-08 -0.000250855 2.45391e-07
 -8.76156e-08 -0.000248098 8.76848e-08
 -8.7624e-08 -0.000248098 -8.75752e-08
 -8.82018e-08 -0.000250856 -2.45333e-07
 -8.92968e-08 -0.000254167 -3.84891e-07
 -9.05743e-08 -0.000256989 -4.72405e-07
 -2.53561e-07 -0.000259892 4.75474e-07
 -2.50345e-07 -0.000257126 3.87626e-07
 -2.47642e-07 -0.000253818 2.47696e-07
 -2.45363e-07 -0.000250856 8.82401e-08
 -2.45365e-07 -0.000250856 -8.81383e-08
 -2.47668e-07 -0.000253818 -2.47638e-07
 -2.50384e-07 -0.000257127 -3.87482e-07
 -2.53609e-07 -0.000259893 -4.75327e-07
 -3.98157e-07 -0.000263217 4.81137e-07
 -3.92044e-07 -0.000260521 3.92176e-07
 -3.87503e-07 -0.000257127 2.50402e-07
 -3.84917e-07 -0.000254166 8.93192e-08
 -3.84948e-07 -0.000254166 -8.92252e-08
 -3.87561e-07 -0.000257127 -2.50347e-07
 -3.92131e-07 -0.000260521 -3.92047e-07
 -3.98253e-07 -0.000263219 -4.81004e-07
 -4.88705e-07 -0.000266363 4.88909e-07
 -4.80947e-07 -0.000263217 3.98298e-07
 -4.75301e-07 -0.000259892 2.53612e-07
 -4.72426e-07 -0.000256989 9.05951e-08
 -4.72443e-07 -0.000256989 -9.05098e-08
 -4.75363e-07 -0.000259893 -2.53554e-07
 -4.8104e-07 -0.000263219 -3.98183e-07
 -4.88836e-07 -0.000266365 -4.88792e-07
 6.6086e-07 -0.000419295 6.60922e-07
 6.52874e-07 -0.000413869 5.48239e-07
 6.45017e-07 -0.00040812 3.59618e-07
 6.40317e-07 -0.000404905 1.22718e-07
 6.40318e-07 -0.000404904 -1.22607e-07
 6.4502e-07 -0.000408119 -3.59492e-07
 6.52882e-07 -0.000413868 -5.4814e-07
 6.60869e-07 -0.000419293 -6.60747e-07
 5.48263e-07 -0.000413869 6.52921e-07
 5.421e-07 -0.00040882 5.42078e-07