<?xml version="1.0"?>
<VTKFile type="UnstructuredGrid" version="0.1" byte_order="LittleEndian" compressor="vtkZLibDataCompressor">
<UnstructuredGrid>
<Piece NumberOfPoints="960" NumberOfCells="120">
<Points>
<DataArray type="Float32" NumberOfComponents="3" format="ascii">
-4.000000e+02 -6.000000e+03 -4.000000e+02
0.000000e+00 -6.000000e+03 -4.000000e+02
-4.000000e+02 -5.600000e+03 -4.000000e+02
-1.529120e-10 -5.600000e+03 -4.000000e+02
-4.000000e+02 -6.000000e+03 0.000000e+00
0.000000e+00 -6.000000e+03 0.000000e+00
-4.000000e+02 -5.600000e+03 -8.109470e-10
6.784850e-10 -5.600000e+03 -6.632510e-10
0.000000e+00 -6.000000e+03 -4.000000e+02
4.000000e+02 -6.000000e+03 -4.000000e+02
-1.529120e-10 -5.600000e+03 -4.000000e+02
4.000000e+02 -5.600000e+03 -4.000000e+02
0.000000e+00 -6.000000e+03 0.000000e+00
4.000000e+02 -6.000000e+03 0.000000e+00
6.784850e-10 -5.600000e+03 -6.632510e-10
4.000000e+02 -5.600000e+03 -1.993180e-10
-4.000000e+02 -5.600000e+03 -4.000000e+02
-1.529120e-10 -5.600000e+03 -4.000000e+02
-4.000000e+02 -5.200000e+03 -4.000000e+02
1.132300e-09 -5.200000e+03 -4.000000e+02
-4.000000e+02 -5.600000e+03 -8.109470e-10
6.784850e-10 -5.600000e+03 -6.632510e-10
-4.000000e+02 -5.200000e+03 2.383570e-10
1.687180e-09 -5.200000e+03 -5.435380e-10
-1.529120e-10 -5.600000e+03 -4.000000e+02
4.000000e+02 -5.600000e+03 -4.000000e+02
1.132300e-09 -5.200000e+03 -4.000000e+02
4.000000e+02 -5.200000e+03 -4.000000e+02
6.784850e-10 -5.600000e+03 -6.632510e-10
4.000000e+02 -5.600000e+03 -1.993180e-10
1.687180e-09 -5.200000e+03 -5.435380e-10
4.000000e+02 -5.200000e+03 4.514520e-10
-4.000000e+02 -5.200000e+03 -4.000000e+02
1.132300e-09 -5.200000e+03 -4.000000e+02
-4.000000e+02 -4.800010e+03 -4.000000e+02
2.417190e-09 -4.800010e+03 -4.000000e+02
-4.000000e+02 -5.200000e+03 2.383570e-10
1.687180e-09 -5.200000e+03 -5.435380e-10
-4.000000e+02 -4.800010e+03 1.083670e-09
9.505490e-10 -4.800010e+03 -1.742600e-10
1.132300e-09 -5.200000e+03 -4.000000e+02
4.000000e+02 -5.200000e+03 -4.000000e+02
2.417190e-09 -4.800010e+03 -4.000000e+02
4.000000e+02 -4.800010e+03 -4.000000e+02
1.687180e-09 -5.200000e+03 -5.435380e-10
4.000000e+02 -5.200000e+03 4.514520e-10
9.505490e-10 -4.800010e+03 -1.742600e-10
4.000000e+02 -4.800010e+03 -4.253610e-10
-4.000000e+02 -4.800010e+03 -4.000000e+02
2.417190e-09 -4.800010e+03 -4.000000e+02
-4.000000e+02 -4.400010e+03 -4.000000e+02
1.461870e-09 -4.400010e+03 -4.000000e+02
-4.000000e+02 -4.800010e+03 1.083670e-09
9.505490e-10 -4.800010e+03 -1.742600e-10
-4.000000e+02 -4.400010e+03 1.231450e-10
1.771860e-09 -4.400010e+03 -4.486720e-10
2.417190e-09 -4.800010e+03 -4.000000e+02
4.000000e+02 -4.800010e+03 -4.000000e+02
1.461870e-09 -4.400010e+03 -4.000000e+02
4.000000e+02 -4.400010e+03 -4.000000e+02
9.505490e-10 -4.800010e+03 -1.742600e-10
4.000000e+02 -4.800010e+03 -4.253610e-10
1.771860e-09 -4.400010e+03 -4.486720e-10
4.000000e+02 -4.400010e+03 -1.063350e-09
-4.000000e+02 -4.400010e+03 -4.000000e+02
1.461870e-09 -4.400010e+03 -4.000000e+02
-4.000000e+02 -4.000020e+03 -4.000000e+02
1.364830e-09 -4.000020e+03 -4.000000e+02
-4.000000e+02 -4.400010e+03 1.231450e-10
1.771860e-09 -4.400010e+03 -4.486720e-10
-4.000000e+02 -4.000020e+03 -1.162490e-09
1.428980e-09 -4.000020e+03 -1.052530e-09
1.461870e-09 -4.400010e+03 -4.000000e+02
4.000000e+02 -4.400010e+03 -4.000000e+02
1.364830e-09 -4.000020e+03 -4.000000e+02
4.000000e+02 -4.000020e+03 -4.000000e+02
1.771860e-09 -4.400010e+03 -4.486720e-10
4.000000e+02 -4.400010e+03 -1.063350e-09
1.428980e-09 -4.000020e+03 -1.052530e-09
4.000000e+02 -4.000020e+03 -2.106920e-09
-4.000000e+02 -4.000020e+03 -4.000000e+02
1.364830e-09 -4.000020e+03 -4.000000e+02
-4.000000e+02 -3.600040e+03 -4.000000e+02
8.404290e-10 -3.600040e+03 -4.000000e+02
-4.000000e+02 -4.000020e+03 -1.162490e-09
1.428980e-09 -4.000020e+03 -1.052530e-09
-4.000000e+02 -3.600040e+03 -1.302200e-09
1.491780e-09 -3.600040e+03 -1.580750e-09
1.364830e-09 -4.000020e+03 -4.000000e+02
4.000000e+02 -4.000020e+03 -4.000000e+02
8.404290e-10 -3.600040e+03 -4.000000e+02
4.000000e+02 -3.600040e+03 -4.000000e+02
1.428980e-09 -4.000020e+03 -1.052530e-09
4.000000e+02 -4.000020e+03 -2.106920e-09
1.491780e-09 -3.600040e+03 -1.580750e-09
4.000000e+02 -3.600040e+03 -2.267360e-09
-4.000000e+02 -3.600040e+03 -4.000000e+02
8.404290e-10 -3.600040e+03 -4.000000e+02
-4.000000e+02 -3.200070e+03 -4.000000e+02
1.613080e-09 -3.200070e+03 -4.000000e+02
-4.000000e+02 -3.600040e+03 -1.302200e-09
1.491780e-09 -3.600040e+03 -1.580750e-09
-4.000000e+02 -3.200070e+03 -2.333750e-09
1.946870e-09 -3.200070e+03 -2.290590e-09
8.404290e-10 -3.600040e+03 -4.000000e+02
4.000000e+02 -3.600040e+03 -4.000000e+02
1.613080e-09 -3.200070e+03 -4.000000e+02
4.000000e+02 -3.200070e+03 -4.000000e+02
1.491780e-09 -3.600040e+03 -1.580750e-09
4.000000e+02 -3.600040e+03 -2.267360e-09
1.946870e-09 -3.200070e+03 -2.290590e-09
4.000000e+02 -3.200070e+03 -3.326180e-09
-4.000000e+02 -3.200070e+03 -4.000000e+02
1.613080e-09 -3.200070e+03 -4.000000e+02
-4.000000e+02 -2.800120e+03 -4.000000e+02
3.117530e-09 -2.800120e+03 -4.000000e+02
-4.000000e+02 -3.200070e+03 -2.333750e-09
1.946870e-09 -3.200070e+03 -2.290590e-09
-4.000000e+02 -2.800120e+03 -2.285880e-09
2.582010e-09 -2.800120e+03 -3.509290e-09
1.613080e-09 -3.200070e+03 -4.000000e+02
4.000000e+02 -3.200070e+03 -4.000000e+02
3.117530e-09 -2.800120e+03 -4.000000e+02
4.000000e+02 -2.800120e+03 -4.000000e+02
1.946870e-09 -3.200070e+03 -2.290590e-09
4.000000e+02 -3.200070e+03 -3.326180e-09
2.582010e-09 -2.800120e+03 -3.509290e-09
4.000000e+02 -2.800120e+03 -4.115720e-09
-4.000000e+02 -2.800120e+03 -4.000000e+02
3.117530e-09 -2.800120e+03 -4.000000e+02
-4.000000e+02 -2.400190e+03 -4.000000e+02
-3.537680e-10 -2.400190e+03 -4.000000e+02
-4.000000e+02 -2.800120e+03 -2.285880e-09
2.582010e-09 -2.800120e+03 -3.509290e-09
-4.000000e+02 -2.400190e+03 -2.055280e-09
1.019440e-09 -2.400190e+03 -1.418960e-09
3.117530e-09 -2.800120e+03 -4.000000e+02
4.000000e+02 -2.800120e+03 -4.000000e+02
-3.537680e-10 -2.400190e+03 -4.000000e+02
4.000000e+02 -2.400190e+03 -4.000000e+02
2.582010e-09 -2.800120e+03 -3.509290e-09
4.000000e+02 -2.800120e+03 -4.115720e-09
1.019440e-09 -2.400190e+03 -1.418960e-09
4.000000e+02 -2.400190e+03 -1.674230e-09
-4.000000e+02 -2.400190e+03 -4.000000e+02
-3.537680e-10 -2.400190e+03 -4.000000e+02
-4.000000e+02 -2.000270e+03 -4.000000e+02
-2.622830e-09 -2.000270e+03 -4.000000e+02
-4.000000e+02 -2.400190e+03 -2.055280e-09
1.019440e-09 -2.400190e+03 -1.418960e-09
-4.000000e+02 -2.000270e+03 -2.662400e-09
-4.326700e-10 -2.000270e+03 -6.615170e-10
-3.537680e-10 -2.400190e+03 -4.000000e+02
4.000000e+02 -2.400190e+03 -4.000000e+02
-2.622830e-09 -2.000270e+03 -4.000000e+02
4.000000e+02 -2.000270e+03 -4.000000e+02
1.019440e-09 -2.400190e+03 -1.418960e-09
4.000000e+02 -2.400190e+03 -1.674230e-09
-4.326700e-10 -2.000270e+03 -6.615170e-10
4.000000e+02 -2.000270e+03 -5.076300e-10
-4.000000e+02 -2.000270e+03 -4.000000e+02
-2.622830e-09 -2.000270e+03 -4.000000e+02
-4.000000e+02 -1.600330e+03 -4.000000e+02
5.242280e-09 -1.600330e+03 -4.000000e+02
-4.000000e+02 -2.000270e+03 -2.662400e-09
-4.326700e-10 -2.000270e+03 -6.615170e-10
-4.000000e+02 -1.600330e+03 3.975680e-09
5.715230e-10 -1.600330e+03 -1.616640e-09
-2.622830e-09 -2.000270e+03 -4.000000e+02
4.000000e+02 -2.000270e+03 -4.000000e+02
5.242280e-09 -1.600330e+03 -4.000000e+02
4.000000e+02 -1.600330e+03 -4.000000e+02
-4.326700e-10 -2.000270e+03 -6.615170e-10
4.000000e+02 -2.000270e+03 -5.076300e-10
5.715230e-10 -1.600330e+03 -1.616640e-09
4.000000e+02 -1.600330e+03 -6.827050e-09
-4.000000e+02 -1.600330e+03 -4.000000e+02
5.242280e-09 -1.600330e+03 -4.000000e+02
-4.000000e+02 -1.200340e+03 -4.000000e+02
2.637200e-09 -1.200340e+03 -4.000000e+02
-4.000000e+02 -1.600330e+03 3.975680e-09
5.715230e-10 -1.600330e+03 -1.616640e-09
-4.000000e+02 -1.200340e+03 -1.141330e-08
7.027440e-09 -1.200340e+03 -8.025300e-09
5.242280e-09 -1.600330e+03 -4.000000e+02
4.000000e+02 -1.600330e+03 -4.000000e+02
2.637200e-09 -1.200340e+03 -4.000000e+02
4.000000e+02 -1.200340e+03 -4.000000e+02
5.715230e-10 -1.600330e+03 -1.616640e-09
4.000000e+02 -1.600330e+03 -6.827050e-09
7.027440e-09 -1.200340e+03 -8.025300e-09
4.000000e+02 -1.200340e+03 -3.714070e-09
-4.000000e+02 -1.200340e+03 -4.000000e+02
2.637200e-09 -1.200340e+03 -4.000000e+02
-4.000000e+02 -8.003120e+02 -4.000000e+02
1.954730e-09 -8.003120e+02 -4.000000e+02
-4.000000e+02 -1.200340e+03 -1.141330e-08
7.027440e-09 -1.200340e+03 -8.025300e-09
-4.000000e+02 -8.003120e+02 -4.991020e-09
4.918450e-09 -8.003120e+02 -3.170450e-09
2.637200e-09 -1.200340e+03 -4.000000e+02
4.000000e+02 -1.200340e+03 -4.000000e+02
1.954730e-09 -8.003120e+02 -4.000000e+02
4.000000e+02 -8.003120e+02 -4.000000e+02
7.027440e-09 -1.200340e+03 -8.025300e-09
4.000000e+02 -1.200340e+03 -3.714070e-09
4.918450e-09 -8.003120e+02 -3.170450e-09
4.000000e+02 -8.003120e+02 -6.039950e-10
-4.000000e+02 -8.003120e+02 -4.000000e+02
1.954730e-09 -8.003120e+02 -4.000000e+02
-4.000000e+02 -4.002800e+02 -4.000000e+02
-4.787050e-09 -4.002800e+02 -4.000000e+02
-4.000000e+02 -8.003120e+02 -4.991020e-09
4.918450e-09 -8.003120e+02 -3.170450e-09
-4.000000e+02 -4.002800e+02 9.192550e-10
-4.803250e-09 -4.002800e+02 1.372260e-09
1.954730e-09 -8.003120e+02 -4.000000e+02
4.000000e+02 -8.003120e+02 -4.000000e+02
-4.787050e-09 -4.002800e+02 -4.000000e+02
4.000000e+02 -4.002800e+02 -4.000000e+02
4.918450e-09 -8.003120e+02 -3.170450e-09
4.000000e+02 -8.003120e+02 -6.039950e-10
-4.803250e-09 -4.002800e+02 1.372260e-09
4.000000e+02 -4.002800e+02 -6.974170e-10
-4.000000e+02 -4.002800e+02 -4.000000e+02
-4.787050e-09 -4.002800e+02 -4.000000e+02
-4.000000e+02 -2.783560e-01 -4.000000e+02
9.753880e-09 -2.783560e-01 -4.000000e+02
-4.000000e+02 -4.002800e+02 9.192550e-10
-4.803250e-09 -4.002800e+02 1.372260e-09
-4.000000e+02 -2.783560e-01 6.152010e-09
-5.743240e-10 -2.783550e-01 -4.795270e-09
-4.787050e-09 -4.002800e+02 -4.000000e+02
4.000000e+02 -4.002800e+02 -4.000000e+02
9.753880e-09 -2.783560e-01 -4.000000e+02
[...]
<PointData>
<DataArray type="Float32" Name="V1" format="ascii">
0.000000e+00
0.000000e+00
-3.449640e-05
1.224750e-09
0.000000e+00
0.000000e+00
-3.529570e-05
-2.963470e-10
0.000000e+00
0.000000e+00
1.224750e-09
3.449750e-05
0.000000e+00
0.000000e+00
-2.963470e-10
3.529400e-05
-3.449640e-05
1.224750e-09
2.414180e-05
-3.667840e-11
-3.529570e-05
-2.963470e-10
2.517780e-05
9.953750e-10
1.224750e-09
3.449750e-05
-3.667840e-11
-2.414220e-05
-2.963470e-10
3.529400e-05
9.953750e-10
-2.517480e-05
2.414180e-05
-3.667840e-11
-3.704530e-06
1.727580e-10
2.517780e-05
9.953750e-10
-6.033480e-06
1.638310e-10
-3.667840e-11
-2.414220e-05
1.727580e-10
3.704760e-06
9.953750e-10
-2.517480e-05
1.638310e-10
6.033770e-06
-3.704530e-06
1.727580e-10
1.302340e-06
-1.408280e-09
-6.033480e-06
1.638310e-10
1.530260e-06
4.441620e-10
1.727580e-10
3.704760e-06
-1.408280e-09
-1.305620e-06
1.638310e-10
6.033770e-06
4.441620e-10
-1.529760e-06
1.302340e-06
-1.408280e-09
-3.577720e-06
4.282080e-10
1.530260e-06
4.441620e-10
-5.434990e-07
3.532760e-11
-1.408280e-09
-1.305620e-06
4.282080e-10
3.578080e-06
4.441620e-10
-1.529760e-06
3.532760e-11
5.443640e-07
-3.577720e-06
4.282080e-10
-2.420400e-05
-1.865160e-09
-5.434990e-07
3.532760e-11
-2.746000e-05
-1.697750e-09
4.282080e-10
3.578080e-06
-1.865160e-09
2.420020e-05
3.532760e-11
5.443640e-07
-1.697750e-09
2.745650e-05
-2.420400e-05
-1.865160e-09
3.082480e-05
4.851140e-10
-2.746000e-05
-1.697750e-09
3.009070e-05
3.238880e-10
-1.865160e-09
2.420020e-05
4.851140e-10
-3.082370e-05
-1.697750e-09
2.745650e-05
3.238880e-10
-3.009030e-05
3.082480e-05
4.851140e-10
1.440950e-05
2.701950e-09
3.009070e-05
3.238880e-10
1.724070e-05
1.502500e-09
4.851140e-10
-3.082370e-05
2.701950e-09
-1.440490e-05
3.238880e-10
-3.009030e-05
1.502500e-09
-1.723810e-05
1.440950e-05
2.701950e-09
-4.173720e-05
-3.919530e-09
1.724070e-05
1.502500e-09
-4.262080e-05
-2.443860e-10
2.701950e-09
-1.440490e-05
-3.919530e-09
4.172750e-05
1.502500e-09
-1.723810e-05
-2.443860e-10
4.261980e-05
-4.173720e-05
-3.919530e-09
1.422290e-06
9.975390e-10
-4.262080e-05
-2.443860e-10
2.244840e-06
-9.849720e-10
-3.919530e-09
4.172750e-05
9.975390e-10
-1.419780e-06
-2.443860e-10
4.261980e-05
-9.849720e-10
-2.246360e-06
1.422290e-06
9.975390e-10
2.862340e-05
3.130160e-09
2.244840e-06
-9.849720e-10
2.883870e-05
5.834170e-10
9.975390e-10
-1.419780e-06
3.130160e-09
-2.861670e-05
-9.849720e-10
-2.246360e-06
5.834170e-10
-2.883710e-05
2.862340e-05
3.130160e-09
8.582900e-07
-4.338910e-09
2.883870e-05
5.834170e-10
4.640080e-06
4.785010e-09
3.130160e-09
-2.861670e-05
-4.338910e-09
-8.660670e-07
5.834170e-10
-2.883710e-05
4.785010e-09
-4.629780e-06
8.582900e-07
-4.338910e-09
-1.227380e-05
-3.058910e-09
4.640080e-06
4.785010e-09
-1.712820e-05
-6.233890e-09
-4.338910e-09
-8.660670e-07
-3.058910e-09
1.226780e-05
4.785010e-09
-4.629780e-06
-6.233890e-09
1.711620e-05
-1.227380e-05
-3.058910e-09
-1.731280e-05
9.438620e-09
-1.712820e-05
-6.233890e-09
-1.890910e-05
1.050820e-09
-3.058910e-09
1.226780e-05
9.438620e-09
1.733230e-05
-6.233890e-09
1.711620e-05
1.050820e-09
1.891020e-05
-1.731280e-05
9.438620e-09
8.151470e-07
1.611590e-08
-1.890910e-05
1.050820e-09
1.595150e-06
1.740730e-09
9.438620e-09
1.733230e-05
1.611590e-08
-7.806770e-07
1.050820e-09
1.891020e-05
1.740730e-09
-1.590560e-06
8.151470e-07
1.611590e-08
1.589990e-05
-4.799210e-08
1.595150e-06
1.740730e-09
1.681180e-05
-9.407140e-09
1.611590e-08
-7.806770e-07
-4.799210e-08
-1.599960e-05
1.740730e-09
-1.590560e-06
-9.407140e-09
-1.683320e-05
1.589990e-05
-4.799210e-08
6.914490e-06
3.418540e-08
1.681180e-05
-9.407140e-09
6.928470e-06
1.069650e-08
-4.799210e-08
-1.599960e-05
3.418540e-08
-6.841860e-06
-9.407140e-09
-1.683320e-05
1.069650e-08
-6.903270e-06
6.914490e-06
3.418540e-08
1.159160e-05
8.162320e-09
6.928470e-06
1.069650e-08
1.026450e-05
-3.389600e-09
3.418540e-08
-6.841860e-06
8.162320e-09
-1.158800e-05
1.069650e-08
-6.903270e-06
-3.389600e-09
-1.027540e-05
1.159160e-05
8.162320e-09
6.956850e-06
1.784580e-09
1.026450e-05
-3.389600e-09
6.274980e-06
8.397590e-09
8.162320e-09
-1.158800e-05
1.784580e-09
-6.931650e-06
-3.389600e-09
-1.027540e-05
8.397590e-09
-6.254040e-06
6.956850e-06
1.784580e-09
5.078430e-06
5.750290e-08
6.274980e-06
8.397590e-09
4.270270e-06
1.154830e-08
1.784580e-09
-6.931650e-06
5.750290e-08
-4.910430e-06
8.397590e-09
-6.254040e-06
1.154830e-08
-4.228100e-06
5.078430e-06
5.750290e-08
5.101350e-06
-2.928950e-08
4.270270e-06
1.154830e-08
5.716300e-06
-2.813290e-09
5.750290e-08
-4.910430e-06
-2.928950e-08
-5.155070e-06
1.154830e-08
-4.228100e-06
-2.813290e-09
-5.724820e-06
5.101350e-06
-2.928950e-08
-1.827220e-07
-3.449290e-08
5.716300e-06
-2.813290e-09
1.530310e-06
1.291640e-08
-2.928950e-08
-5.155070e-06
-3.449290e-08
9.491170e-08
-2.813290e-09
-5.724820e-06
1.291640e-08
-1.516640e-06
-1.827220e-07
-3.449290e-08
5.146850e-07
2.157910e-07
1.530310e-06
1.291640e-08
4.623980e-07
3.221390e-08
-3.449290e-08
9.491170e-08
2.157910e-07
-8.337960e-08
1.291640e-08
-1.516640e-06
3.221390e-08
-3.982020e-07
5.146850e-07
2.157910e-07
-1.791460e-06
-1.356160e-07
4.623980e-07
3.221390e-08
-2.967310e-06
-1.097080e-08
2.157910e-07
-8.337960e-08
-1.356160e-07
1.520300e-06
3.221390e-08
-3.982020e-07
-1.097080e-08
2.945800e-06
-1.791460e-06
-1.356160e-07
-4.235630e-06
-1.940360e-07
-2.967310e-06
-1.097080e-08
-4.027250e-06
-3.666060e-08
-1.356160e-07
1.520300e-06
-1.940360e-07
3.847030e-06
-1.097080e-08
2.945800e-06
-3.666060e-08
3.953560e-06
-4.235630e-06
-1.940360e-07
3.014270e-06
3.336890e-08
-4.027250e-06
-3.666060e-08
3.288020e-06
-6.381880e-08
-1.940360e-07
3.847030e-06
3.336890e-08
-2.947460e-06
-3.666060e-08
3.953560e-06
-6.381880e-08
-3.415640e-06
3.014270e-06
3.336890e-08
-4.128430e-06
-3.631130e-08
3.288020e-06
-6.381880e-08
-3.511060e-06
4.193040e-09
3.336890e-08
-2.947460e-06
-3.631130e-08
4.056220e-06
-6.381880e-08
-3.415640e-06
4.193040e-09
3.519650e-06
-4.128430e-06
-3.631130e-08
-6.957350e-06
2.194700e-08
-3.511060e-06
4.193040e-09
-7.148420e-06
3.518340e-08
-3.631130e-08
4.056220e-06
2.194700e-08
7.001360e-06
4.193040e-09
3.519650e-06
3.518340e-08
7.218900e-06
-6.957350e-06
2.194700e-08
3.699150e-06
3.179130e-08
-7.148420e-06
3.518340e-08
3.384580e-06
1.307920e-08
2.194700e-08
7.001360e-06
3.179130e-08
-3.635550e-06
3.518340e-08
7.218900e-06
1.307920e-08
-3.358410e-06
3.699150e-06
3.179130e-08
1.303450e-05
-1.535520e-10
3.384580e-06
1.307920e-08
1.178810e-05
5.152310e-09
3.179130e-08
-3.635550e-06
-1.535520e-10
-1.303480e-05
1.307920e-08
-3.358410e-06
5.152310e-09
-1.177790e-05
0.000000e+00
0.000000e+00
-3.529570e-05
-2.963470e-10
0.000000e+00
0.000000e+00
-3.449470e-05
-2.139740e-10
0.000000e+00
0.000000e+00
-2.963470e-10
3.529400e-05
0.000000e+00
0.000000e+00
-2.139740e-10
3.449280e-05
-3.529570e-05
-2.963470e-10
2.517780e-05
9.953750e-10
-3.449470e-05
-2.139740e-10
2.414210e-05
-9.577500e-11
-2.963470e-10
3.529400e-05
9.953750e-10
-2.517480e-05
-2.139740e-10
3.449280e-05
-9.577500e-11
-2.414300e-05
2.517780e-05
9.953750e-10
-6.033480e-06
1.638310e-10
2.414210e-05
-9.577500e-11
-3.705330e-06
-5.715290e-10
9.953750e-10
-2.517480e-05
1.638310e-10
6.033770e-06
-9.577500e-11
-2.414300e-05
-5.715290e-10
3.704750e-06
-6.033480e-06
1.638310e-10
1.530260e-06
4.441620e-10
-3.705330e-06
-5.715290e-10
1.304220e-06
-1.799790e-09
1.638310e-10
6.033770e-06
4.441620e-10
-1.529760e-06
-5.715290e-10
3.704750e-06
-1.799790e-09
-1.307690e-06
1.530260e-06
4.441620e-10
-5.434990e-07
3.532760e-11
1.304220e-06
-1.799790e-09
-3.576970e-06
5.096530e-10
4.441620e-10
-1.529760e-06
3.532760e-11
5.443640e-07
-1.799790e-09
-1.307690e-06
5.096530e-10
3.579840e-06
-5.434990e-07
3.532760e-11
-2.746000e-05
-1.697750e-09
-3.576970e-06
5.096530e-10
-2.420330e-05
-1.467070e-10
3.532760e-11
5.443640e-07
-1.697750e-09
2.745650e-05
5.096530e-10
3.579840e-06
-1.467070e-10
2.420460e-05
-2.746000e-05
-1.697750e-09
3.009070e-05
3.238880e-10
-2.420330e-05
-1.467070e-10
3.082450e-05
-8.111620e-10
-1.697750e-09
2.745650e-05
3.238880e-10
-3.009030e-05
-1.467070e-10
2.420460e-05
-8.111620e-10
-3.082690e-05
3.009070e-05
3.238880e-10
1.724070e-05
1.502500e-09
3.082450e-05
-8.111620e-10
1.440760e-05
-6.403230e-10
3.238880e-10
-3.009030e-05
1.502500e-09
-1.723810e-05
-8.111620e-10
-3.082690e-05
-6.403230e-10
-1.440880e-05
1.724070e-05
1.502500e-09
-4.262080e-05
-2.443860e-10
1.440760e-05
-6.403230e-10
-4.173260e-05
2.939210e-09
1.502500e-09
-1.723810e-05
-2.443860e-10
4.261980e-05
-6.403230e-10
-1.440880e-05
2.939210e-09
4.173640e-05
-4.262080e-05
-2.443860e-10
2.244840e-06
-9.849720e-10
-4.173260e-05
2.939210e-09
1.416370e-06
-5.252680e-09
-2.443860e-10
4.261980e-05
-9.849720e-10
-2.246360e-06
2.939210e-09
4.173640e-05
-5.252680e-09
-1.425060e-06
2.244840e-06
-9.849720e-10
2.883870e-05
5.834170e-10
1.416370e-06
-5.252680e-09
2.862010e-05
4.388660e-10
-9.849720e-10
-2.246360e-06
5.834170e-10
-2.883710e-05
-5.252680e-09
-1.425060e-06
4.388660e-10
-2.861920e-05
2.883870e-05
5.834170e-10
4.640080e-06
4.785010e-09
2.862010e-05
4.388660e-10
8.793590e-07
1.369870e-08
5.834170e-10
-2.883710e-05
4.785010e-09
-4.629780e-06
4.388660e-10
-2.861920e-05
1.369870e-08
-8.518330e-07
4.640080e-06
4.785010e-09
-1.712820e-05
-6.233890e-09
8.793590e-07
1.369870e-08
-1.228620e-05
-1.117590e-08
4.785010e-09
-4.629780e-06
-6.233890e-09
1.711620e-05
1.369870e-08
-8.518330e-07
-1.117590e-08
1.226500e-05
-1.712820e-05
-6.233890e-09
-1.890910e-05
1.050820e-09
-1.228620e-05
-1.117590e-08
-1.731870e-05
1.715190e-09
-6.233890e-09
1.711620e-05
1.050820e-09
1.891020e-05
-1.117590e-08
1.226500e-05
1.715190e-09
1.732070e-05
-1.890910e-05
1.050820e-09
1.595150e-06
1.740730e-09
-1.731870e-05
1.715190e-09
7.643840e-07
-2.884000e-08
1.050820e-09
1.891020e-05
1.740730e-09
-1.590560e-06
1.715190e-09
1.732070e-05
-2.884000e-08
-8.235840e-07
1.595150e-06
1.740730e-09
1.681180e-05
-9.407140e-09
7.643840e-07
-2.884000e-08
1.599590e-05
4.319390e-08
1.740730e-09
-1.590560e-06
-9.407140e-09
-1.683320e-05
-2.884000e-08
-8.235840e-07
4.319390e-08
-1.590930e-05
1.681180e-05
-9.407140e-09
6.928470e-06
1.069650e-08
1.599590e-05
4.319390e-08
6.896500e-06
1.677260e-09
-9.407140e-09
-1.683320e-05
1.069650e-08
-6.903270e-06
4.319390e-08
-1.590930e-05
1.677260e-09
-6.891180e-06
6.928470e-06
1.069650e-08
1.026450e-05
-3.389600e-09
6.896500e-06
1.677260e-09
1.146140e-05
-8.221860e-08
1.069650e-08
-6.903270e-06
-3.389600e-09
-1.027540e-05
1.677260e-09
-6.891180e-06
-8.221860e-08
-1.161980e-05
1.026450e-05
-3.389600e-09
6.274980e-06
8.397590e-09
1.146140e-05
-8.221860e-08
6.988400e-06
3.900730e-08
-3.389600e-09
-1.027540e-05
8.397590e-09
-6.254040e-06
-8.221860e-08
-1.161980e-05
3.900730e-08
-6.924580e-06
6.274980e-06
8.397590e-09
4.270270e-06
1.154830e-08
6.988400e-06
3.900730e-08
4.930240e-06
-5.353670e-08
8.397590e-09
-6.254040e-06
1.154830e-08
-4.228100e-06
3.900730e-08
-6.924580e-06
-5.353670e-08
-5.036840e-06
4.270270e-06
1.154830e-08
5.716300e-06
-2.813290e-09
4.930240e-06
-5.353670e-08
5.204420e-06
4.151960e-08
1.154830e-08
-4.228100e-06
-2.813290e-09
-5.724820e-06
-5.353670e-08
-5.036840e-06
4.151960e-08
-5.136570e-06
5.716300e-06
-2.813290e-09
1.530310e-06
1.291640e-08
5.204420e-06
4.151960e-08
-1.115660e-07
6.804930e-08
-2.813290e-09
-5.724820e-06
1.291640e-08
-1.516640e-06
4.151960e-08
-5.136570e-06
6.804930e-08
2.269490e-07
1.530310e-06
1.291640e-08
4.623980e-07
3.221390e-08
-1.115660e-07
6.804930e-08
7.451850e-08
-1.664970e-07
1.291640e-08
-1.516640e-06
3.221390e-08
-3.982020e-07
6.804930e-08
2.269490e-07
-1.664970e-07
-4.094980e-07
4.623980e-07
3.221390e-08
-2.967310e-06
-1.097080e-08
7.451850e-08
-1.664970e-07
-1.490760e-06
1.295090e-07
3.221390e-08
-3.982020e-07
-1.097080e-08
2.945800e-06
-1.664970e-07
-4.094980e-07
1.295090e-07
1.750080e-06
-2.967310e-06
-1.097080e-08
-4.027250e-06
-3.666060e-08
-1.490760e-06
1.295090e-07
-3.882850e-06
1.299580e-07
-1.097080e-08
2.945800e-06
-3.666060e-08
3.953560e-06
1.295090e-07
1.750080e-06
1.299580e-07
4.142290e-06
-4.027250e-06
-3.666060e-08
3.288020e-06
-6.381880e-08
-3.882850e-06
1.299580e-07
2.808730e-06
-1.670600e-07
-3.666060e-08
3.953560e-06
-6.381880e-08
-3.415640e-06
1.299580e-07
4.142290e-06
-1.670600e-07
-3.142910e-06
3.288020e-06
-6.381880e-08
-3.511060e-06
4.193040e-09
2.808730e-06
-1.670600e-07
-4.062730e-06
4.496920e-08
-6.381880e-08
-3.415640e-06
4.193040e-09
3.519650e-06
-1.670600e-07
-3.142910e-06
4.496920e-08
4.152690e-06
-3.511060e-06
4.193040e-09
-7.148420e-06
3.518340e-08
-4.062730e-06
4.496920e-08
-6.932980e-06
4.798070e-08
4.193040e-09
3.519650e-06
3.518340e-08
7.218900e-06
4.496920e-08
4.152690e-06
4.798070e-08
7.029140e-06
-7.148420e-06
3.518340e-08
3.384580e-06
1.307920e-08
-6.932980e-06
4.798070e-08
3.662860e-06
-7.077780e-09
3.518340e-08
7.218900e-06
1.307920e-08
-3.358410e-06
4.798070e-08
7.029140e-06
-7.077780e-09
-3.676970e-06
3.384580e-06
1.307920e-08
1.178810e-05
5.152310e-09
3.662860e-06
-7.077780e-09
1.304580e-05
1.043630e-08
1.307920e-08
-3.358410e-06
5.152310e-09
-1.177790e-05
-7.077780e-09
-3.676970e-06
1.043630e-08
-1.302510e-05
</DataArray>
<DataArray type="Float32" Name="V2" format="ascii">
0.000000e+00
0.000000e+00
5.525690e-04
5.549410e-04
0.000000e+00
0.000000e+00
5.549340e-04
5.515270e-04
0.000000e+00
0.000000e+00
5.549410e-04
5.525650e-04
0.000000e+00
0.000000e+00
5.515270e-04
5.549330e-04
5.525690e-04
5.549410e-04
1.974830e-03
1.987640e-03
5.549340e-04
5.515270e-04
1.987640e-03
2.000760e-03
5.549410e-04
5.525650e-04
1.987640e-03
1.974830e-03
5.515270e-04
5.549330e-04
2.000760e-03
1.987640e-03
1.974830e-03
1.987640e-03
2.064190e-03
2.003630e-03
1.987640e-03
2.000760e-03
2.003630e-03
1.946530e-03
1.987640e-03
1.974830e-03
2.003630e-03
2.064190e-03
2.000760e-03
1.987640e-03
1.946530e-03
2.003630e-03
2.064190e-03
2.003630e-03
5.175620e-03
5.184920e-03
2.003630e-03
1.946530e-03
5.184920e-03
5.192420e-03
2.003630e-03
2.064190e-03
5.184920e-03
5.175630e-03
1.946530e-03
2.003630e-03
5.192420e-03
5.184910e-03
5.175620e-03
5.184920e-03
7.140350e-03
7.170070e-03
5.184920e-03
5.192420e-03
7.170070e-03
7.201010e-03
5.184920e-03
5.175630e-03
7.170070e-03
7.140340e-03
5.192420e-03
5.184910e-03
7.201010e-03
7.170070e-03
7.140350e-03
7.170070e-03
1.646620e-02
1.645000e-02
7.170070e-03
7.201010e-03
1.645000e-02
1.643150e-02
7.170070e-03
7.140340e-03
1.645000e-02
1.646620e-02
7.201010e-03
7.170070e-03
1.643150e-02
1.645000e-02
1.646620e-02
1.645000e-02
2.592150e-02
2.591700e-02
1.645000e-02
1.643150e-02
2.591700e-02
2.591220e-02
1.645000e-02
1.646620e-02
2.591700e-02
2.592150e-02
1.643150e-02
1.645000e-02
2.591220e-02
2.591700e-02
2.592150e-02
2.591700e-02
4.157260e-02
4.158570e-02
2.591700e-02
2.591220e-02
4.158570e-02
4.160560e-02
2.591700e-02
2.592150e-02
4.158570e-02
4.157260e-02
2.591220e-02
2.591700e-02
4.160560e-02
4.158570e-02
4.157260e-02
4.158570e-02
5.229260e-02
5.232620e-02
4.158570e-02
4.160560e-02
5.232620e-02
5.235530e-02
4.158570e-02
4.157260e-02
5.232620e-02
5.229260e-02
4.160560e-02
4.158570e-02
5.235530e-02
5.232620e-02
5.229260e-02
5.232620e-02
5.019180e-02
5.015100e-02
5.232620e-02
5.235530e-02
5.015100e-02
5.011230e-02
5.232620e-02
5.229260e-02
5.015100e-02
5.019180e-02
5.235530e-02
5.232620e-02
5.011230e-02
5.015100e-02
5.019180e-02
5.015100e-02
2.874310e-02
2.874380e-02
5.015100e-02
5.011230e-02
2.874380e-02
2.874470e-02
5.015100e-02
5.019180e-02
2.874380e-02
2.874310e-02
5.011230e-02
5.015100e-02
2.874470e-02
2.874380e-02
2.874310e-02
2.874380e-02
-8.902650e-03
-8.887100e-03
2.874380e-02
2.874470e-02
-8.887090e-03
-8.876250e-03
2.874380e-02
2.874310e-02
-8.887100e-03
-8.902740e-03
2.874470e-02
2.874380e-02
-8.876250e-03
-8.887100e-03
-8.902650e-03
-8.887100e-03
-2.748720e-02
-2.747780e-02
-8.887090e-03
-8.876250e-03
-2.747780e-02
-2.747160e-02
-8.887100e-03
-8.902740e-03
-2.747780e-02
-2.748720e-02
-8.876250e-03
-8.887100e-03
-2.747160e-02
-2.747780e-02
-2.748720e-02
-2.747780e-02
-1.546250e-02
-1.546530e-02
-2.747780e-02
-2.747160e-02
-1.546530e-02
-1.546610e-02
-2.747780e-02
-2.748720e-02
-1.546530e-02
-1.546230e-02
-2.747160e-02
-2.747780e-02
-1.546610e-02
-1.546520e-02
-1.546250e-02
-1.546530e-02
1.332550e-02
1.331190e-02
-1.546530e-02
-1.546610e-02
1.331190e-02
1.330750e-02
-1.546530e-02
-1.546230e-02
1.331190e-02
1.332510e-02
-1.546610e-02
-1.546520e-02
1.330750e-02
1.331180e-02
1.332550e-02
1.331190e-02
1.730060e-02
1.728580e-02
1.331190e-02
1.330750e-02
1.728570e-02
1.726840e-02
1.331190e-02
1.332510e-02
1.728580e-02
1.730050e-02
1.330750e-02
1.331180e-02
1.726840e-02
1.728580e-02
1.730060e-02
1.728580e-02
-1.039970e-02
-1.038980e-02
1.728570e-02
1.726840e-02
-1.038960e-02
-1.037770e-02
1.728580e-02
1.730050e-02
-1.038980e-02
-1.039950e-02
1.726840e-02
1.728580e-02
-1.037770e-02
-1.038970e-02
-1.039970e-02
-1.038980e-02
-9.321760e-03
-9.311690e-03
-1.038960e-02
-1.037770e-02
-9.312170e-03
-9.300780e-03
-1.038980e-02
-1.039950e-02
-9.311690e-03
-9.321970e-03
-1.037770e-02
-1.038970e-02
-9.300780e-03
-9.311980e-03
-9.321760e-03
-9.311690e-03
9.012860e-03
8.990080e-03
-9.312170e-03
-9.300780e-03
8.990540e-03
8.967550e-03
-9.311690e-03
-9.321970e-03
8.990080e-03
9.013140e-03
-9.300780e-03
-9.311980e-03
8.967550e-03
8.990530e-03
9.012860e-03
8.990080e-03
8.127700e-04
7.968210e-04
8.990540e-03
8.967550e-03
7.968320e-04
7.887050e-04
8.990080e-03
9.013140e-03
7.968210e-04
8.127690e-04
8.967550e-03
8.990530e-03
7.887050e-04
7.967830e-04
8.127700e-04
7.968210e-04
-3.033670e-03
-2.989700e-03
7.968320e-04
7.887050e-04
-2.990420e-03
-2.972030e-03
7.968210e-04
8.127690e-04
-2.989700e-03
-3.025740e-03
7.887050e-04
7.967830e-04
-2.972030e-03
-2.990510e-03
-3.033670e-03
-2.989700e-03
5.440070e-04
6.017720e-04
-2.990420e-03
-2.972030e-03
6.029300e-04
6.417880e-04
-2.989700e-03
-3.025740e-03
6.017720e-04
5.404480e-04
-2.972030e-03
-2.990510e-03
6.417880e-04
6.017960e-04
5.440070e-04
6.017720e-04
7.626030e-04
7.671120e-04
6.029300e-04
6.417880e-04
7.677140e-04
8.022690e-04
6.017720e-04
5.404480e-04
7.671120e-04
7.589400e-04
6.417880e-04
6.017960e-04
8.022690e-04
7.670600e-04
7.626030e-04
7.671120e-04
-3.273740e-04
-3.312690e-04
7.677140e-04
8.022690e-04
-3.324490e-04
-3.270600e-04
7.671120e-04
7.589400e-04
-3.312690e-04
-3.263740e-04
8.022690e-04
7.670600e-04
-3.270600e-04
-3.306050e-04
-3.273740e-04
-3.312690e-04
-3.855730e-05
-3.732640e-05
-3.324490e-04
-3.270600e-04
-3.746540e-05
-6.207060e-05
-3.312690e-04
-3.263740e-04
-3.732640e-05
-3.494670e-05
-3.270600e-04
-3.306050e-04
-6.207060e-05
-3.754700e-05
-3.855730e-05
-3.732640e-05
5.348480e-05
6.679580e-05
-3.746540e-05
-6.207060e-05
6.694690e-05
7.864740e-05
-3.732640e-05
-3.494670e-05
6.679580e-05
5.163520e-05
-6.207060e-05
-3.754700e-05
7.864740e-05
6.645900e-05
5.348480e-05
6.679580e-05
1.171840e-04
7.706760e-05
6.694690e-05
7.864740e-05
7.747990e-05
6.128950e-05
6.679580e-05
5.163520e-05
7.706760e-05
1.166990e-04
7.864740e-05
6.645900e-05
6.128950e-05
7.739090e-05
1.171840e-04
7.706760e-05
-1.960660e-04
-2.223670e-04
7.747990e-05
6.128950e-05
-2.228960e-04
-2.507440e-04
7.706760e-05
1.166990e-04
-2.223670e-04
-1.968170e-04
6.128950e-05
7.739090e-05
-2.507440e-04
-2.221400e-04
-1.960660e-04
-2.223670e-04
-1.661310e-04
-1.825850e-04
-2.228960e-04
-2.507440e-04
-1.824790e-04
-2.081010e-04
-2.223670e-04
-1.968170e-04
-1.825850e-04
-1.659440e-04
-2.507440e-04
-2.221400e-04
-2.081010e-04
-1.826370e-04
-1.661310e-04
-1.825850e-04
-2.362560e-04
-2.361640e-04
-1.824790e-04
-2.081010e-04
-2.360650e-04
-2.320160e-04
-1.825850e-04
-1.659440e-04
-2.361640e-04
-2.360740e-04
-2.081010e-04
-1.826370e-04
-2.320160e-04
-2.362230e-04
0.000000e+00
0.000000e+00
5.549340e-04
5.515270e-04
0.000000e+00
0.000000e+00
5.525680e-04
5.549440e-04
0.000000e+00
0.000000e+00
5.515270e-04
5.549330e-04
0.000000e+00
0.000000e+00
5.549440e-04
5.525660e-04
5.549340e-04
5.515270e-04
1.987640e-03
2.000760e-03
5.525680e-04
5.549440e-04
1.974840e-03
1.987640e-03
5.515270e-04
5.549330e-04
2.000760e-03
1.987640e-03
5.549440e-04
5.525660e-04
1.987640e-03
1.974840e-03
1.987640e-03
2.000760e-03
2.003630e-03
1.946530e-03
1.974840e-03
1.987640e-03
2.064200e-03
2.003640e-03
2.000760e-03
1.987640e-03