<?xml version="1.0"?>
<!-- time 28.9017-->
<VTKFile type="UnstructuredGrid" version="0.1" byte_order="LittleEndian">
<UnstructuredGrid>
<Piece NumberOfPoints="7680" NumberOfCells="0">
<Points>
  <DataArray type="Float32" Name="Position" NumberOfComponents="3" format="ascii">
	-350 2050 -350
	-350 2050 -250
	-350 2050 -150
	-350 2050 -50
	-350 2050 50
	-350 2050 150
	-350 2050 250
	-350 2050 350
	-250 2050 -350
	-250 2050 -250
	-250 2050 -150
	-250 2050 -50
	-250 2050 50
	-250 2050 150
	-250 2050 250
	-250 2050 350
	-150 2050 -350
	-150 2050 -250
	-150 2050 -150
	-150 2050 -50
	-150 2050 50
	-150 2050 150
	-150 2050 250
	-150 2050 350
	-50 2050 -350
	-50 2050 -250
	-50 2050 -150
	-50 2050 -50
	-50 2050 50
	-50 2050 150
	-50 2050 250
	-50 2050 350
	50 2050 -350
	50 2050 -250
	50 2050 -150
	50 2050 -50
	50 2050 50
	50 2050 150
	50 2050 250
	50 2050 350
	150 2050 -350
	150 2050 -250
	150 2050 -150
	150 2050 -50
	150 2050 50
	150 2050 150
	150 2050 250
	150 2050 350
	250 2050 -350
	250 2050 -250
	250 2050 -150
	250 2050 -50
	250 2050 50
	250 2050 150
	250 2050 250
	250 2050 350
	350 2050 -350
	350 2050 -250
	350 2050 -150
	350 2050 -50
	350 2050 50
	350 2050 150
	350 2050 250
	350 2050 350
	-350 2150 -350
	-350 2150 -250
	-350 2150 -150
	-350 2150 -50
	-350 2150 50
	-350 2150 150
	-350 2150 250
	-350 2150 350
	-250 2150 -350
	-250 2150 -250
	-250 2150 -150
	-250 2150 -50
	-250 2150 50
	-250 2150 150
	-250 2150 250
	-250 2150 350
	-150 2150 -350
	-150 2150 -250
	-150 2150 -150
	-150 2150 -50
	-150 2150 50
	-150 2150 150
	-150 2150 250
	-150 2150 350
	-50 2150 -350
	-50 2150 -250
	-50 2150 -150
	-50 2150 -50
	-50 2150 50
	-50 2150 150
	-50 2150 250
	-50 2150 350
	50 2150 -350
	50 2150 -250
	50 2150 -150
	50 2150 -50
	50 2150 50
	50 2150 150
	50 2150 250
	50 2150 350
	150 2150 -350
	150 2150 -250
	150 2150 -150
	150 2150 -50
	150 2150 50
	150 2150 150
	150 2150 250
	150 2150 350
	250 2150 -350
	250 2150 -250
	250 2150 -150
	250 2150 -50
	250 2150 50
	250 2150 150
	250 2150 250
	250 2150 350
	350 2150 -350
	350 2150 -250
	350 2150 -150
	350 2150 -50
	350 2150 50
	350 2150 150
	350 2150 250
	350 2150 350
	-350 2250 -350
	-350 2250 -250
	-350 2250 -150
	-350 2250 -50
	-350 2250 50
	-350 2250 150
	-350 2250 250
	-350 2250 350
	-250 2250 -350
	-250 2250 -250
	-250 2250 -150
	-250 2250 -50
	-250 2250 50
	-250 2250 150
	-250 2250 250
	-250 2250 350
	-150 2250 -350
	-150 2250 -250
	-150 2250 -150
	-150 2250 -50
	-150 2250 50
	-150 2250 150
	-150 2250 250
	-150 2250 350
	-50 2250 -350
	-50 2250 -250
	-50 2250 -150
	-50 2250 -50
	-50 2250 50
	-50 2250 150
	-50 2250 250
	-50 2250 350
	50 2250 -350
	50 2250 -250
	50 2250 -150
	50 2250 -50
	50 2250 50
	50 2250 150
	50 2250 250
	50 2250 350
	150 2250 -350
	150 2250 -250
	150 2250 -150
	150 2250 -50
	150 2250 50
	150 2250 150
	150 2250 250
	150 2250 350
	250 2250 -350
	250 2250 -250
	250 2250 -150
	250 2250 -50
	250 2250 50
	250 2250 150
	250 2250 250
	250 2250 350
	350 2250 -350
	350 2250 -250
	350 2250 -150
	350 2250 -50
	350 2250 50
	350 2250 150
	350 2250 250
	350 2250 350
	-350 2350 -350
	-350 2350 -250
	-350 2350 -150
	-350 2350 -50
	-350 2350 50
	-350 2350 150
	-350 2350 250
	-350 2350 350
	-250 2350 -350
	-250 2350 -250
	-250 2350 -150
	-250 2350 -50
	-250 2350 50
	-250 2350 150
	-250 2350 250
	-250 2350 350
	-150 2350 -350
	-150 2350 -250
	-150 2350 -150
	-150 2350 -50
	-150 2350 50
	-150 2350 150
	-150 2350 250
	-150 2350 350
	-50 2350 -350
	-50 2350 -250
	-50 2350 -150
	-50 2350 -50
	-50 2350 50
	-50 2350 150
	-50 2350 250
	-50 2350 350
	50 2350 -350
	50 2350 -250
	50 2350 -150
	50 2350 -50
	50 2350 50
	50 2350 150
	50 2350 250
	50 2350 350
	150 2350 -350
	150 2350 -250
	150 2350 -150
	150 2350 -50
	150 2350 50
	150 2350 150
	150 2350 250
	150 2350 350
	250 2350 -350
	250 2350 -250
	250 2350 -150
	250 2350 -50
	250 2350 50
	250 2350 150
	250 2350 250
	250 2350 350
	350 2350 -350
	350 2350 -250
	350 2350 -150
	350 2350 -50
	350 2350 50
	350 2350 150
	350 2350 250
	350 2350 350
	-350 2450 -350
	-350 2450 -250
	-350 2450 -150
	-350 2450 -50
	-350 2450 50
	-350 2450 150
	-350 2450 250
	-350 2450 350
	-250 2450 -350
	-250 2450 -250
	-250 2450 -150
	-250 2450 -50
	-250 2450 50
	-250 2450 150
	-250 2450 250
	-250 2450 350
	-150 2450 -350
	-150 2450 -250
	-150 2450 -150
	-150 2450 -50
	-150 2450 50
	-150 2450 150
	-150 2450 250
	-150 2450 350
	-50 2450 -350
	-50 2450 -250
	-50 2450 -150
	-50 2450 -50
	-50 2450 50
	-50 2450 150
	-50 2450 250
	-50 2450 350
	50 2450 -350
	50 2450 -250
	50 2450 -150
	50 2450 -50
	50 2450 50
	50 2450 150
	50 2450 250
	50 2450 350
	150 2450 -350
	150 2450 -250
	150 2450 -150
	150 2450 -50
	150 2450 50
	150 2450 150
	150 2450 250
	150 2450 350
	250 2450 -350
	250 2450 -250
	250 2450 -150
	250 2450 -50
	250 2450 50
	250 2450 150
	250 2450 250
	250 2450 350
	350 2450 -350
	350 2450 -250
	350 2450 -150
	350 2450 -50
	350 2450 50
	350 2450 150
	350 2450 250
	350 2450 350
	-350 2550 -350
	-350 2550 -250
	-350 2550 -150
	-350 2550 -50
	-350 2550 50
	-350 2550 150
	-350 2550 250
	-350 2550 350
	-250 2550 -350
	-250 2550 -250
	-250 2550 -150
	-250 2550 -50
	-250 2550 50
	-250 2550 150
	-250 2550 250
	-250 2550 350
	-150 2550 -350
	-150 2550 -250
	-150 2550 -150
	-150 2550 -50
	-150 2550 50
	-150 2550 150
	-150 2550 250
	-150 2550 350
	-50 2550 -350
	-50 2550 -250
	-50 2550 -150
	-50 2550 -50
	-50 2550 50
	-50 2550 150
	-50 2550 250
	-50 2550 350
	50 2550 -350
	50 2550 -250
	50 2550 -150
	50 2550 -50
	50 2550 50
	50 2550 150
	50 2550 250
	50 2550 350
	150 2550 -350
	150 2550 -250
	150 2550 -150
	150 2550 -50
	150 2550 50
	150 2550 150
	150 2550 250
	150 2550 350
	250 2550 -350
	250 2550 -250
	250 2550 -150
	250 2550 -50
	250 2550 50
	250 2550 150
	250 2550 250
	250 2550 350
	350 2550 -350
	350 2550 -250
	350 2550 -150
	350 2550 -50
	350 2550 50
	350 2550 150
	350 2550 250
	350 2550 350
	-350 2650 -350
	-350 2650 -250
	-350 2650 -150
	-350 2650 -50
	-350 2650 50
	-350 2650 150
	-350 2650 250
	-350 2650 350
	-250 2650 -350
	-250 2650 -250
	-250 2650 -150
	-250 2650 -50
	-250 2650 50
	-250 2650 150
	-250 2650 250
	-250 2650 350
	-150 2650 -350
	-150 2650 -250
	-150 2650 -150
	-150 2650 -50
	-150 2650 50
	-150 2650 150
	-150 2650 250
	-150 2650 350
	-50 2650 -350
	-50 2650 -250
	-50 2650 -150
	-50 2650 -50
	-50 2650 50
	-50 2650 150
	-50 2650 250
	-50 2650 350
	50 2650 -350
	50 2650 -250
	50 2650 -150
	50 2650 -50
	50 2650 50
	50 2650 150
	50 2650 250
	50 2650 350
	150 2650 -350
	150 2650 -250
	150 2650 -150
	150 2650 -50
	150 2650 50
	150 2650 150
	150 2650 250
	150 2650 350
	250 2650 -350
	250 2650 -250
	250 2650 -150
	250 2650 -50
	250 2650 50
	250 2650 150
	250 2650 250
	250 2650 350
	350 2650 -350
	350 2650 -250
	350 2650 -150
	350 2650 -50
	350 2650 50
	350 2650 150
	350 2650 250
	350 2650 350
	-350 2750 -350
	-350 2750 -250
	-350 2750 -150
	-350 2750 -50
	-350 2750 50
	-350 2750 150
	-350 2750 250
	-350 2750 350
	-250 2750 -350
	-250 2750 -250
	-250 2750 -150
	-250 2750 -50
	-250 2750 50
	-250 2750 150
	-250 2750 250
	-250 2750 350
	-150 2750 -350
	-150 2750 -250
	-150 2750 -150
	-150 2750 -50
	-150 2750 50
	-150 2750 150
	-150 2750 250
	-150 2750 350
	-50 2750 -350
	-50 2750 -250
	-50 2750 -150
	-50 2750 -50
	-50 2750 50
	-50 2750 150
	-50 2750 250
	-50 2750 350
	50 2750 -350
	50 2750 -250
	50 2750 -150
	50 2750 -50
	50 2750 50
	50 2750 150
	50 2750 250
	50 2750 350
	150 2750 -350
	150 2750 -250
	150 2750 -150
	150 2750 -50
	150 2750 50
	150 2750 150
	150 2750 250
	150 2750 350
	250 2750 -350
	250 2750 -250
	250 2750 -150
	250 2750 -50
	250 2750 50
	250 2750 150
	250 2750 250
	250 2750 350
	350 2750 -350
	350 2750 -250
	350 2750 -150
	350 2750 -50
	350 2750 50
	350 2750 150
	350 2750 250
	350 2750 350
	-350 2850 -350
	-350 2850 -250
	-350 2850 -150
	-350 2850 -50
	-350 2850 50
	-350 2850 150
	-350 2850 250
	-350 2850 350
	-250 2850 -350
	-250 2850 -250
	-250 2850 -150
	-250 2850 -50
	-250 2850 50
	-250 2850 150
	-250 2850 250
	-250 2850 350
	-150 2850 -350
	-150 2850 -250
	-150 2850 -150
	-150 2850 -50
	-150 2850 50
	-150 2850 150
	-150 2850 250
	-150 2850 350
	-50 2850 -350
	-50 2850 -250
	-50 2850 -150
	-50 2850 -50
	-50 2850 50
	-50 2850 150
	-50 2850 250
	-50 2850 350
	50 2850 -350
	50 2850 -250
	50 2850 -150
	50 2850 -50
	50 2850 50
	50 2850 150
	50 2850 250
	50 2850 350
	150 2850 -350
	150 2850 -250
	150 2850 -150
	150 2850 -50
	150 2850 50
	150 2850 150
	150 2850 250
	150 2850 350
	250 2850 -350
	250 2850 -250
	250 2850 -150
	250 2850 -50
	250 2850 50
	250 2850 150
	250 2850 250
	250 2850 350
	350 2850 -350
	350 2850 -250
	350 2850 -150
	350 2850 -50
	350 2850 50
	350 2850 150
	350 2850 250
	350 2850 350
	-350 2950 -350
	-350 2950 -250
	-350 2950 -150
	-350 2950 -50
	-350 2950 50
	-350 2950 150
	-350 2950 250
	-350 2950 350
	-250 2950 -350
	-250 2950 -250
	-250 2950 -150
	-250 2950 -50
	-250 2950 50
	-250 2950 150
	-250 2950 250
	-250 2950 350
	-150 2950 -350
	-150 2950 -250
	-150 2950 -150
	-150 2950 -50
	-150 2950 50
	-150 2950 150
	-150 2950 250
	-150 2950 350
	-50 2950 -350
	-50 2950 -250
	-50 2950 -150
	-50 2950 -50
	-50 2950 50
	-50 2950 150
	-50 2950 250
	-50 2950 350
	50 2950 -350
	50 2950 -250
	50 2950 -150
	50 2950 -50
	50 2950 50
	50 2950 150
	50 2950 250
	50 2950 350
	150 2950 -350
	150 2950 -250
	150 2950 -150
	150 2950 -50
	150 2950 50
	150 2950 150
	150 2950 250
	150 2950 350
	250 2950 -350
	250 2950 -250
	250 2950 -150
	250 2950 -50
	250 2950 50
	250 2950 150
	250 2950 250
	250 2950 350
	350 2950 -350
	350 2950 -250
	350 2950 -150
	350 2950 -50
	350 2950 50
	350 2950 150
	350 2950 250
	350 2950 350
	-350 3050 -350
	-350 3050 -250
	-350 3050 -150
	-350 3050 -50
	-350 3050 50
	-350 3050 150
	-350 3050 250
	-350 3050 350
	-250 3050 -350
	-250 3050 -250
	-250 3050 -150
	-250 3050 -50
	-250 3050 50
	-250 3050 150
	-250 3050 250
	-250 3050 350
	-150 3050 -350
	-150 3050 -250
	-150 3050 -150
	-150 3050 -50
	-150 3050 50
	-150 3050 150
	-150 3050 250
	-150 3050 350
	-50 3050 -350
	-50 3050 -250
	-50 3050 -150
	-50 3050 -50
	-50 3050 50
[...]
<PointData  Vectors="vector">
  <DataArray type="Float32" Name="Velocity" NumberOfComponents="3" format="ascii">
 4.14993e-13 -5.72817e-12 4.15175e-13
 4.14883e-13 -8.07712e-12 2.78391e-13
 4.21486e-13 -7.9547e-12 1.45762e-13
 4.33677e-13 -4.23209e-12 -1.77156e-15
 4.4125e-13 -3.8314e-12 -1.64192e-13
 4.42991e-13 -6.91501e-12 -2.87041e-13
 4.47808e-13 -7.07987e-12 -3.77631e-13
 4.56178e-13 -4.4921e-12 -4.69434e-13
 3.16437e-13 -8.21231e-12 4.15723e-13
 3.15405e-13 -7.22764e-12 2.80078e-13
 3.21279e-13 -5.41773e-12 1.52235e-13
 3.37906e-13 -5.63625e-12 8.42433e-15
 3.46884e-13 -6.06249e-12 -1.51877e-13
 3.46603e-13 -4.7801e-12 -2.73891e-13
 3.53966e-13 -6.15423e-12 -3.64698e-13
 3.6502e-13 -7.02927e-12 -4.60724e-13
 2.18953e-13 -8.85067e-12 4.23384e-13
 2.20907e-13 -6.55529e-12 2.88975e-13
 2.26956e-13 -4.85932e-12 1.63046e-13
 2.41618e-13 -3.14746e-12 2.22293e-14
 2.51886e-13 -2.65235e-12 -1.41006e-13
 2.55704e-13 -3.55579e-12 -2.62995e-13
 2.64438e-13 -4.70574e-12 -3.56692e-13
 2.74167e-13 -5.96015e-12 -4.56805e-13
 8.85662e-14 -5.54595e-12 4.37057e-13
 9.32562e-14 -6.19339e-12 3.08635e-13
 1.01339e-13 -4.27102e-12 1.81679e-13
 1.10927e-13 -9.53357e-13 3.58239e-14
 1.21872e-13 -3.53077e-13 -1.29209e-13
 1.32077e-13 -2.55525e-12 -2.58291e-13
 1.39826e-13 -5.89127e-12 -3.57342e-13
 1.47757e-13 -3.46662e-12 -4.56936e-13
 -8.2048e-14 -5.94954e-12 4.43762e-13
 -7.49988e-14 -5.54174e-12 3.17629e-13
 -6.96493e-14 -5.44227e-12 1.92565e-13
 -6.15913e-14 -1.42439e-12 4.75107e-14
 -5.04688e-14 -8.55483e-13 -1.17687e-13
 -3.8399e-14 -2.95183e-12 -2.4788e-13
 -2.76715e-14 -5.9936e-12 -3.49058e-13
 -2.19832e-14 -3.57805e-12 -4.5106e-13
 -2.36294e-13 -9.98661e-12 4.43232e-13
 -2.26997e-13 -7.739e-12 3.15182e-13
 -2.20051e-13 -4.91198e-12 1.94514e-13
 -2.1873e-13 -5.36836e-12 5.62307e-14
 -2.07949e-13 -4.09859e-12 -1.0748e-13
 -1.898e-13 -4.58903e-12 -2.32918e-13
 -1.81231e-13 -5.89563e-12 -3.32568e-13
 -1.78537e-13 -7.54341e-12 -4.39354e-13
 -3.73488e-13 -9.68079e-12 4.48046e-13
 -3.62248e-13 -7.73804e-12 3.22107e-13
 -3.56066e-13 -7.68334e-12 2.02532e-13
 -3.58861e-13 -5.52185e-12 6.29782e-14
 -3.4912e-13 -5.50135e-12 -9.80242e-14
 -3.28496e-13 -6.66593e-12 -2.25662e-13
 -3.20351e-13 -9.64107e-12 -3.25762e-13
 -3.21111e-13 -8.08246e-12 -4.3196e-13
 -5.13342e-13 -9.16079e-12 4.58387e-13
 -5.04247e-13 -9.75816e-12 3.34724e-13
 -5.0008e-13 -9.87711e-12 2.13613e-13
 -5.00392e-13 -4.85751e-12 7.21596e-14
 -4.91934e-13 -4.35043e-12 -9.10738e-14
 -4.76009e-13 -8.4556e-12 -2.21554e-13
 -4.67511e-13 -7.91676e-12 -3.2483e-13
 -4.67805e-13 -7.31205e-12 -4.30302e-13
 -4.52039e-13 -2.22109e-10 -5.15164e-13
 -4.56528e-13 -2.26715e-10 -4.94288e-13
 -4.44554e-13 -2.25373e-10 -3.81899e-13
 -4.09039e-13 -2.13385e-10 -2.14939e-13
 -3.99655e-13 -2.1196e-10 -1.34886e-14
 -4.17971e-13 -2.24246e-10 1.76115e-13
 -4.16463e-13 -2.25248e-10 3.27487e-13
 -4.01959e-13 -2.20461e-10 3.91503e-13
 -3.8879e-13 -2.27042e-10 -5.19964e-13
 -3.93702e-13 -2.34834e-10 -4.97877e-13
 -3.84719e-13 -2.34349e-10 -3.80488e-13
 -3.50113e-13 -2.17898e-10 -2.06762e-13
 -3.39803e-13 -2.17886e-10 -2.77667e-15
 -3.55684e-13 -2.33756e-10 1.9124e-13
 -3.50002e-13 -2.32575e-10 3.43768e-13
 -3.33866e-13 -2.25166e-10 4.04945e-13
 -2.36382e-13 -2.25154e-10 -5.07836e-13
 -2.37827e-13 -2.34662e-10 -4.87765e-13
 -2.27485e-13 -2.31966e-10 -3.68433e-13
 -2.01835e-13 -2.18418e-10 -1.97287e-13
 -1.90847e-13 -2.18359e-10 7.40863e-15
 -1.96261e-13 -2.31678e-10 1.9666e-13
 -1.90785e-13 -2.3367e-10 3.48171e-13
 -1.77006e-13 -2.24824e-10 4.04051e-13
 -4.5661e-14 -2.13761e-10 -4.71909e-13
 -4.11646e-14 -2.20192e-10 -4.52462e-13
 -3.3983e-14 -2.18461e-10 -3.42092e-13
 -1.58657e-14 -2.0476e-10 -1.79325e-13
 -4.33341e-15 -2.0493e-10 9.77345e-15
 -1.05478e-15 -2.18288e-10 1.89852e-13
 8.63985e-15 -2.16457e-10 3.3021e-13
 1.71953e-14 -2.13112e-10 3.82662e-13
 1.57128e-13 -2.14041e-10 -4.6379e-13
 1.64619e-13 -2.20684e-10 -4.43126e-13
 1.73162e-13 -2.16416e-10 -3.32141e-13
 1.76016e-13 -2.04715e-10 -1.69257e-13
 1.87996e-13 -2.04747e-10 1.94411e-14
 2.0734e-13 -2.18335e-10 1.98685e-13
 2.16293e-13 -2.17124e-10 3.37868e-13
 2.22209e-13 -2.12367e-10 3.88771e-13
 3.25165e-13 -2.25115e-10 -4.84197e-13
 3.38974e-13 -2.35106e-10 -4.609e-13
 3.44218e-13 -2.34253e-10 -3.3934e-13
 3.37953e-13 -2.16463e-10 -1.67556e-13
 3.50192e-13 -2.18497e-10 3.60235e-14
 3.78922e-13 -2.32289e-10 2.22641e-13
 3.91204e-13 -2.33757e-10 3.70383e-13
 3.90794e-13 -2.23819e-10 4.22051e-13
 4.37837e-13 -2.29603e-10 -4.82831e-13
 4.55072e-13 -2.36716e-10 -4.5574e-13
 4.6078e-13 -2.35181e-10 -3.346e-13
 4.43847e-13 -2.20791e-10 -1.59397e-13
 4.56033e-13 -2.20773e-10 4.29169e-14
 4.95012e-13 -2.34272e-10 2.3249e-13
 5.06527e-13 -2.33393e-10 3.78963e-13
 5.021e-13 -2.26496e-10 4.33677e-13
 4.57843e-13 -2.2518e-10 -4.66381e-13
 4.74073e-13 -2.29799e-10 -4.38354e-13
 4.75788e-13 -2.26091e-10 -3.20415e-13
 4.56328e-13 -2.17009e-10 -1.51169e-13
 4.67952e-13 -2.1671e-10 4.82933e-14
 5.08655e-13 -2.25231e-10 2.3201e-13
 5.23502e-13 -2.28296e-10 3.75062e-13
 5.19104e-13 -2.22716e-10 4.30251e-13
 -1.81507e-12 -5.27812e-10 -1.92289e-12
 -1.80144e-12 -5.27543e-10 -1.62169e-12
 -1.76959e-12 -5.23146e-10 -1.13281e-12
 -1.73261e-12 -5.21435e-10 -4.61913e-13
 -1.72379e-12 -5.23324e-10 2.59367e-13
 -1.74543e-12 -5.23485e-10 9.28552e-13
 -1.76647e-12 -5.26659e-10 1.4362e-12
 -1.77204e-12 -5.2725e-10 1.75734e-12
 -1.48305e-12 -5.2715e-10 -1.9123e-12
 -1.47119e-12 -5.25092e-10 -1.61245e-12
 -1.43871e-12 -5.23181e-10 -1.12592e-12
 -1.41414e-12 -5.23007e-10 -4.57761e-13
 -1.40554e-12 -5.22246e-10 2.59172e-13
 -1.41604e-12 -5.2404e-10 9.2514e-13
 -1.43885e-12 -5.28515e-10 1.42989e-12
 -1.44318e-12 -5.26532e-10 1.74887e-12
 -9.60378e-13 -5.22902e-10 -1.88403e-12
 -9.51166e-13 -5.22642e-10 -1.58487e-12
 -9.29157e-13 -5.24777e-10 -1.10606e-12
 -9.07411e-13 -5.20825e-10 -4.57845e-13
 -8.99211e-13 -5.21786e-10 2.54216e-13
 -9.07898e-13 -5.24473e-10 9.08964e-13
 -9.21361e-13 -5.23934e-10 1.4037e-12
 -9.23578e-13 -5.24163e-10 1.72344e-12
 -2.74217e-13 -5.22755e-10 -1.8492e-12
 -2.68032e-13 -5.2103e-10 -1.56371e-12
 -2.57242e-13 -5.21073e-10 -1.08961e-12
 -2.432e-13 -5.20904e-10 -4.51301e-13
 -2.3496e-13 -5.20335e-10 2.4868e-13
 -2.36303e-13 -5.21697e-10 8.95919e-13
 -2.38725e-13 -5.23164e-10 1.38821e-12
 -2.38165e-13 -5.21865e-10 1.69637e-12
 4.61912e-13 -5.21802e-10 -1.8423e-12
 4.64382e-13 -5.21649e-10 -1.55737e-12
 4.62445e-13 -5.22781e-10 -1.08436e-12
 4.65374e-13 -5.2059e-10 -4.47095e-13
 4.7264e-13 -5.21011e-10 2.52207e-13
 4.82023e-13 -5.20799e-10 8.99293e-13
 4.86444e-13 -5.21914e-10 1.39172e-12
 4.91478e-13 -5.23628e-10 1.69976e-12
 1.14319e-12 -5.24128e-10 -1.86489e-12
 1.1439e-12 -5.23388e-10 -1.56813e-12
 1.14053e-12 -5.25188e-10 -1.09248e-12
 1.13572e-12 -5.22999e-10 -4.47611e-13
 1.1478e-12 -5.21526e-10 2.62576e-13
 1.17132e-12 -5.26652e-10 9.1723e-13
 1.19315e-12 -5.23058e-10 1.41248e-12
 1.20153e-12 -5.24324e-10 1.73272e-12
 1.63736e-12 -5.26319e-10 -1.88361e-12
 1.63638e-12 -5.26054e-10 -1.58762e-12
 1.61795e-12 -5.23647e-10 -1.10208e-12
 1.61044e-12 -5.21288e-10 -4.46578e-13
 1.62225e-12 -5.206e-10 2.7144e-13
 1.64966e-12 -5.23198e-10 9.37165e-13
 1.68219e-12 -5.2449e-10 1.44285e-12
 1.69386e-12 -5.26727e-10 1.76284e-12
 1.93977e-12 -5.25021e-10 -1.88563e-12
 1.93752e-12 -5.25916e-10 -1.58862e-12
 1.91957e-12 -5.23622e-10 -1.10157e-12
 1.89988e-12 -5.21512e-10 -4.44253e-13
 1.91267e-12 -5.21851e-10 2.77444e-13
 1.9549e-12 -5.24771e-10 9.46126e-13
 1.98916e-12 -5.27276e-10 1.45462e-12
 2.0032e-12 -5.24719e-10 1.77658e-12
 -3.95069e-12 -7.05118e-10 -4.02535e-12
 -3.91114e-12 -6.98122e-10 -2.74606e-12
 -3.88374e-12 -7.05697e-10 -2.05391e-12
 -3.82368e-12 -7.00174e-10 -6.47048e-13
 -3.82233e-12 -7.00791e-10 6.71892e-13
 -3.88251e-12 -7.1231e-10 2.07141e-12
 -3.93369e-12 -7.07435e-10 2.69356e-12
 -3.95608e-12 -7.1075e-10 3.9229e-12
 -2.6897e-12 -6.97177e-10 -4.0148e-12
 -2.69212e-12 -6.98172e-10 -2.7403e-12
 -2.67113e-12 -7.02168e-10 -2.05234e-12
 -2.62609e-12 -6.98688e-10 -6.65714e-13
 -2.62868e-12 -7.00108e-10 6.55416e-13
 -2.68105e-12 -7.05833e-10 2.03728e-12
 -2.69232e-12 -7.02175e-10 2.65089e-12
 -2.71795e-12 -7.06967e-10 3.90718e-12
 -1.99694e-12 -7.02092e-10 -3.99891e-12
 -1.98715e-12 -6.98822e-10 -2.73498e-12
 -1.97684e-12 -6.98004e-10 -2.06743e-12
 -1.94545e-12 -6.93716e-10 -6.78782e-13
 -1.95204e-12 -6.99585e-10 6.3334e-13
 -1.99781e-12 -7.05423e-10 1.99679e-12
 -2.02987e-12 -7.05699e-10 2.6126e-12
 -2.05261e-12 -7.09245e-10 3.86854e-12
 -6.18565e-13 -6.93637e-10 -3.95003e-12
 -6.15181e-13 -6.91235e-10 -2.70525e-12
 -6.12048e-13 -6.91558e-10 -2.06345e-12
 -6.037e-13 -6.88701e-10 -6.86908e-13
 -6.12156e-13 -6.90347e-10 6.06105e-13
 -6.37997e-13 -6.98732e-10 1.93761e-12
 -6.55197e-13 -6.99682e-10 2.57616e-12
 -6.743e-13 -6.99739e-10 3.77689e-12
 7.3368e-13 -6.939e-10 -3.95146e-12
 7.26919e-13 -6.91529e-10 -2.71149e-12
 7.21289e-13 -6.9255e-10 -2.08191e-12
 7.04151e-13 -6.89849e-10 -6.94964e-13
 7.05548e-13 -6.89431e-10 5.9012e-13
 6.985e-13 -6.97038e-10 1.92348e-12
 6.95141e-13 -6.99036e-10 2.56591e-12
 6.87352e-13 -6.98215e-10 3.77042e-12
 2.22279e-12 -6.99327e-10 -4.00517e-12
 2.21201e-12 -6.93608e-10 -2.75474e-12
 2.20116e-12 -6.91797e-10 -2.11571e-12
 2.18124e-12 -6.93022e-10 -7.08904e-13
 2.16909e-12 -6.94331e-10 5.97955e-13
 2.18918e-12 -6.97515e-10 1.94351e-12
 2.1793e-12 -7.01698e-10 2.61363e-12
 2.18037e-12 -7.0598e-10 3.81569e-12
 2.85632e-12 -6.9454e-10 -4.06141e-12
 2.84083e-12 -6.93749e-10 -2.73999e-12
 2.82312e-12 -6.95211e-10 -2.12846e-12
 2.76543e-12 -6.92817e-10 -7.1658e-13
 2.7676e-12 -6.93325e-10 5.98823e-13
 2.82672e-12 -7.01486e-10 1.95146e-12
 2.8409e-12 -6.99597e-10 2.63218e-12
 2.85325e-12 -7.00892e-10 3.84084e-12
 4.20391e-12 -7.01661e-10 -4.05963e-12
 4.18894e-12 -6.95373e-10 -2.77036e-12
 4.16787e-12 -7.01873e-10 -2.13874e-12
 4.13759e-12 -6.96362e-10 -7.23053e-13
 4.1449e-12 -6.98643e-10 6.02256e-13
 4.18591e-12 -7.0419e-10 1.96109e-12
 4.21169e-12 -7.0003e-10 2.64965e-12
 4.22963e-12 -7.05609e-10 3.86042e-12
 -3.56831e-12 -5.78603e-10 -3.52013e-12
 -3.53325e-12 -5.85576e-10 -2.35569e-12
 -3.53544e-12 -5.91112e-10 -1.49878e-12
 -3.59572e-12 -6.01265e-10 -3.56317e-13
 -3.6084e-12 -6.03369e-10 8.13875e-13
 -3.59629e-12 -5.94073e-10 2.0563e-12
 -3.64428e-12 -5.90213e-10 2.52626e-12
 -3.72515e-12 -5.87735e-10 3.68472e-12
 -2.48817e-12 -5.856e-10 -3.50533e-12
 -2.44985e-12 -5.91437e-10 -2.34557e-12
 -2.44928e-12 -5.96364e-10 -1.51692e-12
 -2.49956e-12 -6.03878e-10 -3.9935e-13
 -2.52185e-12 -6.0551e-10 7.64002e-13
 -2.49397e-12 -6.00242e-10 1.96816e-12
 -2.51597e-12 -5.97097e-10 2.46615e-12
 -2.57254e-12 -5.90135e-10 3.59281e-12
 -1.81023e-12 -5.91356e-10 -3.53243e-12
 -1.79357e-12 -5.96791e-10 -2.37834e-12
 -1.80215e-12 -6.08676e-10 -1.56563e-12
 -1.86263e-12 -6.15525e-10 -4.62778e-13
 -1.90786e-12 -6.12013e-10 7.17688e-13
 -1.92186e-12 -6.09588e-10 1.89961e-12
 -1.97763e-12 -6.00044e-10 2.43839e-12
 -2.05564e-12 -5.95294e-10 3.53505e-12
 -6.54373e-13 -5.99117e-10 -3.63166e-12
 -6.56291e-13 -6.05338e-10 -2.43434e-12
 -6.72681e-13 -6.13564e-10 -1.66532e-12
 -6.94873e-13 -6.17891e-10 -5.14446e-13
 -7.18204e-13 -6.19146e-10 6.87991e-13
 -7.54468e-13 -6.1305e-10 1.86368e-12
 -7.97867e-13 -6.05909e-10 2.45684e-12
 -8.43413e-13 -6.03663e-10 3.54148e-12
 5.73371e-13 -5.99115e-10 -3.64735e-12
 5.62296e-13 -6.04455e-10 -2.46052e-12
 5.54547e-13 -6.11514e-10 -1.71176e-12
 5.4437e-13 -6.16047e-10 -5.46891e-13
 5.22819e-13 -6.18027e-10 6.56522e-13
 4.85616e-13 -6.13543e-10 1.8152e-12
 4.38654e-13 -6.05149e-10 2.42944e-12
 4.03964e-13 -6.02002e-10 3.5237e-12
 1.84763e-12 -5.92134e-10 -3.61967e-12
 1.79786e-12 -5.99415e-10 -2.41524e-12
 1.77964e-12 -6.1121e-10 -1.69971e-12
 1.79726e-12 -6.12339e-10 -5.57229e-13
 1.75355e-12 -6.12951e-10 6.35204e-13
 1.65583e-12 -6.09663e-10 1.75125e-12
 1.60913e-12 -5.98665e-10 2.38063e-12
 1.60068e-12 -5.92291e-10 3.46103e-12
 2.56432e-12 -5.86511e-10 -3.62393e-12
 2.50151e-12 -5.93129e-10 -2.42979e-12
 2.51039e-12 -5.99313e-10 -1.71714e-12
 2.54323e-12 -6.06565e-10 -5.62789e-13
 2.52458e-12 -6.07701e-10 6.21739e-13
 2.45355e-12 -5.97897e-10 1.74315e-12
 2.45525e-12 -5.93108e-10 2.38319e-12
 2.47641e-12 -5.86274e-10 3.46115e-12
 3.8649e-12 -5.81329e-10 -3.66551e-12
 3.82792e-12 -5.87256e-10 -2.47987e-12
 3.79644e-12 -5.92507e-10 -1.75792e-12
 3.84434e-12 -5.99896e-10 -5.76717e-13
 3.8366e-12 -5.98957e-10 6.21259e-13
 3.7707e-12 -5.93164e-10 1.76256e-12
 3.73175e-12 -5.86503e-10 2.42326e-12
 3.75825e-12 -5.82713e-10 3.49827e-12
 2.24625e-12 2.04088e-09 2.36238e-12
 2.31184e-12 2.05275e-09 2.17492e-12
 2.26084e-12 2.0173e-09 2.2138e-12
 2.03419e-12 1.91618e-09 8.99505e-13
 2.00841e-12 1.91319e-09 3.37361e-13
 2.18251e-12 2.00922e-09 -9.76215e-13
 2.18112e-12 2.04164e-09 -1.78747e-12
 2.06648e-12 2.02872e-09 -2.07876e-12
 1.81584e-12 2.05399e-09 2.39197e-12
 1.82531e-12 2.06938e-09 2.15847e-12
 1.82567e-12 2.0315e-09 2.22977e-12
 1.79527e-12 1.92812e-09 8.43583e-13
 1.78708e-12 1.92523e-09 2.08367e-13
 1.8277e-12 2.02368e-09 -1.19116e-12
 1.81925e-12 2.05858e-09 -1.85077e-12
 1.77153e-12 2.04211e-09 -2.19709e-12
 1.51116e-12 2.02127e-09 2.30271e-12
 1.60985e-12 2.03423e-09 2.10339e-12
 1.53503e-12 2.00848e-09 2.10992e-12
 1.1768e-12 1.8917e-09 7.71996e-13
 1.08466e-12 1.88894e-09 8.4001e-14
 1.23895e-12 2.00101e-09 -1.28858e-12
 1.14363e-12 2.02392e-09 -1.86048e-12
 9.20222e-13 2.00995e-09 -2.20006e-12
 2.04575e-13 1.92396e-09 2.05071e-12
 1.85415e-13 1.93467e-09 1.94648e-12
 1.52928e-13 1.89559e-09 1.80841e-12
 4.76038e-14 1.79905e-09 6.87614e-13
 -4.09978e-14 1.79648e-09 -9.84772e-16
 -1.2309e-13 1.88869e-09 -1.1436e-12
 -2.43161e-13 1.92524e-09 -1.81e-12
 -3.66482e-13 1.9137e-09 -2.02532e-12
 -6.51626e-13 1.92468e-09 2.02357e-12
 -6.75202e-13 1.93556e-09 1.94813e-12
 -6.9948e-13 1.89672e-09 1.70725e-12
 -6.86651e-13 1.80051e-09 6.54067e-13
 -7.34962e-13 1.79824e-09 -9.42183e-14
 -8.27504e-13 1.89065e-09 -1.21841e-12
 -8.96645e-13 1.92735e-09 -1.81906e-12
 -9.39612e-13 1.91594e-09 -2.04195e-12
 -1.75677e-12 2.02304e-09 2.22061e-12
 -1.87945e-12 2.03649e-09 2.03477e-12
 -1.88423e-12 2.01143e-09 1.8881e-12
 -1.70965e-12 1.89553e-09 6.65444e-13
 -1.79069e-12 1.8936e-09 -1.77679e-13
 -2.09663e-12 2.00628e-09 -1.50704e-12
 -2.18756e-12 2.02961e-09 -1.88961e-12
 -2.20478e-12 2.01594e-09 -2.25265e-12
 -1.92996e-12 2.05589e-09 2.25647e-12
 -1.98711e-12 2.07204e-09 2.03858e-12
 -1.99423e-12 2.03522e-09 1.89447e-12
 -1.91151e-12 1.93311e-09 6.53799e-13
 -1.93574e-12 1.93144e-09 -1.98773e-13
 -2.0829e-12 2.03083e-09 -1.53756e-12
 -2.15377e-12 2.06632e-09 -1.90572e-12
 -2.12331e-12 2.05026e-09 -2.28884e-12
 -2.07239e-12 2.04203e-09 2.17784e-12
 -2.16289e-12 2.05485e-09 1.96888e-12
 -2.13723e-12 2.02073e-09 1.80716e-12
 -1.94332e-12 1.92118e-09 6.40509e-13
 -1.97201e-12 1.9197e-09 -2.08771e-13
 -2.22374e-12 2.01687e-09 -1.43999e-12
 -2.3055e-12 2.04998e-09 -1.87618e-12
 -2.26407e-12 2.03747e-09 -2.21319e-12
 1.36266e-11 7.98209e-09 1.37856e-11
 1.34935e-11 7.92331e-09 1.15768e-11
 1.32748e-11 7.79418e-09 8.34441e-12
 1.30335e-11 7.67996e-09 3.54116e-12
 1.30046e-11 7.67692e-09 -1.7894e-12
 1.31877e-11 7.78677e-09 -6.95282e-12
 1.33177e-11 7.91441e-09 -1.058e-11
 1.34272e-11 7.97374e-09 -1.33517e-11
 1.09595e-11 7.92416e-09 1.37098e-11
 1.09034e-11 7.86496e-09 1.13571e-11
 1.07147e-11 7.73846e-09 8.17726e-12
 1.0427e-11 7.62199e-09 3.39285e-12
 1.03466e-11 7.61892e-09 -1.88787e-12
 1.05083e-11 7.73089e-09 -6.9663e-12
 1.06701e-11 7.85563e-09 -1.05986e-11
 1.05631e-11 7.91506e-09 -1.32953e-11
 7.35613e-12 7.79745e-09 1.33467e-11
 7.26448e-12 7.74089e-09 1.11426e-11
 7.01372e-12 7.61385e-09 7.95418e-12
 6.96871e-12 7.50125e-09 3.20015e-12
 6.93344e-12 7.49815e-09 -1.9479e-12
 6.85279e-12 7.60612e-09 -6.84022e-12
 6.93523e-12 7.73123e-09 -1.04984e-11
 6.90497e-12 7.78777e-09 -1.31254e-11
 2.23491e-12 7.68695e-09 1.31504e-11
 2.21447e-12 7.62833e-09 1.08654e-11
 2.10579e-12 7.50531e-09 7.68812e-12
 2.01212e-12 7.38869e-09 3.12817e-12
 1.88641e-12 7.38573e-09 -1.965e-12
 1.85653e-12 7.49785e-09 -6.91057e-12
 1.7876e-12 7.619e-09 -1.03171e-11
 1.71035e-12 7.67769e-09 -1.2919e-11
 -3.07751e-12 7.68757e-09 1.31057e-11
 -3.11965e-12 7.62922e-09 1.08571e-11
 -3.09582e-12 7.50655e-09 7.604e-12
 -3.18888e-12 7.39032e-09 3.05659e-12
 -3.21056e-12 7.38768e-09 -2.00589e-12
 -3.37306e-12 7.49997e-09 -6.9644e-12
 -3.56416e-12 7.62114e-09 -1.03365e-11
 -3.67085e-12 7.67984e-09 -1.2914e-11
 -7.94458e-12 7.79845e-09 1.33282e-11
 -7.90117e-12 7.74266e-09 1.0991e-11
 -7.77511e-12 7.61666e-09 7.71431e-12
 -7.68239e-12 7.50516e-09 3.04688e-12
 -7.82549e-12 7.50294e-09 -2.14159e-12
 -8.00812e-12 7.61127e-09 -7.00222e-12
 -8.25072e-12 7.73638e-09 -1.04741e-11
 -8.46617e-12 7.79287e-09 -1.31711e-11
 -1.14227e-11 7.92412e-09 1.35425e-11
 -1.13207e-11 7.86617e-09 1.12157e-11
 -1.10825e-11 7.74123e-09 7.82415e-12
 -1.09714e-11 7.6264e-09 3.09471e-12
 -1.09966e-11 7.62458e-09 -2.11576e-12
 -1.13279e-11 7.73703e-09 -7.15382e-12
 -1.15508e-11 7.86166e-09 -1.08033e-11
 -1.1721e-11 7.92086e-09 -1.32901e-11
 -1.35925e-11 7.9801e-09 1.36421e-11
 -1.35605e-11 7.92292e-09 1.12915e-11
 -1.33932e-11 7.7958e-09 7.87215e-12
 -1.31926e-11 7.68354e-09 3.1152e-12
 -1.32582e-11 7.68204e-09 -2.16932e-12
 -1.34666e-11 7.79248e-09 -7.24638e-12
 -1.38336e-11 7.91986e-09 -1.07692e-11
 -1.39298e-11 7.97871e-09 -1.34025e-11
 3.03424e-11 5.68189e-09 3.03486e-11
 2.99766e-11 5.55543e-09 2.5759e-11
 2.98068e-11 5.53905e-09 1.74849e-11
 2.92563e-11 5.63953e-09 7.03883e-12
 2.93164e-11 5.64491e-09 -4.93601e-12
 2.97401e-11 5.55687e-09 -1.58122e-11
 2.99593e-11 5.58561e-09 -2.47065e-11
 3.01814e-11 5.72524e-09 -2.99863e-11
 2.50464e-11 5.53434e-09 3.01398e-11
 2.49158e-11 5.41906e-09 2.53054e-11
 2.4451e-11 5.40624e-09 1.7234e-11
 2.41945e-11 5.50367e-09 6.87957e-12
 2.40711e-11 5.51068e-09 -5.00734e-12
 2.43597e-11 5.42788e-09 -1.57057e-11
 2.46596e-11 5.45348e-09 -2.44144e-11
 2.47798e-11 5.57486e-09 -2.98564e-11
 1.62502e-11 5.4958e-09 2.97584e-11
 1.60406e-11 5.38881e-09 2.50341e-11
 1.59158e-11 5.37914e-09 1.69594e-11
 1.55874e-11 5.47845e-09 6.67124e-12
 1.5513e-11 5.47914e-09 -5.01914e-12
 1.57297e-11 5.39277e-09 -1.55573e-11
 1.57602e-11 5.4122e-09 -2.43157e-11
 1.58957e-11 5.53744e-09 -2.94734e-11
 5.38618e-12 5.5702e-09 2.9353e-11
 5.33867e-12 5.46767e-09 2.45136e-11
 5.18566e-12 5.45875e-09 1.66417e-11
 5.10485e-12 5.54782e-09 6.55548e-12
 4.99756e-12 5.55722e-09 -4.95611e-12
 4.95829e-12 5.47231e-09 -1.54762e-11
 4.90552e-12 5.49037e-09 -2.38579e-11
 4.8132e-12 5.60954e-09 -2.90081e-11
 -6.62857e-12 5.56157e-09 2.93532e-11
 -6.64035e-12 5.46232e-09 2.44954e-11
 -6.5976e-12 5.45156e-09 1.66332e-11
 -6.56671e-12 5.54451e-09 6.48451e-12
 -6.6289e-12 5.55222e-09 -4.9836e-12
 -6.87717e-12 5.46434e-09 -1.54056e-11
 -7.00871e-12 5.48712e-09 -2.3899e-11
 -7.23345e-12 5.60416e-09 -2.89243e-11
 -1.73549e-11 5.48568e-09 2.9751e-11
 -1.72171e-11 5.37042e-09 2.49749e-11
 -1.70114e-11 5.36196e-09 1.68937e-11
 -1.69161e-11 5.46722e-09 6.57779e-12
 -1.6919e-11 5.47149e-09 -5.10751e-12
 -1.72806e-11 5.37648e-09 -1.56274e-11
 -1.7602e-11 5.3931e-09 -2.42179e-11
 -1.77838e-11 5.51712e-09 -2.92951e-11
 -2.56971e-11 5.49688e-09 3.01075e-11
 -2.54486e-11 5.38952e-09 2.52101e-11
 -2.53469e-11 5.38456e-09 1.71234e-11
 -2.49886e-11 5.48644e-09 6.60704e-12
 -2.50471e-11 5.4918e-09 -5.11089e-12
 -2.53848e-11 5.39791e-09 -1.58082e-11
 -2.58133e-11 5.42121e-09 -2.42513e-11
 -2.6141e-11 5.54038e-09 -2.96756e-11
 -3.06962e-11 5.63782e-09 3.03424e-11
 -3.04453e-11 5.51358e-09 2.55178e-11
 -3.00318e-11 5.50548e-09 1.72688e-11
 -2.95743e-11 5.60598e-09 6.73357e-12
 -2.96647e-11 5.61141e-09 -5.184e-12
 -3.0239e-11 5.523e-09 -1.59377e-11
 -3.0584e-11 5.54672e-09 -2.44943e-11
 -3.09586e-11 5.67682e-09 -2.98703e-11
 3.88727e-11 -3.66605e-09 3.89756e-11
 3.85287e-11 -3.73402e-09 3.22078e-11
 3.81116e-11 -3.62464e-09 2.0932e-11
 3.81994e-11 -3.41332e-09 8.84747e-12
 3.83125e-11 -3.40606e-09 -6.44349e-12
 3.843e-11 -3.59302e-09 -1.88126e-11
 3.87717e-11 -3.68801e-09 -3.14282e-11