<?xml version="1.0"?>
<!-- time 39.543-->
<VTKFile type="UnstructuredGrid" version="0.1" byte_order="LittleEndian">
<UnstructuredGrid>
<Piece NumberOfPoints="120" NumberOfCells="0">
<Points>
  <DataArray type="Float32" Name="Position" NumberOfComponents="3" format="ascii">
	-200 2199.99 -200
	-200 2199.99 200
	200 2199.99 -200
	200 2199.99 200
	-200 2599.98 -200
	-200 2599.98 200
	200 2599.98 -200
	200 2599.98 200
	-200 2999.94 -200
	-200 2999.94 200
	200 2999.94 -200
	200 2999.94 200
	-200 3399.9 -200
	-200 3399.9 200
	200 3399.9 -200
	200 3399.9 200
	-200 3799.84 -200
	-200 3799.84 200
	200 3799.84 -200
	200 3799.84 200
	-200 4199.78 -200
	-200 4199.78 200
	200 4199.78 -200
	200 4199.78 200
	-200 4599.75 -200
	-200 4599.75 200
	200 4599.75 -200
	200 4599.75 200
	-200 4999.75 -200
	-200 4999.75 200
	200 4999.75 -200
	200 4999.75 200
	-200 5399.76 -200
	-200 5399.76 200
	200 5399.76 -200
	200 5399.76 200
	-200 5799.76 -200
	-200 5799.76 200
	200 5799.76 -200
	200 5799.76 200
	-200 6199.76 -200
	-200 6199.76 200
	200 6199.76 -200
	200 6199.76 200
	-200 6599.76 -200
	-200 6599.76 200
	200 6599.76 -200
	200 6599.76 200
	-200 6999.78 -200
	-200 6999.78 200
	200 6999.78 -200
	200 6999.78 200
	-200 7399.79 -200
	-200 7399.79 200
	200 7399.79 -200
	200 7399.79 200
	-200 7799.79 -200
	-200 7799.79 200
	200 7799.79 -200
	200 7799.79 200
	-200 8199.79 -200
	-200 8199.79 200
	200 8199.79 -200
	200 8199.79 200
	-200 8599.8 -200
	-200 8599.8 200
	200 8599.8 -200
	200 8599.8 200
	-200 8999.81 -200
	-200 8999.81 200
	200 8999.81 -200
	200 8999.81 200
	-200 9399.81 -200
	-200 9399.81 200
	200 9399.81 -200
	200 9399.81 200
	-200 9799.82 -200
	-200 9799.82 200
	200 9799.82 -200
	200 9799.82 200
	-200 10199.8 -200
	-200 10199.8 200
	200 10199.8 -200
	200 10199.8 200
	-200 10599.8 -200
	-200 10599.8 200
	200 10599.8 -200
	200 10599.8 200
	-200 10999.9 -200
	-200 10999.9 200
	200 10999.9 -200
	200 10999.9 200
	-200 11399.9 -200
	-200 11399.9 200
	200 11399.9 -200
	200 11399.9 200
	-200 11799.9 -200
	-200 11799.9 200
	200 11799.9 -200
	200 11799.9 200
	-200 12199.9 -200
	-200 12199.9 200
	200 12199.9 -200
	200 12199.9 200
	-200 12599.9 -200
	-200 12599.9 200
	200 12599.9 -200
	200 12599.9 200
	-200 13000 -200
	-200 13000 200
	200 13000 -200
	200 13000 200
	-200 13400.1 -200
	-200 13400.1 200
	200 13400.1 -200
	200 13400.1 200
	-200 13800.3 -200
	-200 13800.3 200
	200 13800.3 -200
	200 13800.3 200
  </DataArray>
</Points>
<PointData  Vectors="vector">
  <DataArray type="Float32" Name="Velocity" NumberOfComponents="3" format="ascii">
 1.03826e-08 -0.00593643 1.03972e-08
 1.03897e-08 -0.00593643 -1.03664e-08
 -1.03827e-08 -0.00593643 1.03949e-08
 -1.03771e-08 -0.00593643 -1.03599e-08
 1.59123e-08 -0.014581 1.59216e-08
 1.59244e-08 -0.014581 -1.59007e-08
 -1.59132e-08 -0.014581 1.59182e-08
 -1.59027e-08 -0.014581 -1.59005e-08
 1.04686e-08 -0.0273606 1.04673e-08
 1.04759e-08 -0.0273606 -1.0468e-08
 -1.04735e-08 -0.0273606 1.04641e-08
 -1.04645e-08 -0.0273606 -1.04715e-08
 1.94144e-08 -0.0397597 1.94038e-08
 1.94246e-08 -0.0397597 -1.94009e-08
 -1.94048e-08 -0.0397597 1.94012e-08
 -1.94084e-08 -0.0397597 -1.94084e-08
 -4.56616e-08 -0.044181 -4.56664e-08
 -4.56599e-08 -0.044181 4.5672e-08
 4.56797e-08 -0.044181 -4.56718e-08
 4.56805e-08 -0.044181 4.56675e-08
 -1.3818e-07 -0.0342461 -1.38191e-07
 -1.38178e-07 -0.0342461 1.38187e-07
 1.38191e-07 -0.0342461 -1.38192e-07
 1.38191e-07 -0.0342461 1.38185e-07
 3.19458e-07 -0.0140659 3.19447e-07
 3.19461e-07 -0.0140659 -3.1946e-07
 -3.19451e-07 -0.0140659 3.19448e-07
 -3.19451e-07 -0.0140659 -3.1946e-07
 -2.30786e-06 -0.00202477 -2.30787e-06
 -2.30785e-06 -0.00202477 2.30786e-06
 2.30787e-06 -0.00202477 -2.30787e-06
 2.30787e-06 -0.00202477 2.30786e-06
 -5.03681e-06 -0.000510075 -5.03682e-06
 -5.03681e-06 -0.000510075 5.03681e-06
 5.03682e-06 -0.000510075 -5.03682e-06
 5.03682e-06 -0.000510075 5.03681e-06
 -3.09465e-07 -0.000609021 -3.09467e-07
 -3.09465e-07 -0.000609021 3.09466e-07
 3.0947e-07 -0.000609021 -3.09467e-07
 3.0947e-07 -0.000609021 3.09467e-07
 1.87204e-06 -0.0015498 1.87204e-06
 1.87204e-06 -0.0015498 -1.87204e-06
 -1.87204e-06 -0.0015498 1.87204e-06
 -1.87204e-06 -0.0015498 -1.87204e-06
 3.58133e-06 -0.000994376 3.58133e-06
 3.58133e-06 -0.000994376 -3.58133e-06
 -3.58133e-06 -0.000994376 3.58133e-06
 -3.58133e-06 -0.000994376 -3.58133e-06
 -1.21674e-09 0.00168961 -1.21675e-09
 -1.21674e-09 0.00168961 1.21676e-09
 1.21675e-09 0.00168961 -1.21675e-09
 1.21675e-09 0.00168961 1.21675e-09
 -6.59182e-14 0.00184719 -6.59173e-14
 -6.59182e-14 0.00184719 6.59173e-14
 6.59168e-14 0.00184719 -6.59173e-14
 6.59168e-14 0.00184719 6.59173e-14
 0 0.00192928 0
 0 0.00192928 0
 0 0.00192928 0
 0 0.00192928 0
 0 0.00155104 0
 0 0.00155104 0
 0 0.00155104 0
 0 0.00155104 0
 0 0.00162336 0
 0 0.00162336 0
 0 0.00162336 0
 0 0.00162336 0
 0 0.00172061 0
 0 0.00172061 0
 0 0.00172061 0
 0 0.00172061 0
 0 0.00183297 0
 0 0.00183297 0
 0 0.00183297 0
 0 0.00183297 0
 0 0.00196363 0
 0 0.00196363 0
 0 0.00196363 0
 0 0.00196363 0
 0 0.00211781 0
 0 0.00211781 0
 0 0.00211781 0
 0 0.00211781 0
 0 0.00230146 0
 0 0.00230146 0
 0 0.00230146 0
 0 0.00230146 0
 0 0.00252559 0
 0 0.00252559 0
 0 0.00252559 0
 0 0.00252559 0
 0 0.00280567 0
 0 0.00280567 0
 0 0.00280567 0
 0 0.00280567 0
 0 0.00316767 0
 0 0.00316767 0
 0 0.00316767 0
 0 0.00316767 0
 0 0.00365528 0
 0 0.00365528 0
 0 0.00365528 0
 0 0.00365528 0
 0 0.00435702 0
 0 0.00435702 0
 0 0.00435702 0
 0 0.00435702 0
 0 0.00546489 0
 0 0.00546489 0
 0 0.00546489 0
 0 0.00546489 0
 0 0.00754097 0
 0 0.00754097 0
 0 0.00754097 0
 0 0.00754097 0
 0 0.0132279 0
 0 0.0132279 0
 0 0.0132279 0
 0 0.0132279 0
  </DataArray>
  <DataArray type="Float32" Name="Radius" format="ascii">
	200
	200
	200
	200
	200
	200
	200
	200
	200
	200
	200
	200
	200
	200
	200
	200
	200
	200
	200
	200
	200
	200
	200
	200
	200
	200
	200
	200
	200
	200
	200
	200
	200
	200
	200
	200
	200
	200
	200
	200
	200
	200
	200
	200
	200
	200
	200
	200
	200
	200
	200
	200
	200
	200
	200
	200
	200
	200
	200
	200
	200
	200
	200
	200
	200
	200
	200
	200
	200
	200
	200
	200
	200
	200
	200
	200
	200
	200
	200
	200
	200
	200
	200
	200
	200
	200
	200
	200
	200
	200
	200
	200
	200
	200
	200
	200
	200
	200
	200
	200
	200
	200
	200
	200
	200
	200
	200
	200
	200
	200
	200
	200
	200
	200
	200
	200
	200
	200
	200
	200
  </DataArray>
  <DataArray type="Float32" Name="speciesType" format="ascii">
	0
	0
	0
	0
	0
	0
	0
	0
	0
	0
	0
	0
	0
	0
	0
	0
	0
	0
	0
	0
	0
	0
	0
	0
	0
	0
	0
	0
	0
	0
	0
	0
	0
	0
	0
	0
	0
	0
	0
	0
	0
	0
	0
	0
	0
	0
	0
	0
	0
	0
	0
	0
	0
	0
	0
	0
	0
	0
	0
	0
	0
	0
	0
	0
	0
	0
	0
	0
	0
	0
	0
	0
	0
	0
	0
	0
	0
	0
	0
	0
	0
	0
	0
	0
	0
	0
	0
	0
	0
	0
	0
	0
	0
	0
	0
	0
	0
	0
	0
	0
	0
	0
	0
	0
	0
	0
	0
	0
	0
	0
	0
	0
	0
	0
	0
	0
	0
	0
	0
	0
  </DataArray>
</PointData>
<Cells>
  <DataArray type="Int32" Name="connectivity" format="ascii">
  </DataArray>
  <DataArray type="Int32" Name="offsets" format="ascii">
  </DataArray>
  <DataArray type="UInt8"  Name="types" format="ascii">
  </DataArray>
</Cells>
</Piece>
</UnstructuredGrid>
</VTKFile>
