MercuryDPM 0.14 name oneDimChain revision 6406 repository https://svn.mercurydpm.org/SourceCode/Branches/OomphlibCouplingExplicit
dataFile    fileType ONE_FILE saveCount 30 counter 105 lastSavedTimeStep 3111
fStatFile   fileType ONE_FILE saveCount 30 counter 105 lastSavedTimeStep 3111
eneFile     fileType ONE_FILE saveCount 30 counter 105 lastSavedTimeStep 3111
restartFile fileType ONE_FILE saveCount 30 counter 105 lastSavedTimeStep 3111
statFile    fileType ONE_FILE saveCount 30 counter 0
interactionFile fileType NO_FILE saveCount 0 counter 0
xMin -500 xMax 500 yMin -5000 yMax 5000 zMin -500 zMax 500
timeStep 0.0321487566790692 time 100.01478202858 ntimeSteps 3111 timeMax 100
systemDimensions 3 particleDimensions 3 gravity 0 0 -0 writeVTK 1 MULTIPLE_FILES NO_FILE 105 105 0 0 random  0 1103515245 12345 1073741824 607 273 784607267
Species 1
LinearViscoelasticReversibleAdhesiveSpecies id 0 density 2500 stiffness 40000000000 dissipation -0 adhesionForceMax 0 adhesionStiffness 40000000000
Walls 0
Boundaries 0
Particles 120
BaseParticle id 0 indSpecies 0 position -199.999999949356 2199.68911213348 -199.999999948858 orientation 1 0 0 0 velocity 1.55718088797697e-07 0.0195770633964094 1.55363838928638e-07 angularVelocity 0 0 0 force 2962.42267512272 874899636.949035 2926.12207751947 torque 0 0 0 radius 200 invMass 1.19366207318922e-11
BaseParticle id 1 indSpecies 0 position -199.99999994532 2199.68911213381 199.999999949103 orientation 1 0 0 0 velocity 1.5482624730091e-07 0.019577063629783 -1.55610170949998e-07 angularVelocity 0 0 0 force 2659.85428714638 874899620.011296 -2925.66242857654 torque 0 0 0 radius 200 invMass 1.19366207318922e-11
BaseParticle id 2 indSpecies 0 position 199.999999949692 2199.68911213321 -199.999999945756 orientation 1 0 0 0 velocity -1.55833321356398e-07 0.0195770634671709 1.54784186849408e-07 angularVelocity 0 0 0 force -2965.26233180634 874899635.199418 2666.08107664102 torque 0 0 0 radius 200 invMass 1.19366207318922e-11
BaseParticle id 3 indSpecies 0 position 199.99999994602 2199.689112134 199.999999945656 orientation 1 0 0 0 velocity -1.54888112560422e-07 0.0195770637449631 -1.54975829576041e-07 angularVelocity 0 0 0 force -2662.12867667474 874899622.933359 -2668.45230540452 torque 0 0 0 radius 200 invMass 1.19366207318922e-11
BaseParticle id 4 indSpecies 0 position -200.000001051555 2599.69070911106 -200.000001051592 orientation 1 0 0 0 velocity 7.36165114631912e-08 0.000138143113133993 7.35399134552802e-08 angularVelocity 0 0 0 force 4329.31037551383 363406760.11808 4327.25418858349 torque 0 0 0 radius 200 invMass 1.19366207318922e-11
BaseParticle id 5 indSpecies 0 position -200.000001051726 2599.6907091104 200.000001051955 orientation 1 0 0 0 velocity 7.35003052039194e-08 0.000138143004336612 -7.3500203550857e-08 angularVelocity 0 0 0 force 4331.11474529444 363406755.998634 -4333.09398886181 torque 0 0 0 radius 200 invMass 1.19366207318922e-11
BaseParticle id 6 indSpecies 0 position 200.000001051934 2599.69070911211 -200.000001052281 orientation 1 0 0 0 velocity -7.35928758525474e-08 0.000138143290324397 7.34855449857906e-08 angularVelocity 0 0 0 force -4332.03354079785 363406763.925154 4329.69905445222 torque 0 0 0 radius 200 invMass 1.19366207318922e-11
BaseParticle id 7 indSpecies 0 position 200.000001052435 2599.69070910943 200.000001052298 orientation 1 0 0 0 velocity -7.34554894798967e-08 0.000138142910884833 -7.34113464430105e-08 angularVelocity 0 0 0 force -4333.03366539102 363406762.086493 -4334.76848619228 torque 0 0 0 radius 200 invMass 1.19366207318922e-11
BaseParticle id 8 indSpecies 0 position -200.000000031756 2999.69334912303 -200.000000030594 orientation 1 0 0 0 velocity -3.26069840481012e-08 -0.00291507771215367 -3.20758522896999e-08 angularVelocity 0 0 0 force -1261.90991182456 45846671.0359894 -1266.10048419208 torque 0 0 0 radius 200 invMass 1.19366207318922e-11
BaseParticle id 9 indSpecies 0 position -200.000000030729 2999.6933491239 200.000000030805 orientation 1 0 0 0 velocity -3.22106945242826e-08 -0.00291507756370285 3.21368843600251e-08 angularVelocity 0 0 0 force -1261.89936356651 45846673.8503837 1265.15958838062 torque 0 0 0 radius 200 invMass 1.19366207318922e-11
BaseParticle id 10 indSpecies 0 position 200.000000032008 2999.69334912318 -200.000000031398 orientation 1 0 0 0 velocity 3.26449089723237e-08 -0.00291507774386298 -3.23774482606416e-08 angularVelocity 0 0 0 force 1262.7323615693 45846674.6894936 -1264.48910965456 torque 0 0 0 radius 200 invMass 1.19366207318922e-11
BaseParticle id 11 indSpecies 0 position 200.000000031298 2999.6933491252 200.000000031279 orientation 1 0 0 0 velocity 3.22526712165273e-08 -0.0029150772987713 3.24393153560477e-08 angularVelocity 0 0 0 force 1264.03728042752 45846677.444859 1264.84532443899 torque 0 0 0 radius 200 invMass 1.19366207318922e-11
BaseParticle id 12 indSpecies 0 position -200.000000152122 3399.69796889913 -200.000000152058 orientation 1 0 0 0 velocity -1.47748217663087e-08 -0.00145323052025883 -1.48110412738608e-08 angularVelocity 0 0 0 force -1240.91987159798 -75823013.2566157 -1241.96639592413 torque 0 0 0 radius 200 invMass 1.19366207318922e-11
BaseParticle id 13 indSpecies 0 position -200.000000151895 3399.69796889857 200.000000152255 orientation 1 0 0 0 velocity -1.47825932559146e-08 -0.00145323050057884 1.48024948219512e-08 angularVelocity 0 0 0 force -1241.01063157247 -75823012.2079435 1243.71152287639 torque 0 0 0 radius 200 invMass 1.19366207318922e-11
BaseParticle id 14 indSpecies 0 position 200.000000152389 3399.69796889972 -200.000000152163 orientation 1 0 0 0 velocity 1.47791430882308e-08 -0.00145323050677715 -1.48069985465883e-08 angularVelocity 0 0 0 force 1241.65744882219 -75823011.199814 -1241.50581012314 torque 0 0 0 radius 200 invMass 1.19366207318922e-11
BaseParticle id 15 indSpecies 0 position 200.000000152414 3399.69796889799 200.000000152112 orientation 1 0 0 0 velocity 1.47901709798628e-08 -0.0014532305797736 1.47898758114195e-08 angularVelocity 0 0 0 force 1242.40909758091 -75823010.695824 1243.57106865087 torque 0 0 0 radius 200 invMass 1.19366207318922e-11
BaseParticle id 16 indSpecies 0 position -200.000000199218 3799.69997402658 -200.000000199362 orientation 1 0 0 0 velocity 3.45978074406779e-09 -0.000232180775622069 3.45066641916143e-09 angularVelocity 0 0 0 force -65.2708185280344 -40626355.9286071 -65.2550287918453 torque 0 0 0 radius 200 invMass 1.19366207318922e-11
BaseParticle id 17 indSpecies 0 position -200.00000019906 3799.69997402849 200.000000199684 orientation 1 0 0 0 velocity 3.46309417384506e-09 -0.00023218073393398 -3.47850258990151e-09 angularVelocity 0 0 0 force -65.3344890630903 -40626356.4279623 65.9544410429211 torque 0 0 0 radius 200 invMass 1.19366207318922e-11
BaseParticle id 18 indSpecies 0 position 200.000000199624 3799.69997402613 -200.000000199411 orientation 1 0 0 0 velocity -3.47804989855103e-09 -0.000232180789435964 3.44885265602087e-09 angularVelocity 0 0 0 force 65.4654781856611 -40626355.0211743 -65.2689254906257 torque 0 0 0 radius 200 invMass 1.19366207318922e-11
BaseParticle id 19 indSpecies 0 position 200.000000199651 3799.69997402733 200.000000199545 orientation 1 0 0 0 velocity -3.47387947906335e-09 -0.000232180778368259 -3.4842198972618e-09 angularVelocity 0 0 0 force 65.5382507038169 -40626356.070578 65.8961197644376 torque 0 0 0 radius 200 invMass 1.19366207318922e-11
BaseParticle id 20 indSpecies 0 position -200.000001341869 4199.70089754974 -200.000001341965 orientation 1 0 0 0 velocity 6.02037717482569e-08 7.63373258450029e-05 6.02103433461519e-08 angularVelocity 0 0 0 force 299.252023399656 -25186.7318766756 299.080166581055 torque 0 0 0 radius 200 invMass 1.19366207318922e-11
BaseParticle id 21 indSpecies 0 position -200.000001341822 4199.70089754921 200.000001342348 orientation 1 0 0 0 velocity 6.02070969161444e-08 7.63372851683438e-05 -6.02061144316299e-08 angularVelocity 0 0 0 force 299.233802072591 -25186.8690972538 -299.809565752552 torque 0 0 0 radius 200 invMass 1.19366207318922e-11
BaseParticle id 22 indSpecies 0 position 200.000001342472 4199.7008975495 -200.000001342061 orientation 1 0 0 0 velocity -6.02089595616743e-08 7.63373155601832e-05 6.02066697857724e-08 angularVelocity 0 0 0 force -299.661277876503 -25186.3734847463 299.035525558531 torque 0 0 0 radius 200 invMass 1.19366207318922e-11
BaseParticle id 23 indSpecies 0 position 200.000001342568 4199.70089754849 200.000001342293 orientation 1 0 0 0 velocity -6.02044358268205e-08 7.63372663733856e-05 -6.02085758156449e-08 angularVelocity 0 0 0 force -299.681528173116 -25186.9835482283 -299.810087815118 torque 0 0 0 radius 200 invMass 1.19366207318922e-11
BaseParticle id 24 indSpecies 0 position -200.000011278285 4599.70178074971 -200.000011278439 orientation 1 0 0 0 velocity -2.22800270719752e-07 0.000119271739378382 -2.2280027255353e-07 angularVelocity 0 0 0 force 235.584732290115 7272761.75197498 235.437703354453 torque 0 0 0 radius 200 invMass 1.19366207318922e-11
BaseParticle id 25 indSpecies 0 position -200.000011278187 4599.7017807494 200.000011278777 orientation 1 0 0 0 velocity -2.227974320639e-07 0.000119271736885645 2.22823995471074e-07 angularVelocity 0 0 0 force 235.619706693775 7272761.60992413 -235.832860022226 torque 0 0 0 radius 200 invMass 1.19366207318922e-11
BaseParticle id 26 indSpecies 0 position 200.00001127895 4599.70178075026 -200.000011278489 orientation 1 0 0 0 velocity 2.22823839258488e-07 0.000119271741226555 -2.22802648121936e-07 angularVelocity 0 0 0 force -235.773999067386 7272762.05704845 235.416362674377 torque 0 0 0 radius 200 invMass 1.19366207318922e-11
BaseParticle id 27 indSpecies 0 position 200.000011278977 4599.70178074955 200.000011278702 orientation 1 0 0 0 velocity 2.2282515456993e-07 0.000119271735762846 2.22821137094257e-07 angularVelocity 0 0 0 force -235.7639831261 7272761.57638121 -235.812101925628 torque 0 0 0 radius 200 invMass 1.19366207318922e-11
BaseParticle id 28 indSpecies 0 position -200.000014614766 4999.70242017011 -200.000014614943 orientation 1 0 0 0 velocity 4.15864333116813e-07 -0.000120781690158435 4.15857530854207e-07 angularVelocity 0 0 0 force 415.230237696169 4010403.38063371 415.044301643189 torque 0 0 0 radius 200 invMass 1.19366207318922e-11
BaseParticle id 29 indSpecies 0 position -200.000014614679 4999.70242017082 200.000014615238 orientation 1 0 0 0 velocity 4.15865424841517e-07 -0.000120781556754459 -4.15838473456669e-07 angularVelocity 0 0 0 force 415.244777522428 4010403.20431768 -415.033691867835 torque 0 0 0 radius 200 invMass 1.19366207318922e-11
BaseParticle id 30 indSpecies 0 position 200.000014615364 4999.70242016878 -200.000014614999 orientation 1 0 0 0 velocity -4.15831915282233e-07 -0.000120781826996398 4.15855602112425e-07 angularVelocity 0 0 0 force -414.929604336197 4010403.39363898 415.020971386964 torque 0 0 0 radius 200 invMass 1.19366207318922e-11
BaseParticle id 31 indSpecies 0 position 200.000014615397 4999.70242017032 200.000014615182 orientation 1 0 0 0 velocity -4.15831301871962e-07 -0.000120781679813898 -4.15840598576602e-07 angularVelocity 0 0 0 force -414.955751464682 4010403.09980408 -415.03680153964 torque 0 0 0 radius 200 invMass 1.19366207318922e-11
BaseParticle id 32 indSpecies 0 position -200.000143011165 5399.70439584892 -200.000143011306 orientation 1 0 0 0 velocity -9.42697953547398e-07 2.6429914817527e-05 -9.42698546374564e-07 angularVelocity 0 0 0 force 711.056075487636 1038410.36341614 710.871217296727 torque 0 0 0 radius 200 invMass 1.19366207318922e-11
BaseParticle id 33 indSpecies 0 position -200.000143011117 5399.70439584667 200.000143011546 orientation 1 0 0 0 velocity -9.42697151914519e-07 2.64297210308144e-05 9.42714795843722e-07 angularVelocity 0 0 0 force 711.052684267491 1038410.62401471 -710.915830208455 torque 0 0 0 radius 200 invMass 1.19366207318922e-11
BaseParticle id 34 indSpecies 0 position 200.000143011721 5399.7043958502 -200.00014301136 orientation 1 0 0 0 velocity 9.42716389698729e-07 2.64300867351132e-05 -9.42700031394264e-07 angularVelocity 0 0 0 force -710.759421729359 1038410.09233059 710.851484031432 torque 0 0 0 radius 200 invMass 1.19366207318922e-11
BaseParticle id 35 indSpecies 0 position 200.000143011769 5399.70439584855 200.000143011516 orientation 1 0 0 0 velocity 9.4271713590772e-07 2.6429884033643e-05 9.42713386323021e-07 angularVelocity 0 0 0 force -710.783044581404 1038410.32804728 -710.934834708667 torque 0 0 0 radius 200 invMass 1.19366207318922e-11
BaseParticle id 36 indSpecies 0 position -200.00000793762 5799.70727774525 -200.000007937821 orientation 1 0 0 0 velocity 3.76590556883345e-08 0.000276010325659238 3.76620491103647e-08 angularVelocity 0 0 0 force 716.384208948139 -161093.904972097 716.304466049746 torque 0 0 0 radius 200 invMass 1.19366207318922e-11
BaseParticle id 37 indSpecies 0 position -200.000007937597 5799.70727774593 200.000007937948 orientation 1 0 0 0 velocity 3.7659729252298e-08 0.000276010421457932 -3.76486172723919e-08 angularVelocity 0 0 0 force 716.379224355118 -161093.599698368 -716.341899297377 torque 0 0 0 radius 200 invMass 1.19366207318922e-11
BaseParticle id 38 indSpecies 0 position 200.00000793817 5799.70727774347 -200.000007937853 orientation 1 0 0 0 velocity -3.76502267247748e-08 0.000276010206482044 3.76609802127193e-08 angularVelocity 0 0 0 force -716.27654680004 -161094.053143242 716.292145918502 torque 0 0 0 radius 200 invMass 1.19366207318922e-11
BaseParticle id 39 indSpecies 0 position 200.0000079382 5799.70727774514 200.000007937926 orientation 1 0 0 0 velocity -3.76494247664751e-08 0.000276010343739109 -3.76494798717918e-08 angularVelocity 0 0 0 force -716.27882281326 -161093.803374105 -716.360016165277 torque 0 0 0 radius 200 invMass 1.19366207318922e-11
BaseParticle id 40 indSpecies 0 position -200.000042964793 6199.7160541446 -200.000042964994 orientation 1 0 0 0 velocity 5.19352307826323e-08 -0.000615526256261284 5.19362910799197e-08 angularVelocity 0 0 0 force 1134.90697725756 -397233.821399316 1134.88393965373 torque 0 0 0 radius 200 invMass 1.19366207318922e-11
BaseParticle id 41 indSpecies 0 position -200.000042964787 6199.71605414532 200.000042965073 orientation 1 0 0 0 velocity 5.19357480279902e-08 -0.000615526244796809 -5.19275421632248e-08 angularVelocity 0 0 0 force 1134.90257134102 -397233.667459512 -1134.88304784434 torque 0 0 0 radius 200 invMass 1.19366207318922e-11
BaseParticle id 42 indSpecies 0 position 200.000042965226 6199.7160541451 -200.000042965008 orientation 1 0 0 0 velocity -5.19289002896897e-08 -0.000615526247120395 5.19356815127164e-08 angularVelocity 0 0 0 force -1134.87031956007 -397233.903433604 1134.87665929049 torque 0 0 0 radius 200 invMass 1.19366207318922e-11
BaseParticle id 43 indSpecies 0 position 200.000042965245 6199.71605414518 200.000042965046 orientation 1 0 0 0 velocity -5.19283005953295e-08 -0.000615526247656808 -5.19283689136073e-08 angularVelocity 0 0 0 force -1134.8705003326 -397233.80295655 -1134.89196725286 torque 0 0 0 radius 200 invMass 1.19366207318922e-11
BaseParticle id 44 indSpecies 0 position -200.000078383687 6599.73293106562 -200.000078383877 orientation 1 0 0 0 velocity -1.69551875825179e-08 0.000862880169079513 -1.6954505528339e-08 angularVelocity 0 0 0 force 2150.92614573198 -460713.328435357 2150.91111409561 torque 0 0 0 radius 200 invMass 1.19366207318922e-11
BaseParticle id 45 indSpecies 0 position -200.000078383695 6599.73293106529 200.000078383979 orientation 1 0 0 0 velocity -1.69546892268663e-08 0.000862880160813404 1.69624732790776e-08 angularVelocity 0 0 0 force 2150.91919839254 -460713.134434554 -2150.90060973444 torque 0 0 0 radius 200 invMass 1.19366207318922e-11
BaseParticle id 46 indSpecies 0 position 200.000078384063 6599.73293106567 -200.000078383901 orientation 1 0 0 0 velocity 1.69608707587302e-08 0.000862880177818653 -1.69554011768246e-08 angularVelocity 0 0 0 force -2150.89928826941 -460713.448779816 2150.9004193115 torque 0 0 0 radius 200 invMass 1.19366207318922e-11
BaseParticle id 47 indSpecies 0 position 200.000078384096 6599.73293106573 200.000078383951 orientation 1 0 0 0 velocity 1.69617011156655e-08 0.000862880177904543 1.69615195817552e-08 angularVelocity 0 0 0 force -2150.90055903176 -460713.367971242 -2150.90935323017 torque 0 0 0 radius 200 invMass 1.19366207318922e-11
BaseParticle id 48 indSpecies 0 position -200.000000081755 6999.88701503139 -200.000000081755 orientation 1 0 0 0 velocity -1.21674182878453e-09 0.00168961299123621 -1.21675362091047e-09 angularVelocity 0 0 0 force 0 0 0 torque 0 0 0 radius 200 invMass 1.19366207318922e-11
BaseParticle id 49 indSpecies 0 position -200.000000081755 6999.88701503139 200.000000081755 orientation 1 0 0 0 velocity -1.21674292525477e-09 0.00168961298794142 1.21675510476737e-09 angularVelocity 0 0 0 force 0 0 0 torque 0 0 0 radius 200 invMass 1.19366207318922e-11
BaseParticle id 50 indSpecies 0 position 200.000000081755 6999.88701502948 -200.000000081755 orientation 1 0 0 0 velocity 1.21674735941486e-09 0.00168961298149074 -1.21675463335711e-09 angularVelocity 0 0 0 force 0 0 0 torque 0 0 0 radius 200 invMass 1.19366207318922e-11
BaseParticle id 51 indSpecies 0 position 200.000000081755 6999.88701502949 200.000000081755 orientation 1 0 0 0 velocity 1.21674662360083e-09 0.0016896129801217 1.21675461488902e-09 angularVelocity 0 0 0 force 0 0 0 torque 0 0 0 radius 200 invMass 1.19366207318922e-11
BaseParticle id 52 indSpecies 0 position -200 7399.88970177757 -200 orientation 1 0 0 0 velocity -6.59181770020266e-14 0.00155104486643608 -6.59172889019072e-14 angularVelocity 0 0 0 force 0 0 0 torque 0 0 0 radius 200 invMass 1.19366207318922e-11
BaseParticle id 53 indSpecies 0 position -200 7399.88970177757 200 orientation 1 0 0 0 velocity -6.59181770142e-14 0.00155104486633836 6.59172889140805e-14 angularVelocity 0 0 0 force 0 0 0 torque 0 0 0 radius 200 invMass 1.19366207318922e-11
BaseParticle id 54 indSpecies 0 position 200 7399.88970177758 -200 orientation 1 0 0 0 velocity 6.5916819665043e-14 0.0015510448679438 -6.59172889176307e-14 angularVelocity 0 0 0 force 0 0 0 torque 0 0 0 radius 200 invMass 1.19366207318922e-11
BaseParticle id 55 indSpecies 0 position 200 7399.88970177758 200 orientation 1 0 0 0 velocity 6.5916819669304e-14 0.00155104486487247 6.59172889218917e-14 angularVelocity 0 0 0 force 0 0 0 torque 0 0 0 radius 200 invMass 1.19366207318922e-11
BaseParticle id 56 indSpecies 0 position -200 7799.89064843214 -200 orientation 1 0 0 0 velocity 0 0.00163303218849739 0 angularVelocity 0 0 0 force 0 0 0 torque 0 0 0 radius 200 invMass 1.19366207318922e-11
BaseParticle id 57 indSpecies 0 position -200 7799.89064843214 200 orientation 1 0 0 0 velocity 0 0.00163303218608221 0 angularVelocity 0 0 0 force 0 0 0 torque 0 0 0 radius 200 invMass 1.19366207318922e-11
BaseParticle id 58 indSpecies 0 position 200 7799.89064843241 -200 orientation 1 0 0 0 velocity 0 0.00163303218930715 0 angularVelocity 0 0 0 force 0 0 0 torque 0 0 0 radius 200 invMass 1.19366207318922e-11
BaseParticle id 59 indSpecies 0 position 200 7799.89064843241 200 orientation 1 0 0 0 velocity 0 0.0016330321881763 0 angularVelocity 0 0 0 force 0 0 0 torque 0 0 0 radius 200 invMass 1.19366207318922e-11
BaseParticle id 60 indSpecies 0 position -200 8199.89958250671 -200 orientation 1 0 0 0 velocity 0 0.00162336061762086 0 angularVelocity 0 0 0 force 0 0 0 torque 0 0 0 radius 200 invMass 1.19366207318922e-11
BaseParticle id 61 indSpecies 0 position -200 8199.89958250673 200 orientation 1 0 0 0 velocity 0 0.00162336061896109 0 angularVelocity 0 0 0 force 0 0 0 torque 0 0 0 radius 200 invMass 1.19366207318922e-11
BaseParticle id 62 indSpecies 0 position 200 8199.89958250673 -200 orientation 1 0 0 0 velocity 0 0.00162336061355831 0 angularVelocity 0 0 0 force 0 0 0 torque 0 0 0 radius 200 invMass 1.19366207318922e-11
BaseParticle id 63 indSpecies 0 position 200 8199.89958250674 200 orientation 1 0 0 0 velocity 0 0.00162336061580599 0 angularVelocity 0 0 0 force 0 0 0 torque 0 0 0 radius 200 invMass 1.19366207318922e-11
BaseParticle id 64 indSpecies 0 position -200 8599.91183345973 -200 orientation 1 0 0 0 velocity 0 0.00172061092365061 0 angularVelocity 0 0 0 force 0 0 0 torque 0 0 0 radius 200 invMass 1.19366207318922e-11
BaseParticle id 65 indSpecies 0 position -200 8599.91183345974 200 orientation 1 0 0 0 velocity 0 0.00172061092563302 0 angularVelocity 0 0 0 force 0 0 0 torque 0 0 0 radius 200 invMass 1.19366207318922e-11
BaseParticle id 66 indSpecies 0 position 200 8599.91183345975 -200 orientation 1 0 0 0 velocity 0 0.00172061092700117 0 angularVelocity 0 0 0 force 0 0 0 torque 0 0 0 radius 200 invMass 1.19366207318922e-11
BaseParticle id 67 indSpecies 0 position 200 8599.91183345977 200 orientation 1 0 0 0 velocity 0 0.00172061092552134 0 angularVelocity 0 0 0 force 0 0 0 torque 0 0 0 radius 200 invMass 1.19366207318922e-11
BaseParticle id 68 indSpecies 0 position -200 8999.91844186437 -200 orientation 1 0 0 0 velocity 0 0.00214344390969782 0 angularVelocity 0 0 0 force 0 0 0 torque 0 0 0 radius 200 invMass 1.19366207318922e-11
BaseParticle id 69 indSpecies 0 position -200 8999.91844186441 200 orientation 1 0 0 0 velocity 0 0.0021434439143886 0 angularVelocity 0 0 0 force 0 0 0 torque 0 0 0 radius 200 invMass 1.19366207318922e-11
BaseParticle id 70 indSpecies 0 position 200 8999.91844186446 -200 orientation 1 0 0 0 velocity 0 0.00214344392078258 0 angularVelocity 0 0 0 force 0 0 0 torque 0 0 0 radius 200 invMass 1.19366207318922e-11
BaseParticle id 71 indSpecies 0 position 200 8999.91844186451 200 orientation 1 0 0 0 velocity 0 0.00214344392726032 0 angularVelocity 0 0 0 force 0 0 0 torque 0 0 0 radius 200 invMass 1.19366207318922e-11
BaseParticle id 72 indSpecies 0 position -200 9399.92521059344 -200 orientation 1 0 0 0 velocity 0 0.0018329650499017 0 angularVelocity 0 0 0 force 0 0 0 torque 0 0 0 radius 200 invMass 1.19366207318922e-11
BaseParticle id 73 indSpecies 0 position -200 9399.92521059344 200 orientation 1 0 0 0 velocity 0 0.0018329650499017 0 angularVelocity 0 0 0 force 0 0 0 torque 0 0 0 radius 200 invMass 1.19366207318922e-11
BaseParticle id 74 indSpecies 0 position 200 9399.92521059344 -200 orientation 1 0 0 0 velocity 0 0.0018329650499017 0 angularVelocity 0 0 0 force 0 0 0 torque 0 0 0 radius 200 invMass 1.19366207318922e-11
BaseParticle id 75 indSpecies 0 position 200 9399.92521059344 200 orientation 1 0 0 0 velocity 0 0.0018329650499017 0 angularVelocity 0 0 0 force 0 0 0 torque 0 0 0 radius 200 invMass 1.19366207318922e-11
BaseParticle id 76 indSpecies 0 position -200 9799.94127195103 -200 orientation 1 0 0 0 velocity 0 0.00196362914814414 0 angularVelocity 0 0 0 force 0 0 0 torque 0 0 0 radius 200 invMass 1.19366207318922e-11
BaseParticle id 77 indSpecies 0 position -200 9799.94127195103 200 orientation 1 0 0 0 velocity 0 0.00196362914814414 0 angularVelocity 0 0 0 force 0 0 0 torque 0 0 0 radius 200 invMass 1.19366207318922e-11
BaseParticle id 78 indSpecies 0 position 200 9799.94127195103 -200 orientation 1 0 0 0 velocity 0 0.00196362914814414 0 angularVelocity 0 0 0 force 0 0 0 torque 0 0 0 radius 200 invMass 1.19366207318922e-11
BaseParticle id 79 indSpecies 0 position 200 9799.94127195103 200 orientation 1 0 0 0 velocity 0 0.00196362914814414 0 angularVelocity 0 0 0 force 0 0 0 torque 0 0 0 radius 200 invMass 1.19366207318922e-11
BaseParticle id 80 indSpecies 0 position -200 10199.9598836017 -200 orientation 1 0 0 0 velocity 0 0.00211780591761501 0 angularVelocity 0 0 0 force 0 0 0 torque 0 0 0 radius 200 invMass 1.19366207318922e-11
BaseParticle id 81 indSpecies 0 position -200 10199.9598836017 200 orientation 1 0 0 0 velocity 0 0.00211780591761501 0 angularVelocity 0 0 0 force 0 0 0 torque 0 0 0 radius 200 invMass 1.19366207318922e-11
BaseParticle id 82 indSpecies 0 position 200 10199.9598836017 -200 orientation 1 0 0 0 velocity 0 0.00211780591761501 0 angularVelocity 0 0 0 force 0 0 0 torque 0 0 0 radius 200 invMass 1.19366207318922e-11
BaseParticle id 83 indSpecies 0 position 200 10199.9598836017 200 orientation 1 0 0 0 velocity 0 0.00211780591761501 0 angularVelocity 0 0 0 force 0 0 0 torque 0 0 0 radius 200 invMass 1.19366207318922e-11
BaseParticle id 84 indSpecies 0 position -200 10599.9816990082 -200 orientation 1 0 0 0 velocity 0 0.00230146420857093 0 angularVelocity 0 0 0 force 0 0 0 torque 0 0 0 radius 200 invMass 1.19366207318922e-11
BaseParticle id 85 indSpecies 0 position -200 10599.9816990082 200 orientation 1 0 0 0 velocity 0 0.00230146420857093 0 angularVelocity 0 0 0 force 0 0 0 torque 0 0 0 radius 200 invMass 1.19366207318922e-11
BaseParticle id 86 indSpecies 0 position 200 10599.9816990082 -200 orientation 1 0 0 0 velocity 0 0.00230146420857093 0 angularVelocity 0 0 0 force 0 0 0 torque 0 0 0 radius 200 invMass 1.19366207318922e-11
BaseParticle id 87 indSpecies 0 position 200 10599.9816990082 200 orientation 1 0 0 0 velocity 0 0.00230146420857093 0 angularVelocity 0 0 0 force 0 0 0 torque 0 0 0 radius 200 invMass 1.19366207318922e-11
BaseParticle id 88 indSpecies 0 position -200 11000.0078499326 -200 orientation 1 0 0 0 velocity 0 0.00252559061736983 0 angularVelocity 0 0 0 force 0 0 0 torque 0 0 0 radius 200 invMass 1.19366207318922e-11
BaseParticle id 89 indSpecies 0 position -200 11000.0078499326 200 orientation 1 0 0 0 velocity 0 0.00252559061736983 0 angularVelocity 0 0 0 force 0 0 0 torque 0 0 0 radius 200 invMass 1.19366207318922e-11
BaseParticle id 90 indSpecies 0 position 200 11000.0078499326 -200 orientation 1 0 0 0 velocity 0 0.00252559061736983 0 angularVelocity 0 0 0 force 0 0 0 torque 0 0 0 radius 200 invMass 1.19366207318922e-11
BaseParticle id 91 indSpecies 0 position 200 11000.0078499326 200 orientation 1 0 0 0 velocity 0 0.00252559061736983 0 angularVelocity 0 0 0 force 0 0 0 torque 0 0 0 radius 200 invMass 1.19366207318922e-11
BaseParticle id 92 indSpecies 0 position -200 11400.03995223 -200 orientation 1 0 0 0 velocity 0 0.00280566830038197 0 angularVelocity 0 0 0 force 0 0 0 torque 0 0 0 radius 200 invMass 1.19366207318922e-11
BaseParticle id 93 indSpecies 0 position -200 11400.03995223 200 orientation 1 0 0 0 velocity 0 0.00280566830038197 0 angularVelocity 0 0 0 force 0 0 0 torque 0 0 0 radius 200 invMass 1.19366207318922e-11
BaseParticle id 94 indSpecies 0 position 200 11400.03995223 -200 orientation 1 0 0 0 velocity 0 0.00280566830038197 0 angularVelocity 0 0 0 force 0 0 0 torque 0 0 0 radius 200 invMass 1.19366207318922e-11
BaseParticle id 95 indSpecies 0 position 200 11400.03995223 200 orientation 1 0 0 0 velocity 0 0.00280566830038197 0 angularVelocity 0 0 0 force 0 0 0 torque 0 0 0 radius 200 invMass 1.19366207318922e-11
BaseParticle id 96 indSpecies 0 position -200 11800.0806845827 -200 orientation 1 0 0 0 velocity 0 0.00316767304793931 0 angularVelocity 0 0 0 force 0 0 0 torque 0 0 0 radius 200 invMass 1.19366207318922e-11
BaseParticle id 97 indSpecies 0 position -200 11800.0806845827 200 orientation 1 0 0 0 velocity 0 0.00316767304793931 0 angularVelocity 0 0 0 force 0 0 0 torque 0 0 0 radius 200 invMass 1.19366207318922e-11
BaseParticle id 98 indSpecies 0 position 200 11800.0806845827 -200 orientation 1 0 0 0 velocity 0 0.00316767304793931 0 angularVelocity 0 0 0 force 0 0 0 torque 0 0 0 radius 200 invMass 1.19366207318922e-11
BaseParticle id 99 indSpecies 0 position 200 11800.0806845827 200 orientation 1 0 0 0 velocity 0 0.00316767304793931 0 angularVelocity 0 0 0 force 0 0 0 torque 0 0 0 radius 200 invMass 1.19366207318922e-11
BaseParticle id 100 indSpecies 0 position -200 12200.1345511605 -200 orientation 1 0 0 0 velocity 0 0.00365528361274133 0 angularVelocity 0 0 0 force 0 0 0 torque 0 0 0 radius 200 invMass 1.19366207318922e-11
BaseParticle id 101 indSpecies 0 position -200 12200.1345511605 200 orientation 1 0 0 0 velocity 0 0.00365528361274133 0 angularVelocity 0 0 0 force 0 0 0 torque 0 0 0 radius 200 invMass 1.19366207318922e-11
BaseParticle id 102 indSpecies 0 position 200 12200.1345511605 -200 orientation 1 0 0 0 velocity 0 0.00365528361274133 0 angularVelocity 0 0 0 force 0 0 0 torque 0 0 0 radius 200 invMass 1.19366207318922e-11
BaseParticle id 103 indSpecies 0 position 200 12200.1345511605 200 orientation 1 0 0 0 velocity 0 0.00365528361274133 0 angularVelocity 0 0 0 force 0 0 0 torque 0 0 0 radius 200 invMass 1.19366207318922e-11
BaseParticle id 104 indSpecies 0 position -200 12600.2105715845 -200 orientation 1 0 0 0 velocity 0 0.0043570222649936 0 angularVelocity 0 0 0 force 0 0 0 torque 0 0 0 radius 200 invMass 1.19366207318922e-11
BaseParticle id 105 indSpecies 0 position -200 12600.2105715845 200 orientation 1 0 0 0 velocity 0 0.0043570222649936 0 angularVelocity 0 0 0 force 0 0 0 torque 0 0 0 radius 200 invMass 1.19366207318922e-11
BaseParticle id 106 indSpecies 0 position 200 12600.2105715845 -200 orientation 1 0 0 0 velocity 0 0.0043570222649936 0 angularVelocity 0 0 0 force 0 0 0 torque 0 0 0 radius 200 invMass 1.19366207318922e-11
BaseParticle id 107 indSpecies 0 position 200 12600.2105715845 200 orientation 1 0 0 0 velocity 0 0.0043570222649936 0 angularVelocity 0 0 0 force 0 0 0 torque 0 0 0 radius 200 invMass 1.19366207318922e-11
BaseParticle id 108 indSpecies 0 position -200 13000.3282775058 -200 orientation 1 0 0 0 velocity 0 0.00546489405658367 0 angularVelocity 0 0 0 force 0 0 0 torque 0 0 0 radius 200 invMass 1.19366207318922e-11
BaseParticle id 109 indSpecies 0 position -200 13000.3282775058 200 orientation 1 0 0 0 velocity 0 0.00546489405658367 0 angularVelocity 0 0 0 force 0 0 0 torque 0 0 0 radius 200 invMass 1.19366207318922e-11
BaseParticle id 110 indSpecies 0 position 200 13000.3282775058 -200 orientation 1 0 0 0 velocity 0 0.00546489405658367 0 angularVelocity 0 0 0 force 0 0 0 torque 0 0 0 radius 200 invMass 1.19366207318922e-11
BaseParticle id 111 indSpecies 0 position 200 13000.3282775058 200 orientation 1 0 0 0 velocity 0 0.00546489405658367 0 angularVelocity 0 0 0 force 0 0 0 torque 0 0 0 radius 200 invMass 1.19366207318922e-11