<?xml version="1.0"?>
<VTKFile type="UnstructuredGrid" version="0.1" byte_order="LittleEndian" compressor="vtkZLibDataCompressor">
<UnstructuredGrid>
<Piece NumberOfPoints="960" NumberOfCells="120">
<Points>
<DataArray type="Float32" NumberOfComponents="3" format="ascii">
-4.000000e+02 -6.000000e+03 -4.000000e+02
0.000000e+00 -6.000000e+03 -4.000000e+02
-4.000000e+02 -5.600000e+03 -4.000000e+02
-7.854730e-11 -5.600000e+03 -4.000000e+02
-4.000000e+02 -6.000000e+03 0.000000e+00
0.000000e+00 -6.000000e+03 0.000000e+00
-4.000000e+02 -5.600000e+03 -1.920000e-10
-2.711910e-11 -5.600000e+03 2.631320e-11
0.000000e+00 -6.000000e+03 -4.000000e+02
4.000000e+02 -6.000000e+03 -4.000000e+02
-7.854730e-11 -5.600000e+03 -4.000000e+02
4.000000e+02 -5.600000e+03 -4.000000e+02
0.000000e+00 -6.000000e+03 0.000000e+00
4.000000e+02 -6.000000e+03 0.000000e+00
-2.711910e-11 -5.600000e+03 2.631320e-11
4.000000e+02 -5.600000e+03 3.883670e-11
-4.000000e+02 -5.600000e+03 -4.000000e+02
-7.854730e-11 -5.600000e+03 -4.000000e+02
-4.000000e+02 -5.200010e+03 -4.000000e+02
-1.289460e-10 -5.200010e+03 -4.000000e+02
-4.000000e+02 -5.600000e+03 -1.920000e-10
-2.711910e-11 -5.600000e+03 2.631320e-11
-4.000000e+02 -5.200010e+03 -2.271020e-11
-4.772300e-11 -5.200010e+03 4.202070e-11
-7.854730e-11 -5.600000e+03 -4.000000e+02
4.000000e+02 -5.600000e+03 -4.000000e+02
-1.289460e-10 -5.200010e+03 -4.000000e+02
4.000000e+02 -5.200010e+03 -4.000000e+02
-2.711910e-11 -5.600000e+03 2.631320e-11
4.000000e+02 -5.600000e+03 3.883670e-11
-4.772300e-11 -5.200010e+03 4.202070e-11
4.000000e+02 -5.200010e+03 1.279560e-10
-4.000000e+02 -5.200010e+03 -4.000000e+02
-1.289460e-10 -5.200010e+03 -4.000000e+02
-4.000000e+02 -4.800020e+03 -4.000000e+02
-1.078340e-10 -4.800020e+03 -4.000000e+02
-4.000000e+02 -5.200010e+03 -2.271020e-11
-4.772300e-11 -5.200010e+03 4.202070e-11
-4.000000e+02 -4.800020e+03 1.839390e-10
-1.232790e-10 -4.800020e+03 6.997640e-11
-1.289460e-10 -5.200010e+03 -4.000000e+02
4.000000e+02 -5.200010e+03 -4.000000e+02
-1.078340e-10 -4.800020e+03 -4.000000e+02
4.000000e+02 -4.800020e+03 -4.000000e+02
-4.772300e-11 -5.200010e+03 4.202070e-11
4.000000e+02 -5.200010e+03 1.279560e-10
-1.232790e-10 -4.800020e+03 6.997640e-11
4.000000e+02 -4.800020e+03 1.738510e-10
-4.000000e+02 -4.800020e+03 -4.000000e+02
-1.078340e-10 -4.800020e+03 -4.000000e+02
-4.000000e+02 -4.400030e+03 -4.000000e+02
-1.692290e-10 -4.400030e+03 -4.000000e+02
-4.000000e+02 -4.800020e+03 1.839390e-10
-1.232790e-10 -4.800020e+03 6.997640e-11
-4.000000e+02 -4.400030e+03 1.528200e-10
-1.138560e-10 -4.400030e+03 3.513520e-11
-1.078340e-10 -4.800020e+03 -4.000000e+02
4.000000e+02 -4.800020e+03 -4.000000e+02
-1.692290e-10 -4.400030e+03 -4.000000e+02
4.000000e+02 -4.400030e+03 -4.000000e+02
-1.232790e-10 -4.800020e+03 6.997640e-11
4.000000e+02 -4.800020e+03 1.738510e-10
-1.138560e-10 -4.400030e+03 3.513520e-11
4.000000e+02 -4.400030e+03 9.513390e-11
-4.000000e+02 -4.400030e+03 -4.000000e+02
-1.692290e-10 -4.400030e+03 -4.000000e+02
-4.000000e+02 -4.000040e+03 -4.000000e+02
-4.367280e-10 -4.000040e+03 -4.000000e+02
-4.000000e+02 -4.400030e+03 1.528200e-10
-1.138560e-10 -4.400030e+03 3.513520e-11
-4.000000e+02 -4.000040e+03 -5.081170e-11
-3.702720e-10 -4.000040e+03 -1.480960e-11
-1.692290e-10 -4.400030e+03 -4.000000e+02
4.000000e+02 -4.400030e+03 -4.000000e+02
-4.367280e-10 -4.000040e+03 -4.000000e+02
4.000000e+02 -4.000040e+03 -4.000000e+02
-1.138560e-10 -4.400030e+03 3.513520e-11
4.000000e+02 -4.400030e+03 9.513390e-11
-3.702720e-10 -4.000040e+03 -1.480960e-11
4.000000e+02 -4.000040e+03 5.190800e-11
-4.000000e+02 -4.000040e+03 -4.000000e+02
-4.367280e-10 -4.000040e+03 -4.000000e+02
-4.000000e+02 -3.600060e+03 -4.000000e+02
-4.611880e-10 -3.600060e+03 -4.000000e+02
-4.000000e+02 -4.000040e+03 -5.081170e-11
-3.702720e-10 -4.000040e+03 -1.480960e-11
-4.000000e+02 -3.600060e+03 -2.158850e-11
-4.461160e-10 -3.600060e+03 2.138750e-11
-4.367280e-10 -4.000040e+03 -4.000000e+02
4.000000e+02 -4.000040e+03 -4.000000e+02
-4.611880e-10 -3.600060e+03 -4.000000e+02
4.000000e+02 -3.600060e+03 -4.000000e+02
-3.702720e-10 -4.000040e+03 -1.480960e-11
4.000000e+02 -4.000040e+03 5.190800e-11
-4.461160e-10 -3.600060e+03 2.138750e-11
4.000000e+02 -3.600060e+03 -9.847660e-12
-4.000000e+02 -3.600060e+03 -4.000000e+02
-4.611880e-10 -3.600060e+03 -4.000000e+02
-4.000000e+02 -3.200090e+03 -4.000000e+02
-5.772220e-10 -3.200090e+03 -4.000000e+02
-4.000000e+02 -3.600060e+03 -2.158850e-11
-4.461160e-10 -3.600060e+03 2.138750e-11
-4.000000e+02 -3.200090e+03 -3.344720e-11
-4.998600e-10 -3.200090e+03 -5.970210e-11
-4.611880e-10 -3.600060e+03 -4.000000e+02
4.000000e+02 -3.600060e+03 -4.000000e+02
-5.772220e-10 -3.200090e+03 -4.000000e+02
4.000000e+02 -3.200090e+03 -4.000000e+02
-4.461160e-10 -3.600060e+03 2.138750e-11
4.000000e+02 -3.600060e+03 -9.847660e-12
-4.998600e-10 -3.200090e+03 -5.970210e-11
4.000000e+02 -3.200090e+03 -7.509760e-11
-4.000000e+02 -3.200090e+03 -4.000000e+02
-5.772220e-10 -3.200090e+03 -4.000000e+02
-4.000000e+02 -2.800130e+03 -4.000000e+02
-4.824700e-10 -2.800130e+03 -4.000000e+02
-4.000000e+02 -3.200090e+03 -3.344720e-11
-4.998600e-10 -3.200090e+03 -5.970210e-11
-4.000000e+02 -2.800130e+03 -1.751750e-10
-5.146300e-10 -2.800130e+03 -2.857400e-10
-5.772220e-10 -3.200090e+03 -4.000000e+02
4.000000e+02 -3.200090e+03 -4.000000e+02
-4.824700e-10 -2.800130e+03 -4.000000e+02
4.000000e+02 -2.800130e+03 -4.000000e+02
-4.998600e-10 -3.200090e+03 -5.970210e-11
4.000000e+02 -3.200090e+03 -7.509760e-11
-5.146300e-10 -2.800130e+03 -2.857400e-10
4.000000e+02 -2.800130e+03 -2.878320e-10
-4.000000e+02 -2.800130e+03 -4.000000e+02
-4.824700e-10 -2.800130e+03 -4.000000e+02
-4.000000e+02 -2.400170e+03 -4.000000e+02
-4.895440e-10 -2.400170e+03 -4.000000e+02
-4.000000e+02 -2.800130e+03 -1.751750e-10
-5.146300e-10 -2.800130e+03 -2.857400e-10
-4.000000e+02 -2.400170e+03 -1.946620e-10
-4.886970e-10 -2.400170e+03 -3.111770e-10
-4.824700e-10 -2.800130e+03 -4.000000e+02
4.000000e+02 -2.800130e+03 -4.000000e+02
-4.895440e-10 -2.400170e+03 -4.000000e+02
4.000000e+02 -2.400170e+03 -4.000000e+02
-5.146300e-10 -2.800130e+03 -2.857400e-10
4.000000e+02 -2.800130e+03 -2.878320e-10
-4.886970e-10 -2.400170e+03 -3.111770e-10
4.000000e+02 -2.400170e+03 -3.138860e-10
-4.000000e+02 -2.400170e+03 -4.000000e+02
-4.895440e-10 -2.400170e+03 -4.000000e+02
-4.000000e+02 -2.000200e+03 -4.000000e+02
-4.274980e-10 -2.000200e+03 -4.000000e+02
-4.000000e+02 -2.400170e+03 -1.946620e-10
-4.886970e-10 -2.400170e+03 -3.111770e-10
-4.000000e+02 -2.000200e+03 -3.499860e-10
-4.121860e-10 -2.000200e+03 -3.665640e-10
-4.895440e-10 -2.400170e+03 -4.000000e+02
4.000000e+02 -2.400170e+03 -4.000000e+02
-4.274980e-10 -2.000200e+03 -4.000000e+02
4.000000e+02 -2.000200e+03 -4.000000e+02
-4.886970e-10 -2.400170e+03 -3.111770e-10
4.000000e+02 -2.400170e+03 -3.138860e-10
-4.121860e-10 -2.000200e+03 -3.665640e-10
4.000000e+02 -2.000200e+03 -4.604340e-10
-4.000000e+02 -2.000200e+03 -4.000000e+02
-4.274980e-10 -2.000200e+03 -4.000000e+02
-4.000000e+02 -1.600220e+03 -4.000000e+02
-2.098210e-10 -1.600220e+03 -4.000000e+02
-4.000000e+02 -2.000200e+03 -3.499860e-10
-4.121860e-10 -2.000200e+03 -3.665640e-10
-4.000000e+02 -1.600220e+03 -4.703780e-10
-3.337540e-10 -1.600220e+03 -5.213300e-10
-4.274980e-10 -2.000200e+03 -4.000000e+02
4.000000e+02 -2.000200e+03 -4.000000e+02
-2.098210e-10 -1.600220e+03 -4.000000e+02
4.000000e+02 -1.600220e+03 -4.000000e+02
-4.121860e-10 -2.000200e+03 -3.665640e-10
4.000000e+02 -2.000200e+03 -4.604340e-10
-3.337540e-10 -1.600220e+03 -5.213300e-10
4.000000e+02 -1.600220e+03 -4.523720e-10
-4.000000e+02 -1.600220e+03 -4.000000e+02
-2.098210e-10 -1.600220e+03 -4.000000e+02
-4.000000e+02 -1.200220e+03 -4.000000e+02
-1.456910e-10 -1.200220e+03 -4.000000e+02
-4.000000e+02 -1.600220e+03 -4.703780e-10
-3.337540e-10 -1.600220e+03 -5.213300e-10
-4.000000e+02 -1.200220e+03 -4.443030e-10
-2.039570e-10 -1.200220e+03 -3.748100e-10
-2.098210e-10 -1.600220e+03 -4.000000e+02
4.000000e+02 -1.600220e+03 -4.000000e+02
-1.456910e-10 -1.200220e+03 -4.000000e+02
4.000000e+02 -1.200220e+03 -4.000000e+02
-3.337540e-10 -1.600220e+03 -5.213300e-10
4.000000e+02 -1.600220e+03 -4.523720e-10
-2.039570e-10 -1.200220e+03 -3.748100e-10
4.000000e+02 -1.200220e+03 -3.365380e-10
-4.000000e+02 -1.200220e+03 -4.000000e+02
-1.456910e-10 -1.200220e+03 -4.000000e+02
-4.000000e+02 -8.002190e+02 -4.000000e+02
1.234530e-10 -8.002190e+02 -4.000000e+02
-4.000000e+02 -1.200220e+03 -4.443030e-10
-2.039570e-10 -1.200220e+03 -3.748100e-10
-4.000000e+02 -8.002190e+02 -2.293220e-10
1.255570e-10 -8.002190e+02 -2.656750e-10
-1.456910e-10 -1.200220e+03 -4.000000e+02
4.000000e+02 -1.200220e+03 -4.000000e+02
1.234530e-10 -8.002190e+02 -4.000000e+02
4.000000e+02 -8.002190e+02 -4.000000e+02
-2.039570e-10 -1.200220e+03 -3.748100e-10
4.000000e+02 -1.200220e+03 -3.365380e-10
1.255570e-10 -8.002190e+02 -2.656750e-10
4.000000e+02 -8.002190e+02 -2.106940e-10
-4.000000e+02 -8.002190e+02 -4.000000e+02
1.234530e-10 -8.002190e+02 -4.000000e+02
-4.000000e+02 -4.002180e+02 -4.000000e+02
3.359200e-10 -4.002180e+02 -4.000000e+02
-4.000000e+02 -8.002190e+02 -2.293220e-10
1.255570e-10 -8.002190e+02 -2.656750e-10
-4.000000e+02 -4.002180e+02 -1.592220e-10
3.124930e-10 -4.002180e+02 -1.448160e-10
1.234530e-10 -8.002190e+02 -4.000000e+02
4.000000e+02 -8.002190e+02 -4.000000e+02
3.359200e-10 -4.002180e+02 -4.000000e+02
4.000000e+02 -4.002180e+02 -4.000000e+02
1.255570e-10 -8.002190e+02 -2.656750e-10
4.000000e+02 -8.002190e+02 -2.106940e-10
3.124930e-10 -4.002180e+02 -1.448160e-10
4.000000e+02 -4.002180e+02 -4.178000e-11
-4.000000e+02 -4.002180e+02 -4.000000e+02
3.359200e-10 -4.002180e+02 -4.000000e+02
-4.000000e+02 -2.192230e-01 -4.000000e+02
3.870150e-10 -2.192230e-01 -4.000000e+02
-4.000000e+02 -4.002180e+02 -1.592220e-10
3.124930e-10 -4.002180e+02 -1.448160e-10
-4.000000e+02 -2.192230e-01 -1.585370e-10
2.727270e-10 -2.192230e-01 -4.428980e-11
3.359200e-10 -4.002180e+02 -4.000000e+02
4.000000e+02 -4.002180e+02 -4.000000e+02
[...]
<PointData>
<DataArray type="Float32" Name="V1" format="ascii">
0.000000e+00
0.000000e+00
-5.980490e-08
6.894110e-11
0.000000e+00
0.000000e+00
-5.976560e-08
2.511210e-11
0.000000e+00
0.000000e+00
6.894110e-11
5.975780e-08
0.000000e+00
0.000000e+00
2.511210e-11
5.968310e-08
-5.980490e-08
6.894110e-11
5.208280e-09
9.970590e-11
-5.976560e-08
2.511210e-11
5.601060e-09
-6.210010e-11
6.894110e-11
5.975780e-08
9.970590e-11
-4.992250e-09
2.511210e-11
5.968310e-08
-6.210010e-11
-5.620700e-09
5.208280e-09
9.970590e-11
-1.945840e-08
-1.138970e-10
5.601060e-09
-6.210010e-11
-2.183470e-08
-2.253030e-11
9.970590e-11
-4.992250e-09
-1.138970e-10
1.948200e-08
-6.210010e-11
-5.620700e-09
-2.253030e-11
2.192900e-08
-1.945840e-08
-1.138970e-10
5.314330e-08
9.138090e-11
-2.183470e-08
-2.253030e-11
5.514260e-08
7.454090e-11
-1.138970e-10
1.948200e-08
9.138090e-11
-5.307260e-08
-2.253030e-11
2.192900e-08
7.454090e-11
-5.507580e-08
5.314330e-08
9.138090e-11
-3.557810e-08
-5.416380e-11
5.514260e-08
7.454090e-11
-3.458050e-08
7.361440e-11
9.138090e-11
-5.307260e-08
-5.416380e-11
3.556240e-08
7.454090e-11
-5.507580e-08
7.361440e-11
3.463940e-08
-3.557810e-08
-5.416380e-11
-2.770680e-08
2.613120e-11
-3.458050e-08
7.361440e-11
-3.019700e-08
1.553650e-11
-5.416380e-11
3.556240e-08
2.613120e-11
2.761650e-08
7.361440e-11
3.463940e-08
1.553650e-11
3.021670e-08
-2.770680e-08
2.613120e-11
9.558730e-08
-7.749810e-11
-3.019700e-08
1.553650e-11
9.515130e-08
4.994580e-11
2.613120e-11
2.761650e-08
-7.749810e-11
-9.563050e-08
1.553650e-11
3.021670e-08
4.994580e-11
-9.493920e-08
9.558730e-08
-7.749810e-11
-3.919960e-08
5.513650e-11
9.515130e-08
4.994580e-11
-3.674080e-08
-2.095960e-11
-7.749810e-11
-9.563050e-08
5.513650e-11
3.917600e-08
4.994580e-11
-9.493920e-08
-2.095960e-11
3.677220e-08
-3.919960e-08
5.513650e-11
-9.798320e-08
8.910480e-11
-3.674080e-08
-2.095960e-11
-9.866280e-08
1.690140e-11
5.513650e-11
3.917600e-08
8.910480e-11
9.841140e-08
-2.095960e-11
3.677220e-08
1.690140e-11
9.862350e-08
-9.798320e-08
8.910480e-11
3.534250e-08
-1.012840e-10
-9.866280e-08
1.690140e-11
3.569200e-08
2.538740e-11
8.910480e-11
9.841140e-08
-1.012840e-10
-3.550350e-08
1.690140e-11
9.862350e-08
2.538740e-11
-3.567240e-08
3.534250e-08
-1.012840e-10
7.425530e-08
-3.966840e-11
3.569200e-08
2.538740e-11
7.457740e-08
2.957670e-11
-1.012840e-10
-3.550350e-08
-3.966840e-11
-7.427500e-08
2.538740e-11
-3.567240e-08
2.957670e-11
-7.440850e-08
7.425530e-08
-3.966840e-11
4.006370e-10
4.429620e-11
7.457740e-08
2.957670e-11
5.184710e-10
-4.644560e-11
-3.966840e-11
-7.427500e-08
4.429620e-11
-3.770700e-10
2.957670e-11
-7.440850e-08
-4.644560e-11
-5.538220e-10
4.006370e-10
4.429620e-11
-5.084160e-08
-8.565070e-11
5.184710e-10
-4.644560e-11
-5.193750e-08
-1.164440e-10
4.429620e-11
-3.770700e-10
-8.565070e-11
5.074740e-08
-4.644560e-11
-5.538220e-10
-1.164440e-10
5.161930e-08
-5.084160e-08
-8.565070e-11
-3.980450e-08
-4.434720e-11
-5.193750e-08
-1.164440e-10
-4.019720e-08
7.739150e-11
-8.565070e-11
5.074740e-08
-4.434720e-11
3.966310e-08
-1.164440e-10
5.161930e-08
7.739150e-11
4.033860e-08
-3.980450e-08
-4.434720e-11
2.922690e-08
-1.274910e-11
-4.019720e-08
7.739150e-11
2.927010e-08
6.307200e-11
-4.434720e-11
3.966310e-08
-1.274910e-11
-2.916010e-08
7.739150e-11
4.033860e-08
6.307200e-11
-2.917970e-08
2.922690e-08
-1.274910e-11
4.487530e-08
1.653940e-10
2.927010e-08
6.307200e-11
4.471420e-08
-8.546100e-11
-1.274910e-11
-2.916010e-08
1.653940e-10
-4.478490e-08
6.307200e-11
-2.917970e-08
-8.546100e-11
-4.479670e-08
4.487530e-08
1.653940e-10
2.900690e-08
6.009170e-11
4.471420e-08
-8.546100e-11
2.861810e-08
-1.234440e-11
1.653940e-10
-4.478490e-08
6.009170e-11
-2.892830e-08
-8.546100e-11
-4.479670e-08
-1.234440e-11
-2.854340e-08
2.900690e-08
6.009170e-11
-1.518490e-08
-9.944520e-11
2.861810e-08
-1.234440e-11
-1.536560e-08
6.391540e-11
6.009170e-11
-2.892830e-08
-9.944520e-11
1.497680e-08
-1.234440e-11
-2.854340e-08
6.391540e-11
1.543630e-08
-1.518490e-08
-9.944520e-11
-2.302480e-08
4.973250e-11
-1.536560e-08
6.391540e-11
-2.344900e-08
3.886580e-11
-9.944520e-11
1.497680e-08
4.973250e-11
2.307590e-08
6.391540e-11
1.543630e-08
3.886580e-11
2.352370e-08
-2.302480e-08
4.973250e-11
-1.040870e-08
3.774020e-11
-2.344900e-08
3.886580e-11
-1.012980e-08
5.001960e-11
4.973250e-11
2.307590e-08
3.774020e-11
1.047940e-08
3.886580e-11
2.352370e-08
5.001960e-11
1.028300e-08
-1.040870e-08
3.774020e-11
-3.637160e-09
5.560350e-11
-1.012980e-08
5.001960e-11
-3.955310e-09
1.327560e-11
3.774020e-11
1.047940e-08
5.560350e-11
3.766770e-09
5.001960e-11
1.028300e-08
1.327560e-11
4.002440e-09
-3.637160e-09
5.560350e-11
-7.238960e-09
-6.277960e-12
-3.955310e-09
1.327560e-11
-7.647450e-09
-1.935500e-11
5.560350e-11
3.766770e-09
-6.277960e-12
7.211470e-09
1.327560e-11
4.002440e-09
-1.935500e-11
7.608180e-09
-7.238960e-09
-6.277960e-12
-6.618370e-09
-8.478960e-12
-7.647450e-09
-1.935500e-11
-5.797450e-09
-1.983400e-11
-6.277960e-12
7.211470e-09
-8.478960e-12
6.594800e-09
-1.935500e-11
7.608180e-09
-1.983400e-11
5.758170e-09
-6.618370e-09
-8.478960e-12
6.461250e-09
1.080010e-11
-5.797450e-09
-1.983400e-11
6.190230e-09
8.987700e-12
-8.478960e-12
6.594800e-09
1.080010e-11
-6.429830e-09
-1.983400e-11
5.758170e-09
8.987700e-12
-6.182380e-09
6.461250e-09
1.080010e-11
-1.162630e-09
-1.012290e-11
6.190230e-09
8.987700e-12
-1.555410e-09
-1.889410e-12
1.080010e-11
-6.429830e-09
-1.012290e-11
1.139070e-09
8.987700e-12
-6.182380e-09
-1.889410e-12
1.547560e-09
-1.162630e-09
-1.012290e-11
-7.612100e-09
-9.666170e-12
-1.555410e-09
-1.889410e-12
-7.227180e-09
-1.451550e-11
-1.012290e-11
1.139070e-09
-9.666170e-12
7.592460e-09
-1.889410e-12
1.547560e-09
-1.451550e-11
7.207540e-09
-7.612100e-09
-9.666170e-12
-2.871230e-09
1.352460e-11
-7.227180e-09
-1.451550e-11
-2.788750e-09
6.270640e-12
-9.666170e-12
7.592460e-09
1.352460e-11
2.902650e-09
-1.451550e-11
7.207540e-09
6.270640e-12
2.808390e-09
-2.871230e-09
1.352460e-11
1.355100e-09
1.316570e-11
-2.788750e-09
6.270640e-12
8.444800e-10
1.264070e-11
1.352460e-11
2.902650e-09
1.316570e-11
-1.323670e-09
6.270640e-12
2.808390e-09
1.264070e-11
-8.209130e-10
1.355100e-09
1.316570e-11
3.260090e-10
1.663520e-12
8.444800e-10
1.264070e-11
3.888540e-10
8.077130e-13
1.316570e-11
-1.323670e-09
1.663520e-12
-3.260090e-10
1.264070e-11
-8.209130e-10
8.077130e-13
-3.967090e-10
3.260090e-10
1.663520e-12
-1.854280e-07
-6.112280e-12
3.888540e-10
8.077130e-13
-1.867160e-07
-8.449630e-12
1.663520e-12
-3.260090e-10
-6.112280e-12
1.854200e-07
8.077130e-13
-3.967090e-10
-8.449630e-12
1.866890e-07
0.000000e+00
0.000000e+00
-5.976560e-08
2.511210e-11
0.000000e+00
0.000000e+00
-5.975380e-08
5.138550e-11
0.000000e+00
0.000000e+00
2.511210e-11
5.968310e-08
0.000000e+00
0.000000e+00
5.138550e-11
5.968710e-08
-5.976560e-08
2.511210e-11
5.601060e-09
-6.210010e-11
-5.975380e-08
5.138550e-11
5.365390e-09
2.096740e-10
2.511210e-11
5.968310e-08
-6.210010e-11
-5.620700e-09
5.138550e-11
5.968710e-08
2.096740e-10
-4.921550e-09
5.601060e-09
-6.210010e-11
-2.183470e-08
-2.253030e-11
5.365390e-09
2.096740e-10
-1.955660e-08
3.542660e-11
-6.210010e-11
-5.620700e-09
-2.253030e-11
2.192900e-08
2.096740e-10
-4.921550e-09
3.542660e-11
1.969800e-08
-2.183470e-08
-2.253030e-11
5.514260e-08
7.454090e-11
-1.955660e-08
3.542660e-11
5.332010e-08
4.878690e-12
-2.253030e-11
2.192900e-08
7.454090e-11
-5.507580e-08
3.542660e-11
1.969800e-08
4.878690e-12
-5.349290e-08
5.514260e-08
7.454090e-11
-3.458050e-08
7.361440e-11
5.332010e-08
4.878690e-12
-3.569200e-08
-2.012470e-10
7.454090e-11
-5.507580e-08
7.361440e-11
3.463940e-08
4.878690e-12
-5.349290e-08
-2.012470e-10
3.518540e-08
-3.458050e-08
7.361440e-11
-3.019700e-08
1.553650e-11
-3.569200e-08
-2.012470e-10
-2.753790e-08
-2.374790e-11
7.361440e-11
3.463940e-08
1.553650e-11
3.021670e-08
-2.012470e-10
3.518540e-08
-2.374790e-11
2.743970e-08
-3.019700e-08
1.553650e-11
9.515130e-08
4.994580e-11
-2.753790e-08
-2.374790e-11
9.554010e-08
-1.019810e-10
1.553650e-11
3.021670e-08
4.994580e-11
-9.493920e-08
-2.374790e-11
2.743970e-08
-1.019810e-10
-9.569330e-08
9.515130e-08
4.994580e-11
-3.674080e-08
-2.095960e-11
9.554010e-08
-1.019810e-10
-3.928600e-08
-1.157530e-10
4.994580e-11
-9.493920e-08
-2.095960e-11
3.677220e-08
-1.019810e-10
-9.569330e-08
-1.157530e-10
3.895610e-08
-3.674080e-08
-2.095960e-11
-9.866280e-08
1.690140e-11
-3.928600e-08
-1.157530e-10
-9.823850e-08
-7.946300e-12
-2.095960e-11
3.677220e-08
1.690140e-11
9.862350e-08
-1.157530e-10
3.895610e-08
-7.946300e-12
9.848210e-08
-9.866280e-08
1.690140e-11
3.569200e-08
2.538740e-11
-9.823850e-08
-7.946300e-12
3.539750e-08
-4.566730e-11
1.690140e-11
9.862350e-08
2.538740e-11
-3.567240e-08
-7.946300e-12
9.848210e-08
-4.566730e-11
-3.574310e-08
3.569200e-08
2.538740e-11
7.457740e-08
2.957670e-11
3.539750e-08
-4.566730e-11
7.444390e-08
-7.532100e-11
2.538740e-11
-3.567240e-08
2.957670e-11
-7.440850e-08
-4.566730e-11
-3.574310e-08
-7.532100e-11
-7.464420e-08
7.457740e-08
2.957670e-11
5.184710e-10
-4.644560e-11
7.444390e-08
-7.532100e-11
4.556260e-10
3.133460e-11
2.957670e-11
-7.440850e-08
-4.644560e-11
-5.538220e-10
-7.532100e-11
-7.464420e-08
3.133460e-11
-5.027600e-10
5.184710e-10
-4.644560e-11
-5.193750e-08
-1.164440e-10
4.556260e-10
3.133460e-11
-5.065310e-08
-3.549080e-11
-4.644560e-11
-5.538220e-10
-1.164440e-10
5.161930e-08
3.133460e-11
-5.027600e-10
-3.549080e-11
5.048420e-08
-5.193750e-08
-1.164440e-10
-4.019720e-08
7.739150e-11
-5.065310e-08
-3.549080e-11
-3.995760e-08
-1.864980e-10
-1.164440e-10
5.161930e-08
7.739150e-11
4.033860e-08
-3.549080e-11
5.048420e-08
-1.864980e-10
3.977300e-08
-4.019720e-08
7.739150e-11
2.927010e-08
6.307200e-11
-3.995760e-08
-1.864980e-10
2.908940e-08
-1.515650e-11
7.739150e-11
4.033860e-08
6.307200e-11
-2.917970e-08
-1.864980e-10
3.977300e-08
-1.515650e-11
-2.912080e-08
2.927010e-08
6.307200e-11
4.471420e-08
-8.546100e-11
2.908940e-08
-1.515650e-11
4.481240e-08
4.416300e-11
6.307200e-11
-2.917970e-08
-8.546100e-11
-4.479670e-08
-1.515650e-11
-2.912080e-08
4.416300e-11
-4.493030e-08
4.471420e-08
-8.546100e-11
2.861810e-08
-1.234440e-11
4.481240e-08
4.416300e-11
2.894800e-08
1.418730e-10
-8.546100e-11
-4.479670e-08
-1.234440e-11
-2.854340e-08
4.416300e-11
-4.493030e-08
1.418730e-10
-2.871230e-08
2.861810e-08
-1.234440e-11
-1.536560e-08
6.391540e-11
2.894800e-08
1.418730e-10
-1.517310e-08
-1.010840e-10
-1.234440e-11
-2.854340e-08
6.391540e-11
1.543630e-08
1.418730e-10
-2.871230e-08
-1.010840e-10
1.499640e-08
-1.536560e-08
6.391540e-11
-2.344900e-08
3.886580e-11
-1.517310e-08
-1.010840e-10
-2.309550e-08
-2.472060e-11
6.391540e-11
1.543630e-08
3.886580e-11
2.352370e-08
-1.010840e-10
1.499640e-08
-2.472060e-11
2.306410e-08
-2.344900e-08
3.886580e-11
-1.012980e-08
5.001960e-11
-2.309550e-08
-2.472060e-11
-1.037730e-08
4.074820e-11
3.886580e-11
2.352370e-08
5.001960e-11
1.028300e-08
-2.472060e-11
2.306410e-08
4.074820e-11
1.055010e-08
-1.012980e-08
5.001960e-11
-3.955310e-09
1.327560e-11
-1.037730e-08
4.074820e-11
-3.707860e-09
-4.647270e-11
5.001960e-11
1.028300e-08
1.327560e-11
4.002440e-09
4.074820e-11
1.055010e-08
-4.647270e-11
3.633230e-09
-3.955310e-09
1.327560e-11
-7.647450e-09
-1.935500e-11
-3.707860e-09
-4.647270e-11
-7.195750e-09
8.780880e-12
1.327560e-11
4.002440e-09
-1.935500e-11
7.608180e-09
-4.647270e-11
3.633230e-09
8.780880e-12
7.215390e-09
-7.647450e-09
-1.935500e-11
-5.797450e-09
-1.983400e-11
-7.195750e-09
8.780880e-12
-6.602650e-09
-2.819010e-12
-1.935500e-11
7.608180e-09
-1.983400e-11
5.758170e-09
8.780880e-12
7.215390e-09
-2.819010e-12
6.606580e-09
-5.797450e-09
-1.983400e-11
6.190230e-09
8.987700e-12
-6.602650e-09
-2.819010e-12
6.445540e-09
2.538390e-12
-1.983400e-11
5.758170e-09
8.987700e-12
-6.182380e-09
-2.819010e-12
6.606580e-09
2.538390e-12
-6.449470e-09
6.190230e-09
8.987700e-12
-1.555410e-09
-1.889410e-12
6.445540e-09
2.538390e-12
-1.146920e-09
1.193160e-11
8.987700e-12
-6.182380e-09
-1.889410e-12
1.547560e-09
2.538390e-12
-6.449470e-09
1.193160e-11
1.186200e-09
-1.555410e-09
-1.889410e-12
-7.227180e-09
-1.451550e-11
-1.146920e-09
1.193160e-11
-7.635670e-09
-1.053890e-11
-1.889410e-12
1.547560e-09
-1.451550e-11
7.207540e-09
1.193160e-11
1.186200e-09
-1.053890e-11
7.619960e-09
-7.227180e-09
-1.451550e-11
-2.788750e-09
6.270640e-12
-7.635670e-09
-1.053890e-11
-2.883020e-09
1.772470e-12
-1.451550e-11
7.207540e-09
6.270640e-12
2.808390e-09
-1.053890e-11
7.619960e-09
1.772470e-12
2.890870e-09
-2.788750e-09
6.270640e-12
8.444800e-10
1.264070e-11
-2.883020e-09
1.772470e-12
1.366880e-09
1.614910e-11
6.270640e-12
2.808390e-09
1.264070e-11
-8.209130e-10
1.772470e-12
2.890870e-09
1.614910e-11
-1.331530e-09
8.444800e-10
1.264070e-11
3.888540e-10
8.077130e-13
1.366880e-09
1.614910e-11
3.377920e-10
3.285310e-12
1.264070e-11
-8.209130e-10
8.077130e-13
-3.967090e-10
1.614910e-11
-1.331530e-09
3.285310e-12
-3.181530e-10
3.888540e-10
8.077130e-13
-1.867160e-07
-8.449630e-12
3.377920e-10
3.285310e-12
-1.854360e-07
-1.196390e-11
8.077130e-13
-3.967090e-10
-8.449630e-12
1.866890e-07
3.285310e-12
-3.181530e-10
-1.196390e-11
1.854240e-07
</DataArray>
<DataArray type="Float32" Name="V2" format="ascii">
0.000000e+00
0.000000e+00
4.930940e-04
4.928490e-04
0.000000e+00
0.000000e+00
4.928480e-04
4.925980e-04
0.000000e+00
0.000000e+00
4.928490e-04
4.930940e-04
0.000000e+00
0.000000e+00
4.925980e-04
4.928490e-04
4.930940e-04
4.928490e-04
1.397090e-03
1.397160e-03
4.928480e-04
4.925980e-04
1.397160e-03
1.397220e-03
4.928490e-04
4.930940e-04
1.397160e-03
1.397090e-03
4.925980e-04
4.928490e-04
1.397220e-03
1.397160e-03
1.397090e-03
1.397160e-03
2.928310e-03
2.928370e-03
1.397160e-03
1.397220e-03
2.928370e-03
2.928420e-03
1.397160e-03
1.397090e-03
2.928370e-03
2.928310e-03
1.397220e-03
1.397160e-03
2.928420e-03
2.928370e-03
2.928310e-03
2.928370e-03
5.683790e-03
5.683870e-03
2.928370e-03
2.928420e-03
5.683870e-03
5.683940e-03
2.928370e-03
2.928310e-03
5.683870e-03
5.683790e-03
2.928420e-03
2.928370e-03
5.683940e-03
5.683870e-03
5.683790e-03
5.683870e-03
1.031900e-02
1.031900e-02
5.683870e-03
5.683940e-03
1.031900e-02
1.031910e-02
5.683870e-03
5.683790e-03
1.031900e-02
1.031900e-02
5.683940e-03
5.683870e-03
1.031910e-02
1.031900e-02
1.031900e-02
1.031900e-02
1.663300e-02
1.663290e-02
1.031900e-02
1.031910e-02
1.663290e-02
1.663270e-02
1.031900e-02
1.031900e-02
1.663290e-02
1.663300e-02
1.031910e-02
1.031900e-02
1.663270e-02
1.663290e-02
1.663300e-02
1.663290e-02
2.295310e-02
2.295300e-02
1.663290e-02
1.663270e-02
2.295300e-02
2.295290e-02
1.663290e-02
1.663300e-02
2.295300e-02
2.295310e-02
1.663270e-02
1.663290e-02
2.295290e-02
2.295300e-02
2.295310e-02
2.295300e-02
2.639070e-02
2.639080e-02
2.295300e-02
2.295290e-02
2.639080e-02
2.639090e-02
2.295300e-02
2.295310e-02
2.639080e-02
2.639070e-02
2.295290e-02
2.295300e-02
2.639090e-02
2.639080e-02
2.639070e-02
2.639080e-02
2.371720e-02
2.371720e-02
2.639080e-02
2.639090e-02
2.371720e-02
2.371730e-02
2.639080e-02
2.639070e-02
2.371720e-02
2.371720e-02
2.639090e-02
2.639080e-02
2.371730e-02
2.371720e-02
2.371720e-02
2.371720e-02
1.472070e-02
1.472070e-02
2.371720e-02
2.371730e-02
1.472070e-02
1.472070e-02
2.371720e-02
2.371720e-02
1.472070e-02
1.472070e-02
2.371730e-02
2.371720e-02
1.472070e-02
1.472070e-02
1.472070e-02
1.472070e-02
4.108620e-03
4.108700e-03
1.472070e-02
1.472070e-02
4.108700e-03
4.108780e-03
1.472070e-02
1.472070e-02
4.108700e-03
4.108620e-03
1.472070e-02
1.472070e-02
4.108780e-03
4.108700e-03
4.108620e-03
4.108700e-03
-2.182060e-03
-2.181990e-03
4.108700e-03
4.108780e-03
-2.181990e-03
-2.181920e-03
4.108700e-03
4.108620e-03
-2.181990e-03
-2.182060e-03
4.108780e-03
4.108700e-03
-2.181920e-03
-2.181990e-03
-2.182060e-03
-2.181990e-03
-2.636630e-03
-2.636600e-03
-2.181990e-03
-2.181920e-03
-2.636600e-03
-2.636570e-03
-2.181990e-03
-2.182060e-03
-2.636600e-03
-2.636630e-03
-2.181920e-03
-2.181990e-03
-2.636570e-03
-2.636600e-03
-2.636630e-03
-2.636600e-03
-1.019830e-03
-1.019890e-03
-2.636600e-03
-2.636570e-03
-1.019890e-03
-1.019960e-03
-2.636600e-03
-2.636630e-03
-1.019890e-03
-1.019830e-03
-2.636570e-03
-2.636600e-03
-1.019960e-03
-1.019890e-03
-1.019830e-03
-1.019890e-03
-4.978050e-04
-4.978750e-04
-1.019890e-03
-1.019960e-03
-4.978740e-04
-4.979430e-04
-1.019890e-03
-1.019830e-03
-4.978750e-04
-4.978040e-04
-1.019960e-03
-1.019890e-03
-4.979430e-04
-4.978740e-04
-4.978050e-04
-4.978750e-04
-6.217970e-04
-6.218500e-04
-4.978740e-04
-4.979430e-04
-6.218500e-04
-6.219030e-04
-4.978750e-04
-4.978040e-04
-6.218500e-04
-6.217970e-04
-4.979430e-04
-4.978740e-04
-6.219030e-04
-6.218510e-04
-6.217970e-04
-6.218500e-04
-5.845710e-04
-5.845840e-04
-6.218500e-04
-6.219030e-04
-5.845850e-04
-5.845960e-04
-6.218500e-04
-6.217970e-04
-5.845840e-04
-5.845710e-04
-6.219030e-04
-6.218510e-04
-5.845960e-04
-5.845850e-04
-5.845710e-04
-5.845840e-04
-5.795020e-04
-5.795180e-04
-5.845850e-04
-5.845960e-04
-5.795180e-04
-5.795340e-04
-5.845840e-04
-5.845710e-04
-5.795180e-04
-5.795020e-04
-5.845960e-04
-5.845850e-04
-5.795340e-04
-5.795180e-04
-5.795020e-04
-5.795180e-04
-5.916790e-04
-5.917030e-04
-5.795180e-04
-5.795340e-04
-5.917030e-04
-5.917270e-04
-5.795180e-04
-5.795020e-04
-5.917030e-04
-5.916790e-04
-5.795340e-04
-5.795180e-04
-5.917270e-04
-5.917030e-04
-5.916790e-04
-5.917030e-04
-5.243840e-04
-5.243970e-04
-5.917030e-04
-5.917270e-04
-5.243970e-04
-5.244100e-04
-5.917030e-04
-5.916790e-04
-5.243970e-04
-5.243840e-04
-5.917270e-04
-5.917030e-04
-5.244100e-04
-5.243970e-04
-5.243840e-04
-5.243970e-04
-4.707030e-04
-4.707200e-04
-5.243970e-04
-5.244100e-04
-4.707200e-04
-4.707310e-04
-5.243970e-04
-5.243840e-04
-4.707200e-04
-4.707030e-04
-5.244100e-04
-5.243970e-04
-4.707310e-04
-4.707200e-04
-4.707030e-04
-4.707200e-04
-4.540920e-04
-4.540640e-04
-4.707200e-04
-4.707310e-04
-4.540640e-04
-4.540440e-04
-4.707200e-04
-4.707030e-04
-4.540640e-04
-4.540920e-04
-4.707310e-04
-4.707200e-04
-4.540440e-04
-4.540640e-04
-4.540920e-04
-4.540640e-04
-4.127130e-04
-4.127120e-04
-4.540640e-04
-4.540440e-04
-4.127120e-04
-4.127120e-04
-4.540640e-04
-4.540920e-04
-4.127120e-04
-4.127130e-04
-4.540440e-04
-4.540640e-04
-4.127120e-04
-4.127120e-04
-4.127130e-04
-4.127120e-04
-3.512480e-04
-3.512810e-04
-4.127120e-04
-4.127120e-04
-3.512810e-04
-3.513040e-04
-4.127120e-04
-4.127130e-04
-3.512810e-04
-3.512480e-04
-4.127120e-04
-4.127120e-04
-3.513040e-04
-3.512810e-04
-3.512480e-04
-3.512810e-04
-3.072540e-04
-3.072250e-04
-3.512810e-04
-3.513040e-04
-3.072240e-04
-3.072020e-04
-3.512810e-04
-3.512480e-04
-3.072250e-04
-3.072540e-04
-3.513040e-04
-3.512810e-04
-3.072020e-04
-3.072240e-04
-3.072540e-04
-3.072250e-04
-2.235770e-04
-2.235760e-04
-3.072240e-04
-3.072020e-04
-2.235750e-04
-2.235740e-04
-3.072250e-04
-3.072540e-04
-2.235760e-04
-2.235760e-04
-3.072020e-04
-3.072240e-04
-2.235740e-04
-2.235750e-04
-2.235770e-04
-2.235760e-04
-1.117120e-04
-1.117180e-04
-2.235750e-04
-2.235740e-04
-1.117180e-04
-1.117230e-04
-2.235760e-04
-2.235760e-04
-1.117180e-04
-1.117120e-04
-2.235740e-04
-2.235750e-04
-1.117230e-04
-1.117180e-04
-1.117120e-04
-1.117180e-04
-1.351000e-05
-1.352070e-05
-1.117180e-04
-1.117230e-04
-1.352070e-05
-1.352920e-05
-1.117180e-04
-1.117120e-04
-1.352070e-05
-1.351000e-05
-1.117230e-04
-1.117180e-04
-1.352920e-05
-1.352070e-05
-1.351000e-05
-1.352070e-05
6.508090e-05
6.518170e-05
-1.352070e-05
-1.352920e-05
6.518160e-05
6.527390e-05
-1.352070e-05
-1.351000e-05
6.518170e-05
6.508080e-05
-1.352920e-05
-1.352070e-05
6.527390e-05
6.518160e-05
6.508090e-05
6.518170e-05
1.008130e-04
1.010620e-04
6.518160e-05
6.527390e-05
1.010620e-04
1.013220e-04
6.518170e-05
6.508080e-05
1.010620e-04
1.008130e-04
6.527390e-05
6.518160e-05
1.013220e-04
1.010620e-04
0.000000e+00
0.000000e+00
4.928480e-04
4.925980e-04
0.000000e+00
0.000000e+00
4.930940e-04
4.928480e-04
0.000000e+00
0.000000e+00
4.925980e-04
4.928490e-04
0.000000e+00
0.000000e+00
4.928480e-04
4.930940e-04
4.928480e-04
4.925980e-04
1.397160e-03
1.397220e-03
4.930940e-04
4.928480e-04
1.397090e-03
1.397160e-03
4.925980e-04
4.928490e-04
1.397220e-03
1.397160e-03
4.928480e-04
4.930940e-04
1.397160e-03
1.397090e-03
1.397160e-03