<?xml version="1.0"?>
<VTKFile type="UnstructuredGrid" version="0.1" byte_order="LittleEndian" compressor="vtkZLibDataCompressor">
<UnstructuredGrid>
<Piece NumberOfPoints="960" NumberOfCells="120">
<Points>
<DataArray type="Float32" NumberOfComponents="3" format="ascii">
-4.000000e+02 -6.000000e+03 -4.000000e+02
0.000000e+00 -6.000000e+03 -4.000000e+02
-4.000000e+02 -5.600000e+03 -4.000000e+02
1.539500e-10 -5.600000e+03 -4.000000e+02
-4.000000e+02 -6.000000e+03 0.000000e+00
0.000000e+00 -6.000000e+03 0.000000e+00
-4.000000e+02 -5.600000e+03 1.700130e-11
1.560320e-10 -5.600000e+03 1.138880e-11
0.000000e+00 -6.000000e+03 -4.000000e+02
4.000000e+02 -6.000000e+03 -4.000000e+02
1.539500e-10 -5.600000e+03 -4.000000e+02
4.000000e+02 -5.600000e+03 -4.000000e+02
0.000000e+00 -6.000000e+03 0.000000e+00
4.000000e+02 -6.000000e+03 0.000000e+00
1.560320e-10 -5.600000e+03 1.138880e-11
4.000000e+02 -5.600000e+03 9.928400e-12
-4.000000e+02 -5.600000e+03 -4.000000e+02
1.539500e-10 -5.600000e+03 -4.000000e+02
-4.000000e+02 -5.200000e+03 -4.000000e+02
-4.185460e-11 -5.200000e+03 -4.000000e+02
-4.000000e+02 -5.600000e+03 1.700130e-11
1.560320e-10 -5.600000e+03 1.138880e-11
-4.000000e+02 -5.200000e+03 -1.414460e-10
-7.976840e-11 -5.200000e+03 2.065890e-11
1.539500e-10 -5.600000e+03 -4.000000e+02
4.000000e+02 -5.600000e+03 -4.000000e+02
-4.185460e-11 -5.200000e+03 -4.000000e+02
4.000000e+02 -5.200000e+03 -4.000000e+02
1.560320e-10 -5.600000e+03 1.138880e-11
4.000000e+02 -5.600000e+03 9.928400e-12
-7.976840e-11 -5.200000e+03 2.065890e-11
4.000000e+02 -5.200000e+03 -1.558410e-10
-4.000000e+02 -5.200000e+03 -4.000000e+02
-4.185460e-11 -5.200000e+03 -4.000000e+02
-4.000000e+02 -4.800010e+03 -4.000000e+02
-1.161210e-10 -4.800010e+03 -4.000000e+02
-4.000000e+02 -5.200000e+03 -1.414460e-10
-7.976840e-11 -5.200000e+03 2.065890e-11
-4.000000e+02 -4.800010e+03 -2.146090e-10
-2.956180e-10 -4.800010e+03 -2.266370e-10
-4.185460e-11 -5.200000e+03 -4.000000e+02
4.000000e+02 -5.200000e+03 -4.000000e+02
-1.161210e-10 -4.800010e+03 -4.000000e+02
4.000000e+02 -4.800010e+03 -4.000000e+02
-7.976840e-11 -5.200000e+03 2.065890e-11
4.000000e+02 -5.200000e+03 -1.558410e-10
-2.956180e-10 -4.800010e+03 -2.266370e-10
4.000000e+02 -4.800010e+03 -1.587200e-10
-4.000000e+02 -4.800010e+03 -4.000000e+02
-1.161210e-10 -4.800010e+03 -4.000000e+02
-4.000000e+02 -4.400010e+03 -4.000000e+02
8.213740e-12 -4.400010e+03 -4.000000e+02
-4.000000e+02 -4.800010e+03 -2.146090e-10
-2.956180e-10 -4.800010e+03 -2.266370e-10
-4.000000e+02 -4.400010e+03 -3.528340e-10
-1.311980e-10 -4.400010e+03 -3.743030e-10
-1.161210e-10 -4.800010e+03 -4.000000e+02
4.000000e+02 -4.800010e+03 -4.000000e+02
8.213740e-12 -4.400010e+03 -4.000000e+02
4.000000e+02 -4.400010e+03 -4.000000e+02
-2.956180e-10 -4.800010e+03 -2.266370e-10
4.000000e+02 -4.800010e+03 -1.587200e-10
-1.311980e-10 -4.400010e+03 -3.743030e-10
4.000000e+02 -4.400010e+03 -2.058380e-10
-4.000000e+02 -4.400010e+03 -4.000000e+02
8.213740e-12 -4.400010e+03 -4.000000e+02
-4.000000e+02 -4.000010e+03 -4.000000e+02
2.761990e-11 -4.000010e+03 -4.000000e+02
-4.000000e+02 -4.400010e+03 -3.528340e-10
-1.311980e-10 -4.400010e+03 -3.743030e-10
-4.000000e+02 -4.000010e+03 -2.991660e-10
1.304910e-11 -4.000010e+03 -4.021010e-10
8.213740e-12 -4.400010e+03 -4.000000e+02
4.000000e+02 -4.400010e+03 -4.000000e+02
2.761990e-11 -4.000010e+03 -4.000000e+02
4.000000e+02 -4.000010e+03 -4.000000e+02
-1.311980e-10 -4.400010e+03 -3.743030e-10
4.000000e+02 -4.400010e+03 -2.058380e-10
1.304910e-11 -4.000010e+03 -4.021010e-10
4.000000e+02 -4.000010e+03 -3.680080e-10
-4.000000e+02 -4.000010e+03 -4.000000e+02
2.761990e-11 -4.000010e+03 -4.000000e+02
-4.000000e+02 -3.600010e+03 -4.000000e+02
4.640830e-11 -3.600010e+03 -4.000000e+02
-4.000000e+02 -4.000010e+03 -2.991660e-10
1.304910e-11 -4.000010e+03 -4.021010e-10
-4.000000e+02 -3.600010e+03 -3.574460e-10
-9.713140e-12 -3.600010e+03 -4.240230e-10
2.761990e-11 -4.000010e+03 -4.000000e+02
4.000000e+02 -4.000010e+03 -4.000000e+02
4.640830e-11 -3.600010e+03 -4.000000e+02
4.000000e+02 -3.600010e+03 -4.000000e+02
1.304910e-11 -4.000010e+03 -4.021010e-10
4.000000e+02 -4.000010e+03 -3.680080e-10
-9.713140e-12 -3.600010e+03 -4.240230e-10
4.000000e+02 -3.600010e+03 -4.541580e-10
-4.000000e+02 -3.600010e+03 -4.000000e+02
4.640830e-11 -3.600010e+03 -4.000000e+02
-4.000000e+02 -3.200010e+03 -4.000000e+02
6.141430e-11 -3.200010e+03 -4.000000e+02
-4.000000e+02 -3.600010e+03 -3.574460e-10
-9.713140e-12 -3.600010e+03 -4.240230e-10
-4.000000e+02 -3.200010e+03 -4.057560e-10
6.093720e-12 -3.200010e+03 -3.781690e-10
4.640830e-11 -3.600010e+03 -4.000000e+02
4.000000e+02 -3.600010e+03 -4.000000e+02
6.141430e-11 -3.200010e+03 -4.000000e+02
4.000000e+02 -3.200010e+03 -4.000000e+02
-9.713140e-12 -3.600010e+03 -4.240230e-10
4.000000e+02 -3.600010e+03 -4.541580e-10
6.093720e-12 -3.200010e+03 -3.781690e-10
4.000000e+02 -3.200010e+03 -3.801320e-10
-4.000000e+02 -3.200010e+03 -4.000000e+02
6.141430e-11 -3.200010e+03 -4.000000e+02
-4.000000e+02 -2.800020e+03 -4.000000e+02
-7.005660e-11 -2.800020e+03 -4.000000e+02
-4.000000e+02 -3.200010e+03 -4.057560e-10
6.093720e-12 -3.200010e+03 -3.781690e-10
-4.000000e+02 -2.800020e+03 -3.014370e-10
-1.203380e-10 -2.800020e+03 -2.641570e-10
6.141430e-11 -3.200010e+03 -4.000000e+02
4.000000e+02 -3.200010e+03 -4.000000e+02
-7.005660e-11 -2.800020e+03 -4.000000e+02
4.000000e+02 -2.800020e+03 -4.000000e+02
6.093720e-12 -3.200010e+03 -3.781690e-10
4.000000e+02 -3.200010e+03 -3.801320e-10
-1.203380e-10 -2.800020e+03 -2.641570e-10
4.000000e+02 -2.800020e+03 -1.446890e-10
-4.000000e+02 -2.800020e+03 -4.000000e+02
-7.005660e-11 -2.800020e+03 -4.000000e+02
-4.000000e+02 -2.400020e+03 -4.000000e+02
-1.653900e-10 -2.400020e+03 -4.000000e+02
-4.000000e+02 -2.800020e+03 -3.014370e-10
-1.203380e-10 -2.800020e+03 -2.641570e-10
-4.000000e+02 -2.400020e+03 -1.661160e-10
-2.687600e-10 -2.400020e+03 -1.761070e-10
-7.005660e-11 -2.800020e+03 -4.000000e+02
4.000000e+02 -2.800020e+03 -4.000000e+02
-1.653900e-10 -2.400020e+03 -4.000000e+02
4.000000e+02 -2.400020e+03 -4.000000e+02
-1.203380e-10 -2.800020e+03 -2.641570e-10
4.000000e+02 -2.800020e+03 -1.446890e-10
-2.687600e-10 -2.400020e+03 -1.761070e-10
4.000000e+02 -2.400020e+03 -1.372890e-10
-4.000000e+02 -2.400020e+03 -4.000000e+02
-1.653900e-10 -2.400020e+03 -4.000000e+02
-4.000000e+02 -2.000030e+03 -4.000000e+02
-1.112720e-10 -2.000030e+03 -4.000000e+02
-4.000000e+02 -2.400020e+03 -1.661160e-10
-2.687600e-10 -2.400020e+03 -1.761070e-10
-4.000000e+02 -2.000030e+03 -1.630620e-10
-5.181430e-11 -2.000030e+03 -2.307170e-10
-1.653900e-10 -2.400020e+03 -4.000000e+02
4.000000e+02 -2.400020e+03 -4.000000e+02
-1.112720e-10 -2.000030e+03 -4.000000e+02
4.000000e+02 -2.000030e+03 -4.000000e+02
-2.687600e-10 -2.400020e+03 -1.761070e-10
4.000000e+02 -2.400020e+03 -1.372890e-10
-5.181430e-11 -2.000030e+03 -2.307170e-10
4.000000e+02 -2.000030e+03 -1.406870e-10
-4.000000e+02 -2.000030e+03 -4.000000e+02
-1.112720e-10 -2.000030e+03 -4.000000e+02
-4.000000e+02 -1.600040e+03 -4.000000e+02
2.795530e-11 -1.600040e+03 -4.000000e+02
-4.000000e+02 -2.000030e+03 -1.630620e-10
-5.181430e-11 -2.000030e+03 -2.307170e-10
-4.000000e+02 -1.600040e+03 -9.564660e-11
4.604260e-11 -1.600040e+03 -1.079740e-10
-1.112720e-10 -2.000030e+03 -4.000000e+02
4.000000e+02 -2.000030e+03 -4.000000e+02
2.795530e-11 -1.600040e+03 -4.000000e+02
4.000000e+02 -1.600040e+03 -4.000000e+02
-5.181430e-11 -2.000030e+03 -2.307170e-10
4.000000e+02 -2.000030e+03 -1.406870e-10
4.604260e-11 -1.600040e+03 -1.079740e-10
4.000000e+02 -1.600040e+03 -5.482560e-11
-4.000000e+02 -1.600040e+03 -4.000000e+02
2.795530e-11 -1.600040e+03 -4.000000e+02
-4.000000e+02 -1.200060e+03 -4.000000e+02
-2.445530e-11 -1.200060e+03 -4.000000e+02
-4.000000e+02 -1.600040e+03 -9.564660e-11
4.604260e-11 -1.600040e+03 -1.079740e-10
-4.000000e+02 -1.200060e+03 -2.097390e-11
9.657370e-11 -1.200060e+03 2.434090e-11
2.795530e-11 -1.600040e+03 -4.000000e+02
4.000000e+02 -1.600040e+03 -4.000000e+02
-2.445530e-11 -1.200060e+03 -4.000000e+02
4.000000e+02 -1.200060e+03 -4.000000e+02
4.604260e-11 -1.600040e+03 -1.079740e-10
4.000000e+02 -1.600040e+03 -5.482560e-11
9.657370e-11 -1.200060e+03 2.434090e-11
4.000000e+02 -1.200060e+03 -4.680060e-11
-4.000000e+02 -1.200060e+03 -4.000000e+02
-2.445530e-11 -1.200060e+03 -4.000000e+02
-4.000000e+02 -8.000940e+02 -4.000000e+02
1.012100e-10 -8.000940e+02 -4.000000e+02
-4.000000e+02 -1.200060e+03 -2.097390e-11
9.657370e-11 -1.200060e+03 2.434090e-11
-4.000000e+02 -8.000940e+02 -3.487870e-11
1.863960e-10 -8.000940e+02 -1.331400e-10
-2.445530e-11 -1.200060e+03 -4.000000e+02
4.000000e+02 -1.200060e+03 -4.000000e+02
1.012100e-10 -8.000940e+02 -4.000000e+02
4.000000e+02 -8.000940e+02 -4.000000e+02
9.657370e-11 -1.200060e+03 2.434090e-11
4.000000e+02 -1.200060e+03 -4.680060e-11
1.863960e-10 -8.000940e+02 -1.331400e-10
4.000000e+02 -8.000940e+02 -2.199130e-10
-4.000000e+02 -8.000940e+02 -4.000000e+02
1.012100e-10 -8.000940e+02 -4.000000e+02
-4.000000e+02 -4.001360e+02 -4.000000e+02
1.864020e-10 -4.001360e+02 -4.000000e+02
-4.000000e+02 -8.000940e+02 -3.487870e-11
1.863960e-10 -8.000940e+02 -1.331400e-10
-4.000000e+02 -4.001360e+02 8.221450e-12
2.575870e-10 -4.001360e+02 -2.229390e-10
1.012100e-10 -8.000940e+02 -4.000000e+02
4.000000e+02 -8.000940e+02 -4.000000e+02
1.864020e-10 -4.001360e+02 -4.000000e+02
4.000000e+02 -4.001360e+02 -4.000000e+02
1.863960e-10 -8.000940e+02 -1.331400e-10
4.000000e+02 -8.000940e+02 -2.199130e-10
2.575870e-10 -4.001360e+02 -2.229390e-10
4.000000e+02 -4.001360e+02 -2.474880e-10
-4.000000e+02 -4.001360e+02 -4.000000e+02
1.864020e-10 -4.001360e+02 -4.000000e+02
-4.000000e+02 -1.790570e-01 -4.000000e+02
2.991510e-10 -1.790570e-01 -4.000000e+02
-4.000000e+02 -4.001360e+02 8.221450e-12
2.575870e-10 -4.001360e+02 -2.229390e-10
-4.000000e+02 -1.790570e-01 1.528690e-10
4.586210e-10 -1.790570e-01 3.993680e-11
1.864020e-10 -4.001360e+02 -4.000000e+02
4.000000e+02 -4.001360e+02 -4.000000e+02
2.991510e-10 -1.790570e-01 -4.000000e+02
[...]
<PointData>
<DataArray type="Float32" Name="V1" format="ascii">
0.000000e+00
0.000000e+00
-9.023370e-08
1.173490e-11
0.000000e+00
0.000000e+00
-9.015900e-08
1.308710e-10
0.000000e+00
0.000000e+00
1.173490e-11
9.017080e-08
0.000000e+00
0.000000e+00
1.308710e-10
9.036720e-08
-9.023370e-08
1.173490e-11
-2.725900e-09
-2.702980e-11
-9.015900e-08
1.308710e-10
-3.436840e-09
5.113200e-11
1.173490e-11
9.017080e-08
-2.702980e-11
2.729830e-09
1.308710e-10
9.036720e-08
5.113200e-11
3.578240e-09
-2.725900e-09
-2.702980e-11
9.741370e-08
-1.051120e-10
-3.436840e-09
5.113200e-11
9.854490e-08
1.347730e-10
-2.702980e-11
2.729830e-09
-1.051120e-10
-9.763370e-08
5.113200e-11
3.578240e-09
1.347730e-10
-9.821500e-08
9.741370e-08
-1.051120e-10
-7.125450e-08
-1.415690e-10
9.854490e-08
1.347730e-10
-6.954190e-08
4.318580e-11
-1.051120e-10
-9.763370e-08
-1.415690e-10
7.090100e-08
1.347730e-10
-9.821500e-08
4.318580e-11
6.951440e-08
-7.125450e-08
-1.415690e-10
5.341830e-09
2.223440e-10
-6.954190e-08
4.318580e-11
4.744800e-09
6.030260e-11
-1.415690e-10
7.090100e-08
2.223440e-10
-5.007960e-09
4.318580e-11
6.951440e-08
6.030260e-11
-4.897980e-09
5.341830e-09
2.223440e-10
-7.987990e-08
2.714890e-11
4.744800e-09
6.030260e-11
-7.991920e-08
-6.268360e-11
2.223440e-10
-5.007960e-09
2.714890e-11
7.986030e-08
6.030260e-11
-4.897980e-09
-6.268360e-11
7.967960e-08
-7.987990e-08
2.714890e-11
2.080560e-08
-1.251340e-10
-7.991920e-08
-6.268360e-11
2.060140e-08
-1.301630e-10
2.714890e-11
7.986030e-08
-1.251340e-10
-2.092350e-08
-6.268360e-11
7.967960e-08
-1.301630e-10
-2.077420e-08
2.080560e-08
-1.251340e-10
1.293230e-07
5.063360e-11
2.060140e-08
-1.301630e-10
1.283410e-07
1.226170e-10
-1.251340e-10
-2.092350e-08
5.063360e-11
-1.290560e-07
-1.301630e-10
-2.077420e-08
1.226170e-10
-1.281330e-07
1.293230e-07
5.063360e-11
-6.942410e-08
-1.514980e-13
1.283410e-07
1.226170e-10
-7.006830e-08
-6.244470e-11
5.063360e-11
-1.290560e-07
-1.514980e-13
6.932200e-08
1.226170e-10
-1.281330e-07
-6.244470e-11
6.981300e-08
-6.942410e-08
-1.514980e-13
-7.497410e-08
-6.197670e-11
-7.006830e-08
-6.244470e-11
-7.478950e-08
-1.691510e-10
-1.514980e-13
6.932200e-08
-6.197670e-11
7.515090e-08
-6.244470e-11
6.981300e-08
-1.691510e-10
7.456950e-08
-7.497410e-08
-6.197670e-11
6.308070e-08
5.693520e-11
-7.478950e-08
-1.691510e-10
6.304530e-08
4.127500e-11
-6.197670e-11
7.515090e-08
5.693520e-11
-6.297860e-08
-1.691510e-10
7.456950e-08
4.127500e-11
-6.297860e-08
6.308070e-08
5.693520e-11
4.002440e-08
1.208600e-10
6.304530e-08
4.127500e-11
4.016190e-08
-1.161300e-10
5.693520e-11
-6.297860e-08
1.208600e-10
-3.993800e-08
4.127500e-11
-6.297860e-08
-1.161300e-10
-4.024050e-08
4.002440e-08
1.208600e-10
3.351210e-08
-1.164820e-11
4.016190e-08
-1.161300e-10
3.422700e-08
6.702320e-11
1.208600e-10
-3.993800e-08
-1.164820e-11
-3.355140e-08
-1.161300e-10
-4.024050e-08
6.702320e-11
-3.413270e-08
3.351210e-08
-1.164820e-11
-6.325740e-08
6.940680e-12
3.422700e-08
6.702320e-11
-6.296290e-08
-3.826350e-11
-1.164820e-11
-3.355140e-08
6.940680e-12
6.331640e-08
6.702320e-11
-3.413270e-08
-3.826350e-11
6.290390e-08
-6.325740e-08
6.940680e-12
-6.575160e-08
-4.866430e-11
-6.296290e-08
-3.826350e-11
-6.561410e-08
-1.062980e-11
6.940680e-12
6.331640e-08
-4.866430e-11
6.569660e-08
-3.826350e-11
6.290390e-08
-1.062980e-11
6.550410e-08
-6.575160e-08
-4.866430e-11
2.095100e-08
9.767170e-11
-6.561410e-08
-1.062980e-11
2.167370e-08
1.002130e-10
-4.866430e-11
6.569660e-08
9.767170e-11
-2.084490e-08
-1.062980e-11
6.550410e-08
1.002130e-10
-2.148120e-08
2.095100e-08
9.767170e-11
9.713480e-08
-5.421960e-11
2.167370e-08
1.002130e-10
9.722520e-08
-8.972370e-11
9.767170e-11
-2.084490e-08
-5.421960e-11
-9.718200e-08
1.002130e-10
-2.148120e-08
-8.972370e-11
-9.736260e-08
9.713480e-08
-5.421960e-11
1.104580e-07
3.235340e-11
9.722520e-08
-8.972370e-11
1.109730e-07
7.590400e-11
-5.421960e-11
-9.718200e-08
3.235340e-11
-1.105720e-07
-8.972370e-11
-9.736260e-08
7.590400e-11
-1.107800e-07
1.104580e-07
3.235340e-11
7.382330e-08
-1.047940e-10
1.109730e-07
7.590400e-11
7.401180e-08
3.840160e-12
3.235340e-11
-1.105720e-07
-1.047940e-10
-7.405500e-08
7.590400e-11
-1.107800e-07
3.840160e-12
-7.412960e-08
7.382330e-08
-1.047940e-10
2.721970e-08
-2.604040e-11
7.401180e-08
3.840160e-12
2.725900e-08
3.652330e-11
-1.047940e-10
-7.405500e-08
-2.604040e-11
-2.725510e-08
3.840160e-12
-7.412960e-08
3.652330e-11
-2.719230e-08
2.721970e-08
-2.604040e-11
6.901170e-09
1.405700e-11
2.725900e-08
3.652330e-11
6.960090e-09
2.862010e-11
-2.604040e-11
-2.725510e-08
1.405700e-11
-6.865820e-09
3.652330e-11
-2.719230e-08
2.862010e-11
-6.912950e-09
6.901170e-09
1.405700e-11
-4.242040e-10
3.233190e-11
6.960090e-09
2.862010e-11
-5.577500e-10
2.038670e-11
1.405700e-11
-6.865820e-09
3.233190e-11
4.831210e-10
2.862010e-11
-6.912950e-09
2.038670e-11
5.970280e-10
-4.242040e-10
3.233190e-11
1.386520e-09
2.787490e-11
-5.577500e-10
2.038670e-11
1.296180e-09
1.147600e-11
3.233190e-11
4.831210e-10
2.787490e-11
-1.331530e-09
2.038670e-11
5.970280e-10
1.147600e-11
-1.268680e-09
1.386520e-09
2.787490e-11
1.983550e-09
-2.715210e-11
1.296180e-09
1.147600e-11
1.924630e-09
-3.269460e-11
2.787490e-11
-1.331530e-09
-2.715210e-11
-2.038540e-09
1.147600e-11
-1.268680e-09
-3.269460e-11
-1.987470e-09
1.983550e-09
-2.715210e-11
-3.024420e-10
-1.462340e-11
1.924630e-09
-3.269460e-11
-2.081740e-10
-1.002820e-11
-2.715210e-11
-2.038540e-09
-1.462340e-11
2.788750e-10
-3.269460e-11
-1.987470e-09
-1.002820e-11
1.885350e-10
-3.024420e-10
-1.462340e-11
1.727450e-08
1.093270e-11
-2.081740e-10
-1.002820e-11
1.790300e-08
1.432050e-11
-1.462340e-11
2.788750e-10
1.093270e-11
-1.726670e-08
-1.002820e-11
1.885350e-10
1.432050e-11
-1.787940e-08
1.727450e-08
1.093270e-11
6.084580e-08
1.724950e-11
1.790300e-08
1.432050e-11
5.727540e-08
1.526600e-11
1.093270e-11
-1.726670e-08
1.724950e-11
-6.081830e-08
1.432050e-11
-1.787940e-08
1.526600e-11
-5.724790e-08
6.084580e-08
1.724950e-11
-3.179640e-07
1.398780e-11
5.727540e-08
1.526600e-11
-3.032230e-07
1.032990e-11
1.724950e-11
-6.081830e-08
1.398780e-11
3.179960e-07
1.526600e-11
-5.724790e-08
1.032990e-11
3.032510e-07
-3.179640e-07
1.398780e-11
-1.517580e-06
2.864110e-12
-3.032230e-07
1.032990e-11
-1.560980e-06
1.024410e-12
1.398780e-11
3.179960e-07
2.864110e-12
1.517590e-06
1.032990e-11
3.032510e-07
1.024410e-12
1.561000e-06
-1.517580e-06
2.864110e-12
4.932640e-06
-8.959520e-12
-1.560980e-06
1.024410e-12
4.989510e-06
-6.152590e-12
2.864110e-12
1.517590e-06
-8.959520e-12
-4.932660e-06
1.024410e-12
1.561000e-06
-6.152590e-12
-4.989530e-06
0.000000e+00
0.000000e+00
-9.015900e-08
1.308710e-10
0.000000e+00
0.000000e+00
-9.047330e-08
-4.755440e-11
0.000000e+00
0.000000e+00
1.308710e-10
9.036720e-08
0.000000e+00
0.000000e+00
-4.755440e-11
9.056750e-08
-9.015900e-08
1.308710e-10
-3.436840e-09
5.113200e-11
-9.047330e-08
-4.755440e-11
-2.863380e-09
6.760600e-11
1.308710e-10
9.036720e-08
5.113200e-11
3.578240e-09
-4.755440e-11
9.056750e-08
6.760600e-11
2.902650e-09
-3.436840e-09
5.113200e-11
9.854490e-08
1.347730e-10
-2.863380e-09
6.760600e-11
9.735090e-08
-3.263400e-10
5.113200e-11
3.578240e-09
1.347730e-10
-9.821500e-08
6.760600e-11
2.902650e-09
-3.263400e-10
-9.788900e-08
9.854490e-08
1.347730e-10
-6.954190e-08
4.318580e-11
9.735090e-08
-3.263400e-10
-7.138800e-08
-2.240870e-10
1.347730e-10
-9.821500e-08
4.318580e-11
6.951440e-08
-3.263400e-10
-9.788900e-08
-2.240870e-10
7.103840e-08
-6.954190e-08
4.318580e-11
4.744800e-09
6.030260e-11
-7.138800e-08
-2.240870e-10
5.129720e-09
9.873470e-11
4.318580e-11
6.951440e-08
6.030260e-11
-4.897980e-09
-2.240870e-10
7.103840e-08
9.873470e-11
-4.839070e-09
4.744800e-09
6.030260e-11
-7.991920e-08
-6.268360e-11
5.129720e-09
9.873470e-11
-7.989570e-08
-7.639970e-11
6.030260e-11
-4.897980e-09
-6.268360e-11
7.967960e-08
9.873470e-11
-4.839070e-09
-7.639970e-11
7.970320e-08
-7.991920e-08
-6.268360e-11
2.060140e-08
-1.301630e-10
-7.989570e-08
-7.639970e-11
2.099020e-08
5.984200e-12
-6.268360e-11
7.967960e-08
-1.301630e-10
-2.077420e-08
-7.639970e-11
7.970320e-08
5.984200e-12
-2.091950e-08
2.060140e-08
-1.301630e-10
1.283410e-07
1.226170e-10
2.099020e-08
5.984200e-12
1.295310e-07
2.078820e-10
-1.301630e-10
-2.077420e-08
1.226170e-10
-1.281330e-07
5.984200e-12
-2.091950e-08
2.078820e-10
-1.290680e-07
1.283410e-07
1.226170e-10
-7.006830e-08
-6.244470e-11
1.295310e-07
2.078820e-10
-6.910600e-08
1.528200e-10
1.226170e-10
-1.281330e-07
-6.244470e-11
6.981300e-08
2.078820e-10
-1.290680e-07
1.528200e-10
6.965580e-08
-7.006830e-08
-6.244470e-11
-7.478950e-08
-1.691510e-10
-6.910600e-08
1.528200e-10
-7.513510e-08
-7.868990e-11
-6.244470e-11
6.981300e-08
-1.691510e-10
7.456950e-08
1.528200e-10
6.965580e-08
-7.868990e-11
7.496230e-08
-7.478950e-08
-1.691510e-10
6.304530e-08
4.127500e-11
-7.513510e-08
-7.868990e-11
6.301000e-08
5.426980e-11
-1.691510e-10
7.456950e-08
4.127500e-11
-6.297860e-08
-7.868990e-11
7.496230e-08
5.426980e-11
-6.288820e-08
6.304530e-08
4.127500e-11
4.016190e-08
-1.161300e-10
6.301000e-08
5.426980e-11
4.011080e-08
4.346080e-11
4.127500e-11
-6.297860e-08
-1.161300e-10
-4.024050e-08
5.426980e-11
-6.288820e-08
4.346080e-11
-3.988300e-08
4.016190e-08
-1.161300e-10
3.422700e-08
6.702320e-11
4.011080e-08
4.346080e-11
3.373210e-08
-6.020340e-11
-1.161300e-10
-4.024050e-08
6.702320e-11
-3.413270e-08
4.346080e-11
-3.988300e-08
-6.020340e-11
-3.374380e-08
3.422700e-08
6.702320e-11
-6.296290e-08
-3.826350e-11
3.373210e-08
-6.020340e-11
-6.317500e-08
3.171320e-11
6.702320e-11
-3.413270e-08
-3.826350e-11
6.290390e-08
-6.020340e-11
-3.374380e-08
3.171320e-11
6.327320e-08
-6.296290e-08
-3.826350e-11
-6.561410e-08
-1.062980e-11
-6.317500e-08
3.171320e-11
-6.569270e-08
-5.037330e-11
-3.826350e-11
6.290390e-08
-1.062980e-11
6.550410e-08
3.171320e-11
6.327320e-08
-5.037330e-11
6.575160e-08
-6.561410e-08
-1.062980e-11
2.167370e-08
1.002130e-10
-6.569270e-08
-5.037330e-11
2.115520e-08
1.486000e-10
-1.062980e-11
6.550410e-08
1.002130e-10
-2.148120e-08
-5.037330e-11
6.575160e-08
1.486000e-10
-2.084100e-08
2.167370e-08
1.002130e-10
9.722520e-08
-8.972370e-11
2.115520e-08
1.486000e-10
9.717020e-08
1.082940e-10
1.002130e-10
-2.148120e-08
-8.972370e-11
-9.736260e-08
1.486000e-10
-2.084100e-08
1.082940e-10
-9.707200e-08
9.722520e-08
-8.972370e-11
1.109730e-07
7.590400e-11
9.717020e-08
1.082940e-10
1.107450e-07
-1.093980e-11
-8.972370e-11
-9.736260e-08
7.590400e-11
-1.107800e-07
1.082940e-10
-9.707200e-08
-1.093980e-11
-1.107920e-07
1.109730e-07
7.590400e-11
7.401180e-08
3.840160e-12
1.107450e-07
-1.093980e-11
7.397640e-08
1.975230e-11
7.590400e-11
-1.107800e-07
3.840160e-12
-7.412960e-08
-1.093980e-11
-1.107920e-07
1.975230e-11
-7.390180e-08
7.401180e-08
3.840160e-12
2.725900e-08
3.652330e-11
7.397640e-08
1.975230e-11
2.708230e-08
-2.909610e-11
3.840160e-12
-7.412960e-08
3.652330e-11
-2.719230e-08
1.975230e-11
-7.390180e-08
-2.909610e-11
-2.715690e-08
2.725900e-08
3.652330e-11
6.960090e-09
2.862010e-11
2.708230e-08
-2.909610e-11
6.901170e-09
3.809180e-11
3.652330e-11
-2.719230e-08
2.862010e-11
-6.912950e-09
-2.909610e-11
-2.715690e-08
3.809180e-11
-6.838320e-09
6.960090e-09
2.862010e-11
-5.577500e-10
2.038670e-11
6.901170e-09
3.809180e-11
-4.556260e-10
4.175070e-11
2.862010e-11
-6.912950e-09
2.038670e-11
5.970280e-10
3.809180e-11
-6.838320e-09
4.175070e-11
5.381100e-10
-5.577500e-10
2.038670e-11
1.296180e-09
1.147600e-11
-4.556260e-10
4.175070e-11
1.315820e-09
8.109180e-12
2.038670e-11
5.970280e-10
1.147600e-11
-1.268680e-09
4.175070e-11
5.381100e-10
8.109180e-12
-1.300110e-09
1.296180e-09
1.147600e-11
1.924630e-09
-3.269460e-11
1.315820e-09
8.109180e-12
1.963910e-09
-3.458230e-11
1.147600e-11
-1.268680e-09
-3.269460e-11
-1.987470e-09
8.109180e-12
-1.300110e-09
-3.458230e-11
-2.042460e-09
1.924630e-09
-3.269460e-11
-2.081740e-10
-1.002820e-11
1.963910e-09
-3.458230e-11
-2.945860e-10
-1.281140e-11
-3.269460e-11
-1.987470e-09
-1.002820e-11
1.885350e-10
-3.458230e-11
-2.042460e-09
-1.281140e-11
2.788750e-10
-2.081740e-10
-1.002820e-11
1.790300e-08
1.432050e-11
-2.945860e-10
-1.281140e-11
1.729420e-08
1.326980e-11
-1.002820e-11
1.885350e-10
1.432050e-11
-1.787940e-08
-1.281140e-11
2.788750e-10
1.326980e-11
-1.725880e-08
1.790300e-08
1.432050e-11
5.727540e-08
1.526600e-11
1.729420e-08
1.326980e-11
6.084580e-08
1.843160e-11
1.432050e-11
-1.787940e-08
1.526600e-11
-5.724790e-08
1.326980e-11
-1.725880e-08
1.843160e-11
-6.081430e-08
5.727540e-08
1.526600e-11
-3.032230e-07
1.032990e-11
6.084580e-08
1.843160e-11
-3.179720e-07
1.174270e-11
1.526600e-11
-5.724790e-08
1.032990e-11
3.032510e-07
1.843160e-11
-6.081430e-08
1.174270e-11
3.180040e-07
-3.032230e-07
1.032990e-11
-1.560980e-06
1.024410e-12
-3.179720e-07
1.174270e-11
-1.517590e-06
2.760400e-12
1.032990e-11
3.032510e-07
1.024410e-12
1.561000e-06
1.174270e-11
3.180040e-07
2.760400e-12
1.517600e-06
-1.560980e-06
1.024410e-12
4.989510e-06
-6.152590e-12
-1.517590e-06
2.760400e-12
4.932650e-06
-5.629470e-12
1.024410e-12
1.561000e-06
-6.152590e-12
-4.989530e-06
2.760400e-12
1.517600e-06
-5.629470e-12
-4.932650e-06
</DataArray>
<DataArray type="Float32" Name="V2" format="ascii">
0.000000e+00
0.000000e+00
1.103120e-04
1.103540e-04
0.000000e+00
0.000000e+00
1.103540e-04
1.103970e-04
0.000000e+00
0.000000e+00
1.103540e-04
1.103120e-04
0.000000e+00
0.000000e+00
1.103970e-04
1.103530e-04
1.103120e-04
1.103540e-04
1.194910e-04
1.193500e-04
1.103540e-04
1.103970e-04
1.193510e-04
1.192090e-04
1.103540e-04
1.103120e-04
1.193500e-04
1.194910e-04
1.103970e-04
1.103530e-04
1.192090e-04
1.193500e-04
1.194910e-04
1.193500e-04
3.870120e-06
3.794460e-06
1.193510e-04
1.192090e-04
3.794390e-06
3.719920e-06
1.193500e-04
1.194910e-04
3.794460e-06
3.869930e-06
1.192090e-04
1.193500e-04
3.719920e-06
3.794210e-06
3.870120e-06
3.794460e-06
-7.497340e-05
-7.507890e-05
3.794390e-06
3.719920e-06
-7.507810e-05
-7.518160e-05
3.794460e-06
3.869930e-06
-7.507890e-05
-7.497400e-05
3.719920e-06
3.794210e-06
-7.518160e-05
-7.507880e-05
-7.497340e-05
-7.507890e-05
4.855870e-05
4.852110e-05
-7.507810e-05
-7.518160e-05
4.852080e-05
4.848030e-05
-7.507890e-05
-7.497400e-05
4.852110e-05
4.855840e-05
-7.518160e-05
-7.507880e-05
4.848030e-05
4.852080e-05
4.855870e-05
4.852110e-05
3.599490e-04
3.601220e-04
4.852080e-05
4.848030e-05
3.601230e-04
3.602940e-04
4.852110e-05
4.855840e-05
3.601220e-04
3.599490e-04
4.848030e-05
4.852080e-05
3.602940e-04
3.601230e-04
3.599490e-04
3.601220e-04
7.972080e-04
7.972240e-04
3.601230e-04
3.602940e-04
7.972250e-04
7.972420e-04
3.601220e-04
3.599490e-04
7.972240e-04
7.972090e-04
3.602940e-04
3.601230e-04
7.972420e-04
7.972250e-04
7.972080e-04
7.972240e-04
1.587660e-03
1.587700e-03
7.972250e-04
7.972420e-04
1.587700e-03
1.587730e-03
7.972240e-04
7.972090e-04
1.587700e-03
1.587660e-03
7.972420e-04
7.972250e-04
1.587730e-03
1.587700e-03
1.587660e-03
1.587700e-03
3.116500e-03
3.116650e-03
1.587700e-03
1.587730e-03
3.116640e-03
3.116790e-03
1.587700e-03
1.587660e-03
3.116650e-03
3.116500e-03
1.587730e-03
1.587700e-03
3.116790e-03
3.116640e-03
3.116500e-03
3.116650e-03
6.147510e-03
6.147390e-03
3.116640e-03
3.116790e-03
6.147390e-03
6.147270e-03
3.116650e-03
3.116500e-03
6.147390e-03
6.147510e-03
3.116790e-03
3.116640e-03
6.147270e-03
6.147390e-03
6.147510e-03
6.147390e-03
1.124040e-02
1.124020e-02
6.147390e-03
6.147270e-03
1.124020e-02
1.124010e-02
6.147390e-03
6.147510e-03
1.124020e-02
1.124040e-02
6.147270e-03
6.147390e-03
1.124010e-02
1.124020e-02
1.124040e-02
1.124020e-02
1.822960e-02
1.822950e-02
1.124020e-02
1.124010e-02
1.822950e-02
1.822950e-02
1.124020e-02
1.124040e-02
1.822950e-02
1.822960e-02
1.124010e-02
1.124020e-02
1.822950e-02
1.822950e-02
1.822960e-02
1.822950e-02
2.555390e-02
2.555390e-02
1.822950e-02
1.822950e-02
2.555390e-02
2.555390e-02
1.822950e-02
1.822960e-02
2.555390e-02
2.555390e-02
1.822950e-02
1.822950e-02
2.555390e-02
2.555390e-02
2.555390e-02
2.555390e-02
2.997210e-02
2.997210e-02
2.555390e-02
2.555390e-02
2.997210e-02
2.997210e-02
2.555390e-02
2.555390e-02
2.997210e-02
2.997210e-02
2.555390e-02
2.555390e-02
2.997210e-02
2.997210e-02
2.997210e-02
2.997210e-02
2.803960e-02
2.803960e-02
2.997210e-02
2.997210e-02
2.803960e-02
2.803950e-02
2.997210e-02
2.997210e-02
2.803960e-02
2.803960e-02
2.997210e-02
2.997210e-02
2.803950e-02
2.803960e-02
2.803960e-02
2.803960e-02
1.891570e-02
1.891560e-02
2.803960e-02
2.803950e-02
1.891560e-02
1.891550e-02
2.803960e-02
2.803960e-02
1.891560e-02
1.891570e-02
2.803950e-02
2.803960e-02
1.891550e-02
1.891560e-02
1.891570e-02
1.891560e-02
6.760020e-03
6.759960e-03
1.891560e-02
1.891550e-02
6.759960e-03
6.759890e-03
1.891560e-02
1.891570e-02
6.759960e-03
6.760020e-03
1.891550e-02
1.891560e-02
6.759890e-03
6.759960e-03
6.760020e-03
6.759960e-03
-1.881770e-03
-1.881780e-03
6.759960e-03
6.759890e-03
-1.881780e-03
-1.881790e-03
6.759960e-03
6.760020e-03
-1.881780e-03
-1.881770e-03
6.759890e-03
6.759960e-03
-1.881790e-03
-1.881780e-03
-1.881770e-03
-1.881780e-03
-3.752130e-03
-3.752120e-03
-1.881780e-03
-1.881790e-03
-3.752120e-03
-3.752110e-03
-1.881780e-03
-1.881770e-03
-3.752120e-03
-3.752130e-03
-1.881790e-03
-1.881780e-03
-3.752110e-03
-3.752120e-03
-3.752130e-03
-3.752120e-03
-1.214560e-03
-1.214480e-03
-3.752120e-03
-3.752110e-03
-1.214480e-03
-1.214400e-03
-3.752120e-03
-3.752130e-03
-1.214480e-03
-1.214560e-03
-3.752110e-03
-3.752120e-03
-1.214400e-03
-1.214480e-03
-1.214560e-03
-1.214480e-03
3.678590e-04
3.678540e-04
-1.214480e-03
-1.214400e-03
3.678540e-04
3.678490e-04
-1.214480e-03
-1.214560e-03
3.678540e-04
3.678600e-04
-1.214400e-03
-1.214480e-03
3.678490e-04
3.678540e-04
3.678590e-04
3.678540e-04
1.329170e-04
1.328910e-04
3.678540e-04
3.678490e-04
1.328910e-04
1.328750e-04
3.678540e-04
3.678600e-04
1.328910e-04
1.329170e-04
3.678490e-04
3.678540e-04
1.328750e-04
1.328910e-04
1.329170e-04
1.328910e-04
-1.385260e-04
-1.385100e-04
1.328910e-04
1.328750e-04
-1.385100e-04
-1.384970e-04
1.328910e-04
1.329170e-04
-1.385100e-04
-1.385260e-04
1.328750e-04
1.328910e-04
-1.384970e-04
-1.385100e-04
-1.385260e-04
-1.385100e-04
-1.388520e-04
-1.388480e-04
-1.385100e-04
-1.384970e-04
-1.388480e-04
-1.388470e-04
-1.385100e-04
-1.385260e-04
-1.388480e-04
-1.388520e-04
-1.384970e-04
-1.385100e-04
-1.388470e-04
-1.388480e-04
-1.388520e-04
-1.388480e-04
-1.665810e-04
-1.665830e-04
-1.388480e-04
-1.388470e-04
-1.665830e-04
-1.665860e-04
-1.388480e-04
-1.388520e-04
-1.665830e-04
-1.665810e-04
-1.388470e-04
-1.388480e-04
-1.665860e-04
-1.665830e-04
-1.665810e-04
-1.665830e-04
-1.553660e-04
-1.553800e-04
-1.665830e-04
-1.665860e-04
-1.553810e-04
-1.553920e-04
-1.665830e-04
-1.665810e-04
-1.553800e-04
-1.553670e-04
-1.665860e-04
-1.665830e-04
-1.553920e-04
-1.553810e-04
-1.553660e-04
-1.553800e-04
-8.765850e-05
-8.756520e-05
-1.553810e-04
-1.553920e-04
-8.756520e-05
-8.747230e-05
-1.553800e-04
-1.553670e-04
-8.756520e-05
-8.765840e-05
-1.553920e-04
-1.553810e-04
-8.747230e-05
-8.756520e-05
-8.765850e-05
-8.756520e-05
-1.206240e-05
-1.153550e-05
-8.756520e-05
-8.747230e-05
-1.153550e-05
-1.103230e-05
-8.756520e-05
-8.765840e-05
-1.153550e-05
-1.206230e-05
-8.747230e-05
-8.756520e-05
-1.103230e-05
-1.153540e-05
-1.206240e-05
-1.153550e-05
8.812200e-05
8.647910e-05
-1.153550e-05
-1.103230e-05
8.647910e-05
8.500540e-05
-1.153550e-05
-1.206230e-05
8.647910e-05
8.812190e-05
-1.103230e-05
-1.153540e-05
8.500540e-05
8.647910e-05
8.812200e-05
8.647910e-05
1.467900e-04
1.394180e-04
8.647910e-05
8.500540e-05
1.394180e-04
1.314100e-04
8.647910e-05
8.812190e-05
1.394180e-04
1.467900e-04
8.500540e-05
8.647910e-05
1.314100e-04
1.394180e-04
0.000000e+00
0.000000e+00
1.103540e-04
1.103970e-04
0.000000e+00
0.000000e+00
1.103120e-04
1.103540e-04
0.000000e+00
0.000000e+00
1.103970e-04
1.103530e-04
0.000000e+00
0.000000e+00
1.103540e-04
1.103120e-04
1.103540e-04
1.103970e-04
1.193510e-04
1.192090e-04
1.103120e-04
1.103540e-04
1.194920e-04
1.193500e-04
1.103970e-04
1.103530e-04
1.192090e-04
1.193500e-04
1.103540e-04
1.103120e-04
1.193500e-04
1.194920e-04
1.193510e-04
1.192090e-04
3.794390e-06
3.719920e-06
1.194920e-04
1.193500e-04
3.870310e-06
3.794210e-06
1.192090e-04
1.193500e-04
3.719920e-06