<?xml version="1.0"?>
<!-- time 95.4818-->
<VTKFile type="UnstructuredGrid" version="0.1" byte_order="LittleEndian">
<UnstructuredGrid>
<Piece NumberOfPoints="120" NumberOfCells="0">
<Points>
  <DataArray type="Float32" Name="Position" NumberOfComponents="3" format="ascii">
	-200 2199.59 -200
	-200 2199.59 200
	200 2199.59 -200
	200 2199.59 200
	-200 2599.63 -200
	-200 2599.63 200
	200 2599.63 -200
	200 2599.63 200
	-200 2999.64 -200
	-200 2999.64 200
	200 2999.64 -200
	200 2999.64 200
	-200 3399.64 -200
	-200 3399.64 200
	200 3399.64 -200
	200 3399.64 200
	-200 3799.64 -200
	-200 3799.64 200
	200 3799.64 -200
	200 3799.64 200
	-200 4199.64 -200
	-200 4199.64 200
	200 4199.64 -200
	200 4199.64 200
	-200 4599.64 -200
	-200 4599.64 200
	200 4599.64 -200
	200 4599.64 200
	-200 4999.65 -200
	-200 4999.65 200
	200 4999.65 -200
	200 4999.65 200
	-200 5399.66 -200
	-200 5399.66 200
	200 5399.66 -200
	200 5399.66 200
	-200 5799.66 -200
	-200 5799.66 200
	200 5799.66 -200
	200 5799.66 200
	-200 6199.68 -200
	-200 6199.68 200
	200 6199.68 -200
	200 6199.68 200
	-200 6599.69 -200
	-200 6599.69 200
	200 6599.69 -200
	200 6599.69 200
	-200 6999.83 -200
	-200 6999.83 200
	200 6999.83 -200
	200 6999.83 200
	-200 7399.88 -200
	-200 7399.88 200
	200 7399.88 -200
	200 7399.88 200
	-200 7799.88 -200
	-200 7799.88 200
	200 7799.88 -200
	200 7799.88 200
	-200 8199.89 -200
	-200 8199.89 200
	200 8199.89 -200
	200 8199.89 200
	-200 8599.89 -200
	-200 8599.89 200
	200 8599.89 -200
	200 8599.89 200
	-200 8999.9 -200
	-200 8999.9 200
	200 8999.9 -200
	200 8999.9 200
	-200 9399.92 -200
	-200 9399.92 200
	200 9399.92 -200
	200 9399.92 200
	-200 9799.93 -200
	-200 9799.93 200
	200 9799.93 -200
	200 9799.93 200
	-200 10200 -200
	-200 10200 200
	200 10200 -200
	200 10200 200
	-200 10600 -200
	-200 10600 200
	200 10600 -200
	200 10600 200
	-200 11000 -200
	-200 11000 200
	200 11000 -200
	200 11000 200
	-200 11400 -200
	-200 11400 200
	200 11400 -200
	200 11400 200
	-200 11800.1 -200
	-200 11800.1 200
	200 11800.1 -200
	200 11800.1 200
	-200 12200.1 -200
	-200 12200.1 200
	200 12200.1 -200
	200 12200.1 200
	-200 12600.2 -200
	-200 12600.2 200
	200 12600.2 -200
	200 12600.2 200
	-200 13000.3 -200
	-200 13000.3 200
	200 13000.3 -200
	200 13000.3 200
	-200 13400.5 -200
	-200 13400.5 200
	200 13400.5 -200
	200 13400.5 200
	-200 13801.1 -200
	-200 13801.1 200
	200 13801.1 -200
	200 13801.1 200
  </DataArray>
</Points>
<PointData  Vectors="vector">
  <DataArray type="Float32" Name="Velocity" NumberOfComponents="3" format="ascii">
 2.43747e-09 -0.00216117 2.39516e-09
 2.41821e-09 -0.00216117 -2.40655e-09
 -2.40323e-09 -0.00216117 2.42919e-09
 -2.41766e-09 -0.00216117 -2.37908e-09
 -3.13484e-09 -6.89408e-05 -3.07756e-09
 -3.14948e-09 -6.89408e-05 3.14939e-09
 3.18479e-09 -6.89408e-05 -3.06331e-09
 3.16428e-09 -6.89408e-05 3.16952e-09
 2.56303e-09 -0.000117732 3.69222e-09
 2.43973e-09 -0.000117732 -3.65346e-09
 -2.48901e-09 -0.000117732 3.66842e-09
 -2.38934e-09 -0.000117732 -3.60952e-09
 -1.15818e-09 -0.000242008 -1.16153e-09
 -1.26493e-09 -0.000242008 1.1341e-09
 1.20329e-09 -0.000242008 -1.01301e-09
 1.29777e-09 -0.000242008 9.95218e-10
 -4.75339e-09 -0.00013794 -4.92135e-09
 -4.74827e-09 -0.00013794 4.89027e-09
 4.7638e-09 -0.00013794 -4.93736e-09
 4.75324e-09 -0.00013794 4.90662e-09
 -1.62696e-08 -7.20192e-05 -1.62973e-08
 -1.62667e-08 -7.20193e-05 1.62889e-08
 1.62517e-08 -7.20192e-05 -1.63039e-08
 1.62489e-08 -7.20193e-05 1.62906e-08
 -4.69223e-08 -0.000614244 -4.69088e-08
 -4.69187e-08 -0.000614244 4.69074e-08
 4.68962e-08 -0.000614244 -4.69131e-08
 4.68981e-08 -0.000614244 4.69058e-08
 9.75732e-08 0.000184379 9.75806e-08
 9.75769e-08 0.000184379 -9.75832e-08
 -9.75869e-08 0.000184379 9.75776e-08
 -9.75833e-08 0.000184379 -9.75862e-08
 -5.8681e-07 -0.000461869 -5.86813e-07
 -5.86808e-07 -0.000461869 5.86808e-07
 5.8681e-07 -0.000461869 -5.86815e-07
 5.86813e-07 -0.000461869 5.86806e-07
 -1.76437e-07 0.000766864 -1.76441e-07
 -1.76436e-07 0.000766864 1.76435e-07
 1.76439e-07 0.000766864 -1.76442e-07
 1.76441e-07 0.000766864 1.76434e-07
 -2.30972e-07 -0.000689249 -2.30975e-07
 -2.30971e-07 -0.000689249 2.3097e-07
 2.30974e-07 -0.000689249 -2.30976e-07
 2.30974e-07 -0.000689249 2.30969e-07
 -3.88763e-07 -0.000581795 -3.88765e-07
 -3.88762e-07 -0.000581795 3.8876e-07
 3.88764e-07 -0.000581795 -3.88767e-07
 3.88764e-07 -0.000581795 3.88759e-07
 -5.82215e-10 0.000932221 -5.82211e-10
 -5.82214e-10 0.000932221 5.82216e-10
 5.82213e-10 0.000932221 -5.82211e-10
 5.82213e-10 0.000932221 5.82216e-10
 -3.39957e-14 0.00156503 -3.39957e-14
 -3.39957e-14 0.00156503 3.39957e-14
 3.39957e-14 0.00156503 -3.39957e-14
 3.39957e-14 0.00156503 3.39957e-14
 0 0.00154545 0
 0 0.00154545 0
 0 0.00154545 0
 0 0.00154545 0
 0 0.00176385 0
 0 0.00176385 0
 0 0.00176385 0
 0 0.00176385 0
 0 0.00162314 0
 0 0.00162314 0
 0 0.00162314 0
 0 0.00162314 0
 0 0.00172061 0
 0 0.00172061 0
 0 0.00172061 0
 0 0.00172061 0
 0 0.00183296 0
 0 0.00183296 0
 0 0.00183296 0
 0 0.00183296 0
 0 0.00196363 0
 0 0.00196363 0
 0 0.00196363 0
 0 0.00196363 0
 0 0.00211781 0
 0 0.00211781 0
 0 0.00211781 0
 0 0.00211781 0
 0 0.00230146 0
 0 0.00230146 0
 0 0.00230146 0
 0 0.00230146 0
 0 0.00252559 0
 0 0.00252559 0
 0 0.00252559 0
 0 0.00252559 0
 0 0.00280567 0
 0 0.00280567 0
 0 0.00280567 0
 0 0.00280567 0
 0 0.00316767 0
 0 0.00316767 0
 0 0.00316767 0
 0 0.00316767 0
 0 0.00365528 0
 0 0.00365528 0
 0 0.00365528 0
 0 0.00365528 0
 0 0.00435702 0
 0 0.00435702 0
 0 0.00435702 0
 0 0.00435702 0
 0 0.00546489 0
 0 0.00546489 0
 0 0.00546489 0
 0 0.00546489 0
 0 0.00754097 0
 0 0.00754097 0
 0 0.00754097 0
 0 0.00754097 0
 0 0.0132279 0
 0 0.0132279 0
 0 0.0132279 0
 0 0.0132279 0
  </DataArray>
  <DataArray type="Float32" Name="Radius" format="ascii">
	200
	200
	200
	200
	200
	200
	200
	200
	200
	200
	200
	200
	200
	200
	200
	200
	200
	200
	200
	200
	200
	200
	200
	200
	200
	200
	200
	200
	200
	200
	200
	200
	200
	200
	200
	200
	200
	200
	200
	200
	200
	200
	200
	200
	200
	200
	200
	200
	200
	200
	200
	200
	200
	200
	200
	200
	200
	200
	200
	200
	200
	200
	200
	200
	200
	200
	200
	200
	200
	200
	200
	200
	200
	200
	200
	200
	200
	200
	200
	200
	200
	200
	200
	200
	200
	200
	200
	200
	200
	200
	200
	200
	200
	200
	200
	200
	200
	200
	200
	200
	200
	200
	200
	200
	200
	200
	200
	200
	200
	200
	200
	200
	200
	200
	200
	200
	200
	200
	200
	200
  </DataArray>
  <DataArray type="Float32" Name="speciesType" format="ascii">
	0
	0
	0
	0
	0
	0
	0
	0
	0
	0
	0
	0
	0
	0
	0
	0
	0
	0
	0
	0
	0
	0
	0
	0
	0
	0
	0
	0
	0
	0
	0
	0
	0
	0
	0
	0
	0
	0
	0
	0
	0
	0
	0
	0
	0
	0
	0
	0
	0
	0
	0
	0
	0
	0
	0
	0
	0
	0
	0
	0
	0
	0
	0
	0
	0
	0
	0
	0
	0
	0
	0
	0
	0
	0
	0
	0
	0
	0
	0
	0
	0
	0
	0
	0
	0
	0
	0
	0
	0
	0
	0
	0
	0
	0
	0
	0
	0
	0
	0
	0
	0
	0
	0
	0
	0
	0
	0
	0
	0
	0
	0
	0
	0
	0
	0
	0
	0
	0
	0
	0
  </DataArray>
</PointData>
<Cells>
  <DataArray type="Int32" Name="connectivity" format="ascii">
  </DataArray>
  <DataArray type="Int32" Name="offsets" format="ascii">
  </DataArray>
  <DataArray type="UInt8"  Name="types" format="ascii">
  </DataArray>
</Cells>
</Piece>
</UnstructuredGrid>
</VTKFile>
