<?xml version="1.0"?>
<VTKFile type="UnstructuredGrid" version="0.1" byte_order="LittleEndian" compressor="vtkZLibDataCompressor">
<UnstructuredGrid>
<Piece NumberOfPoints="960" NumberOfCells="120">
<Points>
<DataArray type="Float32" NumberOfComponents="3" format="ascii">
-4.000000e+02 -6.000000e+03 -4.000000e+02
0.000000e+00 -6.000000e+03 -4.000000e+02
-4.000000e+02 -5.600000e+03 -4.000000e+02
5.711700e-11 -5.600000e+03 -4.000000e+02
-4.000000e+02 -6.000000e+03 0.000000e+00
0.000000e+00 -6.000000e+03 0.000000e+00
-4.000000e+02 -5.600000e+03 -6.706600e-11
5.522040e-11 -5.600000e+03 -6.696630e-11
0.000000e+00 -6.000000e+03 -4.000000e+02
4.000000e+02 -6.000000e+03 -4.000000e+02
5.711700e-11 -5.600000e+03 -4.000000e+02
4.000000e+02 -5.600000e+03 -4.000000e+02
0.000000e+00 -6.000000e+03 0.000000e+00
4.000000e+02 -6.000000e+03 0.000000e+00
5.522040e-11 -5.600000e+03 -6.696630e-11
4.000000e+02 -5.600000e+03 -1.298870e-10
-4.000000e+02 -5.600000e+03 -4.000000e+02
5.711700e-11 -5.600000e+03 -4.000000e+02
-4.000000e+02 -5.200000e+03 -4.000000e+02
-3.720250e-11 -5.200000e+03 -4.000000e+02
-4.000000e+02 -5.600000e+03 -6.706600e-11
5.522040e-11 -5.600000e+03 -6.696630e-11
-4.000000e+02 -5.200000e+03 -1.703380e-11
8.946030e-12 -5.200000e+03 -4.025630e-11
5.711700e-11 -5.600000e+03 -4.000000e+02
4.000000e+02 -5.600000e+03 -4.000000e+02
-3.720250e-11 -5.200000e+03 -4.000000e+02
4.000000e+02 -5.200000e+03 -4.000000e+02
5.522040e-11 -5.600000e+03 -6.696630e-11
4.000000e+02 -5.600000e+03 -1.298870e-10
8.946030e-12 -5.200000e+03 -4.025630e-11
4.000000e+02 -5.200000e+03 5.582630e-11
-4.000000e+02 -5.200000e+03 -4.000000e+02
-3.720250e-11 -5.200000e+03 -4.000000e+02
-4.000000e+02 -4.800000e+03 -4.000000e+02
-1.063600e-10 -4.800000e+03 -4.000000e+02
-4.000000e+02 -5.200000e+03 -1.703380e-11
8.946030e-12 -5.200000e+03 -4.025630e-11
-4.000000e+02 -4.800000e+03 1.461650e-10
3.566090e-12 -4.800000e+03 1.324820e-10
-3.720250e-11 -5.200000e+03 -4.000000e+02
4.000000e+02 -5.200000e+03 -4.000000e+02
-1.063600e-10 -4.800000e+03 -4.000000e+02
4.000000e+02 -4.800000e+03 -4.000000e+02
8.946030e-12 -5.200000e+03 -4.025630e-11
4.000000e+02 -5.200000e+03 5.582630e-11
3.566090e-12 -4.800000e+03 1.324820e-10
4.000000e+02 -4.800000e+03 1.881310e-10
-4.000000e+02 -4.800000e+03 -4.000000e+02
-1.063600e-10 -4.800000e+03 -4.000000e+02
-4.000000e+02 -4.400000e+03 -4.000000e+02
-6.602550e-11 -4.400000e+03 -4.000000e+02
-4.000000e+02 -4.800000e+03 1.461650e-10
3.566090e-12 -4.800000e+03 1.324820e-10
-4.000000e+02 -4.400000e+03 1.552450e-10
-4.660930e-11 -4.400000e+03 1.508890e-10
-1.063600e-10 -4.800000e+03 -4.000000e+02
4.000000e+02 -4.800000e+03 -4.000000e+02
-6.602550e-11 -4.400000e+03 -4.000000e+02
4.000000e+02 -4.400000e+03 -4.000000e+02
3.566090e-12 -4.800000e+03 1.324820e-10
4.000000e+02 -4.800000e+03 1.881310e-10
-4.660930e-11 -4.400000e+03 1.508890e-10
4.000000e+02 -4.400000e+03 1.662050e-10
-4.000000e+02 -4.400000e+03 -4.000000e+02
-6.602550e-11 -4.400000e+03 -4.000000e+02
-4.000000e+02 -4.000000e+03 -4.000000e+02
-1.285480e-10 -4.000000e+03 -4.000000e+02
-4.000000e+02 -4.400000e+03 1.552450e-10
-4.660930e-11 -4.400000e+03 1.508890e-10
-4.000000e+02 -4.000000e+03 1.458920e-10
-6.968060e-11 -4.000000e+03 7.521780e-11
-6.602550e-11 -4.400000e+03 -4.000000e+02
4.000000e+02 -4.400000e+03 -4.000000e+02
-1.285480e-10 -4.000000e+03 -4.000000e+02
4.000000e+02 -4.000000e+03 -4.000000e+02
-4.660930e-11 -4.400000e+03 1.508890e-10
4.000000e+02 -4.400000e+03 1.662050e-10
-6.968060e-11 -4.000000e+03 7.521780e-11
4.000000e+02 -4.000000e+03 1.092350e-10
-4.000000e+02 -4.000000e+03 -4.000000e+02
-1.285480e-10 -4.000000e+03 -4.000000e+02
-4.000000e+02 -3.600000e+03 -4.000000e+02
-1.325940e-10 -3.600000e+03 -4.000000e+02
-4.000000e+02 -4.000000e+03 1.458920e-10
-6.968060e-11 -4.000000e+03 7.521780e-11
-4.000000e+02 -3.600000e+03 8.953530e-11
-4.513030e-11 -3.600000e+03 3.402510e-11
-1.285480e-10 -4.000000e+03 -4.000000e+02
4.000000e+02 -4.000000e+03 -4.000000e+02
-1.325940e-10 -3.600000e+03 -4.000000e+02
4.000000e+02 -3.600000e+03 -4.000000e+02
-6.968060e-11 -4.000000e+03 7.521780e-11
4.000000e+02 -4.000000e+03 1.092350e-10
-4.513030e-11 -3.600000e+03 3.402510e-11
4.000000e+02 -3.600000e+03 1.359000e-11
-4.000000e+02 -3.600000e+03 -4.000000e+02
-1.325940e-10 -3.600000e+03 -4.000000e+02
-4.000000e+02 -3.200000e+03 -4.000000e+02
-7.184920e-11 -3.200000e+03 -4.000000e+02
-4.000000e+02 -3.600000e+03 8.953530e-11
-4.513030e-11 -3.600000e+03 3.402510e-11
-4.000000e+02 -3.200000e+03 2.447690e-11
-4.229480e-11 -3.200000e+03 -6.362370e-12
-1.325940e-10 -3.600000e+03 -4.000000e+02
4.000000e+02 -3.600000e+03 -4.000000e+02
-7.184920e-11 -3.200000e+03 -4.000000e+02
4.000000e+02 -3.200000e+03 -4.000000e+02
-4.513030e-11 -3.600000e+03 3.402510e-11
4.000000e+02 -3.600000e+03 1.359000e-11
-4.229480e-11 -3.200000e+03 -6.362370e-12
4.000000e+02 -3.200000e+03 -7.624780e-11
-4.000000e+02 -3.200000e+03 -4.000000e+02
-7.184920e-11 -3.200000e+03 -4.000000e+02
-4.000000e+02 -2.800000e+03 -4.000000e+02
-9.151810e-11 -2.800000e+03 -4.000000e+02
-4.000000e+02 -3.200000e+03 2.447690e-11
-4.229480e-11 -3.200000e+03 -6.362370e-12
-4.000000e+02 -2.800000e+03 4.583050e-11
-7.121480e-11 -2.800000e+03 1.960670e-11
-7.184920e-11 -3.200000e+03 -4.000000e+02
4.000000e+02 -3.200000e+03 -4.000000e+02
-9.151810e-11 -2.800000e+03 -4.000000e+02
4.000000e+02 -2.800000e+03 -4.000000e+02
-4.229480e-11 -3.200000e+03 -6.362370e-12
4.000000e+02 -3.200000e+03 -7.624780e-11
-7.121480e-11 -2.800000e+03 1.960670e-11
4.000000e+02 -2.800000e+03 -8.082830e-11
-4.000000e+02 -2.800000e+03 -4.000000e+02
-9.151810e-11 -2.800000e+03 -4.000000e+02
-4.000000e+02 -2.400010e+03 -4.000000e+02
-5.404940e-11 -2.400010e+03 -4.000000e+02
-4.000000e+02 -2.800000e+03 4.583050e-11
-7.121480e-11 -2.800000e+03 1.960670e-11
-4.000000e+02 -2.400010e+03 6.550730e-11
-3.880040e-11 -2.400010e+03 -4.963350e-11
-9.151810e-11 -2.800000e+03 -4.000000e+02
4.000000e+02 -2.800000e+03 -4.000000e+02
-5.404940e-11 -2.400010e+03 -4.000000e+02
4.000000e+02 -2.400010e+03 -4.000000e+02
-7.121480e-11 -2.800000e+03 1.960670e-11
4.000000e+02 -2.800000e+03 -8.082830e-11
-3.880040e-11 -2.400010e+03 -4.963350e-11
4.000000e+02 -2.400010e+03 -1.126890e-10
-4.000000e+02 -2.400010e+03 -4.000000e+02
-5.404940e-11 -2.400010e+03 -4.000000e+02
-4.000000e+02 -2.000030e+03 -4.000000e+02
-7.022380e-11 -2.000030e+03 -4.000000e+02
-4.000000e+02 -2.400010e+03 6.550730e-11
-3.880040e-11 -2.400010e+03 -4.963350e-11
-4.000000e+02 -2.000030e+03 3.237920e-11
5.434540e-11 -2.000030e+03 -5.909080e-11
-5.404940e-11 -2.400010e+03 -4.000000e+02
4.000000e+02 -2.400010e+03 -4.000000e+02
-7.022380e-11 -2.000030e+03 -4.000000e+02
4.000000e+02 -2.000030e+03 -4.000000e+02
-3.880040e-11 -2.400010e+03 -4.963350e-11
4.000000e+02 -2.400010e+03 -1.126890e-10
5.434540e-11 -2.000030e+03 -5.909080e-11
4.000000e+02 -2.000030e+03 -5.478570e-11
-4.000000e+02 -2.000030e+03 -4.000000e+02
-7.022380e-11 -2.000030e+03 -4.000000e+02
-4.000000e+02 -1.600070e+03 -4.000000e+02
1.747180e-11 -1.600070e+03 -4.000000e+02
-4.000000e+02 -2.000030e+03 3.237920e-11
5.434540e-11 -2.000030e+03 -5.909080e-11
-4.000000e+02 -1.600070e+03 5.992800e-12
7.977180e-11 -1.600070e+03 -2.415120e-11
-7.022380e-11 -2.000030e+03 -4.000000e+02
4.000000e+02 -2.000030e+03 -4.000000e+02
1.747180e-11 -1.600070e+03 -4.000000e+02
4.000000e+02 -1.600070e+03 -4.000000e+02
5.434540e-11 -2.000030e+03 -5.909080e-11
4.000000e+02 -2.000030e+03 -5.478570e-11
7.977180e-11 -1.600070e+03 -2.415120e-11
4.000000e+02 -1.600070e+03 -6.119700e-11
-4.000000e+02 -1.600070e+03 -4.000000e+02
1.747180e-11 -1.600070e+03 -4.000000e+02
-4.000000e+02 -1.200110e+03 -4.000000e+02
1.707890e-11 -1.200110e+03 -4.000000e+02
-4.000000e+02 -1.600070e+03 5.992800e-12
7.977180e-11 -1.600070e+03 -2.415120e-11
-4.000000e+02 -1.200110e+03 2.895850e-11
4.685720e-11 -1.200110e+03 -3.948350e-11
1.747180e-11 -1.600070e+03 -4.000000e+02
4.000000e+02 -1.600070e+03 -4.000000e+02
1.707890e-11 -1.200110e+03 -4.000000e+02
4.000000e+02 -1.200110e+03 -4.000000e+02
7.977180e-11 -1.600070e+03 -2.415120e-11
4.000000e+02 -1.600070e+03 -6.119700e-11
4.685720e-11 -1.200110e+03 -3.948350e-11
4.000000e+02 -1.200110e+03 -8.323830e-11
-4.000000e+02 -1.200110e+03 -4.000000e+02
1.707890e-11 -1.200110e+03 -4.000000e+02
-4.000000e+02 -8.001550e+02 -4.000000e+02
2.782350e-11 -8.001550e+02 -4.000000e+02
-4.000000e+02 -1.200110e+03 2.895850e-11
4.685720e-11 -1.200110e+03 -3.948350e-11
-4.000000e+02 -8.001550e+02 4.625490e-11
4.176520e-11 -8.001550e+02 1.055140e-12
1.707890e-11 -1.200110e+03 -4.000000e+02
4.000000e+02 -1.200110e+03 -4.000000e+02
2.782350e-11 -8.001550e+02 -4.000000e+02
4.000000e+02 -8.001550e+02 -4.000000e+02
4.685720e-11 -1.200110e+03 -3.948350e-11
4.000000e+02 -1.200110e+03 -8.323830e-11
4.176520e-11 -8.001550e+02 1.055140e-12
4.000000e+02 -8.001550e+02 -2.342780e-11
-4.000000e+02 -8.001550e+02 -4.000000e+02
2.782350e-11 -8.001550e+02 -4.000000e+02
-4.000000e+02 -4.001860e+02 -4.000000e+02
-5.191560e-11 -4.001860e+02 -4.000000e+02
-4.000000e+02 -8.001550e+02 4.625490e-11
4.176520e-11 -8.001550e+02 1.055140e-12
-4.000000e+02 -4.001860e+02 8.062610e-11
-5.107920e-11 -4.001860e+02 6.734440e-11
2.782350e-11 -8.001550e+02 -4.000000e+02
4.000000e+02 -8.001550e+02 -4.000000e+02
-5.191560e-11 -4.001860e+02 -4.000000e+02
4.000000e+02 -4.001860e+02 -4.000000e+02
4.176520e-11 -8.001550e+02 1.055140e-12
4.000000e+02 -8.001550e+02 -2.342780e-11
-5.107920e-11 -4.001860e+02 6.734440e-11
4.000000e+02 -4.001860e+02 1.027860e-11
-4.000000e+02 -4.001860e+02 -4.000000e+02
-5.191560e-11 -4.001860e+02 -4.000000e+02
-4.000000e+02 -2.024990e-01 -4.000000e+02
-1.929600e-10 -2.024990e-01 -4.000000e+02
-4.000000e+02 -4.001860e+02 8.062610e-11
-5.107920e-11 -4.001860e+02 6.734440e-11
-4.000000e+02 -2.024990e-01 1.093470e-10
-1.377500e-10 -2.024990e-01 6.930640e-11
-5.191560e-11 -4.001860e+02 -4.000000e+02
4.000000e+02 -4.001860e+02 -4.000000e+02
-1.929600e-10 -2.024990e-01 -4.000000e+02
[...]
<PointData>
<DataArray type="Float32" Name="V1" format="ascii">
0.000000e+00
0.000000e+00
-5.891720e-11
-9.957600e-11
0.000000e+00
0.000000e+00
-7.462850e-11
-2.843280e-12
0.000000e+00
0.000000e+00
-9.957600e-11
0.000000e+00
0.000000e+00
0.000000e+00
-2.843280e-12
0.000000e+00
-5.891720e-11
-9.957600e-11
-7.855630e-12
8.908340e-11
-7.462850e-11
-2.843280e-12
1.571130e-11
3.030740e-11
-9.957600e-11
0.000000e+00
8.908340e-11
3.927810e-11
-2.843280e-12
0.000000e+00
3.030740e-11
6.677280e-11
-7.855630e-12
8.908340e-11
0.000000e+00
-1.787760e-11
1.571130e-11
3.030740e-11
1.021230e-10
4.997710e-11
8.908340e-11
3.927810e-11
-1.787760e-11
-1.963910e-11
3.030740e-11
6.677280e-11
4.997710e-11
-1.021230e-10
0.000000e+00
-1.787760e-11
2.356690e-11
6.435470e-11
1.021230e-10
4.997710e-11
2.356690e-11
1.748680e-11
-1.787760e-11
-1.963910e-11
6.435470e-11
4.320600e-11
4.997710e-11
-1.021230e-10
1.748680e-11
-8.641190e-11
2.356690e-11
6.435470e-11
-1.571130e-11
1.431090e-11
2.356690e-11
1.748680e-11
-1.806790e-10
-9.784560e-11
6.435470e-11
4.320600e-11
1.431090e-11
1.610400e-10
1.748680e-11
-8.641190e-11
-9.784560e-11
-5.106160e-11
-1.571130e-11
1.431090e-11
2.749470e-11
-8.461330e-11
-1.806790e-10
-9.784560e-11
-7.462850e-11
-3.166130e-11
1.431090e-11
1.610400e-10
-8.461330e-11
-5.891720e-11
-9.784560e-11
-5.106160e-11
-3.166130e-11
1.099790e-10
2.749470e-11
-8.461330e-11
7.541400e-10
-1.854620e-11
-7.462850e-11
-3.166130e-11
5.695330e-10
4.106950e-11
-8.461330e-11
-5.891720e-11
-1.854620e-11
-7.855630e-10
-3.166130e-11
1.099790e-10
4.106950e-11
-5.223990e-10
7.541400e-10
-1.854620e-11
-2.647350e-09
-1.147850e-10
5.695330e-10
4.106950e-11
-2.572720e-09
-3.800820e-11
-1.854620e-11
-7.855630e-10
-1.147850e-10
2.490230e-09
4.106950e-11
-5.223990e-10
-3.800820e-11
2.458810e-09
-2.647350e-09
-1.147850e-10
5.117940e-09
1.964040e-12
-2.572720e-09
-3.800820e-11
4.858710e-09
-8.679380e-11
-1.147850e-10
2.490230e-09
1.964040e-12
-4.984400e-09
-3.800820e-11
2.458810e-09
-8.679380e-11
-4.984400e-09
5.117940e-09
1.964040e-12
-4.167410e-09
2.066420e-11
4.858710e-09
-8.679380e-11
-4.057430e-09
-1.727340e-11
1.964040e-12
-4.984400e-09
2.066420e-11
4.238110e-09
-8.679380e-11
-4.984400e-09
-1.727340e-11
4.045650e-09
-4.167410e-09
2.066420e-11
-8.150210e-09
-5.605090e-11
-4.057430e-09
-1.727340e-11
-8.362320e-09
4.494610e-11
2.066420e-11
4.238110e-09
-5.605090e-11
8.134500e-09
-1.727340e-11
4.045650e-09
4.494610e-11
8.436940e-09
-8.150210e-09
-5.605090e-11
3.781700e-08
-1.386110e-10
-8.362320e-09
4.494610e-11
3.780130e-08
3.312730e-11
-5.605090e-11
8.134500e-09
-1.386110e-10
-3.791130e-08
4.494610e-11
8.436940e-09
3.312730e-11
-3.778560e-08
3.781700e-08
-1.386110e-10
-6.254260e-08
-1.827350e-11
3.780130e-08
3.312730e-11
-6.210270e-08
-1.859630e-11
-1.386110e-10
-3.791130e-08
-1.827350e-11
6.246010e-08
3.312730e-11
-3.778560e-08
-1.859630e-11
6.206730e-08
-6.254260e-08
-1.827350e-11
1.466650e-08
3.734520e-11
-6.210270e-08
-1.859630e-11
1.382200e-08
1.287170e-11
-1.827350e-11
6.246010e-08
3.734520e-11
-1.459580e-08
-1.859630e-11
6.206730e-08
1.287170e-11
-1.381020e-08
1.466650e-08
3.734520e-11
1.289540e-07
4.809020e-11
1.382200e-08
1.287170e-11
1.299360e-07
2.652870e-11
3.734520e-11
-1.459580e-08
4.809020e-11
-1.289150e-07
1.287170e-11
-1.381020e-08
2.652870e-11
-1.299400e-07
1.289540e-07
4.809020e-11
-1.565160e-07
-7.594480e-11
1.299360e-07
2.652870e-11
-1.572890e-07
-2.643680e-11
4.809020e-11
-1.289150e-07
-7.594480e-11
1.563820e-07
2.652870e-11
-1.299400e-07
-2.643680e-11
1.572620e-07
-1.565160e-07
-7.594480e-11
3.297790e-08
4.098120e-11
-1.572890e-07
-2.643680e-11
3.372030e-08
-2.984330e-12
-7.594480e-11
1.563820e-07
4.098120e-11
-3.298970e-08
-2.643680e-11
1.572620e-07
-2.984330e-12
-3.372810e-08
3.297790e-08
4.098120e-11
2.141170e-07
1.395050e-11
3.372030e-08
-2.984330e-12
2.166110e-07
-6.567320e-12
4.098120e-11
-3.298970e-08
1.395050e-11
-2.140300e-07
-2.984330e-12
-3.372810e-08
-6.567320e-12
-2.166270e-07
2.141170e-07
1.395050e-11
1.480160e-07
4.054170e-11
2.166110e-07
-6.567320e-12
1.479330e-07
2.065420e-11
1.395050e-11
-2.140300e-07
4.054170e-11
-1.481220e-07
-6.567320e-12
-2.166270e-07
2.065420e-11
-1.479210e-07
1.480160e-07
4.054170e-11
1.023080e-07
-9.952560e-12
1.479330e-07
2.065420e-11
1.003200e-07
-1.391220e-12
4.054170e-11
-1.481220e-07
-9.952560e-12
-1.023350e-07
2.065420e-11
-1.479210e-07
-1.391220e-12
-1.003360e-07
1.023080e-07
-9.952560e-12
-9.528480e-08
7.423820e-12
1.003200e-07
-1.391220e-12
-9.096820e-08
-2.587780e-12
-9.952560e-12
-1.023350e-07
7.423820e-12
9.530840e-08
-1.391220e-12
-1.003360e-07
-2.587780e-12
9.096030e-08
-9.528480e-08
7.423820e-12
-4.911730e-08
3.850000e-12
-9.096820e-08
-2.587780e-12
-4.990290e-08
2.741730e-12
7.423820e-12
9.530840e-08
3.850000e-12
4.912120e-08
-2.587780e-12
9.096030e-08
2.741730e-12
4.990680e-08
-4.911730e-08
3.850000e-12
9.640820e-08
-7.081660e-12
-4.990290e-08
2.741730e-12
8.990370e-08
1.524420e-12
3.850000e-12
4.912120e-08
-7.081660e-12
-9.640820e-08
2.741730e-12
4.990680e-08
1.524420e-12
-8.989190e-08
9.640820e-08
-7.081660e-12
-6.925130e-08
-9.869180e-12
8.990370e-08
1.524420e-12
-6.360700e-08
1.791430e-12
-7.081660e-12
-9.640820e-08
-9.869180e-12
6.924340e-08
1.524420e-12
-8.989190e-08
1.791430e-12
6.361090e-08
-6.925130e-08
-9.869180e-12
-2.868090e-08
7.498720e-12
-6.360700e-08
1.791430e-12
-2.695270e-08
4.404380e-12
-9.869180e-12
6.924340e-08
7.498720e-12
2.870050e-08
1.791430e-12
6.361090e-08
4.404380e-12
2.696440e-08
-2.868090e-08
7.498720e-12
5.257380e-08
1.359650e-11
-2.695270e-08
4.404380e-12
4.886590e-08
2.212950e-12
7.498720e-12
2.870050e-08
1.359650e-11
-5.255020e-08
4.404380e-12
2.696440e-08
2.212950e-12
-4.886590e-08
5.257380e-08
1.359650e-11
-4.092780e-09
3.834960e-12
4.886590e-08
2.212950e-12
-2.820170e-09
1.373370e-12
1.359650e-11
-5.255020e-08
3.834960e-12
4.100640e-09
2.212950e-12
-4.886590e-08
1.373370e-12
2.816240e-09
-4.092780e-09
3.834960e-12
1.434520e-07
-2.438320e-13
-2.820170e-09
1.373370e-12
1.408870e-07
2.186430e-13
3.834960e-12
4.100640e-09
-2.438320e-13
-1.434520e-07
1.373370e-12
2.816240e-09
2.186430e-13
-1.408950e-07
1.434520e-07
-2.438320e-13
3.628710e-07
4.925050e-12
1.408870e-07
2.186430e-13
3.664100e-07
3.574760e-12
-2.438320e-13
-1.434520e-07
4.925050e-12
-3.628670e-07
2.186430e-13
-1.408950e-07
3.574760e-12
-3.664100e-07
3.628710e-07
4.925050e-12
-1.072620e-06
5.374560e-12
3.664100e-07
3.574760e-12
-1.073640e-06
4.497900e-12
4.925050e-12
-3.628670e-07
5.374560e-12
1.072630e-06
3.574760e-12
-3.664100e-07
4.497900e-12
1.073650e-06
0.000000e+00
0.000000e+00
-7.462850e-11
-2.843280e-12
0.000000e+00
0.000000e+00
4.320600e-11
1.139980e-12
0.000000e+00
0.000000e+00
-2.843280e-12
0.000000e+00
0.000000e+00
0.000000e+00
1.139980e-12
0.000000e+00
-7.462850e-11
-2.843280e-12
1.571130e-11
3.030740e-11
4.320600e-11
1.139980e-12
3.927810e-12
-7.712350e-12
-2.843280e-12
0.000000e+00
3.030740e-11
6.677280e-11
1.139980e-12
0.000000e+00
-7.712350e-12
-6.284500e-11
1.571130e-11
3.030740e-11
1.021230e-10
4.997710e-11
3.927810e-12
-7.712350e-12
-7.855630e-11
-4.911870e-12
3.030740e-11
6.677280e-11
4.997710e-11
-1.021230e-10
-7.712350e-12
-6.284500e-11
-4.911870e-12
5.106160e-11
1.021230e-10
4.997710e-11
2.356690e-11
1.748680e-11
-7.855630e-11
-4.911870e-12
8.248410e-11
-3.851420e-11
4.997710e-11
-1.021230e-10
1.748680e-11
-8.641190e-11
-4.911870e-12
5.106160e-11
-3.851420e-11
-2.003190e-10
2.356690e-11
1.748680e-11
-1.806790e-10
-9.784560e-11
8.248410e-11
-3.851420e-11
-1.649680e-10
3.770430e-11
1.748680e-11
-8.641190e-11
-9.784560e-11
-5.106160e-11
-3.851420e-11
-2.003190e-10
3.770430e-11
1.571130e-10
-1.806790e-10
-9.784560e-11
-7.462850e-11
-3.166130e-11
-1.649680e-10
3.770430e-11
-1.178340e-11
5.559690e-12
-9.784560e-11
-5.106160e-11
-3.166130e-11
1.099790e-10
3.770430e-11
1.571130e-10
5.559690e-12
-1.963910e-11
-7.462850e-11
-3.166130e-11
5.695330e-10
4.106950e-11
-1.178340e-11
5.559690e-12
7.384290e-10
8.076480e-11
-3.166130e-11
1.099790e-10
4.106950e-11
-5.223990e-10
5.559690e-12
-1.963910e-11
8.076480e-11
-6.952230e-10
5.695330e-10
4.106950e-11
-2.572720e-09
-3.800820e-11
7.384290e-10
8.076480e-11
-2.403820e-09
-4.898110e-12
4.106950e-11
-5.223990e-10
-3.800820e-11
2.458810e-09
8.076480e-11
-6.952230e-10
-4.898110e-12
2.470590e-09
-2.572720e-09
-3.800820e-11
4.858710e-09
-8.679380e-11
-2.403820e-09
-4.898110e-12
5.114010e-09
7.865780e-11
-3.800820e-11
2.458810e-09
-8.679380e-11
-4.984400e-09
-4.898110e-12
2.470590e-09
7.865780e-11
-4.945120e-09
4.858710e-09
-8.679380e-11
-4.057430e-09
-1.727340e-11
5.114010e-09
7.865780e-11
-4.167410e-09
-1.034900e-10
-8.679380e-11
-4.984400e-09
-1.727340e-11
4.045650e-09
7.865780e-11
-4.945120e-09
-1.034900e-10
4.257750e-09
-4.057430e-09
-1.727340e-11
-8.362320e-09
4.494610e-11
-4.167410e-09
-1.034900e-10
-8.122720e-09
1.354570e-11
-1.727340e-11
4.045650e-09
4.494610e-11
8.436940e-09
-1.034900e-10
4.257750e-09
1.354570e-11
8.264120e-09
-8.362320e-09
4.494610e-11
3.780130e-08
3.312730e-11
-8.122720e-09
1.354570e-11
3.795840e-08
-2.718520e-12
4.494610e-11
8.436940e-09
3.312730e-11
-3.778560e-08
1.354570e-11
8.264120e-09
-2.718520e-12
-3.784060e-08
3.780130e-08
3.312730e-11
-6.210270e-08
-1.859630e-11
3.795840e-08
-2.718520e-12
-6.245220e-08
3.165170e-11
3.312730e-11
-3.778560e-08
-1.859630e-11
6.206730e-08
-2.718520e-12
-3.784060e-08
3.165170e-11
6.256610e-08
-6.210270e-08
-1.859630e-11
1.382200e-08
1.287170e-11
-6.245220e-08
3.165170e-11
1.461150e-08
-2.386010e-11
-1.859630e-11
6.206730e-08
1.287170e-11
-1.381020e-08
3.165170e-11
6.256610e-08
-2.386010e-11
-1.465070e-08
1.382200e-08
1.287170e-11
1.299360e-07
2.652870e-11
1.461150e-08
-2.386010e-11
1.289110e-07
1.219120e-11
1.287170e-11
-1.381020e-08
2.652870e-11
-1.299400e-07
-2.386010e-11
-1.465070e-08
1.219120e-11
-1.288950e-07
1.299360e-07
2.652870e-11
-1.572890e-07
-2.643680e-11
1.289110e-07
1.219120e-11
-1.565000e-07
-7.654490e-11
2.652870e-11
-1.299400e-07
-2.643680e-11
1.572620e-07
1.219120e-11
-1.288950e-07
-7.654490e-11
1.564210e-07
-1.572890e-07
-2.643680e-11
3.372030e-08
-2.984330e-12
-1.565000e-07
-7.654490e-11
3.295040e-08
3.692140e-11
-2.643680e-11
1.572620e-07
-2.984330e-12
-3.372810e-08
-7.654490e-11
1.564210e-07
3.692140e-11
-3.298580e-08
3.372030e-08
-2.984330e-12
2.166110e-07
-6.567320e-12
3.295040e-08
3.692140e-11
2.140890e-07
-2.042150e-15
-2.984330e-12
-3.372810e-08
-6.567320e-12
-2.166270e-07
3.692140e-11
-3.298580e-08
-2.042150e-15
-2.140930e-07
2.166110e-07
-6.567320e-12
1.479330e-07
2.065420e-11
2.140890e-07
-2.042150e-15
1.481340e-07
3.899490e-11
-6.567320e-12
-2.166270e-07
2.065420e-11
-1.479210e-07
-2.042150e-15
-2.140930e-07
3.899490e-11
-1.480860e-07
1.479330e-07
2.065420e-11
1.003200e-07
-1.391220e-12
1.481340e-07
3.899490e-11
1.023160e-07
-1.043250e-11
2.065420e-11
-1.479210e-07
-1.391220e-12
-1.003360e-07
3.899490e-11
-1.480860e-07
-1.043250e-11
-1.023270e-07
1.003200e-07
-1.391220e-12
-9.096820e-08
-2.587780e-12
1.023160e-07
-1.043250e-11
-9.529270e-08
-5.415860e-12
-1.391220e-12
-1.003360e-07
-2.587780e-12
9.096030e-08
-1.043250e-11
-1.023270e-07
-5.415860e-12
9.528480e-08
-9.096820e-08
-2.587780e-12
-4.990290e-08
2.741730e-12
-9.529270e-08
-5.415860e-12
-4.912910e-08
4.366470e-12
-2.587780e-12
9.096030e-08
2.741730e-12
4.990680e-08
-5.415860e-12
9.528480e-08
4.366470e-12
4.912910e-08
-4.990290e-08
2.741730e-12
8.990370e-08
1.524420e-12
-4.912910e-08
4.366470e-12
9.641600e-08
7.968560e-12
2.741730e-12
4.990680e-08
1.524420e-12
-8.989190e-08
4.366470e-12
4.912910e-08
7.968560e-12
-9.640030e-08
8.990370e-08
1.524420e-12
-6.360700e-08
1.791430e-12
9.641600e-08
7.968560e-12
-6.922380e-08
4.501240e-12
1.524420e-12
-8.989190e-08
1.791430e-12
6.361090e-08
7.968560e-12
-9.640030e-08
4.501240e-12
6.923560e-08
-6.360700e-08
1.791430e-12
-2.695270e-08
4.404380e-12
-6.922380e-08
4.501240e-12
-2.870050e-08
-9.468000e-12
1.791430e-12
6.361090e-08
4.404380e-12
2.696440e-08
4.501240e-12
6.923560e-08
-9.468000e-12
2.868090e-08
-2.695270e-08
4.404380e-12
4.886590e-08
2.212950e-12
-2.870050e-08
-9.468000e-12
5.255810e-08
-3.518570e-12
4.404380e-12
2.696440e-08
2.212950e-12
-4.886590e-08
-9.468000e-12
2.868090e-08
-3.518570e-12
-5.256200e-08
4.886590e-08
2.212950e-12
-2.820170e-09
1.373370e-12
5.255810e-08
-3.518570e-12
-4.084930e-09
3.248970e-12
2.212950e-12
-4.886590e-08
1.373370e-12
2.816240e-09
-3.518570e-12
-5.256200e-08
3.248970e-12
4.084930e-09
-2.820170e-09
1.373370e-12
1.408870e-07
2.186430e-13
-4.084930e-09
3.248970e-12
1.434520e-07
3.461990e-12
1.373370e-12
2.816240e-09
2.186430e-13
-1.408950e-07
3.248970e-12
4.084930e-09
3.461990e-12
-1.434480e-07
1.408870e-07
2.186430e-13
3.664100e-07
3.574760e-12
1.434520e-07
3.461990e-12
3.628710e-07
6.497260e-12
2.186430e-13
-1.408950e-07
3.574760e-12
-3.664100e-07
3.461990e-12
-1.434480e-07
6.497260e-12
-3.628630e-07
3.664100e-07
3.574760e-12
-1.073640e-06
4.497900e-12
3.628710e-07
6.497260e-12
-1.072630e-06
3.149110e-12
3.574760e-12
-3.664100e-07
4.497900e-12
1.073650e-06
6.497260e-12
-3.628630e-07
3.149110e-12
1.072630e-06
</DataArray>
<DataArray type="Float32" Name="V2" format="ascii">
0.000000e+00
0.000000e+00
-1.677960e-07
-1.681100e-07
0.000000e+00
0.000000e+00
-1.678590e-07
-1.682990e-07
0.000000e+00
0.000000e+00
-1.681100e-07
-1.680480e-07
0.000000e+00
0.000000e+00
-1.682990e-07
-1.679220e-07
-1.677960e-07
-1.681100e-07
-3.494310e-06
-3.494500e-06
-1.678590e-07
-1.682990e-07
-3.494870e-06
-3.493810e-06
-1.681100e-07
-1.680480e-07
-3.494500e-06
-3.495000e-06
-1.682990e-07
-1.679220e-07
-3.493810e-06
-3.494310e-06
-3.494310e-06
-3.494500e-06
-5.612190e-06
-5.612250e-06
-3.494870e-06
-3.493810e-06
-5.612120e-06
-5.612250e-06
-3.494500e-06
-3.495000e-06
-5.612250e-06
-5.612000e-06
-3.493810e-06
-3.494310e-06
-5.612250e-06
-5.612370e-06
-5.612190e-06
-5.612250e-06
1.892710e-05
1.892680e-05
-5.612120e-06
-5.612250e-06
1.892670e-05
1.892700e-05
-5.612250e-06
-5.612000e-06
1.892680e-05
1.892700e-05
-5.612250e-06
-5.612370e-06
1.892700e-05
1.892670e-05
1.892710e-05
1.892680e-05
1.039220e-04
1.039220e-04
1.892670e-05
1.892700e-05
1.039210e-04
1.039220e-04
1.892680e-05
1.892700e-05
1.039220e-04
1.039210e-04
1.892700e-05
1.892670e-05
1.039220e-04
1.039210e-04
1.039220e-04
1.039220e-04
1.210690e-04
1.210680e-04
1.039210e-04
1.039220e-04
1.210690e-04
1.210680e-04
1.039220e-04
1.039210e-04
1.210680e-04
1.210690e-04
1.039220e-04
1.039210e-04
1.210680e-04
1.210690e-04
1.210690e-04
1.210680e-04
-5.655690e-04
-5.655680e-04
1.210690e-04
1.210680e-04
-5.655670e-04
-5.655660e-04
1.210680e-04
1.210690e-04
-5.655680e-04
-5.655690e-04
1.210680e-04
1.210690e-04
-5.655660e-04
-5.655680e-04
-5.655690e-04
-5.655680e-04
-3.276540e-03
-3.276540e-03
-5.655670e-04
-5.655660e-04
-3.276540e-03
-3.276540e-03
-5.655680e-04
-5.655690e-04
-3.276540e-03
-3.276540e-03
-5.655660e-04
-5.655680e-04
-3.276540e-03
-3.276540e-03
-3.276540e-03
-3.276540e-03
-9.494150e-03
-9.494150e-03
-3.276540e-03
-3.276540e-03
-9.494150e-03
-9.494150e-03
-3.276540e-03
-3.276540e-03
-9.494150e-03
-9.494150e-03
-3.276540e-03
-3.276540e-03
-9.494150e-03
-9.494150e-03
-9.494150e-03
-9.494150e-03
-1.918350e-02
-1.918350e-02
-9.494150e-03
-9.494150e-03
-1.918350e-02
-1.918350e-02
-9.494150e-03
-9.494150e-03
-1.918350e-02
-1.918350e-02
-9.494150e-03
-9.494150e-03
-1.918350e-02
-1.918350e-02
-1.918350e-02
-1.918350e-02
-2.880130e-02
-2.880130e-02
-1.918350e-02
-1.918350e-02
-2.880130e-02
-2.880130e-02
-1.918350e-02
-1.918350e-02
-2.880130e-02
-2.880130e-02
-1.918350e-02
-1.918350e-02
-2.880130e-02
-2.880130e-02
-2.880130e-02
-2.880130e-02
-3.221000e-02
-3.220990e-02
-2.880130e-02
-2.880130e-02
-3.220990e-02
-3.220990e-02
-2.880130e-02
-2.880130e-02
-3.220990e-02
-3.221000e-02
-2.880130e-02
-2.880130e-02
-3.220990e-02
-3.220990e-02
-3.221000e-02
-3.220990e-02
-2.649940e-02
-2.649940e-02
-3.220990e-02
-3.220990e-02
-2.649940e-02
-2.649950e-02
-3.220990e-02
-3.221000e-02
-2.649940e-02
-2.649940e-02
-3.220990e-02
-3.220990e-02
-2.649950e-02
-2.649940e-02
-2.649940e-02
-2.649940e-02
-1.612320e-02
-1.612320e-02
-2.649940e-02
-2.649950e-02
-1.612320e-02
-1.612330e-02
-2.649940e-02
-2.649940e-02
-1.612320e-02
-1.612320e-02
-2.649950e-02
-2.649940e-02
-1.612330e-02
-1.612320e-02
-1.612320e-02
-1.612320e-02
-7.489800e-03
-7.489630e-03
-1.612320e-02
-1.612330e-02
-7.489630e-03
-7.489460e-03
-1.612320e-02
-1.612320e-02
-7.489630e-03
-7.489800e-03
-1.612330e-02
-1.612320e-02
-7.489460e-03
-7.489630e-03
-7.489800e-03
-7.489630e-03
-2.873050e-03
-2.873240e-03
-7.489630e-03
-7.489460e-03
-2.873230e-03
-2.873410e-03
-7.489630e-03
-7.489800e-03
-2.873240e-03
-2.873050e-03
-7.489460e-03
-7.489630e-03
-2.873410e-03
-2.873230e-03
-2.873050e-03
-2.873240e-03
-1.268610e-03
-1.268970e-03
-2.873230e-03
-2.873410e-03
-1.268970e-03
-1.269330e-03
-2.873240e-03
-2.873050e-03
-1.268970e-03
-1.268610e-03
-2.873410e-03
-2.873230e-03
-1.269330e-03
-1.268970e-03
-1.268610e-03
-1.268970e-03
-8.245960e-04
-8.247030e-04
-1.268970e-03
-1.269330e-03
-8.247030e-04
-8.248130e-04
-1.268970e-03
-1.268610e-03
-8.247030e-04
-8.245960e-04
-1.269330e-03
-1.268970e-03
-8.248130e-04
-8.247030e-04
-8.245960e-04
-8.247030e-04
-6.985310e-04
-6.984620e-04
-8.247030e-04
-8.248130e-04
-6.984620e-04
-6.983920e-04
-8.247030e-04
-8.245960e-04
-6.984620e-04
-6.985310e-04
-8.248130e-04
-8.247030e-04
-6.983920e-04
-6.984620e-04
-6.985310e-04
-6.984620e-04
-7.106210e-04
-7.105850e-04
-6.984620e-04
-6.983920e-04
-7.105850e-04
-7.105440e-04
-6.984620e-04
-6.985310e-04
-7.105850e-04
-7.106210e-04
-6.983920e-04
-6.984620e-04
-7.105440e-04
-7.105850e-04
-7.106210e-04
-7.105850e-04
-6.380390e-04
-6.379490e-04
-7.105850e-04
-7.105440e-04
-6.379490e-04
-6.378910e-04
-7.105850e-04
-7.106210e-04
-6.379490e-04
-6.380390e-04
-7.105440e-04
-7.105850e-04
-6.378910e-04
-6.379490e-04
-6.380390e-04
-6.379490e-04
-4.446400e-04
-4.450090e-04
-6.379490e-04
-6.378910e-04
-4.450090e-04
-4.453000e-04
-6.379490e-04
-6.380390e-04
-4.450090e-04
-4.446400e-04
-6.378910e-04
-6.379490e-04
-4.453000e-04
-4.450090e-04
-4.446400e-04
-4.450090e-04
-6.308710e-04
-6.308470e-04
-4.450090e-04
-4.453000e-04
-6.308470e-04
-6.308470e-04
-4.450090e-04
-4.446400e-04
-6.308470e-04
-6.308710e-04
-4.453000e-04
-4.450090e-04
-6.308470e-04
-6.308470e-04
-6.308710e-04
-6.308470e-04
-6.200860e-04
-6.197090e-04
-6.308470e-04
-6.308470e-04
-6.197090e-04
-6.194200e-04
-6.308470e-04
-6.308710e-04
-6.197090e-04
-6.200860e-04
-6.308470e-04
-6.308470e-04
-6.194200e-04
-6.197090e-04
-6.200860e-04
-6.197090e-04
1.954570e-05
1.920450e-05
-6.197090e-04
-6.194200e-04
1.920450e-05
1.894420e-05
-6.197090e-04
-6.200860e-04
1.920450e-05
1.954580e-05
-6.194200e-04
-6.197090e-04
1.894420e-05
1.920460e-05
1.954570e-05
1.920450e-05
-1.607300e-04
-1.607790e-04
1.920450e-05
1.894420e-05
-1.607790e-04
-1.608090e-04
1.920450e-05
1.954580e-05
-1.607790e-04
-1.607300e-04
1.894420e-05
1.920460e-05
-1.608090e-04
-1.607790e-04
-1.607300e-04
-1.607790e-04
-1.249100e-03
-1.249020e-03
-1.607790e-04
-1.608090e-04
-1.249020e-03
-1.248970e-03
-1.607790e-04
-1.607300e-04
-1.249020e-03
-1.249100e-03
-1.608090e-04
-1.607790e-04
-1.248970e-03
-1.249020e-03
-1.249100e-03
-1.249020e-03
-1.921640e-03
-1.921780e-03
-1.249020e-03
-1.248970e-03
-1.921780e-03
-1.921910e-03
-1.249020e-03
-1.249100e-03
-1.921780e-03
-1.921640e-03
-1.248970e-03
-1.249020e-03
-1.921910e-03
-1.921780e-03
-1.921640e-03
-1.921780e-03
-1.999760e-03
-1.999310e-03
-1.921780e-03
-1.921910e-03
-1.999310e-03
-1.998920e-03
-1.921780e-03
-1.921640e-03
-1.999310e-03
-1.999760e-03
-1.921910e-03
-1.921780e-03
-1.998920e-03
-1.999310e-03
-1.999760e-03
-1.999310e-03
-1.960440e-03
-1.959320e-03
-1.999310e-03
-1.998920e-03
-1.959320e-03
-1.958150e-03
-1.999310e-03
-1.999760e-03
-1.959320e-03
-1.960440e-03
-1.998920e-03
-1.999310e-03
-1.958150e-03
-1.959320e-03
0.000000e+00
0.000000e+00
-1.678590e-07
-1.682990e-07
0.000000e+00
0.000000e+00
-1.678590e-07
-1.682360e-07
0.000000e+00
0.000000e+00
-1.682990e-07
-1.679220e-07
0.000000e+00
0.000000e+00
-1.682360e-07
-1.677960e-07
-1.678590e-07
-1.682990e-07
-3.494870e-06
-3.493810e-06
-1.678590e-07
-1.682360e-07