<?xml version="1.0"?>
<VTKFile type="UnstructuredGrid" version="0.1" byte_order="LittleEndian" compressor="vtkZLibDataCompressor">
<UnstructuredGrid>
<Piece NumberOfPoints="960" NumberOfCells="120">
<Points>
<DataArray type="Float32" NumberOfComponents="3" format="ascii">
-4.000000e+02 -6.000000e+03 -4.000000e+02
0.000000e+00 -6.000000e+03 -4.000000e+02
-4.000000e+02 -5.600000e+03 -4.000000e+02
-9.485310e-12 -5.600000e+03 -4.000000e+02
-4.000000e+02 -6.000000e+03 0.000000e+00
0.000000e+00 -6.000000e+03 0.000000e+00
-4.000000e+02 -5.600000e+03 8.807110e-11
-2.018000e-11 -5.600000e+03 5.672770e-11
0.000000e+00 -6.000000e+03 -4.000000e+02
4.000000e+02 -6.000000e+03 -4.000000e+02
-9.485310e-12 -5.600000e+03 -4.000000e+02
4.000000e+02 -5.600000e+03 -4.000000e+02
0.000000e+00 -6.000000e+03 0.000000e+00
4.000000e+02 -6.000000e+03 0.000000e+00
-2.018000e-11 -5.600000e+03 5.672770e-11
4.000000e+02 -5.600000e+03 4.742190e-11
-4.000000e+02 -5.600000e+03 -4.000000e+02
-9.485310e-12 -5.600000e+03 -4.000000e+02
-4.000000e+02 -5.200000e+03 -4.000000e+02
-8.517970e-11 -5.200000e+03 -4.000000e+02
-4.000000e+02 -5.600000e+03 8.807110e-11
-2.018000e-11 -5.600000e+03 5.672770e-11
-4.000000e+02 -5.200000e+03 2.406060e-11
-1.732670e-10 -5.200000e+03 1.647260e-11
-9.485310e-12 -5.600000e+03 -4.000000e+02
4.000000e+02 -5.600000e+03 -4.000000e+02
-8.517970e-11 -5.200000e+03 -4.000000e+02
4.000000e+02 -5.200000e+03 -4.000000e+02
-2.018000e-11 -5.600000e+03 5.672770e-11
4.000000e+02 -5.600000e+03 4.742190e-11
-1.732670e-10 -5.200000e+03 1.647260e-11
4.000000e+02 -5.200000e+03 -3.842450e-11
-4.000000e+02 -5.200000e+03 -4.000000e+02
-8.517970e-11 -5.200000e+03 -4.000000e+02
-4.000000e+02 -4.800020e+03 -4.000000e+02
-2.228890e-10 -4.800020e+03 -4.000000e+02
-4.000000e+02 -5.200000e+03 2.406060e-11
-1.732670e-10 -5.200000e+03 1.647260e-11
-4.000000e+02 -4.800020e+03 -1.417910e-10
-2.792950e-10 -4.800020e+03 -8.367130e-11
-8.517970e-11 -5.200000e+03 -4.000000e+02
4.000000e+02 -5.200000e+03 -4.000000e+02
-2.228890e-10 -4.800020e+03 -4.000000e+02
4.000000e+02 -4.800020e+03 -4.000000e+02
-1.732670e-10 -5.200000e+03 1.647260e-11
4.000000e+02 -5.200000e+03 -3.842450e-11
-2.792950e-10 -4.800020e+03 -8.367130e-11
4.000000e+02 -4.800020e+03 -1.084460e-10
-4.000000e+02 -4.800020e+03 -4.000000e+02
-2.228890e-10 -4.800020e+03 -4.000000e+02
-4.000000e+02 -4.400050e+03 -4.000000e+02
-3.860750e-10 -4.400050e+03 -4.000000e+02
-4.000000e+02 -4.800020e+03 -1.417910e-10
-2.792950e-10 -4.800020e+03 -8.367130e-11
-4.000000e+02 -4.400050e+03 -6.110970e-11
-2.889750e-10 -4.400050e+03 -7.219740e-11
-2.228890e-10 -4.800020e+03 -4.000000e+02
4.000000e+02 -4.800020e+03 -4.000000e+02
-3.860750e-10 -4.400050e+03 -4.000000e+02
4.000000e+02 -4.400050e+03 -4.000000e+02
-2.792950e-10 -4.800020e+03 -8.367130e-11
4.000000e+02 -4.800020e+03 -1.084460e-10
-2.889750e-10 -4.400050e+03 -7.219740e-11
4.000000e+02 -4.400050e+03 -1.175000e-11
-4.000000e+02 -4.400050e+03 -4.000000e+02
-3.860750e-10 -4.400050e+03 -4.000000e+02
-4.000000e+02 -4.000090e+03 -4.000000e+02
-3.376620e-10 -4.000090e+03 -4.000000e+02
-4.000000e+02 -4.400050e+03 -6.110970e-11
-2.889750e-10 -4.400050e+03 -7.219740e-11
-4.000000e+02 -4.000090e+03 -3.703260e-11
-3.544950e-10 -4.000090e+03 -5.179860e-11
-3.860750e-10 -4.400050e+03 -4.000000e+02
4.000000e+02 -4.400050e+03 -4.000000e+02
-3.376620e-10 -4.000090e+03 -4.000000e+02
4.000000e+02 -4.000090e+03 -4.000000e+02
-2.889750e-10 -4.400050e+03 -7.219740e-11
4.000000e+02 -4.400050e+03 -1.175000e-11
-3.544950e-10 -4.000090e+03 -5.179860e-11
4.000000e+02 -4.000090e+03 -2.602370e-11
-4.000000e+02 -4.000090e+03 -4.000000e+02
-3.376620e-10 -4.000090e+03 -4.000000e+02
-4.000000e+02 -3.600130e+03 -4.000000e+02
-2.792790e-10 -3.600130e+03 -4.000000e+02
-4.000000e+02 -4.000090e+03 -3.703260e-11
-3.544950e-10 -4.000090e+03 -5.179860e-11
-4.000000e+02 -3.600130e+03 -5.718040e-11
-2.909470e-10 -3.600130e+03 -8.837270e-11
-3.376620e-10 -4.000090e+03 -4.000000e+02
4.000000e+02 -4.000090e+03 -4.000000e+02
-2.792790e-10 -3.600130e+03 -4.000000e+02
4.000000e+02 -3.600130e+03 -4.000000e+02
-3.544950e-10 -4.000090e+03 -5.179860e-11
4.000000e+02 -4.000090e+03 -2.602370e-11
-2.909470e-10 -3.600130e+03 -8.837270e-11
4.000000e+02 -3.600130e+03 -1.356070e-10
-4.000000e+02 -3.600130e+03 -4.000000e+02
-2.792790e-10 -3.600130e+03 -4.000000e+02
-4.000000e+02 -3.200160e+03 -4.000000e+02
-2.176950e-10 -3.200160e+03 -4.000000e+02
-4.000000e+02 -3.600130e+03 -5.718040e-11
-2.909470e-10 -3.600130e+03 -8.837270e-11
-4.000000e+02 -3.200160e+03 -2.943770e-11
-2.151640e-10 -3.200160e+03 -8.523270e-11
-2.792790e-10 -3.600130e+03 -4.000000e+02
4.000000e+02 -3.600130e+03 -4.000000e+02
-2.176950e-10 -3.200160e+03 -4.000000e+02
4.000000e+02 -3.200160e+03 -4.000000e+02
-2.909470e-10 -3.600130e+03 -8.837270e-11
4.000000e+02 -3.600130e+03 -1.356070e-10
-2.151640e-10 -3.200160e+03 -8.523270e-11
4.000000e+02 -3.200160e+03 -1.767100e-10
-4.000000e+02 -3.200160e+03 -4.000000e+02
-2.176950e-10 -3.200160e+03 -4.000000e+02
-4.000000e+02 -2.800170e+03 -4.000000e+02
-1.771250e-10 -2.800170e+03 -4.000000e+02
-4.000000e+02 -3.200160e+03 -2.943770e-11
-2.151640e-10 -3.200160e+03 -8.523270e-11
-4.000000e+02 -2.800170e+03 -1.276550e-10
-8.330880e-11 -2.800170e+03 -1.060400e-10
-2.176950e-10 -3.200160e+03 -4.000000e+02
4.000000e+02 -3.200160e+03 -4.000000e+02
-1.771250e-10 -2.800170e+03 -4.000000e+02
4.000000e+02 -2.800170e+03 -4.000000e+02
-2.151640e-10 -3.200160e+03 -8.523270e-11
4.000000e+02 -3.200160e+03 -1.767100e-10
-8.330880e-11 -2.800170e+03 -1.060400e-10
4.000000e+02 -2.800170e+03 -1.656850e-10
-4.000000e+02 -2.800170e+03 -4.000000e+02
-1.771250e-10 -2.800170e+03 -4.000000e+02
-4.000000e+02 -2.400190e+03 -4.000000e+02
-9.902720e-11 -2.400190e+03 -4.000000e+02
-4.000000e+02 -2.800170e+03 -1.276550e-10
-8.330880e-11 -2.800170e+03 -1.060400e-10
-4.000000e+02 -2.400190e+03 -1.971810e-10
2.283320e-11 -2.400190e+03 -1.617100e-10
-1.771250e-10 -2.800170e+03 -4.000000e+02
4.000000e+02 -2.800170e+03 -4.000000e+02
-9.902720e-11 -2.400190e+03 -4.000000e+02
4.000000e+02 -2.400190e+03 -4.000000e+02
-8.330880e-11 -2.800170e+03 -1.060400e-10
4.000000e+02 -2.800170e+03 -1.656850e-10
2.283320e-11 -2.400190e+03 -1.617100e-10
4.000000e+02 -2.400190e+03 -1.680890e-10
-4.000000e+02 -2.400190e+03 -4.000000e+02
-9.902720e-11 -2.400190e+03 -4.000000e+02
-4.000000e+02 -2.000190e+03 -4.000000e+02
-2.580280e-11 -2.000190e+03 -4.000000e+02
-4.000000e+02 -2.400190e+03 -1.971810e-10
2.283320e-11 -2.400190e+03 -1.617100e-10
-4.000000e+02 -2.000190e+03 -3.945320e-11
5.803840e-12 -2.000190e+03 -9.818170e-11
-9.902720e-11 -2.400190e+03 -4.000000e+02
4.000000e+02 -2.400190e+03 -4.000000e+02
-2.580280e-11 -2.000190e+03 -4.000000e+02
4.000000e+02 -2.000190e+03 -4.000000e+02
2.283320e-11 -2.400190e+03 -1.617100e-10
4.000000e+02 -2.400190e+03 -1.680890e-10
5.803840e-12 -2.000190e+03 -9.818170e-11
4.000000e+02 -2.000190e+03 -2.103660e-10
-4.000000e+02 -2.000190e+03 -4.000000e+02
-2.580280e-11 -2.000190e+03 -4.000000e+02
-4.000000e+02 -1.600190e+03 -4.000000e+02
-4.320140e-11 -1.600190e+03 -4.000000e+02
-4.000000e+02 -2.000190e+03 -3.945320e-11
5.803840e-12 -2.000190e+03 -9.818170e-11
-4.000000e+02 -1.600190e+03 2.604670e-11
3.987410e-11 -1.600190e+03 -1.194250e-11
-2.580280e-11 -2.000190e+03 -4.000000e+02
4.000000e+02 -2.000190e+03 -4.000000e+02
-4.320140e-11 -1.600190e+03 -4.000000e+02
4.000000e+02 -1.600190e+03 -4.000000e+02
5.803840e-12 -2.000190e+03 -9.818170e-11
4.000000e+02 -2.000190e+03 -2.103660e-10
3.987410e-11 -1.600190e+03 -1.194250e-11
4.000000e+02 -1.600190e+03 -1.732030e-10
-4.000000e+02 -1.600190e+03 -4.000000e+02
-4.320140e-11 -1.600190e+03 -4.000000e+02
-4.000000e+02 -1.200200e+03 -4.000000e+02
8.165510e-11 -1.200200e+03 -4.000000e+02
-4.000000e+02 -1.600190e+03 2.604670e-11
3.987410e-11 -1.600190e+03 -1.194250e-11
-4.000000e+02 -1.200200e+03 -1.151260e-11
1.007400e-10 -1.200200e+03 -7.396490e-11
-4.320140e-11 -1.600190e+03 -4.000000e+02
4.000000e+02 -1.600190e+03 -4.000000e+02
8.165510e-11 -1.200200e+03 -4.000000e+02
4.000000e+02 -1.200200e+03 -4.000000e+02
3.987410e-11 -1.600190e+03 -1.194250e-11
4.000000e+02 -1.600190e+03 -1.732030e-10
1.007400e-10 -1.200200e+03 -7.396490e-11
4.000000e+02 -1.200200e+03 -2.395260e-10
-4.000000e+02 -1.200200e+03 -4.000000e+02
8.165510e-11 -1.200200e+03 -4.000000e+02
-4.000000e+02 -8.002000e+02 -4.000000e+02
1.166130e-10 -8.002000e+02 -4.000000e+02
-4.000000e+02 -1.200200e+03 -1.151260e-11
1.007400e-10 -1.200200e+03 -7.396490e-11
-4.000000e+02 -8.002000e+02 -8.467020e-11
1.297810e-10 -8.002000e+02 -1.745600e-10
8.165510e-11 -1.200200e+03 -4.000000e+02
4.000000e+02 -1.200200e+03 -4.000000e+02
1.166130e-10 -8.002000e+02 -4.000000e+02
4.000000e+02 -8.002000e+02 -4.000000e+02
1.007400e-10 -1.200200e+03 -7.396490e-11
4.000000e+02 -1.200200e+03 -2.395260e-10
1.297810e-10 -8.002000e+02 -1.745600e-10
4.000000e+02 -8.002000e+02 -2.722880e-10
-4.000000e+02 -8.002000e+02 -4.000000e+02
1.166130e-10 -8.002000e+02 -4.000000e+02
-4.000000e+02 -4.002020e+02 -4.000000e+02
1.537860e-11 -4.002020e+02 -4.000000e+02
-4.000000e+02 -8.002000e+02 -8.467020e-11
1.297810e-10 -8.002000e+02 -1.745600e-10
-4.000000e+02 -4.002020e+02 -7.534360e-11
1.784080e-10 -4.002020e+02 -1.724190e-10
1.166130e-10 -8.002000e+02 -4.000000e+02
4.000000e+02 -8.002000e+02 -4.000000e+02
1.537860e-11 -4.002020e+02 -4.000000e+02
4.000000e+02 -4.002020e+02 -4.000000e+02
1.297810e-10 -8.002000e+02 -1.745600e-10
4.000000e+02 -8.002000e+02 -2.722880e-10
1.784080e-10 -4.002020e+02 -1.724190e-10
4.000000e+02 -4.002020e+02 -1.542550e-10
-4.000000e+02 -4.002020e+02 -4.000000e+02
1.537860e-11 -4.002020e+02 -4.000000e+02
-4.000000e+02 -2.038910e-01 -4.000000e+02
8.370820e-11 -2.038910e-01 -4.000000e+02
-4.000000e+02 -4.002020e+02 -7.534360e-11
1.784080e-10 -4.002020e+02 -1.724190e-10
-4.000000e+02 -2.038910e-01 -2.981950e-11
1.416360e-10 -2.038910e-01 -8.018350e-11
1.537860e-11 -4.002020e+02 -4.000000e+02
4.000000e+02 -4.002020e+02 -4.000000e+02
[...]
<PointData>
<DataArray type="Float32" Name="V1" format="ascii">
0.000000e+00
0.000000e+00
-4.571980e-09
5.998200e-11
0.000000e+00
0.000000e+00
-4.776220e-09
-3.079800e-11
0.000000e+00
0.000000e+00
5.998200e-11
4.685880e-09
0.000000e+00
0.000000e+00
-3.079800e-11
4.756580e-09
-4.571980e-09
5.998200e-11
7.513910e-09
-8.863570e-11
-4.776220e-09
-3.079800e-11
7.513910e-09
9.863620e-11
5.998200e-11
4.685880e-09
-8.863570e-11
-7.678880e-09
-3.079800e-11
4.756580e-09
9.863620e-11
-7.348940e-09
7.513910e-09
-8.863570e-11
-6.135250e-09
-1.165700e-11
7.513910e-09
9.863620e-11
-6.418050e-09
1.100850e-12
-8.863570e-11
-7.678880e-09
-1.165700e-11
5.993840e-09
9.863620e-11
-7.348940e-09
1.100850e-12
6.280570e-09
-6.135250e-09
-1.165700e-11
-4.689810e-09
8.885650e-12
-6.418050e-09
1.100850e-12
-4.395220e-09
-2.981850e-11
-1.165700e-11
5.993840e-09
8.885650e-12
4.815500e-09
1.100850e-12
6.280570e-09
-2.981850e-11
4.603400e-09
-4.689810e-09
8.885650e-12
2.450170e-08
4.134780e-11
-4.395220e-09
-2.981850e-11
2.430530e-08
5.892640e-12
8.885650e-12
4.815500e-09
4.134780e-11
-2.445460e-08
-2.981850e-11
4.603400e-09
5.892640e-12
-2.439570e-08
2.450170e-08
4.134780e-11
-3.891290e-08
-8.942960e-12
2.430530e-08
5.892640e-12
-3.919170e-08
-8.328670e-11
4.134780e-11
-2.445460e-08
-8.942960e-12
3.893250e-08
5.892640e-12
-2.439570e-08
-8.328670e-11
3.909350e-08
-3.891290e-08
-8.942960e-12
2.646170e-08
-7.349570e-11
-3.919170e-08
-8.328670e-11
2.721970e-08
-2.523420e-12
-8.942960e-12
3.893250e-08
-7.349570e-11
-2.658340e-08
-8.328670e-11
3.909350e-08
-2.523420e-12
-2.733760e-08
2.646170e-08
-7.349570e-11
2.331550e-08
4.449360e-11
2.721970e-08
-2.523420e-12
2.202720e-08
-8.123020e-11
-7.349570e-11
-2.658340e-08
4.449360e-11
-2.327620e-08
-2.523420e-12
-2.733760e-08
-8.123020e-11
-2.207040e-08
2.331550e-08
4.449360e-11
-8.543390e-08
-6.031290e-11
2.202720e-08
-8.123020e-11
-8.426730e-08
-3.320920e-11
4.449360e-11
-2.327620e-08
-6.031290e-11
8.533960e-08
-8.123020e-11
-2.207040e-08
-3.320920e-11
8.421230e-08
-8.543390e-08
-6.031290e-11
9.127850e-08
6.395220e-11
-8.426730e-08
-3.320920e-11
9.054000e-08
-8.183100e-11
-6.031290e-11
8.533960e-08
6.395220e-11
-9.122350e-08
-3.320920e-11
8.421230e-08
-8.183100e-11
-9.076000e-08
9.127850e-08
6.395220e-11
9.929510e-09
-7.449600e-11
9.054000e-08
-8.183100e-11
9.795970e-09
-5.708890e-11
6.395220e-11
-9.122350e-08
-7.449600e-11
-9.941300e-09
-8.183100e-11
-9.076000e-08
-5.708890e-11
-1.000020e-08
9.929510e-09
-7.449600e-11
-9.611750e-08
-8.032600e-11
9.795970e-09
-5.708890e-11
-9.463670e-08
-1.885370e-13
-7.449600e-11
-9.941300e-09
-8.032600e-11
9.578760e-08
-5.708890e-11
-1.000020e-08
-1.885370e-13
9.477420e-08
-9.611750e-08
-8.032600e-11
-1.189340e-08
1.372410e-10
-9.463670e-08
-1.885370e-13
-1.437970e-08
5.088800e-12
-8.032600e-11
9.578760e-08
1.372410e-10
1.215270e-08
-1.885370e-13
9.477420e-08
5.088800e-12
1.428550e-08
-1.189340e-08
1.372410e-10
8.989190e-08
4.997480e-11
-1.437970e-08
5.088800e-12
9.146310e-08
-5.139190e-11
1.372410e-10
1.215270e-08
4.997480e-11
-8.986840e-08
5.088800e-12
1.428550e-08
-5.139190e-11
-9.153770e-08
8.989190e-08
4.997480e-11
7.553580e-08
-1.824910e-11
9.146310e-08
-5.139190e-11
7.746430e-08
5.485150e-11
4.997480e-11
-8.986840e-08
-1.824910e-11
-7.548470e-08
-5.139190e-11
-9.153770e-08
5.485150e-11
-7.743680e-08
7.553580e-08
-1.824910e-11
-1.067820e-07
-7.277810e-11
7.746430e-08
5.485150e-11
-1.061260e-07
7.322960e-11
-1.824910e-11
-7.548470e-08
-7.277810e-11
1.066640e-07
5.485150e-11
-7.743680e-08
7.322960e-11
1.062830e-07
-1.067820e-07
-7.277810e-11
-4.875200e-08
6.431330e-11
-1.061260e-07
7.322960e-11
-4.906620e-08
4.653190e-11
-7.277810e-11
1.066640e-07
6.431330e-11
4.883450e-08
7.322960e-11
1.062830e-07
4.653190e-11
4.909770e-08
-4.875200e-08
6.431330e-11
5.516610e-08
4.407820e-11
-4.906620e-08
4.653190e-11
5.521720e-08
-4.116710e-11
6.431330e-11
4.883450e-08
4.407820e-11
-5.501300e-08
4.653190e-11
4.909770e-08
-4.116710e-11
-5.519360e-08
5.516610e-08
4.407820e-11
3.504000e-08
-8.201860e-11
5.521720e-08
-4.116710e-11
3.581380e-08
2.027120e-11
4.407820e-11
-5.501300e-08
-8.201860e-11
-3.506750e-08
-4.116710e-11
-5.519360e-08
2.027120e-11
-3.582950e-08
3.504000e-08
-8.201860e-11
1.836650e-08
1.190900e-12
3.581380e-08
2.027120e-11
1.741590e-08
-1.000380e-11
-8.201860e-11
-3.506750e-08
1.190900e-12
-1.833110e-08
2.027120e-11
-3.582950e-08
-1.000380e-11
-1.744340e-08
1.836650e-08
1.190900e-12
2.507910e-08
9.040550e-12
1.741590e-08
-1.000380e-11
2.446640e-08
1.477360e-11
1.190900e-12
-1.833110e-08
9.040550e-12
-2.505950e-08
-1.000380e-11
-1.744340e-08
1.477360e-11
-2.443100e-08
2.507910e-08
9.040550e-12
-1.804830e-08
7.336400e-12
2.446640e-08
1.477360e-11
-1.565230e-08
-5.649640e-12
9.040550e-12
-2.505950e-08
7.336400e-12
1.804830e-08
1.477360e-11
-2.443100e-08
-5.649640e-12
1.562880e-08
-1.804830e-08
7.336400e-12
1.476860e-08
-2.324880e-11
-1.565230e-08
-5.649640e-12
1.358240e-08
-2.101000e-11
7.336400e-12
1.804830e-08
-2.324880e-11
-1.481180e-08
-5.649640e-12
1.562880e-08
-2.101000e-11
-1.361770e-08
1.476860e-08
-2.324880e-11
4.536620e-09
7.803860e-14
1.358240e-08
-2.101000e-11
3.346500e-09
4.055300e-12
-2.324880e-11
-1.481180e-08
7.803860e-14
-4.532700e-09
-2.101000e-11
-1.361770e-08
4.055300e-12
-3.338640e-09
4.536620e-09
7.803860e-14
-8.971130e-09
1.634800e-11
3.346500e-09
4.055300e-12
-8.012740e-09
2.040560e-11
7.803860e-14
-4.532700e-09
1.634800e-11
9.018260e-09
4.055300e-12
-3.338640e-09
2.040560e-11
8.052020e-09
-8.971130e-09
1.634800e-11
2.439170e-09
1.810180e-11
-8.012740e-09
2.040560e-11
3.079410e-09
2.139470e-11
1.634800e-11
9.018260e-09
1.810180e-11
-2.392040e-09
2.040560e-11
8.052020e-09
2.139470e-11
-3.036200e-09
2.439170e-09
1.810180e-11
-4.897980e-09
2.212930e-11
3.079410e-09
2.139470e-11
-4.921550e-09
2.157330e-11
1.810180e-11
-2.392040e-09
2.212930e-11
4.949050e-09
2.139470e-11
-3.036200e-09
2.157330e-11
4.964760e-09
-4.897980e-09
2.212930e-11
1.240330e-07
4.505930e-12
-4.921550e-09
2.157330e-11
1.217070e-07
2.283170e-12
2.212930e-11
4.949050e-09
4.505930e-12
-1.240250e-07
2.157330e-11
4.964760e-09
2.283170e-12
-1.217270e-07
1.240330e-07
4.505930e-12
2.656110e-07
-9.023860e-12
1.217070e-07
2.283170e-12
2.681360e-07
-9.541220e-12
4.505930e-12
-1.240250e-07
-9.023860e-12
-2.656300e-07
2.283170e-12
-1.217270e-07
-9.541220e-12
-2.681560e-07
2.656110e-07
-9.023860e-12
-1.035730e-06
-1.998440e-11
2.681360e-07
-9.541220e-12
-1.035790e-06
-2.112350e-11
-9.023860e-12
-2.656300e-07
-1.998440e-11
1.035690e-06
-9.541220e-12
-2.681560e-07
-2.112350e-11
1.035740e-06
0.000000e+00
0.000000e+00
-4.776220e-09
-3.079800e-11
0.000000e+00
0.000000e+00
-4.513060e-09
-1.179420e-10
0.000000e+00
0.000000e+00
-3.079800e-11
4.756580e-09
0.000000e+00
0.000000e+00
-1.179420e-10
4.391300e-09
-4.776220e-09
-3.079800e-11
7.513910e-09
9.863620e-11
-4.513060e-09
-1.179420e-10
7.345010e-09
-3.315900e-11
-3.079800e-11
4.756580e-09
9.863620e-11
-7.348940e-09
-1.179420e-10
4.391300e-09
-3.315900e-11
-7.376430e-09
7.513910e-09
9.863620e-11
-6.418050e-09
1.100850e-12
7.345010e-09
-3.315900e-11
-6.084180e-09
-9.374540e-11
9.863620e-11
-7.348940e-09
1.100850e-12
6.280570e-09
-3.315900e-11
-7.376430e-09
-9.374540e-11
5.950640e-09
-6.418050e-09
1.100850e-12
-4.395220e-09
-2.981850e-11
-6.084180e-09
-9.374540e-11
-4.886200e-09
4.771760e-11
1.100850e-12
6.280570e-09
-2.981850e-11
4.603400e-09
-9.374540e-11
5.950640e-09
4.771760e-11
4.882270e-09
-4.395220e-09
-2.981850e-11
2.430530e-08
5.892640e-12
-4.886200e-09
4.771760e-11
2.438780e-08
-9.793680e-11
-2.981850e-11
4.603400e-09
5.892640e-12
-2.439570e-08
4.771760e-11
4.882270e-09
-9.793680e-11
-2.441140e-08
2.430530e-08
5.892640e-12
-3.919170e-08
-8.328670e-11
2.438780e-08
-9.793680e-11
-3.903850e-08
9.367450e-12
5.892640e-12
-2.439570e-08
-8.328670e-11
3.909350e-08
-9.793680e-11
-2.441140e-08
9.367450e-12
3.898360e-08
-3.919170e-08
-8.328670e-11
2.721970e-08
-2.523420e-12
-3.903850e-08
9.367450e-12
2.658340e-08
6.098550e-11
-8.328670e-11
3.909350e-08
-2.523420e-12
-2.733760e-08
9.367450e-12
3.898360e-08
6.098550e-11
-2.655200e-08
2.721970e-08
-2.523420e-12
2.202720e-08
-8.123020e-11
2.658340e-08
6.098550e-11
2.331160e-08
-2.603590e-11
-2.523420e-12
-2.733760e-08
-8.123020e-11
-2.207040e-08
6.098550e-11
-2.655200e-08
-2.603590e-11
-2.346870e-08
2.202720e-08
-8.123020e-11
-8.426730e-08
-3.320920e-11
2.331160e-08
-2.603590e-11
-8.526110e-08
1.720490e-10
-8.123020e-11
-2.207040e-08
-3.320920e-11
8.421230e-08
-2.603590e-11
-2.346870e-08
1.720490e-10
8.558310e-08
-8.426730e-08
-3.320920e-11
9.054000e-08
-8.183100e-11
-8.526110e-08
1.720490e-10
9.140020e-08
2.943400e-11
-3.320920e-11
8.421230e-08
-8.183100e-11
-9.076000e-08
1.720490e-10
8.558310e-08
2.943400e-11
-9.123130e-08
9.054000e-08
-8.183100e-11
9.795970e-09
-5.708890e-11
9.140020e-08
2.943400e-11
9.953080e-09
-3.252580e-11
-8.183100e-11
-9.076000e-08
-5.708890e-11
-1.000020e-08
2.943400e-11
-9.123130e-08
-3.252580e-11
-1.002770e-08
9.795970e-09
-5.708890e-11
-9.463670e-08
-1.885370e-13
9.953080e-09
-3.252580e-11
-9.588190e-08
-5.517040e-11
-5.708890e-11
-1.000020e-08
-1.885370e-13
9.477420e-08
-3.252580e-11
-1.002770e-08
-5.517040e-11
9.585440e-08
-9.463670e-08
-1.885370e-13
-1.437970e-08
5.088800e-12
-9.588190e-08
-5.517040e-11
-1.166560e-08
2.832090e-11
-1.885370e-13
9.477420e-08
5.088800e-12
1.428550e-08
-5.517040e-11
9.585440e-08
2.832090e-11
1.183060e-08
-1.437970e-08
5.088800e-12
9.146310e-08
-5.139190e-11
-1.166560e-08
2.832090e-11
8.991940e-08
7.947200e-11
5.088800e-12
1.428550e-08
-5.139190e-11
-9.153770e-08
2.832090e-11
1.183060e-08
7.947200e-11
-8.972700e-08
9.146310e-08
-5.139190e-11
7.746430e-08
5.485150e-11
8.991940e-08
7.947200e-11
7.552400e-08
4.493580e-11
-5.139190e-11
-9.153770e-08
5.485150e-11
-7.743680e-08
7.947200e-11
-8.972700e-08
4.493580e-11
-7.553970e-08
7.746430e-08
5.485150e-11
-1.061260e-07
7.322960e-11
7.552400e-08
4.493580e-11
-1.067820e-07
-6.911980e-11
5.485150e-11
-7.743680e-08
7.322960e-11
1.062830e-07
4.493580e-11
-7.553970e-08
-6.911980e-11
1.067660e-07
-1.061260e-07
7.322960e-11
-4.906620e-08
4.653190e-11
-1.067820e-07
-6.911980e-11
-4.876380e-08
5.616260e-11
7.322960e-11
1.062830e-07
4.653190e-11
4.909770e-08
-6.911980e-11
1.067660e-07
5.616260e-11
4.888950e-08
-4.906620e-08
4.653190e-11
5.521720e-08
-4.116710e-11
-4.876380e-08
5.616260e-11
5.506010e-08
-6.350030e-11
4.653190e-11
4.909770e-08
-4.116710e-11
-5.519360e-08
5.616260e-11
4.888950e-08
-6.350030e-11
-5.517010e-08
5.521720e-08
-4.116710e-11
3.581380e-08
2.027120e-11
5.506010e-08
-6.350030e-11
3.506750e-08
-4.865790e-11
-4.116710e-11
-5.519360e-08
2.027120e-11
-3.582950e-08
-6.350030e-11
-5.517010e-08
-4.865790e-11
-3.512640e-08
3.581380e-08
2.027120e-11
1.741590e-08
-1.000380e-11
3.506750e-08
-4.865790e-11
1.837430e-08
4.454640e-11
2.027120e-11
-3.582950e-08
-1.000380e-11
-1.744340e-08
-4.865790e-11
-3.512640e-08
4.454640e-11
-1.828000e-08
1.741590e-08
-1.000380e-11
2.446640e-08
1.477360e-11
1.837430e-08
4.454640e-11
2.511050e-08
3.203890e-11
-1.000380e-11
-1.744340e-08
1.477360e-11
-2.443100e-08
4.454640e-11
-1.828000e-08
3.203890e-11
-2.503980e-08
2.446640e-08
1.477360e-11
-1.565230e-08
-5.649640e-12
2.511050e-08
3.203890e-11
-1.806790e-08
-1.575120e-11
1.477360e-11
-2.443100e-08
-5.649640e-12
1.562880e-08
3.203890e-11
-2.503980e-08
-1.575120e-11
1.803260e-08
-1.565230e-08
-5.649640e-12
1.358240e-08
-2.101000e-11
-1.806790e-08
-1.575120e-11
1.475680e-08
-2.623970e-11
-5.649640e-12
1.562880e-08
-2.101000e-11
-1.361770e-08
-1.575120e-11
1.803260e-08
-2.623970e-11
-1.480000e-08
1.358240e-08
-2.101000e-11
3.346500e-09
4.055300e-12
1.475680e-08
-2.623970e-11
4.595540e-09
5.177220e-13
-2.101000e-11
-1.361770e-08
4.055300e-12
-3.338640e-09
-2.623970e-11
-1.480000e-08
5.177220e-13
-4.571980e-09
3.346500e-09
4.055300e-12
-8.012740e-09
2.040560e-11
4.595540e-09
5.177220e-13
-8.947560e-09
2.938160e-11
4.055300e-12
-3.338640e-09
2.040560e-11
8.052020e-09
5.177220e-13
-4.571980e-09
2.938160e-11
8.994690e-09
-8.012740e-09
2.040560e-11
3.079410e-09
2.139470e-11
-8.947560e-09
2.938160e-11
2.443100e-09
3.431150e-11
2.040560e-11
8.052020e-09
2.139470e-11
-3.036200e-09
2.938160e-11
8.994690e-09
3.431150e-11
-2.376330e-09
3.079410e-09
2.139470e-11
-4.921550e-09
2.157330e-11
2.443100e-09
3.431150e-11
-4.913690e-09
1.951060e-11
2.139470e-11
-3.036200e-09
2.157330e-11
4.964760e-09
3.431150e-11
-2.376330e-09
1.951060e-11
4.949050e-09
-4.921550e-09
2.157330e-11
1.217070e-07
2.283170e-12
-4.913690e-09
1.951060e-11
1.240050e-07
-1.261340e-12
2.157330e-11
4.964760e-09
2.283170e-12
-1.217270e-07
1.951060e-11
4.949050e-09
-1.261340e-12
-1.240250e-07
1.217070e-07
2.283170e-12
2.681360e-07
-9.541220e-12
1.240050e-07
-1.261340e-12
2.655990e-07
-1.015540e-11
2.283170e-12
-1.217270e-07
-9.541220e-12
-2.681560e-07
-1.261340e-12
-1.240250e-07
-1.015540e-11
-2.656180e-07
2.681360e-07
-9.541220e-12
-1.035790e-06
-2.112350e-11
2.655990e-07
-1.015540e-11
-1.035730e-06
-2.092970e-11
-9.541220e-12
-2.681560e-07
-2.112350e-11
1.035740e-06
-1.015540e-11
-2.656180e-07
-2.092970e-11
1.035690e-06
</DataArray>
<DataArray type="Float32" Name="V2" format="ascii">
0.000000e+00
0.000000e+00
-1.351500e-03
-1.351500e-03
0.000000e+00
0.000000e+00
-1.351500e-03
-1.351510e-03
0.000000e+00
0.000000e+00
-1.351500e-03
-1.351500e-03
0.000000e+00
0.000000e+00
-1.351510e-03
-1.351500e-03
-1.351500e-03
-1.351500e-03
-5.958800e-03
-5.958800e-03
-1.351500e-03
-1.351510e-03
-5.958800e-03
-5.958800e-03
-1.351500e-03
-1.351500e-03
-5.958800e-03
-5.958800e-03
-1.351510e-03
-1.351500e-03
-5.958800e-03
-5.958800e-03
-5.958800e-03
-5.958800e-03
-1.513230e-02
-1.513220e-02
-5.958800e-03
-5.958800e-03
-1.513220e-02
-1.513220e-02
-5.958800e-03
-5.958800e-03
-1.513220e-02
-1.513230e-02
-5.958800e-03
-5.958800e-03
-1.513220e-02
-1.513220e-02
-1.513230e-02
-1.513220e-02
-2.483240e-02
-2.483240e-02
-1.513220e-02
-1.513220e-02
-2.483240e-02
-2.483240e-02
-1.513220e-02
-1.513230e-02
-2.483240e-02
-2.483240e-02
-1.513220e-02
-1.513220e-02
-2.483240e-02
-2.483240e-02
-2.483240e-02
-2.483240e-02
-2.846440e-02
-2.846440e-02
-2.483240e-02
-2.483240e-02
-2.846440e-02
-2.846440e-02
-2.483240e-02
-2.483240e-02
-2.846440e-02
-2.846440e-02
-2.483240e-02
-2.483240e-02
-2.846440e-02
-2.846440e-02
-2.846440e-02
-2.846440e-02
-2.443610e-02
-2.443610e-02
-2.846440e-02
-2.846440e-02
-2.443610e-02
-2.443600e-02
-2.846440e-02
-2.846440e-02
-2.443610e-02
-2.443610e-02
-2.846440e-02
-2.846440e-02
-2.443600e-02
-2.443610e-02
-2.443610e-02
-2.443610e-02
-1.670760e-02
-1.670770e-02
-2.443610e-02
-2.443600e-02
-1.670770e-02
-1.670770e-02
-2.443610e-02
-2.443610e-02
-1.670770e-02
-1.670760e-02
-2.443600e-02
-2.443610e-02
-1.670770e-02
-1.670770e-02
-1.670760e-02
-1.670770e-02
-9.724870e-03
-9.724830e-03
-1.670770e-02
-1.670770e-02
-9.724830e-03
-9.724800e-03
-1.670770e-02
-1.670760e-02
-9.724830e-03
-9.724870e-03
-1.670770e-02
-1.670770e-02
-9.724800e-03
-9.724830e-03
-9.724870e-03
-9.724830e-03
-5.282070e-03
-5.281980e-03
-9.724830e-03
-9.724800e-03
-5.281990e-03
-5.281900e-03
-9.724830e-03
-9.724870e-03
-5.281980e-03
-5.282070e-03
-9.724800e-03
-9.724830e-03
-5.281900e-03
-5.281980e-03
-5.282070e-03
-5.281980e-03
-2.947690e-03
-2.947820e-03
-5.281990e-03
-5.281900e-03
-2.947820e-03
-2.947950e-03
-5.281980e-03
-5.282070e-03
-2.947820e-03
-2.947690e-03
-5.281900e-03
-5.281980e-03
-2.947950e-03
-2.947820e-03
-2.947690e-03
-2.947820e-03
-2.021300e-03
-2.021340e-03
-2.947820e-03
-2.947950e-03
-2.021340e-03
-2.021380e-03
-2.947820e-03
-2.947690e-03
-2.021340e-03
-2.021300e-03
-2.947950e-03
-2.947820e-03
-2.021380e-03
-2.021340e-03
-2.021300e-03
-2.021340e-03
-1.724800e-03
-1.724690e-03
-2.021340e-03
-2.021380e-03
-1.724690e-03
-1.724590e-03
-2.021340e-03
-2.021300e-03
-1.724690e-03
-1.724800e-03
-2.021380e-03
-2.021340e-03
-1.724590e-03
-1.724690e-03
-1.724800e-03
-1.724690e-03
-1.529420e-03
-1.529390e-03
-1.724690e-03
-1.724590e-03
-1.529390e-03
-1.529350e-03
-1.724690e-03
-1.724800e-03
-1.529390e-03
-1.529420e-03
-1.724590e-03
-1.724690e-03
-1.529350e-03
-1.529390e-03
-1.529420e-03
-1.529390e-03
-1.386000e-03
-1.385950e-03
-1.529390e-03
-1.529350e-03
-1.385950e-03
-1.385890e-03
-1.529390e-03
-1.529420e-03
-1.385950e-03
-1.386000e-03
-1.529350e-03
-1.529390e-03
-1.385890e-03
-1.385950e-03
-1.386000e-03
-1.385950e-03
-1.218700e-03
-1.218670e-03
-1.385950e-03
-1.385890e-03
-1.218670e-03
-1.218640e-03
-1.385950e-03
-1.386000e-03
-1.218670e-03
-1.218700e-03
-1.385890e-03
-1.385950e-03
-1.218640e-03
-1.218670e-03
-1.218700e-03
-1.218670e-03
-1.007050e-03
-1.007060e-03
-1.218670e-03
-1.218640e-03
-1.007060e-03
-1.007080e-03
-1.218670e-03
-1.218700e-03
-1.007060e-03
-1.007050e-03
-1.218640e-03
-1.218670e-03
-1.007080e-03
-1.007060e-03
-1.007050e-03
-1.007060e-03
-9.432770e-04
-9.434450e-04
-1.007060e-03
-1.007080e-03
-9.434460e-04
-9.436130e-04
-1.007060e-03
-1.007050e-03
-9.434450e-04
-9.432770e-04
-1.007080e-03
-1.007060e-03
-9.436130e-04
-9.434450e-04
-9.432770e-04
-9.434450e-04
-1.046370e-03
-1.046470e-03
-9.434460e-04
-9.436130e-04
-1.046470e-03
-1.046570e-03
-9.434450e-04
-9.432770e-04
-1.046470e-03
-1.046370e-03
-9.436130e-04
-9.434450e-04
-1.046570e-03
-1.046470e-03
-1.046370e-03
-1.046470e-03
-1.065250e-03
-1.065300e-03
-1.046470e-03
-1.046570e-03
-1.065300e-03
-1.065360e-03
-1.046470e-03
-1.046370e-03
-1.065300e-03
-1.065250e-03
-1.046570e-03
-1.046470e-03
-1.065360e-03
-1.065300e-03
-1.065250e-03
-1.065300e-03
-1.010920e-03
-1.011060e-03
-1.065300e-03
-1.065360e-03
-1.011060e-03
-1.011190e-03
-1.065300e-03
-1.065250e-03
-1.011060e-03
-1.010920e-03
-1.065360e-03
-1.065300e-03
-1.011190e-03
-1.011060e-03
-1.010920e-03
-1.011060e-03
-9.593560e-04
-9.593290e-04
-1.011060e-03
-1.011190e-03
-9.593280e-04
-9.593200e-04
-1.011060e-03
-1.010920e-03
-9.593290e-04
-9.593560e-04
-1.011190e-03
-1.011060e-03
-9.593200e-04
-9.593280e-04
-9.593560e-04
-9.593290e-04
-7.732390e-04
-7.732620e-04
-9.593280e-04
-9.593200e-04
-7.732620e-04
-7.732860e-04
-9.593290e-04
-9.593560e-04
-7.732620e-04
-7.732390e-04
-9.593200e-04
-9.593280e-04
-7.732860e-04
-7.732620e-04
-7.732390e-04
-7.732620e-04
-6.134770e-04
-6.135610e-04
-7.732620e-04
-7.732860e-04
-6.135610e-04
-6.136180e-04
-7.732620e-04
-7.732390e-04
-6.135610e-04
-6.134770e-04
-7.732860e-04
-7.732620e-04
-6.136180e-04
-6.135610e-04
-6.134770e-04
-6.135610e-04
-6.455190e-04
-6.454290e-04
-6.135610e-04
-6.136180e-04
-6.454300e-04
-6.453600e-04
-6.135610e-04
-6.134770e-04
-6.454290e-04
-6.455190e-04
-6.136180e-04
-6.135610e-04
-6.453600e-04
-6.454300e-04
-6.455190e-04
-6.454290e-04
-7.128440e-04
-7.128630e-04
-6.454300e-04
-6.453600e-04
-7.128630e-04
-7.128840e-04
-6.454290e-04
-6.455190e-04
-7.128630e-04
-7.128430e-04
-6.453600e-04
-6.454300e-04
-7.128840e-04
-7.128630e-04
-7.128440e-04
-7.128630e-04
-8.364660e-04
-8.364610e-04
-7.128630e-04
-7.128840e-04
-8.364610e-04
-8.364600e-04
-7.128630e-04
-7.128430e-04
-8.364610e-04
-8.364660e-04
-7.128840e-04
-7.128630e-04
-8.364600e-04
-8.364610e-04
-8.364660e-04
-8.364610e-04
-9.061700e-04
-9.062140e-04
-8.364610e-04
-8.364600e-04
-9.062140e-04
-9.062510e-04
-8.364610e-04
-8.364660e-04
-9.062140e-04
-9.061700e-04
-8.364600e-04
-8.364610e-04
-9.062510e-04
-9.062140e-04
-9.061700e-04
-9.062140e-04
-8.473640e-04
-8.474590e-04
-9.062140e-04
-9.062510e-04
-8.474590e-04
-8.475520e-04
-9.062140e-04
-9.061700e-04
-8.474590e-04
-8.473640e-04
-9.062510e-04
-9.062140e-04
-8.475520e-04
-8.474590e-04
-8.473640e-04
-8.474590e-04
-8.461760e-04
-8.452570e-04
-8.474590e-04
-8.475520e-04
-8.452570e-04
-8.443820e-04
-8.474590e-04
-8.473640e-04
-8.452570e-04
-8.461760e-04
-8.475520e-04
-8.474590e-04
-8.443820e-04
-8.452570e-04
-8.461760e-04
-8.452570e-04
-9.169550e-04
-9.148920e-04
-8.452570e-04
-8.443820e-04
-9.148920e-04
-9.127930e-04
-8.452570e-04
-8.461760e-04
-9.148920e-04
-9.169550e-04
-8.443820e-04
-8.452570e-04
-9.127930e-04
-9.148920e-04
0.000000e+00
0.000000e+00
-1.351500e-03
-1.351510e-03
0.000000e+00
0.000000e+00
-1.351500e-03
-1.351500e-03
0.000000e+00
0.000000e+00
-1.351510e-03
-1.351500e-03
0.000000e+00
0.000000e+00
-1.351500e-03