<?xml version="1.0"?>
<VTKFile type="UnstructuredGrid" version="0.1" byte_order="LittleEndian" compressor="vtkZLibDataCompressor">
<UnstructuredGrid>
<Piece NumberOfPoints="960" NumberOfCells="120">
<Points>
<DataArray type="Float32" NumberOfComponents="3" format="ascii">
-4.000000e+02 -6.000000e+03 -4.000000e+02
0.000000e+00 -6.000000e+03 -4.000000e+02
-4.000000e+02 -5.600000e+03 -4.000000e+02
6.069400e-11 -5.600000e+03 -4.000000e+02
-4.000000e+02 -6.000000e+03 0.000000e+00
0.000000e+00 -6.000000e+03 0.000000e+00
-4.000000e+02 -5.600000e+03 -5.411190e-11
-1.399660e-11 -5.600000e+03 3.076450e-12
0.000000e+00 -6.000000e+03 -4.000000e+02
4.000000e+02 -6.000000e+03 -4.000000e+02
6.069400e-11 -5.600000e+03 -4.000000e+02
4.000000e+02 -5.600000e+03 -4.000000e+02
0.000000e+00 -6.000000e+03 0.000000e+00
4.000000e+02 -6.000000e+03 0.000000e+00
-1.399660e-11 -5.600000e+03 3.076450e-12
4.000000e+02 -5.600000e+03 -5.466230e-11
-4.000000e+02 -5.600000e+03 -4.000000e+02
6.069400e-11 -5.600000e+03 -4.000000e+02
-4.000000e+02 -5.200000e+03 -4.000000e+02
3.603190e-11 -5.200000e+03 -4.000000e+02
-4.000000e+02 -5.600000e+03 -5.411190e-11
-1.399660e-11 -5.600000e+03 3.076450e-12
-4.000000e+02 -5.200000e+03 -3.322320e-11
3.683240e-11 -5.200000e+03 -8.510830e-11
6.069400e-11 -5.600000e+03 -4.000000e+02
4.000000e+02 -5.600000e+03 -4.000000e+02
3.603190e-11 -5.200000e+03 -4.000000e+02
4.000000e+02 -5.200000e+03 -4.000000e+02
-1.399660e-11 -5.600000e+03 3.076450e-12
4.000000e+02 -5.600000e+03 -5.466230e-11
3.683240e-11 -5.200000e+03 -8.510830e-11
4.000000e+02 -5.200000e+03 -2.010000e-13
-4.000000e+02 -5.200000e+03 -4.000000e+02
3.603190e-11 -5.200000e+03 -4.000000e+02
-4.000000e+02 -4.800010e+03 -4.000000e+02
-1.099210e-10 -4.800010e+03 -4.000000e+02
-4.000000e+02 -5.200000e+03 -3.322320e-11
3.683240e-11 -5.200000e+03 -8.510830e-11
-4.000000e+02 -4.800010e+03 -1.731150e-10
-1.073180e-10 -4.800010e+03 -2.068550e-10
3.603190e-11 -5.200000e+03 -4.000000e+02
4.000000e+02 -5.200000e+03 -4.000000e+02
-1.099210e-10 -4.800010e+03 -4.000000e+02
4.000000e+02 -4.800010e+03 -4.000000e+02
3.683240e-11 -5.200000e+03 -8.510830e-11
4.000000e+02 -5.200000e+03 -2.010000e-13
-1.073180e-10 -4.800010e+03 -2.068550e-10
4.000000e+02 -4.800010e+03 -1.585100e-10
-4.000000e+02 -4.800010e+03 -4.000000e+02
-1.099210e-10 -4.800010e+03 -4.000000e+02
-4.000000e+02 -4.400010e+03 -4.000000e+02
-9.195790e-11 -4.400010e+03 -4.000000e+02
-4.000000e+02 -4.800010e+03 -1.731150e-10
-1.073180e-10 -4.800010e+03 -2.068550e-10
-4.000000e+02 -4.400010e+03 -3.501050e-10
-9.111810e-11 -4.400010e+03 -1.980090e-10
-1.099210e-10 -4.800010e+03 -4.000000e+02
4.000000e+02 -4.800010e+03 -4.000000e+02
-9.195790e-11 -4.400010e+03 -4.000000e+02
4.000000e+02 -4.400010e+03 -4.000000e+02
-1.073180e-10 -4.800010e+03 -2.068550e-10
4.000000e+02 -4.800010e+03 -1.585100e-10
-9.111810e-11 -4.400010e+03 -1.980090e-10
4.000000e+02 -4.400010e+03 -4.820930e-10
-4.000000e+02 -4.400010e+03 -4.000000e+02
-9.195790e-11 -4.400010e+03 -4.000000e+02
-4.000000e+02 -4.000010e+03 -4.000000e+02
2.455350e-11 -4.000010e+03 -4.000000e+02
-4.000000e+02 -4.400010e+03 -3.501050e-10
-9.111810e-11 -4.400010e+03 -1.980090e-10
-4.000000e+02 -4.000010e+03 -5.087980e-10
9.558010e-11 -4.000010e+03 -3.863950e-10
-9.195790e-11 -4.400010e+03 -4.000000e+02
4.000000e+02 -4.400010e+03 -4.000000e+02
2.455350e-11 -4.000010e+03 -4.000000e+02
4.000000e+02 -4.000010e+03 -4.000000e+02
-9.111810e-11 -4.400010e+03 -1.980090e-10
4.000000e+02 -4.400010e+03 -4.820930e-10
9.558010e-11 -4.000010e+03 -3.863950e-10
4.000000e+02 -4.000010e+03 -4.227540e-10
-4.000000e+02 -4.000010e+03 -4.000000e+02
2.455350e-11 -4.000010e+03 -4.000000e+02
-4.000000e+02 -3.600010e+03 -4.000000e+02
-8.010730e-11 -3.600010e+03 -4.000000e+02
-4.000000e+02 -4.000010e+03 -5.087980e-10
9.558010e-11 -4.000010e+03 -3.863950e-10
-4.000000e+02 -3.600010e+03 -4.110870e-10
-6.833040e-11 -3.600010e+03 -4.191410e-10
2.455350e-11 -4.000010e+03 -4.000000e+02
4.000000e+02 -4.000010e+03 -4.000000e+02
-8.010730e-11 -3.600010e+03 -4.000000e+02
4.000000e+02 -3.600010e+03 -4.000000e+02
9.558010e-11 -4.000010e+03 -3.863950e-10
4.000000e+02 -4.000010e+03 -4.227540e-10
-6.833040e-11 -3.600010e+03 -4.191410e-10
4.000000e+02 -3.600010e+03 -3.377100e-10
-4.000000e+02 -3.600010e+03 -4.000000e+02
-8.010730e-11 -3.600010e+03 -4.000000e+02
-4.000000e+02 -3.200010e+03 -4.000000e+02
-1.101250e-10 -3.200010e+03 -4.000000e+02
-4.000000e+02 -3.600010e+03 -4.110870e-10
-6.833040e-11 -3.600010e+03 -4.191410e-10
-4.000000e+02 -3.200010e+03 -3.167920e-10
-1.031460e-10 -3.200010e+03 -3.683360e-10
-8.010730e-11 -3.600010e+03 -4.000000e+02
4.000000e+02 -3.600010e+03 -4.000000e+02
-1.101250e-10 -3.200010e+03 -4.000000e+02
4.000000e+02 -3.200010e+03 -4.000000e+02
-6.833040e-11 -3.600010e+03 -4.191410e-10
4.000000e+02 -3.600010e+03 -3.377100e-10
-1.031460e-10 -3.200010e+03 -3.683360e-10
4.000000e+02 -3.200010e+03 -3.487320e-10
-4.000000e+02 -3.200010e+03 -4.000000e+02
-1.101250e-10 -3.200010e+03 -4.000000e+02
-4.000000e+02 -2.800010e+03 -4.000000e+02
-5.906780e-11 -2.800010e+03 -4.000000e+02
-4.000000e+02 -3.200010e+03 -3.167920e-10
-1.031460e-10 -3.200010e+03 -3.683360e-10
-4.000000e+02 -2.800010e+03 -3.642840e-10
-2.557470e-15 -2.800010e+03 -2.414060e-10
-1.101250e-10 -3.200010e+03 -4.000000e+02
4.000000e+02 -3.200010e+03 -4.000000e+02
-5.906780e-11 -2.800010e+03 -4.000000e+02
4.000000e+02 -2.800010e+03 -4.000000e+02
-1.031460e-10 -3.200010e+03 -3.683360e-10
4.000000e+02 -3.200010e+03 -3.487320e-10
-2.557470e-15 -2.800010e+03 -2.414060e-10
4.000000e+02 -2.800010e+03 -1.856980e-10
-4.000000e+02 -2.800010e+03 -4.000000e+02
-5.906780e-11 -2.800010e+03 -4.000000e+02
-4.000000e+02 -2.400020e+03 -4.000000e+02
-1.307120e-10 -2.400020e+03 -4.000000e+02
-4.000000e+02 -2.800010e+03 -3.642840e-10
-2.557470e-15 -2.800010e+03 -2.414060e-10
-4.000000e+02 -2.400020e+03 -3.278430e-10
-7.268710e-11 -2.400020e+03 -1.337740e-10
-5.906780e-11 -2.800010e+03 -4.000000e+02
4.000000e+02 -2.800010e+03 -4.000000e+02
-1.307120e-10 -2.400020e+03 -4.000000e+02
4.000000e+02 -2.400020e+03 -4.000000e+02
-2.557470e-15 -2.800010e+03 -2.414060e-10
4.000000e+02 -2.800010e+03 -1.856980e-10
-7.268710e-11 -2.400020e+03 -1.337740e-10
4.000000e+02 -2.400020e+03 -4.191670e-11
-4.000000e+02 -2.400020e+03 -4.000000e+02
-1.307120e-10 -2.400020e+03 -4.000000e+02
-4.000000e+02 -2.000020e+03 -4.000000e+02
-1.965130e-10 -2.000020e+03 -4.000000e+02
-4.000000e+02 -2.400020e+03 -3.278430e-10
-7.268710e-11 -2.400020e+03 -1.337740e-10
-4.000000e+02 -2.000020e+03 -2.211070e-10
-2.195450e-10 -2.000020e+03 -1.583090e-10
-1.307120e-10 -2.400020e+03 -4.000000e+02
4.000000e+02 -2.400020e+03 -4.000000e+02
-1.965130e-10 -2.000020e+03 -4.000000e+02
4.000000e+02 -2.000020e+03 -4.000000e+02
-7.268710e-11 -2.400020e+03 -1.337740e-10
4.000000e+02 -2.400020e+03 -4.191670e-11
-2.195450e-10 -2.000020e+03 -1.583090e-10
4.000000e+02 -2.000020e+03 -3.898320e-11
-4.000000e+02 -2.000020e+03 -4.000000e+02
-1.965130e-10 -2.000020e+03 -4.000000e+02
-4.000000e+02 -1.600020e+03 -4.000000e+02
1.803760e-12 -1.600020e+03 -4.000000e+02
-4.000000e+02 -2.000020e+03 -2.211070e-10
-2.195450e-10 -2.000020e+03 -1.583090e-10
-4.000000e+02 -1.600020e+03 -2.128580e-10
-1.382710e-11 -1.600020e+03 -1.198540e-10
-1.965130e-10 -2.000020e+03 -4.000000e+02
4.000000e+02 -2.000020e+03 -4.000000e+02
1.803760e-12 -1.600020e+03 -4.000000e+02
4.000000e+02 -1.600020e+03 -4.000000e+02
-2.195450e-10 -2.000020e+03 -1.583090e-10
4.000000e+02 -2.000020e+03 -3.898320e-11
-1.382710e-11 -1.600020e+03 -1.198540e-10
4.000000e+02 -1.600020e+03 -2.138560e-10
-4.000000e+02 -1.600020e+03 -4.000000e+02
1.803760e-12 -1.600020e+03 -4.000000e+02
-4.000000e+02 -1.200040e+03 -4.000000e+02
1.322870e-10 -1.200040e+03 -4.000000e+02
-4.000000e+02 -1.600020e+03 -2.128580e-10
-1.382710e-11 -1.600020e+03 -1.198540e-10
-4.000000e+02 -1.200040e+03 1.309390e-13
1.685360e-10 -1.200040e+03 -8.354370e-11
1.803760e-12 -1.600020e+03 -4.000000e+02
4.000000e+02 -1.600020e+03 -4.000000e+02
1.322870e-10 -1.200040e+03 -4.000000e+02
4.000000e+02 -1.200040e+03 -4.000000e+02
-1.382710e-11 -1.600020e+03 -1.198540e-10
4.000000e+02 -1.600020e+03 -2.138560e-10
1.685360e-10 -1.200040e+03 -8.354370e-11
4.000000e+02 -1.200040e+03 -9.689260e-11
-4.000000e+02 -1.200040e+03 -4.000000e+02
1.322870e-10 -1.200040e+03 -4.000000e+02
-4.000000e+02 -8.000540e+02 -4.000000e+02
1.210940e-10 -8.000540e+02 -4.000000e+02
-4.000000e+02 -1.200040e+03 1.309390e-13
1.685360e-10 -1.200040e+03 -8.354370e-11
-4.000000e+02 -8.000540e+02 5.727660e-11
1.517750e-10 -8.000540e+02 -7.330840e-11
1.322870e-10 -1.200040e+03 -4.000000e+02
4.000000e+02 -1.200040e+03 -4.000000e+02
1.210940e-10 -8.000540e+02 -4.000000e+02
4.000000e+02 -8.000540e+02 -4.000000e+02
1.685360e-10 -1.200040e+03 -8.354370e-11
4.000000e+02 -1.200040e+03 -9.689260e-11
1.517750e-10 -8.000540e+02 -7.330840e-11
4.000000e+02 -8.000540e+02 -5.525960e-11
-4.000000e+02 -8.000540e+02 -4.000000e+02
1.210940e-10 -8.000540e+02 -4.000000e+02
-4.000000e+02 -4.000830e+02 -4.000000e+02
1.705490e-10 -4.000830e+02 -4.000000e+02
-4.000000e+02 -8.000540e+02 5.727660e-11
1.517750e-10 -8.000540e+02 -7.330840e-11
-4.000000e+02 -4.000830e+02 -1.655280e-10
3.306920e-10 -4.000830e+02 -2.108040e-10
1.210940e-10 -8.000540e+02 -4.000000e+02
4.000000e+02 -8.000540e+02 -4.000000e+02
1.705490e-10 -4.000830e+02 -4.000000e+02
4.000000e+02 -4.000830e+02 -4.000000e+02
1.517750e-10 -8.000540e+02 -7.330840e-11
4.000000e+02 -8.000540e+02 -5.525960e-11
3.306920e-10 -4.000830e+02 -2.108040e-10
4.000000e+02 -4.000830e+02 -3.651660e-10
-4.000000e+02 -4.000830e+02 -4.000000e+02
1.705490e-10 -4.000830e+02 -4.000000e+02
-4.000000e+02 -1.221200e-01 -4.000000e+02
2.708910e-10 -1.221200e-01 -4.000000e+02
-4.000000e+02 -4.000830e+02 -1.655280e-10
3.306920e-10 -4.000830e+02 -2.108040e-10
-4.000000e+02 -1.221200e-01 -9.133120e-11
3.788920e-10 -1.221200e-01 -1.928110e-10
1.705490e-10 -4.000830e+02 -4.000000e+02
4.000000e+02 -4.000830e+02 -4.000000e+02
[...]
<PointData>
<DataArray type="Float32" Name="V1" format="ascii">
0.000000e+00
0.000000e+00
-1.626110e-09
-2.213150e-11
0.000000e+00
0.000000e+00
-1.296180e-10
-1.423030e-10
0.000000e+00
0.000000e+00
-2.213150e-11
1.370810e-09
0.000000e+00
0.000000e+00
-1.423030e-10
-4.045650e-10
-1.626110e-09
-2.213150e-11
4.220830e-08
9.631400e-11
-1.296180e-10
-1.423030e-10
4.279350e-08
-4.271820e-11
-2.213150e-11
1.370810e-09
9.631400e-11
-4.203150e-08
-1.423030e-10
-4.045650e-10
-4.271820e-11
-4.279750e-08
4.220830e-08
9.631400e-11
-2.389290e-08
2.585370e-10
4.279350e-08
-4.271820e-11
-2.443890e-08
-7.981900e-11
9.631400e-11
-4.203150e-08
2.585370e-10
2.419140e-08
-4.271820e-11
-4.279750e-08
-7.981900e-11
2.432890e-08
-2.389290e-08
2.585370e-10
2.099020e-08
2.835040e-10
-2.443890e-08
-7.981900e-11
2.146940e-08
-1.509810e-10
2.585370e-10
2.419140e-08
2.835040e-10
-2.057780e-08
-7.981900e-11
2.432890e-08
-1.509810e-10
-2.177580e-08
2.099020e-08
2.835040e-10
-6.366990e-08
-9.598490e-11
2.146940e-08
-1.509810e-10
-6.355990e-08
4.497410e-11
2.835040e-10
-2.057780e-08
-9.598490e-11
6.340670e-08
-1.509810e-10
-2.177580e-08
4.497410e-11
6.349310e-08
-6.366990e-08
-9.598490e-11
1.084780e-07
-1.150570e-10
-6.355990e-08
4.497410e-11
1.083680e-07
1.242270e-10
-9.598490e-11
6.340670e-08
-1.150570e-10
-1.086670e-07
4.497410e-11
6.349310e-08
1.242270e-10
-1.081090e-07
1.084780e-07
-1.150570e-10
4.964760e-08
-8.922230e-12
1.083680e-07
1.242270e-10
5.024070e-08
-1.972320e-11
-1.150570e-10
-1.086670e-07
-8.922230e-12
-4.962790e-08
1.242270e-10
-1.081090e-07
-1.972320e-11
-5.026420e-08
4.964760e-08
-8.922230e-12
-1.836650e-07
-1.439900e-10
5.024070e-08
-1.972320e-11
-1.832170e-07
-2.958440e-12
-8.922230e-12
-4.962790e-08
-1.439900e-10
1.836060e-07
-1.972320e-11
-5.026420e-08
-2.958440e-12
1.832170e-07
-1.836650e-07
-1.439900e-10
2.523620e-08
1.576760e-10
-1.832170e-07
-2.958440e-12
2.420710e-08
1.779880e-10
-1.439900e-10
1.836060e-07
1.576760e-10
-2.499660e-08
-2.958440e-12
1.832170e-07
1.779880e-10
-2.394790e-08
2.523620e-08
1.576760e-10
1.008070e-07
-2.082110e-10
2.420710e-08
1.779880e-10
1.001910e-07
8.444850e-11
1.576760e-10
-2.499660e-08
-2.082110e-10
-1.009450e-07
1.779880e-10
-2.394790e-08
8.444850e-11
-9.988430e-08
1.008070e-07
-2.082110e-10
-2.708620e-08
-1.300380e-10
1.001910e-07
8.444850e-11
-2.713330e-08
-9.408560e-11
-2.082110e-10
-1.009450e-07
-1.300380e-10
2.690950e-08
8.444850e-11
-9.988430e-08
-9.408560e-11
2.687800e-08
-2.708620e-08
-1.300380e-10
-7.726010e-09
1.656260e-12
-2.713330e-08
-9.408560e-11
-7.777070e-09
1.165410e-10
-1.300380e-10
2.690950e-08
1.656260e-12
7.674950e-09
-9.408560e-11
2.687800e-08
1.165410e-10
7.997030e-09
-7.726010e-09
1.656260e-12
-7.846990e-08
1.221780e-10
-7.777070e-09
1.165410e-10
-7.896080e-08
2.591290e-11
1.656260e-12
7.674950e-09
1.221780e-10
7.861130e-08
1.165410e-10
7.997030e-09
2.591290e-11
7.889410e-08
-7.846990e-08
1.221780e-10
-2.529510e-09
9.637100e-11
-7.896080e-08
2.591290e-11
-2.812310e-09
-1.354120e-11
1.221780e-10
7.861130e-08
9.637100e-11
2.517730e-09
2.591290e-11
7.889410e-08
-1.354120e-11
2.682700e-09
-2.529510e-09
9.637100e-11
6.432970e-08
-1.717700e-11
-2.812310e-09
-1.354120e-11
6.437290e-08
1.491140e-10
9.637100e-11
2.517730e-09
-1.717700e-11
-6.456540e-08
-1.354120e-11
2.682700e-09
1.491140e-10
-6.427870e-08
6.432970e-08
-1.717700e-11
2.216470e-08
1.188670e-10
6.437290e-08
1.491140e-10
2.231780e-08
-1.480050e-10
-1.717700e-11
-6.456540e-08
1.188670e-10
-2.194080e-08
1.491140e-10
-6.427870e-08
-1.480050e-10
-2.254960e-08
2.216470e-08
1.188670e-10
-5.213390e-08
-2.332520e-11
2.231780e-08
-1.480050e-10
-5.210640e-08
1.817840e-10
1.188670e-10
-2.194080e-08
-2.332520e-11
5.226740e-08
-1.480050e-10
-2.254960e-08
1.817840e-10
5.254630e-08
-5.213390e-08
-2.332520e-11
-8.991940e-08
1.193780e-11
-5.210640e-08
1.817840e-10
-8.999800e-08
-8.979610e-11
-2.332520e-11
5.226740e-08
1.193780e-11
8.986050e-08
1.817840e-10
5.254630e-08
-8.979610e-11
8.986840e-08
-8.991940e-08
1.193780e-11
-1.581730e-08
8.487870e-11
-8.999800e-08
-8.979610e-11
-1.698390e-08
3.030610e-11
1.193780e-11
8.986050e-08
8.487870e-11
1.605690e-08
-8.979610e-11
8.986840e-08
3.030610e-11
1.698390e-08
-1.581730e-08
8.487870e-11
-1.772230e-08
-4.506080e-12
-1.698390e-08
3.030610e-11
-1.890850e-08
2.689510e-11
8.487870e-11
1.605690e-08
-4.506080e-12
1.774980e-08
3.030610e-11
1.698390e-08
2.689510e-11
1.899880e-08
-1.772230e-08
-4.506080e-12
-6.470680e-08
-7.600700e-13
-1.890850e-08
2.689510e-11
-6.137210e-08
-4.482530e-12
-4.506080e-12
1.774980e-08
-7.600700e-13
6.469500e-08
2.689510e-11
1.899880e-08
-4.482530e-12
6.137210e-08
-6.470680e-08
-7.600700e-13
7.749580e-09
-4.889530e-12
-6.137210e-08
-4.482530e-12
8.326970e-09
-9.319580e-12
-7.600700e-13
6.469500e-08
-4.889530e-12
-7.765290e-09
-4.482530e-12
6.137210e-08
-9.319580e-12
-8.358390e-09
7.749580e-09
-4.889530e-12
2.401470e-08
-1.727550e-12
8.326970e-09
-9.319580e-12
2.137910e-08
8.140910e-12
-4.889530e-12
-7.765290e-09
-1.727550e-12
-2.401860e-08
-9.319580e-12
-8.358390e-09
8.140910e-12
-2.136340e-08
2.401470e-08
-1.727550e-12
-8.397670e-09
5.177950e-12
2.137910e-08
8.140910e-12
-8.075590e-09
4.815060e-12
-1.727550e-12
-2.401860e-08
5.177950e-12
8.417300e-09
8.140910e-12
-2.136340e-08
4.815060e-12
8.083440e-09
-8.397670e-09
5.177950e-12
-4.065290e-09
-3.785170e-12
-8.075590e-09
4.815060e-12
-3.782480e-09
-1.140740e-11
5.177950e-12
8.417300e-09
-3.785170e-12
4.053500e-09
4.815060e-12
8.083440e-09
-1.140740e-11
3.778560e-09
-4.065290e-09
-3.785170e-12
8.452660e-09
6.304480e-14
-3.782480e-09
-1.140740e-11
8.884710e-09
3.626020e-12
-3.785170e-12
4.053500e-09
6.304480e-14
-8.448730e-09
-1.140740e-11
3.778560e-09
3.626020e-12
-8.872930e-09
8.452660e-09
6.304480e-14
4.215330e-08
1.571230e-11
8.884710e-09
3.626020e-12
3.971410e-08
1.796420e-11
6.304480e-14
-8.448730e-09
1.571230e-11
-4.211790e-08
3.626020e-12
-8.872930e-09
1.796420e-11
-3.966700e-08
4.215330e-08
1.571230e-11
-1.823210e-07
1.549880e-11
3.971410e-08
1.796420e-11
-1.714180e-07
1.781130e-11
1.571230e-11
-4.211790e-08
1.549880e-11
1.823570e-07
1.796420e-11
-3.966700e-08
1.781130e-11
1.714530e-07
-1.823210e-07
1.549880e-11
-9.552360e-07
8.781850e-13
-1.714180e-07
1.781130e-11
-9.890270e-07
4.092230e-12
1.549880e-11
1.823570e-07
8.781850e-13
9.552440e-07
1.781130e-11
1.714530e-07
4.092230e-12
9.890390e-07
-9.552360e-07
8.781850e-13
3.225230e-06
-3.260220e-12
-9.890270e-07
4.092230e-12
3.270970e-06
-4.320460e-12
8.781850e-13
9.552440e-07
-3.260220e-12
-3.225240e-06
4.092230e-12
9.890390e-07
-4.320460e-12
-3.270980e-06
0.000000e+00
0.000000e+00
-1.296180e-10
-1.423030e-10
0.000000e+00
0.000000e+00
-1.429720e-09
-1.846760e-10
0.000000e+00
0.000000e+00
-1.423030e-10
-4.045650e-10
0.000000e+00
0.000000e+00
-1.846760e-10
1.150850e-09
-1.296180e-10
-1.423030e-10
4.279350e-08
-4.271820e-11
-1.429720e-09
-1.846760e-10
4.231430e-08
7.002970e-11
-1.423030e-10
-4.045650e-10
-4.271820e-11
-4.279750e-08
-1.846760e-10
1.150850e-09
7.002970e-11
-4.224360e-08
4.279350e-08
-4.271820e-11
-2.443890e-08
-7.981900e-11
4.231430e-08
7.002970e-11
-2.376720e-08
2.858830e-10
-4.271820e-11
-4.279750e-08
-7.981900e-11
2.432890e-08
7.002970e-11
-4.224360e-08
2.858830e-10
2.444670e-08
-2.443890e-08
-7.981900e-11
2.146940e-08
-1.509810e-10
-2.376720e-08
2.858830e-10
2.110410e-08
9.042130e-11
-7.981900e-11
2.432890e-08
-1.509810e-10
-2.177580e-08
2.858830e-10
2.444670e-08
9.042130e-11
-2.059750e-08
2.146940e-08
-1.509810e-10
-6.355990e-08
4.497410e-11
2.110410e-08
9.042130e-11
-6.350880e-08
-1.669100e-10
-1.509810e-10
-2.177580e-08
4.497410e-11
6.349310e-08
9.042130e-11
-2.059750e-08
-1.669100e-10
6.333990e-08
-6.355990e-08
4.497410e-11
1.083680e-07
1.242270e-10
-6.350880e-08
-1.669100e-10
1.087060e-07
1.249580e-10
4.497410e-11
6.349310e-08
1.242270e-10
-1.081090e-07
-1.669100e-10
6.333990e-08
1.249580e-10
-1.083680e-07
1.083680e-07
1.242270e-10
5.024070e-08
-1.972320e-11
1.087060e-07
1.249580e-10
4.949050e-08
-9.685390e-11
1.242270e-10
-1.081090e-07
-1.972320e-11
-5.026420e-08
1.249580e-10
-1.083680e-07
-9.685390e-11
-4.960830e-08
5.024070e-08
-1.972320e-11
-1.832170e-07
-2.958440e-12
4.949050e-08
-9.685390e-11
-1.837350e-07
-1.849250e-10
-1.972320e-11
-5.026420e-08
-2.958440e-12
1.832170e-07
-9.685390e-11
-4.960830e-08
-1.849250e-10
1.833970e-07
-1.832170e-07
-2.958440e-12
2.420710e-08
1.779880e-10
-1.837350e-07
-1.849250e-10
2.507910e-08
-2.861310e-11
-2.958440e-12
1.832170e-07
1.779880e-10
-2.394790e-08
-1.849250e-10
1.833970e-07
-2.861310e-11
-2.486700e-08
2.420710e-08
1.779880e-10
1.001910e-07
8.444850e-11
2.507910e-08
-2.861310e-11
1.005760e-07
-1.317160e-10
1.779880e-10
-2.394790e-08
8.444850e-11
-9.988430e-08
-2.861310e-11
-2.486700e-08
-1.317160e-10
-1.006820e-07
1.001910e-07
8.444850e-11
-2.713330e-08
-9.408560e-11
1.005760e-07
-1.317160e-10
-2.698410e-08
-1.165140e-10
8.444850e-11
-9.988430e-08
-9.408560e-11
2.687800e-08
-1.317160e-10
-1.006820e-07
-1.165140e-10
2.683090e-08
-2.713330e-08
-9.408560e-11
-7.777070e-09
1.165410e-10
-2.698410e-08
-1.165140e-10
-7.722080e-09
-8.846580e-11
-9.408560e-11
2.687800e-08
1.165410e-10
7.997030e-09
-1.165140e-10
2.683090e-08
-8.846580e-11
7.470700e-09
-7.777070e-09
1.165410e-10
-7.896080e-08
2.591290e-11
-7.722080e-09
-8.846580e-11
-7.864270e-08
-1.345160e-11
1.165410e-10
7.997030e-09
2.591290e-11
7.889410e-08
-8.846580e-11
7.470700e-09
-1.345160e-11
7.866230e-08
-7.896080e-08
2.591290e-11
-2.812310e-09
-1.354120e-11
-7.864270e-08
-1.345160e-11
-2.776960e-09
8.583310e-13
2.591290e-11
7.889410e-08
-1.354120e-11
2.682700e-09
-1.345160e-11
7.866230e-08
8.583310e-13
2.780890e-09
-2.812310e-09
-1.354120e-11
6.437290e-08
1.491140e-10
-2.776960e-09
8.583310e-13
6.434940e-08
-2.566630e-11
-1.354120e-11
2.682700e-09
1.491140e-10
-6.427870e-08
8.583310e-13
2.780890e-09
-2.566630e-11
-6.444760e-08
6.437290e-08
1.491140e-10
2.231780e-08
-1.480050e-10
6.434940e-08
-2.566630e-11
2.212540e-08
9.525920e-11
1.491140e-10
-6.427870e-08
-1.480050e-10
-2.254960e-08
-2.566630e-11
-6.444760e-08
9.525920e-11
-2.207430e-08
2.231780e-08
-1.480050e-10
-5.210640e-08
1.817840e-10
2.212540e-08
9.525920e-11
-5.253840e-08
-2.273270e-11
-1.480050e-10
-2.254960e-08
1.817840e-10
5.254630e-08
9.525920e-11
-2.207430e-08
-2.273270e-11
5.223600e-08
-5.210640e-08
1.817840e-10
-8.999800e-08
-8.979610e-11
-5.253840e-08
-2.273270e-11
-8.995090e-08
9.789780e-11
1.817840e-10
5.254630e-08
-8.979610e-11
8.986840e-08
-2.273270e-11
5.223600e-08
9.789780e-11
8.993910e-08
-8.999800e-08
-8.979610e-11
-1.698390e-08
3.030610e-11
-8.995090e-08
9.789780e-11
-1.613550e-08
-7.076930e-12
-8.979610e-11
8.986840e-08
3.030610e-11
1.698390e-08
9.789780e-11
8.993910e-08
-7.076930e-12
1.616300e-08
-1.698390e-08
3.030610e-11
-1.890850e-08
2.689510e-11
-1.613550e-08
-7.076930e-12
-1.758090e-08
4.344640e-11
3.030610e-11
1.698390e-08
2.689510e-11
1.899880e-08
-7.076930e-12
1.616300e-08
4.344640e-11
1.767910e-08
-1.890850e-08
2.689510e-11
-6.137210e-08
-4.482530e-12
-1.758090e-08
4.344640e-11
-6.469110e-08
-5.804980e-12
2.689510e-11
1.899880e-08
-4.482530e-12
6.137210e-08
4.344640e-11
1.767910e-08
-5.804980e-12
6.467540e-08
-6.137210e-08
-4.482530e-12
8.326970e-09
-9.319580e-12
-6.469110e-08
-5.804980e-12
7.745650e-09
-3.343810e-12
-4.482530e-12
6.137210e-08
-9.319580e-12
-8.358390e-09
-5.804980e-12
6.467540e-08
-3.343810e-12
-7.765290e-09
8.326970e-09
-9.319580e-12
2.137910e-08
8.140910e-12
7.745650e-09
-3.343810e-12
2.403040e-08
2.204720e-11
-9.319580e-12
-8.358390e-09
8.140910e-12
-2.136340e-08
-3.343810e-12
-7.765290e-09
2.204720e-11
-2.398320e-08
2.137910e-08
8.140910e-12
-8.075590e-09
4.815060e-12
2.403040e-08
2.204720e-11
-8.409450e-09
5.469660e-12
8.140910e-12
-2.136340e-08
4.815060e-12
8.083440e-09
2.204720e-11
-2.398320e-08
5.469660e-12
8.417300e-09
-8.075590e-09
4.815060e-12
-3.782480e-09
-1.140740e-11
-8.409450e-09
5.469660e-12
-4.057430e-09
-9.490530e-12
4.815060e-12
8.083440e-09
-1.140740e-11
3.778560e-09
5.469660e-12
8.417300e-09
-9.490530e-12
4.049580e-09
-3.782480e-09
-1.140740e-11
8.884710e-09
3.626020e-12
-4.057430e-09
-9.490530e-12
8.464440e-09
6.007920e-12
-1.140740e-11
3.778560e-09
3.626020e-12
-8.872930e-09
-9.490530e-12
4.049580e-09
6.007920e-12
-8.448730e-09
8.884710e-09
3.626020e-12
3.971410e-08
1.796420e-11
8.464440e-09
6.007920e-12
4.216510e-08
1.963150e-11
3.626020e-12
-8.872930e-09
1.796420e-11
-3.966700e-08
6.007920e-12
-8.448730e-09
1.963150e-11
-4.212190e-08
3.971410e-08
1.796420e-11
-1.714180e-07
1.781130e-11
4.216510e-08
1.963150e-11
-1.823130e-07
1.746090e-11
1.796420e-11
-3.966700e-08
1.781130e-11
1.714530e-07
1.963150e-11
-4.212190e-08
1.746090e-11
1.823530e-07
-1.714180e-07
1.781130e-11
-9.890270e-07
4.092230e-12
-1.823130e-07
1.746090e-11
-9.552360e-07
1.378450e-12
1.781130e-11
1.714530e-07
4.092230e-12
9.890390e-07
1.746090e-11
1.823530e-07
1.378450e-12
9.552400e-07
-9.890270e-07
4.092230e-12
3.270970e-06
-4.320460e-12
-9.552360e-07
1.378450e-12
3.225230e-06
-3.649440e-12
4.092230e-12
9.890390e-07
-4.320460e-12
-3.270980e-06
1.378450e-12
9.552400e-07
-3.649440e-12
-3.225240e-06
</DataArray>
<DataArray type="Float32" Name="V2" format="ascii">
0.000000e+00
0.000000e+00
3.920840e-05
3.933090e-05
0.000000e+00
0.000000e+00
3.933140e-05
3.945620e-05
0.000000e+00
0.000000e+00
3.933090e-05
3.920840e-05
0.000000e+00
0.000000e+00
3.945620e-05
3.933200e-05
3.920840e-05
3.933090e-05
-1.117410e-05
-1.110190e-05
3.933140e-05
3.945620e-05
-1.110230e-05
-1.102910e-05
3.933090e-05
3.920840e-05
-1.110190e-05
-1.117490e-05
3.945620e-05
3.933200e-05
-1.102910e-05
-1.110180e-05
-1.117410e-05
-1.110190e-05
-5.430460e-05
-5.423950e-05
-1.110230e-05
-1.102910e-05
-5.423910e-05
-5.417490e-05
-1.110190e-05
-1.117490e-05
-5.423950e-05
-5.430450e-05
-1.102910e-05
-1.110180e-05
-5.417490e-05
-5.423910e-05
-5.430460e-05
-5.423950e-05
1.138840e-05
1.139290e-05
-5.423910e-05
-5.417490e-05
1.139370e-05
1.139770e-05
-5.423950e-05
-5.430450e-05
1.139290e-05
1.138840e-05
-5.417490e-05
-5.423910e-05
1.139770e-05
1.139310e-05
1.138840e-05
1.139290e-05
1.587310e-04
1.587650e-04
1.139370e-05
1.139770e-05
1.587650e-04
1.587980e-04
1.139290e-05
1.138840e-05
1.587650e-04
1.587320e-04
1.139770e-05
1.139310e-05
1.587980e-04
1.587640e-04
1.587310e-04
1.587650e-04
3.532900e-04
3.531800e-04
1.587650e-04
1.587980e-04
3.531800e-04
3.530710e-04
1.587650e-04
1.587320e-04
3.531800e-04
3.532900e-04
1.587980e-04
1.587640e-04
3.530710e-04
3.531800e-04
3.532900e-04
3.531800e-04
5.702000e-04
5.701440e-04
3.531800e-04
3.530710e-04
5.701440e-04
5.700870e-04
3.531800e-04
3.532900e-04
5.701440e-04
5.701990e-04
3.530710e-04
3.531800e-04
5.700870e-04
5.701430e-04
5.702000e-04
5.701440e-04
8.251080e-04
8.251070e-04
5.701440e-04
5.700870e-04
8.251070e-04
8.251050e-04
5.701440e-04
5.701990e-04
8.251070e-04
8.251070e-04
5.700870e-04
5.701430e-04
8.251050e-04
8.251070e-04
8.251080e-04
8.251070e-04
1.341330e-03
1.341280e-03
8.251070e-04
8.251050e-04
1.341280e-03
1.341220e-03
8.251070e-04
8.251070e-04
1.341280e-03
1.341330e-03
8.251050e-04
8.251070e-04
1.341220e-03
1.341280e-03
1.341330e-03
1.341280e-03
2.495730e-03
2.495760e-03
1.341280e-03
1.341220e-03
2.495770e-03
2.495800e-03
1.341280e-03
1.341330e-03
2.495760e-03
2.495730e-03
1.341220e-03
1.341280e-03
2.495800e-03
2.495770e-03
2.495730e-03
2.495760e-03
4.877130e-03
4.877270e-03
2.495770e-03
2.495800e-03
4.877270e-03
4.877400e-03
2.495760e-03
2.495730e-03
4.877270e-03
4.877130e-03
2.495800e-03
2.495770e-03
4.877400e-03
4.877270e-03
4.877130e-03
4.877270e-03
9.198240e-03
9.198340e-03
4.877270e-03
4.877400e-03
9.198340e-03
9.198450e-03
4.877270e-03
4.877130e-03
9.198340e-03
9.198240e-03
4.877400e-03
4.877270e-03
9.198450e-03
9.198340e-03
9.198240e-03
9.198340e-03
1.555130e-02
1.555130e-02
9.198340e-03
9.198450e-03
1.555130e-02
1.555130e-02
9.198340e-03
9.198240e-03
1.555130e-02
1.555130e-02
9.198450e-03
9.198340e-03
1.555130e-02
1.555130e-02
1.555130e-02
1.555130e-02
2.295890e-02
2.295890e-02
1.555130e-02
1.555130e-02
2.295890e-02
2.295890e-02
1.555130e-02
1.555130e-02
2.295890e-02
2.295890e-02
1.555130e-02
1.555130e-02
2.295890e-02
2.295890e-02
2.295890e-02
2.295890e-02
2.882010e-02
2.882010e-02
2.295890e-02
2.295890e-02
2.882010e-02
2.882010e-02
2.295890e-02
2.295890e-02
2.882010e-02
2.882010e-02
2.295890e-02
2.295890e-02
2.882010e-02
2.882010e-02
2.882010e-02
2.882010e-02
2.953580e-02
2.953580e-02
2.882010e-02
2.882010e-02
2.953580e-02
2.953590e-02
2.882010e-02
2.882010e-02
2.953580e-02
2.953580e-02
2.882010e-02
2.882010e-02
2.953590e-02
2.953580e-02
2.953580e-02
2.953580e-02
2.291960e-02
2.291970e-02
2.953580e-02
2.953590e-02
2.291970e-02
2.291970e-02
2.953580e-02
2.953580e-02
2.291970e-02
2.291960e-02
2.953590e-02
2.953580e-02
2.291970e-02
2.291970e-02
2.291960e-02
2.291970e-02
1.116960e-02
1.116960e-02
2.291970e-02
2.291970e-02
1.116960e-02
1.116970e-02
2.291970e-02
2.291960e-02
1.116960e-02
1.116960e-02
2.291970e-02
2.291970e-02
1.116970e-02
1.116960e-02
1.116960e-02
1.116960e-02
6.433430e-04
6.433520e-04
1.116960e-02
1.116970e-02
6.433520e-04
6.433630e-04
1.116960e-02
1.116960e-02
6.433520e-04
6.433430e-04
1.116970e-02
1.116960e-02
6.433630e-04
6.433520e-04
6.433430e-04
6.433520e-04
-3.955500e-03
-3.955210e-03
6.433520e-04
6.433630e-04
-3.955210e-03
-3.954940e-03
6.433520e-04
6.433430e-04
-3.955210e-03
-3.955510e-03
6.433630e-04
6.433520e-04
-3.954940e-03
-3.955210e-03
-3.955500e-03
-3.955210e-03
-2.293370e-03
-2.293350e-03
-3.955210e-03
-3.954940e-03
-2.293350e-03
-2.293340e-03
-3.955210e-03
-3.955510e-03
-2.293350e-03
-2.293380e-03
-3.954940e-03
-3.955210e-03
-2.293340e-03
-2.293350e-03
-2.293370e-03
-2.293350e-03
6.368030e-05
6.348950e-05
-2.293350e-03
-2.293340e-03
6.348960e-05
6.335040e-05
-2.293350e-03
-2.293380e-03
6.348950e-05
6.368060e-05
-2.293340e-03
-2.293350e-03
6.335040e-05
6.348970e-05
6.368030e-05
6.348950e-05
3.575880e-04
3.575780e-04
6.348960e-05
6.335040e-05
3.575780e-04
3.575750e-04
6.348950e-05
6.368060e-05
3.575780e-04
3.575880e-04
6.335040e-05
6.348970e-05
3.575750e-04
3.575780e-04
3.575880e-04
3.575780e-04
-1.048410e-04
-1.047960e-04
3.575780e-04
3.575750e-04
-1.047960e-04
-1.047620e-04
3.575780e-04
3.575880e-04
-1.047960e-04
-1.048410e-04
3.575750e-04
3.575780e-04
-1.047620e-04
-1.047960e-04
-1.048410e-04
-1.047960e-04
-1.786510e-04
-1.786550e-04
-1.047960e-04
-1.047620e-04
-1.786550e-04
-1.786610e-04
-1.047960e-04
-1.048410e-04
-1.786550e-04
-1.786510e-04
-1.047620e-04
-1.047960e-04
-1.786610e-04
-1.786560e-04
-1.786510e-04
-1.786550e-04
-9.858360e-05
-9.859580e-05
-1.786550e-04
-1.786610e-04
-9.859590e-05
-9.860740e-05
-1.786550e-04
-1.786510e-04
-9.859580e-05
-9.858360e-05
-1.786610e-04
-1.786560e-04
-9.860740e-05
-9.859590e-05
-9.858360e-05
-9.859580e-05
-3.173250e-05
-3.168610e-05
-9.859590e-05
-9.860740e-05
-3.168620e-05
-3.163910e-05
-9.859580e-05
-9.858360e-05
-3.168610e-05
-3.173270e-05
-9.860740e-05
-9.859590e-05
-3.163910e-05
-3.168620e-05
-3.173250e-05
-3.168610e-05
4.341470e-05
4.375970e-05
-3.168620e-05
-3.163910e-05
4.375970e-05
4.409410e-05
-3.168610e-05
-3.173270e-05
4.375970e-05
4.341450e-05
-3.163910e-05
-3.168620e-05
4.409410e-05
4.375960e-05
4.341470e-05
4.375970e-05
9.073970e-05
8.971480e-05
4.375970e-05
4.409410e-05
8.971480e-05
8.879610e-05
4.375970e-05
4.341450e-05
8.971480e-05
9.073970e-05
4.409410e-05
4.375960e-05
8.879610e-05
8.971490e-05
9.073970e-05
8.971480e-05
1.094850e-04
1.051040e-04
8.971480e-05
8.879610e-05
1.051040e-04
1.002870e-04
8.971480e-05
9.073970e-05
1.051040e-04
1.094850e-04
8.879610e-05
8.971490e-05
1.002870e-04
1.051040e-04
0.000000e+00
0.000000e+00
3.933140e-05
3.945620e-05
0.000000e+00
0.000000e+00
3.920830e-05
3.933160e-05
0.000000e+00
0.000000e+00
3.945620e-05
3.933200e-05
0.000000e+00
0.000000e+00
3.933160e-05
3.920860e-05
3.933140e-05
3.945620e-05
-1.110230e-05
-1.102910e-05
3.920830e-05
3.933160e-05
-1.117570e-05
-1.110180e-05
3.945620e-05
3.933200e-05
-1.102910e-05
-1.110180e-05
3.933160e-05
3.920860e-05
-1.110180e-05
-1.117530e-05
-1.110230e-05
-1.102910e-05
-5.423910e-05
-5.417490e-05
-1.117570e-05
-1.110180e-05
-5.430540e-05
-5.423850e-05
-1.102910e-05