<?xml version="1.0"?>
<VTKFile type="UnstructuredGrid" version="0.1" byte_order="LittleEndian" compressor="vtkZLibDataCompressor">
<UnstructuredGrid>
<Piece NumberOfPoints="960" NumberOfCells="120">
<Points>
<DataArray type="Float32" NumberOfComponents="3" format="ascii">
-4.000000e+02 -6.000000e+03 -4.000000e+02
0.000000e+00 -6.000000e+03 -4.000000e+02
-4.000000e+02 -5.600000e+03 -4.000000e+02
1.849960e-10 -5.600000e+03 -4.000000e+02
-4.000000e+02 -6.000000e+03 0.000000e+00
0.000000e+00 -6.000000e+03 0.000000e+00
-4.000000e+02 -5.600000e+03 -6.495300e-11
1.253120e-10 -5.600000e+03 -6.567150e-11
0.000000e+00 -6.000000e+03 -4.000000e+02
4.000000e+02 -6.000000e+03 -4.000000e+02
1.849960e-10 -5.600000e+03 -4.000000e+02
4.000000e+02 -5.600000e+03 -4.000000e+02
0.000000e+00 -6.000000e+03 0.000000e+00
4.000000e+02 -6.000000e+03 0.000000e+00
1.253120e-10 -5.600000e+03 -6.567150e-11
4.000000e+02 -5.600000e+03 -1.075270e-10
-4.000000e+02 -5.600000e+03 -4.000000e+02
1.849960e-10 -5.600000e+03 -4.000000e+02
-4.000000e+02 -5.200000e+03 -4.000000e+02
3.614360e-11 -5.200000e+03 -4.000000e+02
-4.000000e+02 -5.600000e+03 -6.495300e-11
1.253120e-10 -5.600000e+03 -6.567150e-11
-4.000000e+02 -5.200000e+03 -2.083940e-10
6.015750e-11 -5.200000e+03 -2.160490e-10
1.849960e-10 -5.600000e+03 -4.000000e+02
4.000000e+02 -5.600000e+03 -4.000000e+02
3.614360e-11 -5.200000e+03 -4.000000e+02
4.000000e+02 -5.200000e+03 -4.000000e+02
1.253120e-10 -5.600000e+03 -6.567150e-11
4.000000e+02 -5.600000e+03 -1.075270e-10
6.015750e-11 -5.200000e+03 -2.160490e-10
4.000000e+02 -5.200000e+03 -1.673940e-10
-4.000000e+02 -5.200000e+03 -4.000000e+02
3.614360e-11 -5.200000e+03 -4.000000e+02
-4.000000e+02 -4.800000e+03 -4.000000e+02
-6.362560e-11 -4.800000e+03 -4.000000e+02
-4.000000e+02 -5.200000e+03 -2.083940e-10
6.015750e-11 -5.200000e+03 -2.160490e-10
-4.000000e+02 -4.800000e+03 -8.085940e-11
2.412270e-11 -4.800000e+03 -1.178970e-10
3.614360e-11 -5.200000e+03 -4.000000e+02
4.000000e+02 -5.200000e+03 -4.000000e+02
-6.362560e-11 -4.800000e+03 -4.000000e+02
4.000000e+02 -4.800000e+03 -4.000000e+02
6.015750e-11 -5.200000e+03 -2.160490e-10
4.000000e+02 -5.200000e+03 -1.673940e-10
2.412270e-11 -4.800000e+03 -1.178970e-10
4.000000e+02 -4.800000e+03 -2.111820e-11
-4.000000e+02 -4.800000e+03 -4.000000e+02
-6.362560e-11 -4.800000e+03 -4.000000e+02
-4.000000e+02 -4.400000e+03 -4.000000e+02
1.103430e-10 -4.400000e+03 -4.000000e+02
-4.000000e+02 -4.800000e+03 -8.085940e-11
2.412270e-11 -4.800000e+03 -1.178970e-10
-4.000000e+02 -4.400000e+03 -1.205300e-10
1.416590e-10 -4.400000e+03 -1.708460e-11
-6.362560e-11 -4.800000e+03 -4.000000e+02
4.000000e+02 -4.800000e+03 -4.000000e+02
1.103430e-10 -4.400000e+03 -4.000000e+02
4.000000e+02 -4.400000e+03 -4.000000e+02
2.412270e-11 -4.800000e+03 -1.178970e-10
4.000000e+02 -4.800000e+03 -2.111820e-11
1.416590e-10 -4.400000e+03 -1.708460e-11
4.000000e+02 -4.400000e+03 -1.150600e-11
-4.000000e+02 -4.400000e+03 -4.000000e+02
1.103430e-10 -4.400000e+03 -4.000000e+02
-4.000000e+02 -4.000010e+03 -4.000000e+02
1.125390e-10 -4.000010e+03 -4.000000e+02
-4.000000e+02 -4.400000e+03 -1.205300e-10
1.416590e-10 -4.400000e+03 -1.708460e-11
-4.000000e+02 -4.000010e+03 -1.168710e-10
1.714840e-10 -4.000010e+03 -7.311550e-11
1.103430e-10 -4.400000e+03 -4.000000e+02
4.000000e+02 -4.400000e+03 -4.000000e+02
1.125390e-10 -4.000010e+03 -4.000000e+02
4.000000e+02 -4.000010e+03 -4.000000e+02
1.416590e-10 -4.400000e+03 -1.708460e-11
4.000000e+02 -4.400000e+03 -1.150600e-11
1.714840e-10 -4.000010e+03 -7.311550e-11
4.000000e+02 -4.000010e+03 -4.633860e-11
-4.000000e+02 -4.000010e+03 -4.000000e+02
1.125390e-10 -4.000010e+03 -4.000000e+02
-4.000000e+02 -3.600030e+03 -4.000000e+02
8.791690e-11 -3.600030e+03 -4.000000e+02
-4.000000e+02 -4.000010e+03 -1.168710e-10
1.714840e-10 -4.000010e+03 -7.311550e-11
-4.000000e+02 -3.600030e+03 -2.487860e-11
1.563770e-10 -3.600030e+03 -5.360880e-11
1.125390e-10 -4.000010e+03 -4.000000e+02
4.000000e+02 -4.000010e+03 -4.000000e+02
8.791690e-11 -3.600030e+03 -4.000000e+02
4.000000e+02 -3.600030e+03 -4.000000e+02
1.714840e-10 -4.000010e+03 -7.311550e-11
4.000000e+02 -4.000010e+03 -4.633860e-11
1.563770e-10 -3.600030e+03 -5.360880e-11
4.000000e+02 -3.600030e+03 -6.884260e-11
-4.000000e+02 -3.600030e+03 -4.000000e+02
8.791690e-11 -3.600030e+03 -4.000000e+02
-4.000000e+02 -3.200070e+03 -4.000000e+02
2.422230e-11 -3.200070e+03 -4.000000e+02
-4.000000e+02 -3.600030e+03 -2.487860e-11
1.563770e-10 -3.600030e+03 -5.360880e-11
-4.000000e+02 -3.200070e+03 -3.093960e-11
9.572770e-11 -3.200070e+03 -5.856540e-11
8.791690e-11 -3.600030e+03 -4.000000e+02
4.000000e+02 -3.600030e+03 -4.000000e+02
2.422230e-11 -3.200070e+03 -4.000000e+02
4.000000e+02 -3.200070e+03 -4.000000e+02
1.563770e-10 -3.600030e+03 -5.360880e-11
4.000000e+02 -3.600030e+03 -6.884260e-11
9.572770e-11 -3.200070e+03 -5.856540e-11
4.000000e+02 -3.200070e+03 -1.142620e-10
-4.000000e+02 -3.200070e+03 -4.000000e+02
2.422230e-11 -3.200070e+03 -4.000000e+02
-4.000000e+02 -2.800110e+03 -4.000000e+02
-4.482030e-11 -2.800110e+03 -4.000000e+02
-4.000000e+02 -3.200070e+03 -3.093960e-11
9.572770e-11 -3.200070e+03 -5.856540e-11
-4.000000e+02 -2.800110e+03 1.124520e-10
-8.101400e-11 -2.800110e+03 1.371270e-10
2.422230e-11 -3.200070e+03 -4.000000e+02
4.000000e+02 -3.200070e+03 -4.000000e+02
-4.482030e-11 -2.800110e+03 -4.000000e+02
4.000000e+02 -2.800110e+03 -4.000000e+02
9.572770e-11 -3.200070e+03 -5.856540e-11
4.000000e+02 -3.200070e+03 -1.142620e-10
-8.101400e-11 -2.800110e+03 1.371270e-10
4.000000e+02 -2.800110e+03 4.000500e-11
-4.000000e+02 -2.800110e+03 -4.000000e+02
-4.482030e-11 -2.800110e+03 -4.000000e+02
-4.000000e+02 -2.400160e+03 -4.000000e+02
-1.661140e-10 -2.400160e+03 -4.000000e+02
-4.000000e+02 -2.800110e+03 1.124520e-10
-8.101400e-11 -2.800110e+03 1.371270e-10
-4.000000e+02 -2.400160e+03 2.134600e-10
-2.070110e-10 -2.400160e+03 2.564660e-10
-4.482030e-11 -2.800110e+03 -4.000000e+02
4.000000e+02 -2.800110e+03 -4.000000e+02
-1.661140e-10 -2.400160e+03 -4.000000e+02
4.000000e+02 -2.400160e+03 -4.000000e+02
-8.101400e-11 -2.800110e+03 1.371270e-10
4.000000e+02 -2.800110e+03 4.000500e-11
-2.070110e-10 -2.400160e+03 2.564660e-10
4.000000e+02 -2.400160e+03 2.114920e-10
-4.000000e+02 -2.400160e+03 -4.000000e+02
-1.661140e-10 -2.400160e+03 -4.000000e+02
-4.000000e+02 -2.000190e+03 -4.000000e+02
-1.322370e-10 -2.000190e+03 -4.000000e+02
-4.000000e+02 -2.400160e+03 2.134600e-10
-2.070110e-10 -2.400160e+03 2.564660e-10
-4.000000e+02 -2.000190e+03 3.129180e-10
-1.745810e-10 -2.000190e+03 2.510920e-10
-1.661140e-10 -2.400160e+03 -4.000000e+02
4.000000e+02 -2.400160e+03 -4.000000e+02
-1.322370e-10 -2.000190e+03 -4.000000e+02
4.000000e+02 -2.000190e+03 -4.000000e+02
-2.070110e-10 -2.400160e+03 2.564660e-10
4.000000e+02 -2.400160e+03 2.114920e-10
-1.745810e-10 -2.000190e+03 2.510920e-10
4.000000e+02 -2.000190e+03 3.306550e-10
-4.000000e+02 -2.000190e+03 -4.000000e+02
-1.322370e-10 -2.000190e+03 -4.000000e+02
-4.000000e+02 -1.600200e+03 -4.000000e+02
-1.894070e-10 -1.600200e+03 -4.000000e+02
-4.000000e+02 -2.000190e+03 3.129180e-10
-1.745810e-10 -2.000190e+03 2.510920e-10
-4.000000e+02 -1.600200e+03 3.701430e-10
-1.732520e-10 -1.600200e+03 2.966300e-10
-1.322370e-10 -2.000190e+03 -4.000000e+02
4.000000e+02 -2.000190e+03 -4.000000e+02
-1.894070e-10 -1.600200e+03 -4.000000e+02
4.000000e+02 -1.600200e+03 -4.000000e+02
-1.745810e-10 -2.000190e+03 2.510920e-10
4.000000e+02 -2.000190e+03 3.306550e-10
-1.732520e-10 -1.600200e+03 2.966300e-10
4.000000e+02 -1.600200e+03 3.252150e-10
-4.000000e+02 -1.600200e+03 -4.000000e+02
-1.894070e-10 -1.600200e+03 -4.000000e+02
-4.000000e+02 -1.200210e+03 -4.000000e+02
-2.251800e-10 -1.200210e+03 -4.000000e+02
-4.000000e+02 -1.600200e+03 3.701430e-10
-1.732520e-10 -1.600200e+03 2.966300e-10
-4.000000e+02 -1.200210e+03 3.969760e-10
-2.263950e-10 -1.200210e+03 3.299410e-10
-1.894070e-10 -1.600200e+03 -4.000000e+02
4.000000e+02 -1.600200e+03 -4.000000e+02
-2.251800e-10 -1.200210e+03 -4.000000e+02
4.000000e+02 -1.200210e+03 -4.000000e+02
-1.732520e-10 -1.600200e+03 2.966300e-10
4.000000e+02 -1.600200e+03 3.252150e-10
-2.263950e-10 -1.200210e+03 3.299410e-10
4.000000e+02 -1.200210e+03 3.225790e-10
-4.000000e+02 -1.200210e+03 -4.000000e+02
-2.251800e-10 -1.200210e+03 -4.000000e+02
-4.000000e+02 -8.002140e+02 -4.000000e+02
-2.239760e-10 -8.002140e+02 -4.000000e+02
-4.000000e+02 -1.200210e+03 3.969760e-10
-2.263950e-10 -1.200210e+03 3.299410e-10
-4.000000e+02 -8.002140e+02 4.149320e-10
-2.063650e-10 -8.002140e+02 4.070190e-10
-2.251800e-10 -1.200210e+03 -4.000000e+02
4.000000e+02 -1.200210e+03 -4.000000e+02
-2.239760e-10 -8.002140e+02 -4.000000e+02
4.000000e+02 -8.002140e+02 -4.000000e+02
-2.263950e-10 -1.200210e+03 3.299410e-10
4.000000e+02 -1.200210e+03 3.225790e-10
-2.063650e-10 -8.002140e+02 4.070190e-10
4.000000e+02 -8.002140e+02 3.891030e-10
-4.000000e+02 -8.002140e+02 -4.000000e+02
-2.239760e-10 -8.002140e+02 -4.000000e+02
-4.000000e+02 -4.002160e+02 -4.000000e+02
-2.260670e-10 -4.002160e+02 -4.000000e+02
-4.000000e+02 -8.002140e+02 4.149320e-10
-2.063650e-10 -8.002140e+02 4.070190e-10
-4.000000e+02 -4.002160e+02 4.119970e-10
-1.997650e-10 -4.002160e+02 4.071080e-10
-2.239760e-10 -8.002140e+02 -4.000000e+02
4.000000e+02 -8.002140e+02 -4.000000e+02
-2.260670e-10 -4.002160e+02 -4.000000e+02
4.000000e+02 -4.002160e+02 -4.000000e+02
-2.063650e-10 -8.002140e+02 4.070190e-10
4.000000e+02 -8.002140e+02 3.891030e-10
-1.997650e-10 -4.002160e+02 4.071080e-10
4.000000e+02 -4.002160e+02 4.164590e-10
-4.000000e+02 -4.002160e+02 -4.000000e+02
-2.260670e-10 -4.002160e+02 -4.000000e+02
-4.000000e+02 -2.164040e-01 -4.000000e+02
-1.561490e-10 -2.164040e-01 -4.000000e+02
-4.000000e+02 -4.002160e+02 4.119970e-10
-1.997650e-10 -4.002160e+02 4.071080e-10
-4.000000e+02 -2.164040e-01 4.060060e-10
-1.451600e-10 -2.164030e-01 3.814740e-10
-2.260670e-10 -4.002160e+02 -4.000000e+02
4.000000e+02 -4.002160e+02 -4.000000e+02
-1.561490e-10 -2.164040e-01 -4.000000e+02
[...]
<PointData>
<DataArray type="Float32" Name="V1" format="ascii">
0.000000e+00
0.000000e+00
-3.299360e-09
-1.725800e-11
0.000000e+00
0.000000e+00
-3.173670e-09
-8.031700e-11
0.000000e+00
0.000000e+00
-1.725800e-11
3.173670e-09
0.000000e+00
0.000000e+00
-8.031700e-11
3.016560e-09
-3.299360e-09
-1.725800e-11
3.872820e-09
2.460470e-12
-3.173670e-09
-8.031700e-11
3.436840e-09
7.470030e-12
-1.725800e-11
3.173670e-09
2.460470e-12
-3.743210e-09
-8.031700e-11
3.016560e-09
7.470030e-12
-3.468260e-09
3.872820e-09
2.460470e-12
1.292250e-09
6.361750e-12
3.436840e-09
7.470030e-12
1.622190e-09
-3.867310e-11
2.460470e-12
-3.743210e-09
6.361750e-12
-1.425800e-09
7.470030e-12
-3.468260e-09
-3.867310e-11
-1.677180e-09
1.292250e-09
6.361750e-12
-1.691320e-08
-7.887990e-11
1.622190e-09
-3.867310e-11
-1.673250e-08
-1.808850e-11
6.361750e-12
-1.425800e-09
-7.887990e-11
1.687000e-08
-3.867310e-11
-1.677180e-09
-1.808850e-11
1.665000e-08
-1.691320e-08
-7.887990e-11
4.017370e-08
-2.362030e-12
-1.673250e-08
-1.808850e-11
4.061360e-08
1.744490e-10
-7.887990e-11
1.687000e-08
-2.362030e-12
-4.020900e-08
-1.808850e-11
1.665000e-08
1.744490e-10
-4.029540e-08
4.017370e-08
-2.362030e-12
-4.980470e-08
3.075270e-11
4.061360e-08
1.744490e-10
-5.025640e-08
4.757960e-11
-2.362030e-12
-4.020900e-08
3.075270e-11
4.980470e-08
1.744490e-10
-4.029540e-08
4.757960e-11
5.036640e-08
-4.980470e-08
3.075270e-11
-3.130470e-09
1.718210e-11
-5.025640e-08
4.757960e-11
-2.796600e-09
-2.312240e-11
3.075270e-11
4.980470e-08
1.718210e-11
3.220810e-09
4.757960e-11
5.036640e-08
-2.312240e-11
2.855520e-09
-3.130470e-09
1.718210e-11
1.539000e-07
-5.393190e-11
-2.796600e-09
-2.312240e-11
1.537540e-07
-1.794280e-11
1.718210e-11
3.220810e-09
-5.393190e-11
-1.538960e-07
-2.312240e-11
2.855520e-09
-1.794280e-11
-1.537900e-07
1.539000e-07
-5.393190e-11
-3.121980e-07
-9.590760e-12
1.537540e-07
-1.794280e-11
-3.129880e-07
-3.807190e-11
-5.393190e-11
-1.538960e-07
-9.590760e-12
3.120840e-07
-1.794280e-11
-1.537900e-07
-3.807190e-11
3.129410e-07
-3.121980e-07
-9.590760e-12
2.163750e-07
-5.310510e-12
-3.129880e-07
-3.807190e-11
2.184920e-07
-8.381600e-11
-9.590760e-12
3.120840e-07
-5.310510e-12
-2.163130e-07
-3.807190e-11
3.129410e-07
-8.381600e-11
-2.186220e-07
2.163750e-07
-5.310510e-12
2.832190e-07
4.703770e-11
2.184920e-07
-8.381600e-11
2.789930e-07
-4.966960e-11
-5.310510e-12
-2.163130e-07
4.703770e-11
-2.831400e-07
-8.381600e-11
-2.186220e-07
-4.966960e-11
-2.790830e-07
2.832190e-07
4.703770e-11
-7.381740e-07
3.925280e-11
2.789930e-07
-4.966960e-11
-7.336610e-07
-2.316720e-11
4.703770e-11
-2.831400e-07
3.925280e-11
7.380950e-07
-4.966960e-11
-2.790830e-07
-2.316720e-11
7.336450e-07
-7.381740e-07
3.925280e-11
4.795590e-07
1.679040e-11
-7.336610e-07
-2.316720e-11
4.793860e-07
6.705200e-11
3.925280e-11
7.380950e-07
1.679040e-11
-4.795820e-07
-2.316720e-11
7.336450e-07
6.705200e-11
-4.792990e-07
4.795590e-07
1.679040e-11
2.400330e-07
-5.390410e-11
4.793860e-07
6.705200e-11
2.326130e-07
-1.731960e-11
1.679040e-11
-4.795820e-07
-5.390410e-11
-2.400950e-07
6.705200e-11
-4.792990e-07
-1.731960e-11
-2.326520e-07
2.400330e-07
-5.390410e-11
-6.657600e-07
3.535010e-11
2.326130e-07
-1.731960e-11
-6.594880e-07
3.253740e-11
-5.390410e-11
-2.400950e-07
3.535010e-11
6.657330e-07
-1.731960e-11
-2.326520e-07
3.253740e-11
6.594960e-07
-6.657600e-07
3.535010e-11
-7.590110e-08
-8.243180e-12
-6.594880e-07
3.253740e-11
-7.167080e-08
-1.649240e-11
3.535010e-11
6.657330e-07
-8.243180e-12
7.588140e-08
3.253740e-11
6.594960e-07
-1.649240e-11
7.170620e-08
-7.590110e-08
-8.243180e-12
4.879840e-07
4.932390e-11
-7.167080e-08
-1.649240e-11
4.904270e-07
3.132790e-11
-8.243180e-12
7.588140e-08
4.932390e-11
-4.879440e-07
-1.649240e-11
7.170620e-08
3.132790e-11
-4.904540e-07
4.879840e-07
4.932390e-11
1.044180e-06
5.593680e-11
4.904270e-07
3.132790e-11
1.047610e-06
4.631940e-12
4.932390e-11
-4.879440e-07
5.593680e-11
-1.044170e-06
3.132790e-11
-4.904540e-07
4.631940e-12
-1.047610e-06
1.044180e-06
5.593680e-11
6.082340e-07
-4.990290e-11
1.047610e-06
4.631940e-12
6.088270e-07
-8.202910e-11
5.593680e-11
-1.044170e-06
-4.990290e-11
-6.083010e-07
4.631940e-12
-1.047610e-06
-8.202910e-11
-6.090110e-07
6.082340e-07
-4.990290e-11
1.529330e-07
-1.779470e-12
6.088270e-07
-8.202910e-11
1.477450e-07
1.404260e-11
-4.990290e-11
-6.083010e-07
-1.779470e-12
-1.529490e-07
-8.202910e-11
-6.090110e-07
1.404260e-11
-1.477250e-07
1.529330e-07
-1.779470e-12
1.103870e-07
3.079560e-11
1.477450e-07
1.404260e-11
1.181640e-07
3.370870e-11
-1.779470e-12
-1.529490e-07
3.079560e-11
-1.103280e-07
1.404260e-11
-1.477250e-07
3.370870e-11
-1.180940e-07
1.103870e-07
3.079560e-11
8.592880e-08
1.376390e-11
1.181640e-07
3.370870e-11
9.187940e-08
2.439620e-11
3.079560e-11
-1.103280e-07
1.376390e-11
-8.591310e-08
3.370870e-11
-1.180940e-07
2.439620e-11
-9.183230e-08
8.592880e-08
1.376390e-11
-4.438860e-07
8.675660e-12
9.187940e-08
2.439620e-11
-4.636040e-07
1.883380e-11
1.376390e-11
-8.591310e-08
8.675660e-12
4.439020e-07
2.439620e-11
-9.183230e-08
1.883380e-11
4.636390e-07
-4.438860e-07
8.675660e-12
-1.621480e-07
1.028730e-11
-4.636040e-07
1.883380e-11
-1.659070e-07
8.773030e-12
8.675660e-12
4.439020e-07
1.028730e-11
1.621680e-07
1.883380e-11
4.636390e-07
8.773030e-12
1.659070e-07
-1.621480e-07
1.028730e-11
1.071580e-06
8.101860e-12
-1.659070e-07
8.773030e-12
1.109830e-06
5.361440e-12
1.028730e-11
1.621680e-07
8.101860e-12
-1.071550e-06
8.773030e-12
1.659070e-07
5.361440e-12
-1.109820e-06
1.071580e-06
8.101860e-12
-8.326970e-08
-2.720970e-12
1.109830e-06
5.361440e-12
-9.378830e-08
-7.464300e-13
8.101860e-12
-1.071550e-06
-2.720970e-12
8.325790e-08
5.361440e-12
-1.109820e-06
-7.464300e-13
9.378830e-08
-8.326970e-08
-2.720970e-12
-1.347860e-06
6.242740e-12
-9.378830e-08
-7.464300e-13
-1.389760e-06
5.859620e-12
-2.720970e-12
8.325790e-08
6.242740e-12
1.347870e-06
-7.464300e-13
9.378830e-08
5.859620e-12
1.389770e-06
-1.347860e-06
6.242740e-12
4.725950e-07
6.143170e-12
-1.389760e-06
5.859620e-12
4.871510e-07
4.758000e-12
6.242740e-12
1.347870e-06
6.143170e-12
-4.725750e-07
5.859620e-12
1.389770e-06
4.758000e-12
-4.871430e-07
4.725950e-07
6.143170e-12
5.076310e-07
-4.519410e-12
4.871510e-07
4.758000e-12
5.195910e-07
-7.817990e-13
6.143170e-12
-4.725750e-07
-4.519410e-12
-5.076310e-07
4.758000e-12
-4.871430e-07
-7.817990e-13
-5.195990e-07
5.076310e-07
-4.519410e-12
9.675380e-08
7.081920e-13
5.195910e-07
-7.817990e-13
1.136510e-07
-3.216980e-12
-4.519410e-12
-5.076310e-07
7.081920e-13
-9.676170e-08
-7.817990e-13
-5.195990e-07
-3.216980e-12
-1.136470e-07
0.000000e+00
0.000000e+00
-3.173670e-09
-8.031700e-11
0.000000e+00
0.000000e+00
-3.228660e-09
-2.022250e-11
0.000000e+00
0.000000e+00
-8.031700e-11
3.016560e-09
0.000000e+00
0.000000e+00
-2.022250e-11
3.236520e-09
-3.173670e-09
-8.031700e-11
3.436840e-09
7.470030e-12
-3.228660e-09
-2.022250e-11
3.739280e-09
1.460740e-10
-8.031700e-11
3.016560e-09
7.470030e-12
-3.468260e-09
-2.022250e-11
3.236520e-09
1.460740e-10
-3.319000e-09
3.436840e-09
7.470030e-12
1.622190e-09
-3.867310e-11
3.739280e-09
1.460740e-10
1.099790e-09
-1.087670e-10
7.470030e-12
-3.468260e-09
-3.867310e-11
-1.677180e-09
1.460740e-10
-3.319000e-09
-1.087670e-10
-1.559340e-09
1.622190e-09
-3.867310e-11
-1.673250e-08
-1.808850e-11
1.099790e-09
-1.087670e-10
-1.672460e-08
-2.927700e-11
-3.867310e-11
-1.677180e-09
-1.808850e-11
1.665000e-08
-1.087670e-10
-1.559340e-09
-2.927700e-11
1.672460e-08
-1.673250e-08
-1.808850e-11
4.061360e-08
1.744490e-10
-1.672460e-08
-2.927700e-11
4.011870e-08
-3.548210e-11
-1.808850e-11
1.665000e-08
1.744490e-10
-4.029540e-08
-2.927700e-11
1.672460e-08
-3.548210e-11
-4.005980e-08
4.061360e-08
1.744490e-10
-5.025640e-08
4.757960e-11
4.011870e-08
-3.548210e-11
-4.998930e-08
-4.741110e-11
1.744490e-10
-4.029540e-08
4.757960e-11
5.036640e-08
-3.548210e-11
-4.005980e-08
-4.741110e-11
4.992250e-08
-5.025640e-08
4.757960e-11
-2.796600e-09
-2.312240e-11
-4.998930e-08
-4.741110e-11
-3.091190e-09
3.643360e-11
4.757960e-11
5.036640e-08
-2.312240e-11
2.855520e-09
-4.741110e-11
4.992250e-08
3.643360e-11
3.087260e-09
-2.796600e-09
-2.312240e-11
1.537540e-07
-1.794280e-11
-3.091190e-09
3.643360e-11
1.541590e-07
4.555020e-11
-2.312240e-11
2.855520e-09
-1.794280e-11
-1.537900e-07
3.643360e-11
3.087260e-09
4.555020e-11
-1.541630e-07
1.537540e-07
-1.794280e-11
-3.129880e-07
-3.807190e-11
1.541590e-07
4.555020e-11
-3.121750e-07
2.602180e-12
-1.794280e-11
-1.537900e-07
-3.807190e-11
3.129410e-07
4.555020e-11
-1.541630e-07
2.602180e-12
3.121790e-07
-3.129880e-07
-3.807190e-11
2.184920e-07
-8.381600e-11
-3.121750e-07
2.602180e-12
2.161590e-07
-4.100980e-11
-3.807190e-11
3.129410e-07
-8.381600e-11
-2.186220e-07
2.602180e-12
3.121790e-07
-4.100980e-11
-2.163520e-07
2.184920e-07
-8.381600e-11
2.789930e-07
-4.966960e-11
2.161590e-07
-4.100980e-11
2.832270e-07
5.614460e-11
-8.381600e-11
-2.186220e-07
-4.966960e-11
-2.790830e-07
-4.100980e-11
-2.163520e-07
5.614460e-11
-2.831520e-07
2.789930e-07
-4.966960e-11
-7.336610e-07
-2.316720e-11
2.832270e-07
5.614460e-11
-7.382250e-07
6.135870e-11
-4.966960e-11
-2.790830e-07
-2.316720e-11
7.336450e-07
5.614460e-11
-2.831520e-07
6.135870e-11
7.381970e-07
-7.336610e-07
-2.316720e-11
4.793860e-07
6.705200e-11
-7.382250e-07
6.135870e-11
4.797790e-07
-3.837270e-11
-2.316720e-11
7.336450e-07
6.705200e-11
-4.792990e-07
6.135870e-11
7.381970e-07
-3.837270e-11
-4.797750e-07
4.793860e-07
6.705200e-11
2.326130e-07
-1.731960e-11
4.797790e-07
-3.837270e-11
2.399740e-07
-3.535240e-11
6.705200e-11
-4.792990e-07
-1.731960e-11
-2.326520e-07
-3.837270e-11
-4.797750e-07
-3.535240e-11
-2.401310e-07
2.326130e-07
-1.731960e-11
-6.594880e-07
3.253740e-11
2.399740e-07
-3.535240e-11
-6.657530e-07
3.740390e-11
-1.731960e-11
-2.326520e-07
3.253740e-11
6.594960e-07
-3.535240e-11
-2.401310e-07
3.740390e-11
6.656700e-07
-6.594880e-07
3.253740e-11
-7.167080e-08
-1.649240e-11
-6.657530e-07
3.740390e-11
-7.578320e-08
5.183810e-12
3.253740e-11
6.594960e-07
-1.649240e-11
7.170620e-08
3.740390e-11
6.656700e-07
5.183810e-12
7.581860e-08
-7.167080e-08
-1.649240e-11
4.904270e-07
3.132790e-11
-7.578320e-08
5.183810e-12
4.880310e-07
8.083130e-11
-1.649240e-11
7.170620e-08
3.132790e-11
-4.904540e-07
5.183810e-12
7.581860e-08
8.083130e-11
-4.878660e-07
4.904270e-07
3.132790e-11
1.047610e-06
4.631940e-12
4.880310e-07
8.083130e-11
1.044200e-06
8.135310e-12
3.132790e-11
-4.904540e-07
4.631940e-12
-1.047610e-06
8.083130e-11
-4.878660e-07
8.135310e-12
-1.044150e-06
1.047610e-06
4.631940e-12
6.088270e-07
-8.202910e-11
1.044200e-06
8.135310e-12
6.082180e-07
3.185620e-11
4.631940e-12
-1.047610e-06
-8.202910e-11
-6.090110e-07
8.135310e-12
-1.044150e-06
3.185620e-11
-6.082420e-07
6.088270e-07
-8.202910e-11
1.477450e-07
1.404260e-11
6.082180e-07
3.185620e-11
1.529610e-07
2.581790e-11
-8.202910e-11
-6.090110e-07
1.404260e-11
-1.477250e-07
3.185620e-11
-6.082420e-07
2.581790e-11
-1.529250e-07
1.477450e-07
1.404260e-11
1.181640e-07
3.370870e-11
1.529610e-07
2.581790e-11
1.103790e-07
1.775370e-11
1.404260e-11
-1.477250e-07
3.370870e-11
-1.180940e-07
2.581790e-11
-1.529250e-07
1.775370e-11
-1.103440e-07
1.181640e-07
3.370870e-11
9.187940e-08
2.439620e-11
1.103790e-07
1.775370e-11
8.594060e-08
1.618390e-11
3.370870e-11
-1.180940e-07
2.439620e-11
-9.183230e-08
1.775370e-11
-1.103440e-07
1.618390e-11
-8.591700e-08
9.187940e-08
2.439620e-11
-4.636040e-07
1.883380e-11
8.594060e-08
1.618390e-11
-4.438430e-07
2.258800e-11
2.439620e-11
-9.183230e-08
1.883380e-11
4.636390e-07
1.618390e-11
-8.591700e-08
2.258800e-11
4.439020e-07
-4.636040e-07
1.883380e-11
-1.659070e-07
8.773030e-12
-4.438430e-07
2.258800e-11
-1.621440e-07
1.405790e-11
1.883380e-11
4.636390e-07
8.773030e-12
1.659070e-07
2.258800e-11
4.439020e-07
1.405790e-11
1.621720e-07
-1.659070e-07
8.773030e-12
1.109830e-06
5.361440e-12
-1.621440e-07
1.405790e-11
1.071570e-06
-1.653610e-13
8.773030e-12
1.659070e-07
5.361440e-12
-1.109820e-06
1.405790e-11
1.621720e-07
-1.653610e-13
-1.071560e-06
1.109830e-06
5.361440e-12
-9.378830e-08
-7.464300e-13
1.071570e-06
-1.653610e-13
-8.327750e-08
-9.990410e-12
5.361440e-12
-1.109820e-06
-7.464300e-13
9.378830e-08
-1.653610e-13
-1.071560e-06
-9.990410e-12
8.324220e-08
-9.378830e-08
-7.464300e-13
-1.389760e-06
5.859620e-12
-8.327750e-08
-9.990410e-12
-1.347860e-06
5.549710e-12
-7.464300e-13
9.378830e-08
5.859620e-12
1.389770e-06
-9.990410e-12
8.324220e-08
5.549710e-12
1.347880e-06
-1.389760e-06
5.859620e-12
4.871510e-07
4.758000e-12
-1.347860e-06
5.549710e-12
4.726020e-07
9.619430e-12
5.859620e-12
1.389770e-06
4.758000e-12
-4.871430e-07
5.549710e-12
1.347880e-06
9.619430e-12
-4.725710e-07
4.871510e-07
4.758000e-12
5.195910e-07
-7.817990e-13
4.726020e-07
9.619430e-12
5.076310e-07
3.159050e-13
4.758000e-12
-4.871430e-07
-7.817990e-13
-5.195990e-07
9.619430e-12
-4.725710e-07
3.159050e-13
-5.076390e-07
5.195910e-07
-7.817990e-13
1.136510e-07
-3.216980e-12
5.076310e-07
3.159050e-13
9.675380e-08
2.667670e-12
-7.817990e-13
-5.195990e-07
-3.216980e-12
-1.136470e-07
3.159050e-13
-5.076390e-07
2.667670e-12
-9.674990e-08
</DataArray>
<DataArray type="Float32" Name="V2" format="ascii">
0.000000e+00
0.000000e+00
1.836850e-04
1.836830e-04
0.000000e+00
0.000000e+00
1.836830e-04
1.836820e-04
0.000000e+00
0.000000e+00
1.836830e-04
1.836840e-04
0.000000e+00
0.000000e+00
1.836820e-04
1.836830e-04
1.836850e-04
1.836830e-04
2.906800e-04
2.906790e-04
1.836830e-04
1.836820e-04
2.906780e-04
2.906780e-04
1.836830e-04
1.836840e-04
2.906790e-04
2.906790e-04
1.836820e-04
1.836830e-04
2.906780e-04
2.906790e-04
2.906800e-04
2.906790e-04
-3.496580e-04
-3.496500e-04
2.906780e-04
2.906780e-04
-3.496490e-04
-3.496400e-04
2.906790e-04
2.906790e-04
-3.496500e-04
-3.496580e-04
2.906780e-04
2.906790e-04
-3.496400e-04
-3.496500e-04
-3.496580e-04
-3.496500e-04
-3.233120e-03
-3.233130e-03
-3.496490e-04
-3.496400e-04
-3.233130e-03
-3.233150e-03
-3.496500e-04
-3.496580e-04
-3.233130e-03
-3.233120e-03
-3.496400e-04
-3.496500e-04
-3.233150e-03
-3.233130e-03
-3.233120e-03
-3.233130e-03
-9.979610e-03
-9.979590e-03
-3.233130e-03
-3.233150e-03
-9.979590e-03
-9.979570e-03
-3.233130e-03
-3.233120e-03
-9.979590e-03
-9.979610e-03
-3.233150e-03
-3.233130e-03
-9.979570e-03
-9.979590e-03
-9.979610e-03
-9.979590e-03
-2.026120e-02
-2.026110e-02
-9.979590e-03
-9.979570e-03
-2.026110e-02
-2.026110e-02
-9.979590e-03
-9.979610e-03
-2.026110e-02
-2.026120e-02
-9.979570e-03
-9.979590e-03
-2.026110e-02
-2.026110e-02
-2.026120e-02
-2.026110e-02
-2.955220e-02
-2.955230e-02
-2.026110e-02
-2.026110e-02
-2.955230e-02
-2.955240e-02
-2.026110e-02
-2.026120e-02
-2.955230e-02
-2.955220e-02
-2.026110e-02
-2.026110e-02
-2.955240e-02
-2.955230e-02
-2.955220e-02
-2.955230e-02
-3.160870e-02
-3.160850e-02
-2.955230e-02
-2.955240e-02
-3.160850e-02
-3.160840e-02
-2.955230e-02
-2.955220e-02
-3.160850e-02
-3.160870e-02
-2.955240e-02
-2.955230e-02
-3.160840e-02
-3.160850e-02
-3.160870e-02
-3.160850e-02
-2.541950e-02
-2.541970e-02
-3.160850e-02
-3.160840e-02
-2.541970e-02
-2.541990e-02
-3.160850e-02
-3.160870e-02
-2.541970e-02
-2.541950e-02
-3.160840e-02
-3.160850e-02
-2.541990e-02
-2.541970e-02
-2.541950e-02
-2.541970e-02
-1.585090e-02
-1.585110e-02
-2.541970e-02
-2.541990e-02
-1.585110e-02
-1.585120e-02
-2.541970e-02
-2.541950e-02
-1.585110e-02
-1.585090e-02
-2.541990e-02
-2.541970e-02
-1.585120e-02
-1.585110e-02
-1.585090e-02
-1.585110e-02
-7.886150e-03
-7.885420e-03
-1.585110e-02
-1.585120e-02
-7.885420e-03
-7.884680e-03
-1.585110e-02
-1.585090e-02
-7.885420e-03
-7.886150e-03
-1.585120e-02
-1.585110e-02
-7.884680e-03
-7.885420e-03
-7.886150e-03
-7.885420e-03
-3.408170e-03
-3.409030e-03
-7.885420e-03
-7.884680e-03
-3.409030e-03
-3.409890e-03
-7.885420e-03
-7.886150e-03
-3.409030e-03
-3.408170e-03
-7.884680e-03
-7.885420e-03
-3.409890e-03
-3.409030e-03
-3.408170e-03
-3.409030e-03
-1.459160e-03
-1.459760e-03
-3.409030e-03
-3.409890e-03
-1.459760e-03
-1.460350e-03
-3.409030e-03
-3.408170e-03
-1.459760e-03
-1.459160e-03
-3.409890e-03
-3.409030e-03
-1.460350e-03
-1.459760e-03
-1.459160e-03
-1.459760e-03
-7.141310e-04
-7.126760e-04
-1.459760e-03
-1.460350e-03
-7.126760e-04
-7.112280e-04
-1.459760e-03
-1.459160e-03
-7.126760e-04
-7.141310e-04
-1.460350e-03
-1.459760e-03
-7.112280e-04
-7.126760e-04
-7.141310e-04
-7.126760e-04
-5.586840e-04
-5.579780e-04
-7.126760e-04
-7.112280e-04
-5.579780e-04
-5.572570e-04
-7.126760e-04
-7.141310e-04
-5.579780e-04
-5.586840e-04
-7.112280e-04
-7.126760e-04
-5.572570e-04
-5.579780e-04
-5.586840e-04
-5.579780e-04
-5.775700e-04
-5.777770e-04
-5.579780e-04
-5.572570e-04
-5.777770e-04
-5.779740e-04
-5.579780e-04
-5.586840e-04
-5.777770e-04
-5.775700e-04
-5.572570e-04
-5.579780e-04
-5.779740e-04
-5.777770e-04
-5.775700e-04
-5.777770e-04
-5.172620e-04
-5.182390e-04
-5.777770e-04
-5.779740e-04
-5.182400e-04
-5.192240e-04
-5.777770e-04
-5.775700e-04
-5.182390e-04
-5.172610e-04
-5.779740e-04
-5.777770e-04
-5.192240e-04
-5.182400e-04
-5.172620e-04
-5.182390e-04
-4.342460e-04
-4.348310e-04
-5.182400e-04
-5.192240e-04
-4.348310e-04
-4.354170e-04
-5.182390e-04
-5.172610e-04
-4.348310e-04
-4.342460e-04
-5.192240e-04
-5.182400e-04
-4.354170e-04
-4.348310e-04
-4.342460e-04
-4.348310e-04
-4.060510e-04
-4.060230e-04
-4.348310e-04
-4.354170e-04
-4.060230e-04
-4.059890e-04
-4.348310e-04
-4.342460e-04
-4.060230e-04
-4.060510e-04
-4.354170e-04
-4.348310e-04
-4.059890e-04
-4.060230e-04
-4.060510e-04
-4.060230e-04
-4.582150e-04
-4.580080e-04
-4.060230e-04
-4.059890e-04
-4.580080e-04
-4.578200e-04
-4.060230e-04
-4.060510e-04
-4.580080e-04
-4.582150e-04
-4.059890e-04
-4.060230e-04
-4.578200e-04
-4.580080e-04
-4.582150e-04
-4.580080e-04
-5.724650e-04
-5.730800e-04
-4.580080e-04
-4.578200e-04
-5.730800e-04
-5.738020e-04
-4.580080e-04
-4.582150e-04
-5.730800e-04
-5.724650e-04
-4.578200e-04
-4.580080e-04
-5.738020e-04
-5.730800e-04
-5.724650e-04
-5.730800e-04
-6.579090e-04
-6.560990e-04
-5.730800e-04
-5.738020e-04
-6.560990e-04
-6.540840e-04
-5.730800e-04
-5.724650e-04
-6.560990e-04
-6.579090e-04
-5.738020e-04
-5.730800e-04
-6.540840e-04
-6.560990e-04
-6.579090e-04
-6.560990e-04
-4.852310e-04
-4.850210e-04
-6.560990e-04
-6.540840e-04
-4.850210e-04
-4.847800e-04
-6.560990e-04
-6.579090e-04
-4.850210e-04
-4.852310e-04
-6.540840e-04
-6.560990e-04
-4.847800e-04
-4.850210e-04
-4.852310e-04
-4.850210e-04
-3.684220e-04
-3.715660e-04
-4.850210e-04
-4.847800e-04
-3.715660e-04
-3.750910e-04
-4.850210e-04
-4.852310e-04
-3.715660e-04
-3.684220e-04
-4.847800e-04
-4.850210e-04
-3.750910e-04
-3.715660e-04
-3.684220e-04
-3.715660e-04
-7.529690e-04
-7.524070e-04
-3.715660e-04
-3.750910e-04
-7.524070e-04
-7.518070e-04
-3.715660e-04
-3.684220e-04
-7.524070e-04
-7.529690e-04
-3.750910e-04
-3.715660e-04
-7.518070e-04
-7.524070e-04
-7.529690e-04
-7.524070e-04
-1.094600e-03
-1.090070e-03
-7.524070e-04
-7.518070e-04
-1.090070e-03
-1.084910e-03
-7.524070e-04
-7.529690e-04
-1.090070e-03
-1.094600e-03
-7.518070e-04
-7.524070e-04
-1.084910e-03
-1.090070e-03
-1.094600e-03
-1.090070e-03
-5.647020e-04
-5.659510e-04
-1.090070e-03
-1.084910e-03
-5.659510e-04
-5.674130e-04
-1.090070e-03
-1.094600e-03
-5.659510e-04
-5.647020e-04
-1.084910e-03
-1.090070e-03
-5.674130e-04
-5.659520e-04
-5.647020e-04
-5.659510e-04
5.899960e-05
5.264200e-05
-5.659510e-04
-5.674130e-04
5.264200e-05
4.557450e-05
-5.659510e-04
-5.647020e-04
5.264200e-05
5.899940e-05
-5.674130e-04
-5.659520e-04
4.557450e-05
5.264200e-05
5.899960e-05
5.264200e-05
-7.228650e-04
-7.216250e-04
5.264200e-05
4.557450e-05
-7.216250e-04
-7.204610e-04
5.264200e-05
5.899940e-05
-7.216250e-04
-7.228650e-04
4.557450e-05
5.264200e-05
-7.204610e-04
-7.216250e-04
-7.228650e-04
-7.216250e-04
-1.378890e-03
-1.379310e-03
-7.216250e-04
-7.204610e-04
-1.379310e-03
-1.379800e-03
-7.216250e-04
-7.228650e-04
-1.379310e-03
-1.378890e-03
-7.204610e-04
-7.216250e-04
-1.379800e-03
-1.379310e-03
0.000000e+00
0.000000e+00
1.836830e-04
1.836820e-04
0.000000e+00
0.000000e+00
1.836850e-04
1.836830e-04
0.000000e+00
0.000000e+00
1.836820e-04
1.836830e-04
0.000000e+00
0.000000e+00
1.836830e-04
1.836840e-04
1.836830e-04
1.836820e-04
2.906780e-04
2.906780e-04
1.836850e-04
1.836830e-04