<?xml version="1.0"?>
<VTKFile type="UnstructuredGrid" version="0.1" byte_order="LittleEndian" compressor="vtkZLibDataCompressor">
<UnstructuredGrid>
<Piece NumberOfPoints="960" NumberOfCells="120">
<Points>
<DataArray type="Float32" NumberOfComponents="3" format="ascii">
-4.000000e+02 -6.000000e+03 -4.000000e+02
0.000000e+00 -6.000000e+03 -4.000000e+02
-4.000000e+02 -5.600000e+03 -4.000000e+02
-1.993520e-10 -5.600000e+03 -4.000000e+02
-4.000000e+02 -6.000000e+03 0.000000e+00
0.000000e+00 -6.000000e+03 0.000000e+00
-4.000000e+02 -5.600000e+03 -2.076920e-10
-6.430280e-11 -5.600000e+03 -6.814230e-11
0.000000e+00 -6.000000e+03 -4.000000e+02
4.000000e+02 -6.000000e+03 -4.000000e+02
-1.993520e-10 -5.600000e+03 -4.000000e+02
4.000000e+02 -5.600000e+03 -4.000000e+02
0.000000e+00 -6.000000e+03 0.000000e+00
4.000000e+02 -6.000000e+03 0.000000e+00
-6.430280e-11 -5.600000e+03 -6.814230e-11
4.000000e+02 -5.600000e+03 -1.251790e-10
-4.000000e+02 -5.600000e+03 -4.000000e+02
-1.993520e-10 -5.600000e+03 -4.000000e+02
-4.000000e+02 -5.200010e+03 -4.000000e+02
-2.934650e-10 -5.200010e+03 -4.000000e+02
-4.000000e+02 -5.600000e+03 -2.076920e-10
-6.430280e-11 -5.600000e+03 -6.814230e-11
-4.000000e+02 -5.200010e+03 -2.927230e-10
-2.779990e-10 -5.200010e+03 -3.678900e-10
-1.993520e-10 -5.600000e+03 -4.000000e+02
4.000000e+02 -5.600000e+03 -4.000000e+02
-2.934650e-10 -5.200010e+03 -4.000000e+02
4.000000e+02 -5.200010e+03 -4.000000e+02
-6.430280e-11 -5.600000e+03 -6.814230e-11
4.000000e+02 -5.600000e+03 -1.251790e-10
-2.779990e-10 -5.200010e+03 -3.678900e-10
4.000000e+02 -5.200010e+03 -1.745240e-10
-4.000000e+02 -5.200010e+03 -4.000000e+02
-2.934650e-10 -5.200010e+03 -4.000000e+02
-4.000000e+02 -4.800010e+03 -4.000000e+02
-2.455260e-10 -4.800010e+03 -4.000000e+02
-4.000000e+02 -5.200010e+03 -2.927230e-10
-2.779990e-10 -5.200010e+03 -3.678900e-10
-4.000000e+02 -4.800010e+03 -6.454930e-10
-1.934780e-10 -4.800010e+03 -5.285750e-10
-2.934650e-10 -5.200010e+03 -4.000000e+02
4.000000e+02 -5.200010e+03 -4.000000e+02
-2.455260e-10 -4.800010e+03 -4.000000e+02
4.000000e+02 -4.800010e+03 -4.000000e+02
-2.779990e-10 -5.200010e+03 -3.678900e-10
4.000000e+02 -5.200010e+03 -1.745240e-10
-1.934780e-10 -4.800010e+03 -5.285750e-10
4.000000e+02 -4.800010e+03 -4.172720e-10
-4.000000e+02 -4.800010e+03 -4.000000e+02
-2.455260e-10 -4.800010e+03 -4.000000e+02
-4.000000e+02 -4.400020e+03 -4.000000e+02
-1.994120e-10 -4.400020e+03 -4.000000e+02
-4.000000e+02 -4.800010e+03 -6.454930e-10
-1.934780e-10 -4.800010e+03 -5.285750e-10
-4.000000e+02 -4.400020e+03 -7.760510e-10
-1.992260e-10 -4.400020e+03 -5.919820e-10
-2.455260e-10 -4.800010e+03 -4.000000e+02
4.000000e+02 -4.800010e+03 -4.000000e+02
-1.994120e-10 -4.400020e+03 -4.000000e+02
4.000000e+02 -4.400020e+03 -4.000000e+02
-1.934780e-10 -4.800010e+03 -5.285750e-10
4.000000e+02 -4.800010e+03 -4.172720e-10
-1.992260e-10 -4.400020e+03 -5.919820e-10
4.000000e+02 -4.400020e+03 -6.072400e-10
-4.000000e+02 -4.400020e+03 -4.000000e+02
-1.994120e-10 -4.400020e+03 -4.000000e+02
-4.000000e+02 -4.000020e+03 -4.000000e+02
-1.491420e-10 -4.000020e+03 -4.000000e+02
-4.000000e+02 -4.400020e+03 -7.760510e-10
-1.992260e-10 -4.400020e+03 -5.919820e-10
-4.000000e+02 -4.000020e+03 -9.163300e-10
-1.420930e-10 -4.000020e+03 -8.007360e-10
-1.994120e-10 -4.400020e+03 -4.000000e+02
4.000000e+02 -4.400020e+03 -4.000000e+02
-1.491420e-10 -4.000020e+03 -4.000000e+02
4.000000e+02 -4.000020e+03 -4.000000e+02
-1.992260e-10 -4.400020e+03 -5.919820e-10
4.000000e+02 -4.400020e+03 -6.072400e-10
-1.420930e-10 -4.000020e+03 -8.007360e-10
4.000000e+02 -4.000020e+03 -7.716210e-10
-4.000000e+02 -4.000020e+03 -4.000000e+02
-1.491420e-10 -4.000020e+03 -4.000000e+02
-4.000000e+02 -3.600030e+03 -4.000000e+02
-1.227330e-10 -3.600030e+03 -4.000000e+02
-4.000000e+02 -4.000020e+03 -9.163300e-10
-1.420930e-10 -4.000020e+03 -8.007360e-10
-4.000000e+02 -3.600030e+03 -9.297480e-10
-1.698440e-10 -3.600030e+03 -8.534750e-10
-1.491420e-10 -4.000020e+03 -4.000000e+02
4.000000e+02 -4.000020e+03 -4.000000e+02
-1.227330e-10 -3.600030e+03 -4.000000e+02
4.000000e+02 -3.600030e+03 -4.000000e+02
-1.420930e-10 -4.000020e+03 -8.007360e-10
4.000000e+02 -4.000020e+03 -7.716210e-10
-1.698440e-10 -3.600030e+03 -8.534750e-10
4.000000e+02 -3.600030e+03 -9.085050e-10
-4.000000e+02 -3.600030e+03 -4.000000e+02
-1.227330e-10 -3.600030e+03 -4.000000e+02
-4.000000e+02 -3.200040e+03 -4.000000e+02
-3.140530e-10 -3.200040e+03 -4.000000e+02
-4.000000e+02 -3.600030e+03 -9.297480e-10
-1.698440e-10 -3.600030e+03 -8.534750e-10
-4.000000e+02 -3.200040e+03 -8.948280e-10
-2.643300e-10 -3.200040e+03 -8.508950e-10
-1.227330e-10 -3.600030e+03 -4.000000e+02
4.000000e+02 -3.600030e+03 -4.000000e+02
-3.140530e-10 -3.200040e+03 -4.000000e+02
4.000000e+02 -3.200040e+03 -4.000000e+02
-1.698440e-10 -3.600030e+03 -8.534750e-10
4.000000e+02 -3.600030e+03 -9.085050e-10
-2.643300e-10 -3.200040e+03 -8.508950e-10
4.000000e+02 -3.200040e+03 -8.605220e-10
-4.000000e+02 -3.200040e+03 -4.000000e+02
-3.140530e-10 -3.200040e+03 -4.000000e+02
-4.000000e+02 -2.800060e+03 -4.000000e+02
-2.927470e-10 -2.800060e+03 -4.000000e+02
-4.000000e+02 -3.200040e+03 -8.948280e-10
-2.643300e-10 -3.200040e+03 -8.508950e-10
-4.000000e+02 -2.800060e+03 -7.686450e-10
-3.622710e-10 -2.800060e+03 -7.711570e-10
-3.140530e-10 -3.200040e+03 -4.000000e+02
4.000000e+02 -3.200040e+03 -4.000000e+02
-2.927470e-10 -2.800060e+03 -4.000000e+02
4.000000e+02 -2.800060e+03 -4.000000e+02
-2.643300e-10 -3.200040e+03 -8.508950e-10
4.000000e+02 -3.200040e+03 -8.605220e-10
-3.622710e-10 -2.800060e+03 -7.711570e-10
4.000000e+02 -2.800060e+03 -7.325330e-10
-4.000000e+02 -2.800060e+03 -4.000000e+02
-2.927470e-10 -2.800060e+03 -4.000000e+02
-4.000000e+02 -2.400090e+03 -4.000000e+02
-2.815280e-10 -2.400090e+03 -4.000000e+02
-4.000000e+02 -2.800060e+03 -7.686450e-10
-3.622710e-10 -2.800060e+03 -7.711570e-10
-4.000000e+02 -2.400090e+03 -6.266100e-10
-3.623190e-10 -2.400090e+03 -6.513940e-10
-2.927470e-10 -2.800060e+03 -4.000000e+02
4.000000e+02 -2.800060e+03 -4.000000e+02
-2.815280e-10 -2.400090e+03 -4.000000e+02
4.000000e+02 -2.400090e+03 -4.000000e+02
-3.622710e-10 -2.800060e+03 -7.711570e-10
4.000000e+02 -2.800060e+03 -7.325330e-10
-3.623190e-10 -2.400090e+03 -6.513940e-10
4.000000e+02 -2.400090e+03 -6.560650e-10
-4.000000e+02 -2.400090e+03 -4.000000e+02
-2.815280e-10 -2.400090e+03 -4.000000e+02
-4.000000e+02 -2.000120e+03 -4.000000e+02
-5.684350e-10 -2.000120e+03 -4.000000e+02
-4.000000e+02 -2.400090e+03 -6.266100e-10
-3.623190e-10 -2.400090e+03 -6.513940e-10
-4.000000e+02 -2.000120e+03 -6.655710e-10
-4.062910e-10 -2.000120e+03 -6.840820e-10
-2.815280e-10 -2.400090e+03 -4.000000e+02
4.000000e+02 -2.400090e+03 -4.000000e+02
-5.684350e-10 -2.000120e+03 -4.000000e+02
4.000000e+02 -2.000120e+03 -4.000000e+02
-3.623190e-10 -2.400090e+03 -6.513940e-10
4.000000e+02 -2.400090e+03 -6.560650e-10
-4.062910e-10 -2.000120e+03 -6.840820e-10
4.000000e+02 -2.000120e+03 -6.154740e-10
-4.000000e+02 -2.000120e+03 -4.000000e+02
-5.684350e-10 -2.000120e+03 -4.000000e+02
-4.000000e+02 -1.600160e+03 -4.000000e+02
-4.959740e-10 -1.600160e+03 -4.000000e+02
-4.000000e+02 -2.000120e+03 -6.655710e-10
-4.062910e-10 -2.000120e+03 -6.840820e-10
-4.000000e+02 -1.600160e+03 -5.403040e-10
-5.608840e-10 -1.600160e+03 -5.893400e-10
-5.684350e-10 -2.000120e+03 -4.000000e+02
4.000000e+02 -2.000120e+03 -4.000000e+02
-4.959740e-10 -1.600160e+03 -4.000000e+02
4.000000e+02 -1.600160e+03 -4.000000e+02
-4.062910e-10 -2.000120e+03 -6.840820e-10
4.000000e+02 -2.000120e+03 -6.154740e-10
-5.608840e-10 -1.600160e+03 -5.893400e-10
4.000000e+02 -1.600160e+03 -5.269610e-10
-4.000000e+02 -1.600160e+03 -4.000000e+02
-4.959740e-10 -1.600160e+03 -4.000000e+02
-4.000000e+02 -1.200200e+03 -4.000000e+02
-3.885880e-10 -1.200200e+03 -4.000000e+02
-4.000000e+02 -1.600160e+03 -5.403040e-10
-5.608840e-10 -1.600160e+03 -5.893400e-10
-4.000000e+02 -1.200200e+03 -3.572460e-10
-5.485100e-10 -1.200200e+03 -3.903520e-10
-4.959740e-10 -1.600160e+03 -4.000000e+02
4.000000e+02 -1.600160e+03 -4.000000e+02
-3.885880e-10 -1.200200e+03 -4.000000e+02
4.000000e+02 -1.200200e+03 -4.000000e+02
-5.608840e-10 -1.600160e+03 -5.893400e-10
4.000000e+02 -1.600160e+03 -5.269610e-10
-5.485100e-10 -1.200200e+03 -3.903520e-10
4.000000e+02 -1.200200e+03 -4.226670e-10
-4.000000e+02 -1.200200e+03 -4.000000e+02
-3.885880e-10 -1.200200e+03 -4.000000e+02
-4.000000e+02 -8.002190e+02 -4.000000e+02
-2.888450e-10 -8.002190e+02 -4.000000e+02
-4.000000e+02 -1.200200e+03 -3.572460e-10
-5.485100e-10 -1.200200e+03 -3.903520e-10
-4.000000e+02 -8.002190e+02 -3.583030e-10
-2.666540e-10 -8.002190e+02 -2.574030e-10
-3.885880e-10 -1.200200e+03 -4.000000e+02
4.000000e+02 -1.200200e+03 -4.000000e+02
-2.888450e-10 -8.002190e+02 -4.000000e+02
4.000000e+02 -8.002190e+02 -4.000000e+02
-5.485100e-10 -1.200200e+03 -3.903520e-10
4.000000e+02 -1.200200e+03 -4.226670e-10
-2.666540e-10 -8.002190e+02 -2.574030e-10
4.000000e+02 -8.002190e+02 -1.848900e-10
-4.000000e+02 -8.002190e+02 -4.000000e+02
-2.888450e-10 -8.002190e+02 -4.000000e+02
-4.000000e+02 -4.002260e+02 -4.000000e+02
-8.188440e-11 -4.002260e+02 -4.000000e+02
-4.000000e+02 -8.002190e+02 -3.583030e-10
-2.666540e-10 -8.002190e+02 -2.574030e-10
-4.000000e+02 -4.002260e+02 -2.627190e-10
-1.086780e-10 -4.002260e+02 -1.609450e-10
-2.888450e-10 -8.002190e+02 -4.000000e+02
4.000000e+02 -8.002190e+02 -4.000000e+02
-8.188440e-11 -4.002260e+02 -4.000000e+02
4.000000e+02 -4.002260e+02 -4.000000e+02
-2.666540e-10 -8.002190e+02 -2.574030e-10
4.000000e+02 -8.002190e+02 -1.848900e-10
-1.086780e-10 -4.002260e+02 -1.609450e-10
4.000000e+02 -4.002260e+02 -8.423700e-11
-4.000000e+02 -4.002260e+02 -4.000000e+02
-8.188440e-11 -4.002260e+02 -4.000000e+02
-4.000000e+02 -2.254430e-01 -4.000000e+02
1.037100e-10 -2.254420e-01 -4.000000e+02
-4.000000e+02 -4.002260e+02 -2.627190e-10
-1.086780e-10 -4.002260e+02 -1.609450e-10
-4.000000e+02 -2.254420e-01 -1.296420e-11
-3.713140e-11 -2.254420e-01 -5.951140e-11
-8.188440e-11 -4.002260e+02 -4.000000e+02
[...]
<PointData>
<DataArray type="Float32" Name="V1" format="ascii">
0.000000e+00
0.000000e+00
9.095210e-07
-8.929030e-11
0.000000e+00
0.000000e+00
9.090690e-07
1.977520e-10
0.000000e+00
0.000000e+00
-8.929030e-11
-9.097760e-07
0.000000e+00
0.000000e+00
1.977520e-10
-9.089240e-07
9.095210e-07
-8.929030e-11
-4.382460e-07
5.145590e-11
9.090690e-07
1.977520e-10
-4.401510e-07
-4.553290e-13
-8.929030e-11
-9.097760e-07
5.145590e-11
4.381080e-07
1.977520e-10
-9.089240e-07
-4.553290e-13
4.402880e-07
-4.382460e-07
5.145590e-11
-7.859790e-07
-3.725950e-11
-4.401510e-07
-4.553290e-13
-7.880770e-07
-3.627000e-12
5.145590e-11
4.381080e-07
-3.725950e-11
7.857710e-07
-4.553290e-13
4.402880e-07
-3.627000e-12
7.880330e-07
-7.859790e-07
-3.725950e-11
1.277520e-06
8.768860e-11
-7.880770e-07
-3.627000e-12
1.279600e-06
-1.609920e-10
-3.725950e-11
7.857710e-07
8.768860e-11
-1.277550e-06
-3.627000e-12
7.880330e-07
-1.609920e-10
-1.279850e-06
1.277520e-06
8.768860e-11
-5.045670e-08
1.792600e-10
1.279600e-06
-1.609920e-10
-5.110870e-08
-1.092370e-10
8.768860e-11
-1.277550e-06
1.792600e-10
5.064130e-08
-1.609920e-10
-1.279850e-06
-1.092370e-10
5.082590e-08
-5.045670e-08
1.792600e-10
-9.121400e-07
8.017080e-11
-5.110870e-08
-1.092370e-10
-9.167360e-07
-1.996500e-11
1.792600e-10
5.064130e-08
8.017080e-11
9.124550e-07
-1.092370e-10
5.082590e-08
-1.996500e-11
9.167670e-07
-9.121400e-07
8.017080e-11
2.676410e-07
9.478310e-11
-9.167360e-07
-1.996500e-11
2.680140e-07
-2.403110e-11
8.017080e-11
9.124550e-07
9.478310e-11
-2.676730e-07
-1.996500e-11
9.167670e-07
-2.403110e-11
-2.680970e-07
2.676410e-07
9.478310e-11
5.787790e-07
-1.761800e-10
2.680140e-07
-2.403110e-11
5.847140e-07
2.429810e-11
9.478310e-11
-2.676730e-07
-1.761800e-10
-5.791010e-07
-2.403110e-11
-2.680970e-07
2.429810e-11
-5.845530e-07
5.787790e-07
-1.761800e-10
-1.921800e-07
8.199650e-11
5.847140e-07
2.429810e-11
-1.879970e-07
7.565370e-11
-1.761800e-10
-5.791010e-07
8.199650e-11
1.922000e-07
2.429810e-11
-5.845530e-07
7.565370e-11
1.881930e-07
-1.921800e-07
8.199650e-11
-5.447450e-07
4.332140e-11
-1.879970e-07
7.565370e-11
-5.471680e-07
5.459550e-11
8.199650e-11
1.922000e-07
4.332140e-11
5.448430e-07
7.565370e-11
1.881930e-07
5.459550e-11
5.470700e-07
-5.447450e-07
4.332140e-11
-4.079030e-08
-9.168350e-11
-5.471680e-07
5.459550e-11
-4.101420e-08
1.288060e-10
4.332140e-11
5.448430e-07
-9.168350e-11
4.060180e-08
5.459550e-11
5.470700e-07
1.288060e-10
4.131270e-08
-4.079030e-08
-9.168350e-11
5.539360e-07
4.527280e-11
-4.101420e-08
1.288060e-10
5.539950e-07
-8.168000e-11
-9.168350e-11
4.060180e-08
4.527280e-11
-5.538370e-07
1.288060e-10
4.131270e-08
-8.168000e-11
-5.542770e-07
5.539360e-07
4.527280e-11
2.656220e-07
2.881260e-12
5.539950e-07
-8.168000e-11
2.621420e-07
-1.234120e-10
4.527280e-11
-5.538370e-07
2.881260e-12
-2.655320e-07
-8.168000e-11
-5.542770e-07
-1.234120e-10
-2.622720e-07
2.656220e-07
2.881260e-12
-2.421340e-07
-8.951850e-11
2.621420e-07
-1.234120e-10
-2.431360e-07
2.996110e-11
2.881260e-12
-2.655320e-07
-8.951850e-11
2.418320e-07
-1.234120e-10
-2.622720e-07
2.996110e-11
2.431870e-07
-2.421340e-07
-8.951850e-11
-4.129270e-07
-6.732550e-11
-2.431360e-07
2.996110e-11
-4.149190e-07
-1.763100e-11
-8.951850e-11
2.418320e-07
-6.732550e-11
4.127310e-07
2.996110e-11
2.431870e-07
-1.763100e-11
4.150050e-07
-4.129270e-07
-6.732550e-11
-3.353570e-08
4.056390e-11
-4.149190e-07
-1.763100e-11
-3.409340e-08
-8.454620e-12
-6.732550e-11
4.127310e-07
4.056390e-11
3.353570e-08
-1.763100e-11
4.150050e-07
-8.454620e-12
3.396770e-08
-3.353570e-08
4.056390e-11
4.317690e-07
1.254390e-10
-3.409340e-08
-8.454620e-12
4.308970e-07
-3.791080e-11
4.056390e-11
3.353570e-08
1.254390e-10
-4.315170e-07
-8.454620e-12
3.396770e-08
-3.791080e-11
-4.311010e-07
4.317690e-07
1.254390e-10
4.052800e-07
-7.724400e-11
4.308970e-07
-3.791080e-11
4.038890e-07
-2.074610e-11
1.254390e-10
-4.315170e-07
-7.724400e-11
-4.053310e-07
-3.791080e-11
-4.311010e-07
-2.074610e-11
-4.039680e-07
4.052800e-07
-7.724400e-11
3.592650e-07
-5.900880e-12
4.038890e-07
-2.074610e-11
3.579020e-07
-2.699300e-11
-7.724400e-11
-4.053310e-07
-5.900880e-12
-3.592690e-07
-2.074610e-11
-4.039680e-07
-2.699300e-11
-3.579420e-07
3.592650e-07
-5.900880e-12
1.874510e-07
3.732840e-11
3.579020e-07
-2.699300e-11
1.869600e-07
7.938490e-11
-5.900880e-12
-3.592690e-07
3.732840e-11
-1.873650e-07
-2.699300e-11
-3.579420e-07
7.938490e-11
-1.867640e-07
1.874510e-07
3.732840e-11
8.554780e-09
6.232420e-12
1.869600e-07
7.938490e-11
7.847770e-09
-1.055100e-11
3.732840e-11
-1.873650e-07
6.232420e-12
-8.558710e-09
7.938490e-11
-1.867640e-07
-1.055100e-11
-7.879190e-09
8.554780e-09
6.232420e-12
-2.938000e-08
5.541550e-11
7.847770e-09
-1.055100e-11
-3.048380e-08
2.245360e-11
6.232420e-12
-8.558710e-09
5.541550e-11
2.947430e-08
-1.055100e-11
-7.879190e-09
2.245360e-11
3.053880e-08
-2.938000e-08
5.541550e-11
3.724350e-08
3.940470e-11
-3.048380e-08
2.245360e-11
3.938810e-08
2.817740e-11
5.541550e-11
2.947430e-08
3.940470e-11
-3.718850e-08
2.245360e-11
3.053880e-08
2.817740e-11
-3.934100e-08
3.724350e-08
3.940470e-11
-4.458850e-08
-3.537470e-12
3.938810e-08
2.817740e-11
-4.607720e-08
-6.708100e-12
3.940470e-11
-3.718850e-08
-3.537470e-12
4.456890e-08
2.817740e-11
-3.934100e-08
-6.708100e-12
4.604580e-08
-4.458850e-08
-3.537470e-12
7.632130e-08
2.552300e-11
-4.607720e-08
-6.708100e-12
7.816740e-08
1.822610e-11
-3.537470e-12
4.456890e-08
2.552300e-11
-7.626240e-08
-6.708100e-12
4.604580e-08
1.822610e-11
-7.813990e-08
7.632130e-08
2.552300e-11
7.774710e-08
-2.858020e-12
7.816740e-08
1.822610e-11
8.057910e-08
-8.730950e-13
2.552300e-11
-7.626240e-08
-2.858020e-12
-7.775890e-08
1.822610e-11
-7.813990e-08
-8.730950e-13
-8.057910e-08
7.774710e-08
-2.858020e-12
-3.402980e-07
-1.799610e-11
8.057910e-08
-8.730950e-13
-3.521320e-07
-1.632590e-11
-2.858020e-12
-7.775890e-08
-1.799610e-11
3.402550e-07
-8.730950e-13
-8.057910e-08
-1.632590e-11
3.521010e-07
-3.402980e-07
-1.799610e-11
6.426300e-08
-1.123070e-11
-3.521320e-07
-1.632590e-11
6.669030e-08
-6.807640e-12
-1.799610e-11
3.402550e-07
-1.123070e-11
-6.428650e-08
-1.632590e-11
3.521010e-07
-6.807640e-12
-6.669430e-08
6.426300e-08
-1.123070e-11
2.217410e-07
-6.863230e-12
6.669030e-08
-6.807640e-12
2.279430e-07
-7.421300e-12
-1.123070e-11
-6.428650e-08
-6.863230e-12
-2.217640e-07
-6.807640e-12
-6.669430e-08
-7.421300e-12
-2.279550e-07
2.217410e-07
-6.863230e-12
-3.036200e-08
-4.924270e-12
2.279430e-07
-7.421300e-12
-2.719620e-08
-2.090560e-12
-6.863230e-12
-2.217640e-07
-4.924270e-12
3.035810e-08
-7.421300e-12
-2.279550e-07
-2.090560e-12
2.719620e-08
0.000000e+00
0.000000e+00
9.090690e-07
1.977520e-10
0.000000e+00
0.000000e+00
9.095440e-07
-1.013910e-10
0.000000e+00
0.000000e+00
1.977520e-10
-9.089240e-07
0.000000e+00
0.000000e+00
-1.013910e-10
-9.096620e-07
9.090690e-07
1.977520e-10
-4.401510e-07
-4.553290e-13
9.095440e-07
-1.013910e-10
-4.383680e-07
7.734990e-11
1.977520e-10
-9.089240e-07
-4.553290e-13
4.402880e-07
-1.013910e-10
-9.096620e-07
7.734990e-11
4.382970e-07
-4.401510e-07
-4.553290e-13
-7.880770e-07
-3.627000e-12
-4.383680e-07
7.734990e-11
-7.856260e-07
6.482780e-12
-4.553290e-13
4.402880e-07
-3.627000e-12
7.880330e-07
7.734990e-11
4.382970e-07
6.482780e-12
7.856570e-07
-7.880770e-07
-3.627000e-12
1.279600e-06
-1.609920e-10
-7.856260e-07
6.482780e-12
1.277360e-06
5.759430e-11
-3.627000e-12
7.880330e-07
-1.609920e-10
-1.279850e-06
6.482780e-12
7.856570e-07
5.759430e-11
-1.277350e-06
1.279600e-06
-1.609920e-10
-5.110870e-08
-1.092370e-10
1.277360e-06
5.759430e-11
-5.073560e-08
2.240490e-11
-1.609920e-10
-1.279850e-06
-1.092370e-10
5.082590e-08
5.759430e-11
-1.277350e-06
2.240490e-11
5.078270e-08
-5.110870e-08
-1.092370e-10
-9.167360e-07
-1.996500e-11
-5.073560e-08
2.240490e-11
-9.126240e-07
5.400850e-11
-1.092370e-10
5.082590e-08
-1.996500e-11
9.167670e-07
2.240490e-11
5.078270e-08
5.400850e-11
9.126240e-07
-9.167360e-07
-1.996500e-11
2.680140e-07
-2.403110e-11
-9.126240e-07
5.400850e-11
2.677350e-07
1.538670e-12
-1.996500e-11
9.167670e-07
-2.403110e-11
-2.680970e-07
5.400850e-11
9.126240e-07
1.538670e-12
-2.676650e-07
2.680140e-07
-2.403110e-11
5.847140e-07
2.429810e-11
2.677350e-07
1.538670e-12
5.789750e-07
-1.239510e-10
-2.403110e-11
-2.680970e-07
2.429810e-11
-5.845530e-07
1.538670e-12
-2.676650e-07
-1.239510e-10
-5.791990e-07
5.847140e-07
2.429810e-11
-1.879970e-07
7.565370e-11
5.789750e-07
-1.239510e-10
-1.920030e-07
6.458270e-11
2.429810e-11
-5.845530e-07
7.565370e-11
1.881930e-07
-1.239510e-10
-5.791990e-07
6.458270e-11
1.921020e-07
-1.879970e-07
7.565370e-11
-5.471680e-07
5.459550e-11
-1.920030e-07
6.458270e-11
-5.446860e-07
-2.227800e-11
7.565370e-11
1.881930e-07
5.459550e-11
5.470700e-07
6.458270e-11
1.921020e-07
-2.227800e-11
5.445840e-07
-5.471680e-07
5.459550e-11
-4.101420e-08
1.288060e-10
-5.446860e-07
-2.227800e-11
-4.049580e-08
-1.152060e-10
5.459550e-11
5.470700e-07
1.288060e-10
4.131270e-08
-2.227800e-11
5.445840e-07
-1.152060e-10
4.046830e-08
-4.101420e-08
1.288060e-10
5.539950e-07
-8.168000e-11
-4.049580e-08
-1.152060e-10
5.537790e-07
1.863140e-11
1.288060e-10
4.131270e-08
-8.168000e-11
-5.542770e-07
-1.152060e-10
4.046830e-08
1.863140e-11
-5.537470e-07
5.539950e-07
-8.168000e-11
2.621420e-07
-1.234120e-10
5.537790e-07
1.863140e-11
2.653280e-07
-7.809530e-11
-8.168000e-11
-5.542770e-07
-1.234120e-10
-2.622720e-07
1.863140e-11
-5.537470e-07
-7.809530e-11
-2.654850e-07
2.621420e-07
-1.234120e-10
-2.431360e-07
2.996110e-11
2.653280e-07
-7.809530e-11
-2.419450e-07
9.535890e-11
-1.234120e-10
-2.622720e-07
2.996110e-11
2.431870e-07
-7.809530e-11
-2.654850e-07
9.535890e-11
2.418630e-07
-2.431360e-07
2.996110e-11
-4.149190e-07
-1.763100e-11
-2.419450e-07
9.535890e-11
-4.128410e-07
-1.805960e-11
2.996110e-11
2.431870e-07
-1.763100e-11
4.150050e-07
9.535890e-11
2.418630e-07
-1.805960e-11
4.126760e-07
-4.149190e-07
-1.763100e-11
-3.409340e-08
-8.454620e-12
-4.128410e-07
-1.805960e-11
-3.353570e-08
2.124050e-11
-1.763100e-11
4.150050e-07
-8.454620e-12
3.396770e-08
-1.805960e-11
4.126760e-07
2.124050e-11
3.354750e-08
-3.409340e-08
-8.454620e-12
4.308970e-07
-3.791080e-11
-3.353570e-08
2.124050e-11
4.315170e-07
5.389180e-11
-8.454620e-12
3.396770e-08
-3.791080e-11
-4.311010e-07
2.124050e-11
3.354750e-08
5.389180e-11
-4.313680e-07
4.308970e-07
-3.791080e-11
4.038890e-07
-2.074610e-11
4.315170e-07
5.389180e-11
4.050280e-07
-1.105840e-10
-3.791080e-11
-4.311010e-07
-2.074610e-11
-4.039680e-07
5.389180e-11
-4.313680e-07
-1.105840e-10
-4.052360e-07
4.038890e-07
-2.074610e-11
3.579020e-07
-2.699300e-11
4.050280e-07
-1.105840e-10
3.594220e-07
-5.381400e-11
-2.074610e-11
-4.039680e-07
-2.699300e-11
-3.579420e-07
-1.105840e-10
-4.052360e-07
-5.381400e-11
-3.594660e-07
3.579020e-07
-2.699300e-11
1.869600e-07
7.938490e-11
3.594220e-07
-5.381400e-11
1.873170e-07
3.137340e-12
-2.699300e-11
-3.579420e-07
7.938490e-11
-1.867640e-07
-5.381400e-11
-3.594660e-07
3.137340e-12
-1.872660e-07
1.869600e-07
7.938490e-11
7.847770e-09
-1.055100e-11
1.873170e-07
3.137340e-12
8.582270e-09
2.035810e-11
7.938490e-11
-1.867640e-07
-1.055100e-11
-7.879190e-09
3.137340e-12
-1.872660e-07
2.035810e-11
-8.558710e-09
7.847770e-09
-1.055100e-11
-3.048380e-08
2.245360e-11
8.582270e-09
2.035810e-11
-2.944680e-08
-2.695580e-12
-1.055100e-11
-7.879190e-09
2.245360e-11
3.053880e-08
2.035810e-11
-8.558710e-09
-2.695580e-12
2.943900e-08
-3.048380e-08
2.245360e-11
3.938810e-08
2.817740e-11
-2.944680e-08
-2.695580e-12
3.718850e-08
-7.317400e-12
2.245360e-11
3.053880e-08
2.817740e-11
-3.934100e-08
-2.695580e-12
2.943900e-08
-7.317400e-12
-3.717680e-08
3.938810e-08
2.817740e-11
-4.607720e-08
-6.708100e-12
3.718850e-08
-7.317400e-12
-4.456100e-08
1.911070e-12
2.817740e-11
-3.934100e-08
-6.708100e-12
4.604580e-08
-7.317400e-12
-3.717680e-08
1.911070e-12
4.454930e-08
-4.607720e-08
-6.708100e-12
7.816740e-08
1.822610e-11
-4.456100e-08
1.911070e-12
7.632130e-08
1.369310e-11
-6.708100e-12
4.604580e-08
1.822610e-11
-7.813990e-08
1.911070e-12
4.454930e-08
1.369310e-11
-7.629390e-08
7.816740e-08
1.822610e-11
8.057910e-08
-8.730950e-13
7.632130e-08
1.369310e-11
7.775110e-08
-4.664000e-12
1.822610e-11
-7.813990e-08
-8.730950e-13
-8.057910e-08
1.369310e-11
-7.629390e-08
-4.664000e-12
-7.774320e-08
8.057910e-08
-8.730950e-13
-3.521320e-07
-1.632590e-11
7.775110e-08
-4.664000e-12
-3.402740e-07
-8.002300e-12
-8.730950e-13
-8.057910e-08
-1.632590e-11
3.521010e-07
-4.664000e-12
-7.774320e-08
-8.002300e-12
3.402670e-07
-3.521320e-07
-1.632590e-11
6.669030e-08
-6.807640e-12
-3.402740e-07
-8.002300e-12
6.427870e-08
-1.016230e-11
-1.632590e-11
3.521010e-07
-6.807640e-12
-6.669430e-08
-8.002300e-12
3.402670e-07
-1.016230e-11
-6.429440e-08
6.669030e-08
-6.807640e-12
2.279430e-07
-7.421300e-12
6.427870e-08
-1.016230e-11
2.217640e-07
-3.085300e-12
-6.807640e-12
-6.669430e-08
-7.421300e-12
-2.279550e-07
-1.016230e-11
-6.429440e-08
-3.085300e-12
-2.217680e-07
2.279430e-07
-7.421300e-12
-2.719620e-08
-2.090560e-12
2.217640e-07
-3.085300e-12
-3.034630e-08
1.445900e-12
-7.421300e-12
-2.279550e-07
-2.090560e-12
2.719620e-08
-3.085300e-12
-2.217680e-07
1.445900e-12
3.035810e-08
</DataArray>
<DataArray type="Float32" Name="V2" format="ascii">
0.000000e+00
0.000000e+00
1.050820e-04
1.048930e-04
0.000000e+00
0.000000e+00
1.048930e-04
1.046830e-04
0.000000e+00
0.000000e+00
1.048930e-04
1.050820e-04
0.000000e+00
0.000000e+00
1.046830e-04
1.048930e-04
1.050820e-04
1.048930e-04
4.532560e-04
4.539180e-04
1.048930e-04
1.046830e-04
4.539180e-04
4.545820e-04
1.048930e-04
1.050820e-04
4.539180e-04
4.532560e-04
1.046830e-04
1.048930e-04
4.545820e-04
4.539180e-04
4.532560e-04
4.539180e-04
9.274850e-04
9.280390e-04
4.539180e-04
4.545820e-04
9.280400e-04
9.286140e-04
4.539180e-04
4.532560e-04
9.280390e-04
9.274850e-04
4.545820e-04
4.539180e-04
9.286140e-04
9.280400e-04
9.274850e-04
9.280390e-04
1.513320e-03
1.512960e-03
9.280400e-04
9.286140e-04
1.512960e-03
1.512580e-03
9.280390e-04
9.274850e-04
1.512960e-03
1.513320e-03
9.286140e-04
9.280400e-04
1.512580e-03
1.512960e-03
1.513320e-03
1.512960e-03
2.624940e-03
2.625140e-03
1.512960e-03
1.512580e-03
2.625130e-03
2.625320e-03
1.512960e-03
1.513320e-03
2.625140e-03
2.624940e-03
1.512580e-03
1.512960e-03
2.625320e-03
2.625130e-03
2.624940e-03
2.625140e-03
4.979470e-03
4.979240e-03
2.625130e-03
2.625320e-03
4.979240e-03
4.979020e-03
2.625140e-03
2.624940e-03
4.979240e-03
4.979470e-03
2.625320e-03
2.625130e-03
4.979020e-03
4.979240e-03
4.979470e-03
4.979240e-03
9.059780e-03
9.059180e-03
4.979240e-03
4.979020e-03
9.059180e-03
9.058580e-03
4.979240e-03
4.979470e-03
9.059180e-03
9.059780e-03
4.979020e-03
4.979240e-03
9.058580e-03
9.059180e-03
9.059780e-03
9.059180e-03
1.490120e-02
1.490140e-02
9.059180e-03
9.058580e-03
1.490140e-02
1.490170e-02
9.059180e-03
9.059780e-03
1.490140e-02
1.490120e-02
9.058580e-03
9.059180e-03
1.490170e-02
1.490140e-02
1.490120e-02
1.490140e-02
2.129860e-02
2.129920e-02
1.490140e-02
1.490170e-02
2.129920e-02
2.129990e-02
1.490140e-02
1.490120e-02
2.129920e-02
2.129860e-02
1.490170e-02
1.490140e-02
2.129990e-02
2.129920e-02
2.129860e-02
2.129920e-02
2.561030e-02
2.561060e-02
2.129920e-02
2.129990e-02
2.561060e-02
2.561090e-02
2.129920e-02
2.129860e-02
2.561060e-02
2.561030e-02
2.129990e-02
2.129920e-02
2.561090e-02
2.561060e-02
2.561030e-02
2.561060e-02
2.511370e-02
2.511340e-02
2.561060e-02
2.561090e-02
2.511340e-02
2.511310e-02
2.561060e-02
2.561030e-02
2.511340e-02
2.511370e-02
2.561090e-02
2.561060e-02
2.511310e-02
2.511340e-02
2.511370e-02
2.511340e-02
1.853450e-02
1.853450e-02
2.511340e-02
2.511310e-02
1.853450e-02
1.853450e-02
2.511340e-02
2.511370e-02
1.853450e-02
1.853450e-02
2.511310e-02
2.511340e-02
1.853450e-02
1.853450e-02
1.853450e-02
1.853450e-02
8.221610e-03
8.221870e-03
1.853450e-02
1.853450e-02
8.221870e-03
8.222130e-03
1.853450e-02
1.853450e-02
8.221870e-03
8.221610e-03
1.853450e-02
1.853450e-02
8.222130e-03
8.221870e-03
8.221610e-03
8.221870e-03
-2.555710e-04
-2.553910e-04
8.221870e-03
8.222130e-03
-2.553910e-04
-2.552100e-04
8.221870e-03
8.221610e-03
-2.553910e-04
-2.555700e-04
8.222130e-03
8.221870e-03
-2.552100e-04
-2.553910e-04
-2.555710e-04
-2.553910e-04
-3.099510e-03
-3.099730e-03
-2.553910e-04
-2.552100e-04
-3.099730e-03
-3.099960e-03
-2.553910e-04
-2.555700e-04
-3.099730e-03
-3.099510e-03
-2.552100e-04
-2.553910e-04
-3.099960e-03
-3.099730e-03
-3.099510e-03
-3.099730e-03
-1.819090e-03
-1.819550e-03
-3.099730e-03
-3.099960e-03
-1.819550e-03
-1.820000e-03
-3.099730e-03
-3.099510e-03
-1.819550e-03
-1.819090e-03
-3.099960e-03
-3.099730e-03
-1.820000e-03
-1.819550e-03
-1.819090e-03
-1.819550e-03
-4.462030e-04
-4.465280e-04
-1.819550e-03
-1.820000e-03
-4.465280e-04
-4.468500e-04
-1.819550e-03
-1.819090e-03
-4.465280e-04
-4.462030e-04
-1.820000e-03
-1.819550e-03
-4.468500e-04
-4.465280e-04
-4.462030e-04
-4.465280e-04
-3.256380e-04
-3.257570e-04
-4.465280e-04
-4.468500e-04
-3.257570e-04
-3.258700e-04
-4.465280e-04
-4.462030e-04
-3.257570e-04
-3.256380e-04
-4.468500e-04
-4.465280e-04
-3.258700e-04
-3.257570e-04
-3.256380e-04
-3.257570e-04
-4.122740e-04
-4.122950e-04
-3.257570e-04
-3.258700e-04
-4.122950e-04
-4.123140e-04
-3.257570e-04
-3.256380e-04
-4.122950e-04
-4.122730e-04
-3.258700e-04
-3.257570e-04
-4.123140e-04
-4.122950e-04
-4.122740e-04
-4.122950e-04
-3.661400e-04
-3.659890e-04
-4.122950e-04
-4.123140e-04
-3.659890e-04
-3.658360e-04
-4.122950e-04
-4.122730e-04
-3.659890e-04
-3.661400e-04
-4.123140e-04
-4.122950e-04
-3.658360e-04
-3.659890e-04
-3.661400e-04
-3.659890e-04
-3.969410e-04
-3.968230e-04
-3.659890e-04
-3.658360e-04
-3.968230e-04
-3.967010e-04
-3.659890e-04
-3.661400e-04
-3.968230e-04
-3.969400e-04
-3.658360e-04
-3.659890e-04
-3.967010e-04
-3.968230e-04
-3.969410e-04
-3.968230e-04
-3.624240e-04
-3.624690e-04
-3.968230e-04
-3.967010e-04
-3.624690e-04
-3.625240e-04
-3.968230e-04
-3.969400e-04
-3.624690e-04
-3.624230e-04
-3.967010e-04
-3.968230e-04
-3.625240e-04
-3.624690e-04
-3.624240e-04
-3.624690e-04
-2.899240e-04
-2.900110e-04
-3.624690e-04
-3.625240e-04
-2.900110e-04
-2.901110e-04
-3.624690e-04
-3.624230e-04
-2.900110e-04
-2.899250e-04
-3.625240e-04
-3.624690e-04
-2.901110e-04
-2.900110e-04
-2.899240e-04
-2.900110e-04
-2.820370e-04
-2.818240e-04
-2.900110e-04
-2.901110e-04
-2.818250e-04
-2.815800e-04
-2.900110e-04
-2.899250e-04
-2.818240e-04
-2.820370e-04
-2.901110e-04
-2.900110e-04
-2.815800e-04
-2.818240e-04
-2.820370e-04
-2.818240e-04
-2.982320e-04
-2.984120e-04
-2.818250e-04
-2.815800e-04
-2.984120e-04
-2.986240e-04
-2.818240e-04
-2.820370e-04
-2.984120e-04
-2.982320e-04
-2.815800e-04
-2.818240e-04
-2.986240e-04
-2.984130e-04
-2.982320e-04
-2.984120e-04
-2.828780e-04
-2.824500e-04
-2.984120e-04
-2.986240e-04
-2.824500e-04
-2.819550e-04
-2.984120e-04
-2.982320e-04
-2.824500e-04
-2.828780e-04
-2.986240e-04
-2.984130e-04
-2.819550e-04
-2.824500e-04
-2.828780e-04
-2.824500e-04
-1.267640e-04
-1.265560e-04
-2.824500e-04
-2.819550e-04
-1.265560e-04
-1.263280e-04
-2.824500e-04
-2.828780e-04
-1.265560e-04
-1.267640e-04
-2.819550e-04
-2.824500e-04
-1.263280e-04
-1.265560e-04
-1.267640e-04
-1.265560e-04
9.756120e-05
9.592340e-05
-1.265560e-04
-1.263280e-04
9.592330e-05
9.408180e-05
-1.265560e-04
-1.267640e-04
9.592340e-05
9.756100e-05
-1.263280e-04
-1.265560e-04
9.408180e-05
9.592320e-05
9.756120e-05
9.592340e-05
7.465300e-05
7.496190e-05
9.592330e-05
9.408180e-05
7.496190e-05
7.526530e-05
9.592340e-05
9.756100e-05
7.496190e-05
7.465290e-05
9.408180e-05
9.592320e-05
7.526530e-05
7.496190e-05
7.465300e-05
7.496190e-05
-2.048750e-07
-1.648420e-07
7.496190e-05
7.526530e-05
-1.649680e-07
-1.382590e-07
7.496190e-05
7.465290e-05
-1.648420e-07
-2.048750e-07
7.526530e-05
7.496190e-05
-1.382590e-07
-1.649050e-07
0.000000e+00
0.000000e+00
1.048930e-04
1.046830e-04
0.000000e+00
0.000000e+00
1.050830e-04
1.048930e-04
0.000000e+00
0.000000e+00
1.046830e-04
1.048930e-04
0.000000e+00
0.000000e+00
1.048930e-04
1.050820e-04
1.048930e-04
1.046830e-04
4.539180e-04
4.545820e-04
1.050830e-04
1.048930e-04
4.532560e-04
4.539180e-04
1.046830e-04
1.048930e-04
4.545820e-04
4.539180e-04
1.048930e-04
1.050820e-04
4.539180e-04
4.532550e-04