<?xml version="1.0"?>
<VTKFile type="UnstructuredGrid" version="0.1" byte_order="LittleEndian" compressor="vtkZLibDataCompressor">
<UnstructuredGrid>
<Piece NumberOfPoints="960" NumberOfCells="120">
<Points>
<DataArray type="Float32" NumberOfComponents="3" format="ascii">
-4.000000e+02 -6.000000e+03 -4.000000e+02
0.000000e+00 -6.000000e+03 -4.000000e+02
-4.000000e+02 -5.600000e+03 -4.000000e+02
7.662530e-11 -5.600000e+03 -4.000000e+02
-4.000000e+02 -6.000000e+03 0.000000e+00
0.000000e+00 -6.000000e+03 0.000000e+00
-4.000000e+02 -5.600000e+03 -3.575510e-11
-2.972190e-11 -5.600000e+03 -1.319660e-10
0.000000e+00 -6.000000e+03 -4.000000e+02
4.000000e+02 -6.000000e+03 -4.000000e+02
7.662530e-11 -5.600000e+03 -4.000000e+02
4.000000e+02 -5.600000e+03 -4.000000e+02
0.000000e+00 -6.000000e+03 0.000000e+00
4.000000e+02 -6.000000e+03 0.000000e+00
-2.972190e-11 -5.600000e+03 -1.319660e-10
4.000000e+02 -5.600000e+03 -1.219960e-10
-4.000000e+02 -5.600000e+03 -4.000000e+02
7.662530e-11 -5.600000e+03 -4.000000e+02
-4.000000e+02 -5.200010e+03 -4.000000e+02
-4.349100e-12 -5.200010e+03 -4.000000e+02
-4.000000e+02 -5.600000e+03 -3.575510e-11
-2.972190e-11 -5.600000e+03 -1.319660e-10
-4.000000e+02 -5.200010e+03 -2.295590e-10
-1.625920e-11 -5.200010e+03 -3.950020e-10
7.662530e-11 -5.600000e+03 -4.000000e+02
4.000000e+02 -5.600000e+03 -4.000000e+02
-4.349100e-12 -5.200010e+03 -4.000000e+02
4.000000e+02 -5.200010e+03 -4.000000e+02
-2.972190e-11 -5.600000e+03 -1.319660e-10
4.000000e+02 -5.600000e+03 -1.219960e-10
-1.625920e-11 -5.200010e+03 -3.950020e-10
4.000000e+02 -5.200010e+03 -3.737780e-10
-4.000000e+02 -5.200010e+03 -4.000000e+02
-4.349100e-12 -5.200010e+03 -4.000000e+02
-4.000000e+02 -4.800010e+03 -4.000000e+02
-1.970580e-10 -4.800010e+03 -4.000000e+02
-4.000000e+02 -5.200010e+03 -2.295590e-10
-1.625920e-11 -5.200010e+03 -3.950020e-10
-4.000000e+02 -4.800010e+03 -5.928140e-10
-2.255730e-10 -4.800010e+03 -5.243260e-10
-4.349100e-12 -5.200010e+03 -4.000000e+02
4.000000e+02 -5.200010e+03 -4.000000e+02
-1.970580e-10 -4.800010e+03 -4.000000e+02
4.000000e+02 -4.800010e+03 -4.000000e+02
-1.625920e-11 -5.200010e+03 -3.950020e-10
4.000000e+02 -5.200010e+03 -3.737780e-10
-2.255730e-10 -4.800010e+03 -5.243260e-10
4.000000e+02 -4.800010e+03 -5.722630e-10
-4.000000e+02 -4.800010e+03 -4.000000e+02
-1.970580e-10 -4.800010e+03 -4.000000e+02
-4.000000e+02 -4.400010e+03 -4.000000e+02
-3.163010e-10 -4.400010e+03 -4.000000e+02
-4.000000e+02 -4.800010e+03 -5.928140e-10
-2.255730e-10 -4.800010e+03 -5.243260e-10
-4.000000e+02 -4.400010e+03 -7.860390e-10
-2.494430e-10 -4.400010e+03 -7.636000e-10
-1.970580e-10 -4.800010e+03 -4.000000e+02
4.000000e+02 -4.800010e+03 -4.000000e+02
-3.163010e-10 -4.400010e+03 -4.000000e+02
4.000000e+02 -4.400010e+03 -4.000000e+02
-2.255730e-10 -4.800010e+03 -5.243260e-10
4.000000e+02 -4.800010e+03 -5.722630e-10
-2.494430e-10 -4.400010e+03 -7.636000e-10
4.000000e+02 -4.400010e+03 -6.669210e-10
-4.000000e+02 -4.400010e+03 -4.000000e+02
-3.163010e-10 -4.400010e+03 -4.000000e+02
-4.000000e+02 -4.000010e+03 -4.000000e+02
-3.059760e-10 -4.000010e+03 -4.000000e+02
-4.000000e+02 -4.400010e+03 -7.860390e-10
-2.494430e-10 -4.400010e+03 -7.636000e-10
-4.000000e+02 -4.000010e+03 -8.165960e-10
-2.629000e-10 -4.000010e+03 -8.989560e-10
-3.163010e-10 -4.400010e+03 -4.000000e+02
4.000000e+02 -4.400010e+03 -4.000000e+02
-3.059760e-10 -4.000010e+03 -4.000000e+02
4.000000e+02 -4.000010e+03 -4.000000e+02
-2.494430e-10 -4.400010e+03 -7.636000e-10
4.000000e+02 -4.400010e+03 -6.669210e-10
-2.629000e-10 -4.000010e+03 -8.989560e-10
4.000000e+02 -4.000010e+03 -8.230320e-10
-4.000000e+02 -4.000010e+03 -4.000000e+02
-3.059760e-10 -4.000010e+03 -4.000000e+02
-4.000000e+02 -3.600020e+03 -4.000000e+02
-2.642050e-10 -3.600020e+03 -4.000000e+02
-4.000000e+02 -4.000010e+03 -8.165960e-10
-2.629000e-10 -4.000010e+03 -8.989560e-10
-4.000000e+02 -3.600020e+03 -8.490170e-10
-3.680120e-10 -3.600020e+03 -9.078670e-10
-3.059760e-10 -4.000010e+03 -4.000000e+02
4.000000e+02 -4.000010e+03 -4.000000e+02
-2.642050e-10 -3.600020e+03 -4.000000e+02
4.000000e+02 -3.600020e+03 -4.000000e+02
-2.629000e-10 -4.000010e+03 -8.989560e-10
4.000000e+02 -4.000010e+03 -8.230320e-10
-3.680120e-10 -3.600020e+03 -9.078670e-10
4.000000e+02 -3.600020e+03 -8.771510e-10
-4.000000e+02 -3.600020e+03 -4.000000e+02
-2.642050e-10 -3.600020e+03 -4.000000e+02
-4.000000e+02 -3.200020e+03 -4.000000e+02
-1.704430e-10 -3.200020e+03 -4.000000e+02
-4.000000e+02 -3.600020e+03 -8.490170e-10
-3.680120e-10 -3.600020e+03 -9.078670e-10
-4.000000e+02 -3.200020e+03 -8.319860e-10
-3.050000e-10 -3.200020e+03 -8.515040e-10
-2.642050e-10 -3.600020e+03 -4.000000e+02
4.000000e+02 -3.600020e+03 -4.000000e+02
-1.704430e-10 -3.200020e+03 -4.000000e+02
4.000000e+02 -3.200020e+03 -4.000000e+02
-3.680120e-10 -3.600020e+03 -9.078670e-10
4.000000e+02 -3.600020e+03 -8.771510e-10
-3.050000e-10 -3.200020e+03 -8.515040e-10
4.000000e+02 -3.200020e+03 -8.421850e-10
-4.000000e+02 -3.200020e+03 -4.000000e+02
-1.704430e-10 -3.200020e+03 -4.000000e+02
-4.000000e+02 -2.800020e+03 -4.000000e+02
-2.142040e-10 -2.800020e+03 -4.000000e+02
-4.000000e+02 -3.200020e+03 -8.319860e-10
-3.050000e-10 -3.200020e+03 -8.515040e-10
-4.000000e+02 -2.800020e+03 -7.802790e-10
-3.477760e-10 -2.800020e+03 -7.259210e-10
-1.704430e-10 -3.200020e+03 -4.000000e+02
4.000000e+02 -3.200020e+03 -4.000000e+02
-2.142040e-10 -2.800020e+03 -4.000000e+02
4.000000e+02 -2.800020e+03 -4.000000e+02
-3.050000e-10 -3.200020e+03 -8.515040e-10
4.000000e+02 -3.200020e+03 -8.421850e-10
-3.477760e-10 -2.800020e+03 -7.259210e-10
4.000000e+02 -2.800020e+03 -7.512060e-10
-4.000000e+02 -2.800020e+03 -4.000000e+02
-2.142040e-10 -2.800020e+03 -4.000000e+02
-4.000000e+02 -2.400030e+03 -4.000000e+02
-4.273550e-10 -2.400030e+03 -4.000000e+02
-4.000000e+02 -2.800020e+03 -7.802790e-10
-3.477760e-10 -2.800020e+03 -7.259210e-10
-4.000000e+02 -2.400030e+03 -8.459860e-10
-4.339720e-10 -2.400030e+03 -7.415210e-10
-2.142040e-10 -2.800020e+03 -4.000000e+02
4.000000e+02 -2.800020e+03 -4.000000e+02
-4.273550e-10 -2.400030e+03 -4.000000e+02
4.000000e+02 -2.400030e+03 -4.000000e+02
-3.477760e-10 -2.800020e+03 -7.259210e-10
4.000000e+02 -2.800020e+03 -7.512060e-10
-4.339720e-10 -2.400030e+03 -7.415210e-10
4.000000e+02 -2.400030e+03 -7.034460e-10
-4.000000e+02 -2.400030e+03 -4.000000e+02
-4.273550e-10 -2.400030e+03 -4.000000e+02
-4.000000e+02 -2.000030e+03 -4.000000e+02
-4.564840e-10 -2.000030e+03 -4.000000e+02
-4.000000e+02 -2.400030e+03 -8.459860e-10
-4.339720e-10 -2.400030e+03 -7.415210e-10
-4.000000e+02 -2.000030e+03 -8.471340e-10
-4.643190e-10 -2.000030e+03 -6.846720e-10
-4.273550e-10 -2.400030e+03 -4.000000e+02
4.000000e+02 -2.400030e+03 -4.000000e+02
-4.564840e-10 -2.000030e+03 -4.000000e+02
4.000000e+02 -2.000030e+03 -4.000000e+02
-4.339720e-10 -2.400030e+03 -7.415210e-10
4.000000e+02 -2.400030e+03 -7.034460e-10
-4.643190e-10 -2.000030e+03 -6.846720e-10
4.000000e+02 -2.000030e+03 -6.297020e-10
-4.000000e+02 -2.000030e+03 -4.000000e+02
-4.564840e-10 -2.000030e+03 -4.000000e+02
-4.000000e+02 -1.600040e+03 -4.000000e+02
-4.254900e-10 -1.600040e+03 -4.000000e+02
-4.000000e+02 -2.000030e+03 -8.471340e-10
-4.643190e-10 -2.000030e+03 -6.846720e-10
-4.000000e+02 -1.600040e+03 -7.324720e-10
-4.706910e-10 -1.600040e+03 -6.406590e-10
-4.564840e-10 -2.000030e+03 -4.000000e+02
4.000000e+02 -2.000030e+03 -4.000000e+02
-4.254900e-10 -1.600040e+03 -4.000000e+02
4.000000e+02 -1.600040e+03 -4.000000e+02
-4.643190e-10 -2.000030e+03 -6.846720e-10
4.000000e+02 -2.000030e+03 -6.297020e-10
-4.706910e-10 -1.600040e+03 -6.406590e-10
4.000000e+02 -1.600040e+03 -5.509960e-10
-4.000000e+02 -1.600040e+03 -4.000000e+02
-4.254900e-10 -1.600040e+03 -4.000000e+02
-4.000000e+02 -1.200050e+03 -4.000000e+02
-2.945780e-10 -1.200050e+03 -4.000000e+02
-4.000000e+02 -1.600040e+03 -7.324720e-10
-4.706910e-10 -1.600040e+03 -6.406590e-10
-4.000000e+02 -1.200050e+03 -7.223380e-10
-3.198480e-10 -1.200050e+03 -5.805020e-10
-4.254900e-10 -1.600040e+03 -4.000000e+02
4.000000e+02 -1.600040e+03 -4.000000e+02
-2.945780e-10 -1.200050e+03 -4.000000e+02
4.000000e+02 -1.200050e+03 -4.000000e+02
-4.706910e-10 -1.600040e+03 -6.406590e-10
4.000000e+02 -1.600040e+03 -5.509960e-10
-3.198480e-10 -1.200050e+03 -5.805020e-10
4.000000e+02 -1.200050e+03 -4.844980e-10
-4.000000e+02 -1.200050e+03 -4.000000e+02
-2.945780e-10 -1.200050e+03 -4.000000e+02
-4.000000e+02 -8.000700e+02 -4.000000e+02
-2.466600e-10 -8.000700e+02 -4.000000e+02
-4.000000e+02 -1.200050e+03 -7.223380e-10
-3.198480e-10 -1.200050e+03 -5.805020e-10
-4.000000e+02 -8.000700e+02 -6.012310e-10
-4.265860e-10 -8.000700e+02 -4.248160e-10
-2.945780e-10 -1.200050e+03 -4.000000e+02
4.000000e+02 -1.200050e+03 -4.000000e+02
-2.466600e-10 -8.000700e+02 -4.000000e+02
4.000000e+02 -8.000700e+02 -4.000000e+02
-3.198480e-10 -1.200050e+03 -5.805020e-10
4.000000e+02 -1.200050e+03 -4.844980e-10
-4.265860e-10 -8.000700e+02 -4.248160e-10
4.000000e+02 -8.000700e+02 -4.072290e-10
-4.000000e+02 -8.000700e+02 -4.000000e+02
-2.466600e-10 -8.000700e+02 -4.000000e+02
-4.000000e+02 -4.000970e+02 -4.000000e+02
-2.922810e-10 -4.000970e+02 -4.000000e+02
-4.000000e+02 -8.000700e+02 -6.012310e-10
-4.265860e-10 -8.000700e+02 -4.248160e-10
-4.000000e+02 -4.000970e+02 -3.959310e-10
-4.393640e-10 -4.000970e+02 -3.713530e-10
-2.466600e-10 -8.000700e+02 -4.000000e+02
4.000000e+02 -8.000700e+02 -4.000000e+02
-2.922810e-10 -4.000970e+02 -4.000000e+02
4.000000e+02 -4.000970e+02 -4.000000e+02
-4.265860e-10 -8.000700e+02 -4.248160e-10
4.000000e+02 -8.000700e+02 -4.072290e-10
-4.393640e-10 -4.000970e+02 -3.713530e-10
4.000000e+02 -4.000970e+02 -3.261960e-10
-4.000000e+02 -4.000970e+02 -4.000000e+02
-2.922810e-10 -4.000970e+02 -4.000000e+02
-4.000000e+02 -1.318140e-01 -4.000000e+02
-2.854000e-10 -1.318140e-01 -4.000000e+02
-4.000000e+02 -4.000970e+02 -3.959310e-10
-4.393640e-10 -4.000970e+02 -3.713530e-10
-4.000000e+02 -1.318140e-01 -1.762300e-10
-2.930860e-10 -1.318140e-01 -1.153750e-10
-2.922810e-10 -4.000970e+02 -4.000000e+02
[...]
<PointData>
<DataArray type="Float32" Name="V1" format="ascii">
0.000000e+00
0.000000e+00
-5.690620e-07
1.282020e-10
0.000000e+00
0.000000e+00
-5.714460e-07
-1.362710e-10
0.000000e+00
0.000000e+00
1.282020e-10
5.691480e-07
0.000000e+00
0.000000e+00
-1.362710e-10
5.711200e-07
-5.690620e-07
1.282020e-10
4.894450e-07
1.189940e-10
-5.714460e-07
-1.362710e-10
4.968720e-07
-7.929840e-12
1.282020e-10
5.691480e-07
1.189940e-10
-4.892330e-07
-1.362710e-10
5.711200e-07
-7.929840e-12
-4.969080e-07
4.894450e-07
1.189940e-10
4.191170e-07
1.319390e-11
4.968720e-07
-7.929840e-12
4.124600e-07
1.306560e-10
1.189940e-10
-4.892330e-07
1.319390e-11
-4.189130e-07
-7.929840e-12
-4.969080e-07
1.306560e-10
-4.122790e-07
4.191170e-07
1.319390e-11
-6.626580e-07
4.924020e-11
4.124600e-07
1.306560e-10
-6.712400e-07
-1.427730e-10
1.319390e-11
-4.189130e-07
4.924020e-11
6.627360e-07
1.306560e-10
-4.122790e-07
-1.427730e-10
6.709180e-07
-6.626580e-07
4.924020e-11
-2.294940e-07
-1.289140e-10
-6.712400e-07
-1.427730e-10
-2.296750e-07
3.431290e-13
4.924020e-11
6.627360e-07
-1.289140e-10
2.294510e-07
-1.427730e-10
6.709180e-07
3.431290e-13
2.296950e-07
-2.294940e-07
-1.289140e-10
7.280670e-07
-1.109980e-10
-2.296750e-07
3.431290e-13
7.319090e-07
-3.088660e-11
-1.289140e-10
2.294510e-07
-1.109980e-10
-7.282760e-07
3.431290e-13
2.296950e-07
-3.088660e-11
-7.320500e-07
7.280670e-07
-1.109980e-10
1.320650e-07
-2.202990e-10
7.319090e-07
-3.088660e-11
1.352350e-07
1.729370e-11
-1.109980e-10
-7.282760e-07
-2.202990e-10
-1.323560e-07
-3.088660e-11
-7.320500e-07
1.729370e-11
-1.352110e-07
1.320650e-07
-2.202990e-10
-9.586580e-07
6.237600e-11
1.352350e-07
1.729370e-11
-9.568630e-07
-4.640740e-11
-2.202990e-10
-1.323560e-07
6.237600e-11
9.586300e-07
1.729370e-11
-1.352110e-07
-4.640740e-11
9.567570e-07
-9.586580e-07
6.237600e-11
1.319200e-07
1.894470e-10
-9.568630e-07
-4.640740e-11
1.339700e-07
-1.479680e-10
6.237600e-11
9.586300e-07
1.894470e-10
-1.312560e-07
-4.640740e-11
9.567570e-07
-1.479680e-10
-1.342840e-07
1.319200e-07
1.894470e-10
6.053310e-07
9.849350e-12
1.339700e-07
-1.479680e-10
6.056140e-07
7.657540e-11
1.894470e-10
-1.312560e-07
9.849350e-12
-6.054290e-07
-1.479680e-10
-1.342840e-07
7.657540e-11
-6.054720e-07
6.053310e-07
9.849350e-12
1.355490e-08
1.282010e-10
6.056140e-07
7.657540e-11
1.162630e-08
-5.155360e-11
9.849350e-12
-6.054290e-07
1.282010e-10
-1.344100e-08
7.657540e-11
-6.054720e-07
-5.155360e-11
-1.157130e-08
1.355490e-08
1.282010e-10
-1.192720e-07
-6.057760e-11
1.162630e-08
-5.155360e-11
-1.194960e-07
4.256090e-11
1.282010e-10
-1.344100e-08
-6.057760e-11
1.192990e-07
-5.155360e-11
-1.157130e-08
4.256090e-11
1.195740e-07
-1.192720e-07
-6.057760e-11
-4.697820e-07
-9.424030e-11
-1.194960e-07
4.256090e-11
-4.707600e-07
1.143080e-10
-6.057760e-11
1.192990e-07
-9.424030e-11
4.696570e-07
4.256090e-11
1.195740e-07
1.143080e-10
4.708780e-07
-4.697820e-07
-9.424030e-11
-5.392890e-09
-8.174620e-11
-4.707600e-07
1.143080e-10
-6.767620e-09
-8.270720e-11
-9.424030e-11
4.696570e-07
-8.174620e-11
5.432170e-09
1.143080e-10
4.708780e-07
-8.270720e-11
6.437690e-09
-5.392890e-09
-8.174620e-11
3.618220e-07
-3.377190e-11
-6.767620e-09
-8.270720e-11
3.598000e-07
1.269590e-11
-8.174620e-11
5.432170e-09
-3.377190e-11
-3.618690e-07
-8.270720e-11
6.437690e-09
1.269590e-11
-3.598660e-07
3.618220e-07
-3.377190e-11
1.587470e-07
-6.587800e-11
3.598000e-07
1.269590e-11
1.560870e-07
-5.211950e-11
-3.377190e-11
-3.618690e-07
-6.587800e-11
-1.588560e-07
1.269590e-11
-3.598660e-07
-5.211950e-11
-1.562090e-07
1.587470e-07
-6.587800e-11
-6.745630e-08
-1.314170e-10
1.560870e-07
-5.211950e-11
-6.766840e-08
5.733050e-11
-6.587800e-11
-1.588560e-07
-1.314170e-10
6.703990e-08
-5.211950e-11
-1.562090e-07
5.733050e-11
6.776660e-08
-6.745630e-08
-1.314170e-10
-2.267610e-07
8.859000e-11
-6.766840e-08
5.733050e-11
-2.270200e-07
-3.455400e-13
-1.314170e-10
6.703990e-08
8.859000e-11
2.269450e-07
5.733050e-11
6.776660e-08
-3.455400e-13
2.271380e-07
-2.267610e-07
8.859000e-11
-2.279150e-07
-7.784300e-11
-2.270200e-07
-3.455400e-13
-2.266430e-07
3.089570e-11
8.859000e-11
2.269450e-07
-7.784300e-11
2.277820e-07
-3.455400e-13
2.271380e-07
3.089570e-11
2.266660e-07
-2.279150e-07
-7.784300e-11
-5.446700e-08
-1.133700e-10
-2.266430e-07
3.089570e-11
-5.158000e-08
4.013730e-11
-7.784300e-11
2.277820e-07
-1.133700e-10
5.423920e-08
3.089570e-11
2.266660e-07
4.013730e-11
5.164290e-08
-5.446700e-08
-1.133700e-10
-1.665550e-07
3.494300e-11
-5.158000e-08
4.013730e-11
-1.708800e-07
1.168600e-12
-1.133700e-10
5.423920e-08
3.494300e-11
1.666020e-07
4.013730e-11
5.164290e-08
1.168600e-12
1.708520e-07
-1.665550e-07
3.494300e-11
-5.279370e-08
-2.281190e-11
-1.708800e-07
1.168600e-12
-5.627380e-08
-1.390150e-11
3.494300e-11
1.666020e-07
-2.281190e-11
5.275450e-08
1.168600e-12
1.708520e-07
-1.390150e-11
5.623060e-08
-5.279370e-08
-2.281190e-11
1.225400e-07
1.751620e-11
-5.627380e-08
-1.390150e-11
1.270570e-07
2.870940e-11
-2.281190e-11
5.275450e-08
1.751620e-11
-1.224890e-07
-1.390150e-11
5.623060e-08
2.870940e-11
-1.269940e-07
1.225400e-07
1.751620e-11
-6.115210e-08
5.205120e-11
1.270570e-07
2.870940e-11
-6.084180e-08
3.978500e-11
1.751620e-11
-1.224890e-07
5.205120e-11
6.127000e-08
2.870940e-11
-1.269940e-07
3.978500e-11
6.092040e-08
-6.115210e-08
5.205120e-11
-5.647020e-08
-6.444210e-12
-6.084180e-08
3.978500e-11
-5.797850e-08
-6.991370e-12
5.205120e-11
6.127000e-08
-6.444210e-12
5.646230e-08
3.978500e-11
6.092040e-08
-6.991370e-12
5.796270e-08
-5.647020e-08
-6.444210e-12
1.100690e-07
-2.963370e-12
-5.797850e-08
-6.991370e-12
1.113500e-07
3.201890e-12
-6.444210e-12
5.646230e-08
-2.963370e-12
-1.100690e-07
-6.991370e-12
5.796270e-08
3.201890e-12
-1.113500e-07
1.100690e-07
-2.963370e-12
1.576230e-08
6.757450e-12
1.113500e-07
3.201890e-12
1.385340e-08
1.128800e-11
-2.963370e-12
-1.100690e-07
6.757450e-12
-1.575840e-08
3.201890e-12
-1.113500e-07
1.128800e-11
-1.382590e-08
1.576230e-08
6.757450e-12
7.338730e-08
4.632790e-12
1.385340e-08
1.128800e-11
8.442840e-08
3.182410e-12
6.757450e-12
-1.575840e-08
4.632790e-12
-7.337550e-08
1.128800e-11
-1.382590e-08
3.182410e-12
-8.441660e-08
7.338730e-08
4.632790e-12
-6.818680e-09
1.375540e-12
8.442840e-08
3.182410e-12
-2.225500e-08
1.408840e-12
4.632790e-12
-7.337550e-08
1.375540e-12
6.822610e-09
3.182410e-12
-8.441660e-08
1.408840e-12
2.226280e-08
-6.818680e-09
1.375540e-12
-4.874530e-07
2.207010e-12
-2.225500e-08
1.408840e-12
-4.805170e-07
7.097930e-12
1.375540e-12
6.822610e-09
2.207010e-12
4.874530e-07
1.408840e-12
2.226280e-08
7.097930e-12
4.805370e-07
0.000000e+00
0.000000e+00
-5.714460e-07
-1.362710e-10
0.000000e+00
0.000000e+00
-5.688300e-07
-4.044880e-11
0.000000e+00
0.000000e+00
-1.362710e-10
5.711200e-07
0.000000e+00
0.000000e+00
-4.044880e-11
5.686490e-07
-5.714460e-07
-1.362710e-10
4.968720e-07
-7.929840e-12
-5.688300e-07
-4.044880e-11
4.893230e-07
-7.553980e-12
-1.362710e-10
5.711200e-07
-7.929840e-12
-4.969080e-07
-4.044880e-11
5.686490e-07
-7.553980e-12
-4.892920e-07
4.968720e-07
-7.929840e-12
4.124600e-07
1.306560e-10
4.893230e-07
-7.553980e-12
4.188350e-07
-2.143190e-10
-7.929840e-12
-4.969080e-07
1.306560e-10
-4.122790e-07
-7.553980e-12
-4.892920e-07
-2.143190e-10
-4.190070e-07
4.124600e-07
1.306560e-10
-6.712400e-07
-1.427730e-10
4.188350e-07
-2.143190e-10
-6.627200e-07
1.630930e-10
1.306560e-10
-4.122790e-07
-1.427730e-10
6.709180e-07
-2.143190e-10
-4.190070e-07
1.630930e-10
6.632430e-07
-6.712400e-07
-1.427730e-10
-2.296750e-07
3.431290e-13
-6.627200e-07
1.630930e-10
-2.296910e-07
1.725430e-10
-1.427730e-10
6.709180e-07
3.431290e-13
2.296950e-07
1.630930e-10
6.632430e-07
1.725430e-10
2.300870e-07
-2.296750e-07
3.431290e-13
7.319090e-07
-3.088660e-11
-2.296910e-07
1.725430e-10
7.281460e-07
5.877520e-12
3.431290e-13
2.296950e-07
-3.088660e-11
-7.320500e-07
1.725430e-10
2.300870e-07
5.877520e-12
-7.280750e-07
7.319090e-07
-3.088660e-11
1.352350e-07
1.729370e-11
7.281460e-07
5.877520e-12
1.321830e-07
-1.126920e-10
-3.088660e-11
-7.320500e-07
1.729370e-11
-1.352110e-07
5.877520e-12
-7.280750e-07
-1.126920e-10
-1.323950e-07
1.352350e-07
1.729370e-11
-9.568630e-07
-4.640740e-11
1.321830e-07
-1.126920e-10
-9.583390e-07
6.303890e-13
1.729370e-11
-1.352110e-07
-4.640740e-11
9.567570e-07
-1.126920e-10
-1.323950e-07
6.303890e-13
9.585710e-07
-9.568630e-07
-4.640740e-11
1.339700e-07
-1.479680e-10
-9.583390e-07
6.303890e-13
1.317150e-07
1.705630e-10
-4.640740e-11
9.567570e-07
-1.479680e-10
-1.342840e-07
6.303890e-13
9.585710e-07
1.705630e-10
-1.313260e-07
1.339700e-07
-1.479680e-10
6.056140e-07
7.657540e-11
1.317150e-07
1.705630e-10
6.052800e-07
-3.210800e-11
-1.479680e-10
-1.342840e-07
7.657540e-11
-6.054720e-07
1.705630e-10
-1.313260e-07
-3.210800e-11
-6.053230e-07
6.056140e-07
7.657540e-11
1.162630e-08
-5.155360e-11
6.052800e-07
-3.210800e-11
1.371590e-08
-1.150000e-11
7.657540e-11
-6.054720e-07
-5.155360e-11
-1.157130e-08
-3.210800e-11
-6.053230e-07
-1.150000e-11
-1.372770e-08
1.162630e-08
-5.155360e-11
-1.194960e-07
4.256090e-11
1.371590e-08
-1.150000e-11
-1.196840e-07
-1.364870e-10
-5.155360e-11
-1.157130e-08
4.256090e-11
1.195740e-07
-1.150000e-11
-1.372770e-08
-1.364870e-10
1.194250e-07
-1.194960e-07
4.256090e-11
-4.707600e-07
1.143080e-10
-1.196840e-07
-1.364870e-10
-4.696800e-07
8.243850e-12
4.256090e-11
1.195740e-07
1.143080e-10
4.708780e-07
-1.364870e-10
1.194250e-07
8.243850e-12
4.695780e-07
-4.707600e-07
1.143080e-10
-6.767620e-09
-8.270720e-11
-4.696800e-07
8.243850e-12
-5.035460e-09
4.979940e-11
1.143080e-10
4.708780e-07
-8.270720e-11
6.437690e-09
8.243850e-12
4.695780e-07
4.979940e-11
5.294690e-09
-6.767620e-09
-8.270720e-11
3.598000e-07
1.269590e-11
-5.035460e-09
4.979940e-11
3.615710e-07
-1.548360e-10
-8.270720e-11
6.437690e-09
1.269590e-11
-3.598660e-07
4.979940e-11
5.294690e-09
-1.548360e-10
-3.619280e-07
3.598000e-07
1.269590e-11
1.560870e-07
-5.211950e-11
3.615710e-07
-1.548360e-10
1.587390e-07
-4.940660e-11
1.269590e-11
-3.598660e-07
-5.211950e-11
-1.562090e-07
-1.548360e-10
-3.619280e-07
-4.940660e-11
-1.589270e-07
1.560870e-07
-5.211950e-11
-6.766840e-08
5.733050e-11
1.587390e-07
-4.940660e-11
-6.734630e-08
-1.636260e-11
-5.211950e-11
-1.562090e-07
5.733050e-11
6.776660e-08
-4.940660e-11
-1.589270e-07
-1.636260e-11
6.718530e-08
-6.766840e-08
5.733050e-11
-2.270200e-07
-3.455400e-13
-6.734630e-08
-1.636260e-11
-2.266190e-07
2.731550e-11
5.733050e-11
6.776660e-08
-3.455400e-13
2.271380e-07
-1.636260e-11
6.718530e-08
2.731550e-11
2.266900e-07
-2.270200e-07
-3.455400e-13
-2.266430e-07
3.089570e-11
-2.266190e-07
2.731550e-11
-2.275420e-07
-2.655800e-11
-3.455400e-13
2.271380e-07
3.089570e-11
2.266660e-07
2.731550e-11
2.266900e-07
-2.655800e-11
2.275660e-07
-2.266430e-07
3.089570e-11
-5.158000e-08
4.013730e-11
-2.275420e-07
-2.655800e-11
-5.452590e-08
2.627690e-11
3.089570e-11
2.266660e-07
4.013730e-11
5.164290e-08
-2.655800e-11
2.275660e-07
2.627690e-11
5.462020e-08
-5.158000e-08
4.013730e-11
-1.708800e-07
1.168600e-12
-5.452590e-08
2.627690e-11
-1.666020e-07
2.307820e-11
4.013730e-11
5.164290e-08
1.168600e-12
1.708520e-07
2.627690e-11
5.462020e-08
2.307820e-11
1.666610e-07
-1.708800e-07
1.168600e-12
-5.627380e-08
-1.390150e-11
-1.666020e-07
2.307820e-11
-5.277800e-08
-1.336630e-11
1.168600e-12
1.708520e-07
-1.390150e-11
5.623060e-08
2.307820e-11
1.666610e-07
-1.336630e-11
5.273880e-08
-5.627380e-08
-1.390150e-11
1.270570e-07
2.870940e-11
-5.277800e-08
-1.336630e-11
1.225600e-07
5.677190e-11
-1.390150e-11
5.623060e-08
2.870940e-11
-1.269940e-07
-1.336630e-11
5.273880e-08
5.677190e-11
-1.224540e-07
1.270570e-07
2.870940e-11
-6.084180e-08
3.978500e-11
1.225600e-07
5.677190e-11
-6.119140e-08
3.768490e-11
2.870940e-11
-1.269940e-07
3.978500e-11
6.092040e-08
5.677190e-11
-1.224540e-07
3.768490e-11
6.125820e-08
-6.084180e-08
3.978500e-11
-5.797850e-08
-6.991370e-12
-6.119140e-08
3.768490e-11
-5.648590e-08
-2.932870e-11
3.978500e-11
6.092040e-08
-6.991370e-12
5.796270e-08
3.768490e-11
6.125820e-08
-2.932870e-11
5.643090e-08
-5.797850e-08
-6.991370e-12
1.113500e-07
3.201890e-12
-5.648590e-08
-2.932870e-11
1.100610e-07
-4.749190e-12
-6.991370e-12
5.796270e-08
3.201890e-12
-1.113500e-07
-2.932870e-11
5.643090e-08
-4.749190e-12
-1.100850e-07
1.113500e-07
3.201890e-12
1.385340e-08
1.128800e-11
1.100610e-07
-4.749190e-12
1.576620e-08
4.872550e-12
3.201890e-12
-1.113500e-07
1.128800e-11
-1.382590e-08
-4.749190e-12
-1.100850e-07
4.872550e-12
-1.575450e-08
1.385340e-08
1.128800e-11
8.442840e-08
3.182410e-12
1.576620e-08
4.872550e-12
7.336760e-08
-2.782610e-12
1.128800e-11
-1.382590e-08
3.182410e-12
-8.441660e-08
4.872550e-12
-1.575450e-08
-2.782610e-12
-7.337940e-08
8.442840e-08
3.182410e-12
-2.225500e-08
1.408840e-12
7.336760e-08
-2.782610e-12
-6.822610e-09
1.265150e-12
3.182410e-12
-8.441660e-08
1.408840e-12
2.226280e-08
-2.782610e-12
-7.337940e-08
1.265150e-12
6.822610e-09
-2.225500e-08
1.408840e-12
-4.805170e-07
7.097930e-12
-6.822610e-09
1.265150e-12
-4.874380e-07
1.158300e-11
1.408840e-12
2.226280e-08
7.097930e-12
4.805370e-07
1.265150e-12
6.822610e-09
1.158300e-11
4.874610e-07
</DataArray>
<DataArray type="Float32" Name="V2" format="ascii">
0.000000e+00
0.000000e+00
3.030050e-05
3.085500e-05
0.000000e+00
0.000000e+00
3.085450e-05
3.141580e-05
0.000000e+00
0.000000e+00
3.085500e-05
3.030050e-05
0.000000e+00
0.000000e+00
3.141580e-05
3.085460e-05
3.030050e-05
3.085500e-05
1.851650e-04
1.852130e-04
3.085450e-05
3.141580e-05
1.852140e-04
1.852450e-04
3.085500e-05
3.030050e-05
1.852130e-04
1.851650e-04
3.141580e-05
3.085460e-05
1.852450e-04
1.852130e-04
1.851650e-04
1.852130e-04
3.899740e-04
3.900390e-04
1.852140e-04
1.852450e-04
3.900390e-04
3.900970e-04
1.852130e-04
1.851650e-04
3.900390e-04
3.899740e-04
1.852450e-04
1.852130e-04
3.900970e-04
3.900390e-04
3.899740e-04
3.900390e-04
4.405370e-04
4.398790e-04
3.900390e-04
3.900970e-04
4.398790e-04
4.392230e-04
3.900390e-04
3.899740e-04
4.398790e-04
4.405380e-04
3.900970e-04
3.900390e-04
4.392230e-04
4.398790e-04
4.405370e-04
4.398790e-04
3.777970e-04
3.774560e-04
4.398790e-04
4.392230e-04
3.774550e-04
3.771200e-04
4.398790e-04
4.405380e-04
3.774560e-04
3.777970e-04
4.392230e-04
4.398790e-04
3.771200e-04
3.774550e-04
3.777970e-04
3.774560e-04
4.757380e-04
4.761250e-04
3.774550e-04
3.771200e-04
4.761250e-04
4.765250e-04
3.774560e-04
3.777970e-04
4.761250e-04
4.757400e-04
3.771200e-04
3.774550e-04
4.765250e-04
4.761240e-04
4.757380e-04
4.761250e-04
7.961570e-04
7.963640e-04
4.761250e-04
4.765250e-04
7.963630e-04
7.965720e-04
4.761250e-04
4.757400e-04
7.963640e-04
7.961570e-04
4.765250e-04
4.761240e-04
7.965720e-04
7.963630e-04
7.961570e-04
7.963640e-04
1.277440e-03
1.277440e-03
7.963630e-04
7.965720e-04
1.277440e-03
1.277420e-03
7.963640e-04
7.961570e-04
1.277440e-03
1.277440e-03
7.965720e-04
7.963630e-04
1.277420e-03
1.277440e-03
1.277440e-03
1.277440e-03
1.919640e-03
1.919670e-03
1.277440e-03
1.277420e-03
1.919670e-03
1.919710e-03
1.277440e-03
1.277440e-03
1.919670e-03
1.919640e-03
1.277420e-03
1.277440e-03
1.919710e-03
1.919670e-03
1.919640e-03
1.919670e-03
3.076160e-03
3.076220e-03
1.919670e-03
1.919710e-03
3.076220e-03
3.076280e-03
1.919670e-03
1.919640e-03
3.076220e-03
3.076160e-03
1.919710e-03
1.919670e-03
3.076280e-03
3.076220e-03
3.076160e-03
3.076220e-03
5.341450e-03
5.341860e-03
3.076220e-03
3.076280e-03
5.341860e-03
5.342270e-03
3.076220e-03
3.076160e-03
5.341860e-03
5.341450e-03
3.076280e-03
3.076220e-03
5.342270e-03
5.341860e-03
5.341450e-03
5.341860e-03
9.247530e-03
9.247910e-03
5.341860e-03
5.342270e-03
9.247910e-03
9.248290e-03
5.341860e-03
5.341450e-03
9.247910e-03
9.247530e-03
5.342270e-03
5.341860e-03
9.248290e-03
9.247910e-03
9.247530e-03
9.247910e-03
1.471590e-02
1.471580e-02
9.247910e-03
9.248290e-03
1.471580e-02
1.471570e-02
9.247910e-03
9.247530e-03
1.471580e-02
1.471590e-02
9.248290e-03
9.247910e-03
1.471570e-02
1.471580e-02
1.471590e-02
1.471580e-02
2.082960e-02
2.082930e-02
1.471580e-02
1.471570e-02
2.082930e-02
2.082890e-02
1.471580e-02
1.471590e-02
2.082930e-02
2.082960e-02
1.471570e-02
1.471580e-02
2.082890e-02
2.082930e-02
2.082960e-02
2.082930e-02
2.537070e-02
2.537060e-02
2.082930e-02
2.082890e-02
2.537060e-02
2.537050e-02
2.082930e-02
2.082960e-02
2.537060e-02
2.537070e-02
2.082890e-02
2.082930e-02
2.537050e-02
2.537060e-02
2.537070e-02
2.537060e-02
2.544100e-02
2.544100e-02
2.537060e-02
2.537050e-02
2.544100e-02
2.544110e-02
2.537060e-02
2.537070e-02
2.544100e-02
2.544100e-02
2.537050e-02
2.537060e-02
2.544110e-02
2.544100e-02
2.544100e-02
2.544100e-02
1.968470e-02
1.968470e-02
2.544100e-02
2.544110e-02
1.968470e-02
1.968480e-02
2.544100e-02
2.544100e-02
1.968470e-02
1.968470e-02
2.544110e-02
2.544100e-02
1.968480e-02
1.968470e-02
1.968470e-02
1.968470e-02
9.763510e-03
9.763540e-03
1.968470e-02
1.968480e-02
9.763540e-03
9.763560e-03
1.968470e-02
1.968470e-02
9.763540e-03
9.763510e-03
1.968480e-02
1.968470e-02
9.763560e-03
9.763530e-03
9.763510e-03
9.763540e-03
5.174170e-04
5.173460e-04
9.763540e-03
9.763560e-03
5.173460e-04
5.172700e-04
9.763540e-03
9.763510e-03
5.173460e-04
5.174170e-04
9.763560e-03
9.763530e-03
5.172700e-04
5.173450e-04
5.174170e-04
5.173460e-04
-3.680970e-03
-3.680670e-03
5.173460e-04
5.172700e-04
-3.680670e-03
-3.680340e-03
5.173460e-04
5.174170e-04
-3.680670e-03
-3.680970e-03
5.172700e-04
5.173450e-04
-3.680340e-03
-3.680670e-03
-3.680970e-03
-3.680670e-03
-2.433350e-03
-2.433040e-03
-3.680670e-03
-3.680340e-03
-2.433040e-03
-2.432670e-03
-3.680670e-03
-3.680970e-03
-2.433040e-03
-2.433350e-03
-3.680340e-03
-3.680670e-03
-2.432670e-03
-2.433040e-03
-2.433350e-03
-2.433040e-03
-1.808980e-04
-1.814540e-04
-2.433040e-03
-2.432670e-03
-1.814540e-04
-1.820870e-04
-2.433040e-03
-2.433350e-03
-1.814540e-04
-1.808980e-04
-2.432670e-03
-2.433040e-03
-1.820870e-04
-1.814540e-04
-1.808980e-04
-1.814540e-04
2.975630e-04
2.973150e-04
-1.814540e-04
-1.820870e-04
2.973150e-04
2.970350e-04
-1.814540e-04
-1.808980e-04
2.973150e-04
2.975630e-04
-1.820870e-04
-1.814540e-04
2.970350e-04
2.973160e-04
2.975630e-04
2.973150e-04
-1.243420e-04
-1.241060e-04
2.973150e-04
2.970350e-04
-1.241060e-04
-1.238360e-04
2.973150e-04
2.975630e-04
-1.241060e-04
-1.243420e-04
2.970350e-04
2.973160e-04
-1.238360e-04
-1.241060e-04
-1.243420e-04
-1.241060e-04
-1.781430e-04
-1.782300e-04
-1.241060e-04
-1.238360e-04
-1.782300e-04
-1.783320e-04
-1.241060e-04
-1.243420e-04
-1.782300e-04
-1.781430e-04
-1.238360e-04
-1.241060e-04
-1.783320e-04
-1.782300e-04
-1.781430e-04
-1.782300e-04
-8.255440e-05
-8.279870e-05
-1.782300e-04
-1.783320e-04
-8.279890e-05
-8.307180e-05
-1.782300e-04
-1.781430e-04
-8.279870e-05
-8.255440e-05
-1.783320e-04
-1.782300e-04
-8.307180e-05
-8.279880e-05
-8.255440e-05
-8.279870e-05
-8.361570e-05
-8.343240e-05
-8.279890e-05
-8.307180e-05
-8.343270e-05
-8.323950e-05
-8.279870e-05
-8.255440e-05
-8.343240e-05
-8.361560e-05
-8.307180e-05
-8.279880e-05
-8.323950e-05
-8.343240e-05
-8.361570e-05
-8.343240e-05
-1.946310e-05
-1.945000e-05
-8.343270e-05
-8.323950e-05
-1.945010e-05
-1.945000e-05
-8.343240e-05
-8.361560e-05
-1.945000e-05
-1.946310e-05
-8.323950e-05
-8.343240e-05
-1.945000e-05
-1.945010e-05
-1.946310e-05
-1.945000e-05
4.957340e-06
5.275900e-06
-1.945010e-05
-1.945000e-05
5.275780e-06
5.763010e-06
-1.945000e-05
-1.946310e-05
5.275900e-06
4.957400e-06
-1.945000e-05
-1.945010e-05
5.763010e-06
5.275840e-06
4.957340e-06
5.275900e-06
-2.318550e-05
-2.289910e-05
5.275780e-06
5.763010e-06
-2.289900e-05
-2.284980e-05
5.275900e-06
4.957400e-06
-2.289910e-05
-2.318540e-05
5.763010e-06
5.275840e-06
-2.284980e-05
-2.289900e-05
0.000000e+00
0.000000e+00
3.085450e-05
3.141580e-05
0.000000e+00
0.000000e+00
3.030070e-05
3.085450e-05
0.000000e+00
0.000000e+00
3.141580e-05
3.085460e-05
0.000000e+00
0.000000e+00
3.085450e-05
3.030150e-05
3.085450e-05
3.141580e-05
1.852140e-04
1.852450e-04
3.030070e-05
3.085450e-05
1.851650e-04
1.852140e-04
3.141580e-05
3.085460e-05
1.852450e-04
1.852130e-04
3.085450e-05
3.030150e-05
1.852140e-04
1.851650e-04
1.852140e-04
1.852450e-04
3.900390e-04
3.900970e-04
1.851650e-04
1.852140e-04
3.899750e-04
3.900390e-04
1.852450e-04
1.852130e-04
3.900970e-04