MercuryDPM 0.14 name oneDimChain revision 6406 repository https://svn.mercurydpm.org/SourceCode/Branches/OomphlibCouplingExplicit
dataFile    fileType ONE_FILE saveCount 30 counter 105 lastSavedTimeStep 3111
fStatFile   fileType ONE_FILE saveCount 30 counter 105 lastSavedTimeStep 3111
eneFile     fileType ONE_FILE saveCount 30 counter 105 lastSavedTimeStep 3111
restartFile fileType ONE_FILE saveCount 30 counter 105 lastSavedTimeStep 3111
statFile    fileType ONE_FILE saveCount 30 counter 0
interactionFile fileType NO_FILE saveCount 0 counter 0
xMin -500 xMax 500 yMin -5000 yMax 5000 zMin -500 zMax 500
timeStep 0.0321487566790692 time 100.01478202858 ntimeSteps 3111 timeMax 100
systemDimensions 3 particleDimensions 3 gravity 0 0 -0 writeVTK 1 MULTIPLE_FILES NO_FILE 105 105 0 0 random  0 1103515245 12345 1073741824 607 273 784607267
Species 1
LinearViscoelasticReversibleAdhesiveSpecies id 0 density 2500 stiffness 40000000000 dissipation -0 adhesionForceMax 0 adhesionStiffness 40000000000
Walls 0
Boundaries 0
Particles 120
BaseParticle id 0 indSpecies 0 position -200.000000528196 2199.682318726 -200.00000052847 orientation 1 0 0 0 velocity 5.06555093731566e-07 0.019207363727567 5.06491646639331e-07 angularVelocity 0 0 0 force 33038.7366251239 950017496.343192 33035.3785026658 torque 0 0 0 radius 200 invMass 1.19366207318922e-11
BaseParticle id 1 indSpecies 0 position -200.00000052829 2199.6823187266 200.000000528735 orientation 1 0 0 0 velocity 5.06537667836846e-07 0.0192073639111803 -5.06604022341587e-07 angularVelocity 0 0 0 force 33037.8696771074 950017481.608315 -33032.3340603984 torque 0 0 0 radius 200 invMass 1.19366207318922e-11
BaseParticle id 2 indSpecies 0 position 200.000000528929 2199.6823187253 -200.00000052835 orientation 1 0 0 0 velocity -5.06543392015355e-07 0.0192073636493659 5.06471792471e-07 angularVelocity 0 0 0 force -33028.3013909002 950017500.266674 33035.9092362699 torque 0 0 0 radius 200 invMass 1.19366207318922e-11
BaseParticle id 3 indSpecies 0 position 200.000000528697 2199.68231872573 200.000000528941 orientation 1 0 0 0 velocity -5.06568118643947e-07 0.0192073638298901 -5.06616755420515e-07 angularVelocity 0 0 0 force -33030.1895979938 950017484.942423 -33032.2975698156 torque 0 0 0 radius 200 invMass 1.19366207318922e-11
BaseParticle id 4 indSpecies 0 position -200.000017012122 2599.69191852796 -200.000017012853 orientation 1 0 0 0 velocity 1.96887271890817e-07 0.00094702098556314 1.96896126624848e-07 angularVelocity 0 0 0 force 26674.9362346047 207192803.671014 26672.6927554325 torque 0 0 0 radius 200 invMass 1.19366207318922e-11
BaseParticle id 5 indSpecies 0 position -200.000017012218 2599.69191852651 200.000017012728 orientation 1 0 0 0 velocity 1.96879779716253e-07 0.000947021758343057 -1.96868347175997e-07 angularVelocity 0 0 0 force 26674.4945455489 207192899.794747 -26676.8472252139 torque 0 0 0 radius 200 invMass 1.19366207318922e-11
BaseParticle id 6 indSpecies 0 position 200.000017013712 2599.69191852733 -200.000017012658 orientation 1 0 0 0 velocity -1.96880099367639e-07 0.000947021123791831 1.96894250476811e-07 angularVelocity 0 0 0 force -26674.0133360193 207192839.772842 26672.4662077654 torque 0 0 0 radius 200 invMass 1.19366207318922e-11
BaseParticle id 7 indSpecies 0 position 200.000017013584 2599.69191852646 200.000017012781 orientation 1 0 0 0 velocity -1.96889376989552e-07 0.000947022134360842 -1.96870738123524e-07 angularVelocity 0 0 0 force -26674.8291164653 207192951.201733 -26677.1926244056 torque 0 0 0 radius 200 invMass 1.19366207318922e-11
BaseParticle id 8 indSpecies 0 position -200.000008905022 2999.68945502449 -200.000008905713 orientation 1 0 0 0 velocity -9.1622740255118e-09 -0.00284838129986681 -9.14213423766753e-09 angularVelocity 0 0 0 force 939.344094477425 92150721.114665 939.723404113977 torque 0 0 0 radius 200 invMass 1.19366207318922e-11
BaseParticle id 9 indSpecies 0 position -200.000008905102 2999.68945502513 200.00000890576 orientation 1 0 0 0 velocity -9.16803367839547e-09 -0.00284838180455092 9.20237301200971e-09 angularVelocity 0 0 0 force 939.266244500154 92150655.8708223 -940.564302528165 torque 0 0 0 radius 200 invMass 1.19366207318922e-11
BaseParticle id 10 indSpecies 0 position 200.000008906451 2999.68945502467 -200.000008905578 orientation 1 0 0 0 velocity 9.17807296052787e-09 -0.00284838153798058 -9.13604951428999e-09 angularVelocity 0 0 0 force -940.909844163054 92150693.2333685 939.444237892631 torque 0 0 0 radius 200 invMass 1.19366207318922e-11
BaseParticle id 11 indSpecies 0 position 200.000008906369 2999.68945502622 200.000008905799 orientation 1 0 0 0 velocity 9.17168094065116e-09 -0.0028483820563459 9.20734894025823e-09 angularVelocity 0 0 0 force -941.027184429359 92150617.7747032 -940.872549019111 torque 0 0 0 radius 200 invMass 1.19366207318922e-11
BaseParticle id 12 indSpecies 0 position -200.000004567044 3399.69738661093 -200.000004567951 orientation 1 0 0 0 velocity -5.57657570556291e-08 -0.00153422059652416 -5.57647284796875e-08 angularVelocity 0 0 0 force -8756.93159723158 -60138719.3847822 -8756.33565335271 torque 0 0 0 radius 200 invMass 1.19366207318922e-11
BaseParticle id 13 indSpecies 0 position -200.00000456709 3399.69738661053 200.000004567751 orientation 1 0 0 0 velocity -5.57708120720376e-08 -0.00153422068023421 5.57945100161831e-08 angularVelocity 0 0 0 force -8756.93336153508 -60138717.3195076 8756.94651413334 torque 0 0 0 radius 200 invMass 1.19366207318922e-11
BaseParticle id 14 indSpecies 0 position 200.000004568385 3399.69738661191 -200.000004567895 orientation 1 0 0 0 velocity 5.57890405638895e-08 -0.00153422046021483 -5.57592180127267e-08 angularVelocity 0 0 0 force 8756.41466032912 -60138719.7587556 -8756.38973431537 torque 0 0 0 radius 200 invMass 1.19366207318922e-11
BaseParticle id 15 indSpecies 0 position 200.000004568316 3399.69738661257 200.000004567819 orientation 1 0 0 0 velocity 5.57832164685697e-08 -0.00153422021570212 5.58004431691138e-08 angularVelocity 0 0 0 force 8756.41519965686 -60138717.6216415 8756.89530124998 torque 0 0 0 radius 200 invMass 1.19366207318922e-11
BaseParticle id 16 indSpecies 0 position -200.000007325923 3799.69854949621 -200.000007326554 orientation 1 0 0 0 velocity 1.357455025433e-09 -0.000178524192331119 1.36239305777342e-09 angularVelocity 0 0 0 force -3593.76586384931 -37469504.013775 -3593.77442120625 torque 0 0 0 radius 200 invMass 1.19366207318922e-11
BaseParticle id 17 indSpecies 0 position -200.00000732596 3799.69854949626 200.00000732624 orientation 1 0 0 0 velocity 1.35435711429062e-09 -0.000178524063963831 -1.34601209862752e-09 angularVelocity 0 0 0 force -3593.75577760992 -37469502.9890449 3593.71144501728 torque 0 0 0 radius 200 invMass 1.19366207318922e-11
BaseParticle id 18 indSpecies 0 position 200.000007327077 3799.69854949682 -200.000007326512 orientation 1 0 0 0 velocity -1.34751165640639e-09 -0.0001785242054382 1.36588716985168e-09 angularVelocity 0 0 0 force 3593.80674652994 -37469504.073478 -3593.69888051621 torque 0 0 0 radius 200 invMass 1.19366207318922e-11
BaseParticle id 19 indSpecies 0 position 200.000007327035 3799.6985494969 200.000007326285 orientation 1 0 0 0 velocity -1.35071058889815e-09 -0.000178524284047015 -1.34249024925279e-09 angularVelocity 0 0 0 force 3593.82896282898 -37469503.0711897 3593.81600858447 torque 0 0 0 radius 200 invMass 1.19366207318922e-11
BaseParticle id 20 indSpecies 0 position -200.000014308426 4199.70109883588 -200.00001430906 orientation 1 0 0 0 velocity -3.19754471078743e-08 0.000233049954923791 -3.19713863785824e-08 angularVelocity 0 0 0 force 641.788285959668 -4419203.43336958 641.696427708056 torque 0 0 0 radius 200 invMass 1.19366207318922e-11
BaseParticle id 21 indSpecies 0 position -200.000014308463 4199.70109883543 200.000014308742 orientation 1 0 0 0 velocity -3.19767025902908e-08 0.000233049928145187 3.19756251657271e-08 angularVelocity 0 0 0 force 641.775506786313 -4419202.79130062 -641.698580195784 torque 0 0 0 radius 200 invMass 1.19366207318922e-11
BaseParticle id 22 indSpecies 0 position 200.000014309365 4199.70109883609 -200.000014309036 orientation 1 0 0 0 velocity 3.19713728290196e-08 0.000233049935994666 -3.19700923953102e-08 angularVelocity 0 0 0 force -641.628112831586 -4419203.32895999 641.77264251086 torque 0 0 0 radius 200 invMass 1.19366207318922e-11
BaseParticle id 23 indSpecies 0 position 200.000014309333 4199.70109883574 200.00001430879 orientation 1 0 0 0 velocity 3.19701719567571e-08 0.000233049867311564 3.19771447332725e-08 angularVelocity 0 0 0 force -641.612248028445 -4419202.79867589 -641.599470608901 torque 0 0 0 radius 200 invMass 1.19366207318922e-11
BaseParticle id 24 indSpecies 0 position -200.000014350375 4599.70344506097 -200.000014350874 orientation 1 0 0 0 velocity -3.47822399481561e-08 -0.000309729944659738 -3.47810634569756e-08 angularVelocity 0 0 0 force 906.635253189963 6895818.83197143 906.645033676802 torque 0 0 0 radius 200 invMass 1.19366207318922e-11
BaseParticle id 25 indSpecies 0 position -200.000014350411 4599.7034450607 200.000014350633 orientation 1 0 0 0 velocity -3.4782490103956e-08 -0.000309729956652472 3.47729240805689e-08 angularVelocity 0 0 0 force 906.592849349223 6895819.12588368 -906.535316961534 torque 0 0 0 radius 200 invMass 1.19366207318922e-11
BaseParticle id 26 indSpecies 0 position 200.000014351121 4599.70344506153 -200.000014350846 orientation 1 0 0 0 velocity 3.4772010702804e-08 -0.000309729906216727 -3.4780908877112e-08 angularVelocity 0 0 0 force -906.580760904657 6895818.6220855 906.682111742437 torque 0 0 0 radius 200 invMass 1.19366207318922e-11
BaseParticle id 27 indSpecies 0 position 200.000014351094 4599.70344506151 200.000014350674 orientation 1 0 0 0 velocity 3.47718168470892e-08 -0.000309729891455519 3.47732300669954e-08 angularVelocity 0 0 0 force -906.604907037035 6895818.8462052 -906.486545802932 torque 0 0 0 radius 200 invMass 1.19366207318922e-11
BaseParticle id 28 indSpecies 0 position -200.00001037922 4999.7052675699 -200.000010379531 orientation 1 0 0 0 velocity -2.48185834281515e-08 -0.000428732391558962 -2.48214557621438e-08 angularVelocity 0 0 0 force 124.380575958762 5513335.15115909 124.420175740066 torque 0 0 0 radius 200 invMass 1.19366207318922e-11
BaseParticle id 29 indSpecies 0 position -200.000010379252 4999.70526756989 200.000010379488 orientation 1 0 0 0 velocity -2.48185293823255e-08 -0.000428732387482458 2.48090527326052e-08 angularVelocity 0 0 0 force 124.340052253235 5513335.00232124 -124.46618459364 torque 0 0 0 radius 200 invMass 1.19366207318922e-11
BaseParticle id 30 indSpecies 0 position 200.000010379834 4999.70526757003 -200.000010379486 orientation 1 0 0 0 velocity 2.48125288371103e-08 -0.000428732393509124 -2.4821338929247e-08 angularVelocity 0 0 0 force -124.506885250408 5513334.7348716 124.433541185128 torque 0 0 0 radius 200 invMass 1.19366207318922e-11
BaseParticle id 31 indSpecies 0 position 200.000010379803 4999.7052675698 200.000010379516 orientation 1 0 0 0 velocity 2.48125833465662e-08 -0.000428732394702955 2.48088430320972e-08 angularVelocity 0 0 0 force -124.543927643925 5513334.58693522 -124.448248859011 torque 0 0 0 radius 200 invMass 1.19366207318922e-11
BaseParticle id 32 indSpecies 0 position -200.000010358327 5399.7057445028 -200.000010358446 orientation 1 0 0 0 velocity 2.23516435195824e-08 0.000411807873368027 2.23446175631614e-08 angularVelocity 0 0 0 force 137.645529510702 2420108.81585214 137.669901097966 torque 0 0 0 radius 200 invMass 1.19366207318922e-11
BaseParticle id 33 indSpecies 0 position -200.000010358357 5399.70574450289 200.000010358708 orientation 1 0 0 0 velocity 2.23515549132111e-08 0.000411807888404205 -2.23538972253084e-08 angularVelocity 0 0 0 force 137.62475635076 2420108.50091313 -137.76387191364 torque 0 0 0 radius 200 invMass 1.19366207318922e-11
BaseParticle id 34 indSpecies 0 position 200.000010358829 5399.70574450256 -200.000010358409 orientation 1 0 0 0 velocity -2.23472292117291e-08 0.000411807840603825 2.23447670927559e-08 angularVelocity 0 0 0 force -137.782680172658 2420108.60222025 137.676202441128 torque 0 0 0 radius 200 invMass 1.19366207318922e-11
BaseParticle id 35 indSpecies 0 position 200.000010358801 5399.70574450238 200.000010358733 orientation 1 0 0 0 velocity -2.2347212660018e-08 0.000411807822523069 -2.23539033225478e-08 angularVelocity 0 0 0 force -137.801839720489 2420108.29622997 -137.758049984998 torque 0 0 0 radius 200 invMass 1.19366207318922e-11
BaseParticle id 36 indSpecies 0 position -200.000002848222 5799.71117661771 -200.00000284817 orientation 1 0 0 0 velocity -2.04314399269939e-07 -0.000908265903997568 -2.04321999299452e-07 angularVelocity 0 0 0 force 554.282770163522 -39067.06081637 554.28068859191 torque 0 0 0 radius 200 invMass 1.19366207318922e-11
BaseParticle id 37 indSpecies 0 position -200.000002848246 5799.71117661757 200.000002848649 orientation 1 0 0 0 velocity -2.04314716918132e-07 -0.000908265910181673 2.04318128473217e-07 angularVelocity 0 0 0 force 554.275616731816 -39067.293067902 -554.344646404023 torque 0 0 0 radius 200 invMass 1.19366207318922e-11
BaseParticle id 38 indSpecies 0 position 200.0000028486 5799.71117661785 -200.000002848142 orientation 1 0 0 0 velocity 2.04324896905162e-07 -0.000908265920241071 -2.04322635657119e-07 angularVelocity 0 0 0 force -554.345922182443 -39067.067979707 554.284639341419 torque 0 0 0 radius 200 invMass 1.19366207318922e-11
BaseParticle id 39 indSpecies 0 position 200.000002848575 5799.71117661761 200.000002848667 orientation 1 0 0 0 velocity 2.04324936082668e-07 -0.000908265934162366 2.04319094435867e-07 angularVelocity 0 0 0 force -554.350449076418 -39067.3029518226 -554.34349153209 torque 0 0 0 radius 200 invMass 1.19366207318922e-11
BaseParticle id 40 indSpecies 0 position -200.000038117009 6199.71633372752 -200.000038116882 orientation 1 0 0 0 velocity -1.95510345126149e-07 0.000588098248501153 -1.95515652522622e-07 angularVelocity 0 0 0 force 807.311748918799 -1541126.14745001 807.294615408198 torque 0 0 0 radius 200 invMass 1.19366207318922e-11
BaseParticle id 41 indSpecies 0 position -200.000038117028 6199.71633372758 200.000038117391 orientation 1 0 0 0 velocity -1.95510548609856e-07 0.000588098249298162 1.95515819039875e-07 angularVelocity 0 0 0 force 807.310177641703 -1541126.2695241 -807.341206236498 torque 0 0 0 radius 200 invMass 1.19366207318922e-11
BaseParticle id 42 indSpecies 0 position 200.00003811726 6199.71633372683 -200.000038116865 orientation 1 0 0 0 velocity 1.95520825428102e-07 0.00058809823579374 -1.95515450922494e-07 angularVelocity 0 0 0 force -807.329409939482 -1541126.07497292 807.297987068421 torque 0 0 0 radius 200 invMass 1.19366207318922e-11
BaseParticle id 43 indSpecies 0 position 200.000038117241 6199.71633372629 200.000038117402 orientation 1 0 0 0 velocity 1.95520681671796e-07 0.000588098218708037 1.95515943115449e-07 angularVelocity 0 0 0 force -807.328545042845 -1541126.20571099 -807.341488786846 torque 0 0 0 radius 200 invMass 1.19366207318922e-11
BaseParticle id 44 indSpecies 0 position -200.000135535061 6599.74613961652 -200.000135534883 orientation 1 0 0 0 velocity -1.48003865134388e-06 0.000988376194691268 -1.48004200125928e-06 angularVelocity 0 0 0 force 1239.13169671342 -2145465.57421302 1239.10835278749 torque 0 0 0 radius 200 invMass 1.19366207318922e-11
BaseParticle id 45 indSpecies 0 position -200.000135535088 6599.7461396165 200.00013553542 orientation 1 0 0 0 velocity -1.48003901231519e-06 0.000988376196886898 1.48004509518029e-06 angularVelocity 0 0 0 force 1239.13140199393 -2145465.64848436 -1239.15493962386 torque 0 0 0 radius 200 invMass 1.19366207318922e-11
BaseParticle id 46 indSpecies 0 position 200.000135535234 6599.74613961687 -200.000135534869 orientation 1 0 0 0 velocity 1.48004803477391e-06 0.000988376205488017 -1.48004184496583e-06 angularVelocity 0 0 0 force -1239.1352415102 -2145465.43355966 1239.11488854173 torque 0 0 0 radius 200 invMass 1.19366207318922e-11
BaseParticle id 47 indSpecies 0 position 200.000135535214 6599.74613961715 200.000135535432 orientation 1 0 0 0 velocity 1.48004789108378e-06 0.000988376214682704 1.48004528541714e-06 angularVelocity 0 0 0 force -1239.13124517315 -2145465.53472136 -1239.15630247775 torque 0 0 0 radius 200 invMass 1.19366207318922e-11
BaseParticle id 48 indSpecies 0 position -200.000000010803 6999.88471418819 -200.000000010803 orientation 1 0 0 0 velocity -1.50865176535258e-10 0.00165683497635494 -1.50863134167299e-10 angularVelocity 0 0 0 force 0 0 0 torque 0 0 0 radius 200 invMass 1.19366207318922e-11
BaseParticle id 49 indSpecies 0 position -200.000000010803 6999.88471418819 200.000000010803 orientation 1 0 0 0 velocity -1.50864997789642e-10 0.00165683497924491 1.50866323701519e-10 angularVelocity 0 0 0 force 0 0 0 torque 0 0 0 radius 200 invMass 1.19366207318922e-11
BaseParticle id 50 indSpecies 0 position 200.000000010803 6999.88471418819 -200.000000010803 orientation 1 0 0 0 velocity 1.50864271440428e-10 0.00165683497631306 -1.50863289291697e-10 angularVelocity 0 0 0 force 0 0 0 torque 0 0 0 radius 200 invMass 1.19366207318922e-11
BaseParticle id 51 indSpecies 0 position 200.000000010803 6999.88471418818 200.000000010803 orientation 1 0 0 0 velocity 1.50864454243329e-10 0.00165683497803035 1.50866166499839e-10 angularVelocity 0 0 0 force 0 0 0 torque 0 0 0 radius 200 invMass 1.19366207318922e-11
BaseParticle id 52 indSpecies 0 position -200 7399.88970879115 -200 orientation 1 0 0 0 velocity 1.20875499329625e-14 0.00155142526281263 1.20875499329625e-14 angularVelocity 0 0 0 force 0 0 0 torque 0 0 0 radius 200 invMass 1.19366207318922e-11
BaseParticle id 53 indSpecies 0 position -200 7399.88970879151 200 orientation 1 0 0 0 velocity 1.20875499327097e-14 0.00155142526832713 -1.20875499327097e-14 angularVelocity 0 0 0 force 0 0 0 torque 0 0 0 radius 200 invMass 1.19366207318922e-11
BaseParticle id 54 indSpecies 0 position 200 7399.88970879114 -200 orientation 1 0 0 0 velocity -1.20875499315495e-14 0.00155142526272889 1.20875499315495e-14 angularVelocity 0 0 0 force 0 0 0 torque 0 0 0 radius 200 invMass 1.19366207318922e-11
BaseParticle id 55 indSpecies 0 position 200 7399.88970879115 200 orientation 1 0 0 0 velocity -1.20875499318456e-14 0.00155142526603759 -1.20875499318456e-14 angularVelocity 0 0 0 force 0 0 0 torque 0 0 0 radius 200 invMass 1.19366207318922e-11
BaseParticle id 56 indSpecies 0 position -200 7799.89072254595 -200 orientation 1 0 0 0 velocity 0 0.00163440140606588 0 angularVelocity 0 0 0 force 0 0 0 torque 0 0 0 radius 200 invMass 1.19366207318922e-11
BaseParticle id 57 indSpecies 0 position -200 7799.89072254595 200 orientation 1 0 0 0 velocity 0 0.00163440140492106 0 angularVelocity 0 0 0 force 0 0 0 torque 0 0 0 radius 200 invMass 1.19366207318922e-11
BaseParticle id 58 indSpecies 0 position 200 7799.89072254594 -200 orientation 1 0 0 0 velocity 0 0.00163440140369257 0 angularVelocity 0 0 0 force 0 0 0 torque 0 0 0 radius 200 invMass 1.19366207318922e-11
BaseParticle id 59 indSpecies 0 position 200 7799.89072254471 200 orientation 1 0 0 0 velocity 0 0.00163440140197536 0 angularVelocity 0 0 0 force 0 0 0 torque 0 0 0 radius 200 invMass 1.19366207318922e-11
BaseParticle id 60 indSpecies 0 position -200 8199.89956221783 -200 orientation 1 0 0 0 velocity 0 0.00162338271847995 0 angularVelocity 0 0 0 force 0 0 0 torque 0 0 0 radius 200 invMass 1.19366207318922e-11
BaseParticle id 61 indSpecies 0 position -200 8199.89956221781 200 orientation 1 0 0 0 velocity 0 0.00162338271461284 0 angularVelocity 0 0 0 force 0 0 0 torque 0 0 0 radius 200 invMass 1.19366207318922e-11
BaseParticle id 62 indSpecies 0 position 200 8199.89956221782 -200 orientation 1 0 0 0 velocity 0 0.0016233827148781 0 angularVelocity 0 0 0 force 0 0 0 torque 0 0 0 radius 200 invMass 1.19366207318922e-11
BaseParticle id 63 indSpecies 0 position 200 8199.89956221782 200 orientation 1 0 0 0 velocity 0 0.0016233827144174 0 angularVelocity 0 0 0 force 0 0 0 torque 0 0 0 radius 200 invMass 1.19366207318922e-11
BaseParticle id 64 indSpecies 0 position -200 8599.91181157968 -200 orientation 1 0 0 0 velocity 0 0.00172061177086675 0 angularVelocity 0 0 0 force 0 0 0 torque 0 0 0 radius 200 invMass 1.19366207318922e-11
BaseParticle id 65 indSpecies 0 position -200 8599.91181157969 200 orientation 1 0 0 0 velocity 0 0.0017206117735472 0 angularVelocity 0 0 0 force 0 0 0 torque 0 0 0 radius 200 invMass 1.19366207318922e-11
BaseParticle id 66 indSpecies 0 position 200 8599.91181157968 -200 orientation 1 0 0 0 velocity 0 0.0017206117696103 0 angularVelocity 0 0 0 force 0 0 0 torque 0 0 0 radius 200 invMass 1.19366207318922e-11
BaseParticle id 67 indSpecies 0 position 200 8599.91181157968 200 orientation 1 0 0 0 velocity 0 0.00172061177226282 0 angularVelocity 0 0 0 force 0 0 0 torque 0 0 0 radius 200 invMass 1.19366207318922e-11
BaseParticle id 68 indSpecies 0 position -200 8999.91758015053 -200 orientation 1 0 0 0 velocity 0 0.00212980227384097 0 angularVelocity 0 0 0 force 0 0 0 torque 0 0 0 radius 200 invMass 1.19366207318922e-11
BaseParticle id 69 indSpecies 0 position -200 8999.9175801499 200 orientation 1 0 0 0 velocity 0 0.00212980226990406 0 angularVelocity 0 0 0 force 0 0 0 torque 0 0 0 radius 200 invMass 1.19366207318922e-11
BaseParticle id 70 indSpecies 0 position 200 8999.91758015052 -200 orientation 1 0 0 0 velocity 0 0.00212980227811293 0 angularVelocity 0 0 0 force 0 0 0 torque 0 0 0 radius 200 invMass 1.19366207318922e-11
BaseParticle id 71 indSpecies 0 position 200 8999.91758015052 200 orientation 1 0 0 0 velocity 0 0.00212980227333838 0 angularVelocity 0 0 0 force 0 0 0 torque 0 0 0 radius 200 invMass 1.19366207318922e-11
BaseParticle id 72 indSpecies 0 position -200 9399.92521059344 -200 orientation 1 0 0 0 velocity 0 0.00183296505484377 0 angularVelocity 0 0 0 force 0 0 0 torque 0 0 0 radius 200 invMass 1.19366207318922e-11
BaseParticle id 73 indSpecies 0 position -200 9399.92521059344 200 orientation 1 0 0 0 velocity 0 0.00183296505484377 0 angularVelocity 0 0 0 force 0 0 0 torque 0 0 0 radius 200 invMass 1.19366207318922e-11
BaseParticle id 74 indSpecies 0 position 200 9399.92521059344 -200 orientation 1 0 0 0 velocity 0 0.00183296505484377 0 angularVelocity 0 0 0 force 0 0 0 torque 0 0 0 radius 200 invMass 1.19366207318922e-11
BaseParticle id 75 indSpecies 0 position 200 9399.92521059344 200 orientation 1 0 0 0 velocity 0 0.00183296505484377 0 angularVelocity 0 0 0 force 0 0 0 torque 0 0 0 radius 200 invMass 1.19366207318922e-11
BaseParticle id 76 indSpecies 0 position -200 9799.94127195103 -200 orientation 1 0 0 0 velocity 0 0.00196362914814414 0 angularVelocity 0 0 0 force 0 0 0 torque 0 0 0 radius 200 invMass 1.19366207318922e-11
BaseParticle id 77 indSpecies 0 position -200 9799.94127195103 200 orientation 1 0 0 0 velocity 0 0.00196362914814414 0 angularVelocity 0 0 0 force 0 0 0 torque 0 0 0 radius 200 invMass 1.19366207318922e-11
BaseParticle id 78 indSpecies 0 position 200 9799.94127195103 -200 orientation 1 0 0 0 velocity 0 0.00196362914814414 0 angularVelocity 0 0 0 force 0 0 0 torque 0 0 0 radius 200 invMass 1.19366207318922e-11
BaseParticle id 79 indSpecies 0 position 200 9799.94127195103 200 orientation 1 0 0 0 velocity 0 0.00196362914814414 0 angularVelocity 0 0 0 force 0 0 0 torque 0 0 0 radius 200 invMass 1.19366207318922e-11
BaseParticle id 80 indSpecies 0 position -200 10199.9598836017 -200 orientation 1 0 0 0 velocity 0 0.00211780591761501 0 angularVelocity 0 0 0 force 0 0 0 torque 0 0 0 radius 200 invMass 1.19366207318922e-11
BaseParticle id 81 indSpecies 0 position -200 10199.9598836017 200 orientation 1 0 0 0 velocity 0 0.00211780591761501 0 angularVelocity 0 0 0 force 0 0 0 torque 0 0 0 radius 200 invMass 1.19366207318922e-11
BaseParticle id 82 indSpecies 0 position 200 10199.9598836017 -200 orientation 1 0 0 0 velocity 0 0.00211780591761501 0 angularVelocity 0 0 0 force 0 0 0 torque 0 0 0 radius 200 invMass 1.19366207318922e-11
BaseParticle id 83 indSpecies 0 position 200 10199.9598836017 200 orientation 1 0 0 0 velocity 0 0.00211780591761501 0 angularVelocity 0 0 0 force 0 0 0 torque 0 0 0 radius 200 invMass 1.19366207318922e-11
BaseParticle id 84 indSpecies 0 position -200 10599.9816990082 -200 orientation 1 0 0 0 velocity 0 0.00230146420857093 0 angularVelocity 0 0 0 force 0 0 0 torque 0 0 0 radius 200 invMass 1.19366207318922e-11
BaseParticle id 85 indSpecies 0 position -200 10599.9816990082 200 orientation 1 0 0 0 velocity 0 0.00230146420857093 0 angularVelocity 0 0 0 force 0 0 0 torque 0 0 0 radius 200 invMass 1.19366207318922e-11
BaseParticle id 86 indSpecies 0 position 200 10599.9816990082 -200 orientation 1 0 0 0 velocity 0 0.00230146420857093 0 angularVelocity 0 0 0 force 0 0 0 torque 0 0 0 radius 200 invMass 1.19366207318922e-11
BaseParticle id 87 indSpecies 0 position 200 10599.9816990082 200 orientation 1 0 0 0 velocity 0 0.00230146420857093 0 angularVelocity 0 0 0 force 0 0 0 torque 0 0 0 radius 200 invMass 1.19366207318922e-11
BaseParticle id 88 indSpecies 0 position -200 11000.0078499326 -200 orientation 1 0 0 0 velocity 0 0.00252559061736983 0 angularVelocity 0 0 0 force 0 0 0 torque 0 0 0 radius 200 invMass 1.19366207318922e-11
BaseParticle id 89 indSpecies 0 position -200 11000.0078499326 200 orientation 1 0 0 0 velocity 0 0.00252559061736983 0 angularVelocity 0 0 0 force 0 0 0 torque 0 0 0 radius 200 invMass 1.19366207318922e-11
BaseParticle id 90 indSpecies 0 position 200 11000.0078499326 -200 orientation 1 0 0 0 velocity 0 0.00252559061736983 0 angularVelocity 0 0 0 force 0 0 0 torque 0 0 0 radius 200 invMass 1.19366207318922e-11
BaseParticle id 91 indSpecies 0 position 200 11000.0078499326 200 orientation 1 0 0 0 velocity 0 0.00252559061736983 0 angularVelocity 0 0 0 force 0 0 0 torque 0 0 0 radius 200 invMass 1.19366207318922e-11
BaseParticle id 92 indSpecies 0 position -200 11400.03995223 -200 orientation 1 0 0 0 velocity 0 0.00280566830038197 0 angularVelocity 0 0 0 force 0 0 0 torque 0 0 0 radius 200 invMass 1.19366207318922e-11
BaseParticle id 93 indSpecies 0 position -200 11400.03995223 200 orientation 1 0 0 0 velocity 0 0.00280566830038197 0 angularVelocity 0 0 0 force 0 0 0 torque 0 0 0 radius 200 invMass 1.19366207318922e-11
BaseParticle id 94 indSpecies 0 position 200 11400.03995223 -200 orientation 1 0 0 0 velocity 0 0.00280566830038197 0 angularVelocity 0 0 0 force 0 0 0 torque 0 0 0 radius 200 invMass 1.19366207318922e-11
BaseParticle id 95 indSpecies 0 position 200 11400.03995223 200 orientation 1 0 0 0 velocity 0 0.00280566830038197 0 angularVelocity 0 0 0 force 0 0 0 torque 0 0 0 radius 200 invMass 1.19366207318922e-11
BaseParticle id 96 indSpecies 0 position -200 11800.0806845827 -200 orientation 1 0 0 0 velocity 0 0.00316767304793931 0 angularVelocity 0 0 0 force 0 0 0 torque 0 0 0 radius 200 invMass 1.19366207318922e-11
BaseParticle id 97 indSpecies 0 position -200 11800.0806845827 200 orientation 1 0 0 0 velocity 0 0.00316767304793931 0 angularVelocity 0 0 0 force 0 0 0 torque 0 0 0 radius 200 invMass 1.19366207318922e-11
BaseParticle id 98 indSpecies 0 position 200 11800.0806845827 -200 orientation 1 0 0 0 velocity 0 0.00316767304793931 0 angularVelocity 0 0 0 force 0 0 0 torque 0 0 0 radius 200 invMass 1.19366207318922e-11
BaseParticle id 99 indSpecies 0 position 200 11800.0806845827 200 orientation 1 0 0 0 velocity 0 0.00316767304793931 0 angularVelocity 0 0 0 force 0 0 0 torque 0 0 0 radius 200 invMass 1.19366207318922e-11
BaseParticle id 100 indSpecies 0 position -200 12200.1345511605 -200 orientation 1 0 0 0 velocity 0 0.00365528361274133 0 angularVelocity 0 0 0 force 0 0 0 torque 0 0 0 radius 200 invMass 1.19366207318922e-11
BaseParticle id 101 indSpecies 0 position -200 12200.1345511605 200 orientation 1 0 0 0 velocity 0 0.00365528361274133 0 angularVelocity 0 0 0 force 0 0 0 torque 0 0 0 radius 200 invMass 1.19366207318922e-11
BaseParticle id 102 indSpecies 0 position 200 12200.1345511605 -200 orientation 1 0 0 0 velocity 0 0.00365528361274133 0 angularVelocity 0 0 0 force 0 0 0 torque 0 0 0 radius 200 invMass 1.19366207318922e-11
BaseParticle id 103 indSpecies 0 position 200 12200.1345511605 200 orientation 1 0 0 0 velocity 0 0.00365528361274133 0 angularVelocity 0 0 0 force 0 0 0 torque 0 0 0 radius 200 invMass 1.19366207318922e-11
BaseParticle id 104 indSpecies 0 position -200 12600.2105715845 -200 orientation 1 0 0 0 velocity 0 0.0043570222649936 0 angularVelocity 0 0 0 force 0 0 0 torque 0 0 0 radius 200 invMass 1.19366207318922e-11
BaseParticle id 105 indSpecies 0 position -200 12600.2105715845 200 orientation 1 0 0 0 velocity 0 0.0043570222649936 0 angularVelocity 0 0 0 force 0 0 0 torque 0 0 0 radius 200 invMass 1.19366207318922e-11
BaseParticle id 106 indSpecies 0 position 200 12600.2105715845 -200 orientation 1 0 0 0 velocity 0 0.0043570222649936 0 angularVelocity 0 0 0 force 0 0 0 torque 0 0 0 radius 200 invMass 1.19366207318922e-11
BaseParticle id 107 indSpecies 0 position 200 12600.2105715845 200 orientation 1 0 0 0 velocity 0 0.0043570222649936 0 angularVelocity 0 0 0 force 0 0 0 torque 0 0 0 radius 200 invMass 1.19366207318922e-11
BaseParticle id 108 indSpecies 0 position -200 13000.3282775058 -200 orientation 1 0 0 0 velocity 0 0.00546489405658367 0 angularVelocity 0 0 0 force 0 0 0 torque 0 0 0 radius 200 invMass 1.19366207318922e-11
BaseParticle id 109 indSpecies 0 position -200 13000.3282775058 200 orientation 1 0 0 0 velocity 0 0.00546489405658367 0 angularVelocity 0 0 0 force 0 0 0 torque 0 0 0 radius 200 invMass 1.19366207318922e-11
BaseParticle id 110 indSpecies 0 position 200 13000.3282775058 -200 orientation 1 0 0 0 velocity 0 0.00546489405658367 0 angularVelocity 0 0 0 force 0 0 0 torque 0 0 0 radius 200 invMass 1.19366207318922e-11
BaseParticle id 111 indSpecies 0 position 200 13000.3282775058 200 orientation 1 0 0 0 velocity 0 0.00546489405658367 0 angularVelocity 0 0 0 force 0 0 0 torque 0 0 0 radius 200 invMass 1.19366207318922e-11