<?xml version="1.0"?>
<VTKFile type="UnstructuredGrid" version="0.1" byte_order="LittleEndian" compressor="vtkZLibDataCompressor">
<UnstructuredGrid>
<Piece NumberOfPoints="960" NumberOfCells="120">
<Points>
<DataArray type="Float32" NumberOfComponents="3" format="ascii">
-4.000000e+02 -6.000000e+03 -4.000000e+02
0.000000e+00 -6.000000e+03 -4.000000e+02
-4.000000e+02 -5.600020e+03 -4.000000e+02
-1.029690e-10 -5.600020e+03 -4.000000e+02
-4.000000e+02 -6.000000e+03 0.000000e+00
0.000000e+00 -6.000000e+03 0.000000e+00
-4.000000e+02 -5.600020e+03 -3.508310e-11
-8.261850e-11 -5.600020e+03 -5.261810e-11
0.000000e+00 -6.000000e+03 -4.000000e+02
4.000000e+02 -6.000000e+03 -4.000000e+02
-1.029690e-10 -5.600020e+03 -4.000000e+02
4.000000e+02 -5.600020e+03 -4.000000e+02
0.000000e+00 -6.000000e+03 0.000000e+00
4.000000e+02 -6.000000e+03 0.000000e+00
-8.261850e-11 -5.600020e+03 -5.261810e-11
4.000000e+02 -5.600020e+03 5.060300e-11
-4.000000e+02 -5.600020e+03 -4.000000e+02
-1.029690e-10 -5.600020e+03 -4.000000e+02
-4.000000e+02 -5.200060e+03 -4.000000e+02
1.830650e-11 -5.200060e+03 -4.000000e+02
-4.000000e+02 -5.600020e+03 -3.508310e-11
-8.261850e-11 -5.600020e+03 -5.261810e-11
-4.000000e+02 -5.200060e+03 -2.126620e-10
-1.147220e-10 -5.200060e+03 -1.514110e-10
-1.029690e-10 -5.600020e+03 -4.000000e+02
4.000000e+02 -5.600020e+03 -4.000000e+02
1.830650e-11 -5.200060e+03 -4.000000e+02
4.000000e+02 -5.200060e+03 -4.000000e+02
-8.261850e-11 -5.600020e+03 -5.261810e-11
4.000000e+02 -5.600020e+03 5.060300e-11
-1.147220e-10 -5.200060e+03 -1.514110e-10
4.000000e+02 -5.200060e+03 -1.272320e-10
-4.000000e+02 -5.200060e+03 -4.000000e+02
1.830650e-11 -5.200060e+03 -4.000000e+02
-4.000000e+02 -4.800100e+03 -4.000000e+02
6.762420e-11 -4.800100e+03 -4.000000e+02
-4.000000e+02 -5.200060e+03 -2.126620e-10
-1.147220e-10 -5.200060e+03 -1.514110e-10
-4.000000e+02 -4.800100e+03 -7.631500e-11
4.752700e-11 -4.800100e+03 -1.280030e-10
1.830650e-11 -5.200060e+03 -4.000000e+02
4.000000e+02 -5.200060e+03 -4.000000e+02
6.762420e-11 -4.800100e+03 -4.000000e+02
4.000000e+02 -4.800100e+03 -4.000000e+02
-1.147220e-10 -5.200060e+03 -1.514110e-10
4.000000e+02 -5.200060e+03 -1.272320e-10
4.752700e-11 -4.800100e+03 -1.280030e-10
4.000000e+02 -4.800100e+03 -2.472440e-10
-4.000000e+02 -4.800100e+03 -4.000000e+02
6.762420e-11 -4.800100e+03 -4.000000e+02
-4.000000e+02 -4.400140e+03 -4.000000e+02
7.684970e-11 -4.400140e+03 -4.000000e+02
-4.000000e+02 -4.800100e+03 -7.631500e-11
4.752700e-11 -4.800100e+03 -1.280030e-10
-4.000000e+02 -4.400140e+03 -6.136070e-11
1.404080e-10 -4.400140e+03 -8.357490e-11
6.762420e-11 -4.800100e+03 -4.000000e+02
4.000000e+02 -4.800100e+03 -4.000000e+02
7.684970e-11 -4.400140e+03 -4.000000e+02
4.000000e+02 -4.400140e+03 -4.000000e+02
4.752700e-11 -4.800100e+03 -1.280030e-10
4.000000e+02 -4.800100e+03 -2.472440e-10
1.404080e-10 -4.400140e+03 -8.357490e-11
4.000000e+02 -4.400140e+03 -9.728360e-11
-4.000000e+02 -4.400140e+03 -4.000000e+02
7.684970e-11 -4.400140e+03 -4.000000e+02
-4.000000e+02 -4.000180e+03 -4.000000e+02
1.363960e-10 -4.000180e+03 -4.000000e+02
-4.000000e+02 -4.400140e+03 -6.136070e-11
1.404080e-10 -4.400140e+03 -8.357490e-11
-4.000000e+02 -4.000180e+03 -9.717870e-11
2.393640e-10 -4.000180e+03 -1.886010e-10
7.684970e-11 -4.400140e+03 -4.000000e+02
4.000000e+02 -4.400140e+03 -4.000000e+02
1.363960e-10 -4.000180e+03 -4.000000e+02
4.000000e+02 -4.000180e+03 -4.000000e+02
1.404080e-10 -4.400140e+03 -8.357490e-11
4.000000e+02 -4.400140e+03 -9.728360e-11
2.393640e-10 -4.000180e+03 -1.886010e-10
4.000000e+02 -4.000180e+03 -8.196370e-11
-4.000000e+02 -4.000180e+03 -4.000000e+02
1.363960e-10 -4.000180e+03 -4.000000e+02
-4.000000e+02 -3.600200e+03 -4.000000e+02
1.010440e-10 -3.600200e+03 -4.000000e+02
-4.000000e+02 -4.000180e+03 -9.717870e-11
2.393640e-10 -4.000180e+03 -1.886010e-10
-4.000000e+02 -3.600200e+03 -2.891040e-11
1.942990e-10 -3.600200e+03 -1.905070e-11
1.363960e-10 -4.000180e+03 -4.000000e+02
4.000000e+02 -4.000180e+03 -4.000000e+02
1.010440e-10 -3.600200e+03 -4.000000e+02
4.000000e+02 -3.600200e+03 -4.000000e+02
2.393640e-10 -4.000180e+03 -1.886010e-10
4.000000e+02 -4.000180e+03 -8.196370e-11
1.942990e-10 -3.600200e+03 -1.905070e-11
4.000000e+02 -3.600200e+03 2.308130e-11
-4.000000e+02 -3.600200e+03 -4.000000e+02
1.010440e-10 -3.600200e+03 -4.000000e+02
-4.000000e+02 -3.200210e+03 -4.000000e+02
1.178250e-10 -3.200210e+03 -4.000000e+02
-4.000000e+02 -3.600200e+03 -2.891040e-11
1.942990e-10 -3.600200e+03 -1.905070e-11
-4.000000e+02 -3.200210e+03 1.375830e-10
1.871940e-10 -3.200210e+03 2.340370e-10
1.010440e-10 -3.600200e+03 -4.000000e+02
4.000000e+02 -3.600200e+03 -4.000000e+02
1.178250e-10 -3.200210e+03 -4.000000e+02
4.000000e+02 -3.200210e+03 -4.000000e+02
1.942990e-10 -3.600200e+03 -1.905070e-11
4.000000e+02 -3.600200e+03 2.308130e-11
1.871940e-10 -3.200210e+03 2.340370e-10
4.000000e+02 -3.200210e+03 1.907370e-10
-4.000000e+02 -3.200210e+03 -4.000000e+02
1.178250e-10 -3.200210e+03 -4.000000e+02
-4.000000e+02 -2.800210e+03 -4.000000e+02
8.968140e-11 -2.800210e+03 -4.000000e+02
-4.000000e+02 -3.200210e+03 1.375830e-10
1.871940e-10 -3.200210e+03 2.340370e-10
-4.000000e+02 -2.800210e+03 1.721310e-10
7.956900e-11 -2.800210e+03 2.083920e-10
1.178250e-10 -3.200210e+03 -4.000000e+02
4.000000e+02 -3.200210e+03 -4.000000e+02
8.968140e-11 -2.800210e+03 -4.000000e+02
4.000000e+02 -2.800210e+03 -4.000000e+02
1.871940e-10 -3.200210e+03 2.340370e-10
4.000000e+02 -3.200210e+03 1.907370e-10
7.956900e-11 -2.800210e+03 2.083920e-10
4.000000e+02 -2.800210e+03 1.866510e-10
-4.000000e+02 -2.800210e+03 -4.000000e+02
8.968140e-11 -2.800210e+03 -4.000000e+02
-4.000000e+02 -2.400210e+03 -4.000000e+02
-1.282690e-10 -2.400210e+03 -4.000000e+02
-4.000000e+02 -2.800210e+03 1.721310e-10
7.956900e-11 -2.800210e+03 2.083920e-10
-4.000000e+02 -2.400210e+03 2.171380e-10
-2.410830e-10 -2.400210e+03 2.031640e-10
8.968140e-11 -2.800210e+03 -4.000000e+02
4.000000e+02 -2.800210e+03 -4.000000e+02
-1.282690e-10 -2.400210e+03 -4.000000e+02
4.000000e+02 -2.400210e+03 -4.000000e+02
7.956900e-11 -2.800210e+03 2.083920e-10
4.000000e+02 -2.800210e+03 1.866510e-10
-2.410830e-10 -2.400210e+03 2.031640e-10
4.000000e+02 -2.400210e+03 2.351140e-10
-4.000000e+02 -2.400210e+03 -4.000000e+02
-1.282690e-10 -2.400210e+03 -4.000000e+02
-4.000000e+02 -2.000220e+03 -4.000000e+02
-3.224190e-10 -2.000220e+03 -4.000000e+02
-4.000000e+02 -2.400210e+03 2.171380e-10
-2.410830e-10 -2.400210e+03 2.031640e-10
-4.000000e+02 -2.000220e+03 3.258300e-10
-3.029730e-10 -2.000220e+03 3.592650e-10
-1.282690e-10 -2.400210e+03 -4.000000e+02
4.000000e+02 -2.400210e+03 -4.000000e+02
-3.224190e-10 -2.000220e+03 -4.000000e+02
4.000000e+02 -2.000220e+03 -4.000000e+02
-2.410830e-10 -2.400210e+03 2.031640e-10
4.000000e+02 -2.400210e+03 2.351140e-10
-3.029730e-10 -2.000220e+03 3.592650e-10
4.000000e+02 -2.000220e+03 3.051120e-10
-4.000000e+02 -2.000220e+03 -4.000000e+02
-3.224190e-10 -2.000220e+03 -4.000000e+02
-4.000000e+02 -1.600220e+03 -4.000000e+02
-2.751490e-10 -1.600220e+03 -4.000000e+02
-4.000000e+02 -2.000220e+03 3.258300e-10
-3.029730e-10 -2.000220e+03 3.592650e-10
-4.000000e+02 -1.600220e+03 4.551170e-10
-3.493760e-10 -1.600220e+03 4.112470e-10
-3.224190e-10 -2.000220e+03 -4.000000e+02
4.000000e+02 -2.000220e+03 -4.000000e+02
-2.751490e-10 -1.600220e+03 -4.000000e+02
4.000000e+02 -1.600220e+03 -4.000000e+02
-3.029730e-10 -2.000220e+03 3.592650e-10
4.000000e+02 -2.000220e+03 3.051120e-10
-3.493760e-10 -1.600220e+03 4.112470e-10
4.000000e+02 -1.600220e+03 4.195640e-10
-4.000000e+02 -1.600220e+03 -4.000000e+02
-2.751490e-10 -1.600220e+03 -4.000000e+02
-4.000000e+02 -1.200220e+03 -4.000000e+02
-3.057540e-10 -1.200220e+03 -4.000000e+02
-4.000000e+02 -1.600220e+03 4.551170e-10
-3.493760e-10 -1.600220e+03 4.112470e-10
-4.000000e+02 -1.200220e+03 5.463520e-10
-3.330640e-10 -1.200220e+03 5.046250e-10
-2.751490e-10 -1.600220e+03 -4.000000e+02
4.000000e+02 -1.600220e+03 -4.000000e+02
-3.057540e-10 -1.200220e+03 -4.000000e+02
4.000000e+02 -1.200220e+03 -4.000000e+02
-3.493760e-10 -1.600220e+03 4.112470e-10
4.000000e+02 -1.600220e+03 4.195640e-10
-3.330640e-10 -1.200220e+03 5.046250e-10
4.000000e+02 -1.200220e+03 5.468200e-10
-4.000000e+02 -1.200220e+03 -4.000000e+02
-3.057540e-10 -1.200220e+03 -4.000000e+02
-4.000000e+02 -8.002180e+02 -4.000000e+02
-2.270730e-10 -8.002180e+02 -4.000000e+02
-4.000000e+02 -1.200220e+03 5.463520e-10
-3.330640e-10 -1.200220e+03 5.046250e-10
-4.000000e+02 -8.002180e+02 5.253660e-10
-2.104190e-10 -8.002180e+02 5.217060e-10
-3.057540e-10 -1.200220e+03 -4.000000e+02
4.000000e+02 -1.200220e+03 -4.000000e+02
-2.270730e-10 -8.002180e+02 -4.000000e+02
4.000000e+02 -8.002180e+02 -4.000000e+02
-3.330640e-10 -1.200220e+03 5.046250e-10
4.000000e+02 -1.200220e+03 5.468200e-10
-2.104190e-10 -8.002180e+02 5.217060e-10
4.000000e+02 -8.002180e+02 5.182200e-10
-4.000000e+02 -8.002180e+02 -4.000000e+02
-2.270730e-10 -8.002180e+02 -4.000000e+02
-4.000000e+02 -4.002190e+02 -4.000000e+02
-1.224330e-10 -4.002190e+02 -4.000000e+02
-4.000000e+02 -8.002180e+02 5.253660e-10
-2.104190e-10 -8.002180e+02 5.217060e-10
-4.000000e+02 -4.002190e+02 4.783430e-10
-9.498700e-11 -4.002190e+02 4.929570e-10
-2.270730e-10 -8.002180e+02 -4.000000e+02
4.000000e+02 -8.002180e+02 -4.000000e+02
-1.224330e-10 -4.002190e+02 -4.000000e+02
4.000000e+02 -4.002190e+02 -4.000000e+02
-2.104190e-10 -8.002180e+02 5.217060e-10
4.000000e+02 -8.002180e+02 5.182200e-10
-9.498700e-11 -4.002190e+02 4.929570e-10
4.000000e+02 -4.002190e+02 4.747660e-10
-4.000000e+02 -4.002190e+02 -4.000000e+02
-1.224330e-10 -4.002190e+02 -4.000000e+02
-4.000000e+02 -2.196990e-01 -4.000000e+02
-1.075270e-10 -2.196990e-01 -4.000000e+02
-4.000000e+02 -4.002190e+02 4.783430e-10
-9.498700e-11 -4.002190e+02 4.929570e-10
-4.000000e+02 -2.196990e-01 4.802490e-10
-1.172970e-10 -2.196990e-01 5.131040e-10
-1.224330e-10 -4.002190e+02 -4.000000e+02
4.000000e+02 -4.002190e+02 -4.000000e+02
-1.075270e-10 -2.196990e-01 -4.000000e+02
4.000000e+02 -2.196990e-01 -4.000000e+02
[...]
<PointData>
<DataArray type="Float32" Name="V1" format="ascii">
0.000000e+00
0.000000e+00
-1.799720e-08
-9.842590e-11
0.000000e+00
0.000000e+00
-1.849610e-08
5.088870e-11
0.000000e+00
0.000000e+00
-9.842590e-11
1.783620e-08
0.000000e+00
0.000000e+00
5.088870e-11
1.853540e-08
-1.799720e-08
-9.842590e-11
-3.544460e-08
1.140900e-10
-1.849610e-08
5.088870e-11
-3.489860e-08
-8.322560e-11
-9.842590e-11
1.783620e-08
1.140900e-10
3.560960e-08
5.088870e-11
1.853540e-08
-8.322560e-11
3.488290e-08
-3.544460e-08
1.140900e-10
1.470100e-07
4.025660e-10
-3.489860e-08
-8.322560e-11
1.466170e-07
1.092910e-11
1.140900e-10
3.560960e-08
4.025660e-10
-1.463940e-07
-8.322560e-11
3.488290e-08
1.092910e-11
-1.467630e-07
1.470100e-07
4.025660e-10
-2.226990e-07
-2.553010e-11
1.466170e-07
1.092910e-11
-2.237790e-07
-3.571150e-11
4.025660e-10
-1.463940e-07
-2.553010e-11
2.226600e-07
1.092910e-11
-1.467630e-07
-3.571150e-11
2.238300e-07
-2.226990e-07
-2.553010e-11
1.026810e-07
-5.390950e-11
-2.237790e-07
-3.571150e-11
1.047590e-07
8.149660e-11
-2.553010e-11
2.226600e-07
-5.390950e-11
-1.027200e-07
-3.571150e-11
2.238300e-07
8.149660e-11
-1.047040e-07
1.026810e-07
-5.390950e-11
2.625230e-07
2.634290e-11
1.047590e-07
8.149660e-11
2.597030e-07
4.073010e-11
-5.390950e-11
-1.027200e-07
2.634290e-11
-2.625350e-07
8.149660e-11
-1.047040e-07
4.073010e-11
-2.596480e-07
2.625230e-07
2.634290e-11
-5.818270e-07
-1.548040e-10
2.597030e-07
4.073010e-11
-5.792620e-07
-8.759850e-11
2.634290e-11
-2.625350e-07
-1.548040e-10
5.814810e-07
4.073010e-11
-2.596480e-07
-8.759850e-11
5.791250e-07
-5.818270e-07
-1.548040e-10
4.161520e-07
4.484160e-11
-5.792620e-07
-8.759850e-11
4.169810e-07
6.698910e-11
-1.548040e-10
5.814810e-07
4.484160e-11
-4.161200e-07
-8.759850e-11
5.791250e-07
6.698910e-11
-4.168710e-07
4.161520e-07
4.484160e-11
1.764330e-07
2.339050e-10
4.169810e-07
6.698910e-11
1.728550e-07
-7.644420e-12
4.484160e-11
-4.161200e-07
2.339050e-10
-1.760920e-07
6.698910e-11
-4.168710e-07
-7.644420e-12
-1.728160e-07
1.764330e-07
2.339050e-10
-5.889480e-07
-4.588190e-11
1.728550e-07
-7.644420e-12
-5.850480e-07
-3.000030e-11
2.339050e-10
-1.760920e-07
-4.588190e-11
5.887950e-07
-7.644420e-12
-1.728160e-07
-3.000030e-11
5.850560e-07
-5.889480e-07
-4.588190e-11
4.316430e-07
-4.857380e-11
-5.850480e-07
-3.000030e-11
4.308300e-07
-3.183230e-11
-4.588190e-11
5.887950e-07
-4.857380e-11
-4.317340e-07
-3.000030e-11
5.850560e-07
-3.183230e-11
-4.308540e-07
4.316430e-07
-4.857380e-11
2.034450e-07
-3.855640e-11
4.308300e-07
-3.183230e-11
2.050200e-07
-2.753890e-11
-4.857380e-11
-4.317340e-07
-3.855640e-11
-2.035000e-07
-3.183230e-11
-4.308540e-07
-2.753890e-11
-2.051580e-07
2.034450e-07
-3.855640e-11
-2.851040e-07
-4.113980e-11
2.050200e-07
-2.753890e-11
-2.877080e-07
-1.000440e-10
-3.855640e-11
-2.035000e-07
-4.113980e-11
2.849630e-07
-2.753890e-11
-2.051580e-07
-1.000440e-10
2.876850e-07
-2.851040e-07
-4.113980e-11
-5.632450e-07
2.029610e-11
-2.877080e-07
-1.000440e-10
-5.678910e-07
5.377640e-11
-4.113980e-11
2.849630e-07
2.029610e-11
5.632760e-07
-1.000440e-10
2.876850e-07
5.377640e-11
5.679500e-07
-5.632450e-07
2.029610e-11
8.770420e-08
-1.538370e-11
-5.678910e-07
5.377640e-11
8.546140e-08
4.495710e-11
2.029610e-11
5.632760e-07
-1.538370e-11
-8.762560e-08
5.377640e-11
5.679500e-07
4.495710e-11
-8.533960e-08
8.770420e-08
-1.538370e-11
5.815910e-07
-1.099720e-11
8.546140e-08
4.495710e-11
5.839760e-07
-5.304980e-11
-1.538370e-11
-8.762560e-08
-1.099720e-11
-5.814420e-07
4.495710e-11
-8.533960e-08
-5.304980e-11
-5.839950e-07
5.815910e-07
-1.099720e-11
1.298100e-07
2.161230e-11
5.839760e-07
-5.304980e-11
1.308670e-07
-1.459340e-11
-1.099720e-11
-5.814420e-07
2.161230e-11
-1.298610e-07
-5.304980e-11
-5.839950e-07
-1.459340e-11
-1.307570e-07
1.298100e-07
2.161230e-11
-7.709040e-07
-3.066020e-11
1.308670e-07
-1.459340e-11
-7.703030e-07
1.780920e-11
2.161230e-11
-1.298610e-07
-3.066020e-11
7.708850e-07
-1.459340e-11
-1.307570e-07
1.780920e-11
7.703620e-07
-7.709040e-07
-3.066020e-11
-6.642210e-07
4.953700e-12
-7.703030e-07
1.780920e-11
-6.616360e-07
3.231540e-11
-3.066020e-11
7.708850e-07
4.953700e-12
6.642720e-07
1.780920e-11
7.703620e-07
3.231540e-11
6.617620e-07
-6.642210e-07
4.953700e-12
-2.077500e-07
2.862440e-11
-6.616360e-07
3.231540e-11
-2.072980e-07
-6.450000e-13
4.953700e-12
6.642720e-07
2.862440e-11
2.078010e-07
3.231540e-11
6.617620e-07
-6.450000e-13
2.072830e-07
-2.077500e-07
2.862440e-11
-6.957340e-08
-1.859240e-11
-2.072980e-07
-6.450000e-13
-7.169050e-08
-1.308090e-11
2.862440e-11
2.078010e-07
-1.859240e-11
6.954590e-08
-6.450000e-13
2.072830e-07
-1.308090e-11
7.166690e-08
-6.957340e-08
-1.859240e-11
1.168010e-07
-2.946520e-11
-7.169050e-08
-1.308090e-11
1.194960e-07
-1.969710e-11
-1.859240e-11
6.954590e-08
-2.946520e-11
-1.168560e-07
-1.308090e-11
7.166690e-08
-1.969710e-11
-1.195350e-07
1.168010e-07
-2.946520e-11
6.284500e-09
-2.296600e-11
1.194960e-07
-1.969710e-11
9.740980e-09
-1.230060e-11
-2.946520e-11
-1.168560e-07
-2.296600e-11
-6.327710e-09
-1.969710e-11
-1.195350e-07
-1.230060e-11
-9.772400e-09
6.284500e-09
-2.296600e-11
-2.566550e-07
2.109870e-11
9.740980e-09
-1.230060e-11
-2.625700e-07
2.283890e-11
-2.296600e-11
-6.327710e-09
2.109870e-11
2.566940e-07
-1.230060e-11
-9.772400e-09
2.283890e-11
2.626180e-07
-2.566550e-07
2.109870e-11
-1.446220e-08
1.993300e-11
-2.625700e-07
2.283890e-11
-2.394790e-08
1.949700e-11
2.109870e-11
2.566940e-07
1.993300e-11
1.450930e-08
2.283890e-11
2.626180e-07
1.949700e-11
2.398320e-08
-1.446220e-08
1.993300e-11
3.840930e-07
1.154710e-11
-2.394790e-08
1.949700e-11
4.016820e-07
9.623910e-12
1.993300e-11
1.450930e-08
1.154710e-11
-3.840580e-07
1.949700e-11
2.398320e-08
9.623910e-12
-4.016660e-07
3.840930e-07
1.154710e-11
2.792640e-07
1.595170e-11
4.016820e-07
9.623910e-12
2.876930e-07
1.123080e-11
1.154710e-11
-3.840580e-07
1.595170e-11
-2.792320e-07
9.623910e-12
-4.016660e-07
1.123080e-11
-2.876570e-07
2.792640e-07
1.595170e-11
-7.726130e-07
1.073360e-11
2.876930e-07
1.123080e-11
-8.009440e-07
7.650150e-12
1.595170e-11
-2.792320e-07
1.073360e-11
7.726320e-07
1.123080e-11
-2.876570e-07
7.650150e-12
8.009640e-07
-7.726130e-07
1.073360e-11
-4.662710e-08
9.666200e-12
-8.009440e-07
7.650150e-12
-4.936480e-08
8.907950e-12
1.073360e-11
7.726320e-07
9.666200e-12
4.664280e-08
7.650150e-12
8.009640e-07
8.907950e-12
4.937650e-08
-4.662710e-08
9.666200e-12
9.054670e-07
5.065230e-12
-4.936480e-08
8.907950e-12
9.409270e-07
3.987060e-12
9.666200e-12
4.664280e-08
5.065230e-12
-9.054590e-07
8.907950e-12
4.937650e-08
3.987060e-12
-9.409160e-07
0.000000e+00
0.000000e+00
-1.849610e-08
5.088870e-11
0.000000e+00
0.000000e+00
-1.803650e-08
-1.537170e-10
0.000000e+00
0.000000e+00
5.088870e-11
1.853540e-08
0.000000e+00
0.000000e+00
-1.537170e-10
1.789510e-08
-1.849610e-08
5.088870e-11
-3.489860e-08
-8.322560e-11
-1.803650e-08
-1.537170e-10
-3.527570e-08
3.156990e-11
5.088870e-11
1.853540e-08
-8.322560e-11
3.488290e-08
-1.537170e-10
1.789510e-08
3.156990e-11
3.558600e-08
-3.489860e-08
-8.322560e-11
1.466170e-07
1.092910e-11
-3.527570e-08
3.156990e-11
1.467200e-07
1.452500e-10
-8.322560e-11
3.488290e-08
1.092910e-11
-1.467630e-07
3.156990e-11
3.558600e-08
1.452500e-10
-1.465230e-07
1.466170e-07
1.092910e-11
-2.237790e-07
-3.571150e-11
1.467200e-07
1.452500e-10
-2.229270e-07
-9.163340e-11
1.092910e-11
-1.467630e-07
-3.571150e-11
2.238300e-07
1.452500e-10
-1.465230e-07
-9.163340e-11
2.226990e-07
-2.237790e-07
-3.571150e-11
1.047590e-07
8.149660e-11
-2.229270e-07
-9.163340e-11
1.025160e-07
-1.122220e-10
-3.571150e-11
2.238300e-07
8.149660e-11
-1.047040e-07
-9.163340e-11
2.226990e-07
-1.122220e-10
-1.026420e-07
1.047590e-07
8.149660e-11
2.597030e-07
4.073010e-11
1.025160e-07
-1.122220e-10
2.626450e-07
2.339900e-11
8.149660e-11
-1.047040e-07
4.073010e-11
-2.596480e-07
-1.122220e-10
-1.026420e-07
2.339900e-11
-2.625630e-07
2.597030e-07
4.073010e-11
-5.792620e-07
-8.759850e-11
2.626450e-07
2.339900e-11
-5.818070e-07
-1.792400e-10
4.073010e-11
-2.596480e-07
-8.759850e-11
5.791250e-07
2.339900e-11
-2.625630e-07
-1.792400e-10
5.814620e-07
-5.792620e-07
-8.759850e-11
4.169810e-07
6.698910e-11
-5.818070e-07
-1.792400e-10
4.161680e-07
7.271660e-12
-8.759850e-11
5.791250e-07
6.698910e-11
-4.168710e-07
-1.792400e-10
5.814620e-07
7.271660e-12
-4.161950e-07
4.169810e-07
6.698910e-11
1.728550e-07
-7.644420e-12
4.161680e-07
7.271660e-12
1.763900e-07
4.925910e-11
6.698910e-11
-4.168710e-07
-7.644420e-12
-1.728160e-07
7.271660e-12
-4.161950e-07
4.925910e-11
-1.762100e-07
1.728550e-07
-7.644420e-12
-5.850480e-07
-3.000030e-11
1.763900e-07
4.925910e-11
-5.888810e-07
-9.812690e-11
-7.644420e-12
-1.728160e-07
-3.000030e-11
5.850560e-07
4.925910e-11
-1.762100e-07
-9.812690e-11
5.885750e-07
-5.850480e-07
-3.000030e-11
4.308300e-07
-3.183230e-11
-5.888810e-07
-9.812690e-11
4.320080e-07
3.924620e-11
-3.000030e-11
5.850560e-07
-3.183230e-11
-4.308540e-07
-9.812690e-11
5.885750e-07
3.924620e-11
-4.319460e-07
4.308300e-07
-3.183230e-11
2.050200e-07
-2.753890e-11
4.320080e-07
3.924620e-11
2.033350e-07
8.344210e-11
-3.183230e-11
-4.308540e-07
-2.753890e-11
-2.051580e-07
3.924620e-11
-4.319460e-07
8.344210e-11
-2.030440e-07
2.050200e-07
-2.753890e-11
-2.877080e-07
-1.000440e-10
2.033350e-07
8.344210e-11
-2.848920e-07
1.380590e-11
-2.753890e-11
-2.051580e-07
-1.000440e-10
2.876850e-07
8.344210e-11
-2.030440e-07
1.380590e-11
2.849310e-07
-2.877080e-07
-1.000440e-10
-5.678910e-07
5.377640e-11
-2.848920e-07
1.380590e-11
-5.632840e-07
3.460850e-11
-1.000440e-10
2.876850e-07
5.377640e-11
5.679500e-07
1.380590e-11
2.849310e-07
3.460850e-11
5.631700e-07
-5.678910e-07
5.377640e-11
8.546140e-08
4.495710e-11
-5.632840e-07
3.460850e-11
8.769240e-08
1.921880e-12
5.377640e-11
5.679500e-07
4.495710e-11
-8.533960e-08
3.460850e-11
5.631700e-07
1.921880e-12
-8.771200e-08
8.546140e-08
4.495710e-11
5.839760e-07
-5.304980e-11
8.769240e-08
1.921880e-12
5.816660e-07
7.616140e-12
4.495710e-11
-8.533960e-08
-5.304980e-11
-5.839950e-07
1.921880e-12
-8.771200e-08
7.616140e-12
-5.815720e-07
5.839760e-07
-5.304980e-11
1.308670e-07
-1.459340e-11
5.816660e-07
7.616140e-12
1.298340e-07
1.574380e-11
-5.304980e-11
-5.839950e-07
-1.459340e-11
-1.307570e-07
7.616140e-12
-5.815720e-07
1.574380e-11
-1.298650e-07
1.308670e-07
-1.459340e-11
-7.703030e-07
1.780920e-11
1.298340e-07
1.574380e-11
-7.708300e-07
-6.800440e-11
-1.459340e-11
-1.307570e-07
1.780920e-11
7.703620e-07
1.574380e-11
-1.298650e-07
-6.800440e-11
7.708300e-07
-7.703030e-07
1.780920e-11
-6.616360e-07
3.231540e-11
-7.708300e-07
-6.800440e-11
-6.641620e-07
3.456310e-11
1.780920e-11
7.703620e-07
3.231540e-11
6.617620e-07
-6.800440e-11
7.708300e-07
3.456310e-11
6.642760e-07
-6.616360e-07
3.231540e-11
-2.072980e-07
-6.450000e-13
-6.641620e-07
3.456310e-11
-2.077660e-07
3.093620e-11
3.231540e-11
6.617620e-07
-6.450000e-13
2.072830e-07
3.456310e-11
6.642760e-07
3.093620e-11
2.078130e-07
-2.072980e-07
-6.450000e-13
-7.169050e-08
-1.308090e-11
-2.077660e-07
3.093620e-11
-6.956550e-08
-8.764160e-13
-6.450000e-13
2.072830e-07
-1.308090e-11
7.166690e-08
3.093620e-11
2.078130e-07
-8.764160e-13
6.957340e-08
-7.169050e-08
-1.308090e-11
1.194960e-07
-1.969710e-11
-6.956550e-08
-8.764160e-13
1.168210e-07
-2.216480e-11
-1.308090e-11
7.166690e-08
-1.969710e-11
-1.195350e-07
-8.764160e-13
6.957340e-08
-2.216480e-11
-1.168720e-07
1.194960e-07
-1.969710e-11
9.740980e-09
-1.230060e-11
1.168210e-07
-2.216480e-11
6.312000e-09
-1.066240e-11
-1.969710e-11
-1.195350e-07
-1.230060e-11
-9.772400e-09
-2.216480e-11
-1.168720e-07
-1.066240e-11
-6.335560e-09
9.740980e-09
-1.230060e-11
-2.625700e-07
2.283890e-11
6.312000e-09
-1.066240e-11
-2.566280e-07
2.466510e-11
-1.230060e-11
-9.772400e-09
2.283890e-11
2.626180e-07
-1.066240e-11
-6.335560e-09
2.466510e-11
2.566710e-07
-2.625700e-07
2.283890e-11
-2.394790e-08
1.949700e-11
-2.566280e-07
2.466510e-11
-1.447400e-08
1.292410e-11
2.283890e-11
2.626180e-07
1.949700e-11
2.398320e-08
2.466510e-11
2.566710e-07
1.292410e-11
1.450930e-08
-2.394790e-08
1.949700e-11
4.016820e-07
9.623910e-12
-1.447400e-08
1.292410e-11
3.840730e-07
6.177000e-12
1.949700e-11
2.398320e-08
9.623910e-12
-4.016660e-07
1.292410e-11
1.450930e-08
6.177000e-12
-3.840660e-07
4.016820e-07
9.623910e-12
2.876930e-07
1.123080e-11
3.840730e-07
6.177000e-12
2.792640e-07
1.363580e-11
9.623910e-12
-4.016660e-07
1.123080e-11
-2.876570e-07
6.177000e-12
-3.840660e-07
1.363580e-11
-2.792360e-07
2.876930e-07
1.123080e-11
-8.009440e-07
7.650150e-12
2.792640e-07
1.363580e-11
-7.726010e-07
9.352210e-12
1.123080e-11
-2.876570e-07
7.650150e-12
8.009640e-07
1.363580e-11
-2.792360e-07
9.352210e-12
7.726280e-07
-8.009440e-07
7.650150e-12
-4.936480e-08
8.907950e-12
-7.726010e-07
9.352210e-12
-4.662710e-08
9.670780e-12
7.650150e-12
8.009640e-07
8.907950e-12
4.937650e-08
9.352210e-12
7.726280e-07
9.670780e-12
4.664670e-08
-4.936480e-08
8.907950e-12
9.409270e-07
3.987060e-12
-4.662710e-08
9.670780e-12
9.054630e-07
4.662290e-12
8.907950e-12
4.937650e-08
3.987060e-12
-9.409160e-07
9.670780e-12
4.664670e-08
4.662290e-12
-9.054470e-07
</DataArray>
<DataArray type="Float32" Name="V2" format="ascii">
0.000000e+00
0.000000e+00
-1.646530e-02
-1.646520e-02
0.000000e+00
0.000000e+00
-1.646520e-02
-1.646520e-02
0.000000e+00
0.000000e+00
-1.646520e-02
-1.646530e-02
0.000000e+00
0.000000e+00
-1.646520e-02
-1.646520e-02
-1.646530e-02
-1.646520e-02
-2.857920e-02
-2.857920e-02
-1.646520e-02
-1.646520e-02
-2.857920e-02
-2.857930e-02
-1.646520e-02
-1.646530e-02
-2.857920e-02
-2.857920e-02
-1.646520e-02
-1.646520e-02
-2.857930e-02
-2.857920e-02
-2.857920e-02
-2.857920e-02
-3.209950e-02
-3.209940e-02
-2.857920e-02
-2.857930e-02
-3.209940e-02
-3.209930e-02
-2.857920e-02
-2.857920e-02
-3.209940e-02
-3.209950e-02
-2.857930e-02
-2.857920e-02
-3.209930e-02
-3.209940e-02
-3.209950e-02
-3.209940e-02
-2.715050e-02
-2.715060e-02
-3.209940e-02
-3.209930e-02
-2.715060e-02
-2.715070e-02
-3.209940e-02
-3.209950e-02
-2.715060e-02
-2.715050e-02
-3.209930e-02
-3.209940e-02
-2.715070e-02
-2.715060e-02
-2.715050e-02
-2.715060e-02
-1.815910e-02
-1.815920e-02
-2.715060e-02
-2.715070e-02
-1.815920e-02
-1.815940e-02
-2.715060e-02
-2.715050e-02
-1.815920e-02
-1.815910e-02
-2.715070e-02
-2.715060e-02
-1.815940e-02
-1.815920e-02
-1.815910e-02
-1.815920e-02
-1.000120e-02
-1.000070e-02
-1.815920e-02
-1.815940e-02
-1.000070e-02
-1.000020e-02
-1.815920e-02
-1.815910e-02
-1.000070e-02
-1.000120e-02
-1.815940e-02
-1.815920e-02
-1.000020e-02
-1.000070e-02
-1.000120e-02
-1.000070e-02
-4.823540e-03
-4.824090e-03
-1.000070e-02
-1.000020e-02
-4.824090e-03
-4.824650e-03
-1.000070e-02
-1.000120e-02
-4.824090e-03
-4.823540e-03
-1.000020e-02
-1.000070e-02
-4.824650e-03
-4.824090e-03
-4.823540e-03
-4.824090e-03
-2.124380e-03
-2.124590e-03
-4.824090e-03
-4.824650e-03
-2.124590e-03
-2.124790e-03
-4.824090e-03
-4.823540e-03
-2.124590e-03
-2.124380e-03
-4.824650e-03
-4.824090e-03
-2.124790e-03
-2.124590e-03
-2.124380e-03
-2.124590e-03
-9.852640e-04
-9.840390e-04
-2.124590e-03
-2.124790e-03
-9.840390e-04
-9.828250e-04
-2.124590e-03
-2.124380e-03
-9.840390e-04
-9.852640e-04
-2.124790e-03
-2.124590e-03
-9.828250e-04
-9.840390e-04
-9.852640e-04
-9.840390e-04
-6.599590e-04
-6.604990e-04
-9.840390e-04
-9.828250e-04
-6.604980e-04
-6.610320e-04
-9.840390e-04
-9.852640e-04
-6.604990e-04
-6.599580e-04
-9.828250e-04
-9.840390e-04
-6.610320e-04
-6.604980e-04
-6.599590e-04
-6.604990e-04
-5.996770e-04
-6.006490e-04
-6.604980e-04
-6.610320e-04
-6.006480e-04
-6.016080e-04
-6.604990e-04
-6.599580e-04
-6.006490e-04
-5.996760e-04
-6.610320e-04
-6.604980e-04
-6.016080e-04
-6.006480e-04
-5.996770e-04
-6.006490e-04
-5.271060e-04
-5.271890e-04
-6.006480e-04
-6.016080e-04
-5.271890e-04
-5.272930e-04
-6.006490e-04
-5.996760e-04
-5.271890e-04
-5.271070e-04
-6.016080e-04
-6.006480e-04
-5.272930e-04
-5.271890e-04
-5.271060e-04
-5.271890e-04
-4.498920e-04
-4.492870e-04
-5.271890e-04
-5.272930e-04
-4.492870e-04
-4.486860e-04
-5.271890e-04
-5.271070e-04
-4.492870e-04
-4.498910e-04
-5.272930e-04
-5.271890e-04
-4.486860e-04
-4.492870e-04
-4.498920e-04
-4.492870e-04
-4.031670e-04
-4.024880e-04
-4.492870e-04
-4.486860e-04
-4.024880e-04
-4.017960e-04
-4.492870e-04
-4.498910e-04
-4.024880e-04
-4.031670e-04
-4.486860e-04
-4.492870e-04
-4.017960e-04
-4.024880e-04
-4.031670e-04
-4.024880e-04
-4.376300e-04
-4.375480e-04
-4.024880e-04
-4.017960e-04
-4.375480e-04
-4.374670e-04
-4.024880e-04
-4.031670e-04
-4.375480e-04
-4.376300e-04
-4.017960e-04
-4.024880e-04
-4.374670e-04
-4.375480e-04
-4.376300e-04
-4.375480e-04
-5.466430e-04
-5.463360e-04
-4.375480e-04
-4.374670e-04
-5.463370e-04
-5.460270e-04
-4.375480e-04
-4.376300e-04
-5.463360e-04
-5.466420e-04
-4.374670e-04
-4.375480e-04
-5.460270e-04
-5.463370e-04
-5.466430e-04
-5.463360e-04
-6.299760e-04
-6.293340e-04
-5.463370e-04
-5.460270e-04
-6.293350e-04
-6.286910e-04
-5.463360e-04
-5.466420e-04
-6.293340e-04
-6.299760e-04
-5.460270e-04
-5.463370e-04
-6.286910e-04
-6.293350e-04
-6.299760e-04
-6.293340e-04
-5.778560e-04
-5.774090e-04
-6.293350e-04
-6.286910e-04
-5.774090e-04
-5.769650e-04
-6.293340e-04
-6.299760e-04
-5.774090e-04
-5.778560e-04
-6.286910e-04
-6.293350e-04
-5.769650e-04
-5.774090e-04
-5.778560e-04
-5.774090e-04
-5.233960e-04
-5.235610e-04
-5.774090e-04
-5.769650e-04
-5.235610e-04
-5.237290e-04
-5.774090e-04
-5.778560e-04
-5.235610e-04
-5.233960e-04
-5.769650e-04
-5.774090e-04
-5.237290e-04
-5.235610e-04
-5.233960e-04
-5.235610e-04
-5.202920e-04
-5.203470e-04
-5.235610e-04
-5.237290e-04
-5.203470e-04
-5.203960e-04
-5.235610e-04
-5.233960e-04
-5.203470e-04
-5.202920e-04
-5.237290e-04
-5.235610e-04
-5.203960e-04
-5.203470e-04
-5.202920e-04
-5.203470e-04
-5.245550e-04
-5.245580e-04
-5.203470e-04
-5.203960e-04
-5.245580e-04
-5.245520e-04
-5.203470e-04
-5.202920e-04
-5.245580e-04
-5.245550e-04
-5.203960e-04
-5.203470e-04
-5.245520e-04
-5.245580e-04
-5.245550e-04
-5.245580e-04
-5.611260e-04
-5.613680e-04
-5.245580e-04
-5.245520e-04
-5.613680e-04
-5.616580e-04
-5.245580e-04
-5.245550e-04
-5.613680e-04
-5.611260e-04
-5.245520e-04
-5.245580e-04
-5.616580e-04
-5.613680e-04
-5.611260e-04
-5.613680e-04
-5.649330e-04
-5.640640e-04
-5.613680e-04
-5.616580e-04
-5.640640e-04
-5.631260e-04
-5.613680e-04
-5.611260e-04
-5.640640e-04
-5.649330e-04
-5.616580e-04
-5.613680e-04
-5.631260e-04
-5.640640e-04
-5.649330e-04
-5.640640e-04
-4.131360e-04
-4.137290e-04
-5.640640e-04
-5.631260e-04
-4.137290e-04
-4.143260e-04
-5.640640e-04
-5.649330e-04
-4.137290e-04
-4.131350e-04
-5.631260e-04
-5.640640e-04
-4.143260e-04
-4.137290e-04
-4.131360e-04
-4.137290e-04
-3.616590e-04
-3.620500e-04
-4.137290e-04
-4.143260e-04
-3.620500e-04
-3.624880e-04
-4.137290e-04
-4.131350e-04
-3.620500e-04
-3.616590e-04
-4.143260e-04
-4.137290e-04
-3.624880e-04
-3.620500e-04
-3.616590e-04
-3.620500e-04
-3.917880e-04
-3.913280e-04
-3.620500e-04
-3.624880e-04
-3.913280e-04
-3.909290e-04
-3.620500e-04
-3.616590e-04
-3.913280e-04
-3.917880e-04
-3.624880e-04
-3.620500e-04
-3.909290e-04
-3.913280e-04
-3.917880e-04
-3.913280e-04
-3.800460e-04
-3.802600e-04
-3.913280e-04
-3.909290e-04
-3.802600e-04
-3.803490e-04
-3.913280e-04
-3.917880e-04
-3.802600e-04
-3.800460e-04
-3.909290e-04
-3.913280e-04
-3.803490e-04
-3.802600e-04
-3.800460e-04
-3.802600e-04
-4.942810e-04
-4.931850e-04
-3.802600e-04
-3.803490e-04
-4.931850e-04
-4.919980e-04
-3.802600e-04
-3.800460e-04
-4.931850e-04
-4.942810e-04
-3.803490e-04
-3.802600e-04
-4.919980e-04
-4.931850e-04
-4.942810e-04
-4.931850e-04
-3.892810e-04
-3.911740e-04
-4.931850e-04
-4.919980e-04
-3.911740e-04
-3.933110e-04
-4.931850e-04
-4.942810e-04
-3.911740e-04
-3.892810e-04
-4.919980e-04
-4.931850e-04
-3.933110e-04
-3.911740e-04
-3.892810e-04
-3.911740e-04
-2.936200e-04
-2.937610e-04
-3.911740e-04
-3.933110e-04
-2.937610e-04
-2.939750e-04
-3.911740e-04
-3.892810e-04
-2.937610e-04
-2.936200e-04
-3.933110e-04
-3.911740e-04
-2.939750e-04
-2.937610e-04
0.000000e+00
0.000000e+00
-1.646520e-02
-1.646520e-02
0.000000e+00
0.000000e+00
-1.646530e-02
-1.646520e-02
0.000000e+00
0.000000e+00
-1.646520e-02
-1.646520e-02
0.000000e+00
0.000000e+00
-1.646520e-02
-1.646530e-02
-1.646520e-02