<?xml version="1.0"?>
<VTKFile type="UnstructuredGrid" version="0.1" byte_order="LittleEndian" compressor="vtkZLibDataCompressor">
<UnstructuredGrid>
<Piece NumberOfPoints="960" NumberOfCells="120">
<Points>
<DataArray type="Float32" NumberOfComponents="3" format="ascii">
-4.000000e+02 -6.000000e+03 -4.000000e+02
0.000000e+00 -6.000000e+03 -4.000000e+02
-4.000000e+02 -5.600020e+03 -4.000000e+02
1.525250e-10 -5.600020e+03 -4.000000e+02
-4.000000e+02 -6.000000e+03 0.000000e+00
0.000000e+00 -6.000000e+03 0.000000e+00
-4.000000e+02 -5.600020e+03 6.442240e-11
7.136990e-11 -5.600020e+03 7.165100e-12
0.000000e+00 -6.000000e+03 -4.000000e+02
4.000000e+02 -6.000000e+03 -4.000000e+02
1.525250e-10 -5.600020e+03 -4.000000e+02
4.000000e+02 -5.600020e+03 -4.000000e+02
0.000000e+00 -6.000000e+03 0.000000e+00
4.000000e+02 -6.000000e+03 0.000000e+00
7.136990e-11 -5.600020e+03 7.165100e-12
4.000000e+02 -5.600020e+03 -1.342750e-12
-4.000000e+02 -5.600020e+03 -4.000000e+02
1.525250e-10 -5.600020e+03 -4.000000e+02
-4.000000e+02 -5.200050e+03 -4.000000e+02
1.798450e-10 -5.200050e+03 -4.000000e+02
-4.000000e+02 -5.600020e+03 6.442240e-11
7.136990e-11 -5.600020e+03 7.165100e-12
-4.000000e+02 -5.200050e+03 5.721640e-11
7.201990e-11 -5.200050e+03 1.104640e-10
1.525250e-10 -5.600020e+03 -4.000000e+02
4.000000e+02 -5.600020e+03 -4.000000e+02
1.798450e-10 -5.200050e+03 -4.000000e+02
4.000000e+02 -5.200050e+03 -4.000000e+02
7.136990e-11 -5.600020e+03 7.165100e-12
4.000000e+02 -5.600020e+03 -1.342750e-12
7.201990e-11 -5.200050e+03 1.104640e-10
4.000000e+02 -5.200050e+03 1.249890e-10
-4.000000e+02 -5.200050e+03 -4.000000e+02
1.798450e-10 -5.200050e+03 -4.000000e+02
-4.000000e+02 -4.800080e+03 -4.000000e+02
4.150710e-11 -4.800080e+03 -4.000000e+02
-4.000000e+02 -5.200050e+03 5.721640e-11
7.201990e-11 -5.200050e+03 1.104640e-10
-4.000000e+02 -4.800080e+03 -2.970710e-12
8.470460e-11 -4.800080e+03 8.785920e-11
1.798450e-10 -5.200050e+03 -4.000000e+02
4.000000e+02 -5.200050e+03 -4.000000e+02
4.150710e-11 -4.800080e+03 -4.000000e+02
4.000000e+02 -4.800080e+03 -4.000000e+02
7.201990e-11 -5.200050e+03 1.104640e-10
4.000000e+02 -5.200050e+03 1.249890e-10
8.470460e-11 -4.800080e+03 8.785920e-11
4.000000e+02 -4.800080e+03 1.256640e-10
-4.000000e+02 -4.800080e+03 -4.000000e+02
4.150710e-11 -4.800080e+03 -4.000000e+02
-4.000000e+02 -4.400130e+03 -4.000000e+02
-1.568900e-10 -4.400130e+03 -4.000000e+02
-4.000000e+02 -4.800080e+03 -2.970710e-12
8.470460e-11 -4.800080e+03 8.785920e-11
-4.000000e+02 -4.400130e+03 7.454160e-11
3.187020e-11 -4.400130e+03 1.457840e-10
4.150710e-11 -4.800080e+03 -4.000000e+02
4.000000e+02 -4.800080e+03 -4.000000e+02
-1.568900e-10 -4.400130e+03 -4.000000e+02
4.000000e+02 -4.400130e+03 -4.000000e+02
8.470460e-11 -4.800080e+03 8.785920e-11
4.000000e+02 -4.800080e+03 1.256640e-10
3.187020e-11 -4.400130e+03 1.457840e-10
4.000000e+02 -4.400130e+03 3.113860e-10
-4.000000e+02 -4.400130e+03 -4.000000e+02
-1.568900e-10 -4.400130e+03 -4.000000e+02
-4.000000e+02 -4.000170e+03 -4.000000e+02
-8.631580e-11 -4.000170e+03 -4.000000e+02
-4.000000e+02 -4.400130e+03 7.454160e-11
3.187020e-11 -4.400130e+03 1.457840e-10
-4.000000e+02 -4.000170e+03 1.103270e-10
6.203370e-11 -4.000170e+03 2.057990e-10
-1.568900e-10 -4.400130e+03 -4.000000e+02
4.000000e+02 -4.400130e+03 -4.000000e+02
-8.631580e-11 -4.000170e+03 -4.000000e+02
4.000000e+02 -4.000170e+03 -4.000000e+02
3.187020e-11 -4.400130e+03 1.457840e-10
4.000000e+02 -4.400130e+03 3.113860e-10
6.203370e-11 -4.000170e+03 2.057990e-10
4.000000e+02 -4.000170e+03 4.340850e-10
-4.000000e+02 -4.000170e+03 -4.000000e+02
-8.631580e-11 -4.000170e+03 -4.000000e+02
-4.000000e+02 -3.600200e+03 -4.000000e+02
1.017960e-11 -3.600200e+03 -4.000000e+02
-4.000000e+02 -4.000170e+03 1.103270e-10
6.203370e-11 -4.000170e+03 2.057990e-10
-4.000000e+02 -3.600200e+03 -3.224930e-11
2.770520e-11 -3.600200e+03 1.242240e-10
-8.631580e-11 -4.000170e+03 -4.000000e+02
4.000000e+02 -4.000170e+03 -4.000000e+02
1.017960e-11 -3.600200e+03 -4.000000e+02
4.000000e+02 -3.600200e+03 -4.000000e+02
6.203370e-11 -4.000170e+03 2.057990e-10
4.000000e+02 -4.000170e+03 4.340850e-10
2.770520e-11 -3.600200e+03 1.242240e-10
4.000000e+02 -3.600200e+03 2.077900e-10
-4.000000e+02 -3.600200e+03 -4.000000e+02
1.017960e-11 -3.600200e+03 -4.000000e+02
-4.000000e+02 -3.200220e+03 -4.000000e+02
1.621130e-11 -3.200220e+03 -4.000000e+02
-4.000000e+02 -3.600200e+03 -3.224930e-11
2.770520e-11 -3.600200e+03 1.242240e-10
-4.000000e+02 -3.200220e+03 5.422870e-11
1.134730e-10 -3.200220e+03 6.695700e-11
1.017960e-11 -3.600200e+03 -4.000000e+02
4.000000e+02 -3.600200e+03 -4.000000e+02
1.621130e-11 -3.200220e+03 -4.000000e+02
4.000000e+02 -3.200220e+03 -4.000000e+02
2.770520e-11 -3.600200e+03 1.242240e-10
4.000000e+02 -3.600200e+03 2.077900e-10
1.134730e-10 -3.200220e+03 6.695700e-11
4.000000e+02 -3.200220e+03 9.630340e-11
-4.000000e+02 -3.200220e+03 -4.000000e+02
1.621130e-11 -3.200220e+03 -4.000000e+02
-4.000000e+02 -2.800220e+03 -4.000000e+02
-4.154340e-11 -2.800220e+03 -4.000000e+02
-4.000000e+02 -3.200220e+03 5.422870e-11
1.134730e-10 -3.200220e+03 6.695700e-11
-4.000000e+02 -2.800220e+03 1.134370e-10
2.440980e-11 -2.800220e+03 2.268590e-10
1.621130e-11 -3.200220e+03 -4.000000e+02
4.000000e+02 -3.200220e+03 -4.000000e+02
-4.154340e-11 -2.800220e+03 -4.000000e+02
4.000000e+02 -2.800220e+03 -4.000000e+02
1.134730e-10 -3.200220e+03 6.695700e-11
4.000000e+02 -3.200220e+03 9.630340e-11
2.440980e-11 -2.800220e+03 2.268590e-10
4.000000e+02 -2.800220e+03 2.476690e-10
-4.000000e+02 -2.800220e+03 -4.000000e+02
-4.154340e-11 -2.800220e+03 -4.000000e+02
-4.000000e+02 -2.400220e+03 -4.000000e+02
3.461360e-12 -2.400220e+03 -4.000000e+02
-4.000000e+02 -2.800220e+03 1.134370e-10
2.440980e-11 -2.800220e+03 2.268590e-10
-4.000000e+02 -2.400220e+03 4.056710e-10
-6.795540e-11 -2.400220e+03 4.737070e-10
-4.154340e-11 -2.800220e+03 -4.000000e+02
4.000000e+02 -2.800220e+03 -4.000000e+02
3.461360e-12 -2.400220e+03 -4.000000e+02
4.000000e+02 -2.400220e+03 -4.000000e+02
2.440980e-11 -2.800220e+03 2.268590e-10
4.000000e+02 -2.800220e+03 2.476690e-10
-6.795540e-11 -2.400220e+03 4.737070e-10
4.000000e+02 -2.400220e+03 4.865060e-10
-4.000000e+02 -2.400220e+03 -4.000000e+02
3.461360e-12 -2.400220e+03 -4.000000e+02
-4.000000e+02 -2.000220e+03 -4.000000e+02
-8.845780e-12 -2.000220e+03 -4.000000e+02
-4.000000e+02 -2.400220e+03 4.056710e-10
-6.795540e-11 -2.400220e+03 4.737070e-10
-4.000000e+02 -2.000220e+03 5.421280e-10
-6.480750e-11 -2.000220e+03 5.648450e-10
3.461360e-12 -2.400220e+03 -4.000000e+02
4.000000e+02 -2.400220e+03 -4.000000e+02
-8.845780e-12 -2.000220e+03 -4.000000e+02
4.000000e+02 -2.000220e+03 -4.000000e+02
-6.795540e-11 -2.400220e+03 4.737070e-10
4.000000e+02 -2.400220e+03 4.865060e-10
-6.480750e-11 -2.000220e+03 5.648450e-10
4.000000e+02 -2.000220e+03 5.342050e-10
-4.000000e+02 -2.000220e+03 -4.000000e+02
-8.845780e-12 -2.000220e+03 -4.000000e+02
-4.000000e+02 -1.600220e+03 -4.000000e+02
-1.193990e-10 -1.600220e+03 -4.000000e+02
-4.000000e+02 -2.000220e+03 5.421280e-10
-6.480750e-11 -2.000220e+03 5.648450e-10
-4.000000e+02 -1.600220e+03 6.359130e-10
-2.075350e-10 -1.600220e+03 6.756790e-10
-8.845780e-12 -2.000220e+03 -4.000000e+02
4.000000e+02 -2.000220e+03 -4.000000e+02
-1.193990e-10 -1.600220e+03 -4.000000e+02
4.000000e+02 -1.600220e+03 -4.000000e+02
-6.480750e-11 -2.000220e+03 5.648450e-10
4.000000e+02 -2.000220e+03 5.342050e-10
-2.075350e-10 -1.600220e+03 6.756790e-10
4.000000e+02 -1.600220e+03 5.697970e-10
-4.000000e+02 -1.600220e+03 -4.000000e+02
-1.193990e-10 -1.600220e+03 -4.000000e+02
-4.000000e+02 -1.200220e+03 -4.000000e+02
-1.296260e-10 -1.200220e+03 -4.000000e+02
-4.000000e+02 -1.600220e+03 6.359130e-10
-2.075350e-10 -1.600220e+03 6.756790e-10
-4.000000e+02 -1.200220e+03 7.526570e-10
-2.854270e-10 -1.200220e+03 7.375250e-10
-1.193990e-10 -1.600220e+03 -4.000000e+02
4.000000e+02 -1.600220e+03 -4.000000e+02
-1.296260e-10 -1.200220e+03 -4.000000e+02
4.000000e+02 -1.200220e+03 -4.000000e+02
-2.075350e-10 -1.600220e+03 6.756790e-10
4.000000e+02 -1.600220e+03 5.697970e-10
-2.854270e-10 -1.200220e+03 7.375250e-10
4.000000e+02 -1.200220e+03 7.247700e-10
-4.000000e+02 -1.200220e+03 -4.000000e+02
-1.296260e-10 -1.200220e+03 -4.000000e+02
-4.000000e+02 -8.002230e+02 -4.000000e+02
-1.684470e-10 -8.002230e+02 -4.000000e+02
-4.000000e+02 -1.200220e+03 7.526570e-10
-2.854270e-10 -1.200220e+03 7.375250e-10
-4.000000e+02 -8.002230e+02 5.784080e-10
-2.335840e-10 -8.002230e+02 5.938600e-10
-1.296260e-10 -1.200220e+03 -4.000000e+02
4.000000e+02 -1.200220e+03 -4.000000e+02
-1.684470e-10 -8.002230e+02 -4.000000e+02
4.000000e+02 -8.002230e+02 -4.000000e+02
-2.854270e-10 -1.200220e+03 7.375250e-10
4.000000e+02 -1.200220e+03 7.247700e-10
-2.335840e-10 -8.002230e+02 5.938600e-10
4.000000e+02 -8.002230e+02 6.448760e-10
-4.000000e+02 -8.002230e+02 -4.000000e+02
-1.684470e-10 -8.002230e+02 -4.000000e+02
-4.000000e+02 -4.002240e+02 -4.000000e+02
-2.624860e-10 -4.002240e+02 -4.000000e+02
-4.000000e+02 -8.002230e+02 5.784080e-10
-2.335840e-10 -8.002230e+02 5.938600e-10
-4.000000e+02 -4.002240e+02 4.801990e-10
-3.038830e-10 -4.002240e+02 5.673060e-10
-1.684470e-10 -8.002230e+02 -4.000000e+02
4.000000e+02 -8.002230e+02 -4.000000e+02
-2.624860e-10 -4.002240e+02 -4.000000e+02
4.000000e+02 -4.002240e+02 -4.000000e+02
-2.335840e-10 -8.002230e+02 5.938600e-10
4.000000e+02 -8.002230e+02 6.448760e-10
-3.038830e-10 -4.002240e+02 5.673060e-10
4.000000e+02 -4.002240e+02 5.881330e-10
-4.000000e+02 -4.002240e+02 -4.000000e+02
-2.624860e-10 -4.002240e+02 -4.000000e+02
-4.000000e+02 -2.249620e-01 -4.000000e+02
-9.054670e-11 -2.249630e-01 -4.000000e+02
-4.000000e+02 -4.002240e+02 4.801990e-10
-3.038830e-10 -4.002240e+02 5.673060e-10
-4.000000e+02 -2.249630e-01 6.982290e-10
-1.800580e-10 -2.249630e-01 6.501370e-10
-2.624860e-10 -4.002240e+02 -4.000000e+02
4.000000e+02 -4.002240e+02 -4.000000e+02
-9.054670e-11 -2.249630e-01 -4.000000e+02
4.000000e+02 -2.249620e-01 -4.000000e+02
-3.038830e-10 -4.002240e+02 5.673060e-10
[...]
<PointData>
<DataArray type="Float32" Name="V1" format="ascii">
0.000000e+00
0.000000e+00
5.042880e-07
-3.345120e-11
0.000000e+00
0.000000e+00
5.027600e-07
3.445560e-11
0.000000e+00
0.000000e+00
-3.345120e-11
-5.044840e-07
0.000000e+00
0.000000e+00
3.445560e-11
-5.026310e-07
5.042880e-07
-3.345120e-11
-1.997840e-07
1.123150e-10
5.027600e-07
3.445560e-11
-1.971920e-07
-1.487870e-10
-3.345120e-11
-5.044840e-07
1.123150e-10
1.998160e-07
3.445560e-11
-5.026310e-07
-1.487870e-10
1.968620e-07
-1.997840e-07
1.123150e-10
-4.426450e-07
1.173460e-10
-1.971920e-07
-1.487870e-10
-4.470520e-07
-7.860270e-11
1.123150e-10
1.998160e-07
1.173460e-10
4.428960e-07
-1.487870e-10
1.968620e-07
-7.860270e-11
4.469500e-07
-4.426450e-07
1.173460e-10
6.738010e-07
1.735610e-10
-4.470520e-07
-7.860270e-11
6.765150e-07
-1.103630e-10
1.173460e-10
4.428960e-07
1.735610e-10
-6.734120e-07
-7.860270e-11
4.469500e-07
-1.103630e-10
-6.767110e-07
6.738010e-07
1.735610e-10
-1.037610e-07
4.061960e-12
6.765150e-07
-1.103630e-10
-1.037650e-07
5.780580e-12
1.735610e-10
-6.734120e-07
4.061960e-12
1.038790e-07
-1.103630e-10
-6.767110e-07
5.780580e-12
1.037650e-07
-1.037610e-07
4.061960e-12
-3.863910e-07
-1.400830e-10
-1.037650e-07
5.780580e-12
-3.875570e-07
-2.340750e-11
4.061960e-12
1.038790e-07
-1.400830e-10
3.860260e-07
5.780580e-12
1.037650e-07
-2.340750e-11
3.875770e-07
-3.863910e-07
-1.400830e-10
5.691010e-08
-8.173410e-11
-3.875570e-07
-2.340750e-11
5.771140e-08
-2.698270e-12
-1.400830e-10
3.860260e-07
-8.173410e-11
-5.719680e-08
-2.340750e-11
3.875770e-07
-2.698270e-12
-5.769960e-08
5.691010e-08
-8.173410e-11
2.782780e-07
2.902790e-11
5.771140e-08
-2.698270e-12
2.760270e-07
2.024130e-10
-8.173410e-11
-5.719680e-08
2.902790e-11
-2.781250e-07
-2.698270e-12
-5.769960e-08
2.024130e-10
-2.756970e-07
2.782780e-07
2.902790e-11
-5.153290e-08
6.603940e-11
2.760270e-07
2.024130e-10
-4.861060e-08
-5.029300e-12
2.902790e-11
-2.781250e-07
6.603940e-11
5.153680e-08
2.024130e-10
-2.756970e-07
-5.029300e-12
4.849280e-08
-5.153290e-08
6.603940e-11
-3.368220e-07
2.118610e-12
-4.861060e-08
-5.029300e-12
-3.337110e-07
1.594030e-11
6.603940e-11
5.153680e-08
2.118610e-12
3.368340e-07
-5.029300e-12
4.849280e-08
1.594030e-11
3.337270e-07
-3.368220e-07
2.118610e-12
2.146710e-07
3.362430e-11
-3.337110e-07
1.594030e-11
2.133750e-07
7.120270e-11
2.118610e-12
3.368340e-07
3.362430e-11
-2.145650e-07
1.594030e-11
3.337270e-07
7.120270e-11
-2.132760e-07
2.146710e-07
3.362430e-11
4.653010e-07
-1.446770e-12
2.133750e-07
7.120270e-11
4.597000e-07
-8.598840e-11
3.362430e-11
-2.145650e-07
-1.446770e-12
-4.652460e-07
7.120270e-11
-2.132760e-07
-8.598840e-11
-4.598610e-07
4.653010e-07
-1.446770e-12
-3.508720e-08
1.244820e-10
4.597000e-07
-8.598840e-11
-3.701570e-08
6.038410e-12
-1.446770e-12
-4.652460e-07
1.244820e-10
3.525610e-08
-8.598840e-11
-4.598610e-07
6.038410e-12
3.711000e-08
-3.508720e-08
1.244820e-10
-7.302200e-07
-4.748430e-13
-3.701570e-08
6.038410e-12
-7.311110e-07
1.133810e-10
1.244820e-10
3.525610e-08
-4.748430e-13
7.303300e-07
6.038410e-12
3.711000e-08
1.133810e-10
7.312610e-07
-7.302200e-07
-4.748430e-13
-1.981350e-07
-9.196600e-11
-7.311110e-07
1.133810e-10
-1.994980e-07
-7.499580e-11
-4.748430e-13
7.303300e-07
-9.196600e-11
1.980170e-07
1.133810e-10
7.312610e-07
-7.499580e-11
1.992850e-07
-1.981350e-07
-9.196600e-11
3.780600e-07
-3.383730e-11
-1.994980e-07
-7.499580e-11
3.777180e-07
-7.094700e-11
-9.196600e-11
1.980170e-07
-3.383730e-11
-3.780600e-07
-7.499580e-11
1.992850e-07
-7.094700e-11
-3.778440e-07
3.780600e-07
-3.383730e-11
3.848160e-07
6.723470e-11
3.777180e-07
-7.094700e-11
3.856800e-07
5.401550e-11
-3.383730e-11
-3.780600e-07
6.723470e-11
-3.847060e-07
-7.094700e-11
-3.778440e-07
5.401550e-11
-3.855900e-07
3.848160e-07
6.723470e-11
5.129330e-08
2.173250e-11
3.856800e-07
5.401550e-11
5.107340e-08
3.361790e-11
6.723470e-11
-3.847060e-07
2.173250e-11
-5.127370e-08
5.401550e-11
-3.855900e-07
3.361790e-11
-5.115980e-08
5.129330e-08
2.173250e-11
1.441660e-07
1.875230e-11
5.107340e-08
3.361790e-11
1.447320e-07
-8.305730e-11
2.173250e-11
-5.127370e-08
1.875230e-11
-1.440490e-07
3.361790e-11
-5.115980e-08
-8.305730e-11
-1.447640e-07
1.441660e-07
1.875230e-11
7.040210e-08
6.569510e-11
1.447320e-07
-8.305730e-11
6.971080e-08
3.895840e-11
1.875230e-11
-1.440490e-07
6.569510e-11
-7.029220e-08
-8.305730e-11
-1.447640e-07
3.895840e-11
-6.964410e-08
7.040210e-08
6.569510e-11
-4.220040e-08
-3.962640e-11
6.971080e-08
3.895840e-11
-4.290350e-08
-2.741470e-11
6.569510e-11
-7.029220e-08
-3.962640e-11
4.211400e-08
3.895840e-11
-6.964410e-08
-2.741470e-11
4.284070e-08
-4.220040e-08
-3.962640e-11
5.228710e-08
-6.174560e-12
-4.290350e-08
-2.741470e-11
5.302550e-08
-5.988430e-12
-3.962640e-11
4.211400e-08
-6.174560e-12
-5.230280e-08
-2.741470e-11
4.284070e-08
-5.988430e-12
-5.303330e-08
5.228710e-08
-6.174560e-12
4.427040e-08
2.726080e-11
5.302550e-08
-5.988430e-12
4.640710e-08
2.920200e-11
-6.174560e-12
-5.230280e-08
2.726080e-11
-4.421930e-08
-5.988430e-12
-5.303330e-08
2.920200e-11
-4.633640e-08
4.427040e-08
2.726080e-11
-5.006390e-08
1.476520e-11
4.640710e-08
2.920200e-11
-5.269550e-08
1.899740e-11
2.726080e-11
-4.421930e-08
1.476520e-11
5.007180e-08
2.920200e-11
-4.633640e-08
1.899740e-11
5.273090e-08
-5.006390e-08
1.476520e-11
-8.335210e-08
2.682500e-12
-5.269550e-08
1.899740e-11
-8.560280e-08
1.014070e-11
1.476520e-11
5.007180e-08
2.682500e-12
8.335210e-08
1.899740e-11
5.273090e-08
1.014070e-11
8.563030e-08
-8.335210e-08
2.682500e-12
3.696070e-09
5.072330e-13
-8.560280e-08
1.014070e-11
9.057540e-09
6.608050e-12
2.682500e-12
8.335210e-08
5.072330e-13
-3.696070e-09
1.014070e-11
8.563030e-08
6.608050e-12
-9.049680e-09
3.696070e-09
5.072330e-13
-9.032400e-08
-4.090960e-12
9.057540e-09
6.608050e-12
-1.004380e-07
-7.795000e-13
5.072330e-13
-3.696070e-09
-4.090960e-12
9.032790e-08
6.608050e-12
-9.049680e-09
-7.795000e-13
1.004500e-07
-9.032400e-08
-4.090960e-12
4.232730e-07
-1.875440e-12
-1.004380e-07
-7.795000e-13
4.468050e-07
6.125440e-14
-4.090960e-12
9.032790e-08
-1.875440e-12
-4.232690e-07
-7.795000e-13
1.004500e-07
6.125440e-14
-4.467930e-07
4.232730e-07
-1.875440e-12
1.792260e-08
5.883820e-12
4.468050e-07
6.125440e-14
-6.374840e-09
5.298080e-12
-1.875440e-12
-4.232690e-07
5.883820e-12
-1.791080e-08
6.125440e-14
-4.467930e-07
5.298080e-12
6.382700e-09
1.792260e-08
5.883820e-12
-6.299940e-07
1.074170e-11
-6.374840e-09
5.298080e-12
-6.153470e-07
8.614320e-12
5.883820e-12
-1.791080e-08
1.074170e-11
6.300130e-07
5.298080e-12
6.382700e-09
8.614320e-12
6.153630e-07
0.000000e+00
0.000000e+00
5.027600e-07
3.445560e-11
0.000000e+00
0.000000e+00
5.042370e-07
-1.778270e-10
0.000000e+00
0.000000e+00
3.445560e-11
-5.026310e-07
0.000000e+00
0.000000e+00
-1.778270e-10
-5.044330e-07
5.027600e-07
3.445560e-11
-1.971920e-07
-1.487870e-10
5.042370e-07
-1.778270e-10
-1.997250e-07
4.004910e-11
3.445560e-11
-5.026310e-07
-1.487870e-10
1.968620e-07
-1.778270e-10
-5.044330e-07
4.004910e-11
1.999220e-07
-1.971920e-07
-1.487870e-10
-4.470520e-07
-7.860270e-11
-1.997250e-07
4.004910e-11
-4.425660e-07
2.211620e-10
-1.487870e-10
1.968620e-07
-7.860270e-11
4.469500e-07
4.004910e-11
1.999220e-07
2.211620e-10
4.430340e-07
-4.470520e-07
-7.860270e-11
6.765150e-07
-1.103630e-10
-4.425660e-07
2.211620e-10
6.733330e-07
5.415460e-11
-7.860270e-11
4.469500e-07
-1.103630e-10
-6.767110e-07
2.211620e-10
4.430340e-07
5.415460e-11
-6.733250e-07
6.765150e-07
-1.103630e-10
-1.037650e-07
5.780580e-12
6.733330e-07
5.415460e-11
-1.039810e-07
-1.151820e-10
-1.103630e-10
-6.767110e-07
5.780580e-12
1.037650e-07
5.415460e-11
-6.733250e-07
-1.151820e-10
1.039650e-07
-1.037650e-07
5.780580e-12
-3.875570e-07
-2.340750e-11
-1.039810e-07
-1.151820e-10
-3.860880e-07
7.279030e-11
5.780580e-12
1.037650e-07
-2.340750e-11
3.875770e-07
-1.151820e-10
1.039650e-07
7.279030e-11
3.861360e-07
-3.875570e-07
-2.340750e-11
5.771140e-08
-2.698270e-12
-3.860880e-07
7.279030e-11
5.725180e-08
1.375050e-11
-2.340750e-11
3.875770e-07
-2.698270e-12
-5.769960e-08
7.279030e-11
3.861360e-07
1.375050e-11
-5.740500e-08
5.771140e-08
-2.698270e-12
2.760270e-07
2.024130e-10
5.725180e-08
1.375050e-11
2.781560e-07
-1.484690e-10
-2.698270e-12
-5.769960e-08
2.024130e-10
-2.756970e-07
1.375050e-11
-5.740500e-08
-1.484690e-10
-2.782540e-07
2.760270e-07
2.024130e-10
-4.861060e-08
-5.029300e-12
2.781560e-07
-1.484690e-10
-5.154860e-08
-8.648820e-11
2.024130e-10
-2.756970e-07
-5.029300e-12
4.849280e-08
-1.484690e-10
-2.782540e-07
-8.648820e-11
5.148970e-08
-4.861060e-08
-5.029300e-12
-3.337110e-07
1.594030e-11
-5.154860e-08
-8.648820e-11
-3.366210e-07
-1.997780e-12
-5.029300e-12
4.849280e-08
1.594030e-11
3.337270e-07
-8.648820e-11
5.148970e-08
-1.997780e-12
3.367080e-07
-3.337110e-07
1.594030e-11
2.133750e-07
7.120270e-11
-3.366210e-07
-1.997780e-12
2.147300e-07
1.931250e-11
1.594030e-11
3.337270e-07
7.120270e-11
-2.132760e-07
-1.997780e-12
3.367080e-07
1.931250e-11
-2.147020e-07
2.133750e-07
7.120270e-11
4.597000e-07
-8.598840e-11
2.147300e-07
1.931250e-11
4.651550e-07
-3.037850e-11
7.120270e-11
-2.132760e-07
-8.598840e-11
-4.598610e-07
1.931250e-11
-2.147020e-07
-3.037850e-11
-4.651630e-07
4.597000e-07
-8.598840e-11
-3.701570e-08
6.038410e-12
4.651550e-07
-3.037850e-11
-3.506750e-08
-2.424150e-11
-8.598840e-11
-4.598610e-07
6.038410e-12
3.711000e-08
-3.037850e-11
-4.651630e-07
-2.424150e-11
3.515790e-08
-3.701570e-08
6.038410e-12
-7.311110e-07
1.133810e-10
-3.506750e-08
-2.424150e-11
-7.299760e-07
-7.329590e-12
6.038410e-12
3.711000e-08
1.133810e-10
7.312610e-07
-2.424150e-11
3.515790e-08
-7.329590e-12
7.300510e-07
-7.311110e-07
1.133810e-10
-1.994980e-07
-7.499580e-11
-7.299760e-07
-7.329590e-12
-1.980560e-07
-3.110330e-11
1.133810e-10
7.312610e-07
-7.499580e-11
1.992850e-07
-7.329590e-12
7.300510e-07
-3.110330e-11
1.978520e-07
-1.994980e-07
-7.499580e-11
3.777180e-07
-7.094700e-11
-1.980560e-07
-3.110330e-11
3.778710e-07
5.953300e-12
-7.499580e-11
1.992850e-07
-7.094700e-11
-3.778440e-07
-3.110330e-11
1.978520e-07
5.953300e-12
-3.778160e-07
3.777180e-07
-7.094700e-11
3.856800e-07
5.401550e-11
3.778710e-07
5.953300e-12
3.850670e-07
1.233980e-10
-7.094700e-11
-3.778440e-07
5.401550e-11
-3.855900e-07
5.953300e-12
-3.778160e-07
1.233980e-10
-3.848470e-07
3.856800e-07
5.401550e-11
5.107340e-08
3.361790e-11
3.850670e-07
1.233980e-10
5.128150e-08
-2.207100e-11
5.401550e-11
-3.855900e-07
3.361790e-11
-5.115980e-08
1.233980e-10
-3.848470e-07
-2.207100e-11
-5.143860e-08
5.107340e-08
3.361790e-11
1.447320e-07
-8.305730e-11
5.128150e-08
-2.207100e-11
1.441550e-07
1.907970e-11
3.361790e-11
-5.115980e-08
-8.305730e-11
-1.447640e-07
-2.207100e-11
-5.143860e-08
1.907970e-11
-1.440840e-07
1.447320e-07
-8.305730e-11
6.971080e-08
3.895840e-11
1.441550e-07
1.907970e-11
7.046500e-08
8.132030e-11
-8.305730e-11
-1.447640e-07
3.895840e-11
-6.964410e-08
1.907970e-11
-1.440840e-07
8.132030e-11
-7.032360e-08
6.971080e-08
3.895840e-11
-4.290350e-08
-2.741470e-11
7.046500e-08
8.132030e-11
-4.220040e-08
-3.046850e-11
3.895840e-11
-6.964410e-08
-2.741470e-11
4.284070e-08
8.132030e-11
-7.032360e-08
-3.046850e-11
4.214540e-08
-4.290350e-08
-2.741470e-11
5.302550e-08
-5.988430e-12
-4.220040e-08
-3.046850e-11
5.231460e-08
-4.560170e-12
-2.741470e-11
4.284070e-08
-5.988430e-12
-5.303330e-08
-3.046850e-11
4.214540e-08
-4.560170e-12
-5.231060e-08
5.302550e-08
-5.988430e-12
4.640710e-08
2.920200e-11
5.231460e-08
-4.560170e-12
4.429000e-08
3.398230e-11
-5.988430e-12
-5.303330e-08
2.920200e-11
-4.633640e-08
-4.560170e-12
-5.231060e-08
3.398230e-11
-4.423500e-08
4.640710e-08
2.920200e-11
-5.269550e-08
1.899740e-11
4.429000e-08
3.398230e-11
-5.005210e-08
1.685940e-11
2.920200e-11
-4.633640e-08
1.899740e-11
5.273090e-08
3.398230e-11
-4.423500e-08
1.685940e-11
5.006390e-08
-5.269550e-08
1.899740e-11
-8.560280e-08
1.014070e-11
-5.005210e-08
1.685940e-11
-8.336000e-08
7.364000e-12
1.899740e-11
5.273090e-08
1.014070e-11
8.563030e-08
1.685940e-11
5.006390e-08
7.364000e-12
8.336000e-08
-8.560280e-08
1.014070e-11
9.057540e-09
6.608050e-12
-8.336000e-08
7.364000e-12
3.696070e-09
1.013040e-11
1.014070e-11
8.563030e-08
6.608050e-12
-9.049680e-09
7.364000e-12
8.336000e-08
1.013040e-11
-3.680360e-09
9.057540e-09
6.608050e-12
-1.004380e-07
-7.795000e-13
3.696070e-09
1.013040e-11
-9.035150e-08
-1.218620e-12
6.608050e-12
-9.049680e-09
-7.795000e-13
1.004500e-07
1.013040e-11
-3.680360e-09
-1.218620e-12
9.033970e-08
-1.004380e-07
-7.795000e-13
4.468050e-07
6.125440e-14
-9.035150e-08
-1.218620e-12
4.232650e-07
-4.367150e-13
-7.795000e-13
1.004500e-07
6.125440e-14
-4.467930e-07
-1.218620e-12
9.033970e-08
-4.367150e-13
-4.232730e-07
4.468050e-07
6.125440e-14
-6.374840e-09
5.298080e-12
4.232650e-07
-4.367150e-13
1.793050e-08
7.096420e-12
6.125440e-14
-4.467930e-07
5.298080e-12
6.382700e-09
-4.367150e-13
-4.232730e-07
7.096420e-12
-1.791480e-08
-6.374840e-09
5.298080e-12
-6.153470e-07
8.614320e-12
1.793050e-08
7.096420e-12
-6.299940e-07
1.012090e-11
5.298080e-12
6.382700e-09
8.614320e-12
6.153630e-07
7.096420e-12
-1.791480e-08
1.012090e-11
6.300060e-07
</DataArray>
<DataArray type="Float32" Name="V2" format="ascii">
0.000000e+00
0.000000e+00
9.128800e-03
9.128920e-03
0.000000e+00
0.000000e+00
9.128920e-03
9.129030e-03
0.000000e+00
0.000000e+00
9.128920e-03
9.128800e-03
0.000000e+00
0.000000e+00
9.129030e-03
9.128920e-03
9.128800e-03
9.128920e-03
1.858770e-02
1.858750e-02
9.128920e-03
9.129030e-03
1.858750e-02
1.858730e-02
9.128920e-03
9.128800e-03
1.858750e-02
1.858770e-02
9.129030e-03
9.128920e-03
1.858730e-02
1.858750e-02
1.858770e-02
1.858750e-02
2.700040e-02
2.700050e-02
1.858750e-02
1.858730e-02
2.700050e-02
2.700060e-02
1.858750e-02
1.858770e-02
2.700050e-02
2.700040e-02
1.858730e-02
1.858750e-02
2.700060e-02
2.700050e-02
2.700040e-02
2.700050e-02
3.059220e-02
3.059240e-02
2.700050e-02
2.700060e-02
3.059240e-02
3.059250e-02
2.700050e-02
2.700040e-02
3.059240e-02
3.059220e-02
2.700060e-02
2.700050e-02
3.059250e-02
3.059240e-02
3.059220e-02
3.059240e-02
2.629490e-02
2.629480e-02
3.059240e-02
3.059250e-02
2.629480e-02
2.629470e-02
3.059240e-02
3.059220e-02
2.629480e-02
2.629490e-02
3.059250e-02
3.059240e-02
2.629470e-02
2.629480e-02
2.629490e-02
2.629480e-02
1.571050e-02
1.571010e-02
2.629480e-02
2.629470e-02
1.571010e-02
1.570970e-02
2.629480e-02
2.629490e-02
1.571010e-02
1.571050e-02
2.629470e-02
2.629480e-02
1.570970e-02
1.571010e-02
1.571050e-02
1.571010e-02
4.844410e-03
4.844160e-03
1.571010e-02
1.570970e-02
4.844160e-03
4.843910e-03
1.571010e-02
1.571050e-02
4.844160e-03
4.844410e-03
1.570970e-02
1.571010e-02
4.843910e-03
4.844160e-03
4.844410e-03
4.844160e-03
-8.818820e-04
-8.810970e-04
4.844160e-03
4.843910e-03
-8.810970e-04
-8.802950e-04
4.844160e-03
4.844410e-03
-8.810970e-04
-8.818820e-04
4.843910e-03
4.844160e-03
-8.802950e-04
-8.810970e-04
-8.818820e-04
-8.810970e-04
-1.695290e-03
-1.694560e-03
-8.810970e-04
-8.802950e-04
-1.694570e-03
-1.693840e-03
-8.810970e-04
-8.818820e-04
-1.694560e-03
-1.695290e-03
-8.802950e-04
-8.810970e-04
-1.693840e-03
-1.694560e-03
-1.695290e-03
-1.694560e-03
-1.045830e-03
-1.046050e-03
-1.694570e-03
-1.693840e-03
-1.046050e-03
-1.046290e-03
-1.694560e-03
-1.695290e-03
-1.046050e-03
-1.045830e-03
-1.693840e-03
-1.694560e-03
-1.046290e-03
-1.046050e-03
-1.045830e-03
-1.046050e-03
-6.168740e-04
-6.177290e-04
-1.046050e-03
-1.046290e-03
-6.177300e-04
-6.185840e-04
-1.046050e-03
-1.045830e-03
-6.177290e-04
-6.168740e-04
-1.046290e-03
-1.046050e-03
-6.185840e-04
-6.177300e-04
-6.168740e-04
-6.177290e-04
-4.657960e-04
-4.662560e-04
-6.177300e-04
-6.185840e-04
-4.662560e-04
-4.667210e-04
-6.177290e-04
-6.168740e-04
-4.662560e-04
-4.657950e-04
-6.185840e-04
-6.177300e-04
-4.667210e-04
-4.662560e-04
-4.657960e-04
-4.662560e-04
-4.667710e-04
-4.665840e-04
-4.662560e-04
-4.667210e-04
-4.665850e-04
-4.664020e-04
-4.662560e-04
-4.657950e-04
-4.665840e-04
-4.667700e-04
-4.667210e-04
-4.662560e-04
-4.664020e-04
-4.665850e-04
-4.667710e-04
-4.665840e-04
-5.283820e-04
-5.285420e-04
-4.665850e-04
-4.664020e-04
-5.285430e-04
-5.287000e-04
-4.665840e-04
-4.667700e-04
-5.285420e-04
-5.283810e-04
-4.664020e-04
-4.665850e-04
-5.287000e-04
-5.285430e-04
-5.283820e-04
-5.285420e-04
-5.576210e-04
-5.580990e-04
-5.285430e-04
-5.287000e-04
-5.580990e-04
-5.585770e-04
-5.285420e-04
-5.283810e-04
-5.580990e-04
-5.576220e-04
-5.287000e-04
-5.285430e-04
-5.585770e-04
-5.581000e-04
-5.576210e-04
-5.580990e-04
-5.669600e-04
-5.671390e-04
-5.580990e-04
-5.585770e-04
-5.671380e-04
-5.673170e-04
-5.580990e-04
-5.576220e-04
-5.671390e-04
-5.669600e-04
-5.585770e-04
-5.581000e-04
-5.673170e-04
-5.671380e-04
-5.669600e-04
-5.671390e-04
-5.091380e-04
-5.088700e-04
-5.671380e-04
-5.673170e-04
-5.088700e-04
-5.086040e-04
-5.671390e-04
-5.669600e-04
-5.088700e-04
-5.091380e-04
-5.673170e-04
-5.671380e-04
-5.086040e-04
-5.088700e-04
-5.091380e-04
-5.088700e-04
-4.218460e-04
-4.216450e-04
-5.088700e-04
-5.086040e-04
-4.216450e-04
-4.214450e-04
-5.088700e-04
-5.091380e-04
-4.216450e-04
-4.218460e-04
-5.086040e-04
-5.088700e-04
-4.214450e-04
-4.216450e-04
-4.218460e-04
-4.216450e-04
-3.498860e-04
-3.497580e-04
-4.216450e-04
-4.214450e-04
-3.497580e-04
-3.496330e-04
-4.216450e-04
-4.218460e-04
-3.497580e-04
-3.498850e-04
-4.214450e-04
-4.216450e-04
-3.496330e-04
-3.497580e-04
-3.498860e-04
-3.497580e-04
-2.834610e-04
-2.833120e-04
-3.497580e-04
-3.496330e-04
-2.833120e-04
-2.831630e-04
-3.497580e-04
-3.498850e-04
-2.833120e-04
-2.834610e-04
-3.496330e-04
-3.497580e-04
-2.831630e-04
-2.833120e-04
-2.834610e-04
-2.833120e-04
-2.256300e-04
-2.256090e-04
-2.833120e-04
-2.831630e-04
-2.256090e-04
-2.255900e-04
-2.833120e-04
-2.834610e-04
-2.256090e-04
-2.256300e-04
-2.831630e-04
-2.833120e-04
-2.255900e-04
-2.256090e-04
-2.256300e-04
-2.256090e-04
-2.578570e-04
-2.579170e-04
-2.256090e-04
-2.255900e-04
-2.579170e-04
-2.579890e-04
-2.256090e-04
-2.256300e-04
-2.579170e-04
-2.578570e-04
-2.255900e-04
-2.256090e-04
-2.579890e-04
-2.579170e-04
-2.578570e-04
-2.579170e-04
-3.427580e-04
-3.425350e-04
-2.579170e-04
-2.579890e-04
-3.425350e-04
-3.423000e-04
-2.579170e-04
-2.578570e-04
-3.425350e-04
-3.427580e-04
-2.579890e-04
-2.579170e-04
-3.423000e-04
-3.425360e-04
-3.427580e-04
-3.425350e-04
-3.494230e-04
-3.495170e-04
-3.425350e-04
-3.423000e-04
-3.495160e-04
-3.495950e-04
-3.425350e-04
-3.427580e-04
-3.495170e-04
-3.494230e-04
-3.423000e-04
-3.425360e-04
-3.495950e-04
-3.495170e-04
-3.494230e-04
-3.495170e-04
-3.227990e-04
-3.228300e-04
-3.495160e-04
-3.495950e-04
-3.228300e-04
-3.228750e-04
-3.495170e-04
-3.494230e-04
-3.228300e-04
-3.227990e-04
-3.495950e-04
-3.495170e-04
-3.228750e-04
-3.228300e-04
-3.227990e-04
-3.228300e-04
-2.971900e-04
-2.970880e-04
-3.228300e-04
-3.228750e-04
-2.970880e-04
-2.969760e-04
-3.228300e-04
-3.227990e-04
-2.970880e-04
-2.971900e-04
-3.228750e-04
-3.228300e-04
-2.969760e-04
-2.970880e-04
-2.971900e-04
-2.970880e-04
-2.523150e-04
-2.525400e-04
-2.970880e-04
-2.969760e-04
-2.525400e-04
-2.527800e-04
-2.970880e-04
-2.971900e-04
-2.525400e-04
-2.523150e-04
-2.969760e-04
-2.970880e-04
-2.527800e-04
-2.525400e-04
-2.523150e-04
-2.525400e-04
-2.503060e-04
-2.509860e-04
-2.525400e-04
-2.527800e-04
-2.509860e-04
-2.518340e-04
-2.525400e-04
-2.523150e-04
-2.509860e-04
-2.503060e-04
-2.527800e-04
-2.525400e-04
-2.518340e-04
-2.509860e-04
-2.503060e-04
-2.509860e-04
-2.789510e-04
-2.770050e-04
-2.509860e-04
-2.518340e-04
-2.770050e-04
-2.744890e-04
-2.509860e-04
-2.503060e-04
-2.770050e-04
-2.789510e-04
-2.518340e-04
-2.509860e-04
-2.744890e-04
-2.770050e-04
-2.789510e-04
-2.770050e-04
-1.820500e-04
-1.765100e-04
-2.770050e-04
-2.744890e-04
-1.765100e-04
-1.705910e-04
-2.770050e-04
-2.789510e-04
-1.765100e-04
-1.820500e-04
-2.744890e-04
-2.770050e-04
-1.705910e-04
-1.765100e-04
0.000000e+00
0.000000e+00
9.128920e-03
9.129030e-03
0.000000e+00
0.000000e+00
9.128800e-03
9.128920e-03
0.000000e+00
0.000000e+00
9.129030e-03
9.128920e-03
0.000000e+00
0.000000e+00
9.128920e-03
9.128800e-03
9.128920e-03
9.129030e-03
1.858750e-02
1.858730e-02
9.128800e-03
9.128920e-03
1.858770e-02
1.858750e-02
9.129030e-03
9.128920e-03
1.858730e-02