<?xml version="1.0"?>
<!-- time 54.0099-->
<VTKFile type="UnstructuredGrid" version="0.1" byte_order="LittleEndian">
<UnstructuredGrid>
<Piece NumberOfPoints="200" NumberOfCells="0">
<Points>
  <DataArray type="Float32" Name="Position" NumberOfComponents="3" format="ascii">
	-200 -5800 -200
	-200 -5800 200
	200 -5800 -200
	200 -5800 200
	-200 -5400 -200
	-200 -5400 200
	200 -5400 -200
	200 -5400 200
	-200 -5000 -200
	-200 -5000 200
	200 -5000 -200
	200 -5000 200
	-200 -4600 -200
	-200 -4600 200
	200 -4600 -200
	200 -4600 200
	-200 -4200 -200
	-200 -4200 200
	200 -4200 -200
	200 -4200 200
	-200 -3800 -200
	-200 -3800 200
	200 -3800 -200
	200 -3800 200
	-200 -3400 -200
	-200 -3400 200
	200 -3400 -200
	200 -3400 200
	-200 -3000 -200
	-200 -3000 200
	200 -3000 -200
	200 -3000 200
	-200 -2600 -200
	-200 -2600 200
	200 -2600 -200
	200 -2600 200
	-200 -2200 -200
	-200 -2200 200
	200 -2200 -200
	200 -2200 200
	-200 -1800.01 -200
	-200 -1800.01 200
	200 -1800.01 -200
	200 -1800.01 200
	-200 -1400.02 -200
	-200 -1400.02 200
	200 -1400.02 -200
	200 -1400.02 200
	-200 -1000.05 -200
	-200 -1000.05 200
	200 -1000.05 -200
	200 -1000.05 200
	-200 -600.085 -200
	-200 -600.085 200
	200 -600.085 -200
	200 -600.085 200
	-200 -200.137 -200
	-200 -200.137 200
	200 -200.137 -200
	200 -200.137 200
	-200 199.808 -200
	-200 199.808 200
	200 199.808 -200
	200 199.808 200
	-200 599.766 -200
	-200 599.766 200
	200 599.766 -200
	200 599.766 200
	-200 999.748 -200
	-200 999.748 200
	200 999.748 -200
	200 999.748 200
	-200 1399.75 -200
	-200 1399.75 200
	200 1399.75 -200
	200 1399.75 200
	-200 1799.75 -200
	-200 1799.75 200
	200 1799.75 -200
	200 1799.75 200
	-200 2199.75 -200
	-200 2199.75 200
	200 2199.75 -200
	200 2199.75 200
	-200 2599.76 -200
	-200 2599.76 200
	200 2599.76 -200
	200 2599.76 200
	-200 2999.76 -200
	-200 2999.76 200
	200 2999.76 -200
	200 2999.76 200
	-200 3399.76 -200
	-200 3399.76 200
	200 3399.76 -200
	200 3399.76 200
	-200 3799.77 -200
	-200 3799.77 200
	200 3799.77 -200
	200 3799.77 200
	-200 4199.77 -200
	-200 4199.77 200
	200 4199.77 -200
	200 4199.77 200
	-200 4599.77 -200
	-200 4599.77 200
	200 4599.77 -200
	200 4599.77 200
	-200 4999.78 -200
	-200 4999.78 200
	200 4999.78 -200
	200 4999.78 200
	-200 5399.78 -200
	-200 5399.78 200
	200 5399.78 -200
	200 5399.78 200
	-200 5799.78 -200
	-200 5799.78 200
	200 5799.78 -200
	200 5799.78 200
	-200 6199.79 -200
	-200 6199.79 200
	200 6199.79 -200
	200 6199.79 200
	-200 6599.79 -200
	-200 6599.79 200
	200 6599.79 -200
	200 6599.79 200
	-200 6999.8 -200
	-200 6999.8 200
	200 6999.8 -200
	200 6999.8 200
	-200 7399.8 -200
	-200 7399.8 200
	200 7399.8 -200
	200 7399.8 200
	-200 7799.81 -200
	-200 7799.81 200
	200 7799.81 -200
	200 7799.81 200
	-200 8199.82 -200
	-200 8199.82 200
	200 8199.82 -200
	200 8199.82 200
	-200 8599.82 -200
	-200 8599.82 200
	200 8599.82 -200
	200 8599.82 200
	-200 8999.83 -200
	-200 8999.83 200
	200 8999.83 -200
	200 8999.83 200
	-200 9399.84 -200
	-200 9399.84 200
	200 9399.84 -200
	200 9399.84 200
	-200 9799.85 -200
	-200 9799.85 200
	200 9799.85 -200
	200 9799.85 200
	-200 10199.9 -200
	-200 10199.9 200
	200 10199.9 -200
	200 10199.9 200
	-200 10599.9 -200
	-200 10599.9 200
	200 10599.9 -200
	200 10599.9 200
	-200 10999.9 -200
	-200 10999.9 200
	200 10999.9 -200
	200 10999.9 200
	-200 11399.9 -200
	-200 11399.9 200
	200 11399.9 -200
	200 11399.9 200
	-200 11799.9 -200
	-200 11799.9 200
	200 11799.9 -200
	200 11799.9 200
	-200 12200 -200
	-200 12200 200
	200 12200 -200
	200 12200 200
	-200 12600 -200
	-200 12600 200
	200 12600 -200
	200 12600 200
	-200 13000.1 -200
	-200 13000.1 200
	200 13000.1 -200
	200 13000.1 200
	-200 13400.2 -200
	-200 13400.2 200
	200 13400.2 -200
	200 13400.2 200
	-200 13800.5 -200
	-200 13800.5 200
	200 13800.5 -200
	200 13800.5 200
  </DataArray>
</Points>
<PointData  Vectors="vector">
  <DataArray type="Float32" Name="Velocity" NumberOfComponents="3" format="ascii">
 0 0 0
 0 0 0
 0 0 0
 0 0 0
 0 -1.4306e-07 0
 0 -1.4306e-07 0
 0 -1.4306e-07 0
 0 -1.4306e-07 0
 0 -6.59438e-07 0
 0 -6.59438e-07 0
 0 -6.59438e-07 0
 0 -6.59438e-07 0
 0 -2.73399e-06 0
 0 -2.73399e-06 0
 0 -2.73399e-06 0
 0 -2.73399e-06 0
 0 -1.05544e-05 0
 0 -1.05544e-05 0
 0 -1.05544e-05 0
 0 -1.05544e-05 0
 0 -3.78476e-05 0
 0 -3.78476e-05 0
 0 -3.78476e-05 0
 0 -3.78476e-05 0
 0 -0.000125494 0
 0 -0.000125494 0
 0 -0.000125494 0
 0 -0.000125494 0
 0 -0.000382667 0
 0 -0.000382667 0
 0 -0.000382667 0
 0 -0.000382667 0
 0 -0.00106612 0
 0 -0.00106612 0
 0 -0.00106612 0
 0 -0.00106612 0
 0 -0.00269228 0
 0 -0.00269228 0
 0 -0.00269228 0
 0 -0.00269228 0
 0 -0.00610134 0
 0 -0.00610134 0
 0 -0.00610134 0
 0 -0.00610134 0
 0 -0.0122487 0
 0 -0.0122487 0
 0 -0.0122487 0
 0 -0.0122487 0
 0 -0.0214026 0
 0 -0.0214026 0
 0 -0.0214026 0
 0 -0.0214026 0
 0 -0.0317329 0
 0 -0.0317329 0
 0 -0.0317329 0
 0 -0.0317329 0
 0 -0.0383559 0
 0 -0.0383559 0
 0 -0.0383559 0
 0 -0.0383559 0
 0 -0.0351679 0
 0 -0.0351679 0
 0 -0.0351679 0
 0 -0.0351679 0
 0 -0.0207828 0
 0 -0.0207828 0
 0 -0.0207828 0
 0 -0.0207828 0
 0 -0.00423296 0
 0 -0.00423296 0
 0 -0.00423296 0
 0 -0.00423296 0
 0 0.000838015 0
 0 0.000838015 0
 0 0.000838015 0
 0 0.000838015 0
 0 0.000859904 0
 0 0.000859904 0
 0 0.000859904 0
 0 0.000859904 0
 0 0.000882919 0
 0 0.000882919 0
 0 0.000882919 0
 0 0.000882919 0
 0 0.000907229 0
 0 0.000907229 0
 0 0.000907229 0
 0 0.000907229 0
 0 0.000933025 0
 0 0.000933025 0
 0 0.000933025 0
 0 0.000933025 0
 0 0.000960524 0
 0 0.000960524 0
 0 0.000960524 0
 0 0.000960524 0
 0 0.000989968 0
 0 0.000989968 0
 0 0.000989968 0
 0 0.000989968 0
 0 0.00102162 0
 0 0.00102162 0
 0 0.00102162 0
 0 0.00102162 0
 0 0.00105576 0
 0 0.00105576 0
 0 0.00105576 0
 0 0.00105576 0
 0 0.00109264 0
 0 0.00109264 0
 0 0.00109264 0
 0 0.00109264 0
 0 0.00113236 0
 0 0.00113236 0
 0 0.00113236 0
 0 0.00113236 0
 0 0.00117401 0
 0 0.00117401 0
 0 0.00117401 0
 0 0.00117401 0
 0 0.00122082 0
 0 0.00122082 0
 0 0.00122082 0
 0 0.00122082 0
 0 0.00127322 0
 0 0.00127322 0
 0 0.00127322 0
 0 0.00127322 0
 0 0.00132731 0
 0 0.00132731 0
 0 0.00132731 0
 0 0.00132731 0
 0 0.0013911 0
 0 0.0013911 0
 0 0.0013911 0
 0 0.0013911 0
 0 0.00145762 0
 0 0.00145762 0
 0 0.00145762 0
 0 0.00145762 0
 0 0.00153641 0
 0 0.00153641 0
 0 0.00153641 0
 0 0.00153641 0
 0 0.00162305 0
 0 0.00162305 0
 0 0.00162305 0
 0 0.00162305 0
 0 0.00172027 0
 0 0.00172027 0
 0 0.00172027 0
 0 0.00172027 0
 0 0.00183174 0
 0 0.00183174 0
 0 0.00183174 0
 0 0.00183174 0
 0 0.00196226 0
 0 0.00196226 0
 0 0.00196226 0
 0 0.00196226 0
 0 0.00211758 0
 0 0.00211758 0
 0 0.00211758 0
 0 0.00211758 0
 0 0.00230113 0
 0 0.00230113 0
 0 0.00230113 0
 0 0.00230113 0
 0 0.00252581 0
 0 0.00252581 0
 0 0.00252581 0
 0 0.00252581 0
 0 0.00280456 0
 0 0.00280456 0
 0 0.00280456 0
 0 0.00280456 0
 0 0.00316933 0
 0 0.00316933 0
 0 0.00316933 0
 0 0.00316933 0
 0 0.00365277 0
 0 0.00365277 0
 0 0.00365277 0
 0 0.00365277 0
 0 0.00435558 0
 0 0.00435558 0
 0 0.00435558 0
 0 0.00435558 0
 0 0.00546091 0
 0 0.00546091 0
 0 0.00546091 0
 0 0.00546091 0
 0 0.00754035 0
 0 0.00754035 0
 0 0.00754035 0
 0 0.00754035 0
 0 0.0132239 0
 0 0.0132239 0
 0 0.0132239 0
 0 0.0132239 0
  </DataArray>
  <DataArray type="Float32" Name="Radius" format="ascii">
	200
	200
	200
	200
	200
	200
	200
	200
	200
	200
	200
	200
	200
	200
	200
	200
	200
	200
	200
	200
	200
	200
	200
	200
	200
	200
	200
	200
	200
	200
	200
	200
	200
	200
	200
	200
	200
	200
	200
	200
	200
	200
	200
	200
	200
	200
	200
	200
	200
	200
	200
	200
	200
	200
	200
	200
	200
	200
	200
	200
	200
	200
	200
	200
	200
	200
	200
	200
	200
	200
	200
	200
	200
	200
	200
	200
	200
	200
	200
	200
	200
	200
	200
	200
	200
	200
	200
	200
	200
	200
	200
	200
	200
	200
	200
	200
	200
	200
	200
	200
	200
	200
	200
	200
	200
	200
	200
	200
	200
	200
	200
	200
	200
	200
	200
	200
	200
	200
	200
	200
	200
	200
	200
	200
	200
	200
	200
	200
	200
	200
	200
	200
	200
	200
	200
	200
	200
	200
	200
	200
	200
	200
	200
	200
	200
	200
	200
	200
	200
	200
	200
	200
	200
	200
	200
	200
	200
	200
	200
	200
	200
	200
	200
	200
	200
	200
	200
	200
	200
	200
	200
	200
	200
	200
	200
	200
	200
	200
	200
	200
	200
	200
	200
	200
	200
	200
	200
	200
	200
	200
	200
	200
	200
	200
	200
	200
	200
	200
	200
	200
  </DataArray>
  <DataArray type="Float32" Name="speciesType" format="ascii">
	0
	0
	0
	0
	0
	0
	0
	0
	0
	0
	0
	0
	0
	0
	0
	0
	0
	0
	0
	0
	0
	0
	0
	0
	0
	0
	0
	0
	0
	0
	0
	0
	0
	0
	0
	0
	0
	0
	0
	0
	0
	0
	0
	0
	0
	0
	0
	0
	0
	0
	0
	0
	0
	0
	0
	0
	0
	0
	0
	0
	0
	0
	0
	0
	0
	0
	0
	0
	0
	0
	0
	0
	0
	0
	0
	0
	0
	0
	0
	0
	0
	0
	0
	0
	0
	0
	0
	0
	0
	0
	0
	0
	0
	0
	0
	0
	0
	0
	0
	0
	0
	0
	0
	0
	0
	0
	0
	0
	0
	0
	0
	0
	0
	0
	0
	0
	0
	0
	0
	0
	0
	0
	0
	0
	0
	0
	0
	0
	0
	0
	0
	0
	0
	0
	0
	0
	0
	0
	0
	0
	0
	0
	0
	0
	0
	0
	0
	0
	0
	0
	0
	0
	0
	0
	0
	0
	0
	0
	0
	0
	0
	0
	0
	0
	0
	0
	0
	0
	0
	0
	0
	0
	0
	0
	0
	0
	0
	0
	0
	0
	0
	0
	0
	0
	0
	0
	0
	0
	0
	0
	0
	0
	0
	0
	0
	0
	0
	0
	0
	0
  </DataArray>
</PointData>
<Cells>
  <DataArray type="Int32" Name="connectivity" format="ascii">
  </DataArray>
  <DataArray type="Int32" Name="offsets" format="ascii">
  </DataArray>
  <DataArray type="UInt8"  Name="types" format="ascii">
  </DataArray>
</Cells>
</Piece>
</UnstructuredGrid>
</VTKFile>
