<?xml version="1.0"?>
<!-- time 13.5025-->
<VTKFile type="UnstructuredGrid" version="0.1" byte_order="LittleEndian">
<UnstructuredGrid>
<Piece NumberOfPoints="200" NumberOfCells="0">
<Points>
  <DataArray type="Float32" Name="Position" NumberOfComponents="3" format="ascii">
	-200 -5800 -200
	-200 -5800 200
	200 -5800 -200
	200 -5800 200
	-200 -5400 -200
	-200 -5400 200
	200 -5400 -200
	200 -5400 200
	-200 -5000 -200
	-200 -5000 200
	200 -5000 -200
	200 -5000 200
	-200 -4600 -200
	-200 -4600 200
	200 -4600 -200
	200 -4600 200
	-200 -4200 -200
	-200 -4200 200
	200 -4200 -200
	200 -4200 200
	-200 -3800 -200
	-200 -3800 200
	200 -3800 -200
	200 -3800 200
	-200 -3400 -200
	-200 -3400 200
	200 -3400 -200
	200 -3400 200
	-200 -3000 -200
	-200 -3000 200
	200 -3000 -200
	200 -3000 200
	-200 -2600 -200
	-200 -2600 200
	200 -2600 -200
	200 -2600 200
	-200 -2200 -200
	-200 -2200 200
	200 -2200 -200
	200 -2200 200
	-200 -1800 -200
	-200 -1800 200
	200 -1800 -200
	200 -1800 200
	-200 -1400 -200
	-200 -1400 200
	200 -1400 -200
	200 -1400 200
	-200 -1000 -200
	-200 -1000 200
	200 -1000 -200
	200 -1000 200
	-200 -600 -200
	-200 -600 200
	200 -600 -200
	200 -600 200
	-200 -200 -200
	-200 -200 200
	200 -200 -200
	200 -200 200
	-200 200 -200
	-200 200 200
	200 200 -200
	200 200 200
	-200 600 -200
	-200 600 200
	200 600 -200
	200 600 200
	-200 1000 -200
	-200 1000 200
	200 1000 -200
	200 1000 200
	-200 1400 -200
	-200 1400 200
	200 1400 -200
	200 1400 200
	-200 1800 -200
	-200 1800 200
	200 1800 -200
	200 1800 200
	-200 2200 -200
	-200 2200 200
	200 2200 -200
	200 2200 200
	-200 2600 -200
	-200 2600 200
	200 2600 -200
	200 2600 200
	-200 3000 -200
	-200 3000 200
	200 3000 -200
	200 3000 200
	-200 3400 -200
	-200 3400 200
	200 3400 -200
	200 3400 200
	-200 3800 -200
	-200 3800 200
	200 3800 -200
	200 3800 200
	-200 4200 -200
	-200 4200 200
	200 4200 -200
	200 4200 200
	-200 4600 -200
	-200 4600 200
	200 4600 -200
	200 4600 200
	-200 5000 -200
	-200 5000 200
	200 5000 -200
	200 5000 200
	-200 5400 -200
	-200 5400 200
	200 5400 -200
	200 5400 200
	-200 5800 -200
	-200 5800 200
	200 5800 -200
	200 5800 200
	-200 6200 -200
	-200 6200 200
	200 6200 -200
	200 6200 200
	-200 6600 -200
	-200 6600 200
	200 6600 -200
	200 6600 200
	-200 7000 -200
	-200 7000 200
	200 7000 -200
	200 7000 200
	-200 7400 -200
	-200 7400 200
	200 7400 -200
	200 7400 200
	-200 7800 -200
	-200 7800 200
	200 7800 -200
	200 7800 200
	-200 8200 -200
	-200 8200 200
	200 8200 -200
	200 8200 200
	-200 8600 -200
	-200 8600 200
	200 8600 -200
	200 8600 200
	-200 9000 -200
	-200 9000 200
	200 9000 -200
	200 9000 200
	-200 9400 -200
	-200 9400 200
	200 9400 -200
	200 9400 200
	-200 9799.99 -200
	-200 9799.99 200
	200 9799.99 -200
	200 9799.99 200
	-200 10200 -200
	-200 10200 200
	200 10200 -200
	200 10200 200
	-200 10599.9 -200
	-200 10599.9 200
	200 10599.9 -200
	200 10599.9 200
	-200 10999.8 -200
	-200 10999.8 200
	200 10999.8 -200
	200 10999.8 200
	-200 11399.8 -200
	-200 11399.8 200
	200 11399.8 -200
	200 11399.8 200
	-200 11799.8 -200
	-200 11799.8 200
	200 11799.8 -200
	200 11799.8 200
	-200 12199.8 -200
	-200 12199.8 200
	200 12199.8 -200
	200 12199.8 200
	-200 12599.8 -200
	-200 12599.8 200
	200 12599.8 -200
	200 12599.8 200
	-200 12999.9 -200
	-200 12999.9 200
	200 12999.9 -200
	200 12999.9 200
	-200 13399.9 -200
	-200 13399.9 200
	200 13399.9 -200
	200 13399.9 200
	-200 13800 -200
	-200 13800 200
	200 13800 -200
	200 13800 200
  </DataArray>
</Points>
<PointData  Vectors="vector">
  <DataArray type="Float32" Name="Velocity" NumberOfComponents="3" format="ascii">
 0 0 0
 0 0 0
 0 0 0
 0 0 0
 0 0 0
 0 0 0
 0 0 0
 0 0 0
 0 0 0
 0 0 0
 0 0 0
 0 0 0
 0 0 0
 0 0 0
 0 0 0
 0 0 0
 0 0 0
 0 0 0
 0 0 0
 0 0 0
 0 0 0
 0 0 0
 0 0 0
 0 0 0
 0 0 0
 0 0 0
 0 0 0
 0 0 0
 0 0 0
 0 0 0
 0 0 0
 0 0 0
 0 0 0
 0 0 0
 0 0 0
 0 0 0
 0 0 0
 0 0 0
 0 0 0
 0 0 0
 0 0 0
 0 0 0
 0 0 0
 0 0 0
 0 0 0
 0 0 0
 0 0 0
 0 0 0
 0 0 0
 0 0 0
 0 0 0
 0 0 0
 0 0 0
 0 0 0
 0 0 0
 0 0 0
 0 0 0
 0 0 0
 0 0 0
 0 0 0
 0 0 0
 0 0 0
 0 0 0
 0 0 0
 0 0 0
 0 0 0
 0 0 0
 0 0 0
 0 0 0
 0 0 0
 0 0 0
 0 0 0
 0 0 0
 0 0 0
 0 0 0
 0 0 0
 0 0 0
 0 0 0
 0 0 0
 0 0 0
 0 0 0
 0 0 0
 0 0 0
 0 0 0
 0 0 0
 0 0 0
 0 0 0
 0 0 0
 0 0 0
 0 0 0
 0 0 0
 0 0 0
 0 0 0
 0 0 0
 0 0 0
 0 0 0
 0 0 0
 0 0 0
 0 0 0
 0 0 0
 0 0 0
 0 0 0
 0 0 0
 0 0 0
 0 0 0
 0 0 0
 0 0 0
 0 0 0
 0 0 0
 0 0 0
 0 0 0
 0 0 0
 0 -1.39607e-14 0
 0 -1.39607e-14 0
 0 -1.39607e-14 0
 0 -1.39607e-14 0
 0 -7.85985e-12 0
 0 -7.85985e-12 0
 0 -7.85985e-12 0
 0 -7.85985e-12 0
 0 -1.41659e-10 0
 0 -1.41659e-10 0
 0 -1.41659e-10 0
 0 -1.41659e-10 0
 0 -2.03035e-09 0
 0 -2.03035e-09 0
 0 -2.03035e-09 0
 0 -2.03035e-09 0
 0 -2.56874e-08 0
 0 -2.56874e-08 0
 0 -2.56874e-08 0
 0 -2.56874e-08 0
 0 -2.83618e-07 0
 0 -2.83618e-07 0
 0 -2.83618e-07 0
 0 -2.83618e-07 0
 0 -2.70436e-06 0
 0 -2.70436e-06 0
 0 -2.70436e-06 0
 0 -2.70436e-06 0
 0 -2.19678e-05 0
 0 -2.19678e-05 0
 0 -2.19678e-05 0
 0 -2.19678e-05 0
 0 -0.000149478 0
 0 -0.000149478 0
 0 -0.000149478 0
 0 -0.000149478 0
 0 -0.000833823 0
 0 -0.000833823 0
 0 -0.000833823 0
 0 -0.000833823 0
 0 -0.00370509 0
 0 -0.00370509 0
 0 -0.00370509 0
 0 -0.00370509 0
 0 -0.0125924 0
 0 -0.0125924 0
 0 -0.0125924 0
 0 -0.0125924 0
 0 -0.030744 0
 0 -0.030744 0
 0 -0.030744 0
 0 -0.030744 0
 0 -0.0482175 0
 0 -0.0482175 0
 0 -0.0482175 0
 0 -0.0482175 0
 0 -0.0373991 0
 0 -0.0373991 0
 0 -0.0373991 0
 0 -0.0373991 0
 0 -0.00373633 0
 0 -0.00373633 0
 0 -0.00373633 0
 0 -0.00373633 0
 0 0.00316933 0
 0 0.00316933 0
 0 0.00316933 0
 0 0.00316933 0
 0 0.00365277 0
 0 0.00365277 0
 0 0.00365277 0
 0 0.00365277 0
 0 0.00435558 0
 0 0.00435558 0
 0 0.00435558 0
 0 0.00435558 0
 0 0.00546091 0
 0 0.00546091 0
 0 0.00546091 0
 0 0.00546091 0
 0 0.00754035 0
 0 0.00754035 0
 0 0.00754035 0
 0 0.00754035 0
 0 0.0132239 0
 0 0.0132239 0
 0 0.0132239 0
 0 0.0132239 0
  </DataArray>
  <DataArray type="Float32" Name="Radius" format="ascii">
	200
	200
	200
	200
	200
	200
	200
	200
	200
	200
	200
	200
	200
	200
	200
	200
	200
	200
	200
	200
	200
	200
	200
	200
	200
	200
	200
	200
	200
	200
	200
	200
	200
	200
	200
	200
	200
	200
	200
	200
	200
	200
	200
	200
	200
	200
	200
	200
	200
	200
	200
	200
	200
	200
	200
	200
	200
	200
	200
	200
	200
	200
	200
	200
	200
	200
	200
	200
	200
	200
	200
	200
	200
	200
	200
	200
	200
	200
	200
	200
	200
	200
	200
	200
	200
	200
	200
	200
	200
	200
	200
	200
	200
	200
	200
	200
	200
	200
	200
	200
	200
	200
	200
	200
	200
	200
	200
	200
	200
	200
	200
	200
	200
	200
	200
	200
	200
	200
	200
	200
	200
	200
	200
	200
	200
	200
	200
	200
	200
	200
	200
	200
	200
	200
	200
	200
	200
	200
	200
	200
	200
	200
	200
	200
	200
	200
	200
	200
	200
	200
	200
	200
	200
	200
	200
	200
	200
	200
	200
	200
	200
	200
	200
	200
	200
	200
	200
	200
	200
	200
	200
	200
	200
	200
	200
	200
	200
	200
	200
	200
	200
	200
	200
	200
	200
	200
	200
	200
	200
	200
	200
	200
	200
	200
	200
	200
	200
	200
	200
	200
  </DataArray>
  <DataArray type="Float32" Name="speciesType" format="ascii">
	0
	0
	0
	0
	0
	0
	0
	0
	0
	0
	0
	0
	0
	0
	0
	0
	0
	0
	0
	0
	0
	0
	0
	0
	0
	0
	0
	0
	0
	0
	0
	0
	0
	0
	0
	0
	0
	0
	0
	0
	0
	0
	0
	0
	0
	0
	0
	0
	0
	0
	0
	0
	0
	0
	0
	0
	0
	0
	0
	0
	0
	0
	0
	0
	0
	0
	0
	0
	0
	0
	0
	0
	0
	0
	0
	0
	0
	0
	0
	0
	0
	0
	0
	0
	0
	0
	0
	0
	0
	0
	0
	0
	0
	0
	0
	0
	0
	0
	0
	0
	0
	0
	0
	0
	0
	0
	0
	0
	0
	0
	0
	0
	0
	0
	0
	0
	0
	0
	0
	0
	0
	0
	0
	0
	0
	0
	0
	0
	0
	0
	0
	0
	0
	0
	0
	0
	0
	0
	0
	0
	0
	0
	0
	0
	0
	0
	0
	0
	0
	0
	0
	0
	0
	0
	0
	0
	0
	0
	0
	0
	0
	0
	0
	0
	0
	0
	0
	0
	0
	0
	0
	0
	0
	0
	0
	0
	0
	0
	0
	0
	0
	0
	0
	0
	0
	0
	0
	0
	0
	0
	0
	0
	0
	0
	0
	0
	0
	0
	0
	0
  </DataArray>
</PointData>
<Cells>
  <DataArray type="Int32" Name="connectivity" format="ascii">
  </DataArray>
  <DataArray type="Int32" Name="offsets" format="ascii">
  </DataArray>
  <DataArray type="UInt8"  Name="types" format="ascii">
  </DataArray>
</Cells>
</Piece>
</UnstructuredGrid>
</VTKFile>
