<?xml version="1.0"?>
<!-- time 0.964463-->
<VTKFile type="UnstructuredGrid" version="0.1" byte_order="LittleEndian">
<UnstructuredGrid>
<Piece NumberOfPoints="200" NumberOfCells="0">
<Points>
  <DataArray type="Float32" Name="Position" NumberOfComponents="3" format="ascii">
	-200 -5800 -200
	-200 -5800 200
	200 -5800 -200
	200 -5800 200
	-200 -5400 -200
	-200 -5400 200
	200 -5400 -200
	200 -5400 200
	-200 -5000 -200
	-200 -5000 200
	200 -5000 -200
	200 -5000 200
	-200 -4600 -200
	-200 -4600 200
	200 -4600 -200
	200 -4600 200
	-200 -4200 -200
	-200 -4200 200
	200 -4200 -200
	200 -4200 200
	-200 -3800 -200
	-200 -3800 200
	200 -3800 -200
	200 -3800 200
	-200 -3400 -200
	-200 -3400 200
	200 -3400 -200
	200 -3400 200
	-200 -3000 -200
	-200 -3000 200
	200 -3000 -200
	200 -3000 200
	-200 -2600 -200
	-200 -2600 200
	200 -2600 -200
	200 -2600 200
	-200 -2200 -200
	-200 -2200 200
	200 -2200 -200
	200 -2200 200
	-200 -1800 -200
	-200 -1800 200
	200 -1800 -200
	200 -1800 200
	-200 -1400 -200
	-200 -1400 200
	200 -1400 -200
	200 -1400 200
	-200 -1000 -200
	-200 -1000 200
	200 -1000 -200
	200 -1000 200
	-200 -600 -200
	-200 -600 200
	200 -600 -200
	200 -600 200
	-200 -200 -200
	-200 -200 200
	200 -200 -200
	200 -200 200
	-200 200 -200
	-200 200 200
	200 200 -200
	200 200 200
	-200 600 -200
	-200 600 200
	200 600 -200
	200 600 200
	-200 1000 -200
	-200 1000 200
	200 1000 -200
	200 1000 200
	-200 1400 -200
	-200 1400 200
	200 1400 -200
	200 1400 200
	-200 1800 -200
	-200 1800 200
	200 1800 -200
	200 1800 200
	-200 2200 -200
	-200 2200 200
	200 2200 -200
	200 2200 200
	-200 2600 -200
	-200 2600 200
	200 2600 -200
	200 2600 200
	-200 3000 -200
	-200 3000 200
	200 3000 -200
	200 3000 200
	-200 3400 -200
	-200 3400 200
	200 3400 -200
	200 3400 200
	-200 3800 -200
	-200 3800 200
	200 3800 -200
	200 3800 200
	-200 4200 -200
	-200 4200 200
	200 4200 -200
	200 4200 200
	-200 4600 -200
	-200 4600 200
	200 4600 -200
	200 4600 200
	-200 5000 -200
	-200 5000 200
	200 5000 -200
	200 5000 200
	-200 5400 -200
	-200 5400 200
	200 5400 -200
	200 5400 200
	-200 5800 -200
	-200 5800 200
	200 5800 -200
	200 5800 200
	-200 6200 -200
	-200 6200 200
	200 6200 -200
	200 6200 200
	-200 6600 -200
	-200 6600 200
	200 6600 -200
	200 6600 200
	-200 7000 -200
	-200 7000 200
	200 7000 -200
	200 7000 200
	-200 7400 -200
	-200 7400 200
	200 7400 -200
	200 7400 200
	-200 7800 -200
	-200 7800 200
	200 7800 -200
	200 7800 200
	-200 8200 -200
	-200 8200 200
	200 8200 -200
	200 8200 200
	-200 8600 -200
	-200 8600 200
	200 8600 -200
	200 8600 200
	-200 9000 -200
	-200 9000 200
	200 9000 -200
	200 9000 200
	-200 9400 -200
	-200 9400 200
	200 9400 -200
	200 9400 200
	-200 9800 -200
	-200 9800 200
	200 9800 -200
	200 9800 200
	-200 10200 -200
	-200 10200 200
	200 10200 -200
	200 10200 200
	-200 10600 -200
	-200 10600 200
	200 10600 -200
	200 10600 200
	-200 11000 -200
	-200 11000 200
	200 11000 -200
	200 11000 200
	-200 11400 -200
	-200 11400 200
	200 11400 -200
	200 11400 200
	-200 11800 -200
	-200 11800 200
	200 11800 -200
	200 11800 200
	-200 12200 -200
	-200 12200 200
	200 12200 -200
	200 12200 200
	-200 12600 -200
	-200 12600 200
	200 12600 -200
	200 12600 200
	-200 13000 -200
	-200 13000 200
	200 13000 -200
	200 13000 200
	-200 13400 -200
	-200 13400 200
	200 13400 -200
	200 13400 200
	-200 13799.9 -200
	-200 13799.9 200
	200 13799.9 -200
	200 13799.9 200
  </DataArray>
</Points>
<PointData  Vectors="vector">
  <DataArray type="Float32" Name="Velocity" NumberOfComponents="3" format="ascii">
 0 0 0
 0 0 0
 0 0 0
 0 0 0
 0 0 0
 0 0 0
 0 0 0
 0 0 0
 0 0 0
 0 0 0
 0 0 0
 0 0 0
 0 0 0
 0 0 0
 0 0 0
 0 0 0
 0 0 0
 0 0 0
 0 0 0
 0 0 0
 0 0 0
 0 0 0
 0 0 0
 0 0 0
 0 0 0
 0 0 0
 0 0 0
 0 0 0
 0 0 0
 0 0 0
 0 0 0
 0 0 0
 0 0 0
 0 0 0
 0 0 0
 0 0 0
 0 0 0
 0 0 0
 0 0 0
 0 0 0
 0 0 0
 0 0 0
 0 0 0
 0 0 0
 0 0 0
 0 0 0
 0 0 0
 0 0 0
 0 0 0
 0 0 0
 0 0 0
 0 0 0
 0 0 0
 0 0 0
 0 0 0
 0 0 0
 0 0 0
 0 0 0
 0 0 0
 0 0 0
 0 0 0
 0 0 0
 0 0 0
 0 0 0
 0 0 0
 0 0 0
 0 0 0
 0 0 0
 0 0 0
 0 0 0
 0 0 0
 0 0 0
 0 0 0
 0 0 0
 0 0 0
 0 0 0
 0 0 0
 0 0 0
 0 0 0
 0 0 0
 0 0 0
 0 0 0
 0 0 0
 0 0 0
 0 0 0
 0 0 0
 0 0 0
 0 0 0
 0 0 0
 0 0 0
 0 0 0
 0 0 0
 0 0 0
 0 0 0
 0 0 0
 0 0 0
 0 0 0
 0 0 0
 0 0 0
 0 0 0
 0 0 0
 0 0 0
 0 0 0
 0 0 0
 0 0 0
 0 0 0
 0 0 0
 0 0 0
 0 0 0
 0 0 0
 0 0 0
 0 0 0
 0 0 0
 0 0 0
 0 0 0
 0 0 0
 0 0 0
 0 0 0
 0 0 0
 0 0 0
 0 0 0
 0 0 0
 0 0 0
 0 0 0
 0 0 0
 0 0 0
 0 0 0
 0 0 0
 0 0 0
 0 0 0
 0 0 0
 0 0 0
 0 0 0
 0 0 0
 0 0 0
 0 0 0
 0 0 0
 0 0 0
 0 0 0
 0 0 0
 0 0 0
 0 0 0
 0 0 0
 0 0 0
 0 0 0
 0 0 0
 0 0 0
 0 0 0
 0 0 0
 0 0 0
 0 0 0
 0 0 0
 0 0 0
 0 0 0
 0 0 0
 0 0 0
 0 0 0
 0 0 0
 0 0 0
 0 0 0
 0 0 0
 0 0 0
 0 0 0
 0 0 0
 0 0 0
 0 0 0
 0 0 0
 0 0 0
 0 0 0
 0 0 0
 0 0 0
 0 0 0
 0 -1.14477e-12 0
 0 -1.14477e-12 0
 0 -1.14477e-12 0
 0 -1.14477e-12 0
 0 -4.01285e-10 0
 0 -4.01285e-10 0
 0 -4.01285e-10 0
 0 -4.01285e-10 0
 0 -8.69191e-08 0
 0 -8.69191e-08 0
 0 -8.69191e-08 0
 0 -8.69191e-08 0
 0 -1.12784e-05 0
 0 -1.12784e-05 0
 0 -1.12784e-05 0
 0 -1.12784e-05 0
 0 -0.000760527 0
 0 -0.000760527 0
 0 -0.000760527 0
 0 -0.000760527 0
 0 -0.0198565 0
 0 -0.0198565 0
 0 -0.0198565 0
 0 -0.0198565 0
 0 -0.0793716 0
 0 -0.0793716 0
 0 -0.0793716 0
 0 -0.0793716 0
  </DataArray>
  <DataArray type="Float32" Name="Radius" format="ascii">
	200
	200
	200
	200
	200
	200
	200
	200
	200
	200
	200
	200
	200
	200
	200
	200
	200
	200
	200
	200
	200
	200
	200
	200
	200
	200
	200
	200
	200
	200
	200
	200
	200
	200
	200
	200
	200
	200
	200
	200
	200
	200
	200
	200
	200
	200
	200
	200
	200
	200
	200
	200
	200
	200
	200
	200
	200
	200
	200
	200
	200
	200
	200
	200
	200
	200
	200
	200
	200
	200
	200
	200
	200
	200
	200
	200
	200
	200
	200
	200
	200
	200
	200
	200
	200
	200
	200
	200
	200
	200
	200
	200
	200
	200
	200
	200
	200
	200
	200
	200
	200
	200
	200
	200
	200
	200
	200
	200
	200
	200
	200
	200
	200
	200
	200
	200
	200
	200
	200
	200
	200
	200
	200
	200
	200
	200
	200
	200
	200
	200
	200
	200
	200
	200
	200
	200
	200
	200
	200
	200
	200
	200
	200
	200
	200
	200
	200
	200
	200
	200
	200
	200
	200
	200
	200
	200
	200
	200
	200
	200
	200
	200
	200
	200
	200
	200
	200
	200
	200
	200
	200
	200
	200
	200
	200
	200
	200
	200
	200
	200
	200
	200
	200
	200
	200
	200
	200
	200
	200
	200
	200
	200
	200
	200
	200
	200
	200
	200
	200
	200
  </DataArray>
  <DataArray type="Float32" Name="speciesType" format="ascii">
	0
	0
	0
	0
	0
	0
	0
	0
	0
	0
	0
	0
	0
	0
	0
	0
	0
	0
	0
	0
	0
	0
	0
	0
	0
	0
	0
	0
	0
	0
	0
	0
	0
	0
	0
	0
	0
	0
	0
	0
	0
	0
	0
	0
	0
	0
	0
	0
	0
	0
	0
	0
	0
	0
	0
	0
	0
	0
	0
	0
	0
	0
	0
	0
	0
	0
	0
	0
	0
	0
	0
	0
	0
	0
	0
	0
	0
	0
	0
	0
	0
	0
	0
	0
	0
	0
	0
	0
	0
	0
	0
	0
	0
	0
	0
	0
	0
	0
	0
	0
	0
	0
	0
	0
	0
	0
	0
	0
	0
	0
	0
	0
	0
	0
	0
	0
	0
	0
	0
	0
	0
	0
	0
	0
	0
	0
	0
	0
	0
	0
	0
	0
	0
	0
	0
	0
	0
	0
	0
	0
	0
	0
	0
	0
	0
	0
	0
	0
	0
	0
	0
	0
	0
	0
	0
	0
	0
	0
	0
	0
	0
	0
	0
	0
	0
	0
	0
	0
	0
	0
	0
	0
	0
	0
	0
	0
	0
	0
	0
	0
	0
	0
	0
	0
	0
	0
	0
	0
	0
	0
	0
	0
	0
	0
	0
	0
	0
	0
	0
	0
  </DataArray>
</PointData>
<Cells>
  <DataArray type="Int32" Name="connectivity" format="ascii">
  </DataArray>
  <DataArray type="Int32" Name="offsets" format="ascii">
  </DataArray>
  <DataArray type="UInt8"  Name="types" format="ascii">
  </DataArray>
</Cells>
</Piece>
</UnstructuredGrid>
</VTKFile>
