<?xml version="1.0"?>
<!-- time 90.6595-->
<VTKFile type="UnstructuredGrid" version="0.1" byte_order="LittleEndian">
<UnstructuredGrid>
<Piece NumberOfPoints="200" NumberOfCells="0">
<Points>
  <DataArray type="Float32" Name="Position" NumberOfComponents="3" format="ascii">
	-200 -5800 -200
	-200 -5800 200
	200 -5800 -200
	200 -5800 200
	-200 -5399.99 -200
	-200 -5399.99 200
	200 -5399.99 -200
	200 -5399.99 200
	-200 -4999.98 -200
	-200 -4999.98 200
	200 -4999.98 -200
	200 -4999.98 200
	-200 -4599.98 -200
	-200 -4599.98 200
	200 -4599.98 -200
	200 -4599.98 200
	-200 -4199.98 -200
	-200 -4199.98 200
	200 -4199.98 -200
	200 -4199.98 200
	-200 -3799.98 -200
	-200 -3799.98 200
	200 -3799.98 -200
	200 -3799.98 200
	-200 -3399.98 -200
	-200 -3399.98 200
	200 -3399.98 -200
	200 -3399.98 200
	-200 -2999.98 -200
	-200 -2999.98 200
	200 -2999.98 -200
	200 -2999.98 200
	-200 -2599.98 -200
	-200 -2599.98 200
	200 -2599.98 -200
	200 -2599.98 200
	-200 -2200.01 -200
	-200 -2200.01 200
	200 -2200.01 -200
	200 -2200.01 200
	-200 -1800.05 -200
	-200 -1800.05 200
	200 -1800.05 -200
	200 -1800.05 200
	-200 -1400.1 -200
	-200 -1400.1 200
	200 -1400.1 -200
	200 -1400.1 200
	-200 -1000.15 -200
	-200 -1000.15 200
	200 -1000.15 -200
	200 -1000.15 200
	-200 -600.185 -200
	-200 -600.185 200
	200 -600.185 -200
	200 -600.185 200
	-200 -200.212 -200
	-200 -200.212 200
	200 -200.212 -200
	200 -200.212 200
	-200 199.773 -200
	-200 199.773 200
	200 199.773 -200
	200 199.773 200
	-200 599.773 -200
	-200 599.773 200
	200 599.773 -200
	200 599.773 200
	-200 999.776 -200
	-200 999.776 200
	200 999.776 -200
	200 999.776 200
	-200 1399.78 -200
	-200 1399.78 200
	200 1399.78 -200
	200 1399.78 200
	-200 1799.78 -200
	-200 1799.78 200
	200 1799.78 -200
	200 1799.78 200
	-200 2199.79 -200
	-200 2199.79 200
	200 2199.79 -200
	200 2199.79 200
	-200 2599.79 -200
	-200 2599.79 200
	200 2599.79 -200
	200 2599.79 200
	-200 2999.79 -200
	-200 2999.79 200
	200 2999.79 -200
	200 2999.79 200
	-200 3399.8 -200
	-200 3399.8 200
	200 3399.8 -200
	200 3399.8 200
	-200 3799.8 -200
	-200 3799.8 200
	200 3799.8 -200
	200 3799.8 200
	-200 4199.81 -200
	-200 4199.81 200
	200 4199.81 -200
	200 4199.81 200
	-200 4599.81 -200
	-200 4599.81 200
	200 4599.81 -200
	200 4599.81 200
	-200 4999.82 -200
	-200 4999.82 200
	200 4999.82 -200
	200 4999.82 200
	-200 5399.82 -200
	-200 5399.82 200
	200 5399.82 -200
	200 5399.82 200
	-200 5799.83 -200
	-200 5799.83 200
	200 5799.83 -200
	200 5799.83 200
	-200 6199.83 -200
	-200 6199.83 200
	200 6199.83 -200
	200 6199.83 200
	-200 6599.84 -200
	-200 6599.84 200
	200 6599.84 -200
	200 6599.84 200
	-200 6999.85 -200
	-200 6999.85 200
	200 6999.85 -200
	200 6999.85 200
	-200 7399.86 -200
	-200 7399.86 200
	200 7399.86 -200
	200 7399.86 200
	-200 7799.86 -200
	-200 7799.86 200
	200 7799.86 -200
	200 7799.86 200
	-200 8199.87 -200
	-200 8199.87 200
	200 8199.87 -200
	200 8199.87 200
	-200 8599.88 -200
	-200 8599.88 200
	200 8599.88 -200
	200 8599.88 200
	-200 8999.9 -200
	-200 8999.9 200
	200 8999.9 -200
	200 8999.9 200
	-200 9399.91 -200
	-200 9399.91 200
	200 9399.91 -200
	200 9399.91 200
	-200 9799.92 -200
	-200 9799.92 200
	200 9799.92 -200
	200 9799.92 200
	-200 10199.9 -200
	-200 10199.9 200
	200 10199.9 -200
	200 10199.9 200
	-200 10600 -200
	-200 10600 200
	200 10600 -200
	200 10600 200
	-200 11000 -200
	-200 11000 200
	200 11000 -200
	200 11000 200
	-200 11400 -200
	-200 11400 200
	200 11400 -200
	200 11400 200
	-200 11800.1 -200
	-200 11800.1 200
	200 11800.1 -200
	200 11800.1 200
	-200 12200.1 -200
	-200 12200.1 200
	200 12200.1 -200
	200 12200.1 200
	-200 12600.2 -200
	-200 12600.2 200
	200 12600.2 -200
	200 12600.2 200
	-200 13000.3 -200
	-200 13000.3 200
	200 13000.3 -200
	200 13000.3 200
	-200 13400.5 -200
	-200 13400.5 200
	200 13400.5 -200
	200 13400.5 200
	-200 13801 -200
	-200 13801 200
	200 13801 -200
	200 13801 200
  </DataArray>
</Points>
<PointData  Vectors="vector">
  <DataArray type="Float32" Name="Velocity" NumberOfComponents="3" format="ascii">
 0 0 0
 0 0 0
 0 0 0
 0 0 0
 0 9.94975e-05 0
 0 9.94975e-05 0
 0 9.94975e-05 0
 0 9.94975e-05 0
 0 0.000730999 0
 0 0.000730999 0
 0 0.000730999 0
 0 0.000730999 0
 0 0.00121522 0
 0 0.00121522 0
 0 0.00121522 0
 0 0.00121522 0
 0 0.000872197 0
 0 0.000872197 0
 0 0.000872197 0
 0 0.000872197 0
 0 0.000714374 0
 0 0.000714374 0
 0 0.000714374 0
 0 0.000714374 0
 0 0.000961532 0
 0 0.000961532 0
 0 0.000961532 0
 0 0.000961532 0
 0 0.00328683 0
 0 0.00328683 0
 0 0.00328683 0
 0 0.00328683 0
 0 0.0128304 0
 0 0.0128304 0
 0 0.0128304 0
 0 0.0128304 0
 0 0.0272722 0
 0 0.0272722 0
 0 0.0272722 0
 0 0.0272722 0
 0 0.0339868 0
 0 0.0339868 0
 0 0.0339868 0
 0 0.0339868 0
 0 0.0366342 0
 0 0.0366342 0
 0 0.0366342 0
 0 0.0366342 0
 0 0.0296107 0
 0 0.0296107 0
 0 0.0296107 0
 0 0.0296107 0
 0 0.0216589 0
 0 0.0216589 0
 0 0.0216589 0
 0 0.0216589 0
 0 0.0176301 0
 0 0.0176301 0
 0 0.0176301 0
 0 0.0176301 0
 0 0.0060303 0
 0 0.0060303 0
 0 0.0060303 0
 0 0.0060303 0
 0 0.000797666 0
 0 0.000797666 0
 0 0.000797666 0
 0 0.000797666 0
 0 0.000817107 0
 0 0.000817107 0
 0 0.000817107 0
 0 0.000817107 0
 0 0.000838015 0
 0 0.000838015 0
 0 0.000838015 0
 0 0.000838015 0
 0 0.000859904 0
 0 0.000859904 0
 0 0.000859904 0
 0 0.000859904 0
 0 0.000882919 0
 0 0.000882919 0
 0 0.000882919 0
 0 0.000882919 0
 0 0.000907229 0
 0 0.000907229 0
 0 0.000907229 0
 0 0.000907229 0
 0 0.000933025 0
 0 0.000933025 0
 0 0.000933025 0
 0 0.000933025 0
 0 0.000960524 0
 0 0.000960524 0
 0 0.000960524 0
 0 0.000960524 0
 0 0.000989968 0
 0 0.000989968 0
 0 0.000989968 0
 0 0.000989968 0
 0 0.00102162 0
 0 0.00102162 0
 0 0.00102162 0
 0 0.00102162 0
 0 0.00105576 0
 0 0.00105576 0
 0 0.00105576 0
 0 0.00105576 0
 0 0.00109264 0
 0 0.00109264 0
 0 0.00109264 0
 0 0.00109264 0
 0 0.00113236 0
 0 0.00113236 0
 0 0.00113236 0
 0 0.00113236 0
 0 0.00117401 0
 0 0.00117401 0
 0 0.00117401 0
 0 0.00117401 0
 0 0.00122082 0
 0 0.00122082 0
 0 0.00122082 0
 0 0.00122082 0
 0 0.00127322 0
 0 0.00127322 0
 0 0.00127322 0
 0 0.00127322 0
 0 0.00132731 0
 0 0.00132731 0
 0 0.00132731 0
 0 0.00132731 0
 0 0.0013911 0
 0 0.0013911 0
 0 0.0013911 0
 0 0.0013911 0
 0 0.00145762 0
 0 0.00145762 0
 0 0.00145762 0
 0 0.00145762 0
 0 0.00153641 0
 0 0.00153641 0
 0 0.00153641 0
 0 0.00153641 0
 0 0.00162305 0
 0 0.00162305 0
 0 0.00162305 0
 0 0.00162305 0
 0 0.00172027 0
 0 0.00172027 0
 0 0.00172027 0
 0 0.00172027 0
 0 0.00183174 0
 0 0.00183174 0
 0 0.00183174 0
 0 0.00183174 0
 0 0.00196226 0
 0 0.00196226 0
 0 0.00196226 0
 0 0.00196226 0
 0 0.00211758 0
 0 0.00211758 0
 0 0.00211758 0
 0 0.00211758 0
 0 0.00230113 0
 0 0.00230113 0
 0 0.00230113 0
 0 0.00230113 0
 0 0.00252581 0
 0 0.00252581 0
 0 0.00252581 0
 0 0.00252581 0
 0 0.00280456 0
 0 0.00280456 0
 0 0.00280456 0
 0 0.00280456 0
 0 0.00316933 0
 0 0.00316933 0
 0 0.00316933 0
 0 0.00316933 0
 0 0.00365277 0
 0 0.00365277 0
 0 0.00365277 0
 0 0.00365277 0
 0 0.00435558 0
 0 0.00435558 0
 0 0.00435558 0
 0 0.00435558 0
 0 0.00546091 0
 0 0.00546091 0
 0 0.00546091 0
 0 0.00546091 0
 0 0.00754035 0
 0 0.00754035 0
 0 0.00754035 0
 0 0.00754035 0
 0 0.0132239 0
 0 0.0132239 0
 0 0.0132239 0
 0 0.0132239 0
  </DataArray>
  <DataArray type="Float32" Name="Radius" format="ascii">
	200
	200
	200
	200
	200
	200
	200
	200
	200
	200
	200
	200
	200
	200
	200
	200
	200
	200
	200
	200
	200
	200
	200
	200
	200
	200
	200
	200
	200
	200
	200
	200
	200
	200
	200
	200
	200
	200
	200
	200
	200
	200
	200
	200
	200
	200
	200
	200
	200
	200
	200
	200
	200
	200
	200
	200
	200
	200
	200
	200
	200
	200
	200
	200
	200
	200
	200
	200
	200
	200
	200
	200
	200
	200
	200
	200
	200
	200
	200
	200
	200
	200
	200
	200
	200
	200
	200
	200
	200
	200
	200
	200
	200
	200
	200
	200
	200
	200
	200
	200
	200
	200
	200
	200
	200
	200
	200
	200
	200
	200
	200
	200
	200
	200
	200
	200
	200
	200
	200
	200
	200
	200
	200
	200
	200
	200
	200
	200
	200
	200
	200
	200
	200
	200
	200
	200
	200
	200
	200
	200
	200
	200
	200
	200
	200
	200
	200
	200
	200
	200
	200
	200
	200
	200
	200
	200
	200
	200
	200
	200
	200
	200
	200
	200
	200
	200
	200
	200
	200
	200
	200
	200
	200
	200
	200
	200
	200
	200
	200
	200
	200
	200
	200
	200
	200
	200
	200
	200
	200
	200
	200
	200
	200
	200
	200
	200
	200
	200
	200
	200
  </DataArray>
  <DataArray type="Float32" Name="speciesType" format="ascii">
	0
	0
	0
	0
	0
	0
	0
	0
	0
	0
	0
	0
	0
	0
	0
	0
	0
	0
	0
	0
	0
	0
	0
	0
	0
	0
	0
	0
	0
	0
	0
	0
	0
	0
	0
	0
	0
	0
	0
	0
	0
	0
	0
	0
	0
	0
	0
	0
	0
	0
	0
	0
	0
	0
	0
	0
	0
	0
	0
	0
	0
	0
	0
	0
	0
	0
	0
	0
	0
	0
	0
	0
	0
	0
	0
	0
	0
	0
	0
	0
	0
	0
	0
	0
	0
	0
	0
	0
	0
	0
	0
	0
	0
	0
	0
	0
	0
	0
	0
	0
	0
	0
	0
	0
	0
	0
	0
	0
	0
	0
	0
	0
	0
	0
	0
	0
	0
	0
	0
	0
	0
	0
	0
	0
	0
	0
	0
	0
	0
	0
	0
	0
	0
	0
	0
	0
	0
	0
	0
	0
	0
	0
	0
	0
	0
	0
	0
	0
	0
	0
	0
	0
	0
	0
	0
	0
	0
	0
	0
	0
	0
	0
	0
	0
	0
	0
	0
	0
	0
	0
	0
	0
	0
	0
	0
	0
	0
	0
	0
	0
	0
	0
	0
	0
	0
	0
	0
	0
	0
	0
	0
	0
	0
	0
	0
	0
	0
	0
	0
	0
  </DataArray>
</PointData>
<Cells>
  <DataArray type="Int32" Name="connectivity" format="ascii">
  </DataArray>
  <DataArray type="Int32" Name="offsets" format="ascii">
  </DataArray>
  <DataArray type="UInt8"  Name="types" format="ascii">
  </DataArray>
</Cells>
</Piece>
</UnstructuredGrid>
</VTKFile>
