<?xml version="1.0"?>
<!-- time 66.5479-->
<VTKFile type="UnstructuredGrid" version="0.1" byte_order="LittleEndian">
<UnstructuredGrid>
<Piece NumberOfPoints="200" NumberOfCells="0">
<Points>
  <DataArray type="Float32" Name="Position" NumberOfComponents="3" format="ascii">
	-200 -5800 -200
	-200 -5800 200
	200 -5800 -200
	200 -5800 200
	-200 -5400.01 -200
	-200 -5400.01 200
	200 -5400.01 -200
	200 -5400.01 200
	-200 -5000.02 -200
	-200 -5000.02 200
	200 -5000.02 -200
	200 -5000.02 200
	-200 -4600.04 -200
	-200 -4600.04 200
	200 -4600.04 -200
	200 -4600.04 200
	-200 -4200.07 -200
	-200 -4200.07 200
	200 -4200.07 -200
	200 -4200.07 200
	-200 -3800.11 -200
	-200 -3800.11 200
	200 -3800.11 -200
	200 -3800.11 200
	-200 -3400.17 -200
	-200 -3400.17 200
	200 -3400.17 -200
	200 -3400.17 200
	-200 -3000.22 -200
	-200 -3000.22 200
	200 -3000.22 -200
	200 -3000.22 200
	-200 -2600.25 -200
	-200 -2600.25 200
	200 -2600.25 -200
	200 -2600.25 200
	-200 -2200.26 -200
	-200 -2200.26 200
	200 -2200.26 -200
	200 -2200.26 200
	-200 -1800.26 -200
	-200 -1800.26 200
	200 -1800.26 -200
	200 -1800.26 200
	-200 -1400.26 -200
	-200 -1400.26 200
	200 -1400.26 -200
	200 -1400.26 200
	-200 -1000.26 -200
	-200 -1000.26 200
	200 -1000.26 -200
	200 -1000.26 200
	-200 -600.253 -200
	-200 -600.253 200
	200 -600.253 -200
	200 -600.253 200
	-200 -200.251 -200
	-200 -200.251 200
	200 -200.251 -200
	200 -200.251 200
	-200 199.751 -200
	-200 199.751 200
	200 199.751 -200
	200 199.751 200
	-200 599.754 -200
	-200 599.754 200
	200 599.754 -200
	200 599.754 200
	-200 999.756 -200
	-200 999.756 200
	200 999.756 -200
	200 999.756 200
	-200 1399.76 -200
	-200 1399.76 200
	200 1399.76 -200
	200 1399.76 200
	-200 1799.76 -200
	-200 1799.76 200
	200 1799.76 -200
	200 1799.76 200
	-200 2199.76 -200
	-200 2199.76 200
	200 2199.76 -200
	200 2199.76 200
	-200 2599.77 -200
	-200 2599.77 200
	200 2599.77 -200
	200 2599.77 200
	-200 2999.77 -200
	-200 2999.77 200
	200 2999.77 -200
	200 2999.77 200
	-200 3399.77 -200
	-200 3399.77 200
	200 3399.77 -200
	200 3399.77 200
	-200 3799.78 -200
	-200 3799.78 200
	200 3799.78 -200
	200 3799.78 200
	-200 4199.78 -200
	-200 4199.78 200
	200 4199.78 -200
	200 4199.78 200
	-200 4599.79 -200
	-200 4599.79 200
	200 4599.79 -200
	200 4599.79 200
	-200 4999.79 -200
	-200 4999.79 200
	200 4999.79 -200
	200 4999.79 200
	-200 5399.79 -200
	-200 5399.79 200
	200 5399.79 -200
	200 5399.79 200
	-200 5799.8 -200
	-200 5799.8 200
	200 5799.8 -200
	200 5799.8 200
	-200 6199.8 -200
	-200 6199.8 200
	200 6199.8 -200
	200 6199.8 200
	-200 6599.81 -200
	-200 6599.81 200
	200 6599.81 -200
	200 6599.81 200
	-200 6999.82 -200
	-200 6999.82 200
	200 6999.82 -200
	200 6999.82 200
	-200 7399.82 -200
	-200 7399.82 200
	200 7399.82 -200
	200 7399.82 200
	-200 7799.83 -200
	-200 7799.83 200
	200 7799.83 -200
	200 7799.83 200
	-200 8199.84 -200
	-200 8199.84 200
	200 8199.84 -200
	200 8199.84 200
	-200 8599.84 -200
	-200 8599.84 200
	200 8599.84 -200
	200 8599.84 200
	-200 8999.85 -200
	-200 8999.85 200
	200 8999.85 -200
	200 8999.85 200
	-200 9399.86 -200
	-200 9399.86 200
	200 9399.86 -200
	200 9399.86 200
	-200 9799.88 -200
	-200 9799.88 200
	200 9799.88 -200
	200 9799.88 200
	-200 10199.9 -200
	-200 10199.9 200
	200 10199.9 -200
	200 10199.9 200
	-200 10599.9 -200
	-200 10599.9 200
	200 10599.9 -200
	200 10599.9 200
	-200 10999.9 -200
	-200 10999.9 200
	200 10999.9 -200
	200 10999.9 200
	-200 11399.9 -200
	-200 11399.9 200
	200 11399.9 -200
	200 11399.9 200
	-200 11800 -200
	-200 11800 200
	200 11800 -200
	200 11800 200
	-200 12200 -200
	-200 12200 200
	200 12200 -200
	200 12200 200
	-200 12600.1 -200
	-200 12600.1 200
	200 12600.1 -200
	200 12600.1 200
	-200 13000.1 -200
	-200 13000.1 200
	200 13000.1 -200
	200 13000.1 200
	-200 13400.3 -200
	-200 13400.3 200
	200 13400.3 -200
	200 13400.3 200
	-200 13800.7 -200
	-200 13800.7 200
	200 13800.7 -200
	200 13800.7 200
  </DataArray>
</Points>
<PointData  Vectors="vector">
  <DataArray type="Float32" Name="Velocity" NumberOfComponents="3" format="ascii">
 0 0 0
 0 0 0
 0 0 0
 0 0 0
 0 -0.00405661 0
 0 -0.00405661 0
 0 -0.00405661 0
 0 -0.00405661 0
 0 -0.00951735 0
 0 -0.00951735 0
 0 -0.00951735 0
 0 -0.00951735 0
 0 -0.0172207 0
 0 -0.0172207 0
 0 -0.0172207 0
 0 -0.0172207 0
 0 -0.0265895 0
 0 -0.0265895 0
 0 -0.0265895 0
 0 -0.0265895 0
 0 -0.0347873 0
 0 -0.0347873 0
 0 -0.0347873 0
 0 -0.0347873 0
 0 -0.0370599 0
 0 -0.0370599 0
 0 -0.0370599 0
 0 -0.0370599 0
 0 -0.029639 0
 0 -0.029639 0
 0 -0.029639 0
 0 -0.029639 0
 0 -0.0145516 0
 0 -0.0145516 0
 0 -0.0145516 0
 0 -0.0145516 0
 0 -0.001651 0
 0 -0.001651 0
 0 -0.001651 0
 0 -0.001651 0
 0 0.000700183 0
 0 0.000700183 0
 0 0.000700183 0
 0 0.000700183 0
 0 0.000715207 0
 0 0.000715207 0
 0 0.000715207 0
 0 0.000715207 0
 0 0.000729422 0
 0 0.000729422 0
 0 0.000729422 0
 0 0.000729422 0
 0 0.00074537 0
 0 0.00074537 0
 0 0.00074537 0
 0 0.00074537 0
 0 0.000762648 0
 0 0.000762648 0
 0 0.000762648 0
 0 0.000762648 0
 0 0.00078027 0
 0 0.00078027 0
 0 0.00078027 0
 0 0.00078027 0
 0 0.000797666 0
 0 0.000797666 0
 0 0.000797666 0
 0 0.000797666 0
 0 0.000817107 0
 0 0.000817107 0
 0 0.000817107 0
 0 0.000817107 0
 0 0.000838015 0
 0 0.000838015 0
 0 0.000838015 0
 0 0.000838015 0
 0 0.000859904 0
 0 0.000859904 0
 0 0.000859904 0
 0 0.000859904 0
 0 0.000882919 0
 0 0.000882919 0
 0 0.000882919 0
 0 0.000882919 0
 0 0.000907229 0
 0 0.000907229 0
 0 0.000907229 0
 0 0.000907229 0
 0 0.000933025 0
 0 0.000933025 0
 0 0.000933025 0
 0 0.000933025 0
 0 0.000960524 0
 0 0.000960524 0
 0 0.000960524 0
 0 0.000960524 0
 0 0.000989968 0
 0 0.000989968 0
 0 0.000989968 0
 0 0.000989968 0
 0 0.00102162 0
 0 0.00102162 0
 0 0.00102162 0
 0 0.00102162 0
 0 0.00105576 0
 0 0.00105576 0
 0 0.00105576 0
 0 0.00105576 0
 0 0.00109264 0
 0 0.00109264 0
 0 0.00109264 0
 0 0.00109264 0
 0 0.00113236 0
 0 0.00113236 0
 0 0.00113236 0
 0 0.00113236 0
 0 0.00117401 0
 0 0.00117401 0
 0 0.00117401 0
 0 0.00117401 0
 0 0.00122082 0
 0 0.00122082 0
 0 0.00122082 0
 0 0.00122082 0
 0 0.00127322 0
 0 0.00127322 0
 0 0.00127322 0
 0 0.00127322 0
 0 0.00132731 0
 0 0.00132731 0
 0 0.00132731 0
 0 0.00132731 0
 0 0.0013911 0
 0 0.0013911 0
 0 0.0013911 0
 0 0.0013911 0
 0 0.00145762 0
 0 0.00145762 0
 0 0.00145762 0
 0 0.00145762 0
 0 0.00153641 0
 0 0.00153641 0
 0 0.00153641 0
 0 0.00153641 0
 0 0.00162305 0
 0 0.00162305 0
 0 0.00162305 0
 0 0.00162305 0
 0 0.00172027 0
 0 0.00172027 0
 0 0.00172027 0
 0 0.00172027 0
 0 0.00183174 0
 0 0.00183174 0
 0 0.00183174 0
 0 0.00183174 0
 0 0.00196226 0
 0 0.00196226 0
 0 0.00196226 0
 0 0.00196226 0
 0 0.00211758 0
 0 0.00211758 0
 0 0.00211758 0
 0 0.00211758 0
 0 0.00230113 0
 0 0.00230113 0
 0 0.00230113 0
 0 0.00230113 0
 0 0.00252581 0
 0 0.00252581 0
 0 0.00252581 0
 0 0.00252581 0
 0 0.00280456 0
 0 0.00280456 0
 0 0.00280456 0
 0 0.00280456 0
 0 0.00316933 0
 0 0.00316933 0
 0 0.00316933 0
 0 0.00316933 0
 0 0.00365277 0
 0 0.00365277 0
 0 0.00365277 0
 0 0.00365277 0
 0 0.00435558 0
 0 0.00435558 0
 0 0.00435558 0
 0 0.00435558 0
 0 0.00546091 0
 0 0.00546091 0
 0 0.00546091 0
 0 0.00546091 0
 0 0.00754035 0
 0 0.00754035 0
 0 0.00754035 0
 0 0.00754035 0
 0 0.0132239 0
 0 0.0132239 0
 0 0.0132239 0
 0 0.0132239 0
  </DataArray>
  <DataArray type="Float32" Name="Radius" format="ascii">
	200
	200
	200
	200
	200
	200
	200
	200
	200
	200
	200
	200
	200
	200
	200
	200
	200
	200
	200
	200
	200
	200
	200
	200
	200
	200
	200
	200
	200
	200
	200
	200
	200
	200
	200
	200
	200
	200
	200
	200
	200
	200
	200
	200
	200
	200
	200
	200
	200
	200
	200
	200
	200
	200
	200
	200
	200
	200
	200
	200
	200
	200
	200
	200
	200
	200
	200
	200
	200
	200
	200
	200
	200
	200
	200
	200
	200
	200
	200
	200
	200
	200
	200
	200
	200
	200
	200
	200
	200
	200
	200
	200
	200
	200
	200
	200
	200
	200
	200
	200
	200
	200
	200
	200
	200
	200
	200
	200
	200
	200
	200
	200
	200
	200
	200
	200
	200
	200
	200
	200
	200
	200
	200
	200
	200
	200
	200
	200
	200
	200
	200
	200
	200
	200
	200
	200
	200
	200
	200
	200
	200
	200
	200
	200
	200
	200
	200
	200
	200
	200
	200
	200
	200
	200
	200
	200
	200
	200
	200
	200
	200
	200
	200
	200
	200
	200
	200
	200
	200
	200
	200
	200
	200
	200
	200
	200
	200
	200
	200
	200
	200
	200
	200
	200
	200
	200
	200
	200
	200
	200
	200
	200
	200
	200
	200
	200
	200
	200
	200
	200
  </DataArray>
  <DataArray type="Float32" Name="speciesType" format="ascii">
	0
	0
	0
	0
	0
	0
	0
	0
	0
	0
	0
	0
	0
	0
	0
	0
	0
	0
	0
	0
	0
	0
	0
	0
	0
	0
	0
	0
	0
	0
	0
	0
	0
	0
	0
	0
	0
	0
	0
	0
	0
	0
	0
	0
	0
	0
	0
	0
	0
	0
	0
	0
	0
	0
	0
	0
	0
	0
	0
	0
	0
	0
	0
	0
	0
	0
	0
	0
	0
	0
	0
	0
	0
	0
	0
	0
	0
	0
	0
	0
	0
	0
	0
	0
	0
	0
	0
	0
	0
	0
	0
	0
	0
	0
	0
	0
	0
	0
	0
	0
	0
	0
	0
	0
	0
	0
	0
	0
	0
	0
	0
	0
	0
	0
	0
	0
	0
	0
	0
	0
	0
	0
	0
	0
	0
	0
	0
	0
	0
	0
	0
	0
	0
	0
	0
	0
	0
	0
	0
	0
	0
	0
	0
	0
	0
	0
	0
	0
	0
	0
	0
	0
	0
	0
	0
	0
	0
	0
	0
	0
	0
	0
	0
	0
	0
	0
	0
	0
	0
	0
	0
	0
	0
	0
	0
	0
	0
	0
	0
	0
	0
	0
	0
	0
	0
	0
	0
	0
	0
	0
	0
	0
	0
	0
	0
	0
	0
	0
	0
	0
  </DataArray>
</PointData>
<Cells>
  <DataArray type="Int32" Name="connectivity" format="ascii">
  </DataArray>
  <DataArray type="Int32" Name="offsets" format="ascii">
  </DataArray>
  <DataArray type="UInt8"  Name="types" format="ascii">
  </DataArray>
</Cells>
</Piece>
</UnstructuredGrid>
</VTKFile>
