<?xml version="1.0"?>
<!-- time 31.8273-->
<VTKFile type="UnstructuredGrid" version="0.1" byte_order="LittleEndian">
<UnstructuredGrid>
<Piece NumberOfPoints="200" NumberOfCells="0">
<Points>
  <DataArray type="Float32" Name="Position" NumberOfComponents="3" format="ascii">
	-200 -5800 -200
	-200 -5800 200
	200 -5800 -200
	200 -5800 200
	-200 -5400 -200
	-200 -5400 200
	200 -5400 -200
	200 -5400 200
	-200 -5000 -200
	-200 -5000 200
	200 -5000 -200
	200 -5000 200
	-200 -4600 -200
	-200 -4600 200
	200 -4600 -200
	200 -4600 200
	-200 -4200 -200
	-200 -4200 200
	200 -4200 -200
	200 -4200 200
	-200 -3800 -200
	-200 -3800 200
	200 -3800 -200
	200 -3800 200
	-200 -3400 -200
	-200 -3400 200
	200 -3400 -200
	200 -3400 200
	-200 -3000 -200
	-200 -3000 200
	200 -3000 -200
	200 -3000 200
	-200 -2600 -200
	-200 -2600 200
	200 -2600 -200
	200 -2600 200
	-200 -2200 -200
	-200 -2200 200
	200 -2200 -200
	200 -2200 200
	-200 -1800 -200
	-200 -1800 200
	200 -1800 -200
	200 -1800 200
	-200 -1400 -200
	-200 -1400 200
	200 -1400 -200
	200 -1400 200
	-200 -1000 -200
	-200 -1000 200
	200 -1000 -200
	200 -1000 200
	-200 -600 -200
	-200 -600 200
	200 -600 -200
	200 -600 200
	-200 -200 -200
	-200 -200 200
	200 -200 -200
	200 -200 200
	-200 200 -200
	-200 200 200
	200 200 -200
	200 200 200
	-200 600 -200
	-200 600 200
	200 600 -200
	200 600 200
	-200 1000 -200
	-200 1000 200
	200 1000 -200
	200 1000 200
	-200 1400 -200
	-200 1400 200
	200 1400 -200
	200 1400 200
	-200 1800 -200
	-200 1800 200
	200 1800 -200
	200 1800 200
	-200 2200 -200
	-200 2200 200
	200 2200 -200
	200 2200 200
	-200 2600 -200
	-200 2600 200
	200 2600 -200
	200 2600 200
	-200 3000 -200
	-200 3000 200
	200 3000 -200
	200 3000 200
	-200 3400 -200
	-200 3400 200
	200 3400 -200
	200 3400 200
	-200 3800 -200
	-200 3800 200
	200 3800 -200
	200 3800 200
	-200 4200 -200
	-200 4200 200
	200 4200 -200
	200 4200 200
	-200 4599.99 -200
	-200 4599.99 200
	200 4599.99 -200
	200 4599.99 200
	-200 4999.97 -200
	-200 4999.97 200
	200 4999.97 -200
	200 4999.97 200
	-200 5399.93 -200
	-200 5399.93 200
	200 5399.93 -200
	200 5399.93 200
	-200 5799.87 -200
	-200 5799.87 200
	200 5799.87 -200
	200 5799.87 200
	-200 6199.81 -200
	-200 6199.81 200
	200 6199.81 -200
	200 6199.81 200
	-200 6599.77 -200
	-200 6599.77 200
	200 6599.77 -200
	200 6599.77 200
	-200 6999.77 -200
	-200 6999.77 200
	200 6999.77 -200
	200 6999.77 200
	-200 7399.77 -200
	-200 7399.77 200
	200 7399.77 -200
	200 7399.77 200
	-200 7799.78 -200
	-200 7799.78 200
	200 7799.78 -200
	200 7799.78 200
	-200 8199.78 -200
	-200 8199.78 200
	200 8199.78 -200
	200 8199.78 200
	-200 8599.79 -200
	-200 8599.79 200
	200 8599.79 -200
	200 8599.79 200
	-200 8999.79 -200
	-200 8999.79 200
	200 8999.79 -200
	200 8999.79 200
	-200 9399.8 -200
	-200 9399.8 200
	200 9399.8 -200
	200 9399.8 200
	-200 9799.81 -200
	-200 9799.81 200
	200 9799.81 -200
	200 9799.81 200
	-200 10199.8 -200
	-200 10199.8 200
	200 10199.8 -200
	200 10199.8 200
	-200 10599.8 -200
	-200 10599.8 200
	200 10599.8 -200
	200 10599.8 200
	-200 10999.8 -200
	-200 10999.8 200
	200 10999.8 -200
	200 10999.8 200
	-200 11399.8 -200
	-200 11399.8 200
	200 11399.8 -200
	200 11399.8 200
	-200 11799.9 -200
	-200 11799.9 200
	200 11799.9 -200
	200 11799.9 200
	-200 12199.9 -200
	-200 12199.9 200
	200 12199.9 -200
	200 12199.9 200
	-200 12599.9 -200
	-200 12599.9 200
	200 12599.9 -200
	200 12599.9 200
	-200 13000 -200
	-200 13000 200
	200 13000 -200
	200 13000 200
	-200 13400 -200
	-200 13400 200
	200 13400 -200
	200 13400 200
	-200 13800.2 -200
	-200 13800.2 200
	200 13800.2 -200
	200 13800.2 200
  </DataArray>
</Points>
<PointData  Vectors="vector">
  <DataArray type="Float32" Name="Velocity" NumberOfComponents="3" format="ascii">
 0 0 0
 0 0 0
 0 0 0
 0 0 0
 0 0 0
 0 0 0
 0 0 0
 0 0 0
 0 0 0
 0 0 0
 0 0 0
 0 0 0
 0 0 0
 0 0 0
 0 0 0
 0 0 0
 0 0 0
 0 0 0
 0 0 0
 0 0 0
 0 0 0
 0 0 0
 0 0 0
 0 0 0
 0 0 0
 0 0 0
 0 0 0
 0 0 0
 0 0 0
 0 0 0
 0 0 0
 0 0 0
 0 0 0
 0 0 0
 0 0 0
 0 0 0
 0 0 0
 0 0 0
 0 0 0
 0 0 0
 0 0 0
 0 0 0
 0 0 0
 0 0 0
 0 0 0
 0 0 0
 0 0 0
 0 0 0
 0 -6.4568e-13 0
 0 -6.4568e-13 0
 0 -6.4568e-13 0
 0 -6.4568e-13 0
 0 -7.08241e-12 0
 0 -7.08241e-12 0
 0 -7.08241e-12 0
 0 -7.08241e-12 0
 0 -6.2213e-11 0
 0 -6.2213e-11 0
 0 -6.2213e-11 0
 0 -6.2213e-11 0
 0 -5.01405e-10 0
 0 -5.01405e-10 0
 0 -5.01405e-10 0
 0 -5.01405e-10 0
 0 -3.72309e-09 0
 0 -3.72309e-09 0
 0 -3.72309e-09 0
 0 -3.72309e-09 0
 0 -2.55307e-08 0
 0 -2.55307e-08 0
 0 -2.55307e-08 0
 0 -2.55307e-08 0
 0 -1.61193e-07 0
 0 -1.61193e-07 0
 0 -1.61193e-07 0
 0 -1.61193e-07 0
 0 -9.3268e-07 0
 0 -9.3268e-07 0
 0 -9.3268e-07 0
 0 -9.3268e-07 0
 0 -4.91926e-06 0
 0 -4.91926e-06 0
 0 -4.91926e-06 0
 0 -4.91926e-06 0
 0 -2.35036e-05 0
 0 -2.35036e-05 0
 0 -2.35036e-05 0
 0 -2.35036e-05 0
 0 -0.000100981 0
 0 -0.000100981 0
 0 -0.000100981 0
 0 -0.000100981 0
 0 -0.000386699 0
 0 -0.000386699 0
 0 -0.000386699 0
 0 -0.000386699 0
 0 -0.00130556 0
 0 -0.00130556 0
 0 -0.00130556 0
 0 -0.00130556 0
 0 -0.00383273 0
 0 -0.00383273 0
 0 -0.00383273 0
 0 -0.00383273 0
 0 -0.00960719 0
 0 -0.00960719 0
 0 -0.00960719 0
 0 -0.00960719 0
 0 -0.0200477 0
 0 -0.0200477 0
 0 -0.0200477 0
 0 -0.0200477 0
 0 -0.033532 0
 0 -0.033532 0
 0 -0.033532 0
 0 -0.033532 0
 0 -0.042192 0
 0 -0.042192 0
 0 -0.042192 0
 0 -0.042192 0
 0 -0.0351436 0
 0 -0.0351436 0
 0 -0.0351436 0
 0 -0.0351436 0
 0 -0.0133126 0
 0 -0.0133126 0
 0 -0.0133126 0
 0 -0.0133126 0
 0 0.000816372 0
 0 0.000816372 0
 0 0.000816372 0
 0 0.000816372 0
 0 0.0013911 0
 0 0.0013911 0
 0 0.0013911 0
 0 0.0013911 0
 0 0.00145762 0
 0 0.00145762 0
 0 0.00145762 0
 0 0.00145762 0
 0 0.00153641 0
 0 0.00153641 0
 0 0.00153641 0
 0 0.00153641 0
 0 0.00162305 0
 0 0.00162305 0
 0 0.00162305 0
 0 0.00162305 0
 0 0.00172027 0
 0 0.00172027 0
 0 0.00172027 0
 0 0.00172027 0
 0 0.00183174 0
 0 0.00183174 0
 0 0.00183174 0
 0 0.00183174 0
 0 0.00196226 0
 0 0.00196226 0
 0 0.00196226 0
 0 0.00196226 0
 0 0.00211758 0
 0 0.00211758 0
 0 0.00211758 0
 0 0.00211758 0
 0 0.00230113 0
 0 0.00230113 0
 0 0.00230113 0
 0 0.00230113 0
 0 0.00252581 0
 0 0.00252581 0
 0 0.00252581 0
 0 0.00252581 0
 0 0.00280456 0
 0 0.00280456 0
 0 0.00280456 0
 0 0.00280456 0
 0 0.00316933 0
 0 0.00316933 0
 0 0.00316933 0
 0 0.00316933 0
 0 0.00365277 0
 0 0.00365277 0
 0 0.00365277 0
 0 0.00365277 0
 0 0.00435558 0
 0 0.00435558 0
 0 0.00435558 0
 0 0.00435558 0
 0 0.00546091 0
 0 0.00546091 0
 0 0.00546091 0
 0 0.00546091 0
 0 0.00754035 0
 0 0.00754035 0
 0 0.00754035 0
 0 0.00754035 0
 0 0.0132239 0
 0 0.0132239 0
 0 0.0132239 0
 0 0.0132239 0
  </DataArray>
  <DataArray type="Float32" Name="Radius" format="ascii">
	200
	200
	200
	200
	200
	200
	200
	200
	200
	200
	200
	200
	200
	200
	200
	200
	200
	200
	200
	200
	200
	200
	200
	200
	200
	200
	200
	200
	200
	200
	200
	200
	200
	200
	200
	200
	200
	200
	200
	200
	200
	200
	200
	200
	200
	200
	200
	200
	200
	200
	200
	200
	200
	200
	200
	200
	200
	200
	200
	200
	200
	200
	200
	200
	200
	200
	200
	200
	200
	200
	200
	200
	200
	200
	200
	200
	200
	200
	200
	200
	200
	200
	200
	200
	200
	200
	200
	200
	200
	200
	200
	200
	200
	200
	200
	200
	200
	200
	200
	200
	200
	200
	200
	200
	200
	200
	200
	200
	200
	200
	200
	200
	200
	200
	200
	200
	200
	200
	200
	200
	200
	200
	200
	200
	200
	200
	200
	200
	200
	200
	200
	200
	200
	200
	200
	200
	200
	200
	200
	200
	200
	200
	200
	200
	200
	200
	200
	200
	200
	200
	200
	200
	200
	200
	200
	200
	200
	200
	200
	200
	200
	200
	200
	200
	200
	200
	200
	200
	200
	200
	200
	200
	200
	200
	200
	200
	200
	200
	200
	200
	200
	200
	200
	200
	200
	200
	200
	200
	200
	200
	200
	200
	200
	200
	200
	200
	200
	200
	200
	200
  </DataArray>
  <DataArray type="Float32" Name="speciesType" format="ascii">
	0
	0
	0
	0
	0
	0
	0
	0
	0
	0
	0
	0
	0
	0
	0
	0
	0
	0
	0
	0
	0
	0
	0
	0
	0
	0
	0
	0
	0
	0
	0
	0
	0
	0
	0
	0
	0
	0
	0
	0
	0
	0
	0
	0
	0
	0
	0
	0
	0
	0
	0
	0
	0
	0
	0
	0
	0
	0
	0
	0
	0
	0
	0
	0
	0
	0
	0
	0
	0
	0
	0
	0
	0
	0
	0
	0
	0
	0
	0
	0
	0
	0
	0
	0
	0
	0
	0
	0
	0
	0
	0
	0
	0
	0
	0
	0
	0
	0
	0
	0
	0
	0
	0
	0
	0
	0
	0
	0
	0
	0
	0
	0
	0
	0
	0
	0
	0
	0
	0
	0
	0
	0
	0
	0
	0
	0
	0
	0
	0
	0
	0
	0
	0
	0
	0
	0
	0
	0
	0
	0
	0
	0
	0
	0
	0
	0
	0
	0
	0
	0
	0
	0
	0
	0
	0
	0
	0
	0
	0
	0
	0
	0
	0
	0
	0
	0
	0
	0
	0
	0
	0
	0
	0
	0
	0
	0
	0
	0
	0
	0
	0
	0
	0
	0
	0
	0
	0
	0
	0
	0
	0
	0
	0
	0
	0
	0
	0
	0
	0
	0
  </DataArray>
</PointData>
<Cells>
  <DataArray type="Int32" Name="connectivity" format="ascii">
  </DataArray>
  <DataArray type="Int32" Name="offsets" format="ascii">
  </DataArray>
  <DataArray type="UInt8"  Name="types" format="ascii">
  </DataArray>
</Cells>
</Piece>
</UnstructuredGrid>
</VTKFile>
