<?xml version="1.0"?>
<VTKFile type="UnstructuredGrid" version="0.1" byte_order="LittleEndian" compressor="vtkZLibDataCompressor">
<UnstructuredGrid>
<Piece NumberOfPoints="960" NumberOfCells="120">
<Points>
<DataArray type="Float32" NumberOfComponents="3" format="ascii">
-4.000000e+02 -6.000000e+03 -4.000000e+02
0.000000e+00 -6.000000e+03 -4.000000e+02
-4.000000e+02 -5.600030e+03 -4.000000e+02
4.198640e-10 -5.600030e+03 -4.000000e+02
-4.000000e+02 -6.000000e+03 0.000000e+00
0.000000e+00 -6.000000e+03 0.000000e+00
-4.000000e+02 -5.600030e+03 5.852350e-11
6.753440e-10 -5.600030e+03 7.166520e-10
0.000000e+00 -6.000000e+03 -4.000000e+02
4.000000e+02 -6.000000e+03 -4.000000e+02
4.198640e-10 -5.600030e+03 -4.000000e+02
4.000000e+02 -5.600030e+03 -4.000000e+02
0.000000e+00 -6.000000e+03 0.000000e+00
4.000000e+02 -6.000000e+03 0.000000e+00
6.753440e-10 -5.600030e+03 7.166520e-10
4.000000e+02 -5.600030e+03 1.134190e-09
-4.000000e+02 -5.600030e+03 -4.000000e+02
4.198640e-10 -5.600030e+03 -4.000000e+02
-4.000000e+02 -5.200070e+03 -4.000000e+02
1.612840e-09 -5.200070e+03 -4.000000e+02
-4.000000e+02 -5.600030e+03 5.852350e-11
6.753440e-10 -5.600030e+03 7.166520e-10
-4.000000e+02 -5.200070e+03 1.416100e-09
1.205680e-09 -5.200070e+03 1.011950e-09
4.198640e-10 -5.600030e+03 -4.000000e+02
4.000000e+02 -5.600030e+03 -4.000000e+02
1.612840e-09 -5.200070e+03 -4.000000e+02
4.000000e+02 -5.200070e+03 -4.000000e+02
6.753440e-10 -5.600030e+03 7.166520e-10
4.000000e+02 -5.600030e+03 1.134190e-09
1.205680e-09 -5.200070e+03 1.011950e-09
4.000000e+02 -5.200070e+03 9.743300e-10
-4.000000e+02 -5.200070e+03 -4.000000e+02
1.612840e-09 -5.200070e+03 -4.000000e+02
-4.000000e+02 -4.800120e+03 -4.000000e+02
1.551060e-09 -4.800120e+03 -4.000000e+02
-4.000000e+02 -5.200070e+03 1.416100e-09
1.205680e-09 -5.200070e+03 1.011950e-09
-4.000000e+02 -4.800120e+03 6.910340e-11
8.008790e-10 -4.800120e+03 1.176770e-09
1.612840e-09 -5.200070e+03 -4.000000e+02
4.000000e+02 -5.200070e+03 -4.000000e+02
1.551060e-09 -4.800120e+03 -4.000000e+02
4.000000e+02 -4.800120e+03 -4.000000e+02
1.205680e-09 -5.200070e+03 1.011950e-09
4.000000e+02 -5.200070e+03 9.743300e-10
8.008790e-10 -4.800120e+03 1.176770e-09
4.000000e+02 -4.800120e+03 8.988990e-10
-4.000000e+02 -4.800120e+03 -4.000000e+02
1.551060e-09 -4.800120e+03 -4.000000e+02
-4.000000e+02 -4.400190e+03 -4.000000e+02
2.666870e-09 -4.400190e+03 -4.000000e+02
-4.000000e+02 -4.800120e+03 6.910340e-11
8.008790e-10 -4.800120e+03 1.176770e-09
-4.000000e+02 -4.400190e+03 1.023120e-09
1.660340e-09 -4.400190e+03 1.424490e-09
1.551060e-09 -4.800120e+03 -4.000000e+02
4.000000e+02 -4.800120e+03 -4.000000e+02
2.666870e-09 -4.400190e+03 -4.000000e+02
4.000000e+02 -4.400190e+03 -4.000000e+02
8.008790e-10 -4.800120e+03 1.176770e-09
4.000000e+02 -4.800120e+03 8.988990e-10
1.660340e-09 -4.400190e+03 1.424490e-09
4.000000e+02 -4.400190e+03 2.317460e-09
-4.000000e+02 -4.400190e+03 -4.000000e+02
2.666870e-09 -4.400190e+03 -4.000000e+02
-4.000000e+02 -4.000260e+03 -4.000000e+02
1.810370e-09 -4.000260e+03 -4.000000e+02
-4.000000e+02 -4.400190e+03 1.023120e-09
1.660340e-09 -4.400190e+03 1.424490e-09
-4.000000e+02 -4.000260e+03 7.813350e-10
1.665280e-09 -4.000260e+03 2.215270e-09
2.666870e-09 -4.400190e+03 -4.000000e+02
4.000000e+02 -4.400190e+03 -4.000000e+02
1.810370e-09 -4.000260e+03 -4.000000e+02
4.000000e+02 -4.000260e+03 -4.000000e+02
1.660340e-09 -4.400190e+03 1.424490e-09
4.000000e+02 -4.400190e+03 2.317460e-09
1.665280e-09 -4.000260e+03 2.215270e-09
4.000000e+02 -4.000260e+03 2.858210e-09
-4.000000e+02 -4.000260e+03 -4.000000e+02
1.810370e-09 -4.000260e+03 -4.000000e+02
-4.000000e+02 -3.600300e+03 -4.000000e+02
2.258020e-09 -3.600300e+03 -4.000000e+02
-4.000000e+02 -4.000260e+03 7.813350e-10
1.665280e-09 -4.000260e+03 2.215270e-09
-4.000000e+02 -3.600300e+03 1.306100e-09
1.145480e-09 -3.600300e+03 2.138690e-09
1.810370e-09 -4.000260e+03 -4.000000e+02
4.000000e+02 -4.000260e+03 -4.000000e+02
2.258020e-09 -3.600300e+03 -4.000000e+02
4.000000e+02 -3.600300e+03 -4.000000e+02
1.665280e-09 -4.000260e+03 2.215270e-09
4.000000e+02 -4.000260e+03 2.858210e-09
1.145480e-09 -3.600300e+03 2.138690e-09
4.000000e+02 -3.600300e+03 3.470430e-09
-4.000000e+02 -3.600300e+03 -4.000000e+02
2.258020e-09 -3.600300e+03 -4.000000e+02
-4.000000e+02 -3.200300e+03 -4.000000e+02
2.343270e-09 -3.200300e+03 -4.000000e+02
-4.000000e+02 -3.600300e+03 1.306100e-09
1.145480e-09 -3.600300e+03 2.138690e-09
-4.000000e+02 -3.200300e+03 1.366710e-09
1.284690e-09 -3.200300e+03 1.814580e-09
2.258020e-09 -3.600300e+03 -4.000000e+02
4.000000e+02 -3.600300e+03 -4.000000e+02
2.343270e-09 -3.200300e+03 -4.000000e+02
4.000000e+02 -3.200300e+03 -4.000000e+02
1.145480e-09 -3.600300e+03 2.138690e-09
4.000000e+02 -3.600300e+03 3.470430e-09
1.284690e-09 -3.200300e+03 1.814580e-09
4.000000e+02 -3.200300e+03 2.554000e-09
-4.000000e+02 -3.200300e+03 -4.000000e+02
2.343270e-09 -3.200300e+03 -4.000000e+02
-4.000000e+02 -2.800270e+03 -4.000000e+02
1.762900e-09 -2.800270e+03 -4.000000e+02
-4.000000e+02 -3.200300e+03 1.366710e-09
1.284690e-09 -3.200300e+03 1.814580e-09
-4.000000e+02 -2.800270e+03 2.752330e-10
1.274430e-09 -2.800270e+03 7.701730e-10
2.343270e-09 -3.200300e+03 -4.000000e+02
4.000000e+02 -3.200300e+03 -4.000000e+02
1.762900e-09 -2.800270e+03 -4.000000e+02
4.000000e+02 -2.800270e+03 -4.000000e+02
1.284690e-09 -3.200300e+03 1.814580e-09
4.000000e+02 -3.200300e+03 2.554000e-09
1.274430e-09 -2.800270e+03 7.701730e-10
4.000000e+02 -2.800270e+03 1.039240e-09
-4.000000e+02 -2.800270e+03 -4.000000e+02
1.762900e-09 -2.800270e+03 -4.000000e+02
-4.000000e+02 -2.400260e+03 -4.000000e+02
2.225110e-09 -2.400260e+03 -4.000000e+02
-4.000000e+02 -2.800270e+03 2.752330e-10
1.274430e-09 -2.800270e+03 7.701730e-10
-4.000000e+02 -2.400260e+03 5.119250e-10
1.254030e-09 -2.400260e+03 3.120950e-10
1.762900e-09 -2.800270e+03 -4.000000e+02
4.000000e+02 -2.800270e+03 -4.000000e+02
2.225110e-09 -2.400260e+03 -4.000000e+02
4.000000e+02 -2.400260e+03 -4.000000e+02
1.274430e-09 -2.800270e+03 7.701730e-10
4.000000e+02 -2.800270e+03 1.039240e-09
1.254030e-09 -2.400260e+03 3.120950e-10
4.000000e+02 -2.400260e+03 4.336170e-10
-4.000000e+02 -2.400260e+03 -4.000000e+02
2.225110e-09 -2.400260e+03 -4.000000e+02
-4.000000e+02 -2.000270e+03 -4.000000e+02
2.002180e-09 -2.000270e+03 -4.000000e+02
-4.000000e+02 -2.400260e+03 5.119250e-10
1.254030e-09 -2.400260e+03 3.120950e-10
-4.000000e+02 -2.000270e+03 6.637560e-11
1.577610e-09 -2.000270e+03 -2.982680e-10
2.225110e-09 -2.400260e+03 -4.000000e+02
4.000000e+02 -2.400260e+03 -4.000000e+02
2.002180e-09 -2.000270e+03 -4.000000e+02
4.000000e+02 -2.000270e+03 -4.000000e+02
1.254030e-09 -2.400260e+03 3.120950e-10
4.000000e+02 -2.400260e+03 4.336170e-10
1.577610e-09 -2.000270e+03 -2.982680e-10
4.000000e+02 -2.000270e+03 6.888370e-10
-4.000000e+02 -2.000270e+03 -4.000000e+02
2.002180e-09 -2.000270e+03 -4.000000e+02
-4.000000e+02 -1.600280e+03 -4.000000e+02
1.455430e-09 -1.600280e+03 -4.000000e+02
-4.000000e+02 -2.000270e+03 6.637560e-11
1.577610e-09 -2.000270e+03 -2.982680e-10
-4.000000e+02 -1.600280e+03 -6.667490e-10
9.387660e-10 -1.600280e+03 -5.024070e-10
2.002180e-09 -2.000270e+03 -4.000000e+02
4.000000e+02 -2.000270e+03 -4.000000e+02
1.455430e-09 -1.600280e+03 -4.000000e+02
4.000000e+02 -1.600280e+03 -4.000000e+02
1.577610e-09 -2.000270e+03 -2.982680e-10
4.000000e+02 -2.000270e+03 6.888370e-10
9.387660e-10 -1.600280e+03 -5.024070e-10
4.000000e+02 -1.600280e+03 3.563230e-10
-4.000000e+02 -1.600280e+03 -4.000000e+02
1.455430e-09 -1.600280e+03 -4.000000e+02
-4.000000e+02 -1.200280e+03 -4.000000e+02
9.806150e-10 -1.200280e+03 -4.000000e+02
-4.000000e+02 -1.600280e+03 -6.667490e-10
9.387660e-10 -1.600280e+03 -5.024070e-10
-4.000000e+02 -1.200280e+03 -1.850050e-09
7.429480e-10 -1.200280e+03 -8.873090e-10
1.455430e-09 -1.600280e+03 -4.000000e+02
4.000000e+02 -1.600280e+03 -4.000000e+02
9.806150e-10 -1.200280e+03 -4.000000e+02
4.000000e+02 -1.200280e+03 -4.000000e+02
9.387660e-10 -1.600280e+03 -5.024070e-10
4.000000e+02 -1.600280e+03 3.563230e-10
7.429480e-10 -1.200280e+03 -8.873090e-10
4.000000e+02 -1.200280e+03 -9.740620e-10
-4.000000e+02 -1.200280e+03 -4.000000e+02
9.806150e-10 -1.200280e+03 -4.000000e+02
-4.000000e+02 -8.002720e+02 -4.000000e+02
3.827970e-10 -8.002720e+02 -4.000000e+02
-4.000000e+02 -1.200280e+03 -1.850050e-09
7.429480e-10 -1.200280e+03 -8.873090e-10
-4.000000e+02 -8.002720e+02 -8.692990e-10
5.543800e-10 -8.002720e+02 -1.965940e-10
9.806150e-10 -1.200280e+03 -4.000000e+02
4.000000e+02 -1.200280e+03 -4.000000e+02
3.827970e-10 -8.002720e+02 -4.000000e+02
4.000000e+02 -8.002720e+02 -4.000000e+02
7.429480e-10 -1.200280e+03 -8.873090e-10
4.000000e+02 -1.200280e+03 -9.740620e-10
5.543800e-10 -8.002720e+02 -1.965940e-10
4.000000e+02 -8.002720e+02 3.235950e-10
-4.000000e+02 -8.002720e+02 -4.000000e+02
3.827970e-10 -8.002720e+02 -4.000000e+02
-4.000000e+02 -4.002770e+02 -4.000000e+02
-5.370300e-11 -4.002770e+02 -4.000000e+02
-4.000000e+02 -8.002720e+02 -8.692990e-10
5.543800e-10 -8.002720e+02 -1.965940e-10
-4.000000e+02 -4.002770e+02 8.816870e-11
4.836950e-11 -4.002770e+02 3.355290e-10
3.827970e-10 -8.002720e+02 -4.000000e+02
4.000000e+02 -8.002720e+02 -4.000000e+02
-5.370300e-11 -4.002770e+02 -4.000000e+02
4.000000e+02 -4.002770e+02 -4.000000e+02
5.543800e-10 -8.002720e+02 -1.965940e-10
4.000000e+02 -8.002720e+02 3.235950e-10
4.836950e-11 -4.002770e+02 3.355290e-10
4.000000e+02 -4.002770e+02 5.023250e-10
-4.000000e+02 -4.002770e+02 -4.000000e+02
-5.370300e-11 -4.002770e+02 -4.000000e+02
-4.000000e+02 -2.790350e-01 -4.000000e+02
1.079280e-10 -2.790350e-01 -4.000000e+02
-4.000000e+02 -4.002770e+02 8.816870e-11
4.836950e-11 -4.002770e+02 3.355290e-10
-4.000000e+02 -2.790350e-01 -5.205870e-10
-1.977640e-10 -2.790350e-01 -2.050260e-10
-5.370300e-11 -4.002770e+02 -4.000000e+02
4.000000e+02 -4.002770e+02 -4.000000e+02
1.079280e-10 -2.790350e-01 -4.000000e+02
4.000000e+02 -2.790350e-01 -4.000000e+02
4.836950e-11 -4.002770e+02 3.355290e-10
[...]
<PointData>
<DataArray type="Float32" Name="V1" format="ascii">
0.000000e+00
0.000000e+00
6.127390e-10
3.565770e-10
0.000000e+00
0.000000e+00
-9.426750e-10
-9.119630e-10
0.000000e+00
0.000000e+00
3.565770e-10
-8.169850e-10
0.000000e+00
0.000000e+00
-9.119630e-10
-2.199580e-10
6.127390e-10
3.565770e-10
7.384290e-10
9.658150e-10
-9.426750e-10
-9.119630e-10
1.791080e-09
5.672160e-10
3.565770e-10
-8.169850e-10
9.658150e-10
1.571130e-11
-9.119630e-10
-2.199580e-10
5.672160e-10
-1.256900e-10
7.384290e-10
9.658150e-10
-1.099790e-10
-6.859360e-10
1.791080e-09
5.672160e-10
-2.042460e-10
-2.847280e-10
9.658150e-10
1.571130e-11
-6.859360e-10
-2.670910e-10
5.672160e-10
-1.256900e-10
-2.847280e-10
-7.855630e-11
-1.099790e-10
-6.859360e-10
5.656050e-10
-6.117260e-10
-2.042460e-10
-2.847280e-10
-1.633970e-09
-2.605210e-10
-6.859360e-10
-2.670910e-10
-6.117260e-10
-8.484080e-10
-2.847280e-10
-7.855630e-11
-2.605210e-10
-2.828030e-10
5.656050e-10
-6.117260e-10
7.698510e-10
1.406250e-09
-1.633970e-09
-2.605210e-10
1.256900e-10
3.934130e-10
-6.117260e-10
-8.484080e-10
1.406250e-09
1.335460e-09
-2.605210e-10
-2.828030e-10
3.934130e-10
6.441610e-10
7.698510e-10
1.406250e-09
1.131210e-09
-1.182840e-09
1.256900e-10
3.934130e-10
-6.441610e-10
7.653620e-11
1.406250e-09
1.335460e-09
-1.182840e-09
-2.168150e-09
3.934130e-10
6.441610e-10
7.653620e-11
6.127390e-10
1.131210e-09
-1.182840e-09
-5.027600e-10
-9.036400e-11
-6.441610e-10
7.653620e-11
-7.855630e-11
1.096970e-10
-1.182840e-09
-2.168150e-09
-9.036400e-11
1.021230e-09
7.653620e-11
6.127390e-10
1.096970e-10
-2.356690e-10
-5.027600e-10
-9.036400e-11
-2.529510e-09
-6.522460e-10
-7.855630e-11
1.096970e-10
9.583870e-10
4.650550e-10
-9.036400e-11
1.021230e-09
-6.522460e-10
3.299360e-10
1.096970e-10
-2.356690e-10
4.650550e-10
-9.583870e-10
-2.529510e-09
-6.522460e-10
-1.414010e-09
-1.623430e-10
9.583870e-10
4.650550e-10
-9.269640e-10
3.093530e-10
-6.522460e-10
3.299360e-10
-1.623430e-10
2.042460e-10
4.650550e-10
-9.583870e-10
3.093530e-10
2.246710e-09
-1.414010e-09
-1.623430e-10
-5.813160e-10
1.037980e-09
-9.269640e-10
3.093530e-10
3.142250e-10
-1.767670e-10
-1.623430e-10
2.042460e-10
1.037980e-09
2.121020e-09
3.093530e-10
2.246710e-09
-1.767670e-10
2.513800e-10
-5.813160e-10
1.037980e-09
2.152440e-09
3.809790e-10
3.142250e-10
-1.767670e-10
1.178340e-09
4.995810e-10
1.037980e-09
2.121020e-09
3.809790e-10
-1.885350e-09
-1.767670e-10
2.513800e-10
4.995810e-10
-8.641190e-10
2.152440e-09
3.809790e-10
1.681100e-09
5.292340e-10
1.178340e-09
4.995810e-10
-1.335460e-09
-4.664750e-10
3.809790e-10
-1.885350e-09
5.292340e-10
3.927810e-10
4.995810e-10
-8.641190e-10
-4.664750e-10
-1.099790e-09
1.681100e-09
5.292340e-10
-2.985140e-10
7.606100e-11
-1.335460e-09
-4.664750e-10
3.142250e-10
-3.740240e-10
5.292340e-10
3.927810e-10
7.606100e-11
9.426750e-10
-4.664750e-10
-1.099790e-09
-3.740240e-10
-1.099790e-10
-2.985140e-10
7.606100e-11
-1.995330e-09
4.504530e-10
3.142250e-10
-3.740240e-10
-8.955420e-10
3.736660e-10
7.606100e-11
9.426750e-10
4.504530e-10
-3.142250e-10
-3.740240e-10
-1.099790e-10
3.736660e-10
0.000000e+00
-1.995330e-09
4.504530e-10
0.000000e+00
2.804950e-10
-8.955420e-10
3.736660e-10
-3.456480e-10
-3.715290e-10
4.504530e-10
-3.142250e-10
2.804950e-10
-6.284500e-11
3.736660e-10
0.000000e+00
-3.715290e-10
-4.713380e-10
0.000000e+00
2.804950e-10
-2.828030e-10
4.817040e-10
-3.456480e-10
-3.715290e-10
0.000000e+00
2.961410e-10
2.804950e-10
-6.284500e-11
4.817040e-10
2.985140e-10
-3.715290e-10
-4.713380e-10
2.961410e-10
7.855630e-11
-2.828030e-10
4.817040e-10
7.384290e-10
-1.022510e-10
0.000000e+00
2.961410e-10
0.000000e+00
4.744910e-10
4.817040e-10
2.985140e-10
-1.022510e-10
-4.242040e-10
2.961410e-10
7.855630e-11
4.744910e-10
4.556260e-10
7.384290e-10
-1.022510e-10
1.414010e-10
5.852810e-11
0.000000e+00
4.744910e-10
4.399150e-10
-2.606320e-11
-1.022510e-10
-4.242040e-10
5.852810e-11
3.299360e-10
4.744910e-10
4.556260e-10
-2.606320e-11
1.885350e-10
1.414010e-10
5.852810e-11
-6.755840e-10
-8.804980e-11
4.399150e-10
-2.606320e-11
-6.127390e-10
-2.084970e-10
5.852810e-11
3.299360e-10
-8.804980e-11
-2.985140e-10
-2.606320e-11
1.885350e-10
-2.084970e-10
0.000000e+00
-6.755840e-10
-8.804980e-11
-3.456480e-10
-1.067350e-10
-6.127390e-10
-2.084970e-10
0.000000e+00
-9.785630e-11
-8.804980e-11
-2.985140e-10
-1.067350e-10
0.000000e+00
-2.084970e-10
0.000000e+00
-9.785630e-11
0.000000e+00
-3.456480e-10
-1.067350e-10
0.000000e+00
3.314720e-12
0.000000e+00
-9.785630e-11
0.000000e+00
-4.695860e-11
-1.067350e-10
0.000000e+00
3.314720e-12
0.000000e+00
-9.785630e-11
0.000000e+00
-4.695860e-11
0.000000e+00
0.000000e+00
3.314720e-12
0.000000e+00
2.448530e-11
0.000000e+00
-4.695860e-11
0.000000e+00
1.461490e-11
3.314720e-12
0.000000e+00
2.448530e-11
0.000000e+00
-4.695860e-11
0.000000e+00
1.461490e-11
0.000000e+00
0.000000e+00
2.448530e-11
0.000000e+00
-6.365520e-12
0.000000e+00
1.461490e-11
0.000000e+00
-6.478770e-12
2.448530e-11
0.000000e+00
-6.365520e-12
0.000000e+00
1.461490e-11
0.000000e+00
-6.478770e-12
0.000000e+00
0.000000e+00
-6.365520e-12
0.000000e+00
5.282520e-12
0.000000e+00
-6.478770e-12
0.000000e+00
3.563510e-12
-6.365520e-12
0.000000e+00
5.282520e-12
0.000000e+00
-6.478770e-12
0.000000e+00
3.563510e-12
0.000000e+00
0.000000e+00
5.282520e-12
0.000000e+00
1.225350e-11
0.000000e+00
3.563510e-12
0.000000e+00
1.221860e-11
5.282520e-12
0.000000e+00
1.225350e-11
0.000000e+00
3.563510e-12
0.000000e+00
1.221860e-11
0.000000e+00
0.000000e+00
1.225350e-11
0.000000e+00
1.588130e-11
0.000000e+00
1.221860e-11
0.000000e+00
1.230890e-11
1.225350e-11
0.000000e+00
1.588130e-11
0.000000e+00
1.221860e-11
0.000000e+00
1.230890e-11
0.000000e+00
0.000000e+00
1.588130e-11
0.000000e+00
5.940570e-12
0.000000e+00
1.230890e-11
0.000000e+00
2.411950e-12
1.588130e-11
0.000000e+00
5.940570e-12
0.000000e+00
1.230890e-11
0.000000e+00
2.411950e-12
0.000000e+00
0.000000e+00
5.940570e-12
0.000000e+00
5.475730e-12
0.000000e+00
2.411950e-12
0.000000e+00
6.676450e-12
5.940570e-12
0.000000e+00
5.475730e-12
0.000000e+00
2.411950e-12
0.000000e+00
6.676450e-12
0.000000e+00
0.000000e+00
5.475730e-12
0.000000e+00
6.748850e-13
0.000000e+00
6.676450e-12
0.000000e+00
7.193880e-13
5.475730e-12
0.000000e+00
6.748850e-13
0.000000e+00
6.676450e-12
0.000000e+00
7.193880e-13
0.000000e+00
0.000000e+00
6.748850e-13
0.000000e+00
-1.164690e-11
0.000000e+00
7.193880e-13
0.000000e+00
-1.006350e-11
6.748850e-13
0.000000e+00
-1.164690e-11
0.000000e+00
7.193880e-13
0.000000e+00
-1.006350e-11
0.000000e+00
0.000000e+00
0.000000e+00
-9.426750e-10
-9.119630e-10
0.000000e+00
0.000000e+00
1.288320e-09
6.681490e-10
0.000000e+00
0.000000e+00
-9.119630e-10
-2.199580e-10
0.000000e+00
0.000000e+00
6.681490e-10
5.341830e-10
-9.426750e-10
-9.119630e-10
1.791080e-09
5.672160e-10
1.288320e-09
6.681490e-10
1.571130e-09
2.356580e-10
-9.119630e-10
-2.199580e-10
5.672160e-10
-1.256900e-10
6.681490e-10
5.341830e-10
2.356580e-10
-4.556260e-10
1.791080e-09
5.672160e-10
-2.042460e-10
-2.847280e-10
1.571130e-09
2.356580e-10
-1.571130e-11
-1.241330e-09
5.672160e-10
-1.256900e-10
-2.847280e-10
-7.855630e-11
2.356580e-10
-4.556260e-10
-1.241330e-09
-1.979620e-09
-2.042460e-10
-2.847280e-10
-1.633970e-09
-2.605210e-10
-1.571130e-11
-1.241330e-09
1.319750e-09
1.570480e-10
-2.847280e-10
-7.855630e-11
-2.605210e-10
-2.828030e-10
-1.241330e-09
-1.979620e-09
1.570480e-10
5.341830e-10
-1.633970e-09
-2.605210e-10
1.256900e-10
3.934130e-10
1.319750e-09
1.570480e-10
-1.052650e-09
4.397550e-10
-2.605210e-10
-2.828030e-10
3.934130e-10
6.441610e-10
1.570480e-10
5.341830e-10
4.397550e-10
1.241190e-09
1.256900e-10
3.934130e-10
-6.441610e-10
7.653620e-11
-1.052650e-09
4.397550e-10
-7.855630e-11
-1.118610e-09
3.934130e-10
6.441610e-10
7.653620e-11
6.127390e-10
4.397550e-10
1.241190e-09
-1.118610e-09
-9.583870e-10
-6.441610e-10
7.653620e-11
-7.855630e-11
1.096970e-10
-7.855630e-11
-1.118610e-09
3.299360e-10
4.657060e-10
7.653620e-11
6.127390e-10
1.096970e-10
-2.356690e-10
-1.118610e-09
-9.583870e-10
4.657060e-10
2.183860e-09
-7.855630e-11
1.096970e-10
9.583870e-10
4.650550e-10
3.299360e-10
4.657060e-10
-5.498940e-10
6.638380e-10
1.096970e-10
-2.356690e-10
4.650550e-10
-9.583870e-10
4.657060e-10
2.183860e-09
6.638380e-10
7.855630e-10
9.583870e-10
4.650550e-10
-9.269640e-10
3.093530e-10
-5.498940e-10
6.638380e-10
-5.027600e-10
-3.200540e-10
4.650550e-10
-9.583870e-10
3.093530e-10
2.246710e-09
6.638380e-10
7.855630e-10
-3.200540e-10
2.828030e-10
-9.269640e-10
3.093530e-10
3.142250e-10
-1.767670e-10
-5.027600e-10
-3.200540e-10
-1.225480e-09
-5.297420e-11
3.093530e-10
2.246710e-09
-1.767670e-10
2.513800e-10
-3.200540e-10
2.828030e-10
-5.297420e-11
-2.985140e-10
3.142250e-10
-1.767670e-10
1.178340e-09
4.995810e-10
-1.225480e-09
-5.297420e-11
1.461150e-09
-7.379080e-11
-1.767670e-10
2.513800e-10
4.995810e-10
-8.641190e-10
-5.297420e-11
-2.985140e-10
-7.379080e-11
3.613590e-10
1.178340e-09
4.995810e-10
-1.335460e-09
-4.664750e-10
1.461150e-09
-7.379080e-11
-4.870490e-10
5.444130e-10
4.995810e-10
-8.641190e-10
-4.664750e-10
-1.099790e-09
-7.379080e-11
3.613590e-10
5.444130e-10
3.927810e-10
-1.335460e-09
-4.664750e-10
3.142250e-10
-3.740240e-10
-4.870490e-10
5.444130e-10
8.641190e-10
2.952630e-10
-4.664750e-10
-1.099790e-09
-3.740240e-10
-1.099790e-10
5.444130e-10
3.927810e-10
2.952630e-10
-4.556260e-10
3.142250e-10
-3.740240e-10
-8.955420e-10
3.736660e-10
8.641190e-10
2.952630e-10
4.084930e-10
1.569410e-11
-3.740240e-10
-1.099790e-10
3.736660e-10
0.000000e+00
2.952630e-10
-4.556260e-10
1.569410e-11
9.426750e-11
-8.955420e-10
3.736660e-10
-3.456480e-10
-3.715290e-10
4.084930e-10
1.569410e-11
-4.399150e-10
-1.360150e-10
3.736660e-10
0.000000e+00
-3.715290e-10
-4.713380e-10
1.569410e-11
9.426750e-11
-1.360150e-10
-1.696820e-09
-3.456480e-10
-3.715290e-10
0.000000e+00
2.961410e-10
-4.399150e-10
-1.360150e-10
5.498940e-10
1.701470e-10
-3.715290e-10
-4.713380e-10
2.961410e-10
7.855630e-11
-1.360150e-10
-1.696820e-09
1.701470e-10
1.885350e-10
0.000000e+00
2.961410e-10
0.000000e+00
4.744910e-10
5.498940e-10
1.701470e-10
-3.927810e-10
-7.529960e-10
2.961410e-10
7.855630e-11
4.744910e-10
4.556260e-10
1.701470e-10
1.885350e-10
-7.529960e-10
2.513800e-10
0.000000e+00
4.744910e-10
4.399150e-10
-2.606320e-11
-3.927810e-10
-7.529960e-10
0.000000e+00
5.783330e-11
4.744910e-10
4.556260e-10
-2.606320e-11
1.885350e-10
-7.529960e-10
2.513800e-10
5.783330e-11
-4.713380e-10
4.399150e-10
-2.606320e-11
-6.127390e-10
-2.084970e-10
0.000000e+00
5.783330e-11
0.000000e+00
2.961280e-10
-2.606320e-11
1.885350e-10
-2.084970e-10
0.000000e+00
5.783330e-11
-4.713380e-10
2.961280e-10
0.000000e+00
-6.127390e-10
-2.084970e-10
0.000000e+00
-9.785630e-11
0.000000e+00
2.961280e-10
0.000000e+00
-8.003910e-11
-2.084970e-10
0.000000e+00
-9.785630e-11
0.000000e+00
2.961280e-10
0.000000e+00
-8.003910e-11
0.000000e+00
0.000000e+00
-9.785630e-11
0.000000e+00
-4.695860e-11
0.000000e+00
-8.003910e-11
0.000000e+00
-7.504450e-11
-9.785630e-11
0.000000e+00
-4.695860e-11
0.000000e+00
-8.003910e-11
0.000000e+00
-7.504450e-11
0.000000e+00
0.000000e+00
-4.695860e-11
0.000000e+00
1.461490e-11
0.000000e+00
-7.504450e-11
0.000000e+00
9.773910e-12
-4.695860e-11
0.000000e+00
1.461490e-11
0.000000e+00
-7.504450e-11
0.000000e+00
9.773910e-12
0.000000e+00
0.000000e+00
1.461490e-11
0.000000e+00
-6.478770e-12
0.000000e+00
9.773910e-12
0.000000e+00
-1.396590e-11
1.461490e-11
0.000000e+00
-6.478770e-12
0.000000e+00
9.773910e-12
0.000000e+00
-1.396590e-11
0.000000e+00
0.000000e+00
-6.478770e-12
0.000000e+00
3.563510e-12
0.000000e+00
-1.396590e-11
0.000000e+00
9.424900e-13
-6.478770e-12
0.000000e+00
3.563510e-12
0.000000e+00
-1.396590e-11
0.000000e+00
9.424900e-13
0.000000e+00
0.000000e+00
3.563510e-12
0.000000e+00
1.221860e-11
0.000000e+00
9.424900e-13
0.000000e+00
1.421590e-11
3.563510e-12
0.000000e+00
1.221860e-11
0.000000e+00
9.424900e-13
0.000000e+00
1.421590e-11
0.000000e+00
0.000000e+00
1.221860e-11
0.000000e+00
1.230890e-11
0.000000e+00
1.421590e-11
0.000000e+00
1.610870e-11
1.221860e-11
0.000000e+00
1.230890e-11
0.000000e+00
1.421590e-11
0.000000e+00
1.610870e-11
0.000000e+00
0.000000e+00
1.230890e-11
0.000000e+00
2.411950e-12
0.000000e+00
1.610870e-11
0.000000e+00
-3.703540e-12
1.230890e-11
0.000000e+00
2.411950e-12
0.000000e+00
1.610870e-11
0.000000e+00
-3.703540e-12
0.000000e+00
0.000000e+00
2.411950e-12
0.000000e+00
6.676450e-12
0.000000e+00
-3.703540e-12
0.000000e+00
2.745250e-12
2.411950e-12
0.000000e+00
6.676450e-12
0.000000e+00
-3.703540e-12
0.000000e+00
2.745250e-12
0.000000e+00
0.000000e+00
6.676450e-12
0.000000e+00
7.193880e-13
0.000000e+00
2.745250e-12
0.000000e+00
3.350280e-12
6.676450e-12
0.000000e+00
7.193880e-13
0.000000e+00
2.745250e-12
0.000000e+00
3.350280e-12
0.000000e+00
0.000000e+00
7.193880e-13
0.000000e+00
-1.006350e-11
0.000000e+00
3.350280e-12
0.000000e+00
-7.039830e-12
7.193880e-13
0.000000e+00
-1.006350e-11
0.000000e+00
3.350280e-12
0.000000e+00
-7.039830e-12
0.000000e+00
</DataArray>
<DataArray type="Float32" Name="V2" format="ascii">
0.000000e+00
0.000000e+00
1.204060e-02
1.204060e-02
0.000000e+00
0.000000e+00
1.204060e-02
1.204060e-02
0.000000e+00
0.000000e+00
1.204060e-02
1.204060e-02
0.000000e+00
0.000000e+00
1.204060e-02
1.204060e-02
1.204060e-02
1.204060e-02
2.670850e-02
2.670850e-02
1.204060e-02
1.204060e-02
2.670850e-02
2.670850e-02
1.204060e-02
1.204060e-02
2.670850e-02
2.670850e-02
1.204060e-02
1.204060e-02
2.670850e-02
2.670850e-02
2.670850e-02
2.670850e-02
4.146940e-02
4.146940e-02
2.670850e-02
2.670850e-02
4.146940e-02
4.146940e-02
2.670850e-02
2.670850e-02
4.146940e-02
4.146940e-02
2.670850e-02
2.670850e-02
4.146940e-02
4.146940e-02
4.146940e-02
4.146940e-02
4.988260e-02
4.988260e-02
4.146940e-02
4.146940e-02
4.988260e-02
4.988260e-02
4.146940e-02
4.146940e-02
4.988260e-02
4.988260e-02
4.146940e-02
4.146940e-02
4.988260e-02
4.988260e-02
4.988260e-02
4.988260e-02
4.041610e-02
4.041610e-02
4.988260e-02
4.988260e-02
4.041610e-02
4.041610e-02
4.988260e-02
4.988260e-02
4.041610e-02
4.041610e-02
4.988260e-02
4.988260e-02
4.041610e-02
4.041610e-02
4.041610e-02
4.041610e-02
1.175430e-02
1.175430e-02
4.041610e-02
4.041610e-02
1.175430e-02
1.175430e-02
4.041610e-02
4.041610e-02
1.175430e-02
1.175430e-02
4.041610e-02
4.041610e-02
1.175430e-02
1.175430e-02
1.175430e-02
1.175430e-02
-1.673660e-02
-1.673660e-02
1.175430e-02
1.175430e-02
-1.673660e-02
-1.673660e-02
1.175430e-02
1.175430e-02
-1.673660e-02
-1.673660e-02
1.175430e-02
1.175430e-02
-1.673660e-02
-1.673660e-02
-1.673660e-02
-1.673660e-02
-2.281250e-02
-2.281250e-02
-1.673660e-02
-1.673660e-02
-2.281250e-02
-2.281250e-02
-1.673660e-02
-1.673660e-02
-2.281250e-02
-2.281250e-02
-1.673660e-02
-1.673660e-02
-2.281250e-02
-2.281250e-02
-2.281250e-02
-2.281250e-02
-1.148090e-03
-1.148080e-03
-2.281250e-02
-2.281250e-02
-1.148080e-03
-1.148080e-03
-2.281250e-02
-2.281250e-02
-1.148080e-03
-1.148080e-03
-2.281250e-02
-2.281250e-02
-1.148080e-03
-1.148080e-03
-1.148090e-03
-1.148080e-03
1.511050e-02
1.511050e-02
-1.148080e-03
-1.148080e-03
1.511050e-02
1.511050e-02
-1.148080e-03
-1.148080e-03
1.511050e-02
1.511050e-02
-1.148080e-03
-1.148080e-03
1.511050e-02
1.511050e-02
1.511050e-02
1.511050e-02
8.238560e-04
8.238600e-04
1.511050e-02
1.511050e-02
8.238560e-04
8.238570e-04
1.511050e-02
1.511050e-02
8.238600e-04
8.238550e-04
1.511050e-02
1.511050e-02
8.238570e-04
8.238560e-04
8.238560e-04
8.238600e-04
-8.852060e-03
-8.852070e-03
8.238560e-04
8.238570e-04
-8.852060e-03
-8.852060e-03
8.238600e-04
8.238550e-04
-8.852070e-03
-8.852060e-03
8.238570e-04
8.238560e-04
-8.852060e-03
-8.852060e-03
-8.852060e-03
-8.852070e-03
3.991660e-04
3.991650e-04
-8.852060e-03
-8.852060e-03
3.991650e-04
3.991630e-04
-8.852070e-03
-8.852060e-03
3.991650e-04
3.991620e-04
-8.852060e-03
-8.852060e-03
3.991630e-04
3.991640e-04
3.991660e-04
3.991650e-04
3.095790e-03
3.095790e-03
3.991650e-04
3.991630e-04
3.095790e-03
3.095790e-03
3.991650e-04
3.991620e-04
3.095790e-03
3.095790e-03
3.991630e-04
3.991640e-04
3.095790e-03
3.095790e-03
3.095790e-03
3.095790e-03
-1.719640e-03
-1.719640e-03
3.095790e-03
3.095790e-03
-1.719640e-03
-1.719640e-03
3.095790e-03
3.095790e-03
-1.719640e-03
-1.719640e-03
3.095790e-03
3.095790e-03
-1.719640e-03
-1.719640e-03
-1.719640e-03
-1.719640e-03
-1.277880e-03
-1.277880e-03
-1.719640e-03
-1.719640e-03
-1.277880e-03
-1.277880e-03
-1.719640e-03
-1.719640e-03
-1.277880e-03
-1.277880e-03
-1.719640e-03
-1.719640e-03
-1.277880e-03
-1.277880e-03
-1.277880e-03
-1.277880e-03
2.784730e-04
2.784720e-04
-1.277880e-03
-1.277880e-03
2.784720e-04
2.784730e-04
-1.277880e-03
-1.277880e-03
2.784720e-04
2.784710e-04
-1.277880e-03
-1.277880e-03
2.784730e-04
2.784720e-04
2.784730e-04
2.784720e-04
-4.207820e-04
-4.207820e-04
2.784720e-04
2.784730e-04
-4.207800e-04
-4.207830e-04
2.784720e-04
2.784710e-04
-4.207820e-04
-4.207810e-04
2.784730e-04
2.784720e-04
-4.207830e-04
-4.207820e-04
-4.207820e-04
-4.207820e-04
-6.745710e-04
-6.745740e-04
-4.207800e-04
-4.207830e-04
-6.745750e-04
-6.745740e-04
-4.207820e-04
-4.207810e-04
-6.745740e-04
-6.745740e-04
-4.207830e-04
-4.207820e-04
-6.745740e-04
-6.745740e-04
-6.745710e-04
-6.745740e-04
-2.037330e-04
-2.037320e-04
-6.745750e-04
-6.745740e-04
-2.037320e-04
-2.037310e-04
-6.745740e-04
-6.745740e-04
-2.037320e-04
-2.037320e-04
-6.745740e-04
-6.745740e-04
-2.037310e-04
-2.037300e-04
-2.037330e-04
-2.037320e-04
-2.999440e-04
-2.999440e-04
-2.037320e-04
-2.037310e-04
-2.999440e-04
-2.999440e-04
-2.037320e-04
-2.037320e-04
-2.999440e-04
-2.999440e-04
-2.037310e-04
-2.037300e-04
-2.999440e-04
-2.999440e-04
-2.999440e-04
-2.999440e-04
-4.695620e-04
-4.695620e-04
-2.999440e-04
-2.999440e-04
-4.695620e-04
-4.695620e-04
-2.999440e-04
-2.999440e-04
-4.695620e-04
-4.695620e-04
-2.999440e-04
-2.999440e-04
-4.695620e-04
-4.695620e-04
-4.695620e-04
-4.695620e-04
-1.582830e-04
-1.582840e-04
-4.695620e-04
-4.695620e-04
-1.582830e-04
-1.582840e-04
-4.695620e-04
-4.695620e-04
-1.582840e-04
-1.582860e-04
-4.695620e-04
-4.695620e-04
-1.582840e-04
-1.582850e-04
-1.582830e-04
-1.582840e-04
-9.291770e-05
-9.291750e-05
-1.582830e-04
-1.582840e-04
-9.291760e-05
-9.291740e-05
-1.582840e-04
-1.582860e-04
-9.291750e-05
-9.291720e-05
-1.582840e-04
-1.582850e-04
-9.291740e-05
-9.291720e-05
-9.291770e-05
-9.291750e-05
-4.962170e-05
-4.962130e-05
-9.291760e-05
-9.291740e-05
-4.962120e-05
-4.962120e-05
-9.291750e-05
-9.291720e-05
-4.962130e-05
-4.962070e-05
-9.291740e-05
-9.291720e-05
-4.962120e-05
-4.962100e-05
-4.962170e-05
-4.962130e-05
-3.025310e-05
-3.025380e-05
-4.962120e-05
-4.962120e-05
-3.025320e-05
-3.025350e-05
-4.962130e-05
-4.962070e-05
-3.025380e-05
-3.025300e-05
-4.962120e-05
-4.962100e-05
-3.025350e-05
-3.025320e-05
-3.025310e-05
-3.025380e-05
2.027490e-05
2.027480e-05
-3.025320e-05
-3.025350e-05
2.027470e-05
2.027440e-05
-3.025380e-05
-3.025300e-05
2.027480e-05
2.027530e-05
-3.025350e-05
-3.025320e-05
2.027440e-05
2.027490e-05
2.027490e-05
2.027480e-05
1.153070e-04
1.153070e-04
2.027470e-05
2.027440e-05
1.153070e-04
1.153070e-04
2.027480e-05
2.027530e-05
1.153070e-04
1.153070e-04
2.027440e-05
2.027490e-05
1.153070e-04
1.153070e-04
1.153070e-04
1.153070e-04
1.351050e-04
1.351040e-04
1.153070e-04
1.153070e-04
1.351040e-04
1.351040e-04
1.153070e-04
1.153070e-04
1.351040e-04
1.351050e-04
1.153070e-04
1.153070e-04
1.351040e-04
1.351040e-04
1.351050e-04
1.351040e-04
3.051630e-04
3.051630e-04
1.351040e-04
1.351040e-04
3.051630e-04
3.051630e-04
1.351040e-04
1.351050e-04
3.051630e-04
3.051630e-04
1.351040e-04
1.351040e-04
3.051630e-04
3.051630e-04
0.000000e+00
0.000000e+00
1.204060e-02
1.204060e-02
0.000000e+00
0.000000e+00
1.204060e-02
1.204060e-02
0.000000e+00
0.000000e+00
1.204060e-02
1.204060e-02
0.000000e+00
0.000000e+00
1.204060e-02
1.204060e-02
1.204060e-02
1.204060e-02
2.670850e-02
2.670850e-02
1.204060e-02
1.204060e-02
2.670850e-02
2.670850e-02
1.204060e-02
1.204060e-02
2.670850e-02
2.670850e-02
1.204060e-02
1.204060e-02
2.670850e-02
2.670850e-02
2.670850e-02
2.670850e-02
4.146940e-02
4.146940e-02
2.670850e-02
2.670850e-02
4.146940e-02
4.146940e-02
2.670850e-02
2.670850e-02
4.146940e-02
4.146940e-02