<?xml version="1.0"?>
<!-- time 46.83-->
<VTKFile type="UnstructuredGrid" version="0.1" byte_order="LittleEndian">
<UnstructuredGrid>
<Piece NumberOfPoints="3240" NumberOfCells="0">
<Points>
  <DataArray type="Float32" Name="Position" NumberOfComponents="3" format="ascii">
	-333.333 2066.34 -333.333
	-333.333 2066.34 -200
	-333.333 2066.34 -66.6667
	-333.333 2066.34 66.6667
	-333.333 2066.34 200
	-333.333 2066.34 333.333
	-200 2066.34 -333.333
	-200 2066.34 -200
	-200 2066.34 -66.6667
	-200 2066.34 66.6667
	-200 2066.34 200
	-200 2066.34 333.333
	-66.6667 2066.34 -333.333
	-66.6667 2066.34 -200
	-66.6667 2066.34 -66.6667
	-66.6667 2066.34 66.6667
	-66.6667 2066.34 200
	-66.6667 2066.34 333.333
	66.6667 2066.34 -333.333
	66.6667 2066.34 -200
	66.6667 2066.34 -66.6667
	66.6667 2066.34 66.6667
	66.6667 2066.34 200
	66.6667 2066.34 333.333
	200 2066.34 -333.333
	200 2066.34 -200
	200 2066.34 -66.6667
	200 2066.34 66.6667
	200 2066.34 200
	200 2066.34 333.333
	333.333 2066.34 -333.333
	333.333 2066.34 -200
	333.333 2066.34 -66.6667
	333.333 2066.34 66.6667
	333.333 2066.34 200
	333.333 2066.34 333.333
	-333.333 2199.7 -333.333
	-333.333 2199.7 -200
	-333.333 2199.7 -66.6667
	-333.333 2199.7 66.6667
	-333.333 2199.7 200
	-333.333 2199.7 333.333
	-200 2199.7 -333.333
	-200 2199.7 -200
	-200 2199.7 -66.6667
	-200 2199.7 66.6667
	-200 2199.7 200
	-200 2199.7 333.333
	-66.6667 2199.7 -333.333
	-66.6667 2199.7 -200
	-66.6667 2199.7 -66.6667
	-66.6667 2199.7 66.6667
	-66.6667 2199.7 200
	-66.6667 2199.7 333.333
	66.6667 2199.7 -333.333
	66.6667 2199.7 -200
	66.6667 2199.7 -66.6667
	66.6667 2199.7 66.6667
	66.6667 2199.7 200
	66.6667 2199.7 333.333
	200 2199.7 -333.333
	200 2199.7 -200
	200 2199.7 -66.6667
	200 2199.7 66.6667
	200 2199.7 200
	200 2199.7 333.333
	333.333 2199.7 -333.333
	333.333 2199.7 -200
	333.333 2199.7 -66.6667
	333.333 2199.7 66.6667
	333.333 2199.7 200
	333.333 2199.7 333.333
	-333.333 2333.03 -333.333
	-333.333 2333.03 -200
	-333.333 2333.03 -66.6667
	-333.333 2333.03 66.6667
	-333.333 2333.03 200
	-333.333 2333.03 333.333
	-200 2333.03 -333.333
	-200 2333.03 -200
	-200 2333.03 -66.6667
	-200 2333.03 66.6667
	-200 2333.03 200
	-200 2333.03 333.333
	-66.6667 2333.03 -333.333
	-66.6667 2333.03 -200
	-66.6667 2333.03 -66.6667
	-66.6667 2333.03 66.6667
	-66.6667 2333.03 200
	-66.6667 2333.03 333.333
	66.6667 2333.03 -333.333
	66.6667 2333.03 -200
	66.6667 2333.03 -66.6667
	66.6667 2333.03 66.6667
	66.6667 2333.03 200
	66.6667 2333.03 333.333
	200 2333.03 -333.333
	200 2333.03 -200
	200 2333.03 -66.6667
	200 2333.03 66.6667
	200 2333.03 200
	200 2333.03 333.333
	333.333 2333.03 -333.333
	333.333 2333.03 -200
	333.333 2333.03 -66.6667
	333.333 2333.03 66.6667
	333.333 2333.03 200
	333.333 2333.03 333.333
	-333.333 2466.36 -333.333
	-333.333 2466.36 -200
	-333.333 2466.36 -66.6667
	-333.333 2466.36 66.6667
	-333.333 2466.36 200
	-333.333 2466.36 333.333
	-200 2466.36 -333.333
	-200 2466.36 -200
	-200 2466.36 -66.6667
	-200 2466.36 66.6667
	-200 2466.36 200
	-200 2466.36 333.333
	-66.6667 2466.36 -333.333
	-66.6667 2466.36 -200
	-66.6667 2466.36 -66.6667
	-66.6667 2466.36 66.6667
	-66.6667 2466.36 200
	-66.6667 2466.36 333.333
	66.6667 2466.36 -333.333
	66.6667 2466.36 -200
	66.6667 2466.36 -66.6667
	66.6667 2466.36 66.6667
	66.6667 2466.36 200
	66.6667 2466.36 333.333
	200 2466.36 -333.333
	200 2466.36 -200
	200 2466.36 -66.6667
	200 2466.36 66.6667
	200 2466.36 200
	200 2466.36 333.333
	333.333 2466.36 -333.333
	333.333 2466.36 -200
	333.333 2466.36 -66.6667
	333.333 2466.36 66.6667
	333.333 2466.36 200
	333.333 2466.36 333.333
	-333.333 2599.7 -333.333
	-333.333 2599.7 -200
	-333.333 2599.7 -66.6667
	-333.333 2599.7 66.6667
	-333.333 2599.7 200
	-333.333 2599.7 333.333
	-200 2599.7 -333.333
	-200 2599.7 -200
	-200 2599.7 -66.6667
	-200 2599.7 66.6667
	-200 2599.7 200
	-200 2599.7 333.333
	-66.6667 2599.7 -333.333
	-66.6667 2599.7 -200
	-66.6667 2599.7 -66.6667
	-66.6667 2599.7 66.6667
	-66.6667 2599.7 200
	-66.6667 2599.7 333.333
	66.6667 2599.7 -333.333
	66.6667 2599.7 -200
	66.6667 2599.7 -66.6667
	66.6667 2599.7 66.6667
	66.6667 2599.7 200
	66.6667 2599.7 333.333
	200 2599.7 -333.333
	200 2599.7 -200
	200 2599.7 -66.6667
	200 2599.7 66.6667
	200 2599.7 200
	200 2599.7 333.333
	333.333 2599.7 -333.333
	333.333 2599.7 -200
	333.333 2599.7 -66.6667
	333.333 2599.7 66.6667
	333.333 2599.7 200
	333.333 2599.7 333.333
	-333.333 2733.03 -333.333
	-333.333 2733.03 -200
	-333.333 2733.03 -66.6667
	-333.333 2733.03 66.6667
	-333.333 2733.03 200
	-333.333 2733.03 333.333
	-200 2733.03 -333.333
	-200 2733.03 -200
	-200 2733.03 -66.6667
	-200 2733.03 66.6667
	-200 2733.03 200
	-200 2733.03 333.333
	-66.6667 2733.03 -333.333
	-66.6667 2733.03 -200
	-66.6667 2733.03 -66.6667
	-66.6667 2733.03 66.6667
	-66.6667 2733.03 200
	-66.6667 2733.03 333.333
	66.6667 2733.03 -333.333
	66.6667 2733.03 -200
	66.6667 2733.03 -66.6667
	66.6667 2733.03 66.6667
	66.6667 2733.03 200
	66.6667 2733.03 333.333
	200 2733.03 -333.333
	200 2733.03 -200
	200 2733.03 -66.6667
	200 2733.03 66.6667
	200 2733.03 200
	200 2733.03 333.333
	333.333 2733.03 -333.333
	333.333 2733.03 -200
	333.333 2733.03 -66.6667
	333.333 2733.03 66.6667
	333.333 2733.03 200
	333.333 2733.03 333.333
	-333.333 2866.36 -333.333
	-333.333 2866.36 -200
	-333.333 2866.36 -66.6667
	-333.333 2866.36 66.6667
	-333.333 2866.36 200
	-333.333 2866.36 333.333
	-200 2866.36 -333.333
	-200 2866.36 -200
	-200 2866.36 -66.6667
	-200 2866.36 66.6667
	-200 2866.36 200
	-200 2866.36 333.333
	-66.6667 2866.36 -333.333
	-66.6667 2866.36 -200
	-66.6667 2866.36 -66.6667
	-66.6667 2866.36 66.6667
	-66.6667 2866.36 200
	-66.6667 2866.36 333.333
	66.6667 2866.36 -333.333
	66.6667 2866.36 -200
	66.6667 2866.36 -66.6667
	66.6667 2866.36 66.6667
	66.6667 2866.36 200
	66.6667 2866.36 333.333
	200 2866.36 -333.333
	200 2866.36 -200
	200 2866.36 -66.6667
	200 2866.36 66.6667
	200 2866.36 200
	200 2866.36 333.333
	333.333 2866.36 -333.333
	333.333 2866.36 -200
	333.333 2866.36 -66.6667
	333.333 2866.36 66.6667
	333.333 2866.36 200
	333.333 2866.36 333.333
	-333.333 2999.69 -333.333
	-333.333 2999.69 -200
	-333.333 2999.69 -66.6667
	-333.333 2999.69 66.6667
	-333.333 2999.69 200
	-333.333 2999.69 333.333
	-200 2999.69 -333.333
	-200 2999.69 -200
	-200 2999.69 -66.6667
	-200 2999.69 66.6667
	-200 2999.69 200
	-200 2999.69 333.333
	-66.6667 2999.69 -333.333
	-66.6667 2999.69 -200
	-66.6667 2999.69 -66.6667
	-66.6667 2999.69 66.6667
	-66.6667 2999.69 200
	-66.6667 2999.69 333.333
	66.6667 2999.69 -333.333
	66.6667 2999.69 -200
	66.6667 2999.69 -66.6667
	66.6667 2999.69 66.6667
	66.6667 2999.69 200
	66.6667 2999.69 333.333
	200 2999.69 -333.333
	200 2999.69 -200
	200 2999.69 -66.6667
	200 2999.69 66.6667
	200 2999.69 200
	200 2999.69 333.333
	333.333 2999.69 -333.333
	333.333 2999.69 -200
	333.333 2999.69 -66.6667
	333.333 2999.69 66.6667
	333.333 2999.69 200
	333.333 2999.69 333.333
	-333.333 3133.02 -333.333
	-333.333 3133.02 -200
	-333.333 3133.02 -66.6667
	-333.333 3133.02 66.6667
	-333.333 3133.02 200
	-333.333 3133.02 333.333
	-200 3133.02 -333.333
	-200 3133.02 -200
	-200 3133.02 -66.6667
	-200 3133.02 66.6667
	-200 3133.02 200
	-200 3133.02 333.333
	-66.6667 3133.02 -333.333
	-66.6667 3133.02 -200
	-66.6667 3133.02 -66.6667
	-66.6667 3133.02 66.6667
	-66.6667 3133.02 200
	-66.6667 3133.02 333.333
	66.6667 3133.02 -333.333
	66.6667 3133.02 -200
	66.6667 3133.02 -66.6667
	66.6667 3133.02 66.6667
	66.6667 3133.02 200
	66.6667 3133.02 333.333
	200 3133.02 -333.333
	200 3133.02 -200
	200 3133.02 -66.6667
	200 3133.02 66.6667
	200 3133.02 200
	200 3133.02 333.333
	333.333 3133.02 -333.333
	333.333 3133.02 -200
	333.333 3133.02 -66.6667
	333.333 3133.02 66.6667
	333.333 3133.02 200
	333.333 3133.02 333.333
	-333.333 3266.35 -333.333
	-333.333 3266.35 -200
	-333.333 3266.35 -66.6667
	-333.333 3266.35 66.6667
	-333.333 3266.35 200
	-333.333 3266.35 333.333
	-200 3266.35 -333.333
	-200 3266.35 -200
	-200 3266.35 -66.6667
	-200 3266.35 66.6667
	-200 3266.35 200
	-200 3266.35 333.333
	-66.6667 3266.35 -333.333
	-66.6667 3266.35 -200
	-66.6667 3266.35 -66.6667
	-66.6667 3266.35 66.6667
	-66.6667 3266.35 200
	-66.6667 3266.35 333.333
	66.6667 3266.35 -333.333
	66.6667 3266.35 -200
	66.6667 3266.35 -66.6667
	66.6667 3266.35 66.6667
	66.6667 3266.35 200
	66.6667 3266.35 333.333
	200 3266.35 -333.333
	200 3266.35 -200
	200 3266.35 -66.6667
	200 3266.35 66.6667
	200 3266.35 200
	200 3266.35 333.333
	333.333 3266.35 -333.333
	333.333 3266.35 -200
	333.333 3266.35 -66.6667
	333.333 3266.35 66.6667
	333.333 3266.35 200
	333.333 3266.35 333.333
	-333.333 3399.69 -333.333
	-333.333 3399.69 -200
	-333.333 3399.69 -66.6667
	-333.333 3399.69 66.6667
	-333.333 3399.69 200
	-333.333 3399.69 333.333
	-200 3399.69 -333.333
	-200 3399.69 -200
	-200 3399.69 -66.6667
	-200 3399.69 66.6667
	-200 3399.69 200
	-200 3399.69 333.333
	-66.6667 3399.69 -333.333
	-66.6667 3399.69 -200
	-66.6667 3399.69 -66.6667
	-66.6667 3399.69 66.6667
	-66.6667 3399.69 200
	-66.6667 3399.69 333.333
	66.6667 3399.69 -333.333
	66.6667 3399.69 -200
	66.6667 3399.69 -66.6667
	66.6667 3399.69 66.6667
	66.6667 3399.69 200
	66.6667 3399.69 333.333
	200 3399.69 -333.333
	200 3399.69 -200
	200 3399.69 -66.6667
	200 3399.69 66.6667
	200 3399.69 200
	200 3399.69 333.333
	333.333 3399.69 -333.333
	333.333 3399.69 -200
	333.333 3399.69 -66.6667
	333.333 3399.69 66.6667
	333.333 3399.69 200
	333.333 3399.69 333.333
	-333.333 3533.02 -333.333
	-333.333 3533.02 -200
	-333.333 3533.02 -66.6667
	-333.333 3533.02 66.6667
	-333.333 3533.02 200
	-333.333 3533.02 333.333
	-200 3533.02 -333.333
	-200 3533.02 -200
	-200 3533.02 -66.6667
	-200 3533.02 66.6667
	-200 3533.02 200
	-200 3533.02 333.333
	-66.6667 3533.02 -333.333
	-66.6667 3533.02 -200
	-66.6667 3533.02 -66.6667
	-66.6667 3533.02 66.6667
	-66.6667 3533.02 200
	-66.6667 3533.02 333.333
	66.6667 3533.02 -333.333
	66.6667 3533.02 -200
	66.6667 3533.02 -66.6667
	66.6667 3533.02 66.6667
	66.6667 3533.02 200
[...]
<PointData  Vectors="vector">
  <DataArray type="Float32" Name="Velocity" NumberOfComponents="3" format="ascii">
 -1.61005e-11 -0.0291093 -1.27318e-11
 -1.26666e-11 -0.0291093 1.80852e-11
 -2.31916e-11 -0.0291093 -9.38529e-12
 -1.58647e-11 -0.0291093 -3.62332e-12
 -1.01137e-11 -0.0291093 -1.35773e-11
 -8.06867e-12 -0.0291093 1.23947e-11
 1.16701e-11 -0.0291093 -1.4409e-11
 9.0639e-12 -0.0291093 1.19769e-11
 4.15137e-12 -0.0291093 -3.09036e-12
 1.48311e-11 -0.0291093 -8.57165e-12
 1.56016e-11 -0.0291093 -1.16985e-11
 1.60246e-11 -0.0291093 8.25071e-12
 2.28934e-11 -0.0291093 -2.08202e-11
 3.2283e-12 -0.0291093 7.46613e-12
 1.80212e-13 -0.0291093 1.772e-12
 1.40124e-11 -0.0291093 -1.45364e-11
 1.95855e-11 -0.0291093 -1.27899e-11
 2.45309e-11 -0.0291093 1.26664e-11
 -5.10165e-12 -0.0291093 -1.6151e-11
 -7.18515e-12 -0.0291093 1.96857e-11
 -2.27961e-11 -0.0291093 1.37022e-11
 -6.28568e-12 -0.0291093 4.9638e-12
 -3.57703e-13 -0.0291093 -4.10063e-12
 7.56343e-12 -0.0291093 1.61275e-11
 1.61127e-11 -0.0291093 -2.40136e-11
 4.33789e-12 -0.0291093 1.73212e-11
 7.62769e-12 -0.0291093 5.23881e-13
 2.16299e-11 -0.0291093 1.20997e-11
 1.82346e-11 -0.0291093 -6.8599e-12
 1.63991e-11 -0.0291093 2.07521e-11
 2.01459e-11 -0.0291093 -3.02734e-11
 1.7975e-11 -0.0291093 3.60322e-12
 1.39187e-11 -0.0291093 1.5802e-11
 1.15338e-11 -0.0291093 -5.05147e-12
 8.71403e-12 -0.0291093 -8.01367e-12
 7.01921e-12 -0.0291093 2.93471e-11
 -1.98933e-11 -0.00577336 -3.07303e-11
 -9.97499e-12 -0.00577336 1.95278e-11
 -7.69065e-12 -0.00577336 1.11042e-11
 -3.62323e-12 -0.00577336 1.95755e-11
 -3.84721e-12 -0.00577336 -5.80594e-12
 -5.31124e-12 -0.00577336 1.49234e-11
 2.41911e-11 -0.00577336 -2.84144e-11
 1.66421e-11 -0.00577336 1.31519e-11
 9.41363e-12 -0.00577336 8.01077e-12
 1.25893e-11 -0.00577336 9.41236e-12
 1.0588e-11 -0.00577336 -8.37006e-12
 7.91333e-12 -0.00577336 1.27951e-11
 4.28447e-11 -0.00577336 -2.73356e-11
 2.01882e-11 -0.00577336 9.20691e-12
 8.22088e-12 -0.00577336 -1.8455e-12
 9.71654e-12 -0.00577336 4.39227e-12
 1.04632e-11 -0.00577336 -1.05103e-11
 5.26777e-12 -0.00577336 1.06677e-11
 2.40326e-11 -0.00577336 -2.53169e-11
 1.54907e-11 -0.00577336 1.59128e-11
 4.82597e-12 -0.00577336 -8.15051e-15
 8.91018e-12 -0.00577336 9.03227e-12
 -2.29924e-13 -0.00577336 -6.35659e-12
 -2.20083e-12 -0.00577336 1.50491e-11
 4.18344e-11 -0.00577336 -3.07648e-11
 8.34458e-12 -0.00577336 1.1062e-11
 -1.10278e-12 -0.00577336 -7.52642e-12
 1.19057e-11 -0.00577336 1.47416e-12
 1.02738e-11 -0.00577336 -1.14881e-11
 8.08222e-12 -0.00577336 1.63815e-11
 -1.50395e-11 -0.00577336 -1.09612e-11
 9.17094e-12 -0.00577336 -1.66283e-11
 8.07952e-12 -0.00577336 -1.05417e-11
 5.8562e-12 -0.00577336 -1.9442e-11
 5.02183e-12 -0.00577336 -1.79081e-11
 5.43502e-12 -0.00577336 2.54545e-11
 -2.13821e-11 -0.00983198 -3.49819e-11
 -1.27624e-11 -0.00983198 2.54017e-11
 -7.66623e-12 -0.00983198 1.82908e-11
 -9.47866e-12 -0.00983198 3.03837e-11
 -1.07356e-11 -0.00983198 -1.96574e-13
 -1.27439e-11 -0.00983198 2.28785e-11
 2.15557e-11 -0.00983198 -3.01197e-11
 1.38633e-11 -0.00983198 1.87918e-11
 7.31492e-12 -0.00983198 7.15316e-12
 5.90431e-12 -0.00983198 1.50976e-11
 2.72057e-12 -0.00983198 -4.13329e-12
 -1.63081e-12 -0.00983198 2.11287e-11
 5.95552e-11 -0.00983198 -1.77508e-11
 4.05969e-11 -0.00983198 8.001e-12
 2.89879e-11 -0.00983198 -8.23316e-12
 2.37807e-11 -0.00983198 2.82955e-13
 1.04318e-11 -0.00983198 -7.30078e-12
 -3.43424e-12 -0.00983198 1.90498e-11
 5.38603e-11 -0.00983198 -2.38144e-11
 3.05469e-11 -0.00983198 5.25085e-12
 1.54204e-11 -0.00983198 -4.60758e-12
 1.31833e-11 -0.00983198 -4.27232e-12
 4.68961e-12 -0.00983198 -8.60814e-12
 -4.61986e-12 -0.00983198 2.12903e-11
 3.46043e-11 -0.00983198 -9.14421e-12
 3.88148e-11 -0.00983198 -1.61342e-11
 2.84464e-11 -0.00983198 -1.53657e-11
 2.86531e-11 -0.00983198 -1.93485e-11
 1.50462e-11 -0.00983198 -1.53786e-11
 5.90014e-13 -0.00983198 1.83718e-11
 -7.32415e-12 -0.00983198 5.35972e-12
 -1.11557e-11 -0.00983198 -3.63522e-11
 -1.35545e-11 -0.00983198 -2.05715e-11
 -1.17159e-11 -0.00983198 -4.51555e-11
 -7.04135e-12 -0.00983198 -2.33984e-11
 1.73863e-12 -0.00983198 2.08829e-11
 -1.12455e-11 -0.00995047 -4.09986e-11
 -3.51552e-12 -0.00995047 2.05268e-11
 -1.54206e-12 -0.00995047 4.86838e-12
 1.30796e-12 -0.00995047 2.09638e-11
 -2.11076e-12 -0.00995047 -5.85538e-12
 -4.98562e-12 -0.00995047 1.65005e-11
 2.81849e-11 -0.00995047 -3.72024e-11
 2.23122e-11 -0.00995047 1.26521e-11
 1.81492e-11 -0.00995047 -9.58838e-12
 1.72203e-11 -0.00995047 6.13425e-12
 1.10295e-11 -0.00995047 -1.10454e-11
 4.29347e-12 -0.00995047 1.34245e-11
 6.46565e-11 -0.00995047 -2.9855e-11
 4.71858e-11 -0.00995047 1.18084e-12
 2.73842e-11 -0.00995047 -2.41765e-11
 2.46336e-11 -0.00995047 -8.00042e-12
 1.12273e-11 -0.00995047 -1.68626e-11
 -5.35799e-12 -0.00995047 1.04632e-11
 5.91426e-11 -0.00995047 -2.79877e-11
 3.41183e-11 -0.00995047 -1.49205e-12
 2.57913e-11 -0.00995047 -2.36773e-11
 2.64242e-11 -0.00995047 -9.76986e-12
 1.55388e-11 -0.00995047 -1.688e-11
 5.02019e-12 -0.00995047 1.46019e-11
 4.58377e-11 -0.00995047 -1.44367e-11
 4.66409e-11 -0.00995047 -2.69784e-11
 3.65869e-11 -0.00995047 -3.11918e-11
 3.42524e-11 -0.00995047 -2.91605e-11
 1.86563e-11 -0.00995047 -2.40718e-11
 -9.75685e-13 -0.00995047 1.14666e-11
 -1.16789e-12 -0.00995047 3.87425e-12
 -3.95977e-12 -0.00995047 -6.09896e-11
 -6.22243e-12 -0.00995047 -3.49539e-11
 -1.51254e-12 -0.00995047 -5.26194e-11
 1.42108e-13 -0.00995047 -3.11569e-11
 8.64473e-12 -0.00995047 1.2293e-11
 -6.91197e-12 -0.00792643 -9.09429e-12
 -4.51078e-12 -0.00792643 1.78962e-11
 -3.26165e-12 -0.00792643 2.6851e-11
 -1.67257e-12 -0.00792643 2.75103e-11
 -3.02836e-12 -0.00792643 4.89321e-12
 -2.50763e-12 -0.00792643 5.17811e-12
 1.17577e-11 -0.00792643 -9.1859e-12
 6.77087e-12 -0.00792643 1.58023e-11
 3.08372e-12 -0.00792643 1.29604e-11
 2.79522e-12 -0.00792643 2.0098e-11
 6.37203e-13 -0.00792643 -1.79668e-12
 -5.18347e-12 -0.00792643 6.10808e-12
 3.65153e-11 -0.00792643 -8.76745e-12
 2.56249e-11 -0.00792643 8.1556e-12
 1.3485e-11 -0.00792643 3.56633e-12
 1.44186e-11 -0.00792643 7.57666e-12
 2.18613e-12 -0.00792643 -3.89341e-12
 -1.18788e-11 -0.00792643 8.1047e-12
 1.96284e-11 -0.00792643 -5.74109e-12
 1.25572e-11 -0.00792643 7.27837e-12
 4.66898e-12 -0.00792643 2.57176e-12
 6.30773e-12 -0.00792643 8.25919e-12
 -3.17733e-12 -0.00792643 -2.38156e-12
 -8.03434e-12 -0.00792643 1.03544e-11
 3.47641e-11 -0.00792643 5.70738e-12
 2.29985e-11 -0.00792643 -1.42392e-11
 1.33609e-11 -0.00792643 -4.79226e-12
 9.90762e-12 -0.00792643 -6.158e-12
 5.17265e-12 -0.00792643 -6.25454e-12
 2.8145e-13 -0.00792643 9.00425e-12
 -2.48872e-12 -0.00792643 9.90921e-12
 -4.84509e-12 -0.00792643 -3.21061e-11
 -7.40598e-12 -0.00792643 -1.21927e-11
 -2.00293e-12 -0.00792643 -1.80345e-11
 -3.2841e-12 -0.00792643 -1.12664e-11
 -5.42149e-12 -0.00792643 9.88973e-12
 -7.62983e-12 -0.00417637 2.67872e-12
 -4.90753e-12 -0.00417637 1.81455e-11
 -4.26298e-12 -0.00417637 3.60506e-11
 -8.42052e-12 -0.00417637 2.80593e-11
 -6.45446e-12 -0.00417637 3.06398e-11
 -4.38321e-12 -0.00417637 1.96367e-12
 3.37695e-13 -0.00417637 3.37285e-12
 -4.02459e-12 -0.00417637 2.14298e-11
 -8.15717e-12 -0.00417637 2.96784e-11
 -3.94315e-12 -0.00417637 2.78203e-11
 -5.86723e-12 -0.00417637 1.01495e-11
 -1.46786e-11 -0.00417637 5.4162e-12
 1.52147e-11 -0.00417637 9.56256e-12
 2.11714e-13 -0.00417637 1.04017e-11
 -9.44009e-12 -0.00417637 1.81206e-11
 -6.25168e-12 -0.00417637 2.02039e-11
 -1.27878e-11 -0.00417637 1.65635e-11
 -1.27817e-11 -0.00417637 3.34324e-12
 -1.91993e-12 -0.00417637 1.26783e-11
 -5.05899e-12 -0.00417637 1.07379e-11
 -9.83102e-12 -0.00417637 1.91801e-11
 -7.95193e-12 -0.00417637 2.27503e-11
 -6.95997e-12 -0.00417637 1.46654e-11
 -1.70463e-11 -0.00417637 6.51061e-12
 1.92968e-11 -0.00417637 1.11256e-11
 1.12797e-11 -0.00417637 3.10074e-12
 1.78513e-12 -0.00417637 1.2904e-11
 -7.66784e-13 -0.00417637 1.77331e-11
 -1.14019e-11 -0.00417637 6.97893e-12
 -1.13517e-11 -0.00417637 6.94321e-12
 -3.23145e-12 -0.00417637 8.90156e-12
 -3.97187e-12 -0.00417637 -4.30487e-12
 -5.11035e-12 -0.00417637 5.51345e-12
 9.41281e-13 -0.00417637 8.64477e-12
 -1.33516e-12 -0.00417637 3.59819e-12
 -2.97536e-12 -0.00417637 8.69644e-12
 -7.20113e-12 -0.00310729 -4.03043e-12
 -3.44048e-12 -0.00310729 7.92571e-12
 -4.59318e-12 -0.00310729 1.20818e-11
 -7.33217e-12 -0.00310729 1.3032e-11
 -5.08243e-12 -0.00310729 1.64063e-11
 -5.00339e-12 -0.00310729 -7.08814e-12
 -3.6973e-14 -0.00310729 -1.84714e-12
 -3.56234e-12 -0.00310729 6.72916e-12
 -3.63895e-12 -0.00310729 1.16368e-11
 -2.18741e-12 -0.00310729 6.48239e-12
 -5.16157e-12 -0.00310729 5.90483e-12
 -6.69838e-12 -0.00310729 -4.30207e-12
 9.45615e-12 -0.00310729 -2.59172e-12
 -2.69578e-13 -0.00310729 1.70686e-12
 -3.893e-12 -0.00310729 4.97469e-12
 -3.11095e-12 -0.00310729 6.68705e-12
 -9.34267e-12 -0.00310729 3.23521e-12
 -5.7547e-12 -0.00310729 -3.13284e-12
 -3.96987e-12 -0.00310729 -1.71104e-12
 -4.62436e-12 -0.00310729 2.85068e-12
 -5.57677e-12 -0.00310729 3.72464e-12
 -4.99257e-12 -0.00310729 8.768e-12
 -4.81253e-12 -0.00310729 3.5731e-12
 -1.47147e-11 -0.00310729 -3.15793e-12
 1.73853e-11 -0.00310729 -2.52842e-12
 9.88488e-12 -0.00310729 -4.881e-12
 -1.25248e-12 -0.00310729 1.39683e-12
 -1.89461e-12 -0.00310729 4.88403e-12
 -6.16413e-12 -0.00310729 -1.79508e-13
 -8.84562e-12 -0.00310729 -7.42217e-13
 3.96179e-13 -0.00310729 -2.25898e-12
 5.22699e-13 -0.00310729 -9.48321e-12
 -5.16054e-14 -0.00310729 1.41728e-12
 3.84435e-12 -0.00310729 -6.45566e-12
 3.05058e-12 -0.00310729 -3.31202e-12
 1.66057e-12 -0.00310729 1.94277e-12
 -6.0731e-12 -0.00501364 -7.91751e-12
 -2.9114e-12 -0.00501364 8.90084e-12
 -1.45622e-12 -0.00501364 8.10291e-12
 -1.72026e-12 -0.00501364 1.56234e-11
 -2.16151e-12 -0.00501364 8.94817e-12
 -3.42768e-13 -0.00501364 5.42958e-12
 2.53715e-12 -0.00501364 -4.81201e-12
 -1.69102e-12 -0.00501364 7.56968e-12
 -4.52254e-12 -0.00501364 7.67578e-12
 -4.28223e-12 -0.00501364 3.62462e-12
 -6.39581e-12 -0.00501364 2.49637e-13
 -5.52253e-12 -0.00501364 1.24525e-11
 -2.72017e-12 -0.00501364 -3.61425e-12
 -3.70078e-12 -0.00501364 5.60191e-12
 -4.47325e-12 -0.00501364 -3.8687e-13
 -2.13086e-12 -0.00501364 -8.65558e-13
 -4.46594e-12 -0.00501364 4.81394e-12
 -9.86846e-12 -0.00501364 8.88361e-12
 -1.71055e-12 -0.00501364 -2.07283e-12
 -5.97754e-12 -0.00501364 7.32766e-12
 -1.78113e-13 -0.00501364 5.05592e-12
 -7.00557e-13 -0.00501364 -4.80032e-13
 -5.02825e-12 -0.00501364 4.561e-12
 -1.14587e-11 -0.00501364 8.55968e-12
 1.27733e-11 -0.00501364 -2.02667e-12
 7.03103e-12 -0.00501364 5.1667e-12
 -6.8881e-12 -0.00501364 -1.06527e-12
 -4.27078e-12 -0.00501364 4.06056e-12
 -5.89862e-12 -0.00501364 2.1702e-12
 -6.98864e-12 -0.00501364 3.81951e-12
 -1.06796e-12 -0.00501364 -3.29538e-12
 -4.85008e-13 -0.00501364 4.39147e-13
 -1.69103e-12 -0.00501364 1.70556e-12
 2.5795e-12 -0.00501364 -5.7366e-13
 2.28313e-12 -0.00501364 2.28951e-12
 1.37465e-12 -0.00501364 7.34249e-13
 -4.63465e-12 -0.00615966 -9.5983e-12
 -4.65069e-13 -0.00615966 8.34292e-12
 3.44482e-13 -0.00615966 4.27851e-12
 -2.24435e-13 -0.00615966 1.63784e-11
 -1.8482e-12 -0.00615966 2.59204e-12
 2.69953e-12 -0.00615966 1.76746e-11
 1.92812e-12 -0.00615966 -7.18239e-12
 -2.40637e-13 -0.00615966 8.11107e-12
 -5.9002e-12 -0.00615966 2.10132e-12
 -4.05123e-12 -0.00615966 9.43941e-12
 -6.10257e-13 -0.00615966 -4.0285e-12
 -7.99074e-12 -0.00615966 1.99653e-11
 -1.63193e-12 -0.00615966 -6.63217e-12
 -7.42746e-12 -0.00615966 6.63716e-12
 -7.1901e-12 -0.00615966 -1.36631e-12
 -2.43111e-12 -0.00615966 -1.47557e-12
 -4.87548e-12 -0.00615966 1.73904e-12
 -9.3518e-12 -0.00615966 1.82422e-11
 -6.69574e-12 -0.00615966 -3.49493e-12
 -5.84876e-12 -0.00615966 5.94687e-12
 -4.129e-12 -0.00615966 3.73781e-12
 -7.1309e-13 -0.00615966 9.45995e-13
 -7.24755e-12 -0.00615966 4.48308e-12
 -9.69729e-12 -0.00615966 1.81249e-11
 1.64687e-12 -0.00615966 -3.38765e-12
 3.81749e-12 -0.00615966 5.97932e-12
 -1.14872e-12 -0.00615966 1.59971e-12
 -1.40008e-12 -0.00615966 -2.37427e-12
 -4.58223e-12 -0.00615966 8.40491e-12
 -4.55796e-12 -0.00615966 1.27211e-11
 3.75574e-12 -0.00615966 -2.0405e-12
 -2.31986e-12 -0.00615966 6.14654e-12
 -1.31318e-12 -0.00615966 -2.64886e-12
 2.24518e-12 -0.00615966 3.8099e-13
 1.97702e-12 -0.00615966 7.66196e-12
 1.10035e-12 -0.00615966 6.64409e-12
 -6.66625e-12 -0.00552732 -9.33978e-12
 -2.50246e-12 -0.00552732 7.66605e-12
 -2.60436e-12 -0.00552732 3.65169e-12
 -3.13622e-12 -0.00552732 1.32049e-11
 -4.58098e-12 -0.00552732 3.76514e-12
 1.80888e-13 -0.00552732 1.52502e-11
 -1.17523e-12 -0.00552732 -5.72855e-12
 -4.47106e-12 -0.00552732 7.37659e-12
 -5.69971e-12 -0.00552732 2.39352e-12
 -5.43939e-12 -0.00552732 9.62069e-12
 -4.07877e-12 -0.00552732 -1.80817e-12
 -7.99393e-12 -0.00552732 1.72246e-11
 -7.61408e-12 -0.00552732 -5.45265e-12
 -7.94043e-12 -0.00552732 7.16901e-12
 -4.93708e-12 -0.00552732 2.74466e-13
 -3.8827e-12 -0.00552732 3.75739e-12
 -5.24325e-12 -0.00552732 -7.06475e-13
 -7.05941e-12 -0.00552732 1.89185e-11
 -6.30945e-12 -0.00552732 -4.18674e-12
 -7.09688e-12 -0.00552732 6.76357e-12
 -5.6157e-12 -0.00552732 6.47243e-13
 -4.86738e-12 -0.00552732 1.1915e-12
 -7.33467e-12 -0.00552732 4.23163e-12
 -9.59798e-12 -0.00552732 1.69268e-11
 5.14905e-12 -0.00552732 -3.80952e-12
 1.78731e-12 -0.00552732 7.27442e-12
 -2.84113e-12 -0.00552732 -3.72056e-14
 -3.35654e-12 -0.00552732 -8.82192e-14
 -4.95203e-12 -0.00552732 8.93106e-12
 -5.32149e-12 -0.00552732 1.25653e-11
 -3.46215e-12 -0.00552732 -2.36063e-12
 -1.57489e-12 -0.00552732 6.53326e-12
 -1.81847e-12 -0.00552732 -1.4659e-13
 -1.10106e-12 -0.00552732 2.17484e-12
 7.09893e-13 -0.00552732 8.18549e-12
 6.15501e-13 -0.00552732 9.70979e-12
 9.82869e-13 -0.0035096 -4.11528e-12
 8.74898e-13 -0.0035096 4.49162e-12
 7.66648e-13 -0.0035096 1.43762e-12
 1.16124e-12 -0.0035096 -2.37763e-13
 7.70771e-13 -0.0035096 -1.25352e-12
 -9.69742e-14 -0.0035096 1.03466e-11
 -3.76333e-12 -0.0035096 -5.13948e-12
 -4.66915e-12 -0.0035096 4.76086e-12
 -6.10092e-12 -0.0035096 1.03206e-12
 -5.51342e-12 -0.0035096 -1.63509e-12
 -7.0959e-12 -0.0035096 -4.66022e-13
 -6.81255e-12 -0.0035096 9.9915e-12
 -1.02357e-11 -0.0035096 -4.06899e-12
 -6.58113e-12 -0.0035096 2.93692e-12
 -7.24833e-12 -0.0035096 5.15026e-13
 -5.04544e-12 -0.0035096 -2.74064e-12
 -4.49037e-12 -0.0035096 1.27169e-12
 -6.91258e-12 -0.0035096 8.50374e-12
 -5.96863e-12 -0.0035096 -3.52954e-12
 -7.1145e-12 -0.0035096 4.05705e-12
 -6.62914e-12 -0.0035096 2.64924e-12
 -4.86434e-12 -0.0035096 -5.76319e-13
 -5.35977e-12 -0.0035096 1.39934e-12
 -3.63728e-12 -0.0035096 8.79726e-12
 -3.20269e-12 -0.0035096 -3.73472e-12
 -5.19826e-12 -0.0035096 4.7448e-12
 -4.9459e-12 -0.0035096 3.29571e-12
 -4.41833e-12 -0.0035096 1.22054e-12
 -3.24155e-12 -0.0035096 9.04315e-14
 -2.98003e-12 -0.0035096 7.39925e-12
 1.53861e-13 -0.0035096 -3.3777e-12
 7.7602e-14 -0.0035096 4.46546e-12
 9.68105e-13 -0.0035096 4.38004e-12
 1.88789e-12 -0.0035096 2.62845e-12
 1.5693e-12 -0.0035096 -1.05465e-13
 1.53588e-12 -0.0035096 5.24358e-12
 -7.13212e-13 -0.000612634 -1.67249e-12
 -6.18282e-13 -0.000612634 -1.32934e-12
 -5.23352e-13 -0.000612634 -1.79718e-12
 4.7818e-13 -0.000612634 -3.546e-12
 5.84081e-13 -0.000612634 -7.80008e-13
 5.14213e-13 -0.000612634 1.14937e-12
 -9.69078e-12 -0.000612634 -2.01997e-12
 -9.63821e-12 -0.000612634 -5.91265e-13
 -7.90369e-12 -0.000612634 -3.33695e-12
 -6.38758e-12 -0.000612634 -2.8351e-12
 -5.35367e-12 -0.000612634 1.40988e-13
 -6.28852e-12 -0.000612634 9.14707e-13
 -5.68692e-12 -0.000612634 -3.19968e-12
 -6.51135e-12 -0.000612634 -8.03413e-13
 -5.47723e-12 -0.000612634 -2.05016e-12
 -1.69163e-12 -0.000612634 -1.53718e-12
 -1.73396e-12 -0.000612634 -1.63479e-12
 -2.4552e-12 -0.000612634 1.74655e-12
 -8.69314e-12 -0.000612634 -2.97486e-12
 -7.33946e-12 -0.000612634 2.09272e-12
 -7.00779e-12 -0.000612634 9.2804e-13
 -4.91753e-12 -0.000612634 2.34676e-12
 -5.07274e-12 -0.000612634 -7.18659e-13
 -2.83148e-12 -0.000612634 1.00135e-12
 -2.74033e-12 -0.000612634 -3.4241e-12
 -2.94911e-12 -0.000612634 1.84758e-12
 -4.21534e-12 -0.000612634 1.44749e-12
 -2.27058e-12 -0.000612634 4.18114e-12
 -1.9234e-12 -0.000612634 3.0409e-12
 -1.73573e-12 -0.000612634 -3.43965e-12
 3.9364e-12 -0.000612634 -2.5943e-12
 3.79526e-12 -0.000612634 8.87904e-14
 2.19365e-12 -0.000612634 3.57358e-12
 1.95053e-12 -0.000612634 2.08764e-12
 1.70013e-12 -0.000612634 4.61122e-12
 2.03655e-12 -0.000612634 -3.13465e-12
 -9.70611e-13 -0.000128342 1.37007e-12
 -8.22035e-13 -0.000128342 -9.78632e-13
 -6.73459e-13 -0.000128342 2.07242e-12
 -1.02308e-12 -0.000128342 2.96487e-12
 -5.72751e-13 -0.000128342 6.61882e-13
 -1.90526e-13 -0.000128342 2.48295e-12
 -1.1613e-11 -0.000128342 1.43005e-13
 -1.10879e-11 -0.000128342 2.27003e-12
 -7.64543e-12 -0.000128342 4.02684e-12
 -7.18975e-12 -0.000128342 2.8865e-12
 -5.43456e-12 -0.000128342 -8.901e-14
 -4.48912e-12 -0.000128342 2.83019e-12
 -7.64954e-12 -0.000128342 7.07116e-13
 -7.81142e-12 -0.000128342 3.1215e-12
 -4.85379e-12 -0.000128342 3.23128e-12
 -3.44821e-12 -0.000128342 4.15076e-12
 -2.31709e-12 -0.000128342 4.07294e-12
 -3.98797e-12 -0.000128342 2.7644e-13
 -8.15587e-12 -0.000128342 4.27378e-13
 -6.38622e-12 -0.000128342 3.20492e-12
 -6.86302e-12 -0.000128342 4.40731e-12
 -6.60085e-12 -0.000128342 5.98056e-12
 -5.51544e-12 -0.000128342 3.37161e-12
 -2.19927e-12 -0.000128342 3.26874e-12
 -3.74506e-12 -0.000128342 -2.49191e-13
 -4.68337e-12 -0.000128342 4.09381e-12
 -4.77341e-12 -0.000128342 6.12495e-12
 -2.47246e-12 -0.000128342 5.6595e-12
 -2.41385e-12 -0.000128342 6.14322e-12
 -1.75833e-12 -0.000128342 1.17639e-12
 3.44066e-12 -0.000128342 -1.09352e-12
 4.25813e-12 -0.000128342 5.22889e-12
 4.37153e-13 -0.000128342 7.73268e-12
 1.40867e-12 -0.000128342 3.6972e-12
 6.48131e-13 -0.000128342 8.10198e-12
 7.40139e-13 -0.000128342 1.56953e-12
 -9.69728e-13 -0.00189649 -5.05245e-13
 -8.05002e-13 -0.00189649 -3.8161e-12
 -6.40276e-13 -0.00189649 -6.73884e-13
 -7.76953e-13 -0.00189649 2.08521e-12
 -3.62566e-13 -0.00189649 -1.82085e-13
 -3.11587e-12 -0.00189649 2.02485e-12
 -1.1979e-11 -0.00189649 -3.90754e-12
 -8.63392e-12 -0.00189649 1.45556e-12
 -7.20715e-12 -0.00189649 7.30587e-13
 -5.18481e-12 -0.00189649 9.10991e-13
 -4.01667e-12 -0.00189649 -2.95703e-14
 -2.91718e-13 -0.00189649 2.70097e-12
 -5.23247e-12 -0.00189649 -7.23783e-13
 -4.95748e-12 -0.00189649 4.36165e-13
 -5.74458e-12 -0.00189649 1.71136e-12
 -4.9714e-12 -0.00189649 2.25542e-12
 -4.24992e-12 -0.00189649 1.14456e-12
 -2.83836e-12 -0.00189649 -3.37858e-14
 -9.84592e-12 -0.00189649 -8.66315e-13
 -8.20726e-12 -0.00189649 1.52963e-12
 -6.19299e-12 -0.00189649 2.98679e-12
 -5.31163e-12 -0.00189649 2.64673e-12
 -4.17801e-12 -0.00189649 3.20512e-12
 -3.33272e-12 -0.00189649 1.01007e-12
 -2.3834e-12 -0.00189649 -1.51223e-12
 -4.05306e-12 -0.00189649 2.13899e-12
 -3.44714e-12 -0.00189649 3.49495e-12
 -2.30239e-12 -0.00189649 4.40866e-12
 -1.90549e-12 -0.00189649 3.31558e-12
 -2.30963e-12 -0.00189649 1.20364e-12
 2.91335e-12 -0.00189649 -1.793e-12
 1.51166e-12 -0.00189649 3.43114e-12
 4.38816e-13 -0.00189649 5.02059e-12
 1.46484e-12 -0.00189649 2.82703e-12
 8.9384e-13 -0.00189649 4.53279e-12
 1.33212e-12 -0.00189649 1.56866e-12
 -9.68993e-13 -0.00250681 -5.22273e-13
 -7.90893e-13 -0.00250681 -7.40892e-12
 -6.12793e-13 -0.00250681 -2.97513e-12
 -5.73138e-13 -0.00250681 5.41001e-13
 -2.31821e-13 -0.00250681 -1.138e-12
 -2.66511e-12 -0.00250681 2.45214e-12
 -1.13718e-11 -0.00250681 -4.99666e-12
 -7.65432e-12 -0.00250681 -1.78063e-12
 -2.66479e-12 -0.00250681 -1.81795e-12
 -2.1863e-12 -0.00250681 1.19235e-12
 -1.88315e-12 -0.00250681 -1.78006e-12
 -2.32445e-12 -0.00250681 2.59215e-12
 -4.27969e-12 -0.00250681 -4.84872e-12
 -4.79276e-12 -0.00250681 -1.31501e-12
 -7.80489e-12 -0.00250681 -8.80744e-13
 -5.85766e-12 -0.00250681 3.22855e-12
 -4.0255e-12 -0.00250681 -8.24052e-13
 -1.82348e-12 -0.00250681 5.09797e-13
 -1.1274e-11 -0.00250681 -2.46173e-12
 -9.5976e-12 -0.00250681 -1.79497e-12
 -7.6445e-12 -0.00250681 1.41917e-12