<?xml version="1.0"?>
<VTKFile type="UnstructuredGrid" version="0.1" byte_order="LittleEndian" compressor="vtkZLibDataCompressor">
<UnstructuredGrid>
<Piece NumberOfPoints="960" NumberOfCells="120">
<Points>
<DataArray type="Float32" NumberOfComponents="3" format="ascii">
-4.000000e+02 -6.000000e+03 -4.000000e+02
0.000000e+00 -6.000000e+03 -4.000000e+02
-4.000000e+02 -5.600000e+03 -4.000000e+02
-5.801820e-10 -5.600000e+03 -4.000000e+02
-4.000000e+02 -6.000000e+03 0.000000e+00
0.000000e+00 -6.000000e+03 0.000000e+00
-4.000000e+02 -5.600000e+03 2.939630e-10
2.503190e-10 -5.600000e+03 1.807060e-10
0.000000e+00 -6.000000e+03 -4.000000e+02
4.000000e+02 -6.000000e+03 -4.000000e+02
-5.801820e-10 -5.600000e+03 -4.000000e+02
4.000000e+02 -5.600000e+03 -4.000000e+02
0.000000e+00 -6.000000e+03 0.000000e+00
4.000000e+02 -6.000000e+03 0.000000e+00
2.503190e-10 -5.600000e+03 1.807060e-10
4.000000e+02 -5.600000e+03 9.893040e-10
-4.000000e+02 -5.600000e+03 -4.000000e+02
-5.801820e-10 -5.600000e+03 -4.000000e+02
-4.000000e+02 -5.200000e+03 -4.000000e+02
1.004720e-09 -5.200000e+03 -4.000000e+02
-4.000000e+02 -5.600000e+03 2.939630e-10
2.503190e-10 -5.600000e+03 1.807060e-10
-4.000000e+02 -5.200000e+03 -3.859900e-10
3.901980e-10 -5.200000e+03 4.931370e-10
-5.801820e-10 -5.600000e+03 -4.000000e+02
4.000000e+02 -5.600000e+03 -4.000000e+02
1.004720e-09 -5.200000e+03 -4.000000e+02
4.000000e+02 -5.200000e+03 -4.000000e+02
2.503190e-10 -5.600000e+03 1.807060e-10
4.000000e+02 -5.600000e+03 9.893040e-10
3.901980e-10 -5.200000e+03 4.931370e-10
4.000000e+02 -5.200000e+03 6.817900e-11
-4.000000e+02 -5.200000e+03 -4.000000e+02
1.004720e-09 -5.200000e+03 -4.000000e+02
-4.000000e+02 -4.800000e+03 -4.000000e+02
1.899870e-09 -4.800000e+03 -4.000000e+02
-4.000000e+02 -5.200000e+03 -3.859900e-10
3.901980e-10 -5.200000e+03 4.931370e-10
-4.000000e+02 -4.800000e+03 -1.092710e-09
2.062910e-09 -4.800000e+03 -9.779800e-11
1.004720e-09 -5.200000e+03 -4.000000e+02
4.000000e+02 -5.200000e+03 -4.000000e+02
1.899870e-09 -4.800000e+03 -4.000000e+02
4.000000e+02 -4.800000e+03 -4.000000e+02
3.901980e-10 -5.200000e+03 4.931370e-10
4.000000e+02 -5.200000e+03 6.817900e-11
2.062910e-09 -4.800000e+03 -9.779800e-11
4.000000e+02 -4.800000e+03 -5.825370e-10
-4.000000e+02 -4.800000e+03 -4.000000e+02
1.899870e-09 -4.800000e+03 -4.000000e+02
-4.000000e+02 -4.400010e+03 -4.000000e+02
1.611750e-09 -4.400010e+03 -4.000000e+02
-4.000000e+02 -4.800000e+03 -1.092710e-09
2.062910e-09 -4.800000e+03 -9.779800e-11
-4.000000e+02 -4.400010e+03 4.607760e-10
2.549180e-09 -4.400010e+03 -6.412790e-10
1.899870e-09 -4.800000e+03 -4.000000e+02
4.000000e+02 -4.800000e+03 -4.000000e+02
1.611750e-09 -4.400010e+03 -4.000000e+02
4.000000e+02 -4.400010e+03 -4.000000e+02
2.062910e-09 -4.800000e+03 -9.779800e-11
4.000000e+02 -4.800000e+03 -5.825370e-10
2.549180e-09 -4.400010e+03 -6.412790e-10
4.000000e+02 -4.400010e+03 -2.965290e-10
-4.000000e+02 -4.400010e+03 -4.000000e+02
1.611750e-09 -4.400010e+03 -4.000000e+02
-4.000000e+02 -4.000010e+03 -4.000000e+02
1.554210e-09 -4.000010e+03 -4.000000e+02
-4.000000e+02 -4.400010e+03 4.607760e-10
2.549180e-09 -4.400010e+03 -6.412790e-10
-4.000000e+02 -4.000010e+03 -6.114490e-10
1.999510e-09 -4.000010e+03 -5.789730e-10
1.611750e-09 -4.400010e+03 -4.000000e+02
4.000000e+02 -4.400010e+03 -4.000000e+02
1.554210e-09 -4.000010e+03 -4.000000e+02
4.000000e+02 -4.000010e+03 -4.000000e+02
2.549180e-09 -4.400010e+03 -6.412790e-10
4.000000e+02 -4.400010e+03 -2.965290e-10
1.999510e-09 -4.000010e+03 -5.789730e-10
4.000000e+02 -4.000010e+03 -5.503400e-10
-4.000000e+02 -4.000010e+03 -4.000000e+02
1.554210e-09 -4.000010e+03 -4.000000e+02
-4.000000e+02 -3.600010e+03 -4.000000e+02
1.981000e-09 -3.600010e+03 -4.000000e+02
-4.000000e+02 -4.000010e+03 -6.114490e-10
1.999510e-09 -4.000010e+03 -5.789730e-10
-4.000000e+02 -3.600010e+03 6.736950e-10
1.592880e-09 -3.600010e+03 5.778650e-11
1.554210e-09 -4.000010e+03 -4.000000e+02
4.000000e+02 -4.000010e+03 -4.000000e+02
1.981000e-09 -3.600010e+03 -4.000000e+02
4.000000e+02 -3.600010e+03 -4.000000e+02
1.999510e-09 -4.000010e+03 -5.789730e-10
4.000000e+02 -4.000010e+03 -5.503400e-10
1.592880e-09 -3.600010e+03 5.778650e-11
4.000000e+02 -3.600010e+03 6.387720e-10
-4.000000e+02 -3.600010e+03 -4.000000e+02
1.981000e-09 -3.600010e+03 -4.000000e+02
-4.000000e+02 -3.200010e+03 -4.000000e+02
2.339180e-09 -3.200010e+03 -4.000000e+02
-4.000000e+02 -3.600010e+03 6.736950e-10
1.592880e-09 -3.600010e+03 5.778650e-11
-4.000000e+02 -3.200010e+03 1.127800e-09
2.084050e-09 -3.200010e+03 9.711380e-10
1.981000e-09 -3.600010e+03 -4.000000e+02
4.000000e+02 -3.600010e+03 -4.000000e+02
2.339180e-09 -3.200010e+03 -4.000000e+02
4.000000e+02 -3.200010e+03 -4.000000e+02
1.592880e-09 -3.600010e+03 5.778650e-11
4.000000e+02 -3.600010e+03 6.387720e-10
2.084050e-09 -3.200010e+03 9.711380e-10
4.000000e+02 -3.200010e+03 7.342510e-10
-4.000000e+02 -3.200010e+03 -4.000000e+02
2.339180e-09 -3.200010e+03 -4.000000e+02
-4.000000e+02 -2.800010e+03 -4.000000e+02
2.191070e-09 -2.800010e+03 -4.000000e+02
-4.000000e+02 -3.200010e+03 1.127800e-09
2.084050e-09 -3.200010e+03 9.711380e-10
-4.000000e+02 -2.800010e+03 2.272530e-10
1.586610e-09 -2.800010e+03 1.466090e-09
2.339180e-09 -3.200010e+03 -4.000000e+02
4.000000e+02 -3.200010e+03 -4.000000e+02
2.191070e-09 -2.800010e+03 -4.000000e+02
4.000000e+02 -2.800010e+03 -4.000000e+02
2.084050e-09 -3.200010e+03 9.711380e-10
4.000000e+02 -3.200010e+03 7.342510e-10
1.586610e-09 -2.800010e+03 1.466090e-09
4.000000e+02 -2.800010e+03 1.070010e-09
-4.000000e+02 -2.800010e+03 -4.000000e+02
2.191070e-09 -2.800010e+03 -4.000000e+02
-4.000000e+02 -2.400010e+03 -4.000000e+02
2.778350e-09 -2.400010e+03 -4.000000e+02
-4.000000e+02 -2.800010e+03 2.272530e-10
1.586610e-09 -2.800010e+03 1.466090e-09
-4.000000e+02 -2.400010e+03 2.153310e-09
2.041180e-09 -2.400010e+03 1.874680e-09
2.191070e-09 -2.800010e+03 -4.000000e+02
4.000000e+02 -2.800010e+03 -4.000000e+02
2.778350e-09 -2.400010e+03 -4.000000e+02
4.000000e+02 -2.400010e+03 -4.000000e+02
1.586610e-09 -2.800010e+03 1.466090e-09
4.000000e+02 -2.800010e+03 1.070010e-09
2.041180e-09 -2.400010e+03 1.874680e-09
4.000000e+02 -2.400010e+03 1.797280e-09
-4.000000e+02 -2.400010e+03 -4.000000e+02
2.778350e-09 -2.400010e+03 -4.000000e+02
-4.000000e+02 -2.000020e+03 -4.000000e+02
1.553440e-09 -2.000020e+03 -4.000000e+02
-4.000000e+02 -2.400010e+03 2.153310e-09
2.041180e-09 -2.400010e+03 1.874680e-09
-4.000000e+02 -2.000020e+03 1.581310e-09
2.605700e-09 -2.000020e+03 1.169650e-09
2.778350e-09 -2.400010e+03 -4.000000e+02
4.000000e+02 -2.400010e+03 -4.000000e+02
1.553440e-09 -2.000020e+03 -4.000000e+02
4.000000e+02 -2.000020e+03 -4.000000e+02
2.041180e-09 -2.400010e+03 1.874680e-09
4.000000e+02 -2.400010e+03 1.797280e-09
2.605700e-09 -2.000020e+03 1.169650e-09
4.000000e+02 -2.000020e+03 1.839170e-09
-4.000000e+02 -2.000020e+03 -4.000000e+02
1.553440e-09 -2.000020e+03 -4.000000e+02
-4.000000e+02 -1.600020e+03 -4.000000e+02
1.230430e-09 -1.600020e+03 -4.000000e+02
-4.000000e+02 -2.000020e+03 1.581310e-09
2.605700e-09 -2.000020e+03 1.169650e-09
-4.000000e+02 -1.600020e+03 1.609240e-09
1.445340e-09 -1.600020e+03 1.033530e-09
1.553440e-09 -2.000020e+03 -4.000000e+02
4.000000e+02 -2.000020e+03 -4.000000e+02
1.230430e-09 -1.600020e+03 -4.000000e+02
4.000000e+02 -1.600020e+03 -4.000000e+02
2.605700e-09 -2.000020e+03 1.169650e-09
4.000000e+02 -2.000020e+03 1.839170e-09
1.445340e-09 -1.600020e+03 1.033530e-09
4.000000e+02 -1.600020e+03 1.617170e-09
-4.000000e+02 -1.600020e+03 -4.000000e+02
1.230430e-09 -1.600020e+03 -4.000000e+02
-4.000000e+02 -1.200020e+03 -4.000000e+02
2.622420e-09 -1.200020e+03 -4.000000e+02
-4.000000e+02 -1.600020e+03 1.609240e-09
1.445340e-09 -1.600020e+03 1.033530e-09
-4.000000e+02 -1.200020e+03 2.993560e-09
1.557360e-09 -1.200020e+03 1.612980e-09
1.230430e-09 -1.600020e+03 -4.000000e+02
4.000000e+02 -1.600020e+03 -4.000000e+02
2.622420e-09 -1.200020e+03 -4.000000e+02
4.000000e+02 -1.200020e+03 -4.000000e+02
1.445340e-09 -1.600020e+03 1.033530e-09
4.000000e+02 -1.600020e+03 1.617170e-09
1.557360e-09 -1.200020e+03 1.612980e-09
4.000000e+02 -1.200020e+03 1.959210e-09
-4.000000e+02 -1.200020e+03 -4.000000e+02
2.622420e-09 -1.200020e+03 -4.000000e+02
-4.000000e+02 -8.000270e+02 -4.000000e+02
1.400720e-09 -8.000270e+02 -4.000000e+02
-4.000000e+02 -1.200020e+03 2.993560e-09
1.557360e-09 -1.200020e+03 1.612980e-09
-4.000000e+02 -8.000270e+02 2.196870e-09
2.721490e-09 -8.000270e+02 3.387570e-09
2.622420e-09 -1.200020e+03 -4.000000e+02
4.000000e+02 -1.200020e+03 -4.000000e+02
1.400720e-09 -8.000270e+02 -4.000000e+02
4.000000e+02 -8.000270e+02 -4.000000e+02
1.557360e-09 -1.200020e+03 1.612980e-09
4.000000e+02 -1.200020e+03 1.959210e-09
2.721490e-09 -8.000270e+02 3.387570e-09
4.000000e+02 -8.000270e+02 2.820680e-09
-4.000000e+02 -8.000270e+02 -4.000000e+02
1.400720e-09 -8.000270e+02 -4.000000e+02
-4.000000e+02 -4.000380e+02 -4.000000e+02
-2.794480e-10 -4.000380e+02 -4.000000e+02
-4.000000e+02 -8.000270e+02 2.196870e-09
2.721490e-09 -8.000270e+02 3.387570e-09
-4.000000e+02 -4.000380e+02 1.313160e-09
-1.967150e-10 -4.000380e+02 1.303490e-09
1.400720e-09 -8.000270e+02 -4.000000e+02
4.000000e+02 -8.000270e+02 -4.000000e+02
-2.794480e-10 -4.000380e+02 -4.000000e+02
4.000000e+02 -4.000380e+02 -4.000000e+02
2.721490e-09 -8.000270e+02 3.387570e-09
4.000000e+02 -8.000270e+02 2.820680e-09
-1.967150e-10 -4.000380e+02 1.303490e-09
4.000000e+02 -4.000380e+02 5.780990e-10
-4.000000e+02 -4.000380e+02 -4.000000e+02
-2.794480e-10 -4.000380e+02 -4.000000e+02
-4.000000e+02 -5.670770e-02 -4.000000e+02
-1.473520e-09 -5.670770e-02 -4.000000e+02
-4.000000e+02 -4.000380e+02 1.313160e-09
-1.967150e-10 -4.000380e+02 1.303490e-09
-4.000000e+02 -5.670770e-02 1.604580e-10
-2.700420e-09 -5.670770e-02 -1.271790e-09
-2.794480e-10 -4.000380e+02 -4.000000e+02
4.000000e+02 -4.000380e+02 -4.000000e+02
-1.473520e-09 -5.670770e-02 -4.000000e+02
4.000000e+02 -5.670770e-02 -4.000000e+02
-1.967150e-10 -4.000380e+02 1.303490e-09
[...]
<PointData>
<DataArray type="Float32" Name="V1" format="ascii">
0.000000e+00
0.000000e+00
-2.985140e-10
2.583960e-10
0.000000e+00
0.000000e+00
1.256900e-10
-6.353390e-10
0.000000e+00
0.000000e+00
2.583960e-10
2.718050e-09
0.000000e+00
0.000000e+00
-6.353390e-10
-2.356690e-10
-2.985140e-10
2.583960e-10
1.743950e-09
-1.941880e-10
1.256900e-10
-6.353390e-10
-4.713380e-11
3.224190e-10
2.583960e-10
2.718050e-09
-1.941880e-10
-1.539700e-09
-6.353390e-10
-2.356690e-10
3.224190e-10
5.813160e-10
1.743950e-09
-1.941880e-10
-1.052650e-09
1.550190e-09
-4.713380e-11
3.224190e-10
2.026750e-09
5.920740e-10
-1.941880e-10
-1.539700e-09
1.550190e-09
1.555410e-09
3.224190e-10
5.813160e-10
5.920740e-10
1.571130e-11
-1.052650e-09
1.550190e-09
1.099790e-10
6.281150e-10
2.026750e-09
5.920740e-10
-2.199580e-10
-4.876230e-10
1.550190e-09
1.555410e-09
6.281150e-10
-8.169850e-10
5.920740e-10
1.571130e-11
-4.876230e-10
6.598730e-10
1.099790e-10
6.281150e-10
2.293840e-09
2.122920e-10
-2.199580e-10
-4.876230e-10
4.242040e-10
2.904660e-10
6.281150e-10
-8.169850e-10
2.122920e-10
-1.492570e-09
-4.876230e-10
6.598730e-10
2.904660e-10
3.770700e-10
2.293840e-09
2.122920e-10
6.284500e-11
9.827300e-10
4.242040e-10
2.904660e-10
-4.870490e-10
-9.240580e-10
2.122920e-10
-1.492570e-09
9.827300e-10
-1.099790e-10
2.904660e-10
3.770700e-10
-9.240580e-10
-5.341830e-10
6.284500e-11
9.827300e-10
-7.070060e-10
1.840870e-10
-4.870490e-10
-9.240580e-10
-1.194060e-09
-4.253690e-10
9.827300e-10
-1.099790e-10
1.840870e-10
1.728240e-10
-9.240580e-10
-5.341830e-10
-4.253690e-10
-6.755840e-10
-7.070060e-10
1.840870e-10
-1.759660e-09
-3.904580e-10
-1.194060e-09
-4.253690e-10
1.115500e-09
2.802800e-10
1.840870e-10
1.728240e-10
-3.904580e-10
1.822510e-09
-4.253690e-10
-6.755840e-10
2.802800e-10
1.571130e-11
-1.759660e-09
-3.904580e-10
-3.095120e-09
1.519980e-10
1.115500e-09
2.802800e-10
-7.384290e-10
-3.555360e-10
-3.904580e-10
1.822510e-09
1.519980e-10
2.513800e-09
2.802800e-10
1.571130e-11
-3.555360e-10
-2.042460e-10
-3.095120e-09
1.519980e-10
2.529510e-09
-1.700980e-10
-7.384290e-10
-3.555360e-10
-1.633970e-09
6.171310e-10
1.519980e-10
2.513800e-09
-1.700980e-10
-1.602550e-09
-3.555360e-10
-2.042460e-10
6.171310e-10
1.115500e-09
2.529510e-09
-1.700980e-10
-1.838220e-09
2.544180e-10
-1.633970e-09
6.171310e-10
4.949050e-09
1.289960e-09
-1.700980e-10
-1.602550e-09
2.544180e-10
4.242040e-10
6.171310e-10
1.115500e-09
1.289960e-09
-2.639490e-09
-1.838220e-09
2.544180e-10
5.341830e-10
-4.752920e-10
4.949050e-09
1.289960e-09
-2.309550e-09
-8.767830e-11
2.544180e-10
4.242040e-10
-4.752920e-10
-1.696820e-09
1.289960e-09
-2.639490e-09
-8.767830e-11
3.927810e-09
5.341830e-10
-4.752920e-10
8.641190e-10
-1.931190e-09
-2.309550e-09
-8.767830e-11
2.089600e-09
5.262370e-10
-4.752920e-10
-1.696820e-09
-1.931190e-09
-3.330790e-09
-8.767830e-11
3.927810e-09
5.262370e-10
-2.152440e-09
8.641190e-10
-1.931190e-09
-1.681100e-09
-1.024770e-09
2.089600e-09
5.262370e-10
-4.242040e-10
-1.804050e-10
-1.931190e-09
-3.330790e-09
-1.024770e-09
1.571130e-10
5.262370e-10
-2.152440e-09
-1.804050e-10
1.712530e-09
-1.681100e-09
-1.024770e-09
-2.168150e-09
2.867990e-09
-4.242040e-10
-1.804050e-10
-1.822510e-09
-1.995180e-09
-1.024770e-09
1.571130e-10
2.867990e-09
9.913800e-09
-1.804050e-10
1.712530e-09
-1.995180e-09
-2.105310e-09
-2.168150e-09
2.867990e-09
1.533420e-08
-1.611500e-09
-1.822510e-09
-1.995180e-09
-2.513800e-09
3.782410e-09
2.867990e-09
9.913800e-09
-1.611500e-09
-1.822510e-08
-1.995180e-09
-2.105310e-09
3.782410e-09
1.088790e-08
1.533420e-08
-1.611500e-09
-3.139110e-08
-9.185200e-09
-2.513800e-09
3.782410e-09
9.128240e-09
-1.850280e-09
-1.611500e-09
-1.822510e-08
-9.185200e-09
1.333890e-08
3.782410e-09
1.088790e-08
-1.850280e-09
-1.233330e-08
-3.139110e-08
-9.185200e-09
3.918390e-08
1.371900e-08
9.128240e-09
-1.850280e-09
-2.455670e-08
-8.149500e-09
-9.185200e-09
1.333890e-08
1.371900e-08
-9.929510e-09
-1.850280e-09
-1.233330e-08
-8.149500e-09
7.871340e-09
3.918390e-08
1.371900e-08
-2.689770e-08
-9.858880e-09
-2.455670e-08
-8.149500e-09
7.698510e-10
3.932920e-09
1.371900e-08
-9.929510e-09
-9.858880e-09
5.200430e-09
-8.149500e-09
7.871340e-09
3.932920e-09
7.400000e-09
-2.689770e-08
-9.858880e-09
-4.644250e-08
-1.769730e-08
7.698510e-10
3.932920e-09
-8.782590e-09
3.945330e-09
-9.858880e-09
5.200430e-09
-1.769730e-08
1.107640e-08
3.932920e-09
7.400000e-09
3.945330e-09
1.662250e-08
-4.644250e-08
-1.769730e-08
4.592400e-08
1.849490e-09
-8.782590e-09
3.945330e-09
3.582170e-09
5.947000e-09
-1.769730e-08
1.107640e-08
1.849490e-09
-4.190190e-08
3.945330e-09
1.662250e-08
5.947000e-09
8.531210e-09
4.592400e-08
1.849490e-09
7.959320e-08
1.276050e-08
3.582170e-09
5.947000e-09
1.377880e-08
-2.290450e-09
1.849490e-09
-4.190190e-08
1.276050e-08
-5.423530e-08
5.947000e-09
8.531210e-09
-2.290450e-09
-1.836650e-08
7.959320e-08
1.276050e-08
-5.960850e-08
2.284900e-09
1.377880e-08
-2.290450e-09
1.036940e-09
9.118590e-10
1.276050e-08
-5.423530e-08
2.284900e-09
6.385050e-08
-2.290450e-09
-1.836650e-08
9.118590e-10
5.813160e-10
-5.960850e-08
2.284900e-09
-3.209810e-08
-3.469310e-09
1.036940e-09
9.118590e-10
-1.594690e-08
-4.515680e-10
2.284900e-09
6.385050e-08
-3.469310e-09
2.515370e-08
9.118590e-10
5.813160e-10
-4.515680e-10
1.498850e-08
-3.209810e-08
-3.469310e-09
2.389680e-08
-2.236750e-09
-1.594690e-08
-4.515680e-10
-8.012740e-10
-5.135850e-09
-3.469310e-09
2.515370e-08
-2.236750e-09
-2.843740e-08
-4.515680e-10
1.498850e-08
-5.135850e-09
-9.505310e-09
2.389680e-08
-2.236750e-09
-8.861150e-09
7.588380e-10
-8.012740e-10
-5.135850e-09
8.295540e-09
1.351230e-09
-2.236750e-09
-2.843740e-08
7.588380e-10
1.040090e-08
-5.135850e-09
-9.505310e-09
1.351230e-09
-5.608920e-09
-8.861150e-09
7.588380e-10
6.551590e-09
2.437480e-09
8.295540e-09
1.351230e-09
1.775370e-09
1.506560e-09
7.588380e-10
1.040090e-08
2.437480e-09
-1.633970e-09
1.351230e-09
-5.608920e-09
1.506560e-09
1.288320e-09
6.551590e-09
2.437480e-09
-1.665390e-09
-1.231420e-09
1.775370e-09
1.506560e-09
-1.162630e-09
-3.646530e-10
2.437480e-09
-1.633970e-09
-1.231420e-09
-7.855630e-10
1.506560e-09
1.288320e-09
-3.646530e-10
4.556260e-10
-1.665390e-09
-1.231420e-09
7.541400e-10
2.146530e-10
-1.162630e-09
-3.646530e-10
-3.299360e-10
9.509320e-11
-1.231420e-09
-7.855630e-10
2.146530e-10
-3.456480e-10
-3.646530e-10
4.556260e-10
9.509320e-11
5.341830e-10
7.541400e-10
2.146530e-10
-1.571130e-11
-7.070920e-11
-3.299360e-10
9.509320e-11
-2.199580e-10
-1.538080e-10
2.146530e-10
-3.456480e-10
-7.070920e-11
-1.414010e-10
9.509320e-11
5.341830e-10
-1.538080e-10
-1.256900e-10
0.000000e+00
0.000000e+00
1.256900e-10
-6.353390e-10
0.000000e+00
0.000000e+00
-1.304030e-09
-7.330200e-11
0.000000e+00
0.000000e+00
-6.353390e-10
-2.356690e-10
0.000000e+00
0.000000e+00
-7.330200e-11
1.398300e-09
1.256900e-10
-6.353390e-10
-4.713380e-11
3.224190e-10
-1.304030e-09
-7.330200e-11
-8.012740e-10
-9.500810e-10
-6.353390e-10
-2.356690e-10
3.224190e-10
5.813160e-10
-7.330200e-11
1.398300e-09
-9.500810e-10
-7.070060e-10
-4.713380e-11
3.224190e-10
2.026750e-09
5.920740e-10
-8.012740e-10
-9.500810e-10
-9.740980e-10
1.954600e-10
3.224190e-10
5.813160e-10
5.920740e-10
1.571130e-11
-9.500810e-10
-7.070060e-10
1.954600e-10
1.885350e-10
2.026750e-09
5.920740e-10
-2.199580e-10
-4.876230e-10
-9.740980e-10
1.954600e-10
-1.571130e-09
9.063440e-10
5.920740e-10
1.571130e-11
-4.876230e-10
6.598730e-10
1.954600e-10
1.885350e-10
9.063440e-10
5.813160e-10
-2.199580e-10
-4.876230e-10
4.242040e-10
2.904660e-10
-1.571130e-09
9.063440e-10
-1.288320e-09
-1.378530e-09
-4.876230e-10
6.598730e-10
2.904660e-10
3.770700e-10
9.063440e-10
5.813160e-10
-1.378530e-09
-3.770700e-10
4.242040e-10
2.904660e-10
-4.870490e-10
-9.240580e-10
-1.288320e-09
-1.378530e-09
1.335460e-09
5.198570e-10
2.904660e-10
3.770700e-10
-9.240580e-10
-5.341830e-10
-1.378530e-09
-3.770700e-10
5.198570e-10
-1.319750e-09
-4.870490e-10
-9.240580e-10
-1.194060e-09
-4.253690e-10
1.335460e-09
5.198570e-10
0.000000e+00
5.569350e-10
-9.240580e-10
-5.341830e-10
-4.253690e-10
-6.755840e-10
5.198570e-10
-1.319750e-09
5.569350e-10
-5.813160e-10
-1.194060e-09
-4.253690e-10
1.115500e-09
2.802800e-10
0.000000e+00
5.569350e-10
-1.194060e-09
-1.210300e-09
-4.253690e-10
-6.755840e-10
2.802800e-10
1.571130e-11
5.569350e-10
-5.813160e-10
-1.210300e-09
2.670910e-10
1.115500e-09
2.802800e-10
-7.384290e-10
-3.555360e-10
-1.194060e-09
-1.210300e-09
1.272610e-09
2.545980e-09
2.802800e-10
1.571130e-11
-3.555360e-10
-2.042460e-10
-1.210300e-09
2.670910e-10
2.545980e-09
1.319750e-09
-7.384290e-10
-3.555360e-10
-1.633970e-09
6.171310e-10
1.272610e-09
2.545980e-09
3.833550e-09
7.423280e-10
-3.555360e-10
-2.042460e-10
6.171310e-10
1.115500e-09
2.545980e-09
1.319750e-09
7.423280e-10
-8.169850e-10
-1.633970e-09
6.171310e-10
4.949050e-09
1.289960e-09
3.833550e-09
7.423280e-10
-3.173670e-09
-9.525440e-10
6.171310e-10
1.115500e-09
1.289960e-09
-2.639490e-09
7.423280e-10
-8.169850e-10
-9.525440e-10
5.027600e-10
4.949050e-09
1.289960e-09
-2.309550e-09
-8.767830e-11
-3.173670e-09
-9.525440e-10
3.566450e-09
3.887700e-10
1.289960e-09
-2.639490e-09
-8.767830e-11
3.927810e-09
-9.525440e-10
5.027600e-10
3.887700e-10
-1.523990e-09
-2.309550e-09
-8.767830e-11
2.089600e-09
5.262370e-10
3.566450e-09
3.887700e-10
2.466670e-09
2.052430e-09
-8.767830e-11
3.927810e-09
5.262370e-10
-2.152440e-09
3.887700e-10
-1.523990e-09
2.052430e-09
1.838220e-09
2.089600e-09
5.262370e-10
-4.242040e-10
-1.804050e-10
2.466670e-09
2.052430e-09
-3.409340e-09
-3.558930e-09
5.262370e-10
-2.152440e-09
-1.804050e-10
1.712530e-09
2.052430e-09
1.838220e-09
-3.558930e-09
-3.472190e-09
-4.242040e-10
-1.804050e-10
-1.822510e-09
-1.995180e-09
-3.409340e-09
-3.558930e-09
-8.861150e-09
-3.380160e-09
-1.804050e-10
1.712530e-09
-1.995180e-09
-2.105310e-09
-3.558930e-09
-3.472190e-09
-3.380160e-09
2.592360e-09
-1.822510e-09
-1.995180e-09
-2.513800e-09
3.782410e-09
-8.861150e-09
-3.380160e-09
1.644970e-08
5.397530e-09
-1.995180e-09
-2.105310e-09
3.782410e-09
1.088790e-08
-3.380160e-09
2.592360e-09
5.397530e-09
-5.090450e-09
-2.513800e-09
3.782410e-09
9.128240e-09
-1.850280e-09
1.644970e-08
5.397530e-09
-5.734610e-09
7.113650e-09
3.782410e-09
1.088790e-08
-1.850280e-09
-1.233330e-08
5.397530e-09
-5.090450e-09
7.113650e-09
1.934060e-08
9.128240e-09
-1.850280e-09
-2.455670e-08
-8.149500e-09
-5.734610e-09
7.113650e-09
2.135160e-08
-1.121880e-08
-1.850280e-09
-1.233330e-08
-8.149500e-09
7.871340e-09
7.113650e-09
1.934060e-08
-1.121880e-08
-4.421150e-08
-2.455670e-08
-8.149500e-09
7.698510e-10
3.932920e-09
2.135160e-08
-1.121880e-08
1.539700e-09
4.931110e-10
-8.149500e-09
7.871340e-09
3.932920e-09
7.400000e-09
-1.121880e-08
-4.421150e-08
4.931110e-10
-2.231000e-09
7.698510e-10
3.932920e-09
-8.782590e-09
3.945330e-09
1.539700e-09
4.931110e-10
-5.137580e-09
2.064630e-08
3.932920e-09
7.400000e-09
3.945330e-09
1.662250e-08
4.931110e-10
-2.231000e-09
2.064630e-08
4.688240e-08
-8.782590e-09
3.945330e-09
3.582170e-09
5.947000e-09
-5.137580e-09
2.064630e-08
2.193290e-08
2.527200e-09
3.945330e-09
1.662250e-08
5.947000e-09
8.531210e-09
2.064630e-08
4.688240e-08
2.527200e-09
-1.687390e-08
3.582170e-09
5.947000e-09
1.377880e-08
-2.290450e-09
2.193290e-08
2.527200e-09
1.387300e-08
-2.543250e-08
5.947000e-09
8.531210e-09
-2.290450e-09
-1.836650e-08
2.527200e-09
-1.687390e-08
-2.543250e-08
-6.473040e-08
1.377880e-08
-2.290450e-09
1.036940e-09
9.118590e-10
1.387300e-08
-2.543250e-08
-2.125730e-08
8.009800e-09
-2.290450e-09
-1.836650e-08
9.118590e-10
5.813160e-10
-2.543250e-08
-6.473040e-08
8.009800e-09
3.732990e-08
1.036940e-09
9.118590e-10
-1.594690e-08
-4.515680e-10
-2.125730e-08
8.009800e-09
-5.184710e-09
7.496960e-09
9.118590e-10
5.813160e-10
-4.515680e-10
1.498850e-08
8.009800e-09
3.732990e-08
7.496960e-09
2.014180e-08
-1.594690e-08
-4.515680e-10
-8.012740e-10
-5.135850e-09
-5.184710e-09
7.496960e-09
-3.157960e-09
-8.424060e-09
-4.515680e-10
1.498850e-08
-5.135850e-09
-9.505310e-09
7.496960e-09
2.014180e-08
-8.424060e-09
-1.385730e-08
-8.012740e-10
-5.135850e-09
8.295540e-09
1.351230e-09
-3.157960e-09
-8.424060e-09
7.227180e-10
3.104300e-09
-5.135850e-09
-9.505310e-09
1.351230e-09
-5.608920e-09
-8.424060e-09
-1.385730e-08
3.104300e-09
5.498940e-09
8.295540e-09
1.351230e-09
1.775370e-09
1.506560e-09
7.227180e-10
3.104300e-09
4.022080e-09
-4.539910e-10
1.351230e-09
-5.608920e-09
1.506560e-09
1.288320e-09
3.104300e-09
5.498940e-09
-4.539910e-10
-4.917620e-09
1.775370e-09
1.506560e-09
-1.162630e-09
-3.646530e-10
4.022080e-09
-4.539910e-10
-1.021230e-09
6.227790e-10
1.506560e-09
1.288320e-09
-3.646530e-10
4.556260e-10
-4.539910e-10
-4.917620e-09
6.227790e-10
2.262420e-09
-1.162630e-09
-3.646530e-10
-3.299360e-10
9.509320e-11
-1.021230e-09
6.227790e-10
3.927810e-10
-1.993160e-10
-3.646530e-10
4.556260e-10
9.509320e-11
5.341830e-10
6.227790e-10
2.262420e-09
-1.993160e-10
-7.698510e-10
-3.299360e-10
9.509320e-11
-2.199580e-10
-1.538080e-10
3.927810e-10
-1.993160e-10
-3.456480e-10
-2.328470e-10
9.509320e-11
5.341830e-10
-1.538080e-10
-1.256900e-10
-1.993160e-10
-7.698510e-10
-2.328470e-10
-1.414010e-10
</DataArray>
<DataArray type="Float32" Name="V2" format="ascii">
0.000000e+00
0.000000e+00
7.974660e-06
7.974910e-06
0.000000e+00
0.000000e+00
7.978430e-06
7.977300e-06
0.000000e+00
0.000000e+00
7.974910e-06
7.980940e-06
0.000000e+00
0.000000e+00
7.977300e-06
7.973520e-06
7.974660e-06
7.974910e-06
-1.898210e-05
-1.897630e-05
7.978430e-06
7.977300e-06
-1.898120e-05
-1.898020e-05
7.974910e-06
7.980940e-06
-1.897630e-05
-1.898590e-05
7.977300e-06
7.973520e-06
-1.898020e-05
-1.897590e-05
-1.898210e-05
-1.897630e-05
-2.548580e-05
-2.548930e-05
-1.898120e-05
-1.898020e-05
-2.548910e-05
-2.549010e-05
-1.897630e-05
-1.898590e-05
-2.548930e-05
-2.548530e-05
-1.898020e-05
-1.897590e-05
-2.549010e-05
-2.548910e-05
-2.548580e-05
-2.548930e-05
-1.480530e-04
-1.480480e-04
-2.548910e-05
-2.549010e-05
-1.480550e-04
-1.480500e-04
-2.548930e-05
-2.548530e-05
-1.480480e-04
-1.480630e-04
-2.549010e-05
-2.548910e-05
-1.480500e-04
-1.480520e-04
-1.480530e-04
-1.480480e-04
4.368870e-04
4.368900e-04
-1.480550e-04
-1.480500e-04
4.368890e-04
4.368930e-04
-1.480480e-04
-1.480630e-04
4.368900e-04
4.368880e-04
-1.480500e-04
-1.480520e-04
4.368930e-04
4.368910e-04
4.368870e-04
4.368900e-04
-5.576740e-06
-5.573720e-06
4.368890e-04
4.368930e-04
-5.576620e-06
-5.573100e-06
4.368900e-04
4.368880e-04
-5.573720e-06
-5.577500e-06
4.368930e-04
4.368910e-04
-5.573100e-06
-5.573980e-06
-5.576740e-06
-5.573720e-06
3.442450e-04
3.442470e-04
-5.576620e-06
-5.573100e-06
3.442460e-04
3.442450e-04
-5.573720e-06
-5.577500e-06
3.442470e-04
3.442420e-04
-5.573100e-06
-5.573980e-06
3.442450e-04
3.442430e-04
3.442450e-04
3.442470e-04
8.577190e-04
8.577230e-04
3.442460e-04
3.442450e-04
8.577230e-04
8.577210e-04
3.442470e-04
3.442420e-04
8.577230e-04
8.577230e-04
3.442450e-04
3.442430e-04
8.577210e-04
8.577190e-04
8.577190e-04
8.577230e-04
8.930100e-04
8.930140e-04
8.577230e-04
8.577210e-04
8.930110e-04
8.930130e-04
8.577230e-04
8.577230e-04
8.930140e-04
8.930110e-04
8.577210e-04
8.577190e-04
8.930130e-04
8.930120e-04
8.930100e-04
8.930140e-04
1.037700e-03
1.037710e-03
8.930110e-04
8.930130e-04
1.037710e-03
1.037710e-03
8.930140e-04
8.930110e-04
1.037710e-03
1.037710e-03
8.930130e-04
8.930120e-04
1.037710e-03
1.037710e-03
1.037700e-03
1.037710e-03
2.326920e-03
2.326920e-03
1.037710e-03
1.037710e-03
2.326920e-03
2.326910e-03
1.037710e-03
1.037710e-03
2.326920e-03
2.326920e-03
1.037710e-03
1.037710e-03
2.326910e-03
2.326910e-03
2.326920e-03
2.326920e-03
3.351380e-03
3.351380e-03
2.326920e-03
2.326910e-03
3.351380e-03
3.351380e-03
2.326920e-03
2.326920e-03
3.351380e-03
3.351370e-03
2.326910e-03
2.326910e-03
3.351380e-03
3.351380e-03
3.351380e-03
3.351380e-03
4.303580e-03
4.303580e-03
3.351380e-03
3.351380e-03
4.303580e-03
4.303580e-03
3.351380e-03
3.351370e-03
4.303580e-03
4.303580e-03
3.351380e-03
3.351380e-03
4.303580e-03
4.303580e-03
4.303580e-03
4.303580e-03
1.024700e-02
1.024700e-02
4.303580e-03
4.303580e-03
1.024700e-02
1.024700e-02
4.303580e-03
4.303580e-03
1.024700e-02
1.024700e-02
4.303580e-03
4.303580e-03
1.024700e-02
1.024700e-02
1.024700e-02
1.024700e-02
1.668650e-02
1.668650e-02
1.024700e-02
1.024700e-02
1.668650e-02
1.668650e-02
1.024700e-02
1.024700e-02
1.668650e-02
1.668650e-02
1.024700e-02
1.024700e-02
1.668650e-02
1.668650e-02
1.668650e-02
1.668650e-02
2.611010e-02
2.611020e-02
1.668650e-02
1.668650e-02
2.611010e-02
2.611010e-02
1.668650e-02
1.668650e-02
2.611020e-02
2.611010e-02
1.668650e-02
1.668650e-02
2.611010e-02
2.611010e-02
2.611010e-02
2.611020e-02
3.788530e-02
3.788520e-02
2.611010e-02
2.611010e-02
3.788530e-02
3.788530e-02
2.611020e-02
2.611010e-02
3.788520e-02
3.788530e-02
2.611010e-02
2.611010e-02
3.788530e-02
3.788520e-02
3.788530e-02
3.788520e-02
4.564540e-02
4.564550e-02
3.788530e-02
3.788530e-02
4.564550e-02
4.564540e-02
3.788520e-02
3.788530e-02
4.564550e-02
4.564540e-02
3.788530e-02
3.788520e-02
4.564540e-02
4.564550e-02
4.564540e-02
4.564550e-02
4.363360e-02
4.363320e-02
4.564550e-02
4.564540e-02
4.363330e-02
4.363350e-02
4.564550e-02
4.564540e-02
4.363320e-02
4.363340e-02
4.564540e-02
4.564550e-02
4.363350e-02
4.363330e-02
4.363360e-02
4.363320e-02
2.257730e-02
2.257790e-02
4.363330e-02
4.363350e-02
2.257770e-02
2.257730e-02
4.363320e-02
4.363340e-02
2.257790e-02
2.257730e-02
4.363350e-02
4.363330e-02
2.257730e-02
2.257780e-02
2.257730e-02
2.257790e-02
-4.825110e-03
-4.824970e-03
2.257770e-02
2.257730e-02
-4.825180e-03
-4.825140e-03
2.257790e-02
2.257730e-02
-4.824970e-03
-4.825190e-03
2.257730e-02
2.257780e-02
-4.825140e-03
-4.825110e-03
-4.825110e-03
-4.824970e-03
-2.431620e-02
-2.431690e-02
-4.825180e-03
-4.825140e-03
-2.431680e-02
-2.431620e-02
-4.824970e-03
-4.825190e-03
-2.431690e-02
-2.431620e-02
-4.825140e-03
-4.825110e-03
-2.431620e-02
-2.431690e-02
-2.431620e-02
-2.431690e-02
-1.348370e-02
-1.348330e-02
-2.431680e-02
-2.431620e-02
-1.348320e-02
-1.348350e-02
-2.431690e-02
-2.431620e-02
-1.348330e-02
-1.348340e-02
-2.431620e-02
-2.431690e-02
-1.348350e-02
-1.348320e-02
-1.348370e-02
-1.348330e-02
4.279100e-03
4.278160e-03
-1.348320e-02
-1.348350e-02
4.278470e-03
4.278970e-03
-1.348330e-02
-1.348340e-02
4.278160e-03
4.278850e-03
-1.348350e-02
-1.348320e-02
4.278970e-03
4.278380e-03
4.279100e-03
4.278160e-03
1.328050e-02
1.328120e-02
4.278470e-03
4.278970e-03
1.328090e-02
1.328060e-02
4.278160e-03
4.278850e-03
1.328120e-02
1.328070e-02
4.278970e-03
4.278380e-03
1.328060e-02
1.328100e-02
1.328050e-02
1.328120e-02
-3.940980e-04
-3.939750e-04
1.328090e-02
1.328060e-02
-3.940410e-04
-3.941140e-04
1.328120e-02
1.328070e-02
-3.939750e-04
-3.941150e-04
1.328060e-02
1.328100e-02
-3.941140e-04
-3.940420e-04
-3.940980e-04
-3.939750e-04
-3.466860e-03
-3.466870e-03
-3.940410e-04
-3.941140e-04
-3.466850e-03
-3.466870e-03
-3.939750e-04
-3.941150e-04
-3.466870e-03
-3.466890e-03
-3.941140e-04
-3.940420e-04
-3.466870e-03
-3.466860e-03
-3.466860e-03
-3.466870e-03
1.111250e-03
1.111230e-03
-3.466850e-03
-3.466870e-03
1.111230e-03
1.111250e-03
-3.466870e-03
-3.466890e-03
1.111230e-03
1.111260e-03
-3.466870e-03
-3.466860e-03
1.111250e-03
1.111230e-03
1.111250e-03
1.111230e-03
7.111390e-04
7.111320e-04
1.111230e-03
1.111250e-03
7.111330e-04
7.111370e-04
1.111230e-03
1.111260e-03
7.111320e-04
7.111360e-04
1.111250e-03
1.111230e-03
7.111370e-04
7.111310e-04
7.111390e-04
7.111320e-04
6.825200e-05
6.825170e-05
7.111330e-04
7.111370e-04
6.825220e-05
6.825130e-05
7.111320e-04
7.111360e-04
6.825170e-05
6.825200e-05
7.111370e-04
7.111310e-04
6.825130e-05
6.825210e-05
0.000000e+00
0.000000e+00
7.978430e-06
7.977300e-06
0.000000e+00
0.000000e+00
7.974660e-06
7.977420e-06
0.000000e+00
0.000000e+00
7.977300e-06
7.973520e-06
0.000000e+00
0.000000e+00
7.977420e-06
7.974910e-06
7.978430e-06
7.977300e-06
-1.898120e-05
-1.898020e-05
7.974660e-06
7.977420e-06
-1.897910e-05
-1.898100e-05
7.977300e-06
7.973520e-06
-1.898020e-05
-1.897590e-05
7.977420e-06
7.974910e-06
-1.898100e-05
-1.898300e-05
-1.898120e-05
-1.898020e-05
-2.548910e-05
-2.549010e-05
-1.897910e-05
-1.898100e-05
-2.549040e-05
-2.548590e-05
-1.898020e-05