<?xml version="1.0"?>
<VTKFile type="UnstructuredGrid" version="0.1" byte_order="LittleEndian" compressor="vtkZLibDataCompressor">
<UnstructuredGrid>
<Piece NumberOfPoints="960" NumberOfCells="120">
<Points>
<DataArray type="Float32" NumberOfComponents="3" format="ascii">
-4.000000e+02 -6.000000e+03 -4.000000e+02
0.000000e+00 -6.000000e+03 -4.000000e+02
-4.000000e+02 -5.600000e+03 -4.000000e+02
-1.026040e-10 -5.600000e+03 -4.000000e+02
-4.000000e+02 -6.000000e+03 0.000000e+00
0.000000e+00 -6.000000e+03 0.000000e+00
-4.000000e+02 -5.600000e+03 -1.100830e-09
-3.643360e-10 -5.600000e+03 -3.331030e-10
0.000000e+00 -6.000000e+03 -4.000000e+02
4.000000e+02 -6.000000e+03 -4.000000e+02
-1.026040e-10 -5.600000e+03 -4.000000e+02
4.000000e+02 -5.600000e+03 -4.000000e+02
0.000000e+00 -6.000000e+03 0.000000e+00
4.000000e+02 -6.000000e+03 0.000000e+00
-3.643360e-10 -5.600000e+03 -3.331030e-10
4.000000e+02 -5.600000e+03 -1.141380e-10
-4.000000e+02 -5.600000e+03 -4.000000e+02
-1.026040e-10 -5.600000e+03 -4.000000e+02
-4.000000e+02 -5.200010e+03 -4.000000e+02
1.172240e-09 -5.200010e+03 -4.000000e+02
-4.000000e+02 -5.600000e+03 -1.100830e-09
-3.643360e-10 -5.600000e+03 -3.331030e-10
-4.000000e+02 -5.200010e+03 2.035510e-10
6.032260e-10 -5.200010e+03 4.760260e-10
-1.026040e-10 -5.600000e+03 -4.000000e+02
4.000000e+02 -5.600000e+03 -4.000000e+02
1.172240e-09 -5.200010e+03 -4.000000e+02
4.000000e+02 -5.200010e+03 -4.000000e+02
-3.643360e-10 -5.600000e+03 -3.331030e-10
4.000000e+02 -5.600000e+03 -1.141380e-10
6.032260e-10 -5.200010e+03 4.760260e-10
4.000000e+02 -5.200010e+03 7.158390e-10
-4.000000e+02 -5.200010e+03 -4.000000e+02
1.172240e-09 -5.200010e+03 -4.000000e+02
-4.000000e+02 -4.800010e+03 -4.000000e+02
1.468120e-09 -4.800010e+03 -4.000000e+02
-4.000000e+02 -5.200010e+03 2.035510e-10
6.032260e-10 -5.200010e+03 4.760260e-10
-4.000000e+02 -4.800010e+03 8.132980e-10
1.931320e-09 -4.800010e+03 1.772030e-09
1.172240e-09 -5.200010e+03 -4.000000e+02
4.000000e+02 -5.200010e+03 -4.000000e+02
1.468120e-09 -4.800010e+03 -4.000000e+02
4.000000e+02 -4.800010e+03 -4.000000e+02
6.032260e-10 -5.200010e+03 4.760260e-10
4.000000e+02 -5.200010e+03 7.158390e-10
1.931320e-09 -4.800010e+03 1.772030e-09
4.000000e+02 -4.800010e+03 1.165330e-09
-4.000000e+02 -4.800010e+03 -4.000000e+02
1.468120e-09 -4.800010e+03 -4.000000e+02
-4.000000e+02 -4.400020e+03 -4.000000e+02
2.110860e-09 -4.400020e+03 -4.000000e+02
-4.000000e+02 -4.800010e+03 8.132980e-10
1.931320e-09 -4.800010e+03 1.772030e-09
-4.000000e+02 -4.400020e+03 7.493070e-10
1.234670e-09 -4.400020e+03 1.313520e-09
1.468120e-09 -4.800010e+03 -4.000000e+02
4.000000e+02 -4.800010e+03 -4.000000e+02
2.110860e-09 -4.400020e+03 -4.000000e+02
4.000000e+02 -4.400020e+03 -4.000000e+02
1.931320e-09 -4.800010e+03 1.772030e-09
4.000000e+02 -4.800010e+03 1.165330e-09
1.234670e-09 -4.400020e+03 1.313520e-09
4.000000e+02 -4.400020e+03 1.609440e-09
-4.000000e+02 -4.400020e+03 -4.000000e+02
2.110860e-09 -4.400020e+03 -4.000000e+02
-4.000000e+02 -4.000030e+03 -4.000000e+02
1.706510e-09 -4.000030e+03 -4.000000e+02
-4.000000e+02 -4.400020e+03 7.493070e-10
1.234670e-09 -4.400020e+03 1.313520e-09
-4.000000e+02 -4.000030e+03 1.158350e-09
9.136890e-10 -4.000030e+03 9.891190e-10
2.110860e-09 -4.400020e+03 -4.000000e+02
4.000000e+02 -4.400020e+03 -4.000000e+02
1.706510e-09 -4.000030e+03 -4.000000e+02
4.000000e+02 -4.000030e+03 -4.000000e+02
1.234670e-09 -4.400020e+03 1.313520e-09
4.000000e+02 -4.400020e+03 1.609440e-09
9.136890e-10 -4.000030e+03 9.891190e-10
4.000000e+02 -4.000030e+03 2.010420e-09
-4.000000e+02 -4.000030e+03 -4.000000e+02
1.706510e-09 -4.000030e+03 -4.000000e+02
-4.000000e+02 -3.600050e+03 -4.000000e+02
1.826760e-09 -3.600050e+03 -4.000000e+02
-4.000000e+02 -4.000030e+03 1.158350e-09
9.136890e-10 -4.000030e+03 9.891190e-10
-4.000000e+02 -3.600050e+03 9.239010e-10
2.092430e-09 -3.600050e+03 1.006900e-09
1.706510e-09 -4.000030e+03 -4.000000e+02
4.000000e+02 -4.000030e+03 -4.000000e+02
1.826760e-09 -3.600050e+03 -4.000000e+02
4.000000e+02 -3.600050e+03 -4.000000e+02
9.136890e-10 -4.000030e+03 9.891190e-10
4.000000e+02 -4.000030e+03 2.010420e-09
2.092430e-09 -3.600050e+03 1.006900e-09
4.000000e+02 -3.600050e+03 1.924820e-09
-4.000000e+02 -3.600050e+03 -4.000000e+02
1.826760e-09 -3.600050e+03 -4.000000e+02
-4.000000e+02 -3.200090e+03 -4.000000e+02
2.937330e-09 -3.200090e+03 -4.000000e+02
-4.000000e+02 -3.600050e+03 9.239010e-10
2.092430e-09 -3.600050e+03 1.006900e-09
-4.000000e+02 -3.200090e+03 1.026020e-09
2.123150e-09 -3.200090e+03 1.027400e-09
1.826760e-09 -3.600050e+03 -4.000000e+02
4.000000e+02 -3.600050e+03 -4.000000e+02
2.937330e-09 -3.200090e+03 -4.000000e+02
4.000000e+02 -3.200090e+03 -4.000000e+02
2.092430e-09 -3.600050e+03 1.006900e-09
4.000000e+02 -3.600050e+03 1.924820e-09
2.123150e-09 -3.200090e+03 1.027400e-09
4.000000e+02 -3.200090e+03 1.651750e-09
-4.000000e+02 -3.200090e+03 -4.000000e+02
2.937330e-09 -3.200090e+03 -4.000000e+02
-4.000000e+02 -2.800140e+03 -4.000000e+02
2.362390e-09 -2.800140e+03 -4.000000e+02
-4.000000e+02 -3.200090e+03 1.026020e-09
2.123150e-09 -3.200090e+03 1.027400e-09
-4.000000e+02 -2.800140e+03 2.641480e-10
2.312050e-09 -2.800140e+03 1.023560e-09
2.937330e-09 -3.200090e+03 -4.000000e+02
4.000000e+02 -3.200090e+03 -4.000000e+02
2.362390e-09 -2.800140e+03 -4.000000e+02
4.000000e+02 -2.800140e+03 -4.000000e+02
2.123150e-09 -3.200090e+03 1.027400e-09
4.000000e+02 -3.200090e+03 1.651750e-09
2.312050e-09 -2.800140e+03 1.023560e-09
4.000000e+02 -2.800140e+03 2.500070e-09
-4.000000e+02 -2.800140e+03 -4.000000e+02
2.362390e-09 -2.800140e+03 -4.000000e+02
-4.000000e+02 -2.400210e+03 -4.000000e+02
1.585420e-09 -2.400210e+03 -4.000000e+02
-4.000000e+02 -2.800140e+03 2.641480e-10
2.312050e-09 -2.800140e+03 1.023560e-09
-4.000000e+02 -2.400210e+03 3.164420e-10
1.429960e-09 -2.400210e+03 8.912020e-10
2.362390e-09 -2.800140e+03 -4.000000e+02
4.000000e+02 -2.800140e+03 -4.000000e+02
1.585420e-09 -2.400210e+03 -4.000000e+02
4.000000e+02 -2.400210e+03 -4.000000e+02
2.312050e-09 -2.800140e+03 1.023560e-09
4.000000e+02 -2.800140e+03 2.500070e-09
1.429960e-09 -2.400210e+03 8.912020e-10
4.000000e+02 -2.400210e+03 1.741070e-09
-4.000000e+02 -2.400210e+03 -4.000000e+02
1.585420e-09 -2.400210e+03 -4.000000e+02
-4.000000e+02 -2.000280e+03 -4.000000e+02
1.971300e-09 -2.000280e+03 -4.000000e+02
-4.000000e+02 -2.400210e+03 3.164420e-10
1.429960e-09 -2.400210e+03 8.912020e-10
-4.000000e+02 -2.000280e+03 6.891500e-10
1.165750e-09 -2.000280e+03 5.428080e-10
1.585420e-09 -2.400210e+03 -4.000000e+02
4.000000e+02 -2.400210e+03 -4.000000e+02
1.971300e-09 -2.000280e+03 -4.000000e+02
4.000000e+02 -2.000280e+03 -4.000000e+02
1.429960e-09 -2.400210e+03 8.912020e-10
4.000000e+02 -2.400210e+03 1.741070e-09
1.165750e-09 -2.000280e+03 5.428080e-10
4.000000e+02 -2.000280e+03 9.832950e-10
-4.000000e+02 -2.000280e+03 -4.000000e+02
1.971300e-09 -2.000280e+03 -4.000000e+02
-4.000000e+02 -1.600320e+03 -4.000000e+02
1.200700e-09 -1.600320e+03 -4.000000e+02
-4.000000e+02 -2.000280e+03 6.891500e-10
1.165750e-09 -2.000280e+03 5.428080e-10
-4.000000e+02 -1.600320e+03 6.529240e-10
7.862430e-10 -1.600320e+03 3.817270e-10
1.971300e-09 -2.000280e+03 -4.000000e+02
4.000000e+02 -2.000280e+03 -4.000000e+02
1.200700e-09 -1.600320e+03 -4.000000e+02
4.000000e+02 -1.600320e+03 -4.000000e+02
1.165750e-09 -2.000280e+03 5.428080e-10
4.000000e+02 -2.000280e+03 9.832950e-10
7.862430e-10 -1.600320e+03 3.817270e-10
4.000000e+02 -1.600320e+03 4.807450e-10
-4.000000e+02 -1.600320e+03 -4.000000e+02
1.200700e-09 -1.600320e+03 -4.000000e+02
-4.000000e+02 -1.200310e+03 -4.000000e+02
5.132650e-10 -1.200310e+03 -4.000000e+02
-4.000000e+02 -1.600320e+03 6.529240e-10
7.862430e-10 -1.600320e+03 3.817270e-10
-4.000000e+02 -1.200310e+03 2.372920e-10
3.233500e-10 -1.200310e+03 -2.564970e-11
1.200700e-09 -1.600320e+03 -4.000000e+02
4.000000e+02 -1.600320e+03 -4.000000e+02
5.132650e-10 -1.200310e+03 -4.000000e+02
4.000000e+02 -1.200310e+03 -4.000000e+02
7.862430e-10 -1.600320e+03 3.817270e-10
4.000000e+02 -1.600320e+03 4.807450e-10
3.233500e-10 -1.200310e+03 -2.564970e-11
4.000000e+02 -1.200310e+03 1.374030e-10
-4.000000e+02 -1.200310e+03 -4.000000e+02
5.132650e-10 -1.200310e+03 -4.000000e+02
-4.000000e+02 -8.002800e+02 -4.000000e+02
1.022250e-09 -8.002800e+02 -4.000000e+02
-4.000000e+02 -1.200310e+03 2.372920e-10
3.233500e-10 -1.200310e+03 -2.564970e-11
-4.000000e+02 -8.002800e+02 3.186360e-10
4.174590e-10 -8.002800e+02 6.003600e-10
5.132650e-10 -1.200310e+03 -4.000000e+02
4.000000e+02 -1.200310e+03 -4.000000e+02
1.022250e-09 -8.002800e+02 -4.000000e+02
4.000000e+02 -8.002800e+02 -4.000000e+02
3.233500e-10 -1.200310e+03 -2.564970e-11
4.000000e+02 -1.200310e+03 1.374030e-10
4.174590e-10 -8.002800e+02 6.003600e-10
4.000000e+02 -8.002800e+02 3.894990e-10
-4.000000e+02 -8.002800e+02 -4.000000e+02
1.022250e-09 -8.002800e+02 -4.000000e+02
-4.000000e+02 -4.002610e+02 -4.000000e+02
1.365430e-09 -4.002610e+02 -4.000000e+02
-4.000000e+02 -8.002800e+02 3.186360e-10
4.174590e-10 -8.002800e+02 6.003600e-10
-4.000000e+02 -4.002610e+02 -1.278950e-10
3.255270e-10 -4.002610e+02 -4.609580e-10
1.022250e-09 -8.002800e+02 -4.000000e+02
4.000000e+02 -8.002800e+02 -4.000000e+02
1.365430e-09 -4.002610e+02 -4.000000e+02
4.000000e+02 -4.002610e+02 -4.000000e+02
4.174590e-10 -8.002800e+02 6.003600e-10
4.000000e+02 -8.002800e+02 3.894990e-10
3.255270e-10 -4.002610e+02 -4.609580e-10
4.000000e+02 -4.002610e+02 -4.277600e-11
-4.000000e+02 -4.002610e+02 -4.000000e+02
1.365430e-09 -4.002610e+02 -4.000000e+02
-4.000000e+02 -2.712580e-01 -4.000000e+02
6.509780e-10 -2.712580e-01 -4.000000e+02
-4.000000e+02 -4.002610e+02 -1.278950e-10
3.255270e-10 -4.002610e+02 -4.609580e-10
-4.000000e+02 -2.712580e-01 -1.083480e-09
2.761210e-10 -2.712580e-01 -7.210420e-10
1.365430e-09 -4.002610e+02 -4.000000e+02
4.000000e+02 -4.002610e+02 -4.000000e+02
6.509780e-10 -2.712580e-01 -4.000000e+02
4.000000e+02 -2.712580e-01 -4.000000e+02
3.255270e-10 -4.002610e+02 -4.609580e-10
[...]
<PointData>
<DataArray type="Float32" Name="V1" format="ascii">
0.000000e+00
0.000000e+00
-6.441610e-10
4.638970e-11
0.000000e+00
0.000000e+00
1.916770e-09
1.173710e-09
0.000000e+00
0.000000e+00
4.638970e-11
-1.791080e-09
0.000000e+00
0.000000e+00
1.173710e-09
8.641190e-10
-6.441610e-10
4.638970e-11
-5.813160e-10
-6.956010e-10
1.916770e-09
1.173710e-09
-6.284500e-11
-3.381740e-10
4.638970e-11
-1.791080e-09
-6.956010e-10
-2.089600e-09
1.173710e-09
8.641190e-10
-3.381740e-10
-4.713380e-11
-5.813160e-10
-6.956010e-10
7.227180e-10
-3.935250e-10
-6.284500e-11
-3.381740e-10
-1.728240e-10
-5.478140e-10
-6.956010e-10
-2.089600e-09
-3.935250e-10
-4.556260e-10
-3.381740e-10
-4.713380e-11
-5.478140e-10
0.000000e+00
7.227180e-10
-3.935250e-10
-9.269640e-10
4.007470e-10
-1.728240e-10
-5.478140e-10
1.115500e-09
3.362500e-10
-3.935250e-10
-4.556260e-10
4.007470e-10
-9.426750e-11
-5.478140e-10
0.000000e+00
3.362500e-10
-1.728240e-10
-9.269640e-10
4.007470e-10
-6.598730e-10
7.668640e-10
1.115500e-09
3.362500e-10
-1.225480e-09
-8.450010e-10
4.007470e-10
-9.426750e-11
7.668640e-10
2.073890e-09
3.362500e-10
-1.728240e-10
-8.450010e-10
-2.089600e-09
-6.598730e-10
7.668640e-10
-5.813160e-10
2.510650e-10
-1.225480e-09
-8.450010e-10
1.728240e-10
-3.101710e-10
7.668640e-10
2.073890e-09
2.510650e-10
1.021230e-09
-8.450010e-10
-2.089600e-09
-3.101710e-10
-8.798300e-10
-5.813160e-10
2.510650e-10
-1.036940e-09
-8.798030e-10
1.728240e-10
-3.101710e-10
-3.770700e-10
1.363070e-10
2.510650e-10
1.021230e-09
-8.798030e-10
-6.127390e-10
-3.101710e-10
-8.798300e-10
1.363070e-10
1.304030e-09
-1.036940e-09
-8.798030e-10
1.681100e-09
7.937230e-10
-3.770700e-10
1.363070e-10
5.813160e-10
6.738590e-10
-8.798030e-10
-6.127390e-10
7.937230e-10
-3.613590e-10
1.363070e-10
1.304030e-09
6.738590e-10
-7.855630e-11
1.681100e-09
7.937230e-10
8.012740e-10
-1.808950e-10
5.813160e-10
6.738590e-10
4.242040e-10
4.821690e-10
7.937230e-10
-3.613590e-10
-1.808950e-10
-1.036940e-09
6.738590e-10
-7.855630e-11
4.821690e-10
1.272610e-09
8.012740e-10
-1.808950e-10
-1.036940e-09
-8.630270e-10
4.242040e-10
4.821690e-10
0.000000e+00
2.355700e-11
-1.808950e-10
-1.036940e-09
-8.630270e-10
8.326970e-10
4.821690e-10
1.272610e-09
2.355700e-11
-1.571130e-10
-1.036940e-09
-8.630270e-10
0.000000e+00
7.383830e-10
0.000000e+00
2.355700e-11
-9.898090e-10
2.421080e-10
-8.630270e-10
8.326970e-10
7.383830e-10
0.000000e+00
2.355700e-11
-1.571130e-10
2.421080e-10
2.828030e-10
0.000000e+00
7.383830e-10
5.184710e-10
-3.304240e-11
-9.898090e-10
2.421080e-10
-5.341830e-10
-7.850450e-11
7.383830e-10
0.000000e+00
-3.304240e-11
-4.713380e-11
2.421080e-10
2.828030e-10
-7.850450e-11
2.828030e-10
5.184710e-10
-3.304240e-11
4.713380e-10
-1.217550e-10
-5.341830e-10
-7.850450e-11
1.429720e-09
-2.618550e-10
-3.304240e-11
-4.713380e-11
-1.217550e-10
0.000000e+00
-7.850450e-11
2.828030e-10
-2.618550e-10
-5.027600e-10
4.713380e-10
-1.217550e-10
1.571130e-11
5.519420e-10
1.429720e-09
-2.618550e-10
1.571130e-10
-3.045480e-10
-1.217550e-10
0.000000e+00
5.519420e-10
7.698510e-10
-2.618550e-10
-5.027600e-10
-3.045480e-10
9.426750e-10
1.571130e-11
5.519420e-10
1.759660e-09
2.118900e-10
1.571130e-10
-3.045480e-10
1.571130e-11
-2.205810e-10
5.519420e-10
7.698510e-10
2.118900e-10
2.670910e-10
-3.045480e-10
9.426750e-10
-2.205810e-10
-4.870490e-10
1.759660e-09
2.118900e-10
-6.912950e-10
-4.854440e-10
1.571130e-11
-2.205810e-10
1.571130e-10
-4.273490e-10
2.118900e-10
2.670910e-10
-4.854440e-10
5.970280e-10
-2.205810e-10
-4.870490e-10
-4.273490e-10
-8.641190e-10
-6.912950e-10
-4.854440e-10
-9.112530e-10
6.863350e-10
1.571130e-10
-4.273490e-10
1.351170e-09
1.904980e-10
-4.854440e-10
5.970280e-10
6.863350e-10
0.000000e+00
-4.273490e-10
-8.641190e-10
1.904980e-10
0.000000e+00
-9.112530e-10
6.863350e-10
1.272610e-09
-4.838060e-10
1.351170e-09
1.904980e-10
-7.384290e-10
-1.007480e-10
6.863350e-10
0.000000e+00
-4.838060e-10
-1.869640e-09
1.904980e-10
0.000000e+00
-1.007480e-10
0.000000e+00
1.272610e-09
-4.838060e-10
-1.649680e-09
9.165810e-11
-7.384290e-10
-1.007480e-10
4.713380e-10
-1.499030e-10
-4.838060e-10
-1.869640e-09
9.165810e-11
1.131210e-09
-1.007480e-10
0.000000e+00
-1.499030e-10
-4.870490e-10
-1.649680e-09
9.165810e-11
-3.315070e-09
-7.810510e-10
4.713380e-10
-1.499030e-10
5.656050e-10
-4.057420e-10
9.165810e-11
1.131210e-09
-7.810510e-10
1.523990e-09
-1.499030e-10
-4.870490e-10
-4.057420e-10
-1.304030e-09
-3.315070e-09
-7.810510e-10
4.540550e-09
1.197160e-09
5.656050e-10
-4.057420e-10
-7.541400e-10
-1.477140e-10
-7.810510e-10
1.523990e-09
1.197160e-09
-2.073890e-09
-4.057420e-10
-1.304030e-09
-1.477140e-10
4.556260e-10
4.540550e-09
1.197160e-09
3.896390e-09
1.303770e-09
-7.541400e-10
-1.477140e-10
-4.242040e-10
3.837330e-10
1.197160e-09
-2.073890e-09
1.303770e-09
-1.288320e-09
-1.477140e-10
4.556260e-10
3.837330e-10
1.052650e-09
3.896390e-09
1.303770e-09
-5.121870e-09
-1.394650e-09
-4.242040e-10
3.837330e-10
1.068370e-09
2.739740e-10
1.303770e-09
-1.288320e-09
-1.394650e-09
2.309550e-09
3.837330e-10
1.052650e-09
2.739740e-10
-4.556260e-10
-5.121870e-09
-1.394650e-09
-1.288320e-09
-5.450740e-10
1.068370e-09
2.739740e-10
-1.414010e-10
1.725710e-10
-1.394650e-09
2.309550e-09
-5.450740e-10
9.426750e-11
2.739740e-10
-4.556260e-10
1.725710e-10
4.870490e-10
-1.288320e-09
-5.450740e-10
1.571130e-09
4.764000e-10
-1.414010e-10
1.725710e-10
-1.885350e-10
-1.346020e-11
-5.450740e-10
9.426750e-11
4.764000e-10
-5.184710e-10
1.725710e-10
4.870490e-10
-1.346020e-11
1.414010e-10
1.571130e-09
4.764000e-10
1.414010e-10
1.526830e-10
-1.885350e-10
-1.346020e-11
0.000000e+00
-3.833770e-11
4.764000e-10
-5.184710e-10
1.526830e-10
0.000000e+00
-1.346020e-11
1.414010e-10
-3.833770e-11
-1.256900e-10
1.414010e-10
1.526830e-10
0.000000e+00
2.875060e-12
0.000000e+00
-3.833770e-11
0.000000e+00
-1.094760e-11
1.526830e-10
0.000000e+00
2.875060e-12
0.000000e+00
-3.833770e-11
-1.256900e-10
-1.094760e-11
0.000000e+00
0.000000e+00
2.875060e-12
0.000000e+00
-9.321720e-12
0.000000e+00
-1.094760e-11
0.000000e+00
-1.123700e-11
2.875060e-12
0.000000e+00
-9.321720e-12
0.000000e+00
-1.094760e-11
0.000000e+00
-1.123700e-11
0.000000e+00
0.000000e+00
-9.321720e-12
0.000000e+00
4.364980e-12
0.000000e+00
-1.123700e-11
0.000000e+00
3.045110e-13
-9.321720e-12
0.000000e+00
4.364980e-12
0.000000e+00
-1.123700e-11
0.000000e+00
3.045110e-13
0.000000e+00
0.000000e+00
4.364980e-12
0.000000e+00
-9.534900e-12
0.000000e+00
3.045110e-13
0.000000e+00
-1.745080e-11
4.364980e-12
0.000000e+00
-9.534900e-12
0.000000e+00
3.045110e-13
0.000000e+00
-1.745080e-11
0.000000e+00
0.000000e+00
0.000000e+00
1.916770e-09
1.173710e-09
0.000000e+00
0.000000e+00
-4.399150e-10
-9.742640e-10
0.000000e+00
0.000000e+00
1.173710e-09
8.641190e-10
0.000000e+00
0.000000e+00
-9.742640e-10
-3.016560e-09
1.916770e-09
1.173710e-09
-6.284500e-11
-3.381740e-10
-4.399150e-10
-9.742640e-10
-2.105310e-09
-3.899200e-11
1.173710e-09
8.641190e-10
-3.381740e-10
-4.713380e-11
-9.742640e-10
-3.016560e-09
-3.899200e-11
9.740980e-10
-6.284500e-11
-3.381740e-10
-1.728240e-10
-5.478140e-10
-2.105310e-09
-3.899200e-11
-8.484080e-10
-1.227210e-09
-3.381740e-10
-4.713380e-11
-5.478140e-10
0.000000e+00
-3.899200e-11
9.740980e-10
-1.227210e-09
-2.356690e-10
-1.728240e-10
-5.478140e-10
1.115500e-09
3.362500e-10
-8.484080e-10
-1.227210e-09
-4.870490e-10
9.848590e-10
-5.478140e-10
0.000000e+00
3.362500e-10
-1.728240e-10
-1.227210e-09
-2.356690e-10
9.848590e-10
9.269640e-10
1.115500e-09
3.362500e-10
-1.225480e-09
-8.450010e-10
-4.870490e-10
9.848590e-10
5.498940e-10
1.113420e-09
3.362500e-10
-1.728240e-10
-8.450010e-10
-2.089600e-09
9.848590e-10
9.269640e-10
1.113420e-09
8.641190e-10
-1.225480e-09
-8.450010e-10
1.728240e-10
-3.101710e-10
5.498940e-10
1.113420e-09
1.162630e-09
7.243830e-10
-8.450010e-10
-2.089600e-09
-3.101710e-10
-8.798300e-10
1.113420e-09
8.641190e-10
7.243830e-10
1.571130e-11
1.728240e-10
-3.101710e-10
-3.770700e-10
1.363070e-10
1.162630e-09
7.243830e-10
-3.142250e-10
-8.521580e-10
-3.101710e-10
-8.798300e-10
1.363070e-10
1.304030e-09
7.243830e-10
1.571130e-11
-8.521580e-10
-1.681100e-09
-3.770700e-10
1.363070e-10
5.813160e-10
6.738590e-10
-3.142250e-10
-8.521580e-10
1.241190e-09
3.640440e-10
1.363070e-10
1.304030e-09
6.738590e-10
-7.855630e-11
-8.521580e-10
-1.681100e-09
3.640440e-10
1.225480e-09
5.813160e-10
6.738590e-10
4.242040e-10
4.821690e-10
1.241190e-09
3.640440e-10
2.199580e-09
5.273700e-10
6.738590e-10
-7.855630e-11
4.821690e-10
1.272610e-09
3.640440e-10
1.225480e-09
5.273700e-10
-8.169850e-10
4.242040e-10
4.821690e-10
0.000000e+00
2.355700e-11
2.199580e-09
5.273700e-10
-1.461150e-09
-1.378130e-09
4.821690e-10
1.272610e-09
2.355700e-11
-1.571130e-10
5.273700e-10
-8.169850e-10
-1.378130e-09
0.000000e+00
0.000000e+00
2.355700e-11
-9.898090e-10
2.421080e-10
-1.461150e-09
-1.378130e-09
5.498940e-10
7.419700e-10
2.355700e-11
-1.571130e-10
2.421080e-10
2.828030e-10
-1.378130e-09
0.000000e+00
7.419700e-10
3.613590e-10
-9.898090e-10
2.421080e-10
-5.341830e-10
-7.850450e-11
5.498940e-10
7.419700e-10
-6.912950e-10
2.747970e-11
2.421080e-10
2.828030e-10
-7.850450e-11
2.828030e-10
7.419700e-10
3.613590e-10
2.747970e-11
-6.912950e-10
-5.341830e-10
-7.850450e-11
1.429720e-09
-2.618550e-10
-6.912950e-10
2.747970e-11
2.089600e-09
2.654120e-10
-7.850450e-11
2.828030e-10
-2.618550e-10
-5.027600e-10
2.747970e-11
-6.912950e-10
2.654120e-10
-1.021230e-09
1.429720e-09
-2.618550e-10
1.571130e-10
-3.045480e-10
2.089600e-09
2.654120e-10
3.927810e-10
-4.964880e-10
-2.618550e-10
-5.027600e-10
-3.045480e-10
9.426750e-10
2.654120e-10
-1.021230e-09
-4.964880e-10
6.127390e-10
1.571130e-10
-3.045480e-10
1.571130e-11
-2.205810e-10
3.927810e-10
-4.964880e-10
7.855630e-11
-2.140250e-10
-3.045480e-10
9.426750e-10
-2.205810e-10
-4.870490e-10
-4.964880e-10
6.127390e-10
-2.140250e-10
7.698510e-10
1.571130e-11
-2.205810e-10
1.571130e-10
-4.273490e-10
7.855630e-11
-2.140250e-10
1.084080e-09
2.029010e-10
-2.205810e-10
-4.870490e-10
-4.273490e-10
-8.641190e-10
-2.140250e-10
7.698510e-10
2.029010e-10
-8.326970e-10
1.571130e-10
-4.273490e-10
1.351170e-09
1.904980e-10
1.084080e-09
2.029010e-10
-4.713380e-10
-8.923140e-10
-4.273490e-10
-8.641190e-10
1.904980e-10
0.000000e+00
2.029010e-10
-8.326970e-10
-8.923140e-10
-3.613590e-10
1.351170e-09
1.904980e-10
-7.384290e-10
-1.007480e-10
-4.713380e-10
-8.923140e-10
7.070060e-10
4.043260e-10
1.904980e-10
0.000000e+00
-1.007480e-10
0.000000e+00
-8.923140e-10
-3.613590e-10
4.043260e-10
-1.728240e-10
-7.384290e-10
-1.007480e-10
4.713380e-10
-1.499030e-10
7.070060e-10
4.043260e-10
-6.284500e-10
2.714670e-11
-1.007480e-10
0.000000e+00
-1.499030e-10
-4.870490e-10
4.043260e-10
-1.728240e-10
2.714670e-11
1.586840e-09
4.713380e-10
-1.499030e-10
5.656050e-10
-4.057420e-10
-6.284500e-10
2.714670e-11
-5.498940e-10
2.824790e-10
-1.499030e-10
-4.870490e-10
-4.057420e-10
-1.304030e-09
2.714670e-11
1.586840e-09
2.824790e-10
1.256900e-09
5.656050e-10
-4.057420e-10
-7.541400e-10
-1.477140e-10
-5.498940e-10
2.824790e-10
-5.970280e-10
-1.953850e-09
-4.057420e-10
-1.304030e-09
-1.477140e-10
4.556260e-10
2.824790e-10
1.256900e-09
-1.953850e-09
-3.315070e-09
-7.541400e-10
-1.477140e-10
-4.242040e-10
3.837330e-10
-5.970280e-10
-1.953850e-09
9.426750e-11
-8.326140e-10
-1.477140e-10
4.556260e-10
3.837330e-10
1.052650e-09
-1.953850e-09
-3.315070e-09
-8.326140e-10
-1.743950e-09
-4.242040e-10
3.837330e-10
1.068370e-09
2.739740e-10
9.426750e-11
-8.326140e-10
7.070060e-10
2.142060e-09
3.837330e-10
1.052650e-09
2.739740e-10
-4.556260e-10
-8.326140e-10
-1.743950e-09
2.142060e-09
3.754990e-09
1.068370e-09
2.739740e-10
-1.414010e-10
1.725710e-10
7.070060e-10
2.142060e-09
8.641190e-10
8.435650e-10
2.739740e-10
-4.556260e-10
1.725710e-10
4.870490e-10
2.142060e-09
3.754990e-09
8.435650e-10
9.583870e-10
-1.414010e-10
1.725710e-10
-1.885350e-10
-1.346020e-11
8.641190e-10
8.435650e-10
-1.256900e-10
-5.152590e-10
1.725710e-10
4.870490e-10
-1.346020e-11
1.414010e-10
8.435650e-10
9.583870e-10
-5.152590e-10
-9.426750e-10
-1.885350e-10
-1.346020e-11
0.000000e+00
-3.833770e-11
-1.256900e-10
-5.152590e-10
-2.670910e-10
-1.801770e-10
-1.346020e-11
1.414010e-10
-3.833770e-11
-1.256900e-10
-5.152590e-10
-9.426750e-10
-1.801770e-10
-4.713380e-11
0.000000e+00
-3.833770e-11
0.000000e+00
-1.094760e-11
-2.670910e-10
-1.801770e-10
0.000000e+00
-2.724030e-13
-3.833770e-11
-1.256900e-10
-1.094760e-11
0.000000e+00
-1.801770e-10
-4.713380e-11
-2.724030e-13
0.000000e+00
0.000000e+00
-1.094760e-11
0.000000e+00
-1.123700e-11
0.000000e+00
-2.724030e-13
0.000000e+00
-4.390010e-12
-1.094760e-11
0.000000e+00
-1.123700e-11
0.000000e+00
-2.724030e-13
0.000000e+00
-4.390010e-12
0.000000e+00
0.000000e+00
-1.123700e-11
0.000000e+00
3.045110e-13
0.000000e+00
-4.390010e-12
0.000000e+00
4.636540e-12
-1.123700e-11
0.000000e+00
3.045110e-13
0.000000e+00
-4.390010e-12
0.000000e+00
4.636540e-12
0.000000e+00
0.000000e+00
3.045110e-13
0.000000e+00
-1.745080e-11
0.000000e+00
4.636540e-12
0.000000e+00
-2.032190e-11
3.045110e-13
0.000000e+00
-1.745080e-11
0.000000e+00
4.636540e-12
0.000000e+00
-2.032190e-11
0.000000e+00
</DataArray>
<DataArray type="Float32" Name="V2" format="ascii">
0.000000e+00
0.000000e+00
7.845850e-04
7.845790e-04
0.000000e+00
0.000000e+00
7.845810e-04
7.845820e-04
0.000000e+00
0.000000e+00
7.845790e-04
7.845800e-04
0.000000e+00
0.000000e+00
7.845820e-04
7.845850e-04
7.845850e-04
7.845790e-04
9.473740e-04
9.473770e-04
7.845810e-04
7.845820e-04
9.473760e-04
9.473730e-04
7.845790e-04
7.845800e-04
9.473770e-04
9.473710e-04
7.845820e-04
7.845850e-04
9.473730e-04
9.473740e-04
9.473740e-04
9.473770e-04
2.519430e-03
2.519430e-03
9.473760e-04
9.473730e-04
2.519440e-03
2.519440e-03
9.473770e-04
9.473710e-04
2.519430e-03
2.519430e-03
9.473730e-04
9.473740e-04
2.519440e-03
2.519440e-03
2.519430e-03
2.519430e-03
4.890030e-03
4.890030e-03
2.519440e-03
2.519440e-03
4.890030e-03
4.890020e-03
2.519430e-03
2.519430e-03
4.890030e-03
4.890020e-03
2.519440e-03
2.519440e-03
4.890020e-03
4.890030e-03
4.890030e-03
4.890030e-03
9.854860e-03
9.854850e-03
4.890030e-03
4.890020e-03
9.854850e-03
9.854850e-03
4.890030e-03
4.890020e-03
9.854850e-03
9.854850e-03
4.890020e-03
4.890030e-03
9.854850e-03
9.854850e-03
9.854860e-03
9.854850e-03
1.851810e-02
1.851810e-02
9.854850e-03
9.854850e-03
1.851810e-02
1.851810e-02
9.854850e-03
9.854850e-03
1.851810e-02
1.851810e-02
9.854850e-03
9.854850e-03
1.851810e-02
1.851810e-02
1.851810e-02
1.851810e-02
3.079720e-02
3.079720e-02
1.851810e-02
1.851810e-02
3.079720e-02
3.079720e-02
1.851810e-02
1.851810e-02
3.079720e-02
3.079720e-02
1.851810e-02
1.851810e-02
3.079720e-02
3.079720e-02
3.079720e-02
3.079720e-02
4.368180e-02
4.368180e-02
3.079720e-02
3.079720e-02
4.368180e-02
4.368180e-02
3.079720e-02
3.079720e-02
4.368180e-02
4.368180e-02
3.079720e-02
3.079720e-02
4.368180e-02
4.368180e-02
4.368180e-02
4.368180e-02
4.834000e-02
4.834000e-02
4.368180e-02
4.368180e-02
4.834000e-02
4.834000e-02
4.368180e-02
4.368180e-02
4.834000e-02
4.834000e-02
4.368180e-02
4.368180e-02
4.834000e-02
4.834000e-02
4.834000e-02
4.834000e-02
3.837250e-02
3.837250e-02
4.834000e-02
4.834000e-02
3.837250e-02
3.837250e-02
4.834000e-02
4.834000e-02
3.837250e-02
3.837250e-02
4.834000e-02
4.834000e-02
3.837250e-02
3.837250e-02
3.837250e-02
3.837250e-02
1.050510e-02
1.050510e-02
3.837250e-02
3.837250e-02
1.050510e-02
1.050510e-02
3.837250e-02
3.837250e-02
1.050510e-02
1.050510e-02
3.837250e-02
3.837250e-02
1.050510e-02
1.050510e-02
1.050510e-02
1.050510e-02
-1.795270e-02
-1.795270e-02
1.050510e-02
1.050510e-02
-1.795270e-02
-1.795270e-02
1.050510e-02
1.050510e-02
-1.795270e-02
-1.795270e-02
1.050510e-02
1.050510e-02
-1.795270e-02
-1.795270e-02
-1.795270e-02
-1.795270e-02
-2.270730e-02
-2.270730e-02
-1.795270e-02
-1.795270e-02
-2.270730e-02
-2.270730e-02
-1.795270e-02
-1.795270e-02
-2.270730e-02
-2.270730e-02
-1.795270e-02
-1.795270e-02
-2.270730e-02
-2.270730e-02
-2.270730e-02
-2.270730e-02
-4.164780e-03
-4.164780e-03
-2.270730e-02
-2.270730e-02
-4.164780e-03
-4.164780e-03
-2.270730e-02
-2.270730e-02
-4.164780e-03
-4.164780e-03
-2.270730e-02
-2.270730e-02
-4.164780e-03
-4.164790e-03
-4.164780e-03
-4.164780e-03
1.541230e-02
1.541230e-02
-4.164780e-03
-4.164780e-03
1.541230e-02
1.541230e-02
-4.164780e-03
-4.164780e-03
1.541230e-02
1.541230e-02
-4.164780e-03
-4.164790e-03
1.541230e-02
1.541230e-02
1.541230e-02
1.541230e-02
6.870180e-03
6.870180e-03
1.541230e-02
1.541230e-02
6.870170e-03
6.870180e-03
1.541230e-02
1.541230e-02
6.870180e-03
6.870180e-03
1.541230e-02
1.541230e-02
6.870180e-03
6.870180e-03
6.870180e-03
6.870180e-03
-1.088460e-02
-1.088460e-02
6.870170e-03
6.870180e-03
-1.088460e-02
-1.088460e-02
6.870180e-03
6.870180e-03
-1.088460e-02
-1.088460e-02
6.870180e-03
6.870180e-03
-1.088460e-02
-1.088460e-02
-1.088460e-02
-1.088460e-02
-3.753350e-03
-3.753350e-03
-1.088460e-02
-1.088460e-02
-3.753360e-03
-3.753360e-03
-1.088460e-02
-1.088460e-02
-3.753350e-03
-3.753350e-03
-1.088460e-02
-1.088460e-02
-3.753360e-03
-3.753360e-03
-3.753350e-03
-3.753350e-03
6.478550e-03
6.478550e-03
-3.753360e-03
-3.753360e-03
6.478550e-03
6.478550e-03
-3.753350e-03
-3.753350e-03
6.478550e-03
6.478550e-03
-3.753360e-03
-3.753360e-03
6.478550e-03
6.478550e-03
6.478550e-03
6.478550e-03
-2.781390e-04
-2.781480e-04
6.478550e-03
6.478550e-03
-2.781410e-04
-2.781420e-04
6.478550e-03
6.478550e-03
-2.781480e-04
-2.781470e-04
6.478550e-03
6.478550e-03
-2.781420e-04
-2.781440e-04
-2.781390e-04
-2.781480e-04
-2.481230e-03
-2.481230e-03
-2.781410e-04
-2.781420e-04
-2.481230e-03
-2.481220e-03
-2.781480e-04
-2.781470e-04
-2.481230e-03
-2.481220e-03
-2.781420e-04
-2.781440e-04
-2.481220e-03
-2.481230e-03
-2.481230e-03
-2.481230e-03
7.908700e-04
7.909290e-04
-2.481230e-03
-2.481220e-03
7.909130e-04
7.908800e-04
-2.481230e-03
-2.481220e-03
7.909290e-04
7.908860e-04
-2.481220e-03
-2.481230e-03
7.908800e-04
7.909210e-04
7.908700e-04
7.909290e-04
4.595260e-04
4.595060e-04
7.909130e-04
7.908800e-04
4.595150e-04
4.595250e-04
7.909290e-04
7.908860e-04
4.595060e-04
4.595230e-04
7.908800e-04
7.909210e-04
4.595250e-04
4.595140e-04
4.595260e-04
4.595060e-04
-2.959090e-04
-2.959230e-04
4.595150e-04
4.595250e-04
-2.959190e-04
-2.959090e-04
4.595060e-04
4.595230e-04
-2.959230e-04
-2.959100e-04
4.595250e-04
4.595140e-04
-2.959090e-04
-2.959200e-04
-2.959090e-04
-2.959230e-04
1.833450e-05
1.833350e-05
-2.959190e-04
-2.959090e-04
1.833430e-05
1.833330e-05
-2.959230e-04
-2.959100e-04
1.833350e-05
1.833200e-05
-2.959090e-04
-2.959200e-04
1.833330e-05
1.833380e-05
1.833450e-05
1.833350e-05
9.016930e-05
9.016850e-05
1.833430e-05
1.833330e-05
9.016890e-05
9.016870e-05
1.833350e-05
1.833200e-05
9.016850e-05
9.016880e-05
1.833330e-05
1.833380e-05
9.016870e-05
9.016950e-05
9.016930e-05
9.016850e-05
4.293160e-05
4.293160e-05
9.016890e-05
9.016870e-05
4.293130e-05
4.293190e-05
9.016850e-05
9.016880e-05
4.293160e-05
4.293130e-05
9.016870e-05
9.016950e-05
4.293190e-05
4.293190e-05
4.293160e-05
4.293160e-05
1.142120e-04
1.142120e-04
4.293130e-05
4.293190e-05
1.142120e-04
1.142120e-04
4.293160e-05
4.293130e-05
1.142120e-04
1.142120e-04
4.293190e-05
4.293190e-05
1.142120e-04
1.142120e-04
1.142120e-04
1.142120e-04
1.304100e-04
1.304100e-04
1.142120e-04
1.142120e-04
1.304100e-04
1.304100e-04
1.142120e-04
1.142120e-04
1.304100e-04
1.304100e-04
1.142120e-04
1.142120e-04
1.304100e-04
1.304100e-04
1.304100e-04
1.304100e-04
-1.100710e-05
-1.100760e-05
1.304100e-04
1.304100e-04
-1.100730e-05
-1.100810e-05
1.304100e-04
1.304100e-04
-1.100760e-05
-1.100790e-05
1.304100e-04
1.304100e-04
-1.100810e-05
-1.100820e-05
0.000000e+00
0.000000e+00
7.845810e-04
7.845820e-04
0.000000e+00
0.000000e+00
7.845870e-04
7.845820e-04
0.000000e+00
0.000000e+00
7.845820e-04
7.845850e-04
0.000000e+00
0.000000e+00
7.845820e-04
7.845840e-04
7.845810e-04
7.845820e-04
9.473760e-04
9.473730e-04
7.845870e-04
7.845820e-04
9.473820e-04
9.473750e-04
7.845820e-04
7.845850e-04
9.473730e-04
9.473740e-04
7.845820e-04
7.845840e-04
9.473750e-04
9.473770e-04
9.473760e-04
9.473730e-04
2.519440e-03
2.519440e-03
9.473820e-04
9.473750e-04
2.519430e-03
2.519430e-03
9.473730e-04
9.473740e-04
2.519440e-03