<?xml version="1.0"?>
<!-- time 92.6741-->
<VTKFile type="UnstructuredGrid" version="0.1" byte_order="LittleEndian">
<UnstructuredGrid>
<Piece NumberOfPoints="3240" NumberOfCells="0">
<Points>
  <DataArray type="Float32" Name="Position" NumberOfComponents="3" format="ascii">
	-333.333 2066.32 -333.333
	-333.333 2066.32 -200
	-333.333 2066.32 -66.6667
	-333.333 2066.32 66.6667
	-333.333 2066.32 200
	-333.333 2066.32 333.333
	-200 2066.32 -333.333
	-200 2066.32 -200
	-200 2066.32 -66.6667
	-200 2066.32 66.6667
	-200 2066.32 200
	-200 2066.32 333.333
	-66.6667 2066.32 -333.333
	-66.6667 2066.32 -200
	-66.6667 2066.32 -66.6667
	-66.6667 2066.32 66.6667
	-66.6667 2066.32 200
	-66.6667 2066.32 333.333
	66.6667 2066.32 -333.333
	66.6667 2066.32 -200
	66.6667 2066.32 -66.6667
	66.6667 2066.32 66.6667
	66.6667 2066.32 200
	66.6667 2066.32 333.333
	200 2066.32 -333.333
	200 2066.32 -200
	200 2066.32 -66.6667
	200 2066.32 66.6667
	200 2066.32 200
	200 2066.32 333.333
	333.333 2066.32 -333.333
	333.333 2066.32 -200
	333.333 2066.32 -66.6667
	333.333 2066.32 66.6667
	333.333 2066.32 200
	333.333 2066.32 333.333
	-333.333 2199.65 -333.333
	-333.333 2199.65 -200
	-333.333 2199.65 -66.6667
	-333.333 2199.65 66.6667
	-333.333 2199.65 200
	-333.333 2199.65 333.333
	-200 2199.65 -333.333
	-200 2199.65 -200
	-200 2199.65 -66.6667
	-200 2199.65 66.6667
	-200 2199.65 200
	-200 2199.65 333.333
	-66.6667 2199.65 -333.333
	-66.6667 2199.65 -200
	-66.6667 2199.65 -66.6667
	-66.6667 2199.65 66.6667
	-66.6667 2199.65 200
	-66.6667 2199.65 333.333
	66.6667 2199.65 -333.333
	66.6667 2199.65 -200
	66.6667 2199.65 -66.6667
	66.6667 2199.65 66.6667
	66.6667 2199.65 200
	66.6667 2199.65 333.333
	200 2199.65 -333.333
	200 2199.65 -200
	200 2199.65 -66.6667
	200 2199.65 66.6667
	200 2199.65 200
	200 2199.65 333.333
	333.333 2199.65 -333.333
	333.333 2199.65 -200
	333.333 2199.65 -66.6667
	333.333 2199.65 66.6667
	333.333 2199.65 200
	333.333 2199.65 333.333
	-333.333 2333 -333.333
	-333.333 2333 -200
	-333.333 2333 -66.6667
	-333.333 2333 66.6667
	-333.333 2333 200
	-333.333 2333 333.333
	-200 2333 -333.333
	-200 2333 -200
	-200 2333 -66.6667
	-200 2333 66.6667
	-200 2333 200
	-200 2333 333.333
	-66.6667 2333 -333.333
	-66.6667 2333 -200
	-66.6667 2333 -66.6667
	-66.6667 2333 66.6667
	-66.6667 2333 200
	-66.6667 2333 333.333
	66.6667 2333 -333.333
	66.6667 2333 -200
	66.6667 2333 -66.6667
	66.6667 2333 66.6667
	66.6667 2333 200
	66.6667 2333 333.333
	200 2333 -333.333
	200 2333 -200
	200 2333 -66.6667
	200 2333 66.6667
	200 2333 200
	200 2333 333.333
	333.333 2333 -333.333
	333.333 2333 -200
	333.333 2333 -66.6667
	333.333 2333 66.6667
	333.333 2333 200
	333.333 2333 333.333
	-333.333 2466.34 -333.333
	-333.333 2466.34 -200
	-333.333 2466.34 -66.6667
	-333.333 2466.34 66.6667
	-333.333 2466.34 200
	-333.333 2466.34 333.333
	-200 2466.34 -333.333
	-200 2466.34 -200
	-200 2466.34 -66.6667
	-200 2466.34 66.6667
	-200 2466.34 200
	-200 2466.34 333.333
	-66.6667 2466.34 -333.333
	-66.6667 2466.34 -200
	-66.6667 2466.34 -66.6667
	-66.6667 2466.34 66.6667
	-66.6667 2466.34 200
	-66.6667 2466.34 333.333
	66.6667 2466.34 -333.333
	66.6667 2466.34 -200
	66.6667 2466.34 -66.6667
	66.6667 2466.34 66.6667
	66.6667 2466.34 200
	66.6667 2466.34 333.333
	200 2466.34 -333.333
	200 2466.34 -200
	200 2466.34 -66.6667
	200 2466.34 66.6667
	200 2466.34 200
	200 2466.34 333.333
	333.333 2466.34 -333.333
	333.333 2466.34 -200
	333.333 2466.34 -66.6667
	333.333 2466.34 66.6667
	333.333 2466.34 200
	333.333 2466.34 333.333
	-333.333 2599.66 -333.333
	-333.333 2599.66 -200
	-333.333 2599.66 -66.6667
	-333.333 2599.66 66.6667
	-333.333 2599.66 200
	-333.333 2599.66 333.333
	-200 2599.66 -333.333
	-200 2599.66 -200
	-200 2599.66 -66.6667
	-200 2599.66 66.6667
	-200 2599.66 200
	-200 2599.66 333.333
	-66.6667 2599.66 -333.333
	-66.6667 2599.66 -200
	-66.6667 2599.66 -66.6667
	-66.6667 2599.66 66.6667
	-66.6667 2599.66 200
	-66.6667 2599.66 333.333
	66.6667 2599.66 -333.333
	66.6667 2599.66 -200
	66.6667 2599.66 -66.6667
	66.6667 2599.66 66.6667
	66.6667 2599.66 200
	66.6667 2599.66 333.333
	200 2599.66 -333.333
	200 2599.66 -200
	200 2599.66 -66.6667
	200 2599.66 66.6667
	200 2599.66 200
	200 2599.66 333.333
	333.333 2599.66 -333.333
	333.333 2599.66 -200
	333.333 2599.66 -66.6667
	333.333 2599.66 66.6667
	333.333 2599.66 200
	333.333 2599.66 333.333
	-333.333 2732.99 -333.333
	-333.333 2732.99 -200
	-333.333 2732.99 -66.6667
	-333.333 2732.99 66.6667
	-333.333 2732.99 200
	-333.333 2732.99 333.333
	-200 2732.99 -333.333
	-200 2732.99 -200
	-200 2732.99 -66.6667
	-200 2732.99 66.6667
	-200 2732.99 200
	-200 2732.99 333.333
	-66.6667 2732.99 -333.333
	-66.6667 2732.99 -200
	-66.6667 2732.99 -66.6667
	-66.6667 2732.99 66.6667
	-66.6667 2732.99 200
	-66.6667 2732.99 333.333
	66.6667 2732.99 -333.333
	66.6667 2732.99 -200
	66.6667 2732.99 -66.6667
	66.6667 2732.99 66.6667
	66.6667 2732.99 200
	66.6667 2732.99 333.333
	200 2732.99 -333.333
	200 2732.99 -200
	200 2732.99 -66.6667
	200 2732.99 66.6667
	200 2732.99 200
	200 2732.99 333.333
	333.333 2732.99 -333.333
	333.333 2732.99 -200
	333.333 2732.99 -66.6667
	333.333 2732.99 66.6667
	333.333 2732.99 200
	333.333 2732.99 333.333
	-333.333 2866.32 -333.333
	-333.333 2866.32 -200
	-333.333 2866.32 -66.6667
	-333.333 2866.32 66.6667
	-333.333 2866.32 200
	-333.333 2866.32 333.333
	-200 2866.32 -333.333
	-200 2866.32 -200
	-200 2866.32 -66.6667
	-200 2866.32 66.6667
	-200 2866.32 200
	-200 2866.32 333.333
	-66.6667 2866.32 -333.333
	-66.6667 2866.32 -200
	-66.6667 2866.32 -66.6667
	-66.6667 2866.32 66.6667
	-66.6667 2866.32 200
	-66.6667 2866.32 333.333
	66.6667 2866.32 -333.333
	66.6667 2866.32 -200
	66.6667 2866.32 -66.6667
	66.6667 2866.32 66.6667
	66.6667 2866.32 200
	66.6667 2866.32 333.333
	200 2866.32 -333.333
	200 2866.32 -200
	200 2866.32 -66.6667
	200 2866.32 66.6667
	200 2866.32 200
	200 2866.32 333.333
	333.333 2866.32 -333.333
	333.333 2866.32 -200
	333.333 2866.32 -66.6667
	333.333 2866.32 66.6667
	333.333 2866.32 200
	333.333 2866.32 333.333
	-333.333 2999.66 -333.333
	-333.333 2999.66 -200
	-333.333 2999.66 -66.6667
	-333.333 2999.66 66.6667
	-333.333 2999.66 200
	-333.333 2999.66 333.333
	-200 2999.66 -333.333
	-200 2999.66 -200
	-200 2999.66 -66.6667
	-200 2999.66 66.6667
	-200 2999.66 200
	-200 2999.66 333.333
	-66.6667 2999.66 -333.333
	-66.6667 2999.66 -200
	-66.6667 2999.66 -66.6667
	-66.6667 2999.66 66.6667
	-66.6667 2999.66 200
	-66.6667 2999.66 333.333
	66.6667 2999.66 -333.333
	66.6667 2999.66 -200
	66.6667 2999.66 -66.6667
	66.6667 2999.66 66.6667
	66.6667 2999.66 200
	66.6667 2999.66 333.333
	200 2999.66 -333.333
	200 2999.66 -200
	200 2999.66 -66.6667
	200 2999.66 66.6667
	200 2999.66 200
	200 2999.66 333.333
	333.333 2999.66 -333.333
	333.333 2999.66 -200
	333.333 2999.66 -66.6667
	333.333 2999.66 66.6667
	333.333 2999.66 200
	333.333 2999.66 333.333
	-333.333 3132.99 -333.333
	-333.333 3132.99 -200
	-333.333 3132.99 -66.6667
	-333.333 3132.99 66.6667
	-333.333 3132.99 200
	-333.333 3132.99 333.333
	-200 3132.99 -333.333
	-200 3132.99 -200
	-200 3132.99 -66.6667
	-200 3132.99 66.6667
	-200 3132.99 200
	-200 3132.99 333.333
	-66.6667 3132.99 -333.333
	-66.6667 3132.99 -200
	-66.6667 3132.99 -66.6667
	-66.6667 3132.99 66.6667
	-66.6667 3132.99 200
	-66.6667 3132.99 333.333
	66.6667 3132.99 -333.333
	66.6667 3132.99 -200
	66.6667 3132.99 -66.6667
	66.6667 3132.99 66.6667
	66.6667 3132.99 200
	66.6667 3132.99 333.333
	200 3132.99 -333.333
	200 3132.99 -200
	200 3132.99 -66.6667
	200 3132.99 66.6667
	200 3132.99 200
	200 3132.99 333.333
	333.333 3132.99 -333.333
	333.333 3132.99 -200
	333.333 3132.99 -66.6667
	333.333 3132.99 66.6667
	333.333 3132.99 200
	333.333 3132.99 333.333
	-333.333 3266.33 -333.333
	-333.333 3266.33 -200
	-333.333 3266.33 -66.6667
	-333.333 3266.33 66.6667
	-333.333 3266.33 200
	-333.333 3266.33 333.333
	-200 3266.33 -333.333
	-200 3266.33 -200
	-200 3266.33 -66.6667
	-200 3266.33 66.6667
	-200 3266.33 200
	-200 3266.33 333.333
	-66.6667 3266.33 -333.333
	-66.6667 3266.33 -200
	-66.6667 3266.33 -66.6667
	-66.6667 3266.33 66.6667
	-66.6667 3266.33 200
	-66.6667 3266.33 333.333
	66.6667 3266.33 -333.333
	66.6667 3266.33 -200
	66.6667 3266.33 -66.6667
	66.6667 3266.33 66.6667
	66.6667 3266.33 200
	66.6667 3266.33 333.333
	200 3266.33 -333.333
	200 3266.33 -200
	200 3266.33 -66.6667
	200 3266.33 66.6667
	200 3266.33 200
	200 3266.33 333.333
	333.333 3266.33 -333.333
	333.333 3266.33 -200
	333.333 3266.33 -66.6667
	333.333 3266.33 66.6667
	333.333 3266.33 200
	333.333 3266.33 333.333
	-333.333 3399.67 -333.333
	-333.333 3399.67 -200
	-333.333 3399.67 -66.6667
	-333.333 3399.67 66.6667
	-333.333 3399.67 200
	-333.333 3399.67 333.333
	-200 3399.67 -333.333
	-200 3399.67 -200
	-200 3399.67 -66.6667
	-200 3399.67 66.6667
	-200 3399.67 200
	-200 3399.67 333.333
	-66.6667 3399.67 -333.333
	-66.6667 3399.67 -200
	-66.6667 3399.67 -66.6667
	-66.6667 3399.67 66.6667
	-66.6667 3399.67 200
	-66.6667 3399.67 333.333
	66.6667 3399.67 -333.333
	66.6667 3399.67 -200
	66.6667 3399.67 -66.6667
	66.6667 3399.67 66.6667
	66.6667 3399.67 200
	66.6667 3399.67 333.333
	200 3399.67 -333.333
	200 3399.67 -200
	200 3399.67 -66.6667
	200 3399.67 66.6667
	200 3399.67 200
	200 3399.67 333.333
	333.333 3399.67 -333.333
	333.333 3399.67 -200
	333.333 3399.67 -66.6667
	333.333 3399.67 66.6667
	333.333 3399.67 200
	333.333 3399.67 333.333
	-333.333 3533 -333.333
	-333.333 3533 -200
	-333.333 3533 -66.6667
	-333.333 3533 66.6667
	-333.333 3533 200
	-333.333 3533 333.333
	-200 3533 -333.333
	-200 3533 -200
	-200 3533 -66.6667
	-200 3533 66.6667
	-200 3533 200
	-200 3533 333.333
	-66.6667 3533 -333.333
	-66.6667 3533 -200
	-66.6667 3533 -66.6667
	-66.6667 3533 66.6667
	-66.6667 3533 200
	-66.6667 3533 333.333
	66.6667 3533 -333.333
	66.6667 3533 -200
	66.6667 3533 -66.6667
	66.6667 3533 66.6667
	66.6667 3533 200
	66.6667 3533 333.333
	200 3533 -333.333
	200 3533 -200
	200 3533 -66.6667
	200 3533 66.6667
	200 3533 200
[...]
<PointData  Vectors="vector">
  <DataArray type="Float32" Name="Velocity" NumberOfComponents="3" format="ascii">
 -2.04153e-08 -0.00819324 -1.36779e-08
 -1.17867e-09 -0.00818912 -5.8488e-09
 1.03489e-08 -0.00819532 -3.53722e-09
 9.12911e-09 -0.00819474 -4.46652e-09
 3.39198e-09 -0.00818849 1.09956e-09
 -1.08997e-08 -0.00819432 7.6093e-09
 -1.36392e-08 -0.00818919 7.68829e-09
 -3.497e-09 -0.008189 -2.29547e-09
 5.54708e-09 -0.00818961 3.87399e-09
 4.90546e-09 -0.00818924 -6.68593e-09
 1.02082e-09 -0.0081884 -1.044e-08
 -3.91928e-09 -0.00818884 -1.09374e-08
 -6.71595e-09 -0.00819456 1.22504e-08
 -4.2162e-09 -0.00819482 6.41267e-09
 -2.13617e-09 -0.00818916 -7.9522e-10
 -6.54203e-10 -0.00818938 -5.38194e-09
 -1.94919e-10 -0.00819465 -1.37133e-08
 2.51397e-10 -0.00819372 -1.75439e-08
 -2.28294e-10 -0.00819444 1.09175e-08
 -1.66531e-09 -0.00818909 5.79733e-09
 -4.14746e-09 -0.00819317 2.60423e-10
 -4.34751e-09 -0.00818953 -5.38313e-09
 -4.91206e-10 -0.00818935 -1.22405e-08
 3.83725e-09 -0.00819499 -1.59447e-08
 6.30391e-09 -0.00819483 8.6009e-10
 -3.94215e-09 -0.00818876 1.24771e-09
 -1.1527e-08 -0.00818961 4.81548e-10
 -1.00105e-08 -0.00818959 -2.17593e-09
 -1.57637e-09 -0.00819533 -4.03983e-09
 6.71569e-09 -0.00818938 7.0411e-10
 1.32871e-08 -0.00818965 -2.13093e-08
 -5.14582e-09 -0.00818947 -1.05466e-08
 -1.59679e-08 -0.00819517 -1.51393e-09
 -1.40614e-08 -0.00819502 3.86451e-09
 -4.55092e-09 -0.00818956 1.44048e-08
 1.42524e-08 -0.00818952 2.58491e-08
 5.37923e-09 0.00561312 -2.04255e-09
 9.11029e-09 0.00561017 3.74807e-09
 1.10681e-09 0.00561251 4.73864e-09
 1.76582e-09 0.00561199 -5.7803e-10
 -1.68213e-09 0.00561021 3.4805e-09
 -4.31758e-09 0.0056123 8.01631e-09
 3.62721e-09 0.00561062 -4.35699e-09
 1.11657e-09 0.00561043 -3.19399e-10
 -2.44037e-09 0.00561077 -2.09375e-09
 -3.33959e-10 0.00561032 2.7542e-09
 -2.16217e-09 0.00561017 3.33724e-09
 -5.63144e-09 0.00561074 5.70745e-09
 3.12887e-09 0.00561278 -3.45411e-09
 -5.70729e-10 0.00561255 -6.74775e-09
 2.31733e-09 0.00561046 -3.22416e-09
 2.56125e-09 0.00561032 1.31908e-09
 -3.24668e-09 0.00561229 4.04167e-09
 -3.47454e-09 0.00561219 7.59817e-10
 -4.23503e-09 0.00561272 -6.46891e-09
 -1.55778e-10 0.00561056 -8.40769e-09
 -3.11809e-09 0.00561307 -4.62846e-09
 -6.86287e-09 0.00561029 3.85433e-10
 -3.24694e-09 0.00561059 2.83798e-09
 -3.03007e-09 0.0056127 1.40091e-09
 1.41212e-09 0.00561259 -6.35574e-09
 -2.93713e-09 0.00561027 -5.01172e-09
 -8.14027e-10 0.00561048 -3.3407e-09
 -2.62041e-09 0.00561076 -1.51004e-09
 -3.75386e-09 0.00561254 -5.3278e-10
 -5.81733e-09 0.00561063 2.06157e-10
 -1.6363e-09 0.00561084 -6.8863e-09
 -4.39791e-09 0.00561067 -4.20187e-09
 -3.97136e-10 0.00561234 -2.97757e-09
 -5.25844e-09 0.00561272 -2.85221e-09
 -5.14985e-09 0.00561076 -2.15344e-09
 -5.46365e-09 0.00561032 8.625e-10
 1.25021e-08 0.0225198 2.01931e-09
 1.51591e-08 0.0225198 5.38989e-09
 -9.52262e-09 0.0225199 1.18981e-08
 -8.13058e-09 0.0225199 5.29034e-09
 -5.25928e-09 0.0225197 9.81195e-09
 -7.9323e-09 0.0225201 1.50668e-08
 1.32065e-08 0.0225197 -1.44344e-08
 4.49004e-09 0.0225197 -2.76759e-09
 -1.04489e-08 0.0225198 1.06622e-10
 -1.12578e-08 0.0225198 7.6527e-09
 -5.22655e-09 0.0225197 1.22051e-08
 -7.54819e-09 0.0225196 2.34099e-08
 4.13708e-10 0.0225198 -2.50948e-08
 8.56656e-09 0.02252 -1.11771e-08
 1.89546e-09 0.0225199 -8.40325e-09
 -2.55034e-09 0.02252 9.76607e-09
 -4.15192e-09 0.0225201 1.21317e-08
 -1.20726e-08 0.0225198 2.56458e-08
 1.09559e-08 0.0225198 -2.61012e-08
 -1.52819e-09 0.0225197 -1.47357e-08
 1.82392e-09 0.0225198 -1.02222e-08
 -2.85617e-10 0.02252 5.46808e-09
 -6.6446e-09 0.0225197 1.079e-08
 -8.89878e-09 0.0225199 2.14488e-08
 -2.41447e-09 0.02252 -1.31115e-08
 3.19023e-09 0.0225197 -1.0816e-08
 1.40028e-08 0.0225197 -5.22671e-09
 9.25864e-09 0.0225197 -3.39439e-09
 -7.367e-09 0.0225201 1.05913e-09
 -1.22167e-08 0.0225198 2.85906e-09
 -1.17011e-09 0.0225199 -7.55829e-09
 -8.35076e-09 0.0225197 -4.1759e-09
 1.18097e-08 0.0225198 -4.54201e-10
 6.03961e-09 0.0225199 -1.40371e-08
 -5.52863e-09 0.0225197 -1.04764e-08
 -1.27613e-08 0.02252 -7.20669e-09
 7.98658e-09 0.00738355 -4.05147e-10
 1.108e-08 0.00739388 3.89616e-09
 -1.20315e-08 0.00733851 5.49368e-09
 -7.11914e-09 0.00734537 2.52964e-09
 -3.15398e-09 0.00740676 3.99566e-09
 -3.28585e-09 0.00735197 8.35061e-09
 8.92698e-09 0.00740073 -1.16515e-08
 4.02407e-09 0.00740106 -6.11507e-09
 -9.0701e-09 0.00740062 -1.69803e-09
 -7.13146e-09 0.00739908 4.52514e-09
 -1.57975e-09 0.00740694 8.22818e-09
 -3.8406e-09 0.00741264 1.25168e-08
 -3.73612e-10 0.00735855 -1.98213e-08
 4.08521e-09 0.00734952 -1.42389e-08
 -5.99861e-09 0.00739903 -1.23459e-08
 -1.02729e-09 0.00739564 8.20376e-09
 -2.59444e-09 0.00734888 1.04436e-08
 -7.88299e-09 0.00736078 1.55091e-08
 4.68054e-09 0.00735898 -1.87534e-08
 -5.66678e-09 0.0074007 -1.41064e-08
 3.80627e-09 0.00738322 -1.17129e-08
 3.94435e-09 0.00739142 9.77171e-09
 -4.65418e-09 0.00740062 1.53716e-08
 -7.26583e-09 0.00735155 1.64618e-08
 -4.48994e-09 0.00734957 -8.98919e-09
 -1.07157e-10 0.00740116 -6.63446e-09
 7.66717e-09 0.00739345 -4.18939e-09
 7.37858e-09 0.00740049 -1.71705e-09
 -5.47442e-09 0.00733648 2.89508e-10
 -1.14685e-08 0.00740059 3.38723e-09
 -4.04319e-09 0.00739855 -1.46672e-09
 -9.50218e-09 0.0074008 -7.5089e-10
 1.07656e-08 0.00733841 -2.47711e-09
 8.33036e-09 0.00735158 -8.41593e-09
 -3.24286e-09 0.0074007 -9.84406e-09
 -1.20309e-08 0.00739144 -9.78448e-09
 2.67752e-08 0.0117372 1.12408e-08
 2.56471e-09 0.0117305 1.21342e-08
 -1.21943e-08 0.0117696 1.00749e-08
 -6.86986e-09 0.0117602 7.19589e-09
 -1.98025e-09 0.0117242 5.26019e-09
 1.58438e-09 0.0117571 6.52783e-09
 7.16097e-09 0.011728 -5.61658e-09
 6.98684e-09 0.0117268 3.29061e-09
 -6.57583e-09 0.0117265 6.00999e-09
 -3.8376e-09 0.0117283 2.42991e-09
 -3.34158e-09 0.011724 5.22131e-09
 -4.35005e-09 0.0117195 1.3885e-08
 1.37325e-08 0.0117536 -2.1739e-08
 3.256e-09 0.0117581 -1.03224e-08
 -3.60081e-09 0.0117277 -1.35386e-09
 1.15141e-09 0.01173 -2.0957e-09
 -3.10227e-09 0.0117585 1.15033e-08
 -6.41889e-09 0.0117521 2.20142e-08
 4.53288e-09 0.0117532 -2.01498e-08
 1.70891e-09 0.011728 -7.128e-09
 3.79594e-09 0.0117374 -1.96044e-09
 4.74278e-09 0.0117318 3.31994e-09
 -2.80974e-09 0.0117269 1.56473e-08
 -1.00672e-08 0.0117565 2.45481e-08
 -5.42448e-10 0.0117581 -2.96295e-09
 5.10324e-10 0.0117267 -1.11291e-09
 6.95163e-09 0.0117311 -8.63218e-10
 8.6343e-09 0.0117271 -1.85711e-09
 -3.07428e-09 0.0117718 -2.83313e-09
 -1.37777e-08 0.0117269 -1.21479e-09
 -1.43145e-08 0.0117284 6.56285e-09
 3.94561e-09 0.0117265 3.89486e-09
 1.22236e-08 0.0117697 -5.4927e-09
 1.3154e-08 0.0117566 -6.4948e-09
 -3.10771e-09 0.0117269 -1.60649e-08
 -1.87772e-08 0.0117318 -1.83706e-08
 3.3282e-08 0.00342797 1.74651e-08
 1.5996e-09 0.00343132 1.7535e-08
 -1.8291e-08 0.00342784 1.01497e-08
 -1.25375e-08 0.00343133 1.50966e-08
 -2.84884e-09 0.00342827 6.84683e-09
 2.09278e-09 0.00343036 7.4204e-09
 2.36919e-08 0.00342962 1.16717e-09
 6.36162e-09 0.00342989 5.67929e-09
 -1.11137e-08 0.00342997 4.66165e-09
 -6.00644e-09 0.00342924 9.33567e-09
 -2.12807e-09 0.00342825 6.60712e-09
 -3.62097e-09 0.00342962 1.27737e-08
 6.20584e-09 0.00342933 -2.36656e-08
 6.99889e-09 0.00343075 -1.00363e-08
 -2.84825e-09 0.00342989 5.24134e-09
 3.1377e-09 0.00343011 -3.26487e-09
 -2.86369e-09 0.00343071 1.21271e-08
 -7.76325e-09 0.00342913 2.55341e-08
 -2.69327e-09 0.00342955 -2.07211e-08
 7.73536e-09 0.00342972 -7.43681e-09
 5.00439e-09 0.00342798 6.86678e-09
 6.02671e-09 0.003431 2.13853e-09
 -2.02892e-09 0.00342965 1.60929e-08
 -9.21736e-09 0.00343066 3.06645e-08
 1.04737e-08 0.00343076 1.09248e-09
 -4.9245e-10 0.00342993 2.25872e-09
 1.20599e-08 0.0034312 1.17604e-09
 1.39016e-08 0.00342951 -2.75304e-09
 -2.88591e-09 0.00342726 -3.6652e-09
 -1.68412e-08 0.00342966 -3.5341e-09
 -1.45637e-08 0.00342962 1.13933e-08
 8.40547e-09 0.0034299 4.06548e-09
 2.00091e-08 0.00342779 -6.46731e-09
 2.21879e-08 0.00343053 -6.24074e-09
 -2.12285e-09 0.00342957 -1.71217e-08
 -2.11166e-08 0.00343101 -2.4084e-08
 2.4984e-08 0.00723921 1.21156e-08
 5.36104e-09 0.00723523 9.77093e-09
 -1.27219e-08 0.00724044 1.12178e-08
 -1.12076e-08 0.00724175 7.49827e-09
 -2.88068e-09 0.0072343 9.20777e-09
 1.29293e-09 0.00724106 6.25079e-09
 1.64338e-08 0.00723452 -1.20124e-09
 7.10604e-09 0.0072347 4.07901e-09
 -7.51558e-09 0.00723521 4.53921e-09
 -5.78398e-09 0.00723497 6.23543e-09
 -2.04174e-09 0.00723421 7.9319e-09
 -1.91724e-09 0.00723383 1.2566e-08
 5.29477e-09 0.00724076 -2.02463e-08
 3.42574e-09 0.00724139 -7.88376e-09
 -3.17888e-10 0.00723489 5.64057e-10
 9.27876e-10 0.00723506 2.99019e-09
 -2.78651e-09 0.00724137 1.401e-08
 -7.78708e-09 0.00724043 2.28053e-08
 7.83589e-09 0.00724056 -1.6835e-08
 3.66474e-09 0.0072345 -9.70052e-09
 1.90956e-09 0.00723933 7.75149e-10
 2.37034e-09 0.00723563 5.24724e-09
 -3.11504e-09 0.00723506 1.46799e-08
 -7.42194e-09 0.00724157 2.38278e-08
 -3.75289e-09 0.00724141 -3.95294e-10
 3.42649e-10 0.00723468 1.97443e-10
 8.71955e-09 0.00723547 -1.02364e-09
 9.27146e-09 0.00723517 -5.87613e-10
 -3.86437e-09 0.00724016 -1.92577e-09
 -1.32366e-08 0.00723507 -1.72916e-09
 -1.16431e-08 0.00723519 7.47863e-09
 1.89453e-09 0.00723525 -1.94377e-09
 1.43633e-08 0.00724054 -5.79289e-10
 1.45499e-08 0.00724162 -8.12121e-09
 -3.02523e-09 0.0072351 -8.44624e-09
 -1.64853e-08 0.00723563 -1.73109e-08
 -7.57559e-09 -0.00241828 2.54259e-09
 -3.02426e-09 -0.00241887 4.70175e-09
 -5.29012e-09 -0.00241586 2.0328e-09
 -2.51723e-09 -0.0024188 4.14392e-09
 -3.63154e-10 -0.00241791 1.34147e-09
 -4.96895e-09 -0.00241884 3.70576e-09
 1.98235e-09 -0.00241866 3.15781e-09
 -2.67834e-10 -0.00241849 3.88999e-09
 -1.99163e-09 -0.00241854 1.92419e-09
 1.69496e-09 -0.00241811 8.60332e-10
 3.45696e-10 -0.00241786 -5.98594e-10
 -4.62829e-09 -0.00241758 6.661e-10
 7.66778e-09 -0.00241844 -3.00857e-09
 1.75541e-09 -0.00241869 1.70049e-10
 1.37519e-09 -0.00241839 1.65141e-10
 1.08736e-09 -0.00241857 -1.24723e-10
 3.94492e-10 -0.00241883 3.66053e-10
 -3.78235e-10 -0.00241849 3.76342e-09
 -1.32538e-09 -0.00241835 -1.74576e-09
 8.42106e-10 -0.00241864 2.12148e-09
 -2.25703e-09 -0.00241833 5.82625e-09
 2.85007e-09 -0.00241864 -1.23154e-10
 -3.96156e-10 -0.00241835 3.75286e-09
 -2.85578e-09 -0.00241859 6.80658e-09
 4.0945e-09 -0.0024187 3.33533e-09
 2.79364e-09 -0.00241845 3.33607e-09
 9.03432e-10 -0.00241901 7.49665e-10
 2.48327e-09 -0.00241842 -1.31815e-09
 -2.50347e-10 -0.00241568 -1.40525e-09
 -8.30307e-10 -0.00241836 -2.35064e-09
 1.40885e-08 -0.00241857 -1.99818e-09
 5.73514e-09 -0.00241852 1.1503e-09
 3.99639e-09 -0.00241585 -3.20219e-09
 6.47051e-09 -0.00241861 8.02193e-10
 5.10444e-10 -0.00241838 -7.9455e-09
 2.07457e-09 -0.00241863 -7.50816e-10
 -1.5261e-08 -0.00824545 -1.7218e-09
 -7.38524e-09 -0.00824602 5.10327e-10
 -2.42335e-09 -0.0082412 -2.64455e-09
 2.00875e-09 -0.00824029 -4.00145e-10
 1.484e-09 -0.00824715 -3.85192e-09
 -5.54778e-09 -0.0082409 -2.14357e-09
 -8.51748e-09 -0.00824669 3.50284e-09
 -5.27632e-09 -0.00824654 3.28974e-09
 -8.77348e-10 -0.00824643 -3.74902e-09
 3.80885e-09 -0.00824647 7.20888e-10
 2.05293e-09 -0.00824717 -6.15045e-09
 -2.02629e-09 -0.00824757 -6.2409e-09
 2.3281e-09 -0.00824105 4.2831e-10
 -4.92853e-09 -0.00824039 3.35966e-09
 9.10999e-10 -0.00824638 3.91211e-09
 4.61233e-09 -0.00824627 -5.704e-09
 2.5396e-09 -0.00824062 -5.81715e-09
 2.68532e-09 -0.00824136 -3.18107e-09
 -8.7066e-10 -0.00824107 2.87161e-09
 3.80887e-09 -0.00824668 6.23591e-09
 -3.53617e-09 -0.00824542 6.48572e-09
 -4.91995e-11 -0.00824585 -1.32023e-09
 2.19521e-09 -0.00824643 -7.77555e-10
 2.00901e-09 -0.00824039 2.10721e-09
 9.13585e-09 -0.00824042 5.20307e-09
 4.43642e-09 -0.00824653 4.95494e-09
 -2.36414e-09 -0.00824606 1.18846e-09
 9.43233e-10 -0.00824647 1.85691e-09
 2.52171e-09 -0.00824126 -2.1078e-09
 7.40066e-09 -0.00824646 -2.78038e-09
 1.66699e-08 -0.00824626 -7.25457e-09
 6.51343e-09 -0.00824643 -5.5986e-09
 -8.5739e-10 -0.00824117 1.27485e-09
 2.22833e-09 -0.00824039 -8.77794e-10
 3.16496e-09 -0.00824649 5.20468e-09
 9.84362e-09 -0.00824589 8.27915e-09
 -1.11056e-08 -0.00785739 -2.26588e-09
 -5.53977e-09 -0.00785753 1.49127e-10
 -5.3767e-10 -0.00785775 -1.22553e-09
 6.49119e-11 -0.00785987 -1.90492e-09
 -9.70945e-10 -0.00785729 -1.81231e-09
 -4.89251e-09 -0.00785986 -6.42414e-10
 -5.12234e-09 -0.00785718 2.25149e-09
 -4.08199e-09 -0.00785736 1.86032e-09
 5.67996e-10 -0.00785753 -2.34004e-09
 9.43094e-10 -0.0078573 6.18704e-10
 -9.81264e-11 -0.00785729 -3.06263e-09
 -2.29492e-09 -0.00785728 -3.67235e-09
 7.16673e-10 -0.00785996 1.40662e-09
 -3.70328e-09 -0.00786011 2.24484e-09
 6.47107e-10 -0.00785738 1.82413e-09
 1.25068e-09 -0.00785707 -2.00015e-09
 9.77857e-10 -0.00785991 -2.38331e-09
 1.32356e-09 -0.00785988 -2.07918e-09
 6.48786e-10 -0.00785999 1.32993e-09
 2.90137e-09 -0.00785719 3.2945e-09
 -1.69853e-09 -0.00785737 2.1745e-09
 -5.05255e-10 -0.00785743 -1.049e-09
 1.13271e-09 -0.00785737 -1.74718e-09
 1.5989e-09 -0.00786022 -1.11242e-10
 6.47313e-09 -0.00786011 2.92139e-09
 4.02114e-09 -0.00785736 2.34452e-09
 -1.52663e-09 -0.00785748 2.12779e-10
 -3.18419e-10 -0.00785737 7.29904e-11
 2.03038e-09 -0.0078574 -1.85388e-09
 5.57726e-09 -0.00785737 -2.50902e-09
 1.19003e-08 -0.00785732 -6.40514e-09
 6.49535e-09 -0.00785751 -5.979e-09
 -7.77703e-10 -0.0078578 -8.59101e-10
 6.34327e-10 -0.00786025 2.50395e-10
 2.62093e-09 -0.00785737 5.42026e-09
 8.00397e-09 -0.00785743 6.05864e-09
 -1.24864e-08 -0.00361739 -3.73258e-09
 -5.00856e-09 -0.00361822 -3.86326e-09
 3.72263e-09 -0.00361283 -4.07426e-09
 4.53412e-09 -0.00361045 -2.74314e-09
 1.05579e-09 -0.00361961 -2.66184e-09
 -3.41473e-09 -0.00361087 -3.25332e-09
 -8.26939e-09 -0.00361911 3.3379e-09
 -2.65899e-09 -0.00361898 1.51974e-10
 2.59665e-09 -0.0036189 -2.20811e-09
 2.62105e-09 -0.00361926 -3.15904e-09
 1.30987e-09 -0.0036196 -2.55843e-09
 -8.36831e-10 -0.00362106 -6.69453e-09
 -4.42111e-09 -0.00361168 8.3563e-09
 -9.06383e-10 -0.00361073 4.48878e-09
 -1.25282e-09 -0.00361884 3.97817e-10
 -4.7397e-10 -0.00361894 1.63908e-10
 1.35541e-09 -0.00361068 -6.10493e-09
 1.37597e-09 -0.00361173 -9.23398e-09
 1.18747e-09 -0.00361164 8.60429e-09
 -1.67656e-09 -0.00361908 5.85927e-09
 -2.98854e-10 -0.00361742 -3.403e-10
 4.79957e-10 -0.0036181 1.2091e-09
 1.40407e-09 -0.00361895 -5.21289e-09
 4.38162e-09 -0.00361078 -7.86386e-09
 4.79318e-09 -0.00361073 4.69005e-09
 5.47609e-10 -0.00361898 2.58077e-09
 -4.25954e-09 -0.00361827 1.42322e-09
 -3.04064e-09 -0.00361898 -1.40134e-10
 1.40728e-09 -0.00361283 -7.6294e-10
 6.86578e-09 -0.00361896 -3.00953e-09
 9.20918e-09 -0.00361912 -4.08418e-09
 2.14061e-09 -0.00361893 -1.44037e-09
 -5.64556e-09 -0.00361256 -3.73638e-10
 -4.7632e-09 -0.00361086 2.45805e-09
 1.6187e-09 -0.00361901 4.80644e-09
 8.57314e-09 -0.00361811 5.94096e-09
 -1.64435e-08 -0.00176854 -8.15381e-09
 -4.87429e-09 -0.00176829 -6.64797e-09
 3.21033e-09 -0.00176793 -5.56641e-09
 3.71364e-09 -0.00176798 -4.6151e-09
 1.92814e-09 -0.00176801 -3.11935e-09
 -2.42819e-09 -0.00176785 -2.22915e-09
 -1.08039e-08 -0.00176819 2.52284e-09
 -3.46315e-09 -0.00176812 -1.97236e-09
 1.17925e-09 -0.0017681 -1.99897e-09
 1.57851e-09 -0.00176833 -3.53165e-09
 2.28986e-09 -0.001768 -3.01548e-09
 3.7842e-10 -0.00176781 -8.51078e-09
 -5.00102e-09 -0.00176764 1.14467e-08
 -1.94675e-09 -0.00176783 3.25615e-09
 5.91069e-10 -0.00176813 1.72442e-09
 8.04939e-10 -0.00176845 -3.55739e-09
 1.99163e-09 -0.00176785 -3.36495e-09
 2.73852e-09 -0.00176742 -1.2186e-08
 -1.53381e-09 -0.00176757 1.05806e-08
 -3.01751e-09 -0.00176814 7.99928e-09
 -3.70252e-09 -0.00176855 -1.65926e-09
 -1.68984e-09 -0.0017685 -3.76313e-09
 1.32792e-09 -0.00176809 -8.20197e-10
 4.90743e-09 -0.00176758 -1.13769e-08
 3.6285e-09 -0.00176785 3.99264e-09
 -1.03934e-09 -0.00176812 3.46648e-09
 -3.21049e-09 -0.00176833 1.18849e-11
 -2.63285e-09 -0.00176819 1.28573e-09
 1.34222e-09 -0.00176804 9.56203e-10
 7.16159e-09 -0.00176808 -2.08471e-09
 9.47274e-09 -0.00176833 -4.47605e-09
 7.1366e-10 -0.00176812 -2.11283e-09
 -4.64141e-09 -0.00176779 5.11454e-10
 -4.56538e-09 -0.00176775 3.97679e-09
 1.21923e-09 -0.00176816 7.13348e-09
 1.02312e-08 -0.00176844 9.26323e-09
 -1.32324e-08 -0.00150073 -5.79642e-09
 -3.94671e-09 -0.00150082 -4.74248e-09
 7.87107e-10 -0.00150354 -4.33103e-09
 1.28678e-09 -0.00150329 -3.21754e-09
 3.78901e-10 -0.00150086 -2.95222e-09
 -2.0437e-09 -0.00150327 -1.70508e-09
 -9.09149e-09 -0.00150089 1.72556e-09
 -2.92162e-09 -0.00150088 -1.67523e-09
 3.24761e-11 -0.00150083 -2.14789e-10
 5.58339e-10 -0.0015006 -3.20524e-09
 9.50665e-10 -0.00150083 -4.10556e-09
 -4.3116e-10 -0.00150072 -4.6557e-09
 -3.32189e-09 -0.00150339 6.21837e-09
 -2.14394e-09 -0.00150327 4.78233e-09
 1.48994e-09 -0.00150073 1.28831e-09
 1.45133e-10 -0.00150056 -2.43737e-09
 1.16057e-09 -0.00150321 -2.52011e-09
 1.94732e-09 -0.00150321 -8.8487e-09
 -2.59557e-09 -0.00150345 5.83291e-09
 -1.89984e-09 -0.00150088 5.23853e-09
 -2.60946e-09 -0.0015007 1.66314e-09
 -9.85554e-10 -0.00150079 -1.067e-09
 1.34127e-09 -0.00150083 -3.35778e-09
 3.46805e-09 -0.0015033 -8.22001e-09
 3.29927e-09 -0.0015033 2.36555e-09
 -7.13957e-10 -0.00150086 1.97339e-09
 -2.51639e-09 -0.00150079 2.32001e-09
 -2.09155e-09 -0.00150087 1.22722e-10
 1.18809e-09 -0.0015035 -1.04813e-09
 5.63417e-09 -0.00150083 1.59281e-10
 7.54499e-09 -0.00150054 -3.72653e-09
 1.57672e-10 -0.00150081 -1.20962e-09
 -2.7234e-09 -0.00150364 1.13612e-09
 -2.63104e-09 -0.00150332 2.64489e-09
 1.06997e-09 -0.00150086 5.29335e-09
 7.32213e-09 -0.00150076 7.55764e-09
 -5.80057e-09 0.00107029 -2.21122e-09
 -1.65388e-09 0.00107034 -2.13186e-09
 -4.76803e-11 0.00106835 -1.64241e-09
 1.84046e-11 0.00106811 -1.28844e-09
 5.74998e-10 0.00107036 -1.35345e-09
 -6.26292e-10 0.00106823 -5.87978e-10
 -3.51513e-09 0.00107042 -1.15147e-09
 -1.14213e-09 0.00107032 2.68206e-10
 1.28698e-10 0.00107018 -4.33361e-10
 -7.7931e-11 0.0010704 -1.80155e-09
 5.60118e-10 0.00107031 -4.94237e-10
 3.47121e-10 0.00107009 -8.46838e-10
 -1.41007e-09 0.00106789 3.89627e-10
 -4.18584e-10 0.0010679 2.33797e-09
 2.94831e-10 0.00107015 -6.80941e-10
 1.88855e-10 0.00107044 9.72863e-10
 5.31845e-10 0.00106788 -2.29923e-09
 1.22623e-09 0.00106744 -4.23403e-10
 -1.22581e-09 0.00106793 8.73995e-10
 -7.36312e-10 0.00107036 2.55723e-09
 -9.10341e-10 0.00107024 -1.16988e-09
 -1.09126e-09 0.00107059 5.85167e-10
 5.47877e-10 0.00107008 -2.00304e-09
 1.00818e-09 0.00106739 -1.29327e-09
 8.04925e-10 0.00106802 2.49494e-10
 -7.461e-10 0.00107031 2.71754e-10
 -1.07143e-09 0.00107035 5.03913e-10
 -1.23496e-09 0.00107032 5.39292e-10
 1.7001e-10 0.00106846 8.00036e-10
 2.05977e-09 0.0010701 7.56048e-10
 3.12819e-09 0.00107033 -9.98325e-10
 -5.16525e-11 0.00107022 3.50213e-10
 1.27093e-10 0.00106805 1.13597e-09
 1.67003e-10 0.00106774 1.15606e-09
 1.20014e-10 0.0010703 2.11105e-09
 3.0246e-09 0.00107052 2.93591e-09
 1.44362e-09 0.0046163 3.59137e-10
 8.01084e-10 0.00461656 3.57583e-10
 -5.24821e-10 0.00461737 3.87266e-10
 -1.16561e-09 0.00461708 2.64047e-10
 -9.67871e-11 0.00461678 2.32744e-10
 7.89163e-10 0.0046171 3.87133e-10
 1.33402e-11 0.00461678 -7.13921e-10
 7.72823e-10 0.00461671 3.74112e-10
 -2.62786e-10 0.00461665 -2.10076e-10
 -7.19709e-10 0.00461669 5.94699e-10
 8.03468e-11 0.00461673 3.8639e-10
 6.14209e-10 0.0046172 1.46222e-09
 6.82229e-10 0.00461736 -1.29361e-09
 6.16907e-11 0.00461711 -9.58209e-10
 1.87739e-10 0.00461659 -3.60387e-10
 -3.42323e-10 0.00461659 8.97818e-10
 -1.30191e-10 0.00461699 1.16441e-09
 -2.1925e-10 0.00461711 2.34889e-09
 6.22173e-10 0.00461739 -2.20377e-09
 3.06607e-10 0.00461676 -6.49629e-10
 5.14147e-10 0.00461629 4.10352e-11
 1.67137e-10 0.00461656 -1.8332e-10
 -4.34011e-11 0.00461662 8.9285e-10
 1.06207e-10 0.004617 1.20601e-09
 -1.55425e-09 0.00461714 -8.19478e-10
 -4.7043e-10 0.00461671 -2.73222e-10
 9.47505e-10 0.00461657 3.83969e-10
 4.49019e-10 0.00461672 -2.12824e-10
 -2.10234e-10 0.00461737 6.33076e-10
 -6.8365e-10 0.00461663 1.11314e-09
 -1.45917e-09 0.00461666 1.14936e-09
 -6.55757e-10 0.00461666 1.13763e-09
 1.0223e-09 0.00461741 4.59164e-10