<?xml version="1.0"?>
<!-- time 59.1537-->
<VTKFile type="UnstructuredGrid" version="0.1" byte_order="LittleEndian">
<UnstructuredGrid>
<Piece NumberOfPoints="3240" NumberOfCells="0">
<Points>
  <DataArray type="Float32" Name="Position" NumberOfComponents="3" format="ascii">
	-333.333 2066.28 -333.333
	-333.333 2066.28 -200
	-333.333 2066.28 -66.6667
	-333.333 2066.28 66.6667
	-333.333 2066.28 200
	-333.333 2066.28 333.333
	-200 2066.28 -333.333
	-200 2066.28 -200
	-200 2066.28 -66.6667
	-200 2066.28 66.6667
	-200 2066.28 200
	-200 2066.28 333.333
	-66.6667 2066.28 -333.333
	-66.6667 2066.28 -200
	-66.6667 2066.28 -66.6667
	-66.6667 2066.28 66.6667
	-66.6667 2066.28 200
	-66.6667 2066.28 333.333
	66.6667 2066.28 -333.333
	66.6667 2066.28 -200
	66.6667 2066.28 -66.6667
	66.6667 2066.28 66.6667
	66.6667 2066.28 200
	66.6667 2066.28 333.333
	200 2066.28 -333.333
	200 2066.28 -200
	200 2066.28 -66.6667
	200 2066.28 66.6667
	200 2066.28 200
	200 2066.28 333.333
	333.333 2066.28 -333.333
	333.333 2066.28 -200
	333.333 2066.28 -66.6667
	333.333 2066.28 66.6667
	333.333 2066.28 200
	333.333 2066.28 333.333
	-333.333 2199.67 -333.333
	-333.333 2199.67 -200
	-333.333 2199.67 -66.6667
	-333.333 2199.67 66.6667
	-333.333 2199.67 200
	-333.333 2199.67 333.333
	-200 2199.67 -333.333
	-200 2199.67 -200
	-200 2199.67 -66.6667
	-200 2199.67 66.6667
	-200 2199.67 200
	-200 2199.67 333.333
	-66.6667 2199.67 -333.333
	-66.6667 2199.67 -200
	-66.6667 2199.67 -66.6667
	-66.6667 2199.67 66.6667
	-66.6667 2199.67 200
	-66.6667 2199.67 333.333
	66.6667 2199.67 -333.333
	66.6667 2199.67 -200
	66.6667 2199.67 -66.6667
	66.6667 2199.67 66.6667
	66.6667 2199.67 200
	66.6667 2199.67 333.333
	200 2199.67 -333.333
	200 2199.67 -200
	200 2199.67 -66.6667
	200 2199.67 66.6667
	200 2199.67 200
	200 2199.67 333.333
	333.333 2199.67 -333.333
	333.333 2199.67 -200
	333.333 2199.67 -66.6667
	333.333 2199.67 66.6667
	333.333 2199.67 200
	333.333 2199.67 333.333
	-333.333 2333.01 -333.333
	-333.333 2333.01 -200
	-333.333 2333.01 -66.6667
	-333.333 2333.01 66.6667
	-333.333 2333.01 200
	-333.333 2333.01 333.333
	-200 2333.01 -333.333
	-200 2333.01 -200
	-200 2333.01 -66.6667
	-200 2333.01 66.6667
	-200 2333.01 200
	-200 2333.01 333.333
	-66.6667 2333.01 -333.333
	-66.6667 2333.01 -200
	-66.6667 2333.01 -66.6667
	-66.6667 2333.01 66.6667
	-66.6667 2333.01 200
	-66.6667 2333.01 333.333
	66.6667 2333.01 -333.333
	66.6667 2333.01 -200
	66.6667 2333.01 -66.6667
	66.6667 2333.01 66.6667
	66.6667 2333.01 200
	66.6667 2333.01 333.333
	200 2333.01 -333.333
	200 2333.01 -200
	200 2333.01 -66.6667
	200 2333.01 66.6667
	200 2333.01 200
	200 2333.01 333.333
	333.333 2333.01 -333.333
	333.333 2333.01 -200
	333.333 2333.01 -66.6667
	333.333 2333.01 66.6667
	333.333 2333.01 200
	333.333 2333.01 333.333
	-333.333 2466.34 -333.333
	-333.333 2466.34 -200
	-333.333 2466.34 -66.6667
	-333.333 2466.34 66.6667
	-333.333 2466.34 200
	-333.333 2466.34 333.333
	-200 2466.34 -333.333
	-200 2466.34 -200
	-200 2466.34 -66.6667
	-200 2466.34 66.6667
	-200 2466.34 200
	-200 2466.34 333.333
	-66.6667 2466.34 -333.333
	-66.6667 2466.34 -200
	-66.6667 2466.34 -66.6667
	-66.6667 2466.34 66.6667
	-66.6667 2466.34 200
	-66.6667 2466.34 333.333
	66.6667 2466.34 -333.333
	66.6667 2466.34 -200
	66.6667 2466.34 -66.6667
	66.6667 2466.34 66.6667
	66.6667 2466.34 200
	66.6667 2466.34 333.333
	200 2466.34 -333.333
	200 2466.34 -200
	200 2466.34 -66.6667
	200 2466.34 66.6667
	200 2466.34 200
	200 2466.34 333.333
	333.333 2466.34 -333.333
	333.333 2466.34 -200
	333.333 2466.34 -66.6667
	333.333 2466.34 66.6667
	333.333 2466.34 200
	333.333 2466.34 333.333
	-333.333 2599.67 -333.333
	-333.333 2599.67 -200
	-333.333 2599.67 -66.6667
	-333.333 2599.67 66.6667
	-333.333 2599.67 200
	-333.333 2599.67 333.333
	-200 2599.67 -333.333
	-200 2599.67 -200
	-200 2599.67 -66.6667
	-200 2599.67 66.6667
	-200 2599.67 200
	-200 2599.67 333.333
	-66.6667 2599.67 -333.333
	-66.6667 2599.67 -200
	-66.6667 2599.67 -66.6667
	-66.6667 2599.67 66.6667
	-66.6667 2599.67 200
	-66.6667 2599.67 333.333
	66.6667 2599.67 -333.333
	66.6667 2599.67 -200
	66.6667 2599.67 -66.6667
	66.6667 2599.67 66.6667
	66.6667 2599.67 200
	66.6667 2599.67 333.333
	200 2599.67 -333.333
	200 2599.67 -200
	200 2599.67 -66.6667
	200 2599.67 66.6667
	200 2599.67 200
	200 2599.67 333.333
	333.333 2599.67 -333.333
	333.333 2599.67 -200
	333.333 2599.67 -66.6667
	333.333 2599.67 66.6667
	333.333 2599.67 200
	333.333 2599.67 333.333
	-333.333 2733.01 -333.333
	-333.333 2733.01 -200
	-333.333 2733.01 -66.6667
	-333.333 2733.01 66.6667
	-333.333 2733.01 200
	-333.333 2733.01 333.333
	-200 2733.01 -333.333
	-200 2733.01 -200
	-200 2733.01 -66.6667
	-200 2733.01 66.6667
	-200 2733.01 200
	-200 2733.01 333.333
	-66.6667 2733.01 -333.333
	-66.6667 2733.01 -200
	-66.6667 2733.01 -66.6667
	-66.6667 2733.01 66.6667
	-66.6667 2733.01 200
	-66.6667 2733.01 333.333
	66.6667 2733.01 -333.333
	66.6667 2733.01 -200
	66.6667 2733.01 -66.6667
	66.6667 2733.01 66.6667
	66.6667 2733.01 200
	66.6667 2733.01 333.333
	200 2733.01 -333.333
	200 2733.01 -200
	200 2733.01 -66.6667
	200 2733.01 66.6667
	200 2733.01 200
	200 2733.01 333.333
	333.333 2733.01 -333.333
	333.333 2733.01 -200
	333.333 2733.01 -66.6667
	333.333 2733.01 66.6667
	333.333 2733.01 200
	333.333 2733.01 333.333
	-333.333 2866.34 -333.333
	-333.333 2866.34 -200
	-333.333 2866.34 -66.6667
	-333.333 2866.34 66.6667
	-333.333 2866.34 200
	-333.333 2866.34 333.333
	-200 2866.34 -333.333
	-200 2866.34 -200
	-200 2866.34 -66.6667
	-200 2866.34 66.6667
	-200 2866.34 200
	-200 2866.34 333.333
	-66.6667 2866.34 -333.333
	-66.6667 2866.34 -200
	-66.6667 2866.34 -66.6667
	-66.6667 2866.34 66.6667
	-66.6667 2866.34 200
	-66.6667 2866.34 333.333
	66.6667 2866.34 -333.333
	66.6667 2866.34 -200
	66.6667 2866.34 -66.6667
	66.6667 2866.34 66.6667
	66.6667 2866.34 200
	66.6667 2866.34 333.333
	200 2866.34 -333.333
	200 2866.34 -200
	200 2866.34 -66.6667
	200 2866.34 66.6667
	200 2866.34 200
	200 2866.34 333.333
	333.333 2866.34 -333.333
	333.333 2866.34 -200
	333.333 2866.34 -66.6667
	333.333 2866.34 66.6667
	333.333 2866.34 200
	333.333 2866.34 333.333
	-333.333 2999.67 -333.333
	-333.333 2999.67 -200
	-333.333 2999.67 -66.6667
	-333.333 2999.67 66.6667
	-333.333 2999.67 200
	-333.333 2999.67 333.333
	-200 2999.67 -333.333
	-200 2999.67 -200
	-200 2999.67 -66.6667
	-200 2999.67 66.6667
	-200 2999.67 200
	-200 2999.67 333.333
	-66.6667 2999.67 -333.333
	-66.6667 2999.67 -200
	-66.6667 2999.67 -66.6667
	-66.6667 2999.67 66.6667
	-66.6667 2999.67 200
	-66.6667 2999.67 333.333
	66.6667 2999.67 -333.333
	66.6667 2999.67 -200
	66.6667 2999.67 -66.6667
	66.6667 2999.67 66.6667
	66.6667 2999.67 200
	66.6667 2999.67 333.333
	200 2999.67 -333.333
	200 2999.67 -200
	200 2999.67 -66.6667
	200 2999.67 66.6667
	200 2999.67 200
	200 2999.67 333.333
	333.333 2999.67 -333.333
	333.333 2999.67 -200
	333.333 2999.67 -66.6667
	333.333 2999.67 66.6667
	333.333 2999.67 200
	333.333 2999.67 333.333
	-333.333 3133.01 -333.333
	-333.333 3133.01 -200
	-333.333 3133.01 -66.6667
	-333.333 3133.01 66.6667
	-333.333 3133.01 200
	-333.333 3133.01 333.333
	-200 3133.01 -333.333
	-200 3133.01 -200
	-200 3133.01 -66.6667
	-200 3133.01 66.6667
	-200 3133.01 200
	-200 3133.01 333.333
	-66.6667 3133.01 -333.333
	-66.6667 3133.01 -200
	-66.6667 3133.01 -66.6667
	-66.6667 3133.01 66.6667
	-66.6667 3133.01 200
	-66.6667 3133.01 333.333
	66.6667 3133.01 -333.333
	66.6667 3133.01 -200
	66.6667 3133.01 -66.6667
	66.6667 3133.01 66.6667
	66.6667 3133.01 200
	66.6667 3133.01 333.333
	200 3133.01 -333.333
	200 3133.01 -200
	200 3133.01 -66.6667
	200 3133.01 66.6667
	200 3133.01 200
	200 3133.01 333.333
	333.333 3133.01 -333.333
	333.333 3133.01 -200
	333.333 3133.01 -66.6667
	333.333 3133.01 66.6667
	333.333 3133.01 200
	333.333 3133.01 333.333
	-333.333 3266.34 -333.333
	-333.333 3266.34 -200
	-333.333 3266.34 -66.6667
	-333.333 3266.34 66.6667
	-333.333 3266.34 200
	-333.333 3266.34 333.333
	-200 3266.34 -333.333
	-200 3266.34 -200
	-200 3266.34 -66.6667
	-200 3266.34 66.6667
	-200 3266.34 200
	-200 3266.34 333.333
	-66.6667 3266.34 -333.333
	-66.6667 3266.34 -200
	-66.6667 3266.34 -66.6667
	-66.6667 3266.34 66.6667
	-66.6667 3266.34 200
	-66.6667 3266.34 333.333
	66.6667 3266.34 -333.333
	66.6667 3266.34 -200
	66.6667 3266.34 -66.6667
	66.6667 3266.34 66.6667
	66.6667 3266.34 200
	66.6667 3266.34 333.333
	200 3266.34 -333.333
	200 3266.34 -200
	200 3266.34 -66.6667
	200 3266.34 66.6667
	200 3266.34 200
	200 3266.34 333.333
	333.333 3266.34 -333.333
	333.333 3266.34 -200
	333.333 3266.34 -66.6667
	333.333 3266.34 66.6667
	333.333 3266.34 200
	333.333 3266.34 333.333
	-333.333 3399.67 -333.333
	-333.333 3399.67 -200
	-333.333 3399.67 -66.6667
	-333.333 3399.67 66.6667
	-333.333 3399.67 200
	-333.333 3399.67 333.333
	-200 3399.67 -333.333
	-200 3399.67 -200
	-200 3399.67 -66.6667
	-200 3399.67 66.6667
	-200 3399.67 200
	-200 3399.67 333.333
	-66.6667 3399.67 -333.333
	-66.6667 3399.67 -200
	-66.6667 3399.67 -66.6667
	-66.6667 3399.67 66.6667
	-66.6667 3399.67 200
	-66.6667 3399.67 333.333
	66.6667 3399.67 -333.333
	66.6667 3399.67 -200
	66.6667 3399.67 -66.6667
	66.6667 3399.67 66.6667
	66.6667 3399.67 200
	66.6667 3399.67 333.333
	200 3399.67 -333.333
	200 3399.67 -200
	200 3399.67 -66.6667
	200 3399.67 66.6667
	200 3399.67 200
	200 3399.67 333.333
	333.333 3399.67 -333.333
	333.333 3399.67 -200
	333.333 3399.67 -66.6667
	333.333 3399.67 66.6667
	333.333 3399.67 200
	333.333 3399.67 333.333
	-333.333 3533 -333.333
	-333.333 3533 -200
	-333.333 3533 -66.6667
	-333.333 3533 66.6667
	-333.333 3533 200
	-333.333 3533 333.333
	-200 3533 -333.333
	-200 3533 -200
	-200 3533 -66.6667
	-200 3533 66.6667
	-200 3533 200
	-200 3533 333.333
	-66.6667 3533 -333.333
	-66.6667 3533 -200
	-66.6667 3533 -66.6667
	-66.6667 3533 66.6667
	-66.6667 3533 200
	-66.6667 3533 333.333
	66.6667 3533 -333.333
	66.6667 3533 -200
	66.6667 3533 -66.6667
	66.6667 3533 66.6667
	66.6667 3533 200
[...]
<PointData  Vectors="vector">
  <DataArray type="Float32" Name="Velocity" NumberOfComponents="3" format="ascii">
 -1.60068e-11 -0.000548739 4.58222e-11
 3.41434e-12 -0.000548739 -1.00273e-10
 -2.12704e-11 -0.00054874 -2.24513e-10
 -6.39463e-13 -0.000548739 -8.80141e-11
 -2.1621e-11 -0.000548739 -5.41054e-12
 1.00366e-11 -0.000548739 -1.27242e-11
 3.4535e-11 -0.000548739 1.05873e-11
 9.55534e-12 -0.00054874 -2.31887e-11
 -5.66079e-11 -0.00054874 -7.06772e-11
 -4.45412e-11 -0.000548739 -1.46899e-10
 2.12398e-11 -0.000548739 -4.01523e-11
 -1.62917e-11 -0.000548739 -2.78143e-11
 -4.78259e-11 -0.000548739 3.5273e-11
 -7.56194e-11 -0.00054874 -1.48385e-11
 5.1826e-12 -0.00054874 -1.04205e-10
 4.18202e-12 -0.00054874 -1.55551e-10
 -3.6834e-11 -0.00054874 -9.24798e-12
 -1.05586e-11 -0.00054874 3.73986e-11
 -7.46903e-12 -0.000548739 -1.42859e-11
 -9.64789e-12 -0.00054874 -1.45794e-11
 -1.18333e-11 -0.00054874 -7.70722e-11
 -3.00725e-11 -0.00054874 -6.16994e-11
 -1.94983e-12 -0.00054874 -6.12485e-11
 -2.46526e-11 -0.00054874 2.24809e-11
 3.08802e-11 -0.000548739 1.70702e-11
 1.69016e-12 -0.00054874 -3.89385e-11
 4.5813e-11 -0.00054874 -8.15996e-11
 3.57422e-11 -0.00054874 -7.95876e-11
 2.18852e-11 -0.00054874 -5.00686e-11
 1.88103e-11 -0.00054874 -5.13998e-11
 -2.97189e-11 -0.00054874 8.084e-12
 2.21096e-11 -0.00054874 -5.10828e-11
 -2.26707e-11 -0.000548741 -1.75639e-10
 -1.81374e-11 -0.00054874 -1.6877e-10
 -2.07243e-11 -0.00054874 2.26545e-12
 1.10497e-13 -0.00054874 2.24935e-11
 2.22743e-13 -0.00132082 -9.21236e-12
 1.49031e-12 -0.00132082 -9.88347e-11
 1.24463e-11 -0.00132082 -5.26452e-11
 1.08449e-11 -0.00132082 -8.91478e-11
 1.59227e-11 -0.00132082 -2.5467e-11
 -2.16577e-11 -0.00132082 1.12935e-10
 -1.77526e-11 -0.00132082 -1.65e-11
 2.87854e-11 -0.00132082 -3.18184e-11
 2.0319e-12 -0.00132082 -6.24088e-11
 1.18896e-11 -0.00132082 -6.25257e-11
 -2.56919e-11 -0.00132082 -1.2731e-11
 1.67999e-11 -0.00132082 6.69363e-11
 -1.11105e-11 -0.00132082 8.01648e-13
 -2.31927e-11 -0.00132082 -1.12265e-10
 -1.13098e-12 -0.00132082 8.6638e-12
 -2.88492e-11 -0.00132082 -3.72639e-11
 -1.26974e-11 -0.00132082 1.08267e-11
 -1.24405e-11 -0.00132082 5.35131e-11
 -2.29595e-11 -0.00132082 7.89731e-13
 -7.04589e-12 -0.00132082 -7.02965e-11
 -5.42703e-11 -0.00132083 -5.79676e-11
 -1.80172e-11 -0.00132082 -9.1968e-12
 -3.28597e-11 -0.00132082 -5.59723e-12
 -1.2937e-11 -0.00132083 7.53845e-11
 3.92954e-11 -0.00132082 1.71547e-11
 -7.81217e-12 -0.00132082 -3.1286e-11
 1.2981e-12 -0.00132083 -3.58672e-11
 -1.03245e-12 -0.00132082 -8.02926e-11
 -1.72861e-11 -0.00132083 -7.57306e-11
 -5.29198e-11 -0.00132083 7.59707e-11
 1.7806e-12 -0.00132082 1.64991e-11
 -1.83048e-11 -0.00132082 -3.23991e-11
 -2.01781e-12 -0.00132083 -1.47448e-10
 -4.42267e-12 -0.00132082 -6.13274e-11
 3.45955e-11 -0.00132083 -3.73379e-11
 3.67094e-11 -0.00132083 6.88053e-11
 -1.95415e-12 -0.000138109 1.94438e-11
 9.52313e-12 -0.000138109 2.39762e-11
 -2.44422e-11 -0.00013811 4.30512e-11
 -6.03214e-12 -0.000138109 -5.54685e-11
 1.9199e-11 -0.000138109 4.94192e-11
 2.7744e-11 -0.00013811 -4.51786e-11
 2.6238e-11 -0.000138109 1.39671e-11
 2.67095e-11 -0.000138109 2.10775e-11
 -1.9847e-11 -0.00013811 -2.45929e-11
 2.38881e-11 -0.000138109 1.11758e-11
 -4.38428e-11 -0.00013811 4.81709e-11
 -5.84625e-11 -0.00013811 -2.99994e-11
 -5.52273e-12 -0.00013811 9.59513e-12
 -2.94381e-11 -0.00013811 -1.2329e-11
 1.21626e-12 -0.00013811 1.56972e-11
 -7.53139e-12 -0.000138109 3.21257e-11
 -3.05004e-11 -0.00013811 3.85347e-11
 -2.37092e-11 -0.00013811 -3.92836e-11
 -8.17055e-12 -0.000138109 1.7082e-11
 -1.12856e-11 -0.00013811 -1.41885e-11
 1.74158e-11 -0.00013811 7.77594e-12
 -1.59658e-11 -0.000138109 5.88326e-12
 -5.65894e-12 -0.00013811 4.90418e-11
 -8.103e-12 -0.00013811 -8.74531e-12
 -9.11345e-12 -0.000138109 -1.23472e-11
 -1.17101e-11 -0.00013811 3.52499e-11
 -1.23348e-11 -0.00013811 -3.15751e-12
 1.9399e-12 -0.000138109 -1.76052e-11
 -8.50488e-12 -0.00013811 1.11497e-11
 -1.50362e-11 -0.00013811 -6.28887e-12
 1.02512e-11 -0.000138109 1.21952e-11
 1.00332e-11 -0.00013811 8.36635e-12
 1.39417e-11 -0.00013811 -1.29834e-11
 -4.58809e-12 -0.00013811 -8.91569e-12
 3.13476e-11 -0.00013811 -4.55861e-11
 9.94411e-12 -0.000138111 4.07976e-12
 2.79095e-11 -0.000547477 -2.03697e-11
 3.30675e-11 -0.000547477 1.1049e-11
 -2.23871e-11 -0.000547477 -3.89722e-11
 2.82176e-11 -0.000547478 4.62958e-12
 -2.99632e-11 -0.000547477 3.63112e-11
 2.86527e-11 -0.000547475 -3.00534e-11
 2.09073e-12 -0.000547478 -2.10647e-11
 1.3845e-11 -0.000547478 5.50272e-12
 1.05155e-11 -0.000547478 -2.88398e-11
 1.13624e-11 -0.000547478 2.18713e-12
 5.01894e-12 -0.000547477 2.94686e-11
 -2.22675e-11 -0.000547477 -3.37581e-11
 9.83393e-12 -0.000547479 -8.72786e-12
 6.61581e-12 -0.000547479 -1.58442e-11
 2.28545e-12 -0.000547479 -6.94398e-12
 1.75131e-11 -0.000547479 -3.18593e-12
 1.60138e-12 -0.000547478 -2.91323e-11
 -1.92473e-11 -0.000547478 8.23904e-12
 9.18538e-12 -0.000547478 -1.59008e-11
 -1.51001e-11 -0.000547478 1.57794e-12
 2.46689e-11 -0.000547478 -4.24859e-11
 -2.18942e-11 -0.000547478 1.09458e-11
 6.92447e-12 -0.000547477 3.25199e-11
 -9.09959e-12 -0.000547477 -2.64797e-11
 2.29841e-12 -0.000547478 -9.33984e-12
 -9.2838e-12 -0.000547478 -3.79171e-12
 -7.93837e-12 -0.000547479 -1.67461e-11
 -2.96947e-12 -0.000547479 -2.65292e-11
 1.45341e-11 -0.000547478 3.31841e-12
 -2.02444e-11 -0.000547477 -1.70438e-11
 -1.5087e-11 -0.000547479 -1.35307e-11
 -3.39163e-12 -0.000547479 2.29228e-11
 8.11651e-12 -0.000547479 -3.99497e-11
 -7.24047e-13 -0.00054748 -4.21261e-11
 3.00074e-12 -0.000547478 -1.89418e-11
 1.2927e-11 -0.000547477 -8.82772e-12
 -4.94462e-11 -0.00046656 -3.58982e-12
 -2.66604e-11 -0.000466561 4.09697e-11
 -3.16512e-11 -0.000466562 -9.87867e-12
 -4.37002e-11 -0.00046656 3.22932e-11
 -3.94698e-11 -0.000466562 1.74634e-11
 2.12447e-11 -0.000466565 1.1887e-11
 3.29124e-12 -0.00046656 -3.84682e-11
 -1.91739e-11 -0.00046656 1.54839e-11
 9.46959e-12 -0.000466561 5.48719e-11
 2.08899e-11 -0.00046656 4.00824e-11
 -2.49673e-11 -0.000466561 3.91782e-11
 -4.03471e-11 -0.000466563 -2.9053e-11
 2.41015e-11 -0.00046656 -2.62398e-11
 2.45785e-12 -0.00046656 2.98154e-11
 1.42565e-11 -0.00046656 3.27994e-11
 1.32973e-11 -0.000466559 3.06342e-11
 1.88018e-11 -0.000466561 -1.82675e-11
 2.15436e-13 -0.000466562 2.63103e-11
 3.49525e-11 -0.00046656 -3.82496e-11
 2.06312e-11 -0.000466561 3.8848e-11
 1.47823e-11 -0.000466561 3.31001e-11
 3.28341e-11 -0.00046656 3.2175e-11
 4.93347e-11 -0.000466562 2.90109e-11
 2.06435e-11 -0.000466563 -3.14574e-12
 2.24827e-13 -0.00046656 -3.13176e-11
 2.27003e-11 -0.00046656 1.72761e-11
 -5.94947e-12 -0.000466561 2.88574e-11
 -1.4036e-11 -0.00046656 3.24013e-11
 -5.35806e-12 -0.000466561 3.73739e-11
 -1.54209e-11 -0.000466563 -1.04717e-11
 2.53048e-11 -0.00046656 -9.32693e-12
 2.80469e-11 -0.00046656 -1.72343e-11
 1.6671e-11 -0.00046656 3.11733e-11
 2.54834e-11 -0.00046656 1.80619e-11
 2.07859e-11 -0.000466561 3.23681e-11
 1.71472e-11 -0.000466562 1.45565e-12
 2.77148e-11 -0.00070631 -1.13091e-11
 2.87569e-11 -0.00070631 6.74657e-11
 2.79547e-11 -0.000706311 5.04426e-11
 2.93483e-11 -0.00070631 5.41469e-11
 5.17919e-12 -0.000706311 2.69321e-12
 2.59e-11 -0.000706311 2.35914e-11
 -9.66324e-12 -0.000706311 -7.19328e-12
 -2.89563e-11 -0.000706311 6.3505e-12
 -2.27051e-11 -0.000706311 7.20924e-11
 -2.0447e-11 -0.000706311 8.07329e-11
 2.20397e-12 -0.000706311 3.58645e-11
 -1.95145e-11 -0.000706311 -6.28586e-12
 -3.81865e-12 -0.000706312 -2.42017e-11
 6.8885e-12 -0.000706312 2.92183e-11
 -8.10833e-12 -0.000706311 5.98609e-11
 5.65722e-13 -0.000706311 9.09561e-11
 -4.42516e-12 -0.000706311 3.40014e-11
 3.42912e-12 -0.000706311 -1.3737e-11
 2.71405e-11 -0.000706311 -6.03958e-12
 2.16621e-11 -0.000706311 6.7289e-11
 2.43779e-11 -0.000706311 5.07158e-11
 2.35326e-11 -0.000706311 5.25612e-11
 2.05428e-11 -0.000706311 3.60474e-11
 2.28039e-11 -0.000706311 -7.08609e-12
 5.21316e-13 -0.000706311 -1.18328e-12
 -1.83612e-11 -0.000706311 2.27015e-11
 -8.0909e-12 -0.000706311 5.38097e-11
 -1.81302e-11 -0.000706311 6.38584e-11
 -1.46496e-12 -0.000706312 5.86803e-11
 1.15211e-11 -0.000706311 -1.22185e-11
 -1.70836e-12 -0.000706312 1.59765e-12
 1.97705e-11 -0.000706312 1.30064e-11
 5.90538e-12 -0.000706312 6.51723e-11
 2.23877e-11 -0.000706312 7.55922e-11
 1.09801e-11 -0.000706312 3.33711e-11
 -1.53587e-11 -0.000706312 -1.09167e-11
 1.75325e-11 -0.000928365 -3.55224e-12
 2.19541e-11 -0.000928364 4.56067e-11
 1.10793e-11 -0.000928364 5.71685e-11
 2.06045e-11 -0.000928363 3.77981e-11
 1.80494e-11 -0.000928364 5.63873e-11
 1.85648e-11 -0.000928364 -3.52371e-12
 -2.59075e-11 -0.000928363 -2.24064e-11
 -1.19318e-11 -0.000928363 5.68427e-11
 -1.88339e-11 -0.000928363 5.75943e-11
 -2.03706e-11 -0.000928363 6.60914e-11
 -2.70458e-11 -0.000928363 2.17809e-11
 -3.35445e-11 -0.000928364 8.44745e-12
 5.83643e-13 -0.000928362 -2.27469e-11
 1.48157e-12 -0.000928362 5.6668e-11
 2.06386e-12 -0.000928363 6.57873e-11
 1.87802e-12 -0.000928362 4.34199e-11
 -5.6447e-13 -0.000928363 4.35107e-11
 1.75751e-11 -0.000928363 1.58195e-13
 3.79813e-11 -0.000928362 2.00322e-12
 9.80082e-12 -0.000928363 3.91061e-11
 2.00563e-11 -0.000928364 5.59196e-11
 1.57242e-11 -0.000928363 6.56437e-11
 2.18826e-12 -0.000928363 2.65086e-11
 -3.63638e-12 -0.000928364 -6.13745e-12
 -1.65806e-12 -0.000928362 -1.16531e-11
 1.10032e-11 -0.000928362 2.16382e-11
 1.4819e-11 -0.000928363 8.63698e-11
 6.55847e-12 -0.000928362 4.17389e-11
 1.31409e-11 -0.000928363 4.73405e-11
 2.23321e-11 -0.000928364 -1.57709e-12
 4.17536e-12 -0.000928362 -1.90773e-11
 -2.29401e-12 -0.000928362 3.86011e-11
 -1.86041e-12 -0.000928363 6.13065e-11
 -1.3653e-13 -0.000928362 7.48718e-11
 1.8713e-11 -0.000928363 3.77367e-11
 3.40447e-12 -0.000928364 -8.7803e-12
 1.61698e-11 -8.77963e-05 -2.51426e-11
 1.30531e-11 -8.77962e-05 1.99581e-11
 -1.30053e-12 -8.77961e-05 5.66378e-11
 2.59587e-12 -8.77958e-05 5.2152e-11
 1.89355e-12 -8.7796e-05 3.69619e-11
 -2.08091e-11 -8.77961e-05 6.28474e-12
 -1.71878e-11 -8.7796e-05 -3.51442e-11
 -2.56001e-11 -8.77958e-05 2.69045e-11
 6.2235e-12 -8.77963e-05 6.12199e-11
 1.44402e-11 -8.77957e-05 5.36568e-11
 9.56155e-12 -8.77958e-05 5.89348e-11
 4.14029e-12 -8.77966e-05 -8.82001e-12
 4.35143e-12 -8.7796e-05 -1.83764e-11
 -1.51436e-11 -8.77962e-05 3.20978e-11
 8.77212e-12 -8.77963e-05 5.0252e-11
 -8.1267e-13 -8.77957e-05 5.34654e-11
 8.9304e-12 -8.77964e-05 5.85183e-11
 2.85451e-11 -8.7797e-05 -9.29992e-12
 -2.55682e-12 -8.77956e-05 -1.96754e-11
 3.88445e-12 -8.77959e-05 2.71204e-11
 -9.16176e-12 -8.77961e-05 4.27671e-11
 -7.24387e-12 -8.77953e-05 6.4565e-11
 1.63913e-11 -8.77961e-05 6.78734e-11
 3.43075e-11 -8.77969e-05 -1.00118e-11
 -8.15248e-12 -8.77961e-05 -8.97599e-12
 7.04948e-12 -8.77956e-05 2.35123e-11
 -6.80318e-12 -8.77962e-05 6.60323e-11
 1.40475e-13 -8.77956e-05 4.21356e-11
 -1.56595e-12 -8.77955e-05 6.6724e-11
 -2.92738e-12 -8.77963e-05 -7.63559e-12
 8.73203e-12 -8.77964e-05 -8.84503e-12
 2.63695e-11 -8.77963e-05 2.12566e-11
 2.01428e-11 -8.77965e-05 6.9187e-11
 1.49732e-11 -8.77961e-05 6.21821e-11
 -7.0732e-13 -8.77959e-05 5.44086e-11
 1.65806e-12 -8.77959e-05 -7.24309e-12
 -1.2511e-11 -0.00225332 -1.40581e-11
 1.20733e-11 -0.00225332 3.58291e-11
 -5.88888e-12 -0.00225332 4.36467e-11
 -7.51308e-12 -0.00225332 2.40321e-11
 -1.56292e-11 -0.00225332 3.33505e-11
 -3.05659e-12 -0.00225332 -8.85365e-12
 -1.16323e-11 -0.00225332 -4.60263e-12
 -1.2848e-11 -0.00225332 2.60129e-11
 -1.12012e-12 -0.00225332 5.40508e-11
 -2.32791e-12 -0.00225332 4.60087e-11
 2.95548e-12 -0.00225332 9.63824e-13
 8.28297e-12 -0.00225332 1.01625e-11
 -3.06871e-12 -0.00225332 -4.44965e-12
 8.35541e-13 -0.00225332 2.89892e-11
 1.3428e-11 -0.00225332 4.149e-11
 1.88385e-11 -0.00225332 6.60872e-11
 2.19439e-11 -0.00225332 1.75386e-11
 7.73612e-12 -0.00225332 1.59293e-12
 1.418e-12 -0.00225332 -1.32105e-11
 3.94606e-12 -0.00225332 3.76323e-11
 1.07482e-11 -0.00225332 5.40359e-11
 1.05181e-11 -0.00225332 6.70665e-11
 1.57703e-11 -0.00225332 -2.01399e-12
 2.93777e-11 -0.00225332 2.11125e-11
 6.58356e-12 -0.00225332 -6.99571e-12
 -8.24066e-12 -0.00225332 3.76187e-11
 -9.74543e-12 -0.00225332 4.41831e-11
 -3.31486e-12 -0.00225332 4.18925e-11
 8.61859e-12 -0.00225332 5.99572e-11
 8.31383e-12 -0.00225332 3.49652e-12
 -3.35964e-12 -0.00225332 -1.99294e-12
 -1.70355e-12 -0.00225332 3.20271e-11
 3.2618e-12 -0.00225332 5.15609e-11
 7.7878e-12 -0.00225332 5.57599e-11
 8.50567e-12 -0.00225332 5.36029e-11
 9.69743e-12 -0.00225332 4.73288e-12
 -9.08414e-12 -0.0009806 -5.27265e-12
 -1.22961e-12 -0.000980601 2.54367e-11
 -1.081e-11 -0.000980602 3.18827e-11
 -1.04345e-11 -0.000980602 2.32916e-11
 -7.30828e-13 -0.000980602 2.71027e-11
 -2.76777e-12 -0.000980602 -6.32409e-12
 -2.20471e-11 -0.000980601 -7.8175e-12
 -2.70738e-11 -0.000980602 1.75846e-11
 -1.80235e-12 -0.000980601 2.60841e-11
 -1.71009e-12 -0.000980602 5.88915e-11
 -5.90981e-12 -0.000980602 1.66782e-11
 -6.63704e-12 -0.000980601 1.48362e-12
 -8.21462e-12 -0.000980602 -1.22992e-11
 -1.03545e-11 -0.000980601 3.58793e-11
 -3.26671e-12 -0.000980601 3.27472e-11
 -4.17203e-12 -0.000980602 5.26406e-11
 4.3177e-12 -0.000980601 1.85675e-11
 6.25183e-12 -0.000980601 2.15917e-12
 -2.21151e-11 -0.000980602 -9.16452e-12
 -1.06115e-11 -0.000980602 3.09879e-11
 -9.03259e-12 -0.000980602 4.19663e-11
 6.17467e-13 -0.000980602 5.53292e-11
 -4.23885e-12 -0.000980602 3.05424e-11
 5.47467e-12 -0.000980601 -4.19372e-12
 2.0662e-12 -0.000980602 -1.98326e-11
 -6.29393e-12 -0.000980602 3.8321e-11
 -8.25027e-12 -0.000980601 4.55997e-11
 -4.23014e-12 -0.000980602 6.69575e-11
 -8.60158e-13 -0.000980602 2.21757e-11
 2.5855e-12 -0.000980601 4.91499e-12
 -6.07671e-12 -0.000980601 -8.70288e-12
 4.77853e-12 -0.000980601 3.82176e-11
 -2.92943e-12 -0.000980601 5.25404e-11
 -8.31942e-13 -0.000980601 3.01189e-11
 2.09193e-12 -0.000980601 4.96966e-11
 5.19144e-12 -0.000980601 8.92977e-12
 -2.14298e-12 0.000353169 -4.90061e-12
 -2.29973e-12 0.000353169 8.35075e-12
 -5.23009e-12 0.000353169 1.54989e-11
 -4.10996e-12 0.000353169 4.76655e-12
 -4.57785e-12 0.000353169 1.04622e-11
 -4.44338e-12 0.000353169 7.43462e-12
 -5.96042e-12 0.000353169 -1.48864e-12
 -7.8532e-12 0.000353169 6.30151e-12
 3.22494e-13 0.000353169 9.13289e-12
 -6.14045e-12 0.000353169 3.00031e-11
 2.61477e-12 0.000353169 -4.08502e-12
 -4.7506e-12 0.000353169 1.13991e-11
 -6.57554e-12 0.000353169 -3.84556e-12
 9.1705e-13 0.000353169 2.59199e-12
 -4.66945e-12 0.000353169 3.02876e-11
 1.33958e-12 0.000353169 1.48332e-11
 8.32046e-12 0.000353169 1.69356e-11
 8.19348e-12 0.00035317 1.09947e-13
 -1.7075e-11 0.000353169 -1.13141e-11
 -1.02105e-11 0.000353169 2.70803e-11
 -3.22871e-12 0.000353169 1.89656e-11
 3.50521e-12 0.000353169 1.22809e-11
 4.99812e-13 0.000353169 2.32608e-11
 3.88622e-12 0.00035317 -1.63476e-12
 -2.58221e-12 0.000353169 -1.88185e-12
 -3.03418e-12 0.000353169 2.37796e-11
 1.93299e-13 0.000353169 2.3485e-11
 3.2709e-13 0.000353169 2.32853e-11
 -3.68267e-12 0.000353169 3.91089e-12
 4.76632e-12 0.00035317 5.35915e-12
 -2.03252e-12 0.000353169 3.52742e-12
 -3.41075e-12 0.000353169 7.57653e-12
 -2.80028e-12 0.000353169 2.63912e-11
 -2.79545e-12 0.000353169 3.73818e-11
 -2.07574e-12 0.000353169 6.80207e-12
 2.4142e-12 0.00035317 5.55509e-12
 2.70611e-12 -0.0011906 -6.21191e-12
 2.97922e-12 -0.0011906 1.58526e-13
 2.60936e-12 -0.0011906 4.04818e-12
 4.63488e-12 -0.0011906 -4.93264e-13
 3.09335e-12 -0.0011906 7.26068e-12
 5.578e-12 -0.0011906 -6.31724e-12
 -3.90709e-12 -0.0011906 -2.92637e-12
 -2.39459e-12 -0.0011906 2.23448e-14
 5.25928e-13 -0.0011906 1.51834e-12
 -2.96168e-12 -0.0011906 6.10655e-12
 -7.78862e-12 -0.0011906 1.42872e-12
 -9.73838e-12 -0.0011906 -3.70867e-12
 -9.27484e-12 -0.0011906 -2.30505e-12
 -1.41525e-11 -0.0011906 -4.45492e-13
 -4.29405e-12 -0.0011906 -2.02626e-12
 -2.47815e-12 -0.0011906 4.54429e-12
 1.99619e-12 -0.0011906 1.3766e-11
 7.31488e-12 -0.0011906 -7.09545e-12
 -8.37997e-12 -0.0011906 -4.0782e-12
 -5.74947e-13 -0.0011906 6.21927e-12
 -1.63355e-12 -0.0011906 1.80494e-13
 8.56876e-13 -0.0011906 3.41583e-12
 6.26401e-12 -0.0011906 1.10402e-11
 5.12916e-12 -0.0011906 -8.99814e-12
 6.1364e-12 -0.0011906 -5.15269e-12
 7.20028e-12 -0.0011906 -4.11552e-12
 4.12978e-13 -0.0011906 8.64454e-12
 -7.13418e-13 -0.0011906 8.78124e-12
 1.33289e-12 -0.0011906 9.59583e-12
 1.13887e-12 -0.0011906 -3.34806e-12
 -5.79741e-13 -0.0011906 -1.46865e-12
 7.83521e-13 -0.0011906 -1.79847e-12
 3.35565e-12 -0.0011906 1.5498e-11
 2.99722e-12 -0.0011906 1.13547e-12
 1.30179e-12 -0.0011906 4.42404e-12
 6.45343e-13 -0.0011906 3.24675e-12
 -2.37829e-12 -0.000702803 -7.61369e-12
 1.08122e-12 -0.000702803 2.54862e-12
 1.29521e-12 -0.000702804 -3.62377e-12
 3.2768e-12 -0.000702804 1.64911e-12
 2.29746e-12 -0.000702804 2.81715e-12
 2.36483e-12 -0.000702805 -8.2663e-12
 -2.99927e-12 -0.000702804 5.6407e-12
 -1.89279e-12 -0.000702804 -1.90771e-13
 -5.92141e-12 -0.000702804 -1.17479e-11
 -2.10729e-12 -0.000702804 -3.13499e-12
 -1.08402e-11 -0.000702804 2.59797e-12
 -9.80272e-12 -0.000702804 -8.18687e-12
 1.48372e-12 -0.000702805 -4.47073e-12
 -1.75094e-12 -0.000702804 -1.23595e-12
 -4.03897e-12 -0.000702804 -1.86252e-12
 -3.04731e-12 -0.000702804 -6.22061e-12
 2.27817e-12 -0.000702803 4.23945e-12
 2.24814e-12 -0.000702803 -8.01785e-12
 -1.40737e-11 -0.000702805 -4.50601e-12
 -9.31544e-12 -0.000702804 6.11251e-12
 1.57707e-12 -0.000702804 -4.22818e-12
 -7.54749e-12 -0.000702805 -5.38218e-12
 2.93331e-12 -0.000702804 -1.25461e-11
 -3.48094e-12 -0.000702803 9.28174e-12
 7.82415e-12 -0.000702805 -4.29126e-12
 3.63387e-12 -0.000702805 -4.12639e-12
 -1.72568e-12 -0.000702804 -2.75845e-12
 4.97875e-12 -0.000702805 -3.43191e-12
 -1.36486e-12 -0.000702804 4.92806e-12
 -1.01588e-12 -0.000702803 -7.09744e-13
 -3.03489e-12 -0.000702805 1.27425e-12
 -4.047e-12 -0.000702804 -2.92174e-12
 -2.58858e-12 -0.000702804 -3.29459e-12
 -8.50541e-13 -0.000702805 -9.50008e-12
 -2.55384e-12 -0.000702804 -4.48871e-12
 4.82715e-13 -0.000702803 9.41931e-12
 -7.049e-12 0.000625289 -1.34661e-11
 3.8296e-12 0.000625289 1.70731e-12
 -7.45768e-12 0.000625289 -7.39259e-12
 2.51652e-12 0.000625289 -3.51164e-13
 7.10242e-13 0.000625289 -1.33385e-11
 1.55631e-12 0.000625289 1.59288e-11
 2.43277e-12 0.000625289 -9.38482e-12
 1.12967e-12 0.000625289 1.65397e-12
 2.56294e-12 0.000625289 -1.48183e-11
 -1.47477e-12 0.000625289 -5.64371e-12
 -7.91736e-12 0.000625289 -1.28596e-11
 -8.24649e-12 0.000625289 1.64756e-11
 -7.83227e-12 0.000625289 -9.02342e-12
 -8.68076e-13 0.000625289 -6.46661e-12
 4.47229e-12 0.000625289 -8.3928e-12
 -2.69963e-12 0.000625289 -3.27605e-12
 3.86646e-12 0.000625289 4.5073e-12
 -2.35349e-12 0.000625289 -9.57405e-12
 4.75588e-12 0.000625289 -1.69781e-12
 -6.69082e-12 0.000625289 -9.9545e-12
 5.34023e-12 0.000625289 -5.91354e-12
 4.97056e-12 0.000625289 -5.95365e-12
 2.99544e-12 0.000625289 -7.67944e-13
 -3.93312e-12 0.00062529 -7.63939e-12
 1.62795e-11 0.000625289 -8.51964e-12
 6.20547e-12 0.000625289 -5.47196e-12
 -2.05952e-12 0.000625289 -1.78087e-11
 -2.17053e-12 0.000625289 -3.84756e-12
 -5.07049e-12 0.000625289 -1.11517e-11
 6.52529e-12 0.000625289 1.17857e-11
 1.33813e-12 0.000625288 -9.09272e-12
 1.8896e-12 0.000625289 -3.66428e-13
 -1.79018e-12 0.000625289 -1.38357e-11
 1.04325e-13 0.000625289 -1.26326e-11
 9.41375e-13 0.000625289 -2.51358e-12
 -3.74761e-12 0.000625289 3.39006e-13
 2.71781e-12 0.000102175 -7.32319e-12
 3.15751e-12 0.000102175 -3.25115e-12
 1.47122e-12 0.000102176 -1.87188e-11
 1.80925e-12 0.000102176 -5.02597e-12
 1.62707e-12 0.000102176 1.73102e-11
 -6.60207e-12 0.000102176 -3.57398e-12
 -3.86554e-12 0.000102175 -1.11021e-11
 -2.40633e-12 0.000102175 5.92346e-13
 -6.50612e-12 0.000102175 -1.96702e-11
 -4.25445e-12 0.000102176 -3.66345e-12
 -8.02123e-12 0.000102176 6.80502e-12
 3.84514e-12 0.000102175 -5.43658e-12
 -1.62071e-12 0.000102174 -1.71053e-11
 1.55088e-12 0.000102175 1.70406e-12
 6.88629e-12 0.000102175 -2.06036e-11
 -1.35091e-13 0.000102175 -5.11216e-12
 4.96361e-12 0.000102175 -7.47298e-12