<?xml version="1.0"?>
<VTKFile type="UnstructuredGrid" version="0.1" byte_order="LittleEndian" compressor="vtkZLibDataCompressor">
<UnstructuredGrid>
<Piece NumberOfPoints="960" NumberOfCells="120">
<Points>
<DataArray type="Float32" NumberOfComponents="3" format="ascii">
-4.000000e+02 -6.000000e+03 -4.000000e+02
0.000000e+00 -6.000000e+03 -4.000000e+02
-4.000000e+02 -5.600000e+03 -4.000000e+02
-6.010710e-10 -5.600000e+03 -4.000000e+02
-4.000000e+02 -6.000000e+03 0.000000e+00
0.000000e+00 -6.000000e+03 0.000000e+00
-4.000000e+02 -5.600000e+03 -8.401810e-10
-1.151920e-11 -5.600000e+03 2.192930e-10
0.000000e+00 -6.000000e+03 -4.000000e+02
4.000000e+02 -6.000000e+03 -4.000000e+02
-6.010710e-10 -5.600000e+03 -4.000000e+02
4.000000e+02 -5.600000e+03 -4.000000e+02
0.000000e+00 -6.000000e+03 0.000000e+00
4.000000e+02 -6.000000e+03 0.000000e+00
-1.151920e-11 -5.600000e+03 2.192930e-10
4.000000e+02 -5.600000e+03 -5.255490e-10
-4.000000e+02 -5.600000e+03 -4.000000e+02
-6.010710e-10 -5.600000e+03 -4.000000e+02
-4.000000e+02 -5.200000e+03 -4.000000e+02
-2.568770e-10 -5.200000e+03 -4.000000e+02
-4.000000e+02 -5.600000e+03 -8.401810e-10
-1.151920e-11 -5.600000e+03 2.192930e-10
-4.000000e+02 -5.200000e+03 4.294600e-10
4.627360e-11 -5.200000e+03 1.598170e-10
-6.010710e-10 -5.600000e+03 -4.000000e+02
4.000000e+02 -5.600000e+03 -4.000000e+02
-2.568770e-10 -5.200000e+03 -4.000000e+02
4.000000e+02 -5.200000e+03 -4.000000e+02
-1.151920e-11 -5.600000e+03 2.192930e-10
4.000000e+02 -5.600000e+03 -5.255490e-10
4.627360e-11 -5.200000e+03 1.598170e-10
4.000000e+02 -5.200000e+03 -6.959740e-10
-4.000000e+02 -5.200000e+03 -4.000000e+02
-2.568770e-10 -5.200000e+03 -4.000000e+02
-4.000000e+02 -4.800000e+03 -4.000000e+02
-6.597670e-12 -4.800000e+03 -4.000000e+02
-4.000000e+02 -5.200000e+03 4.294600e-10
4.627360e-11 -5.200000e+03 1.598170e-10
-4.000000e+02 -4.800000e+03 8.981430e-10
8.807310e-10 -4.800000e+03 1.111860e-09
-2.568770e-10 -5.200000e+03 -4.000000e+02
4.000000e+02 -5.200000e+03 -4.000000e+02
-6.597670e-12 -4.800000e+03 -4.000000e+02
4.000000e+02 -4.800000e+03 -4.000000e+02
4.627360e-11 -5.200000e+03 1.598170e-10
4.000000e+02 -5.200000e+03 -6.959740e-10
8.807310e-10 -4.800000e+03 1.111860e-09
4.000000e+02 -4.800000e+03 7.103890e-10
-4.000000e+02 -4.800000e+03 -4.000000e+02
-6.597670e-12 -4.800000e+03 -4.000000e+02
-4.000000e+02 -4.400010e+03 -4.000000e+02
5.889450e-10 -4.400010e+03 -4.000000e+02
-4.000000e+02 -4.800000e+03 8.981430e-10
8.807310e-10 -4.800000e+03 1.111860e-09
-4.000000e+02 -4.400010e+03 5.064740e-10
1.250000e-09 -4.400010e+03 7.052530e-10
-6.597670e-12 -4.800000e+03 -4.000000e+02
4.000000e+02 -4.800000e+03 -4.000000e+02
5.889450e-10 -4.400010e+03 -4.000000e+02
4.000000e+02 -4.400010e+03 -4.000000e+02
8.807310e-10 -4.800000e+03 1.111860e-09
4.000000e+02 -4.800000e+03 7.103890e-10
1.250000e-09 -4.400010e+03 7.052530e-10
4.000000e+02 -4.400010e+03 5.968330e-10
-4.000000e+02 -4.400010e+03 -4.000000e+02
5.889450e-10 -4.400010e+03 -4.000000e+02
-4.000000e+02 -4.000010e+03 -4.000000e+02
2.768870e-09 -4.000010e+03 -4.000000e+02
-4.000000e+02 -4.400010e+03 5.064740e-10
1.250000e-09 -4.400010e+03 7.052530e-10
-4.000000e+02 -4.000010e+03 4.604780e-10
1.913440e-09 -4.000010e+03 4.769290e-10
5.889450e-10 -4.400010e+03 -4.000000e+02
4.000000e+02 -4.400010e+03 -4.000000e+02
2.768870e-09 -4.000010e+03 -4.000000e+02
4.000000e+02 -4.000010e+03 -4.000000e+02
1.250000e-09 -4.400010e+03 7.052530e-10
4.000000e+02 -4.400010e+03 5.968330e-10
1.913440e-09 -4.000010e+03 4.769290e-10
4.000000e+02 -4.000010e+03 1.260370e-09
-4.000000e+02 -4.000010e+03 -4.000000e+02
2.768870e-09 -4.000010e+03 -4.000000e+02
-4.000000e+02 -3.600010e+03 -4.000000e+02
3.500790e-09 -3.600010e+03 -4.000000e+02
-4.000000e+02 -4.000010e+03 4.604780e-10
1.913440e-09 -4.000010e+03 4.769290e-10
-4.000000e+02 -3.600010e+03 5.410930e-10
3.386100e-09 -3.600010e+03 2.807770e-10
2.768870e-09 -4.000010e+03 -4.000000e+02
4.000000e+02 -4.000010e+03 -4.000000e+02
3.500790e-09 -3.600010e+03 -4.000000e+02
4.000000e+02 -3.600010e+03 -4.000000e+02
1.913440e-09 -4.000010e+03 4.769290e-10
4.000000e+02 -4.000010e+03 1.260370e-09
3.386100e-09 -3.600010e+03 2.807770e-10
4.000000e+02 -3.600010e+03 1.871100e-09
-4.000000e+02 -3.600010e+03 -4.000000e+02
3.500790e-09 -3.600010e+03 -4.000000e+02
-4.000000e+02 -3.200020e+03 -4.000000e+02
3.301950e-09 -3.200020e+03 -4.000000e+02
-4.000000e+02 -3.600010e+03 5.410930e-10
3.386100e-09 -3.600010e+03 2.807770e-10
-4.000000e+02 -3.200020e+03 3.061280e-10
3.188860e-09 -3.200020e+03 1.441600e-10
3.500790e-09 -3.600010e+03 -4.000000e+02
4.000000e+02 -3.600010e+03 -4.000000e+02
3.301950e-09 -3.200020e+03 -4.000000e+02
4.000000e+02 -3.200020e+03 -4.000000e+02
3.386100e-09 -3.600010e+03 2.807770e-10
4.000000e+02 -3.600010e+03 1.871100e-09
3.188860e-09 -3.200020e+03 1.441600e-10
4.000000e+02 -3.200020e+03 1.053650e-09
-4.000000e+02 -3.200020e+03 -4.000000e+02
3.301950e-09 -3.200020e+03 -4.000000e+02
-4.000000e+02 -2.800020e+03 -4.000000e+02
1.973030e-09 -2.800020e+03 -4.000000e+02
-4.000000e+02 -3.200020e+03 3.061280e-10
3.188860e-09 -3.200020e+03 1.441600e-10
-4.000000e+02 -2.800020e+03 -4.906160e-10
1.428030e-09 -2.800020e+03 -2.975050e-11
3.301950e-09 -3.200020e+03 -4.000000e+02
4.000000e+02 -3.200020e+03 -4.000000e+02
1.973030e-09 -2.800020e+03 -4.000000e+02
4.000000e+02 -2.800020e+03 -4.000000e+02
3.188860e-09 -3.200020e+03 1.441600e-10
4.000000e+02 -3.200020e+03 1.053650e-09
1.428030e-09 -2.800020e+03 -2.975050e-11
4.000000e+02 -2.800020e+03 9.893920e-10
-4.000000e+02 -2.800020e+03 -4.000000e+02
1.973030e-09 -2.800020e+03 -4.000000e+02
-4.000000e+02 -2.400030e+03 -4.000000e+02
2.432200e-09 -2.400030e+03 -4.000000e+02
-4.000000e+02 -2.800020e+03 -4.906160e-10
1.428030e-09 -2.800020e+03 -2.975050e-11
-4.000000e+02 -2.400030e+03 1.442340e-09
1.555450e-09 -2.400030e+03 6.762560e-10
1.973030e-09 -2.800020e+03 -4.000000e+02
4.000000e+02 -2.800020e+03 -4.000000e+02
2.432200e-09 -2.400030e+03 -4.000000e+02
4.000000e+02 -2.400030e+03 -4.000000e+02
1.428030e-09 -2.800020e+03 -2.975050e-11
4.000000e+02 -2.800020e+03 9.893920e-10
1.555450e-09 -2.400030e+03 6.762560e-10
4.000000e+02 -2.400030e+03 1.713420e-09
-4.000000e+02 -2.400030e+03 -4.000000e+02
2.432200e-09 -2.400030e+03 -4.000000e+02
-4.000000e+02 -2.000050e+03 -4.000000e+02
1.912810e-09 -2.000050e+03 -4.000000e+02
-4.000000e+02 -2.400030e+03 1.442340e-09
1.555450e-09 -2.400030e+03 6.762560e-10
-4.000000e+02 -2.000050e+03 1.226070e-09
1.424390e-09 -2.000050e+03 1.194180e-09
2.432200e-09 -2.400030e+03 -4.000000e+02
4.000000e+02 -2.400030e+03 -4.000000e+02
1.912810e-09 -2.000050e+03 -4.000000e+02
4.000000e+02 -2.000050e+03 -4.000000e+02
1.555450e-09 -2.400030e+03 6.762560e-10
4.000000e+02 -2.400030e+03 1.713420e-09
1.424390e-09 -2.000050e+03 1.194180e-09
4.000000e+02 -2.000050e+03 1.891110e-09
-4.000000e+02 -2.000050e+03 -4.000000e+02
1.912810e-09 -2.000050e+03 -4.000000e+02
-4.000000e+02 -1.600080e+03 -4.000000e+02
1.530410e-09 -1.600080e+03 -4.000000e+02
-4.000000e+02 -2.000050e+03 1.226070e-09
1.424390e-09 -2.000050e+03 1.194180e-09
-4.000000e+02 -1.600080e+03 2.258040e-09
5.217790e-10 -1.600080e+03 2.044930e-09
1.912810e-09 -2.000050e+03 -4.000000e+02
4.000000e+02 -2.000050e+03 -4.000000e+02
1.530410e-09 -1.600080e+03 -4.000000e+02
4.000000e+02 -1.600080e+03 -4.000000e+02
1.424390e-09 -2.000050e+03 1.194180e-09
4.000000e+02 -2.000050e+03 1.891110e-09
5.217790e-10 -1.600080e+03 2.044930e-09
4.000000e+02 -1.600080e+03 2.122660e-09
-4.000000e+02 -1.600080e+03 -4.000000e+02
1.530410e-09 -1.600080e+03 -4.000000e+02
-4.000000e+02 -1.200120e+03 -4.000000e+02
1.097150e-09 -1.200120e+03 -4.000000e+02
-4.000000e+02 -1.600080e+03 2.258040e-09
5.217790e-10 -1.600080e+03 2.044930e-09
-4.000000e+02 -1.200120e+03 1.524510e-09
4.382060e-10 -1.200120e+03 1.607160e-09
1.530410e-09 -1.600080e+03 -4.000000e+02
4.000000e+02 -1.600080e+03 -4.000000e+02
1.097150e-09 -1.200120e+03 -4.000000e+02
4.000000e+02 -1.200120e+03 -4.000000e+02
5.217790e-10 -1.600080e+03 2.044930e-09
4.000000e+02 -1.600080e+03 2.122660e-09
4.382060e-10 -1.200120e+03 1.607160e-09
4.000000e+02 -1.200120e+03 1.503520e-09
-4.000000e+02 -1.200120e+03 -4.000000e+02
1.097150e-09 -1.200120e+03 -4.000000e+02
-4.000000e+02 -8.001850e+02 -4.000000e+02
6.983590e-10 -8.001850e+02 -4.000000e+02
-4.000000e+02 -1.200120e+03 1.524510e-09
4.382060e-10 -1.200120e+03 1.607160e-09
-4.000000e+02 -8.001850e+02 2.487970e-10
7.135320e-10 -8.001850e+02 3.199960e-10
1.097150e-09 -1.200120e+03 -4.000000e+02
4.000000e+02 -1.200120e+03 -4.000000e+02
6.983590e-10 -8.001850e+02 -4.000000e+02
4.000000e+02 -8.001850e+02 -4.000000e+02
4.382060e-10 -1.200120e+03 1.607160e-09
4.000000e+02 -1.200120e+03 1.503520e-09
7.135320e-10 -8.001850e+02 3.199960e-10
4.000000e+02 -8.001850e+02 5.828930e-10
-4.000000e+02 -8.001850e+02 -4.000000e+02
6.983590e-10 -8.001850e+02 -4.000000e+02
-4.000000e+02 -4.002520e+02 -4.000000e+02
1.801680e-09 -4.002520e+02 -4.000000e+02
-4.000000e+02 -8.001850e+02 2.487970e-10
7.135320e-10 -8.001850e+02 3.199960e-10
-4.000000e+02 -4.002520e+02 2.269020e-10
1.233450e-09 -4.002520e+02 7.786080e-11
6.983590e-10 -8.001850e+02 -4.000000e+02
4.000000e+02 -8.001850e+02 -4.000000e+02
1.801680e-09 -4.002520e+02 -4.000000e+02
4.000000e+02 -4.002520e+02 -4.000000e+02
7.135320e-10 -8.001850e+02 3.199960e-10
4.000000e+02 -8.001850e+02 5.828930e-10
1.233450e-09 -4.002520e+02 7.786080e-11
4.000000e+02 -4.002520e+02 1.357550e-10
-4.000000e+02 -4.002520e+02 -4.000000e+02
1.801680e-09 -4.002520e+02 -4.000000e+02
-4.000000e+02 -3.050490e-01 -4.000000e+02
1.088430e-10 -3.050490e-01 -4.000000e+02
-4.000000e+02 -4.002520e+02 2.269020e-10
1.233450e-09 -4.002520e+02 7.786080e-11
-4.000000e+02 -3.050490e-01 3.172330e-10
9.456890e-10 -3.050490e-01 -2.190990e-10
1.801680e-09 -4.002520e+02 -4.000000e+02
4.000000e+02 -4.002520e+02 -4.000000e+02
1.088430e-10 -3.050490e-01 -4.000000e+02
4.000000e+02 -3.050490e-01 -4.000000e+02
1.233450e-09 -4.002520e+02 7.786080e-11
[...]
<PointData>
<DataArray type="Float32" Name="V1" format="ascii">
0.000000e+00
0.000000e+00
-9.426750e-11
-2.105660e-09
0.000000e+00
0.000000e+00
1.633970e-09
1.026690e-09
0.000000e+00
0.000000e+00
-2.105660e-09
-2.168150e-09
0.000000e+00
0.000000e+00
1.026690e-09
1.665390e-09
-9.426750e-11
-2.105660e-09
-2.403820e-09
-6.903850e-10
1.633970e-09
1.026690e-09
4.242040e-10
5.785190e-10
-2.105660e-09
-2.168150e-09
-6.903850e-10
-2.828030e-10
1.026690e-09
1.665390e-09
5.785190e-10
1.571130e-09
-2.403820e-09
-6.903850e-10
7.698510e-10
6.027490e-10
4.242040e-10
5.785190e-10
-1.414010e-09
-3.425960e-10
-6.903850e-10
-2.828030e-10
6.027490e-10
-3.299360e-10
5.785190e-10
1.571130e-09
-3.425960e-10
7.855630e-10
7.698510e-10
6.027490e-10
-4.399150e-10
-9.574200e-10
-1.414010e-09
-3.425960e-10
-1.194060e-09
2.687580e-10
6.027490e-10
-3.299360e-10
-9.574200e-10
-7.384290e-10
-3.425960e-10
7.855630e-10
2.687580e-10
1.351170e-09
-4.399150e-10
-9.574200e-10
-2.513800e-10
-1.277340e-10
-1.194060e-09
2.687580e-10
4.870490e-10
-7.200450e-10
-9.574200e-10
-7.384290e-10
-1.277340e-10
3.142250e-10
2.687580e-10
1.351170e-09
-7.200450e-10
1.571130e-11
-2.513800e-10
-1.277340e-10
7.855630e-10
4.667930e-10
4.870490e-10
-7.200450e-10
-8.012740e-10
-6.914380e-10
-1.277340e-10
3.142250e-10
4.667930e-10
8.641190e-10
-7.200450e-10
1.571130e-11
-6.914380e-10
-1.429720e-09
7.855630e-10
4.667930e-10
1.728240e-10
9.200400e-10
-8.012740e-10
-6.914380e-10
1.414010e-10
1.041860e-10
4.667930e-10
8.641190e-10
9.200400e-10
1.618260e-09
-6.914380e-10
-1.429720e-09
1.041860e-10
1.571130e-10
1.728240e-10
9.200400e-10
4.242040e-10
3.048240e-10
1.414010e-10
1.041860e-10
1.099790e-10
-3.409510e-10
9.200400e-10
1.618260e-09
3.048240e-10
-3.613590e-10
1.041860e-10
1.571130e-10
-3.409510e-10
-2.670910e-10
4.242040e-10
3.048240e-10
-1.571130e-10
-4.280760e-10
1.099790e-10
-3.409510e-10
1.571130e-10
-1.914610e-11
3.048240e-10
-3.613590e-10
-4.280760e-10
1.162630e-09
-3.409510e-10
-2.670910e-10
-1.914610e-11
-2.702340e-09
-1.571130e-10
-4.280760e-10
8.326970e-10
3.166220e-10
1.571130e-10
-1.914610e-11
2.262420e-09
1.088950e-09
-4.280760e-10
1.162630e-09
3.166220e-10
-6.598730e-10
-1.914610e-11
-2.702340e-09
1.088950e-09
0.000000e+00
8.326970e-10
3.166220e-10
6.598730e-10
-6.170510e-10
2.262420e-09
1.088950e-09
-4.713380e-11
3.534140e-10
3.166220e-10
-6.598730e-10
-6.170510e-10
-1.288320e-09
1.088950e-09
0.000000e+00
3.534140e-10
1.461150e-09
6.598730e-10
-6.170510e-10
-2.199580e-10
1.175680e-09
-4.713380e-11
3.534140e-10
7.070060e-10
2.538400e-11
-6.170510e-10
-1.288320e-09
1.175680e-09
2.403820e-09
3.534140e-10
1.461150e-09
2.538400e-11
-1.571130e-11
-2.199580e-10
1.175680e-09
-8.169850e-10
-1.042040e-10
7.070060e-10
2.538400e-11
7.855630e-11
-1.319690e-10
1.175680e-09
2.403820e-09
-1.042040e-10
-1.869640e-09
2.538400e-11
-1.571130e-11
-1.319690e-10
-1.099790e-10
-8.169850e-10
-1.042040e-10
-1.398300e-09
1.112330e-10
7.855630e-11
-1.319690e-10
-1.414010e-10
4.888680e-10
-1.042040e-10
-1.869640e-09
1.112330e-10
6.127390e-10
-1.319690e-10
-1.099790e-10
4.888680e-10
-5.970280e-10
-1.398300e-09
1.112330e-10
9.583870e-10
-1.793700e-10
-1.414010e-10
4.888680e-10
-7.698510e-10
3.232350e-10
1.112330e-10
6.127390e-10
-1.793700e-10
-1.916770e-09
4.888680e-10
-5.970280e-10
3.232350e-10
8.169850e-10
9.583870e-10
-1.793700e-10
-1.775370e-09
1.015670e-09
-7.698510e-10
3.232350e-10
3.032270e-09
-3.671550e-10
-1.793700e-10
-1.916770e-09
1.015670e-09
4.571980e-09
3.232350e-10
8.169850e-10
-3.671550e-10
-3.817830e-09
-1.775370e-09
1.015670e-09
-6.598730e-10
-3.250960e-09
3.032270e-09
-3.671550e-10
-6.017410e-09
-1.426110e-10
1.015670e-09
4.571980e-09
-3.250960e-09
-6.017410e-09
-3.671550e-10
-3.817830e-09
-1.426110e-10
4.367730e-09
-6.598730e-10
-3.250960e-09
8.122720e-09
2.001610e-09
-6.017410e-09
-1.426110e-10
3.032270e-09
-1.053330e-10
-3.250960e-09
-6.017410e-09
2.001610e-09
-3.566450e-09
-1.426110e-10
4.367730e-09
-1.053330e-10
-1.414010e-09
8.122720e-09
2.001610e-09
-1.212910e-08
7.504280e-09
3.032270e-09
-1.053330e-10
1.421870e-08
4.423390e-10
2.001610e-09
-3.566450e-09
7.504280e-09
2.611210e-08
-1.053330e-10
-1.414010e-09
4.423390e-10
-1.423440e-08
-1.212910e-08
7.504280e-09
-1.786370e-08
-5.108740e-09
1.421870e-08
4.423390e-10
-2.058170e-09
3.974550e-10
7.504280e-09
2.611210e-08
-5.108740e-09
7.619960e-09
4.423390e-10
-1.423440e-08
3.974550e-10
2.733760e-09
-1.786370e-08
-5.108740e-09
-5.341830e-10
-3.277610e-09
-2.058170e-09
3.974550e-10
7.070060e-10
-1.873480e-09
-5.108740e-09
7.619960e-09
-3.277610e-09
-5.954570e-09
3.974550e-10
2.733760e-09
-1.873480e-09
-4.524840e-09
-5.341830e-10
-3.277610e-09
2.347260e-08
2.307670e-09
7.070060e-10
-1.873480e-09
-1.209770e-08
-7.851190e-11
-3.277610e-09
-5.954570e-09
2.307670e-09
-1.891640e-08
-1.873480e-09
-4.524840e-09
-7.851190e-11
1.184630e-08
2.347260e-08
2.307670e-09
4.116350e-09
8.036960e-10
-1.209770e-08
-7.851190e-11
-3.676430e-09
2.625320e-10
2.307670e-09
-1.891640e-08
8.036960e-10
-2.450960e-09
-7.851190e-11
1.184630e-08
2.625320e-10
4.242040e-09
4.116350e-09
8.036960e-10
-1.192480e-08
-5.800370e-10
-3.676430e-09
2.625320e-10
9.426750e-09
-3.639910e-10
8.036960e-10
-2.450960e-09
-5.800370e-10
1.077790e-08
2.625320e-10
4.242040e-09
-3.639910e-10
-1.019660e-08
-1.192480e-08
-5.800370e-10
3.393630e-09
7.395090e-10
9.426750e-09
-3.639910e-10
-1.806790e-09
6.760790e-10
-5.800370e-10
1.077790e-08
7.395090e-10
-1.995330e-09
-3.639910e-10
-1.019660e-08
6.760790e-10
3.095120e-09
3.393630e-09
7.395090e-10
-1.398300e-09
-5.093180e-10
-1.806790e-09
6.760790e-10
-2.513800e-10
-5.625860e-11
7.395090e-10
-1.995330e-09
-5.093180e-10
3.613590e-10
6.760790e-10
3.095120e-09
-5.625860e-11
2.199580e-10
-1.398300e-09
-5.093180e-10
0.000000e+00
-6.369280e-11
-2.513800e-10
-5.625860e-11
0.000000e+00
6.544720e-11
-5.093180e-10
3.613590e-10
-6.369280e-11
0.000000e+00
-5.625860e-11
2.199580e-10
6.544720e-11
2.513800e-10
0.000000e+00
-6.369280e-11
1.414010e-10
6.521400e-11
0.000000e+00
6.544720e-11
1.414010e-10
6.457310e-11
-6.369280e-11
0.000000e+00
6.521400e-11
0.000000e+00
6.544720e-11
2.513800e-10
6.457310e-11
0.000000e+00
1.414010e-10
6.521400e-11
0.000000e+00
-2.392570e-11
1.414010e-10
6.457310e-11
0.000000e+00
-1.887730e-11
6.521400e-11
0.000000e+00
-2.392570e-11
0.000000e+00
6.457310e-11
0.000000e+00
-1.887730e-11
0.000000e+00
0.000000e+00
-2.392570e-11
-6.284500e-11
-1.199530e-10
0.000000e+00
-1.887730e-11
-7.855630e-11
-1.317700e-10
-2.392570e-11
0.000000e+00
-1.199530e-10
-1.256900e-10
-1.887730e-11
0.000000e+00
-1.317700e-10
-1.414010e-10
0.000000e+00
0.000000e+00
1.633970e-09
1.026690e-09
0.000000e+00
0.000000e+00
-6.284500e-10
-2.372010e-11
0.000000e+00
0.000000e+00
1.026690e-09
1.665390e-09
0.000000e+00
0.000000e+00
-2.372010e-11
-3.142250e-10
1.633970e-09
1.026690e-09
4.242040e-10
5.785190e-10
-6.284500e-10
-2.372010e-11
-2.262420e-09
3.342020e-10
1.026690e-09
1.665390e-09
5.785190e-10
1.571130e-09
-2.372010e-11
-3.142250e-10
3.342020e-10
3.770700e-10
4.242040e-10
5.785190e-10
-1.414010e-09
-3.425960e-10
-2.262420e-09
3.342020e-10
-1.256900e-09
-1.658030e-10
5.785190e-10
1.571130e-09
-3.425960e-10
7.855630e-10
3.342020e-10
3.770700e-10
-1.658030e-10
4.713380e-10
-1.414010e-09
-3.425960e-10
-1.194060e-09
2.687580e-10
-1.256900e-09
-1.658030e-10
1.178340e-09
4.326550e-10
-3.425960e-10
7.855630e-10
2.687580e-10
1.351170e-09
-1.658030e-10
4.713380e-10
4.326550e-10
-8.012740e-10
-1.194060e-09
2.687580e-10
4.870490e-10
-7.200450e-10
1.178340e-09
4.326550e-10
5.656050e-10
1.122730e-10
2.687580e-10
1.351170e-09
-7.200450e-10
1.571130e-11
4.326550e-10
-8.012740e-10
1.122730e-10
-4.713380e-11
4.870490e-10
-7.200450e-10
-8.012740e-10
-6.914380e-10
5.656050e-10
1.122730e-10
1.445440e-09
5.676870e-10
-7.200450e-10
1.571130e-11
-6.914380e-10
-1.429720e-09
1.122730e-10
-4.713380e-11
5.676870e-10
1.068370e-09
-8.012740e-10
-6.914380e-10
1.414010e-10
1.041860e-10
1.445440e-09
5.676870e-10
1.728240e-10
1.089040e-09
-6.914380e-10
-1.429720e-09
1.041860e-10
1.571130e-10
5.676870e-10
1.068370e-09
1.089040e-09
0.000000e+00
1.414010e-10
1.041860e-10
1.099790e-10
-3.409510e-10
1.728240e-10
1.089040e-09
5.656050e-10
-3.342060e-10
1.041860e-10
1.571130e-10
-3.409510e-10
-2.670910e-10
1.089040e-09
0.000000e+00
-3.342060e-10
-1.429720e-09
1.099790e-10
-3.409510e-10
1.571130e-10
-1.914610e-11
5.656050e-10
-3.342060e-10
-4.556260e-10
-1.064780e-10
-3.409510e-10
-2.670910e-10
-1.914610e-11
-2.702340e-09
-3.342060e-10
-1.429720e-09
-1.064780e-10
6.912950e-10
1.571130e-10
-1.914610e-11
2.262420e-09
1.088950e-09
-4.556260e-10
-1.064780e-10
-1.948200e-09
5.679480e-11
-1.914610e-11
-2.702340e-09
1.088950e-09
0.000000e+00
-1.064780e-10
6.912950e-10
5.679480e-11
4.556260e-10
2.262420e-09
1.088950e-09
-4.713380e-11
3.534140e-10
-1.948200e-09
5.679480e-11
2.325270e-09
-2.528430e-10
1.088950e-09
0.000000e+00
3.534140e-10
1.461150e-09
5.679480e-11
4.556260e-10
-2.528430e-10
-1.288320e-09
-4.713380e-11
3.534140e-10
7.070060e-10
2.538400e-11
2.325270e-09
-2.528430e-10
1.099790e-10
4.479160e-10
3.534140e-10
1.461150e-09
2.538400e-11
-1.571130e-11
-2.528430e-10
-1.288320e-09
4.479160e-10
1.209770e-09
7.070060e-10
2.538400e-11
7.855630e-11
-1.319690e-10
1.099790e-10
4.479160e-10
-1.304030e-09
-1.037580e-09
2.538400e-11
-1.571130e-11
-1.319690e-10
-1.099790e-10
4.479160e-10
1.209770e-09
-1.037580e-09
-1.885350e-09
7.855630e-11
-1.319690e-10
-1.414010e-10
4.888680e-10
-1.304030e-09
-1.037580e-09
-2.828030e-10
1.315530e-10
-1.319690e-10
-1.099790e-10
4.888680e-10
-5.970280e-10
-1.037580e-09
-1.885350e-09
1.315530e-10
-7.855630e-11
-1.414010e-10
4.888680e-10
-7.698510e-10
3.232350e-10
-2.828030e-10
1.315530e-10
1.775370e-09
1.343240e-09
4.888680e-10
-5.970280e-10
3.232350e-10
8.169850e-10
1.315530e-10
-7.855630e-11
1.343240e-09
-8.641190e-10
-7.698510e-10
3.232350e-10
3.032270e-09
-3.671550e-10
1.775370e-09
1.343240e-09
-5.656050e-09
-7.951590e-10
3.232350e-10
8.169850e-10
-3.671550e-10
-3.817830e-09
1.343240e-09
-8.641190e-10
-7.951590e-10
2.670910e-09
3.032270e-09
-3.671550e-10
-6.017410e-09
-1.426110e-10
-5.656050e-09
-7.951590e-10
7.085780e-09
2.103660e-09
-3.671550e-10
-3.817830e-09
-1.426110e-10
4.367730e-09
-7.951590e-10
2.670910e-09
2.103660e-09
-2.718050e-09
-6.017410e-09
-1.426110e-10
3.032270e-09
-1.053330e-10
7.085780e-09
2.103660e-09
-2.812310e-09
-1.757610e-09
-1.426110e-10
4.367730e-09
-1.053330e-10
-1.414010e-09
2.103660e-09
-2.718050e-09
-1.757610e-09
-3.754990e-09
3.032270e-09
-1.053330e-10
1.421870e-08
4.423390e-10
-2.812310e-09
-1.757610e-09
-1.091930e-08
-1.525990e-09
-1.053330e-10
-1.414010e-09
4.423390e-10
-1.423440e-08
-1.757610e-09
-3.754990e-09
-1.525990e-09
9.803820e-09
1.421870e-08
4.423390e-10
-2.058170e-09
3.974550e-10
-1.091930e-08
-1.525990e-09
6.787260e-09
7.987740e-09
4.423390e-10
-1.423440e-08
3.974550e-10
2.733760e-09
-1.525990e-09
9.803820e-09
7.987740e-09
9.018260e-09
-2.058170e-09
3.974550e-10
7.070060e-10
-1.873480e-09
6.787260e-09
7.987740e-09
-5.498940e-10
-1.593180e-09
3.974550e-10
2.733760e-09
-1.873480e-09
-4.524840e-09
7.987740e-09
9.018260e-09
-1.593180e-09
-2.780890e-09
7.070060e-10
-1.873480e-09
-1.209770e-08
-7.851190e-11
-5.498940e-10
-1.593180e-09
2.796600e-09
-5.364720e-09
-1.873480e-09
-4.524840e-09
-7.851190e-11
1.184630e-08
-1.593180e-09
-2.780890e-09
-5.364720e-09
-1.362170e-08
-1.209770e-08
-7.851190e-11
-3.676430e-09
2.625320e-10
2.796600e-09
-5.364720e-09
5.970280e-10
-5.331920e-10
-7.851190e-11
1.184630e-08
2.625320e-10
4.242040e-09
-5.364720e-09
-1.362170e-08
-5.331920e-10
-1.508280e-09
-3.676430e-09
2.625320e-10
9.426750e-09
-3.639910e-10
5.970280e-10
-5.331920e-10
-5.121870e-09
1.035950e-09
2.625320e-10
4.242040e-09
-3.639910e-10
-1.019660e-08
-5.331920e-10
-1.508280e-09
1.035950e-09
7.195750e-09
9.426750e-09
-3.639910e-10
-1.806790e-09
6.760790e-10
-5.121870e-09
1.035950e-09
2.372400e-09
2.323160e-10
-3.639910e-10
-1.019660e-08
6.760790e-10
3.095120e-09
1.035950e-09
7.195750e-09
2.323160e-10
-1.932480e-09
-1.806790e-09
6.760790e-10
-2.513800e-10
-5.625860e-11
2.372400e-09
2.323160e-10
9.426750e-11
5.592200e-10
6.760790e-10
3.095120e-09
-5.625860e-11
2.199580e-10
2.323160e-10
-1.932480e-09
5.592200e-10
1.146920e-09
-2.513800e-10
-5.625860e-11
0.000000e+00
6.544720e-11
9.426750e-11
5.592200e-10
7.855630e-11
2.191880e-10
-5.625860e-11
2.199580e-10
6.544720e-11
2.513800e-10
5.592200e-10
1.146920e-09
2.191880e-10
4.556260e-10
0.000000e+00
6.544720e-11
1.414010e-10
6.457310e-11
7.855630e-11
2.191880e-10
1.728240e-10
2.713530e-11
6.544720e-11
2.513800e-10
6.457310e-11
0.000000e+00
2.191880e-10
4.556260e-10
2.713530e-11
-1.414010e-10
1.414010e-10
6.457310e-11
0.000000e+00
-1.887730e-11
1.728240e-10
2.713530e-11
0.000000e+00
-1.449120e-11
6.457310e-11
0.000000e+00
-1.887730e-11
0.000000e+00
2.713530e-11
-1.414010e-10
-1.449120e-11
0.000000e+00
0.000000e+00
-1.887730e-11
-7.855630e-11
-1.317700e-10
0.000000e+00
-1.449120e-11
-1.414010e-10
-1.403000e-10
-1.887730e-11
0.000000e+00
-1.317700e-10
-1.414010e-10
-1.449120e-11
0.000000e+00
-1.403000e-10
-1.256900e-10
</DataArray>
<DataArray type="Float32" Name="V2" format="ascii">
0.000000e+00
0.000000e+00
2.494330e-04
2.494320e-04
0.000000e+00
0.000000e+00
2.494320e-04
2.494310e-04
0.000000e+00
0.000000e+00
2.494320e-04
2.494330e-04
0.000000e+00
0.000000e+00
2.494310e-04
2.494300e-04
2.494330e-04
2.494320e-04
5.413280e-04
5.413280e-04
2.494320e-04
2.494310e-04
5.413270e-04
5.413340e-04
2.494320e-04
2.494330e-04
5.413280e-04
5.413280e-04
2.494310e-04
2.494300e-04
5.413340e-04
5.413310e-04
5.413280e-04
5.413280e-04
3.238770e-05
3.239310e-05
5.413270e-04
5.413340e-04
3.239670e-05
3.239300e-05
5.413280e-04
5.413280e-04
3.239310e-05
3.238910e-05
5.413340e-04
5.413310e-04
3.239300e-05
3.239520e-05
3.238770e-05
3.239310e-05
8.843990e-04
8.844040e-04
3.239670e-05
3.239300e-05
8.844000e-04
8.844060e-04
3.239310e-05
3.238910e-05
8.844040e-04
8.843980e-04
3.239300e-05
3.239520e-05
8.844060e-04
8.844010e-04
8.843990e-04
8.844040e-04
1.020200e-03
1.020210e-03
8.844000e-04
8.844060e-04
1.020210e-03
1.020210e-03
8.844040e-04
8.843980e-04
1.020210e-03
1.020210e-03
8.844060e-04
8.844010e-04
1.020210e-03
1.020210e-03
1.020200e-03
1.020210e-03
1.651430e-03
1.651440e-03
1.020210e-03
1.020210e-03
1.651440e-03
1.651440e-03
1.020210e-03
1.020210e-03
1.651440e-03
1.651450e-03
1.020210e-03
1.020210e-03
1.651440e-03
1.651440e-03
1.651430e-03
1.651440e-03
1.775750e-03
1.775750e-03
1.651440e-03
1.651440e-03
1.775750e-03
1.775750e-03
1.651440e-03
1.651450e-03
1.775750e-03
1.775750e-03
1.651440e-03
1.651440e-03
1.775750e-03
1.775750e-03
1.775750e-03
1.775750e-03
4.000170e-03
4.000170e-03
1.775750e-03
1.775750e-03
4.000170e-03
4.000170e-03
1.775750e-03
1.775750e-03
4.000170e-03
4.000170e-03
1.775750e-03
1.775750e-03
4.000170e-03
4.000170e-03
4.000170e-03
4.000170e-03
7.903790e-03
7.903800e-03
4.000170e-03
4.000170e-03
7.903800e-03
7.903800e-03
4.000170e-03
4.000170e-03
7.903800e-03
7.903800e-03
4.000170e-03
4.000170e-03
7.903800e-03
7.903800e-03
7.903790e-03
7.903800e-03
1.421790e-02
1.421790e-02
7.903800e-03
7.903800e-03
1.421790e-02
1.421790e-02
7.903800e-03
7.903800e-03
1.421790e-02
1.421790e-02
7.903800e-03
7.903800e-03
1.421790e-02
1.421790e-02
1.421790e-02
1.421790e-02
2.472110e-02
2.472110e-02
1.421790e-02
1.421790e-02
2.472110e-02
2.472110e-02
1.421790e-02
1.421790e-02
2.472110e-02
2.472110e-02
1.421790e-02
1.421790e-02
2.472110e-02
2.472110e-02
2.472110e-02
2.472110e-02
3.667690e-02
3.667690e-02
2.472110e-02
2.472110e-02
3.667690e-02
3.667690e-02
2.472110e-02
2.472110e-02
3.667690e-02
3.667690e-02
2.472110e-02
2.472110e-02
3.667690e-02
3.667690e-02
3.667690e-02
3.667690e-02
4.675870e-02
4.675870e-02
3.667690e-02
3.667690e-02
4.675870e-02
4.675870e-02
3.667690e-02
3.667690e-02
4.675870e-02
4.675870e-02
3.667690e-02
3.667690e-02
4.675870e-02
4.675870e-02
4.675870e-02
4.675870e-02
4.489790e-02
4.489790e-02
4.675870e-02
4.675870e-02
4.489790e-02
4.489790e-02
4.675870e-02
4.675870e-02
4.489790e-02
4.489790e-02
4.675870e-02
4.675870e-02
4.489790e-02
4.489790e-02
4.489790e-02
4.489790e-02
2.657750e-02
2.657750e-02
4.489790e-02
4.489790e-02
2.657750e-02
2.657750e-02
4.489790e-02
4.489790e-02
2.657750e-02
2.657750e-02
4.489790e-02
4.489790e-02
2.657750e-02
2.657750e-02
2.657750e-02
2.657750e-02
-1.742970e-03
-1.742970e-03
2.657750e-02
2.657750e-02
-1.742970e-03
-1.742970e-03
2.657750e-02
2.657750e-02
-1.742970e-03
-1.742970e-03
2.657750e-02
2.657750e-02
-1.742970e-03
-1.742970e-03
-1.742970e-03
-1.742970e-03
-2.295390e-02
-2.295390e-02
-1.742970e-03
-1.742970e-03
-2.295390e-02
-2.295390e-02
-1.742970e-03
-1.742970e-03
-2.295390e-02
-2.295390e-02
-1.742970e-03
-1.742970e-03
-2.295390e-02
-2.295390e-02
-2.295390e-02
-2.295390e-02
-1.842730e-02
-1.842730e-02
-2.295390e-02
-2.295390e-02
-1.842730e-02
-1.842730e-02
-2.295390e-02
-2.295390e-02
-1.842730e-02
-1.842730e-02
-2.295390e-02
-2.295390e-02
-1.842730e-02
-1.842730e-02
-1.842730e-02
-1.842730e-02
3.131090e-03
3.131020e-03
-1.842730e-02
-1.842730e-02
3.131070e-03
3.131090e-03
-1.842730e-02
-1.842730e-02
3.131020e-03
3.131080e-03
-1.842730e-02
-1.842730e-02
3.131090e-03
3.131070e-03
3.131090e-03
3.131020e-03
1.783910e-02
1.783900e-02
3.131070e-03
3.131090e-03
1.783900e-02
1.783900e-02
3.131020e-03
3.131080e-03
1.783900e-02
1.783900e-02
3.131090e-03
3.131070e-03
1.783900e-02
1.783900e-02
1.783910e-02
1.783900e-02
1.795820e-03
1.795790e-03
1.783900e-02
1.783900e-02
1.795790e-03
1.795790e-03
1.783900e-02
1.783900e-02
1.795790e-03
1.795760e-03
1.783900e-02
1.783900e-02
1.795790e-03
1.795760e-03
1.795820e-03
1.795790e-03
-1.017940e-02
-1.017950e-02
1.795790e-03
1.795790e-03
-1.017950e-02
-1.017940e-02
1.795790e-03
1.795760e-03
-1.017950e-02
-1.017940e-02
1.795790e-03
1.795760e-03
-1.017940e-02
-1.017950e-02
-1.017940e-02
-1.017950e-02
-7.903730e-04
-7.901050e-04
-1.017950e-02
-1.017940e-02
-7.901610e-04
-7.903310e-04
-1.017950e-02
-1.017940e-02
-7.901050e-04
-7.903140e-04
-1.017940e-02
-1.017950e-02
-7.903310e-04
-7.901310e-04
-7.903730e-04
-7.901050e-04
4.995210e-03
4.995170e-03
-7.901610e-04
-7.903310e-04
4.995170e-03
4.995210e-03
-7.901050e-04
-7.903140e-04
4.995170e-03
4.995220e-03
-7.903310e-04
-7.901310e-04
4.995210e-03
4.995170e-03
4.995210e-03
4.995170e-03
-4.715570e-04
-4.716260e-04
4.995170e-03
4.995210e-03
-4.715990e-04
-4.715720e-04
4.995170e-03
4.995220e-03
-4.716260e-04
-4.715790e-04
4.995210e-03
4.995170e-03
-4.715720e-04
-4.716060e-04
-4.715570e-04
-4.716260e-04
-8.651310e-04
-8.651330e-04
-4.715990e-04
-4.715720e-04
-8.651310e-04
-8.651270e-04
-4.716260e-04
-4.715790e-04
-8.651330e-04
-8.651280e-04
-4.715720e-04
-4.716060e-04
-8.651270e-04
-8.651290e-04
-8.651310e-04
-8.651330e-04
3.544990e-04
3.545000e-04
-8.651310e-04
-8.651270e-04
3.545000e-04
3.545000e-04
-8.651330e-04
-8.651280e-04
3.545000e-04
3.545010e-04
-8.651270e-04
-8.651290e-04
3.545000e-04
3.545000e-04
3.544990e-04
3.545000e-04
1.574120e-04
1.574130e-04
3.545000e-04
3.545000e-04
1.574110e-04
1.574110e-04
3.545000e-04
3.545010e-04
1.574130e-04
1.574130e-04
3.545000e-04
3.545000e-04
1.574110e-04
1.574120e-04
1.574120e-04
1.574130e-04
-1.576660e-05
-1.576710e-05
1.574110e-04
1.574110e-04
-1.576670e-05
-1.576640e-05
1.574130e-04
1.574130e-04
-1.576710e-05
-1.576740e-05
1.574110e-04
1.574120e-04
-1.576640e-05
-1.576670e-05
-1.576660e-05
-1.576710e-05
-2.303170e-05
-2.303090e-05
-1.576670e-05
-1.576640e-05
-2.303160e-05
-2.303160e-05
-1.576710e-05
-1.576740e-05
-2.303090e-05
-2.303140e-05
-1.576640e-05
-1.576670e-05
-2.303160e-05
-2.303190e-05
0.000000e+00
0.000000e+00
2.494320e-04
2.494310e-04
0.000000e+00
0.000000e+00
2.494370e-04
2.494280e-04
0.000000e+00
0.000000e+00
2.494310e-04
2.494300e-04
0.000000e+00
0.000000e+00
2.494280e-04
2.494340e-04
2.494320e-04
2.494310e-04
5.413270e-04
5.413340e-04
2.494370e-04
2.494280e-04
5.413290e-04
5.413310e-04
2.494310e-04
2.494300e-04
5.413340e-04
5.413310e-04
2.494280e-04
2.494340e-04
5.413310e-04
5.413300e-04
5.413270e-04
5.413340e-04
3.239670e-05
3.239300e-05
5.413290e-04
5.413310e-04
3.239020e-05
3.239620e-05
5.413340e-04
5.413310e-04
3.239300e-05