<?xml version="1.0"?>
<VTKFile type="UnstructuredGrid" version="0.1" byte_order="LittleEndian" compressor="vtkZLibDataCompressor">
<UnstructuredGrid>
<Piece NumberOfPoints="960" NumberOfCells="120">
<Points>
<DataArray type="Float32" NumberOfComponents="3" format="ascii">
-4.000000e+02 -6.000000e+03 -4.000000e+02
0.000000e+00 -6.000000e+03 -4.000000e+02
-4.000000e+02 -5.600000e+03 -4.000000e+02
3.363510e-10 -5.600000e+03 -4.000000e+02
-4.000000e+02 -6.000000e+03 0.000000e+00
0.000000e+00 -6.000000e+03 0.000000e+00
-4.000000e+02 -5.600000e+03 -1.196140e-10
-5.925840e-10 -5.600000e+03 6.126600e-10
0.000000e+00 -6.000000e+03 -4.000000e+02
4.000000e+02 -6.000000e+03 -4.000000e+02
3.363510e-10 -5.600000e+03 -4.000000e+02
4.000000e+02 -5.600000e+03 -4.000000e+02
0.000000e+00 -6.000000e+03 0.000000e+00
4.000000e+02 -6.000000e+03 0.000000e+00
-5.925840e-10 -5.600000e+03 6.126600e-10
4.000000e+02 -5.600000e+03 1.135600e-09
-4.000000e+02 -5.600000e+03 -4.000000e+02
3.363510e-10 -5.600000e+03 -4.000000e+02
-4.000000e+02 -5.200010e+03 -4.000000e+02
6.543100e-10 -5.200010e+03 -4.000000e+02
-4.000000e+02 -5.600000e+03 -1.196140e-10
-5.925840e-10 -5.600000e+03 6.126600e-10
-4.000000e+02 -5.200010e+03 -3.330540e-10
-4.626290e-11 -5.200010e+03 2.042520e-10
3.363510e-10 -5.600000e+03 -4.000000e+02
4.000000e+02 -5.600000e+03 -4.000000e+02
6.543100e-10 -5.200010e+03 -4.000000e+02
4.000000e+02 -5.200010e+03 -4.000000e+02
-5.925840e-10 -5.600000e+03 6.126600e-10
4.000000e+02 -5.600000e+03 1.135600e-09
-4.626290e-11 -5.200010e+03 2.042520e-10
4.000000e+02 -5.200010e+03 8.541010e-12
-4.000000e+02 -5.200010e+03 -4.000000e+02
6.543100e-10 -5.200010e+03 -4.000000e+02
-4.000000e+02 -4.800010e+03 -4.000000e+02
4.939140e-10 -4.800010e+03 -4.000000e+02
-4.000000e+02 -5.200010e+03 -3.330540e-10
-4.626290e-11 -5.200010e+03 2.042520e-10
-4.000000e+02 -4.800010e+03 -7.394440e-10
5.028100e-10 -4.800010e+03 9.548740e-10
6.543100e-10 -5.200010e+03 -4.000000e+02
4.000000e+02 -5.200010e+03 -4.000000e+02
4.939140e-10 -4.800010e+03 -4.000000e+02
4.000000e+02 -4.800010e+03 -4.000000e+02
-4.626290e-11 -5.200010e+03 2.042520e-10
4.000000e+02 -5.200010e+03 8.541010e-12
5.028100e-10 -4.800010e+03 9.548740e-10
4.000000e+02 -4.800010e+03 8.081020e-10
-4.000000e+02 -4.800010e+03 -4.000000e+02
4.939140e-10 -4.800010e+03 -4.000000e+02
-4.000000e+02 -4.400010e+03 -4.000000e+02
1.417010e-09 -4.400010e+03 -4.000000e+02
-4.000000e+02 -4.800010e+03 -7.394440e-10
5.028100e-10 -4.800010e+03 9.548740e-10
-4.000000e+02 -4.400010e+03 8.969790e-10
1.316450e-09 -4.400010e+03 8.322240e-10
4.939140e-10 -4.800010e+03 -4.000000e+02
4.000000e+02 -4.800010e+03 -4.000000e+02
1.417010e-09 -4.400010e+03 -4.000000e+02
4.000000e+02 -4.400010e+03 -4.000000e+02
5.028100e-10 -4.800010e+03 9.548740e-10
4.000000e+02 -4.800010e+03 8.081020e-10
1.316450e-09 -4.400010e+03 8.322240e-10
4.000000e+02 -4.400010e+03 8.460870e-10
-4.000000e+02 -4.400010e+03 -4.000000e+02
1.417010e-09 -4.400010e+03 -4.000000e+02
-4.000000e+02 -4.000020e+03 -4.000000e+02
1.546510e-09 -4.000020e+03 -4.000000e+02
-4.000000e+02 -4.400010e+03 8.969790e-10
1.316450e-09 -4.400010e+03 8.322240e-10
-4.000000e+02 -4.000020e+03 1.247520e-09
2.503520e-09 -4.000020e+03 1.201840e-09
1.417010e-09 -4.400010e+03 -4.000000e+02
4.000000e+02 -4.400010e+03 -4.000000e+02
1.546510e-09 -4.000020e+03 -4.000000e+02
4.000000e+02 -4.000020e+03 -4.000000e+02
1.316450e-09 -4.400010e+03 8.322240e-10
4.000000e+02 -4.400010e+03 8.460870e-10
2.503520e-09 -4.000020e+03 1.201840e-09
4.000000e+02 -4.000020e+03 1.978490e-09
-4.000000e+02 -4.000020e+03 -4.000000e+02
1.546510e-09 -4.000020e+03 -4.000000e+02
-4.000000e+02 -3.600020e+03 -4.000000e+02
1.882880e-09 -3.600020e+03 -4.000000e+02
-4.000000e+02 -4.000020e+03 1.247520e-09
2.503520e-09 -4.000020e+03 1.201840e-09
-4.000000e+02 -3.600020e+03 1.105780e-09
1.877400e-09 -3.600020e+03 1.229290e-09
1.546510e-09 -4.000020e+03 -4.000000e+02
4.000000e+02 -4.000020e+03 -4.000000e+02
1.882880e-09 -3.600020e+03 -4.000000e+02
4.000000e+02 -3.600020e+03 -4.000000e+02
2.503520e-09 -4.000020e+03 1.201840e-09
4.000000e+02 -4.000020e+03 1.978490e-09
1.877400e-09 -3.600020e+03 1.229290e-09
4.000000e+02 -3.600020e+03 1.651900e-09
-4.000000e+02 -3.600020e+03 -4.000000e+02
1.882880e-09 -3.600020e+03 -4.000000e+02
-4.000000e+02 -3.200040e+03 -4.000000e+02
2.734270e-09 -3.200040e+03 -4.000000e+02
-4.000000e+02 -3.600020e+03 1.105780e-09
1.877400e-09 -3.600020e+03 1.229290e-09
-4.000000e+02 -3.200040e+03 9.922520e-10
1.677600e-09 -3.200040e+03 8.824000e-10
1.882880e-09 -3.600020e+03 -4.000000e+02
4.000000e+02 -3.600020e+03 -4.000000e+02
2.734270e-09 -3.200040e+03 -4.000000e+02
4.000000e+02 -3.200040e+03 -4.000000e+02
1.877400e-09 -3.600020e+03 1.229290e-09
4.000000e+02 -3.600020e+03 1.651900e-09
1.677600e-09 -3.200040e+03 8.824000e-10
4.000000e+02 -3.200040e+03 1.745970e-09
-4.000000e+02 -3.200040e+03 -4.000000e+02
2.734270e-09 -3.200040e+03 -4.000000e+02
-4.000000e+02 -2.800060e+03 -4.000000e+02
2.769670e-09 -2.800060e+03 -4.000000e+02
-4.000000e+02 -3.200040e+03 9.922520e-10
1.677600e-09 -3.200040e+03 8.824000e-10
-4.000000e+02 -2.800060e+03 2.568920e-10
2.232200e-09 -2.800060e+03 8.321760e-10
2.734270e-09 -3.200040e+03 -4.000000e+02
4.000000e+02 -3.200040e+03 -4.000000e+02
2.769670e-09 -2.800060e+03 -4.000000e+02
4.000000e+02 -2.800060e+03 -4.000000e+02
1.677600e-09 -3.200040e+03 8.824000e-10
4.000000e+02 -3.200040e+03 1.745970e-09
2.232200e-09 -2.800060e+03 8.321760e-10
4.000000e+02 -2.800060e+03 1.076320e-09
-4.000000e+02 -2.800060e+03 -4.000000e+02
2.769670e-09 -2.800060e+03 -4.000000e+02
-4.000000e+02 -2.400110e+03 -4.000000e+02
3.506600e-09 -2.400110e+03 -4.000000e+02
-4.000000e+02 -2.800060e+03 2.568920e-10
2.232200e-09 -2.800060e+03 8.321760e-10
-4.000000e+02 -2.400110e+03 1.204490e-09
2.175460e-09 -2.400110e+03 1.337270e-09
2.769670e-09 -2.800060e+03 -4.000000e+02
4.000000e+02 -2.800060e+03 -4.000000e+02
3.506600e-09 -2.400110e+03 -4.000000e+02
4.000000e+02 -2.400110e+03 -4.000000e+02
2.232200e-09 -2.800060e+03 8.321760e-10
4.000000e+02 -2.800060e+03 1.076320e-09
2.175460e-09 -2.400110e+03 1.337270e-09
4.000000e+02 -2.400110e+03 9.234480e-10
-4.000000e+02 -2.400110e+03 -4.000000e+02
3.506600e-09 -2.400110e+03 -4.000000e+02
-4.000000e+02 -2.000160e+03 -4.000000e+02
1.477270e-09 -2.000160e+03 -4.000000e+02
-4.000000e+02 -2.400110e+03 1.204490e-09
2.175460e-09 -2.400110e+03 1.337270e-09
-4.000000e+02 -2.000160e+03 9.644110e-10
1.013530e-09 -2.000160e+03 1.182560e-09
3.506600e-09 -2.400110e+03 -4.000000e+02
4.000000e+02 -2.400110e+03 -4.000000e+02
1.477270e-09 -2.000160e+03 -4.000000e+02
4.000000e+02 -2.000160e+03 -4.000000e+02
2.175460e-09 -2.400110e+03 1.337270e-09
4.000000e+02 -2.400110e+03 9.234480e-10
1.013530e-09 -2.000160e+03 1.182560e-09
4.000000e+02 -2.000160e+03 2.172680e-09
-4.000000e+02 -2.000160e+03 -4.000000e+02
1.477270e-09 -2.000160e+03 -4.000000e+02
-4.000000e+02 -1.600230e+03 -4.000000e+02
4.585730e-10 -1.600230e+03 -4.000000e+02
-4.000000e+02 -2.000160e+03 9.644110e-10
1.013530e-09 -2.000160e+03 1.182560e-09
-4.000000e+02 -1.600230e+03 5.531830e-10
6.858800e-10 -1.600230e+03 7.636980e-10
1.477270e-09 -2.000160e+03 -4.000000e+02
4.000000e+02 -2.000160e+03 -4.000000e+02
4.585730e-10 -1.600230e+03 -4.000000e+02
4.000000e+02 -1.600230e+03 -4.000000e+02
1.013530e-09 -2.000160e+03 1.182560e-09
4.000000e+02 -2.000160e+03 2.172680e-09
6.858800e-10 -1.600230e+03 7.636980e-10
4.000000e+02 -1.600230e+03 1.143450e-09
-4.000000e+02 -1.600230e+03 -4.000000e+02
4.585730e-10 -1.600230e+03 -4.000000e+02
-4.000000e+02 -1.200290e+03 -4.000000e+02
1.092930e-09 -1.200290e+03 -4.000000e+02
-4.000000e+02 -1.600230e+03 5.531830e-10
6.858800e-10 -1.600230e+03 7.636980e-10
-4.000000e+02 -1.200290e+03 4.879660e-10
8.805090e-10 -1.200290e+03 5.405060e-10
4.585730e-10 -1.600230e+03 -4.000000e+02
4.000000e+02 -1.600230e+03 -4.000000e+02
1.092930e-09 -1.200290e+03 -4.000000e+02
4.000000e+02 -1.200290e+03 -4.000000e+02
6.858800e-10 -1.600230e+03 7.636980e-10
4.000000e+02 -1.600230e+03 1.143450e-09
8.805090e-10 -1.200290e+03 5.405060e-10
4.000000e+02 -1.200290e+03 9.330100e-10
-4.000000e+02 -1.200290e+03 -4.000000e+02
1.092930e-09 -1.200290e+03 -4.000000e+02
-4.000000e+02 -8.003210e+02 -4.000000e+02
1.082650e-09 -8.003210e+02 -4.000000e+02
-4.000000e+02 -1.200290e+03 4.879660e-10
8.805090e-10 -1.200290e+03 5.405060e-10
-4.000000e+02 -8.003210e+02 4.806030e-10
6.566970e-10 -8.003210e+02 -2.211110e-10
1.092930e-09 -1.200290e+03 -4.000000e+02
4.000000e+02 -1.200290e+03 -4.000000e+02
1.082650e-09 -8.003210e+02 -4.000000e+02
4.000000e+02 -8.003210e+02 -4.000000e+02
8.805090e-10 -1.200290e+03 5.405060e-10
4.000000e+02 -1.200290e+03 9.330100e-10
6.566970e-10 -8.003210e+02 -2.211110e-10
4.000000e+02 -8.003210e+02 1.736760e-10
-4.000000e+02 -8.003210e+02 -4.000000e+02
1.082650e-09 -8.003210e+02 -4.000000e+02
-4.000000e+02 -4.003070e+02 -4.000000e+02
9.656280e-10 -4.003070e+02 -4.000000e+02
-4.000000e+02 -8.003210e+02 4.806030e-10
6.566970e-10 -8.003210e+02 -2.211110e-10
-4.000000e+02 -4.003070e+02 -5.460310e-10
1.352090e-09 -4.003070e+02 -2.408560e-10
1.082650e-09 -8.003210e+02 -4.000000e+02
4.000000e+02 -8.003210e+02 -4.000000e+02
9.656280e-10 -4.003070e+02 -4.000000e+02
4.000000e+02 -4.003070e+02 -4.000000e+02
6.566970e-10 -8.003210e+02 -2.211110e-10
4.000000e+02 -8.003210e+02 1.736760e-10
1.352090e-09 -4.003070e+02 -2.408560e-10
4.000000e+02 -4.003070e+02 8.337090e-11
-4.000000e+02 -4.003070e+02 -4.000000e+02
9.656280e-10 -4.003070e+02 -4.000000e+02
-4.000000e+02 -2.759980e-01 -4.000000e+02
8.227420e-10 -2.759980e-01 -4.000000e+02
-4.000000e+02 -4.003070e+02 -5.460310e-10
1.352090e-09 -4.003070e+02 -2.408560e-10
-4.000000e+02 -2.759980e-01 -6.890510e-10
1.307670e-09 -2.759980e-01 -1.324110e-10
9.656280e-10 -4.003070e+02 -4.000000e+02
4.000000e+02 -4.003070e+02 -4.000000e+02
8.227420e-10 -2.759980e-01 -4.000000e+02
4.000000e+02 -2.759980e-01 -4.000000e+02
1.352090e-09 -4.003070e+02 -2.408560e-10
4.000000e+02 -4.003070e+02 8.337090e-11
[...]
<PointData>
<DataArray type="Float32" Name="V1" format="ascii">
0.000000e+00
0.000000e+00
-2.953720e-09
-9.030860e-11
0.000000e+00
0.000000e+00
-1.304030e-09
3.379560e-11
0.000000e+00
0.000000e+00
-9.030860e-11
9.112530e-10
0.000000e+00
0.000000e+00
3.379560e-11
2.828030e-10
-2.953720e-09
-9.030860e-11
-8.326970e-10
3.577860e-10
-1.304030e-09
3.379560e-11
2.199580e-10
-2.548900e-10
-9.030860e-11
9.112530e-10
3.577860e-10
5.498940e-10
3.379560e-11
2.828030e-10
-2.548900e-10
4.870490e-10
-8.326970e-10
3.577860e-10
-9.583870e-10
-9.656030e-10
2.199580e-10
-2.548900e-10
1.178340e-09
3.378680e-10
3.577860e-10
5.498940e-10
-9.656030e-10
-9.583870e-10
-2.548900e-10
4.870490e-10
3.378680e-10
1.272610e-09
-9.583870e-10
-9.656030e-10
-1.225480e-09
-8.772780e-12
1.178340e-09
3.378680e-10
2.828030e-10
-2.914050e-10
-9.656030e-10
-9.583870e-10
-8.772780e-12
1.099790e-10
3.378680e-10
1.272610e-09
-2.914050e-10
-7.070060e-10
-1.225480e-09
-8.772780e-12
3.613590e-10
9.146850e-10
2.828030e-10
-2.914050e-10
4.399150e-10
-2.122000e-10
-8.772780e-12
1.099790e-10
9.146850e-10
-4.084930e-10
-2.914050e-10
-7.070060e-10
-2.122000e-10
-6.441610e-10
3.613590e-10
9.146850e-10
1.272610e-09
1.362340e-10
4.399150e-10
-2.122000e-10
-7.855630e-11
7.341940e-10
9.146850e-10
-4.084930e-10
1.362340e-10
-2.199580e-10
-2.122000e-10
-6.441610e-10
7.341940e-10
1.146920e-09
1.272610e-09
1.362340e-10
6.912950e-10
6.364980e-10
-7.855630e-11
7.341940e-10
5.813160e-10
-3.121370e-10
1.362340e-10
-2.199580e-10
6.364980e-10
5.027600e-10
7.341940e-10
1.146920e-09
-3.121370e-10
2.670910e-10
6.912950e-10
6.364980e-10
1.162630e-09
1.571610e-10
5.813160e-10
-3.121370e-10
-1.256900e-09
-9.470560e-10
6.364980e-10
5.027600e-10
1.571610e-10
-2.419530e-09
-3.121370e-10
2.670910e-10
-9.470560e-10
-3.142250e-11
1.162630e-09
1.571610e-10
-4.242040e-10
-1.031380e-09
-1.256900e-09
-9.470560e-10
-8.484080e-10
5.474550e-10
1.571610e-10
-2.419530e-09
-1.031380e-09
6.284500e-10
-9.470560e-10
-3.142250e-11
5.474550e-10
5.184710e-10
-4.242040e-10
-1.031380e-09
1.319750e-09
3.722420e-10
-8.484080e-10
5.474550e-10
9.269640e-10
-2.899090e-10
-1.031380e-09
6.284500e-10
3.722420e-10
1.414010e-10
5.474550e-10
5.184710e-10
-2.899090e-10
-5.184710e-10
1.319750e-09
3.722420e-10
-2.356690e-10
1.411090e-10
9.269640e-10
-2.899090e-10
-3.299360e-10
-1.286410e-10
3.722420e-10
1.414010e-10
1.411090e-10
-1.021230e-09
-2.899090e-10
-5.184710e-10
-1.286410e-10
-1.335460e-09
-2.356690e-10
1.411090e-10
-5.813160e-10
-5.976620e-10
-3.299360e-10
-1.286410e-10
1.681100e-09
4.287710e-10
1.411090e-10
-1.021230e-09
-5.976620e-10
1.728240e-10
-1.286410e-10
-1.335460e-09
4.287710e-10
-2.042460e-10
-5.813160e-10
-5.976620e-10
1.256900e-10
4.392240e-10
1.681100e-09
4.287710e-10
5.184710e-10
-4.082140e-10
-5.976620e-10
1.728240e-10
4.392240e-10
4.242040e-10
4.287710e-10
-2.042460e-10
-4.082140e-10
-2.199580e-10
1.256900e-10
4.392240e-10
9.740980e-10
-1.304510e-10
5.184710e-10
-4.082140e-10
-1.476860e-09
-3.517810e-10
4.392240e-10
4.242040e-10
-1.304510e-10
3.770700e-10
-4.082140e-10
-2.199580e-10
-3.517810e-10
1.759660e-09
9.740980e-10
-1.304510e-10
-9.426750e-11
8.255170e-11
-1.476860e-09
-3.517810e-10
6.755840e-10
-1.952670e-10
-1.304510e-10
3.770700e-10
8.255170e-11
1.256900e-10
-3.517810e-10
1.759660e-09
-1.952670e-10
-4.084930e-10
-9.426750e-11
8.255170e-11
-7.698510e-10
-9.236180e-11
6.755840e-10
-1.952670e-10
0.000000e+00
-1.675090e-10
8.255170e-11
1.256900e-10
-9.236180e-11
1.885350e-09
-1.952670e-10
-4.084930e-10
-1.675090e-10
1.414010e-10
-7.698510e-10
-9.236180e-11
-1.272610e-09
-6.422130e-10
0.000000e+00
-1.675090e-10
4.084930e-10
3.177010e-10
-9.236180e-11
1.885350e-09
-6.422130e-10
-5.027600e-10
-1.675090e-10
1.414010e-10
3.177010e-10
-1.099790e-10
-1.272610e-09
-6.422130e-10
-1.351170e-09
-3.814620e-10
4.084930e-10
3.177010e-10
-8.012740e-10
-1.707020e-10
-6.422130e-10
-5.027600e-10
-3.814620e-10
-1.838220e-09
3.177010e-10
-1.099790e-10
-1.707020e-10
1.979620e-09
-1.351170e-09
-3.814620e-10
-2.372400e-09
6.576870e-10
-8.012740e-10
-1.707020e-10
2.953720e-09
-6.336730e-10
-3.814620e-10
-1.838220e-09
6.576870e-10
4.367730e-09
-1.707020e-10
1.979620e-09
-6.336730e-10
-4.320600e-09
-2.372400e-09
6.576870e-10
2.246710e-09
1.127030e-09
2.953720e-09
-6.336730e-10
9.426750e-10
-1.177730e-10
6.576870e-10
4.367730e-09
1.127030e-09
-9.426750e-11
-6.336730e-10
-4.320600e-09
-1.177730e-10
-1.178340e-09
2.246710e-09
1.127030e-09
-1.571130e-11
-1.361810e-10
9.426750e-10
-1.177730e-10
-5.970280e-10
5.324890e-10
1.127030e-09
-9.426750e-11
-1.361810e-10
-1.099790e-10
-1.177730e-10
-1.178340e-09
5.324890e-10
1.791080e-09
-1.571130e-11
-1.361810e-10
-7.965610e-09
-2.757070e-09
-5.970280e-10
5.324890e-10
2.042460e-10
2.207390e-12
-1.361810e-10
-1.099790e-10
-2.757070e-09
2.419530e-09
5.324890e-10
1.791080e-09
2.207390e-12
-1.414010e-10
-7.965610e-09
-2.757070e-09
1.571130e-10
-8.722240e-12
2.042460e-10
2.207390e-12
1.728240e-10
-1.752950e-10
-2.757070e-09
2.419530e-09
-8.722240e-12
-1.728240e-10
2.207390e-12
-1.414010e-10
-1.752950e-10
-5.027600e-10
1.571130e-10
-8.722240e-12
8.531210e-09
2.054970e-09
1.728240e-10
-1.752950e-10
-1.618260e-09
1.002180e-10
-8.722240e-12
-1.728240e-10
2.054970e-09
-4.414860e-09
-1.752950e-10
-5.027600e-10
1.002180e-10
1.885350e-09
8.531210e-09
2.054970e-09
-5.970280e-10
-7.107320e-12
-1.618260e-09
1.002180e-10
2.670910e-10
7.059800e-11
2.054970e-09
-4.414860e-09
-7.107320e-12
6.284500e-10
1.002180e-10
1.885350e-09
7.059800e-11
-1.256900e-10
-5.970280e-10
-7.107320e-12
-2.183860e-09
-3.264590e-10
2.670910e-10
7.059800e-11
6.284500e-10
9.968820e-11
-7.107320e-12
6.284500e-10
-3.264590e-10
1.555410e-09
7.059800e-11
-1.256900e-10
9.968820e-11
-3.770700e-10
-2.183860e-09
-3.264590e-10
3.299360e-10
1.093160e-10
6.284500e-10
9.968820e-11
0.000000e+00
-2.361530e-11
-3.264590e-10
1.555410e-09
1.093160e-10
-7.855630e-11
9.968820e-11
-3.770700e-10
-2.361530e-11
0.000000e+00
3.299360e-10
1.093160e-10
0.000000e+00
-1.929330e-11
0.000000e+00
-2.361530e-11
0.000000e+00
-1.551160e-11
1.093160e-10
-7.855630e-11
-1.929330e-11
0.000000e+00
-2.361530e-11
0.000000e+00
-1.551160e-11
0.000000e+00
0.000000e+00
-1.929330e-11
0.000000e+00
8.910010e-12
0.000000e+00
-1.551160e-11
0.000000e+00
1.161710e-11
-1.929330e-11
0.000000e+00
8.910010e-12
0.000000e+00
-1.551160e-11
0.000000e+00
1.161710e-11
0.000000e+00
0.000000e+00
8.910010e-12
0.000000e+00
-1.464540e-11
0.000000e+00
1.161710e-11
0.000000e+00
-1.882860e-11
8.910010e-12
0.000000e+00
-1.464540e-11
0.000000e+00
1.161710e-11
0.000000e+00
-1.882860e-11
0.000000e+00
0.000000e+00
0.000000e+00
-1.304030e-09
3.379560e-11
0.000000e+00
0.000000e+00
2.058170e-09
5.674470e-10
0.000000e+00
0.000000e+00
3.379560e-11
2.828030e-10
0.000000e+00
0.000000e+00
5.674470e-10
-7.227180e-10
-1.304030e-09
3.379560e-11
2.199580e-10
-2.548900e-10
2.058170e-09
5.674470e-10
-8.326970e-10
-9.977900e-11
3.379560e-11
2.828030e-10
-2.548900e-10
4.870490e-10
5.674470e-10
-7.227180e-10
-9.977900e-11
-1.084080e-09
2.199580e-10
-2.548900e-10
1.178340e-09
3.378680e-10
-8.326970e-10
-9.977900e-11
-5.498940e-10
-7.910010e-10
-2.548900e-10
4.870490e-10
3.378680e-10
1.272610e-09
-9.977900e-11
-1.084080e-09
-7.910010e-10
-5.813160e-10
1.178340e-09
3.378680e-10
2.828030e-10
-2.914050e-10
-5.498940e-10
-7.910010e-10
3.142250e-10
8.970140e-10
3.378680e-10
1.272610e-09
-2.914050e-10
-7.070060e-10
-7.910010e-10
-5.813160e-10
8.970140e-10
5.341830e-10
2.828030e-10
-2.914050e-10
4.399150e-10
-2.122000e-10
3.142250e-10
8.970140e-10
-2.199580e-09
8.684010e-10
-2.914050e-10
-7.070060e-10
-2.122000e-10
-6.441610e-10
8.970140e-10
5.341830e-10
8.684010e-10
1.571130e-09
4.399150e-10
-2.122000e-10
-7.855630e-11
7.341940e-10
-2.199580e-09
8.684010e-10
-2.670910e-10
-2.076390e-10
-2.122000e-10
-6.441610e-10
7.341940e-10
1.146920e-09
8.684010e-10
1.571130e-09
-2.076390e-10
4.556260e-10
-7.855630e-11
7.341940e-10
5.813160e-10
-3.121370e-10
-2.670910e-10
-2.076390e-10
-1.209770e-09
-6.946510e-10
7.341940e-10
1.146920e-09
-3.121370e-10
2.670910e-10
-2.076390e-10
4.556260e-10
-6.946510e-10
-8.169850e-10
5.813160e-10
-3.121370e-10
-1.256900e-09
-9.470560e-10
-1.209770e-09
-6.946510e-10
4.713380e-11
4.930070e-10
-3.121370e-10
2.670910e-10
-9.470560e-10
-3.142250e-11
-6.946510e-10
-8.169850e-10
4.930070e-10
1.492570e-09
-1.256900e-09
-9.470560e-10
-8.484080e-10
5.474550e-10
4.713380e-11
4.930070e-10
-1.131210e-09
-1.411490e-09
-9.470560e-10
-3.142250e-11
5.474550e-10
5.184710e-10
4.930070e-10
1.492570e-09
-1.411490e-09
-1.256900e-10
-8.484080e-10
5.474550e-10
9.269640e-10
-2.899090e-10
-1.131210e-09
-1.411490e-09
8.012740e-10
2.049190e-10
5.474550e-10
5.184710e-10
-2.899090e-10
-5.184710e-10
-1.411490e-09
-1.256900e-10
2.049190e-10
1.901060e-09
9.269640e-10
-2.899090e-10
-3.299360e-10
-1.286410e-10
8.012740e-10
2.049190e-10
1.885350e-10
4.612140e-10
-2.899090e-10
-5.184710e-10
-1.286410e-10
-1.335460e-09
2.049190e-10
1.901060e-09
4.612140e-10
-1.304030e-09
-3.299360e-10
-1.286410e-10
1.681100e-09
4.287710e-10
1.885350e-10
4.612140e-10
4.242040e-10
-5.458940e-11
-1.286410e-10
-1.335460e-09
4.287710e-10
-2.042460e-10
4.612140e-10
-1.304030e-09
-5.458940e-11
-1.319750e-09
1.681100e-09
4.287710e-10
5.184710e-10
-4.082140e-10
4.242040e-10
-5.458940e-11
-7.541400e-10
4.169670e-10
4.287710e-10
-2.042460e-10
-4.082140e-10
-2.199580e-10
-5.458940e-11
-1.319750e-09
4.169670e-10
1.351170e-09
5.184710e-10
-4.082140e-10
-1.476860e-09
-3.517810e-10
-7.541400e-10
4.169670e-10
1.256900e-09
-2.867410e-10
-4.082140e-10
-2.199580e-10
-3.517810e-10
1.759660e-09
4.169670e-10
1.351170e-09
-2.867410e-10
1.162630e-09
-1.476860e-09
-3.517810e-10
6.755840e-10
-1.952670e-10
1.256900e-09
-2.867410e-10
1.351170e-09
9.847140e-10
-3.517810e-10
1.759660e-09
-1.952670e-10
-4.084930e-10
-2.867410e-10
1.162630e-09
9.847140e-10
1.822510e-09
6.755840e-10
-1.952670e-10
0.000000e+00
-1.675090e-10
1.351170e-09
9.847140e-10
2.828030e-10
3.975300e-10
-1.952670e-10
-4.084930e-10
-1.675090e-10
1.414010e-10
9.847140e-10
1.822510e-09
3.975300e-10
-1.256900e-10
0.000000e+00
-1.675090e-10
4.084930e-10
3.177010e-10
2.828030e-10
3.975300e-10
1.209770e-09
-1.068370e-09
-1.675090e-10
1.414010e-10
3.177010e-10
-1.099790e-10
3.975300e-10
-1.256900e-10
-1.068370e-09
-6.912950e-10
4.084930e-10
3.177010e-10
-8.012740e-10
-1.707020e-10
1.209770e-09
-1.068370e-09
-9.112530e-10
3.482280e-10
3.177010e-10
-1.099790e-10
-1.707020e-10
1.979620e-09
-1.068370e-09
-6.912950e-10
3.482280e-10
-1.571130e-10
-8.012740e-10
-1.707020e-10
2.953720e-09
-6.336730e-10
-9.112530e-10
3.482280e-10
-4.304880e-09
-1.722430e-09
-1.707020e-10
1.979620e-09
-6.336730e-10
-4.320600e-09
3.482280e-10
-1.571130e-10
-1.722430e-09
1.665390e-09
2.953720e-09
-6.336730e-10
9.426750e-10
-1.177730e-10
-4.304880e-09
-1.722430e-09
-1.319750e-09
-1.280860e-09
-6.336730e-10
-4.320600e-09
-1.177730e-10
-1.178340e-09
-1.722430e-09
1.665390e-09
-1.280860e-09
-8.798300e-10
9.426750e-10
-1.177730e-10
-5.970280e-10
5.324890e-10
-1.319750e-09
-1.280860e-09
1.555410e-09
1.230410e-09
-1.177730e-10
-1.178340e-09
5.324890e-10
1.791080e-09
-1.280860e-09
-8.798300e-10
1.230410e-09
9.740980e-10
-5.970280e-10
5.324890e-10
2.042460e-10
2.207390e-12
1.555410e-09
1.230410e-09
1.288320e-09
2.856250e-09
5.324890e-10
1.791080e-09
2.207390e-12
-1.414010e-10
1.230410e-09
9.740980e-10
2.856250e-09
4.509130e-09
2.042460e-10
2.207390e-12
1.728240e-10
-1.752950e-10
1.288320e-09
2.856250e-09
-7.070060e-10
-6.724720e-10
2.207390e-12
-1.414010e-10
-1.752950e-10
-5.027600e-10
2.856250e-09
4.509130e-09
-6.724720e-10
-5.813160e-10
1.728240e-10
-1.752950e-10
-1.618260e-09
1.002180e-10
-7.070060e-10
-6.724720e-10
3.927810e-10
-2.474100e-09
-1.752950e-10
-5.027600e-10
1.002180e-10
1.885350e-09
-6.724720e-10
-5.813160e-10
-2.474100e-09
-5.278980e-09
-1.618260e-09
1.002180e-10
2.670910e-10
7.059800e-11
3.927810e-10
-2.474100e-09
0.000000e+00
2.627520e-10
1.002180e-10
1.885350e-09
7.059800e-11
-1.256900e-10
-2.474100e-09
-5.278980e-09
2.627520e-10
4.870490e-10
2.670910e-10
7.059800e-11
6.284500e-10
9.968820e-11
0.000000e+00
2.627520e-10
0.000000e+00
7.601870e-10
7.059800e-11
-1.256900e-10
9.968820e-11
-3.770700e-10
2.627520e-10
4.870490e-10
7.601870e-10
1.445440e-09
6.284500e-10
9.968820e-11
0.000000e+00
-2.361530e-11
0.000000e+00
7.601870e-10
-1.885350e-10
-1.846570e-10
9.968820e-11
-3.770700e-10
-2.361530e-11
0.000000e+00
7.601870e-10
1.445440e-09
-1.846570e-10
-1.885350e-10
0.000000e+00
-2.361530e-11
0.000000e+00
-1.551160e-11
-1.885350e-10
-1.846570e-10
0.000000e+00
-7.502380e-12
-2.361530e-11
0.000000e+00
-1.551160e-11
0.000000e+00
-1.846570e-10
-1.885350e-10
-7.502380e-12
0.000000e+00
0.000000e+00
-1.551160e-11
0.000000e+00
1.161710e-11
0.000000e+00
-7.502380e-12
0.000000e+00
9.119310e-12
-1.551160e-11
0.000000e+00
1.161710e-11
0.000000e+00
-7.502380e-12
0.000000e+00
9.119310e-12
0.000000e+00
0.000000e+00
1.161710e-11
0.000000e+00
-1.882860e-11
0.000000e+00
9.119310e-12
0.000000e+00
-1.829120e-11
1.161710e-11
0.000000e+00
-1.882860e-11
0.000000e+00
9.119310e-12
0.000000e+00
-1.829120e-11
0.000000e+00
</DataArray>
<DataArray type="Float32" Name="V2" format="ascii">
0.000000e+00
0.000000e+00
3.593430e-04
3.593440e-04
0.000000e+00
0.000000e+00
3.593420e-04
3.593440e-04
0.000000e+00
0.000000e+00
3.593440e-04
3.593430e-04
0.000000e+00
0.000000e+00
3.593440e-04
3.593430e-04
3.593430e-04
3.593440e-04
6.446120e-04
6.446160e-04
3.593420e-04
3.593440e-04
6.446090e-04
6.446130e-04
3.593440e-04
3.593430e-04
6.446160e-04
6.446110e-04
3.593440e-04
3.593430e-04
6.446130e-04
6.446120e-04
6.446120e-04
6.446160e-04
1.514100e-03
1.514110e-03
6.446090e-04
6.446130e-04
1.514110e-03
1.514110e-03
6.446160e-04
6.446110e-04
1.514110e-03
1.514110e-03
6.446130e-04
6.446120e-04
1.514110e-03
1.514110e-03
1.514100e-03
1.514110e-03
1.358600e-03
1.358600e-03
1.514110e-03
1.514110e-03
1.358590e-03
1.358600e-03
1.514110e-03
1.514110e-03
1.358600e-03
1.358590e-03
1.514110e-03
1.514110e-03
1.358600e-03
1.358600e-03
1.358600e-03
1.358600e-03
3.564190e-03
3.564190e-03
1.358590e-03
1.358600e-03
3.564190e-03
3.564190e-03
1.358600e-03
1.358590e-03
3.564190e-03
3.564190e-03
1.358600e-03
1.358600e-03
3.564190e-03
3.564190e-03
3.564190e-03
3.564190e-03
6.253910e-03
6.253910e-03
3.564190e-03
3.564190e-03
6.253910e-03
6.253910e-03
3.564190e-03
3.564190e-03
6.253910e-03
6.253910e-03
3.564190e-03
3.564190e-03
6.253910e-03
6.253910e-03
6.253910e-03
6.253910e-03
1.194520e-02
1.194520e-02
6.253910e-03
6.253910e-03
1.194520e-02
1.194520e-02
6.253910e-03
6.253910e-03
1.194520e-02
1.194520e-02
6.253910e-03
6.253910e-03
1.194520e-02
1.194520e-02
1.194520e-02
1.194520e-02
2.176100e-02
2.176100e-02
1.194520e-02
1.194520e-02
2.176100e-02
2.176100e-02
1.194520e-02
1.194520e-02
2.176100e-02
2.176100e-02
1.194520e-02
1.194520e-02
2.176100e-02
2.176100e-02
2.176100e-02
2.176100e-02
3.423870e-02
3.423870e-02
2.176100e-02
2.176100e-02
3.423870e-02
3.423870e-02
2.176100e-02
2.176100e-02
3.423870e-02
3.423870e-02
2.176100e-02
2.176100e-02
3.423870e-02
3.423870e-02
3.423870e-02
3.423870e-02
4.576330e-02
4.576330e-02
3.423870e-02
3.423870e-02
4.576330e-02
4.576330e-02
3.423870e-02
3.423870e-02
4.576330e-02
4.576330e-02
3.423870e-02
3.423870e-02
4.576330e-02
4.576330e-02
4.576330e-02
4.576330e-02
4.672640e-02
4.672640e-02
4.576330e-02
4.576330e-02
4.672640e-02
4.672640e-02
4.576330e-02
4.576330e-02
4.672640e-02
4.672640e-02
4.576330e-02
4.576330e-02
4.672640e-02
4.672640e-02
4.672640e-02
4.672640e-02
3.229260e-02
3.229260e-02
4.672640e-02
4.672640e-02
3.229260e-02
3.229260e-02
4.672640e-02
4.672640e-02
3.229260e-02
3.229260e-02
4.672640e-02
4.672640e-02
3.229260e-02
3.229260e-02
3.229260e-02
3.229260e-02
3.250550e-03
3.250550e-03
3.229260e-02
3.229260e-02
3.250550e-03
3.250550e-03
3.229260e-02
3.229260e-02
3.250550e-03
3.250550e-03
3.229260e-02
3.229260e-02
3.250550e-03
3.250550e-03
3.250550e-03
3.250550e-03
-2.172260e-02
-2.172260e-02
3.250550e-03
3.250550e-03
-2.172260e-02
-2.172260e-02
3.250550e-03
3.250550e-03
-2.172260e-02
-2.172250e-02
3.250550e-03
3.250550e-03
-2.172260e-02
-2.172260e-02
-2.172260e-02
-2.172260e-02
-2.050640e-02
-2.050640e-02
-2.172260e-02
-2.172260e-02
-2.050640e-02
-2.050640e-02
-2.172260e-02
-2.172250e-02
-2.050640e-02
-2.050640e-02
-2.172260e-02
-2.172260e-02
-2.050640e-02
-2.050640e-02
-2.050640e-02
-2.050640e-02
6.607400e-04
6.607420e-04
-2.050640e-02
-2.050640e-02
6.607410e-04
6.607410e-04
-2.050640e-02
-2.050640e-02
6.607420e-04
6.607380e-04
-2.050640e-02
-2.050640e-02
6.607410e-04
6.607420e-04
6.607400e-04
6.607420e-04
1.657670e-02
1.657670e-02
6.607410e-04
6.607410e-04
1.657670e-02
1.657670e-02
6.607420e-04
6.607380e-04
1.657670e-02
1.657670e-02
6.607410e-04
6.607420e-04
1.657670e-02
1.657670e-02
1.657670e-02
1.657670e-02
4.270420e-03
4.270430e-03
1.657670e-02
1.657670e-02
4.270430e-03
4.270420e-03
1.657670e-02
1.657670e-02
4.270430e-03
4.270420e-03
1.657670e-02
1.657670e-02
4.270420e-03
4.270430e-03
4.270420e-03
4.270430e-03
-1.183510e-02
-1.183510e-02
4.270430e-03
4.270420e-03
-1.183510e-02
-1.183510e-02
4.270430e-03
4.270420e-03
-1.183510e-02
-1.183510e-02
4.270420e-03
4.270430e-03
-1.183510e-02
-1.183510e-02
-1.183510e-02
-1.183510e-02
-1.742640e-03
-1.742580e-03
-1.183510e-02
-1.183510e-02
-1.742590e-03
-1.742630e-03
-1.183510e-02
-1.183510e-02
-1.742580e-03
-1.742630e-03
-1.183510e-02
-1.183510e-02
-1.742630e-03
-1.742590e-03
-1.742640e-03
-1.742580e-03
6.259250e-03
6.259110e-03
-1.742590e-03
-1.742630e-03
6.259150e-03
6.259230e-03
-1.742580e-03
-1.742630e-03
6.259110e-03
6.259230e-03
-1.742630e-03
-1.742590e-03
6.259230e-03
6.259140e-03
6.259250e-03
6.259110e-03
-9.610820e-04
-9.609720e-04
6.259150e-03
6.259230e-03
-9.609970e-04
-9.610730e-04
6.259110e-03
6.259230e-03
-9.609720e-04
-9.610720e-04
6.259230e-03
6.259140e-03
-9.610730e-04
-9.609940e-04
-9.610820e-04
-9.609720e-04
-1.841240e-03
-1.841260e-03
-9.609970e-04
-9.610730e-04
-1.841250e-03
-1.841250e-03
-9.609720e-04
-9.610720e-04
-1.841260e-03
-1.841250e-03
-9.610730e-04
-9.609940e-04
-1.841250e-03
-1.841260e-03
-1.841240e-03
-1.841260e-03
8.347630e-04
8.347380e-04
-1.841250e-03
-1.841250e-03
8.347480e-04
8.347510e-04
-1.841260e-03
-1.841250e-03
8.347380e-04
8.347430e-04
-1.841250e-03
-1.841260e-03
8.347510e-04
8.347470e-04
8.347630e-04
8.347380e-04
3.572150e-04
3.572180e-04
8.347480e-04
8.347510e-04
3.572150e-04
3.572230e-04
8.347380e-04
8.347430e-04
3.572180e-04
3.572300e-04
8.347510e-04
8.347470e-04
3.572230e-04
3.572140e-04
3.572150e-04
3.572180e-04
-1.305770e-04
-1.305690e-04
3.572150e-04
3.572230e-04
-1.305740e-04
-1.305740e-04
3.572180e-04
3.572300e-04
-1.305690e-04
-1.305710e-04
3.572230e-04
3.572140e-04
-1.305740e-04
-1.305730e-04
-1.305770e-04
-1.305690e-04
7.561750e-05
7.561630e-05
-1.305740e-04
-1.305740e-04
7.561610e-05
7.561590e-05
-1.305690e-04
-1.305710e-04
7.561630e-05
7.561600e-05
-1.305740e-04
-1.305730e-04
7.561590e-05
7.561630e-05
7.561750e-05
7.561630e-05
1.265730e-04
1.265720e-04
7.561610e-05
7.561590e-05
1.265730e-04
1.265720e-04
7.561630e-05
7.561600e-05
1.265720e-04
1.265720e-04
7.561590e-05
7.561630e-05
1.265720e-04
1.265720e-04
1.265730e-04
1.265720e-04
5.699310e-05
5.699300e-05
1.265730e-04
1.265720e-04
5.699330e-05
5.699340e-05
1.265720e-04
1.265720e-04
5.699300e-05
5.699280e-05
1.265720e-04
1.265720e-04
5.699340e-05
5.699290e-05
5.699310e-05
5.699300e-05
-6.500550e-05
-6.500420e-05
5.699330e-05
5.699340e-05
-6.500730e-05
-6.500580e-05
5.699300e-05
5.699280e-05
-6.500420e-05
-6.500370e-05
5.699340e-05
5.699290e-05
-6.500580e-05
-6.500420e-05
0.000000e+00
0.000000e+00
3.593420e-04
3.593440e-04
0.000000e+00
0.000000e+00
3.593390e-04
3.593440e-04
0.000000e+00
0.000000e+00
3.593440e-04
3.593430e-04
0.000000e+00
0.000000e+00
3.593440e-04
3.593370e-04
3.593420e-04
3.593440e-04
6.446090e-04
6.446130e-04
3.593390e-04
3.593440e-04
6.446150e-04
6.446110e-04
3.593440e-04
3.593430e-04
6.446130e-04
6.446120e-04
3.593440e-04
3.593370e-04
6.446110e-04
6.446110e-04
6.446090e-04
6.446130e-04
1.514110e-03
1.514110e-03
6.446150e-04
6.446110e-04
1.514100e-03
1.514110e-03
6.446130e-04
6.446120e-04
1.514110e-03