<?xml version="1.0"?>
<!-- time 41.4076-->
<VTKFile type="UnstructuredGrid" version="0.1" byte_order="LittleEndian">
<UnstructuredGrid>
<Piece NumberOfPoints="3240" NumberOfCells="0">
<Points>
  <DataArray type="Float32" Name="Position" NumberOfComponents="3" format="ascii">
	-333.333 2066.65 -333.333
	-333.333 2066.65 -200
	-333.333 2066.65 -66.6667
	-333.333 2066.65 66.6667
	-333.333 2066.65 200
	-333.333 2066.65 333.333
	-200 2066.65 -333.333
	-200 2066.65 -200
	-200 2066.65 -66.6667
	-200 2066.65 66.6667
	-200 2066.65 200
	-200 2066.65 333.333
	-66.6667 2066.65 -333.333
	-66.6667 2066.65 -200
	-66.6667 2066.65 -66.6667
	-66.6667 2066.65 66.6667
	-66.6667 2066.65 200
	-66.6667 2066.65 333.333
	66.6667 2066.65 -333.333
	66.6667 2066.65 -200
	66.6667 2066.65 -66.6667
	66.6667 2066.65 66.6667
	66.6667 2066.65 200
	66.6667 2066.65 333.333
	200 2066.65 -333.333
	200 2066.65 -200
	200 2066.65 -66.6667
	200 2066.65 66.6667
	200 2066.65 200
	200 2066.65 333.333
	333.333 2066.65 -333.333
	333.333 2066.65 -200
	333.333 2066.65 -66.6667
	333.333 2066.65 66.6667
	333.333 2066.65 200
	333.333 2066.65 333.333
	-333.333 2199.97 -333.333
	-333.333 2199.97 -200
	-333.333 2199.97 -66.6667
	-333.333 2199.97 66.6667
	-333.333 2199.97 200
	-333.333 2199.97 333.333
	-200 2199.97 -333.333
	-200 2199.97 -200
	-200 2199.97 -66.6667
	-200 2199.97 66.6667
	-200 2199.97 200
	-200 2199.97 333.333
	-66.6667 2199.97 -333.333
	-66.6667 2199.97 -200
	-66.6667 2199.97 -66.6667
	-66.6667 2199.97 66.6667
	-66.6667 2199.97 200
	-66.6667 2199.97 333.333
	66.6667 2199.97 -333.333
	66.6667 2199.97 -200
	66.6667 2199.97 -66.6667
	66.6667 2199.97 66.6667
	66.6667 2199.97 200
	66.6667 2199.97 333.333
	200 2199.97 -333.333
	200 2199.97 -200
	200 2199.97 -66.6667
	200 2199.97 66.6667
	200 2199.97 200
	200 2199.97 333.333
	333.333 2199.97 -333.333
	333.333 2199.97 -200
	333.333 2199.97 -66.6667
	333.333 2199.97 66.6667
	333.333 2199.97 200
	333.333 2199.97 333.333
	-333.333 2333.28 -333.333
	-333.333 2333.28 -200
	-333.333 2333.28 -66.6667
	-333.333 2333.28 66.6667
	-333.333 2333.28 200
	-333.333 2333.28 333.333
	-200 2333.28 -333.333
	-200 2333.28 -200
	-200 2333.28 -66.6667
	-200 2333.28 66.6667
	-200 2333.28 200
	-200 2333.28 333.333
	-66.6667 2333.28 -333.333
	-66.6667 2333.28 -200
	-66.6667 2333.28 -66.6667
	-66.6667 2333.28 66.6667
	-66.6667 2333.28 200
	-66.6667 2333.28 333.333
	66.6667 2333.28 -333.333
	66.6667 2333.28 -200
	66.6667 2333.28 -66.6667
	66.6667 2333.28 66.6667
	66.6667 2333.28 200
	66.6667 2333.28 333.333
	200 2333.28 -333.333
	200 2333.28 -200
	200 2333.28 -66.6667
	200 2333.28 66.6667
	200 2333.28 200
	200 2333.28 333.333
	333.333 2333.28 -333.333
	333.333 2333.28 -200
	333.333 2333.28 -66.6667
	333.333 2333.28 66.6667
	333.333 2333.28 200
	333.333 2333.28 333.333
	-333.333 2466.6 -333.333
	-333.333 2466.6 -200
	-333.333 2466.6 -66.6667
	-333.333 2466.6 66.6667
	-333.333 2466.6 200
	-333.333 2466.6 333.333
	-200 2466.6 -333.333
	-200 2466.6 -200
	-200 2466.6 -66.6667
	-200 2466.6 66.6667
	-200 2466.6 200
	-200 2466.6 333.333
	-66.6667 2466.6 -333.333
	-66.6667 2466.6 -200
	-66.6667 2466.6 -66.6667
	-66.6667 2466.6 66.6667
	-66.6667 2466.6 200
	-66.6667 2466.6 333.333
	66.6667 2466.6 -333.333
	66.6667 2466.6 -200
	66.6667 2466.6 -66.6667
	66.6667 2466.6 66.6667
	66.6667 2466.6 200
	66.6667 2466.6 333.333
	200 2466.6 -333.333
	200 2466.6 -200
	200 2466.6 -66.6667
	200 2466.6 66.6667
	200 2466.6 200
	200 2466.6 333.333
	333.333 2466.6 -333.333
	333.333 2466.6 -200
	333.333 2466.6 -66.6667
	333.333 2466.6 66.6667
	333.333 2466.6 200
	333.333 2466.6 333.333
	-333.333 2599.91 -333.333
	-333.333 2599.91 -200
	-333.333 2599.91 -66.6667
	-333.333 2599.91 66.6667
	-333.333 2599.91 200
	-333.333 2599.91 333.333
	-200 2599.91 -333.333
	-200 2599.91 -200
	-200 2599.91 -66.6667
	-200 2599.91 66.6667
	-200 2599.91 200
	-200 2599.91 333.333
	-66.6667 2599.91 -333.333
	-66.6667 2599.91 -200
	-66.6667 2599.91 -66.6667
	-66.6667 2599.91 66.6667
	-66.6667 2599.91 200
	-66.6667 2599.91 333.333
	66.6667 2599.91 -333.333
	66.6667 2599.91 -200
	66.6667 2599.91 -66.6667
	66.6667 2599.91 66.6667
	66.6667 2599.91 200
	66.6667 2599.91 333.333
	200 2599.91 -333.333
	200 2599.91 -200
	200 2599.91 -66.6667
	200 2599.91 66.6667
	200 2599.91 200
	200 2599.91 333.333
	333.333 2599.91 -333.333
	333.333 2599.91 -200
	333.333 2599.91 -66.6667
	333.333 2599.91 66.6667
	333.333 2599.91 200
	333.333 2599.91 333.333
	-333.333 2733.21 -333.333
	-333.333 2733.21 -200
	-333.333 2733.21 -66.6667
	-333.333 2733.21 66.6667
	-333.333 2733.21 200
	-333.333 2733.21 333.333
	-200 2733.21 -333.333
	-200 2733.21 -200
	-200 2733.21 -66.6667
	-200 2733.21 66.6667
	-200 2733.21 200
	-200 2733.21 333.333
	-66.6667 2733.21 -333.333
	-66.6667 2733.21 -200
	-66.6667 2733.21 -66.6667
	-66.6667 2733.21 66.6667
	-66.6667 2733.21 200
	-66.6667 2733.21 333.333
	66.6667 2733.21 -333.333
	66.6667 2733.21 -200
	66.6667 2733.21 -66.6667
	66.6667 2733.21 66.6667
	66.6667 2733.21 200
	66.6667 2733.21 333.333
	200 2733.21 -333.333
	200 2733.21 -200
	200 2733.21 -66.6667
	200 2733.21 66.6667
	200 2733.21 200
	200 2733.21 333.333
	333.333 2733.21 -333.333
	333.333 2733.21 -200
	333.333 2733.21 -66.6667
	333.333 2733.21 66.6667
	333.333 2733.21 200
	333.333 2733.21 333.333
	-333.333 2866.51 -333.333
	-333.333 2866.51 -200
	-333.333 2866.51 -66.6667
	-333.333 2866.51 66.6667
	-333.333 2866.51 200
	-333.333 2866.51 333.333
	-200 2866.51 -333.333
	-200 2866.51 -200
	-200 2866.51 -66.6667
	-200 2866.51 66.6667
	-200 2866.51 200
	-200 2866.51 333.333
	-66.6667 2866.51 -333.333
	-66.6667 2866.51 -200
	-66.6667 2866.51 -66.6667
	-66.6667 2866.51 66.6667
	-66.6667 2866.51 200
	-66.6667 2866.51 333.333
	66.6667 2866.51 -333.333
	66.6667 2866.51 -200
	66.6667 2866.51 -66.6667
	66.6667 2866.51 66.6667
	66.6667 2866.51 200
	66.6667 2866.51 333.333
	200 2866.51 -333.333
	200 2866.51 -200
	200 2866.51 -66.6667
	200 2866.51 66.6667
	200 2866.51 200
	200 2866.51 333.333
	333.333 2866.51 -333.333
	333.333 2866.51 -200
	333.333 2866.51 -66.6667
	333.333 2866.51 66.6667
	333.333 2866.51 200
	333.333 2866.51 333.333
	-333.333 2999.81 -333.333
	-333.333 2999.81 -200
	-333.333 2999.81 -66.6667
	-333.333 2999.81 66.6667
	-333.333 2999.81 200
	-333.333 2999.81 333.333
	-200 2999.81 -333.333
	-200 2999.81 -200
	-200 2999.81 -66.6667
	-200 2999.81 66.6667
	-200 2999.81 200
	-200 2999.81 333.333
	-66.6667 2999.81 -333.333
	-66.6667 2999.81 -200
	-66.6667 2999.81 -66.6667
	-66.6667 2999.81 66.6667
	-66.6667 2999.81 200
	-66.6667 2999.81 333.333
	66.6667 2999.81 -333.333
	66.6667 2999.81 -200
	66.6667 2999.81 -66.6667
	66.6667 2999.81 66.6667
	66.6667 2999.81 200
	66.6667 2999.81 333.333
	200 2999.81 -333.333
	200 2999.81 -200
	200 2999.81 -66.6667
	200 2999.81 66.6667
	200 2999.81 200
	200 2999.81 333.333
	333.333 2999.81 -333.333
	333.333 2999.81 -200
	333.333 2999.81 -66.6667
	333.333 2999.81 66.6667
	333.333 2999.81 200
	333.333 2999.81 333.333
	-333.333 3133.12 -333.333
	-333.333 3133.12 -200
	-333.333 3133.12 -66.6667
	-333.333 3133.12 66.6667
	-333.333 3133.12 200
	-333.333 3133.12 333.333
	-200 3133.12 -333.333
	-200 3133.12 -200
	-200 3133.12 -66.6667
	-200 3133.12 66.6667
	-200 3133.12 200
	-200 3133.12 333.333
	-66.6667 3133.12 -333.333
	-66.6667 3133.12 -200
	-66.6667 3133.12 -66.6667
	-66.6667 3133.12 66.6667
	-66.6667 3133.12 200
	-66.6667 3133.12 333.333
	66.6667 3133.12 -333.333
	66.6667 3133.12 -200
	66.6667 3133.12 -66.6667
	66.6667 3133.12 66.6667
	66.6667 3133.12 200
	66.6667 3133.12 333.333
	200 3133.12 -333.333
	200 3133.12 -200
	200 3133.12 -66.6667
	200 3133.12 66.6667
	200 3133.12 200
	200 3133.12 333.333
	333.333 3133.12 -333.333
	333.333 3133.12 -200
	333.333 3133.12 -66.6667
	333.333 3133.12 66.6667
	333.333 3133.12 200
	333.333 3133.12 333.333
	-333.333 3266.42 -333.333
	-333.333 3266.42 -200
	-333.333 3266.42 -66.6667
	-333.333 3266.42 66.6667
	-333.333 3266.42 200
	-333.333 3266.42 333.333
	-200 3266.42 -333.333
	-200 3266.42 -200
	-200 3266.42 -66.6667
	-200 3266.42 66.6667
	-200 3266.42 200
	-200 3266.42 333.333
	-66.6667 3266.42 -333.333
	-66.6667 3266.42 -200
	-66.6667 3266.42 -66.6667
	-66.6667 3266.42 66.6667
	-66.6667 3266.42 200
	-66.6667 3266.42 333.333
	66.6667 3266.42 -333.333
	66.6667 3266.42 -200
	66.6667 3266.42 -66.6667
	66.6667 3266.42 66.6667
	66.6667 3266.42 200
	66.6667 3266.42 333.333
	200 3266.42 -333.333
	200 3266.42 -200
	200 3266.42 -66.6667
	200 3266.42 66.6667
	200 3266.42 200
	200 3266.42 333.333
	333.333 3266.42 -333.333
	333.333 3266.42 -200
	333.333 3266.42 -66.6667
	333.333 3266.42 66.6667
	333.333 3266.42 200
	333.333 3266.42 333.333
	-333.333 3399.74 -333.333
	-333.333 3399.74 -200
	-333.333 3399.74 -66.6667
	-333.333 3399.74 66.6667
	-333.333 3399.74 200
	-333.333 3399.74 333.333
	-200 3399.74 -333.333
	-200 3399.74 -200
	-200 3399.74 -66.6667
	-200 3399.74 66.6667
	-200 3399.74 200
	-200 3399.74 333.333
	-66.6667 3399.74 -333.333
	-66.6667 3399.74 -200
	-66.6667 3399.74 -66.6667
	-66.6667 3399.74 66.6667
	-66.6667 3399.74 200
	-66.6667 3399.74 333.333
	66.6667 3399.74 -333.333
	66.6667 3399.74 -200
	66.6667 3399.74 -66.6667
	66.6667 3399.74 66.6667
	66.6667 3399.74 200
	66.6667 3399.74 333.333
	200 3399.74 -333.333
	200 3399.74 -200
	200 3399.74 -66.6667
	200 3399.74 66.6667
	200 3399.74 200
	200 3399.74 333.333
	333.333 3399.74 -333.333
	333.333 3399.74 -200
	333.333 3399.74 -66.6667
	333.333 3399.74 66.6667
	333.333 3399.74 200
	333.333 3399.74 333.333
	-333.333 3533.06 -333.333
	-333.333 3533.06 -200
	-333.333 3533.06 -66.6667
	-333.333 3533.06 66.6667
	-333.333 3533.06 200
	-333.333 3533.06 333.333
	-200 3533.06 -333.333
	-200 3533.06 -200
	-200 3533.06 -66.6667
	-200 3533.06 66.6667
	-200 3533.06 200
	-200 3533.06 333.333
	-66.6667 3533.06 -333.333
	-66.6667 3533.06 -200
	-66.6667 3533.06 -66.6667
	-66.6667 3533.06 66.6667
	-66.6667 3533.06 200
	-66.6667 3533.06 333.333
	66.6667 3533.06 -333.333
	66.6667 3533.06 -200
	66.6667 3533.06 -66.6667
[...]
<PointData  Vectors="vector">
  <DataArray type="Float32" Name="Velocity" NumberOfComponents="3" format="ascii">
 -1.44748e-11 -0.0232446 -1.55419e-12
 -8.99762e-12 -0.0232446 2.05828e-11
 -9.22812e-12 -0.0232446 1.67002e-11
 -8.69525e-12 -0.0232446 5.51025e-12
 -1.71134e-11 -0.0232446 3.10976e-11
 -1.88177e-11 -0.0232446 -2.42002e-12
 1.98362e-12 -0.0232446 -3.56903e-12
 7.71323e-12 -0.0232446 7.64537e-12
 1.70818e-11 -0.0232446 -1.43886e-11
 1.37233e-11 -0.0232446 -1.31877e-11
 9.28953e-12 -0.0232446 1.00761e-11
 -6.56757e-13 -0.0232446 -9.25216e-12
 -6.997e-11 -0.0232446 -1.09369e-11
 -4.27449e-11 -0.0232446 -6.71902e-12
 -6.02869e-12 -0.0232446 -4.25204e-11
 -1.40668e-11 -0.0232446 -3.55091e-11
 -3.42422e-11 -0.0232446 -6.15789e-12
 -8.12081e-11 -0.0232446 -1.34327e-11
 -3.74538e-12 -0.0232446 -7.56638e-12
 2.55672e-12 -0.0232446 -2.78408e-12
 -2.64866e-11 -0.0232446 -3.45965e-11
 6.74085e-12 -0.0232446 -4.15542e-11
 -4.59656e-11 -0.0232446 -7.39609e-12
 -7.46072e-11 -0.0232446 -5.28027e-12
 -3.71723e-11 -0.0232446 6.09955e-12
 -5.83628e-11 -0.0232446 -1.0083e-11
 -3.26968e-11 -0.0232446 -2.75278e-11
 -3.27205e-11 -0.0232446 -1.12974e-11
 -5.1014e-11 -0.0232446 -9.27224e-12
 -6.02413e-11 -0.0232446 -5.90251e-12
 3.11034e-11 -0.0232446 -9.44669e-12
 4.37268e-11 -0.0232446 3.47298e-12
 3.74119e-11 -0.0232446 -6.62667e-13
 3.18789e-11 -0.0232446 8.92388e-13
 4.33085e-11 -0.0232446 -3.28023e-12
 4.71905e-11 -0.0232446 -7.772e-12
 1.91486e-11 -0.0314398 1.05979e-12
 2.08228e-11 -0.0314398 1.87537e-11
 3.78659e-13 -0.0314398 1.74548e-11
 9.56548e-12 -0.0314398 2.13093e-11
 1.75511e-11 -0.0314398 4.52814e-11
 1.34064e-11 -0.0314398 -1.55417e-11
 -2.85425e-11 -0.0314398 -1.43619e-12
 -1.61838e-11 -0.0314398 1.16423e-11
 -2.65009e-12 -0.0314398 1.61884e-11
 2.12922e-12 -0.0314398 3.67643e-12
 -3.39778e-11 -0.0314398 2.50333e-11
 -2.89403e-11 -0.0314398 -1.56489e-11
 -1.15281e-11 -0.0314398 2.05797e-13
 -2.54195e-11 -0.0314398 1.13967e-13
 -1.56305e-11 -0.0314398 -9.5956e-12
 -2.58994e-11 -0.0314398 3.49606e-12
 -2.81597e-11 -0.0314398 -3.10441e-12
 -5.69775e-11 -0.0314398 -5.08909e-13
 -3.80738e-11 -0.0314398 -3.19927e-12
 -2.27196e-11 -0.0314398 -9.47417e-13
 5.34759e-12 -0.0314398 -7.71002e-12
 -4.6902e-12 -0.0314398 -1.54046e-12
 -1.6565e-11 -0.0314398 1.45235e-11
 -5.45491e-11 -0.0314398 -5.78486e-12
 -2.61912e-11 -0.0314398 -6.18304e-12
 -1.78673e-11 -0.0314398 3.74658e-12
 -4.74189e-12 -0.0314398 -1.87832e-12
 -2.74062e-12 -0.0314398 2.05273e-12
 -1.68917e-11 -0.0314398 1.7497e-11
 -2.26912e-11 -0.0314398 -6.12664e-12
 2.51806e-11 -0.0314398 -8.30567e-12
 2.11865e-11 -0.0314398 -4.28414e-13
 -3.04931e-12 -0.0314398 1.35904e-11
 6.35993e-12 -0.0314398 5.96708e-12
 7.17316e-12 -0.0314398 9.16832e-12
 2.33018e-11 -0.0314398 2.89259e-12
 -5.80063e-12 -0.0436512 -2.18391e-11
 -1.67175e-11 -0.0436512 5.92844e-12
 6.63564e-12 -0.0436512 5.18761e-11
 -1.14839e-11 -0.0436512 6.96017e-11
 1.62697e-11 -0.0436512 8.63406e-13
 1.00118e-11 -0.0436512 -1.76956e-12
 -2.38326e-11 -0.0436512 -1.92953e-11
 6.9328e-13 -0.0436512 1.16964e-11
 -3.748e-12 -0.0436512 4.42998e-11
 9.27867e-12 -0.0436512 4.06736e-11
 -2.15009e-11 -0.0436512 1.72376e-11
 -3.28241e-11 -0.0436512 2.86966e-14
 1.41401e-11 -0.0436512 -7.35756e-12
 5.90083e-12 -0.0436512 1.63051e-11
 -1.72129e-11 -0.0436512 3.50868e-11
 -6.65786e-12 -0.0436512 1.60956e-11
 -1.57581e-11 -0.0436512 2.65545e-11
 -1.59285e-11 -0.0436512 -2.07151e-12
 -7.03413e-12 -0.0436512 -1.5363e-11
 -6.7559e-12 -0.0436512 1.47388e-11
 -2.8884e-12 -0.0436512 3.4172e-11
 -1.10405e-11 -0.0436512 2.60031e-11
 -1.25925e-11 -0.0436512 1.82867e-11
 -1.92617e-11 -0.0436512 1.41938e-12
 -1.43194e-11 -0.0436512 -6.46116e-12
 -1.22538e-11 -0.0436512 2.4698e-11
 -8.37044e-12 -0.0436512 2.17512e-11
 -1.23731e-11 -0.0436512 1.69603e-11
 -1.16017e-11 -0.0436512 1.56142e-11
 -1.98822e-11 -0.0436512 -3.87159e-12
 5.47468e-12 -0.0436512 4.75507e-12
 3.08589e-12 -0.0436512 2.88843e-12
 4.85976e-12 -0.0436512 2.22787e-11
 6.23451e-12 -0.0436512 2.45994e-11
 -3.57809e-12 -0.0436512 8.11342e-12
 6.39845e-12 -0.0436512 -4.5099e-12
 -1.65981e-12 -0.0545462 -1.92373e-11
 1.59361e-12 -0.0545462 9.37044e-12
 6.12431e-12 -0.0545462 5.26858e-11
 -4.95361e-12 -0.0545462 5.96939e-11
 1.67827e-11 -0.0545462 4.15446e-13
 7.88508e-12 -0.0545462 1.04294e-12
 3.0572e-12 -0.0545462 -1.23613e-11
 1.32442e-12 -0.0545462 1.44161e-11
 1.76891e-11 -0.0545462 3.01545e-11
 1.57921e-11 -0.0545462 4.16543e-11
 -7.17107e-12 -0.0545462 1.87346e-11
 -7.63842e-12 -0.0545462 5.3899e-13
 2.1132e-11 -0.0545462 -1.20212e-11
 1.21489e-11 -0.0545462 2.00668e-11
 3.56069e-12 -0.0545462 3.272e-11
 8.84511e-12 -0.0545462 1.85531e-11
 1.35612e-12 -0.0545462 2.73404e-11
 -1.40985e-11 -0.0545462 -4.36008e-12
 2.31154e-12 -0.0545462 -1.75437e-11
 1.69068e-11 -0.0545462 6.24193e-12
 1.42496e-12 -0.0545462 2.44303e-11
 -4.33327e-12 -0.0545462 2.17124e-11
 -1.39246e-11 -0.0545462 3.00601e-11
 -1.95198e-11 -0.0545462 4.98633e-13
 -5.56746e-12 -0.0545462 -1.30137e-11
 -4.41681e-12 -0.0545462 1.78452e-11
 4.53846e-12 -0.0545462 2.8085e-11
 7.98296e-13 -0.0545462 6.08392e-12
 -1.14643e-11 -0.0545462 1.98333e-11
 -1.20156e-11 -0.0545462 -5.96999e-12
 7.15104e-12 -0.0545462 2.78176e-12
 3.63071e-12 -0.0545462 -3.73373e-12
 2.59996e-12 -0.0545462 1.77642e-11
 3.31443e-12 -0.0545462 3.613e-12
 8.80785e-12 -0.0545462 2.65253e-11
 1.46835e-11 -0.0545462 -6.62861e-12
 -2.19811e-11 -0.0593174 -7.10367e-12
 -2.39282e-11 -0.0593174 -5.85526e-12
 -7.09711e-12 -0.0593174 1.90267e-11
 -2.17273e-11 -0.0593174 2.01551e-11
 1.85751e-11 -0.0593174 -3.81992e-12
 1.79872e-11 -0.0593174 -6.02417e-13
 1.59017e-11 -0.0593174 -5.92294e-12
 1.91564e-11 -0.0593174 2.97654e-12
 1.06717e-11 -0.0593174 1.00533e-11
 1.89721e-11 -0.0593174 8.21816e-12
 -2.23371e-11 -0.0593174 1.99067e-11
 -3.18383e-11 -0.0593174 -3.93773e-12
 -1.21388e-11 -0.0593174 -1.65039e-12
 -9.03791e-12 -0.0593174 1.04797e-11
 -2.00949e-11 -0.0593174 1.70731e-11
 -8.23478e-12 -0.0593174 1.33287e-11
 -1.5147e-11 -0.0593174 4.11537e-12
 -1.67574e-11 -0.0593174 -2.54236e-12
 -1.49925e-11 -0.0593174 -7.04538e-12
 -9.0022e-12 -0.0593174 3.00913e-12
 1.95711e-12 -0.0593174 1.10406e-11
 -7.59498e-12 -0.0593174 6.67459e-12
 -4.61509e-12 -0.0593174 2.23557e-11
 -3.30731e-13 -0.0593174 -7.06104e-12
 -2.29018e-11 -0.0593174 -6.32556e-12
 -1.70797e-11 -0.0593174 1.379e-11
 -9.749e-12 -0.0593174 1.60415e-11
 -1.33117e-11 -0.0593174 7.60994e-12
 -1.31087e-11 -0.0593174 4.66618e-12
 -8.71203e-12 -0.0593174 -5.83899e-12
 8.45285e-12 -0.0593174 -1.18632e-12
 8.25714e-12 -0.0593174 2.08106e-12
 8.72578e-12 -0.0593174 1.26735e-11
 5.12266e-12 -0.0593174 4.68877e-12
 4.68894e-12 -0.0593174 1.51576e-11
 2.56095e-12 -0.0593174 -2.49597e-12
 -3.41121e-12 -0.0632357 -7.1336e-12
 -3.37787e-11 -0.0632357 7.44055e-12
 -4.23545e-12 -0.0632357 -1.36831e-11
 -3.40099e-11 -0.0632357 -1.40824e-11
 1.47432e-11 -0.0632357 -1.13695e-11
 2.29933e-11 -0.0632357 -2.86276e-12
 -1.39236e-11 -0.0632357 -5.49692e-12
 1.36041e-11 -0.0632357 -1.32363e-12
 -1.14678e-11 -0.0632357 -3.9593e-12
 1.63891e-11 -0.0632357 -5.76683e-13
 -3.21895e-11 -0.0632357 -4.6627e-13
 -4.07387e-11 -0.0632357 -4.60686e-12
 -5.80193e-11 -0.0632357 2.40123e-12
 -4.18965e-11 -0.0632357 2.81131e-12
 -3.23115e-11 -0.0632357 1.86567e-12
 -3.32851e-11 -0.0632357 3.40597e-12
 -2.96893e-11 -0.0632357 3.57735e-12
 -2.4279e-11 -0.0632357 -5.24437e-12
 -2.07899e-11 -0.0632357 8.11884e-13
 -1.24168e-11 -0.0632357 1.62404e-13
 -7.74221e-12 -0.0632357 1.42518e-12
 -6.52334e-12 -0.0632357 1.80879e-12
 -2.67804e-12 -0.0632357 4.03487e-12
 4.44551e-13 -0.0632357 -7.47687e-12
 -2.9253e-11 -0.0632357 -1.8636e-12
 -2.29775e-11 -0.0632357 4.17788e-12
 -1.84205e-11 -0.0632357 7.87681e-12
 -1.97851e-11 -0.0632357 6.90625e-12
 -1.97037e-11 -0.0632357 -5.28437e-12
 -1.79801e-11 -0.0632357 4.38667e-13
 2.04567e-11 -0.0632357 -9.32654e-12
 1.73095e-11 -0.0632357 7.86817e-12
 1.87876e-11 -0.0632357 9.49886e-12
 1.46192e-11 -0.0632357 8.39897e-12
 1.72325e-11 -0.0632357 -1.49971e-12
 1.75529e-11 -0.0632357 8.76165e-12
 -9.08999e-12 -0.0694927 -1.0641e-11
 -2.90691e-11 -0.0694927 3.32579e-12
 -5.15332e-12 -0.0694927 -4.91441e-12
 -9.77243e-13 -0.0694927 -5.27303e-12
 2.41454e-11 -0.0694927 -5.82162e-12
 2.04899e-11 -0.0694927 3.30496e-12
 -1.66107e-11 -0.0694927 -2.21898e-12
 5.80838e-12 -0.0694927 3.03486e-12
 -1.01324e-11 -0.0694927 8.9178e-12
 -2.26904e-11 -0.0694927 5.44616e-12
 -4.85695e-11 -0.0694927 1.67641e-12
 -3.9792e-11 -0.0694927 3.14078e-12
 -5.66089e-11 -0.0694927 1.04145e-11
 -4.21051e-11 -0.0694927 1.20601e-11
 -3.11176e-11 -0.0694927 1.13187e-11
 -4.52356e-11 -0.0694927 1.32185e-11
 -3.10475e-11 -0.0694927 1.09387e-11
 -2.32776e-11 -0.0694927 2.01179e-12
 -2.2106e-11 -0.0694927 1.04711e-12
 -1.56931e-11 -0.0694927 8.29962e-12
 -1.05708e-11 -0.0694927 6.4139e-12
 -1.53343e-11 -0.0694927 5.03581e-12
 -6.31573e-12 -0.0694927 7.45946e-14
 1.88632e-12 -0.0694927 -5.79877e-13
 -3.02912e-11 -0.0694927 2.29113e-12
 -2.06619e-11 -0.0694927 9.47958e-12
 -1.61464e-11 -0.0694927 1.60268e-11
 -2.23716e-11 -0.0694927 7.40889e-12
 -1.80357e-11 -0.0694927 2.2382e-12
 -1.20931e-11 -0.0694927 6.92371e-12
 1.80239e-11 -0.0694927 1.16682e-12
 1.78158e-11 -0.0694927 1.75437e-11
 2.19499e-11 -0.0694927 1.83526e-11
 1.67251e-11 -0.0694927 1.45953e-11
 1.92525e-11 -0.0694927 3.74894e-12
 2.15753e-11 -0.0694927 1.31399e-11
 1.31739e-11 -0.0629933 3.3331e-12
 -8.59882e-12 -0.0629933 -9.5639e-12
 -2.4729e-12 -0.0629933 -1.71989e-11
 -1.68651e-11 -0.0629933 -7.63986e-12
 -1.81517e-11 -0.0629933 -7.32714e-12
 -1.68541e-11 -0.0629933 4.88031e-12
 -3.00568e-11 -0.0629933 -7.59803e-12
 -8.71963e-13 -0.0629933 -4.10524e-12
 -2.07298e-13 -0.0629933 3.179e-12
 4.10326e-12 -0.0629933 2.81428e-12
 7.78424e-12 -0.0629933 -5.45058e-12
 6.25271e-12 -0.0629933 2.68562e-12
 -3.37816e-11 -0.0629933 -1.99359e-12
 -2.41467e-11 -0.0629933 -3.30817e-12
 -1.95398e-11 -0.0629933 6.10533e-12
 -1.41758e-11 -0.0629933 1.27591e-11
 -7.00198e-12 -0.0629933 -7.54034e-14
 3.47639e-12 -0.0629933 3.14856e-12
 -1.93149e-11 -0.0629933 -2.90886e-12
 -1.57123e-11 -0.0629933 -2.94283e-12
 -1.08763e-11 -0.0629933 -1.56556e-12
 -1.48697e-11 -0.0629933 -1.05151e-12
 -6.47099e-12 -0.0629933 1.01995e-11
 1.382e-12 -0.0629933 -1.32038e-12
 -1.72225e-11 -0.0629933 -2.53599e-12
 -1.93627e-11 -0.0629933 -1.21733e-12
 -1.6291e-11 -0.0629933 7.942e-12
 -1.97309e-11 -0.0629933 1.09924e-12
 -1.57428e-11 -0.0629933 1.47448e-11
 -1.27657e-11 -0.0629933 -5.32364e-12
 7.75681e-12 -0.0629933 -5.41921e-14
 7.54968e-12 -0.0629933 3.44178e-13
 6.65753e-12 -0.0629933 3.95914e-12
 3.33761e-12 -0.0629933 7.64303e-12
 2.2669e-12 -0.0629933 1.88886e-11
 2.06091e-12 -0.0629933 -1.87297e-12
 1.11208e-11 -0.0513544 4.85292e-12
 1.823e-12 -0.0513544 -1.31179e-11
 6.68531e-12 -0.0513544 -1.64685e-11
 8.7512e-13 -0.0513544 -1.4625e-11
 1.41241e-12 -0.0513544 -8.43889e-12
 -1.95006e-12 -0.0513544 3.86913e-12
 -2.51103e-11 -0.0513544 -9.57499e-12
 -1.21411e-11 -0.0513544 -3.1714e-12
 -5.35193e-13 -0.0513544 3.44156e-13
 -2.4406e-12 -0.0513544 -9.69089e-12
 -5.35883e-12 -0.0513544 -9.62077e-12
 -5.65435e-12 -0.0513544 1.5639e-12
 -1.04319e-11 -0.0513544 -8.01911e-12
 -9.27503e-12 -0.0513544 -7.88484e-12
 -1.79413e-11 -0.0513544 7.94061e-12
 -1.09055e-11 -0.0513544 -8.33025e-12
 1.68811e-12 -0.0513544 -6.94692e-12
 9.08299e-12 -0.0513544 6.84226e-12
 -2.89747e-11 -0.0513544 -6.11284e-12
 -1.85577e-11 -0.0513544 -9.5241e-12
 -1.63452e-11 -0.0513544 5.6457e-12
 -1.65488e-11 -0.0513544 -4.4335e-13
 -1.09943e-11 -0.0513544 -8.8435e-12
 -5.83237e-12 -0.0513544 4.75425e-12
 -8.48146e-12 -0.0513544 -1.04796e-11
 -8.30173e-12 -0.0513544 -7.53176e-12
 -1.20296e-11 -0.0513544 5.80073e-12
 -5.74421e-12 -0.0513544 5.9014e-12
 -8.05893e-12 -0.0513544 -7.65569e-12
 -4.62236e-12 -0.0513544 6.01668e-12
 1.05033e-11 -0.0513544 -1.56222e-11
 2.61845e-12 -0.0513544 -4.99804e-12
 3.75517e-12 -0.0513544 8.68756e-12
 7.13085e-13 -0.0513544 1.03781e-11
 1.68511e-12 -0.0513544 -6.81056e-12
 3.76412e-12 -0.0513544 7.05683e-12
 -4.84232e-12 -0.0410842 -5.24086e-13
 3.44819e-13 -0.0410842 -1.07478e-11
 2.22655e-12 -0.0410842 -1.14165e-11
 -8.46969e-13 -0.0410842 -1.36042e-11
 -3.87859e-12 -0.0410842 -6.38242e-12
 -5.332e-12 -0.0410842 6.69265e-12
 -3.27459e-11 -0.0410842 -8.86375e-12
 -2.32186e-11 -0.0410842 -3.8834e-12
 -1.65459e-11 -0.0410842 -2.80955e-14
 -9.79484e-12 -0.0410842 -6.40321e-12
 -9.36922e-12 -0.0410842 -7.48236e-12
 -1.39632e-11 -0.0410842 3.50753e-12
 -2.33824e-11 -0.0410842 -9.57819e-12
 -2.48064e-11 -0.0410842 2.34284e-12
 -2.77085e-11 -0.0410842 4.58323e-13
 -2.50108e-11 -0.0410842 -6.44361e-12
 -1.07336e-11 -0.0410842 -5.58513e-12
 2.39916e-12 -0.0410842 8.44517e-12
 -3.61354e-11 -0.0410842 -3.76611e-12
 -3.16105e-11 -0.0410842 -3.26455e-12
 -2.68418e-11 -0.0410842 6.54352e-12
 -2.34217e-11 -0.0410842 1.82764e-12
 -2.31291e-11 -0.0410842 -5.80026e-12
 -1.06611e-11 -0.0410842 6.05936e-12
 -1.24739e-11 -0.0410842 -4.45763e-12
 -1.57397e-11 -0.0410842 -6.25009e-12
 -1.13973e-11 -0.0410842 1.79985e-11
 -1.1992e-11 -0.0410842 3.08393e-12
 -7.57361e-12 -0.0410842 -4.32993e-12
 -1.19266e-11 -0.0410842 9.01899e-12
 6.21273e-12 -0.0410842 -1.00378e-11
 7.6364e-13 -0.0410842 -2.79887e-13
 -4.82514e-12 -0.0410842 1.5625e-11
 -2.90562e-12 -0.0410842 1.50926e-11
 -9.75822e-13 -0.0410842 -2.6698e-12
 2.12801e-12 -0.0410842 1.07634e-11
 -1.4388e-12 -0.029755 3.58291e-12
 -1.28339e-12 -0.029755 -1.72088e-11
 5.09584e-13 -0.029755 -6.53195e-12
 -2.85771e-12 -0.029755 -1.11791e-11
 -1.0017e-12 -0.029755 -5.28528e-12
 -4.56725e-12 -0.029755 5.59081e-12
 -2.67905e-12 -0.029755 -8.13935e-12
 -7.12177e-12 -0.029755 -4.68865e-12
 -6.71716e-12 -0.029755 -1.65921e-12
 -3.67681e-12 -0.029755 -6.76283e-12
 -2.51622e-12 -0.029755 -7.38602e-12
 -5.32913e-12 -0.029755 3.86938e-12
 -2.05194e-11 -0.029755 -8.75613e-12
 -1.34681e-11 -0.029755 4.34313e-13
 -8.38687e-12 -0.029755 -6.62708e-13
 -1.35726e-11 -0.029755 -6.08518e-12
 -1.43609e-11 -0.029755 -7.62331e-12
 3.24056e-12 -0.029755 4.40275e-12
 -1.84046e-11 -0.029755 -3.52103e-12
 -1.78693e-11 -0.029755 -8.41463e-12
 -1.25457e-11 -0.029755 -1.63112e-12
 -1.0782e-11 -0.029755 3.90901e-12
 -3.60928e-12 -0.029755 -5.02847e-12
 -5.15295e-13 -0.029755 3.26554e-12
 -6.69966e-12 -0.029755 -4.89247e-12
 -7.62831e-12 -0.029755 -6.69486e-12
 -5.42088e-12 -0.029755 5.62567e-12
 1.65055e-12 -0.029755 1.07288e-13
 6.07294e-13 -0.029755 -6.25923e-12
 -8.2436e-12 -0.029755 3.99313e-12
 8.46743e-12 -0.029755 -1.01811e-11
 8.08311e-12 -0.029755 -7.22735e-12
 -4.64346e-12 -0.029755 8.32047e-12
 -2.01587e-12 -0.029755 2.58667e-12
 -1.72668e-12 -0.029755 -5.62324e-12
 1.44905e-12 -0.029755 7.31436e-12
 -1.15819e-13 -0.0187465 4.47362e-12
 3.72768e-13 -0.0187465 -1.07717e-11
 -4.55535e-12 -0.0187465 -8.2264e-12
 -1.89746e-13 -0.0187465 -1.01021e-11
 -2.71266e-12 -0.0187465 -6.21211e-12
 -6.27588e-12 -0.0187465 3.67456e-12
 4.39254e-12 -0.0187465 -9.80219e-12
 3.90572e-12 -0.0187465 -1.12432e-12
 6.04036e-13 -0.0187465 -6.884e-12
 3.24642e-13 -0.0187465 -7.94361e-12
 -4.56561e-13 -0.0187465 -6.02295e-12
 -2.49923e-12 -0.0187465 5.92169e-12
 8.09326e-13 -0.0187465 -7.90168e-12
 -1.35453e-12 -0.0187465 -8.25541e-13
 -5.96309e-12 -0.0187465 -4.2363e-12
 1.25645e-12 -0.0187465 -8.18931e-12
 -6.90374e-12 -0.0187465 -7.87313e-12
 3.88205e-12 -0.0187465 4.24406e-12
 -1.29975e-12 -0.0187465 -6.57082e-12
 -2.38912e-12 -0.0187465 -6.1603e-12
 3.11857e-12 -0.0187465 -2.03418e-12
 -6.79843e-13 -0.0187465 -3.50427e-12
 1.79886e-12 -0.0187465 -6.74643e-12
 5.44281e-12 -0.0187465 3.16055e-12
 -3.9055e-12 -0.0187465 -9.68883e-12
 -4.4786e-12 -0.0187465 -7.94417e-12
 6.59798e-12 -0.0187465 -1.36279e-12
 -7.30165e-12 -0.0187465 -1.37537e-12
 1.27438e-11 -0.0187465 -9.94381e-12
 2.11666e-12 -0.0187465 3.68078e-12
 8.13704e-12 -0.0187465 -1.34872e-11
 8.39756e-12 -0.0187465 -1.14604e-11
 9.13014e-13 -0.0187465 -1.42944e-12
 9.25114e-12 -0.0187465 -1.54324e-12
 -9.1401e-13 -0.0187465 -1.1284e-11
 1.81023e-12 -0.0187465 7.79604e-12
 -2.49121e-12 -0.00922168 1.1403e-12
 -2.87341e-12 -0.00922168 -1.50512e-11
 -5.87429e-12 -0.00922168 -1.16167e-11
 -2.55485e-12 -0.00922168 -8.78907e-12
 -3.81746e-12 -0.00922168 -7.81251e-12
 -8.17005e-12 -0.00922168 2.93449e-12
 4.65144e-12 -0.00922168 -8.44071e-12
 3.84147e-12 -0.00922168 -4.08838e-12
 -4.67853e-13 -0.00922168 -1.1584e-11
 1.04007e-12 -0.00922168 -1.15116e-11
 -8.77142e-13 -0.00922168 -8.82269e-12
 -2.67077e-12 -0.00922168 2.22504e-12
 2.06342e-12 -0.00922168 -2.16989e-12
 1.35428e-12 -0.00922168 -1.08316e-11
 -3.87229e-12 -0.00922168 -1.14117e-11
 -3.03125e-12 -0.00922168 -1.2907e-11
 3.47307e-12 -0.00922168 -9.5414e-12
 3.12841e-12 -0.00922168 1.70899e-12
 1.32418e-12 -0.00922168 -9.78486e-12
 -3.3036e-12 -0.00922168 -1.14496e-12
 4.028e-12 -0.00922168 -1.07736e-11
 4.25273e-12 -0.00922168 -8.09455e-12
 -3.73955e-13 -0.00922168 -8.33042e-12
 9.88133e-12 -0.00922168 2.96109e-12
 -2.10086e-12 -0.00922168 -1.27453e-11
 -2.35507e-12 -0.00922168 -2.2417e-12
 8.48363e-12 -0.00922168 -7.6693e-12
 1.05384e-11 -0.00922168 -1.38614e-11
 7.87424e-12 -0.00922168 -9.98298e-12
 -3.80491e-12 -0.00922168 2.63468e-12
 9.16018e-12 -0.00922168 -2.20703e-11
 8.72007e-12 -0.00922168 -7.69528e-12
 -4.06706e-12 -0.00922168 -4.99189e-12
 -2.62127e-12 -0.00922168 -1.38154e-11
 -2.46757e-12 -0.00922168 -9.43006e-12
 1.58747e-12 -0.00922168 5.34945e-12
 -7.86969e-13 -0.00852457 9.70696e-13
 -6.75335e-13 -0.00852457 -5.31583e-12
 -1.59196e-12 -0.00852457 -6.1938e-12
 -3.33606e-13 -0.00852457 -2.84271e-12
 -1.40263e-12 -0.00852457 -5.01441e-12
 -2.41095e-12 -0.00852457 2.04155e-12
 5.54378e-12 -0.00852457 9.66714e-13
 4.04241e-12 -0.00852457 -4.72741e-12
 4.10601e-12 -0.00852457 -6.47026e-12
 7.11013e-12 -0.00852457 -4.88126e-12
 9.48437e-13 -0.00852457 -4.79928e-12
 -6.45595e-13 -0.00852457 2.77888e-12
 4.61613e-12 -0.00852457 -1.26414e-12
 5.04674e-12 -0.00852457 -3.15786e-12
 2.84742e-12 -0.00852457 -4.21983e-12
 4.42671e-12 -0.00852457 -4.80326e-12
 1.42211e-12 -0.00852457 -3.71015e-12
 2.66729e-12 -0.00852457 -7.97867e-13
 7.13324e-12 -0.00852457 8.74814e-13
 5.17577e-12 -0.00852457 -1.60074e-12
 6.42284e-12 -0.00852457 -3.94722e-12
 5.65258e-12 -0.00852457 -4.28617e-12
 6.07734e-12 -0.00852457 -4.9341e-12
 -7.48851e-13 -0.00852457 3.63852e-12
 2.7565e-12 -0.00852457 -4.43991e-12
 3.05434e-12 -0.00852457 -1.86865e-12
 2.80589e-12 -0.00852457 -6.11853e-12
 5.41351e-12 -0.00852457 -2.10398e-12
 8.35343e-12 -0.00852457 -4.49722e-12
 1.13972e-11 -0.00852457 1.30759e-12
 1.23831e-13 -0.00852457 -6.03141e-12
 -5.28254e-13 -0.00852457 -5.93427e-12
 -1.77414e-12 -0.00852457 -3.41789e-12
 -2.31773e-12 -0.00852457 -3.76087e-12
 -1.87276e-13 -0.00852457 -7.81156e-12
 2.6856e-13 -0.00852457 1.88945e-12
 -1.81637e-12 -0.00958861 -8.34598e-14
 -3.28418e-13 -0.00958861 1.79796e-12
 -9.61527e-13 -0.00958861 -9.37215e-13
 2.68786e-12 -0.00958861 -3.89614e-12
 -1.97174e-12 -0.00958861 1.06719e-12
 -3.51359e-14 -0.00958861 4.61703e-12
 3.76904e-12 -0.00958861 4.83545e-13
 3.3415e-12 -0.00958861 6.91678e-13
 4.23459e-12 -0.00958861 -1.63896e-12
 3.21538e-12 -0.00958861 -3.4189e-13
 3.97076e-12 -0.00958861 -8.81596e-13
 2.94303e-12 -0.00958861 5.34217e-12
 8.86944e-12 -0.00958861 -1.10289e-13
 7.4747e-12 -0.00958861 1.7464e-12
 8.20692e-12 -0.00958861 -1.4883e-12
 1.0513e-11 -0.00958861 2.45804e-12
 1.04761e-11 -0.00958861 -2.77269e-12
 6.8632e-12 -0.00958861 4.92952e-12
 9.55548e-12 -0.00958861 6.83333e-13
 1.12531e-11 -0.00958861 3.4792e-12
 9.99249e-12 -0.00958861 -6.42319e-13
 8.80625e-12 -0.00958861 3.0641e-12
 8.46632e-12 -0.00958861 -1.87896e-12
 6.81664e-12 -0.00958861 5.67053e-12
 5.71339e-12 -0.00958861 1.07352e-12
 4.21132e-12 -0.00958861 1.2236e-12
 4.24428e-12 -0.00958861 -1.07944e-12
 5.01705e-12 -0.00958861 1.02647e-12
 4.62484e-12 -0.00958861 -5.29201e-13
 4.2645e-12 -0.00958861 2.46759e-12
 -1.06462e-12 -0.00958861 1.52066e-12
 -9.13591e-13 -0.00958861 3.96293e-13