<?xml version="1.0"?>
<!-- time 31.5486-->
<VTKFile type="UnstructuredGrid" version="0.1" byte_order="LittleEndian">
<UnstructuredGrid>
<Piece NumberOfPoints="3240" NumberOfCells="0">
<Points>
  <DataArray type="Float32" Name="Position" NumberOfComponents="3" format="ascii">
	-333.333 2066.67 -333.333
	-333.333 2066.67 -200
	-333.333 2066.67 -66.6667
	-333.333 2066.67 66.6667
	-333.333 2066.67 200
	-333.333 2066.67 333.333
	-200 2066.67 -333.333
	-200 2066.67 -200
	-200 2066.67 -66.6667
	-200 2066.67 66.6667
	-200 2066.67 200
	-200 2066.67 333.333
	-66.6667 2066.67 -333.333
	-66.6667 2066.67 -200
	-66.6667 2066.67 -66.6667
	-66.6667 2066.67 66.6667
	-66.6667 2066.67 200
	-66.6667 2066.67 333.333
	66.6667 2066.67 -333.333
	66.6667 2066.67 -200
	66.6667 2066.67 -66.6667
	66.6667 2066.67 66.6667
	66.6667 2066.67 200
	66.6667 2066.67 333.333
	200 2066.67 -333.333
	200 2066.67 -200
	200 2066.67 -66.6667
	200 2066.67 66.6667
	200 2066.67 200
	200 2066.67 333.333
	333.333 2066.67 -333.333
	333.333 2066.67 -200
	333.333 2066.67 -66.6667
	333.333 2066.67 66.6667
	333.333 2066.67 200
	333.333 2066.67 333.333
	-333.333 2200 -333.333
	-333.333 2200 -200
	-333.333 2200 -66.6667
	-333.333 2200 66.6667
	-333.333 2200 200
	-333.333 2200 333.333
	-200 2200 -333.333
	-200 2200 -200
	-200 2200 -66.6667
	-200 2200 66.6667
	-200 2200 200
	-200 2200 333.333
	-66.6667 2200 -333.333
	-66.6667 2200 -200
	-66.6667 2200 -66.6667
	-66.6667 2200 66.6667
	-66.6667 2200 200
	-66.6667 2200 333.333
	66.6667 2200 -333.333
	66.6667 2200 -200
	66.6667 2200 -66.6667
	66.6667 2200 66.6667
	66.6667 2200 200
	66.6667 2200 333.333
	200 2200 -333.333
	200 2200 -200
	200 2200 -66.6667
	200 2200 66.6667
	200 2200 200
	200 2200 333.333
	333.333 2200 -333.333
	333.333 2200 -200
	333.333 2200 -66.6667
	333.333 2200 66.6667
	333.333 2200 200
	333.333 2200 333.333
	-333.333 2333.33 -333.333
	-333.333 2333.33 -200
	-333.333 2333.33 -66.6667
	-333.333 2333.33 66.6667
	-333.333 2333.33 200
	-333.333 2333.33 333.333
	-200 2333.33 -333.333
	-200 2333.33 -200
	-200 2333.33 -66.6667
	-200 2333.33 66.6667
	-200 2333.33 200
	-200 2333.33 333.333
	-66.6667 2333.33 -333.333
	-66.6667 2333.33 -200
	-66.6667 2333.33 -66.6667
	-66.6667 2333.33 66.6667
	-66.6667 2333.33 200
	-66.6667 2333.33 333.333
	66.6667 2333.33 -333.333
	66.6667 2333.33 -200
	66.6667 2333.33 -66.6667
	66.6667 2333.33 66.6667
	66.6667 2333.33 200
	66.6667 2333.33 333.333
	200 2333.33 -333.333
	200 2333.33 -200
	200 2333.33 -66.6667
	200 2333.33 66.6667
	200 2333.33 200
	200 2333.33 333.333
	333.333 2333.33 -333.333
	333.333 2333.33 -200
	333.333 2333.33 -66.6667
	333.333 2333.33 66.6667
	333.333 2333.33 200
	333.333 2333.33 333.333
	-333.333 2466.67 -333.333
	-333.333 2466.67 -200
	-333.333 2466.67 -66.6667
	-333.333 2466.67 66.6667
	-333.333 2466.67 200
	-333.333 2466.67 333.333
	-200 2466.67 -333.333
	-200 2466.67 -200
	-200 2466.67 -66.6667
	-200 2466.67 66.6667
	-200 2466.67 200
	-200 2466.67 333.333
	-66.6667 2466.67 -333.333
	-66.6667 2466.67 -200
	-66.6667 2466.67 -66.6667
	-66.6667 2466.67 66.6667
	-66.6667 2466.67 200
	-66.6667 2466.67 333.333
	66.6667 2466.67 -333.333
	66.6667 2466.67 -200
	66.6667 2466.67 -66.6667
	66.6667 2466.67 66.6667
	66.6667 2466.67 200
	66.6667 2466.67 333.333
	200 2466.67 -333.333
	200 2466.67 -200
	200 2466.67 -66.6667
	200 2466.67 66.6667
	200 2466.67 200
	200 2466.67 333.333
	333.333 2466.67 -333.333
	333.333 2466.67 -200
	333.333 2466.67 -66.6667
	333.333 2466.67 66.6667
	333.333 2466.67 200
	333.333 2466.67 333.333
	-333.333 2600 -333.333
	-333.333 2600 -200
	-333.333 2600 -66.6667
	-333.333 2600 66.6667
	-333.333 2600 200
	-333.333 2600 333.333
	-200 2600 -333.333
	-200 2600 -200
	-200 2600 -66.6667
	-200 2600 66.6667
	-200 2600 200
	-200 2600 333.333
	-66.6667 2600 -333.333
	-66.6667 2600 -200
	-66.6667 2600 -66.6667
	-66.6667 2600 66.6667
	-66.6667 2600 200
	-66.6667 2600 333.333
	66.6667 2600 -333.333
	66.6667 2600 -200
	66.6667 2600 -66.6667
	66.6667 2600 66.6667
	66.6667 2600 200
	66.6667 2600 333.333
	200 2600 -333.333
	200 2600 -200
	200 2600 -66.6667
	200 2600 66.6667
	200 2600 200
	200 2600 333.333
	333.333 2600 -333.333
	333.333 2600 -200
	333.333 2600 -66.6667
	333.333 2600 66.6667
	333.333 2600 200
	333.333 2600 333.333
	-333.333 2733.33 -333.333
	-333.333 2733.33 -200
	-333.333 2733.33 -66.6667
	-333.333 2733.33 66.6667
	-333.333 2733.33 200
	-333.333 2733.33 333.333
	-200 2733.33 -333.333
	-200 2733.33 -200
	-200 2733.33 -66.6667
	-200 2733.33 66.6667
	-200 2733.33 200
	-200 2733.33 333.333
	-66.6667 2733.33 -333.333
	-66.6667 2733.33 -200
	-66.6667 2733.33 -66.6667
	-66.6667 2733.33 66.6667
	-66.6667 2733.33 200
	-66.6667 2733.33 333.333
	66.6667 2733.33 -333.333
	66.6667 2733.33 -200
	66.6667 2733.33 -66.6667
	66.6667 2733.33 66.6667
	66.6667 2733.33 200
	66.6667 2733.33 333.333
	200 2733.33 -333.333
	200 2733.33 -200
	200 2733.33 -66.6667
	200 2733.33 66.6667
	200 2733.33 200
	200 2733.33 333.333
	333.333 2733.33 -333.333
	333.333 2733.33 -200
	333.333 2733.33 -66.6667
	333.333 2733.33 66.6667
	333.333 2733.33 200
	333.333 2733.33 333.333
	-333.333 2866.67 -333.333
	-333.333 2866.67 -200
	-333.333 2866.67 -66.6667
	-333.333 2866.67 66.6667
	-333.333 2866.67 200
	-333.333 2866.67 333.333
	-200 2866.67 -333.333
	-200 2866.67 -200
	-200 2866.67 -66.6667
	-200 2866.67 66.6667
	-200 2866.67 200
	-200 2866.67 333.333
	-66.6667 2866.67 -333.333
	-66.6667 2866.67 -200
	-66.6667 2866.67 -66.6667
	-66.6667 2866.67 66.6667
	-66.6667 2866.67 200
	-66.6667 2866.67 333.333
	66.6667 2866.67 -333.333
	66.6667 2866.67 -200
	66.6667 2866.67 -66.6667
	66.6667 2866.67 66.6667
	66.6667 2866.67 200
	66.6667 2866.67 333.333
	200 2866.67 -333.333
	200 2866.67 -200
	200 2866.67 -66.6667
	200 2866.67 66.6667
	200 2866.67 200
	200 2866.67 333.333
	333.333 2866.67 -333.333
	333.333 2866.67 -200
	333.333 2866.67 -66.6667
	333.333 2866.67 66.6667
	333.333 2866.67 200
	333.333 2866.67 333.333
	-333.333 3000 -333.333
	-333.333 3000 -200
	-333.333 3000 -66.6667
	-333.333 3000 66.6667
	-333.333 3000 200
	-333.333 3000 333.333
	-200 3000 -333.333
	-200 3000 -200
	-200 3000 -66.6667
	-200 3000 66.6667
	-200 3000 200
	-200 3000 333.333
	-66.6667 3000 -333.333
	-66.6667 3000 -200
	-66.6667 3000 -66.6667
	-66.6667 3000 66.6667
	-66.6667 3000 200
	-66.6667 3000 333.333
	66.6667 3000 -333.333
	66.6667 3000 -200
	66.6667 3000 -66.6667
	66.6667 3000 66.6667
	66.6667 3000 200
	66.6667 3000 333.333
	200 3000 -333.333
	200 3000 -200
	200 3000 -66.6667
	200 3000 66.6667
	200 3000 200
	200 3000 333.333
	333.333 3000 -333.333
	333.333 3000 -200
	333.333 3000 -66.6667
	333.333 3000 66.6667
	333.333 3000 200
	333.333 3000 333.333
	-333.333 3133.33 -333.333
	-333.333 3133.33 -200
	-333.333 3133.33 -66.6667
	-333.333 3133.33 66.6667
	-333.333 3133.33 200
	-333.333 3133.33 333.333
	-200 3133.33 -333.333
	-200 3133.33 -200
	-200 3133.33 -66.6667
	-200 3133.33 66.6667
	-200 3133.33 200
	-200 3133.33 333.333
	-66.6667 3133.33 -333.333
	-66.6667 3133.33 -200
	-66.6667 3133.33 -66.6667
	-66.6667 3133.33 66.6667
	-66.6667 3133.33 200
	-66.6667 3133.33 333.333
	66.6667 3133.33 -333.333
	66.6667 3133.33 -200
	66.6667 3133.33 -66.6667
	66.6667 3133.33 66.6667
	66.6667 3133.33 200
	66.6667 3133.33 333.333
	200 3133.33 -333.333
	200 3133.33 -200
	200 3133.33 -66.6667
	200 3133.33 66.6667
	200 3133.33 200
	200 3133.33 333.333
	333.333 3133.33 -333.333
	333.333 3133.33 -200
	333.333 3133.33 -66.6667
	333.333 3133.33 66.6667
	333.333 3133.33 200
	333.333 3133.33 333.333
	-333.333 3266.67 -333.333
	-333.333 3266.67 -200
	-333.333 3266.67 -66.6667
	-333.333 3266.67 66.6667
	-333.333 3266.67 200
	-333.333 3266.67 333.333
	-200 3266.67 -333.333
	-200 3266.67 -200
	-200 3266.67 -66.6667
	-200 3266.67 66.6667
	-200 3266.67 200
	-200 3266.67 333.333
	-66.6667 3266.67 -333.333
	-66.6667 3266.67 -200
	-66.6667 3266.67 -66.6667
	-66.6667 3266.67 66.6667
	-66.6667 3266.67 200
	-66.6667 3266.67 333.333
	66.6667 3266.67 -333.333
	66.6667 3266.67 -200
	66.6667 3266.67 -66.6667
	66.6667 3266.67 66.6667
	66.6667 3266.67 200
	66.6667 3266.67 333.333
	200 3266.67 -333.333
	200 3266.67 -200
	200 3266.67 -66.6667
	200 3266.67 66.6667
	200 3266.67 200
	200 3266.67 333.333
	333.333 3266.67 -333.333
	333.333 3266.67 -200
	333.333 3266.67 -66.6667
	333.333 3266.67 66.6667
	333.333 3266.67 200
	333.333 3266.67 333.333
	-333.333 3400 -333.333
	-333.333 3400 -200
	-333.333 3400 -66.6667
	-333.333 3400 66.6667
	-333.333 3400 200
	-333.333 3400 333.333
	-200 3400 -333.333
	-200 3400 -200
	-200 3400 -66.6667
	-200 3400 66.6667
	-200 3400 200
	-200 3400 333.333
	-66.6667 3400 -333.333
	-66.6667 3400 -200
	-66.6667 3400 -66.6667
	-66.6667 3400 66.6667
	-66.6667 3400 200
	-66.6667 3400 333.333
	66.6667 3400 -333.333
	66.6667 3400 -200
	66.6667 3400 -66.6667
	66.6667 3400 66.6667
	66.6667 3400 200
	66.6667 3400 333.333
	200 3400 -333.333
	200 3400 -200
	200 3400 -66.6667
	200 3400 66.6667
	200 3400 200
	200 3400 333.333
	333.333 3400 -333.333
	333.333 3400 -200
	333.333 3400 -66.6667
	333.333 3400 66.6667
	333.333 3400 200
	333.333 3400 333.333
	-333.333 3533.33 -333.333
	-333.333 3533.33 -200
	-333.333 3533.33 -66.6667
	-333.333 3533.33 66.6667
	-333.333 3533.33 200
	-333.333 3533.33 333.333
	-200 3533.33 -333.333
	-200 3533.33 -200
	-200 3533.33 -66.6667
	-200 3533.33 66.6667
	-200 3533.33 200
	-200 3533.33 333.333
	-66.6667 3533.33 -333.333
	-66.6667 3533.33 -200
	-66.6667 3533.33 -66.6667
	-66.6667 3533.33 66.6667
	-66.6667 3533.33 200
	-66.6667 3533.33 333.333
	66.6667 3533.33 -333.333
	66.6667 3533.33 -200
	66.6667 3533.33 -66.6667
	66.6667 3533.33 66.6667
	66.6667 3533.33 200
	66.6667 3533.33 333.333
	200 3533.33 -333.333
	200 3533.33 -200
	200 3533.33 -66.6667
	200 3533.33 66.6667
	200 3533.33 200
	200 3533.33 333.333
	333.333 3533.33 -333.333
	333.333 3533.33 -200
	333.333 3533.33 -66.6667
	333.333 3533.33 66.6667
	333.333 3533.33 200
	333.333 3533.33 333.333
	-333.333 3666.67 -333.333
	-333.333 3666.67 -200
[...]
<PointData  Vectors="vector">
  <DataArray type="Float32" Name="Velocity" NumberOfComponents="3" format="ascii">
 7.59647e-16 -1.93198e-09 1.03609e-15
 3.31947e-16 -1.93198e-09 -1.80956e-14
 -9.57528e-17 -1.93198e-09 -3.72273e-14
 1.2859e-15 -1.93198e-09 -8.60826e-14
 3.97631e-16 -1.93198e-09 -1.80956e-14
 -4.90636e-16 -1.93198e-09 4.98914e-14
 -2.67691e-15 -1.93198e-09 1.92383e-15
 -1.16693e-15 -1.93198e-09 -9.9826e-15
 3.43059e-16 -1.93198e-09 -2.1889e-14
 4.08742e-16 -1.93198e-09 -7.07443e-14
 -2.66497e-15 -1.93198e-09 -9.9826e-15
 -5.73869e-15 -1.93198e-09 5.07791e-14
 -6.11348e-15 -1.93198e-09 2.81158e-15
 -2.6658e-15 -1.93198e-09 -1.86959e-15
 7.8187e-16 -1.93198e-09 -6.55076e-15
 -4.68413e-16 -1.93198e-09 -5.54061e-14
 -5.72758e-15 -1.93198e-09 -1.86959e-15
 -1.09867e-14 -1.93198e-09 5.16669e-14
 -5.49688e-14 -1.93198e-09 2.81573e-16
 -5.15211e-14 -1.93198e-09 -3.97804e-15
 -4.80734e-14 -1.93198e-09 -8.23765e-15
 -4.93237e-14 -1.93198e-09 -5.7093e-14
 -5.45829e-14 -1.93198e-09 -3.97804e-15
 -5.98421e-14 -1.93198e-09 4.91369e-14
 -2.67691e-15 -1.93198e-09 -1.84616e-16
 -1.16693e-15 -1.93198e-09 -7.16492e-15
 3.43059e-16 -1.93198e-09 -1.41452e-14
 4.08742e-16 -1.93198e-09 -6.30005e-14
 -2.66497e-15 -1.93198e-09 -7.16492e-15
 -5.73869e-15 -1.93198e-09 4.86707e-14
 4.9615e-14 -1.93198e-09 -6.50806e-16
 4.91873e-14 -1.93198e-09 -1.03518e-14
 4.87596e-14 -1.93198e-09 -2.00528e-14
 5.01412e-14 -1.93198e-09 -6.89081e-14
 4.92529e-14 -1.93198e-09 -1.03518e-14
 4.83647e-14 -1.93198e-09 4.82045e-14
 9.45828e-16 7.53486e-09 1.16073e-15
 3.76551e-16 7.53486e-09 -3.36971e-15
 -1.92727e-16 7.53486e-09 -7.90015e-15
 4.4061e-16 7.53486e-09 -6.98101e-14
 8.59809e-17 7.53486e-09 -3.36971e-15
 -2.68648e-16 7.53486e-09 6.30707e-14
 -1.01757e-15 7.53486e-09 1.82768e-15
 -6.12693e-16 7.53486e-09 -9.34335e-16
 -2.07818e-16 7.53486e-09 -3.69635e-15
 -4.98387e-16 7.53486e-09 -6.56063e-14
 -2.52324e-15 7.53486e-09 -9.34335e-16
 -4.5481e-15 7.53486e-09 6.37377e-14
 -2.98096e-15 7.53486e-09 2.49464e-15
 -1.60194e-15 7.53486e-09 1.50104e-15
 -2.22909e-16 7.53486e-09 5.07445e-16
 -1.43738e-15 7.53486e-09 -6.14025e-14
 -5.13247e-15 7.53486e-09 1.50104e-15
 -8.82755e-15 7.53486e-09 6.44046e-14
 -6.4891e-14 7.53486e-09 1.68825e-15
 -6.35119e-14 7.53486e-09 8.62041e-16
 -6.21329e-14 7.53486e-09 3.58314e-17
 -6.33474e-14 7.53486e-09 -6.18742e-14
 -6.70425e-14 7.53486e-09 8.62041e-16
 -7.07375e-14 7.53486e-09 6.35982e-14
 -1.01757e-15 7.53486e-09 1.18868e-15
 -6.12693e-16 7.53486e-09 -2.47769e-16
 -2.07818e-16 7.53486e-09 -1.68422e-15
 -4.98387e-16 7.53486e-09 -6.35942e-14
 -2.52324e-15 7.53486e-09 -2.47769e-16
 -4.5481e-15 7.53486e-09 6.30987e-14
 6.28558e-14 7.53486e-09 6.89112e-16
 6.22865e-14 7.53486e-09 -1.35758e-15
 6.17173e-14 7.53486e-09 -3.40427e-15
 6.23506e-14 7.53486e-09 -6.53143e-14
 6.1996e-14 7.53486e-09 -1.35758e-15
 6.16413e-14 7.53486e-09 6.25991e-14
 1.11112e-15 1.15375e-08 1.27137e-15
 4.16146e-16 1.15375e-08 9.70369e-15
 -2.78823e-16 1.15375e-08 1.8136e-14
 -3.09826e-16 1.15375e-08 -5.53638e-14
 -1.90695e-16 1.15375e-08 9.70369e-15
 -7.15643e-17 1.15375e-08 7.47712e-14
 4.55572e-16 1.15375e-08 1.74231e-15
 -1.20655e-16 1.15375e-08 7.09855e-15
 -6.96882e-16 1.15375e-08 1.24548e-14
 -1.30372e-15 1.15375e-08 -6.1045e-14
 -2.39742e-15 1.15375e-08 7.09855e-15
 -3.49111e-15 1.15375e-08 7.52421e-14
 -1.99972e-16 1.15375e-08 2.21326e-15
 -6.57456e-16 1.15375e-08 4.49342e-15
 -1.11494e-15 1.15375e-08 6.77357e-15
 -2.29762e-15 1.15375e-08 -6.67262e-14
 -4.60414e-15 1.15375e-08 4.49342e-15
 -6.91066e-15 1.15375e-08 7.57131e-14
 -7.36998e-14 1.15375e-08 2.93706e-15
 -7.41573e-14 1.15375e-08 5.15896e-15
 -7.46147e-14 1.15375e-08 7.38086e-15
 -7.57974e-14 1.15375e-08 -6.61189e-14
 -7.81039e-14 1.15375e-08 5.15896e-15
 -8.04105e-14 1.15375e-08 7.64369e-14
 4.55572e-16 1.15375e-08 2.40786e-15
 -1.20655e-16 1.15375e-08 5.89314e-15
 -6.96882e-16 1.15375e-08 9.37843e-15
 -1.30372e-15 1.15375e-08 -6.41214e-14
 -2.39742e-15 1.15375e-08 5.89314e-15
 -3.49111e-15 1.15375e-08 7.59077e-14
 7.46109e-14 1.15375e-08 1.87866e-15
 7.3916e-14 1.15375e-08 6.62733e-15
 7.3221e-14 1.15375e-08 1.1376e-14
 7.319e-14 1.15375e-08 -6.21238e-14
 7.33091e-14 1.15375e-08 6.62733e-15
 7.34282e-14 1.15375e-08 7.53785e-14
 2.47739e-16 1.05966e-08 -2.83777e-15
 4.44019e-17 1.05966e-08 4.72745e-15
 -1.58935e-16 1.05966e-08 1.22927e-14
 -7.88497e-16 1.05966e-08 -3.32141e-14
 -1.31547e-15 1.05966e-08 4.72745e-15
 -1.84244e-15 1.05966e-08 4.2669e-14
 -4.14343e-16 1.05966e-08 -6.15479e-16
 -5.25241e-16 1.05966e-08 2.01935e-15
 -6.36139e-16 1.05966e-08 4.65417e-15
 -1.99601e-15 1.05966e-08 -4.08526e-14
 -2.63485e-15 1.05966e-08 2.01935e-15
 -3.2737e-15 1.05966e-08 4.48913e-14
 -1.07642e-15 1.05966e-08 1.60681e-15
 -1.09488e-15 1.05966e-08 -6.88761e-16
 -1.11334e-15 1.05966e-08 -2.98434e-15
 -3.20352e-15 1.05966e-08 -4.84911e-14
 -3.95424e-15 1.05966e-08 -6.88761e-16
 -4.70495e-15 1.05966e-08 4.71136e-14
 -4.65832e-14 1.05966e-08 2.28161e-15
 -4.66017e-14 1.05966e-08 1.79823e-15
 -4.66201e-14 1.05966e-08 1.31485e-15
 -4.87103e-14 1.05966e-08 -4.41919e-14
 -4.9461e-14 1.05966e-08 1.79823e-15
 -5.02117e-14 1.05966e-08 4.77884e-14
 -4.14343e-16 1.05966e-08 1.87151e-15
 -5.25241e-16 1.05966e-08 3.24289e-15
 -6.36139e-16 1.05966e-08 4.61427e-15
 -1.99601e-15 1.05966e-08 -4.08925e-14
 -2.63485e-15 1.05966e-08 3.24289e-15
 -3.2737e-15 1.05966e-08 4.73783e-14
 4.57545e-14 1.05966e-08 1.46142e-15
 4.55512e-14 1.05966e-08 4.68755e-15
 4.53478e-14 1.05966e-08 7.91368e-15
 4.47183e-14 1.05966e-08 -3.75931e-14
 4.41913e-14 1.05966e-08 4.68755e-15
 4.36643e-14 1.05966e-08 4.69682e-14
 -1.56092e-16 2.78074e-10 -3.07834e-15
 -2.06681e-16 2.78074e-10 4.90047e-15
 -2.5727e-16 2.78074e-10 1.28793e-14
 -6.35889e-16 2.78074e-10 -7.2964e-14
 -5.82175e-16 2.78074e-10 4.90047e-15
 -5.28461e-16 2.78074e-10 8.27649e-14
 -3.5156e-17 2.78074e-10 -2.72174e-15
 -2.30217e-16 2.78074e-10 2.7551e-15
 -4.25279e-16 2.78074e-10 8.23194e-15
 -8.00773e-16 2.78074e-10 -7.76113e-14
 -9.35502e-16 2.78074e-10 2.7551e-15
 -1.07023e-15 2.78074e-10 8.31215e-14
 8.57797e-17 2.78074e-10 -2.36514e-15
 -2.53754e-16 2.78074e-10 6.09732e-16
 -5.93287e-16 2.78074e-10 3.58461e-15
 -9.65657e-16 2.78074e-10 -8.22586e-14
 -1.28883e-15 2.78074e-10 6.09732e-16
 -1.612e-15 2.78074e-10 8.34781e-14
 -8.57575e-14 2.78074e-10 -9.60946e-16
 -8.6097e-14 2.78074e-10 2.45705e-15
 -8.64365e-14 2.78074e-10 5.87504e-15
 -8.68089e-14 2.78074e-10 -7.99682e-14
 -8.71321e-14 2.78074e-10 2.45705e-15
 -8.74553e-14 2.78074e-10 8.48823e-14
 -3.5156e-17 2.78074e-10 -8.74426e-16
 -2.30217e-16 2.78074e-10 1.46e-15
 -4.25279e-16 2.78074e-10 3.79443e-15
 -8.00773e-16 2.78074e-10 -8.20488e-14
 -9.35502e-16 2.78074e-10 1.46e-15
 -1.07023e-15 2.78074e-10 8.49688e-14
 8.56872e-14 2.78074e-10 -7.87907e-16
 8.56366e-14 2.78074e-10 4.62955e-16
 8.5586e-14 2.78074e-10 1.71382e-15
 8.52074e-14 2.78074e-10 -8.41294e-14
 8.52611e-14 2.78074e-10 4.62955e-16
 8.53148e-14 2.78074e-10 8.50553e-14
 -4.68292e-16 -4.12571e-08 -3.2643e-15
 -4.00796e-16 -4.12571e-08 5.03424e-15
 -3.33299e-16 -4.12571e-08 1.33328e-14
 -5.17916e-16 -4.12571e-08 -1.03694e-13
 -1.52882e-17 -4.12571e-08 5.03424e-15
 4.87339e-16 -4.12571e-08 1.13763e-13
 2.57988e-16 -4.12571e-08 -4.35004e-15
 -2.14052e-18 -4.12571e-08 3.32393e-15
 -2.62269e-16 -4.12571e-08 1.09979e-14
 1.23238e-16 -4.12571e-08 -1.06029e-13
 3.78221e-16 -4.12571e-08 3.32393e-15
 6.33205e-16 -4.12571e-08 1.12677e-13
 9.84268e-16 -4.12571e-08 -5.43578e-15
 3.96514e-16 -4.12571e-08 1.61362e-15
 -1.91239e-16 -4.12571e-08 8.66301e-15
 7.64392e-16 -4.12571e-08 -1.08364e-13
 7.71731e-16 -4.12571e-08 1.61362e-15
 7.7907e-16 -4.12571e-08 1.11591e-13
 -1.16043e-13 -4.12571e-08 -3.4677e-15
 -1.1663e-13 -4.12571e-08 2.96641e-15
 -1.17218e-13 -4.12571e-08 9.40051e-15
 -1.16262e-13 -4.12571e-08 -1.07626e-13
 -1.16255e-13 -4.12571e-08 2.96641e-15
 -1.16248e-13 -4.12571e-08 1.13559e-13
 2.57988e-16 -4.12571e-08 -2.99725e-15
 -2.14052e-18 -4.12571e-08 8.17249e-17
 -2.62269e-16 -4.12571e-08 3.1607e-15
 1.23238e-16 -4.12571e-08 -1.13866e-13
 3.78221e-16 -4.12571e-08 8.17249e-17
 6.33205e-16 -4.12571e-08 1.1403e-13
 1.16559e-13 -4.12571e-08 -2.5268e-15
 1.16626e-13 -4.12571e-08 -2.80296e-15
 1.16694e-13 -4.12571e-08 -3.07912e-15
 1.16509e-13 -4.12571e-08 -1.20106e-13
 1.17012e-13 -4.12571e-08 -2.80296e-15
 1.17514e-13 -4.12571e-08 1.145e-13
 -1.22386e-15 -8.67538e-08 1.95635e-15
 -2.36924e-16 -8.67538e-08 6.20351e-15
 7.50011e-16 -8.67538e-08 1.04507e-14
 -7.98422e-16 -8.67538e-08 -5.48187e-14
 1.3972e-15 -8.67538e-08 6.20351e-15
 3.59282e-15 -8.67538e-08 6.72257e-14
 -1.03062e-15 -8.67538e-08 -1.37801e-15
 -1.77021e-15 -8.67538e-08 4.91145e-15
 -2.50979e-15 -8.67538e-08 1.12009e-14
 -8.75668e-16 -8.67538e-08 -5.40685e-14
 -1.02509e-17 -8.67538e-08 4.91145e-15
 8.55166e-16 -8.67538e-08 6.38914e-14
 -8.37389e-16 -8.67538e-08 -4.71238e-15
 -3.30349e-15 -8.67538e-08 3.61939e-15
 -5.76959e-15 -8.67538e-08 1.19512e-14
 -9.52913e-16 -8.67538e-08 -5.33182e-14
 -1.4177e-15 -8.67538e-08 3.61939e-15
 -1.88249e-15 -8.67538e-08 6.0557e-14
 -6.61068e-14 -8.67538e-08 -3.4227e-15
 -6.85729e-14 -8.67538e-08 1.83328e-15
 -7.1039e-14 -8.67538e-08 7.08926e-15
 -6.62223e-14 -8.67538e-08 -5.81801e-14
 -6.66871e-14 -8.67538e-08 1.83328e-15
 -6.71519e-14 -8.67538e-08 6.18467e-14
 -1.03062e-15 -8.67538e-08 -3.16412e-15
 -1.77021e-15 -8.67538e-08 3.03207e-17
 -2.50979e-15 -8.67538e-08 3.22476e-15
 -8.75668e-16 -8.67538e-08 -6.20446e-14
 -1.02509e-17 -8.67538e-08 3.03207e-17
 8.55166e-16 -8.67538e-08 6.21052e-14
 6.40455e-14 -8.67538e-08 -2.90554e-15
 6.50324e-14 -8.67538e-08 -1.77264e-15
 6.60194e-14 -8.67538e-08 -6.39731e-16
 6.44709e-14 -8.67538e-08 -6.59091e-14
 6.66666e-14 -8.67538e-08 -1.77264e-15
 6.88622e-14 -8.67538e-08 6.23638e-14
 -1.27806e-15 -2.42598e-07 -1.3364e-15
 -1.8111e-15 -2.42598e-07 -1.05533e-15
 -2.34414e-15 -2.42598e-07 -7.74262e-16
 -1.56377e-15 -2.42598e-07 -1.29178e-13
 -9.60586e-16 -2.42598e-07 -1.05533e-15
 -3.57397e-16 -2.42598e-07 1.27068e-13
 1.8474e-15 -2.42598e-07 -9.39964e-16
 8.41762e-16 -2.42598e-07 -1.02025e-16
 -1.63873e-16 -2.42598e-07 7.35913e-16
 6.86642e-16 -2.42598e-07 -1.27668e-13
 3.06522e-16 -2.42598e-07 -1.02025e-16
 -7.35986e-17 -2.42598e-07 1.27464e-13
 4.97286e-15 -2.42598e-07 -5.43524e-16
 3.49463e-15 -2.42598e-07 8.51282e-16
 2.01639e-15 -2.42598e-07 2.24609e-15
 2.93706e-15 -2.42598e-07 -1.26158e-13
 1.57363e-15 -2.42598e-07 8.51282e-16
 2.102e-16 -2.42598e-07 1.27861e-13
 -1.23431e-13 -2.42598e-07 -1.43646e-15
 -1.24909e-13 -2.42598e-07 1.09611e-15
 -1.26388e-13 -2.42598e-07 3.62869e-15
 -1.25467e-13 -2.42598e-07 -1.24775e-13
 -1.2683e-13 -2.42598e-07 1.09611e-15
 -1.28194e-13 -2.42598e-07 1.26968e-13
 1.8474e-15 -2.42598e-07 -6.95131e-16
 8.41762e-16 -2.42598e-07 1.05915e-16
 -1.63873e-16 -2.42598e-07 9.06961e-16
 6.86642e-16 -2.42598e-07 -1.27497e-13
 3.06522e-16 -2.42598e-07 1.05915e-16
 -7.35986e-17 -2.42598e-07 1.27709e-13
 1.27126e-13 -2.42598e-07 4.62e-17
 1.26593e-13 -2.42598e-07 -8.84285e-16
 1.2606e-13 -2.42598e-07 -1.81477e-15
 1.2684e-13 -2.42598e-07 -1.30219e-13
 1.27443e-13 -2.42598e-07 -8.84285e-16
 1.28047e-13 -2.42598e-07 1.2845e-13
 -1.31946e-15 -3.52943e-07 -3.85256e-15
 -3.01398e-15 -3.52943e-07 -6.60212e-15
 -4.7085e-15 -3.52943e-07 -9.35168e-15
 -2.14861e-15 -3.52943e-07 -1.86e-13
 -2.76227e-15 -3.52943e-07 -6.60212e-15
 -3.37594e-15 -3.52943e-07 1.72796e-13
 4.04664e-15 -3.52943e-07 -6.05239e-16
 2.83771e-15 -3.52943e-07 -3.93305e-15
 1.62878e-15 -3.52943e-07 -7.26085e-15
 1.88049e-15 -3.52943e-07 -1.83909e-13
 5.48602e-16 -3.52943e-07 -3.93305e-15
 -7.83286e-16 -3.52943e-07 1.76043e-13
 9.41274e-15 -3.52943e-07 2.64208e-15
 8.6894e-15 -3.52943e-07 -1.26397e-15
 7.96606e-15 -3.52943e-07 -5.17002e-15
 5.90959e-15 -3.52943e-07 -1.81818e-13
 3.85948e-15 -3.52943e-07 -1.26397e-15
 1.80937e-15 -3.52943e-07 1.7929e-13
 -1.67236e-13 -3.52943e-07 8.13199e-17
 -1.67959e-13 -3.52943e-07 5.32811e-16
 -1.68682e-13 -3.52943e-07 9.84302e-16
 -1.70739e-13 -3.52943e-07 -1.75664e-13
 -1.72789e-13 -3.52943e-07 5.32811e-16
 -1.74839e-13 -3.52943e-07 1.7673e-13
 4.04664e-15 -3.52943e-07 1.19154e-15
 2.83771e-15 -3.52943e-07 1.63668e-16
 1.62878e-15 -3.52943e-07 -8.64207e-16
 1.88049e-15 -3.52943e-07 -1.77513e-13
 5.48602e-16 -3.52943e-07 1.63668e-16
 -7.83286e-16 -3.52943e-07 1.7784e-13
 1.75329e-13 -3.52943e-07 2.30176e-15
 1.73634e-13 -3.52943e-07 -2.05476e-16
 1.7194e-13 -3.52943e-07 -2.71272e-15
 1.745e-13 -3.52943e-07 -1.79361e-13
 1.73886e-13 -3.52943e-07 -2.05476e-16
 1.73272e-13 -3.52943e-07 1.7895e-13
 -4.1344e-15 -3.2537e-07 -3.78359e-15
 -5.96802e-15 -3.2537e-07 -5.25097e-15
 -7.80164e-15 -3.2537e-07 -6.71835e-15
 -4.46537e-15 -3.2537e-07 -1.13382e-13
 -4.62058e-15 -3.2537e-07 -5.25097e-15
 -4.77579e-15 -3.2537e-07 1.0288e-13
 4.76831e-15 -3.2537e-07 -9.01007e-16
 3.52908e-15 -3.2537e-07 -2.19392e-15
 2.28986e-15 -3.2537e-07 -3.48684e-15
 3.6373e-15 -3.2537e-07 -1.1015e-13
 1.95039e-15 -3.2537e-07 -2.19392e-15
 2.63478e-16 -3.2537e-07 1.05762e-13
 1.3671e-14 -3.2537e-07 1.98157e-15
 1.30262e-14 -3.2537e-07 8.63127e-16
 1.23814e-14 -3.2537e-07 -2.55318e-16
 1.174e-14 -3.2537e-07 -1.06919e-13
 8.52136e-15 -3.2537e-07 8.63127e-16
 5.30274e-15 -3.2537e-07 1.08645e-13
 -9.29923e-14 -3.2537e-07 -2.54222e-16
 -9.36372e-14 -3.2537e-07 1.24208e-15
 -9.4282e-14 -3.2537e-07 2.73839e-15
 -9.49234e-14 -3.2537e-07 -1.03925e-13
 -9.8142e-14 -3.2537e-07 1.24208e-15
 -1.01361e-13 -3.2537e-07 1.06409e-13
 4.76831e-15 -3.2537e-07 -5.2205e-16
 3.52908e-15 -3.2537e-07 8.4767e-16
 2.28986e-15 -3.2537e-07 2.21739e-15
 3.6373e-15 -3.2537e-07 -1.04446e-13
 1.95039e-15 -3.2537e-07 8.4767e-16
 2.63478e-16 -3.2537e-07 1.06141e-13
 1.02529e-13 -3.2537e-07 -7.89878e-16
 1.00695e-13 -3.2537e-07 4.53255e-16
 9.88617e-14 -3.2537e-07 1.69639e-15
 1.02198e-13 -3.2537e-07 -1.04967e-13
 1.02043e-13 -3.2537e-07 4.53255e-16
 1.01888e-13 -3.2537e-07 1.05873e-13
 -5.29142e-16 1.63962e-06 -2.94102e-16
 -1.44988e-15 1.63962e-06 -1.93189e-15
 -2.37063e-15 1.63962e-06 -3.56968e-15
 4.78681e-16 1.63962e-06 -1.88363e-13
 2.11318e-16 1.63962e-06 -1.93189e-15
 -5.60447e-17 1.63962e-06 1.84499e-13
 8.96065e-16 1.63962e-06 9.21756e-16
 3.02397e-16 1.63962e-06 -1.81377e-15
 -2.91271e-16 1.63962e-06 -4.54929e-15
 1.36993e-15 1.63962e-06 -1.89342e-13
 -8.91911e-16 1.63962e-06 -1.81377e-15
 -3.15375e-15 1.63962e-06 1.85715e-13
 2.32127e-15 1.63962e-06 2.13761e-15
 2.05468e-15 1.63962e-06 -1.69565e-15
 1.78808e-15 1.63962e-06 -5.5289e-15
 2.26118e-15 1.63962e-06 -1.90322e-13
 -1.99514e-15 1.63962e-06 -1.69565e-15
 -6.25146e-15 1.63962e-06 1.86931e-13
 -1.82472e-13 1.63962e-06 -4.57043e-16
 -1.82738e-13 1.63962e-06 -2.30592e-15
 -1.83005e-13 1.63962e-06 -4.15479e-15
 -1.82532e-13 1.63962e-06 -1.88948e-13
 -1.86788e-13 1.63962e-06 -2.30592e-15
 -1.91044e-13 1.63962e-06 1.84336e-13
 8.96065e-16 1.63962e-06 3.11483e-16
 3.02397e-16 1.63962e-06 -9.95472e-16
 -2.91271e-16 1.63962e-06 -2.30243e-15
 1.36993e-15 1.63962e-06 -1.87095e-13
 -8.91911e-16 1.63962e-06 -9.95472e-16
 -3.15375e-15 1.63962e-06 1.85104e-13
 1.84264e-13 1.63962e-06 1.08001e-15
 1.83343e-13 1.63962e-06 3.14974e-16
 1.82422e-13 1.63962e-06 -4.50061e-16
 1.85272e-13 1.63962e-06 -1.85243e-13
 1.85004e-13 1.63962e-06 3.14974e-16
 1.84737e-13 1.63962e-06 1.85873e-13
 2.32709e-15 3.20693e-06 2.47041e-15
 2.12956e-15 3.20693e-06 6.97611e-16
 1.93204e-15 3.20693e-06 -1.07519e-15
 4.39556e-15 3.20693e-06 -2.47766e-13
 4.03934e-15 3.20693e-06 6.97611e-16
 3.68313e-15 3.20693e-06 2.49161e-13
 -2.17168e-15 3.20693e-06 2.36583e-15
 -2.25392e-15 3.20693e-06 -1.51259e-15
 -2.33616e-15 3.20693e-06 -5.39101e-15
 -4.26379e-16 3.20693e-06 -2.52082e-13
 -3.1437e-15 3.20693e-06 -1.51259e-15
 -5.86102e-15 3.20693e-06 2.49056e-13
 -6.67045e-15 3.20693e-06 2.26124e-15
 -6.6374e-15 3.20693e-06 -3.7228e-15
 -6.60436e-15 3.20693e-06 -9.70684e-15
 -5.24832e-15 3.20693e-06 -2.56397e-13
 -1.03267e-14 3.20693e-06 -3.7228e-15
 -1.54052e-14 3.20693e-06 2.48952e-13
 -2.53361e-13 3.20693e-06 -6.17719e-16
 -2.53328e-13 3.20693e-06 -5.11678e-15
 -2.53295e-13 3.20693e-06 -9.61583e-15
 -2.51939e-13 3.20693e-06 -2.56306e-13
 -2.57017e-13 3.20693e-06 -5.11678e-15
 -2.62096e-13 3.20693e-06 2.46073e-13
 -2.17168e-15 3.20693e-06 9.71849e-16
 -2.25392e-15 3.20693e-06 -2.45567e-15
 -2.33616e-15 3.20693e-06 -5.88319e-15
 -4.26379e-16 3.20693e-06 -2.52574e-13
 -3.1437e-15 3.20693e-06 -2.45567e-15
 -5.86102e-15 3.20693e-06 2.47662e-13
 2.49018e-13 3.20693e-06 2.56142e-15
 2.4882e-13 3.20693e-06 2.05433e-16
 2.48623e-13 3.20693e-06 -2.15055e-15
 2.51086e-13 3.20693e-06 -2.48841e-13
 2.5073e-13 3.20693e-06 2.05433e-16
 2.50374e-13 3.20693e-06 2.49252e-13
 -1.58711e-16 4.19933e-06 -1.78153e-15
 -1.13706e-15 4.19933e-06 1.62143e-15
 -2.11542e-15 4.19933e-06 5.02439e-15
 7.34619e-16 4.19933e-06 -1.60939e-13
 -1.31587e-16 4.19933e-06 1.62143e-15
 -9.97793e-16 4.19933e-06 1.64181e-13
 -7.99575e-16 4.19933e-06 -2.0362e-15
 -9.15527e-16 4.19933e-06 -1.84851e-15
 -1.03148e-15 4.19933e-06 -1.66082e-15
 -2.60013e-17 4.19933e-06 -1.67624e-13
 -2.65414e-15 4.19933e-06 -1.84851e-15
 -5.28227e-15 4.19933e-06 1.63927e-13
 -1.44044e-15 4.19933e-06 -2.29087e-15
 -6.93989e-16 4.19933e-06 -5.31845e-15
 5.24602e-17 4.19933e-06 -8.34603e-15
 -7.86622e-16 4.19933e-06 -1.74309e-13
 -5.17669e-15 4.19933e-06 -5.31845e-15
 -9.56675e-15 4.19933e-06 1.63672e-13
 -1.67403e-13 4.19933e-06 -1.56438e-15
 -1.66657e-13 4.19933e-06 -3.68434e-15
 -1.65911e-13 4.19933e-06 -5.80431e-15
 -1.6675e-13 4.19933e-06 -1.71767e-13
 -1.7114e-13 4.19933e-06 -3.68434e-15
 -1.7553e-13 4.19933e-06 1.64399e-13
 -7.99575e-16 4.19933e-06 -4.02095e-16
 -9.15527e-16 4.19933e-06 -2.37123e-15
 -1.03148e-15 4.19933e-06 -4.34036e-15
 -2.60013e-17 4.19933e-06 -1.70303e-13
 -2.65414e-15 4.19933e-06 -2.37123e-15
 -5.28227e-15 4.19933e-06 1.65561e-13
 1.65804e-13 4.19933e-06 7.60187e-16
 1.64826e-13 4.19933e-06 -1.05811e-15
 1.63848e-13 4.19933e-06 -2.87642e-15
 1.66698e-13 4.19933e-06 -1.68839e-13
 1.65831e-13 4.19933e-06 -1.05811e-15
 1.64965e-13 4.19933e-06 1.66723e-13
 1.20981e-15 -3.64356e-06 3.71637e-16
 4.01805e-16 -3.64356e-06 2.29661e-16
 -4.06205e-16 -3.64356e-06 8.7686e-17
 1.40083e-15 -3.64356e-06 -2.49853e-13
 8.5693e-16 -3.64356e-06 2.29661e-16
 3.13029e-16 -3.64356e-06 2.50312e-13
 -6.60215e-16 -3.64356e-06 1.33837e-16
 1.3571e-16 -3.64356e-06 -7.2146e-16
 9.31636e-16 -3.64356e-06 -1.57676e-15
 1.38676e-15 -3.64356e-06 -2.51517e-13
 -4.83645e-16 -3.64356e-06 -7.2146e-16
 -2.35405e-15 -3.64356e-06 2.50074e-13
 -2.53025e-15 -3.64356e-06 -1.03962e-16
 -1.30384e-16 -3.64356e-06 -1.67258e-15
 2.26948e-15 -3.64356e-06 -3.2412e-15
 1.37269e-15 -3.64356e-06 -2.53182e-13
 -1.82422e-15 -3.64356e-06 -1.67258e-15
 -5.02113e-15 -3.64356e-06 2.49836e-13
 -2.52471e-13 -3.64356e-06 5.43993e-18
 -2.50071e-13 -3.64356e-06 -1.97128e-15
 -2.47671e-13 -3.64356e-06 -3.94801e-15
 -2.48568e-13 -3.64356e-06 -2.53888e-13
 -2.51765e-13 -3.64356e-06 -1.97128e-15
 -2.54961e-13 -3.64356e-06 2.49946e-13
 -6.60215e-16 -3.64356e-06 -1.64865e-16
 1.3571e-16 -3.64356e-06 -1.18524e-15
 9.31636e-16 -3.64356e-06 -2.20561e-15
 1.38676e-15 -3.64356e-06 -2.52146e-13
 -4.83645e-16 -3.64356e-06 -1.18524e-15
 -2.35405e-15 -3.64356e-06 2.49775e-13
 2.5115e-13 -3.64356e-06 -3.3517e-16
 2.50342e-13 -3.64356e-06 -3.99197e-16
 2.49534e-13 -3.64356e-06 -4.63224e-16
 2.51341e-13 -3.64356e-06 -2.50404e-13
 2.50797e-13 -3.64356e-06 -3.99197e-16
 2.50253e-13 -3.64356e-06 2.49605e-13
 2.3431e-15 -3.69186e-05 2.15469e-15
 1.67616e-15 -3.69186e-05 -9.22874e-16
 1.00921e-15 -3.69186e-05 -4.00044e-15
 1.95253e-15 -3.69186e-05 -3.23483e-13
 1.67553e-15 -3.69186e-05 -9.22874e-16
 1.39853e-15 -3.69186e-05 3.21637e-13
 -5.44811e-16 -3.69186e-05 1.93086e-15
 1.00625e-15 -3.69186e-05 2.11861e-16
 2.55731e-15 -3.69186e-05 -1.50714e-15
 2.55668e-15 -3.69186e-05 -3.2099e-13
 1.31376e-15 -3.69186e-05 2.11861e-16
 7.08355e-17 -3.69186e-05 3.21414e-13
 -3.43272e-15 -3.69186e-05 1.70704e-15
 3.36342e-16 -3.69186e-05 1.3466e-15
 4.10541e-15 -3.69186e-05 9.86157e-16