<?xml version="1.0"?>
<VTKFile type="UnstructuredGrid" version="0.1" byte_order="LittleEndian" compressor="vtkZLibDataCompressor">
<UnstructuredGrid>
<Piece NumberOfPoints="960" NumberOfCells="120">
<Points>
<DataArray type="Float32" NumberOfComponents="3" format="ascii">
-4.000000e+02 -6.000000e+03 -4.000000e+02
0.000000e+00 -6.000000e+03 -4.000000e+02
-4.000000e+02 -5.600010e+03 -4.000000e+02
8.435330e-10 -5.600010e+03 -4.000000e+02
-4.000000e+02 -6.000000e+03 0.000000e+00
0.000000e+00 -6.000000e+03 0.000000e+00
-4.000000e+02 -5.600010e+03 -1.914140e-11
9.766110e-10 -5.600010e+03 6.110840e-10
0.000000e+00 -6.000000e+03 -4.000000e+02
4.000000e+02 -6.000000e+03 -4.000000e+02
8.435330e-10 -5.600010e+03 -4.000000e+02
4.000000e+02 -5.600010e+03 -4.000000e+02
0.000000e+00 -6.000000e+03 0.000000e+00
4.000000e+02 -6.000000e+03 0.000000e+00
9.766110e-10 -5.600010e+03 6.110840e-10
4.000000e+02 -5.600010e+03 6.626620e-10
-4.000000e+02 -5.600010e+03 -4.000000e+02
8.435330e-10 -5.600010e+03 -4.000000e+02
-4.000000e+02 -5.200010e+03 -4.000000e+02
1.806300e-09 -5.200010e+03 -4.000000e+02
-4.000000e+02 -5.600010e+03 -1.914140e-11
9.766110e-10 -5.600010e+03 6.110840e-10
-4.000000e+02 -5.200010e+03 1.243830e-10
9.292040e-10 -5.200010e+03 7.879590e-10
8.435330e-10 -5.600010e+03 -4.000000e+02
4.000000e+02 -5.600010e+03 -4.000000e+02
1.806300e-09 -5.200010e+03 -4.000000e+02
4.000000e+02 -5.200010e+03 -4.000000e+02
9.766110e-10 -5.600010e+03 6.110840e-10
4.000000e+02 -5.600010e+03 6.626620e-10
9.292040e-10 -5.200010e+03 7.879590e-10
4.000000e+02 -5.200010e+03 1.079820e-09
-4.000000e+02 -5.200010e+03 -4.000000e+02
1.806300e-09 -5.200010e+03 -4.000000e+02
-4.000000e+02 -4.800030e+03 -4.000000e+02
1.544300e-09 -4.800030e+03 -4.000000e+02
-4.000000e+02 -5.200010e+03 1.243830e-10
9.292040e-10 -5.200010e+03 7.879590e-10
-4.000000e+02 -4.800030e+03 4.201560e-10
1.818730e-09 -4.800030e+03 1.258920e-09
1.806300e-09 -5.200010e+03 -4.000000e+02
4.000000e+02 -5.200010e+03 -4.000000e+02
1.544300e-09 -4.800030e+03 -4.000000e+02
4.000000e+02 -4.800030e+03 -4.000000e+02
9.292040e-10 -5.200010e+03 7.879590e-10
4.000000e+02 -5.200010e+03 1.079820e-09
1.818730e-09 -4.800030e+03 1.258920e-09
4.000000e+02 -4.800030e+03 1.668880e-09
-4.000000e+02 -4.800030e+03 -4.000000e+02
1.544300e-09 -4.800030e+03 -4.000000e+02
-4.000000e+02 -4.400050e+03 -4.000000e+02
2.123680e-09 -4.400050e+03 -4.000000e+02
-4.000000e+02 -4.800030e+03 4.201560e-10
1.818730e-09 -4.800030e+03 1.258920e-09
-4.000000e+02 -4.400050e+03 8.547180e-10
1.154500e-09 -4.400050e+03 1.681070e-09
1.544300e-09 -4.800030e+03 -4.000000e+02
4.000000e+02 -4.800030e+03 -4.000000e+02
2.123680e-09 -4.400050e+03 -4.000000e+02
4.000000e+02 -4.400050e+03 -4.000000e+02
1.818730e-09 -4.800030e+03 1.258920e-09
4.000000e+02 -4.800030e+03 1.668880e-09
1.154500e-09 -4.400050e+03 1.681070e-09
4.000000e+02 -4.400050e+03 2.842590e-09
-4.000000e+02 -4.400050e+03 -4.000000e+02
2.123680e-09 -4.400050e+03 -4.000000e+02
-4.000000e+02 -4.000090e+03 -4.000000e+02
2.123730e-09 -4.000090e+03 -4.000000e+02
-4.000000e+02 -4.400050e+03 8.547180e-10
1.154500e-09 -4.400050e+03 1.681070e-09
-4.000000e+02 -4.000090e+03 1.001330e-09
6.345920e-10 -4.000090e+03 6.458250e-10
2.123680e-09 -4.400050e+03 -4.000000e+02
4.000000e+02 -4.400050e+03 -4.000000e+02
2.123730e-09 -4.000090e+03 -4.000000e+02
4.000000e+02 -4.000090e+03 -4.000000e+02
1.154500e-09 -4.400050e+03 1.681070e-09
4.000000e+02 -4.400050e+03 2.842590e-09
6.345920e-10 -4.000090e+03 6.458250e-10
4.000000e+02 -4.000090e+03 1.922000e-09
-4.000000e+02 -4.000090e+03 -4.000000e+02
2.123730e-09 -4.000090e+03 -4.000000e+02
-4.000000e+02 -3.600150e+03 -4.000000e+02
1.863440e-09 -3.600150e+03 -4.000000e+02
-4.000000e+02 -4.000090e+03 1.001330e-09
6.345920e-10 -4.000090e+03 6.458250e-10
-4.000000e+02 -3.600150e+03 1.231890e-09
2.060470e-09 -3.600150e+03 1.456090e-09
2.123730e-09 -4.000090e+03 -4.000000e+02
4.000000e+02 -4.000090e+03 -4.000000e+02
1.863440e-09 -3.600150e+03 -4.000000e+02
4.000000e+02 -3.600150e+03 -4.000000e+02
6.345920e-10 -4.000090e+03 6.458250e-10
4.000000e+02 -4.000090e+03 1.922000e-09
2.060470e-09 -3.600150e+03 1.456090e-09
4.000000e+02 -3.600150e+03 2.040050e-09
-4.000000e+02 -3.600150e+03 -4.000000e+02
1.863440e-09 -3.600150e+03 -4.000000e+02
-4.000000e+02 -3.200220e+03 -4.000000e+02
2.142620e-09 -3.200220e+03 -4.000000e+02
-4.000000e+02 -3.600150e+03 1.231890e-09
2.060470e-09 -3.600150e+03 1.456090e-09
-4.000000e+02 -3.200220e+03 1.840680e-09
1.351880e-09 -3.200220e+03 1.640870e-09
1.863440e-09 -3.600150e+03 -4.000000e+02
4.000000e+02 -3.600150e+03 -4.000000e+02
2.142620e-09 -3.200220e+03 -4.000000e+02
4.000000e+02 -3.200220e+03 -4.000000e+02
2.060470e-09 -3.600150e+03 1.456090e-09
4.000000e+02 -3.600150e+03 2.040050e-09
1.351880e-09 -3.200220e+03 1.640870e-09
4.000000e+02 -3.200220e+03 1.962820e-09
-4.000000e+02 -3.200220e+03 -4.000000e+02
2.142620e-09 -3.200220e+03 -4.000000e+02
-4.000000e+02 -2.800280e+03 -4.000000e+02
2.325030e-09 -2.800280e+03 -4.000000e+02
-4.000000e+02 -3.200220e+03 1.840680e-09
1.351880e-09 -3.200220e+03 1.640870e-09
-4.000000e+02 -2.800280e+03 1.310470e-09
9.278420e-10 -2.800280e+03 1.618350e-09
2.142620e-09 -3.200220e+03 -4.000000e+02
4.000000e+02 -3.200220e+03 -4.000000e+02
2.325030e-09 -2.800280e+03 -4.000000e+02
4.000000e+02 -2.800280e+03 -4.000000e+02
1.351880e-09 -3.200220e+03 1.640870e-09
4.000000e+02 -3.200220e+03 1.962820e-09
9.278420e-10 -2.800280e+03 1.618350e-09
4.000000e+02 -2.800280e+03 1.587540e-09
-4.000000e+02 -2.800280e+03 -4.000000e+02
2.325030e-09 -2.800280e+03 -4.000000e+02
-4.000000e+02 -2.400310e+03 -4.000000e+02
1.800480e-09 -2.400310e+03 -4.000000e+02
-4.000000e+02 -2.800280e+03 1.310470e-09
9.278420e-10 -2.800280e+03 1.618350e-09
-4.000000e+02 -2.400310e+03 8.875660e-10
1.915180e-09 -2.400310e+03 1.192820e-09
2.325030e-09 -2.800280e+03 -4.000000e+02
4.000000e+02 -2.800280e+03 -4.000000e+02
1.800480e-09 -2.400310e+03 -4.000000e+02
4.000000e+02 -2.400310e+03 -4.000000e+02
9.278420e-10 -2.800280e+03 1.618350e-09
4.000000e+02 -2.800280e+03 1.587540e-09
1.915180e-09 -2.400310e+03 1.192820e-09
4.000000e+02 -2.400310e+03 1.270170e-09
-4.000000e+02 -2.400310e+03 -4.000000e+02
1.800480e-09 -2.400310e+03 -4.000000e+02
-4.000000e+02 -2.000300e+03 -4.000000e+02
1.317720e-09 -2.000300e+03 -4.000000e+02
-4.000000e+02 -2.400310e+03 8.875660e-10
1.915180e-09 -2.400310e+03 1.192820e-09
-4.000000e+02 -2.000300e+03 -2.734770e-10
1.356040e-09 -2.000300e+03 -9.275170e-11
1.800480e-09 -2.400310e+03 -4.000000e+02
4.000000e+02 -2.400310e+03 -4.000000e+02
1.317720e-09 -2.000300e+03 -4.000000e+02
4.000000e+02 -2.000300e+03 -4.000000e+02
1.915180e-09 -2.400310e+03 1.192820e-09
4.000000e+02 -2.400310e+03 1.270170e-09
1.356040e-09 -2.000300e+03 -9.275170e-11
4.000000e+02 -2.000300e+03 2.476490e-10
-4.000000e+02 -2.000300e+03 -4.000000e+02
1.317720e-09 -2.000300e+03 -4.000000e+02
-4.000000e+02 -1.600270e+03 -4.000000e+02
1.039580e-09 -1.600270e+03 -4.000000e+02
-4.000000e+02 -2.000300e+03 -2.734770e-10
1.356040e-09 -2.000300e+03 -9.275170e-11
-4.000000e+02 -1.600270e+03 -4.573490e-10
1.023890e-09 -1.600270e+03 -1.986110e-10
1.317720e-09 -2.000300e+03 -4.000000e+02
4.000000e+02 -2.000300e+03 -4.000000e+02
1.039580e-09 -1.600270e+03 -4.000000e+02
4.000000e+02 -1.600270e+03 -4.000000e+02
1.356040e-09 -2.000300e+03 -9.275170e-11
4.000000e+02 -2.000300e+03 2.476490e-10
1.023890e-09 -1.600270e+03 -1.986110e-10
4.000000e+02 -1.600270e+03 6.502390e-10
-4.000000e+02 -1.600270e+03 -4.000000e+02
1.039580e-09 -1.600270e+03 -4.000000e+02
-4.000000e+02 -1.200260e+03 -4.000000e+02
1.167160e-09 -1.200260e+03 -4.000000e+02
-4.000000e+02 -1.600270e+03 -4.573490e-10
1.023890e-09 -1.600270e+03 -1.986110e-10
-4.000000e+02 -1.200260e+03 -7.848420e-10
9.836280e-10 -1.200260e+03 -3.579310e-10
1.039580e-09 -1.600270e+03 -4.000000e+02
4.000000e+02 -1.600270e+03 -4.000000e+02
1.167160e-09 -1.200260e+03 -4.000000e+02
4.000000e+02 -1.200260e+03 -4.000000e+02
1.023890e-09 -1.600270e+03 -1.986110e-10
4.000000e+02 -1.600270e+03 6.502390e-10
9.836280e-10 -1.200260e+03 -3.579310e-10
4.000000e+02 -1.200260e+03 -3.666510e-11
-4.000000e+02 -1.200260e+03 -4.000000e+02
1.167160e-09 -1.200260e+03 -4.000000e+02
-4.000000e+02 -8.002740e+02 -4.000000e+02
7.226430e-10 -8.002740e+02 -4.000000e+02
-4.000000e+02 -1.200260e+03 -7.848420e-10
9.836280e-10 -1.200260e+03 -3.579310e-10
-4.000000e+02 -8.002740e+02 -1.024320e-09
4.105620e-10 -8.002740e+02 -4.299810e-10
1.167160e-09 -1.200260e+03 -4.000000e+02
4.000000e+02 -1.200260e+03 -4.000000e+02
7.226430e-10 -8.002740e+02 -4.000000e+02
4.000000e+02 -8.002740e+02 -4.000000e+02
9.836280e-10 -1.200260e+03 -3.579310e-10
4.000000e+02 -1.200260e+03 -3.666510e-11
4.105620e-10 -8.002740e+02 -4.299810e-10
4.000000e+02 -8.002740e+02 -3.677920e-10
-4.000000e+02 -8.002740e+02 -4.000000e+02
7.226430e-10 -8.002740e+02 -4.000000e+02
-4.000000e+02 -4.002890e+02 -4.000000e+02
6.820050e-10 -4.002890e+02 -4.000000e+02
-4.000000e+02 -8.002740e+02 -1.024320e-09
4.105620e-10 -8.002740e+02 -4.299810e-10
-4.000000e+02 -4.002890e+02 -5.171250e-10
5.418210e-11 -4.002890e+02 -2.312260e-11
7.226430e-10 -8.002740e+02 -4.000000e+02
4.000000e+02 -8.002740e+02 -4.000000e+02
6.820050e-10 -4.002890e+02 -4.000000e+02
4.000000e+02 -4.002890e+02 -4.000000e+02
4.105620e-10 -8.002740e+02 -4.299810e-10
4.000000e+02 -8.002740e+02 -3.677920e-10
5.418210e-11 -4.002890e+02 -2.312260e-11
4.000000e+02 -4.002890e+02 9.157700e-11
-4.000000e+02 -4.002890e+02 -4.000000e+02
6.820050e-10 -4.002890e+02 -4.000000e+02
-4.000000e+02 -2.815070e-01 -4.000000e+02
1.048870e-09 -2.815070e-01 -4.000000e+02
-4.000000e+02 -4.002890e+02 -5.171250e-10
5.418210e-11 -4.002890e+02 -2.312260e-11
-4.000000e+02 -2.815070e-01 -9.178990e-10
7.689320e-10 -2.815070e-01 -3.714230e-11
6.820050e-10 -4.002890e+02 -4.000000e+02
4.000000e+02 -4.002890e+02 -4.000000e+02
1.048870e-09 -2.815070e-01 -4.000000e+02
4.000000e+02 -2.815070e-01 -4.000000e+02
5.418210e-11 -4.002890e+02 -2.312260e-11
[...]
<PointData>
<DataArray type="Float32" Name="V1" format="ascii">
0.000000e+00
0.000000e+00
-7.070060e-10
-1.695940e-09
0.000000e+00
0.000000e+00
7.070060e-10
9.268270e-10
0.000000e+00
0.000000e+00
-1.695940e-09
-3.770700e-10
0.000000e+00
0.000000e+00
9.268270e-10
0.000000e+00
-7.070060e-10
-1.695940e-09
-4.713380e-11
-2.282310e-10
7.070060e-10
9.268270e-10
-3.299360e-10
-2.967680e-10
-1.695940e-09
-3.770700e-10
-2.282310e-10
-3.927810e-10
9.268270e-10
0.000000e+00
-2.967680e-10
-1.021230e-09
-4.713380e-11
-2.282310e-10
3.299360e-10
4.610450e-10
-3.299360e-10
-2.967680e-10
5.813160e-10
-7.516730e-11
-2.282310e-10
-3.927810e-10
4.610450e-10
9.112530e-10
-2.967680e-10
-1.021230e-09
-7.516730e-11
-7.384290e-10
3.299360e-10
4.610450e-10
-1.728240e-10
-1.237780e-09
5.813160e-10
-7.516730e-11
1.209770e-09
1.004870e-09
4.610450e-10
9.112530e-10
-1.237780e-09
-6.127390e-10
-7.516730e-11
-7.384290e-10
1.004870e-09
-5.341830e-10
-1.728240e-10
-1.237780e-09
-1.571130e-11
1.037390e-09
1.209770e-09
1.004870e-09
-4.399150e-10
-5.326090e-10
-1.237780e-09
-6.127390e-10
1.037390e-09
1.791080e-09
1.004870e-09
-5.341830e-10
-5.326090e-10
-5.341830e-10
-1.571130e-11
1.037390e-09
1.681100e-09
-1.033950e-10
-4.399150e-10
-5.326090e-10
-1.414010e-09
8.370340e-11
1.037390e-09
1.791080e-09
-1.033950e-10
-1.021230e-09
-5.326090e-10
-5.341830e-10
8.370340e-11
1.115500e-09
1.681100e-09
-1.033950e-10
-1.712530e-09
-7.131680e-10
-1.414010e-09
8.370340e-11
1.523990e-09
1.717290e-09
-1.033950e-10
-1.021230e-09
-7.131680e-10
2.985140e-10
8.370340e-11
1.115500e-09
1.717290e-09
9.898090e-10
-1.712530e-09
-7.131680e-10
3.613590e-10
-2.136460e-10
1.523990e-09
1.717290e-09
1.571130e-10
-2.522750e-10
-7.131680e-10
2.985140e-10
-2.136460e-10
-1.414010e-10
1.717290e-09
9.898090e-10
-2.522750e-10
4.084930e-10
3.613590e-10
-2.136460e-10
8.641190e-10
4.394790e-10
1.571130e-10
-2.522750e-10
-4.713380e-10
-9.508180e-12
-2.136460e-10
-1.414010e-10
4.394790e-10
-9.426750e-11
-2.522750e-10
4.084930e-10
-9.508180e-12
1.429720e-09
8.641190e-10
4.394790e-10
-2.670910e-09
4.515780e-11
-4.713380e-10
-9.508180e-12
1.414010e-10
2.083930e-10
4.394790e-10
-9.426750e-11
4.515780e-11
1.366880e-09
-9.508180e-12
1.429720e-09
2.083930e-10
8.169850e-10
-2.670910e-09
4.515780e-11
-4.242040e-10
-8.467430e-10
1.414010e-10
2.083930e-10
-3.456480e-10
-6.490990e-10
4.515780e-11
1.366880e-09
-8.467430e-10
-2.985140e-10
2.083930e-10
8.169850e-10
-6.490990e-10
-4.242040e-10
-4.242040e-10
-8.467430e-10
-6.284500e-10
-2.587360e-10
-3.456480e-10
-6.490990e-10
-1.209770e-09
7.727260e-11
-8.467430e-10
-2.985140e-10
-2.587360e-10
-6.284500e-11
-6.490990e-10
-4.242040e-10
7.727260e-11
1.885350e-10
-6.284500e-10
-2.587360e-10
5.813160e-10
-5.036690e-10
-1.209770e-09
7.727260e-11
8.169850e-10
-3.949090e-11
-2.587360e-10
-6.284500e-11
-5.036690e-10
-1.068370e-09
7.727260e-11
1.885350e-10
-3.949090e-11
1.099790e-10
5.813160e-10
-5.036690e-10
6.127390e-10
-3.688840e-10
8.169850e-10
-3.949090e-11
-3.613590e-10
-4.905570e-10
-5.036690e-10
-1.068370e-09
-3.688840e-10
-5.656050e-10
-3.949090e-11
1.099790e-10
-4.905570e-10
0.000000e+00
6.127390e-10
-3.688840e-10
1.084080e-09
4.801730e-10
-3.613590e-10
-4.905570e-10
-1.885350e-10
-4.674340e-10
-3.688840e-10
-5.656050e-10
4.801730e-10
1.304030e-09
-4.905570e-10
0.000000e+00
-4.674340e-10
1.366880e-09
1.084080e-09
4.801730e-10
0.000000e+00
3.306090e-10
-1.885350e-10
-4.674340e-10
9.269640e-10
8.069500e-11
4.801730e-10
1.304030e-09
3.306090e-10
6.284500e-11
-4.674340e-10
1.366880e-09
8.069500e-11
0.000000e+00
0.000000e+00
3.306090e-10
6.912950e-10
-2.947380e-10
9.269640e-10
8.069500e-11
-4.399150e-10
3.591350e-10
3.306090e-10
6.284500e-11
-2.947380e-10
0.000000e+00
8.069500e-11
0.000000e+00
3.591350e-10
0.000000e+00
6.912950e-10
-2.947380e-10
2.042460e-10
1.909500e-10
-4.399150e-10
3.591350e-10
-6.284500e-11
-4.157050e-10
-2.947380e-10
0.000000e+00
1.909500e-10
3.770700e-10
3.591350e-10
0.000000e+00
-4.157050e-10
0.000000e+00
2.042460e-10
1.909500e-10
1.571130e-11
-2.953400e-10
-6.284500e-11
-4.157050e-10
-2.985140e-10
-1.059320e-10
1.909500e-10
3.770700e-10
-2.953400e-10
-1.523990e-09
-4.157050e-10
0.000000e+00
-1.059320e-10
-3.770700e-10
1.571130e-11
-2.953400e-10
4.556260e-10
-2.950860e-11
-2.985140e-10
-1.059320e-10
2.042460e-10
-4.668490e-11
-2.953400e-10
-1.523990e-09
-2.950860e-11
0.000000e+00
-1.059320e-10
-3.770700e-10
-4.668490e-11
0.000000e+00
4.556260e-10
-2.950860e-11
-2.152440e-09
-5.552200e-10
2.042460e-10
-4.668490e-11
2.985140e-10
-7.076530e-11
-2.950860e-11
0.000000e+00
-5.552200e-10
1.288320e-09
-4.668490e-11
0.000000e+00
-7.076530e-11
-2.985140e-10
-2.152440e-09
-5.552200e-10
4.556260e-10
2.195050e-10
2.985140e-10
-7.076530e-11
-4.713380e-11
8.274000e-12
-5.552200e-10
1.288320e-09
2.195050e-10
0.000000e+00
-7.076530e-11
-2.985140e-10
8.274000e-12
1.571130e-10
4.556260e-10
2.195050e-10
2.183860e-09
5.161560e-10
-4.713380e-11
8.274000e-12
-9.112530e-10
-2.470190e-11
2.195050e-10
0.000000e+00
5.161560e-10
-1.178340e-09
8.274000e-12
1.571130e-10
-2.470190e-11
9.269640e-10
2.183860e-09
5.161560e-10
-1.728240e-10
1.241430e-10
-9.112530e-10
-2.470190e-11
1.256900e-10
5.950970e-11
5.161560e-10
-1.178340e-09
1.241430e-10
3.613590e-10
-2.470190e-11
9.269640e-10
5.950970e-11
0.000000e+00
-1.728240e-10
1.241430e-10
-6.598730e-10
-7.875540e-11
1.256900e-10
5.950970e-11
3.770700e-10
9.976290e-11
1.241430e-10
3.613590e-10
-7.875540e-11
4.242040e-10
5.950970e-11
0.000000e+00
9.976290e-11
-2.356690e-10
-6.598730e-10
-7.875540e-11
-3.770700e-10
-1.499760e-10
3.770700e-10
9.976290e-11
0.000000e+00
3.742860e-12
-7.875540e-11
4.242040e-10
-1.499760e-10
0.000000e+00
9.976290e-11
-2.356690e-10
3.742860e-12
0.000000e+00
-3.770700e-10
-1.499760e-10
1.099790e-10
5.422090e-11
0.000000e+00
3.742860e-12
0.000000e+00
2.143010e-11
-1.499760e-10
0.000000e+00
5.422090e-11
0.000000e+00
3.742860e-12
0.000000e+00
2.143010e-11
0.000000e+00
1.099790e-10
5.422090e-11
0.000000e+00
-1.024260e-11
0.000000e+00
2.143010e-11
0.000000e+00
-1.555730e-11
5.422090e-11
0.000000e+00
-1.024260e-11
0.000000e+00
2.143010e-11
0.000000e+00
-1.555730e-11
0.000000e+00
0.000000e+00
-1.024260e-11
0.000000e+00
-1.564870e-11
0.000000e+00
-1.555730e-11
0.000000e+00
-1.738330e-11
-1.024260e-11
0.000000e+00
-1.564870e-11
0.000000e+00
-1.555730e-11
0.000000e+00
-1.738330e-11
0.000000e+00
0.000000e+00
-1.564870e-11
0.000000e+00
1.402240e-11
0.000000e+00
-1.738330e-11
1.571130e-11
2.476120e-11
-1.564870e-11
0.000000e+00
1.402240e-11
0.000000e+00
-1.738330e-11
0.000000e+00
2.476120e-11
0.000000e+00
0.000000e+00
0.000000e+00
7.070060e-10
9.268270e-10
0.000000e+00
0.000000e+00
-1.084080e-09
-1.569680e-09
0.000000e+00
0.000000e+00
9.268270e-10
0.000000e+00
0.000000e+00
0.000000e+00
-1.569680e-09
-3.016560e-09
7.070060e-10
9.268270e-10
-3.299360e-10
-2.967680e-10
-1.084080e-09
-1.569680e-09
-2.828030e-10
1.283020e-09
9.268270e-10
0.000000e+00
-2.967680e-10
-1.021230e-09
-1.569680e-09
-3.016560e-09
1.283020e-09
3.173670e-09
-3.299360e-10
-2.967680e-10
5.813160e-10
-7.516730e-11
-2.828030e-10
1.283020e-09
-9.740980e-10
-5.640640e-10
-2.967680e-10
-1.021230e-09
-7.516730e-11
-7.384290e-10
1.283020e-09
3.173670e-09
-5.640640e-10
3.613590e-10
5.813160e-10
-7.516730e-11
1.209770e-09
1.004870e-09
-9.740980e-10
-5.640640e-10
-1.806790e-09
-3.794810e-10
-7.516730e-11
-7.384290e-10
1.004870e-09
-5.341830e-10
-5.640640e-10
3.613590e-10
-3.794810e-10
2.435240e-09
1.209770e-09
1.004870e-09
-4.399150e-10
-5.326090e-10
-1.806790e-09
-3.794810e-10
7.227180e-10
8.715460e-10
1.004870e-09
-5.341830e-10
-5.326090e-10
-5.341830e-10
-3.794810e-10
2.435240e-09
8.715460e-10
4.399150e-10
-4.399150e-10
-5.326090e-10
-1.414010e-09
8.370340e-11
7.227180e-10
8.715460e-10
1.618260e-09
1.722000e-10
-5.326090e-10
-5.341830e-10
8.370340e-11
1.115500e-09
8.715460e-10
4.399150e-10
1.722000e-10
-1.398300e-09
-1.414010e-09
8.370340e-11
1.523990e-09
1.717290e-09
1.618260e-09
1.722000e-10
-8.169850e-10
-4.965280e-10
8.370340e-11
1.115500e-09
1.717290e-09
9.898090e-10
1.722000e-10
-1.398300e-09
-4.965280e-10
1.209770e-09
1.523990e-09
1.717290e-09
1.571130e-10
-2.522750e-10
-8.169850e-10
-4.965280e-10
-1.052650e-09
-1.053780e-09
1.717290e-09
9.898090e-10
-2.522750e-10
4.084930e-10
-4.965280e-10
1.209770e-09
-1.053780e-09
-1.476860e-09
1.571130e-10
-2.522750e-10
-4.713380e-10
-9.508180e-12
-1.052650e-09
-1.053780e-09
2.042460e-10
-1.768640e-10
-2.522750e-10
4.084930e-10
-9.508180e-12
1.429720e-09
-1.053780e-09
-1.476860e-09
-1.768640e-10
1.571130e-10
-4.713380e-10
-9.508180e-12
1.414010e-10
2.083930e-10
2.042460e-10
-1.768640e-10
-1.963910e-09
-3.891640e-10
-9.508180e-12
1.429720e-09
2.083930e-10
8.169850e-10
-1.768640e-10
1.571130e-10
-3.891640e-10
-8.484080e-10
1.414010e-10
2.083930e-10
-3.456480e-10
-6.490990e-10
-1.963910e-09
-3.891640e-10
2.152440e-09
2.237460e-10
2.083930e-10
8.169850e-10
-6.490990e-10
-4.242040e-10
-3.891640e-10
-8.484080e-10
2.237460e-10
-1.319750e-09
-3.456480e-10
-6.490990e-10
-1.209770e-09
7.727260e-11
2.152440e-09
2.237460e-10
-4.242040e-10
-1.277190e-10
-6.490990e-10
-4.242040e-10
7.727260e-11
1.885350e-10
2.237460e-10
-1.319750e-09
-1.277190e-10
3.142250e-11
-1.209770e-09
7.727260e-11
8.169850e-10
-3.949090e-11
-4.242040e-10
-1.277190e-10
1.288320e-09
1.625240e-10
7.727260e-11
1.885350e-10
-3.949090e-11
1.099790e-10
-1.277190e-10
3.142250e-11
1.625240e-10
6.284500e-10
8.169850e-10
-3.949090e-11
-3.613590e-10
-4.905570e-10
1.288320e-09
1.625240e-10
0.000000e+00
5.272320e-11
-3.949090e-11
1.099790e-10
-4.905570e-10
0.000000e+00
1.625240e-10
6.284500e-10
5.272320e-11
9.740980e-10
-3.613590e-10
-4.905570e-10
-1.885350e-10
-4.674340e-10
0.000000e+00
5.272320e-11
1.885350e-10
6.495310e-10
-4.905570e-10
0.000000e+00
-4.674340e-10
1.366880e-09
5.272320e-11
9.740980e-10
6.495310e-10
8.326970e-10
-1.885350e-10
-4.674340e-10
9.269640e-10
8.069500e-11
1.885350e-10
6.495310e-10
1.052650e-09
6.964690e-10
-4.674340e-10
1.366880e-09
8.069500e-11
0.000000e+00
6.495310e-10
8.326970e-10
6.964690e-10
9.898090e-10
9.269640e-10
8.069500e-11
-4.399150e-10
3.591350e-10
1.052650e-09
6.964690e-10
0.000000e+00
-2.581970e-10
8.069500e-11
0.000000e+00
3.591350e-10
0.000000e+00
6.964690e-10
9.898090e-10
-2.581970e-10
-1.382590e-09
-4.399150e-10
3.591350e-10
-6.284500e-11
-4.157050e-10
0.000000e+00
-2.581970e-10
-2.199580e-10
-5.535610e-10
3.591350e-10
0.000000e+00
-4.157050e-10
0.000000e+00
-2.581970e-10
-1.382590e-09
-5.535610e-10
2.513800e-10
-6.284500e-11
-4.157050e-10
-2.985140e-10
-1.059320e-10
-2.199580e-10
-5.535610e-10
0.000000e+00
-4.185390e-10
-4.157050e-10
0.000000e+00
-1.059320e-10
-3.770700e-10
-5.535610e-10
2.513800e-10
-4.185390e-10
0.000000e+00
-2.985140e-10
-1.059320e-10
2.042460e-10
-4.668490e-11
0.000000e+00
-4.185390e-10
0.000000e+00
-1.586120e-10
-1.059320e-10
-3.770700e-10
-4.668490e-11
0.000000e+00
-4.185390e-10
0.000000e+00
-1.586120e-10
0.000000e+00
2.042460e-10
-4.668490e-11
2.985140e-10
-7.076530e-11
0.000000e+00
-1.586120e-10
0.000000e+00
7.420610e-10
-4.668490e-11
0.000000e+00
-7.076530e-11
-2.985140e-10
-1.586120e-10
0.000000e+00
7.420610e-10
1.555410e-09
2.985140e-10
-7.076530e-11
-4.713380e-11
8.274000e-12
0.000000e+00
7.420610e-10
0.000000e+00
-2.004900e-10
-7.076530e-11
-2.985140e-10
8.274000e-12
1.571130e-10
7.420610e-10
1.555410e-09
-2.004900e-10
-3.456480e-10
-4.713380e-11
8.274000e-12
-9.112530e-10
-2.470190e-11
0.000000e+00
-2.004900e-10
-1.099790e-10
-7.437560e-10
8.274000e-12
1.571130e-10
-2.470190e-11
9.269640e-10
-2.004900e-10
-3.456480e-10
-7.437560e-10
-1.288320e-09
-9.112530e-10
-2.470190e-11
1.256900e-10
5.950970e-11
-1.099790e-10
-7.437560e-10
-1.256900e-10
1.409110e-10
-2.470190e-11
9.269640e-10
5.950970e-11
0.000000e+00
-7.437560e-10
-1.288320e-09
1.409110e-10
4.399150e-10
1.256900e-10
5.950970e-11
3.770700e-10
9.976290e-11
-1.256900e-10
1.409110e-10
1.099790e-10
2.686290e-10
5.950970e-11
0.000000e+00
9.976290e-11
-2.356690e-10
1.409110e-10
4.399150e-10
2.686290e-10
2.985140e-10
3.770700e-10
9.976290e-11
0.000000e+00
3.742860e-12
1.099790e-10
2.686290e-10
2.356690e-10
8.635810e-11
9.976290e-11
-2.356690e-10
3.742860e-12
0.000000e+00
2.686290e-10
2.985140e-10
8.635810e-11
-4.713380e-11
0.000000e+00
3.742860e-12
0.000000e+00
2.143010e-11
2.356690e-10
8.635810e-11
0.000000e+00
6.709900e-12
3.742860e-12
0.000000e+00
2.143010e-11
0.000000e+00
8.635810e-11
-4.713380e-11
6.709900e-12
0.000000e+00
0.000000e+00
2.143010e-11
0.000000e+00
-1.555730e-11
0.000000e+00
6.709900e-12
0.000000e+00
-1.574790e-11
2.143010e-11
0.000000e+00
-1.555730e-11
0.000000e+00
6.709900e-12
0.000000e+00
-1.574790e-11
0.000000e+00
0.000000e+00
-1.555730e-11
0.000000e+00
-1.738330e-11
0.000000e+00
-1.574790e-11
0.000000e+00
-9.298930e-12
-1.555730e-11
0.000000e+00
-1.738330e-11
0.000000e+00
-1.574790e-11
0.000000e+00
-9.298930e-12
0.000000e+00
0.000000e+00
-1.738330e-11
1.571130e-11
2.476120e-11
0.000000e+00
-9.298930e-12
0.000000e+00
1.356620e-11
-1.738330e-11
0.000000e+00
2.476120e-11
0.000000e+00
-9.298930e-12
0.000000e+00
1.356620e-11
0.000000e+00
</DataArray>
<DataArray type="Float32" Name="V2" format="ascii">
0.000000e+00
0.000000e+00
1.922740e-03
1.922730e-03
0.000000e+00
0.000000e+00
1.922730e-03
1.922730e-03
0.000000e+00
0.000000e+00
1.922730e-03
1.922730e-03
0.000000e+00
0.000000e+00
1.922730e-03
1.922740e-03
1.922740e-03
1.922730e-03
3.833390e-03
3.833390e-03
1.922730e-03
1.922730e-03
3.833390e-03
3.833390e-03
1.922730e-03
1.922730e-03
3.833390e-03
3.833390e-03
1.922730e-03
1.922740e-03
3.833390e-03
3.833390e-03
3.833390e-03
3.833390e-03
9.671200e-03
9.671210e-03
3.833390e-03
3.833390e-03
9.671210e-03
9.671210e-03
3.833390e-03
3.833390e-03
9.671210e-03
9.671210e-03
3.833390e-03
3.833390e-03
9.671210e-03
9.671210e-03
9.671200e-03
9.671210e-03
1.859870e-02
1.859870e-02
9.671210e-03
9.671210e-03
1.859870e-02
1.859870e-02
9.671210e-03
9.671210e-03
1.859870e-02
1.859870e-02
9.671210e-03
9.671210e-03
1.859870e-02
1.859870e-02
1.859870e-02
1.859870e-02
3.204670e-02
3.204670e-02
1.859870e-02
1.859870e-02
3.204670e-02
3.204670e-02
1.859870e-02
1.859870e-02
3.204670e-02
3.204670e-02
1.859870e-02
1.859870e-02
3.204670e-02
3.204670e-02
3.204670e-02
3.204670e-02
4.439260e-02
4.439260e-02
3.204670e-02
3.204670e-02
4.439260e-02
4.439250e-02
3.204670e-02
3.204670e-02
4.439260e-02
4.439260e-02
3.204670e-02
3.204670e-02
4.439250e-02
4.439250e-02
4.439260e-02
4.439260e-02
4.910760e-02
4.910760e-02
4.439260e-02
4.439250e-02
4.910760e-02
4.910760e-02
4.439260e-02
4.439260e-02
4.910760e-02
4.910760e-02
4.439250e-02
4.439250e-02
4.910760e-02
4.910760e-02
4.910760e-02
4.910760e-02
3.683780e-02
3.683780e-02
4.910760e-02
4.910760e-02
3.683780e-02
3.683780e-02
4.910760e-02
4.910760e-02
3.683780e-02
3.683780e-02
4.910760e-02
4.910760e-02
3.683780e-02
3.683780e-02
3.683780e-02
3.683780e-02
6.374130e-03
6.374130e-03
3.683780e-02
3.683780e-02
6.374140e-03
6.374130e-03
3.683780e-02
3.683780e-02
6.374130e-03
6.374130e-03
3.683780e-02
3.683780e-02
6.374130e-03
6.374130e-03
6.374130e-03
6.374130e-03
-1.973710e-02
-1.973710e-02
6.374140e-03
6.374130e-03
-1.973710e-02
-1.973710e-02
6.374130e-03
6.374130e-03
-1.973710e-02
-1.973710e-02
6.374130e-03
6.374130e-03
-1.973710e-02
-1.973710e-02
-1.973710e-02
-1.973710e-02
-2.118200e-02
-2.118200e-02
-1.973710e-02
-1.973710e-02
-2.118200e-02
-2.118200e-02
-1.973710e-02
-1.973710e-02
-2.118200e-02
-2.118200e-02
-1.973710e-02
-1.973710e-02
-2.118200e-02
-2.118200e-02
-2.118200e-02
-2.118200e-02
6.914770e-04
6.914780e-04
-2.118200e-02
-2.118200e-02
6.914720e-04
6.914770e-04
-2.118200e-02
-2.118200e-02
6.914780e-04
6.914750e-04
-2.118200e-02
-2.118200e-02
6.914770e-04
6.914740e-04
6.914770e-04
6.914780e-04
1.591110e-02
1.591110e-02
6.914720e-04
6.914770e-04
1.591110e-02
1.591110e-02
6.914780e-04
6.914750e-04
1.591110e-02
1.591110e-02
6.914770e-04
6.914740e-04
1.591110e-02
1.591110e-02
1.591110e-02
1.591110e-02
1.060680e-03
1.060680e-03
1.591110e-02
1.591110e-02
1.060680e-03
1.060680e-03
1.591110e-02
1.591110e-02
1.060680e-03
1.060680e-03
1.591110e-02
1.591110e-02
1.060680e-03
1.060680e-03
1.060680e-03
1.060680e-03
-1.047790e-02
-1.047790e-02
1.060680e-03
1.060680e-03
-1.047790e-02
-1.047790e-02
1.060680e-03
1.060680e-03
-1.047790e-02
-1.047790e-02
1.060680e-03
1.060680e-03
-1.047790e-02
-1.047790e-02
-1.047790e-02
-1.047790e-02
1.440680e-04
1.440710e-04
-1.047790e-02
-1.047790e-02
1.440680e-04
1.440690e-04
-1.047790e-02
-1.047790e-02
1.440710e-04
1.440660e-04
-1.047790e-02
-1.047790e-02
1.440690e-04
1.440700e-04
1.440680e-04
1.440710e-04
4.502440e-03
4.502440e-03
1.440680e-04
1.440690e-04
4.502440e-03
4.502440e-03
1.440710e-04
1.440660e-04
4.502440e-03
4.502440e-03
1.440690e-04
1.440700e-04
4.502440e-03
4.502440e-03
4.502440e-03
4.502440e-03
-1.896750e-03
-1.896750e-03
4.502440e-03
4.502440e-03
-1.896750e-03
-1.896750e-03
4.502440e-03
4.502440e-03
-1.896750e-03
-1.896750e-03
4.502440e-03
4.502440e-03
-1.896750e-03
-1.896750e-03
-1.896750e-03
-1.896750e-03
-1.979730e-03
-1.979730e-03
-1.896750e-03
-1.896750e-03
-1.979740e-03
-1.979730e-03
-1.896750e-03
-1.896750e-03
-1.979730e-03
-1.979730e-03
-1.896750e-03
-1.896750e-03
-1.979730e-03
-1.979730e-03
-1.979730e-03
-1.979730e-03
9.443630e-04
9.443620e-04
-1.979740e-03
-1.979730e-03
9.443630e-04
9.443620e-04
-1.979730e-03
-1.979730e-03
9.443620e-04
9.443640e-04
-1.979730e-03
-1.979730e-03
9.443620e-04
9.443630e-04
9.443630e-04
9.443620e-04
-4.066900e-05
-4.067520e-05
9.443630e-04
9.443620e-04
-4.067320e-05
-4.067160e-05
9.443620e-04
9.443640e-04
-4.067520e-05
-4.067310e-05
9.443620e-04
9.443630e-04
-4.067160e-05
-4.067410e-05
-4.066900e-05
-4.067520e-05
-3.866320e-04
-3.866440e-04
-4.067320e-05
-4.067160e-05
-3.866400e-04
-3.866360e-04
-4.067520e-05
-4.067310e-05
-3.866440e-04
-3.866390e-04
-4.067160e-05
-4.067410e-05
-3.866360e-04
-3.866430e-04
-3.866320e-04
-3.866440e-04
9.197100e-05
9.198460e-05
-3.866400e-04
-3.866360e-04
9.198010e-05
9.197240e-05
-3.866440e-04
-3.866390e-04
9.198460e-05
9.197340e-05
-3.866360e-04
-3.866430e-04
9.197240e-05
9.198050e-05
9.197100e-05
9.198460e-05
1.155570e-05
1.155980e-05
9.198010e-05
9.197240e-05
1.155800e-05
1.155690e-05
9.198460e-05
9.197340e-05
1.155980e-05
1.155930e-05
9.197240e-05
9.198050e-05
1.155690e-05
1.155870e-05
1.155570e-05
1.155980e-05
-4.625780e-05
-4.625830e-05
1.155800e-05
1.155690e-05
-4.625980e-05
-4.625930e-05
1.155980e-05
1.155930e-05
-4.625830e-05
-4.625850e-05
1.155690e-05
1.155870e-05
-4.625930e-05
-4.625910e-05
-4.625780e-05
-4.625830e-05
3.738890e-05
3.738900e-05
-4.625980e-05
-4.625930e-05
3.738910e-05
3.738990e-05
-4.625830e-05
-4.625850e-05
3.738900e-05
3.738860e-05
-4.625930e-05
-4.625910e-05
3.738990e-05
3.738940e-05
3.738890e-05
3.738900e-05
5.022570e-05
5.022600e-05
3.738910e-05
3.738990e-05
5.022660e-05
5.022610e-05
3.738900e-05
3.738860e-05
5.022600e-05
5.022500e-05
3.738990e-05
3.738940e-05
5.022610e-05
5.022610e-05
5.022570e-05
5.022600e-05
2.654500e-05
2.654510e-05
5.022660e-05
5.022610e-05
2.654460e-05
2.654490e-05
5.022600e-05
5.022500e-05
2.654510e-05
2.654520e-05
5.022610e-05
5.022610e-05
2.654490e-05
2.654520e-05
2.654500e-05
2.654510e-05
2.302980e-04
2.302980e-04
2.654460e-05
2.654490e-05
2.302970e-04
2.302980e-04
2.654510e-05
2.654520e-05
2.302980e-04
2.302980e-04
2.654490e-05
2.654520e-05
2.302980e-04
2.302980e-04
2.302980e-04
2.302980e-04
1.084870e-04
1.084860e-04
2.302970e-04
2.302980e-04
1.084880e-04
1.084870e-04
2.302980e-04
2.302980e-04
1.084860e-04
1.084850e-04
2.302980e-04
2.302980e-04
1.084870e-04
1.084860e-04
0.000000e+00
0.000000e+00
1.922730e-03
1.922730e-03
0.000000e+00
0.000000e+00
1.922740e-03
1.922730e-03
0.000000e+00
0.000000e+00
1.922730e-03
1.922740e-03
0.000000e+00
0.000000e+00
1.922730e-03
1.922740e-03
1.922730e-03
1.922730e-03
3.833390e-03
3.833390e-03
1.922740e-03
1.922730e-03
3.833390e-03
3.833390e-03
1.922730e-03
1.922740e-03
3.833390e-03
3.833390e-03
1.922730e-03
1.922740e-03
3.833390e-03
3.833390e-03
3.833390e-03
3.833390e-03
9.671210e-03
9.671210e-03
3.833390e-03
3.833390e-03
9.671210e-03
9.671200e-03
3.833390e-03
3.833390e-03
9.671210e-03
9.671210e-03
3.833390e-03