<?xml version="1.0"?>
<VTKFile type="UnstructuredGrid" version="0.1" byte_order="LittleEndian" compressor="vtkZLibDataCompressor">
<UnstructuredGrid>
<Piece NumberOfPoints="960" NumberOfCells="120">
<Points>
<DataArray type="Float32" NumberOfComponents="3" format="ascii">
-4.000000e+02 -6.000000e+03 -4.000000e+02
0.000000e+00 -6.000000e+03 -4.000000e+02
-4.000000e+02 -5.600130e+03 -4.000000e+02
3.422120e-10 -5.600130e+03 -4.000000e+02
-4.000000e+02 -6.000000e+03 0.000000e+00
0.000000e+00 -6.000000e+03 0.000000e+00
-4.000000e+02 -5.600130e+03 1.422330e-10
5.834200e-10 -5.600130e+03 -8.937010e-12
0.000000e+00 -6.000000e+03 -4.000000e+02
4.000000e+02 -6.000000e+03 -4.000000e+02
3.422120e-10 -5.600130e+03 -4.000000e+02
4.000000e+02 -5.600130e+03 -4.000000e+02
0.000000e+00 -6.000000e+03 0.000000e+00
4.000000e+02 -6.000000e+03 0.000000e+00
5.834200e-10 -5.600130e+03 -8.937010e-12
4.000000e+02 -5.600130e+03 -3.756740e-10
-4.000000e+02 -5.600130e+03 -4.000000e+02
3.422120e-10 -5.600130e+03 -4.000000e+02
-4.000000e+02 -5.200210e+03 -4.000000e+02
5.380270e-10 -5.200210e+03 -4.000000e+02
-4.000000e+02 -5.600130e+03 1.422330e-10
5.834200e-10 -5.600130e+03 -8.937010e-12
-4.000000e+02 -5.200210e+03 7.471670e-10
7.194930e-10 -5.200210e+03 6.775920e-10
3.422120e-10 -5.600130e+03 -4.000000e+02
4.000000e+02 -5.600130e+03 -4.000000e+02
5.380270e-10 -5.200210e+03 -4.000000e+02
4.000000e+02 -5.200210e+03 -4.000000e+02
5.834200e-10 -5.600130e+03 -8.937010e-12
4.000000e+02 -5.600130e+03 -3.756740e-10
7.194930e-10 -5.200210e+03 6.775920e-10
4.000000e+02 -5.200210e+03 1.989340e-10
-4.000000e+02 -5.200210e+03 -4.000000e+02
5.380270e-10 -5.200210e+03 -4.000000e+02
-4.000000e+02 -4.800230e+03 -4.000000e+02
7.740990e-10 -4.800230e+03 -4.000000e+02
-4.000000e+02 -5.200210e+03 7.471670e-10
7.194930e-10 -5.200210e+03 6.775920e-10
-4.000000e+02 -4.800230e+03 8.234020e-10
3.265860e-10 -4.800230e+03 1.051050e-09
5.380270e-10 -5.200210e+03 -4.000000e+02
4.000000e+02 -5.200210e+03 -4.000000e+02
7.740990e-10 -4.800230e+03 -4.000000e+02
4.000000e+02 -4.800230e+03 -4.000000e+02
7.194930e-10 -5.200210e+03 6.775920e-10
4.000000e+02 -5.200210e+03 1.989340e-10
3.265860e-10 -4.800230e+03 1.051050e-09
4.000000e+02 -4.800230e+03 2.072020e-09
-4.000000e+02 -4.800230e+03 -4.000000e+02
7.740990e-10 -4.800230e+03 -4.000000e+02
-4.000000e+02 -4.400230e+03 -4.000000e+02
8.470140e-10 -4.400230e+03 -4.000000e+02
-4.000000e+02 -4.800230e+03 8.234020e-10
3.265860e-10 -4.800230e+03 1.051050e-09
-4.000000e+02 -4.400230e+03 1.824060e-09
6.333510e-10 -4.400230e+03 2.011540e-09
7.740990e-10 -4.800230e+03 -4.000000e+02
4.000000e+02 -4.800230e+03 -4.000000e+02
8.470140e-10 -4.400230e+03 -4.000000e+02
4.000000e+02 -4.400230e+03 -4.000000e+02
3.265860e-10 -4.800230e+03 1.051050e-09
4.000000e+02 -4.800230e+03 2.072020e-09
6.333510e-10 -4.400230e+03 2.011540e-09
4.000000e+02 -4.400230e+03 2.075120e-09
-4.000000e+02 -4.400230e+03 -4.000000e+02
8.470140e-10 -4.400230e+03 -4.000000e+02
-4.000000e+02 -4.000250e+03 -4.000000e+02
1.032090e-09 -4.000250e+03 -4.000000e+02
-4.000000e+02 -4.400230e+03 1.824060e-09
6.333510e-10 -4.400230e+03 2.011540e-09
-4.000000e+02 -4.000250e+03 2.239460e-09
6.726180e-10 -4.000250e+03 2.336230e-09
8.470140e-10 -4.400230e+03 -4.000000e+02
4.000000e+02 -4.400230e+03 -4.000000e+02
1.032090e-09 -4.000250e+03 -4.000000e+02
4.000000e+02 -4.000250e+03 -4.000000e+02
6.333510e-10 -4.400230e+03 2.011540e-09
4.000000e+02 -4.400230e+03 2.075120e-09
6.726180e-10 -4.000250e+03 2.336230e-09
4.000000e+02 -4.000250e+03 2.576220e-09
-4.000000e+02 -4.000250e+03 -4.000000e+02
1.032090e-09 -4.000250e+03 -4.000000e+02
-4.000000e+02 -3.600270e+03 -4.000000e+02
1.300150e-09 -3.600270e+03 -4.000000e+02
-4.000000e+02 -4.000250e+03 2.239460e-09
6.726180e-10 -4.000250e+03 2.336230e-09
-4.000000e+02 -3.600270e+03 1.475380e-09
8.976860e-10 -3.600270e+03 1.777910e-09
1.032090e-09 -4.000250e+03 -4.000000e+02
4.000000e+02 -4.000250e+03 -4.000000e+02
1.300150e-09 -3.600270e+03 -4.000000e+02
4.000000e+02 -3.600270e+03 -4.000000e+02
6.726180e-10 -4.000250e+03 2.336230e-09
4.000000e+02 -4.000250e+03 2.576220e-09
8.976860e-10 -3.600270e+03 1.777910e-09
4.000000e+02 -3.600270e+03 1.888030e-09
-4.000000e+02 -3.600270e+03 -4.000000e+02
1.300150e-09 -3.600270e+03 -4.000000e+02
-4.000000e+02 -3.200270e+03 -4.000000e+02
2.248930e-09 -3.200270e+03 -4.000000e+02
-4.000000e+02 -3.600270e+03 1.475380e-09
8.976860e-10 -3.600270e+03 1.777910e-09
-4.000000e+02 -3.200270e+03 1.791020e-09
1.380770e-09 -3.200270e+03 1.987190e-09
1.300150e-09 -3.600270e+03 -4.000000e+02
4.000000e+02 -3.600270e+03 -4.000000e+02
2.248930e-09 -3.200270e+03 -4.000000e+02
4.000000e+02 -3.200270e+03 -4.000000e+02
8.976860e-10 -3.600270e+03 1.777910e-09
4.000000e+02 -3.600270e+03 1.888030e-09
1.380770e-09 -3.200270e+03 1.987190e-09
4.000000e+02 -3.200270e+03 2.051120e-09
-4.000000e+02 -3.200270e+03 -4.000000e+02
2.248930e-09 -3.200270e+03 -4.000000e+02
-4.000000e+02 -2.800260e+03 -4.000000e+02
2.158970e-09 -2.800260e+03 -4.000000e+02
-4.000000e+02 -3.200270e+03 1.791020e-09
1.380770e-09 -3.200270e+03 1.987190e-09
-4.000000e+02 -2.800260e+03 6.540640e-10
1.222080e-09 -2.800260e+03 1.168060e-09
2.248930e-09 -3.200270e+03 -4.000000e+02
4.000000e+02 -3.200270e+03 -4.000000e+02
2.158970e-09 -2.800260e+03 -4.000000e+02
4.000000e+02 -2.800260e+03 -4.000000e+02
1.380770e-09 -3.200270e+03 1.987190e-09
4.000000e+02 -3.200270e+03 2.051120e-09
1.222080e-09 -2.800260e+03 1.168060e-09
4.000000e+02 -2.800260e+03 1.897170e-09
-4.000000e+02 -2.800260e+03 -4.000000e+02
2.158970e-09 -2.800260e+03 -4.000000e+02
-4.000000e+02 -2.400270e+03 -4.000000e+02
2.209620e-09 -2.400270e+03 -4.000000e+02
-4.000000e+02 -2.800260e+03 6.540640e-10
1.222080e-09 -2.800260e+03 1.168060e-09
-4.000000e+02 -2.400270e+03 -6.950120e-10
1.457150e-09 -2.400270e+03 6.889270e-11
2.158970e-09 -2.800260e+03 -4.000000e+02
4.000000e+02 -2.800260e+03 -4.000000e+02
2.209620e-09 -2.400270e+03 -4.000000e+02
4.000000e+02 -2.400270e+03 -4.000000e+02
1.222080e-09 -2.800260e+03 1.168060e-09
4.000000e+02 -2.800260e+03 1.897170e-09
1.457150e-09 -2.400270e+03 6.889270e-11
4.000000e+02 -2.400270e+03 8.098020e-10
-4.000000e+02 -2.400270e+03 -4.000000e+02
2.209620e-09 -2.400270e+03 -4.000000e+02
-4.000000e+02 -2.000270e+03 -4.000000e+02
1.421440e-09 -2.000270e+03 -4.000000e+02
-4.000000e+02 -2.400270e+03 -6.950120e-10
1.457150e-09 -2.400270e+03 6.889270e-11
-4.000000e+02 -2.000270e+03 -8.496210e-10
7.738440e-10 -2.000270e+03 -5.640210e-10
2.209620e-09 -2.400270e+03 -4.000000e+02
4.000000e+02 -2.400270e+03 -4.000000e+02
1.421440e-09 -2.000270e+03 -4.000000e+02
4.000000e+02 -2.000270e+03 -4.000000e+02
1.457150e-09 -2.400270e+03 6.889270e-11
4.000000e+02 -2.400270e+03 8.098020e-10
7.738440e-10 -2.000270e+03 -5.640210e-10
4.000000e+02 -2.000270e+03 5.583170e-10
-4.000000e+02 -2.000270e+03 -4.000000e+02
1.421440e-09 -2.000270e+03 -4.000000e+02
-4.000000e+02 -1.600270e+03 -4.000000e+02
5.773750e-10 -1.600270e+03 -4.000000e+02
-4.000000e+02 -2.000270e+03 -8.496210e-10
7.738440e-10 -2.000270e+03 -5.640210e-10
-4.000000e+02 -1.600270e+03 -9.286200e-10
3.016470e-10 -1.600270e+03 1.060060e-12
1.421440e-09 -2.000270e+03 -4.000000e+02
4.000000e+02 -2.000270e+03 -4.000000e+02
5.773750e-10 -1.600270e+03 -4.000000e+02
4.000000e+02 -1.600270e+03 -4.000000e+02
7.738440e-10 -2.000270e+03 -5.640210e-10
4.000000e+02 -2.000270e+03 5.583170e-10
3.016470e-10 -1.600270e+03 1.060060e-12
4.000000e+02 -1.600270e+03 1.248080e-10
-4.000000e+02 -1.600270e+03 -4.000000e+02
5.773750e-10 -1.600270e+03 -4.000000e+02
-4.000000e+02 -1.200270e+03 -4.000000e+02
2.938050e-10 -1.200270e+03 -4.000000e+02
-4.000000e+02 -1.600270e+03 -9.286200e-10
3.016470e-10 -1.600270e+03 1.060060e-12
-4.000000e+02 -1.200270e+03 -1.121370e-09
3.232360e-10 -1.200270e+03 -5.597480e-10
5.773750e-10 -1.600270e+03 -4.000000e+02
4.000000e+02 -1.600270e+03 -4.000000e+02
2.938050e-10 -1.200270e+03 -4.000000e+02
4.000000e+02 -1.200270e+03 -4.000000e+02
3.016470e-10 -1.600270e+03 1.060060e-12
4.000000e+02 -1.600270e+03 1.248080e-10
3.232360e-10 -1.200270e+03 -5.597480e-10
4.000000e+02 -1.200270e+03 -4.937690e-10
-4.000000e+02 -1.200270e+03 -4.000000e+02
2.938050e-10 -1.200270e+03 -4.000000e+02
-4.000000e+02 -8.002740e+02 -4.000000e+02
2.799210e-10 -8.002740e+02 -4.000000e+02
-4.000000e+02 -1.200270e+03 -1.121370e-09
3.232360e-10 -1.200270e+03 -5.597480e-10
-4.000000e+02 -8.002740e+02 -1.228680e-09
1.173090e-10 -8.002740e+02 -8.291640e-10
2.938050e-10 -1.200270e+03 -4.000000e+02
4.000000e+02 -1.200270e+03 -4.000000e+02
2.799210e-10 -8.002740e+02 -4.000000e+02
4.000000e+02 -8.002740e+02 -4.000000e+02
3.232360e-10 -1.200270e+03 -5.597480e-10
4.000000e+02 -1.200270e+03 -4.937690e-10
1.173090e-10 -8.002740e+02 -8.291640e-10
4.000000e+02 -8.002740e+02 -6.958360e-10
-4.000000e+02 -8.002740e+02 -4.000000e+02
2.799210e-10 -8.002740e+02 -4.000000e+02
-4.000000e+02 -4.002740e+02 -4.000000e+02
8.829910e-10 -4.002740e+02 -4.000000e+02
-4.000000e+02 -8.002740e+02 -1.228680e-09
1.173090e-10 -8.002740e+02 -8.291640e-10
-4.000000e+02 -4.002740e+02 -4.572360e-10
8.006520e-10 -4.002740e+02 -1.718700e-10
2.799210e-10 -8.002740e+02 -4.000000e+02
4.000000e+02 -8.002740e+02 -4.000000e+02
8.829910e-10 -4.002740e+02 -4.000000e+02
4.000000e+02 -4.002740e+02 -4.000000e+02
1.173090e-10 -8.002740e+02 -8.291640e-10
4.000000e+02 -8.002740e+02 -6.958360e-10
8.006520e-10 -4.002740e+02 -1.718700e-10
4.000000e+02 -4.002740e+02 3.269860e-10
-4.000000e+02 -4.002740e+02 -4.000000e+02
8.829910e-10 -4.002740e+02 -4.000000e+02
-4.000000e+02 -2.750330e-01 -4.000000e+02
4.443160e-10 -2.750330e-01 -4.000000e+02
-4.000000e+02 -4.002740e+02 -4.572360e-10
8.006520e-10 -4.002740e+02 -1.718700e-10
-4.000000e+02 -2.750330e-01 -5.588440e-10
4.165240e-10 -2.750330e-01 -3.040260e-10
8.829910e-10 -4.002740e+02 -4.000000e+02
4.000000e+02 -4.002740e+02 -4.000000e+02
4.443160e-10 -2.750330e-01 -4.000000e+02
4.000000e+02 -2.750330e-01 -4.000000e+02
8.006520e-10 -4.002740e+02 -1.718700e-10
[...]
<PointData>
<DataArray type="Float32" Name="V1" format="ascii">
0.000000e+00
0.000000e+00
1.084080e-09
1.269740e-09
0.000000e+00
0.000000e+00
-1.571130e-11
-5.915140e-10
0.000000e+00
0.000000e+00
1.269740e-09
1.728240e-09
0.000000e+00
0.000000e+00
-5.915140e-10
-1.351170e-09
1.084080e-09
1.269740e-09
6.441610e-10
2.373440e-10
-1.571130e-11
-5.915140e-10
-2.042460e-09
-8.833740e-10
1.269740e-09
1.728240e-09
2.373440e-10
-3.456480e-10
-5.915140e-10
-1.351170e-09
-8.833740e-10
1.414010e-09
6.441610e-10
2.373440e-10
2.356690e-10
-3.605470e-10
-2.042460e-09
-8.833740e-10
1.571130e-11
4.730050e-10
2.373440e-10
-3.456480e-10
-3.605470e-10
8.012740e-10
-8.833740e-10
1.414010e-09
4.730050e-10
-1.131210e-09
2.356690e-10
-3.605470e-10
9.740980e-10
1.405770e-09
1.571130e-11
4.730050e-10
2.042460e-10
-4.568260e-10
-3.605470e-10
8.012740e-10
1.405770e-09
2.215290e-09
4.730050e-10
-1.131210e-09
-4.568260e-10
-1.194060e-09
9.740980e-10
1.405770e-09
-8.641190e-10
-3.965480e-10
2.042460e-10
-4.568260e-10
7.070060e-10
3.460290e-10
1.405770e-09
2.215290e-09
-3.965480e-10
4.399150e-10
-4.568260e-10
-1.194060e-09
3.460290e-10
3.613590e-10
-8.641190e-10
-3.965480e-10
-5.184710e-10
-1.180230e-09
7.070060e-10
3.460290e-10
1.838220e-09
1.266620e-09
-3.965480e-10
4.399150e-10
-1.180230e-09
-1.932480e-09
3.460290e-10
3.613590e-10
1.266620e-09
-8.798300e-10
-5.184710e-10
-1.180230e-09
3.142250e-10
-2.929210e-10
1.838220e-09
1.266620e-09
-4.084930e-10
5.188820e-10
-1.180230e-09
-1.932480e-09
-2.929210e-10
-9.426750e-11
1.266620e-09
-8.798300e-10
5.188820e-10
1.131210e-09
3.142250e-10
-2.929210e-10
-1.414010e-10
-5.292210e-10
-4.084930e-10
5.188820e-10
-5.656050e-10
4.759310e-10
-2.929210e-10
-9.426750e-11
-5.292210e-10
4.084930e-10
5.188820e-10
1.131210e-09
4.759310e-10
1.901060e-09
-1.414010e-10
-5.292210e-10
-3.142250e-11
-1.710510e-10
-5.656050e-10
4.759310e-10
0.000000e+00
-7.479260e-11
-5.292210e-10
4.084930e-10
-1.710510e-10
-4.084930e-10
4.759310e-10
1.901060e-09
-7.479260e-11
2.985140e-10
-3.142250e-11
-1.710510e-10
6.755840e-10
8.228790e-10
0.000000e+00
-7.479260e-11
2.356690e-10
5.233670e-11
-1.710510e-10
-4.084930e-10
8.228790e-10
1.005520e-09
-7.479260e-11
2.985140e-10
5.233670e-11
0.000000e+00
6.755840e-10
8.228790e-10
3.299360e-10
2.937430e-10
2.356690e-10
5.233670e-11
7.698510e-10
-3.113580e-10
8.228790e-10
1.005520e-09
2.937430e-10
4.713380e-11
5.233670e-11
0.000000e+00
-3.113580e-10
-6.598730e-10
3.299360e-10
2.937430e-10
-1.209770e-09
-5.172310e-10
7.698510e-10
-3.113580e-10
-1.885350e-10
1.018540e-10
2.937430e-10
4.713380e-11
-5.172310e-10
1.319750e-09
-3.113580e-10
-6.598730e-10
1.018540e-10
-2.828030e-10
-1.209770e-09
-5.172310e-10
5.341830e-10
-1.724410e-10
-1.885350e-10
1.018540e-10
-2.828030e-10
1.613550e-10
-5.172310e-10
1.319750e-09
-1.724410e-10
1.728240e-10
1.018540e-10
-2.828030e-10
1.613550e-10
0.000000e+00
5.341830e-10
-1.724410e-10
-3.927810e-10
3.237350e-10
-2.828030e-10
1.613550e-10
0.000000e+00
-2.134700e-10
-1.724410e-10
1.728240e-10
3.237350e-10
7.070060e-10
1.613550e-10
0.000000e+00
-2.134700e-10
1.099790e-10
-3.927810e-10
3.237350e-10
6.598730e-10
-1.474020e-10
0.000000e+00
-2.134700e-10
7.070060e-10
2.767540e-10
3.237350e-10
7.070060e-10
-1.474020e-10
1.571130e-10
-2.134700e-10
1.099790e-10
2.767540e-10
8.326970e-10
6.598730e-10
-1.474020e-10
0.000000e+00
4.147260e-10
7.070060e-10
2.767540e-10
0.000000e+00
1.029410e-10
-1.474020e-10
1.571130e-10
4.147260e-10
1.256900e-10
2.767540e-10
8.326970e-10
1.029410e-10
-7.855630e-11
0.000000e+00
4.147260e-10
-4.242040e-10
-8.435270e-10
0.000000e+00
1.029410e-10
0.000000e+00
-1.791060e-10
4.147260e-10
1.256900e-10
-8.435270e-10
4.713380e-11
1.029410e-10
-7.855630e-11
-1.791060e-10
-3.299360e-10
-4.242040e-10
-8.435270e-10
0.000000e+00
3.438790e-10
0.000000e+00
-1.791060e-10
0.000000e+00
9.499270e-11
-8.435270e-10
4.713380e-11
3.438790e-10
6.284500e-11
-1.791060e-10
-3.299360e-10
9.499270e-11
-6.284500e-11
0.000000e+00
3.438790e-10
0.000000e+00
1.076950e-10
0.000000e+00
9.499270e-11
0.000000e+00
4.681780e-11
3.438790e-10
6.284500e-11
1.076950e-10
3.142250e-10
9.499270e-11
-6.284500e-11
4.681780e-11
0.000000e+00
0.000000e+00
1.076950e-10
0.000000e+00
-1.668080e-10
0.000000e+00
4.681780e-11
0.000000e+00
-8.729980e-11
1.076950e-10
3.142250e-10
-1.668080e-10
-2.828030e-10
4.681780e-11
0.000000e+00
-8.729980e-11
0.000000e+00
0.000000e+00
-1.668080e-10
0.000000e+00
-1.145720e-11
0.000000e+00
-8.729980e-11
0.000000e+00
-3.627890e-11
-1.668080e-10
-2.828030e-10
-1.145720e-11
0.000000e+00
-8.729980e-11
0.000000e+00
-3.627890e-11
0.000000e+00
0.000000e+00
-1.145720e-11
0.000000e+00
1.725810e-11
0.000000e+00
-3.627890e-11
0.000000e+00
1.366470e-11
-1.145720e-11
0.000000e+00
1.725810e-11
0.000000e+00
-3.627890e-11
0.000000e+00
1.366470e-11
0.000000e+00
0.000000e+00
1.725810e-11
0.000000e+00
-1.406180e-11
0.000000e+00
1.366470e-11
0.000000e+00
-1.325530e-11
1.725810e-11
0.000000e+00
-1.406180e-11
0.000000e+00
1.366470e-11
0.000000e+00
-1.325530e-11
0.000000e+00
0.000000e+00
-1.406180e-11
0.000000e+00
1.113740e-11
0.000000e+00
-1.325530e-11
0.000000e+00
8.828620e-12
-1.406180e-11
0.000000e+00
1.113740e-11
0.000000e+00
-1.325530e-11
0.000000e+00
8.828620e-12
0.000000e+00
0.000000e+00
1.113740e-11
0.000000e+00
4.088130e-11
0.000000e+00
8.828620e-12
0.000000e+00
4.857260e-11
1.113740e-11
0.000000e+00
4.088130e-11
0.000000e+00
8.828620e-12
0.000000e+00
4.857260e-11
0.000000e+00
0.000000e+00
4.088130e-11
0.000000e+00
2.115810e-11
0.000000e+00
4.857260e-11
0.000000e+00
2.196580e-11
4.088130e-11
0.000000e+00
2.115810e-11
0.000000e+00
4.857260e-11
0.000000e+00
2.196580e-11
0.000000e+00
0.000000e+00
2.115810e-11
0.000000e+00
-1.633500e-11
0.000000e+00
2.196580e-11
0.000000e+00
-2.084510e-11
2.115810e-11
0.000000e+00
-1.633500e-11
0.000000e+00
2.196580e-11
0.000000e+00
-2.084510e-11
0.000000e+00
0.000000e+00
-1.633500e-11
0.000000e+00
-1.055020e-11
0.000000e+00
-2.084510e-11
0.000000e+00
-1.279270e-11
-1.633500e-11
0.000000e+00
-1.055020e-11
0.000000e+00
-2.084510e-11
0.000000e+00
-1.279270e-11
0.000000e+00
0.000000e+00
-1.055020e-11
0.000000e+00
-6.108280e-14
0.000000e+00
-1.279270e-11
0.000000e+00
-2.881670e-12
-1.055020e-11
0.000000e+00
-6.108280e-14
0.000000e+00
-1.279270e-11
0.000000e+00
-2.881670e-12
0.000000e+00
0.000000e+00
-6.108280e-14
0.000000e+00
7.902260e-12
0.000000e+00
-2.881670e-12
0.000000e+00
1.248390e-11
-6.108280e-14
0.000000e+00
7.902260e-12
0.000000e+00
-2.881670e-12
0.000000e+00
1.248390e-11
0.000000e+00
0.000000e+00
0.000000e+00
-1.571130e-11
-5.915140e-10
0.000000e+00
0.000000e+00
8.798300e-10
9.419290e-10
0.000000e+00
0.000000e+00
-5.915140e-10
-1.351170e-09
0.000000e+00
0.000000e+00
9.419290e-10
1.319750e-09
-1.571130e-11
-5.915140e-10
-2.042460e-09
-8.833740e-10
8.798300e-10
9.419290e-10
6.284500e-11
1.327230e-10
-5.915140e-10
-1.351170e-09
-8.833740e-10
1.414010e-09
9.419290e-10
1.319750e-09
1.327230e-10
-1.162630e-09
-2.042460e-09
-8.833740e-10
1.571130e-11
4.730050e-10
6.284500e-11
1.327230e-10
-1.084080e-09
-6.762940e-12
-8.833740e-10
1.414010e-09
4.730050e-10
-1.131210e-09
1.327230e-10
-1.162630e-09
-6.762940e-12
5.656050e-10
1.571130e-11
4.730050e-10
2.042460e-10
-4.568260e-10
-1.084080e-09
-6.762940e-12
5.813160e-10
4.518490e-10
4.730050e-10
-1.131210e-09
-4.568260e-10
-1.194060e-09
-6.762940e-12
5.656050e-10
4.518490e-10
1.335460e-09
2.042460e-10
-4.568260e-10
7.070060e-10
3.460290e-10
5.813160e-10
4.518490e-10
-1.759660e-09
-8.429730e-10
-4.568260e-10
-1.194060e-09
3.460290e-10
3.613590e-10
4.518490e-10
1.335460e-09
-8.429730e-10
6.755840e-10
7.070060e-10
3.460290e-10
1.838220e-09
1.266620e-09
-1.759660e-09
-8.429730e-10
-5.656050e-10
-7.581420e-10
3.460290e-10
3.613590e-10
1.266620e-09
-8.798300e-10
-8.429730e-10
6.755840e-10
-7.581420e-10
-1.194060e-09
1.838220e-09
1.266620e-09
-4.084930e-10
5.188820e-10
-5.656050e-10
-7.581420e-10
-4.084930e-10
-3.549850e-10
1.266620e-09
-8.798300e-10
5.188820e-10
1.131210e-09
-7.581420e-10
-1.194060e-09
-3.549850e-10
3.770700e-10
-4.084930e-10
5.188820e-10
-5.656050e-10
4.759310e-10
-4.084930e-10
-3.549850e-10
7.227180e-10
1.906080e-11
5.188820e-10
1.131210e-09
4.759310e-10
1.901060e-09
-3.549850e-10
3.770700e-10
1.906080e-11
-9.112530e-10
-5.656050e-10
4.759310e-10
0.000000e+00
-7.479260e-11
7.227180e-10
1.906080e-11
-7.227180e-10
-1.731780e-10
4.759310e-10
1.901060e-09
-7.479260e-11
2.985140e-10
1.906080e-11
-9.112530e-10
-1.731780e-10
0.000000e+00
0.000000e+00
-7.479260e-11
2.356690e-10
5.233670e-11
-7.227180e-10
-1.731780e-10
1.414010e-10
1.154840e-09
-7.479260e-11
2.985140e-10
5.233670e-11
0.000000e+00
-1.731780e-10
0.000000e+00
1.154840e-09
1.099790e-10
2.356690e-10
5.233670e-11
7.698510e-10
-3.113580e-10
1.414010e-10
1.154840e-09
1.351170e-09
3.681350e-11
5.233670e-11
0.000000e+00
-3.113580e-10
-6.598730e-10
1.154840e-09
1.099790e-10
3.681350e-11
9.269640e-10
7.698510e-10
-3.113580e-10
-1.885350e-10
1.018540e-10
1.351170e-09
3.681350e-11
-1.414010e-10
1.947550e-10
-3.113580e-10
-6.598730e-10
1.018540e-10
-2.828030e-10
3.681350e-11
9.269640e-10
1.947550e-10
1.241190e-09
-1.885350e-10
1.018540e-10
-2.828030e-10
1.613550e-10
-1.414010e-10
1.947550e-10
-1.571130e-11
3.656270e-10
1.018540e-10
-2.828030e-10
1.613550e-10
0.000000e+00
1.947550e-10
1.241190e-09
3.656270e-10
-5.341830e-10
-2.828030e-10
1.613550e-10
0.000000e+00
-2.134700e-10
-1.571130e-11
3.656270e-10
-7.541400e-10
-3.410340e-10
1.613550e-10
0.000000e+00
-2.134700e-10
1.099790e-10
3.656270e-10
-5.341830e-10
-3.410340e-10
4.713380e-10
0.000000e+00
-2.134700e-10
7.070060e-10
2.767540e-10
-7.541400e-10
-3.410340e-10
-3.927810e-10
3.823720e-10
-2.134700e-10
1.099790e-10
2.767540e-10
8.326970e-10
-3.410340e-10
4.713380e-10
3.823720e-10
-7.855630e-11
7.070060e-10
2.767540e-10
0.000000e+00
1.029410e-10
-3.927810e-10
3.823720e-10
1.052650e-09
4.345340e-10
2.767540e-10
8.326970e-10
1.029410e-10
-7.855630e-11
3.823720e-10
-7.855630e-11
4.345340e-10
0.000000e+00
0.000000e+00
1.029410e-10
0.000000e+00
-1.791060e-10
1.052650e-09
4.345340e-10
0.000000e+00
-5.960680e-10
1.029410e-10
-7.855630e-11
-1.791060e-10
-3.299360e-10
4.345340e-10
0.000000e+00
-5.960680e-10
-6.912950e-10
0.000000e+00
-1.791060e-10
0.000000e+00
9.499270e-11
0.000000e+00
-5.960680e-10
-6.284500e-11
7.987830e-10
-1.791060e-10
-3.299360e-10
9.499270e-11
-6.284500e-11
-5.960680e-10
-6.912950e-10
7.987830e-10
-4.399150e-10
0.000000e+00
9.499270e-11
0.000000e+00
4.681780e-11
-6.284500e-11
7.987830e-10
0.000000e+00
-6.066800e-12
9.499270e-11
-6.284500e-11
4.681780e-11
0.000000e+00
7.987830e-10
-4.399150e-10
-6.066800e-12
0.000000e+00
0.000000e+00
4.681780e-11
0.000000e+00
-8.729980e-11
0.000000e+00
-6.066800e-12
0.000000e+00
1.525750e-11
4.681780e-11
0.000000e+00
-8.729980e-11
0.000000e+00
-6.066800e-12
0.000000e+00
1.525750e-11
0.000000e+00
0.000000e+00
-8.729980e-11
0.000000e+00
-3.627890e-11
0.000000e+00
1.525750e-11
0.000000e+00
-5.559960e-11
-8.729980e-11
0.000000e+00
-3.627890e-11
0.000000e+00
1.525750e-11
0.000000e+00
-5.559960e-11
0.000000e+00
0.000000e+00
-3.627890e-11
0.000000e+00
1.366470e-11
0.000000e+00
-5.559960e-11
0.000000e+00
3.827890e-12
-3.627890e-11
0.000000e+00
1.366470e-11
0.000000e+00
-5.559960e-11
0.000000e+00
3.827890e-12
0.000000e+00
0.000000e+00
1.366470e-11
0.000000e+00
-1.325530e-11
0.000000e+00
3.827890e-12
0.000000e+00
-9.685160e-12
1.366470e-11
0.000000e+00
-1.325530e-11
0.000000e+00
3.827890e-12
0.000000e+00
-9.685160e-12
0.000000e+00
0.000000e+00
-1.325530e-11
0.000000e+00
8.828620e-12
0.000000e+00
-9.685160e-12
0.000000e+00
9.204320e-12
-1.325530e-11
0.000000e+00
8.828620e-12
0.000000e+00
-9.685160e-12
0.000000e+00
9.204320e-12
0.000000e+00
0.000000e+00
8.828620e-12
0.000000e+00
4.857260e-11
0.000000e+00
9.204320e-12
0.000000e+00
5.666120e-11
8.828620e-12
0.000000e+00
4.857260e-11
0.000000e+00
9.204320e-12
0.000000e+00
5.666120e-11
0.000000e+00
0.000000e+00
4.857260e-11
0.000000e+00
2.196580e-11
0.000000e+00
5.666120e-11
0.000000e+00
1.761510e-11
4.857260e-11
0.000000e+00
2.196580e-11
0.000000e+00
5.666120e-11
0.000000e+00
1.761510e-11
0.000000e+00
0.000000e+00
2.196580e-11
0.000000e+00
-2.084510e-11
0.000000e+00
1.761510e-11
0.000000e+00
-2.525400e-11
2.196580e-11
0.000000e+00
-2.084510e-11
0.000000e+00
1.761510e-11
0.000000e+00
-2.525400e-11
0.000000e+00
0.000000e+00
-2.084510e-11
0.000000e+00
-1.279270e-11
0.000000e+00
-2.525400e-11
0.000000e+00
-1.218380e-11
-2.084510e-11
0.000000e+00
-1.279270e-11
0.000000e+00
-2.525400e-11
0.000000e+00
-1.218380e-11
0.000000e+00
0.000000e+00
-1.279270e-11
0.000000e+00
-2.881670e-12
0.000000e+00
-1.218380e-11
0.000000e+00
-3.978870e-12
-1.279270e-11
0.000000e+00
-2.881670e-12
0.000000e+00
-1.218380e-11
0.000000e+00
-3.978870e-12
0.000000e+00
0.000000e+00
-2.881670e-12
0.000000e+00
1.248390e-11
0.000000e+00
-3.978870e-12
0.000000e+00
1.462790e-11
-2.881670e-12
0.000000e+00
1.248390e-11
0.000000e+00
-3.978870e-12
0.000000e+00
1.462790e-11
0.000000e+00
</DataArray>
<DataArray type="Float32" Name="V2" format="ascii">
0.000000e+00
0.000000e+00
-2.409960e-02
-2.409960e-02
0.000000e+00
0.000000e+00
-2.409960e-02
-2.409960e-02
0.000000e+00
0.000000e+00
-2.409960e-02
-2.409960e-02
0.000000e+00
0.000000e+00
-2.409960e-02
-2.409960e-02
-2.409960e-02
-2.409960e-02
-4.317940e-02
-4.317940e-02
-2.409960e-02
-2.409960e-02
-4.317940e-02
-4.317940e-02
-2.409960e-02
-2.409960e-02
-4.317940e-02
-4.317940e-02
-2.409960e-02
-2.409960e-02
-4.317940e-02
-4.317940e-02
-4.317940e-02
-4.317940e-02
-4.625610e-02
-4.625610e-02
-4.317940e-02
-4.317940e-02
-4.625610e-02
-4.625610e-02
-4.317940e-02
-4.317940e-02
-4.625610e-02
-4.625610e-02
-4.317940e-02
-4.317940e-02
-4.625610e-02
-4.625610e-02
-4.625610e-02
-4.625610e-02
-1.630480e-02
-1.630480e-02
-4.625610e-02
-4.625610e-02
-1.630480e-02
-1.630480e-02
-4.625610e-02
-4.625610e-02
-1.630480e-02
-1.630480e-02
-4.625610e-02
-4.625610e-02
-1.630480e-02
-1.630480e-02
-1.630480e-02
-1.630480e-02
7.413140e-03
7.413140e-03
-1.630480e-02
-1.630480e-02
7.413140e-03
7.413140e-03
-1.630480e-02
-1.630480e-02
7.413140e-03
7.413140e-03
-1.630480e-02
-1.630480e-02
7.413140e-03
7.413140e-03
7.413140e-03
7.413140e-03
-4.898080e-04
-4.898070e-04
7.413140e-03
7.413140e-03
-4.898140e-04
-4.898100e-04
7.413140e-03
7.413140e-03
-4.898070e-04
-4.898080e-04
7.413140e-03
7.413140e-03
-4.898100e-04
-4.898120e-04
-4.898080e-04
-4.898070e-04
-8.011370e-03
-8.011370e-03
-4.898140e-04
-4.898100e-04
-8.011370e-03
-8.011370e-03
-4.898070e-04
-4.898080e-04
-8.011370e-03
-8.011370e-03
-4.898100e-04
-4.898120e-04
-8.011370e-03
-8.011370e-03
-8.011370e-03
-8.011370e-03
-1.295970e-03
-1.295970e-03
-8.011370e-03
-8.011370e-03
-1.295970e-03
-1.295970e-03
-8.011370e-03
-8.011370e-03
-1.295970e-03
-1.295970e-03
-8.011370e-03
-8.011370e-03
-1.295970e-03
-1.295960e-03
-1.295970e-03
-1.295970e-03
1.253910e-03
1.253910e-03
-1.295970e-03
-1.295970e-03
1.253910e-03
1.253910e-03
-1.295970e-03
-1.295970e-03
1.253910e-03
1.253910e-03
-1.295970e-03
-1.295960e-03
1.253910e-03
1.253910e-03
1.253910e-03
1.253910e-03
-2.174260e-03
-2.174260e-03
1.253910e-03
1.253910e-03
-2.174260e-03
-2.174260e-03
1.253910e-03
1.253910e-03
-2.174260e-03
-2.174260e-03
1.253910e-03
1.253910e-03
-2.174260e-03
-2.174260e-03
-2.174260e-03
-2.174260e-03
-1.195770e-03
-1.195770e-03
-2.174260e-03
-2.174260e-03
-1.195770e-03
-1.195770e-03
-2.174260e-03
-2.174260e-03
-1.195770e-03
-1.195770e-03
-2.174260e-03
-2.174260e-03
-1.195770e-03
-1.195770e-03
-1.195770e-03
-1.195770e-03
-1.121110e-04
-1.121130e-04
-1.195770e-03
-1.195770e-03
-1.121120e-04
-1.121130e-04
-1.195770e-03
-1.195770e-03
-1.121130e-04
-1.121120e-04
-1.195770e-03
-1.195770e-03
-1.121130e-04
-1.121120e-04
-1.121110e-04
-1.121130e-04
-5.224350e-04
-5.224340e-04
-1.121120e-04
-1.121130e-04
-5.224330e-04
-5.224320e-04
-1.121130e-04
-1.121120e-04
-5.224340e-04
-5.224330e-04
-1.121130e-04
-1.121120e-04
-5.224320e-04
-5.224330e-04
-5.224350e-04
-5.224340e-04
-8.241010e-04
-8.241030e-04
-5.224330e-04
-5.224320e-04
-8.241030e-04
-8.241020e-04
-5.224340e-04
-5.224330e-04
-8.241030e-04
-8.241020e-04
-5.224320e-04
-5.224330e-04
-8.241020e-04
-8.241010e-04
-8.241010e-04
-8.241030e-04
-2.785440e-04
-2.785440e-04
-8.241030e-04
-8.241020e-04
-2.785450e-04
-2.785430e-04
-8.241030e-04
-8.241020e-04
-2.785440e-04
-2.785440e-04
-8.241020e-04
-8.241010e-04
-2.785430e-04
-2.785430e-04
-2.785440e-04
-2.785440e-04
-2.646610e-04
-2.646600e-04
-2.785450e-04
-2.785430e-04
-2.646600e-04
-2.646590e-04
-2.785440e-04
-2.785440e-04
-2.646600e-04
-2.646610e-04
-2.785430e-04
-2.785430e-04
-2.646590e-04
-2.646620e-04
-2.646610e-04
-2.646600e-04
-4.541340e-04
-4.541330e-04
-2.646600e-04
-2.646590e-04
-4.541330e-04
-4.541330e-04
-2.646600e-04
-2.646610e-04
-4.541330e-04
-4.541340e-04
-2.646590e-04
-2.646620e-04
-4.541330e-04
-4.541320e-04
-4.541340e-04
-4.541330e-04
-4.950090e-04
-4.950110e-04
-4.541330e-04
-4.541330e-04
-4.950130e-04
-4.950120e-04
-4.541330e-04
-4.541340e-04
-4.950110e-04
-4.950090e-04
-4.541330e-04
-4.541320e-04
-4.950120e-04
-4.950120e-04
-4.950090e-04
-4.950110e-04
-3.816990e-04
-3.816980e-04
-4.950130e-04
-4.950120e-04
-3.816970e-04
-3.816990e-04
-4.950110e-04
-4.950090e-04
-3.816980e-04
-3.817010e-04
-4.950120e-04
-4.950120e-04
-3.816990e-04
-3.816970e-04
-3.816990e-04
-3.816980e-04
-3.920630e-04
-3.920620e-04
-3.816970e-04
-3.816990e-04
-3.920630e-04
-3.920630e-04
-3.816980e-04
-3.817010e-04
-3.920620e-04
-3.920620e-04
-3.816990e-04
-3.816970e-04
-3.920630e-04
-3.920620e-04
-3.920630e-04
-3.920620e-04
-3.695350e-04
-3.695360e-04
-3.920630e-04
-3.920630e-04
-3.695350e-04
-3.695350e-04
-3.920620e-04
-3.920620e-04
-3.695360e-04
-3.695360e-04
-3.920630e-04
-3.920620e-04
-3.695350e-04
-3.695360e-04
-3.695350e-04
-3.695360e-04
-5.578120e-04
-5.578120e-04
-3.695350e-04
-3.695350e-04
-5.578120e-04
-5.578120e-04
-3.695360e-04
-3.695360e-04
-5.578120e-04
-5.578130e-04
-3.695350e-04
-3.695360e-04
-5.578120e-04
-5.578130e-04
-5.578120e-04
-5.578120e-04
-3.992770e-04
-3.992760e-04
-5.578120e-04
-5.578120e-04
-3.992770e-04
-3.992770e-04
-5.578120e-04
-5.578130e-04
-3.992760e-04
-3.992760e-04
-5.578120e-04
-5.578130e-04
-3.992770e-04
-3.992770e-04
-3.992770e-04
-3.992760e-04
-4.487060e-04
-4.487060e-04
-3.992770e-04
-3.992770e-04
-4.487050e-04
-4.487060e-04
-3.992760e-04
-3.992760e-04
-4.487060e-04
-4.487060e-04
-3.992770e-04
-3.992770e-04
-4.487060e-04
-4.487060e-04
-4.487060e-04
-4.487060e-04
-2.904150e-04
-2.904150e-04
-4.487050e-04
-4.487060e-04
-2.904150e-04
-2.904160e-04
-4.487060e-04
-4.487060e-04
-2.904150e-04
-2.904150e-04
-4.487060e-04
-4.487060e-04
-2.904160e-04
-2.904160e-04
-2.904150e-04
-2.904150e-04
-4.889590e-04
-4.889600e-04
-2.904150e-04
-2.904160e-04
-4.889590e-04
-4.889590e-04
-2.904150e-04
-2.904150e-04
-4.889600e-04
-4.889590e-04
-2.904160e-04
-2.904160e-04
-4.889590e-04
-4.889590e-04
-4.889590e-04
-4.889600e-04
-4.466520e-06
-4.466140e-06
-4.889590e-04
-4.889590e-04
-4.466650e-06
-4.466400e-06
-4.889600e-04
-4.889590e-04
-4.466140e-06
-4.465890e-06
-4.889590e-04
-4.889590e-04
-4.466400e-06
-4.465520e-06
-4.466520e-06
-4.466140e-06
-6.080620e-05
-6.080630e-05
-4.466650e-06
-4.466400e-06
-6.080610e-05
-6.080620e-05
-4.466140e-06
-4.465890e-06
-6.080630e-05
-6.080650e-05
-4.466400e-06
-4.465520e-06
-6.080620e-05
-6.080650e-05
-6.080620e-05
-6.080630e-05
8.020660e-05
8.020620e-05
-6.080610e-05
-6.080620e-05
8.020650e-05
8.020620e-05
-6.080630e-05
-6.080650e-05
8.020620e-05
8.020660e-05
-6.080620e-05
-6.080650e-05
8.020620e-05
8.020630e-05
8.020660e-05
8.020620e-05
5.015420e-04
5.015420e-04
8.020650e-05
8.020620e-05
5.015420e-04
5.015420e-04
8.020620e-05
8.020660e-05
5.015420e-04
5.015420e-04
8.020620e-05
8.020630e-05
5.015420e-04
5.015420e-04
0.000000e+00
0.000000e+00
-2.409960e-02
-2.409960e-02
0.000000e+00
0.000000e+00
-2.409960e-02
-2.409960e-02
0.000000e+00
0.000000e+00
-2.409960e-02
-2.409960e-02
0.000000e+00
0.000000e+00
-2.409960e-02
-2.409960e-02
-2.409960e-02
-2.409960e-02
-4.317940e-02
-4.317940e-02
-2.409960e-02
-2.409960e-02
-4.317940e-02
-4.317940e-02
-2.409960e-02
-2.409960e-02
-4.317940e-02
-4.317940e-02