<?xml version="1.0"?>
<VTKFile type="UnstructuredGrid" version="0.1" byte_order="LittleEndian" compressor="vtkZLibDataCompressor">
<UnstructuredGrid>
<Piece NumberOfPoints="960" NumberOfCells="120">
<Points>
<DataArray type="Float32" NumberOfComponents="3" format="ascii">
-4.000000e+02 -6.000000e+03 -4.000000e+02
0.000000e+00 -6.000000e+03 -4.000000e+02
-4.000000e+02 -5.600010e+03 -4.000000e+02
1.786810e-09 -5.600010e+03 -4.000000e+02
-4.000000e+02 -6.000000e+03 0.000000e+00
0.000000e+00 -6.000000e+03 0.000000e+00
-4.000000e+02 -5.600010e+03 4.890680e-10
5.518440e-10 -5.600010e+03 9.026900e-10
0.000000e+00 -6.000000e+03 -4.000000e+02
4.000000e+02 -6.000000e+03 -4.000000e+02
1.786810e-09 -5.600010e+03 -4.000000e+02
4.000000e+02 -5.600010e+03 -4.000000e+02
0.000000e+00 -6.000000e+03 0.000000e+00
4.000000e+02 -6.000000e+03 0.000000e+00
5.518440e-10 -5.600010e+03 9.026900e-10
4.000000e+02 -5.600010e+03 4.393940e-10
-4.000000e+02 -5.600010e+03 -4.000000e+02
1.786810e-09 -5.600010e+03 -4.000000e+02
-4.000000e+02 -5.200020e+03 -4.000000e+02
1.619350e-09 -5.200020e+03 -4.000000e+02
-4.000000e+02 -5.600010e+03 4.890680e-10
5.518440e-10 -5.600010e+03 9.026900e-10
-4.000000e+02 -5.200020e+03 2.262900e-10
1.475110e-09 -5.200020e+03 1.007570e-09
1.786810e-09 -5.600010e+03 -4.000000e+02
4.000000e+02 -5.600010e+03 -4.000000e+02
1.619350e-09 -5.200020e+03 -4.000000e+02
4.000000e+02 -5.200020e+03 -4.000000e+02
5.518440e-10 -5.600010e+03 9.026900e-10
4.000000e+02 -5.600010e+03 4.393940e-10
1.475110e-09 -5.200020e+03 1.007570e-09
4.000000e+02 -5.200020e+03 6.122080e-10
-4.000000e+02 -5.200020e+03 -4.000000e+02
1.619350e-09 -5.200020e+03 -4.000000e+02
-4.000000e+02 -4.800040e+03 -4.000000e+02
1.839340e-09 -4.800040e+03 -4.000000e+02
-4.000000e+02 -5.200020e+03 2.262900e-10
1.475110e-09 -5.200020e+03 1.007570e-09
-4.000000e+02 -4.800040e+03 1.645290e-11
1.045840e-09 -4.800040e+03 1.415850e-09
1.619350e-09 -5.200020e+03 -4.000000e+02
4.000000e+02 -5.200020e+03 -4.000000e+02
1.839340e-09 -4.800040e+03 -4.000000e+02
4.000000e+02 -4.800040e+03 -4.000000e+02
1.475110e-09 -5.200020e+03 1.007570e-09
4.000000e+02 -5.200020e+03 6.122080e-10
1.045840e-09 -4.800040e+03 1.415850e-09
4.000000e+02 -4.800040e+03 2.062010e-09
-4.000000e+02 -4.800040e+03 -4.000000e+02
1.839340e-09 -4.800040e+03 -4.000000e+02
-4.000000e+02 -4.400070e+03 -4.000000e+02
2.402750e-09 -4.400070e+03 -4.000000e+02
-4.000000e+02 -4.800040e+03 1.645290e-11
1.045840e-09 -4.800040e+03 1.415850e-09
-4.000000e+02 -4.400070e+03 1.262700e-09
1.115330e-09 -4.400070e+03 1.497580e-09
1.839340e-09 -4.800040e+03 -4.000000e+02
4.000000e+02 -4.800040e+03 -4.000000e+02
2.402750e-09 -4.400070e+03 -4.000000e+02
4.000000e+02 -4.400070e+03 -4.000000e+02
1.045840e-09 -4.800040e+03 1.415850e-09
4.000000e+02 -4.800040e+03 2.062010e-09
1.115330e-09 -4.400070e+03 1.497580e-09
4.000000e+02 -4.400070e+03 2.306450e-09
-4.000000e+02 -4.400070e+03 -4.000000e+02
2.402750e-09 -4.400070e+03 -4.000000e+02
-4.000000e+02 -4.000120e+03 -4.000000e+02
1.450320e-09 -4.000120e+03 -4.000000e+02
-4.000000e+02 -4.400070e+03 1.262700e-09
1.115330e-09 -4.400070e+03 1.497580e-09
-4.000000e+02 -4.000120e+03 7.938240e-10
1.651430e-09 -4.000120e+03 1.375720e-09
2.402750e-09 -4.400070e+03 -4.000000e+02
4.000000e+02 -4.400070e+03 -4.000000e+02
1.450320e-09 -4.000120e+03 -4.000000e+02
4.000000e+02 -4.000120e+03 -4.000000e+02
1.115330e-09 -4.400070e+03 1.497580e-09
4.000000e+02 -4.400070e+03 2.306450e-09
1.651430e-09 -4.000120e+03 1.375720e-09
4.000000e+02 -4.000120e+03 2.532510e-09
-4.000000e+02 -4.000120e+03 -4.000000e+02
1.450320e-09 -4.000120e+03 -4.000000e+02
-4.000000e+02 -3.600190e+03 -4.000000e+02
2.337850e-09 -3.600190e+03 -4.000000e+02
-4.000000e+02 -4.000120e+03 7.938240e-10
1.651430e-09 -4.000120e+03 1.375720e-09
-4.000000e+02 -3.600190e+03 1.291140e-09
1.375160e-09 -3.600190e+03 1.398650e-09
1.450320e-09 -4.000120e+03 -4.000000e+02
4.000000e+02 -4.000120e+03 -4.000000e+02
2.337850e-09 -3.600190e+03 -4.000000e+02
4.000000e+02 -3.600190e+03 -4.000000e+02
1.651430e-09 -4.000120e+03 1.375720e-09
4.000000e+02 -4.000120e+03 2.532510e-09
1.375160e-09 -3.600190e+03 1.398650e-09
4.000000e+02 -3.600190e+03 2.764540e-09
-4.000000e+02 -3.600190e+03 -4.000000e+02
2.337850e-09 -3.600190e+03 -4.000000e+02
-4.000000e+02 -3.200260e+03 -4.000000e+02
2.194040e-09 -3.200260e+03 -4.000000e+02
-4.000000e+02 -3.600190e+03 1.291140e-09
1.375160e-09 -3.600190e+03 1.398650e-09
-4.000000e+02 -3.200260e+03 1.358370e-09
6.493510e-10 -3.200260e+03 1.728050e-09
2.337850e-09 -3.600190e+03 -4.000000e+02
4.000000e+02 -3.600190e+03 -4.000000e+02
2.194040e-09 -3.200260e+03 -4.000000e+02
4.000000e+02 -3.200260e+03 -4.000000e+02
1.375160e-09 -3.600190e+03 1.398650e-09
4.000000e+02 -3.600190e+03 2.764540e-09
6.493510e-10 -3.200260e+03 1.728050e-09
4.000000e+02 -3.200260e+03 1.876170e-09
-4.000000e+02 -3.200260e+03 -4.000000e+02
2.194040e-09 -3.200260e+03 -4.000000e+02
-4.000000e+02 -2.800310e+03 -4.000000e+02
1.967200e-09 -2.800310e+03 -4.000000e+02
-4.000000e+02 -3.200260e+03 1.358370e-09
6.493510e-10 -3.200260e+03 1.728050e-09
-4.000000e+02 -2.800310e+03 9.456200e-10
1.682040e-09 -2.800310e+03 1.458660e-09
2.194040e-09 -3.200260e+03 -4.000000e+02
4.000000e+02 -3.200260e+03 -4.000000e+02
1.967200e-09 -2.800310e+03 -4.000000e+02
4.000000e+02 -2.800310e+03 -4.000000e+02
6.493510e-10 -3.200260e+03 1.728050e-09
4.000000e+02 -3.200260e+03 1.876170e-09
1.682040e-09 -2.800310e+03 1.458660e-09
4.000000e+02 -2.800310e+03 1.869310e-09
-4.000000e+02 -2.800310e+03 -4.000000e+02
1.967200e-09 -2.800310e+03 -4.000000e+02
-4.000000e+02 -2.400310e+03 -4.000000e+02
1.854070e-09 -2.400310e+03 -4.000000e+02
-4.000000e+02 -2.800310e+03 9.456200e-10
1.682040e-09 -2.800310e+03 1.458660e-09
-4.000000e+02 -2.400310e+03 2.968110e-10
1.177650e-09 -2.400310e+03 6.472410e-10
1.967200e-09 -2.800310e+03 -4.000000e+02
4.000000e+02 -2.800310e+03 -4.000000e+02
1.854070e-09 -2.400310e+03 -4.000000e+02
4.000000e+02 -2.400310e+03 -4.000000e+02
1.682040e-09 -2.800310e+03 1.458660e-09
4.000000e+02 -2.800310e+03 1.869310e-09
1.177650e-09 -2.400310e+03 6.472410e-10
4.000000e+02 -2.400310e+03 1.219920e-09
-4.000000e+02 -2.400310e+03 -4.000000e+02
1.854070e-09 -2.400310e+03 -4.000000e+02
-4.000000e+02 -2.000280e+03 -4.000000e+02
1.565670e-09 -2.000280e+03 -4.000000e+02
-4.000000e+02 -2.400310e+03 2.968110e-10
1.177650e-09 -2.400310e+03 6.472410e-10
-4.000000e+02 -2.000280e+03 -5.643350e-10
1.243120e-09 -2.000280e+03 -3.548030e-10
1.854070e-09 -2.400310e+03 -4.000000e+02
4.000000e+02 -2.400310e+03 -4.000000e+02
1.565670e-09 -2.000280e+03 -4.000000e+02
4.000000e+02 -2.000280e+03 -4.000000e+02
1.177650e-09 -2.400310e+03 6.472410e-10
4.000000e+02 -2.400310e+03 1.219920e-09
1.243120e-09 -2.000280e+03 -3.548030e-10
4.000000e+02 -2.000280e+03 5.139520e-10
-4.000000e+02 -2.000280e+03 -4.000000e+02
1.565670e-09 -2.000280e+03 -4.000000e+02
-4.000000e+02 -1.600260e+03 -4.000000e+02
1.929730e-09 -1.600260e+03 -4.000000e+02
-4.000000e+02 -2.000280e+03 -5.643350e-10
1.243120e-09 -2.000280e+03 -3.548030e-10
-4.000000e+02 -1.600260e+03 -4.771400e-10
1.798400e-09 -1.600260e+03 -5.125820e-10
1.565670e-09 -2.000280e+03 -4.000000e+02
4.000000e+02 -2.000280e+03 -4.000000e+02
1.929730e-09 -1.600260e+03 -4.000000e+02
4.000000e+02 -1.600260e+03 -4.000000e+02
1.243120e-09 -2.000280e+03 -3.548030e-10
4.000000e+02 -2.000280e+03 5.139520e-10
1.798400e-09 -1.600260e+03 -5.125820e-10
4.000000e+02 -1.600260e+03 -5.696760e-11
-4.000000e+02 -1.600260e+03 -4.000000e+02
1.929730e-09 -1.600260e+03 -4.000000e+02
-4.000000e+02 -1.200270e+03 -4.000000e+02
1.268230e-09 -1.200270e+03 -4.000000e+02
-4.000000e+02 -1.600260e+03 -4.771400e-10
1.798400e-09 -1.600260e+03 -5.125820e-10
-4.000000e+02 -1.200270e+03 -2.297990e-10
1.175060e-09 -1.200270e+03 -3.701340e-10
1.929730e-09 -1.600260e+03 -4.000000e+02
4.000000e+02 -1.600260e+03 -4.000000e+02
1.268230e-09 -1.200270e+03 -4.000000e+02
4.000000e+02 -1.200270e+03 -4.000000e+02
1.798400e-09 -1.600260e+03 -5.125820e-10
4.000000e+02 -1.600260e+03 -5.696760e-11
1.175060e-09 -1.200270e+03 -3.701340e-10
4.000000e+02 -1.200270e+03 -7.761830e-12
-4.000000e+02 -1.200270e+03 -4.000000e+02
1.268230e-09 -1.200270e+03 -4.000000e+02
-4.000000e+02 -8.002860e+02 -4.000000e+02
6.600390e-10 -8.002860e+02 -4.000000e+02
-4.000000e+02 -1.200270e+03 -2.297990e-10
1.175060e-09 -1.200270e+03 -3.701340e-10
-4.000000e+02 -8.002860e+02 -3.949480e-10
3.047370e-10 -8.002860e+02 -4.603420e-10
1.268230e-09 -1.200270e+03 -4.000000e+02
4.000000e+02 -1.200270e+03 -4.000000e+02
6.600390e-10 -8.002860e+02 -4.000000e+02
4.000000e+02 -8.002860e+02 -4.000000e+02
1.175060e-09 -1.200270e+03 -3.701340e-10
4.000000e+02 -1.200270e+03 -7.761830e-12
3.047370e-10 -8.002860e+02 -4.603420e-10
4.000000e+02 -8.002860e+02 -3.877140e-10
-4.000000e+02 -8.002860e+02 -4.000000e+02
6.600390e-10 -8.002860e+02 -4.000000e+02
-4.000000e+02 -4.002830e+02 -4.000000e+02
8.806350e-10 -4.002830e+02 -4.000000e+02
-4.000000e+02 -8.002860e+02 -3.949480e-10
3.047370e-10 -8.002860e+02 -4.603420e-10
-4.000000e+02 -4.002830e+02 -5.794790e-10
5.441130e-10 -4.002830e+02 -5.862400e-10
6.600390e-10 -8.002860e+02 -4.000000e+02
4.000000e+02 -8.002860e+02 -4.000000e+02
8.806350e-10 -4.002830e+02 -4.000000e+02
4.000000e+02 -4.002830e+02 -4.000000e+02
3.047370e-10 -8.002860e+02 -4.603420e-10
4.000000e+02 -8.002860e+02 -3.877140e-10
5.441130e-10 -4.002830e+02 -5.862400e-10
4.000000e+02 -4.002830e+02 -6.331060e-11
-4.000000e+02 -4.002830e+02 -4.000000e+02
8.806350e-10 -4.002830e+02 -4.000000e+02
-4.000000e+02 -2.741750e-01 -4.000000e+02
2.107920e-10 -2.741750e-01 -4.000000e+02
-4.000000e+02 -4.002830e+02 -5.794790e-10
5.441130e-10 -4.002830e+02 -5.862400e-10
-4.000000e+02 -2.741750e-01 7.684900e-11
2.686010e-10 -2.741750e-01 3.035420e-10
8.806350e-10 -4.002830e+02 -4.000000e+02
4.000000e+02 -4.002830e+02 -4.000000e+02
2.107920e-10 -2.741750e-01 -4.000000e+02
4.000000e+02 -2.741750e-01 -4.000000e+02
5.441130e-10 -4.002830e+02 -5.862400e-10
[...]
<PointData>
<DataArray type="Float32" Name="V1" format="ascii">
0.000000e+00
0.000000e+00
2.985140e-10
7.091520e-10
0.000000e+00
0.000000e+00
-3.142250e-10
-6.617480e-10
0.000000e+00
0.000000e+00
7.091520e-10
0.000000e+00
0.000000e+00
0.000000e+00
-6.617480e-10
0.000000e+00
2.985140e-10
7.091520e-10
3.142250e-10
3.309120e-10
-3.142250e-10
-6.617480e-10
8.169850e-10
-2.746780e-10
7.091520e-10
0.000000e+00
3.309120e-10
8.641190e-10
-6.617480e-10
0.000000e+00
-2.746780e-10
-9.583870e-10
3.142250e-10
3.309120e-10
-1.775370e-09
-7.113870e-10
8.169850e-10
-2.746780e-10
6.127390e-10
7.754850e-10
3.309120e-10
8.641190e-10
-7.113870e-10
-2.513800e-10
-2.746780e-10
-9.583870e-10
7.754850e-10
6.127390e-10
-1.775370e-09
-7.113870e-10
1.414010e-10
8.765670e-10
6.127390e-10
7.754850e-10
-9.112530e-10
-6.579220e-10
-7.113870e-10
-2.513800e-10
8.765670e-10
3.927810e-10
7.754850e-10
6.127390e-10
-6.579220e-10
1.115500e-09
1.414010e-10
8.765670e-10
2.105310e-09
-4.085120e-10
-9.112530e-10
-6.579220e-10
-9.898090e-10
-6.326730e-10
8.765670e-10
3.927810e-10
-4.085120e-10
-1.853930e-09
-6.579220e-10
1.115500e-09
-6.326730e-10
1.571130e-10
2.105310e-09
-4.085120e-10
-1.225480e-09
-3.725860e-10
-9.898090e-10
-6.326730e-10
2.356690e-09
7.635000e-10
-4.085120e-10
-1.853930e-09
-3.725860e-10
-4.399150e-10
-6.326730e-10
1.571130e-10
7.635000e-10
-3.770700e-10
-1.225480e-09
-3.725860e-10
7.541400e-10
6.940490e-10
2.356690e-09
7.635000e-10
-9.269640e-10
-4.670230e-10
-3.725860e-10
-4.399150e-10
6.940490e-10
7.384290e-10
7.635000e-10
-3.770700e-10
-4.670230e-10
1.052650e-09
7.541400e-10
6.940490e-10
7.227180e-10
7.433450e-10
-9.269640e-10
-4.670230e-10
-8.484080e-10
-4.786540e-10
6.940490e-10
7.384290e-10
7.433450e-10
9.269640e-10
-4.670230e-10
1.052650e-09
-4.786540e-10
-5.656050e-10
7.227180e-10
7.433450e-10
-8.169850e-10
-6.773080e-11
-8.484080e-10
-4.786540e-10
9.112530e-10
8.301320e-10
7.433450e-10
9.269640e-10
-6.773080e-11
1.036940e-09
-4.786540e-10
-5.656050e-10
8.301320e-10
-3.927810e-10
-8.169850e-10
-6.773080e-11
1.461150e-09
-5.804230e-10
9.112530e-10
8.301320e-10
-7.384290e-10
-1.070370e-10
-6.773080e-11
1.036940e-09
-5.804230e-10
-1.178340e-09
8.301320e-10
-3.927810e-10
-1.070370e-10
-3.142250e-11
1.461150e-09
-5.804230e-10
-7.541400e-10
-7.148550e-10
-7.384290e-10
-1.070370e-10
-4.242040e-10
-2.859350e-10
-5.804230e-10
-1.178340e-09
-7.148550e-10
-8.641190e-10
-1.070370e-10
-3.142250e-11
-2.859350e-10
3.142250e-11
-7.541400e-10
-7.148550e-10
2.356690e-10
1.492030e-11
-4.242040e-10
-2.859350e-10
4.713380e-10
-3.802840e-10
-7.148550e-10
-8.641190e-10
1.492030e-11
-1.414010e-10
-2.859350e-10
3.142250e-11
-3.802840e-10
3.613590e-10
2.356690e-10
1.492030e-11
-3.770700e-10
2.633440e-10
4.713380e-10
-3.802840e-10
-8.484080e-10
1.544550e-10
1.492030e-11
-1.414010e-10
2.633440e-10
-1.414010e-10
-3.802840e-10
3.613590e-10
1.544550e-10
-5.027600e-10
-3.770700e-10
2.633440e-10
-6.598730e-10
3.238480e-10
-8.484080e-10
1.544550e-10
-9.112530e-10
-1.891800e-10
2.633440e-10
-1.414010e-10
3.238480e-10
1.036940e-09
1.544550e-10
-5.027600e-10
-1.891800e-10
0.000000e+00
-6.598730e-10
3.238480e-10
1.304030e-09
8.625590e-10
-9.112530e-10
-1.891800e-10
1.115500e-09
1.367110e-09
3.238480e-10
1.036940e-09
8.625590e-10
-9.740980e-10
-1.891800e-10
0.000000e+00
1.367110e-09
-4.870490e-10
1.304030e-09
8.625590e-10
-3.299360e-10
-3.863220e-10
1.115500e-09
1.367110e-09
0.000000e+00
4.112780e-10
8.625590e-10
-9.740980e-10
-3.863220e-10
2.356690e-10
1.367110e-09
-4.870490e-10
4.112780e-10
0.000000e+00
-3.299360e-10
-3.863220e-10
-6.912950e-10
8.050470e-11
0.000000e+00
4.112780e-10
3.927810e-10
-4.301200e-10
-3.863220e-10
2.356690e-10
8.050470e-11
0.000000e+00
4.112780e-10
0.000000e+00
-4.301200e-10
1.885350e-10
-6.912950e-10
8.050470e-11
-1.571130e-10
-4.973030e-10
3.927810e-10
-4.301200e-10
-9.426750e-11
2.900410e-10
8.050470e-11
0.000000e+00
-4.973030e-10
-1.068370e-09
-4.301200e-10
1.885350e-10
2.900410e-10
-1.256900e-10
-1.571130e-10
-4.973030e-10
5.184710e-10
-2.104480e-10
-9.426750e-11
2.900410e-10
4.084930e-10
2.253840e-11
-4.973030e-10
-1.068370e-09
-2.104480e-10
3.927810e-10
2.900410e-10
-1.256900e-10
2.253840e-11
1.571130e-10
5.184710e-10
-2.104480e-10
7.541400e-10
3.345330e-10
4.084930e-10
2.253840e-11
0.000000e+00
-1.896740e-11
-2.104480e-10
3.927810e-10
3.345330e-10
0.000000e+00
2.253840e-11
1.571130e-10
-1.896740e-11
0.000000e+00
7.541400e-10
3.345330e-10
-8.955420e-10
-2.641130e-10
0.000000e+00
-1.896740e-11
0.000000e+00
-9.763420e-11
3.345330e-10
0.000000e+00
-2.641130e-10
3.770700e-10
-1.896740e-11
0.000000e+00
-9.763420e-11
-2.828030e-10
-8.955420e-10
-2.641130e-10
-5.184710e-10
-3.588270e-10
0.000000e+00
-9.763420e-11
0.000000e+00
-2.687780e-11
-2.641130e-10
3.770700e-10
-3.588270e-10
-1.099790e-10
-9.763420e-11
-2.828030e-10
-2.687780e-11
-3.142250e-11
-5.184710e-10
-3.588270e-10
1.272610e-09
1.855580e-10
0.000000e+00
-2.687780e-11
-1.885350e-10
-5.562290e-11
-3.588270e-10
-1.099790e-10
1.855580e-10
-8.169850e-10
-2.687780e-11
-3.142250e-11
-5.562290e-11
9.426750e-11
1.272610e-09
1.855580e-10
5.341830e-10
2.797730e-10
-1.885350e-10
-5.562290e-11
1.099790e-10
4.196270e-11
1.855580e-10
-8.169850e-10
2.797730e-10
7.855630e-11
-5.562290e-11
9.426750e-11
4.196270e-11
6.284500e-11
5.341830e-10
2.797730e-10
-6.441610e-10
-1.316430e-10
1.099790e-10
4.196270e-11
2.199580e-10
5.389360e-11
2.797730e-10
7.855630e-11
-1.316430e-10
4.084930e-10
4.196270e-11
6.284500e-11
5.389360e-11
0.000000e+00
-6.441610e-10
-1.316430e-10
0.000000e+00
-7.212490e-11
2.199580e-10
5.389360e-11
0.000000e+00
-1.578890e-11
-1.316430e-10
4.084930e-10
-7.212490e-11
0.000000e+00
5.389360e-11
0.000000e+00
-1.578890e-11
0.000000e+00
0.000000e+00
-7.212490e-11
0.000000e+00
6.530320e-12
0.000000e+00
-1.578890e-11
0.000000e+00
-6.021540e-12
-7.212490e-11
0.000000e+00
6.530320e-12
0.000000e+00
-1.578890e-11
0.000000e+00
-6.021540e-12
0.000000e+00
0.000000e+00
6.530320e-12
0.000000e+00
-1.734670e-12
0.000000e+00
-6.021540e-12
0.000000e+00
-1.773010e-12
6.530320e-12
0.000000e+00
-1.734670e-12
0.000000e+00
-6.021540e-12
0.000000e+00
-1.773010e-12
0.000000e+00
0.000000e+00
-1.734670e-12
0.000000e+00
2.124820e-12
0.000000e+00
-1.773010e-12
0.000000e+00
3.183740e-12
-1.734670e-12
0.000000e+00
2.124820e-12
0.000000e+00
-1.773010e-12
0.000000e+00
3.183740e-12
0.000000e+00
0.000000e+00
2.124820e-12
0.000000e+00
-8.326390e-12
0.000000e+00
3.183740e-12
0.000000e+00
-5.839770e-12
2.124820e-12
0.000000e+00
-8.326390e-12
0.000000e+00
3.183740e-12
0.000000e+00
-5.839770e-12
0.000000e+00
0.000000e+00
0.000000e+00
-3.142250e-10
-6.617480e-10
0.000000e+00
0.000000e+00
-2.670910e-10
2.971510e-10
0.000000e+00
0.000000e+00
-6.617480e-10
0.000000e+00
0.000000e+00
0.000000e+00
2.971510e-10
1.822510e-09
-3.142250e-10
-6.617480e-10
8.169850e-10
-2.746780e-10
-2.670910e-10
2.971510e-10
1.099790e-10
-6.141860e-10
-6.617480e-10
0.000000e+00
-2.746780e-10
-9.583870e-10
2.971510e-10
1.822510e-09
-6.141860e-10
-1.775370e-09
8.169850e-10
-2.746780e-10
6.127390e-10
7.754850e-10
1.099790e-10
-6.141860e-10
-5.656050e-10
-2.710980e-10
-2.746780e-10
-9.583870e-10
7.754850e-10
6.127390e-10
-6.141860e-10
-1.775370e-09
-2.710980e-10
-1.005520e-09
6.127390e-10
7.754850e-10
-9.112530e-10
-6.579220e-10
-5.656050e-10
-2.710980e-10
2.592360e-09
1.656710e-09
7.754850e-10
6.127390e-10
-6.579220e-10
1.115500e-09
-2.710980e-10
-1.005520e-09
1.656710e-09
-4.713380e-10
-9.112530e-10
-6.579220e-10
-9.898090e-10
-6.326730e-10
2.592360e-09
1.656710e-09
1.571130e-11
-3.954010e-10
-6.579220e-10
1.115500e-09
-6.326730e-10
1.571130e-10
1.656710e-09
-4.713380e-10
-3.954010e-10
4.084930e-10
-9.898090e-10
-6.326730e-10
2.356690e-09
7.635000e-10
1.571130e-11
-3.954010e-10
-1.932480e-09
-3.328490e-10
-6.326730e-10
1.571130e-10
7.635000e-10
-3.770700e-10
-3.954010e-10
4.084930e-10
-3.328490e-10
1.288320e-09
2.356690e-09
7.635000e-10
-9.269640e-10
-4.670230e-10
-1.932480e-09
-3.328490e-10
-9.426750e-10
5.116260e-10
7.635000e-10
-3.770700e-10
-4.670230e-10
1.052650e-09
-3.328490e-10
1.288320e-09
5.116260e-10
4.242040e-10
-9.269640e-10
-4.670230e-10
-8.484080e-10
-4.786540e-10
-9.426750e-10
5.116260e-10
-6.441610e-10
-9.542260e-11
-4.670230e-10
1.052650e-09
-4.786540e-10
-5.656050e-10
5.116260e-10
4.242040e-10
-9.542260e-11
8.798300e-10
-8.484080e-10
-4.786540e-10
9.112530e-10
8.301320e-10
-6.441610e-10
-9.542260e-11
-1.461150e-09
-6.485420e-10
-4.786540e-10
-5.656050e-10
8.301320e-10
-3.927810e-10
-9.542260e-11
8.798300e-10
-6.485420e-10
-8.798300e-10
9.112530e-10
8.301320e-10
-7.384290e-10
-1.070370e-10
-1.461150e-09
-6.485420e-10
1.901060e-09
-2.252410e-10
8.301320e-10
-3.927810e-10
-1.070370e-10
-3.142250e-11
-6.485420e-10
-8.798300e-10
-2.252410e-10
-4.242040e-10
-7.384290e-10
-1.070370e-10
-4.242040e-10
-2.859350e-10
1.901060e-09
-2.252410e-10
-8.326970e-10
3.769810e-11
-1.070370e-10
-3.142250e-11
-2.859350e-10
3.142250e-11
-2.252410e-10
-4.242040e-10
3.769810e-11
6.912950e-10
-4.242040e-10
-2.859350e-10
4.713380e-10
-3.802840e-10
-8.326970e-10
3.769810e-11
5.656050e-10
3.602600e-10
-2.859350e-10
3.142250e-11
-3.802840e-10
3.613590e-10
3.769810e-11
6.912950e-10
3.602600e-10
1.052650e-09
4.713380e-10
-3.802840e-10
-8.484080e-10
1.544550e-10
5.656050e-10
3.602600e-10
3.142250e-10
8.578980e-10
-3.802840e-10
3.613590e-10
1.544550e-10
-5.027600e-10
3.602600e-10
1.052650e-09
8.578980e-10
-4.242040e-10
-8.484080e-10
1.544550e-10
-9.112530e-10
-1.891800e-10
3.142250e-10
8.578980e-10
-4.399150e-10
4.672230e-10
1.544550e-10
-5.027600e-10
-1.891800e-10
0.000000e+00
8.578980e-10
-4.242040e-10
4.672230e-10
1.728240e-10
-9.112530e-10
-1.891800e-10
1.115500e-09
1.367110e-09
-4.399150e-10
4.672230e-10
4.399150e-10
4.986040e-11
-1.891800e-10
0.000000e+00
1.367110e-09
-4.870490e-10
4.672230e-10
1.728240e-10
4.986040e-11
1.728240e-10
1.115500e-09
1.367110e-09
0.000000e+00
4.112780e-10
4.399150e-10
4.986040e-11
1.445440e-09
5.052300e-10
1.367110e-09
-4.870490e-10
4.112780e-10
0.000000e+00
4.986040e-11
1.728240e-10
5.052300e-10
-1.084080e-09
0.000000e+00
4.112780e-10
3.927810e-10
-4.301200e-10
1.445440e-09
5.052300e-10
-4.242040e-10
-4.171680e-10
4.112780e-10
0.000000e+00
-4.301200e-10
1.885350e-10
5.052300e-10
-1.084080e-09
-4.171680e-10
-1.728240e-10
3.927810e-10
-4.301200e-10
-9.426750e-11
2.900410e-10
-4.242040e-10
-4.171680e-10
7.855630e-11
1.775590e-10
-4.301200e-10
1.885350e-10
2.900410e-10
-1.256900e-10
-4.171680e-10
-1.728240e-10
1.775590e-10
-7.227180e-10
-9.426750e-11
2.900410e-10
4.084930e-10
2.253840e-11
7.855630e-11
1.775590e-10
-2.985140e-10
2.296660e-11
2.900410e-10
-1.256900e-10
2.253840e-11
1.571130e-10
1.775590e-10
-7.227180e-10
2.296660e-11
0.000000e+00
4.084930e-10
2.253840e-11
0.000000e+00
-1.896740e-11
-2.985140e-10
2.296660e-11
0.000000e+00
9.192320e-11
2.253840e-11
1.571130e-10
-1.896740e-11
0.000000e+00
2.296660e-11
0.000000e+00
9.192320e-11
0.000000e+00
0.000000e+00
-1.896740e-11
0.000000e+00
-9.763420e-11
0.000000e+00
9.192320e-11
0.000000e+00
2.325260e-10
-1.896740e-11
0.000000e+00
-9.763420e-11
-2.828030e-10
9.192320e-11
0.000000e+00
2.325260e-10
4.556260e-10
0.000000e+00
-9.763420e-11
0.000000e+00
-2.687780e-11
0.000000e+00
2.325260e-10
0.000000e+00
1.751770e-10
-9.763420e-11
-2.828030e-10
-2.687780e-11
-3.142250e-11
2.325260e-10
4.556260e-10
1.751770e-10
2.042460e-10
0.000000e+00
-2.687780e-11
-1.885350e-10
-5.562290e-11
0.000000e+00
1.751770e-10
1.099790e-10
-3.848410e-10
-2.687780e-11
-3.142250e-11
-5.562290e-11
9.426750e-11
1.751770e-10
2.042460e-10
-3.848410e-10
-8.641190e-10
-1.885350e-10
-5.562290e-11
1.099790e-10
4.196270e-11
1.099790e-10
-3.848410e-10
-2.828030e-10
-2.165140e-10
-5.562290e-11
9.426750e-11
4.196270e-11
6.284500e-11
-3.848410e-10
-8.641190e-10
-2.165140e-10
-1.885350e-10
1.099790e-10
4.196270e-11
2.199580e-10
5.389360e-11
-2.828030e-10
-2.165140e-10
0.000000e+00
2.438060e-10
4.196270e-11
6.284500e-11
5.389360e-11
0.000000e+00
-2.165140e-10
-1.885350e-10
2.438060e-10
6.284500e-10
2.199580e-10
5.389360e-11
0.000000e+00
-1.578890e-11
0.000000e+00
2.438060e-10
0.000000e+00
5.961380e-11
5.389360e-11
0.000000e+00
-1.578890e-11
0.000000e+00
2.438060e-10
6.284500e-10
5.961380e-11
1.099790e-10
0.000000e+00
-1.578890e-11
0.000000e+00
-6.021540e-12
0.000000e+00
5.961380e-11
0.000000e+00
-2.439720e-11
-1.578890e-11
0.000000e+00
-6.021540e-12
0.000000e+00
5.961380e-11
1.099790e-10
-2.439720e-11
0.000000e+00
0.000000e+00
-6.021540e-12
0.000000e+00
-1.773010e-12
0.000000e+00
-2.439720e-11
0.000000e+00
-2.990790e-12
-6.021540e-12
0.000000e+00
-1.773010e-12
0.000000e+00
-2.439720e-11
0.000000e+00
-2.990790e-12
0.000000e+00
0.000000e+00
-1.773010e-12
0.000000e+00
3.183740e-12
0.000000e+00
-2.990790e-12
0.000000e+00
6.930970e-12
-1.773010e-12
0.000000e+00
3.183740e-12
0.000000e+00
-2.990790e-12
0.000000e+00
6.930970e-12
0.000000e+00
0.000000e+00
3.183740e-12
0.000000e+00
-5.839770e-12
0.000000e+00
6.930970e-12
0.000000e+00
-3.777420e-12
3.183740e-12
0.000000e+00
-5.839770e-12
0.000000e+00
6.930970e-12
0.000000e+00
-3.777420e-12
0.000000e+00
</DataArray>
<DataArray type="Float32" Name="V2" format="ascii">
0.000000e+00
0.000000e+00
3.117130e-03
3.117130e-03
0.000000e+00
0.000000e+00
3.117130e-03
3.117130e-03
0.000000e+00
0.000000e+00
3.117130e-03
3.117140e-03
0.000000e+00
0.000000e+00
3.117130e-03
3.117130e-03
3.117130e-03
3.117130e-03
6.927250e-03
6.927240e-03
3.117130e-03
3.117130e-03
6.927240e-03
6.927240e-03
3.117130e-03
3.117140e-03
6.927240e-03
6.927240e-03
3.117130e-03
3.117130e-03
6.927240e-03
6.927250e-03
6.927250e-03
6.927240e-03
1.470150e-02
1.470140e-02
6.927240e-03
6.927240e-03
1.470140e-02
1.470140e-02
6.927240e-03
6.927240e-03
1.470140e-02
1.470140e-02
6.927240e-03
6.927250e-03
1.470140e-02
1.470140e-02
1.470150e-02
1.470140e-02
2.734280e-02
2.734270e-02
1.470140e-02
1.470140e-02
2.734270e-02
2.734270e-02
1.470140e-02
1.470140e-02
2.734270e-02
2.734270e-02
1.470140e-02
1.470140e-02
2.734270e-02
2.734270e-02
2.734280e-02
2.734270e-02
4.143320e-02
4.143320e-02
2.734270e-02
2.734270e-02
4.143320e-02
4.143320e-02
2.734270e-02
2.734270e-02
4.143320e-02
4.143320e-02
2.734270e-02
2.734270e-02
4.143320e-02
4.143320e-02
4.143320e-02
4.143320e-02
4.904830e-02
4.904830e-02
4.143320e-02
4.143320e-02
4.904830e-02
4.904830e-02
4.143320e-02
4.143320e-02
4.904830e-02
4.904830e-02
4.143320e-02
4.143320e-02
4.904830e-02
4.904830e-02
4.904830e-02
4.904830e-02
4.275290e-02
4.275290e-02
4.904830e-02
4.904830e-02
4.275290e-02
4.275290e-02
4.904830e-02
4.904830e-02
4.275290e-02
4.275290e-02
4.904830e-02
4.904830e-02
4.275290e-02
4.275290e-02
4.275290e-02
4.275290e-02
1.621510e-02
1.621510e-02
4.275290e-02
4.275290e-02
1.621510e-02
1.621510e-02
4.275290e-02
4.275290e-02
1.621510e-02
1.621510e-02
4.275290e-02
4.275290e-02
1.621510e-02
1.621510e-02
1.621510e-02
1.621510e-02
-1.397210e-02
-1.397210e-02
1.621510e-02
1.621510e-02
-1.397210e-02
-1.397210e-02
1.621510e-02
1.621510e-02
-1.397210e-02
-1.397210e-02
1.621510e-02
1.621510e-02
-1.397210e-02
-1.397210e-02
-1.397210e-02
-1.397210e-02
-2.359830e-02
-2.359830e-02
-1.397210e-02
-1.397210e-02
-2.359830e-02
-2.359830e-02
-1.397210e-02
-1.397210e-02
-2.359830e-02
-2.359830e-02
-1.397210e-02
-1.397210e-02
-2.359830e-02
-2.359830e-02
-2.359830e-02
-2.359830e-02
-6.477880e-03
-6.477880e-03
-2.359830e-02
-2.359830e-02
-6.477880e-03
-6.477880e-03
-2.359830e-02
-2.359830e-02
-6.477880e-03
-6.477880e-03
-2.359830e-02
-2.359830e-02
-6.477880e-03
-6.477880e-03
-6.477880e-03
-6.477880e-03
1.477310e-02
1.477310e-02
-6.477880e-03
-6.477880e-03
1.477310e-02
1.477310e-02
-6.477880e-03
-6.477880e-03
1.477310e-02
1.477310e-02
-6.477880e-03
-6.477880e-03
1.477310e-02
1.477310e-02
1.477310e-02
1.477310e-02
6.383690e-03
6.383680e-03
1.477310e-02
1.477310e-02
6.383690e-03
6.383690e-03
1.477310e-02
1.477310e-02
6.383680e-03
6.383690e-03
1.477310e-02
1.477310e-02
6.383690e-03
6.383690e-03
6.383690e-03
6.383680e-03
-9.786360e-03
-9.786350e-03
6.383690e-03
6.383690e-03
-9.786360e-03
-9.786360e-03
6.383680e-03
6.383690e-03
-9.786350e-03
-9.786360e-03
6.383690e-03
6.383690e-03
-9.786360e-03
-9.786360e-03
-9.786360e-03
-9.786350e-03
-2.998350e-03
-2.998340e-03
-9.786360e-03
-9.786360e-03
-2.998350e-03
-2.998350e-03
-9.786350e-03
-9.786360e-03
-2.998340e-03
-2.998350e-03
-9.786360e-03
-9.786360e-03
-2.998350e-03
-2.998350e-03
-2.998350e-03
-2.998340e-03
4.723140e-03
4.723130e-03
-2.998350e-03
-2.998350e-03
4.723130e-03
4.723130e-03
-2.998340e-03
-2.998350e-03
4.723130e-03
4.723140e-03
-2.998350e-03
-2.998350e-03
4.723130e-03
4.723130e-03
4.723140e-03
4.723130e-03
-6.971580e-04
-6.971590e-04
4.723130e-03
4.723130e-03
-6.971600e-04
-6.971630e-04
4.723130e-03
4.723140e-03
-6.971590e-04
-6.971620e-04
4.723130e-03
4.723130e-03
-6.971630e-04
-6.971600e-04
-6.971580e-04
-6.971590e-04
-2.310360e-03
-2.310360e-03
-6.971600e-04
-6.971630e-04
-2.310360e-03
-2.310360e-03
-6.971590e-04
-6.971620e-04
-2.310360e-03
-2.310360e-03
-6.971630e-04
-6.971600e-04
-2.310360e-03
-2.310360e-03
-2.310360e-03
-2.310360e-03
4.306250e-04
4.306240e-04
-2.310360e-03
-2.310360e-03
4.306250e-04
4.306220e-04
-2.310360e-03
-2.310360e-03
4.306240e-04
4.306260e-04
-2.310360e-03
-2.310360e-03
4.306220e-04
4.306240e-04
4.306250e-04
4.306240e-04
3.599800e-05
3.599830e-05
4.306250e-04
4.306220e-04
3.599860e-05
3.599870e-05
4.306240e-04
4.306260e-04
3.599830e-05
3.599720e-05
4.306220e-04
4.306240e-04
3.599870e-05
3.599780e-05
3.599800e-05
3.599830e-05
-5.815200e-04
-5.815190e-04
3.599860e-05
3.599870e-05
-5.815190e-04
-5.815200e-04
3.599830e-05
3.599720e-05
-5.815190e-04
-5.815220e-04
3.599870e-05
3.599780e-05
-5.815200e-04
-5.815210e-04
-5.815200e-04
-5.815190e-04
-4.047410e-05
-4.049960e-05
-5.815190e-04
-5.815200e-04
-4.049170e-05
-4.047870e-05
-5.815190e-04
-5.815220e-04
-4.049960e-05
-4.048180e-05
-5.815200e-04
-5.815210e-04
-4.047870e-05
-4.049410e-05
-4.047410e-05
-4.049960e-05
4.402260e-05
4.401690e-05
-4.049170e-05
-4.047870e-05
4.401800e-05
4.402370e-05
-4.049960e-05
-4.048180e-05
4.401690e-05
4.402510e-05
-4.047870e-05
-4.049410e-05
4.402370e-05
4.401720e-05
4.402260e-05
4.401690e-05
-6.609860e-05
-6.608530e-05
4.401800e-05
4.402370e-05
-6.608880e-05
-6.609830e-05
4.401690e-05
4.402510e-05
-6.608530e-05
-6.609790e-05
4.402370e-05
4.401720e-05
-6.609830e-05
-6.608870e-05
-6.609860e-05
-6.608530e-05
-2.178790e-05
-2.178060e-05
-6.608880e-05
-6.609830e-05
-2.178270e-05
-2.178520e-05
-6.608530e-05
-6.609790e-05
-2.178060e-05
-2.178310e-05
-6.609830e-05
-6.608870e-05
-2.178520e-05
-2.178060e-05
-2.178790e-05
-2.178060e-05
8.913310e-06
8.912300e-06
-2.178270e-05
-2.178520e-05
8.912300e-06
8.913060e-06
-2.178060e-05
-2.178310e-05
8.912300e-06
8.913310e-06
-2.178520e-05
-2.178060e-05
8.913060e-06
8.912560e-06
8.913310e-06
8.912300e-06
5.053510e-05
5.053490e-05
8.912300e-06
8.913060e-06
5.053480e-05
5.053490e-05
8.912300e-06
8.913310e-06
5.053490e-05
5.053530e-05
8.913060e-06
8.912560e-06
5.053490e-05
5.053530e-05
5.053510e-05
5.053490e-05
9.670760e-05
9.670840e-05
5.053480e-05
5.053490e-05
9.670700e-05
9.670790e-05
5.053490e-05
5.053530e-05
9.670840e-05
9.670790e-05
5.053490e-05
5.053530e-05
9.670790e-05
9.670790e-05
9.670760e-05
9.670840e-05
1.686890e-04
1.686880e-04
9.670700e-05
9.670790e-05
1.686890e-04
1.686890e-04
9.670840e-05
9.670790e-05
1.686880e-04
1.686880e-04
9.670790e-05
9.670790e-05
1.686890e-04
1.686880e-04
1.686890e-04
1.686880e-04
1.336500e-04
1.336500e-04
1.686890e-04
1.686890e-04
1.336500e-04
1.336500e-04
1.686880e-04
1.686880e-04
1.336500e-04
1.336510e-04
1.686890e-04
1.686880e-04
1.336500e-04
1.336500e-04
0.000000e+00
0.000000e+00
3.117130e-03
3.117130e-03
0.000000e+00
0.000000e+00
3.117130e-03
3.117130e-03
0.000000e+00
0.000000e+00
3.117130e-03
3.117130e-03
0.000000e+00
0.000000e+00
3.117130e-03
3.117130e-03
3.117130e-03
3.117130e-03
6.927240e-03
6.927240e-03
3.117130e-03
3.117130e-03
6.927250e-03
6.927250e-03
3.117130e-03
3.117130e-03
6.927240e-03
6.927250e-03
3.117130e-03
3.117130e-03
6.927250e-03
6.927240e-03
6.927240e-03
6.927240e-03
1.470140e-02
1.470140e-02
6.927250e-03
6.927250e-03
1.470140e-02
1.470140e-02
6.927240e-03