<?xml version="1.0"?>
<VTKFile type="UnstructuredGrid" version="0.1" byte_order="LittleEndian" compressor="vtkZLibDataCompressor">
<UnstructuredGrid>
<Piece NumberOfPoints="960" NumberOfCells="120">
<Points>
<DataArray type="Float32" NumberOfComponents="3" format="ascii">
-4.000000e+02 -6.000000e+03 -4.000000e+02
0.000000e+00 -6.000000e+03 -4.000000e+02
-4.000000e+02 -5.600000e+03 -4.000000e+02
1.061690e-09 -5.600000e+03 -4.000000e+02
-4.000000e+02 -6.000000e+03 0.000000e+00
0.000000e+00 -6.000000e+03 0.000000e+00
-4.000000e+02 -5.600000e+03 1.564700e-10
9.536890e-11 -5.600000e+03 6.606510e-11
0.000000e+00 -6.000000e+03 -4.000000e+02
4.000000e+02 -6.000000e+03 -4.000000e+02
1.061690e-09 -5.600000e+03 -4.000000e+02
4.000000e+02 -5.600000e+03 -4.000000e+02
0.000000e+00 -6.000000e+03 0.000000e+00
4.000000e+02 -6.000000e+03 0.000000e+00
9.536890e-11 -5.600000e+03 6.606510e-11
4.000000e+02 -5.600000e+03 -1.418590e-10
-4.000000e+02 -5.600000e+03 -4.000000e+02
1.061690e-09 -5.600000e+03 -4.000000e+02
-4.000000e+02 -5.200000e+03 -4.000000e+02
2.291310e-09 -5.200000e+03 -4.000000e+02
-4.000000e+02 -5.600000e+03 1.564700e-10
9.536890e-11 -5.600000e+03 6.606510e-11
-4.000000e+02 -5.200000e+03 -1.264250e-10
7.815850e-10 -5.200000e+03 4.118650e-10
1.061690e-09 -5.600000e+03 -4.000000e+02
4.000000e+02 -5.600000e+03 -4.000000e+02
2.291310e-09 -5.200000e+03 -4.000000e+02
4.000000e+02 -5.200000e+03 -4.000000e+02
9.536890e-11 -5.600000e+03 6.606510e-11
4.000000e+02 -5.600000e+03 -1.418590e-10
7.815850e-10 -5.200000e+03 4.118650e-10
4.000000e+02 -5.200000e+03 -1.016350e-10
-4.000000e+02 -5.200000e+03 -4.000000e+02
2.291310e-09 -5.200000e+03 -4.000000e+02
-4.000000e+02 -4.800000e+03 -4.000000e+02
2.204090e-09 -4.800000e+03 -4.000000e+02
-4.000000e+02 -5.200000e+03 -1.264250e-10
7.815850e-10 -5.200000e+03 4.118650e-10
-4.000000e+02 -4.800000e+03 -4.759420e-10
1.797030e-09 -4.800000e+03 -1.263170e-09
2.291310e-09 -5.200000e+03 -4.000000e+02
4.000000e+02 -5.200000e+03 -4.000000e+02
2.204090e-09 -4.800000e+03 -4.000000e+02
4.000000e+02 -4.800000e+03 -4.000000e+02
7.815850e-10 -5.200000e+03 4.118650e-10
4.000000e+02 -5.200000e+03 -1.016350e-10
1.797030e-09 -4.800000e+03 -1.263170e-09
4.000000e+02 -4.800000e+03 -1.904320e-10
-4.000000e+02 -4.800000e+03 -4.000000e+02
2.204090e-09 -4.800000e+03 -4.000000e+02
-4.000000e+02 -4.400000e+03 -4.000000e+02
2.882970e-09 -4.400000e+03 -4.000000e+02
-4.000000e+02 -4.800000e+03 -4.759420e-10
1.797030e-09 -4.800000e+03 -1.263170e-09
-4.000000e+02 -4.400000e+03 -1.794330e-09
2.436670e-09 -4.400000e+03 -1.476650e-09
2.204090e-09 -4.800000e+03 -4.000000e+02
4.000000e+02 -4.800000e+03 -4.000000e+02
2.882970e-09 -4.400000e+03 -4.000000e+02
4.000000e+02 -4.400000e+03 -4.000000e+02
1.797030e-09 -4.800000e+03 -1.263170e-09
4.000000e+02 -4.800000e+03 -1.904320e-10
2.436670e-09 -4.400000e+03 -1.476650e-09
4.000000e+02 -4.400000e+03 -2.270870e-09
-4.000000e+02 -4.400000e+03 -4.000000e+02
2.882970e-09 -4.400000e+03 -4.000000e+02
-4.000000e+02 -4.000010e+03 -4.000000e+02
2.332520e-09 -4.000010e+03 -4.000000e+02
-4.000000e+02 -4.400000e+03 -1.794330e-09
2.436670e-09 -4.400000e+03 -1.476650e-09
-4.000000e+02 -4.000010e+03 -2.949850e-10
2.100350e-09 -4.000010e+03 -1.076260e-10
2.882970e-09 -4.400000e+03 -4.000000e+02
4.000000e+02 -4.400000e+03 -4.000000e+02
2.332520e-09 -4.000010e+03 -4.000000e+02
4.000000e+02 -4.000010e+03 -4.000000e+02
2.436670e-09 -4.400000e+03 -1.476650e-09
4.000000e+02 -4.400000e+03 -2.270870e-09
2.100350e-09 -4.000010e+03 -1.076260e-10
4.000000e+02 -4.000010e+03 -1.319280e-09
-4.000000e+02 -4.000010e+03 -4.000000e+02
2.332520e-09 -4.000010e+03 -4.000000e+02
-4.000000e+02 -3.600010e+03 -4.000000e+02
1.117650e-09 -3.600010e+03 -4.000000e+02
-4.000000e+02 -4.000010e+03 -2.949850e-10
2.100350e-09 -4.000010e+03 -1.076260e-10
-4.000000e+02 -3.600010e+03 9.999470e-10
1.594560e-09 -3.600010e+03 3.757510e-10
2.332520e-09 -4.000010e+03 -4.000000e+02
4.000000e+02 -4.000010e+03 -4.000000e+02
1.117650e-09 -3.600010e+03 -4.000000e+02
4.000000e+02 -3.600010e+03 -4.000000e+02
2.100350e-09 -4.000010e+03 -1.076260e-10
4.000000e+02 -4.000010e+03 -1.319280e-09
1.594560e-09 -3.600010e+03 3.757510e-10
4.000000e+02 -3.600010e+03 3.328070e-10
-4.000000e+02 -3.600010e+03 -4.000000e+02
1.117650e-09 -3.600010e+03 -4.000000e+02
-4.000000e+02 -3.200010e+03 -4.000000e+02
5.924660e-10 -3.200010e+03 -4.000000e+02
-4.000000e+02 -3.600010e+03 9.999470e-10
1.594560e-09 -3.600010e+03 3.757510e-10
-4.000000e+02 -3.200010e+03 1.534240e-09
1.411940e-09 -3.200010e+03 1.719390e-09
1.117650e-09 -3.600010e+03 -4.000000e+02
4.000000e+02 -3.600010e+03 -4.000000e+02
5.924660e-10 -3.200010e+03 -4.000000e+02
4.000000e+02 -3.200010e+03 -4.000000e+02
1.594560e-09 -3.600010e+03 3.757510e-10
4.000000e+02 -3.600010e+03 3.328070e-10
1.411940e-09 -3.200010e+03 1.719390e-09
4.000000e+02 -3.200010e+03 8.759720e-10
-4.000000e+02 -3.200010e+03 -4.000000e+02
5.924660e-10 -3.200010e+03 -4.000000e+02
-4.000000e+02 -2.800010e+03 -4.000000e+02
2.345150e-09 -2.800010e+03 -4.000000e+02
-4.000000e+02 -3.200010e+03 1.534240e-09
1.411940e-09 -3.200010e+03 1.719390e-09
-4.000000e+02 -2.800010e+03 2.760990e-09
2.575000e-09 -2.800010e+03 1.491660e-09
5.924660e-10 -3.200010e+03 -4.000000e+02
4.000000e+02 -3.200010e+03 -4.000000e+02
2.345150e-09 -2.800010e+03 -4.000000e+02
4.000000e+02 -2.800010e+03 -4.000000e+02
1.411940e-09 -3.200010e+03 1.719390e-09
4.000000e+02 -3.200010e+03 8.759720e-10
2.575000e-09 -2.800010e+03 1.491660e-09
4.000000e+02 -2.800010e+03 2.299730e-09
-4.000000e+02 -2.800010e+03 -4.000000e+02
2.345150e-09 -2.800010e+03 -4.000000e+02
-4.000000e+02 -2.400010e+03 -4.000000e+02
1.486150e-09 -2.400010e+03 -4.000000e+02
-4.000000e+02 -2.800010e+03 2.760990e-09
2.575000e-09 -2.800010e+03 1.491660e-09
-4.000000e+02 -2.400010e+03 1.768260e-09
2.963700e-09 -2.400010e+03 1.253680e-09
2.345150e-09 -2.800010e+03 -4.000000e+02
4.000000e+02 -2.800010e+03 -4.000000e+02
1.486150e-09 -2.400010e+03 -4.000000e+02
4.000000e+02 -2.400010e+03 -4.000000e+02
2.575000e-09 -2.800010e+03 1.491660e-09
4.000000e+02 -2.800010e+03 2.299730e-09
2.963700e-09 -2.400010e+03 1.253680e-09
4.000000e+02 -2.400010e+03 1.387240e-09
-4.000000e+02 -2.400010e+03 -4.000000e+02
1.486150e-09 -2.400010e+03 -4.000000e+02
-4.000000e+02 -2.000010e+03 -4.000000e+02
2.061190e-09 -2.000010e+03 -4.000000e+02
-4.000000e+02 -2.400010e+03 1.768260e-09
2.963700e-09 -2.400010e+03 1.253680e-09
-4.000000e+02 -2.000010e+03 1.926120e-09
2.195770e-09 -2.000010e+03 1.324170e-09
1.486150e-09 -2.400010e+03 -4.000000e+02
4.000000e+02 -2.400010e+03 -4.000000e+02
2.061190e-09 -2.000010e+03 -4.000000e+02
4.000000e+02 -2.000010e+03 -4.000000e+02
2.963700e-09 -2.400010e+03 1.253680e-09
4.000000e+02 -2.400010e+03 1.387240e-09
2.195770e-09 -2.000010e+03 1.324170e-09
4.000000e+02 -2.000010e+03 7.604280e-10
-4.000000e+02 -2.000010e+03 -4.000000e+02
2.061190e-09 -2.000010e+03 -4.000000e+02
-4.000000e+02 -1.600010e+03 -4.000000e+02
2.115450e-09 -1.600010e+03 -4.000000e+02
-4.000000e+02 -2.000010e+03 1.926120e-09
2.195770e-09 -2.000010e+03 1.324170e-09
-4.000000e+02 -1.600010e+03 1.049210e-09
2.235730e-09 -1.600010e+03 2.449820e-09
2.061190e-09 -2.000010e+03 -4.000000e+02
4.000000e+02 -2.000010e+03 -4.000000e+02
2.115450e-09 -1.600010e+03 -4.000000e+02
4.000000e+02 -1.600010e+03 -4.000000e+02
2.195770e-09 -2.000010e+03 1.324170e-09
4.000000e+02 -2.000010e+03 7.604280e-10
2.235730e-09 -1.600010e+03 2.449820e-09
4.000000e+02 -1.600010e+03 2.890990e-09
-4.000000e+02 -1.600010e+03 -4.000000e+02
2.115450e-09 -1.600010e+03 -4.000000e+02
-4.000000e+02 -1.200020e+03 -4.000000e+02
2.162830e-09 -1.200020e+03 -4.000000e+02
-4.000000e+02 -1.600010e+03 1.049210e-09
2.235730e-09 -1.600010e+03 2.449820e-09
-4.000000e+02 -1.200020e+03 1.868420e-09
3.416740e-09 -1.200020e+03 2.440880e-09
2.115450e-09 -1.600010e+03 -4.000000e+02
4.000000e+02 -1.600010e+03 -4.000000e+02
2.162830e-09 -1.200020e+03 -4.000000e+02
4.000000e+02 -1.200020e+03 -4.000000e+02
2.235730e-09 -1.600010e+03 2.449820e-09
4.000000e+02 -1.600010e+03 2.890990e-09
3.416740e-09 -1.200020e+03 2.440880e-09
4.000000e+02 -1.200020e+03 2.952210e-09
-4.000000e+02 -1.200020e+03 -4.000000e+02
2.162830e-09 -1.200020e+03 -4.000000e+02
-4.000000e+02 -8.000200e+02 -4.000000e+02
1.845320e-09 -8.000200e+02 -4.000000e+02
-4.000000e+02 -1.200020e+03 1.868420e-09
3.416740e-09 -1.200020e+03 2.440880e-09
-4.000000e+02 -8.000200e+02 3.343730e-09
-1.807600e-11 -8.000200e+02 1.031950e-09
2.162830e-09 -1.200020e+03 -4.000000e+02
4.000000e+02 -1.200020e+03 -4.000000e+02
1.845320e-09 -8.000200e+02 -4.000000e+02
4.000000e+02 -8.000200e+02 -4.000000e+02
3.416740e-09 -1.200020e+03 2.440880e-09
4.000000e+02 -1.200020e+03 2.952210e-09
-1.807600e-11 -8.000200e+02 1.031950e-09
4.000000e+02 -8.000200e+02 -2.683870e-10
-4.000000e+02 -8.000200e+02 -4.000000e+02
1.845320e-09 -8.000200e+02 -4.000000e+02
-4.000000e+02 -4.000250e+02 -4.000000e+02
-1.750190e-09 -4.000250e+02 -4.000000e+02
-4.000000e+02 -8.000200e+02 3.343730e-09
-1.807600e-11 -8.000200e+02 1.031950e-09
-4.000000e+02 -4.000250e+02 -1.041540e-09
-1.983870e-09 -4.000250e+02 3.679920e-10
1.845320e-09 -8.000200e+02 -4.000000e+02
4.000000e+02 -8.000200e+02 -4.000000e+02
-1.750190e-09 -4.000250e+02 -4.000000e+02
4.000000e+02 -4.000250e+02 -4.000000e+02
-1.807600e-11 -8.000200e+02 1.031950e-09
4.000000e+02 -8.000200e+02 -2.683870e-10
-1.983870e-09 -4.000250e+02 3.679920e-10
4.000000e+02 -4.000250e+02 8.589390e-10
-4.000000e+02 -4.000250e+02 -4.000000e+02
-1.750190e-09 -4.000250e+02 -4.000000e+02
-4.000000e+02 -3.404070e-02 -4.000000e+02
-1.455900e-09 -3.404070e-02 -4.000000e+02
-4.000000e+02 -4.000250e+02 -1.041540e-09
-1.983870e-09 -4.000250e+02 3.679920e-10
-4.000000e+02 -3.404070e-02 -3.497230e-10
2.242930e-09 -3.404070e-02 2.152110e-09
-1.750190e-09 -4.000250e+02 -4.000000e+02
4.000000e+02 -4.000250e+02 -4.000000e+02
-1.455900e-09 -3.404070e-02 -4.000000e+02
4.000000e+02 -3.404070e-02 -4.000000e+02
-1.983870e-09 -4.000250e+02 3.679920e-10
[...]
<PointData>
<DataArray type="Float32" Name="V1" format="ascii">
0.000000e+00
0.000000e+00
-7.384290e-10
-4.887080e-10
0.000000e+00
0.000000e+00
1.963910e-09
1.147750e-09
0.000000e+00
0.000000e+00
-4.887080e-10
-5.813160e-10
0.000000e+00
0.000000e+00
1.147750e-09
4.870490e-10
-7.384290e-10
-4.887080e-10
-3.770700e-10
1.078250e-09
1.963910e-09
1.147750e-09
1.696820e-09
-4.325530e-11
-4.887080e-10
-5.813160e-10
1.078250e-09
1.256900e-09
1.147750e-09
4.870490e-10
-4.325530e-11
-1.822510e-09
-3.770700e-10
1.078250e-09
-2.780890e-09
-1.651670e-10
1.696820e-09
-4.325530e-11
1.084080e-09
-8.176310e-10
1.078250e-09
1.256900e-09
-1.651670e-10
4.556260e-10
-4.325530e-11
-1.822510e-09
-8.176310e-10
-4.556260e-10
-2.780890e-09
-1.651670e-10
6.127390e-10
3.790260e-10
1.084080e-09
-8.176310e-10
5.656050e-10
1.675770e-10
-1.651670e-10
4.556260e-10
3.790260e-10
-1.241190e-09
-8.176310e-10
-4.556260e-10
1.675770e-10
9.898090e-10
6.127390e-10
3.790260e-10
7.855630e-11
-6.389360e-10
5.656050e-10
1.675770e-10
-7.541400e-10
4.822300e-10
3.790260e-10
-1.241190e-09
-6.389360e-10
-1.571130e-09
1.675770e-10
9.898090e-10
4.822300e-10
9.740980e-10
7.855630e-11
-6.389360e-10
-5.184710e-10
4.775000e-10
-7.541400e-10
4.822300e-10
-1.162630e-09
-5.859880e-10
-6.389360e-10
-1.571130e-09
4.775000e-10
-9.583870e-10
4.822300e-10
9.740980e-10
-5.859880e-10
1.241190e-09
-5.184710e-10
4.775000e-10
-5.970280e-10
-1.092010e-09
-1.162630e-09
-5.859880e-10
8.798300e-10
1.079010e-10
4.775000e-10
-9.583870e-10
-1.092010e-09
-1.445440e-09
-5.859880e-10
1.241190e-09
1.079010e-10
-7.855630e-11
-5.970280e-10
-1.092010e-09
-1.099790e-10
-3.472480e-10
8.798300e-10
1.079010e-10
-2.356690e-10
-7.945040e-10
-1.092010e-09
-1.445440e-09
-3.472480e-10
2.828030e-10
1.079010e-10
-7.855630e-11
-7.945040e-10
-1.728240e-10
-1.099790e-10
-3.472480e-10
1.304030e-09
1.305990e-09
-2.356690e-10
-7.945040e-10
1.853930e-09
-5.042030e-10
-3.472480e-10
2.828030e-10
1.305990e-09
1.508280e-09
-7.945040e-10
-1.728240e-10
-5.042030e-10
-2.231000e-09
1.304030e-09
1.305990e-09
2.749470e-09
-1.140770e-09
1.853930e-09
-5.042030e-10
-2.152440e-09
4.996120e-10
1.305990e-09
1.508280e-09
-1.140770e-09
-2.545220e-09
-5.042030e-10
-2.231000e-09
4.996120e-10
2.026750e-09
2.749470e-09
-1.140770e-09
-4.273460e-09
3.955460e-10
-2.152440e-09
4.996120e-10
1.759660e-09
6.921740e-10
-1.140770e-09
-2.545220e-09
3.955460e-10
3.110830e-09
4.996120e-10
2.026750e-09
6.921740e-10
-5.341830e-10
-4.273460e-09
3.955460e-10
5.577500e-09
3.824260e-09
1.759660e-09
6.921740e-10
-5.813160e-10
-1.137480e-10
3.955460e-10
3.110830e-09
3.824260e-09
1.414010e-10
6.921740e-10
-5.341830e-10
-1.137480e-10
7.855630e-10
5.577500e-09
3.824260e-09
-5.498940e-10
-2.237220e-09
-5.813160e-10
-1.137480e-10
-6.834400e-09
-1.902400e-09
3.824260e-09
1.414010e-10
-2.237220e-09
-1.791080e-09
-1.137480e-10
7.855630e-10
-1.902400e-09
2.199580e-09
-5.498940e-10
-2.237220e-09
-5.640340e-09
-2.714080e-09
-6.834400e-09
-1.902400e-09
8.468370e-09
-4.580110e-10
-2.237220e-09
-1.791080e-09
-2.714080e-09
1.194060e-09
-1.902400e-09
2.199580e-09
-4.580110e-10
-7.337160e-09
-5.640340e-09
-2.714080e-09
2.985140e-10
4.977850e-10
8.468370e-09
-4.580110e-10
4.493420e-09
3.300670e-09
-2.714080e-09
1.194060e-09
4.977850e-10
1.523990e-09
-4.580110e-10
-7.337160e-09
3.300670e-09
1.681100e-09
2.985140e-10
4.977850e-10
1.775370e-08
9.074370e-09
4.493420e-09
3.300670e-09
-1.743950e-08
-9.774090e-10
4.977850e-10
1.523990e-09
9.074370e-09
-8.484080e-10
3.300670e-09
1.681100e-09
-9.774090e-10
1.646540e-08
1.775370e-08
9.074370e-09
-2.295410e-08
-6.034150e-09
-1.743950e-08
-9.774090e-10
2.813890e-08
-5.608220e-10
9.074370e-09
-8.484080e-10
-6.034150e-09
9.835250e-09
-9.774090e-10
1.646540e-08
-5.608220e-10
-2.887730e-08
-2.295410e-08
-6.034150e-09
3.283650e-08
-1.831210e-08
2.813890e-08
-5.608220e-10
-6.699280e-08
-4.728030e-09
-6.034150e-09
9.835250e-09
-1.831210e-08
-6.702420e-08
-5.608220e-10
-2.887730e-08
-4.728030e-09
5.799020e-08
3.283650e-08
-1.831210e-08
-1.885350e-10
2.393800e-08
-6.699280e-08
-4.728030e-09
7.385860e-08
5.775010e-09
-1.831210e-08
-6.702420e-08
2.393800e-08
4.564120e-08
-4.728030e-09
5.799020e-08
5.775010e-09
-6.201230e-08
-1.885350e-10
2.393800e-08
2.934860e-08
1.451730e-08
7.385860e-08
5.775010e-09
-2.315840e-08
-3.724920e-09
2.393800e-08
4.564120e-08
1.451730e-08
-3.927810e-10
5.775010e-09
-6.201230e-08
-3.724920e-09
1.626110e-08
2.934860e-08
1.451730e-08
-1.337030e-08
4.111980e-09
-2.315840e-08
-3.724920e-09
7.195750e-09
-1.278390e-08
1.451730e-08
-3.927810e-10
4.111980e-09
2.132020e-08
-3.724920e-09
1.626110e-08
-1.278390e-08
-3.283650e-08
-1.337030e-08
4.111980e-09
3.820980e-08
3.536350e-10
7.195750e-09
-1.278390e-08
-9.143950e-09
6.480970e-09
4.111980e-09
2.132020e-08
3.536350e-10
-3.689000e-08
-1.278390e-08
-3.283650e-08
6.480970e-09
2.150870e-08
3.820980e-08
3.536350e-10
-6.997790e-08
-1.835440e-08
-9.143950e-09
6.480970e-09
-1.805220e-08
3.574010e-09
3.536350e-10
-3.689000e-08
-1.835440e-08
3.321360e-08
6.480970e-09
2.150870e-08
3.574010e-09
2.520090e-08
-6.997790e-08
-1.835440e-08
-5.865010e-08
-1.409490e-09
-1.805220e-08
3.574010e-09
2.053460e-08
1.069280e-09
-1.835440e-08
3.321360e-08
-1.409490e-09
5.568070e-08
3.574010e-09
2.520090e-08
1.069280e-09
-1.841360e-08
-5.865010e-08
-1.409490e-09
9.071680e-08
1.943060e-08
2.053460e-08
1.069280e-09
-9.521020e-09
4.011060e-10
-1.409490e-09
5.568070e-08
1.943060e-08
-5.200430e-08
1.069280e-09
-1.841360e-08
4.011060e-10
1.036940e-08
9.071680e-08
1.943060e-08
-7.447130e-09
-5.033190e-09
-9.521020e-09
4.011060e-10
8.059870e-09
-3.557530e-09
1.943060e-08
-5.200430e-08
-5.033190e-09
-2.608070e-09
4.011060e-10
1.036940e-08
-3.557530e-09
-1.505140e-08
-7.447130e-09
-5.033190e-09
-1.362170e-08
-4.649770e-09
8.059870e-09
-3.557530e-09
-1.162630e-09
-1.218010e-10
-5.033190e-09
-2.608070e-09
-4.649770e-09
4.289170e-09
-3.557530e-09
-1.505140e-08
-1.218010e-10
9.898090e-10
-1.362170e-08
-4.649770e-09
-1.382590e-09
5.289260e-11
-1.162630e-09
-1.218010e-10
-4.242040e-10
4.564360e-10
-4.649770e-09
4.289170e-09
5.289260e-11
1.492570e-09
-1.218010e-10
9.898090e-10
4.564360e-10
1.366880e-09
-1.382590e-09
5.289260e-11
4.242040e-10
-2.744040e-11
-4.242040e-10
4.564360e-10
-1.728240e-10
-1.579360e-10
5.289260e-11
1.492570e-09
-2.744040e-11
-4.713380e-10
4.564360e-10
1.366880e-09
-1.579360e-10
-1.414010e-10
4.242040e-10
-2.744040e-11
1.398300e-09
4.540080e-10
-1.728240e-10
-1.579360e-10
-2.356690e-10
1.929100e-10
-2.744040e-11
-4.713380e-10
4.540080e-10
-4.556260e-10
-1.579360e-10
-1.414010e-10
1.929100e-10
5.970280e-10
0.000000e+00
0.000000e+00
1.963910e-09
1.147750e-09
0.000000e+00
0.000000e+00
-3.927810e-10
-3.052020e-10
0.000000e+00
0.000000e+00
1.147750e-09
4.870490e-10
0.000000e+00
0.000000e+00
-3.052020e-10
-7.070060e-10
1.963910e-09
1.147750e-09
1.696820e-09
-4.325530e-11
-3.927810e-10
-3.052020e-10
1.146920e-09
7.089840e-10
1.147750e-09
4.870490e-10
-4.325530e-11
-1.822510e-09
-3.052020e-10
-7.070060e-10
7.089840e-10
1.351170e-09
1.696820e-09
-4.325530e-11
1.084080e-09
-8.176310e-10
1.146920e-09
7.089840e-10
0.000000e+00
3.290790e-10
-4.325530e-11
-1.822510e-09
-8.176310e-10
-4.556260e-10
7.089840e-10
1.351170e-09
3.290790e-10
9.583870e-10
1.084080e-09
-8.176310e-10
5.656050e-10
1.675770e-10
0.000000e+00
3.290790e-10
8.955420e-10
5.747970e-10
-8.176310e-10
-4.556260e-10
1.675770e-10
9.898090e-10
3.290790e-10
9.583870e-10
5.747970e-10
-2.780890e-09
5.656050e-10
1.675770e-10
-7.541400e-10
4.822300e-10
8.955420e-10
5.747970e-10
1.885350e-09
2.793960e-10
1.675770e-10
9.898090e-10
4.822300e-10
9.740980e-10
5.747970e-10
-2.780890e-09
2.793960e-10
-6.755840e-10
-7.541400e-10
4.822300e-10
-1.162630e-09
-5.859880e-10
1.885350e-09
2.793960e-10
-5.027600e-10
-3.521990e-10
4.822300e-10
9.740980e-10
-5.859880e-10
1.241190e-09
2.793960e-10
-6.755840e-10
-3.521990e-10
4.713380e-10
-1.162630e-09
-5.859880e-10
8.798300e-10
1.079010e-10
-5.027600e-10
-3.521990e-10
-2.089600e-09
-1.539680e-09
-5.859880e-10
1.241190e-09
1.079010e-10
-7.855630e-11
-3.521990e-10
4.713380e-10
-1.539680e-09
-1.005520e-09
8.798300e-10
1.079010e-10
-2.356690e-10
-7.945040e-10
-2.089600e-09
-1.539680e-09
1.948200e-09
9.425670e-10
1.079010e-10
-7.855630e-11
-7.945040e-10
-1.728240e-10
-1.539680e-09
-1.005520e-09
9.425670e-10
2.466670e-09
-2.356690e-10
-7.945040e-10
1.853930e-09
-5.042030e-10
1.948200e-09
9.425670e-10
-2.686620e-09
-9.176100e-10
-7.945040e-10
-1.728240e-10
-5.042030e-10
-2.231000e-09
9.425670e-10
2.466670e-09
-9.176100e-10
2.356690e-10
1.853930e-09
-5.042030e-10
-2.152440e-09
4.996120e-10
-2.686620e-09
-9.176100e-10
6.598730e-10
-1.882820e-09
-5.042030e-10
-2.231000e-09
4.996120e-10
2.026750e-09
-9.176100e-10
2.356690e-10
-1.882820e-09
-1.806790e-09
-2.152440e-09
4.996120e-10
1.759660e-09
6.921740e-10
6.598730e-10
-1.882820e-09
-2.356690e-10
3.729660e-09
4.996120e-10
2.026750e-09
6.921740e-10
-5.341830e-10
-1.882820e-09
-1.806790e-09
3.729660e-09
6.708710e-09
1.759660e-09
6.921740e-10
-5.813160e-10
-1.137480e-10
-2.356690e-10
3.729660e-09
-3.095120e-09
-2.132640e-09
6.921740e-10
-5.341830e-10
-1.137480e-10
7.855630e-10
3.729660e-09
6.708710e-09
-2.132640e-09
-1.901060e-09
-5.813160e-10
-1.137480e-10
-6.834400e-09
-1.902400e-09
-3.095120e-09
-2.132640e-09
1.791080e-09
-1.159390e-09
-1.137480e-10
7.855630e-10
-1.902400e-09
2.199580e-09
-2.132640e-09
-1.901060e-09
-1.159390e-09
-4.210620e-09
-6.834400e-09
-1.902400e-09
8.468370e-09
-4.580110e-10
1.791080e-09
-1.159390e-09
2.466670e-09
4.066430e-09
-1.902400e-09
2.199580e-09
-4.580110e-10
-7.337160e-09
-1.159390e-09
-4.210620e-09
4.066430e-09
5.514650e-09
8.468370e-09
-4.580110e-10
4.493420e-09
3.300670e-09
2.466670e-09
4.066430e-09
4.713380e-09
5.660540e-09
-4.580110e-10
-7.337160e-09
3.300670e-09
1.681100e-09
4.066430e-09
5.514650e-09
5.660540e-09
7.384290e-09
4.493420e-09
3.300670e-09
-1.743950e-08
-9.774090e-10
4.713380e-09
5.660540e-09
-2.183860e-09
-8.023560e-09
3.300670e-09
1.681100e-09
-9.774090e-10
1.646540e-08
5.660540e-09
7.384290e-09
-8.023560e-09
-1.211340e-08
-1.743950e-08
-9.774090e-10
2.813890e-08
-5.608220e-10
-2.183860e-09
-8.023560e-09
-2.245140e-08
-6.338060e-09
-9.774090e-10
1.646540e-08
-5.608220e-10
-2.887730e-08
-8.023560e-09
-1.211340e-08
-6.338060e-09
1.013380e-08
2.813890e-08
-5.608220e-10
-6.699280e-08
-4.728030e-09
-2.245140e-08
-6.338060e-09
3.616730e-08
7.252460e-09
-5.608220e-10
-2.887730e-08
-4.728030e-09
5.799020e-08
-6.338060e-09
1.013380e-08
7.252460e-09
-2.226280e-08
-6.699280e-08
-4.728030e-09
7.385860e-08
5.775010e-09
3.616730e-08
7.252460e-09
-1.882210e-08
3.359740e-09
-4.728030e-09
5.799020e-08
5.775010e-09
-6.201230e-08
7.252460e-09
-2.226280e-08
3.359740e-09
2.471380e-08
7.385860e-08
5.775010e-09
-2.315840e-08
-3.724920e-09
-1.882210e-08
3.359740e-09
5.326120e-09
-9.945000e-09
5.775010e-09
-6.201230e-08
-3.724920e-09
1.626110e-08
3.359740e-09
2.471380e-08
-9.945000e-09
-2.551510e-08
-2.315840e-08
-3.724920e-09
7.195750e-09
-1.278390e-08
5.326120e-09
-9.945000e-09
-1.957620e-08
-1.894950e-08
-3.724920e-09
1.626110e-08
-1.278390e-08
-3.283650e-08
-9.945000e-09
-2.551510e-08
-1.894950e-08
-1.808370e-08
7.195750e-09
-1.278390e-08
-9.143950e-09
6.480970e-09
-1.957620e-08
-1.894950e-08
4.166620e-08
1.824390e-09
-1.278390e-08
-3.283650e-08
6.480970e-09
2.150870e-08
-1.894950e-08
-1.808370e-08
1.824390e-09
-3.830400e-08
-9.143950e-09
6.480970e-09
-1.805220e-08
3.574010e-09
4.166620e-08
1.824390e-09
-1.429720e-08
2.916360e-08
6.480970e-09
2.150870e-08
3.574010e-09
2.520090e-08
1.824390e-09
-3.830400e-08
2.916360e-08
7.227180e-08
-1.805220e-08
3.574010e-09
2.053460e-08
1.069280e-09
-1.429720e-08
2.916360e-08
-3.110830e-08
1.037040e-08
3.574010e-09
2.520090e-08
1.069280e-09
-1.841360e-08
2.916360e-08
7.227180e-08
1.037040e-08
5.187860e-08
2.053460e-08
1.069280e-09
-9.521020e-09
4.011060e-10
-3.110830e-08
1.037040e-08
2.161870e-08
-2.335600e-08
1.069280e-09
-1.841360e-08
4.011060e-10
1.036940e-08
1.037040e-08
5.187860e-08
-2.335600e-08
-6.824970e-08
-9.521020e-09
4.011060e-10
8.059870e-09
-3.557530e-09
2.161870e-08
-2.335600e-08
7.384290e-10
-2.848080e-09
4.011060e-10
1.036940e-08
-3.557530e-09
-1.505140e-08
-2.335600e-08
-6.824970e-08
-2.848080e-09
-6.441610e-09
8.059870e-09
-3.557530e-09
-1.162630e-09
-1.218010e-10
7.384290e-10
-2.848080e-09
-3.079410e-09
5.028580e-09
-3.557530e-09
-1.505140e-08
-1.218010e-10
9.898090e-10
-2.848080e-09
-6.441610e-09
5.028580e-09
1.311890e-08
-1.162630e-09
-1.218010e-10
-4.242040e-10
4.564360e-10
-3.079410e-09
5.028580e-09
-1.901060e-09
1.105270e-09
-1.218010e-10
9.898090e-10
4.564360e-10
1.366880e-09
5.028580e-09
1.311890e-08
1.105270e-09
4.100640e-09
-4.242040e-10
4.564360e-10
-1.728240e-10
-1.579360e-10
-1.901060e-09
1.105270e-09
8.641190e-10
-2.885480e-10
4.564360e-10
1.366880e-09
-1.579360e-10
-1.414010e-10
1.105270e-09
4.100640e-09
-2.885480e-10
-1.476860e-09
-1.728240e-10
-1.579360e-10
-2.356690e-10
1.929100e-10
8.641190e-10
-2.885480e-10
4.870490e-10
-3.374280e-10
-1.579360e-10
-1.414010e-10
1.929100e-10
5.970280e-10
-2.885480e-10
-1.476860e-09
-3.374280e-10
-1.178340e-09
</DataArray>
<DataArray type="Float32" Name="V2" format="ascii">
0.000000e+00
0.000000e+00
-1.256130e-04
-1.256140e-04
0.000000e+00
0.000000e+00
-1.256110e-04
-1.256140e-04
0.000000e+00
0.000000e+00
-1.256140e-04
-1.256120e-04
0.000000e+00
0.000000e+00
-1.256140e-04
-1.256140e-04
-1.256130e-04
-1.256140e-04
-1.536750e-04
-1.536740e-04
-1.256110e-04
-1.256140e-04
-1.536790e-04
-1.536780e-04
-1.256140e-04
-1.256120e-04
-1.536740e-04
-1.536800e-04
-1.256140e-04
-1.256140e-04
-1.536780e-04
-1.536780e-04
-1.536750e-04
-1.536740e-04
2.181200e-04
2.181110e-04
-1.536790e-04
-1.536780e-04
2.181200e-04
2.181190e-04
-1.536740e-04
-1.536800e-04
2.181110e-04
2.181230e-04
-1.536780e-04
-1.536780e-04
2.181190e-04
2.181160e-04
2.181200e-04
2.181110e-04
1.153870e-04
1.153880e-04
2.181200e-04
2.181190e-04
1.153860e-04
1.153910e-04
2.181110e-04
2.181230e-04
1.153880e-04
1.153890e-04
2.181190e-04
2.181160e-04
1.153910e-04
1.153870e-04
1.153870e-04
1.153880e-04
-2.720290e-04
-2.720430e-04
1.153860e-04
1.153910e-04
-2.720360e-04
-2.720370e-04
1.153880e-04
1.153890e-04
-2.720430e-04
-2.720280e-04
1.153910e-04
1.153870e-04
-2.720370e-04
-2.720360e-04
-2.720290e-04
-2.720430e-04
7.725940e-05
7.725200e-05
-2.720360e-04
-2.720370e-04
7.725660e-05
7.725510e-05
-2.720430e-04
-2.720280e-04
7.725200e-05
7.725630e-05
-2.720370e-04
-2.720360e-04
7.725510e-05
7.725500e-05
7.725940e-05
7.725200e-05
8.624600e-04
8.624590e-04
7.725660e-05
7.725510e-05
8.624630e-04
8.624610e-04
7.725200e-05
7.725630e-05
8.624590e-04
8.624580e-04
7.725510e-05
7.725500e-05
8.624610e-04
8.624640e-04
8.624600e-04
8.624590e-04
-4.180480e-05
-4.181080e-05
8.624630e-04
8.624610e-04
-4.181040e-05
-4.180780e-05
8.624590e-04
8.624580e-04
-4.181080e-05
-4.180600e-05
8.624610e-04
8.624640e-04
-4.180780e-05
-4.180770e-05
-4.180480e-05
-4.181080e-05
8.322560e-04
8.322500e-04
-4.181040e-05
-4.180780e-05
8.322510e-04
8.322510e-04
-4.181080e-05
-4.180600e-05
8.322500e-04
8.322520e-04
-4.180780e-05
-4.180770e-05
8.322510e-04
8.322510e-04
8.322560e-04
8.322500e-04
1.309360e-03
1.309350e-03
8.322510e-04
8.322510e-04
1.309350e-03
1.309350e-03
8.322500e-04
8.322520e-04
1.309350e-03
1.309350e-03
8.322510e-04
8.322510e-04
1.309350e-03
1.309360e-03
1.309360e-03
1.309350e-03
1.094860e-03
1.094850e-03
1.309350e-03
1.309350e-03
1.094850e-03
1.094850e-03
1.309350e-03
1.309350e-03
1.094850e-03
1.094860e-03
1.309350e-03
1.309360e-03
1.094850e-03
1.094860e-03
1.094860e-03
1.094850e-03
1.806780e-03
1.806790e-03
1.094850e-03
1.094850e-03
1.806790e-03
1.806790e-03
1.094850e-03
1.094860e-03
1.806790e-03
1.806800e-03
1.094850e-03
1.094860e-03
1.806790e-03
1.806790e-03
1.806780e-03
1.806790e-03
3.072580e-03
3.072580e-03
1.806790e-03
1.806790e-03
3.072570e-03
3.072570e-03
1.806790e-03
1.806800e-03
3.072580e-03
3.072560e-03
1.806790e-03
1.806790e-03
3.072570e-03
3.072570e-03
3.072580e-03
3.072580e-03
3.778420e-03
3.778390e-03
3.072570e-03
3.072570e-03
3.778390e-03
3.778400e-03
3.072580e-03
3.072560e-03
3.778390e-03
3.778410e-03
3.072570e-03
3.072570e-03
3.778400e-03
3.778400e-03
3.778420e-03
3.778390e-03
6.868050e-03
6.868090e-03
3.778390e-03
3.778400e-03
6.868100e-03
6.868090e-03
3.778390e-03
3.778410e-03
6.868090e-03
6.868090e-03
3.778400e-03
3.778400e-03
6.868090e-03
6.868090e-03
6.868050e-03
6.868090e-03
1.321750e-02
1.321750e-02
6.868100e-03
6.868090e-03
1.321750e-02
1.321750e-02
6.868090e-03
6.868090e-03
1.321750e-02
1.321750e-02
6.868090e-03
6.868090e-03
1.321750e-02
1.321760e-02
1.321750e-02
1.321750e-02
2.320230e-02
2.320220e-02
1.321750e-02
1.321750e-02
2.320220e-02
2.320230e-02
1.321750e-02
1.321750e-02
2.320220e-02
2.320230e-02
1.321750e-02
1.321760e-02
2.320230e-02
2.320220e-02
2.320230e-02
2.320220e-02
3.405440e-02
3.405470e-02
2.320220e-02
2.320230e-02
3.405460e-02
3.405450e-02
2.320220e-02
2.320230e-02
3.405470e-02
3.405450e-02
2.320230e-02
2.320220e-02
3.405450e-02
3.405460e-02
3.405440e-02
3.405470e-02
4.603140e-02
4.603120e-02
3.405460e-02
3.405450e-02
4.603120e-02
4.603150e-02
3.405470e-02
3.405450e-02
4.603120e-02
4.603160e-02
3.405450e-02
3.405460e-02
4.603150e-02
4.603120e-02
4.603140e-02
4.603120e-02
4.536870e-02
4.536880e-02
4.603120e-02
4.603150e-02
4.536880e-02
4.536860e-02
4.603120e-02
4.603160e-02
4.536880e-02
4.536850e-02
4.603150e-02
4.603120e-02
4.536860e-02
4.536880e-02
4.536870e-02
4.536880e-02
3.153010e-02
3.153080e-02
4.536880e-02
4.536860e-02
3.153120e-02
3.153030e-02
4.536880e-02
4.536850e-02
3.153080e-02
3.153020e-02
4.536860e-02
4.536880e-02
3.153030e-02
3.153120e-02
3.153010e-02
3.153080e-02
3.509120e-03
3.507510e-03
3.153120e-02
3.153030e-02
3.507780e-03
3.508960e-03
3.153080e-02
3.153020e-02
3.507510e-03
3.509130e-03
3.153030e-02
3.153120e-02
3.508960e-03
3.507670e-03
3.509120e-03
3.507510e-03
-2.093680e-02
-2.093580e-02
3.507780e-03
3.508960e-03
-2.093620e-02
-2.093660e-02
3.507510e-03
3.509130e-03
-2.093580e-02
-2.093650e-02
3.508960e-03
3.507670e-03
-2.093660e-02
-2.093610e-02
-2.093680e-02
-2.093580e-02
-1.656540e-02
-1.656550e-02
-2.093620e-02
-2.093660e-02
-1.656580e-02
-1.656550e-02
-2.093580e-02
-2.093650e-02
-1.656550e-02
-1.656560e-02
-2.093660e-02
-2.093610e-02
-1.656550e-02
-1.656580e-02
-1.656540e-02
-1.656550e-02
-2.750160e-03
-2.750280e-03
-1.656580e-02
-1.656550e-02
-2.750210e-03
-2.750170e-03
-1.656550e-02
-1.656560e-02
-2.750280e-03
-2.750300e-03
-1.656550e-02
-1.656580e-02
-2.750170e-03
-2.750260e-03
-2.750160e-03
-2.750280e-03
1.250550e-02
1.250550e-02
-2.750210e-03
-2.750170e-03
1.250570e-02
1.250550e-02
-2.750280e-03
-2.750300e-03
1.250550e-02
1.250550e-02
-2.750170e-03
-2.750260e-03
1.250550e-02
1.250570e-02
1.250550e-02
1.250550e-02
2.901710e-03
2.901800e-03
1.250570e-02
1.250550e-02
2.901760e-03
2.901730e-03
1.250550e-02
1.250550e-02
2.901800e-03
2.901740e-03
1.250550e-02
1.250570e-02
2.901730e-03
2.901780e-03
2.901710e-03
2.901800e-03
-1.557700e-03
-1.557670e-03
2.901760e-03
2.901730e-03
-1.557670e-03
-1.557690e-03
2.901800e-03
2.901740e-03
-1.557670e-03
-1.557690e-03
2.901730e-03
2.901780e-03
-1.557690e-03
-1.557660e-03
-1.557700e-03
-1.557670e-03
6.113760e-04
6.113200e-04
-1.557670e-03
-1.557690e-03
6.113280e-04
6.113590e-04
-1.557670e-03
-1.557690e-03
6.113200e-04
6.113610e-04
-1.557690e-03
-1.557660e-03
6.113590e-04
6.113130e-04
6.113760e-04
6.113200e-04
6.760220e-04
6.760220e-04
6.113280e-04
6.113590e-04
6.760230e-04
6.760220e-04
6.113200e-04
6.113610e-04
6.760220e-04
6.760200e-04
6.113590e-04
6.113130e-04
6.760220e-04
6.760220e-04
0.000000e+00
0.000000e+00
-1.256110e-04
-1.256140e-04
0.000000e+00
0.000000e+00
-1.256170e-04
-1.256120e-04
0.000000e+00
0.000000e+00
-1.256140e-04
-1.256140e-04
0.000000e+00
0.000000e+00
-1.256120e-04
-1.256110e-04
-1.256110e-04
-1.256140e-04
-1.536790e-04
-1.536780e-04
-1.256170e-04
-1.256120e-04
-1.536710e-04
-1.536780e-04
-1.256140e-04
-1.256140e-04
-1.536780e-04
-1.536780e-04
-1.256120e-04
-1.256110e-04
-1.536780e-04
-1.536770e-04
-1.536790e-04
-1.536780e-04
2.181200e-04
2.181190e-04
-1.536710e-04
-1.536780e-04
2.181190e-04