<?xml version="1.0"?>
<VTKFile type="UnstructuredGrid" version="0.1" byte_order="LittleEndian" compressor="vtkZLibDataCompressor">
<UnstructuredGrid>
<Piece NumberOfPoints="960" NumberOfCells="120">
<Points>
<DataArray type="Float32" NumberOfComponents="3" format="ascii">
-4.000000e+02 -6.000000e+03 -4.000000e+02
0.000000e+00 -6.000000e+03 -4.000000e+02
-4.000000e+02 -5.600000e+03 -4.000000e+02
7.769170e-10 -5.600000e+03 -4.000000e+02
-4.000000e+02 -6.000000e+03 0.000000e+00
0.000000e+00 -6.000000e+03 0.000000e+00
-4.000000e+02 -5.600000e+03 4.924420e-11
-6.280080e-10 -5.600000e+03 5.680730e-11
0.000000e+00 -6.000000e+03 -4.000000e+02
4.000000e+02 -6.000000e+03 -4.000000e+02
7.769170e-10 -5.600000e+03 -4.000000e+02
4.000000e+02 -5.600000e+03 -4.000000e+02
0.000000e+00 -6.000000e+03 0.000000e+00
4.000000e+02 -6.000000e+03 0.000000e+00
-6.280080e-10 -5.600000e+03 5.680730e-11
4.000000e+02 -5.600000e+03 -9.946980e-10
-4.000000e+02 -5.600000e+03 -4.000000e+02
7.769170e-10 -5.600000e+03 -4.000000e+02
-4.000000e+02 -5.200000e+03 -4.000000e+02
1.999630e-10 -5.200000e+03 -4.000000e+02
-4.000000e+02 -5.600000e+03 4.924420e-11
-6.280080e-10 -5.600000e+03 5.680730e-11
-4.000000e+02 -5.200000e+03 1.173230e-09
-2.873860e-10 -5.200000e+03 8.228260e-10
7.769170e-10 -5.600000e+03 -4.000000e+02
4.000000e+02 -5.600000e+03 -4.000000e+02
1.999630e-10 -5.200000e+03 -4.000000e+02
4.000000e+02 -5.200000e+03 -4.000000e+02
-6.280080e-10 -5.600000e+03 5.680730e-11
4.000000e+02 -5.600000e+03 -9.946980e-10
-2.873860e-10 -5.200000e+03 8.228260e-10
4.000000e+02 -5.200000e+03 3.867760e-10
-4.000000e+02 -5.200000e+03 -4.000000e+02
1.999630e-10 -5.200000e+03 -4.000000e+02
-4.000000e+02 -4.800010e+03 -4.000000e+02
2.465430e-10 -4.800010e+03 -4.000000e+02
-4.000000e+02 -5.200000e+03 1.173230e-09
-2.873860e-10 -5.200000e+03 8.228260e-10
-4.000000e+02 -4.800010e+03 1.318880e-11
1.934820e-10 -4.800010e+03 6.893120e-10
1.999630e-10 -5.200000e+03 -4.000000e+02
4.000000e+02 -5.200000e+03 -4.000000e+02
2.465430e-10 -4.800010e+03 -4.000000e+02
4.000000e+02 -4.800010e+03 -4.000000e+02
-2.873860e-10 -5.200000e+03 8.228260e-10
4.000000e+02 -5.200000e+03 3.867760e-10
1.934820e-10 -4.800010e+03 6.893120e-10
4.000000e+02 -4.800010e+03 -1.411250e-11
-4.000000e+02 -4.800010e+03 -4.000000e+02
2.465430e-10 -4.800010e+03 -4.000000e+02
-4.000000e+02 -4.400010e+03 -4.000000e+02
1.843320e-09 -4.400010e+03 -4.000000e+02
-4.000000e+02 -4.800010e+03 1.318880e-11
1.934820e-10 -4.800010e+03 6.893120e-10
-4.000000e+02 -4.400010e+03 5.756730e-10
8.159590e-10 -4.400010e+03 4.679740e-10
2.465430e-10 -4.800010e+03 -4.000000e+02
4.000000e+02 -4.800010e+03 -4.000000e+02
1.843320e-09 -4.400010e+03 -4.000000e+02
4.000000e+02 -4.400010e+03 -4.000000e+02
1.934820e-10 -4.800010e+03 6.893120e-10
4.000000e+02 -4.800010e+03 -1.411250e-11
8.159590e-10 -4.400010e+03 4.679740e-10
4.000000e+02 -4.400010e+03 2.178090e-10
-4.000000e+02 -4.400010e+03 -4.000000e+02
1.843320e-09 -4.400010e+03 -4.000000e+02
-4.000000e+02 -4.000010e+03 -4.000000e+02
2.403010e-09 -4.000010e+03 -4.000000e+02
-4.000000e+02 -4.400010e+03 5.756730e-10
8.159590e-10 -4.400010e+03 4.679740e-10
-4.000000e+02 -4.000010e+03 6.032210e-10
2.578840e-09 -4.000010e+03 1.125950e-09
1.843320e-09 -4.400010e+03 -4.000000e+02
4.000000e+02 -4.400010e+03 -4.000000e+02
2.403010e-09 -4.000010e+03 -4.000000e+02
4.000000e+02 -4.000010e+03 -4.000000e+02
8.159590e-10 -4.400010e+03 4.679740e-10
4.000000e+02 -4.400010e+03 2.178090e-10
2.578840e-09 -4.000010e+03 1.125950e-09
4.000000e+02 -4.000010e+03 1.468780e-09
-4.000000e+02 -4.000010e+03 -4.000000e+02
2.403010e-09 -4.000010e+03 -4.000000e+02
-4.000000e+02 -3.600010e+03 -4.000000e+02
3.097240e-09 -3.600010e+03 -4.000000e+02
-4.000000e+02 -4.000010e+03 6.032210e-10
2.578840e-09 -4.000010e+03 1.125950e-09
-4.000000e+02 -3.600010e+03 2.684040e-10
3.243510e-09 -3.600010e+03 1.204090e-09
2.403010e-09 -4.000010e+03 -4.000000e+02
4.000000e+02 -4.000010e+03 -4.000000e+02
3.097240e-09 -3.600010e+03 -4.000000e+02
4.000000e+02 -3.600010e+03 -4.000000e+02
2.578840e-09 -4.000010e+03 1.125950e-09
4.000000e+02 -4.000010e+03 1.468780e-09
3.243510e-09 -3.600010e+03 1.204090e-09
4.000000e+02 -3.600010e+03 1.287360e-09
-4.000000e+02 -3.600010e+03 -4.000000e+02
3.097240e-09 -3.600010e+03 -4.000000e+02
-4.000000e+02 -3.200020e+03 -4.000000e+02
2.591740e-09 -3.200020e+03 -4.000000e+02
-4.000000e+02 -3.600010e+03 2.684040e-10
3.243510e-09 -3.600010e+03 1.204090e-09
-4.000000e+02 -3.200020e+03 -4.586700e-10
2.586580e-09 -3.200020e+03 4.858980e-10
3.097240e-09 -3.600010e+03 -4.000000e+02
4.000000e+02 -3.600010e+03 -4.000000e+02
2.591740e-09 -3.200020e+03 -4.000000e+02
4.000000e+02 -3.200020e+03 -4.000000e+02
3.243510e-09 -3.600010e+03 1.204090e-09
4.000000e+02 -3.600010e+03 1.287360e-09
2.586580e-09 -3.200020e+03 4.858980e-10
4.000000e+02 -3.200020e+03 1.268890e-09
-4.000000e+02 -3.200020e+03 -4.000000e+02
2.591740e-09 -3.200020e+03 -4.000000e+02
-4.000000e+02 -2.800030e+03 -4.000000e+02
2.193820e-09 -2.800030e+03 -4.000000e+02
-4.000000e+02 -3.200020e+03 -4.586700e-10
2.586580e-09 -3.200020e+03 4.858980e-10
-4.000000e+02 -2.800030e+03 3.969230e-10
2.069250e-09 -2.800030e+03 9.953520e-11
2.591740e-09 -3.200020e+03 -4.000000e+02
4.000000e+02 -3.200020e+03 -4.000000e+02
2.193820e-09 -2.800030e+03 -4.000000e+02
4.000000e+02 -2.800030e+03 -4.000000e+02
2.586580e-09 -3.200020e+03 4.858980e-10
4.000000e+02 -3.200020e+03 1.268890e-09
2.069250e-09 -2.800030e+03 9.953520e-11
4.000000e+02 -2.800030e+03 1.189070e-09
-4.000000e+02 -2.800030e+03 -4.000000e+02
2.193820e-09 -2.800030e+03 -4.000000e+02
-4.000000e+02 -2.400040e+03 -4.000000e+02
1.751250e-09 -2.400040e+03 -4.000000e+02
-4.000000e+02 -2.800030e+03 3.969230e-10
2.069250e-09 -2.800030e+03 9.953520e-11
-4.000000e+02 -2.400040e+03 4.331930e-10
1.639130e-09 -2.400040e+03 1.072530e-09
2.193820e-09 -2.800030e+03 -4.000000e+02
4.000000e+02 -2.800030e+03 -4.000000e+02
1.751250e-09 -2.400040e+03 -4.000000e+02
4.000000e+02 -2.400040e+03 -4.000000e+02
2.069250e-09 -2.800030e+03 9.953520e-11
4.000000e+02 -2.800030e+03 1.189070e-09
1.639130e-09 -2.400040e+03 1.072530e-09
4.000000e+02 -2.400040e+03 1.465420e-09
-4.000000e+02 -2.400040e+03 -4.000000e+02
1.751250e-09 -2.400040e+03 -4.000000e+02
-4.000000e+02 -2.000070e+03 -4.000000e+02
1.467470e-09 -2.000070e+03 -4.000000e+02
-4.000000e+02 -2.400040e+03 4.331930e-10
1.639130e-09 -2.400040e+03 1.072530e-09
-4.000000e+02 -2.000070e+03 1.320850e-09
6.770280e-10 -2.000070e+03 1.782280e-09
1.751250e-09 -2.400040e+03 -4.000000e+02
4.000000e+02 -2.400040e+03 -4.000000e+02
1.467470e-09 -2.000070e+03 -4.000000e+02
4.000000e+02 -2.000070e+03 -4.000000e+02
1.639130e-09 -2.400040e+03 1.072530e-09
4.000000e+02 -2.400040e+03 1.465420e-09
6.770280e-10 -2.000070e+03 1.782280e-09
4.000000e+02 -2.000070e+03 2.556430e-09
-4.000000e+02 -2.000070e+03 -4.000000e+02
1.467470e-09 -2.000070e+03 -4.000000e+02
-4.000000e+02 -1.600110e+03 -4.000000e+02
1.303870e-09 -1.600110e+03 -4.000000e+02
-4.000000e+02 -2.000070e+03 1.320850e-09
6.770280e-10 -2.000070e+03 1.782280e-09
-4.000000e+02 -1.600110e+03 1.951340e-09
8.257400e-10 -1.600110e+03 2.223710e-09
1.467470e-09 -2.000070e+03 -4.000000e+02
4.000000e+02 -2.000070e+03 -4.000000e+02
1.303870e-09 -1.600110e+03 -4.000000e+02
4.000000e+02 -1.600110e+03 -4.000000e+02
6.770280e-10 -2.000070e+03 1.782280e-09
4.000000e+02 -2.000070e+03 2.556430e-09
8.257400e-10 -1.600110e+03 2.223710e-09
4.000000e+02 -1.600110e+03 1.690910e-09
-4.000000e+02 -1.600110e+03 -4.000000e+02
1.303870e-09 -1.600110e+03 -4.000000e+02
-4.000000e+02 -1.200160e+03 -4.000000e+02
2.225880e-10 -1.200160e+03 -4.000000e+02
-4.000000e+02 -1.600110e+03 1.951340e-09
8.257400e-10 -1.600110e+03 2.223710e-09
-4.000000e+02 -1.200160e+03 1.042220e-09
1.610820e-10 -1.200160e+03 1.462970e-09
1.303870e-09 -1.600110e+03 -4.000000e+02
4.000000e+02 -1.600110e+03 -4.000000e+02
2.225880e-10 -1.200160e+03 -4.000000e+02
4.000000e+02 -1.200160e+03 -4.000000e+02
8.257400e-10 -1.600110e+03 2.223710e-09
4.000000e+02 -1.600110e+03 1.690910e-09
1.610820e-10 -1.200160e+03 1.462970e-09
4.000000e+02 -1.200160e+03 1.516670e-09
-4.000000e+02 -1.200160e+03 -4.000000e+02
2.225880e-10 -1.200160e+03 -4.000000e+02
-4.000000e+02 -8.002310e+02 -4.000000e+02
1.462790e-09 -8.002310e+02 -4.000000e+02
-4.000000e+02 -1.200160e+03 1.042220e-09
1.610820e-10 -1.200160e+03 1.462970e-09
-4.000000e+02 -8.002310e+02 3.667490e-10
1.082340e-09 -8.002310e+02 1.364340e-10
2.225880e-10 -1.200160e+03 -4.000000e+02
4.000000e+02 -1.200160e+03 -4.000000e+02
1.462790e-09 -8.002310e+02 -4.000000e+02
4.000000e+02 -8.002310e+02 -4.000000e+02
1.610820e-10 -1.200160e+03 1.462970e-09
4.000000e+02 -1.200160e+03 1.516670e-09
1.082340e-09 -8.002310e+02 1.364340e-10
4.000000e+02 -8.002310e+02 1.008470e-09
-4.000000e+02 -8.002310e+02 -4.000000e+02
1.462790e-09 -8.002310e+02 -4.000000e+02
-4.000000e+02 -4.002920e+02 -4.000000e+02
1.093850e-09 -4.002920e+02 -4.000000e+02
-4.000000e+02 -8.002310e+02 3.667490e-10
1.082340e-09 -8.002310e+02 1.364340e-10
-4.000000e+02 -4.002920e+02 3.419550e-10
1.444590e-09 -4.002920e+02 -3.819090e-10
1.462790e-09 -8.002310e+02 -4.000000e+02
4.000000e+02 -8.002310e+02 -4.000000e+02
1.093850e-09 -4.002920e+02 -4.000000e+02
4.000000e+02 -4.002920e+02 -4.000000e+02
1.082340e-09 -8.002310e+02 1.364340e-10
4.000000e+02 -8.002310e+02 1.008470e-09
1.444590e-09 -4.002920e+02 -3.819090e-10
4.000000e+02 -4.002920e+02 -6.775920e-11
-4.000000e+02 -4.002920e+02 -4.000000e+02
1.093850e-09 -4.002920e+02 -4.000000e+02
-4.000000e+02 -3.222470e-01 -4.000000e+02
1.081180e-09 -3.222470e-01 -4.000000e+02
-4.000000e+02 -4.002920e+02 3.419550e-10
1.444590e-09 -4.002920e+02 -3.819090e-10
-4.000000e+02 -3.222470e-01 -1.392720e-10
8.048760e-10 -3.222470e-01 -4.831620e-10
1.093850e-09 -4.002920e+02 -4.000000e+02
4.000000e+02 -4.002920e+02 -4.000000e+02
1.081180e-09 -3.222470e-01 -4.000000e+02
4.000000e+02 -3.222470e-01 -4.000000e+02
1.444590e-09 -4.002920e+02 -3.819090e-10
4.000000e+02 -4.002920e+02 -6.775920e-11
[...]
<PointData>
<DataArray type="Float32" Name="V1" format="ascii">
0.000000e+00
0.000000e+00
-1.916770e-09
1.448260e-10
0.000000e+00
0.000000e+00
-7.227180e-10
1.184260e-10
0.000000e+00
0.000000e+00
1.448260e-10
1.021230e-09
0.000000e+00
0.000000e+00
1.184260e-10
3.770700e-10
-1.916770e-09
1.448260e-10
1.131210e-09
-1.534370e-10
-7.227180e-10
1.184260e-10
-9.426750e-10
-1.172030e-11
1.448260e-10
1.021230e-09
-1.534370e-10
-2.356690e-10
1.184260e-10
3.770700e-10
-1.172030e-11
9.426750e-11
1.131210e-09
-1.534370e-10
-7.855630e-10
-8.589040e-10
-9.426750e-10
-1.172030e-11
2.985140e-10
8.378530e-10
-1.534370e-10
-2.356690e-10
-8.589040e-10
-5.184710e-10
-1.172030e-11
9.426750e-11
8.378530e-10
6.127390e-10
-7.855630e-10
-8.589040e-10
-2.498090e-09
-7.216870e-10
2.985140e-10
8.378530e-10
1.256900e-09
5.959680e-11
-8.589040e-10
-5.184710e-10
-7.216870e-10
6.912950e-10
8.378530e-10
6.127390e-10
5.959680e-11
-1.178340e-09
-2.498090e-09
-7.216870e-10
-1.099790e-10
5.482840e-10
1.256900e-09
5.959680e-11
-4.713380e-11
-5.938660e-11
-7.216870e-10
6.912950e-10
5.482840e-10
1.005520e-09
5.959680e-11
-1.178340e-09
-5.938660e-11
-1.979620e-09
-1.099790e-10
5.482840e-10
-2.670910e-10
1.963260e-10
-4.713380e-11
-5.938660e-11
5.813160e-10
7.502380e-10
5.482840e-10
1.005520e-09
1.963260e-10
-6.441610e-10
-5.938660e-11
-1.979620e-09
7.502380e-10
1.335460e-09
-2.670910e-10
1.963260e-10
5.970280e-10
1.593640e-10
5.813160e-10
7.502380e-10
5.813160e-10
7.852810e-10
1.963260e-10
-6.441610e-10
1.593640e-10
-4.713380e-10
7.502380e-10
1.335460e-09
7.852810e-10
4.242040e-10
5.970280e-10
1.593640e-10
1.429720e-09
-3.032080e-10
5.813160e-10
7.852810e-10
-2.356690e-10
-9.065190e-10
1.593640e-10
-4.713380e-10
-3.032080e-10
-1.366880e-09
7.852810e-10
4.242040e-10
-9.065190e-10
-2.529510e-09
1.429720e-09
-3.032080e-10
2.199580e-09
1.238470e-09
-2.356690e-10
-9.065190e-10
5.027600e-10
-8.970590e-11
-3.032080e-10
-1.366880e-09
1.238470e-09
-2.058170e-09
-9.065190e-10
-2.529510e-09
-8.970590e-11
1.461150e-09
2.199580e-09
1.238470e-09
8.641190e-10
3.124650e-10
5.027600e-10
-8.970590e-11
-8.169850e-10
-1.040070e-10
1.238470e-09
-2.058170e-09
3.124650e-10
-6.127390e-10
-8.970590e-11
1.461150e-09
-1.040070e-10
0.000000e+00
8.641190e-10
3.124650e-10
1.414010e-10
1.068680e-09
-8.169850e-10
-1.040070e-10
5.341830e-10
-3.000520e-10
3.124650e-10
-6.127390e-10
1.068680e-09
1.555410e-09
-1.040070e-10
0.000000e+00
-3.000520e-10
-1.382590e-09
1.414010e-10
1.068680e-09
-6.284500e-10
1.298810e-10
5.341830e-10
-3.000520e-10
-3.770700e-10
3.538400e-10
1.068680e-09
1.555410e-09
1.298810e-10
6.755840e-10
-3.000520e-10
-1.382590e-09
3.538400e-10
5.027600e-10
-6.284500e-10
1.298810e-10
4.399150e-10
-8.323620e-10
-3.770700e-10
3.538400e-10
-1.398300e-09
-5.215030e-10
1.298810e-10
6.755840e-10
-8.323620e-10
5.970280e-10
3.538400e-10
5.027600e-10
-5.215030e-10
4.556260e-10
4.399150e-10
-8.323620e-10
1.256900e-09
5.108110e-10
-1.398300e-09
-5.215030e-10
1.414010e-10
-6.292610e-10
-8.323620e-10
5.970280e-10
5.108110e-10
9.898090e-10
-5.215030e-10
4.556260e-10
-6.292610e-10
-1.571130e-11
1.256900e-09
5.108110e-10
-1.115500e-09
-1.021440e-09
1.414010e-10
-6.292610e-10
3.770700e-10
-1.611830e-10
5.108110e-10
9.898090e-10
-1.021440e-09
-5.813160e-10
-6.292610e-10
-1.571130e-11
-1.611830e-10
-1.256900e-10
-1.115500e-09
-1.021440e-09
1.916770e-09
3.652430e-10
3.770700e-10
-1.611830e-10
-2.482380e-09
2.815140e-11
-1.021440e-09
-5.813160e-10
3.652430e-10
-2.340980e-09
-1.611830e-10
-1.256900e-10
2.815140e-11
2.356690e-09
1.916770e-09
3.652430e-10
-6.598730e-10
1.543390e-09
-2.482380e-09
2.815140e-11
4.210620e-09
-4.848620e-10
3.652430e-10
-2.340980e-09
1.543390e-09
3.912100e-09
2.815140e-11
2.356690e-09
-4.848620e-10
-4.226330e-09
-6.598730e-10
1.543390e-09
-5.608920e-09
-4.173050e-09
4.210620e-09
-4.848620e-10
-3.660720e-09
8.896940e-10
1.543390e-09
3.912100e-09
-4.173050e-09
-2.796600e-09
-4.848620e-10
-4.226330e-09
8.896940e-10
3.456480e-09
-5.608920e-09
-4.173050e-09
1.426580e-08
3.150090e-09
-3.660720e-09
8.896940e-10
1.256900e-09
1.167790e-09
-4.173050e-09
-2.796600e-09
3.150090e-09
-7.148620e-09
8.896940e-10
3.456480e-09
1.167790e-09
1.539700e-09
1.426580e-08
3.150090e-09
5.907430e-09
5.475740e-09
1.256900e-09
1.167790e-09
6.205950e-09
1.551660e-09
3.150090e-09
-7.148620e-09
5.475740e-09
5.153290e-09
1.167790e-09
1.539700e-09
1.551660e-09
-3.016560e-09
5.907430e-09
5.475740e-09
-2.656770e-08
-6.131770e-09
6.205950e-09
1.551660e-09
3.597880e-09
-1.321950e-09
5.475740e-09
5.153290e-09
-6.131770e-09
1.421870e-08
1.551660e-09
-3.016560e-09
-1.321950e-09
-6.237370e-09
-2.656770e-08
-6.131770e-09
-3.252230e-09
-3.668120e-09
3.597880e-09
-1.321950e-09
-3.880680e-09
-1.858780e-09
-6.131770e-09
1.421870e-08
-3.668120e-09
-4.022080e-09
-1.321950e-09
-6.237370e-09
-1.858780e-09
2.513800e-10
-3.252230e-09
-3.668120e-09
2.194860e-08
3.666600e-09
-3.880680e-09
-1.858780e-09
-6.158810e-09
1.646910e-10
-3.668120e-09
-4.022080e-09
3.666600e-09
-1.453290e-08
-1.858780e-09
2.513800e-10
1.646910e-10
6.441610e-09
2.194860e-08
3.666600e-09
-4.430570e-09
7.725700e-10
-6.158810e-09
1.646910e-10
3.346500e-09
4.862620e-10
3.666600e-09
-1.453290e-08
7.725700e-10
5.876010e-09
1.646910e-10
6.441610e-09
4.862620e-10
-2.435240e-09
-4.430570e-09
7.725700e-10
-2.058170e-09
-5.335780e-10
3.346500e-09
4.862620e-10
-1.099790e-10
3.423700e-10
7.725700e-10
5.876010e-09
-5.335780e-10
9.898090e-10
4.862620e-10
-2.435240e-09
3.423700e-10
8.012740e-10
-2.058170e-09
-5.335780e-10
-3.299360e-10
-8.670450e-11
-1.099790e-10
3.423700e-10
-9.426750e-11
1.797310e-11
-5.335780e-10
9.898090e-10
-8.670450e-11
1.728240e-10
3.423700e-10
8.012740e-10
1.797310e-11
1.885350e-10
-3.299360e-10
-8.670450e-11
-6.284500e-11
1.705560e-11
-9.426750e-11
1.797310e-11
0.000000e+00
-7.803320e-11
-8.670450e-11
1.728240e-10
1.705560e-11
7.855630e-11
1.797310e-11
1.885350e-10
-7.803320e-11
-1.728240e-10
-6.284500e-11
1.705560e-11
1.256900e-10
8.639590e-11
0.000000e+00
-7.803320e-11
7.855630e-11
8.371150e-11
1.705560e-11
7.855630e-11
8.639590e-11
0.000000e+00
-7.803320e-11
-1.728240e-10
8.371150e-11
4.713380e-11
1.256900e-10
8.639590e-11
0.000000e+00
-3.193800e-12
7.855630e-11
8.371150e-11
0.000000e+00
1.570120e-11
8.639590e-11
0.000000e+00
-3.193800e-12
0.000000e+00
8.371150e-11
4.713380e-11
1.570120e-11
4.713380e-11
0.000000e+00
-3.193800e-12
-2.042460e-10
-1.803900e-10
0.000000e+00
1.570120e-11
-2.042460e-10
-1.888150e-10
-3.193800e-12
0.000000e+00
-1.803900e-10
-1.885350e-10
1.570120e-11
4.713380e-11
-1.888150e-10
-2.042460e-10
0.000000e+00
0.000000e+00
-7.227180e-10
1.184260e-10
0.000000e+00
0.000000e+00
1.508280e-09
7.866630e-10
0.000000e+00
0.000000e+00
1.184260e-10
3.770700e-10
0.000000e+00
0.000000e+00
7.866630e-10
1.319750e-09
-7.227180e-10
1.184260e-10
-9.426750e-10
-1.172030e-11
1.508280e-09
7.866630e-10
1.492570e-09
-8.997660e-10
1.184260e-10
3.770700e-10
-1.172030e-11
9.426750e-11
7.866630e-10
1.319750e-09
-8.997660e-10
-5.341830e-10
-9.426750e-10
-1.172030e-11
2.985140e-10
8.378530e-10
1.492570e-09
-8.997660e-10
5.341830e-10
-6.776850e-10
-1.172030e-11
9.426750e-11
8.378530e-10
6.127390e-10
-8.997660e-10
-5.341830e-10
-6.776850e-10
-1.665390e-09
2.985140e-10
8.378530e-10
1.256900e-09
5.959680e-11
5.341830e-10
-6.776850e-10
-6.284500e-10
-1.573890e-10
8.378530e-10
6.127390e-10
5.959680e-11
-1.178340e-09
-6.776850e-10
-1.665390e-09
-1.573890e-10
8.798300e-10
1.256900e-09
5.959680e-11
-4.713380e-11
-5.938660e-11
-6.284500e-10
-1.573890e-10
3.299360e-10
2.501600e-10
5.959680e-11
-1.178340e-09
-5.938660e-11
-1.979620e-09
-1.573890e-10
8.798300e-10
2.501600e-10
5.498940e-10
-4.713380e-11
-5.938660e-11
5.813160e-10
7.502380e-10
3.299360e-10
2.501600e-10
-5.027600e-10
5.677250e-10
-5.938660e-11
-1.979620e-09
7.502380e-10
1.335460e-09
2.501600e-10
5.498940e-10
5.677250e-10
3.142250e-10
5.813160e-10
7.502380e-10
5.813160e-10
7.852810e-10
-5.027600e-10
5.677250e-10
1.288320e-09
2.519400e-10
7.502380e-10
1.335460e-09
7.852810e-10
4.242040e-10
5.677250e-10
3.142250e-10
2.519400e-10
6.284500e-10
5.813160e-10
7.852810e-10
-2.356690e-10
-9.065190e-10
1.288320e-09
2.519400e-10
-9.426750e-11
9.942270e-10
7.852810e-10
4.242040e-10
-9.065190e-10
-2.529510e-09
2.519400e-10
6.284500e-10
9.942270e-10
1.539700e-09
-2.356690e-10
-9.065190e-10
5.027600e-10
-8.970590e-11
-9.426750e-11
9.942270e-10
-5.656050e-10
-5.368850e-10
-9.065190e-10
-2.529510e-09
-8.970590e-11
1.461150e-09
9.942270e-10
1.539700e-09
-5.368850e-10
-1.618260e-09
5.027600e-10
-8.970590e-11
-8.169850e-10
-1.040070e-10
-5.656050e-10
-5.368850e-10
1.743950e-09
4.599260e-10
-8.970590e-11
1.461150e-09
-1.040070e-10
0.000000e+00
-5.368850e-10
-1.618260e-09
4.599260e-10
-4.713380e-10
-8.169850e-10
-1.040070e-10
5.341830e-10
-3.000520e-10
1.743950e-09
4.599260e-10
-2.073890e-09
7.833720e-10
-1.040070e-10
0.000000e+00
-3.000520e-10
-1.382590e-09
4.599260e-10
-4.713380e-10
7.833720e-10
2.733760e-09
5.341830e-10
-3.000520e-10
-3.770700e-10
3.538400e-10
-2.073890e-09
7.833720e-10
-7.384290e-10
-5.791840e-10
-3.000520e-10
-1.382590e-09
3.538400e-10
5.027600e-10
7.833720e-10
2.733760e-09
-5.791840e-10
-3.927810e-10
-3.770700e-10
3.538400e-10
-1.398300e-09
-5.215030e-10
-7.384290e-10
-5.791840e-10
4.084930e-10
-2.628860e-10
3.538400e-10
5.027600e-10
-5.215030e-10
4.556260e-10
-5.791840e-10
-3.927810e-10
-2.628860e-10
0.000000e+00
-1.398300e-09
-5.215030e-10
1.414010e-10
-6.292610e-10
4.084930e-10
-2.628860e-10
5.656050e-10
8.414840e-10
-5.215030e-10
4.556260e-10
-6.292610e-10
-1.571130e-11
-2.628860e-10
0.000000e+00
8.414840e-10
7.541400e-10
1.414010e-10
-6.292610e-10
3.770700e-10
-1.611830e-10
5.656050e-10
8.414840e-10
-2.670910e-10
-5.653430e-10
-6.292610e-10
-1.571130e-11
-1.611830e-10
-1.256900e-10
8.414840e-10
7.541400e-10
-5.653430e-10
6.598730e-10
3.770700e-10
-1.611830e-10
-2.482380e-09
2.815140e-11
-2.670910e-10
-5.653430e-10
3.142250e-09
-6.782230e-10
-1.611830e-10
-1.256900e-10
2.815140e-11
2.356690e-09
-5.653430e-10
6.598730e-10
-6.782230e-10
-2.828030e-09
-2.482380e-09
2.815140e-11
4.210620e-09
-4.848620e-10
3.142250e-09
-6.782230e-10
-2.592360e-09
-1.172030e-09
2.815140e-11
2.356690e-09
-4.848620e-10
-4.226330e-09
-6.782230e-10
-2.828030e-09
-1.172030e-09
-5.341830e-10
4.210620e-09
-4.848620e-10
-3.660720e-09
8.896940e-10
-2.592360e-09
-1.172030e-09
3.063690e-09
1.644970e-09
-4.848620e-10
-4.226330e-09
8.896940e-10
3.456480e-09
-1.172030e-09
-5.341830e-10
1.644970e-09
2.828030e-09
-3.660720e-09
8.896940e-10
1.256900e-09
1.167790e-09
3.063690e-09
1.644970e-09
-2.890870e-09
-2.496560e-09
8.896940e-10
3.456480e-09
1.167790e-09
1.539700e-09
1.644970e-09
2.828030e-09
-2.496560e-09
-4.509130e-09
1.256900e-09
1.167790e-09
6.205950e-09
1.551660e-09
-2.890870e-09
-2.496560e-09
-3.754990e-09
-2.374100e-09
1.167790e-09
1.539700e-09
1.551660e-09
-3.016560e-09
-2.496560e-09
-4.509130e-09
-2.374100e-09
-1.084080e-09
6.205950e-09
1.551660e-09
3.597880e-09
-1.321950e-09
-3.754990e-09
-2.374100e-09
-1.681100e-09
6.040710e-09
1.551660e-09
-3.016560e-09
-1.321950e-09
-6.237370e-09
-2.374100e-09
-1.084080e-09
6.040710e-09
1.387300e-08
3.597880e-09
-1.321950e-09
-3.880680e-09
-1.858780e-09
-1.681100e-09
6.040710e-09
2.325270e-09
2.532040e-11
-1.321950e-09
-6.237370e-09
-1.858780e-09
2.513800e-10
6.040710e-09
1.387300e-08
2.532040e-11
-2.168150e-09
-3.880680e-09
-1.858780e-09
-6.158810e-09
1.646910e-10
2.325270e-09
2.532040e-11
5.106160e-09
-5.026250e-09
-1.858780e-09
2.513800e-10
1.646910e-10
6.441610e-09
2.532040e-11
-2.168150e-09
-5.026250e-09
-1.512990e-08
-6.158810e-09
1.646910e-10
3.346500e-09
4.862620e-10
5.106160e-09
-5.026250e-09
-2.545220e-09
7.312530e-10
1.646910e-10
6.441610e-09
4.862620e-10
-2.435240e-09
-5.026250e-09
-1.512990e-08
7.312530e-10
3.912100e-09
3.346500e-09
4.862620e-10
-1.099790e-10
3.423700e-10
-2.545220e-09
7.312530e-10
-1.036940e-09
1.211400e-09
4.862620e-10
-2.435240e-09
3.423700e-10
8.012740e-10
7.312530e-10
3.912100e-09
1.211400e-09
3.425050e-09
-1.099790e-10
3.423700e-10
-9.426750e-11
1.797310e-11
-1.036940e-09
1.211400e-09
-2.985140e-10
2.100850e-10
3.423700e-10
8.012740e-10
1.797310e-11
1.885350e-10
1.211400e-09
3.425050e-09
2.100850e-10
7.384290e-10
-9.426750e-11
1.797310e-11
0.000000e+00
-7.803320e-11
-2.985140e-10
2.100850e-10
2.985140e-10
-1.978890e-10
1.797310e-11
1.885350e-10
-7.803320e-11
-1.728240e-10
2.100850e-10
7.384290e-10
-1.978890e-10
-7.227180e-10
0.000000e+00
-7.803320e-11
7.855630e-11
8.371150e-11
2.985140e-10
-1.978890e-10
0.000000e+00
8.331430e-11
-7.803320e-11
-1.728240e-10
8.371150e-11
4.713380e-11
-1.978890e-10
-7.227180e-10
8.331430e-11
1.256900e-10
7.855630e-11
8.371150e-11
0.000000e+00
1.570120e-11
0.000000e+00
8.331430e-11
0.000000e+00
1.647260e-11
8.371150e-11
4.713380e-11
1.570120e-11
4.713380e-11
8.331430e-11
1.256900e-10
1.647260e-11
6.284500e-11
0.000000e+00
1.570120e-11
-2.042460e-10
-1.888150e-10
0.000000e+00
1.647260e-11
-1.414010e-10
-1.754730e-10
1.570120e-11
4.713380e-11
-1.888150e-10
-2.042460e-10
1.647260e-11
6.284500e-11
-1.754730e-10
-2.356690e-10
</DataArray>
<DataArray type="Float32" Name="V2" format="ascii">
0.000000e+00
0.000000e+00
4.321080e-04
4.321130e-04
0.000000e+00
0.000000e+00
4.321120e-04
4.321150e-04
0.000000e+00
0.000000e+00
4.321130e-04
4.321090e-04
0.000000e+00
0.000000e+00
4.321150e-04
4.321120e-04
4.321080e-04
4.321130e-04
2.276420e-04
2.276460e-04
4.321120e-04
4.321150e-04
2.276440e-04
2.276410e-04
4.321130e-04
4.321090e-04
2.276460e-04
2.276420e-04
4.321150e-04
4.321120e-04
2.276410e-04
2.276420e-04
2.276420e-04
2.276460e-04
6.448950e-04
6.448970e-04
2.276440e-04
2.276410e-04
6.448900e-04
6.448980e-04
2.276460e-04
2.276420e-04
6.448970e-04
6.448930e-04
2.276410e-04
2.276420e-04
6.448980e-04
6.448940e-04
6.448950e-04
6.448970e-04
8.311290e-04
8.311290e-04
6.448900e-04
6.448980e-04
8.311310e-04
8.311260e-04
6.448970e-04
6.448930e-04
8.311290e-04
8.311270e-04
6.448980e-04
6.448940e-04
8.311260e-04
8.311310e-04
8.311290e-04
8.311290e-04
1.510880e-03
1.510870e-03
8.311310e-04
8.311260e-04
1.510870e-03
1.510880e-03
8.311290e-04
8.311270e-04
1.510870e-03
1.510880e-03
8.311260e-04
8.311310e-04
1.510880e-03
1.510880e-03
1.510880e-03
1.510870e-03
1.670760e-03
1.670760e-03
1.510870e-03
1.510880e-03
1.670760e-03
1.670760e-03
1.510870e-03
1.510880e-03
1.670760e-03
1.670760e-03
1.510880e-03
1.510880e-03
1.670760e-03
1.670770e-03
1.670760e-03
1.670760e-03
3.045590e-03
3.045590e-03
1.670760e-03
1.670760e-03
3.045590e-03
3.045590e-03
1.670760e-03
1.670760e-03
3.045590e-03
3.045590e-03
1.670760e-03
1.670770e-03
3.045590e-03
3.045590e-03
3.045590e-03
3.045590e-03
6.581970e-03
6.581970e-03
3.045590e-03
3.045590e-03
6.581970e-03
6.581970e-03
3.045590e-03
3.045590e-03
6.581970e-03
6.581970e-03
3.045590e-03
3.045590e-03
6.581970e-03
6.581970e-03
6.581970e-03
6.581970e-03
1.145320e-02
1.145320e-02
6.581970e-03
6.581970e-03
1.145320e-02
1.145320e-02
6.581970e-03
6.581970e-03
1.145320e-02
1.145320e-02
6.581970e-03
6.581970e-03
1.145320e-02
1.145320e-02
1.145320e-02
1.145320e-02
2.105930e-02
2.105930e-02
1.145320e-02
1.145320e-02
2.105930e-02
2.105930e-02
1.145320e-02
1.145320e-02
2.105930e-02
2.105930e-02
1.145320e-02
1.145320e-02
2.105930e-02
2.105930e-02
2.105930e-02
2.105930e-02
3.329110e-02
3.329110e-02
2.105930e-02
2.105930e-02
3.329110e-02
3.329110e-02
2.105930e-02
2.105930e-02
3.329110e-02
3.329110e-02
2.105930e-02
2.105930e-02
3.329110e-02
3.329110e-02
3.329110e-02
3.329110e-02
4.452630e-02
4.452630e-02
3.329110e-02
3.329110e-02
4.452630e-02
4.452630e-02
3.329110e-02
3.329110e-02
4.452630e-02
4.452630e-02
3.329110e-02
3.329110e-02
4.452630e-02
4.452630e-02
4.452630e-02
4.452630e-02
4.675070e-02
4.675070e-02
4.452630e-02
4.452630e-02
4.675070e-02
4.675070e-02
4.452630e-02
4.452630e-02
4.675070e-02
4.675070e-02
4.452630e-02
4.452630e-02
4.675070e-02
4.675070e-02
4.675070e-02
4.675070e-02
3.401120e-02
3.401120e-02
4.675070e-02
4.675070e-02
3.401120e-02
3.401120e-02
4.675070e-02
4.675070e-02
3.401120e-02
3.401120e-02
4.675070e-02
4.675070e-02
3.401120e-02
3.401120e-02
3.401120e-02
3.401120e-02
7.455440e-03
7.455440e-03
3.401120e-02
3.401120e-02
7.455440e-03
7.455440e-03
3.401120e-02
3.401120e-02
7.455440e-03
7.455440e-03
3.401120e-02
3.401120e-02
7.455440e-03
7.455440e-03
7.455440e-03
7.455440e-03
-2.003110e-02
-2.003110e-02
7.455440e-03
7.455440e-03
-2.003110e-02
-2.003110e-02
7.455440e-03
7.455440e-03
-2.003110e-02
-2.003110e-02
7.455440e-03
7.455440e-03
-2.003110e-02
-2.003110e-02
-2.003110e-02
-2.003110e-02
-2.226980e-02
-2.226980e-02
-2.003110e-02
-2.003110e-02
-2.226980e-02
-2.226980e-02
-2.003110e-02
-2.003110e-02
-2.226980e-02
-2.226980e-02
-2.003110e-02
-2.003110e-02
-2.226980e-02
-2.226980e-02
-2.226980e-02
-2.226980e-02
-2.237750e-03
-2.237770e-03
-2.226980e-02
-2.226980e-02
-2.237760e-03
-2.237760e-03
-2.226980e-02
-2.226980e-02
-2.237770e-03
-2.237770e-03
-2.226980e-02
-2.226980e-02
-2.237760e-03
-2.237760e-03
-2.237750e-03
-2.237770e-03
1.472330e-02
1.472340e-02
-2.237760e-03
-2.237760e-03
1.472340e-02
1.472340e-02
-2.237770e-03
-2.237770e-03
1.472340e-02
1.472340e-02
-2.237760e-03
-2.237760e-03
1.472340e-02
1.472340e-02
1.472330e-02
1.472340e-02
9.346070e-03
9.345850e-03
1.472340e-02
1.472340e-02
9.345930e-03
9.346060e-03
1.472340e-02
1.472340e-02
9.345850e-03
9.346060e-03
1.472340e-02
1.472340e-02
9.346060e-03
9.345920e-03
9.346070e-03
9.345850e-03
-9.911940e-03
-9.912100e-03
9.345930e-03
9.346060e-03
-9.912020e-03
-9.911980e-03
9.345850e-03
9.346060e-03
-9.912100e-03
-9.912000e-03
9.346060e-03
9.345920e-03
-9.911980e-03
-9.912030e-03
-9.911940e-03
-9.912100e-03
-4.897180e-03
-4.897400e-03
-9.912020e-03
-9.911980e-03
-4.897380e-03
-4.897190e-03
-9.912100e-03
-9.912000e-03
-4.897400e-03
-4.897210e-03
-9.911980e-03
-9.912030e-03
-4.897190e-03
-4.897430e-03
-4.897180e-03
-4.897400e-03
5.768870e-03
5.769080e-03
-4.897380e-03
-4.897190e-03
5.769040e-03
5.768890e-03
-4.897400e-03
-4.897210e-03
5.769080e-03
5.768910e-03
-4.897190e-03
-4.897430e-03
5.768890e-03
5.769060e-03
5.768870e-03
5.769080e-03
7.285670e-04
7.285460e-04
5.769040e-03
5.768890e-03
7.285520e-04
7.285580e-04
5.769080e-03
5.768910e-03
7.285460e-04
7.285550e-04
5.768890e-03
5.769060e-03
7.285580e-04
7.285550e-04
7.285670e-04
7.285460e-04
-1.606660e-03
-1.606610e-03
7.285520e-04
7.285580e-04
-1.606630e-03
-1.606650e-03
7.285460e-04
7.285550e-04
-1.606610e-03
-1.606640e-03
7.285580e-04
7.285550e-04
-1.606650e-03
-1.606620e-03
-1.606660e-03
-1.606610e-03
3.137430e-04
3.137360e-04
-1.606630e-03
-1.606650e-03
3.137400e-04
3.137430e-04
-1.606610e-03
-1.606640e-03
3.137360e-04
3.137410e-04
-1.606650e-03
-1.606620e-03
3.137430e-04
3.137360e-04
3.137430e-04
3.137360e-04
3.903930e-04
3.903950e-04
3.137400e-04
3.137430e-04
3.903930e-04
3.903920e-04
3.137360e-04
3.137410e-04
3.903950e-04
3.903940e-04
3.137430e-04
3.137360e-04
3.903920e-04
3.903930e-04
3.903930e-04
3.903950e-04
-1.620710e-05
-1.620670e-05
3.903930e-04
3.903920e-04
-1.620760e-05
-1.620720e-05
3.903950e-04
3.903940e-04
-1.620670e-05
-1.620600e-05
3.903920e-04
3.903930e-04
-1.620720e-05
-1.620630e-05
-1.620710e-05
-1.620670e-05
-9.687690e-06
-9.687690e-06
-1.620760e-05
-1.620720e-05
-9.687560e-06
-9.687430e-06
-1.620670e-05
-1.620600e-05
-9.687690e-06
-9.687940e-06
-1.620720e-05
-1.620630e-05
-9.687430e-06
-9.687430e-06
-9.687690e-06
-9.687690e-06
4.008440e-05
4.008390e-05
-9.687560e-06
-9.687430e-06
4.008410e-05
4.008390e-05
-9.687690e-06
-9.687940e-06
4.008390e-05
4.008390e-05
-9.687430e-06
-9.687430e-06
4.008390e-05
4.008370e-05
0.000000e+00
0.000000e+00
4.321120e-04
4.321150e-04
0.000000e+00
0.000000e+00
4.321120e-04
4.321150e-04
0.000000e+00
0.000000e+00
4.321150e-04
4.321120e-04
0.000000e+00
0.000000e+00
4.321150e-04
4.321130e-04
4.321120e-04
4.321150e-04
2.276440e-04
2.276410e-04
4.321120e-04
4.321150e-04
2.276430e-04
2.276470e-04
4.321150e-04
4.321120e-04
2.276410e-04
2.276420e-04
4.321150e-04
4.321130e-04
2.276470e-04
2.276440e-04
2.276440e-04
2.276410e-04
6.448900e-04
6.448980e-04
2.276430e-04
2.276470e-04
6.448940e-04
6.448970e-04
2.276410e-04
2.276420e-04
6.448980e-04
6.448940e-04
2.276470e-04
2.276440e-04