<?xml version="1.0"?>
<VTKFile type="UnstructuredGrid" version="0.1" byte_order="LittleEndian" compressor="vtkZLibDataCompressor">
<UnstructuredGrid>
<Piece NumberOfPoints="960" NumberOfCells="120">
<Points>
<DataArray type="Float32" NumberOfComponents="3" format="ascii">
-4.000000e+02 -6.000000e+03 -4.000000e+02
0.000000e+00 -6.000000e+03 -4.000000e+02
-4.000000e+02 -5.600000e+03 -4.000000e+02
-6.870070e-10 -5.600000e+03 -4.000000e+02
-4.000000e+02 -6.000000e+03 0.000000e+00
0.000000e+00 -6.000000e+03 0.000000e+00
-4.000000e+02 -5.600000e+03 1.065630e-09
1.732520e-10 -5.600000e+03 5.077010e-10
0.000000e+00 -6.000000e+03 -4.000000e+02
4.000000e+02 -6.000000e+03 -4.000000e+02
-6.870070e-10 -5.600000e+03 -4.000000e+02
4.000000e+02 -5.600000e+03 -4.000000e+02
0.000000e+00 -6.000000e+03 0.000000e+00
4.000000e+02 -6.000000e+03 0.000000e+00
1.732520e-10 -5.600000e+03 5.077010e-10
4.000000e+02 -5.600000e+03 1.216150e-09
-4.000000e+02 -5.600000e+03 -4.000000e+02
-6.870070e-10 -5.600000e+03 -4.000000e+02
-4.000000e+02 -5.200000e+03 -4.000000e+02
-1.716860e-10 -5.200000e+03 -4.000000e+02
-4.000000e+02 -5.600000e+03 1.065630e-09
1.732520e-10 -5.600000e+03 5.077010e-10
-4.000000e+02 -5.200000e+03 3.605390e-10
2.637200e-10 -5.200000e+03 1.717500e-10
-6.870070e-10 -5.600000e+03 -4.000000e+02
4.000000e+02 -5.600000e+03 -4.000000e+02
-1.716860e-10 -5.200000e+03 -4.000000e+02
4.000000e+02 -5.200000e+03 -4.000000e+02
1.732520e-10 -5.600000e+03 5.077010e-10
4.000000e+02 -5.600000e+03 1.216150e-09
2.637200e-10 -5.200000e+03 1.717500e-10
4.000000e+02 -5.200000e+03 8.804700e-10
-4.000000e+02 -5.200000e+03 -4.000000e+02
-1.716860e-10 -5.200000e+03 -4.000000e+02
-4.000000e+02 -4.800010e+03 -4.000000e+02
6.642840e-10 -4.800010e+03 -4.000000e+02
-4.000000e+02 -5.200000e+03 3.605390e-10
2.637200e-10 -5.200000e+03 1.717500e-10
-4.000000e+02 -4.800010e+03 6.300460e-10
7.582820e-10 -4.800010e+03 -6.054170e-10
-1.716860e-10 -5.200000e+03 -4.000000e+02
4.000000e+02 -5.200000e+03 -4.000000e+02
6.642840e-10 -4.800010e+03 -4.000000e+02
4.000000e+02 -4.800010e+03 -4.000000e+02
2.637200e-10 -5.200000e+03 1.717500e-10
4.000000e+02 -5.200000e+03 8.804700e-10
7.582820e-10 -4.800010e+03 -6.054170e-10
4.000000e+02 -4.800010e+03 -5.867520e-11
-4.000000e+02 -4.800010e+03 -4.000000e+02
6.642840e-10 -4.800010e+03 -4.000000e+02
-4.000000e+02 -4.400010e+03 -4.000000e+02
1.152800e-09 -4.400010e+03 -4.000000e+02
-4.000000e+02 -4.800010e+03 6.300460e-10
7.582820e-10 -4.800010e+03 -6.054170e-10
-4.000000e+02 -4.400010e+03 4.607300e-11
1.609210e-09 -4.400010e+03 7.754680e-10
6.642840e-10 -4.800010e+03 -4.000000e+02
4.000000e+02 -4.800010e+03 -4.000000e+02
1.152800e-09 -4.400010e+03 -4.000000e+02
4.000000e+02 -4.400010e+03 -4.000000e+02
7.582820e-10 -4.800010e+03 -6.054170e-10
4.000000e+02 -4.800010e+03 -5.867520e-11
1.609210e-09 -4.400010e+03 7.754680e-10
4.000000e+02 -4.400010e+03 1.170150e-09
-4.000000e+02 -4.400010e+03 -4.000000e+02
1.152800e-09 -4.400010e+03 -4.000000e+02
-4.000000e+02 -4.000010e+03 -4.000000e+02
2.724830e-09 -4.000010e+03 -4.000000e+02
-4.000000e+02 -4.400010e+03 4.607300e-11
1.609210e-09 -4.400010e+03 7.754680e-10
-4.000000e+02 -4.000010e+03 1.041340e-09
1.698770e-09 -4.000010e+03 1.453820e-09
1.152800e-09 -4.400010e+03 -4.000000e+02
4.000000e+02 -4.400010e+03 -4.000000e+02
2.724830e-09 -4.000010e+03 -4.000000e+02
4.000000e+02 -4.000010e+03 -4.000000e+02
1.609210e-09 -4.400010e+03 7.754680e-10
4.000000e+02 -4.400010e+03 1.170150e-09
1.698770e-09 -4.000010e+03 1.453820e-09
4.000000e+02 -4.000010e+03 1.018150e-09
-4.000000e+02 -4.000010e+03 -4.000000e+02
2.724830e-09 -4.000010e+03 -4.000000e+02
-4.000000e+02 -3.600020e+03 -4.000000e+02
3.187860e-09 -3.600020e+03 -4.000000e+02
-4.000000e+02 -4.000010e+03 1.041340e-09
1.698770e-09 -4.000010e+03 1.453820e-09
-4.000000e+02 -3.600020e+03 7.919670e-10
2.121590e-09 -3.600020e+03 7.210630e-10
2.724830e-09 -4.000010e+03 -4.000000e+02
4.000000e+02 -4.000010e+03 -4.000000e+02
3.187860e-09 -3.600020e+03 -4.000000e+02
4.000000e+02 -3.600020e+03 -4.000000e+02
1.698770e-09 -4.000010e+03 1.453820e-09
4.000000e+02 -4.000010e+03 1.018150e-09
2.121590e-09 -3.600020e+03 7.210630e-10
4.000000e+02 -3.600020e+03 1.134110e-09
-4.000000e+02 -3.600020e+03 -4.000000e+02
3.187860e-09 -3.600020e+03 -4.000000e+02
-4.000000e+02 -3.200030e+03 -4.000000e+02
2.928940e-09 -3.200030e+03 -4.000000e+02
-4.000000e+02 -3.600020e+03 7.919670e-10
2.121590e-09 -3.600020e+03 7.210630e-10
-4.000000e+02 -3.200030e+03 2.573730e-10
2.352710e-09 -3.200030e+03 7.389900e-10
3.187860e-09 -3.600020e+03 -4.000000e+02
4.000000e+02 -3.600020e+03 -4.000000e+02
2.928940e-09 -3.200030e+03 -4.000000e+02
4.000000e+02 -3.200030e+03 -4.000000e+02
2.121590e-09 -3.600020e+03 7.210630e-10
4.000000e+02 -3.600020e+03 1.134110e-09
2.352710e-09 -3.200030e+03 7.389900e-10
4.000000e+02 -3.200030e+03 5.254540e-10
-4.000000e+02 -3.200030e+03 -4.000000e+02
2.928940e-09 -3.200030e+03 -4.000000e+02
-4.000000e+02 -2.800040e+03 -4.000000e+02
2.558100e-09 -2.800040e+03 -4.000000e+02
-4.000000e+02 -3.200030e+03 2.573730e-10
2.352710e-09 -3.200030e+03 7.389900e-10
-4.000000e+02 -2.800040e+03 4.151810e-10
2.219110e-09 -2.800040e+03 9.021830e-10
2.928940e-09 -3.200030e+03 -4.000000e+02
4.000000e+02 -3.200030e+03 -4.000000e+02
2.558100e-09 -2.800040e+03 -4.000000e+02
4.000000e+02 -2.800040e+03 -4.000000e+02
2.352710e-09 -3.200030e+03 7.389900e-10
4.000000e+02 -3.200030e+03 5.254540e-10
2.219110e-09 -2.800040e+03 9.021830e-10
4.000000e+02 -2.800040e+03 1.153490e-09
-4.000000e+02 -2.800040e+03 -4.000000e+02
2.558100e-09 -2.800040e+03 -4.000000e+02
-4.000000e+02 -2.400060e+03 -4.000000e+02
1.800700e-09 -2.400060e+03 -4.000000e+02
-4.000000e+02 -2.800040e+03 4.151810e-10
2.219110e-09 -2.800040e+03 9.021830e-10
-4.000000e+02 -2.400060e+03 5.026740e-10
1.790340e-09 -2.400060e+03 8.996050e-10
2.558100e-09 -2.800040e+03 -4.000000e+02
4.000000e+02 -2.800040e+03 -4.000000e+02
1.800700e-09 -2.400060e+03 -4.000000e+02
4.000000e+02 -2.400060e+03 -4.000000e+02
2.219110e-09 -2.800040e+03 9.021830e-10
4.000000e+02 -2.800040e+03 1.153490e-09
1.790340e-09 -2.400060e+03 8.996050e-10
4.000000e+02 -2.400060e+03 1.599430e-09
-4.000000e+02 -2.400060e+03 -4.000000e+02
1.800700e-09 -2.400060e+03 -4.000000e+02
-4.000000e+02 -2.000110e+03 -4.000000e+02
1.544740e-09 -2.000110e+03 -4.000000e+02
-4.000000e+02 -2.400060e+03 5.026740e-10
1.790340e-09 -2.400060e+03 8.996050e-10
-4.000000e+02 -2.000110e+03 1.222630e-09
1.698020e-09 -2.000110e+03 1.698760e-09
1.800700e-09 -2.400060e+03 -4.000000e+02
4.000000e+02 -2.400060e+03 -4.000000e+02
1.544740e-09 -2.000110e+03 -4.000000e+02
4.000000e+02 -2.000110e+03 -4.000000e+02
1.790340e-09 -2.400060e+03 8.996050e-10
4.000000e+02 -2.400060e+03 1.599430e-09
1.698020e-09 -2.000110e+03 1.698760e-09
4.000000e+02 -2.000110e+03 1.352360e-09
-4.000000e+02 -2.000110e+03 -4.000000e+02
1.544740e-09 -2.000110e+03 -4.000000e+02
-4.000000e+02 -1.600160e+03 -4.000000e+02
5.550350e-10 -1.600160e+03 -4.000000e+02
-4.000000e+02 -2.000110e+03 1.222630e-09
1.698020e-09 -2.000110e+03 1.698760e-09
-4.000000e+02 -1.600160e+03 9.947250e-10
1.065030e-10 -1.600160e+03 1.654090e-09
1.544740e-09 -2.000110e+03 -4.000000e+02
4.000000e+02 -2.000110e+03 -4.000000e+02
5.550350e-10 -1.600160e+03 -4.000000e+02
4.000000e+02 -1.600160e+03 -4.000000e+02
1.698020e-09 -2.000110e+03 1.698760e-09
4.000000e+02 -2.000110e+03 1.352360e-09
1.065030e-10 -1.600160e+03 1.654090e-09
4.000000e+02 -1.600160e+03 2.815000e-09
-4.000000e+02 -1.600160e+03 -4.000000e+02
5.550350e-10 -1.600160e+03 -4.000000e+02
-4.000000e+02 -1.200230e+03 -4.000000e+02
7.182890e-10 -1.200230e+03 -4.000000e+02
-4.000000e+02 -1.600160e+03 9.947250e-10
1.065030e-10 -1.600160e+03 1.654090e-09
-4.000000e+02 -1.200230e+03 4.257100e-10
7.361260e-10 -1.200230e+03 7.299750e-10
5.550350e-10 -1.600160e+03 -4.000000e+02
4.000000e+02 -1.600160e+03 -4.000000e+02
7.182890e-10 -1.200230e+03 -4.000000e+02
4.000000e+02 -1.200230e+03 -4.000000e+02
1.065030e-10 -1.600160e+03 1.654090e-09
4.000000e+02 -1.600160e+03 2.815000e-09
7.361260e-10 -1.200230e+03 7.299750e-10
4.000000e+02 -1.200230e+03 1.160620e-09
-4.000000e+02 -1.200230e+03 -4.000000e+02
7.182890e-10 -1.200230e+03 -4.000000e+02
-4.000000e+02 -8.002920e+02 -4.000000e+02
7.167570e-10 -8.002920e+02 -4.000000e+02
-4.000000e+02 -1.200230e+03 4.257100e-10
7.361260e-10 -1.200230e+03 7.299750e-10
-4.000000e+02 -8.002920e+02 -1.221340e-10
1.441450e-09 -8.002920e+02 5.469790e-10
7.182890e-10 -1.200230e+03 -4.000000e+02
4.000000e+02 -1.200230e+03 -4.000000e+02
7.167570e-10 -8.002920e+02 -4.000000e+02
4.000000e+02 -8.002920e+02 -4.000000e+02
7.361260e-10 -1.200230e+03 7.299750e-10
4.000000e+02 -1.200230e+03 1.160620e-09
1.441450e-09 -8.002920e+02 5.469790e-10
4.000000e+02 -8.002920e+02 -9.484620e-11
-4.000000e+02 -8.002920e+02 -4.000000e+02
7.167570e-10 -8.002920e+02 -4.000000e+02
-4.000000e+02 -4.003220e+02 -4.000000e+02
1.405560e-09 -4.003220e+02 -4.000000e+02
-4.000000e+02 -8.002920e+02 -1.221340e-10
1.441450e-09 -8.002920e+02 5.469790e-10
-4.000000e+02 -4.003220e+02 -5.319710e-10
1.054140e-09 -4.003220e+02 -2.840580e-10
7.167570e-10 -8.002920e+02 -4.000000e+02
4.000000e+02 -8.002920e+02 -4.000000e+02
1.405560e-09 -4.003220e+02 -4.000000e+02
4.000000e+02 -4.003220e+02 -4.000000e+02
1.441450e-09 -8.002920e+02 5.469790e-10
4.000000e+02 -8.002920e+02 -9.484620e-11
1.054140e-09 -4.003220e+02 -2.840580e-10
4.000000e+02 -4.003220e+02 -7.830900e-10
-4.000000e+02 -4.003220e+02 -4.000000e+02
1.405560e-09 -4.003220e+02 -4.000000e+02
-4.000000e+02 -3.105600e-01 -4.000000e+02
1.253510e-09 -3.105600e-01 -4.000000e+02
-4.000000e+02 -4.003220e+02 -5.319710e-10
1.054140e-09 -4.003220e+02 -2.840580e-10
-4.000000e+02 -3.105600e-01 -3.412290e-10
1.249560e-09 -3.105600e-01 -5.260650e-10
1.405560e-09 -4.003220e+02 -4.000000e+02
4.000000e+02 -4.003220e+02 -4.000000e+02
1.253510e-09 -3.105600e-01 -4.000000e+02
4.000000e+02 -3.105600e-01 -4.000000e+02
1.054140e-09 -4.003220e+02 -2.840580e-10
[...]
<PointData>
<DataArray type="Float32" Name="V1" format="ascii">
0.000000e+00
0.000000e+00
2.592360e-09
-4.557700e-11
0.000000e+00
0.000000e+00
1.146920e-09
-4.421930e-10
0.000000e+00
0.000000e+00
-4.557700e-11
-1.178340e-09
0.000000e+00
0.000000e+00
-4.421930e-10
-1.414010e-10
2.592360e-09
-4.557700e-11
-3.299360e-10
-2.118930e-10
1.146920e-09
-4.421930e-10
6.912950e-10
1.578120e-12
-4.557700e-11
-1.178340e-09
-2.118930e-10
-5.813160e-10
-4.421930e-10
-1.414010e-10
1.578120e-12
-8.641190e-10
-3.299360e-10
-2.118930e-10
1.178340e-09
3.842390e-10
6.912950e-10
1.578120e-12
-7.855630e-10
-4.434220e-10
-2.118930e-10
-5.813160e-10
3.842390e-10
3.456480e-10
1.578120e-12
-8.641190e-10
-4.434220e-10
-1.759660e-09
1.178340e-09
3.842390e-10
2.262420e-09
3.333780e-10
-7.855630e-10
-4.434220e-10
-7.070060e-10
-1.222980e-10
3.842390e-10
3.456480e-10
3.333780e-10
-9.269640e-10
-4.434220e-10
-1.759660e-09
-1.222980e-10
5.656050e-10
2.262420e-09
3.333780e-10
1.131210e-09
-5.322970e-10
-7.070060e-10
-1.222980e-10
-9.426750e-10
3.226560e-10
3.333780e-10
-9.269640e-10
-5.322970e-10
-1.885350e-10
-1.222980e-10
5.656050e-10
3.226560e-10
1.869640e-09
1.131210e-09
-5.322970e-10
-4.242040e-10
4.949580e-10
-9.426750e-10
3.226560e-10
8.484080e-10
2.465010e-10
-5.322970e-10
-1.885350e-10
4.949580e-10
1.665390e-09
3.226560e-10
1.869640e-09
2.465010e-10
-5.656050e-10
-4.242040e-10
4.949580e-10
-9.426750e-11
-1.007170e-10
8.484080e-10
2.465010e-10
-5.184710e-10
2.132880e-10
4.949580e-10
1.665390e-09
-1.007170e-10
-1.885350e-10
2.465010e-10
-5.656050e-10
2.132880e-10
5.498940e-10
-9.426750e-11
-1.007170e-10
-2.340980e-09
-8.380520e-10
-5.184710e-10
2.132880e-10
5.656050e-10
1.095550e-09
-1.007170e-10
-1.885350e-10
-8.380520e-10
2.278130e-09
2.132880e-10
5.498940e-10
1.095550e-09
8.169850e-10
-2.340980e-09
-8.380520e-10
-2.356690e-09
-6.327350e-10
5.656050e-10
1.095550e-09
-3.142250e-10
-9.543740e-10
-8.380520e-10
2.278130e-09
-6.327350e-10
2.828030e-10
1.095550e-09
8.169850e-10
-9.543740e-10
-9.426750e-10
-2.356690e-09
-6.327350e-10
-1.445440e-09
-3.103010e-10
-3.142250e-10
-9.543740e-10
-5.656050e-10
2.906660e-10
-6.327350e-10
2.828030e-10
-3.103010e-10
9.112530e-10
-9.543740e-10
-9.426750e-10
2.906660e-10
4.242040e-10
-1.445440e-09
-3.103010e-10
4.556260e-10
-3.400450e-10
-5.656050e-10
2.906660e-10
-1.414010e-10
1.082940e-10
-3.103010e-10
9.112530e-10
-3.400450e-10
-3.613590e-10
2.906660e-10
4.242040e-10
1.082940e-10
2.105310e-09
4.556260e-10
-3.400450e-10
6.912950e-10
-7.315500e-12
-1.414010e-10
1.082940e-10
-1.036940e-09
-6.742040e-10
-3.400450e-10
-3.613590e-10
-7.315500e-12
-9.112530e-10
1.082940e-10
2.105310e-09
-6.742040e-10
-1.131210e-09
6.912950e-10
-7.315500e-12
-6.284500e-11
4.780190e-10
-1.036940e-09
-6.742040e-10
8.484080e-10
5.696980e-10
-7.315500e-12
-9.112530e-10
4.780190e-10
-8.955420e-10
-6.742040e-10
-1.131210e-09
5.696980e-10
4.870490e-10
-6.284500e-11
4.780190e-10
-9.740980e-10
2.678020e-10
8.484080e-10
5.696980e-10
7.070060e-10
5.571460e-10
4.780190e-10
-8.955420e-10
2.678020e-10
-4.399150e-10
5.696980e-10
4.870490e-10
5.571460e-10
-5.970280e-10
-9.740980e-10
2.678020e-10
-4.399150e-10
1.821670e-10
7.070060e-10
5.571460e-10
-1.414010e-10
8.767780e-11
2.678020e-10
-4.399150e-10
1.821670e-10
1.602550e-09
5.571460e-10
-5.970280e-10
8.767780e-11
-9.898090e-10
-4.399150e-10
1.821670e-10
1.791080e-09
2.718600e-11
-1.414010e-10
8.767780e-11
-6.598730e-10
2.609950e-10
1.821670e-10
1.602550e-09
2.718600e-11
-2.262420e-09
8.767780e-11
-9.898090e-10
2.609950e-10
1.304030e-09
1.791080e-09
2.718600e-11
-3.126540e-09
-1.096210e-10
-6.598730e-10
2.609950e-10
1.633970e-09
-5.722980e-11
2.718600e-11
-2.262420e-09
-1.096210e-10
2.890870e-09
2.609950e-10
1.304030e-09
-5.722980e-11
-2.262420e-09
-3.126540e-09
-1.096210e-10
7.478560e-09
5.280760e-10
1.633970e-09
-5.722980e-11
-4.603400e-09
-1.116060e-09
-1.096210e-10
2.890870e-09
5.280760e-10
-4.352020e-09
-5.722980e-11
-2.262420e-09
-1.116060e-09
2.718050e-09
7.478560e-09
5.280760e-10
-8.484080e-09
-7.431880e-10
-4.603400e-09
-1.116060e-09
3.377920e-09
1.339090e-10
5.280760e-10
-4.352020e-09
-7.431880e-10
5.844590e-09
-1.116060e-09
2.718050e-09
1.339090e-10
-3.660720e-09
-8.484080e-09
-7.431880e-10
9.866670e-09
-3.658180e-10
3.377920e-09
1.339090e-10
-9.143950e-09
9.011120e-10
-7.431880e-10
5.844590e-09
-3.658180e-10
-1.054230e-08
1.339090e-10
-3.660720e-09
9.011120e-10
1.095070e-08
9.866670e-09
-3.658180e-10
-3.000850e-09
-8.604490e-10
-9.143950e-09
9.011120e-10
1.021230e-09
-1.126260e-10
-3.658180e-10
-1.054230e-08
-8.604490e-10
1.162630e-09
9.011120e-10
1.095070e-08
-1.126260e-10
-1.272610e-09
-3.000850e-09
-8.604490e-10
-6.441610e-09
9.624280e-11
1.021230e-09
-1.126260e-10
6.268790e-09
-8.500110e-10
-8.604490e-10
1.162630e-09
9.624280e-11
6.535880e-09
-1.126260e-10
-1.272610e-09
-8.500110e-10
-8.028450e-09
-6.441610e-09
9.624280e-11
8.075590e-09
1.368480e-09
6.268790e-09
-8.500110e-10
-2.765180e-09
2.150600e-10
9.624280e-11
6.535880e-09
1.368480e-09
-5.341830e-09
-8.500110e-10
-8.028450e-09
2.150600e-10
3.189380e-09
8.075590e-09
1.368480e-09
-4.289170e-09
-9.007260e-10
-2.765180e-09
2.150600e-10
-4.713380e-10
-9.583570e-11
1.368480e-09
-5.341830e-09
-9.007260e-10
2.592360e-09
2.150600e-10
3.189380e-09
-9.583570e-11
3.456480e-10
-4.289170e-09
-9.007260e-10
-7.541400e-10
6.455530e-10
-4.713380e-10
-9.583570e-11
1.052650e-09
5.512510e-12
-9.007260e-10
2.592360e-09
6.455530e-10
1.916770e-09
-9.583570e-11
3.456480e-10
5.512510e-12
-1.115500e-09
-7.541400e-10
6.455530e-10
2.246710e-09
5.875200e-10
1.052650e-09
5.512510e-12
-2.356690e-10
2.140300e-10
6.455530e-10
1.916770e-09
5.875200e-10
-1.021230e-09
5.512510e-12
-1.115500e-09
2.140300e-10
6.284500e-10
2.246710e-09
5.875200e-10
-1.728240e-10
-2.165340e-10
-2.356690e-10
2.140300e-10
-1.099790e-10
1.586440e-11
5.875200e-10
-1.021230e-09
-2.165340e-10
-1.571130e-10
2.140300e-10
6.284500e-10
1.586440e-11
1.414010e-10
-1.728240e-10
-2.165340e-10
0.000000e+00
-2.158970e-11
-1.099790e-10
1.586440e-11
0.000000e+00
3.299980e-11
-2.165340e-10
-1.571130e-10
-2.158970e-11
0.000000e+00
1.586440e-11
1.414010e-10
3.299980e-11
4.713380e-11
0.000000e+00
-2.158970e-11
0.000000e+00
1.694660e-11
0.000000e+00
3.299980e-11
0.000000e+00
1.862740e-11
-2.158970e-11
0.000000e+00
1.694660e-11
0.000000e+00
3.299980e-11
4.713380e-11
1.862740e-11
0.000000e+00
0.000000e+00
1.694660e-11
-1.256900e-10
-7.623680e-11
0.000000e+00
1.862740e-11
-7.855630e-11
-1.009080e-10
1.694660e-11
0.000000e+00
-7.623680e-11
-9.426750e-11
1.862740e-11
0.000000e+00
-1.009080e-10
-1.414010e-10
0.000000e+00
0.000000e+00
1.146920e-09
-4.421930e-10
0.000000e+00
0.000000e+00
-2.560930e-09
-6.887730e-10
0.000000e+00
0.000000e+00
-4.421930e-10
-1.414010e-10
0.000000e+00
0.000000e+00
-6.887730e-10
-7.227180e-10
1.146920e-09
-4.421930e-10
6.912950e-10
1.578120e-12
-2.560930e-09
-6.887730e-10
-5.184710e-10
7.195620e-10
-4.421930e-10
-1.414010e-10
1.578120e-12
-8.641190e-10
-6.887730e-10
-7.227180e-10
7.195620e-10
9.583870e-10
6.912950e-10
1.578120e-12
-7.855630e-10
-4.434220e-10
-5.184710e-10
7.195620e-10
8.326970e-10
6.634850e-10
1.578120e-12
-8.641190e-10
-4.434220e-10
-1.759660e-09
7.195620e-10
9.583870e-10
6.634850e-10
1.131210e-09
-7.855630e-10
-4.434220e-10
-7.070060e-10
-1.222980e-10
8.326970e-10
6.634850e-10
-4.242040e-10
-6.731200e-10
-4.434220e-10
-1.759660e-09
-1.222980e-10
5.656050e-10
6.634850e-10
1.131210e-09
-6.731200e-10
-1.241190e-09
-7.070060e-10
-1.222980e-10
-9.426750e-10
3.226560e-10
-4.242040e-10
-6.731200e-10
1.995330e-09
-4.878780e-10
-1.222980e-10
5.656050e-10
3.226560e-10
1.869640e-09
-6.731200e-10
-1.241190e-09
-4.878780e-10
-9.583870e-10
-9.426750e-10
3.226560e-10
8.484080e-10
2.465010e-10
1.995330e-09
-4.878780e-10
6.598730e-10
6.742950e-10
3.226560e-10
1.869640e-09
2.465010e-10
-5.656050e-10
-4.878780e-10
-9.583870e-10
6.742950e-10
1.241190e-09
8.484080e-10
2.465010e-10
-5.184710e-10
2.132880e-10
6.598730e-10
6.742950e-10
5.813160e-10
9.228950e-10
2.465010e-10
-5.656050e-10
2.132880e-10
5.498940e-10
6.742950e-10
1.241190e-09
9.228950e-10
5.498940e-10
-5.184710e-10
2.132880e-10
5.656050e-10
1.095550e-09
5.813160e-10
9.228950e-10
1.571130e-11
-9.076300e-10
2.132880e-10
5.498940e-10
1.095550e-09
8.169850e-10
9.228950e-10
5.498940e-10
-9.076300e-10
-1.209770e-09
5.656050e-10
1.095550e-09
-3.142250e-10
-9.543740e-10
1.571130e-11
-9.076300e-10
2.985140e-10
7.156120e-10
1.095550e-09
8.169850e-10
-9.543740e-10
-9.426750e-10
-9.076300e-10
-1.209770e-09
7.156120e-10
4.399150e-10
-3.142250e-10
-9.543740e-10
-5.656050e-10
2.906660e-10
2.985140e-10
7.156120e-10
-1.963910e-09
-3.550350e-10
-9.543740e-10
-9.426750e-10
2.906660e-10
4.242040e-10
7.156120e-10
4.399150e-10
-3.550350e-10
-8.012740e-10
-5.656050e-10
2.906660e-10
-1.414010e-10
1.082940e-10
-1.963910e-09
-3.550350e-10
1.445440e-09
-7.333110e-10
2.906660e-10
4.242040e-10
1.082940e-10
2.105310e-09
-3.550350e-10
-8.012740e-10
-7.333110e-10
-7.070060e-10
-1.414010e-10
1.082940e-10
-1.036940e-09
-6.742040e-10
1.445440e-09
-7.333110e-10
4.713380e-11
3.822170e-10
1.082940e-10
2.105310e-09
-6.742040e-10
-1.131210e-09
-7.333110e-10
-7.070060e-10
3.822170e-10
1.099790e-09
-1.036940e-09
-6.742040e-10
8.484080e-10
5.696980e-10
4.713380e-11
3.822170e-10
9.269640e-10
1.745110e-10
-6.742040e-10
-1.131210e-09
5.696980e-10
4.870490e-10
3.822170e-10
1.099790e-09
1.745110e-10
-9.898090e-10
8.484080e-10
5.696980e-10
7.070060e-10
5.571460e-10
9.269640e-10
1.745110e-10
-8.484080e-10
6.924400e-11
5.696980e-10
4.870490e-10
5.571460e-10
-5.970280e-10
1.745110e-10
-9.898090e-10
6.924400e-11
-1.178340e-09
7.070060e-10
5.571460e-10
-1.414010e-10
8.767780e-11
-8.484080e-10
6.924400e-11
-1.146920e-09
-2.558020e-10
5.571460e-10
-5.970280e-10
8.767780e-11
-9.898090e-10
6.924400e-11
-1.178340e-09
-2.558020e-10
-5.813160e-10
-1.414010e-10
8.767780e-11
-6.598730e-10
2.609950e-10
-1.146920e-09
-2.558020e-10
6.755840e-10
6.888360e-10
8.767780e-11
-9.898090e-10
2.609950e-10
1.304030e-09
-2.558020e-10
-5.813160e-10
6.888360e-10
1.728240e-10
-6.598730e-10
2.609950e-10
1.633970e-09
-5.722980e-11
6.755840e-10
6.888360e-10
-3.990660e-09
1.149770e-09
2.609950e-10
1.304030e-09
-5.722980e-11
-2.262420e-09
6.888360e-10
1.728240e-10
1.149770e-09
4.839070e-09
1.633970e-09
-5.722980e-11
-4.603400e-09
-1.116060e-09
-3.990660e-09
1.149770e-09
4.462000e-09
-9.919050e-10
-5.722980e-11
-2.262420e-09
-1.116060e-09
2.718050e-09
1.149770e-09
4.839070e-09
-9.919050e-10
-7.085780e-09
-4.603400e-09
-1.116060e-09
3.377920e-09
1.339090e-10
4.462000e-09
-9.919050e-10
-2.089600e-09
1.183930e-09
-1.116060e-09
2.718050e-09
1.339090e-10
-3.660720e-09
-9.919050e-10
-7.085780e-09
1.183930e-09
5.907430e-09
3.377920e-09
1.339090e-10
-9.143950e-09
9.011120e-10
-2.089600e-09
1.183930e-09
7.855630e-09
1.458860e-09
1.339090e-10
-3.660720e-09
9.011120e-10
1.095070e-08
1.183930e-09
5.907430e-09
1.458860e-09
-5.231850e-09
-9.143950e-09
9.011120e-10
1.021230e-09
-1.126260e-10
7.855630e-09
1.458860e-09
-7.384290e-10
7.033310e-10
9.011120e-10
1.095070e-08
-1.126260e-10
-1.272610e-09
1.458860e-09
-5.231850e-09
7.033310e-10
2.073890e-09
1.021230e-09
-1.126260e-10
6.268790e-09
-8.500110e-10
-7.384290e-10
7.033310e-10
-5.970280e-09
-1.495310e-09
-1.126260e-10
-1.272610e-09
-8.500110e-10
-8.028450e-09
7.033310e-10
2.073890e-09
-1.495310e-09
3.016560e-09
6.268790e-09
-8.500110e-10
-2.765180e-09
2.150600e-10
-5.970280e-09
-1.495310e-09
1.021230e-09
-1.706010e-09
-8.500110e-10
-8.028450e-09
2.150600e-10
3.189380e-09
-1.495310e-09
3.016560e-09
-1.706010e-09
-4.509130e-09
-2.765180e-09
2.150600e-10
-4.713380e-10
-9.583570e-11
1.021230e-09
-1.706010e-09
1.162630e-09
1.575330e-09
2.150600e-10
3.189380e-09
-9.583570e-11
3.456480e-10
-1.706010e-09
-4.509130e-09
1.575330e-09
2.058170e-09
-4.713380e-10
-9.583570e-11
1.052650e-09
5.512510e-12
1.162630e-09
1.575330e-09
-8.012740e-10
-2.381580e-10
-9.583570e-11
3.456480e-10
5.512510e-12
-1.115500e-09
1.575330e-09
2.058170e-09
-2.381580e-10
3.142250e-10
1.052650e-09
5.512510e-12
-2.356690e-10
2.140300e-10
-8.012740e-10
-2.381580e-10
1.571130e-10
-4.159490e-10
5.512510e-12
-1.115500e-09
2.140300e-10
6.284500e-10
-2.381580e-10
3.142250e-10
-4.159490e-10
-1.021230e-09
-2.356690e-10
2.140300e-10
-1.099790e-10
1.586440e-11
1.571130e-10
-4.159490e-10
1.099790e-10
2.325090e-10
2.140300e-10
6.284500e-10
1.586440e-11
1.414010e-10
-4.159490e-10
-1.021230e-09
2.325090e-10
2.670910e-10
-1.099790e-10
1.586440e-11
0.000000e+00
3.299980e-11
1.099790e-10
2.325090e-10
0.000000e+00
4.471000e-11
1.586440e-11
1.414010e-10
3.299980e-11
4.713380e-11
2.325090e-10
2.670910e-10
4.471000e-11
0.000000e+00
0.000000e+00
3.299980e-11
0.000000e+00
1.862740e-11
0.000000e+00
4.471000e-11
0.000000e+00
1.012840e-11
3.299980e-11
4.713380e-11
1.862740e-11
0.000000e+00
4.471000e-11
0.000000e+00
1.012840e-11
0.000000e+00
0.000000e+00
1.862740e-11
-7.855630e-11
-1.009080e-10
0.000000e+00
1.012840e-11
0.000000e+00
-7.176540e-11
1.862740e-11
0.000000e+00
-1.009080e-10
-1.414010e-10
1.012840e-11
0.000000e+00
-7.176540e-11
-1.571130e-10
</DataArray>
<DataArray type="Float32" Name="V2" format="ascii">
0.000000e+00
0.000000e+00
-6.464390e-05
-6.464770e-05
0.000000e+00
0.000000e+00
-6.464690e-05
-6.464820e-05
0.000000e+00
0.000000e+00
-6.464770e-05
-6.464490e-05
0.000000e+00
0.000000e+00
-6.464820e-05
-6.464530e-05
-6.464390e-05
-6.464770e-05
6.912140e-04
6.912110e-04
-6.464690e-05
-6.464820e-05
6.912150e-04
6.912130e-04
-6.464770e-05
-6.464490e-05
6.912110e-04
6.912160e-04
-6.464820e-05
-6.464530e-05
6.912130e-04
6.912160e-04
6.912140e-04
6.912110e-04
9.368180e-04
9.368140e-04
6.912150e-04
6.912130e-04
9.368150e-04
9.368120e-04
6.912110e-04
6.912160e-04
9.368140e-04
9.368180e-04
6.912130e-04
6.912160e-04
9.368120e-04
9.368160e-04
9.368180e-04
9.368140e-04
1.548500e-03
1.548500e-03
9.368150e-04
9.368120e-04
1.548500e-03
1.548500e-03
9.368140e-04
9.368180e-04
1.548500e-03
1.548500e-03
9.368120e-04
9.368160e-04
1.548500e-03
1.548500e-03
1.548500e-03
1.548500e-03
1.350010e-03
1.350010e-03
1.548500e-03
1.548500e-03
1.350010e-03
1.350000e-03
1.548500e-03
1.548500e-03
1.350010e-03
1.350000e-03
1.548500e-03
1.548500e-03
1.350000e-03
1.350000e-03
1.350010e-03
1.350010e-03
3.330520e-03
3.330520e-03
1.350010e-03
1.350000e-03
3.330520e-03
3.330520e-03
1.350010e-03
1.350000e-03
3.330520e-03
3.330520e-03
1.350000e-03
1.350000e-03
3.330520e-03
3.330520e-03
3.330520e-03
3.330520e-03
6.565330e-03
6.565330e-03
3.330520e-03
3.330520e-03
6.565330e-03
6.565330e-03
3.330520e-03
3.330520e-03
6.565330e-03
6.565330e-03
3.330520e-03
3.330520e-03
6.565330e-03
6.565330e-03
6.565330e-03
6.565330e-03
1.166970e-02
1.166970e-02
6.565330e-03
6.565330e-03
1.166970e-02
1.166970e-02
6.565330e-03
6.565330e-03
1.166970e-02
1.166970e-02
6.565330e-03
6.565330e-03
1.166970e-02
1.166970e-02
1.166970e-02
1.166970e-02
2.137220e-02
2.137220e-02
1.166970e-02
1.166970e-02
2.137220e-02
2.137220e-02
1.166970e-02
1.166970e-02
2.137220e-02
2.137220e-02
1.166970e-02
1.166970e-02
2.137220e-02
2.137220e-02
2.137220e-02
2.137220e-02
3.356990e-02
3.356990e-02
2.137220e-02
2.137220e-02
3.356990e-02
3.356990e-02
2.137220e-02
2.137220e-02
3.356990e-02
3.356990e-02
2.137220e-02
2.137220e-02
3.356990e-02
3.356990e-02
3.356990e-02
3.356990e-02
4.520030e-02
4.520030e-02
3.356990e-02
3.356990e-02
4.520030e-02
4.520030e-02
3.356990e-02
3.356990e-02
4.520030e-02
4.520030e-02
3.356990e-02
3.356990e-02
4.520030e-02
4.520030e-02
4.520030e-02
4.520030e-02
4.697730e-02
4.697730e-02
4.520030e-02
4.520030e-02
4.697730e-02
4.697730e-02
4.520030e-02
4.520030e-02
4.697730e-02
4.697730e-02
4.520030e-02
4.520030e-02
4.697730e-02
4.697730e-02
4.697730e-02
4.697730e-02
3.305530e-02
3.305540e-02
4.697730e-02
4.697730e-02
3.305530e-02
3.305530e-02
4.697730e-02
4.697730e-02
3.305540e-02
3.305530e-02
4.697730e-02
4.697730e-02
3.305530e-02
3.305530e-02
3.305530e-02
3.305540e-02
5.001280e-03
5.001280e-03
3.305530e-02
3.305530e-02
5.001270e-03
5.001280e-03
3.305540e-02
3.305530e-02
5.001280e-03
5.001280e-03
3.305530e-02
3.305530e-02
5.001280e-03
5.001280e-03
5.001280e-03
5.001280e-03
-2.072230e-02
-2.072230e-02
5.001270e-03
5.001280e-03
-2.072230e-02
-2.072230e-02
5.001280e-03
5.001280e-03
-2.072230e-02
-2.072230e-02
5.001280e-03
5.001280e-03
-2.072230e-02
-2.072230e-02
-2.072230e-02
-2.072230e-02
-2.103100e-02
-2.103100e-02
-2.072230e-02
-2.072230e-02
-2.103100e-02
-2.103100e-02
-2.072230e-02
-2.072230e-02
-2.103100e-02
-2.103100e-02
-2.072230e-02
-2.072230e-02
-2.103100e-02
-2.103100e-02
-2.103100e-02
-2.103100e-02
-1.442200e-03
-1.442200e-03
-2.103100e-02
-2.103100e-02
-1.442200e-03
-1.442190e-03
-2.103100e-02
-2.103100e-02
-1.442200e-03
-1.442200e-03
-2.103100e-02
-2.103100e-02
-1.442190e-03
-1.442200e-03
-1.442200e-03
-1.442200e-03
1.578470e-02
1.578470e-02
-1.442200e-03
-1.442190e-03
1.578470e-02
1.578470e-02
-1.442200e-03
-1.442200e-03
1.578470e-02
1.578470e-02
-1.442190e-03
-1.442200e-03
1.578470e-02
1.578470e-02
1.578470e-02
1.578470e-02
7.732380e-03
7.732330e-03
1.578470e-02
1.578470e-02
7.732340e-03
7.732370e-03
1.578470e-02
1.578470e-02
7.732330e-03
7.732370e-03
1.578470e-02
1.578470e-02
7.732370e-03
7.732340e-03
7.732380e-03
7.732330e-03
-1.205470e-02
-1.205460e-02
7.732340e-03
7.732370e-03
-1.205460e-02
-1.205470e-02
7.732330e-03
7.732370e-03
-1.205460e-02
-1.205470e-02
7.732370e-03
7.732340e-03
-1.205470e-02
-1.205460e-02
-1.205470e-02
-1.205460e-02
-3.531100e-03
-3.530810e-03
-1.205460e-02
-1.205470e-02
-3.530900e-03
-3.531030e-03
-1.205460e-02
-1.205470e-02
-3.530810e-03
-3.530990e-03
-1.205470e-02
-1.205460e-02
-3.531030e-03
-3.530880e-03
-3.531100e-03
-3.530810e-03
6.218660e-03
6.218560e-03
-3.530900e-03
-3.531030e-03
6.218590e-03
6.218610e-03
-3.530810e-03
-3.530990e-03
6.218560e-03
6.218570e-03
-3.531030e-03
-3.530880e-03
6.218610e-03
6.218590e-03
6.218660e-03
6.218560e-03
-8.365770e-05
-8.378620e-05
6.218590e-03
6.218610e-03
-8.374160e-05
-8.365390e-05
6.218560e-03
6.218570e-03
-8.378620e-05
-8.365070e-05
6.218610e-03
6.218590e-03
-8.365390e-05
-8.375780e-05
-8.365770e-05
-8.378620e-05
-1.828480e-03
-1.828480e-03
-8.374160e-05
-8.365390e-05
-1.828480e-03
-1.828480e-03
-8.378620e-05
-8.365070e-05
-1.828480e-03
-1.828470e-03
-8.365390e-05
-8.375780e-05
-1.828480e-03
-1.828480e-03
-1.828480e-03
-1.828480e-03
5.625080e-04
5.625180e-04
-1.828480e-03
-1.828480e-03
5.625100e-04
5.625100e-04
-1.828480e-03
-1.828470e-03
5.625180e-04
5.625110e-04
-1.828480e-03
-1.828480e-03
5.625100e-04
5.625100e-04
5.625080e-04
5.625180e-04
4.387450e-04
4.387440e-04
5.625100e-04
5.625100e-04
4.387420e-04
4.387400e-04
5.625180e-04
5.625110e-04
4.387440e-04
4.387390e-04
5.625100e-04
5.625100e-04
4.387400e-04
4.387420e-04
4.387450e-04
4.387440e-04
-1.202140e-05
-1.202120e-05
4.387420e-04
4.387400e-04
-1.202010e-05
-1.201970e-05
4.387440e-04
4.387390e-04
-1.202120e-05
-1.202110e-05
4.387400e-04
4.387420e-04
-1.201970e-05
-1.201970e-05
-1.202140e-05
-1.202120e-05
3.773330e-05
3.773140e-05
-1.202010e-05
-1.201970e-05
3.773840e-05
3.773550e-05
-1.202120e-05
-1.202110e-05
3.773140e-05
3.772860e-05
-1.201970e-05
-1.201970e-05
3.773550e-05
3.773060e-05
3.773330e-05
3.773140e-05
4.017050e-05
4.017410e-05
3.773840e-05
3.773550e-05
4.016550e-05
4.016890e-05
3.773140e-05
3.772860e-05
4.017410e-05
4.017660e-05
3.773550e-05
3.773060e-05
4.016890e-05
4.017340e-05
4.017050e-05
4.017410e-05
-3.774420e-05
-3.774500e-05
4.016550e-05
4.016890e-05
-3.774350e-05
-3.774410e-05
4.017410e-05
4.017660e-05
-3.774500e-05
-3.774450e-05
4.016890e-05
4.017340e-05
-3.774410e-05
-3.774460e-05
0.000000e+00
0.000000e+00
-6.464690e-05
-6.464820e-05
0.000000e+00
0.000000e+00
-6.464310e-05
-6.464930e-05
0.000000e+00
0.000000e+00
-6.464820e-05
-6.464530e-05
0.000000e+00
0.000000e+00
-6.464930e-05
-6.464410e-05
-6.464690e-05
-6.464820e-05
6.912150e-04
6.912130e-04
-6.464310e-05
-6.464930e-05
6.912090e-04
6.912130e-04
-6.464820e-05
-6.464530e-05
6.912130e-04
6.912160e-04
-6.464930e-05
-6.464410e-05
6.912130e-04
6.912140e-04
6.912150e-04
6.912130e-04
9.368150e-04
9.368120e-04
6.912090e-04
6.912130e-04
9.368170e-04
9.368110e-04
6.912130e-04
6.912160e-04