<?xml version="1.0"?>
<VTKFile type="UnstructuredGrid" version="0.1" byte_order="LittleEndian" compressor="vtkZLibDataCompressor">
<UnstructuredGrid>
<Piece NumberOfPoints="960" NumberOfCells="120">
<Points>
<DataArray type="Float32" NumberOfComponents="3" format="ascii">
-4.000000e+02 -6.000000e+03 -4.000000e+02
0.000000e+00 -6.000000e+03 -4.000000e+02
-4.000000e+02 -5.600000e+03 -4.000000e+02
1.056560e-10 -5.600000e+03 -4.000000e+02
-4.000000e+02 -6.000000e+03 0.000000e+00
0.000000e+00 -6.000000e+03 0.000000e+00
-4.000000e+02 -5.600000e+03 4.623960e-10
5.882400e-10 -5.600000e+03 -2.234680e-10
0.000000e+00 -6.000000e+03 -4.000000e+02
4.000000e+02 -6.000000e+03 -4.000000e+02
1.056560e-10 -5.600000e+03 -4.000000e+02
4.000000e+02 -5.600000e+03 -4.000000e+02
0.000000e+00 -6.000000e+03 0.000000e+00
4.000000e+02 -6.000000e+03 0.000000e+00
5.882400e-10 -5.600000e+03 -2.234680e-10
4.000000e+02 -5.600000e+03 1.941130e-10
-4.000000e+02 -5.600000e+03 -4.000000e+02
1.056560e-10 -5.600000e+03 -4.000000e+02
-4.000000e+02 -5.200000e+03 -4.000000e+02
7.049340e-10 -5.200000e+03 -4.000000e+02
-4.000000e+02 -5.600000e+03 4.623960e-10
5.882400e-10 -5.600000e+03 -2.234680e-10
-4.000000e+02 -5.200000e+03 7.048970e-10
5.146340e-10 -5.200000e+03 -3.199060e-10
1.056560e-10 -5.600000e+03 -4.000000e+02
4.000000e+02 -5.600000e+03 -4.000000e+02
7.049340e-10 -5.200000e+03 -4.000000e+02
4.000000e+02 -5.200000e+03 -4.000000e+02
5.882400e-10 -5.600000e+03 -2.234680e-10
4.000000e+02 -5.600000e+03 1.941130e-10
5.146340e-10 -5.200000e+03 -3.199060e-10
4.000000e+02 -5.200000e+03 -5.417630e-10
-4.000000e+02 -5.200000e+03 -4.000000e+02
7.049340e-10 -5.200000e+03 -4.000000e+02
-4.000000e+02 -4.800000e+03 -4.000000e+02
1.006090e-09 -4.800000e+03 -4.000000e+02
-4.000000e+02 -5.200000e+03 7.048970e-10
5.146340e-10 -5.200000e+03 -3.199060e-10
-4.000000e+02 -4.800000e+03 -1.586820e-10
9.507900e-10 -4.800000e+03 -5.297500e-11
7.049340e-10 -5.200000e+03 -4.000000e+02
4.000000e+02 -5.200000e+03 -4.000000e+02
1.006090e-09 -4.800000e+03 -4.000000e+02
4.000000e+02 -4.800000e+03 -4.000000e+02
5.146340e-10 -5.200000e+03 -3.199060e-10
4.000000e+02 -5.200000e+03 -5.417630e-10
9.507900e-10 -4.800000e+03 -5.297500e-11
4.000000e+02 -4.800000e+03 -5.459890e-10
-4.000000e+02 -4.800000e+03 -4.000000e+02
1.006090e-09 -4.800000e+03 -4.000000e+02
-4.000000e+02 -4.400000e+03 -4.000000e+02
1.042360e-09 -4.400000e+03 -4.000000e+02
-4.000000e+02 -4.800000e+03 -1.586820e-10
9.507900e-10 -4.800000e+03 -5.297500e-11
-4.000000e+02 -4.400000e+03 -8.812230e-11
1.547930e-09 -4.400000e+03 -1.067670e-09
1.006090e-09 -4.800000e+03 -4.000000e+02
4.000000e+02 -4.800000e+03 -4.000000e+02
1.042360e-09 -4.400000e+03 -4.000000e+02
4.000000e+02 -4.400000e+03 -4.000000e+02
9.507900e-10 -4.800000e+03 -5.297500e-11
4.000000e+02 -4.800000e+03 -5.459890e-10
1.547930e-09 -4.400000e+03 -1.067670e-09
4.000000e+02 -4.400000e+03 4.632280e-10
-4.000000e+02 -4.400000e+03 -4.000000e+02
1.042360e-09 -4.400000e+03 -4.000000e+02
-4.000000e+02 -4.000010e+03 -4.000000e+02
2.335990e-09 -4.000010e+03 -4.000000e+02
-4.000000e+02 -4.400000e+03 -8.812230e-11
1.547930e-09 -4.400000e+03 -1.067670e-09
-4.000000e+02 -4.000010e+03 2.860980e-10
2.354020e-09 -4.000010e+03 3.440730e-10
1.042360e-09 -4.400000e+03 -4.000000e+02
4.000000e+02 -4.400000e+03 -4.000000e+02
2.335990e-09 -4.000010e+03 -4.000000e+02
4.000000e+02 -4.000010e+03 -4.000000e+02
1.547930e-09 -4.400000e+03 -1.067670e-09
4.000000e+02 -4.400000e+03 4.632280e-10
2.354020e-09 -4.000010e+03 3.440730e-10
4.000000e+02 -4.000010e+03 1.510660e-10
-4.000000e+02 -4.000010e+03 -4.000000e+02
2.335990e-09 -4.000010e+03 -4.000000e+02
-4.000000e+02 -3.600010e+03 -4.000000e+02
2.868420e-09 -3.600010e+03 -4.000000e+02
-4.000000e+02 -4.000010e+03 2.860980e-10
2.354020e-09 -4.000010e+03 3.440730e-10
-4.000000e+02 -3.600010e+03 -3.543120e-10
2.666690e-09 -3.600010e+03 1.820370e-10
2.335990e-09 -4.000010e+03 -4.000000e+02
4.000000e+02 -4.000010e+03 -4.000000e+02
2.868420e-09 -3.600010e+03 -4.000000e+02
4.000000e+02 -3.600010e+03 -4.000000e+02
2.354020e-09 -4.000010e+03 3.440730e-10
4.000000e+02 -4.000010e+03 1.510660e-10
2.666690e-09 -3.600010e+03 1.820370e-10
4.000000e+02 -3.600010e+03 -8.145330e-11
-4.000000e+02 -3.600010e+03 -4.000000e+02
2.868420e-09 -3.600010e+03 -4.000000e+02
-4.000000e+02 -3.200010e+03 -4.000000e+02
2.605830e-09 -3.200010e+03 -4.000000e+02
-4.000000e+02 -3.600010e+03 -3.543120e-10
2.666690e-09 -3.600010e+03 1.820370e-10
-4.000000e+02 -3.200010e+03 1.027470e-10
2.065810e-09 -3.200010e+03 6.984460e-10
2.868420e-09 -3.600010e+03 -4.000000e+02
4.000000e+02 -3.600010e+03 -4.000000e+02
2.605830e-09 -3.200010e+03 -4.000000e+02
4.000000e+02 -3.200010e+03 -4.000000e+02
2.666690e-09 -3.600010e+03 1.820370e-10
4.000000e+02 -3.600010e+03 -8.145330e-11
2.065810e-09 -3.200010e+03 6.984460e-10
4.000000e+02 -3.200010e+03 7.365470e-10
-4.000000e+02 -3.200010e+03 -4.000000e+02
2.605830e-09 -3.200010e+03 -4.000000e+02
-4.000000e+02 -2.800010e+03 -4.000000e+02
2.197660e-09 -2.800010e+03 -4.000000e+02
-4.000000e+02 -3.200010e+03 1.027470e-10
2.065810e-09 -3.200010e+03 6.984460e-10
-4.000000e+02 -2.800010e+03 9.820140e-10
2.036320e-09 -2.800010e+03 2.103860e-09
2.605830e-09 -3.200010e+03 -4.000000e+02
4.000000e+02 -3.200010e+03 -4.000000e+02
2.197660e-09 -2.800010e+03 -4.000000e+02
4.000000e+02 -2.800010e+03 -4.000000e+02
2.065810e-09 -3.200010e+03 6.984460e-10
4.000000e+02 -3.200010e+03 7.365470e-10
2.036320e-09 -2.800010e+03 2.103860e-09
4.000000e+02 -2.800010e+03 1.200970e-09
-4.000000e+02 -2.800010e+03 -4.000000e+02
2.197660e-09 -2.800010e+03 -4.000000e+02
-4.000000e+02 -2.400020e+03 -4.000000e+02
1.326750e-09 -2.400020e+03 -4.000000e+02
-4.000000e+02 -2.800010e+03 9.820140e-10
2.036320e-09 -2.800010e+03 2.103860e-09
-4.000000e+02 -2.400020e+03 1.358840e-09
1.079950e-09 -2.400020e+03 1.792770e-09
2.197660e-09 -2.800010e+03 -4.000000e+02
4.000000e+02 -2.800010e+03 -4.000000e+02
1.326750e-09 -2.400020e+03 -4.000000e+02
4.000000e+02 -2.400020e+03 -4.000000e+02
2.036320e-09 -2.800010e+03 2.103860e-09
4.000000e+02 -2.800010e+03 1.200970e-09
1.079950e-09 -2.400020e+03 1.792770e-09
4.000000e+02 -2.400020e+03 1.947390e-09
-4.000000e+02 -2.400020e+03 -4.000000e+02
1.326750e-09 -2.400020e+03 -4.000000e+02
-4.000000e+02 -2.000020e+03 -4.000000e+02
1.774140e-09 -2.000020e+03 -4.000000e+02
-4.000000e+02 -2.400020e+03 1.358840e-09
1.079950e-09 -2.400020e+03 1.792770e-09
-4.000000e+02 -2.000020e+03 1.479570e-09
1.331110e-09 -2.000020e+03 1.359220e-09
1.326750e-09 -2.400020e+03 -4.000000e+02
4.000000e+02 -2.400020e+03 -4.000000e+02
1.774140e-09 -2.000020e+03 -4.000000e+02
4.000000e+02 -2.000020e+03 -4.000000e+02
1.079950e-09 -2.400020e+03 1.792770e-09
4.000000e+02 -2.400020e+03 1.947390e-09
1.331110e-09 -2.000020e+03 1.359220e-09
4.000000e+02 -2.000020e+03 1.366220e-09
-4.000000e+02 -2.000020e+03 -4.000000e+02
1.774140e-09 -2.000020e+03 -4.000000e+02
-4.000000e+02 -1.600020e+03 -4.000000e+02
1.554460e-09 -1.600020e+03 -4.000000e+02
-4.000000e+02 -2.000020e+03 1.479570e-09
1.331110e-09 -2.000020e+03 1.359220e-09
-4.000000e+02 -1.600020e+03 1.722550e-09
1.838370e-09 -1.600020e+03 1.845150e-09
1.774140e-09 -2.000020e+03 -4.000000e+02
4.000000e+02 -2.000020e+03 -4.000000e+02
1.554460e-09 -1.600020e+03 -4.000000e+02
4.000000e+02 -1.600020e+03 -4.000000e+02
1.331110e-09 -2.000020e+03 1.359220e-09
4.000000e+02 -2.000020e+03 1.366220e-09
1.838370e-09 -1.600020e+03 1.845150e-09
4.000000e+02 -1.600020e+03 1.776080e-09
-4.000000e+02 -1.600020e+03 -4.000000e+02
1.554460e-09 -1.600020e+03 -4.000000e+02
-4.000000e+02 -1.200030e+03 -4.000000e+02
1.727160e-09 -1.200030e+03 -4.000000e+02
-4.000000e+02 -1.600020e+03 1.722550e-09
1.838370e-09 -1.600020e+03 1.845150e-09
-4.000000e+02 -1.200030e+03 1.852390e-09
1.751360e-09 -1.200030e+03 1.589560e-09
1.554460e-09 -1.600020e+03 -4.000000e+02
4.000000e+02 -1.600020e+03 -4.000000e+02
1.727160e-09 -1.200030e+03 -4.000000e+02
4.000000e+02 -1.200030e+03 -4.000000e+02
1.838370e-09 -1.600020e+03 1.845150e-09
4.000000e+02 -1.600020e+03 1.776080e-09
1.751360e-09 -1.200030e+03 1.589560e-09
4.000000e+02 -1.200030e+03 1.887930e-09
-4.000000e+02 -1.200030e+03 -4.000000e+02
1.727160e-09 -1.200030e+03 -4.000000e+02
-4.000000e+02 -8.000500e+02 -4.000000e+02
1.081750e-09 -8.000500e+02 -4.000000e+02
-4.000000e+02 -1.200030e+03 1.852390e-09
1.751360e-09 -1.200030e+03 1.589560e-09
-4.000000e+02 -8.000500e+02 1.539730e-09
1.401650e-09 -8.000500e+02 1.985400e-09
1.727160e-09 -1.200030e+03 -4.000000e+02
4.000000e+02 -1.200030e+03 -4.000000e+02
1.081750e-09 -8.000500e+02 -4.000000e+02
4.000000e+02 -8.000500e+02 -4.000000e+02
1.751360e-09 -1.200030e+03 1.589560e-09
4.000000e+02 -1.200030e+03 1.887930e-09
1.401650e-09 -8.000500e+02 1.985400e-09
4.000000e+02 -8.000500e+02 2.142670e-09
-4.000000e+02 -8.000500e+02 -4.000000e+02
1.081750e-09 -8.000500e+02 -4.000000e+02
-4.000000e+02 -4.000760e+02 -4.000000e+02
3.320010e-10 -4.000760e+02 -4.000000e+02
-4.000000e+02 -8.000500e+02 1.539730e-09
1.401650e-09 -8.000500e+02 1.985400e-09
-4.000000e+02 -4.000760e+02 1.290230e-09
1.785080e-09 -4.000760e+02 1.134870e-09
1.081750e-09 -8.000500e+02 -4.000000e+02
4.000000e+02 -8.000500e+02 -4.000000e+02
3.320010e-10 -4.000760e+02 -4.000000e+02
4.000000e+02 -4.000760e+02 -4.000000e+02
1.401650e-09 -8.000500e+02 1.985400e-09
4.000000e+02 -8.000500e+02 2.142670e-09
1.785080e-09 -4.000760e+02 1.134870e-09
4.000000e+02 -4.000760e+02 2.167470e-09
-4.000000e+02 -4.000760e+02 -4.000000e+02
3.320010e-10 -4.000760e+02 -4.000000e+02
-4.000000e+02 -1.199840e-01 -4.000000e+02
8.496720e-10 -1.199840e-01 -4.000000e+02
-4.000000e+02 -4.000760e+02 1.290230e-09
1.785080e-09 -4.000760e+02 1.134870e-09
-4.000000e+02 -1.199840e-01 9.105610e-10
-7.234510e-10 -1.199840e-01 3.761030e-10
3.320010e-10 -4.000760e+02 -4.000000e+02
4.000000e+02 -4.000760e+02 -4.000000e+02
8.496720e-10 -1.199840e-01 -4.000000e+02
4.000000e+02 -1.199840e-01 -4.000000e+02
1.785080e-09 -4.000760e+02 1.134870e-09
[...]
<PointData>
<DataArray type="Float32" Name="V1" format="ascii">
0.000000e+00
0.000000e+00
9.740980e-10
9.752500e-11
0.000000e+00
0.000000e+00
-1.414010e-10
-1.453750e-09
0.000000e+00
0.000000e+00
9.752500e-11
1.366880e-09
0.000000e+00
0.000000e+00
-1.453750e-09
-1.681100e-09
9.740980e-10
9.752500e-11
1.932480e-09
3.925760e-10
-1.414010e-10
-1.453750e-09
-3.613590e-10
-3.776820e-10
9.752500e-11
1.366880e-09
3.925760e-10
-2.340980e-09
-1.453750e-09
-1.681100e-09
-3.776820e-10
5.498940e-10
1.932480e-09
3.925760e-10
-1.649680e-09
7.010300e-10
-3.613590e-10
-3.776820e-10
1.099790e-10
-3.918240e-11
3.925760e-10
-2.340980e-09
7.010300e-10
7.384290e-10
-3.776820e-10
5.498940e-10
-3.918240e-11
6.598730e-10
-1.649680e-09
7.010300e-10
1.728240e-09
1.390600e-09
1.099790e-10
-3.918240e-11
-1.288320e-09
-7.508240e-11
7.010300e-10
7.384290e-10
1.390600e-09
4.399150e-10
-3.918240e-11
6.598730e-10
-7.508240e-11
9.898090e-10
1.728240e-09
1.390600e-09
-9.426750e-10
-1.178940e-09
-1.288320e-09
-7.508240e-11
-5.656050e-10
-5.370590e-10
1.390600e-09
4.399150e-10
-1.178940e-09
-8.641190e-10
-7.508240e-11
9.898090e-10
-5.370590e-10
4.242040e-10
-9.426750e-10
-1.178940e-09
-3.189380e-09
-1.367060e-10
-5.656050e-10
-5.370590e-10
0.000000e+00
7.312010e-11
-1.178940e-09
-8.641190e-10
-1.367060e-10
9.112530e-10
-5.370590e-10
4.242040e-10
7.312010e-11
-5.498940e-10
-3.189380e-09
-1.367060e-10
-2.985140e-10
-7.416120e-10
0.000000e+00
7.312010e-11
2.828030e-10
4.086990e-10
-1.367060e-10
9.112530e-10
-7.416120e-10
-1.618260e-09
7.312010e-11
-5.498940e-10
4.086990e-10
-2.985140e-10
-2.985140e-10
-7.416120e-10
-1.256900e-10
3.040240e-10
2.828030e-10
4.086990e-10
1.759660e-09
7.882150e-10
-7.416120e-10
-1.618260e-09
3.040240e-10
1.571130e-10
4.086990e-10
-2.985140e-10
7.882150e-10
5.498940e-10
-1.256900e-10
3.040240e-10
-1.571130e-10
-2.644550e-10
1.759660e-09
7.882150e-10
1.005520e-09
7.231000e-10
3.040240e-10
1.571130e-10
-2.644550e-10
8.169850e-10
7.882150e-10
5.498940e-10
7.231000e-10
-1.382590e-09
-1.571130e-10
-2.644550e-10
9.112530e-10
9.713060e-10
1.005520e-09
7.231000e-10
-1.131210e-09
4.523540e-11
-2.644550e-10
8.169850e-10
9.713060e-10
1.555410e-09
7.231000e-10
-1.382590e-09
4.523540e-11
-7.855630e-10
9.112530e-10
9.713060e-10
-2.309550e-09
1.407480e-10
-1.131210e-09
4.523540e-11
5.656050e-10
-2.379220e-10
9.713060e-10
1.555410e-09
1.407480e-10
1.555410e-09
4.523540e-11
-7.855630e-10
-2.379220e-10
-5.341830e-10
-2.309550e-09
1.407480e-10
-1.241190e-09
-1.477080e-10
5.656050e-10
-2.379220e-10
2.670910e-10
-1.904550e-11
1.407480e-10
1.555410e-09
-1.477080e-10
1.571130e-11
-2.379220e-10
-5.341830e-10
-1.904550e-11
1.084080e-09
-1.241190e-09
-1.477080e-10
2.718050e-09
1.226160e-09
2.670910e-10
-1.904550e-11
-3.142250e-11
-2.282920e-10
-1.477080e-10
1.571130e-11
1.226160e-09
6.441610e-10
-1.904550e-11
1.084080e-09
-2.282920e-10
-4.713380e-10
2.718050e-09
1.226160e-09
-1.178340e-09
-7.799220e-10
-3.142250e-11
-2.282920e-10
3.613590e-10
-1.326640e-10
1.226160e-09
6.441610e-10
-7.799220e-10
5.341830e-10
-2.282920e-10
-4.713380e-10
-1.326640e-10
9.426750e-11
-1.178340e-09
-7.799220e-10
3.063690e-09
1.514520e-10
3.613590e-10
-1.326640e-10
-4.084930e-10
-5.969920e-10
-7.799220e-10
5.341830e-10
1.514520e-10
-2.702340e-09
-1.326640e-10
9.426750e-11
-5.969920e-10
4.713380e-11
3.063690e-09
1.514520e-10
-8.625480e-09
-5.800400e-09
-4.084930e-10
-5.969920e-10
6.520170e-09
4.904550e-10
1.514520e-10
-2.702340e-09
-5.800400e-09
-1.602550e-09
-5.969920e-10
4.713380e-11
4.904550e-10
-5.844590e-09
-8.625480e-09
-5.800400e-09
1.388870e-08
7.694320e-09
6.520170e-09
4.904550e-10
-1.106070e-08
7.061780e-11
-5.800400e-09
-1.602550e-09
7.694320e-09
3.142250e-10
4.904550e-10
-5.844590e-09
7.061780e-11
1.140640e-08
1.388870e-08
7.694320e-09
-1.523990e-09
5.202500e-09
-1.106070e-08
7.061780e-11
1.000810e-08
-2.225840e-10
7.694320e-09
3.142250e-10
5.202500e-09
1.412440e-08
7.061780e-11
1.140640e-08
-2.225840e-10
-9.819530e-09
-1.523990e-09
5.202500e-09
-1.366880e-09
-1.313940e-08
1.000810e-08
-2.225840e-10
-2.070740e-08
-8.125320e-10
5.202500e-09
1.412440e-08
-1.313940e-08
-2.744760e-08
-2.225840e-10
-9.819530e-09
-8.125320e-10
1.894780e-08
-1.366880e-09
-1.313940e-08
5.909000e-08
1.084540e-08
-2.070740e-08
-8.125320e-10
-9.316770e-09
4.187750e-10
-1.313940e-08
-2.744760e-08
1.084540e-08
-3.717280e-08
-8.125320e-10
1.894780e-08
4.187750e-10
1.005520e-08
5.909000e-08
1.084540e-08
-3.682720e-08
3.390720e-09
-9.316770e-09
4.187750e-10
1.984330e-08
4.372480e-10
1.084540e-08
-3.717280e-08
3.390720e-09
4.366160e-08
4.187750e-10
1.005520e-08
4.372480e-10
-1.891640e-08
-3.682720e-08
3.390720e-09
-5.569640e-08
-6.214980e-09
1.984330e-08
4.372480e-10
1.951340e-08
1.275230e-09
3.390720e-09
4.366160e-08
-6.214980e-09
4.356730e-08
4.372480e-10
-1.891640e-08
1.275230e-09
-1.684250e-08
-5.569640e-08
-6.214980e-09
3.905820e-08
-3.187760e-10
1.951340e-08
1.275230e-09
-1.409300e-08
4.002040e-10
-6.214980e-09
4.356730e-08
-3.187760e-10
-3.965520e-08
1.275230e-09
-1.684250e-08
4.002040e-10
1.497280e-08
3.905820e-08
-3.187760e-10
2.121020e-09
-1.998920e-09
-1.409300e-08
4.002040e-10
-7.462850e-09
-2.932960e-09
-3.187760e-10
-3.965520e-08
-1.998920e-09
-6.221660e-09
4.002040e-10
1.497280e-08
-2.932960e-09
1.602550e-09
2.121020e-09
-1.998920e-09
-1.140640e-08
-6.716120e-10
-7.462850e-09
-2.932960e-09
5.938850e-09
6.146060e-10
-1.998920e-09
-6.221660e-09
-6.716120e-10
1.016520e-08
-2.932960e-09
1.602550e-09
6.146060e-10
-4.650530e-09
-1.140640e-08
-6.716120e-10
5.121870e-09
1.103450e-09
5.938850e-09
6.146060e-10
-6.441610e-10
7.191740e-10
-6.716120e-10
1.016520e-08
1.103450e-09
-2.828030e-09
6.146060e-10
-4.650530e-09
7.191740e-10
2.199580e-09
5.121870e-09
1.103450e-09
-2.356690e-10
3.424400e-10
-6.441610e-10
7.191740e-10
4.399150e-10
5.097400e-11
1.103450e-09
-2.828030e-09
3.424400e-10
9.426750e-10
7.191740e-10
2.199580e-09
5.097400e-11
-2.828030e-10
-2.356690e-10
3.424400e-10
1.178340e-09
5.854230e-10
4.399150e-10
5.097400e-11
9.426750e-11
2.893520e-10
3.424400e-10
9.426750e-10
5.854230e-10
1.571130e-11
5.097400e-11
-2.828030e-10
2.893520e-10
5.656050e-10
1.178340e-09
5.854230e-10
-2.828030e-10
-1.177540e-10
9.426750e-11
2.893520e-10
-1.728240e-10
-1.205260e-10
5.854230e-10
1.571130e-11
-1.177540e-10
0.000000e+00
2.893520e-10
5.656050e-10
-1.205260e-10
-1.414010e-10
-2.828030e-10
-1.177540e-10
-1.414010e-10
-1.322060e-10
-1.728240e-10
-1.205260e-10
-2.199580e-10
-1.510440e-10
-1.177540e-10
0.000000e+00
-1.322060e-10
-1.414010e-10
-1.205260e-10
-1.414010e-10
-1.510440e-10
-1.256900e-10
0.000000e+00
0.000000e+00
-1.414010e-10
-1.453750e-09
0.000000e+00
0.000000e+00
2.058170e-09
5.574460e-10
0.000000e+00
0.000000e+00
-1.453750e-09
-1.681100e-09
0.000000e+00
0.000000e+00
5.574460e-10
-7.070060e-10
-1.414010e-10
-1.453750e-09
-3.613590e-10
-3.776820e-10
2.058170e-09
5.574460e-10
-1.728240e-10
1.166790e-09
-1.453750e-09
-1.681100e-09
-3.776820e-10
5.498940e-10
5.574460e-10
-7.070060e-10
1.166790e-09
1.822510e-09
-3.613590e-10
-3.776820e-10
1.099790e-10
-3.918240e-11
-1.728240e-10
1.166790e-09
-1.084080e-09
2.692580e-10
-3.776820e-10
5.498940e-10
-3.918240e-11
6.598730e-10
1.166790e-09
1.822510e-09
2.692580e-10
5.498940e-10
1.099790e-10
-3.918240e-11
-1.288320e-09
-7.508240e-11
-1.084080e-09
2.692580e-10
1.932480e-09
1.734890e-09
-3.918240e-11
6.598730e-10
-7.508240e-11
9.898090e-10
2.692580e-10
5.498940e-10
1.734890e-09
7.855630e-11
-1.288320e-09
-7.508240e-11
-5.656050e-10
-5.370590e-10
1.932480e-09
1.734890e-09
0.000000e+00
3.757920e-10
-7.508240e-11
9.898090e-10
-5.370590e-10
4.242040e-10
1.734890e-09
7.855630e-11
3.757920e-10
1.036940e-09
-5.656050e-10
-5.370590e-10
0.000000e+00
7.312010e-11
0.000000e+00
3.757920e-10
4.870490e-10
-4.472430e-10
-5.370590e-10
4.242040e-10
7.312010e-11
-5.498940e-10
3.757920e-10
1.036940e-09
-4.472430e-10
-1.005520e-09
0.000000e+00
7.312010e-11
2.828030e-10
4.086990e-10
4.870490e-10
-4.472430e-10
1.414010e-10
1.329960e-09
7.312010e-11
-5.498940e-10
4.086990e-10
-2.985140e-10
-4.472430e-10
-1.005520e-09
1.329960e-09
6.284500e-11
2.828030e-10
4.086990e-10
1.759660e-09
7.882150e-10
1.414010e-10
1.329960e-09
-4.399150e-10
-1.111880e-09
4.086990e-10
-2.985140e-10
7.882150e-10
5.498940e-10
1.329960e-09
6.284500e-11
-1.111880e-09
-1.445440e-09
1.759660e-09
7.882150e-10
1.005520e-09
7.231000e-10
-4.399150e-10
-1.111880e-09
-6.441610e-10
-2.122920e-10
7.882150e-10
5.498940e-10
7.231000e-10
-1.382590e-09
-1.111880e-09
-1.445440e-09
-2.122920e-10
-7.698510e-10
1.005520e-09
7.231000e-10
-1.131210e-09
4.523540e-11
-6.441610e-10
-2.122920e-10
1.052650e-09
1.061390e-09
7.231000e-10
-1.382590e-09
4.523540e-11
-7.855630e-10
-2.122920e-10
-7.698510e-10
1.061390e-09
1.429720e-09
-1.131210e-09
4.523540e-11
5.656050e-10
-2.379220e-10
1.052650e-09
1.061390e-09
-8.326970e-10
-5.522300e-10
4.523540e-11
-7.855630e-10
-2.379220e-10
-5.341830e-10
1.061390e-09
1.429720e-09
-5.522300e-10
-5.341830e-10
5.656050e-10
-2.379220e-10
2.670910e-10
-1.904550e-11
-8.326970e-10
-5.522300e-10
-7.227180e-10
-8.820770e-10
-2.379220e-10
-5.341830e-10
-1.904550e-11
1.084080e-09
-5.522300e-10
-5.341830e-10
-8.820770e-10
-6.755840e-10
2.670910e-10
-1.904550e-11
-3.142250e-11
-2.282920e-10
-7.227180e-10
-8.820770e-10
-1.194060e-09
-3.281350e-11
-1.904550e-11
1.084080e-09
-2.282920e-10
-4.713380e-10
-8.820770e-10
-6.755840e-10
-3.281350e-11
1.146920e-09
-3.142250e-11
-2.282920e-10
3.613590e-10
-1.326640e-10
-1.194060e-09
-3.281350e-11
1.728240e-10
-2.874430e-10
-2.282920e-10
-4.713380e-10
-1.326640e-10
9.426750e-11
-3.281350e-11
1.146920e-09
-2.874430e-10
-4.399150e-10
3.613590e-10
-1.326640e-10
-4.084930e-10
-5.969920e-10
1.728240e-10
-2.874430e-10
4.713380e-10
-1.145120e-09
-1.326640e-10
9.426750e-11
-5.969920e-10
4.713380e-11
-2.874430e-10
-4.399150e-10
-1.145120e-09
-3.440760e-09
-4.084930e-10
-5.969920e-10
6.520170e-09
4.904550e-10
4.713380e-10
-1.145120e-09
3.299360e-10
3.505590e-09
-5.969920e-10
4.713380e-11
4.904550e-10
-5.844590e-09
-1.145120e-09
-3.440760e-09
3.505590e-09
7.808490e-09
6.520170e-09
4.904550e-10
-1.106070e-08
7.061780e-11
3.299360e-10
3.505590e-09
8.028450e-09
-4.184660e-09
4.904550e-10
-5.844590e-09
7.061780e-11
1.140640e-08
3.505590e-09
7.808490e-09
-4.184660e-09
-1.687390e-08
-1.106070e-08
7.061780e-11
1.000810e-08
-2.225840e-10
8.028450e-09
-4.184660e-09
-1.091930e-08
-3.038570e-09
7.061780e-11
1.140640e-08
-2.225840e-10
-9.819530e-09
-4.184660e-09
-1.687390e-08
-3.038570e-09
2.670910e-09
1.000810e-08
-2.225840e-10
-2.070740e-08
-8.125320e-10
-1.091930e-08
-3.038570e-09
8.641190e-10
1.277920e-10
-2.225840e-10
-9.819530e-09
-8.125320e-10
1.894780e-08
-3.038570e-09
2.670910e-09
1.277920e-10
-1.508280e-09
-2.070740e-08
-8.125320e-10
-9.316770e-09
4.187750e-10
8.641190e-10
1.277920e-10
2.246710e-09
-1.412890e-08
-8.125320e-10
1.894780e-08
4.187750e-10
1.005520e-08
1.277920e-10
-1.508280e-09
-1.412890e-08
-3.044840e-08
-9.316770e-09
4.187750e-10
1.984330e-08
4.372480e-10
2.246710e-09
-1.412890e-08
-1.096650e-08
1.093330e-08
4.187750e-10
1.005520e-08
4.372480e-10
-1.891640e-08
-1.412890e-08
-3.044840e-08
1.093330e-08
3.311930e-08
1.984330e-08
4.372480e-10
1.951340e-08
1.275230e-09
-1.096650e-08
1.093330e-08
-9.536730e-09
1.739240e-08
4.372480e-10
-1.891640e-08
1.275230e-09
-1.684250e-08
1.093330e-08
3.311930e-08
1.739240e-08
4.400720e-08
1.951340e-08
1.275230e-09
-1.409300e-08
4.002040e-10
-9.536730e-09
1.739240e-08
1.247470e-08
-9.015940e-09
1.275230e-09
-1.684250e-08
4.002040e-10
1.497280e-08
1.739240e-08
4.400720e-08
-9.015940e-09
-3.063690e-08
-1.409300e-08
4.002040e-10
-7.462850e-09
-2.932960e-09
1.247470e-08
-9.015940e-09
-3.189380e-09
-5.404320e-09
4.002040e-10
1.497280e-08
-2.932960e-09
1.602550e-09
-9.015940e-09
-3.063690e-08
-5.404320e-09
-7.604250e-09
-7.462850e-09
-2.932960e-09
5.938850e-09
6.146060e-10
-3.189380e-09
-5.404320e-09
-1.146920e-09
2.755790e-09
-2.932960e-09
1.602550e-09
6.146060e-10
-4.650530e-09
-5.404320e-09
-7.604250e-09
2.755790e-09
6.614440e-09
5.938850e-09
6.146060e-10
-6.441610e-10
7.191740e-10
-1.146920e-09
2.755790e-09
1.398300e-09
-1.009310e-10
6.146060e-10
-4.650530e-09
7.191740e-10
2.199580e-09
2.755790e-09
6.614440e-09
-1.009310e-10
-1.602550e-09
-6.441610e-10
7.191740e-10
4.399150e-10
5.097400e-11
1.398300e-09
-1.009310e-10
-1.194060e-09
6.214910e-13
7.191740e-10
2.199580e-09
5.097400e-11
-2.828030e-10
-1.009310e-10
-1.602550e-09
6.214910e-13
1.241190e-09
4.399150e-10
5.097400e-11
9.426750e-11
2.893520e-10
-1.194060e-09
6.214910e-13
4.399150e-10
-4.376540e-11
5.097400e-11
-2.828030e-10
2.893520e-10
5.656050e-10
6.214910e-13
1.241190e-09
-4.376540e-11
-4.713380e-10
9.426750e-11
2.893520e-10
-1.728240e-10
-1.205260e-10
4.399150e-10
-4.376540e-11
-1.099790e-10
-7.716160e-11
2.893520e-10
5.656050e-10
-1.205260e-10
-1.414010e-10
-4.376540e-11
-4.713380e-10
-7.716160e-11
-9.426750e-11
-1.728240e-10
-1.205260e-10
-2.199580e-10
-1.510440e-10
-1.099790e-10
-7.716160e-11
-2.513800e-10
-1.836770e-10
-1.205260e-10
-1.414010e-10
-1.510440e-10
-1.256900e-10
-7.716160e-11
-9.426750e-11
-1.836770e-10
-1.256900e-10
</DataArray>
<DataArray type="Float32" Name="V2" format="ascii">
0.000000e+00
0.000000e+00
1.362190e-04
1.362150e-04
0.000000e+00
0.000000e+00
1.362190e-04
1.362200e-04
0.000000e+00
0.000000e+00
1.362150e-04
1.362210e-04
0.000000e+00
0.000000e+00
1.362200e-04
1.362180e-04
1.362190e-04
1.362150e-04
-1.194720e-04
-1.194730e-04
1.362190e-04
1.362200e-04
-1.194730e-04
-1.194770e-04
1.362150e-04
1.362210e-04
-1.194730e-04
-1.194770e-04
1.362200e-04
1.362180e-04
-1.194770e-04
-1.194730e-04
-1.194720e-04
-1.194730e-04
1.367020e-04
1.367050e-04
-1.194730e-04
-1.194770e-04
1.367090e-04
1.366990e-04
-1.194730e-04
-1.194770e-04
1.367050e-04
1.367060e-04
-1.194770e-04
-1.194730e-04
1.366990e-04
1.367080e-04
1.367020e-04
1.367050e-04
9.373310e-05
9.373750e-05
1.367090e-04
1.366990e-04
9.373810e-05
9.373450e-05
1.367050e-04
1.367060e-04
9.373750e-05
9.373560e-05
1.366990e-04
1.367080e-04
9.373450e-05
9.373770e-05
9.373310e-05
9.373750e-05
3.364880e-04
3.364890e-04
9.373810e-05
9.373450e-05
3.364890e-04
3.364870e-04
9.373750e-05
9.373560e-05
3.364890e-04
3.364890e-04
9.373450e-05
9.373770e-05
3.364870e-04
3.364870e-04
3.364880e-04
3.364890e-04
4.099030e-04
4.099050e-04
3.364890e-04
3.364870e-04
4.099010e-04
4.099020e-04
3.364890e-04
3.364890e-04
4.099050e-04
4.099040e-04
3.364870e-04
3.364870e-04
4.099020e-04
4.099000e-04
4.099030e-04
4.099050e-04
7.275040e-04
7.275030e-04
4.099010e-04
4.099020e-04
7.275000e-04
7.275050e-04
4.099050e-04
4.099040e-04
7.275030e-04
7.275050e-04
4.099020e-04
4.099000e-04
7.275050e-04
7.275030e-04
7.275040e-04
7.275030e-04
1.026170e-03
1.026170e-03
7.275000e-04
7.275050e-04
1.026170e-03
1.026170e-03
7.275030e-04
7.275050e-04
1.026170e-03
1.026170e-03
7.275050e-04
7.275030e-04
1.026170e-03
1.026170e-03
1.026170e-03
1.026170e-03
1.315220e-03
1.315220e-03
1.026170e-03
1.026170e-03
1.315220e-03
1.315220e-03
1.026170e-03
1.026170e-03
1.315220e-03
1.315210e-03
1.026170e-03
1.026170e-03
1.315220e-03
1.315220e-03
1.315220e-03
1.315220e-03
2.753630e-03
2.753640e-03
1.315220e-03
1.315220e-03
2.753640e-03
2.753640e-03
1.315220e-03
1.315210e-03
2.753640e-03
2.753630e-03
1.315220e-03
1.315220e-03
2.753640e-03
2.753640e-03
2.753630e-03
2.753640e-03
3.810580e-03
3.810580e-03
2.753640e-03
2.753640e-03
3.810580e-03
3.810580e-03
2.753640e-03
2.753630e-03
3.810580e-03
3.810570e-03
2.753640e-03
2.753640e-03
3.810580e-03
3.810580e-03
3.810580e-03
3.810580e-03
7.669360e-03
7.669350e-03
3.810580e-03
3.810580e-03
7.669350e-03
7.669360e-03
3.810580e-03
3.810570e-03
7.669350e-03
7.669350e-03
3.810580e-03
3.810580e-03
7.669360e-03
7.669350e-03
7.669360e-03
7.669350e-03
1.449690e-02
1.449690e-02
7.669350e-03
7.669360e-03
1.449690e-02
1.449690e-02
7.669350e-03
7.669350e-03
1.449690e-02
1.449690e-02
7.669360e-03
7.669350e-03
1.449690e-02
1.449690e-02
1.449690e-02
1.449690e-02
2.390210e-02
2.390210e-02
1.449690e-02
1.449690e-02
2.390210e-02
2.390210e-02
1.449690e-02
1.449690e-02
2.390210e-02
2.390210e-02
1.449690e-02
1.449690e-02
2.390210e-02
2.390210e-02
2.390210e-02
2.390210e-02
3.523590e-02
3.523590e-02
2.390210e-02
2.390210e-02
3.523590e-02
3.523590e-02
2.390210e-02
2.390210e-02
3.523590e-02
3.523590e-02
2.390210e-02
2.390210e-02
3.523590e-02
3.523590e-02
3.523590e-02
3.523590e-02
4.551970e-02
4.551980e-02
3.523590e-02
3.523590e-02
4.551980e-02
4.551970e-02
3.523590e-02
3.523590e-02
4.551980e-02
4.551980e-02
3.523590e-02
3.523590e-02
4.551970e-02
4.551970e-02
4.551970e-02
4.551980e-02
4.543360e-02
4.543360e-02
4.551980e-02
4.551970e-02
4.543360e-02
4.543360e-02
4.551980e-02
4.551980e-02
4.543360e-02
4.543360e-02
4.551970e-02
4.551970e-02
4.543360e-02
4.543360e-02
4.543360e-02
4.543360e-02
2.888740e-02
2.888740e-02
4.543360e-02
4.543360e-02
2.888740e-02
2.888740e-02
4.543360e-02
4.543360e-02
2.888740e-02
2.888740e-02
4.543360e-02
4.543360e-02
2.888740e-02
2.888740e-02
2.888740e-02
2.888740e-02
2.652720e-03
2.652840e-03
2.888740e-02
2.888740e-02
2.652810e-03
2.652700e-03
2.888740e-02
2.888740e-02
2.652840e-03
2.652680e-03
2.888740e-02
2.888740e-02
2.652700e-03
2.652820e-03
2.652720e-03
2.652840e-03
-2.210790e-02
-2.210800e-02
2.652810e-03
2.652700e-03
-2.210810e-02
-2.210780e-02
2.652840e-03
2.652680e-03
-2.210800e-02
-2.210780e-02
2.652700e-03
2.652820e-03
-2.210780e-02
-2.210810e-02
-2.210790e-02
-2.210800e-02
-2.058500e-02
-2.058470e-02
-2.210810e-02
-2.210780e-02
-2.058490e-02
-2.058500e-02
-2.210800e-02
-2.210780e-02
-2.058470e-02
-2.058490e-02
-2.210780e-02
-2.210810e-02
-2.058500e-02
-2.058480e-02
-2.058500e-02
-2.058470e-02
-1.173400e-03
-1.174070e-03
-2.058490e-02
-2.058500e-02
-1.173650e-03
-1.173510e-03
-2.058470e-02
-2.058490e-02
-1.174070e-03
-1.173640e-03
-2.058500e-02
-2.058480e-02
-1.173510e-03
-1.173710e-03
-1.173400e-03
-1.174070e-03
1.596200e-02
1.596130e-02
-1.173650e-03
-1.173510e-03
1.596170e-02
1.596190e-02
-1.174070e-03
-1.173640e-03
1.596130e-02
1.596190e-02
-1.173510e-03
-1.173710e-03
1.596190e-02
1.596170e-02
1.596200e-02
1.596130e-02
3.682700e-03
3.683510e-03
1.596170e-02
1.596190e-02
3.683020e-03
3.682830e-03
1.596130e-02
1.596190e-02
3.683510e-03
3.682880e-03
1.596190e-02
1.596170e-02
3.682830e-03
3.683030e-03
3.682700e-03
3.683510e-03
-6.562880e-03
-6.562860e-03
3.683020e-03
3.682830e-03
-6.562850e-03
-6.562890e-03
3.683510e-03
3.682880e-03
-6.562860e-03
-6.562910e-03
3.682830e-03
3.683030e-03
-6.562890e-03
-6.562840e-03
-6.562880e-03
-6.562860e-03
-1.445720e-03
-1.445700e-03
-6.562850e-03
-6.562890e-03
-1.445680e-03
-1.445690e-03
-6.562860e-03
-6.562910e-03
-1.445700e-03
-1.445700e-03
-6.562890e-03
-6.562840e-03
-1.445690e-03
-1.445680e-03
-1.445720e-03
-1.445700e-03
2.754670e-03
2.754650e-03
-1.445680e-03
-1.445690e-03
2.754650e-03
2.754670e-03
-1.445700e-03
-1.445700e-03
2.754650e-03
2.754670e-03
-1.445690e-03
-1.445680e-03
2.754670e-03
2.754650e-03
2.754670e-03
2.754650e-03
5.116890e-04
5.116880e-04
2.754650e-03
2.754670e-03
5.116880e-04
5.116860e-04
2.754650e-03
2.754670e-03
5.116880e-04
5.116860e-04
2.754670e-03
2.754650e-03
5.116860e-04
5.116870e-04
5.116890e-04
5.116880e-04
-1.360810e-04
-1.360800e-04
5.116880e-04
5.116860e-04
-1.360780e-04
-1.360790e-04
5.116880e-04
5.116860e-04
-1.360800e-04
-1.360810e-04
5.116860e-04
5.116870e-04
-1.360790e-04
-1.360800e-04
-1.360810e-04
-1.360800e-04
-9.867410e-05
-9.867360e-05
-1.360780e-04
-1.360790e-04
-9.867420e-05
-9.867350e-05
-1.360800e-04
-1.360810e-04
-9.867360e-05
-9.867250e-05
-1.360790e-04
-1.360800e-04
-9.867350e-05
-9.867330e-05
0.000000e+00
0.000000e+00
1.362190e-04
1.362200e-04
0.000000e+00
0.000000e+00
1.362170e-04
1.362160e-04
0.000000e+00
0.000000e+00
1.362200e-04
1.362180e-04
0.000000e+00
0.000000e+00
1.362160e-04
1.362200e-04
1.362190e-04
1.362200e-04
-1.194730e-04
-1.194770e-04
1.362170e-04
1.362160e-04
-1.194720e-04
-1.194720e-04
1.362200e-04
1.362180e-04
-1.194770e-04
-1.194730e-04
1.362160e-04
1.362200e-04
-1.194720e-04
-1.194750e-04
-1.194730e-04
-1.194770e-04
1.367090e-04
1.366990e-04
-1.194720e-04
-1.194720e-04
1.367070e-04
1.367030e-04
-1.194770e-04
-1.194730e-04