<?xml version="1.0"?>
<VTKFile type="UnstructuredGrid" version="0.1" byte_order="LittleEndian" compressor="vtkZLibDataCompressor">
<UnstructuredGrid>
<Piece NumberOfPoints="960" NumberOfCells="120">
<Points>
<DataArray type="Float32" NumberOfComponents="3" format="ascii">
-4.000000e+02 -6.000000e+03 -4.000000e+02
0.000000e+00 -6.000000e+03 -4.000000e+02
-4.000000e+02 -5.600000e+03 -4.000000e+02
-3.835820e-10 -5.600000e+03 -4.000000e+02
-4.000000e+02 -6.000000e+03 0.000000e+00
0.000000e+00 -6.000000e+03 0.000000e+00
-4.000000e+02 -5.600000e+03 1.271530e-09
-1.861000e-10 -5.600000e+03 -1.458850e-10
0.000000e+00 -6.000000e+03 -4.000000e+02
4.000000e+02 -6.000000e+03 -4.000000e+02
-3.835820e-10 -5.600000e+03 -4.000000e+02
4.000000e+02 -5.600000e+03 -4.000000e+02
0.000000e+00 -6.000000e+03 0.000000e+00
4.000000e+02 -6.000000e+03 0.000000e+00
-1.861000e-10 -5.600000e+03 -1.458850e-10
4.000000e+02 -5.600000e+03 1.026070e-09
-4.000000e+02 -5.600000e+03 -4.000000e+02
-3.835820e-10 -5.600000e+03 -4.000000e+02
-4.000000e+02 -5.200000e+03 -4.000000e+02
-8.023240e-11 -5.200000e+03 -4.000000e+02
-4.000000e+02 -5.600000e+03 1.271530e-09
-1.861000e-10 -5.600000e+03 -1.458850e-10
-4.000000e+02 -5.200000e+03 4.002770e-10
1.143950e-10 -5.200000e+03 5.444470e-10
-3.835820e-10 -5.600000e+03 -4.000000e+02
4.000000e+02 -5.600000e+03 -4.000000e+02
-8.023240e-11 -5.200000e+03 -4.000000e+02
4.000000e+02 -5.200000e+03 -4.000000e+02
-1.861000e-10 -5.600000e+03 -1.458850e-10
4.000000e+02 -5.600000e+03 1.026070e-09
1.143950e-10 -5.200000e+03 5.444470e-10
4.000000e+02 -5.200000e+03 1.102800e-09
-4.000000e+02 -5.200000e+03 -4.000000e+02
-8.023240e-11 -5.200000e+03 -4.000000e+02
-4.000000e+02 -4.800010e+03 -4.000000e+02
7.604870e-10 -4.800010e+03 -4.000000e+02
-4.000000e+02 -5.200000e+03 4.002770e-10
1.143950e-10 -5.200000e+03 5.444470e-10
-4.000000e+02 -4.800010e+03 6.880710e-10
3.983050e-10 -4.800010e+03 -6.606330e-10
-8.023240e-11 -5.200000e+03 -4.000000e+02
4.000000e+02 -5.200000e+03 -4.000000e+02
7.604870e-10 -4.800010e+03 -4.000000e+02
4.000000e+02 -4.800010e+03 -4.000000e+02
1.143950e-10 -5.200000e+03 5.444470e-10
4.000000e+02 -5.200000e+03 1.102800e-09
3.983050e-10 -4.800010e+03 -6.606330e-10
4.000000e+02 -4.800010e+03 -1.967810e-10
-4.000000e+02 -4.800010e+03 -4.000000e+02
7.604870e-10 -4.800010e+03 -4.000000e+02
-4.000000e+02 -4.400010e+03 -4.000000e+02
1.490840e-09 -4.400010e+03 -4.000000e+02
-4.000000e+02 -4.800010e+03 6.880710e-10
3.983050e-10 -4.800010e+03 -6.606330e-10
-4.000000e+02 -4.400010e+03 6.588230e-10
1.372520e-09 -4.400010e+03 6.585870e-10
7.604870e-10 -4.800010e+03 -4.000000e+02
4.000000e+02 -4.800010e+03 -4.000000e+02
1.490840e-09 -4.400010e+03 -4.000000e+02
4.000000e+02 -4.400010e+03 -4.000000e+02
3.983050e-10 -4.800010e+03 -6.606330e-10
4.000000e+02 -4.800010e+03 -1.967810e-10
1.372520e-09 -4.400010e+03 6.585870e-10
4.000000e+02 -4.400010e+03 8.496930e-10
-4.000000e+02 -4.400010e+03 -4.000000e+02
1.490840e-09 -4.400010e+03 -4.000000e+02
-4.000000e+02 -4.000010e+03 -4.000000e+02
2.392320e-09 -4.000010e+03 -4.000000e+02
-4.000000e+02 -4.400010e+03 6.588230e-10
1.372520e-09 -4.400010e+03 6.585870e-10
-4.000000e+02 -4.000010e+03 7.146220e-10
2.006840e-09 -4.000010e+03 1.396670e-09
1.490840e-09 -4.400010e+03 -4.000000e+02
4.000000e+02 -4.400010e+03 -4.000000e+02
2.392320e-09 -4.000010e+03 -4.000000e+02
4.000000e+02 -4.000010e+03 -4.000000e+02
1.372520e-09 -4.400010e+03 6.585870e-10
4.000000e+02 -4.400010e+03 8.496930e-10
2.006840e-09 -4.000010e+03 1.396670e-09
4.000000e+02 -4.000010e+03 9.461920e-10
-4.000000e+02 -4.000010e+03 -4.000000e+02
2.392320e-09 -4.000010e+03 -4.000000e+02
-4.000000e+02 -3.600020e+03 -4.000000e+02
3.237380e-09 -3.600020e+03 -4.000000e+02
-4.000000e+02 -4.000010e+03 7.146220e-10
2.006840e-09 -4.000010e+03 1.396670e-09
-4.000000e+02 -3.600020e+03 3.909020e-10
2.382060e-09 -3.600020e+03 1.163400e-09
2.392320e-09 -4.000010e+03 -4.000000e+02
4.000000e+02 -4.000010e+03 -4.000000e+02
3.237380e-09 -3.600020e+03 -4.000000e+02
4.000000e+02 -3.600020e+03 -4.000000e+02
2.006840e-09 -4.000010e+03 1.396670e-09
4.000000e+02 -4.000010e+03 9.461920e-10
2.382060e-09 -3.600020e+03 1.163400e-09
4.000000e+02 -3.600020e+03 7.883480e-10
-4.000000e+02 -3.600020e+03 -4.000000e+02
3.237380e-09 -3.600020e+03 -4.000000e+02
-4.000000e+02 -3.200020e+03 -4.000000e+02
2.836370e-09 -3.200020e+03 -4.000000e+02
-4.000000e+02 -3.600020e+03 3.909020e-10
2.382060e-09 -3.600020e+03 1.163400e-09
-4.000000e+02 -3.200020e+03 2.854020e-10
2.334180e-09 -3.200020e+03 7.818820e-10
3.237380e-09 -3.600020e+03 -4.000000e+02
4.000000e+02 -3.600020e+03 -4.000000e+02
2.836370e-09 -3.200020e+03 -4.000000e+02
4.000000e+02 -3.200020e+03 -4.000000e+02
2.382060e-09 -3.600020e+03 1.163400e-09
4.000000e+02 -3.600020e+03 7.883480e-10
2.334180e-09 -3.200020e+03 7.818820e-10
4.000000e+02 -3.200020e+03 8.522580e-10
-4.000000e+02 -3.200020e+03 -4.000000e+02
2.836370e-09 -3.200020e+03 -4.000000e+02
-4.000000e+02 -2.800030e+03 -4.000000e+02
2.264190e-09 -2.800030e+03 -4.000000e+02
-4.000000e+02 -3.200020e+03 2.854020e-10
2.334180e-09 -3.200020e+03 7.818820e-10
-4.000000e+02 -2.800030e+03 -2.221050e-10
2.609510e-09 -2.800030e+03 9.802200e-10
2.836370e-09 -3.200020e+03 -4.000000e+02
4.000000e+02 -3.200020e+03 -4.000000e+02
2.264190e-09 -2.800030e+03 -4.000000e+02
4.000000e+02 -2.800030e+03 -4.000000e+02
2.334180e-09 -3.200020e+03 7.818820e-10
4.000000e+02 -3.200020e+03 8.522580e-10
2.609510e-09 -2.800030e+03 9.802200e-10
4.000000e+02 -2.800030e+03 6.054110e-10
-4.000000e+02 -2.800030e+03 -4.000000e+02
2.264190e-09 -2.800030e+03 -4.000000e+02
-4.000000e+02 -2.400050e+03 -4.000000e+02
1.481750e-09 -2.400050e+03 -4.000000e+02
-4.000000e+02 -2.800030e+03 -2.221050e-10
2.609510e-09 -2.800030e+03 9.802200e-10
-4.000000e+02 -2.400050e+03 1.510690e-10
1.521310e-09 -2.400050e+03 1.205750e-09
2.264190e-09 -2.800030e+03 -4.000000e+02
4.000000e+02 -2.800030e+03 -4.000000e+02
1.481750e-09 -2.400050e+03 -4.000000e+02
4.000000e+02 -2.400050e+03 -4.000000e+02
2.609510e-09 -2.800030e+03 9.802200e-10
4.000000e+02 -2.800030e+03 6.054110e-10
1.521310e-09 -2.400050e+03 1.205750e-09
4.000000e+02 -2.400050e+03 1.603710e-09
-4.000000e+02 -2.400050e+03 -4.000000e+02
1.481750e-09 -2.400050e+03 -4.000000e+02
-4.000000e+02 -2.000090e+03 -4.000000e+02
1.419620e-09 -2.000090e+03 -4.000000e+02
-4.000000e+02 -2.400050e+03 1.510690e-10
1.521310e-09 -2.400050e+03 1.205750e-09
-4.000000e+02 -2.000090e+03 1.406430e-09
1.543610e-09 -2.000090e+03 1.964040e-09
1.481750e-09 -2.400050e+03 -4.000000e+02
4.000000e+02 -2.400050e+03 -4.000000e+02
1.419620e-09 -2.000090e+03 -4.000000e+02
4.000000e+02 -2.000090e+03 -4.000000e+02
1.521310e-09 -2.400050e+03 1.205750e-09
4.000000e+02 -2.400050e+03 1.603710e-09
1.543610e-09 -2.000090e+03 1.964040e-09
4.000000e+02 -2.000090e+03 1.660130e-09
-4.000000e+02 -2.000090e+03 -4.000000e+02
1.419620e-09 -2.000090e+03 -4.000000e+02
-4.000000e+02 -1.600140e+03 -4.000000e+02
4.789500e-10 -1.600140e+03 -4.000000e+02
-4.000000e+02 -2.000090e+03 1.406430e-09
1.543610e-09 -2.000090e+03 1.964040e-09
-4.000000e+02 -1.600140e+03 1.290910e-09
3.611290e-10 -1.600140e+03 1.919110e-09
1.419620e-09 -2.000090e+03 -4.000000e+02
4.000000e+02 -2.000090e+03 -4.000000e+02
4.789500e-10 -1.600140e+03 -4.000000e+02
4.000000e+02 -1.600140e+03 -4.000000e+02
1.543610e-09 -2.000090e+03 1.964040e-09
4.000000e+02 -2.000090e+03 1.660130e-09
3.611290e-10 -1.600140e+03 1.919110e-09
4.000000e+02 -1.600140e+03 2.528870e-09
-4.000000e+02 -1.600140e+03 -4.000000e+02
4.789500e-10 -1.600140e+03 -4.000000e+02
-4.000000e+02 -1.200210e+03 -4.000000e+02
6.149690e-10 -1.200210e+03 -4.000000e+02
-4.000000e+02 -1.600140e+03 1.290910e-09
3.611290e-10 -1.600140e+03 1.919110e-09
-4.000000e+02 -1.200210e+03 5.210600e-10
3.712610e-10 -1.200210e+03 7.486010e-10
4.789500e-10 -1.600140e+03 -4.000000e+02
4.000000e+02 -1.600140e+03 -4.000000e+02
6.149690e-10 -1.200210e+03 -4.000000e+02
4.000000e+02 -1.200210e+03 -4.000000e+02
3.611290e-10 -1.600140e+03 1.919110e-09
4.000000e+02 -1.600140e+03 2.528870e-09
3.712610e-10 -1.200210e+03 7.486010e-10
4.000000e+02 -1.200210e+03 1.350830e-09
-4.000000e+02 -1.200210e+03 -4.000000e+02
6.149690e-10 -1.200210e+03 -4.000000e+02
-4.000000e+02 -8.002740e+02 -4.000000e+02
1.171170e-09 -8.002740e+02 -4.000000e+02
-4.000000e+02 -1.200210e+03 5.210600e-10
3.712610e-10 -1.200210e+03 7.486010e-10
-4.000000e+02 -8.002740e+02 4.410610e-10
1.535190e-09 -8.002740e+02 3.029320e-10
6.149690e-10 -1.200210e+03 -4.000000e+02
4.000000e+02 -1.200210e+03 -4.000000e+02
1.171170e-09 -8.002740e+02 -4.000000e+02
4.000000e+02 -8.002740e+02 -4.000000e+02
3.712610e-10 -1.200210e+03 7.486010e-10
4.000000e+02 -1.200210e+03 1.350830e-09
1.535190e-09 -8.002740e+02 3.029320e-10
4.000000e+02 -8.002740e+02 3.891310e-10
-4.000000e+02 -8.002740e+02 -4.000000e+02
1.171170e-09 -8.002740e+02 -4.000000e+02
-4.000000e+02 -4.003170e+02 -4.000000e+02
1.346130e-09 -4.003170e+02 -4.000000e+02
-4.000000e+02 -8.002740e+02 4.410610e-10
1.535190e-09 -8.002740e+02 3.029320e-10
-4.000000e+02 -4.003170e+02 -7.063060e-10
1.407040e-09 -4.003170e+02 -3.769590e-10
1.171170e-09 -8.002740e+02 -4.000000e+02
4.000000e+02 -8.002740e+02 -4.000000e+02
1.346130e-09 -4.003170e+02 -4.000000e+02
4.000000e+02 -4.003170e+02 -4.000000e+02
1.535190e-09 -8.002740e+02 3.029320e-10
4.000000e+02 -8.002740e+02 3.891310e-10
1.407040e-09 -4.003170e+02 -3.769590e-10
4.000000e+02 -4.003170e+02 -8.331880e-10
-4.000000e+02 -4.003170e+02 -4.000000e+02
1.346130e-09 -4.003170e+02 -4.000000e+02
-4.000000e+02 -3.190820e-01 -4.000000e+02
1.356690e-09 -3.190820e-01 -4.000000e+02
-4.000000e+02 -4.003170e+02 -7.063060e-10
1.407040e-09 -4.003170e+02 -3.769590e-10
-4.000000e+02 -3.190820e-01 -2.755490e-10
1.195100e-09 -3.190820e-01 -4.314080e-10
1.346130e-09 -4.003170e+02 -4.000000e+02
4.000000e+02 -4.003170e+02 -4.000000e+02
1.356690e-09 -3.190820e-01 -4.000000e+02
4.000000e+02 -3.190820e-01 -4.000000e+02
1.407040e-09 -4.003170e+02 -3.769590e-10
[...]
<PointData>
<DataArray type="Float32" Name="V1" format="ascii">
0.000000e+00
0.000000e+00
2.026750e-09
1.211510e-09
0.000000e+00
0.000000e+00
-8.169850e-10
-8.594140e-10
0.000000e+00
0.000000e+00
1.211510e-09
4.399150e-10
0.000000e+00
0.000000e+00
-8.594140e-10
-1.131210e-09
2.026750e-09
1.211510e-09
-3.142250e-10
4.728090e-10
-8.169850e-10
-8.594140e-10
1.681100e-09
-5.414990e-10
1.211510e-09
4.399150e-10
4.728090e-10
1.571130e-10
-8.594140e-10
-1.131210e-09
-5.414990e-10
-1.743950e-09
-3.142250e-10
4.728090e-10
-1.068370e-09
-1.961070e-11
1.681100e-09
-5.414990e-10
1.523990e-09
-9.005600e-10
4.728090e-10
1.571130e-10
-1.961070e-11
9.426750e-10
-5.414990e-10
-1.743950e-09
-9.005600e-10
-1.791080e-09
-1.068370e-09
-1.961070e-11
1.146920e-09
9.239650e-10
1.523990e-09
-9.005600e-10
-1.272610e-09
-7.654670e-10
-1.961070e-11
9.426750e-10
9.239650e-10
5.341830e-10
-9.005600e-10
-1.791080e-09
-7.654670e-10
3.142250e-11
1.146920e-09
9.239650e-10
4.556260e-10
-6.258490e-10
-1.272610e-09
-7.654670e-10
8.798300e-10
8.294040e-10
9.239650e-10
5.341830e-10
-6.258490e-10
-2.026750e-09
-7.654670e-10
3.142250e-11
8.294040e-10
2.309550e-09
4.556260e-10
-6.258490e-10
-2.513800e-10
-2.091410e-10
8.798300e-10
8.294040e-10
5.970280e-10
7.729800e-10
-6.258490e-10
-2.026750e-09
-2.091410e-10
1.178340e-09
8.294040e-10
2.309550e-09
7.729800e-10
6.598730e-10
-2.513800e-10
-2.091410e-10
-3.142250e-11
-2.970090e-10
5.970280e-10
7.729800e-10
5.184710e-10
-1.698110e-10
-2.091410e-10
1.178340e-09
-2.970090e-10
-3.456480e-10
7.729800e-10
6.598730e-10
-1.698110e-10
1.256900e-10
-3.142250e-11
-2.970090e-10
-9.112530e-10
-2.757700e-10
5.184710e-10
-1.698110e-10
3.142250e-11
3.187880e-10
-2.970090e-10
-3.456480e-10
-2.757700e-10
-6.284500e-10
-1.698110e-10
1.256900e-10
3.187880e-10
1.649680e-09
-9.112530e-10
-2.757700e-10
-5.970280e-10
-5.983290e-10
3.142250e-11
3.187880e-10
-2.513800e-10
-1.021420e-10
-2.757700e-10
-6.284500e-10
-5.983290e-10
1.963910e-09
3.187880e-10
1.649680e-09
-1.021420e-10
-1.586840e-09
-5.970280e-10
-5.983290e-10
-5.027600e-10
-1.694200e-10
-2.513800e-10
-1.021420e-10
-7.227180e-10
-8.778800e-10
-5.983290e-10
1.963910e-09
-1.694200e-10
6.912950e-10
-1.021420e-10
-1.586840e-09
-8.778800e-10
0.000000e+00
-5.027600e-10
-1.694200e-10
8.641190e-10
1.513170e-10
-7.227180e-10
-8.778800e-10
-1.366880e-09
8.294190e-10
-1.694200e-10
6.912950e-10
1.513170e-10
-7.070060e-10
-8.778800e-10
0.000000e+00
8.294190e-10
2.655200e-09
8.641190e-10
1.513170e-10
5.970280e-10
-4.312730e-10
-1.366880e-09
8.294190e-10
-9.112530e-10
-7.228770e-10
1.513170e-10
-7.070060e-10
-4.312730e-10
-1.021230e-09
8.294190e-10
2.655200e-09
-7.228770e-10
-1.099790e-10
5.970280e-10
-4.312730e-10
-6.284500e-10
1.149920e-09
-9.112530e-10
-7.228770e-10
2.828030e-10
-1.655640e-10
-4.312730e-10
-1.021230e-09
1.149920e-09
8.798300e-10
-7.228770e-10
-1.099790e-10
-1.655640e-10
-5.813160e-10
-6.284500e-10
1.149920e-09
6.912950e-10
-4.715800e-10
2.828030e-10
-1.655640e-10
4.556260e-10
7.237160e-10
1.149920e-09
8.798300e-10
-4.715800e-10
-2.073890e-09
-1.655640e-10
-5.813160e-10
7.237160e-10
7.227180e-10
6.912950e-10
-4.715800e-10
-5.027600e-10
2.131040e-10
4.556260e-10
7.237160e-10
-5.813160e-10
-3.245040e-10
-4.715800e-10
-2.073890e-09
2.131040e-10
9.898090e-10
7.237160e-10
7.227180e-10
-3.245040e-10
-9.426750e-11
-5.027600e-10
2.131040e-10
-8.955420e-10
-7.446810e-10
-5.813160e-10
-3.245040e-10
2.670910e-09
3.543360e-10
2.131040e-10
9.898090e-10
-7.446810e-10
9.269640e-10
-3.245040e-10
-9.426750e-11
3.543360e-10
-1.586840e-09
-8.955420e-10
-7.446810e-10
2.089600e-09
1.440520e-10
2.670910e-09
3.543360e-10
-1.963910e-09
3.227220e-10
-7.446810e-10
9.269640e-10
1.440520e-10
-2.058170e-09
3.543360e-10
-1.586840e-09
3.227220e-10
1.822510e-09
2.089600e-09
1.440520e-10
9.898090e-10
1.685650e-09
-1.963910e-09
3.227220e-10
-3.142250e-11
-1.697210e-09
1.440520e-10
-2.058170e-09
1.685650e-09
1.382590e-09
3.227220e-10
1.822510e-09
-1.697210e-09
-1.304030e-09
9.898090e-10
1.685650e-09
-6.708710e-09
-3.374160e-09
-3.142250e-11
-1.697210e-09
1.414010e-10
5.080330e-10
1.685650e-09
1.382590e-09
-3.374160e-09
-3.927810e-10
-1.697210e-09
-1.304030e-09
5.080330e-10
8.012740e-10
-6.708710e-09
-3.374160e-09
2.188580e-08
3.411520e-09
1.414010e-10
5.080330e-10
-7.949890e-09
1.636680e-09
-3.374160e-09
-3.927810e-10
3.411520e-09
-1.533420e-08
5.080330e-10
8.012740e-10
1.636680e-09
1.112360e-08
2.188580e-08
3.411520e-09
-1.186200e-08
-2.463350e-09
-7.949890e-09
1.636680e-09
3.299360e-09
-3.910620e-10
3.411520e-09
-1.533420e-08
-2.463350e-09
6.897240e-09
1.636680e-09
1.112360e-08
-3.910620e-10
-4.069220e-09
-1.186200e-08
-2.463350e-09
-1.534990e-08
-1.476900e-09
3.299360e-09
-3.910620e-10
8.075590e-09
-1.574510e-09
-2.463350e-09
6.897240e-09
-1.476900e-09
1.241190e-08
-3.910620e-10
-4.069220e-09
-1.574510e-09
-1.126500e-08
-1.534990e-08
-1.476900e-09
1.294610e-08
3.696140e-09
8.075590e-09
-1.574510e-09
-1.571130e-09
-2.015770e-11
-1.476900e-09
1.241190e-08
3.696140e-09
-5.608920e-09
-1.574510e-09
-1.126500e-08
-2.015770e-11
1.445440e-09
1.294610e-08
3.696140e-09
-1.822510e-09
-1.706560e-09
-1.571130e-09
-2.015770e-11
-3.095120e-09
4.170340e-10
3.696140e-09
-5.608920e-09
-1.706560e-09
-1.571130e-09
-2.015770e-11
1.445440e-09
4.170340e-10
3.974950e-09
-1.822510e-09
-1.706560e-09
-1.225480e-09
-7.062610e-11
-3.095120e-09
4.170340e-10
3.456480e-10
8.556780e-11
-1.706560e-09
-1.571130e-09
-7.062610e-11
1.005520e-09
4.170340e-10
3.974950e-09
8.556780e-11
-1.414010e-10
-1.225480e-09
-7.062610e-11
1.743950e-09
7.450980e-10
3.456480e-10
8.556780e-11
-6.284500e-11
1.758730e-10
-7.062610e-11
1.005520e-09
7.450980e-10
-2.670910e-10
8.556780e-11
-1.414010e-10
1.758730e-10
4.399150e-10
1.743950e-09
7.450980e-10
-3.142250e-11
-4.885870e-11
-6.284500e-11
1.758730e-10
0.000000e+00
-6.230090e-11
7.450980e-10
-2.670910e-10
-4.885870e-11
-9.426750e-11
1.758730e-10
4.399150e-10
-6.230090e-11
-1.728240e-10
-3.142250e-11
-4.885870e-11
0.000000e+00
3.110000e-11
0.000000e+00
-6.230090e-11
0.000000e+00
8.928820e-11
-4.885870e-11
-9.426750e-11
3.110000e-11
0.000000e+00
-6.230090e-11
-1.728240e-10
8.928820e-11
1.099790e-10
0.000000e+00
3.110000e-11
0.000000e+00
2.456890e-11
0.000000e+00
8.928820e-11
0.000000e+00
3.452150e-11
3.110000e-11
0.000000e+00
2.456890e-11
0.000000e+00
8.928820e-11
1.099790e-10
3.452150e-11
1.571130e-11
0.000000e+00
2.456890e-11
-1.571130e-10
-1.876930e-10
0.000000e+00
3.452150e-11
-1.414010e-10
-1.911060e-10
2.456890e-11
0.000000e+00
-1.876930e-10
-2.356690e-10
3.452150e-11
1.571130e-11
-1.911060e-10
-2.670910e-10
0.000000e+00
0.000000e+00
-8.169850e-10
-8.594140e-10
0.000000e+00
0.000000e+00
-1.146920e-09
6.386380e-10
0.000000e+00
0.000000e+00
-8.594140e-10
-1.131210e-09
0.000000e+00
0.000000e+00
6.386380e-10
1.209770e-09
-8.169850e-10
-8.594140e-10
1.681100e-09
-5.414990e-10
-1.146920e-09
6.386380e-10
-3.142250e-10
1.094510e-09
-8.594140e-10
-1.131210e-09
-5.414990e-10
-1.743950e-09
6.386380e-10
1.209770e-09
1.094510e-09
-2.828030e-10
1.681100e-09
-5.414990e-10
1.523990e-09
-9.005600e-10
-3.142250e-10
1.094510e-09
5.970280e-10
8.008840e-10
-5.414990e-10
-1.743950e-09
-9.005600e-10
-1.791080e-09
1.094510e-09
-2.828030e-10
8.008840e-10
1.209770e-09
1.523990e-09
-9.005600e-10
-1.272610e-09
-7.654670e-10
5.970280e-10
8.008840e-10
2.199580e-10
-2.225310e-10
-9.005600e-10
-1.791080e-09
-7.654670e-10
3.142250e-11
8.008840e-10
1.209770e-09
-2.225310e-10
-1.571130e-09
-1.272610e-09
-7.654670e-10
8.798300e-10
8.294040e-10
2.199580e-10
-2.225310e-10
-7.698510e-10
-4.860020e-10
-7.654670e-10
3.142250e-11
8.294040e-10
2.309550e-09
-2.225310e-10
-1.571130e-09
-4.860020e-10
-1.366880e-09
8.798300e-10
8.294040e-10
5.970280e-10
7.729800e-10
-7.698510e-10
-4.860020e-10
1.445440e-09
1.504750e-10
8.294040e-10
2.309550e-09
7.729800e-10
6.598730e-10
-4.860020e-10
-1.366880e-09
1.504750e-10
-7.855630e-11
5.970280e-10
7.729800e-10
5.184710e-10
-1.698110e-10
1.445440e-09
1.504750e-10
7.070060e-10
1.413950e-09
7.729800e-10
6.598730e-10
-1.698110e-10
1.256900e-10
1.504750e-10
-7.855630e-11
1.413950e-09
1.256900e-09
5.184710e-10
-1.698110e-10
3.142250e-11
3.187880e-10
7.070060e-10
1.413950e-09
5.498940e-10
-8.549010e-10
-1.698110e-10
1.256900e-10
3.187880e-10
1.649680e-09
1.413950e-09
1.256900e-09
-8.549010e-10
-1.052650e-09
3.142250e-11
3.187880e-10
-2.513800e-10
-1.021420e-10
5.498940e-10
-8.549010e-10
1.272610e-09
-1.377890e-10
3.187880e-10
1.649680e-09
-1.021420e-10
-1.586840e-09
-8.549010e-10
-1.052650e-09
-1.377890e-10
0.000000e+00
-2.513800e-10
-1.021420e-10
-7.227180e-10
-8.778800e-10
1.272610e-09
-1.377890e-10
1.885350e-10
-6.181290e-11
-1.021420e-10
-1.586840e-09
-8.778800e-10
0.000000e+00
-1.377890e-10
0.000000e+00
-6.181290e-11
5.970280e-10
-7.227180e-10
-8.778800e-10
-1.366880e-09
8.294190e-10
1.885350e-10
-6.181290e-11
1.885350e-10
-4.923780e-10
-8.778800e-10
0.000000e+00
8.294190e-10
2.655200e-09
-6.181290e-11
5.970280e-10
-4.923780e-10
-1.304030e-09
-1.366880e-09
8.294190e-10
-9.112530e-10
-7.228770e-10
1.885350e-10
-4.923780e-10
-8.012740e-10
1.671720e-10
8.294190e-10
2.655200e-09
-7.228770e-10
-1.099790e-10
-4.923780e-10
-1.304030e-09
1.671720e-10
6.284500e-10
-9.112530e-10
-7.228770e-10
2.828030e-10
-1.655640e-10
-8.012740e-10
1.671720e-10
6.284500e-11
9.621320e-10
-7.228770e-10
-1.099790e-10
-1.655640e-10
-5.813160e-10
1.671720e-10
6.284500e-10
9.621320e-10
1.256900e-09
2.828030e-10
-1.655640e-10
4.556260e-10
7.237160e-10
6.284500e-11
9.621320e-10
8.012740e-10
-1.094970e-09
-1.655640e-10
-5.813160e-10
7.237160e-10
7.227180e-10
9.621320e-10
1.256900e-09
-1.094970e-09
-1.461150e-09
4.556260e-10
7.237160e-10
-5.813160e-10
-3.245040e-10
8.012740e-10
-1.094970e-09
-5.027600e-10
-4.380840e-10
7.237160e-10
7.227180e-10
-3.245040e-10
-9.426750e-11
-1.094970e-09
-1.461150e-09
-4.380840e-10
-9.112530e-10
-5.813160e-10
-3.245040e-10
2.670910e-09
3.543360e-10
-5.027600e-10
-4.380840e-10
-1.523990e-09
3.832320e-10
-3.245040e-10
-9.426750e-11
3.543360e-10
-1.586840e-09
-4.380840e-10
-9.112530e-10
3.832320e-10
8.798300e-10
2.670910e-09
3.543360e-10
-1.963910e-09
3.227220e-10
-1.523990e-09
3.832320e-10
2.042460e-10
-4.130540e-10
3.543360e-10
-1.586840e-09
3.227220e-10
1.822510e-09
3.832320e-10
8.798300e-10
-4.130540e-10
7.070060e-10
-1.963910e-09
3.227220e-10
-3.142250e-11
-1.697210e-09
2.042460e-10
-4.130540e-10
-1.712530e-09
-3.412620e-10
3.227220e-10
1.822510e-09
-1.697210e-09
-1.304030e-09
-4.130540e-10
7.070060e-10
-3.412620e-10
-1.099790e-09
-3.142250e-11
-1.697210e-09
1.414010e-10
5.080330e-10
-1.712530e-09
-3.412620e-10
3.597880e-09
2.869870e-09
-1.697210e-09
-1.304030e-09
5.080330e-10
8.012740e-10
-3.412620e-10
-1.099790e-09
2.869870e-09
4.383440e-09
1.414010e-10
5.080330e-10
-7.949890e-09
1.636680e-09
3.597880e-09
2.869870e-09
5.357540e-09
-2.526430e-09
5.080330e-10
8.012740e-10
1.636680e-09
1.112360e-08
2.869870e-09
4.383440e-09
-2.526430e-09
-1.013380e-08
-7.949890e-09
1.636680e-09
3.299360e-09
-3.910620e-10
5.357540e-09
-2.526430e-09
-1.963910e-09
2.006540e-09
1.636680e-09
1.112360e-08
-3.910620e-10
-4.069220e-09
-2.526430e-09
-1.013380e-08
2.006540e-09
6.017410e-09
3.299360e-09
-3.910620e-10
8.075590e-09
-1.574510e-09
-1.963910e-09
2.006540e-09
-6.158810e-09
4.046850e-10
-3.910620e-10
-4.069220e-09
-1.574510e-09
-1.126500e-08
2.006540e-09
6.017410e-09
4.046850e-10
6.912950e-09
8.075590e-09
-1.574510e-09
-1.571130e-09
-2.015770e-11
-6.158810e-09
4.046850e-10
-1.178340e-09
-3.977350e-09
-1.574510e-09
-1.126500e-08
-2.015770e-11
1.445440e-09
4.046850e-10
6.912950e-09
-3.977350e-09
-6.834400e-09
-1.571130e-09
-2.015770e-11
-3.095120e-09
4.170340e-10
-1.178340e-09
-3.977350e-09
3.425050e-09
2.111190e-09
-2.015770e-11
1.445440e-09
4.170340e-10
3.974950e-09
-3.977350e-09
-6.834400e-09
2.111190e-09
8.326970e-10
-3.095120e-09
4.170340e-10
3.456480e-10
8.556780e-11
3.425050e-09
2.111190e-09
4.713380e-11
3.926700e-10
4.170340e-10
3.974950e-09
8.556780e-11
-1.414010e-10
2.111190e-09
8.326970e-10
3.926700e-10
7.698510e-10
3.456480e-10
8.556780e-11
-6.284500e-11
1.758730e-10
4.713380e-11
3.926700e-10
-3.927810e-10
-4.147510e-10
8.556780e-11
-1.414010e-10
1.758730e-10
4.399150e-10
3.926700e-10
7.698510e-10
-4.147510e-10
-4.399150e-10
-6.284500e-11
1.758730e-10
0.000000e+00
-6.230090e-11
-3.927810e-10
-4.147510e-10
1.256900e-10
-7.358510e-11
1.758730e-10
4.399150e-10
-6.230090e-11
-1.728240e-10
-4.147510e-10
-4.399150e-10
-7.358510e-11
-2.513800e-10
0.000000e+00
-6.230090e-11
0.000000e+00
8.928820e-11
1.256900e-10
-7.358510e-11
0.000000e+00
1.050550e-10
-6.230090e-11
-1.728240e-10
8.928820e-11
1.099790e-10
-7.358510e-11
-2.513800e-10
1.050550e-10
2.199580e-10
0.000000e+00
8.928820e-11
0.000000e+00
3.452150e-11
0.000000e+00
1.050550e-10
0.000000e+00
3.316400e-11
8.928820e-11
1.099790e-10
3.452150e-11
1.571130e-11
1.050550e-10
2.199580e-10
3.316400e-11
6.284500e-11
0.000000e+00
3.452150e-11
-1.414010e-10
-1.911060e-10
0.000000e+00
3.316400e-11
-6.284500e-11
-1.447880e-10
3.452150e-11
1.571130e-11
-1.911060e-10
-2.670910e-10
3.316400e-11
6.284500e-11
-1.447880e-10
-2.513800e-10
</DataArray>
<DataArray type="Float32" Name="V2" format="ascii">
0.000000e+00
0.000000e+00
1.493120e-04
1.493100e-04
0.000000e+00
0.000000e+00
1.493110e-04
1.493110e-04
0.000000e+00
0.000000e+00
1.493100e-04
1.493130e-04
0.000000e+00
0.000000e+00
1.493110e-04
1.493130e-04
1.493120e-04
1.493100e-04
4.041440e-04
4.041400e-04
1.493110e-04
1.493110e-04
4.041420e-04
4.041430e-04
1.493100e-04
1.493130e-04
4.041400e-04
4.041440e-04
1.493110e-04
1.493130e-04
4.041430e-04
4.041420e-04
4.041440e-04
4.041400e-04
9.849610e-04
9.849540e-04
4.041420e-04
4.041430e-04
9.849590e-04
9.849530e-04
4.041400e-04
4.041440e-04
9.849540e-04
9.849620e-04
4.041430e-04
4.041420e-04
9.849530e-04
9.849560e-04
9.849610e-04
9.849540e-04
1.189400e-03
1.189400e-03
9.849590e-04
9.849530e-04
1.189400e-03
1.189400e-03
9.849540e-04
9.849620e-04
1.189400e-03
1.189410e-03
9.849530e-04
9.849560e-04
1.189400e-03
1.189400e-03
1.189400e-03
1.189400e-03
1.517370e-03
1.517370e-03
1.189400e-03
1.189400e-03
1.517370e-03
1.517370e-03
1.189400e-03
1.189410e-03
1.517370e-03
1.517370e-03
1.189400e-03
1.189400e-03
1.517370e-03
1.517370e-03
1.517370e-03
1.517370e-03
2.326070e-03
2.326060e-03
1.517370e-03
1.517370e-03
2.326070e-03
2.326060e-03
1.517370e-03
1.517370e-03
2.326060e-03
2.326060e-03
1.517370e-03
1.517370e-03
2.326060e-03
2.326060e-03
2.326070e-03
2.326060e-03
5.494380e-03
5.494370e-03
2.326070e-03
2.326060e-03
5.494380e-03
5.494370e-03
2.326060e-03
2.326060e-03
5.494370e-03
5.494380e-03
2.326060e-03
2.326060e-03
5.494370e-03
5.494380e-03
5.494380e-03
5.494370e-03
9.379130e-03
9.379130e-03
5.494380e-03
5.494370e-03
9.379130e-03
9.379130e-03
5.494370e-03
5.494380e-03
9.379130e-03
9.379130e-03
5.494370e-03
5.494380e-03
9.379130e-03
9.379130e-03
9.379130e-03
9.379130e-03
1.766390e-02
1.766390e-02
9.379130e-03
9.379130e-03
1.766390e-02
1.766390e-02
9.379130e-03
9.379130e-03
1.766390e-02
1.766390e-02
9.379130e-03
9.379130e-03
1.766390e-02
1.766390e-02
1.766390e-02
1.766390e-02
2.913580e-02
2.913580e-02
1.766390e-02
1.766390e-02
2.913580e-02
2.913580e-02
1.766390e-02
1.766390e-02
2.913580e-02
2.913580e-02
1.766390e-02
1.766390e-02
2.913580e-02
2.913580e-02
2.913580e-02
2.913580e-02
4.174700e-02
4.174700e-02
2.913580e-02
2.913580e-02
4.174700e-02
4.174700e-02
2.913580e-02
2.913580e-02
4.174700e-02
4.174700e-02
2.913580e-02
2.913580e-02
4.174700e-02
4.174700e-02
4.174700e-02
4.174700e-02
4.804640e-02
4.804640e-02
4.174700e-02
4.174700e-02
4.804640e-02
4.804640e-02
4.174700e-02
4.174700e-02
4.804640e-02
4.804640e-02
4.174700e-02
4.174700e-02
4.804640e-02
4.804640e-02
4.804640e-02
4.804640e-02
3.937850e-02
3.937850e-02
4.804640e-02
4.804640e-02
3.937850e-02
3.937850e-02
4.804640e-02
4.804640e-02
3.937850e-02
3.937850e-02
4.804640e-02
4.804640e-02
3.937850e-02
3.937850e-02
3.937850e-02
3.937850e-02
1.601720e-02
1.601720e-02
3.937850e-02
3.937850e-02
1.601720e-02
1.601720e-02
3.937850e-02
3.937850e-02
1.601720e-02
1.601720e-02
3.937850e-02
3.937850e-02
1.601720e-02
1.601720e-02
1.601720e-02
1.601720e-02
-1.330630e-02
-1.330630e-02
1.601720e-02
1.601720e-02
-1.330630e-02
-1.330630e-02
1.601720e-02
1.601720e-02
-1.330630e-02
-1.330630e-02
1.601720e-02
1.601720e-02
-1.330630e-02
-1.330630e-02
-1.330630e-02
-1.330630e-02
-2.442030e-02
-2.442030e-02
-1.330630e-02
-1.330630e-02
-2.442030e-02
-2.442030e-02
-1.330630e-02
-1.330630e-02
-2.442030e-02
-2.442030e-02
-1.330630e-02
-1.330630e-02
-2.442030e-02
-2.442030e-02
-2.442030e-02
-2.442030e-02
-9.764950e-03
-9.764950e-03
-2.442030e-02
-2.442030e-02
-9.764940e-03
-9.764940e-03
-2.442030e-02
-2.442030e-02
-9.764950e-03
-9.764950e-03
-2.442030e-02
-2.442030e-02
-9.764940e-03
-9.764940e-03
-9.764950e-03
-9.764950e-03
1.213150e-02
1.213160e-02
-9.764940e-03
-9.764940e-03
1.213150e-02
1.213150e-02
-9.764950e-03
-9.764950e-03
1.213160e-02
1.213160e-02
-9.764940e-03
-9.764940e-03
1.213150e-02
1.213150e-02
1.213150e-02
1.213160e-02
1.399950e-02
1.399940e-02
1.213150e-02
1.213150e-02
1.399940e-02
1.399950e-02
1.213160e-02
1.213160e-02
1.399940e-02
1.399940e-02
1.213150e-02
1.213150e-02
1.399950e-02
1.399940e-02
1.399950e-02
1.399940e-02
-7.227460e-03
-7.227230e-03
1.399940e-02
1.399950e-02
-7.227310e-03
-7.227420e-03
1.399940e-02
1.399940e-02
-7.227230e-03
-7.227390e-03
1.399950e-02
1.399940e-02
-7.227420e-03
-7.227290e-03
-7.227460e-03
-7.227230e-03
-8.753020e-03
-8.752840e-03
-7.227310e-03
-7.227420e-03
-8.752890e-03
-8.753000e-03
-7.227230e-03
-7.227390e-03
-8.752840e-03
-8.752980e-03
-7.227420e-03
-7.227290e-03
-8.753000e-03
-8.752870e-03
-8.753020e-03
-8.752840e-03
4.877500e-03
4.877250e-03
-8.752890e-03
-8.753000e-03
4.877360e-03
4.877470e-03
-8.752840e-03
-8.752980e-03
4.877250e-03
4.877460e-03
-8.753000e-03
-8.752870e-03
4.877470e-03
4.877350e-03
4.877500e-03
4.877250e-03
2.609570e-03
2.609550e-03
4.877360e-03
4.877470e-03
2.609530e-03
2.609550e-03
4.877250e-03
4.877460e-03
2.609550e-03
2.609540e-03
4.877470e-03
4.877350e-03
2.609550e-03
2.609520e-03
2.609570e-03
2.609550e-03
-2.061660e-03
-2.061660e-03
2.609530e-03
2.609550e-03
-2.061650e-03
-2.061660e-03
2.609550e-03
2.609540e-03
-2.061660e-03
-2.061660e-03
2.609550e-03
2.609520e-03
-2.061660e-03
-2.061650e-03
-2.061660e-03
-2.061660e-03
-1.326890e-04
-1.326840e-04
-2.061650e-03
-2.061660e-03
-1.326840e-04
-1.326810e-04
-2.061660e-03
-2.061660e-03
-1.326840e-04
-1.326820e-04
-2.061660e-03
-2.061650e-03
-1.326810e-04
-1.326840e-04
-1.326890e-04
-1.326840e-04
6.506230e-04
6.506290e-04
-1.326840e-04
-1.326810e-04
6.506220e-04
6.506190e-04
-1.326840e-04
-1.326820e-04
6.506290e-04
6.506240e-04
-1.326810e-04
-1.326840e-04
6.506190e-04
6.506210e-04
6.506230e-04
6.506290e-04
7.623780e-05
7.623580e-05
6.506220e-04
6.506190e-04
7.623730e-05
7.623700e-05
6.506290e-04
6.506240e-04
7.623580e-05
7.623390e-05
6.506190e-04
6.506210e-04
7.623700e-05
7.623570e-05
7.623780e-05
7.623580e-05
-2.422100e-05
-2.422030e-05
7.623730e-05
7.623700e-05
-2.422110e-05
-2.422100e-05
7.623580e-05
7.623390e-05
-2.422030e-05
-2.422020e-05
7.623700e-05
7.623570e-05
-2.422100e-05
-2.422060e-05
-2.422100e-05
-2.422030e-05
1.942200e-05
1.942210e-05
-2.422110e-05
-2.422100e-05
1.942160e-05
1.942200e-05
-2.422030e-05
-2.422020e-05
1.942210e-05
1.942210e-05
-2.422100e-05
-2.422060e-05
1.942200e-05
1.942200e-05
1.942200e-05
1.942210e-05
4.082250e-05
4.082210e-05
1.942160e-05
1.942200e-05
4.082260e-05
4.082210e-05
1.942210e-05
1.942210e-05
4.082210e-05
4.082310e-05
1.942200e-05
1.942200e-05
4.082210e-05
4.082190e-05
0.000000e+00
0.000000e+00
1.493110e-04
1.493110e-04
0.000000e+00
0.000000e+00
1.493100e-04
1.493140e-04
0.000000e+00
0.000000e+00
1.493110e-04
1.493130e-04
0.000000e+00
0.000000e+00
1.493140e-04
1.493120e-04
1.493110e-04
1.493110e-04
4.041420e-04
4.041430e-04
1.493100e-04
1.493140e-04
4.041440e-04
4.041410e-04
1.493110e-04
1.493130e-04
4.041430e-04
4.041420e-04
1.493140e-04
1.493120e-04
4.041410e-04
4.041470e-04
4.041420e-04
4.041430e-04
9.849590e-04
9.849530e-04
4.041440e-04
4.041410e-04
9.849540e-04
9.849540e-04
4.041430e-04
4.041420e-04