<?xml version="1.0"?>
<VTKFile type="UnstructuredGrid" version="0.1" byte_order="LittleEndian" compressor="vtkZLibDataCompressor">
<UnstructuredGrid>
<Piece NumberOfPoints="960" NumberOfCells="120">
<Points>
<DataArray type="Float32" NumberOfComponents="3" format="ascii">
-4.000000e+02 -6.000000e+03 -4.000000e+02
0.000000e+00 -6.000000e+03 -4.000000e+02
-4.000000e+02 -5.600120e+03 -4.000000e+02
-1.022850e-09 -5.600120e+03 -4.000000e+02
-4.000000e+02 -6.000000e+03 0.000000e+00
0.000000e+00 -6.000000e+03 0.000000e+00
-4.000000e+02 -5.600120e+03 -3.801960e-10
5.906280e-10 -5.600120e+03 -1.967360e-10
0.000000e+00 -6.000000e+03 -4.000000e+02
4.000000e+02 -6.000000e+03 -4.000000e+02
-1.022850e-09 -5.600120e+03 -4.000000e+02
4.000000e+02 -5.600120e+03 -4.000000e+02
0.000000e+00 -6.000000e+03 0.000000e+00
4.000000e+02 -6.000000e+03 0.000000e+00
5.906280e-10 -5.600120e+03 -1.967360e-10
4.000000e+02 -5.600120e+03 6.949070e-12
-4.000000e+02 -5.600120e+03 -4.000000e+02
-1.022850e-09 -5.600120e+03 -4.000000e+02
-4.000000e+02 -5.200220e+03 -4.000000e+02
9.299430e-10 -5.200220e+03 -4.000000e+02
-4.000000e+02 -5.600120e+03 -3.801960e-10
5.906280e-10 -5.600120e+03 -1.967360e-10
-4.000000e+02 -5.200220e+03 2.453670e-10
8.220790e-10 -5.200220e+03 4.883490e-10
-1.022850e-09 -5.600120e+03 -4.000000e+02
4.000000e+02 -5.600120e+03 -4.000000e+02
9.299430e-10 -5.200220e+03 -4.000000e+02
4.000000e+02 -5.200220e+03 -4.000000e+02
5.906280e-10 -5.600120e+03 -1.967360e-10
4.000000e+02 -5.600120e+03 6.949070e-12
8.220790e-10 -5.200220e+03 4.883490e-10
4.000000e+02 -5.200220e+03 6.101000e-10
-4.000000e+02 -5.200220e+03 -4.000000e+02
9.299430e-10 -5.200220e+03 -4.000000e+02
-4.000000e+02 -4.800280e+03 -4.000000e+02
1.331580e-09 -4.800280e+03 -4.000000e+02
-4.000000e+02 -5.200220e+03 2.453670e-10
8.220790e-10 -5.200220e+03 4.883490e-10
-4.000000e+02 -4.800280e+03 1.281560e-09
8.796940e-10 -4.800280e+03 1.054490e-09
9.299430e-10 -5.200220e+03 -4.000000e+02
4.000000e+02 -5.200220e+03 -4.000000e+02
1.331580e-09 -4.800280e+03 -4.000000e+02
4.000000e+02 -4.800280e+03 -4.000000e+02
8.220790e-10 -5.200220e+03 4.883490e-10
4.000000e+02 -5.200220e+03 6.101000e-10
8.796940e-10 -4.800280e+03 1.054490e-09
4.000000e+02 -4.800280e+03 1.571240e-09
-4.000000e+02 -4.800280e+03 -4.000000e+02
1.331580e-09 -4.800280e+03 -4.000000e+02
-4.000000e+02 -4.400290e+03 -4.000000e+02
1.296420e-09 -4.400290e+03 -4.000000e+02
-4.000000e+02 -4.800280e+03 1.281560e-09
8.796940e-10 -4.800280e+03 1.054490e-09
-4.000000e+02 -4.400290e+03 1.614910e-09
1.667240e-09 -4.400290e+03 2.120510e-09
1.331580e-09 -4.800280e+03 -4.000000e+02
4.000000e+02 -4.800280e+03 -4.000000e+02
1.296420e-09 -4.400290e+03 -4.000000e+02
4.000000e+02 -4.400290e+03 -4.000000e+02
8.796940e-10 -4.800280e+03 1.054490e-09
4.000000e+02 -4.800280e+03 1.571240e-09
1.667240e-09 -4.400290e+03 2.120510e-09
4.000000e+02 -4.400290e+03 2.308120e-09
-4.000000e+02 -4.400290e+03 -4.000000e+02
1.296420e-09 -4.400290e+03 -4.000000e+02
-4.000000e+02 -4.000270e+03 -4.000000e+02
1.770930e-09 -4.000270e+03 -4.000000e+02
-4.000000e+02 -4.400290e+03 1.614910e-09
1.667240e-09 -4.400290e+03 2.120510e-09
-4.000000e+02 -4.000270e+03 1.773520e-09
7.108960e-10 -4.000270e+03 2.260440e-09
1.296420e-09 -4.400290e+03 -4.000000e+02
4.000000e+02 -4.400290e+03 -4.000000e+02
1.770930e-09 -4.000270e+03 -4.000000e+02
4.000000e+02 -4.000270e+03 -4.000000e+02
1.667240e-09 -4.400290e+03 2.120510e-09
4.000000e+02 -4.400290e+03 2.308120e-09
7.108960e-10 -4.000270e+03 2.260440e-09
4.000000e+02 -4.000270e+03 2.649560e-09
-4.000000e+02 -4.000270e+03 -4.000000e+02
1.770930e-09 -4.000270e+03 -4.000000e+02
-4.000000e+02 -3.600250e+03 -4.000000e+02
1.337340e-09 -3.600250e+03 -4.000000e+02
-4.000000e+02 -4.000270e+03 1.773520e-09
7.108960e-10 -4.000270e+03 2.260440e-09
-4.000000e+02 -3.600250e+03 1.337380e-09
3.452370e-10 -3.600250e+03 1.931010e-09
1.770930e-09 -4.000270e+03 -4.000000e+02
4.000000e+02 -4.000270e+03 -4.000000e+02
1.337340e-09 -3.600250e+03 -4.000000e+02
4.000000e+02 -3.600250e+03 -4.000000e+02
7.108960e-10 -4.000270e+03 2.260440e-09
4.000000e+02 -4.000270e+03 2.649560e-09
3.452370e-10 -3.600250e+03 1.931010e-09
4.000000e+02 -3.600250e+03 2.335550e-09
-4.000000e+02 -3.600250e+03 -4.000000e+02
1.337340e-09 -3.600250e+03 -4.000000e+02
-4.000000e+02 -3.200260e+03 -4.000000e+02
1.658810e-09 -3.200260e+03 -4.000000e+02
-4.000000e+02 -3.600250e+03 1.337380e-09
3.452370e-10 -3.600250e+03 1.931010e-09
-4.000000e+02 -3.200260e+03 1.154940e-09
9.371480e-10 -3.200260e+03 1.883270e-09
1.337340e-09 -3.600250e+03 -4.000000e+02
4.000000e+02 -3.600250e+03 -4.000000e+02
1.658810e-09 -3.200260e+03 -4.000000e+02
4.000000e+02 -3.200260e+03 -4.000000e+02
3.452370e-10 -3.600250e+03 1.931010e-09
4.000000e+02 -3.600250e+03 2.335550e-09
9.371480e-10 -3.200260e+03 1.883270e-09
4.000000e+02 -3.200260e+03 2.900770e-09
-4.000000e+02 -3.200260e+03 -4.000000e+02
1.658810e-09 -3.200260e+03 -4.000000e+02
-4.000000e+02 -2.800280e+03 -4.000000e+02
2.255640e-09 -2.800280e+03 -4.000000e+02
-4.000000e+02 -3.200260e+03 1.154940e-09
9.371480e-10 -3.200260e+03 1.883270e-09
-4.000000e+02 -2.800280e+03 8.838180e-10
1.590800e-09 -2.800280e+03 1.319210e-09
1.658810e-09 -3.200260e+03 -4.000000e+02
4.000000e+02 -3.200260e+03 -4.000000e+02
2.255640e-09 -2.800280e+03 -4.000000e+02
4.000000e+02 -2.800280e+03 -4.000000e+02
9.371480e-10 -3.200260e+03 1.883270e-09
4.000000e+02 -3.200260e+03 2.900770e-09
1.590800e-09 -2.800280e+03 1.319210e-09
4.000000e+02 -2.800280e+03 2.201750e-09
-4.000000e+02 -2.800280e+03 -4.000000e+02
2.255640e-09 -2.800280e+03 -4.000000e+02
-4.000000e+02 -2.400270e+03 -4.000000e+02
1.932810e-09 -2.400270e+03 -4.000000e+02
-4.000000e+02 -2.800280e+03 8.838180e-10
1.590800e-09 -2.800280e+03 1.319210e-09
-4.000000e+02 -2.400270e+03 3.088130e-10
9.838160e-10 -2.400270e+03 3.807250e-10
2.255640e-09 -2.800280e+03 -4.000000e+02
4.000000e+02 -2.800280e+03 -4.000000e+02
1.932810e-09 -2.400270e+03 -4.000000e+02
4.000000e+02 -2.400270e+03 -4.000000e+02
1.590800e-09 -2.800280e+03 1.319210e-09
4.000000e+02 -2.800280e+03 2.201750e-09
9.838160e-10 -2.400270e+03 3.807250e-10
4.000000e+02 -2.400270e+03 1.357890e-09
-4.000000e+02 -2.400270e+03 -4.000000e+02
1.932810e-09 -2.400270e+03 -4.000000e+02
-4.000000e+02 -2.000270e+03 -4.000000e+02
1.994960e-09 -2.000270e+03 -4.000000e+02
-4.000000e+02 -2.400270e+03 3.088130e-10
9.838160e-10 -2.400270e+03 3.807250e-10
-4.000000e+02 -2.000270e+03 -1.273070e-09
1.083590e-09 -2.000270e+03 -7.545600e-10
1.932810e-09 -2.400270e+03 -4.000000e+02
4.000000e+02 -2.400270e+03 -4.000000e+02
1.994960e-09 -2.000270e+03 -4.000000e+02
4.000000e+02 -2.000270e+03 -4.000000e+02
9.838160e-10 -2.400270e+03 3.807250e-10
4.000000e+02 -2.400270e+03 1.357890e-09
1.083590e-09 -2.000270e+03 -7.545600e-10
4.000000e+02 -2.000270e+03 -3.592020e-10
-4.000000e+02 -2.000270e+03 -4.000000e+02
1.994960e-09 -2.000270e+03 -4.000000e+02
-4.000000e+02 -1.600270e+03 -4.000000e+02
1.601580e-09 -1.600270e+03 -4.000000e+02
-4.000000e+02 -2.000270e+03 -1.273070e-09
1.083590e-09 -2.000270e+03 -7.545600e-10
-4.000000e+02 -1.600270e+03 -1.077530e-09
1.096680e-09 -1.600270e+03 -4.773760e-10
1.994960e-09 -2.000270e+03 -4.000000e+02
4.000000e+02 -2.000270e+03 -4.000000e+02
1.601580e-09 -1.600270e+03 -4.000000e+02
4.000000e+02 -1.600270e+03 -4.000000e+02
1.083590e-09 -2.000270e+03 -7.545600e-10
4.000000e+02 -2.000270e+03 -3.592020e-10
1.096680e-09 -1.600270e+03 -4.773760e-10
4.000000e+02 -1.600270e+03 -7.202000e-10
-4.000000e+02 -1.600270e+03 -4.000000e+02
1.601580e-09 -1.600270e+03 -4.000000e+02
-4.000000e+02 -1.200280e+03 -4.000000e+02
5.602510e-10 -1.200280e+03 -4.000000e+02
-4.000000e+02 -1.600270e+03 -1.077530e-09
1.096680e-09 -1.600270e+03 -4.773760e-10
-4.000000e+02 -1.200280e+03 -2.930530e-10
6.995440e-10 -1.200280e+03 -2.721580e-10
1.601580e-09 -1.600270e+03 -4.000000e+02
4.000000e+02 -1.600270e+03 -4.000000e+02
5.602510e-10 -1.200280e+03 -4.000000e+02
4.000000e+02 -1.200280e+03 -4.000000e+02
1.096680e-09 -1.600270e+03 -4.773760e-10
4.000000e+02 -1.600270e+03 -7.202000e-10
6.995440e-10 -1.200280e+03 -2.721580e-10
4.000000e+02 -1.200280e+03 -9.907350e-11
-4.000000e+02 -1.200280e+03 -4.000000e+02
5.602510e-10 -1.200280e+03 -4.000000e+02
-4.000000e+02 -8.002750e+02 -4.000000e+02
3.705730e-10 -8.002750e+02 -4.000000e+02
-4.000000e+02 -1.200280e+03 -2.930530e-10
6.995440e-10 -1.200280e+03 -2.721580e-10
-4.000000e+02 -8.002750e+02 -8.874420e-10
1.364190e-10 -8.002750e+02 -6.757950e-10
5.602510e-10 -1.200280e+03 -4.000000e+02
4.000000e+02 -1.200280e+03 -4.000000e+02
3.705730e-10 -8.002750e+02 -4.000000e+02
4.000000e+02 -8.002750e+02 -4.000000e+02
6.995440e-10 -1.200280e+03 -2.721580e-10
4.000000e+02 -1.200280e+03 -9.907350e-11
1.364190e-10 -8.002750e+02 -6.757950e-10
4.000000e+02 -8.002750e+02 2.257010e-10
-4.000000e+02 -8.002750e+02 -4.000000e+02
3.705730e-10 -8.002750e+02 -4.000000e+02
-4.000000e+02 -4.002750e+02 -4.000000e+02
9.347230e-10 -4.002750e+02 -4.000000e+02
-4.000000e+02 -8.002750e+02 -8.874420e-10
1.364190e-10 -8.002750e+02 -6.757950e-10
-4.000000e+02 -4.002750e+02 -8.322600e-10
3.868630e-10 -4.002750e+02 -1.028320e-09
3.705730e-10 -8.002750e+02 -4.000000e+02
4.000000e+02 -8.002750e+02 -4.000000e+02
9.347230e-10 -4.002750e+02 -4.000000e+02
4.000000e+02 -4.002750e+02 -4.000000e+02
1.364190e-10 -8.002750e+02 -6.757950e-10
4.000000e+02 -8.002750e+02 2.257010e-10
3.868630e-10 -4.002750e+02 -1.028320e-09
4.000000e+02 -4.002750e+02 -4.103280e-10
-4.000000e+02 -4.002750e+02 -4.000000e+02
9.347230e-10 -4.002750e+02 -4.000000e+02
-4.000000e+02 -2.759920e-01 -4.000000e+02
8.846140e-10 -2.759920e-01 -4.000000e+02
-4.000000e+02 -4.002750e+02 -8.322600e-10
3.868630e-10 -4.002750e+02 -1.028320e-09
-4.000000e+02 -2.759920e-01 -2.869080e-10
3.195860e-10 -2.759920e-01 -4.625570e-10
9.347230e-10 -4.002750e+02 -4.000000e+02
4.000000e+02 -4.002750e+02 -4.000000e+02
8.846140e-10 -2.759920e-01 -4.000000e+02
4.000000e+02 -2.759920e-01 -4.000000e+02
3.868630e-10 -4.002750e+02 -1.028320e-09
[...]
<PointData>
<DataArray type="Float32" Name="V1" format="ascii">
0.000000e+00
0.000000e+00
-1.539700e-09
-8.936040e-10
0.000000e+00
0.000000e+00
7.541400e-10
-1.442080e-10
0.000000e+00
0.000000e+00
-8.936040e-10
-9.426750e-10
0.000000e+00
0.000000e+00
-1.442080e-10
-3.927810e-10
-1.539700e-09
-8.936040e-10
1.225480e-09
7.799210e-10
7.541400e-10
-1.442080e-10
8.484080e-10
6.613060e-10
-8.936040e-10
-9.426750e-10
7.799210e-10
2.670910e-10
-1.442080e-10
-3.927810e-10
6.613060e-10
1.335460e-09
1.225480e-09
7.799210e-10
1.225480e-09
1.489530e-12
8.484080e-10
6.613060e-10
4.399150e-10
1.987860e-10
7.799210e-10
2.670910e-10
1.489530e-12
-1.068370e-09
6.613060e-10
1.335460e-09
1.987860e-10
-1.005520e-09
1.225480e-09
1.489530e-12
-1.539700e-09
-1.608160e-10
4.399150e-10
1.987860e-10
3.927810e-10
-1.835940e-10
1.489530e-12
-1.068370e-09
-1.608160e-10
1.995330e-09
1.987860e-10
-1.005520e-09
-1.835940e-10
-1.288320e-09
-1.539700e-09
-1.608160e-10
9.740980e-10
1.063300e-09
3.927810e-10
-1.835940e-10
6.912950e-10
-3.453000e-10
-1.608160e-10
1.995330e-09
1.063300e-09
8.484080e-10
-1.835940e-10
-1.288320e-09
-3.453000e-10
-2.828030e-10
9.740980e-10
1.063300e-09
-3.927810e-10
1.049150e-09
6.912950e-10
-3.453000e-10
-5.656050e-10
-2.461220e-10
1.063300e-09
8.484080e-10
1.049150e-09
1.712530e-09
-3.453000e-10
-2.828030e-10
-2.461220e-10
-1.146920e-09
-3.927810e-10
1.049150e-09
9.269640e-10
-1.713960e-10
-5.656050e-10
-2.461220e-10
-1.288320e-09
-4.055290e-10
1.049150e-09
1.712530e-09
-1.713960e-10
-2.199580e-10
-2.461220e-10
-1.146920e-09
-4.055290e-10
2.513800e-10
9.269640e-10
-1.713960e-10
-9.426750e-11
-6.018030e-10
-1.288320e-09
-4.055290e-10
-3.299360e-10
-4.418610e-10
-1.713960e-10
-2.199580e-10
-6.018030e-10
9.426750e-11
-4.055290e-10
2.513800e-10
-4.418610e-10
-2.199580e-10
-9.426750e-11
-6.018030e-10
1.005520e-09
2.337170e-10
-3.299360e-10
-4.418610e-10
-8.955420e-10
2.974170e-10
-6.018030e-10
9.426750e-11
2.337170e-10
-8.169850e-10
-4.418610e-10
-2.199580e-10
2.974170e-10
1.398300e-09
1.005520e-09
2.337170e-10
3.927810e-10
-4.681840e-10
-8.955420e-10
2.974170e-10
1.728240e-10
-6.690320e-10
2.337170e-10
-8.169850e-10
-4.681840e-10
-5.970280e-10
2.974170e-10
1.398300e-09
-6.690320e-10
-1.508280e-09
3.927810e-10
-4.681840e-10
1.414010e-10
5.325810e-10
1.728240e-10
-6.690320e-10
0.000000e+00
1.252980e-10
-4.681840e-10
-5.970280e-10
5.325810e-10
1.194060e-09
-6.690320e-10
-1.508280e-09
1.252980e-10
-2.356690e-10
1.414010e-10
5.325810e-10
-4.084930e-10
1.866890e-10
0.000000e+00
1.252980e-10
6.598730e-10
3.121160e-10
5.325810e-10
1.194060e-09
1.866890e-10
1.901060e-09
1.252980e-10
-2.356690e-10
3.121160e-10
3.927810e-10
-4.084930e-10
1.866890e-10
-1.099790e-10
8.802020e-11
6.598730e-10
3.121160e-10
8.326970e-10
4.217770e-10
1.866890e-10
1.901060e-09
8.802020e-11
-1.571130e-11
3.121160e-10
3.927810e-10
4.217770e-10
0.000000e+00
-1.099790e-10
8.802020e-11
5.813160e-10
-5.486690e-10
8.326970e-10
4.217770e-10
3.142250e-10
-1.552860e-10
8.802020e-11
-1.571130e-11
-5.486690e-10
-2.042460e-10
4.217770e-10
0.000000e+00
-1.552860e-10
0.000000e+00
5.813160e-10
-5.486690e-10
-2.356690e-10
-6.421750e-10
3.142250e-10
-1.552860e-10
-5.498940e-10
-4.592960e-10
-5.486690e-10
-2.042460e-10
-6.421750e-10
-3.299360e-10
-1.552860e-10
0.000000e+00
-4.592960e-10
4.713380e-10
-2.356690e-10
-6.421750e-10
6.912950e-10
2.739800e-10
-5.498940e-10
-4.592960e-10
0.000000e+00
-3.687240e-10
-6.421750e-10
-3.299360e-10
2.739800e-10
-9.426750e-11
-4.592960e-10
4.713380e-10
-3.687240e-10
-2.985140e-10
6.912950e-10
2.739800e-10
1.728240e-10
1.029670e-10
0.000000e+00
-3.687240e-10
7.070060e-10
3.202190e-10
2.739800e-10
-9.426750e-11
1.029670e-10
7.698510e-10
-3.687240e-10
-2.985140e-10
3.202190e-10
-1.571130e-11
1.728240e-10
1.029670e-10
0.000000e+00
5.190800e-10
7.070060e-10
3.202190e-10
0.000000e+00
3.083220e-10
1.029670e-10
7.698510e-10
5.190800e-10
1.571130e-11
3.202190e-10
-1.571130e-11
3.083220e-10
0.000000e+00
0.000000e+00
5.190800e-10
0.000000e+00
-3.015380e-10
0.000000e+00
3.083220e-10
0.000000e+00
-1.868160e-10
5.190800e-10
1.571130e-11
-3.015380e-10
0.000000e+00
3.083220e-10
0.000000e+00
-1.868160e-10
0.000000e+00
0.000000e+00
-3.015380e-10
0.000000e+00
1.093190e-10
0.000000e+00
-1.868160e-10
0.000000e+00
1.465930e-12
-3.015380e-10
0.000000e+00
1.093190e-10
4.713380e-10
-1.868160e-10
0.000000e+00
1.465930e-12
0.000000e+00
0.000000e+00
1.093190e-10
0.000000e+00
8.609580e-11
0.000000e+00
1.465930e-12
0.000000e+00
7.479720e-11
1.093190e-10
4.713380e-10
8.609580e-11
0.000000e+00
1.465930e-12
0.000000e+00
7.479720e-11
0.000000e+00
0.000000e+00
8.609580e-11
0.000000e+00
-1.786650e-11
0.000000e+00
7.479720e-11
0.000000e+00
-8.204170e-12
8.609580e-11
0.000000e+00
-1.786650e-11
0.000000e+00
7.479720e-11
0.000000e+00
-8.204170e-12
0.000000e+00
0.000000e+00
-1.786650e-11
0.000000e+00
-1.671540e-12
0.000000e+00
-8.204170e-12
0.000000e+00
-3.880170e-12
-1.786650e-11
0.000000e+00
-1.671540e-12
0.000000e+00
-8.204170e-12
0.000000e+00
-3.880170e-12
0.000000e+00
0.000000e+00
-1.671540e-12
0.000000e+00
-3.206350e-11
0.000000e+00
-3.880170e-12
0.000000e+00
-2.716830e-11
-1.671540e-12
0.000000e+00
-3.206350e-11
0.000000e+00
-3.880170e-12
0.000000e+00
-2.716830e-11
0.000000e+00
0.000000e+00
-3.206350e-11
0.000000e+00
-4.652900e-11
0.000000e+00
-2.716830e-11
0.000000e+00
-4.339960e-11
-3.206350e-11
0.000000e+00
-4.652900e-11
0.000000e+00
-2.716830e-11
0.000000e+00
-4.339960e-11
0.000000e+00
0.000000e+00
-4.652900e-11
0.000000e+00
6.268930e-12
0.000000e+00
-4.339960e-11
0.000000e+00
1.085870e-11
-4.652900e-11
0.000000e+00
6.268930e-12
0.000000e+00
-4.339960e-11
0.000000e+00
1.085870e-11
0.000000e+00
0.000000e+00
6.268930e-12
0.000000e+00
2.005470e-11
0.000000e+00
1.085870e-11
0.000000e+00
2.504080e-11
6.268930e-12
0.000000e+00
2.005470e-11
0.000000e+00
1.085870e-11
0.000000e+00
2.504080e-11
0.000000e+00
0.000000e+00
2.005470e-11
0.000000e+00
-2.578940e-12
0.000000e+00
2.504080e-11
0.000000e+00
-5.686630e-12
2.005470e-11
0.000000e+00
-2.578940e-12
0.000000e+00
2.504080e-11
0.000000e+00
-5.686630e-12
0.000000e+00
0.000000e+00
-2.578940e-12
0.000000e+00
-8.920440e-12
0.000000e+00
-5.686630e-12
0.000000e+00
-8.897480e-12
-2.578940e-12
0.000000e+00
-8.920440e-12
0.000000e+00
-5.686630e-12
0.000000e+00
-8.897480e-12
0.000000e+00
0.000000e+00
-8.920440e-12
0.000000e+00
8.418150e-12
0.000000e+00
-8.897480e-12
0.000000e+00
1.198480e-11
-8.920440e-12
0.000000e+00
8.418150e-12
0.000000e+00
-8.897480e-12
0.000000e+00
1.198480e-11
0.000000e+00
0.000000e+00
0.000000e+00
7.541400e-10
-1.442080e-10
0.000000e+00
0.000000e+00
-5.970280e-10
2.794280e-11
0.000000e+00
0.000000e+00
-1.442080e-10
-3.927810e-10
0.000000e+00
0.000000e+00
2.794280e-11
-2.985140e-10
7.541400e-10
-1.442080e-10
8.484080e-10
6.613060e-10
-5.970280e-10
2.794280e-11
-2.670910e-10
1.081310e-11
-1.442080e-10
-3.927810e-10
6.613060e-10
1.335460e-09
2.794280e-11
-2.985140e-10
1.081310e-11
-1.194060e-09
8.484080e-10
6.613060e-10
4.399150e-10
1.987860e-10
-2.670910e-10
1.081310e-11
9.269640e-10
1.576620e-09
6.613060e-10
1.335460e-09
1.987860e-10
-1.005520e-09
1.081310e-11
-1.194060e-09
1.576620e-09
1.099790e-09
4.399150e-10
1.987860e-10
3.927810e-10
-1.835940e-10
9.269640e-10
1.576620e-09
4.399150e-10
1.353020e-11
1.987860e-10
-1.005520e-09
-1.835940e-10
-1.288320e-09
1.576620e-09
1.099790e-09
1.353020e-11
8.484080e-10
3.927810e-10
-1.835940e-10
6.912950e-10
-3.453000e-10
4.399150e-10
1.353020e-11
1.571130e-10
3.658750e-10
-1.835940e-10
-1.288320e-09
-3.453000e-10
-2.828030e-10
1.353020e-11
8.484080e-10
3.658750e-10
6.755840e-10
6.912950e-10
-3.453000e-10
-5.656050e-10
-2.461220e-10
1.571130e-10
3.658750e-10
-8.169850e-10
2.188030e-10
-3.453000e-10
-2.828030e-10
-2.461220e-10
-1.146920e-09
3.658750e-10
6.755840e-10
2.188030e-10
5.970280e-10
-5.656050e-10
-2.461220e-10
-1.288320e-09
-4.055290e-10
-8.169850e-10
2.188030e-10
5.656050e-10
-5.872780e-11
-2.461220e-10
-1.146920e-09
-4.055290e-10
2.513800e-10
2.188030e-10
5.970280e-10
-5.872780e-11
-4.399150e-10
-1.288320e-09
-4.055290e-10
-3.299360e-10
-4.418610e-10
5.656050e-10
-5.872780e-11
1.633970e-09
4.121420e-10
-4.055290e-10
2.513800e-10
-4.418610e-10
-2.199580e-10
-5.872780e-11
-4.399150e-10
4.121420e-10
-7.541400e-10
-3.299360e-10
-4.418610e-10
-8.955420e-10
2.974170e-10
1.633970e-09
4.121420e-10
-5.813160e-10
2.344010e-10
-4.418610e-10
-2.199580e-10
2.974170e-10
1.398300e-09
4.121420e-10
-7.541400e-10
2.344010e-10
8.641190e-10
-8.955420e-10
2.974170e-10
1.728240e-10
-6.690320e-10
-5.813160e-10
2.344010e-10
-8.169850e-10
5.574350e-10
2.974170e-10
1.398300e-09
-6.690320e-10
-1.508280e-09
2.344010e-10
8.641190e-10
5.574350e-10
3.142250e-11
1.728240e-10
-6.690320e-10
0.000000e+00
1.252980e-10
-8.169850e-10
5.574350e-10
8.955420e-10
-3.056710e-10
-6.690320e-10
-1.508280e-09
1.252980e-10
-2.356690e-10
5.574350e-10
3.142250e-11
-3.056710e-10
8.326970e-10
0.000000e+00
1.252980e-10
6.598730e-10
3.121160e-10
8.955420e-10
-3.056710e-10
-7.698510e-10
-6.530830e-10
1.252980e-10
-2.356690e-10
3.121160e-10
3.927810e-10
-3.056710e-10
8.326970e-10
-6.530830e-10
5.813160e-10
6.598730e-10
3.121160e-10
8.326970e-10
4.217770e-10
-7.698510e-10
-6.530830e-10
-1.036940e-09
4.170870e-10
3.121160e-10
3.927810e-10
4.217770e-10
0.000000e+00
-6.530830e-10
5.813160e-10
4.170870e-10
-3.142250e-11
8.326970e-10
4.217770e-10
3.142250e-10
-1.552860e-10
-1.036940e-09
4.170870e-10
1.586840e-09
-1.511820e-10
4.217770e-10
0.000000e+00
-1.552860e-10
0.000000e+00
4.170870e-10
-3.142250e-11
-1.511820e-10
-9.426750e-10
3.142250e-10
-1.552860e-10
-5.498940e-10
-4.592960e-10
1.586840e-09
-1.511820e-10
-7.698510e-10
-2.490800e-10
-1.552860e-10
0.000000e+00
-4.592960e-10
4.713380e-10
-1.511820e-10
-9.426750e-10
-2.490800e-10
-4.242040e-10
-5.498940e-10
-4.592960e-10
0.000000e+00
-3.687240e-10
-7.698510e-10
-2.490800e-10
1.571130e-10
-4.160750e-11
-4.592960e-10
4.713380e-10
-3.687240e-10
-2.985140e-10
-2.490800e-10
-4.242040e-10
-4.160750e-11
-1.728240e-10
0.000000e+00
-3.687240e-10
7.070060e-10
3.202190e-10
1.571130e-10
-4.160750e-11
0.000000e+00
-3.396210e-11
-3.687240e-10
-2.985140e-10
3.202190e-10
-1.571130e-11
-4.160750e-11
-1.728240e-10
-3.396210e-11
5.341830e-10
7.070060e-10
3.202190e-10
0.000000e+00
3.083220e-10
0.000000e+00
-3.396210e-11
1.571130e-11
3.912860e-10
3.202190e-10
-1.571130e-11
3.083220e-10
0.000000e+00
-3.396210e-11
5.341830e-10
3.912860e-10
-9.426750e-10
0.000000e+00
3.083220e-10
0.000000e+00
-1.868160e-10
1.571130e-11
3.912860e-10
0.000000e+00
-1.842540e-10
3.083220e-10
0.000000e+00
-1.868160e-10
0.000000e+00
3.912860e-10
-9.426750e-10
-1.842540e-10
0.000000e+00
0.000000e+00
-1.868160e-10
0.000000e+00
1.465930e-12
0.000000e+00
-1.842540e-10
0.000000e+00
-1.752970e-11
-1.868160e-10
0.000000e+00
1.465930e-12
0.000000e+00
-1.842540e-10
0.000000e+00
-1.752970e-11
0.000000e+00
0.000000e+00
1.465930e-12
0.000000e+00
7.479720e-11
0.000000e+00
-1.752970e-11
0.000000e+00
7.638670e-11
1.465930e-12
0.000000e+00
7.479720e-11
0.000000e+00
-1.752970e-11
0.000000e+00
7.638670e-11
0.000000e+00
0.000000e+00
7.479720e-11
0.000000e+00
-8.204170e-12
0.000000e+00
7.638670e-11
0.000000e+00
-1.144130e-11
7.479720e-11
0.000000e+00
-8.204170e-12
0.000000e+00
7.638670e-11
0.000000e+00
-1.144130e-11
0.000000e+00
0.000000e+00
-8.204170e-12
0.000000e+00
-3.880170e-12
0.000000e+00
-1.144130e-11
0.000000e+00
-6.068000e-12
-8.204170e-12
0.000000e+00
-3.880170e-12
0.000000e+00
-1.144130e-11
0.000000e+00
-6.068000e-12
0.000000e+00
0.000000e+00
-3.880170e-12
0.000000e+00
-2.716830e-11
0.000000e+00
-6.068000e-12
0.000000e+00
-1.358920e-11
-3.880170e-12
0.000000e+00
-2.716830e-11
0.000000e+00
-6.068000e-12
0.000000e+00
-1.358920e-11
0.000000e+00
0.000000e+00
-2.716830e-11
0.000000e+00
-4.339960e-11
0.000000e+00
-1.358920e-11
0.000000e+00
-4.208380e-11
-2.716830e-11
0.000000e+00
-4.339960e-11
0.000000e+00
-1.358920e-11
0.000000e+00
-4.208380e-11
0.000000e+00
0.000000e+00
-4.339960e-11
0.000000e+00
1.085870e-11
0.000000e+00
-4.208380e-11
0.000000e+00
1.358270e-11
-4.339960e-11
0.000000e+00
1.085870e-11
0.000000e+00
-4.208380e-11
0.000000e+00
1.358270e-11
0.000000e+00
0.000000e+00
1.085870e-11
0.000000e+00
2.504080e-11
0.000000e+00
1.358270e-11
0.000000e+00
2.923120e-11
1.085870e-11
0.000000e+00
2.504080e-11
0.000000e+00
1.358270e-11
0.000000e+00
2.923120e-11
0.000000e+00
0.000000e+00
2.504080e-11
0.000000e+00
-5.686630e-12
0.000000e+00
2.923120e-11
0.000000e+00
-3.621690e-12
2.504080e-11
0.000000e+00
-5.686630e-12
0.000000e+00
2.923120e-11
0.000000e+00
-3.621690e-12
0.000000e+00
0.000000e+00
-5.686630e-12
0.000000e+00
-8.897480e-12
0.000000e+00
-3.621690e-12
0.000000e+00
-8.543910e-12
-5.686630e-12
0.000000e+00
-8.897480e-12
0.000000e+00
-3.621690e-12
0.000000e+00
-8.543910e-12
0.000000e+00
0.000000e+00
-8.897480e-12
0.000000e+00
1.198480e-11
0.000000e+00
-8.543910e-12
0.000000e+00
6.639110e-12
-8.897480e-12
0.000000e+00
1.198480e-11
0.000000e+00
-8.543910e-12
0.000000e+00
6.639110e-12
0.000000e+00
</DataArray>
<DataArray type="Float32" Name="V2" format="ascii">
0.000000e+00
0.000000e+00
2.585970e-02
2.585970e-02
0.000000e+00
0.000000e+00
2.585970e-02
2.585970e-02
0.000000e+00
0.000000e+00
2.585970e-02
2.585970e-02
0.000000e+00
0.000000e+00
2.585970e-02
2.585970e-02
2.585970e-02
2.585970e-02
3.235190e-02
3.235190e-02
2.585970e-02
2.585970e-02
3.235190e-02
3.235190e-02
2.585970e-02
2.585970e-02
3.235190e-02
3.235190e-02
2.585970e-02
2.585970e-02
3.235190e-02
3.235190e-02
3.235190e-02
3.235190e-02
1.195480e-02
1.195480e-02
3.235190e-02
3.235190e-02
1.195480e-02
1.195480e-02
3.235190e-02
3.235190e-02
1.195480e-02
1.195480e-02
3.235190e-02
3.235190e-02
1.195480e-02
1.195480e-02
1.195480e-02
1.195480e-02
-1.625900e-02
-1.625900e-02
1.195480e-02
1.195480e-02
-1.625900e-02
-1.625900e-02
1.195480e-02
1.195480e-02
-1.625900e-02
-1.625900e-02
1.195480e-02
1.195480e-02
-1.625900e-02
-1.625900e-02
-1.625900e-02
-1.625900e-02
-2.553580e-02
-2.553580e-02
-1.625900e-02
-1.625900e-02
-2.553580e-02
-2.553580e-02
-1.625900e-02
-1.625900e-02
-2.553580e-02
-2.553580e-02
-1.625900e-02
-1.625900e-02
-2.553580e-02
-2.553580e-02
-2.553580e-02
-2.553580e-02
-2.874990e-03
-2.874990e-03
-2.553580e-02
-2.553580e-02
-2.874990e-03
-2.874990e-03
-2.553580e-02
-2.553580e-02
-2.874990e-03
-2.874990e-03
-2.553580e-02
-2.553580e-02
-2.874990e-03
-2.874990e-03
-2.874990e-03
-2.874990e-03
1.304100e-02
1.304100e-02
-2.874990e-03
-2.874990e-03
1.304100e-02
1.304100e-02
-2.874990e-03
-2.874990e-03
1.304100e-02
1.304100e-02
-2.874990e-03
-2.874990e-03
1.304100e-02
1.304100e-02
1.304100e-02
1.304100e-02
-7.925320e-04
-7.925280e-04
1.304100e-02
1.304100e-02
-7.925320e-04
-7.925300e-04
1.304100e-02
1.304100e-02
-7.925280e-04
-7.925320e-04
1.304100e-02
1.304100e-02
-7.925300e-04
-7.925310e-04
-7.925320e-04
-7.925280e-04
-7.539800e-03
-7.539790e-03
-7.925320e-04
-7.925300e-04
-7.539790e-03
-7.539790e-03
-7.925280e-04
-7.925320e-04
-7.539790e-03
-7.539800e-03
-7.925300e-04
-7.925310e-04
-7.539790e-03
-7.539800e-03
-7.539800e-03
-7.539790e-03
3.756030e-04
3.756000e-04
-7.539790e-03
-7.539790e-03
3.756010e-04
3.756040e-04
-7.539790e-03
-7.539800e-03
3.756000e-04
3.756040e-04
-7.539790e-03
-7.539800e-03
3.756040e-04
3.756030e-04
3.756030e-04
3.756000e-04
1.940840e-03
1.940840e-03
3.756010e-04
3.756040e-04
1.940840e-03
1.940840e-03
3.756000e-04
3.756040e-04
1.940840e-03
1.940840e-03
3.756040e-04
3.756030e-04
1.940840e-03
1.940850e-03
1.940840e-03
1.940840e-03
-1.795140e-03
-1.795140e-03
1.940840e-03
1.940840e-03
-1.795150e-03
-1.795140e-03
1.940840e-03
1.940840e-03
-1.795140e-03
-1.795140e-03
1.940840e-03
1.940850e-03
-1.795140e-03
-1.795140e-03
-1.795140e-03
-1.795140e-03
-8.759820e-04
-8.759790e-04
-1.795150e-03
-1.795140e-03
-8.759790e-04
-8.759780e-04
-1.795140e-03
-1.795140e-03
-8.759790e-04
-8.759810e-04
-1.795140e-03
-1.795140e-03
-8.759780e-04
-8.759810e-04
-8.759820e-04
-8.759790e-04
2.664240e-04
2.664230e-04
-8.759790e-04
-8.759780e-04
2.664220e-04
2.664220e-04
-8.759790e-04
-8.759810e-04
2.664230e-04
2.664230e-04
-8.759780e-04
-8.759810e-04
2.664220e-04
2.664210e-04
2.664240e-04
2.664230e-04
-4.759660e-04
-4.759660e-04
2.664220e-04
2.664220e-04
-4.759680e-04
-4.759670e-04
2.664230e-04
2.664230e-04
-4.759660e-04
-4.759650e-04
2.664220e-04
2.664210e-04
-4.759670e-04
-4.759670e-04
-4.759660e-04
-4.759660e-04
-6.255620e-04
-6.255610e-04
-4.759680e-04
-4.759670e-04
-6.255590e-04
-6.255600e-04
-4.759660e-04
-4.759650e-04
-6.255610e-04
-6.255580e-04
-4.759670e-04
-4.759670e-04
-6.255600e-04
-6.255610e-04
-6.255620e-04
-6.255610e-04
-3.337450e-04
-3.337470e-04
-6.255590e-04
-6.255600e-04
-3.337480e-04
-3.337480e-04
-6.255610e-04
-6.255580e-04
-3.337470e-04
-3.337450e-04
-6.255600e-04
-6.255610e-04
-3.337480e-04
-3.337460e-04
-3.337450e-04
-3.337470e-04
-3.759600e-04
-3.759600e-04
-3.337480e-04
-3.337480e-04
-3.759600e-04
-3.759620e-04
-3.337470e-04
-3.337450e-04
-3.759600e-04
-3.759610e-04
-3.337480e-04
-3.337460e-04
-3.759620e-04
-3.759620e-04
-3.759600e-04
-3.759600e-04
-3.904530e-04
-3.904520e-04
-3.759600e-04
-3.759620e-04
-3.904520e-04
-3.904510e-04
-3.759600e-04
-3.759610e-04
-3.904520e-04
-3.904530e-04
-3.759620e-04
-3.759620e-04
-3.904510e-04
-3.904520e-04
-3.904530e-04
-3.904520e-04
-5.246550e-04
-5.246550e-04
-3.904520e-04
-3.904510e-04
-5.246560e-04
-5.246550e-04
-3.904520e-04
-3.904530e-04
-5.246550e-04
-5.246540e-04
-3.904510e-04
-3.904520e-04
-5.246550e-04
-5.246560e-04
-5.246550e-04
-5.246550e-04
-4.354130e-04
-4.354120e-04
-5.246560e-04
-5.246550e-04
-4.354130e-04
-4.354130e-04
-5.246550e-04
-5.246540e-04
-4.354120e-04
-4.354110e-04
-5.246550e-04
-5.246560e-04
-4.354130e-04
-4.354120e-04
-4.354130e-04
-4.354120e-04
-3.645340e-04
-3.645330e-04
-4.354130e-04
-4.354130e-04
-3.645330e-04
-3.645330e-04
-4.354120e-04
-4.354110e-04
-3.645330e-04
-3.645330e-04
-4.354130e-04
-4.354120e-04
-3.645330e-04
-3.645330e-04
-3.645340e-04
-3.645330e-04
-3.315740e-04
-3.315740e-04
-3.645330e-04
-3.645330e-04
-3.315740e-04
-3.315740e-04
-3.645330e-04
-3.645330e-04
-3.315740e-04
-3.315740e-04
-3.645330e-04
-3.645330e-04
-3.315740e-04
-3.315730e-04
-3.315740e-04
-3.315740e-04
-3.906010e-04
-3.906010e-04
-3.315740e-04
-3.315740e-04
-3.906000e-04
-3.906010e-04
-3.315740e-04
-3.315740e-04
-3.906010e-04
-3.905990e-04
-3.315740e-04
-3.315730e-04
-3.906010e-04
-3.906000e-04
-3.906010e-04
-3.906010e-04
-3.797300e-04
-3.797310e-04
-3.906000e-04
-3.906010e-04
-3.797300e-04
-3.797300e-04
-3.906010e-04
-3.905990e-04
-3.797310e-04
-3.797300e-04
-3.906010e-04
-3.906000e-04
-3.797300e-04
-3.797300e-04
-3.797300e-04
-3.797310e-04
-5.609670e-05
-5.609760e-05
-3.797300e-04
-3.797300e-04
-5.609700e-05
-5.609730e-05
-3.797310e-04
-3.797300e-04
-5.609760e-05
-5.609720e-05
-3.797300e-04
-3.797300e-04
-5.609730e-05
-5.609760e-05
-5.609670e-05
-5.609760e-05
-5.899880e-05
-5.899940e-05
-5.609700e-05
-5.609730e-05
-5.899890e-05
-5.899930e-05
-5.609760e-05
-5.609720e-05
-5.899940e-05
-5.899930e-05
-5.609730e-05
-5.609760e-05
-5.899930e-05
-5.899970e-05
-5.899880e-05
-5.899940e-05
5.222070e-05
5.222130e-05
-5.899890e-05
-5.899930e-05
5.222070e-05
5.222090e-05
-5.899940e-05
-5.899930e-05
5.222130e-05
5.222140e-05
-5.899930e-05
-5.899970e-05
5.222090e-05
5.222140e-05
5.222070e-05
5.222130e-05
2.408360e-04
2.408360e-04
5.222070e-05
5.222090e-05
2.408360e-04
2.408360e-04
5.222130e-05
5.222140e-05
2.408360e-04
2.408360e-04
5.222090e-05
5.222140e-05
2.408360e-04
2.408360e-04
2.408360e-04
2.408360e-04
2.619360e-04
2.619360e-04
2.408360e-04
2.408360e-04
2.619370e-04
2.619360e-04
2.408360e-04
2.408360e-04
2.619360e-04
2.619360e-04
2.408360e-04
2.408360e-04
2.619360e-04
2.619370e-04
0.000000e+00
0.000000e+00
2.585970e-02
2.585970e-02
0.000000e+00
0.000000e+00
2.585970e-02
2.585970e-02
0.000000e+00
0.000000e+00
2.585970e-02
2.585970e-02
0.000000e+00
0.000000e+00
2.585970e-02
2.585970e-02
2.585970e-02
2.585970e-02
3.235190e-02
3.235190e-02
2.585970e-02
2.585970e-02
3.235190e-02
3.235190e-02
2.585970e-02
2.585970e-02
3.235190e-02
3.235190e-02
2.585970e-02
2.585970e-02
3.235190e-02
3.235190e-02
3.235190e-02
3.235190e-02