<?xml version="1.0"?>
<!-- time 45.3512-->
<VTKFile type="UnstructuredGrid" version="0.1" byte_order="LittleEndian">
<UnstructuredGrid>
<Piece NumberOfPoints="3240" NumberOfCells="0">
<Points>
  <DataArray type="Float32" Name="Position" NumberOfComponents="3" format="ascii">
	-333.333 2066.4 -333.333
	-333.333 2066.4 -200
	-333.333 2066.4 -66.6667
	-333.333 2066.4 66.6667
	-333.333 2066.4 200
	-333.333 2066.4 333.333
	-200 2066.4 -333.333
	-200 2066.4 -200
	-200 2066.4 -66.6667
	-200 2066.4 66.6667
	-200 2066.4 200
	-200 2066.4 333.333
	-66.6667 2066.4 -333.333
	-66.6667 2066.4 -200
	-66.6667 2066.4 -66.6667
	-66.6667 2066.4 66.6667
	-66.6667 2066.4 200
	-66.6667 2066.4 333.333
	66.6667 2066.4 -333.333
	66.6667 2066.4 -200
	66.6667 2066.4 -66.6667
	66.6667 2066.4 66.6667
	66.6667 2066.4 200
	66.6667 2066.4 333.333
	200 2066.4 -333.333
	200 2066.4 -200
	200 2066.4 -66.6667
	200 2066.4 66.6667
	200 2066.4 200
	200 2066.4 333.333
	333.333 2066.4 -333.333
	333.333 2066.4 -200
	333.333 2066.4 -66.6667
	333.333 2066.4 66.6667
	333.333 2066.4 200
	333.333 2066.4 333.333
	-333.333 2199.73 -333.333
	-333.333 2199.73 -200
	-333.333 2199.73 -66.6667
	-333.333 2199.73 66.6667
	-333.333 2199.73 200
	-333.333 2199.73 333.333
	-200 2199.73 -333.333
	-200 2199.73 -200
	-200 2199.73 -66.6667
	-200 2199.73 66.6667
	-200 2199.73 200
	-200 2199.73 333.333
	-66.6667 2199.73 -333.333
	-66.6667 2199.73 -200
	-66.6667 2199.73 -66.6667
	-66.6667 2199.73 66.6667
	-66.6667 2199.73 200
	-66.6667 2199.73 333.333
	66.6667 2199.73 -333.333
	66.6667 2199.73 -200
	66.6667 2199.73 -66.6667
	66.6667 2199.73 66.6667
	66.6667 2199.73 200
	66.6667 2199.73 333.333
	200 2199.73 -333.333
	200 2199.73 -200
	200 2199.73 -66.6667
	200 2199.73 66.6667
	200 2199.73 200
	200 2199.73 333.333
	333.333 2199.73 -333.333
	333.333 2199.73 -200
	333.333 2199.73 -66.6667
	333.333 2199.73 66.6667
	333.333 2199.73 200
	333.333 2199.73 333.333
	-333.333 2333.06 -333.333
	-333.333 2333.06 -200
	-333.333 2333.06 -66.6667
	-333.333 2333.06 66.6667
	-333.333 2333.06 200
	-333.333 2333.06 333.333
	-200 2333.06 -333.333
	-200 2333.06 -200
	-200 2333.06 -66.6667
	-200 2333.06 66.6667
	-200 2333.06 200
	-200 2333.06 333.333
	-66.6667 2333.06 -333.333
	-66.6667 2333.06 -200
	-66.6667 2333.06 -66.6667
	-66.6667 2333.06 66.6667
	-66.6667 2333.06 200
	-66.6667 2333.06 333.333
	66.6667 2333.06 -333.333
	66.6667 2333.06 -200
	66.6667 2333.06 -66.6667
	66.6667 2333.06 66.6667
	66.6667 2333.06 200
	66.6667 2333.06 333.333
	200 2333.06 -333.333
	200 2333.06 -200
	200 2333.06 -66.6667
	200 2333.06 66.6667
	200 2333.06 200
	200 2333.06 333.333
	333.333 2333.06 -333.333
	333.333 2333.06 -200
	333.333 2333.06 -66.6667
	333.333 2333.06 66.6667
	333.333 2333.06 200
	333.333 2333.06 333.333
	-333.333 2466.38 -333.333
	-333.333 2466.38 -200
	-333.333 2466.38 -66.6667
	-333.333 2466.38 66.6667
	-333.333 2466.38 200
	-333.333 2466.38 333.333
	-200 2466.38 -333.333
	-200 2466.38 -200
	-200 2466.38 -66.6667
	-200 2466.38 66.6667
	-200 2466.38 200
	-200 2466.38 333.333
	-66.6667 2466.38 -333.333
	-66.6667 2466.38 -200
	-66.6667 2466.38 -66.6667
	-66.6667 2466.38 66.6667
	-66.6667 2466.38 200
	-66.6667 2466.38 333.333
	66.6667 2466.38 -333.333
	66.6667 2466.38 -200
	66.6667 2466.38 -66.6667
	66.6667 2466.38 66.6667
	66.6667 2466.38 200
	66.6667 2466.38 333.333
	200 2466.38 -333.333
	200 2466.38 -200
	200 2466.38 -66.6667
	200 2466.38 66.6667
	200 2466.38 200
	200 2466.38 333.333
	333.333 2466.38 -333.333
	333.333 2466.38 -200
	333.333 2466.38 -66.6667
	333.333 2466.38 66.6667
	333.333 2466.38 200
	333.333 2466.38 333.333
	-333.333 2599.71 -333.333
	-333.333 2599.71 -200
	-333.333 2599.71 -66.6667
	-333.333 2599.71 66.6667
	-333.333 2599.71 200
	-333.333 2599.71 333.333
	-200 2599.71 -333.333
	-200 2599.71 -200
	-200 2599.71 -66.6667
	-200 2599.71 66.6667
	-200 2599.71 200
	-200 2599.71 333.333
	-66.6667 2599.71 -333.333
	-66.6667 2599.71 -200
	-66.6667 2599.71 -66.6667
	-66.6667 2599.71 66.6667
	-66.6667 2599.71 200
	-66.6667 2599.71 333.333
	66.6667 2599.71 -333.333
	66.6667 2599.71 -200
	66.6667 2599.71 -66.6667
	66.6667 2599.71 66.6667
	66.6667 2599.71 200
	66.6667 2599.71 333.333
	200 2599.71 -333.333
	200 2599.71 -200
	200 2599.71 -66.6667
	200 2599.71 66.6667
	200 2599.71 200
	200 2599.71 333.333
	333.333 2599.71 -333.333
	333.333 2599.71 -200
	333.333 2599.71 -66.6667
	333.333 2599.71 66.6667
	333.333 2599.71 200
	333.333 2599.71 333.333
	-333.333 2733.04 -333.333
	-333.333 2733.04 -200
	-333.333 2733.04 -66.6667
	-333.333 2733.04 66.6667
	-333.333 2733.04 200
	-333.333 2733.04 333.333
	-200 2733.04 -333.333
	-200 2733.04 -200
	-200 2733.04 -66.6667
	-200 2733.04 66.6667
	-200 2733.04 200
	-200 2733.04 333.333
	-66.6667 2733.04 -333.333
	-66.6667 2733.04 -200
	-66.6667 2733.04 -66.6667
	-66.6667 2733.04 66.6667
	-66.6667 2733.04 200
	-66.6667 2733.04 333.333
	66.6667 2733.04 -333.333
	66.6667 2733.04 -200
	66.6667 2733.04 -66.6667
	66.6667 2733.04 66.6667
	66.6667 2733.04 200
	66.6667 2733.04 333.333
	200 2733.04 -333.333
	200 2733.04 -200
	200 2733.04 -66.6667
	200 2733.04 66.6667
	200 2733.04 200
	200 2733.04 333.333
	333.333 2733.04 -333.333
	333.333 2733.04 -200
	333.333 2733.04 -66.6667
	333.333 2733.04 66.6667
	333.333 2733.04 200
	333.333 2733.04 333.333
	-333.333 2866.37 -333.333
	-333.333 2866.37 -200
	-333.333 2866.37 -66.6667
	-333.333 2866.37 66.6667
	-333.333 2866.37 200
	-333.333 2866.37 333.333
	-200 2866.37 -333.333
	-200 2866.37 -200
	-200 2866.37 -66.6667
	-200 2866.37 66.6667
	-200 2866.37 200
	-200 2866.37 333.333
	-66.6667 2866.37 -333.333
	-66.6667 2866.37 -200
	-66.6667 2866.37 -66.6667
	-66.6667 2866.37 66.6667
	-66.6667 2866.37 200
	-66.6667 2866.37 333.333
	66.6667 2866.37 -333.333
	66.6667 2866.37 -200
	66.6667 2866.37 -66.6667
	66.6667 2866.37 66.6667
	66.6667 2866.37 200
	66.6667 2866.37 333.333
	200 2866.37 -333.333
	200 2866.37 -200
	200 2866.37 -66.6667
	200 2866.37 66.6667
	200 2866.37 200
	200 2866.37 333.333
	333.333 2866.37 -333.333
	333.333 2866.37 -200
	333.333 2866.37 -66.6667
	333.333 2866.37 66.6667
	333.333 2866.37 200
	333.333 2866.37 333.333
	-333.333 2999.7 -333.333
	-333.333 2999.7 -200
	-333.333 2999.7 -66.6667
	-333.333 2999.7 66.6667
	-333.333 2999.7 200
	-333.333 2999.7 333.333
	-200 2999.7 -333.333
	-200 2999.7 -200
	-200 2999.7 -66.6667
	-200 2999.7 66.6667
	-200 2999.7 200
	-200 2999.7 333.333
	-66.6667 2999.7 -333.333
	-66.6667 2999.7 -200
	-66.6667 2999.7 -66.6667
	-66.6667 2999.7 66.6667
	-66.6667 2999.7 200
	-66.6667 2999.7 333.333
	66.6667 2999.7 -333.333
	66.6667 2999.7 -200
	66.6667 2999.7 -66.6667
	66.6667 2999.7 66.6667
	66.6667 2999.7 200
	66.6667 2999.7 333.333
	200 2999.7 -333.333
	200 2999.7 -200
	200 2999.7 -66.6667
	200 2999.7 66.6667
	200 2999.7 200
	200 2999.7 333.333
	333.333 2999.7 -333.333
	333.333 2999.7 -200
	333.333 2999.7 -66.6667
	333.333 2999.7 66.6667
	333.333 2999.7 200
	333.333 2999.7 333.333
	-333.333 3133.03 -333.333
	-333.333 3133.03 -200
	-333.333 3133.03 -66.6667
	-333.333 3133.03 66.6667
	-333.333 3133.03 200
	-333.333 3133.03 333.333
	-200 3133.03 -333.333
	-200 3133.03 -200
	-200 3133.03 -66.6667
	-200 3133.03 66.6667
	-200 3133.03 200
	-200 3133.03 333.333
	-66.6667 3133.03 -333.333
	-66.6667 3133.03 -200
	-66.6667 3133.03 -66.6667
	-66.6667 3133.03 66.6667
	-66.6667 3133.03 200
	-66.6667 3133.03 333.333
	66.6667 3133.03 -333.333
	66.6667 3133.03 -200
	66.6667 3133.03 -66.6667
	66.6667 3133.03 66.6667
	66.6667 3133.03 200
	66.6667 3133.03 333.333
	200 3133.03 -333.333
	200 3133.03 -200
	200 3133.03 -66.6667
	200 3133.03 66.6667
	200 3133.03 200
	200 3133.03 333.333
	333.333 3133.03 -333.333
	333.333 3133.03 -200
	333.333 3133.03 -66.6667
	333.333 3133.03 66.6667
	333.333 3133.03 200
	333.333 3133.03 333.333
	-333.333 3266.36 -333.333
	-333.333 3266.36 -200
	-333.333 3266.36 -66.6667
	-333.333 3266.36 66.6667
	-333.333 3266.36 200
	-333.333 3266.36 333.333
	-200 3266.36 -333.333
	-200 3266.36 -200
	-200 3266.36 -66.6667
	-200 3266.36 66.6667
	-200 3266.36 200
	-200 3266.36 333.333
	-66.6667 3266.36 -333.333
	-66.6667 3266.36 -200
	-66.6667 3266.36 -66.6667
	-66.6667 3266.36 66.6667
	-66.6667 3266.36 200
	-66.6667 3266.36 333.333
	66.6667 3266.36 -333.333
	66.6667 3266.36 -200
	66.6667 3266.36 -66.6667
	66.6667 3266.36 66.6667
	66.6667 3266.36 200
	66.6667 3266.36 333.333
	200 3266.36 -333.333
	200 3266.36 -200
	200 3266.36 -66.6667
	200 3266.36 66.6667
	200 3266.36 200
	200 3266.36 333.333
	333.333 3266.36 -333.333
	333.333 3266.36 -200
	333.333 3266.36 -66.6667
	333.333 3266.36 66.6667
	333.333 3266.36 200
	333.333 3266.36 333.333
	-333.333 3399.69 -333.333
	-333.333 3399.69 -200
	-333.333 3399.69 -66.6667
	-333.333 3399.69 66.6667
	-333.333 3399.69 200
	-333.333 3399.69 333.333
	-200 3399.69 -333.333
	-200 3399.69 -200
	-200 3399.69 -66.6667
	-200 3399.69 66.6667
	-200 3399.69 200
	-200 3399.69 333.333
	-66.6667 3399.69 -333.333
	-66.6667 3399.69 -200
	-66.6667 3399.69 -66.6667
	-66.6667 3399.69 66.6667
	-66.6667 3399.69 200
	-66.6667 3399.69 333.333
	66.6667 3399.69 -333.333
	66.6667 3399.69 -200
	66.6667 3399.69 -66.6667
	66.6667 3399.69 66.6667
	66.6667 3399.69 200
	66.6667 3399.69 333.333
	200 3399.69 -333.333
	200 3399.69 -200
	200 3399.69 -66.6667
	200 3399.69 66.6667
	200 3399.69 200
	200 3399.69 333.333
	333.333 3399.69 -333.333
	333.333 3399.69 -200
	333.333 3399.69 -66.6667
	333.333 3399.69 66.6667
	333.333 3399.69 200
	333.333 3399.69 333.333
	-333.333 3533.02 -333.333
	-333.333 3533.02 -200
	-333.333 3533.02 -66.6667
	-333.333 3533.02 66.6667
	-333.333 3533.02 200
	-333.333 3533.02 333.333
	-200 3533.02 -333.333
	-200 3533.02 -200
	-200 3533.02 -66.6667
	-200 3533.02 66.6667
	-200 3533.02 200
	-200 3533.02 333.333
	-66.6667 3533.02 -333.333
	-66.6667 3533.02 -200
	-66.6667 3533.02 -66.6667
	-66.6667 3533.02 66.6667
	-66.6667 3533.02 200
	-66.6667 3533.02 333.333
	66.6667 3533.02 -333.333
	66.6667 3533.02 -200
	66.6667 3533.02 -66.6667
	66.6667 3533.02 66.6667
	66.6667 3533.02 200
[...]
<PointData  Vectors="vector">
  <DataArray type="Float32" Name="Velocity" NumberOfComponents="3" format="ascii">
 2.06219e-12 -0.0575834 1.73974e-12
 5.69419e-12 -0.0575834 -1.7654e-11
 -3.29246e-12 -0.0575834 -2.44972e-11
 -7.06361e-12 -0.0575834 -2.67626e-11
 -3.41651e-12 -0.0575834 -1.64332e-11
 -3.47535e-12 -0.0575834 4.6215e-12
 8.70485e-12 -0.0575834 2.75891e-12
 1.41795e-11 -0.0575834 -1.47536e-11
 1.62235e-11 -0.0575834 -1.30677e-11
 9.32433e-12 -0.0575834 -1.95844e-11
 7.32464e-12 -0.0575834 -9.93758e-12
 4.97735e-12 -0.0575834 -1.09034e-13
 1.91048e-11 -0.0575834 3.77807e-12
 1.5368e-11 -0.0575834 -1.3237e-11
 1.65431e-11 -0.0575834 -6.64968e-12
 5.80876e-12 -0.0575834 -1.15962e-11
 3.8793e-12 -0.0575834 -6.41204e-12
 2.54787e-12 -0.0575834 3.72014e-12
 1.87527e-11 -0.0575834 -7.89224e-13
 1.82442e-11 -0.0575834 -1.71308e-11
 2.00233e-11 -0.0575834 -1.61585e-11
 8.82888e-12 -0.0575834 -2.26053e-11
 7.5435e-12 -0.0575834 -1.38689e-11
 6.793e-12 -0.0575834 -3.02265e-12
 1.17456e-11 -0.0575834 -3.56159e-12
 1.45908e-11 -0.0575834 -1.20371e-11
 2.5321e-11 -0.0575834 -3.43738e-11
 1.67247e-11 -0.0575834 -3.36801e-11
 1.48868e-11 -0.0575834 -1.69683e-11
 1.45564e-11 -0.0575834 2.18001e-12
 2.5033e-12 -0.0575834 -6.33353e-12
 8.9815e-13 -0.0575834 -1.78151e-11
 2.61342e-13 -0.0575834 -4.82416e-11
 -1.62755e-12 -0.0575834 -4.24413e-11
 -4.49629e-12 -0.0575834 -1.98331e-11
 -5.95538e-12 -0.0575834 1.13532e-11
 -8.17183e-12 -0.0472804 8.10722e-13
 -1.96793e-12 -0.0472804 -2.15758e-11
 1.71234e-12 -0.0472804 -3.97426e-11
 7.01868e-13 -0.0472804 -3.97108e-11
 9.97866e-13 -0.0472804 -1.98742e-11
 5.38259e-14 -0.0472804 4.49901e-12
 -3.96275e-12 -0.0472804 1.93275e-12
 4.01885e-12 -0.0472804 -1.94363e-11
 7.89394e-12 -0.0472804 -2.603e-11
 2.9661e-12 -0.0472804 -3.31783e-11
 4.76096e-12 -0.0472804 -1.51264e-11
 5.88254e-12 -0.0472804 3.22605e-12
 -3.84332e-13 -0.0472804 3.06079e-12
 6.4738e-12 -0.0472804 -8.32705e-12
 9.9658e-12 -0.0472804 -2.28971e-11
 3.87816e-12 -0.0472804 -2.54681e-11
 5.3638e-12 -0.0472804 -9.95469e-12
 8.37751e-12 -0.0472804 1.9539e-12
 -3.96573e-12 -0.0472804 -6.20541e-13
 4.25137e-12 -0.0472804 -1.09764e-11
 7.94331e-12 -0.0472804 -3.16377e-11
 5.42076e-14 -0.0472804 -3.00182e-11
 2.79147e-12 -0.0472804 -1.39992e-11
 5.54219e-12 -0.0472804 -4.7676e-13
 -4.32491e-12 -0.0472804 -1.42471e-12
 -6.06477e-13 -0.0472804 -8.74637e-12
 9.86232e-12 -0.0472804 -3.26529e-11
 6.74545e-12 -0.0472804 -2.99484e-11
 9.59099e-12 -0.0472804 -1.20725e-11
 1.24301e-11 -0.0472804 4.04326e-12
 7.2531e-12 -0.0472804 -6.98284e-12
 -4.7453e-13 -0.0472804 -8.22396e-12
 -4.37532e-13 -0.0472804 -3.05965e-11
 -3.41929e-12 -0.0472804 -2.98012e-11
 -3.69875e-12 -0.0472804 -1.42234e-11
 -3.59839e-12 -0.0472804 1.59623e-11
 -1.47173e-11 -0.0348434 -3.59787e-12
 -1.34118e-11 -0.0348434 -1.96046e-11
 -7.57941e-12 -0.0348434 -6.04489e-11
 -9.12635e-12 -0.0348434 -5.0358e-11
 -7.53426e-12 -0.0348434 -2.42154e-11
 -6.69308e-12 -0.0348434 1.01011e-11
 -1.16167e-11 -0.0348434 -2.57893e-12
 -1.15732e-12 -0.0348434 -1.46689e-11
 -2.38206e-12 -0.0348434 -5.18659e-11
 -4.56195e-12 -0.0348434 -4.1722e-11
 8.69035e-13 -0.0348434 -1.84484e-11
 5.52185e-12 -0.0348434 1.04867e-11
 -2.05091e-11 -0.0348434 -1.61439e-12
 -9.22261e-12 -0.0348434 -9.71057e-12
 6.42914e-12 -0.0348434 -4.32057e-11
 4.95961e-12 -0.0348434 -3.35817e-11
 1.06154e-11 -0.0348434 -1.19125e-11
 1.64202e-11 -0.0348434 1.0543e-11
 -2.39982e-11 -0.0348434 -4.59336e-12
 -9.66524e-12 -0.0348434 -1.20969e-11
 4.81396e-12 -0.0348434 -4.34909e-11
 4.6398e-12 -0.0348434 -3.47968e-11
 9.49873e-12 -0.0348434 -1.43642e-11
 1.56012e-11 -0.0348434 8.98138e-12
 -1.59573e-11 -0.0348434 -4.68473e-12
 -1.0283e-11 -0.0348434 -5.25716e-12
 -1.67946e-12 -0.0348434 -2.9516e-11
 -4.0005e-12 -0.0348434 -2.72633e-11
 -8.11586e-14 -0.0348434 -1.00137e-11
 3.98498e-12 -0.0348434 1.15673e-11
 5.39275e-12 -0.0348434 -4.15245e-12
 4.6022e-12 -0.0348434 -1.81301e-12
 3.53795e-12 -0.0348434 -1.67399e-11
 4.1012e-13 -0.0348434 -1.60849e-11
 1.24828e-12 -0.0348434 -1.02713e-11
 2.08003e-12 -0.0348434 1.90891e-11
 -1.22782e-11 -0.0178733 -2.73064e-12
 -1.00244e-11 -0.0178733 -1.84722e-11
 -5.57828e-12 -0.0178733 -4.96085e-11
 -6.09217e-12 -0.0178733 -4.1746e-11
 -4.93806e-12 -0.0178733 -2.07337e-11
 -3.24058e-12 -0.0178733 9.04138e-12
 -4.112e-12 -0.0178733 -3.09432e-12
 2.4117e-13 -0.0178733 -1.36259e-11
 2.88157e-12 -0.0178733 -4.55435e-11
 -9.4457e-13 -0.0178733 -3.62932e-11
 2.93352e-12 -0.0178733 -1.60363e-11
 7.60042e-12 -0.0178733 9.29522e-12
 -1.42069e-11 -0.0178733 -3.90871e-12
 -1.93132e-12 -0.0178733 -9.23239e-12
 8.05739e-12 -0.0178733 -4.04589e-11
 7.72779e-12 -0.0178733 -3.04396e-11
 1.23948e-11 -0.0178733 -1.19652e-11
 1.64523e-11 -0.0178733 9.664e-12
 -1.91397e-11 -0.0178733 -6.23395e-12
 -5.07931e-12 -0.0178733 -9.83059e-12
 9.99816e-12 -0.0178733 -4.03924e-11
 1.07702e-11 -0.0178733 -3.02579e-11
 1.63045e-11 -0.0178733 -1.4207e-11
 2.11454e-11 -0.0178733 7.21654e-12
 -1.30922e-11 -0.0178733 -5.12827e-12
 -7.48346e-12 -0.0178733 -3.1349e-12
 -1.35174e-12 -0.0178733 -2.71184e-11
 -2.59477e-12 -0.0178733 -2.20985e-11
 1.55209e-12 -0.0178733 -7.30162e-12
 5.01527e-12 -0.0178733 9.89047e-12
 5.18913e-12 -0.0178733 -4.78523e-12
 5.71655e-12 -0.0178733 2.42167e-12
 6.50415e-12 -0.0178733 -1.18237e-11
 4.44895e-12 -0.0178733 -1.2725e-11
 3.69412e-12 -0.0178733 -4.93311e-12
 3.59173e-12 -0.0178733 1.57575e-11
 -1.71357e-11 -0.0120175 6.85038e-13
 -1.16823e-11 -0.0120175 -1.4693e-11
 -6.41405e-12 -0.0120175 -1.97808e-11
 -9.30528e-12 -0.0120175 -2.33423e-11
 -6.73494e-12 -0.0120175 -1.66085e-11
 -2.25377e-12 -0.0120175 4.63615e-13
 -5.28701e-12 -0.0120175 5.28912e-13
 -1.85792e-12 -0.0120175 -6.49193e-12
 2.49334e-12 -0.0120175 -2.17835e-11
 -2.98762e-12 -0.0120175 -1.95442e-11
 3.63394e-12 -0.0120175 -1.32174e-11
 8.21486e-12 -0.0120175 3.84104e-12
 -2.33966e-12 -0.0120175 6.11078e-13
 1.47372e-12 -0.0120175 -3.61806e-12
 5.31512e-12 -0.0120175 -2.0843e-11
 1.56779e-12 -0.0120175 -1.64847e-11
 4.60004e-12 -0.0120175 -8.00624e-12
 7.61146e-12 -0.0120175 8.28701e-12
 -3.62775e-12 -0.0120175 -2.72713e-12
 1.11032e-12 -0.0120175 -6.43452e-12
 5.82948e-12 -0.0120175 -2.52061e-11
 1.80746e-12 -0.0120175 -2.04622e-11
 4.74918e-12 -0.0120175 -1.11426e-11
 9.07919e-12 -0.0120175 4.10428e-12
 -9.51558e-12 -0.0120175 -3.415e-12
 -4.95194e-12 -0.0120175 -2.25682e-12
 -9.26462e-13 -0.0120175 -1.87533e-11
 -3.45639e-12 -0.0120175 -1.51608e-11
 -7.56523e-13 -0.0120175 -5.35989e-12
 1.55864e-12 -0.0120175 7.02636e-12
 5.94349e-12 -0.0120175 -3.28705e-12
 5.33078e-12 -0.0120175 2.23143e-12
 4.51318e-12 -0.0120175 -1.22643e-11
 1.43717e-12 -0.0120175 -1.04549e-11
 2.53792e-12 -0.0120175 -2.37419e-12
 2.78507e-12 -0.0120175 1.21826e-11
 -1.70897e-11 -0.0114611 -8.48351e-12
 -1.09283e-11 -0.0114611 -5.48849e-12
 -6.11618e-12 -0.0114611 -4.51153e-12
 -1.08035e-11 -0.0114611 -8.34746e-12
 -4.35315e-12 -0.0114611 -6.3391e-12
 2.58634e-12 -0.0114611 -6.37136e-13
 -8.08781e-12 -0.0114611 3.07916e-12
 -3.8452e-12 -0.0114611 -6.28549e-12
 1.5858e-12 -0.0114611 -5.41734e-12
 -3.73969e-12 -0.0114611 -6.18175e-12
 2.56143e-12 -0.0114611 -2.18285e-12
 2.29081e-12 -0.0114611 -2.01463e-12
 3.52924e-12 -0.0114611 1.72177e-12
 3.39997e-12 -0.0114611 1.53077e-12
 3.50622e-12 -0.0114611 -5.06351e-12
 -4.12474e-12 -0.0114611 -1.98003e-12
 -4.20976e-12 -0.0114611 -4.69693e-12
 1.86088e-13 -0.0114611 4.28719e-12
 8.84933e-12 -0.0114611 -2.34738e-12
 6.38974e-12 -0.0114611 -2.42908e-12
 2.56446e-12 -0.0114611 -1.27966e-11
 -4.94003e-12 -0.0114611 -1.17055e-11
 -2.1508e-12 -0.0114611 -9.06487e-12
 1.14553e-12 -0.0114611 1.13981e-12
 -6.09069e-12 -0.0114611 -2.27965e-12
 -6.0041e-12 -0.0114611 -1.59814e-13
 -4.23171e-12 -0.0114611 -1.19341e-11
 -8.55119e-12 -0.0114611 -1.00469e-11
 -4.15433e-12 -0.0114611 -4.99674e-12
 7.0422e-13 -0.0114611 4.65586e-12
 6.80233e-12 -0.0114611 -2.88203e-12
 6.58627e-12 -0.0114611 1.8506e-12
 5.97175e-12 -0.0114611 -1.26561e-11
 2.42348e-12 -0.0114611 -8.01326e-12
 1.80886e-12 -0.0114611 -1.09324e-13
 1.82783e-12 -0.0114611 9.49203e-12
 -1.72095e-11 -0.0106172 -4.53796e-12
 -1.22679e-11 -0.0106172 -2.60295e-12
 -8.74485e-12 -0.0106172 4.76939e-13
 -1.16192e-11 -0.0106172 6.60013e-13
 -6.22508e-12 -0.0106172 -4.30091e-12
 2.53979e-12 -0.0106172 5.89452e-13
 -7.80648e-12 -0.0106172 -3.64573e-13
 -5.90153e-12 -0.0106172 4.11711e-13
 -2.43324e-13 -0.0106172 1.8091e-13
 -5.28119e-12 -0.0106172 1.10659e-12
 1.90839e-13 -0.0106172 -1.30408e-12
 -3.88324e-12 -0.0106172 -5.13326e-13
 3.64439e-12 -0.0106172 1.24929e-14
 1.62361e-12 -0.0106172 2.95536e-12
 -2.01603e-12 -0.0106172 -1.03298e-13
 -6.43314e-12 -0.0106172 2.78317e-12
 -6.59594e-12 -0.0106172 -4.17946e-13
 -3.15098e-12 -0.0106172 3.52037e-12
 9.42411e-12 -0.0106172 -3.19612e-12
 4.35373e-12 -0.0106172 8.82206e-13
 -1.94246e-12 -0.0106172 -4.71766e-12
 -5.33827e-12 -0.0106172 -8.18386e-13
 -3.72493e-12 -0.0106172 -5.52651e-12
 -3.61164e-13 -0.0106172 2.36e-12
 -6.59458e-12 -0.0106172 -3.63875e-12
 -7.0145e-12 -0.0106172 2.03995e-12
 -6.2223e-12 -0.0106172 -6.28083e-12
 -8.68666e-12 -0.0106172 -4.08428e-12
 -5.93154e-12 -0.0106172 -4.09659e-13
 -1.76667e-12 -0.0106172 6.39687e-12
 5.13974e-12 -0.0106172 -2.99576e-12
 4.52624e-12 -0.0106172 1.55863e-12
 3.21185e-12 -0.0106172 -8.33635e-12
 1.62804e-12 -0.0106172 -3.83586e-12
 1.78747e-12 -0.0106172 2.02978e-12
 1.35193e-12 -0.0106172 1.06416e-11
 -1.05617e-11 -0.00497943 -5.57614e-12
 -7.07264e-12 -0.00497943 4.3529e-12
 -5.09618e-12 -0.00497943 1.32112e-11
 -8.64066e-12 -0.00497943 1.41824e-11
 -1.46263e-12 -0.00497943 3.19072e-12
 1.79609e-12 -0.00497943 2.83379e-12
 1.25116e-12 -0.00497943 -1.24051e-12
 -1.06604e-12 -0.00497943 6.201e-12
 3.26692e-12 -0.00497943 1.23021e-11
 -1.53744e-12 -0.00497943 9.10999e-12
 -1.03412e-12 -0.00497943 8.13673e-12
 -1.93232e-12 -0.00497943 1.81514e-12
 7.01421e-12 -0.00497943 1.18718e-12
 4.83096e-12 -0.00497943 7.41251e-12
 4.39227e-13 -0.00497943 1.06778e-11
 -3.08097e-12 -0.00497943 1.15854e-11
 -3.23588e-12 -0.00497943 7.3225e-12
 7.99857e-13 -0.00497943 2.26802e-12
 1.50824e-11 -0.00497943 -8.19565e-13
 9.31292e-12 -0.00497943 4.95128e-12
 1.15638e-12 -0.00497943 6.96572e-12
 -2.47129e-12 -0.00497943 6.8615e-12
 -1.35553e-12 -0.00497943 5.42465e-12
 -6.54042e-13 -0.00497943 -2.41568e-12
 -1.64017e-12 -0.00497943 -9.09653e-13
 -1.62174e-12 -0.00497943 3.99479e-12
 -3.58241e-13 -0.00497943 4.70283e-12
 -3.39778e-12 -0.00497943 6.15133e-12
 -2.88075e-12 -0.00497943 4.43031e-13
 -2.04762e-13 -0.00497943 4.94038e-12
 5.25709e-12 -0.00497943 -2.31348e-12
 4.7127e-12 -0.00497943 5.29807e-12
 2.38017e-12 -0.00497943 5.68161e-13
 1.45722e-12 -0.00497943 4.95674e-12
 1.83427e-12 -0.00497943 3.44089e-12
 1.59882e-12 -0.00497943 5.72738e-12
 -4.92294e-12 -0.000272859 -5.00844e-12
 -1.03149e-12 -0.000272859 8.75621e-12
 -1.43061e-13 -0.000272859 2.29565e-11
 -2.33477e-12 -0.000272859 2.3562e-11
 1.89086e-12 -0.000272859 9.41956e-12
 1.1105e-12 -0.000272859 4.52968e-12
 6.46223e-12 -0.000272859 -1.64717e-12
 3.81295e-12 -0.000272859 1.08606e-11
 4.36451e-12 -0.000272859 1.98397e-11
 -4.29665e-13 -0.000272859 2.05444e-11
 -2.55944e-12 -0.000272859 1.12545e-11
 -8.07344e-13 -0.000272859 3.59047e-12
 1.1353e-11 -0.000272859 -1.51898e-13
 7.03955e-12 -0.000272859 1.1723e-11
 3.8831e-12 -0.000272859 1.96781e-11
 -5.14305e-13 -0.000272859 1.61999e-11
 3.00902e-13 -0.000272859 1.45667e-11
 2.22434e-12 -0.000272859 2.65385e-12
 1.85892e-11 -0.000272859 -1.48268e-13
 1.28033e-11 -0.000272859 6.58984e-12
 3.64389e-12 -0.000272859 1.51729e-11
 -3.85037e-13 -0.000272859 1.12822e-11
 -1.39688e-13 -0.000272859 1.20564e-11
 3.08383e-13 -0.000272859 4.42674e-13
 5.07342e-12 -0.000272859 -5.65982e-13
 2.06808e-12 -0.000272859 6.44997e-12
 2.52907e-13 -0.000272859 1.16636e-11
 -2.14722e-12 -0.000272859 1.05769e-11
 -3.13694e-13 -0.000272859 1.12952e-11
 1.94191e-12 -0.000272859 -7.78752e-13
 2.64295e-12 -0.000272859 2.55202e-13
 2.59308e-12 -0.000272859 6.44523e-12
 3.37311e-12 -0.000272859 8.89964e-12
 1.95915e-12 -0.000272859 7.84776e-12
 2.15035e-12 -0.000272859 4.94679e-12
 1.73294e-12 -0.000272859 3.49298e-12
 -7.57158e-12 -0.000630674 -5.66162e-12
 -3.82841e-12 -0.000630674 8.02478e-12
 -2.92661e-12 -0.000630674 1.92708e-11
 -2.76613e-12 -0.000630674 1.94962e-11
 -9.16703e-13 -0.000630674 7.50437e-12
 -7.68807e-13 -0.000630674 3.22026e-12
 1.85197e-12 -0.000630674 -1.36054e-12
 -2.12392e-12 -0.000630674 9.44419e-12
 -1.165e-12 -0.000630674 1.77287e-11
 -4.2312e-12 -0.000630674 1.78269e-11
 -3.05249e-12 -0.000630674 9.10377e-12
 -1.44288e-12 -0.000630674 3.19748e-12
 4.6095e-12 -0.000630674 -3.9426e-13
 2.86054e-12 -0.000630674 1.09449e-11
 3.82554e-13 -0.000630674 1.81186e-11
 -2.69882e-12 -0.000630674 1.73059e-11
 -7.93475e-13 -0.000630674 1.08794e-11
 -2.49449e-14 -0.000630674 3.17211e-12
 9.06707e-12 -0.000630674 -1.60026e-13
 4.35063e-12 -0.000630674 8.95183e-12
 -6.41232e-13 -0.000630674 1.53921e-11
 -3.10753e-12 -0.000630674 1.26052e-11
 -3.2377e-12 -0.000630674 1.14996e-11
 -1.49385e-12 -0.000630674 1.9258e-12
 -5.60511e-13 -0.000630674 -2.46123e-13
 -1.64837e-12 -0.000630674 8.91561e-12
 -1.65508e-12 -0.000630674 1.42465e-11
 -1.50458e-12 -0.000630674 1.0327e-11
 -1.96452e-12 -0.000630674 1.11919e-11
 1.39291e-14 -0.000630674 1.95866e-12
 -3.73621e-13 -0.000630674 7.39856e-13
 7.65981e-13 -0.000630674 7.62748e-12
 -2.64455e-13 -0.000630674 1.11737e-11
 -1.7592e-12 -0.000630674 9.40841e-12
 6.54269e-13 -0.000630674 8.56811e-12
 1.16251e-12 -0.000630674 5.05415e-12
 8.8947e-13 -0.00227744 -1.29697e-12
 3.38733e-13 -0.00227744 5.57966e-12
 -2.12003e-13 -0.00227744 9.09469e-12
 -8.113e-13 -0.00227744 7.62818e-12
 -8.37287e-13 -0.00227744 5.86226e-12
 -8.63273e-13 -0.00227744 1.59724e-12
 1.97012e-12 -0.00227744 -2.10525e-12
 1.05141e-12 -0.00227744 6.36848e-12
 -1.20109e-12 -0.00227744 9.19462e-12
 -1.98693e-12 -0.00227744 6.99392e-12
 -9.35321e-13 -0.00227744 6.76623e-12
 8.789e-13 -0.00227744 1.52714e-12
 3.50315e-12 -0.00227744 -8.19469e-13
 1.50099e-12 -0.00227744 5.06446e-12
 1.08491e-12 -0.00227744 8.74031e-12
 -4.2295e-14 -0.00227744 6.47763e-12
 -2.12567e-13 -0.00227744 8.11571e-12
 -1.1112e-12 -0.00227744 1.44652e-12
 2.68605e-12 -0.00227744 -1.18834e-12
 1.17918e-12 -0.00227744 4.66898e-12
 -5.19795e-13 -0.00227744 7.68541e-12
 -1.29968e-12 -0.00227744 5.58781e-12
 -1.92607e-12 -0.00227744 7.2292e-12
 -2.39764e-12 -0.00227744 1.15255e-12
 1.57898e-12 -0.00227744 -1.96532e-12
 1.10325e-12 -0.00227744 4.43458e-12
 -1.10889e-12 -0.00227744 6.07424e-12
 -1.35508e-12 -0.00227744 4.44669e-12
 2.2578e-13 -0.00227744 6.16888e-12
 8.39258e-13 -0.00227744 8.35923e-13
 2.16582e-12 -0.00227744 -2.1795e-12
 1.51663e-12 -0.00227744 3.23299e-12
 2.54311e-12 -0.00227744 4.81331e-12
 2.21366e-12 -0.00227744 3.29555e-12
 1.58706e-12 -0.00227744 5.17518e-12
 1.73837e-12 -0.00227744 5.16665e-13
 -1.60469e-13 -0.00345397 4.67321e-13
 -5.26072e-13 -0.00345397 1.54555e-12
 -8.91675e-13 -0.00345397 8.10943e-13
 -6.10644e-13 -0.00345397 2.51848e-12
 -7.74376e-13 -0.00345397 2.64647e-12
 -9.38109e-13 -0.00345397 1.94346e-12
 4.41164e-12 -0.00345397 -4.16719e-14
 3.44051e-12 -0.00345397 1.4754e-12
 2.46946e-12 -0.00345397 2.14342e-12
 2.39166e-12 -0.00345397 1.10542e-12
 1.79639e-12 -0.00345397 1.93067e-12
 1.20138e-12 -0.00345397 5.85121e-13
 -1.61944e-12 -0.00345397 -1.38296e-12
 -1.68751e-12 -0.00345397 1.85651e-14
 -2.00094e-12 -0.00345397 2.40993e-12
 -2.05014e-12 -0.00345397 3.92805e-12
 -1.41723e-12 -0.00345397 -8.90894e-13
 -2.59612e-12 -0.00345397 3.81839e-13
 1.60458e-12 -0.00345397 -1.96876e-12
 2.83853e-13 -0.00345397 1.58327e-12
 5.95243e-13 -0.00345397 1.60796e-12
 2.22412e-12 -0.00345397 2.85174e-12
 4.34217e-13 -0.00345397 6.30356e-13
 -5.39666e-13 -0.00345397 5.62733e-13
 5.13605e-12 -0.00345397 -3.07447e-12
 3.04275e-12 -0.00345397 -8.51011e-15
 1.02867e-12 -0.00345397 7.4665e-13
 1.81901e-12 -0.00345397 1.3116e-12
 1.01102e-12 -0.00345397 -1.54817e-13
 6.11894e-13 -0.00345397 2.61942e-13
 7.98996e-12 -0.00345397 -2.90201e-12
 7.13572e-12 -0.00345397 -2.98619e-12
 4.81563e-12 -0.00345397 -4.72601e-13
 3.0737e-12 -0.00345397 1.88141e-12
 2.5669e-12 -0.00345397 -2.59206e-12
 2.647e-12 -0.00345397 -3.0995e-14
 -2.09693e-12 -0.00365309 -1.10403e-12
 -1.99492e-12 -0.00365309 -1.31707e-12
 -1.89291e-12 -0.00365309 -2.84081e-12
 -8.18513e-13 -0.00365309 -2.45243e-12
 -7.81477e-13 -0.00365309 4.19754e-14
 -7.44441e-13 -0.00365309 1.98799e-12
 2.71259e-12 -0.00365309 -1.21196e-12
 2.17791e-12 -0.00365309 -1.78238e-12
 1.64336e-12 -0.00365309 -1.42153e-12
 2.6276e-12 -0.00365309 -2.1172e-12
 1.9642e-12 -0.00365309 -3.92719e-13
 9.42518e-13 -0.00365309 -6.59563e-13
 -5.59299e-12 -0.00365309 -2.09238e-12
 -3.83645e-12 -0.00365309 -1.90222e-12
 -3.17934e-12 -0.00365309 -1.59119e-12
 -1.59281e-12 -0.00365309 -1.44964e-12
 -6.63996e-13 -0.00365309 -2.00286e-12
 -1.03666e-12 -0.00365309 -4.48732e-13
 -1.24551e-12 -0.00365309 -1.44346e-12
 -2.57067e-12 -0.00365309 -4.20436e-13
 -1.0229e-13 -0.00365309 2.85828e-13
 1.82226e-12 -0.00365309 3.05759e-13
 1.00557e-12 -0.00365309 2.51944e-13
 -2.28014e-13 -0.00365309 1.03136e-12
 3.37306e-12 -0.00365309 -2.60186e-12
 8.42211e-13 -0.00365309 -3.49366e-13
 2.556e-13 -0.00365309 -1.35974e-12
 3.01909e-12 -0.00365309 8.92075e-13
 1.26279e-12 -0.00365309 -1.62166e-12
 7.72801e-13 -0.00365309 1.03367e-12
 6.89304e-12 -0.00365309 -2.33495e-12
 7.04497e-12 -0.00365309 -2.71919e-12
 2.55855e-12 -0.00365309 -2.22785e-12
 3.71545e-12 -0.00365309 7.86088e-13
 2.46917e-12 -0.00365309 -2.5779e-12
 2.03356e-12 -0.00365309 1.04907e-12
 -1.46095e-12 -0.00231813 -2.35528e-12
 -1.4328e-12 -0.00231813 -3.21886e-13
 -1.40465e-12 -0.00231813 -5.05269e-12
 -3.95987e-13 -0.00231813 -2.42256e-12
 -5.06146e-13 -0.00231813 4.08726e-13
 -6.16304e-13 -0.00231813 1.90316e-12
 3.02546e-12 -0.00231813 -1.87686e-12
 2.30493e-12 -0.00231813 -2.12983e-12
 1.58551e-12 -0.00231813 -4.69648e-12
 2.69213e-12 -0.00231813 -3.88396e-12
 -3.00972e-13 -0.00231813 -2.28241e-12
 6.02668e-13 -0.00231813 2.51225e-12
 -4.22323e-12 -0.00231813 -2.4729e-12
 -3.0959e-12 -0.00231813 -3.2601e-12
 -2.12757e-12 -0.00231813 -2.71572e-12
 8.34419e-14 -0.00231813 -4.81127e-12
 9.60273e-13 -0.00231813 -2.78222e-12
 -2.05808e-12 -0.00231813 -8.31376e-13
 -4.58132e-13 -0.00231813 -2.74014e-12
 4.88209e-13 -0.00231813 -8.69247e-13
 1.19886e-13 -0.00231813 -2.04611e-12
 1.85282e-12 -0.00231813 -1.59506e-12
 5.80939e-13 -0.00231813 -2.68488e-12
 -6.54404e-13 -0.00231813 7.79398e-13
 5.08166e-12 -0.00231813 -2.60218e-12
 2.32527e-12 -0.00231813 -3.03082e-12
 4.17912e-13 -0.00231813 -3.1773e-12
 1.05251e-12 -0.00231813 -2.26029e-12
 1.19238e-12 -0.00231813 -3.05231e-12
 -1.20994e-12 -0.00231813 5.81082e-13
 6.44566e-12 -0.00231813 -2.8261e-12
 4.1865e-12 -0.00231813 -5.17082e-12
 2.55065e-12 -0.00231813 -4.52374e-12
 3.56657e-12 -0.00231813 -1.88765e-12
 1.6581e-12 -0.00231813 -4.07341e-12
 2.253e-12 -0.00231813 5.5422e-13
 -9.34312e-13 -6.81932e-05 -2.96019e-12
 -9.67324e-13 -6.81931e-05 -1.46139e-13
 -1.00034e-12 -6.81929e-05 -6.44842e-12
 -4.61024e-14 -6.81929e-05 -3.05566e-12
 -2.78151e-13 -6.81928e-05 -1.97304e-14
 -1.35973e-12 -6.81927e-05 3.00424e-12
 2.97242e-12 -6.8193e-05 -2.71632e-12
 2.06407e-12 -6.81929e-05 -1.57207e-12
 1.15315e-12 -6.81928e-05 -7.20207e-12
 1.72321e-12 -6.81928e-05 -4.95923e-12
 8.57301e-13 -6.81927e-05 -2.28191e-12
 -1.40287e-12 -6.81926e-05 2.42309e-12
 -3.10749e-12 -6.81928e-05 -2.94298e-12
 -1.63743e-12 -6.81928e-05 -2.49526e-12
 -6.65359e-13 -6.81927e-05 -7.3844e-12
 1.01066e-12 -6.81927e-05 -6.84188e-12
 -9.89703e-13 -6.81925e-05 -2.97872e-12
 -3.25672e-13 -6.81924e-05 -3.47761e-13
 3.68217e-13 -6.81927e-05 -1.95185e-12
 -1.06309e-13 -6.81927e-05 -2.59004e-12
 8.55587e-13 -6.81927e-05 -3.57465e-12
 1.98894e-12 -6.81927e-05 -5.22104e-12
 1.04893e-12 -6.81926e-05 -3.83281e-12
 -1.90153e-12 -6.81925e-05 4.23184e-13
 5.62077e-12 -6.81926e-05 -3.45001e-12
 3.82426e-12 -6.81927e-05 -4.13327e-12