MercuryDPM 0.14 name oneDimChain revision 6406 repository https://svn.mercurydpm.org/SourceCode/Branches/OomphlibCouplingExplicit
dataFile    fileType ONE_FILE saveCount 92 counter 54 lastSavedTimeStep 4876
fStatFile   fileType ONE_FILE saveCount 92 counter 54 lastSavedTimeStep 4876
eneFile     fileType ONE_FILE saveCount 92 counter 54 lastSavedTimeStep 4876
restartFile fileType ONE_FILE saveCount 92 counter 54 lastSavedTimeStep 4876
statFile    fileType ONE_FILE saveCount 92 counter 0
interactionFile fileType NO_FILE saveCount 0 counter 0
xMin -500 xMax 500 yMin -5000 yMax 5000 zMin -500 zMax 500
timeStep 0.0107162522263564 time 52.2524458557179 ntimeSteps 4876 timeMax 100
systemDimensions 3 particleDimensions 3 gravity 0 0 -0 writeVTK 1 MULTIPLE_FILES NO_FILE 54 54 0 0 random  0 1103515245 12345 1073741824 607 273 784607267
Species 1
LinearViscoelasticReversibleAdhesiveSpecies id 0 density 2500 stiffness 13333333333.3333 dissipation -0 adhesionForceMax 0 adhesionStiffness 13333333333.3333
Walls 0
Boundaries 0
Particles 3240
BaseParticle id 0 indSpecies 0 position -333.333333333526 2066.317930782 -333.333333333483 orientation 1 0 0 0 velocity -4.43497342554426e-12 -0.000926026215386507 9.62051497347293e-12 angularVelocity 0 0 0 force 0.0544993371146955 604411.864887288 0.0530931558107381 torque 0 0 0 radius 66.6666666666667 invMass 3.22288759761088e-10
BaseParticle id 1 indSpecies 0 position -333.333333333372 2066.31793078143 -200.000000000075 orientation 1 0 0 0 velocity 9.64474080774178e-12 -0.000926026235550748 -5.52676439611979e-11 angularVelocity 0 0 0 force 0.0310321576106525 604412.72240844 0.13643149947605 torque 0 0 0 radius 66.6666666666667 invMass 3.22288759761088e-10
BaseParticle id 2 indSpecies 0 position -333.333333333417 2066.31793078079 -66.6666666666529 orientation 1 0 0 0 velocity -2.33395046230059e-11 -0.000926026266016717 2.88687683188734e-11 angularVelocity 0 0 0 force 0.00756497810647225 604413.57992601 -0.0943847850954765 torque 0 0 0 radius 66.6666666666667 invMass 3.22288759761088e-10
BaseParticle id 3 indSpecies 0 position -333.333333333424 2066.31793078077 66.6666666666569 orientation 1 0 0 0 velocity -2.10288978240538e-11 -0.000926025999285798 3.43863756535986e-11 angularVelocity 0 0 0 force 0.0218751098109766 604413.414868108 0.199490753945266 torque 0 0 0 radius 66.6666666666667 invMass 3.22288759761088e-10
BaseParticle id 4 indSpecies 0 position -333.333333333443 2066.31793078126 199.999999999973 orientation 1 0 0 0 velocity -3.15720686795885e-11 -0.000926026338345849 -7.44266367021199e-11 angularVelocity 0 0 0 force 0.0157763194891163 604412.500299022 0.245537595350669 torque 0 0 0 radius 66.6666666666667 invMass 3.22288759761088e-10
BaseParticle id 5 indSpecies 0 position -333.333333333492 2066.31793078179 333.333333333476 orientation 1 0 0 0 velocity 4.68888411233984e-13 -0.000926026668902562 3.47027354807175e-11 angularVelocity 0 0 0 force 0.00967752916727194 604411.585731405 -0.0911612502398099 torque 0 0 0 radius 66.6666666666667 invMass 3.22288759761088e-10
BaseParticle id 6 indSpecies 0 position -199.999999999995 2066.31793078147 -333.333333333379 orientation 1 0 0 0 velocity -2.43960099659706e-11 -0.000926026233245491 -3.88816912042525e-11 angularVelocity 0 0 0 force 0.073964776589564 604413.824210971 -0.512198171718437 torque 0 0 0 radius 66.6666666666667 invMass 3.22288759761088e-10
BaseParticle id 7 indSpecies 0 position -200.000000000017 2066.31793078105 -200.000000000084 orientation 1 0 0 0 velocity -2.46735769080004e-12 -0.000926026265101527 -6.1004109906827e-12 angularVelocity 0 0 0 force 0.0182337521771367 604414.265540176 0.571155811360416 torque 0 0 0 radius 66.6666666666667 invMass 3.22288759761088e-10
BaseParticle id 8 indSpecies 0 position -199.999999999991 2066.31793078122 -66.6666666667123 orientation 1 0 0 0 velocity 4.47858345363408e-11 -0.00092602621631931 8.25545969539026e-12 angularVelocity 0 0 0 force -0.0374972722352631 604414.706899625 0.115190011688456 torque 0 0 0 radius 66.6666666666667 invMass 3.22288759761088e-10
BaseParticle id 9 indSpecies 0 position -200.000000000059 2066.31793078107 66.6666666666672 orientation 1 0 0 0 velocity 6.22709480016563e-12 -0.00092602610193274 5.72508680168162e-11 angularVelocity 0 0 0 force -0.0453152490207703 604414.405464491 -0.454850260043549 torque 0 0 0 radius 66.6666666666667 invMass 3.22288759761088e-10
BaseParticle id 10 indSpecies 0 position -200.00000000003 2066.31793078091 199.999999999962 orientation 1 0 0 0 velocity 3.27674585589551e-11 -0.000926026419172276 4.59513777416237e-11 angularVelocity 0 0 0 force -0.0110765435618809 604413.876887736 0.464817630602046 torque 0 0 0 radius 66.6666666666667 invMass 3.22288759761088e-10
BaseParticle id 11 indSpecies 0 position -199.999999999995 2066.31793078107 333.333333333503 orientation 1 0 0 0 velocity 2.0334190833885e-11 -0.000926026693810994 3.81949954415166e-11 angularVelocity 0 0 0 force 0.0231621618967152 604413.348327885 -0.144602446108316 torque 0 0 0 radius 66.6666666666667 invMass 3.22288759761088e-10
BaseParticle id 12 indSpecies 0 position -66.6666666666337 2066.31793078075 -333.333333333362 orientation 1 0 0 0 velocity -1.91668033954023e-11 -0.000926026277884188 1.59132047799957e-11 angularVelocity 0 0 0 force -0.0316253054293852 604415.783524859 -0.277892073939272 torque 0 0 0 radius 66.6666666666667 invMass 3.22288759761088e-10
BaseParticle id 13 indSpecies 0 position -66.6666666666327 2066.31793078121 -200.000000000046 orientation 1 0 0 0 velocity -4.58283164712419e-11 -0.000926026219881902 1.53547278689799e-11 angularVelocity 0 0 0 force -0.093472202074164 604415.808699527 0.20628269793575 torque 0 0 0 radius 66.6666666666667 invMass 3.22288759761088e-10
BaseParticle id 14 indSpecies 0 position -66.6666666666484 2066.31793078173 -66.6666666666553 orientation 1 0 0 0 velocity 5.67356536725903e-12 -0.000926026156960135 1.3894580865835e-10 angularVelocity 0 0 0 force -0.179193334640316 604415.833877429 -0.0397909844879209 torque 0 0 0 radius 66.6666666666667 invMass 3.22288759761088e-10
BaseParticle id 15 indSpecies 0 position -66.6666666666142 2066.31793078159 66.6666666666742 orientation 1 0 0 0 velocity -2.21249078167388e-11 -0.000926026173512301 5.81704748126841e-11 angularVelocity 0 0 0 force -0.112505607852177 604415.396071915 -0.350521110303476 torque 0 0 0 radius 66.6666666666667 invMass 3.22288759761088e-10
BaseParticle id 16 indSpecies 0 position -66.6666666666152 2066.31793078106 199.999999999978 orientation 1 0 0 0 velocity 2.14283345574005e-11 -0.000926026431790272 -4.18966094720295e-12 angularVelocity 0 0 0 force -0.51579308116964 604415.253502761 0.289983295085112 torque 0 0 0 radius 66.6666666666667 invMass 3.22288759761088e-10
BaseParticle id 17 indSpecies 0 position -66.6666666665956 2066.31793078055 333.333333333427 orientation 1 0 0 0 velocity 1.18411380732333e-11 -0.00092602669050688 7.23990874317618e-12 angularVelocity 0 0 0 force 0.0366467946263662 604415.110934269 -0.198043641976743 torque 0 0 0 radius 66.6666666666667 invMass 3.22288759761088e-10
BaseParticle id 18 indSpecies 0 position 66.6666666666902 2066.31793078121 -333.333333333364 orientation 1 0 0 0 velocity 1.6556381298571e-11 -0.000926025632464144 1.04989276396073e-11 angularVelocity 0 0 0 force 0.110042006278792 604414.803098809 -0.195949819084029 torque 0 0 0 radius 66.6666666666667 invMass 3.22288759761088e-10
BaseParticle id 19 indSpecies 0 position 66.6666666666932 2066.31793078087 -200.000000000041 orientation 1 0 0 0 velocity -4.11953041923556e-11 -0.000926025699077103 8.81365704374988e-12 angularVelocity 0 0 0 force -0.22702053664163 604414.93729355 0.0683393215645978 torque 0 0 0 radius 66.6666666666667 invMass 3.22288759761088e-10
BaseParticle id 20 indSpecies 0 position 66.6666666666777 2066.31793078075 -66.6666666666621 orientation 1 0 0 0 velocity 9.48260794468152e-12 -0.000926025732214994 9.70297478015646e-11 angularVelocity 0 0 0 force 0.0517206247631447 604415.071499977 -0.27445925122016 torque 0 0 0 radius 66.6666666666667 invMass 3.22288759761088e-10
BaseParticle id 21 indSpecies 0 position 66.6666666667281 2066.31793078047 66.666666666657 orientation 1 0 0 0 velocity 8.75680656642237e-12 -0.000926025733880948 3.0735845516893e-11 angularVelocity 0 0 0 force -0.0972360379716209 604415.297842505 -0.161332360960026 torque 0 0 0 radius 66.6666666666667 invMass 3.22288759761088e-10
BaseParticle id 22 indSpecies 0 position 66.6666666666823 2066.31793078053 199.999999999965 orientation 1 0 0 0 velocity -3.23941821231306e-11 -0.00092602600655956 1.46370161750869e-11 angularVelocity 0 0 0 force 0.397216524056903 604414.786538117 0.248589613381611 torque 0 0 0 radius 66.6666666666667 invMass 3.22288759761088e-10
BaseParticle id 23 indSpecies 0 position 66.6666666667684 2066.31793078072 333.333333333449 orientation 1 0 0 0 velocity 3.66260043223895e-11 -0.000926026265829674 2.26320888903584e-11 angularVelocity 0 0 0 force -0.653335038551041 604414.27524084 -0.162307380626442 torque 0 0 0 radius 66.6666666666667 invMass 3.22288759761088e-10
BaseParticle id 24 indSpecies 0 position 200.000000000068 2066.31793078056 -333.33333333337 orientation 1 0 0 0 velocity 1.31669746035626e-11 -0.000926026228095636 -6.33373222676268e-11 angularVelocity 0 0 0 force -0.0167462799294969 604413.880842548 -0.179455883258107 torque 0 0 0 radius 66.6666666666667 invMass 3.22288759761088e-10
BaseParticle id 25 indSpecies 0 position 200.000000000004 2066.31793078056 -200.000000000048 orientation 1 0 0 0 velocity -1.82821900086161e-11 -0.000926026217454223 5.81855166888372e-11 angularVelocity 0 0 0 force 0.261811790554466 604414.998375884 0.127279395460492 torque 0 0 0 radius 66.6666666666667 invMass 3.22288759761088e-10
BaseParticle id 26 indSpecies 0 position 200.000000000074 2066.31793078103 -66.6666666666456 orientation 1 0 0 0 velocity -4.180182235041e-11 -0.000926026143306191 7.21032236678019e-11 angularVelocity 0 0 0 force -0.167899137967266 604416.115933032 -0.00936399293526262 torque 0 0 0 radius 66.6666666666667 invMass 3.22288759761088e-10
BaseParticle id 27 indSpecies 0 position 200.000000000071 2066.31793078081 66.6666666666946 orientation 1 0 0 0 velocity -8.08044875663859e-11 -0.000926026109128099 9.91590600039785e-11 angularVelocity 0 0 0 force -0.317982657934521 604416.213842164 -0.399762174214601 torque 0 0 0 radius 66.6666666666667 invMass 3.22288759761088e-10
BaseParticle id 28 indSpecies 0 position 200.000000000093 2066.3179307804 199.999999999998 orientation 1 0 0 0 velocity 6.25619898965422e-11 -0.000926026376151916 6.38369005228669e-12 angularVelocity 0 0 0 force -0.273436596020118 604415.696566097 0.33716826657467 torque 0 0 0 radius 66.6666666666667 invMass 3.22288759761088e-10
BaseParticle id 29 indSpecies 0 position 200.000000000058 2066.31793078031 333.333333333394 orientation 1 0 0 0 velocity 5.76777976506857e-11 -0.000926026602441276 3.34150204132673e-13 angularVelocity 0 0 0 force 0.309227164443132 604415.179306475 -0.129844904108477 torque 0 0 0 radius 66.6666666666667 invMass 3.22288759761088e-10
BaseParticle id 30 indSpecies 0 position 333.333333333413 2066.31793077986 -333.333333333504 orientation 1 0 0 0 velocity -4.89119369710074e-11 -0.000926026827222496 2.85914384708474e-11 angularVelocity 0 0 0 force -0.0184790446440268 604412.958583751 -0.00645306750201741 torque 0 0 0 radius 66.6666666666667 invMass 3.22288759761088e-10
BaseParticle id 31 indSpecies 0 position 333.33333333338 2066.31793078079 -200.000000000016 orientation 1 0 0 0 velocity 5.39699970274774e-11 -0.000926026660304554 1.21811832585355e-12 angularVelocity 0 0 0 force -0.0383425360375291 604415.059485833 0.0297105894264123 torque 0 0 0 radius 66.6666666666667 invMass 3.22288759761088e-10
BaseParticle id 32 indSpecies 0 position 333.333333333398 2066.3179307815 -66.6666666666077 orientation 1 0 0 0 velocity -1.59504512771953e-11 -0.000926026526782141 4.67632083554988e-11 angularVelocity 0 0 0 force 0.058133503170891 604417.16037621 0.00220961723020097 torque 0 0 0 radius 66.6666666666667 invMass 3.22288759761088e-10
BaseParticle id 33 indSpecies 0 position 333.333333333387 2066.31793078123 66.6666666667209 orientation 1 0 0 0 velocity 4.54291568670533e-11 -0.000926026471430925 9.52702804389193e-11 angularVelocity 0 0 0 force 0.141118011677998 604417.129845848 -0.320626754100132 torque 0 0 0 radius 66.6666666666667 invMass 3.22288759761088e-10
BaseParticle id 34 indSpecies 0 position 333.333333333413 2066.31793078057 200.000000000024 orientation 1 0 0 0 velocity -2.10028247488795e-11 -0.000926026705554972 -4.56542751334474e-12 angularVelocity 0 0 0 force 0.0681020957508371 604416.606609309 0.361703334517924 torque 0 0 0 radius 66.6666666666667 invMass 3.22288759761088e-10
BaseParticle id 35 indSpecies 0 position 333.333333333377 2066.31793077987 333.333333333417 orientation 1 0 0 0 velocity 1.45597352501668e-13 -0.000926026941403108 -6.00263126357415e-12 angularVelocity 0 0 0 force 0.0462452567981328 604416.083371136 -0.0973824275896861 torque 0 0 0 radius 66.6666666666667 invMass 3.22288759761088e-10
BaseParticle id 36 indSpecies 0 position -333.333333333436 2199.70228957486 -333.33333333334 orientation 1 0 0 0 velocity -2.11788886388928e-12 -0.00120255234413446 5.08746020645022e-11 angularVelocity 0 0 0 force 0.00764075378436449 2269164.48870304 0.0329268362149264 torque 0 0 0 radius 66.6666666666667 invMass 3.22288759761088e-10
BaseParticle id 37 indSpecies 0 position -333.333333333452 2199.70228957432 -199.999999999997 orientation 1 0 0 0 velocity -2.09890589760257e-11 -0.00120255247206318 -1.54931132330895e-11 angularVelocity 0 0 0 force 0.000842451290280086 2269166.24470922 -0.21921075384095 torque 0 0 0 radius 66.6666666666667 invMass 3.22288759761088e-10
BaseParticle id 38 indSpecies 0 position -333.333333333408 2199.70228957377 -66.6666666666855 orientation 1 0 0 0 velocity -1.96799046584826e-11 -0.00120255249088721 7.82788983198187e-12 angularVelocity 0 0 0 force -0.00595432333528604 2269168.7436937 0.405176627434917 torque 0 0 0 radius 66.6666666666667 invMass 3.22288759761088e-10
BaseParticle id 39 indSpecies 0 position -333.333333333297 2199.70228957391 66.6666666666533 orientation 1 0 0 0 velocity 1.5994067237838e-11 -0.0012025524982409 -1.36841800097278e-11 angularVelocity 0 0 0 force -0.0399586029075065 2269167.17648559 0.0579650143387514 torque 0 0 0 radius 66.6666666666667 invMass 3.22288759761088e-10
BaseParticle id 40 indSpecies 0 position -333.33333333345 2199.70228957395 200.000000000001 orientation 1 0 0 0 velocity -1.14524206807912e-11 -0.00120255262703814 -1.16619742800797e-12 angularVelocity 0 0 0 force 0.0103133051360626 2269167.25940909 -0.00583036302594742 torque 0 0 0 radius 66.6666666666667 invMass 3.22288759761088e-10
BaseParticle id 41 indSpecies 0 position -333.333333333425 2199.70228957387 333.333333333346 orientation 1 0 0 0 velocity -2.5349044004567e-11 -0.00120255267923463 -2.38971752617728e-11 angularVelocity 0 0 0 force -0.000793324638409083 2269167.45471027 -0.0696249610341882 torque 0 0 0 radius 66.6666666666667 invMass 3.22288759761088e-10
BaseParticle id 42 indSpecies 0 position -200.000000000053 2199.70228957434 -333.333333333336 orientation 1 0 0 0 velocity 1.19914332326123e-11 -0.0012025524061922 9.42803101531094e-12 angularVelocity 0 0 0 force 0.0191467087153614 2269167.87986073 0.00405641933058974 torque 0 0 0 radius 66.6666666666667 invMass 3.22288759761088e-10
BaseParticle id 43 indSpecies 0 position -199.999999999945 2199.70228957404 -199.999999999986 orientation 1 0 0 0 velocity 1.60537315503993e-11 -0.0012025522242207 -1.67648320087933e-11 angularVelocity 0 0 0 force -0.180933109041504 2269168.33605154 0.0236974306253411 torque 0 0 0 radius 66.6666666666667 invMass 3.22288759761088e-10
BaseParticle id 44 indSpecies 0 position -200.000000000002 2199.70228957387 -66.666666666645 orientation 1 0 0 0 velocity 1.4446057512926e-11 -0.00120255223443173 1.68843456296341e-11 angularVelocity 0 0 0 force -0.04374857166198 2269169.21056392 -0.393596721309424 torque 0 0 0 radius 66.6666666666667 invMass 3.22288759761088e-10
BaseParticle id 45 indSpecies 0 position -199.999999999968 2199.70228957403 66.6666666666556 orientation 1 0 0 0 velocity -1.30963508901383e-11 -0.00120255211350359 4.58605989521345e-11 angularVelocity 0 0 0 force -0.118717975209539 2269167.52674149 0.276727849365456 torque 0 0 0 radius 66.6666666666667 invMass 3.22288759761088e-10
BaseParticle id 46 indSpecies 0 position -200.000000000009 2199.70228957397 199.999999999976 orientation 1 0 0 0 velocity 1.97778392655938e-11 -0.00120255212338728 3.02087700384321e-11 angularVelocity 0 0 0 force -0.0257088922845214 2269168.14426433 0.117190135084498 torque 0 0 0 radius 66.6666666666667 invMass 3.22288759761088e-10
BaseParticle id 47 indSpecies 0 position -200.000000000015 2199.70228957393 333.333333333347 orientation 1 0 0 0 velocity 1.51517429181146e-11 -0.00120255217657302 -2.75174034971346e-11 angularVelocity 0 0 0 force -0.0202362139820319 2269169.60466343 -0.114724953264357 torque 0 0 0 radius 66.6666666666667 invMass 3.22288759761088e-10
BaseParticle id 48 indSpecies 0 position -66.6666666666503 2199.70228957377 -333.333333333329 orientation 1 0 0 0 velocity -1.89781239159426e-12 -0.00120255241043432 -2.29859418548935e-11 angularVelocity 0 0 0 force 0.030655341527445 2269171.49578261 -0.0248154040979337 torque 0 0 0 radius 66.6666666666667 invMass 3.22288759761088e-10
BaseParticle id 49 indSpecies 0 position -66.6666666666246 2199.70228957379 -199.999999999994 orientation 1 0 0 0 velocity 1.61372085043322e-11 -0.00120255211306138 3.76017776760458e-11 angularVelocity 0 0 0 force 0.143191556535656 2269170.66464844 -0.0255712245241522 torque 0 0 0 radius 66.6666666666667 invMass 3.22288759761088e-10
BaseParticle id 50 indSpecies 0 position -66.6666666666681 2199.70228957391 -66.6666666666418 orientation 1 0 0 0 velocity -7.13749641222922e-12 -0.00120255160861928 2.06903920133375e-11 angularVelocity 0 0 0 force -0.0815443391166451 2269169.51509992 -0.183210638243741 torque 0 0 0 radius 66.6666666666667 invMass 3.22288759761088e-10
BaseParticle id 51 indSpecies 0 position -66.6666666666458 2199.70228957419 66.6666666666798 orientation 1 0 0 0 velocity 1.27165443275339e-11 -0.00120255152317157 2.91178735065599e-11 angularVelocity 0 0 0 force 0.00337495693043182 2269167.91446089 -0.052100595995517 torque 0 0 0 radius 66.6666666666667 invMass 3.22288759761088e-10
BaseParticle id 52 indSpecies 0 position -66.666666666658 2199.70228957401 200 orientation 1 0 0 0 velocity 1.48399090961253e-11 -0.00120255181319755 7.0723354199219e-11 angularVelocity 0 0 0 force -0.061732334310735 2269169.7096646 0.0708204148531888 torque 0 0 0 radius 66.6666666666667 invMass 3.22288759761088e-10
BaseParticle id 53 indSpecies 0 position -66.666666666603 2199.70228957401 333.333333333342 orientation 1 0 0 0 velocity 4.41202860597105e-11 -0.00120255193631868 -2.33637379149718e-11 angularVelocity 0 0 0 force -0.435686271888067 2269170.83057678 -0.159824491041293 torque 0 0 0 radius 66.6666666666667 invMass 3.22288759761088e-10
BaseParticle id 54 indSpecies 0 position 66.6666666667095 2199.70228957438 -333.333333333331 orientation 1 0 0 0 velocity 1.71745516187071e-11 -0.00120255244291039 -1.85141990608015e-11 angularVelocity 0 0 0 force -0.0565776072767027 2269168.57910725 -0.0138741989554223 torque 0 0 0 radius 66.6666666666667 invMass 3.22288759761088e-10
BaseParticle id 55 indSpecies 0 position 66.6666666667279 2199.70228957441 -199.999999999993 orientation 1 0 0 0 velocity -3.44729402976271e-11 -0.00120255229395002 3.167331807588e-11 angularVelocity 0 0 0 force -0.467751445861178 2269167.87914477 -0.0447854639438402 torque 0 0 0 radius 66.6666666666667 invMass 3.22288759761088e-10
BaseParticle id 56 indSpecies 0 position 66.6666666666974 2199.70228957449 -66.6666666666599 orientation 1 0 0 0 velocity 3.06000300343017e-11 -0.00120255190207586 1.89387367370562e-11 angularVelocity 0 0 0 force -0.0793287402832429 2269166.76711275 -0.0665977931090816 torque 0 0 0 radius 66.6666666666667 invMass 3.22288759761088e-10
BaseParticle id 57 indSpecies 0 position 66.6666666666829 2199.70228957463 66.6666666666814 orientation 1 0 0 0 velocity 5.91471253584969e-13 -0.00120255208151092 1.66504707958403e-11 angularVelocity 0 0 0 force -0.107911215094451 2269164.82868255 -0.114651305917899 torque 0 0 0 radius 66.6666666666667 invMass 3.22288759761088e-10
BaseParticle id 58 indSpecies 0 position 66.6666666666823 2199.70228957451 200.000000000008 orientation 1 0 0 0 velocity 2.02870848709725e-11 -0.00120255208716374 4.57913294658945e-11 angularVelocity 0 0 0 force -0.0970209627327274 2269167.60236089 -0.132040132535116 torque 0 0 0 radius 66.6666666666667 invMass 3.22288759761088e-10
BaseParticle id 59 indSpecies 0 position 66.6666666667006 2199.70228957449 333.333333333331 orientation 1 0 0 0 velocity 6.01312978458235e-11 -0.00120255196917989 -1.64073087477329e-11 angularVelocity 0 0 0 force -0.205883188287361 2269169.82661379 0.0370171256948363 torque 0 0 0 radius 66.6666666666667 invMass 3.22288759761088e-10
BaseParticle id 60 indSpecies 0 position 200.000000000071 2199.70228957376 -333.333333333364 orientation 1 0 0 0 velocity 3.51010527270359e-11 -0.00120255275406728 -5.15851459117006e-11 angularVelocity 0 0 0 force -0.0675263681500175 2269168.97733163 0.000224556358519989 torque 0 0 0 radius 66.6666666666667 invMass 3.22288759761088e-10
BaseParticle id 61 indSpecies 0 position 200.000000000031 2199.70228957383 -199.999999999994 orientation 1 0 0 0 velocity 2.3862120086746e-11 -0.00120255239171245 1.9624708188432e-11 angularVelocity 0 0 0 force 0.0683080918951034 2269167.9547728 -0.0191007753188851 torque 0 0 0 radius 66.6666666666667 invMass 3.22288759761088e-10
BaseParticle id 62 indSpecies 0 position 200.000000000082 2199.70228957403 -66.6666666666601 orientation 1 0 0 0 velocity -5.17627085513048e-11 -0.00120255196656618 5.49342731777198e-11 angularVelocity 0 0 0 force -0.170642426343866 2269167.38175323 -0.0556824628712702 torque 0 0 0 radius 66.6666666666667 invMass 3.22288759761088e-10
BaseParticle id 63 indSpecies 0 position 200.000000000011 2199.70228957409 66.6666666666731 orientation 1 0 0 0 velocity -6.52283921005119e-11 -0.001202552020512 4.29917694181202e-11 angularVelocity 0 0 0 force -0.511254324993764 2269166.48511389 -0.0183368367185222 torque 0 0 0 radius 66.6666666666667 invMass 3.22288759761088e-10
BaseParticle id 64 indSpecies 0 position 200.000000000094 2199.70228957399 200.00000000002 orientation 1 0 0 0 velocity 6.44085158615791e-11 -0.00120255198471704 1.02464890017542e-11 angularVelocity 0 0 0 force -0.114116908545608 2269168.46588851 -0.0582104261189935 torque 0 0 0 radius 66.6666666666667 invMass 3.22288759761088e-10
BaseParticle id 65 indSpecies 0 position 199.999999999996 2199.70228957396 333.333333333371 orientation 1 0 0 0 velocity 6.33036367153291e-11 -0.00120255202913044 -4.64888563118815e-12 angularVelocity 0 0 0 force 0.375098247829212 2269170.57153687 -0.0808232312956198 torque 0 0 0 radius 66.6666666666667 invMass 3.22288759761088e-10
BaseParticle id 66 indSpecies 0 position 333.333333333415 2199.70228957312 -333.333333333385 orientation 1 0 0 0 velocity -3.37736377031973e-11 -0.00120255308252199 -4.97987948984604e-11 angularVelocity 0 0 0 force -0.0784752688558622 2269169.46920836 0.0143198446677885 torque 0 0 0 radius 66.6666666666667 invMass 3.22288759761088e-10
BaseParticle id 67 indSpecies 0 position 333.333333333346 2199.70228957329 -199.999999999984 orientation 1 0 0 0 velocity 2.28025959274905e-11 -0.00120255242165752 2.1756447523587e-11 angularVelocity 0 0 0 force 0.153030550253651 2269168.39252666 0.00355511748626611 torque 0 0 0 radius 66.6666666666667 invMass 3.22288759761088e-10
BaseParticle id 68 indSpecies 0 position 333.33333333341 2199.70228957353 -66.6666666666342 orientation 1 0 0 0 velocity 5.38901437749439e-11 -0.0012025517151549 5.08992738467621e-11 angularVelocity 0 0 0 force -0.0402690182130334 2269168.10877504 -0.0473797548305556 torque 0 0 0 radius 66.6666666666667 invMass 3.22288759761088e-10
BaseParticle id 69 indSpecies 0 position 333.333333333307 2199.70228957356 66.6666666666962 orientation 1 0 0 0 velocity 3.5465038609446e-11 -0.00120255180486702 2.83214318756376e-11 angularVelocity 0 0 0 force 0.374988908431027 2269168.22895507 -0.18050449907392 torque 0 0 0 radius 66.6666666666667 invMass 3.22288759761088e-10
BaseParticle id 70 indSpecies 0 position 333.333333333437 2199.7022895735 200.000000000016 orientation 1 0 0 0 velocity -6.85671798383973e-11 -0.00120255185028284 2.49216149284775e-11 angularVelocity 0 0 0 force -0.131215426338828 2269169.61037589 0.134989859450695 torque 0 0 0 radius 66.6666666666667 invMass 3.22288759761088e-10
BaseParticle id 71 indSpecies 0 position 333.333333333473 2199.70228957351 333.333333333351 orientation 1 0 0 0 velocity -6.5122378807757e-11 -0.00120255191822606 -1.10410801831763e-11 angularVelocity 0 0 0 force -0.151982746495006 2269171.62863923 -0.0539067652929065 torque 0 0 0 radius 66.6666666666667 invMass 3.22288759761088e-10
BaseParticle id 72 indSpecies 0 position -333.33333333335 2333.03527159425 -333.333333333383 orientation 1 0 0 0 velocity -6.58575984416825e-12 -0.00163178589191977 -1.47768442042154e-11 angularVelocity 0 0 0 force -0.0339327059921913 640859.391837342 0.0150278610618601 torque 0 0 0 radius 66.6666666666667 invMass 3.22288759761088e-10
BaseParticle id 73 indSpecies 0 position -333.333333333363 2333.0352715938 -200.000000000004 orientation 1 0 0 0 velocity -1.6591200583526e-11 -0.00163178582829647 -4.03069670364078e-12 angularVelocity 0 0 0 force -0.0259383235083236 640860.008248286 0.0166413775534869 torque 0 0 0 radius 66.6666666666667 invMass 3.22288759761088e-10
BaseParticle id 74 indSpecies 0 position -333.333333333358 2333.03527159341 -66.6666666666408 orientation 1 0 0 0 velocity -1.37128125481348e-11 -0.00163178576235894 3.25783440152578e-11 angularVelocity 0 0 0 force -0.0179431035209272 640859.848570673 0.0182612635750773 torque 0 0 0 radius 66.6666666666667 invMass 3.22288759761088e-10
BaseParticle id 75 indSpecies 0 position -333.33333333344 2333.03527159345 66.6666666666965 orientation 1 0 0 0 velocity -3.22592550648058e-11 -0.00163178575124831 1.04881728288178e-11 angularVelocity 0 0 0 force 0.0210146718677473 640858.122250313 0.00502020234239399 torque 0 0 0 radius 66.6666666666667 invMass 3.22288759761088e-10
BaseParticle id 76 indSpecies 0 position -333.333333333341 2333.03527159352 200.000000000036 orientation 1 0 0 0 velocity -9.3476916799623e-12 -0.00163178596830442 9.93781259027691e-12 angularVelocity 0 0 0 force 0.00548923672229412 640859.317633377 -0.273232510769204 torque 0 0 0 radius 66.6666666666667 invMass 3.22288759761088e-10
BaseParticle id 77 indSpecies 0 position -333.333333333406 2333.03527159349 333.33333333335 orientation 1 0 0 0 velocity -2.44047754162837e-11 -0.00163178624894778 -6.13334314865955e-12 angularVelocity 0 0 0 force -0.010087121043676 640860.562769491 0.199970761956938 torque 0 0 0 radius 66.6666666666667 invMass 3.22288759761088e-10
BaseParticle id 78 indSpecies 0 position -199.999999999963 2333.03527159389 -333.333333333409 orientation 1 0 0 0 velocity 4.25180733170762e-11 -0.00163178572097446 -2.73869943149615e-11 angularVelocity 0 0 0 force -0.0294902171142142 640859.86638144 0.00683991120491062 torque 0 0 0 radius 66.6666666666667 invMass 3.22288759761088e-10
BaseParticle id 79 indSpecies 0 position -199.999999999976 2333.03527159363 -199.999999999997 orientation 1 0 0 0 velocity 2.77158501749992e-11 -0.00163178559468892 9.51251132662797e-12 angularVelocity 0 0 0 force -0.0393928968925972 640860.267892748 -0.00678592024006292 torque 0 0 0 radius 66.6666666666667 invMass 3.22288759761088e-10
BaseParticle id 80 indSpecies 0 position -199.999999999972 2333.03527159352 -66.6666666666273 orientation 1 0 0 0 velocity 2.30978086613199e-11 -0.00163178545045522 1.11459708272616e-11 angularVelocity 0 0 0 force -0.0492896501928685 640859.757194154 -0.172755979044306 torque 0 0 0 radius 66.6666666666667 invMass 3.22288759761088e-10
BaseParticle id 81 indSpecies 0 position -199.999999999949 2333.03527159358 66.6666666666946 orientation 1 0 0 0 velocity 2.42323181465052e-11 -0.00163178541838314 1.57167964815706e-11 angularVelocity 0 0 0 force -0.0459146518779704 640858.114318212 0.121728604610009 torque 0 0 0 radius 66.6666666666667 invMass 3.22288759761088e-10
BaseParticle id 82 indSpecies 0 position -199.999999999951 2333.03527159356 200.000000000048 orientation 1 0 0 0 velocity 3.152225561726e-11 -0.00163178557499007 -1.40089291592013e-11 angularVelocity 0 0 0 force -0.0386890999036043 640860.322056983 -0.316341607629338 torque 0 0 0 radius 66.6666666666667 invMass 3.22288759761088e-10
BaseParticle id 83 indSpecies 0 position -199.999999999987 2333.03527159363 333.333333333362 orientation 1 0 0 0 velocity 2.23903255877418e-11 -0.00163178575072474 2.18918388014875e-11 angularVelocity 0 0 0 force -0.0587443440732191 640861.31658067 0.168720318072194 torque 0 0 0 radius 66.6666666666667 invMass 3.22288759761088e-10
BaseParticle id 84 indSpecies 0 position -66.6666666666293 2333.0352715935 -333.333333333394 orientation 1 0 0 0 velocity 1.97835234609416e-11 -0.00163178558533469 -2.10795923878999e-11 angularVelocity 0 0 0 force -0.142904955298186 640859.954233881 -0.00133717083628998 torque 0 0 0 radius 66.6666666666667 invMass 3.22288759761088e-10
BaseParticle id 85 indSpecies 0 position -66.666666666604 2333.03527159349 -199.999999999962 orientation 1 0 0 0 velocity 1.63097305153232e-11 -0.00163178534978407 1.17979106088433e-11 angularVelocity 0 0 0 force -0.266196566358285 640860.097895095 -0.0556042600768523 torque 0 0 0 radius 66.6666666666667 invMass 3.22288759761088e-10