<?xml version="1.0"?>
<VTKFile type="UnstructuredGrid" version="0.1" byte_order="LittleEndian" compressor="vtkZLibDataCompressor">
<UnstructuredGrid>
<Piece NumberOfPoints="960" NumberOfCells="120">
<Points>
<DataArray type="Float32" NumberOfComponents="3" format="ascii">
-4.000000e+02 -6.000000e+03 -4.000000e+02
0.000000e+00 -6.000000e+03 -4.000000e+02
-4.000000e+02 -5.600000e+03 -4.000000e+02
2.608040e-10 -5.600000e+03 -4.000000e+02
-4.000000e+02 -6.000000e+03 0.000000e+00
0.000000e+00 -6.000000e+03 0.000000e+00
-4.000000e+02 -5.600000e+03 2.695280e-10
-2.822420e-10 -5.600000e+03 4.723660e-12
0.000000e+00 -6.000000e+03 -4.000000e+02
4.000000e+02 -6.000000e+03 -4.000000e+02
2.608040e-10 -5.600000e+03 -4.000000e+02
4.000000e+02 -5.600000e+03 -4.000000e+02
0.000000e+00 -6.000000e+03 0.000000e+00
4.000000e+02 -6.000000e+03 0.000000e+00
-2.822420e-10 -5.600000e+03 4.723660e-12
4.000000e+02 -5.600000e+03 8.292660e-10
-4.000000e+02 -5.600000e+03 -4.000000e+02
2.608040e-10 -5.600000e+03 -4.000000e+02
-4.000000e+02 -5.200010e+03 -4.000000e+02
3.298810e-10 -5.200010e+03 -4.000000e+02
-4.000000e+02 -5.600000e+03 2.695280e-10
-2.822420e-10 -5.600000e+03 4.723660e-12
-4.000000e+02 -5.200010e+03 -5.337400e-10
1.015690e-10 -5.200010e+03 1.920900e-10
2.608040e-10 -5.600000e+03 -4.000000e+02
4.000000e+02 -5.600000e+03 -4.000000e+02
3.298810e-10 -5.200010e+03 -4.000000e+02
4.000000e+02 -5.200010e+03 -4.000000e+02
-2.822420e-10 -5.600000e+03 4.723660e-12
4.000000e+02 -5.600000e+03 8.292660e-10
1.015690e-10 -5.200010e+03 1.920900e-10
4.000000e+02 -5.200010e+03 7.181980e-10
-4.000000e+02 -5.200010e+03 -4.000000e+02
3.298810e-10 -5.200010e+03 -4.000000e+02
-4.000000e+02 -4.800010e+03 -4.000000e+02
1.118130e-09 -4.800010e+03 -4.000000e+02
-4.000000e+02 -5.200010e+03 -5.337400e-10
1.015690e-10 -5.200010e+03 1.920900e-10
-4.000000e+02 -4.800010e+03 8.029470e-11
3.716710e-10 -4.800010e+03 5.648700e-10
3.298810e-10 -5.200010e+03 -4.000000e+02
4.000000e+02 -5.200010e+03 -4.000000e+02
1.118130e-09 -4.800010e+03 -4.000000e+02
4.000000e+02 -4.800010e+03 -4.000000e+02
1.015690e-10 -5.200010e+03 1.920900e-10
4.000000e+02 -5.200010e+03 7.181980e-10
3.716710e-10 -4.800010e+03 5.648700e-10
4.000000e+02 -4.800010e+03 1.294060e-09
-4.000000e+02 -4.800010e+03 -4.000000e+02
1.118130e-09 -4.800010e+03 -4.000000e+02
-4.000000e+02 -4.400010e+03 -4.000000e+02
1.451590e-09 -4.400010e+03 -4.000000e+02
-4.000000e+02 -4.800010e+03 8.029470e-11
3.716710e-10 -4.800010e+03 5.648700e-10
-4.000000e+02 -4.400010e+03 1.364870e-09
1.527170e-09 -4.400010e+03 1.113600e-09
1.118130e-09 -4.800010e+03 -4.000000e+02
4.000000e+02 -4.800010e+03 -4.000000e+02
1.451590e-09 -4.400010e+03 -4.000000e+02
4.000000e+02 -4.400010e+03 -4.000000e+02
3.716710e-10 -4.800010e+03 5.648700e-10
4.000000e+02 -4.800010e+03 1.294060e-09
1.527170e-09 -4.400010e+03 1.113600e-09
4.000000e+02 -4.400010e+03 1.249280e-09
-4.000000e+02 -4.400010e+03 -4.000000e+02
1.451590e-09 -4.400010e+03 -4.000000e+02
-4.000000e+02 -4.000020e+03 -4.000000e+02
1.453430e-09 -4.000020e+03 -4.000000e+02
-4.000000e+02 -4.400010e+03 1.364870e-09
1.527170e-09 -4.400010e+03 1.113600e-09
-4.000000e+02 -4.000020e+03 9.601740e-10
2.276110e-09 -4.000020e+03 1.257660e-09
1.451590e-09 -4.400010e+03 -4.000000e+02
4.000000e+02 -4.400010e+03 -4.000000e+02
1.453430e-09 -4.000020e+03 -4.000000e+02
4.000000e+02 -4.000020e+03 -4.000000e+02
1.527170e-09 -4.400010e+03 1.113600e-09
4.000000e+02 -4.400010e+03 1.249280e-09
2.276110e-09 -4.000020e+03 1.257660e-09
4.000000e+02 -4.000020e+03 1.248880e-09
-4.000000e+02 -4.000020e+03 -4.000000e+02
1.453430e-09 -4.000020e+03 -4.000000e+02
-4.000000e+02 -3.600030e+03 -4.000000e+02
1.990610e-09 -3.600030e+03 -4.000000e+02
-4.000000e+02 -4.000020e+03 9.601740e-10
2.276110e-09 -4.000020e+03 1.257660e-09
-4.000000e+02 -3.600030e+03 1.032010e-09
1.484690e-09 -3.600030e+03 1.085580e-09
1.453430e-09 -4.000020e+03 -4.000000e+02
4.000000e+02 -4.000020e+03 -4.000000e+02
1.990610e-09 -3.600030e+03 -4.000000e+02
4.000000e+02 -3.600030e+03 -4.000000e+02
2.276110e-09 -4.000020e+03 1.257660e-09
4.000000e+02 -4.000020e+03 1.248880e-09
1.484690e-09 -3.600030e+03 1.085580e-09
4.000000e+02 -3.600030e+03 1.730400e-09
-4.000000e+02 -3.600030e+03 -4.000000e+02
1.990610e-09 -3.600030e+03 -4.000000e+02
-4.000000e+02 -3.200040e+03 -4.000000e+02
2.355690e-09 -3.200040e+03 -4.000000e+02
-4.000000e+02 -3.600030e+03 1.032010e-09
1.484690e-09 -3.600030e+03 1.085580e-09
-4.000000e+02 -3.200040e+03 6.882590e-10
1.960930e-09 -3.200040e+03 1.104850e-09
1.990610e-09 -3.600030e+03 -4.000000e+02
4.000000e+02 -3.600030e+03 -4.000000e+02
2.355690e-09 -3.200040e+03 -4.000000e+02
4.000000e+02 -3.200040e+03 -4.000000e+02
1.484690e-09 -3.600030e+03 1.085580e-09
4.000000e+02 -3.600030e+03 1.730400e-09
1.960930e-09 -3.200040e+03 1.104850e-09
4.000000e+02 -3.200040e+03 1.966990e-09
-4.000000e+02 -3.200040e+03 -4.000000e+02
2.355690e-09 -3.200040e+03 -4.000000e+02
-4.000000e+02 -2.800080e+03 -4.000000e+02
2.911180e-09 -2.800080e+03 -4.000000e+02
-4.000000e+02 -3.200040e+03 6.882590e-10
1.960930e-09 -3.200040e+03 1.104850e-09
-4.000000e+02 -2.800080e+03 2.944660e-10
2.582680e-09 -2.800080e+03 7.481220e-10
2.355690e-09 -3.200040e+03 -4.000000e+02
4.000000e+02 -3.200040e+03 -4.000000e+02
2.911180e-09 -2.800080e+03 -4.000000e+02
4.000000e+02 -2.800080e+03 -4.000000e+02
1.960930e-09 -3.200040e+03 1.104850e-09
4.000000e+02 -3.200040e+03 1.966990e-09
2.582680e-09 -2.800080e+03 7.481220e-10
4.000000e+02 -2.800080e+03 7.128750e-10
-4.000000e+02 -2.800080e+03 -4.000000e+02
2.911180e-09 -2.800080e+03 -4.000000e+02
-4.000000e+02 -2.400120e+03 -4.000000e+02
3.574700e-09 -2.400120e+03 -4.000000e+02
-4.000000e+02 -2.800080e+03 2.944660e-10
2.582680e-09 -2.800080e+03 7.481220e-10
-4.000000e+02 -2.400120e+03 1.077820e-09
2.090500e-09 -2.400120e+03 1.619990e-09
2.911180e-09 -2.800080e+03 -4.000000e+02
4.000000e+02 -2.800080e+03 -4.000000e+02
3.574700e-09 -2.400120e+03 -4.000000e+02
4.000000e+02 -2.400120e+03 -4.000000e+02
2.582680e-09 -2.800080e+03 7.481220e-10
4.000000e+02 -2.800080e+03 7.128750e-10
2.090500e-09 -2.400120e+03 1.619990e-09
4.000000e+02 -2.400120e+03 1.474390e-09
-4.000000e+02 -2.400120e+03 -4.000000e+02
3.574700e-09 -2.400120e+03 -4.000000e+02
-4.000000e+02 -2.000190e+03 -4.000000e+02
1.311840e-09 -2.000190e+03 -4.000000e+02
-4.000000e+02 -2.400120e+03 1.077820e-09
2.090500e-09 -2.400120e+03 1.619990e-09
-4.000000e+02 -2.000190e+03 3.951640e-10
1.179450e-09 -2.000190e+03 1.006710e-09
3.574700e-09 -2.400120e+03 -4.000000e+02
4.000000e+02 -2.400120e+03 -4.000000e+02
1.311840e-09 -2.000190e+03 -4.000000e+02
4.000000e+02 -2.000190e+03 -4.000000e+02
2.090500e-09 -2.400120e+03 1.619990e-09
4.000000e+02 -2.400120e+03 1.474390e-09
1.179450e-09 -2.000190e+03 1.006710e-09
4.000000e+02 -2.000190e+03 1.109080e-09
-4.000000e+02 -2.000190e+03 -4.000000e+02
1.311840e-09 -2.000190e+03 -4.000000e+02
-4.000000e+02 -1.600260e+03 -4.000000e+02
5.947050e-10 -1.600260e+03 -4.000000e+02
-4.000000e+02 -2.000190e+03 3.951640e-10
1.179450e-09 -2.000190e+03 1.006710e-09
-4.000000e+02 -1.600260e+03 1.653170e-10
7.031760e-10 -1.600260e+03 9.870040e-10
1.311840e-09 -2.000190e+03 -4.000000e+02
4.000000e+02 -2.000190e+03 -4.000000e+02
5.947050e-10 -1.600260e+03 -4.000000e+02
4.000000e+02 -1.600260e+03 -4.000000e+02
1.179450e-09 -2.000190e+03 1.006710e-09
4.000000e+02 -2.000190e+03 1.109080e-09
7.031760e-10 -1.600260e+03 9.870040e-10
4.000000e+02 -1.600260e+03 7.930140e-10
-4.000000e+02 -1.600260e+03 -4.000000e+02
5.947050e-10 -1.600260e+03 -4.000000e+02
-4.000000e+02 -1.200310e+03 -4.000000e+02
1.266410e-09 -1.200310e+03 -4.000000e+02
-4.000000e+02 -1.600260e+03 1.653170e-10
7.031760e-10 -1.600260e+03 9.870040e-10
-4.000000e+02 -1.200310e+03 4.365790e-10
6.353240e-10 -1.200310e+03 5.630690e-10
5.947050e-10 -1.600260e+03 -4.000000e+02
4.000000e+02 -1.600260e+03 -4.000000e+02
1.266410e-09 -1.200310e+03 -4.000000e+02
4.000000e+02 -1.200310e+03 -4.000000e+02
7.031760e-10 -1.600260e+03 9.870040e-10
4.000000e+02 -1.600260e+03 7.930140e-10
6.353240e-10 -1.200310e+03 5.630690e-10
4.000000e+02 -1.200310e+03 8.909410e-10
-4.000000e+02 -1.200310e+03 -4.000000e+02
1.266410e-09 -1.200310e+03 -4.000000e+02
-4.000000e+02 -8.003200e+02 -4.000000e+02
7.822460e-10 -8.003200e+02 -4.000000e+02
-4.000000e+02 -1.200310e+03 4.365790e-10
6.353240e-10 -1.200310e+03 5.630690e-10
-4.000000e+02 -8.003200e+02 3.691730e-10
8.932610e-10 -8.003200e+02 -2.310740e-10
1.266410e-09 -1.200310e+03 -4.000000e+02
4.000000e+02 -1.200310e+03 -4.000000e+02
7.822460e-10 -8.003200e+02 -4.000000e+02
4.000000e+02 -8.003200e+02 -4.000000e+02
6.353240e-10 -1.200310e+03 5.630690e-10
4.000000e+02 -1.200310e+03 8.909410e-10
8.932610e-10 -8.003200e+02 -2.310740e-10
4.000000e+02 -8.003200e+02 4.200380e-10
-4.000000e+02 -8.003200e+02 -4.000000e+02
7.822460e-10 -8.003200e+02 -4.000000e+02
-4.000000e+02 -4.002950e+02 -4.000000e+02
9.798860e-10 -4.002950e+02 -4.000000e+02
-4.000000e+02 -8.003200e+02 3.691730e-10
8.932610e-10 -8.003200e+02 -2.310740e-10
-4.000000e+02 -4.002950e+02 -4.109600e-10
1.421250e-09 -4.002950e+02 -1.613340e-10
7.822460e-10 -8.003200e+02 -4.000000e+02
4.000000e+02 -8.003200e+02 -4.000000e+02
9.798860e-10 -4.002950e+02 -4.000000e+02
4.000000e+02 -4.002950e+02 -4.000000e+02
8.932610e-10 -8.003200e+02 -2.310740e-10
4.000000e+02 -8.003200e+02 4.200380e-10
1.421250e-09 -4.002950e+02 -1.613340e-10
4.000000e+02 -4.002950e+02 7.321810e-12
-4.000000e+02 -4.002950e+02 -4.000000e+02
9.798860e-10 -4.002950e+02 -4.000000e+02
-4.000000e+02 -2.673490e-01 -4.000000e+02
9.382950e-10 -2.673490e-01 -4.000000e+02
-4.000000e+02 -4.002950e+02 -4.109600e-10
1.421250e-09 -4.002950e+02 -1.613340e-10
-4.000000e+02 -2.673490e-01 -5.008580e-10
1.303830e-09 -2.673490e-01 -3.740740e-10
9.798860e-10 -4.002950e+02 -4.000000e+02
4.000000e+02 -4.002950e+02 -4.000000e+02
9.382950e-10 -2.673490e-01 -4.000000e+02
4.000000e+02 -2.673490e-01 -4.000000e+02
1.421250e-09 -4.002950e+02 -1.613340e-10
4.000000e+02 -4.002950e+02 7.321810e-12
[...]
<PointData>
<DataArray type="Float32" Name="V1" format="ascii">
0.000000e+00
0.000000e+00
-1.743950e-09
2.821070e-10
0.000000e+00
0.000000e+00
-1.351170e-09
-1.182500e-09
0.000000e+00
0.000000e+00
2.821070e-10
2.011040e-09
0.000000e+00
0.000000e+00
-1.182500e-09
-1.728240e-10
-1.743950e-09
2.821070e-10
-1.194060e-09
7.711100e-10
-1.351170e-09
-1.182500e-09
6.441610e-10
-2.587210e-10
2.821070e-10
2.011040e-09
7.711100e-10
1.869640e-09
-1.182500e-09
-1.728240e-10
-2.587210e-10
-1.225480e-09
-1.194060e-09
7.711100e-10
-2.529510e-09
-1.380920e-09
6.441610e-10
-2.587210e-10
1.021230e-09
1.409160e-10
7.711100e-10
1.869640e-09
-1.380920e-09
1.005520e-09
-2.587210e-10
-1.225480e-09
1.409160e-10
-7.227180e-10
-2.529510e-09
-1.380920e-09
-1.382590e-09
-2.423330e-10
1.021230e-09
1.409160e-10
-3.927810e-10
-4.515220e-10
-1.380920e-09
1.005520e-09
-2.423330e-10
6.284500e-10
1.409160e-10
-7.227180e-10
-4.515220e-10
-1.728240e-10
-1.382590e-09
-2.423330e-10
2.655200e-09
-5.286940e-10
-3.927810e-10
-4.515220e-10
-1.256900e-10
1.108900e-09
-2.423330e-10
6.284500e-10
-5.286940e-10
-2.435240e-09
-4.515220e-10
-1.728240e-10
1.108900e-09
1.853930e-09
2.655200e-09
-5.286940e-10
-1.256900e-10
-4.613320e-10
-1.256900e-10
1.108900e-09
7.070060e-10
7.316480e-10
-5.286940e-10
-2.435240e-09
-4.613320e-10
-2.513800e-10
1.108900e-09
1.853930e-09
7.316480e-10
9.898090e-10
-1.256900e-10
-4.613320e-10
2.686620e-09
8.030250e-10
7.070060e-10
7.316480e-10
-7.384290e-10
-6.983020e-10
-4.613320e-10
-2.513800e-10
8.030250e-10
-7.541400e-10
7.316480e-10
9.898090e-10
-6.983020e-10
-4.242040e-10
2.686620e-09
8.030250e-10
-1.728240e-10
-7.083780e-10
-7.384290e-10
-6.983020e-10
-2.828030e-10
-4.145180e-10
8.030250e-10
-7.541400e-10
-7.083780e-10
-1.885350e-10
-6.983020e-10
-4.242040e-10
-4.145180e-10
-8.012740e-10
-1.728240e-10
-7.083780e-10
5.027600e-10
8.345150e-10
-2.828030e-10
-4.145180e-10
4.870490e-10
-2.608150e-10
-7.083780e-10
-1.885350e-10
8.345150e-10
1.256900e-09
-4.145180e-10
-8.012740e-10
-2.608150e-10
2.199580e-10
5.027600e-10
8.345150e-10
2.042460e-09
2.873430e-10
4.870490e-10
-2.608150e-10
2.513800e-10
-2.852040e-10
8.345150e-10
1.256900e-09
2.873430e-10
-3.770700e-10
-2.608150e-10
2.199580e-10
-2.852040e-10
-1.272610e-09
2.042460e-09
2.873430e-10
0.000000e+00
-7.403930e-10
2.513800e-10
-2.852040e-10
-4.870490e-10
-5.086940e-12
2.873430e-10
-3.770700e-10
-7.403930e-10
-1.853930e-09
-2.852040e-10
-1.272610e-09
-5.086940e-12
8.484080e-10
0.000000e+00
-7.403930e-10
-5.498940e-10
-8.728600e-12
-4.870490e-10
-5.086940e-12
8.955420e-10
5.203580e-10
-7.403930e-10
-1.853930e-09
-8.728600e-12
8.798300e-10
-5.086940e-12
8.484080e-10
5.203580e-10
-3.613590e-10
-5.498940e-10
-8.728600e-12
1.571130e-11
5.915960e-10
8.955420e-10
5.203580e-10
-5.970280e-10
-3.646930e-10
-8.728600e-12
8.798300e-10
5.915960e-10
4.713380e-11
5.203580e-10
-3.613590e-10
-3.646930e-10
8.012740e-10
1.571130e-11
5.915960e-10
2.670910e-10
1.050250e-10
-5.970280e-10
-3.646930e-10
-1.571130e-10
1.076800e-10
5.915960e-10
4.713380e-11
1.050250e-10
-1.414010e-09
-3.646930e-10
8.012740e-10
1.076800e-10
1.131210e-09
2.670910e-10
1.050250e-10
-5.656050e-10
-5.141160e-10
-1.571130e-10
1.076800e-10
4.399150e-10
2.647940e-10
1.050250e-10
-1.414010e-09
-5.141160e-10
1.429720e-09
1.076800e-10
1.131210e-09
2.647940e-10
-1.414010e-10
-5.656050e-10
-5.141160e-10
-3.142250e-11
-5.086500e-10
4.399150e-10
2.647940e-10
0.000000e+00
1.547970e-10
-5.141160e-10
1.429720e-09
-5.086500e-10
-3.142250e-10
2.647940e-10
-1.414010e-10
1.547970e-10
8.326970e-10
-3.142250e-11
-5.086500e-10
-2.105310e-09
-3.877080e-10
0.000000e+00
1.547970e-10
1.743950e-09
-6.068820e-11
-5.086500e-10
-3.142250e-10
-3.877080e-10
0.000000e+00
1.547970e-10
8.326970e-10
-6.068820e-11
-1.429720e-09
-2.105310e-09
-3.877080e-10
6.127390e-10
-4.292430e-10
1.743950e-09
-6.068820e-11
-2.749470e-09
-1.445660e-10
-3.877080e-10
0.000000e+00
-4.292430e-10
0.000000e+00
-6.068820e-11
-1.429720e-09
-1.445660e-10
2.655200e-09
6.127390e-10
-4.292430e-10
-2.828030e-10
7.775680e-11
-2.749470e-09
-1.445660e-10
1.366880e-09
-4.289040e-10
-4.292430e-10
0.000000e+00
7.775680e-11
-1.084080e-09
-1.445660e-10
2.655200e-09
-4.289040e-10
-2.215290e-09
-2.828030e-10
7.775680e-11
2.293840e-09
1.059750e-09
1.366880e-09
-4.289040e-10
1.351170e-09
-7.212490e-12
7.775680e-11
-1.084080e-09
1.059750e-09
-2.199580e-10
-4.289040e-10
-2.215290e-09
-7.212490e-12
-1.241190e-09
2.293840e-09
1.059750e-09
1.618260e-09
7.345170e-10
1.351170e-09
-7.212490e-12
-4.399150e-10
3.848100e-10
1.059750e-09
-2.199580e-10
7.345170e-10
-1.728240e-10
-7.212490e-12
-1.241190e-09
3.848100e-10
1.429720e-09
1.618260e-09
7.345170e-10
-8.908280e-09
-2.224250e-09
-4.399150e-10
3.848100e-10
1.272610e-09
1.145400e-11
7.345170e-10
-1.728240e-10
-2.224250e-09
4.414860e-09
3.848100e-10
1.429720e-09
1.145400e-11
-1.131210e-09
-8.908280e-09
-2.224250e-09
-4.713380e-11
-4.183970e-10
1.272610e-09
1.145400e-11
-4.713380e-10
-1.580230e-10
-2.224250e-09
4.414860e-09
-4.183970e-10
-7.541400e-10
1.145400e-11
-1.131210e-09
-1.580230e-10
1.099790e-10
-4.713380e-11
-4.183970e-10
6.630150e-09
1.219190e-09
-4.713380e-10
-1.580230e-10
-1.775370e-09
1.222530e-10
-4.183970e-10
-7.541400e-10
1.219190e-09
-4.163480e-09
-1.580230e-10
1.099790e-10
1.222530e-10
2.089600e-09
6.630150e-09
1.219190e-09
-1.806790e-09
-1.795600e-10
-1.775370e-09
1.222530e-10
9.426750e-10
1.029080e-10
1.219190e-09
-4.163480e-09
-1.795600e-10
1.539700e-09
1.222530e-10
2.089600e-09
1.029080e-10
-6.441610e-10
-1.806790e-09
-1.795600e-10
-1.728240e-10
2.010750e-10
9.426750e-10
1.029080e-10
4.242040e-10
2.573240e-11
-1.795600e-10
1.539700e-09
2.010750e-10
6.598730e-10
1.029080e-10
-6.441610e-10
2.573240e-11
-3.613590e-10
-1.728240e-10
2.010750e-10
2.513800e-10
2.099230e-11
4.242040e-10
2.573240e-11
0.000000e+00
-2.145090e-11
2.010750e-10
6.598730e-10
2.099230e-11
-2.199580e-10
2.573240e-11
-3.613590e-10
-2.145090e-11
0.000000e+00
2.513800e-10
2.099230e-11
0.000000e+00
-2.929400e-11
0.000000e+00
-2.145090e-11
0.000000e+00
-1.819060e-11
2.099230e-11
-2.199580e-10
-2.929400e-11
0.000000e+00
-2.145090e-11
0.000000e+00
-1.819060e-11
0.000000e+00
0.000000e+00
-2.929400e-11
0.000000e+00
-1.115080e-12
0.000000e+00
-1.819060e-11
0.000000e+00
-2.456780e-12
-2.929400e-11
0.000000e+00
-1.115080e-12
0.000000e+00
-1.819060e-11
0.000000e+00
-2.456780e-12
0.000000e+00
0.000000e+00
-1.115080e-12
0.000000e+00
-7.173280e-13
0.000000e+00
-2.456780e-12
0.000000e+00
-3.168520e-12
-1.115080e-12
0.000000e+00
-7.173280e-13
0.000000e+00
-2.456780e-12
0.000000e+00
-3.168520e-12
0.000000e+00
0.000000e+00
0.000000e+00
-1.351170e-09
-1.182500e-09
0.000000e+00
0.000000e+00
3.299360e-10
2.358940e-09
0.000000e+00
0.000000e+00
-1.182500e-09
-1.728240e-10
0.000000e+00
0.000000e+00
2.358940e-09
1.759660e-09
-1.351170e-09
-1.182500e-09
6.441610e-10
-2.587210e-10
3.299360e-10
2.358940e-09
-7.855630e-11
2.101390e-10
-1.182500e-09
-1.728240e-10
-2.587210e-10
-1.225480e-09
2.358940e-09
1.759660e-09
2.101390e-10
-1.084080e-09
6.441610e-10
-2.587210e-10
1.021230e-09
1.409160e-10
-7.855630e-11
2.101390e-10
1.414010e-10
-2.724200e-10
-2.587210e-10
-1.225480e-09
1.409160e-10
-7.227180e-10
2.101390e-10
-1.084080e-09
-2.724200e-10
7.698510e-10
1.021230e-09
1.409160e-10
-3.927810e-10
-4.515220e-10
1.414010e-10
-2.724200e-10
1.414010e-10
6.158620e-10
1.409160e-10
-7.227180e-10
-4.515220e-10
-1.728240e-10
-2.724200e-10
7.698510e-10
6.158620e-10
1.571130e-10
-3.927810e-10
-4.515220e-10
-1.256900e-10
1.108900e-09
1.414010e-10
6.158620e-10
1.414010e-10
-3.936440e-10
-4.515220e-10
-1.728240e-10
1.108900e-09
1.853930e-09
6.158620e-10
1.571130e-10
-3.936440e-10
-4.242040e-10
-1.256900e-10
1.108900e-09
7.070060e-10
7.316480e-10
1.414010e-10
-3.936440e-10
-1.099790e-09
-1.017150e-09
1.108900e-09
1.853930e-09
7.316480e-10
9.898090e-10
-3.936440e-10
-4.242040e-10
-1.017150e-09
-7.541400e-10
7.070060e-10
7.316480e-10
-7.384290e-10
-6.983020e-10
-1.099790e-09
-1.017150e-09
4.713380e-11
1.027440e-10
7.316480e-10
9.898090e-10
-6.983020e-10
-4.242040e-10
-1.017150e-09
-7.541400e-10
1.027440e-10
6.284500e-11
-7.384290e-10
-6.983020e-10
-2.828030e-10
-4.145180e-10
4.713380e-11
1.027440e-10
-9.112530e-10
-8.423550e-10
-6.983020e-10
-4.242040e-10
-4.145180e-10
-8.012740e-10
1.027440e-10
6.284500e-11
-8.423550e-10
1.131210e-09
-2.828030e-10
-4.145180e-10
4.870490e-10
-2.608150e-10
-9.112530e-10
-8.423550e-10
-1.084080e-09
-4.908670e-10
-4.145180e-10
-8.012740e-10
-2.608150e-10
2.199580e-10
-8.423550e-10
1.131210e-09
-4.908670e-10
-1.099790e-10
4.870490e-10
-2.608150e-10
2.513800e-10
-2.852040e-10
-1.084080e-09
-4.908670e-10
1.288320e-09
1.523510e-09
-2.608150e-10
2.199580e-10
-2.852040e-10
-1.272610e-09
-4.908670e-10
-1.099790e-10
1.523510e-09
1.681100e-09
2.513800e-10
-2.852040e-10
-4.870490e-10
-5.086940e-12
1.288320e-09
1.523510e-09
2.670910e-10
-1.360090e-09
-2.852040e-10
-1.272610e-09
-5.086940e-12
8.484080e-10
1.523510e-09
1.681100e-09
-1.360090e-09
-2.105310e-09
-4.870490e-10
-5.086940e-12
8.955420e-10
5.203580e-10
2.670910e-10
-1.360090e-09
-1.256900e-10
4.738840e-10
-5.086940e-12
8.484080e-10
5.203580e-10
-3.613590e-10
-1.360090e-09
-2.105310e-09
4.738840e-10
4.084930e-10
8.955420e-10
5.203580e-10
-5.970280e-10
-3.646930e-10
-1.256900e-10
4.738840e-10
-8.326970e-10
2.614320e-10
5.203580e-10
-3.613590e-10
-3.646930e-10
8.012740e-10
4.738840e-10
4.084930e-10
2.614320e-10
1.696820e-09
-5.970280e-10
-3.646930e-10
-1.571130e-10
1.076800e-10
-8.326970e-10
2.614320e-10
2.513800e-10
3.292210e-10
-3.646930e-10
8.012740e-10
1.076800e-10
1.131210e-09
2.614320e-10
1.696820e-09
3.292210e-10
1.068370e-09
-1.571130e-10
1.076800e-10
4.399150e-10
2.647940e-10
2.513800e-10
3.292210e-10
1.508280e-09
1.060800e-09
1.076800e-10
1.131210e-09
2.647940e-10
-1.414010e-10
3.292210e-10
1.068370e-09
1.060800e-09
7.698510e-10
4.399150e-10
2.647940e-10
0.000000e+00
1.547970e-10
1.508280e-09
1.060800e-09
-2.042460e-10
-3.229520e-10
2.647940e-10
-1.414010e-10
1.547970e-10
8.326970e-10
1.060800e-09
7.698510e-10
-3.229520e-10
-8.484080e-10
0.000000e+00
1.547970e-10
1.743950e-09
-6.068820e-11
-2.042460e-10
-3.229520e-10
-1.869640e-09
-4.381810e-10
1.547970e-10
8.326970e-10
-6.068820e-11
-1.429720e-09
-3.229520e-10
-8.484080e-10
-4.381810e-10
8.326970e-10
1.743950e-09
-6.068820e-11
-2.749470e-09
-1.445660e-10
-1.869640e-09
-4.381810e-10
1.963910e-09
3.859130e-10
-6.068820e-11
-1.429720e-09
-1.445660e-10
2.655200e-09
-4.381810e-10
8.326970e-10
3.859130e-10
-1.366880e-09
-2.749470e-09
-1.445660e-10
1.366880e-09
-4.289040e-10
1.963910e-09
3.859130e-10
-1.932480e-09
-2.034120e-09
-1.445660e-10
2.655200e-09
-4.289040e-10
-2.215290e-09
3.859130e-10
-1.366880e-09
-2.034120e-09
1.571130e-11
1.366880e-09
-4.289040e-10
1.351170e-09
-7.212490e-12
-1.932480e-09
-2.034120e-09
-1.822510e-09
-1.578520e-09
-4.289040e-10
-2.215290e-09
-7.212490e-12
-1.241190e-09
-2.034120e-09
1.571130e-11
-1.578520e-09
-1.366880e-09
1.351170e-09
-7.212490e-12
-4.399150e-10
3.848100e-10
-1.822510e-09
-1.578520e-09
9.112530e-10
2.711930e-10
-7.212490e-12
-1.241190e-09
3.848100e-10
1.429720e-09
-1.578520e-09
-1.366880e-09
2.711930e-10
-2.042460e-10
-4.399150e-10
3.848100e-10
1.272610e-09
1.145400e-11
9.112530e-10
2.711930e-10
5.813160e-10
2.974130e-09
3.848100e-10
1.429720e-09
1.145400e-11
-1.131210e-09
2.711930e-10
-2.042460e-10
2.974130e-09
5.310400e-09
1.272610e-09
1.145400e-11
-4.713380e-10
-1.580230e-10
5.813160e-10
2.974130e-09
2.513800e-10
-2.690720e-10
1.145400e-11
-1.131210e-09
-1.580230e-10
1.099790e-10
2.974130e-09
5.310400e-09
-2.690720e-10
-8.484080e-10
-4.713380e-10
-1.580230e-10
-1.775370e-09
1.222530e-10
2.513800e-10
-2.690720e-10
9.898090e-10
-1.623780e-09
-1.580230e-10
1.099790e-10
1.222530e-10
2.089600e-09
-2.690720e-10
-8.484080e-10
-1.623780e-09
-4.210620e-09
-1.775370e-09
1.222530e-10
9.426750e-10
1.029080e-10
9.898090e-10
-1.623780e-09
-2.199580e-10
5.846350e-10
1.222530e-10
2.089600e-09
1.029080e-10
-6.441610e-10
-1.623780e-09
-4.210620e-09
5.846350e-10
1.445440e-09
9.426750e-10
1.029080e-10
4.242040e-10
2.573240e-11
-2.199580e-10
5.846350e-10
-3.613590e-10
-7.182710e-11
1.029080e-10
-6.441610e-10
2.573240e-11
-3.613590e-10
5.846350e-10
1.445440e-09
-7.182710e-11
2.985140e-10
4.242040e-10
2.573240e-11
0.000000e+00
-2.145090e-11
-3.613590e-10
-7.182710e-11
0.000000e+00
-8.700750e-11
2.573240e-11
-3.613590e-10
-2.145090e-11
0.000000e+00
-7.182710e-11
2.985140e-10
-8.700750e-11
-1.256900e-10
0.000000e+00
-2.145090e-11
0.000000e+00
-1.819060e-11
0.000000e+00
-8.700750e-11
0.000000e+00
4.999540e-12
-2.145090e-11
0.000000e+00
-1.819060e-11
0.000000e+00
-8.700750e-11
-1.256900e-10
4.999540e-12
0.000000e+00
0.000000e+00
-1.819060e-11
0.000000e+00
-2.456780e-12
0.000000e+00
4.999540e-12
0.000000e+00
-3.476260e-12
-1.819060e-11
0.000000e+00
-2.456780e-12
0.000000e+00
4.999540e-12
0.000000e+00
-3.476260e-12
0.000000e+00
0.000000e+00
-2.456780e-12
0.000000e+00
-3.168520e-12
0.000000e+00
-3.476260e-12
0.000000e+00
-7.161250e-12
-2.456780e-12
0.000000e+00
-3.168520e-12
0.000000e+00
-3.476260e-12
0.000000e+00
-7.161250e-12
0.000000e+00
</DataArray>
<DataArray type="Float32" Name="V2" format="ascii">
0.000000e+00
0.000000e+00
5.861510e-04
5.861500e-04
0.000000e+00
0.000000e+00
5.861470e-04
5.861500e-04
0.000000e+00
0.000000e+00
5.861500e-04
5.861510e-04
0.000000e+00
0.000000e+00
5.861500e-04
5.861490e-04
5.861510e-04
5.861500e-04
7.393380e-04
7.393420e-04
5.861470e-04
5.861500e-04
7.393410e-04
7.393440e-04
5.861500e-04
5.861510e-04
7.393420e-04
7.393410e-04
5.861500e-04
5.861490e-04
7.393440e-04
7.393380e-04
7.393380e-04
7.393420e-04
1.368040e-03
1.368030e-03
7.393410e-04
7.393440e-04
1.368030e-03
1.368040e-03
7.393420e-04
7.393410e-04
1.368030e-03
1.368040e-03
7.393440e-04
7.393380e-04
1.368040e-03
1.368030e-03
1.368040e-03
1.368030e-03
1.766920e-03
1.766910e-03
1.368030e-03
1.368040e-03
1.766910e-03
1.766920e-03
1.368030e-03
1.368040e-03
1.766910e-03
1.766920e-03
1.368040e-03
1.368030e-03
1.766920e-03
1.766910e-03
1.766920e-03
1.766910e-03
4.580020e-03
4.580020e-03
1.766910e-03
1.766920e-03
4.580020e-03
4.580030e-03
1.766910e-03
1.766920e-03
4.580020e-03
4.580020e-03
1.766920e-03
1.766910e-03
4.580030e-03
4.580020e-03
4.580020e-03
4.580020e-03
7.575610e-03
7.575610e-03
4.580020e-03
4.580030e-03
7.575610e-03
7.575610e-03
4.580020e-03
4.580020e-03
7.575610e-03
7.575610e-03
4.580030e-03
4.580020e-03
7.575610e-03
7.575610e-03
7.575610e-03
7.575610e-03
1.490610e-02
1.490610e-02
7.575610e-03
7.575610e-03
1.490610e-02
1.490610e-02
7.575610e-03
7.575610e-03
1.490610e-02
1.490610e-02
7.575610e-03
7.575610e-03
1.490610e-02
1.490610e-02
1.490610e-02
1.490610e-02
2.575420e-02
2.575420e-02
1.490610e-02
1.490610e-02
2.575420e-02
2.575420e-02
1.490610e-02
1.490610e-02
2.575420e-02
2.575420e-02
1.490610e-02
1.490610e-02
2.575420e-02
2.575420e-02
2.575420e-02
2.575420e-02
3.897300e-02
3.897300e-02
2.575420e-02
2.575420e-02
3.897300e-02
3.897300e-02
2.575420e-02
2.575420e-02
3.897300e-02
3.897300e-02
2.575420e-02
2.575420e-02
3.897300e-02
3.897300e-02
3.897300e-02
3.897300e-02
4.772250e-02
4.772250e-02
3.897300e-02
3.897300e-02
4.772250e-02
4.772250e-02
3.897300e-02
3.897300e-02
4.772250e-02
4.772250e-02
3.897300e-02
3.897300e-02
4.772250e-02
4.772250e-02
4.772250e-02
4.772250e-02
4.371020e-02
4.371020e-02
4.772250e-02
4.772250e-02
4.371020e-02
4.371020e-02
4.772250e-02
4.772250e-02
4.371020e-02
4.371020e-02
4.772250e-02
4.772250e-02
4.371020e-02
4.371020e-02
4.371020e-02
4.371020e-02
2.332160e-02
2.332160e-02
4.371020e-02
4.371020e-02
2.332160e-02
2.332160e-02
4.371020e-02
4.371020e-02
2.332160e-02
2.332160e-02
4.371020e-02
4.371020e-02
2.332160e-02
2.332160e-02
2.332160e-02
2.332160e-02
-7.783180e-03
-7.783180e-03
2.332160e-02
2.332160e-02
-7.783180e-03
-7.783180e-03
2.332160e-02
2.332160e-02
-7.783180e-03
-7.783180e-03
2.332160e-02
2.332160e-02
-7.783180e-03
-7.783170e-03
-7.783180e-03
-7.783180e-03
-2.427940e-02
-2.427940e-02
-7.783180e-03
-7.783180e-03
-2.427940e-02
-2.427940e-02
-7.783180e-03
-7.783180e-03
-2.427940e-02
-2.427940e-02
-7.783180e-03
-7.783170e-03
-2.427940e-02
-2.427940e-02
-2.427940e-02
-2.427940e-02
-1.421790e-02
-1.421790e-02
-2.427940e-02
-2.427940e-02
-1.421790e-02
-1.421790e-02
-2.427940e-02
-2.427940e-02
-1.421790e-02
-1.421790e-02
-2.427940e-02
-2.427940e-02
-1.421790e-02
-1.421790e-02
-1.421790e-02
-1.421790e-02
8.441760e-03
8.441760e-03
-1.421790e-02
-1.421790e-02
8.441760e-03
8.441760e-03
-1.421790e-02
-1.421790e-02
8.441760e-03
8.441760e-03
-1.421790e-02
-1.421790e-02
8.441760e-03
8.441760e-03
8.441760e-03
8.441760e-03
1.529890e-02
1.529890e-02
8.441760e-03
8.441760e-03
1.529890e-02
1.529890e-02
8.441760e-03
8.441760e-03
1.529890e-02
1.529890e-02
8.441760e-03
8.441760e-03
1.529890e-02
1.529890e-02
1.529890e-02
1.529890e-02
-3.584050e-03
-3.584050e-03
1.529890e-02
1.529890e-02
-3.584050e-03
-3.584060e-03
1.529890e-02
1.529890e-02
-3.584050e-03
-3.584060e-03
1.529890e-02
1.529890e-02
-3.584060e-03
-3.584050e-03
-3.584050e-03
-3.584050e-03
-1.108190e-02
-1.108190e-02
-3.584050e-03
-3.584060e-03
-1.108190e-02
-1.108190e-02
-3.584050e-03
-3.584060e-03
-1.108190e-02
-1.108190e-02
-3.584060e-03
-3.584050e-03
-1.108190e-02
-1.108190e-02
-1.108190e-02
-1.108190e-02
4.083480e-03
4.083450e-03
-1.108190e-02
-1.108190e-02
4.083460e-03
4.083480e-03
-1.108190e-02
-1.108190e-02
4.083450e-03
4.083480e-03
-1.108190e-02
-1.108190e-02
4.083480e-03
4.083460e-03
4.083480e-03
4.083450e-03
3.993110e-03
3.993120e-03
4.083460e-03
4.083480e-03
3.993120e-03
3.993110e-03
4.083450e-03
4.083480e-03
3.993120e-03
3.993120e-03
4.083480e-03
4.083460e-03
3.993110e-03
3.993120e-03
3.993110e-03
3.993120e-03
-2.481480e-03
-2.481490e-03
3.993120e-03
3.993110e-03
-2.481480e-03
-2.481490e-03
3.993120e-03
3.993120e-03
-2.481490e-03
-2.481490e-03
3.993110e-03
3.993120e-03
-2.481490e-03
-2.481490e-03
-2.481480e-03
-2.481490e-03
-6.482100e-04
-6.482810e-04
-2.481480e-03
-2.481490e-03
-6.482590e-04
-6.482220e-04
-2.481490e-03
-2.481490e-03
-6.482810e-04
-6.482320e-04
-2.481490e-03
-2.481490e-03
-6.482220e-04
-6.482690e-04
-6.482100e-04
-6.482810e-04
9.649410e-04
9.649020e-04
-6.482590e-04
-6.482220e-04
9.649140e-04
9.649340e-04
-6.482810e-04
-6.482320e-04
9.649020e-04
9.649310e-04
-6.482220e-04
-6.482690e-04
9.649340e-04
9.649140e-04
9.649410e-04
9.649020e-04
-1.508660e-06
-1.426580e-06
9.649140e-04
9.649340e-04
-1.455870e-06
-1.491940e-06
9.649020e-04
9.649310e-04
-1.426580e-06
-1.481130e-06
9.649340e-04
9.649140e-04
-1.491940e-06
-1.451720e-06
-1.508660e-06
-1.426580e-06
-9.198440e-05
-9.198830e-05
-1.455870e-06
-1.491940e-06
-9.198650e-05
-9.198630e-05
-1.426580e-06
-1.481130e-06
-9.198830e-05
-9.198730e-05
-1.491940e-06
-1.451720e-06
-9.198630e-05
-9.198660e-05
-9.198440e-05
-9.198830e-05
1.115460e-04
1.115460e-04
-9.198650e-05
-9.198630e-05
1.115460e-04
1.115460e-04
-9.198830e-05
-9.198730e-05
1.115460e-04
1.115460e-04
-9.198630e-05
-9.198660e-05
1.115460e-04
1.115460e-04
1.115460e-04
1.115460e-04
1.237210e-04
1.237210e-04
1.115460e-04
1.115460e-04
1.237210e-04
1.237210e-04
1.115460e-04
1.115460e-04
1.237210e-04
1.237210e-04
1.115460e-04
1.115460e-04
1.237210e-04
1.237200e-04
1.237210e-04
1.237210e-04
6.821790e-05
6.821790e-05
1.237210e-04
1.237210e-04
6.821780e-05
6.821790e-05
1.237210e-04
1.237210e-04
6.821790e-05
6.821750e-05
1.237210e-04
1.237200e-04
6.821790e-05
6.821780e-05
6.821790e-05
6.821790e-05
-5.896330e-05
-5.896170e-05
6.821780e-05
6.821790e-05
-5.896330e-05
-5.896230e-05
6.821790e-05
6.821750e-05
-5.896170e-05
-5.896170e-05
6.821790e-05
6.821780e-05
-5.896230e-05
-5.896170e-05
0.000000e+00
0.000000e+00
5.861470e-04
5.861500e-04
0.000000e+00
0.000000e+00
5.861460e-04
5.861500e-04
0.000000e+00
0.000000e+00
5.861500e-04
5.861490e-04
0.000000e+00
0.000000e+00
5.861500e-04
5.861440e-04
5.861470e-04
5.861500e-04
7.393410e-04
7.393440e-04
5.861460e-04
5.861500e-04
7.393370e-04
7.393440e-04
5.861500e-04
5.861490e-04
7.393440e-04
7.393380e-04
5.861500e-04
5.861440e-04
7.393440e-04
7.393400e-04
7.393410e-04
7.393440e-04
1.368030e-03
1.368040e-03
7.393370e-04
7.393440e-04
1.368030e-03