<?xml version="1.0"?>
<VTKFile type="UnstructuredGrid" version="0.1" byte_order="LittleEndian" compressor="vtkZLibDataCompressor">
<UnstructuredGrid>
<Piece NumberOfPoints="960" NumberOfCells="120">
<Points>
<DataArray type="Float32" NumberOfComponents="3" format="ascii">
-4.000000e+02 -6.000000e+03 -4.000000e+02
0.000000e+00 -6.000000e+03 -4.000000e+02
-4.000000e+02 -5.600000e+03 -4.000000e+02
4.527570e-11 -5.600000e+03 -4.000000e+02
-4.000000e+02 -6.000000e+03 0.000000e+00
0.000000e+00 -6.000000e+03 0.000000e+00
-4.000000e+02 -5.600000e+03 -9.350800e-10
-7.681040e-10 -5.600000e+03 -3.882480e-10
0.000000e+00 -6.000000e+03 -4.000000e+02
4.000000e+02 -6.000000e+03 -4.000000e+02
4.527570e-11 -5.600000e+03 -4.000000e+02
4.000000e+02 -5.600000e+03 -4.000000e+02
0.000000e+00 -6.000000e+03 0.000000e+00
4.000000e+02 -6.000000e+03 0.000000e+00
-7.681040e-10 -5.600000e+03 -3.882480e-10
4.000000e+02 -5.600000e+03 6.266270e-10
-4.000000e+02 -5.600000e+03 -4.000000e+02
4.527570e-11 -5.600000e+03 -4.000000e+02
-4.000000e+02 -5.200010e+03 -4.000000e+02
1.394750e-09 -5.200010e+03 -4.000000e+02
-4.000000e+02 -5.600000e+03 -9.350800e-10
-7.681040e-10 -5.600000e+03 -3.882480e-10
-4.000000e+02 -5.200010e+03 2.705300e-10
7.123380e-10 -5.200010e+03 6.061070e-10
4.527570e-11 -5.600000e+03 -4.000000e+02
4.000000e+02 -5.600000e+03 -4.000000e+02
1.394750e-09 -5.200010e+03 -4.000000e+02
4.000000e+02 -5.200010e+03 -4.000000e+02
-7.681040e-10 -5.600000e+03 -3.882480e-10
4.000000e+02 -5.600000e+03 6.266270e-10
7.123380e-10 -5.200010e+03 6.061070e-10
4.000000e+02 -5.200010e+03 6.122070e-10
-4.000000e+02 -5.200010e+03 -4.000000e+02
1.394750e-09 -5.200010e+03 -4.000000e+02
-4.000000e+02 -4.800010e+03 -4.000000e+02
1.844120e-09 -4.800010e+03 -4.000000e+02
-4.000000e+02 -5.200010e+03 2.705300e-10
7.123380e-10 -5.200010e+03 6.061070e-10
-4.000000e+02 -4.800010e+03 3.470040e-10
1.921060e-09 -4.800010e+03 2.023830e-09
1.394750e-09 -5.200010e+03 -4.000000e+02
4.000000e+02 -5.200010e+03 -4.000000e+02
1.844120e-09 -4.800010e+03 -4.000000e+02
4.000000e+02 -4.800010e+03 -4.000000e+02
7.123380e-10 -5.200010e+03 6.061070e-10
4.000000e+02 -5.200010e+03 6.122070e-10
1.921060e-09 -4.800010e+03 2.023830e-09
4.000000e+02 -4.800010e+03 1.330720e-09
-4.000000e+02 -4.800010e+03 -4.000000e+02
1.844120e-09 -4.800010e+03 -4.000000e+02
-4.000000e+02 -4.400020e+03 -4.000000e+02
1.978870e-09 -4.400020e+03 -4.000000e+02
-4.000000e+02 -4.800010e+03 3.470040e-10
1.921060e-09 -4.800010e+03 2.023830e-09
-4.000000e+02 -4.400020e+03 6.439480e-10
1.094000e-09 -4.400020e+03 1.333390e-09
1.844120e-09 -4.800010e+03 -4.000000e+02
4.000000e+02 -4.800010e+03 -4.000000e+02
1.978870e-09 -4.400020e+03 -4.000000e+02
4.000000e+02 -4.400020e+03 -4.000000e+02
1.921060e-09 -4.800010e+03 2.023830e-09
4.000000e+02 -4.800010e+03 1.330720e-09
1.094000e-09 -4.400020e+03 1.333390e-09
4.000000e+02 -4.400020e+03 1.373220e-09
-4.000000e+02 -4.400020e+03 -4.000000e+02
1.978870e-09 -4.400020e+03 -4.000000e+02
-4.000000e+02 -4.000040e+03 -4.000000e+02
1.430070e-09 -4.000040e+03 -4.000000e+02
-4.000000e+02 -4.400020e+03 6.439480e-10
1.094000e-09 -4.400020e+03 1.333390e-09
-4.000000e+02 -4.000040e+03 1.125280e-09
1.447690e-09 -4.000040e+03 1.299070e-09
1.978870e-09 -4.400020e+03 -4.000000e+02
4.000000e+02 -4.400020e+03 -4.000000e+02
1.430070e-09 -4.000040e+03 -4.000000e+02
4.000000e+02 -4.000040e+03 -4.000000e+02
1.094000e-09 -4.400020e+03 1.333390e-09
4.000000e+02 -4.400020e+03 1.373220e-09
1.447690e-09 -4.000040e+03 1.299070e-09
4.000000e+02 -4.000040e+03 1.861780e-09
-4.000000e+02 -4.000040e+03 -4.000000e+02
1.430070e-09 -4.000040e+03 -4.000000e+02
-4.000000e+02 -3.600060e+03 -4.000000e+02
1.862980e-09 -3.600060e+03 -4.000000e+02
-4.000000e+02 -4.000040e+03 1.125280e-09
1.447690e-09 -4.000040e+03 1.299070e-09
-4.000000e+02 -3.600060e+03 1.013790e-09
2.056040e-09 -3.600060e+03 8.569410e-10
1.430070e-09 -4.000040e+03 -4.000000e+02
4.000000e+02 -4.000040e+03 -4.000000e+02
1.862980e-09 -3.600060e+03 -4.000000e+02
4.000000e+02 -3.600060e+03 -4.000000e+02
1.447690e-09 -4.000040e+03 1.299070e-09
4.000000e+02 -4.000040e+03 1.861780e-09
2.056040e-09 -3.600060e+03 8.569410e-10
4.000000e+02 -3.600060e+03 1.341530e-09
-4.000000e+02 -3.600060e+03 -4.000000e+02
1.862980e-09 -3.600060e+03 -4.000000e+02
-4.000000e+02 -3.200110e+03 -4.000000e+02
3.207670e-09 -3.200110e+03 -4.000000e+02
-4.000000e+02 -3.600060e+03 1.013790e-09
2.056040e-09 -3.600060e+03 8.569410e-10
-4.000000e+02 -3.200110e+03 1.026540e-09
2.079700e-09 -3.200110e+03 1.038090e-09
1.862980e-09 -3.600060e+03 -4.000000e+02
4.000000e+02 -3.600060e+03 -4.000000e+02
3.207670e-09 -3.200110e+03 -4.000000e+02
4.000000e+02 -3.200110e+03 -4.000000e+02
2.056040e-09 -3.600060e+03 8.569410e-10
4.000000e+02 -3.600060e+03 1.341530e-09
2.079700e-09 -3.200110e+03 1.038090e-09
4.000000e+02 -3.200110e+03 1.977600e-09
-4.000000e+02 -3.200110e+03 -4.000000e+02
3.207670e-09 -3.200110e+03 -4.000000e+02
-4.000000e+02 -2.800170e+03 -4.000000e+02
2.132930e-09 -2.800170e+03 -4.000000e+02
-4.000000e+02 -3.200110e+03 1.026540e-09
2.079700e-09 -3.200110e+03 1.038090e-09
-4.000000e+02 -2.800170e+03 6.348180e-10
2.027110e-09 -2.800170e+03 1.274410e-09
3.207670e-09 -3.200110e+03 -4.000000e+02
4.000000e+02 -3.200110e+03 -4.000000e+02
2.132930e-09 -2.800170e+03 -4.000000e+02
4.000000e+02 -2.800170e+03 -4.000000e+02
2.079700e-09 -3.200110e+03 1.038090e-09
4.000000e+02 -3.200110e+03 1.977600e-09
2.027110e-09 -2.800170e+03 1.274410e-09
4.000000e+02 -2.800170e+03 2.285910e-09
-4.000000e+02 -2.800170e+03 -4.000000e+02
2.132930e-09 -2.800170e+03 -4.000000e+02
-4.000000e+02 -2.400240e+03 -4.000000e+02
1.692670e-09 -2.400240e+03 -4.000000e+02
-4.000000e+02 -2.800170e+03 6.348180e-10
2.027110e-09 -2.800170e+03 1.274410e-09
-4.000000e+02 -2.400240e+03 4.544230e-10
1.380120e-09 -2.400240e+03 6.085900e-10
2.132930e-09 -2.800170e+03 -4.000000e+02
4.000000e+02 -2.800170e+03 -4.000000e+02
1.692670e-09 -2.400240e+03 -4.000000e+02
4.000000e+02 -2.400240e+03 -4.000000e+02
2.027110e-09 -2.800170e+03 1.274410e-09
4.000000e+02 -2.800170e+03 2.285910e-09
1.380120e-09 -2.400240e+03 6.085900e-10
4.000000e+02 -2.400240e+03 1.541370e-09
-4.000000e+02 -2.400240e+03 -4.000000e+02
1.692670e-09 -2.400240e+03 -4.000000e+02
-4.000000e+02 -2.000290e+03 -4.000000e+02
2.204600e-09 -2.000290e+03 -4.000000e+02
-4.000000e+02 -2.400240e+03 4.544230e-10
1.380120e-09 -2.400240e+03 6.085900e-10
-4.000000e+02 -2.000290e+03 7.789270e-10
1.200330e-09 -2.000290e+03 5.555230e-10
1.692670e-09 -2.400240e+03 -4.000000e+02
4.000000e+02 -2.400240e+03 -4.000000e+02
2.204600e-09 -2.000290e+03 -4.000000e+02
4.000000e+02 -2.000290e+03 -4.000000e+02
1.380120e-09 -2.400240e+03 6.085900e-10
4.000000e+02 -2.400240e+03 1.541370e-09
1.200330e-09 -2.000290e+03 5.555230e-10
4.000000e+02 -2.000290e+03 1.173640e-09
-4.000000e+02 -2.000290e+03 -4.000000e+02
2.204600e-09 -2.000290e+03 -4.000000e+02
-4.000000e+02 -1.600320e+03 -4.000000e+02
9.697820e-10 -1.600320e+03 -4.000000e+02
-4.000000e+02 -2.000290e+03 7.789270e-10
1.200330e-09 -2.000290e+03 5.555230e-10
-4.000000e+02 -1.600320e+03 5.865300e-10
7.123310e-10 -1.600320e+03 2.894760e-10
2.204600e-09 -2.000290e+03 -4.000000e+02
4.000000e+02 -2.000290e+03 -4.000000e+02
9.697820e-10 -1.600320e+03 -4.000000e+02
4.000000e+02 -1.600320e+03 -4.000000e+02
1.200330e-09 -2.000290e+03 5.555230e-10
4.000000e+02 -2.000290e+03 1.173640e-09
7.123310e-10 -1.600320e+03 2.894760e-10
4.000000e+02 -1.600320e+03 4.262230e-10
-4.000000e+02 -1.600320e+03 -4.000000e+02
9.697820e-10 -1.600320e+03 -4.000000e+02
-4.000000e+02 -1.200300e+03 -4.000000e+02
5.156550e-10 -1.200300e+03 -4.000000e+02
-4.000000e+02 -1.600320e+03 5.865300e-10
7.123310e-10 -1.600320e+03 2.894760e-10
-4.000000e+02 -1.200300e+03 -7.979130e-11
3.606630e-10 -1.200300e+03 -4.749700e-11
9.697820e-10 -1.600320e+03 -4.000000e+02
4.000000e+02 -1.600320e+03 -4.000000e+02
5.156550e-10 -1.200300e+03 -4.000000e+02
4.000000e+02 -1.200300e+03 -4.000000e+02
7.123310e-10 -1.600320e+03 2.894760e-10
4.000000e+02 -1.600320e+03 4.262230e-10
3.606630e-10 -1.200300e+03 -4.749700e-11
4.000000e+02 -1.200300e+03 9.280870e-11
-4.000000e+02 -1.200300e+03 -4.000000e+02
5.156550e-10 -1.200300e+03 -4.000000e+02
-4.000000e+02 -8.002700e+02 -4.000000e+02
1.026940e-09 -8.002700e+02 -4.000000e+02
-4.000000e+02 -1.200300e+03 -7.979130e-11
3.606630e-10 -1.200300e+03 -4.749700e-11
-4.000000e+02 -8.002700e+02 5.563730e-11
5.387620e-10 -8.002700e+02 4.167680e-10
5.156550e-10 -1.200300e+03 -4.000000e+02
4.000000e+02 -1.200300e+03 -4.000000e+02
1.026940e-09 -8.002700e+02 -4.000000e+02
4.000000e+02 -8.002700e+02 -4.000000e+02
3.606630e-10 -1.200300e+03 -4.749700e-11
4.000000e+02 -1.200300e+03 9.280870e-11
5.387620e-10 -8.002700e+02 4.167680e-10
4.000000e+02 -8.002700e+02 3.667530e-10
-4.000000e+02 -8.002700e+02 -4.000000e+02
1.026940e-09 -8.002700e+02 -4.000000e+02
-4.000000e+02 -4.002610e+02 -4.000000e+02
8.844460e-10 -4.002610e+02 -4.000000e+02
-4.000000e+02 -8.002700e+02 5.563730e-11
5.387620e-10 -8.002700e+02 4.167680e-10
-4.000000e+02 -4.002610e+02 -3.647760e-10
5.627020e-10 -4.002610e+02 -4.672040e-10
1.026940e-09 -8.002700e+02 -4.000000e+02
4.000000e+02 -8.002700e+02 -4.000000e+02
8.844460e-10 -4.002610e+02 -4.000000e+02
4.000000e+02 -4.002610e+02 -4.000000e+02
5.387620e-10 -8.002700e+02 4.167680e-10
4.000000e+02 -8.002700e+02 3.667530e-10
5.627020e-10 -4.002610e+02 -4.672040e-10
4.000000e+02 -4.002610e+02 4.852940e-11
-4.000000e+02 -4.002610e+02 -4.000000e+02
8.844460e-10 -4.002610e+02 -4.000000e+02
-4.000000e+02 -2.791610e-01 -4.000000e+02
7.014070e-10 -2.791610e-01 -4.000000e+02
-4.000000e+02 -4.002610e+02 -3.647760e-10
5.627020e-10 -4.002610e+02 -4.672040e-10
-4.000000e+02 -2.791610e-01 -1.316410e-09
4.923870e-10 -2.791610e-01 -7.698440e-10
8.844460e-10 -4.002610e+02 -4.000000e+02
4.000000e+02 -4.002610e+02 -4.000000e+02
7.014070e-10 -2.791610e-01 -4.000000e+02
4.000000e+02 -2.791610e-01 -4.000000e+02
5.627020e-10 -4.002610e+02 -4.672040e-10
4.000000e+02 -4.002610e+02 4.852940e-11
[...]
<PointData>
<DataArray type="Float32" Name="V1" format="ascii">
0.000000e+00
0.000000e+00
-1.052650e-09
-6.586500e-10
0.000000e+00
0.000000e+00
1.052650e-09
3.853760e-10
0.000000e+00
0.000000e+00
-6.586500e-10
-3.142250e-11
0.000000e+00
0.000000e+00
3.853760e-10
4.242040e-10
-1.052650e-09
-6.586500e-10
-5.341830e-10
-2.058510e-10
1.052650e-09
3.853760e-10
2.828030e-10
-1.392300e-10
-6.586500e-10
-3.142250e-11
-2.058510e-10
3.770700e-10
3.853760e-10
4.242040e-10
-1.392300e-10
-1.806790e-09
-5.341830e-10
-2.058510e-10
-1.492570e-09
-1.031310e-09
2.828030e-10
-1.392300e-10
1.398300e-09
5.877210e-10
-2.058510e-10
3.770700e-10
-1.031310e-09
1.414010e-10
-1.392300e-10
-1.806790e-09
5.877210e-10
0.000000e+00
-1.492570e-09
-1.031310e-09
6.284500e-11
8.588380e-11
1.398300e-09
5.877210e-10
5.184710e-10
1.799440e-10
-1.031310e-09
1.414010e-10
8.588380e-11
6.598730e-10
5.877210e-10
0.000000e+00
1.799440e-10
-8.012740e-10
6.284500e-11
8.588380e-11
1.743950e-09
3.171960e-10
5.184710e-10
1.799440e-10
-2.560930e-09
-1.225510e-09
8.588380e-11
6.598730e-10
3.171960e-10
3.613590e-10
1.799440e-10
-8.012740e-10
-1.225510e-09
-7.070060e-10
1.743950e-09
3.171960e-10
2.828030e-10
-4.188330e-10
-2.560930e-09
-1.225510e-09
-1.414010e-10
4.479170e-10
3.171960e-10
3.613590e-10
-4.188330e-10
-1.335460e-09
-1.225510e-09
-7.070060e-10
4.479170e-10
1.665390e-09
2.828030e-10
-4.188330e-10
4.870490e-10
-1.131300e-10
-1.414010e-10
4.479170e-10
-5.184710e-10
8.972390e-12
-4.188330e-10
-1.335460e-09
-1.131300e-10
2.985140e-10
4.479170e-10
1.665390e-09
8.972390e-12
-4.242040e-10
4.870490e-10
-1.131300e-10
5.656050e-10
2.076170e-10
-5.184710e-10
8.972390e-12
1.099790e-09
3.810850e-10
-1.131300e-10
2.985140e-10
2.076170e-10
1.272610e-09
8.972390e-12
-4.242040e-10
3.810850e-10
-3.299360e-10
5.656050e-10
2.076170e-10
-9.426750e-11
-2.821550e-10
1.099790e-09
3.810850e-10
4.399150e-10
-1.605610e-10
2.076170e-10
1.272610e-09
-2.821550e-10
-1.335460e-09
3.810850e-10
-3.299360e-10
-1.605610e-10
1.319750e-09
-9.426750e-11
-2.821550e-10
1.571130e-10
6.580670e-12
4.399150e-10
-1.605610e-10
1.571130e-11
-1.838450e-10
-2.821550e-10
-1.335460e-09
6.580670e-12
-2.042460e-10
-1.605610e-10
1.319750e-09
-1.838450e-10
-5.656050e-10
1.571130e-10
6.580670e-12
1.304030e-09
1.770850e-10
1.571130e-11
-1.838450e-10
-6.441610e-10
-1.314480e-11
6.580670e-12
-2.042460e-10
1.770850e-10
0.000000e+00
-1.838450e-10
-5.656050e-10
-1.314480e-11
8.798300e-10
1.304030e-09
1.770850e-10
5.656050e-10
2.910540e-11
-6.441610e-10
-1.314480e-11
-1.885350e-10
-8.320810e-11
1.770850e-10
0.000000e+00
2.910540e-11
-6.598730e-10
-1.314480e-11
8.798300e-10
-8.320810e-11
-8.955420e-10
5.656050e-10
2.910540e-11
1.414010e-09
1.635970e-10
-1.885350e-10
-8.320810e-11
5.341830e-10
-1.560550e-10
2.910540e-11
-6.598730e-10
1.635970e-10
-1.728240e-10
-8.320810e-11
-8.955420e-10
-1.560550e-10
-3.142250e-10
1.414010e-09
1.635970e-10
-1.005520e-09
1.212170e-09
5.341830e-10
-1.560550e-10
-3.927810e-10
-4.965870e-10
1.635970e-10
-1.728240e-10
1.212170e-09
2.183860e-09
-1.560550e-10
-3.142250e-10
-4.965870e-10
3.142250e-10
-1.005520e-09
1.212170e-09
8.484080e-10
-3.302040e-10
-3.927810e-10
-4.965870e-10
4.713380e-10
-5.636210e-10
1.212170e-09
2.183860e-09
-3.302040e-10
9.426750e-10
-4.965870e-10
3.142250e-10
-5.636210e-10
-7.227180e-10
8.484080e-10
-3.302040e-10
-6.441610e-10
-1.184400e-10
4.713380e-10
-5.636210e-10
2.985140e-10
1.172950e-12
-3.302040e-10
9.426750e-10
-1.184400e-10
3.770700e-10
-5.636210e-10
-7.227180e-10
1.172950e-12
-5.341830e-10
-6.441610e-10
-1.184400e-10
1.728240e-10
3.358150e-10
2.985140e-10
1.172950e-12
1.366880e-09
3.902510e-10
-1.184400e-10
3.770700e-10
3.358150e-10
0.000000e+00
1.172950e-12
-5.341830e-10
3.902510e-10
0.000000e+00
1.728240e-10
3.358150e-10
-5.656050e-10
-1.296260e-09
1.366880e-09
3.902510e-10
-6.912950e-10
7.669030e-11
3.358150e-10
0.000000e+00
-1.296260e-09
2.199580e-10
3.902510e-10
0.000000e+00
7.669030e-11
0.000000e+00
-5.656050e-10
-1.296260e-09
-4.713380e-11
5.683050e-10
-6.912950e-10
7.669030e-11
-3.770700e-10
-1.624130e-11
-1.296260e-09
2.199580e-10
5.683050e-10
-9.740980e-10
7.669030e-11
0.000000e+00
-1.624130e-11
9.740980e-10
-4.713380e-11
5.683050e-10
-3.754990e-09
-9.983860e-10
-3.770700e-10
-1.624130e-11
1.304030e-09
-3.620410e-10
5.683050e-10
-9.740980e-10
-9.983860e-10
1.979620e-09
-1.624130e-11
9.740980e-10
-3.620410e-10
-1.963910e-09
-3.754990e-09
-9.983860e-10
3.047980e-09
7.602210e-10
1.304030e-09
-3.620410e-10
-7.070060e-10
-2.000730e-10
-9.983860e-10
1.979620e-09
7.602210e-10
-1.445440e-09
-3.620410e-10
-1.963910e-09
-2.000730e-10
2.985140e-10
3.047980e-09
7.602210e-10
5.263270e-09
1.343660e-09
-7.070060e-10
-2.000730e-10
-9.583870e-10
3.765870e-10
7.602210e-10
-1.445440e-09
1.343660e-09
-2.513800e-09
-2.000730e-10
2.985140e-10
3.765870e-10
1.728240e-09
5.263270e-09
1.343660e-09
-4.933330e-09
-1.003810e-09
-9.583870e-10
3.765870e-10
1.178340e-09
3.370430e-10
1.343660e-09
-2.513800e-09
-1.003810e-09
2.812310e-09
3.765870e-10
1.728240e-09
3.370430e-10
-5.970280e-10
-4.933330e-09
-1.003810e-09
-1.995330e-09
-3.999890e-10
1.178340e-09
3.370430e-10
4.084930e-10
1.450600e-10
-1.003810e-09
2.812310e-09
-3.999890e-10
1.146920e-09
3.370430e-10
-5.970280e-10
1.450600e-10
-2.042460e-10
-1.995330e-09
-3.999890e-10
1.618260e-09
4.860370e-10
4.084930e-10
1.450600e-10
-4.242040e-10
-1.928600e-11
-3.999890e-10
1.146920e-09
4.860370e-10
-7.855630e-10
1.450600e-10
-2.042460e-10
-1.928600e-11
3.142250e-10
1.618260e-09
4.860370e-10
0.000000e+00
7.653450e-11
-4.242040e-10
-1.928600e-11
0.000000e+00
-1.446920e-11
4.860370e-10
-7.855630e-10
7.653450e-11
0.000000e+00
-1.928600e-11
3.142250e-10
-1.446920e-11
-1.414010e-10
0.000000e+00
7.653450e-11
0.000000e+00
-4.809100e-12
0.000000e+00
-1.446920e-11
0.000000e+00
2.591690e-12
7.653450e-11
0.000000e+00
-4.809100e-12
0.000000e+00
-1.446920e-11
-1.414010e-10
2.591690e-12
0.000000e+00
0.000000e+00
-4.809100e-12
0.000000e+00
-6.815300e-12
0.000000e+00
2.591690e-12
0.000000e+00
-8.264600e-12
-4.809100e-12
0.000000e+00
-6.815300e-12
0.000000e+00
2.591690e-12
0.000000e+00
-8.264600e-12
0.000000e+00
0.000000e+00
-6.815300e-12
0.000000e+00
8.782330e-12
0.000000e+00
-8.264600e-12
0.000000e+00
1.314590e-12
-6.815300e-12
0.000000e+00
8.782330e-12
0.000000e+00
-8.264600e-12
0.000000e+00
1.314590e-12
0.000000e+00
0.000000e+00
8.782330e-12
0.000000e+00
-1.299820e-11
0.000000e+00
1.314590e-12
0.000000e+00
-2.003840e-11
8.782330e-12
0.000000e+00
-1.299820e-11
0.000000e+00
1.314590e-12
0.000000e+00
-2.003840e-11
0.000000e+00
0.000000e+00
0.000000e+00
1.052650e-09
3.853760e-10
0.000000e+00
0.000000e+00
-1.304030e-09
1.508370e-10
0.000000e+00
0.000000e+00
3.853760e-10
4.242040e-10
0.000000e+00
0.000000e+00
1.508370e-10
-1.178340e-09
1.052650e-09
3.853760e-10
2.828030e-10
-1.392300e-10
-1.304030e-09
1.508370e-10
-1.885350e-09
-1.028150e-09
3.853760e-10
4.242040e-10
-1.392300e-10
-1.806790e-09
1.508370e-10
-1.178340e-09
-1.028150e-09
2.670910e-10
2.828030e-10
-1.392300e-10
1.398300e-09
5.877210e-10
-1.885350e-09
-1.028150e-09
-5.970280e-10
-1.311580e-09
-1.392300e-10
-1.806790e-09
5.877210e-10
0.000000e+00
-1.028150e-09
2.670910e-10
-1.311580e-09
-1.335460e-09
1.398300e-09
5.877210e-10
5.184710e-10
1.799440e-10
-5.970280e-10
-1.311580e-09
3.142250e-11
6.617040e-10
5.877210e-10
0.000000e+00
1.799440e-10
-8.012740e-10
-1.311580e-09
-1.335460e-09
6.617040e-10
1.696820e-09
5.184710e-10
1.799440e-10
-2.560930e-09
-1.225510e-09
3.142250e-11
6.617040e-10
1.272610e-09
7.693730e-10
1.799440e-10
-8.012740e-10
-1.225510e-09
-7.070060e-10
6.617040e-10
1.696820e-09
7.693730e-10
8.641190e-10
-2.560930e-09
-1.225510e-09
-1.414010e-10
4.479170e-10
1.272610e-09
7.693730e-10
1.021230e-09
2.368280e-10
-1.225510e-09
-7.070060e-10
4.479170e-10
1.665390e-09
7.693730e-10
8.641190e-10
2.368280e-10
-1.319750e-09
-1.414010e-10
4.479170e-10
-5.184710e-10
8.972390e-12
1.021230e-09
2.368280e-10
-7.070060e-10
-6.647360e-10
4.479170e-10
1.665390e-09
8.972390e-12
-4.242040e-10
2.368280e-10
-1.319750e-09
-6.647360e-10
7.855630e-10
-5.184710e-10
8.972390e-12
1.099790e-09
3.810850e-10
-7.070060e-10
-6.647360e-10
1.728240e-09
1.797360e-09
8.972390e-12
-4.242040e-10
3.810850e-10
-3.299360e-10
-6.647360e-10
7.855630e-10
1.797360e-09
2.796600e-09
1.099790e-09
3.810850e-10
4.399150e-10
-1.605610e-10
1.728240e-09
1.797360e-09
8.641190e-10
-4.188000e-11
3.810850e-10
-3.299360e-10
-1.605610e-10
1.319750e-09
1.797360e-09
2.796600e-09
-4.188000e-11
-8.641190e-10
4.399150e-10
-1.605610e-10
1.571130e-11
-1.838450e-10
8.641190e-10
-4.188000e-11
-1.256900e-09
1.872310e-10
-1.605610e-10
1.319750e-09
-1.838450e-10
-5.656050e-10
-4.188000e-11
-8.641190e-10
1.872310e-10
0.000000e+00
1.571130e-11
-1.838450e-10
-6.441610e-10
-1.314480e-11
-1.256900e-09
1.872310e-10
6.912950e-10
-2.651840e-10
-1.838450e-10
-5.656050e-10
-1.314480e-11
8.798300e-10
1.872310e-10
0.000000e+00
-2.651840e-10
4.870490e-10
-6.441610e-10
-1.314480e-11
-1.885350e-10
-8.320810e-11
6.912950e-10
-2.651840e-10
3.613590e-10
1.654890e-10
-1.314480e-11
8.798300e-10
-8.320810e-11
-8.955420e-10
-2.651840e-10
4.870490e-10
1.654890e-10
-9.583870e-10
-1.885350e-10
-8.320810e-11
5.341830e-10
-1.560550e-10
3.613590e-10
1.654890e-10
1.618260e-09
-5.020890e-10
-8.320810e-11
-8.955420e-10
-1.560550e-10
-3.142250e-10
1.654890e-10
-9.583870e-10
-5.020890e-10
-7.227180e-10
5.341830e-10
-1.560550e-10
-3.927810e-10
-4.965870e-10
1.618260e-09
-5.020890e-10
-5.341830e-10
1.551280e-10
-1.560550e-10
-3.142250e-10
-4.965870e-10
3.142250e-10
-5.020890e-10
-7.227180e-10
1.551280e-10
1.398300e-09
-3.927810e-10
-4.965870e-10
4.713380e-10
-5.636210e-10
-5.341830e-10
1.551280e-10
1.131210e-09
2.310850e-10
-4.965870e-10
3.142250e-10
-5.636210e-10
-7.227180e-10
1.551280e-10
1.398300e-09
2.310850e-10
-8.484080e-10
4.713380e-10
-5.636210e-10
2.985140e-10
1.172950e-12
1.131210e-09
2.310850e-10
3.927810e-10
-4.406120e-10
-5.636210e-10
-7.227180e-10
1.172950e-12
-5.341830e-10
2.310850e-10
-8.484080e-10
-4.406120e-10
-2.356690e-10
2.985140e-10
1.172950e-12
1.366880e-09
3.902510e-10
3.927810e-10
-4.406120e-10
-1.099790e-09
-7.440590e-11
1.172950e-12
-5.341830e-10
3.902510e-10
0.000000e+00
-4.406120e-10
-2.356690e-10
-7.440590e-11
-6.441610e-10
1.366880e-09
3.902510e-10
-6.912950e-10
7.669030e-11
-1.099790e-09
-7.440590e-11
5.656050e-10
1.669850e-10
3.902510e-10
0.000000e+00
7.669030e-11
0.000000e+00
-7.440590e-11
-6.441610e-10
1.669850e-10
1.351170e-09
-6.912950e-10
7.669030e-11
-3.770700e-10
-1.624130e-11
5.656050e-10
1.669850e-10
0.000000e+00
-5.057360e-10
7.669030e-11
0.000000e+00
-1.624130e-11
9.740980e-10
1.669850e-10
1.351170e-09
-5.057360e-10
-6.284500e-11
-3.770700e-10
-1.624130e-11
1.304030e-09
-3.620410e-10
0.000000e+00
-5.057360e-10
-1.084080e-09
2.990350e-10
-1.624130e-11
9.740980e-10
-3.620410e-10
-1.963910e-09
-5.057360e-10
-6.284500e-11
2.990350e-10
1.681100e-09
1.304030e-09
-3.620410e-10
-7.070060e-10
-2.000730e-10
-1.084080e-09
2.990350e-10
-7.384290e-10
-1.518450e-09
-3.620410e-10
-1.963910e-09
-2.000730e-10
2.985140e-10
2.990350e-10
1.681100e-09
-1.518450e-09
-2.419530e-09
-7.070060e-10
-2.000730e-10
-9.583870e-10
3.765870e-10
-7.384290e-10
-1.518450e-09
5.813160e-10
-1.036360e-09
-2.000730e-10
2.985140e-10
3.765870e-10
1.728240e-09
-1.518450e-09
-2.419530e-09
-1.036360e-09
-2.686620e-09
-9.583870e-10
3.765870e-10
1.178340e-09
3.370430e-10
5.813160e-10
-1.036360e-09
4.556260e-10
2.068960e-09
3.765870e-10
1.728240e-09
3.370430e-10
-5.970280e-10
-1.036360e-09
-2.686620e-09
2.068960e-09
3.582170e-09
1.178340e-09
3.370430e-10
4.084930e-10
1.450600e-10
4.556260e-10
2.068960e-09
2.670910e-10
8.246740e-10
3.370430e-10
-5.970280e-10
1.450600e-10
-2.042460e-10
2.068960e-09
3.582170e-09
8.246740e-10
1.288320e-09
4.084930e-10
1.450600e-10
-4.242040e-10
-1.928600e-11
2.670910e-10
8.246740e-10
-3.142250e-11
-5.974890e-10
1.450600e-10
-2.042460e-10
-1.928600e-11
3.142250e-10
8.246740e-10
1.288320e-09
-5.974890e-10
-1.162630e-09
-4.242040e-10
-1.928600e-11
0.000000e+00
-1.446920e-11
-3.142250e-11
-5.974890e-10
-1.414010e-10
-6.258640e-11
-1.928600e-11
3.142250e-10
-1.446920e-11
-1.414010e-10
-5.974890e-10
-1.162630e-09
-6.258640e-11
0.000000e+00
0.000000e+00
-1.446920e-11
0.000000e+00
2.591690e-12
-1.414010e-10
-6.258640e-11
0.000000e+00
2.268700e-11
-1.446920e-11
-1.414010e-10
2.591690e-12
0.000000e+00
-6.258640e-11
0.000000e+00
2.268700e-11
0.000000e+00
0.000000e+00
2.591690e-12
0.000000e+00
-8.264600e-12
0.000000e+00
2.268700e-11
0.000000e+00
-3.697140e-12
2.591690e-12
0.000000e+00
-8.264600e-12
0.000000e+00
2.268700e-11
0.000000e+00
-3.697140e-12
0.000000e+00
0.000000e+00
-8.264600e-12
0.000000e+00
1.314590e-12
0.000000e+00
-3.697140e-12
0.000000e+00
3.666860e-12
-8.264600e-12
0.000000e+00
1.314590e-12
0.000000e+00
-3.697140e-12
0.000000e+00
3.666860e-12
0.000000e+00
0.000000e+00
1.314590e-12
0.000000e+00
-2.003840e-11
0.000000e+00
3.666860e-12
0.000000e+00
-1.895240e-11
1.314590e-12
0.000000e+00
-2.003840e-11
0.000000e+00
3.666860e-12
0.000000e+00
-1.895240e-11
0.000000e+00
</DataArray>
<DataArray type="Float32" Name="V2" format="ascii">
0.000000e+00
0.000000e+00
5.795140e-04
5.795110e-04
0.000000e+00
0.000000e+00
5.795070e-04
5.795100e-04
0.000000e+00
0.000000e+00
5.795110e-04
5.795100e-04
0.000000e+00
0.000000e+00
5.795100e-04
5.795120e-04
5.795140e-04
5.795110e-04
1.103280e-03
1.103290e-03
5.795070e-04
5.795100e-04
1.103290e-03
1.103290e-03
5.795110e-04
5.795100e-04
1.103290e-03
1.103290e-03
5.795100e-04
5.795120e-04
1.103290e-03
1.103290e-03
1.103280e-03
1.103290e-03
3.522740e-03
3.522730e-03
1.103290e-03
1.103290e-03
3.522730e-03
3.522730e-03
1.103290e-03
1.103290e-03
3.522730e-03
3.522730e-03
1.103290e-03
1.103290e-03
3.522730e-03
3.522740e-03
3.522740e-03
3.522730e-03
5.732730e-03
5.732730e-03
3.522730e-03
3.522730e-03
5.732720e-03
5.732730e-03
3.522730e-03
3.522730e-03
5.732730e-03
5.732720e-03
3.522730e-03
3.522740e-03
5.732730e-03
5.732730e-03
5.732730e-03
5.732730e-03
1.247160e-02
1.247160e-02
5.732720e-03
5.732730e-03
1.247160e-02
1.247160e-02
5.732730e-03
5.732720e-03
1.247160e-02
1.247160e-02
5.732730e-03
5.732730e-03
1.247160e-02
1.247160e-02
1.247160e-02
1.247160e-02
2.221780e-02
2.221780e-02
1.247160e-02
1.247160e-02
2.221780e-02
2.221780e-02
1.247160e-02
1.247160e-02
2.221780e-02
2.221780e-02
1.247160e-02
1.247160e-02
2.221780e-02
2.221780e-02
2.221780e-02
2.221780e-02
3.580390e-02
3.580390e-02
2.221780e-02
2.221780e-02
3.580390e-02
3.580390e-02
2.221780e-02
2.221780e-02
3.580390e-02
3.580390e-02
2.221780e-02
2.221780e-02
3.580390e-02
3.580390e-02
3.580390e-02
3.580390e-02
4.664410e-02
4.664410e-02
3.580390e-02
3.580390e-02
4.664410e-02
4.664410e-02
3.580390e-02
3.580390e-02
4.664410e-02
4.664410e-02
3.580390e-02
3.580390e-02
4.664410e-02
4.664410e-02
4.664410e-02
4.664410e-02
4.692490e-02
4.692490e-02
4.664410e-02
4.664410e-02
4.692490e-02
4.692490e-02
4.664410e-02
4.664410e-02
4.692490e-02
4.692490e-02
4.664410e-02
4.664410e-02
4.692490e-02
4.692490e-02
4.692490e-02
4.692490e-02
3.044300e-02
3.044300e-02
4.692490e-02
4.692490e-02
3.044300e-02
3.044300e-02
4.692490e-02
4.692490e-02
3.044300e-02
3.044300e-02
4.692490e-02
4.692490e-02
3.044300e-02
3.044300e-02
3.044300e-02
3.044300e-02
-1.052290e-03
-1.052290e-03
3.044300e-02
3.044300e-02
-1.052290e-03
-1.052290e-03
3.044300e-02
3.044300e-02
-1.052290e-03
-1.052290e-03
3.044300e-02
3.044300e-02
-1.052290e-03
-1.052290e-03
-1.052290e-03
-1.052290e-03
-2.282180e-02
-2.282180e-02
-1.052290e-03
-1.052290e-03
-2.282180e-02
-2.282180e-02
-1.052290e-03
-1.052290e-03
-2.282180e-02
-2.282180e-02
-1.052290e-03
-1.052290e-03
-2.282180e-02
-2.282180e-02
-2.282180e-02
-2.282180e-02
-1.806250e-02
-1.806250e-02
-2.282180e-02
-2.282180e-02
-1.806250e-02
-1.806250e-02
-2.282180e-02
-2.282180e-02
-1.806250e-02
-1.806250e-02
-2.282180e-02
-2.282180e-02
-1.806250e-02
-1.806250e-02
-1.806250e-02
-1.806250e-02
4.700260e-03
4.700260e-03
-1.806250e-02
-1.806250e-02
4.700260e-03
4.700260e-03
-1.806250e-02
-1.806250e-02
4.700260e-03
4.700260e-03
-1.806250e-02
-1.806250e-02
4.700260e-03
4.700260e-03
4.700260e-03
4.700260e-03
1.583060e-02
1.583060e-02
4.700260e-03
4.700260e-03
1.583060e-02
1.583060e-02
4.700260e-03
4.700260e-03
1.583060e-02
1.583060e-02
4.700260e-03
4.700260e-03
1.583060e-02
1.583060e-02
1.583060e-02
1.583060e-02
-1.207270e-03
-1.207270e-03
1.583060e-02
1.583060e-02
-1.207260e-03
-1.207260e-03
1.583060e-02
1.583060e-02
-1.207270e-03
-1.207270e-03
1.583060e-02
1.583060e-02
-1.207260e-03
-1.207260e-03
-1.207270e-03
-1.207270e-03
-1.103050e-02
-1.103050e-02
-1.207260e-03
-1.207260e-03
-1.103050e-02
-1.103050e-02
-1.207270e-03
-1.207270e-03
-1.103050e-02
-1.103050e-02
-1.207260e-03
-1.207260e-03
-1.103050e-02
-1.103050e-02
-1.103050e-02
-1.103050e-02
1.599680e-03
1.599680e-03
-1.103050e-02
-1.103050e-02
1.599680e-03
1.599680e-03
-1.103050e-02
-1.103050e-02
1.599680e-03
1.599680e-03
-1.103050e-02
-1.103050e-02
1.599680e-03
1.599680e-03
1.599680e-03
1.599680e-03
5.111190e-03
5.111190e-03
1.599680e-03
1.599680e-03
5.111190e-03
5.111190e-03
1.599680e-03
1.599680e-03
5.111190e-03
5.111190e-03
1.599680e-03
1.599680e-03
5.111190e-03
5.111200e-03
5.111190e-03
5.111190e-03
-2.626340e-03
-2.626360e-03
5.111190e-03
5.111190e-03
-2.626350e-03
-2.626340e-03
5.111190e-03
5.111190e-03
-2.626360e-03
-2.626340e-03
5.111190e-03
5.111200e-03
-2.626340e-03
-2.626350e-03
-2.626340e-03
-2.626360e-03
-1.182380e-03
-1.182410e-03
-2.626350e-03
-2.626340e-03
-1.182400e-03
-1.182380e-03
-2.626360e-03
-2.626340e-03
-1.182410e-03
-1.182380e-03
-2.626340e-03
-2.626350e-03
-1.182380e-03
-1.182410e-03
-1.182380e-03
-1.182410e-03
1.108070e-03
1.108120e-03
-1.182400e-03
-1.182380e-03
1.108110e-03
1.108090e-03
-1.182410e-03
-1.182380e-03
1.108120e-03
1.108090e-03
-1.182380e-03
-1.182410e-03
1.108090e-03
1.108110e-03
1.108070e-03
1.108120e-03
-3.388260e-05
-3.387620e-05
1.108110e-03
1.108090e-03
-3.387770e-05
-3.388000e-05
1.108120e-03
1.108090e-03
-3.387620e-05
-3.387710e-05
1.108090e-03
1.108110e-03
-3.388000e-05
-3.387520e-05
-3.388260e-05
-3.387620e-05
-2.369100e-04
-2.369210e-04
-3.387770e-05
-3.388000e-05
-2.369180e-04
-2.369130e-04
-3.387620e-05
-3.387710e-05
-2.369210e-04
-2.369140e-04
-3.388000e-05
-3.387520e-05
-2.369130e-04
-2.369200e-04
-2.369100e-04
-2.369210e-04
9.815990e-05
9.815680e-05
-2.369180e-04
-2.369130e-04
9.815800e-05
9.815740e-05
-2.369210e-04
-2.369140e-04
9.815680e-05
9.815560e-05
-2.369130e-04
-2.369200e-04
9.815740e-05
9.815730e-05
9.815990e-05
9.815680e-05
5.627570e-05
5.627510e-05
9.815800e-05
9.815740e-05
5.627520e-05
5.627520e-05
9.815680e-05
9.815560e-05
5.627510e-05
5.627510e-05
9.815740e-05
9.815730e-05
5.627520e-05
5.627530e-05
5.627570e-05
5.627510e-05
2.787240e-05
2.787240e-05
5.627520e-05
5.627520e-05
2.787200e-05
2.787210e-05
5.627510e-05
5.627510e-05
2.787240e-05
2.787290e-05
5.627520e-05
5.627530e-05
2.787210e-05
2.787310e-05
2.787240e-05
2.787240e-05
1.153790e-04
1.153790e-04
2.787200e-05
2.787210e-05
1.153790e-04
1.153790e-04
2.787240e-05
2.787290e-05
1.153790e-04
1.153790e-04
2.787210e-05
2.787310e-05
1.153790e-04
1.153790e-04
1.153790e-04
1.153790e-04
1.465290e-04
1.465290e-04
1.153790e-04
1.153790e-04
1.465290e-04
1.465290e-04
1.153790e-04
1.153790e-04
1.465290e-04
1.465290e-04
1.153790e-04
1.153790e-04
1.465290e-04
1.465300e-04
1.465290e-04
1.465290e-04
3.695410e-06
3.695790e-06
1.465290e-04
1.465290e-04
3.695410e-06
3.695920e-06
1.465290e-04
1.465290e-04
3.695790e-06
3.695920e-06
1.465290e-04
1.465300e-04
3.695920e-06
3.695660e-06
0.000000e+00
0.000000e+00
5.795070e-04
5.795100e-04
0.000000e+00
0.000000e+00
5.795140e-04
5.795100e-04
0.000000e+00
0.000000e+00
5.795100e-04
5.795120e-04
0.000000e+00
0.000000e+00
5.795100e-04
5.795080e-04
5.795070e-04
5.795100e-04
1.103290e-03
1.103290e-03
5.795140e-04
5.795100e-04
1.103290e-03
1.103290e-03
5.795100e-04
5.795120e-04
1.103290e-03
1.103290e-03
5.795100e-04
5.795080e-04
1.103290e-03
1.103290e-03
1.103290e-03
1.103290e-03
3.522730e-03
3.522730e-03
1.103290e-03
1.103290e-03
3.522740e-03
3.522730e-03
1.103290e-03
1.103290e-03
3.522730e-03
3.522740e-03