<?xml version="1.0"?>
<!-- time 22.6756-->
<VTKFile type="UnstructuredGrid" version="0.1" byte_order="LittleEndian">
<UnstructuredGrid>
<Piece NumberOfPoints="3240" NumberOfCells="0">
<Points>
  <DataArray type="Float32" Name="Position" NumberOfComponents="3" format="ascii">
	-333.333 2066.67 -333.333
	-333.333 2066.67 -200
	-333.333 2066.67 -66.6667
	-333.333 2066.67 66.6667
	-333.333 2066.67 200
	-333.333 2066.67 333.333
	-200 2066.67 -333.333
	-200 2066.67 -200
	-200 2066.67 -66.6667
	-200 2066.67 66.6667
	-200 2066.67 200
	-200 2066.67 333.333
	-66.6667 2066.67 -333.333
	-66.6667 2066.67 -200
	-66.6667 2066.67 -66.6667
	-66.6667 2066.67 66.6667
	-66.6667 2066.67 200
	-66.6667 2066.67 333.333
	66.6667 2066.67 -333.333
	66.6667 2066.67 -200
	66.6667 2066.67 -66.6667
	66.6667 2066.67 66.6667
	66.6667 2066.67 200
	66.6667 2066.67 333.333
	200 2066.67 -333.333
	200 2066.67 -200
	200 2066.67 -66.6667
	200 2066.67 66.6667
	200 2066.67 200
	200 2066.67 333.333
	333.333 2066.67 -333.333
	333.333 2066.67 -200
	333.333 2066.67 -66.6667
	333.333 2066.67 66.6667
	333.333 2066.67 200
	333.333 2066.67 333.333
	-333.333 2200 -333.333
	-333.333 2200 -200
	-333.333 2200 -66.6667
	-333.333 2200 66.6667
	-333.333 2200 200
	-333.333 2200 333.333
	-200 2200 -333.333
	-200 2200 -200
	-200 2200 -66.6667
	-200 2200 66.6667
	-200 2200 200
	-200 2200 333.333
	-66.6667 2200 -333.333
	-66.6667 2200 -200
	-66.6667 2200 -66.6667
	-66.6667 2200 66.6667
	-66.6667 2200 200
	-66.6667 2200 333.333
	66.6667 2200 -333.333
	66.6667 2200 -200
	66.6667 2200 -66.6667
	66.6667 2200 66.6667
	66.6667 2200 200
	66.6667 2200 333.333
	200 2200 -333.333
	200 2200 -200
	200 2200 -66.6667
	200 2200 66.6667
	200 2200 200
	200 2200 333.333
	333.333 2200 -333.333
	333.333 2200 -200
	333.333 2200 -66.6667
	333.333 2200 66.6667
	333.333 2200 200
	333.333 2200 333.333
	-333.333 2333.33 -333.333
	-333.333 2333.33 -200
	-333.333 2333.33 -66.6667
	-333.333 2333.33 66.6667
	-333.333 2333.33 200
	-333.333 2333.33 333.333
	-200 2333.33 -333.333
	-200 2333.33 -200
	-200 2333.33 -66.6667
	-200 2333.33 66.6667
	-200 2333.33 200
	-200 2333.33 333.333
	-66.6667 2333.33 -333.333
	-66.6667 2333.33 -200
	-66.6667 2333.33 -66.6667
	-66.6667 2333.33 66.6667
	-66.6667 2333.33 200
	-66.6667 2333.33 333.333
	66.6667 2333.33 -333.333
	66.6667 2333.33 -200
	66.6667 2333.33 -66.6667
	66.6667 2333.33 66.6667
	66.6667 2333.33 200
	66.6667 2333.33 333.333
	200 2333.33 -333.333
	200 2333.33 -200
	200 2333.33 -66.6667
	200 2333.33 66.6667
	200 2333.33 200
	200 2333.33 333.333
	333.333 2333.33 -333.333
	333.333 2333.33 -200
	333.333 2333.33 -66.6667
	333.333 2333.33 66.6667
	333.333 2333.33 200
	333.333 2333.33 333.333
	-333.333 2466.67 -333.333
	-333.333 2466.67 -200
	-333.333 2466.67 -66.6667
	-333.333 2466.67 66.6667
	-333.333 2466.67 200
	-333.333 2466.67 333.333
	-200 2466.67 -333.333
	-200 2466.67 -200
	-200 2466.67 -66.6667
	-200 2466.67 66.6667
	-200 2466.67 200
	-200 2466.67 333.333
	-66.6667 2466.67 -333.333
	-66.6667 2466.67 -200
	-66.6667 2466.67 -66.6667
	-66.6667 2466.67 66.6667
	-66.6667 2466.67 200
	-66.6667 2466.67 333.333
	66.6667 2466.67 -333.333
	66.6667 2466.67 -200
	66.6667 2466.67 -66.6667
	66.6667 2466.67 66.6667
	66.6667 2466.67 200
	66.6667 2466.67 333.333
	200 2466.67 -333.333
	200 2466.67 -200
	200 2466.67 -66.6667
	200 2466.67 66.6667
	200 2466.67 200
	200 2466.67 333.333
	333.333 2466.67 -333.333
	333.333 2466.67 -200
	333.333 2466.67 -66.6667
	333.333 2466.67 66.6667
	333.333 2466.67 200
	333.333 2466.67 333.333
	-333.333 2600 -333.333
	-333.333 2600 -200
	-333.333 2600 -66.6667
	-333.333 2600 66.6667
	-333.333 2600 200
	-333.333 2600 333.333
	-200 2600 -333.333
	-200 2600 -200
	-200 2600 -66.6667
	-200 2600 66.6667
	-200 2600 200
	-200 2600 333.333
	-66.6667 2600 -333.333
	-66.6667 2600 -200
	-66.6667 2600 -66.6667
	-66.6667 2600 66.6667
	-66.6667 2600 200
	-66.6667 2600 333.333
	66.6667 2600 -333.333
	66.6667 2600 -200
	66.6667 2600 -66.6667
	66.6667 2600 66.6667
	66.6667 2600 200
	66.6667 2600 333.333
	200 2600 -333.333
	200 2600 -200
	200 2600 -66.6667
	200 2600 66.6667
	200 2600 200
	200 2600 333.333
	333.333 2600 -333.333
	333.333 2600 -200
	333.333 2600 -66.6667
	333.333 2600 66.6667
	333.333 2600 200
	333.333 2600 333.333
	-333.333 2733.33 -333.333
	-333.333 2733.33 -200
	-333.333 2733.33 -66.6667
	-333.333 2733.33 66.6667
	-333.333 2733.33 200
	-333.333 2733.33 333.333
	-200 2733.33 -333.333
	-200 2733.33 -200
	-200 2733.33 -66.6667
	-200 2733.33 66.6667
	-200 2733.33 200
	-200 2733.33 333.333
	-66.6667 2733.33 -333.333
	-66.6667 2733.33 -200
	-66.6667 2733.33 -66.6667
	-66.6667 2733.33 66.6667
	-66.6667 2733.33 200
	-66.6667 2733.33 333.333
	66.6667 2733.33 -333.333
	66.6667 2733.33 -200
	66.6667 2733.33 -66.6667
	66.6667 2733.33 66.6667
	66.6667 2733.33 200
	66.6667 2733.33 333.333
	200 2733.33 -333.333
	200 2733.33 -200
	200 2733.33 -66.6667
	200 2733.33 66.6667
	200 2733.33 200
	200 2733.33 333.333
	333.333 2733.33 -333.333
	333.333 2733.33 -200
	333.333 2733.33 -66.6667
	333.333 2733.33 66.6667
	333.333 2733.33 200
	333.333 2733.33 333.333
	-333.333 2866.67 -333.333
	-333.333 2866.67 -200
	-333.333 2866.67 -66.6667
	-333.333 2866.67 66.6667
	-333.333 2866.67 200
	-333.333 2866.67 333.333
	-200 2866.67 -333.333
	-200 2866.67 -200
	-200 2866.67 -66.6667
	-200 2866.67 66.6667
	-200 2866.67 200
	-200 2866.67 333.333
	-66.6667 2866.67 -333.333
	-66.6667 2866.67 -200
	-66.6667 2866.67 -66.6667
	-66.6667 2866.67 66.6667
	-66.6667 2866.67 200
	-66.6667 2866.67 333.333
	66.6667 2866.67 -333.333
	66.6667 2866.67 -200
	66.6667 2866.67 -66.6667
	66.6667 2866.67 66.6667
	66.6667 2866.67 200
	66.6667 2866.67 333.333
	200 2866.67 -333.333
	200 2866.67 -200
	200 2866.67 -66.6667
	200 2866.67 66.6667
	200 2866.67 200
	200 2866.67 333.333
	333.333 2866.67 -333.333
	333.333 2866.67 -200
	333.333 2866.67 -66.6667
	333.333 2866.67 66.6667
	333.333 2866.67 200
	333.333 2866.67 333.333
	-333.333 3000 -333.333
	-333.333 3000 -200
	-333.333 3000 -66.6667
	-333.333 3000 66.6667
	-333.333 3000 200
	-333.333 3000 333.333
	-200 3000 -333.333
	-200 3000 -200
	-200 3000 -66.6667
	-200 3000 66.6667
	-200 3000 200
	-200 3000 333.333
	-66.6667 3000 -333.333
	-66.6667 3000 -200
	-66.6667 3000 -66.6667
	-66.6667 3000 66.6667
	-66.6667 3000 200
	-66.6667 3000 333.333
	66.6667 3000 -333.333
	66.6667 3000 -200
	66.6667 3000 -66.6667
	66.6667 3000 66.6667
	66.6667 3000 200
	66.6667 3000 333.333
	200 3000 -333.333
	200 3000 -200
	200 3000 -66.6667
	200 3000 66.6667
	200 3000 200
	200 3000 333.333
	333.333 3000 -333.333
	333.333 3000 -200
	333.333 3000 -66.6667
	333.333 3000 66.6667
	333.333 3000 200
	333.333 3000 333.333
	-333.333 3133.33 -333.333
	-333.333 3133.33 -200
	-333.333 3133.33 -66.6667
	-333.333 3133.33 66.6667
	-333.333 3133.33 200
	-333.333 3133.33 333.333
	-200 3133.33 -333.333
	-200 3133.33 -200
	-200 3133.33 -66.6667
	-200 3133.33 66.6667
	-200 3133.33 200
	-200 3133.33 333.333
	-66.6667 3133.33 -333.333
	-66.6667 3133.33 -200
	-66.6667 3133.33 -66.6667
	-66.6667 3133.33 66.6667
	-66.6667 3133.33 200
	-66.6667 3133.33 333.333
	66.6667 3133.33 -333.333
	66.6667 3133.33 -200
	66.6667 3133.33 -66.6667
	66.6667 3133.33 66.6667
	66.6667 3133.33 200
	66.6667 3133.33 333.333
	200 3133.33 -333.333
	200 3133.33 -200
	200 3133.33 -66.6667
	200 3133.33 66.6667
	200 3133.33 200
	200 3133.33 333.333
	333.333 3133.33 -333.333
	333.333 3133.33 -200
	333.333 3133.33 -66.6667
	333.333 3133.33 66.6667
	333.333 3133.33 200
	333.333 3133.33 333.333
	-333.333 3266.67 -333.333
	-333.333 3266.67 -200
	-333.333 3266.67 -66.6667
	-333.333 3266.67 66.6667
	-333.333 3266.67 200
	-333.333 3266.67 333.333
	-200 3266.67 -333.333
	-200 3266.67 -200
	-200 3266.67 -66.6667
	-200 3266.67 66.6667
	-200 3266.67 200
	-200 3266.67 333.333
	-66.6667 3266.67 -333.333
	-66.6667 3266.67 -200
	-66.6667 3266.67 -66.6667
	-66.6667 3266.67 66.6667
	-66.6667 3266.67 200
	-66.6667 3266.67 333.333
	66.6667 3266.67 -333.333
	66.6667 3266.67 -200
	66.6667 3266.67 -66.6667
	66.6667 3266.67 66.6667
	66.6667 3266.67 200
	66.6667 3266.67 333.333
	200 3266.67 -333.333
	200 3266.67 -200
	200 3266.67 -66.6667
	200 3266.67 66.6667
	200 3266.67 200
	200 3266.67 333.333
	333.333 3266.67 -333.333
	333.333 3266.67 -200
	333.333 3266.67 -66.6667
	333.333 3266.67 66.6667
	333.333 3266.67 200
	333.333 3266.67 333.333
	-333.333 3400 -333.333
	-333.333 3400 -200
	-333.333 3400 -66.6667
	-333.333 3400 66.6667
	-333.333 3400 200
	-333.333 3400 333.333
	-200 3400 -333.333
	-200 3400 -200
	-200 3400 -66.6667
	-200 3400 66.6667
	-200 3400 200
	-200 3400 333.333
	-66.6667 3400 -333.333
	-66.6667 3400 -200
	-66.6667 3400 -66.6667
	-66.6667 3400 66.6667
	-66.6667 3400 200
	-66.6667 3400 333.333
	66.6667 3400 -333.333
	66.6667 3400 -200
	66.6667 3400 -66.6667
	66.6667 3400 66.6667
	66.6667 3400 200
	66.6667 3400 333.333
	200 3400 -333.333
	200 3400 -200
	200 3400 -66.6667
	200 3400 66.6667
	200 3400 200
	200 3400 333.333
	333.333 3400 -333.333
	333.333 3400 -200
	333.333 3400 -66.6667
	333.333 3400 66.6667
	333.333 3400 200
	333.333 3400 333.333
	-333.333 3533.33 -333.333
	-333.333 3533.33 -200
	-333.333 3533.33 -66.6667
	-333.333 3533.33 66.6667
	-333.333 3533.33 200
	-333.333 3533.33 333.333
	-200 3533.33 -333.333
	-200 3533.33 -200
	-200 3533.33 -66.6667
	-200 3533.33 66.6667
	-200 3533.33 200
	-200 3533.33 333.333
	-66.6667 3533.33 -333.333
	-66.6667 3533.33 -200
	-66.6667 3533.33 -66.6667
	-66.6667 3533.33 66.6667
	-66.6667 3533.33 200
	-66.6667 3533.33 333.333
	66.6667 3533.33 -333.333
	66.6667 3533.33 -200
	66.6667 3533.33 -66.6667
	66.6667 3533.33 66.6667
	66.6667 3533.33 200
	66.6667 3533.33 333.333
	200 3533.33 -333.333
	200 3533.33 -200
	200 3533.33 -66.6667
	200 3533.33 66.6667
	200 3533.33 200
	200 3533.33 333.333
	333.333 3533.33 -333.333
	333.333 3533.33 -200
	333.333 3533.33 -66.6667
	333.333 3533.33 66.6667
	333.333 3533.33 200
	333.333 3533.33 333.333
	-333.333 3666.67 -333.333
	-333.333 3666.67 -200
[...]
<PointData  Vectors="vector">
  <DataArray type="Float32" Name="Velocity" NumberOfComponents="3" format="ascii">
 1.84922e-15 5.43158e-12 1.55692e-15
 1.85323e-15 5.43158e-12 -7.42996e-15
 1.85725e-15 5.43158e-12 -1.64168e-14
 1.5807e-15 5.43158e-12 -6.52724e-14
 1.61787e-15 5.43158e-12 -7.42996e-15
 1.65504e-15 5.43158e-12 5.04124e-14
 -3.33879e-15 5.43158e-12 2.83464e-15
 -3.11635e-15 5.43158e-12 1.50403e-16
 -2.89392e-15 5.43158e-12 -2.53383e-15
 -3.12928e-15 5.43158e-12 -5.13893e-14
 -2.76343e-15 5.43158e-12 1.50403e-16
 -2.39759e-15 5.43158e-12 5.16902e-14
 -8.52679e-15 5.43158e-12 4.11236e-15
 -8.08594e-15 5.43158e-12 7.73077e-15
 -7.64509e-15 5.43158e-12 1.13492e-14
 -7.83927e-15 5.43158e-12 -3.75063e-14
 -7.14474e-15 5.43158e-12 7.73077e-15
 -6.45021e-15 5.43158e-12 5.29679e-14
 -5.73823e-14 5.43158e-12 1.61985e-15
 -5.69415e-14 5.43158e-12 7.02412e-15
 -5.65006e-14 5.43158e-12 1.24284e-14
 -5.66948e-14 5.43158e-12 -3.64271e-14
 -5.60003e-14 5.43158e-12 7.02412e-15
 -5.53057e-14 5.43158e-12 5.04754e-14
 -3.33879e-15 5.43158e-12 2.12799e-15
 -3.11635e-15 5.43158e-12 8.61651e-15
 -2.89392e-15 5.43158e-12 1.5105e-14
 -3.12928e-15 5.43158e-12 -3.37505e-14
 -2.76343e-15 5.43158e-12 8.61651e-15
 -2.39759e-15 5.43158e-12 5.09835e-14
 5.07047e-14 5.43158e-12 2.63612e-15
 5.07087e-14 5.43158e-12 1.02089e-14
 5.07128e-14 5.43158e-12 1.77817e-14
 5.04362e-14 5.43158e-12 -3.10738e-14
 5.04734e-14 5.43158e-12 1.02089e-14
 5.05105e-14 5.43158e-12 5.14916e-14
 1.31472e-15 -1.15577e-11 1.11328e-15
 1.36459e-15 -1.15577e-11 -1.17487e-14
 1.41447e-15 -1.15577e-11 -2.46108e-14
 1.11954e-15 -1.15577e-11 -8.65203e-14
 1.1834e-15 -1.15577e-11 -1.17487e-14
 1.24726e-15 -1.15577e-11 6.30228e-14
 -5.81278e-15 -1.15577e-11 1.72285e-15
 -5.43876e-15 -1.15577e-11 -6.92482e-15
 -5.06475e-15 -1.15577e-11 -1.55725e-14
 -5.24595e-15 -1.15577e-11 -7.7482e-14
 -4.79709e-15 -1.15577e-11 -6.92482e-15
 -4.34824e-15 -1.15577e-11 6.36324e-14
 -1.29403e-14 -1.15577e-11 2.33243e-15
 -1.22421e-14 -1.15577e-11 -2.1009e-15
 -1.1544e-14 -1.15577e-11 -6.53423e-15
 -1.16114e-14 -1.15577e-11 -6.84437e-14
 -1.07776e-14 -1.15577e-11 -2.1009e-15
 -9.94374e-15 -1.15577e-11 6.42419e-14
 -7.48498e-14 -1.15577e-11 6.20075e-16
 -7.41516e-14 -1.15577e-11 -3.18566e-15
 -7.34535e-14 -1.15577e-11 -6.9914e-15
 -7.35209e-14 -1.15577e-11 -6.89009e-14
 -7.26871e-14 -1.15577e-11 -3.18566e-15
 -7.18533e-14 -1.15577e-11 6.25296e-14
 -5.81278e-15 -1.15577e-11 6.3809e-16
 -5.43876e-15 -1.15577e-11 -3.37968e-15
 -5.06475e-15 -1.15577e-11 -7.39745e-15
 -5.24595e-15 -1.15577e-11 -6.9307e-14
 -4.79709e-15 -1.15577e-11 -3.37968e-15
 -4.34824e-15 -1.15577e-11 6.25476e-14
 6.32242e-14 -1.15577e-11 6.56104e-16
 6.32741e-14 -1.15577e-11 -3.5737e-15
 6.3324e-14 -1.15577e-11 -7.8035e-15
 6.30291e-14 -1.15577e-11 -6.9713e-14
 6.30929e-14 -1.15577e-11 -3.5737e-15
 6.31568e-14 -1.15577e-11 6.25656e-14
 8.40196e-16 6.1261e-12 7.19414e-16
 9.30782e-16 6.1261e-12 -1.55829e-14
 1.02137e-15 6.1261e-12 -3.18852e-14
 7.10122e-16 6.1261e-12 -1.05384e-13
 7.97676e-16 6.1261e-12 -1.55829e-14
 8.8523e-16 6.1261e-12 7.42182e-14
 -8.00916e-15 6.1261e-12 7.35819e-16
 -7.50058e-15 6.1261e-12 -1.32061e-14
 -6.992e-15 6.1261e-12 -2.71481e-14
 -7.1251e-15 6.1261e-12 -1.00647e-13
 -6.60256e-15 6.1261e-12 -1.32061e-14
 -6.08001e-15 6.1261e-12 7.42346e-14
 -1.68585e-14 6.1261e-12 7.52225e-16
 -1.59319e-14 6.1261e-12 -1.08294e-14
 -1.50054e-14 6.1261e-12 -2.24109e-14
 -1.49603e-14 6.1261e-12 -9.59097e-14
 -1.40028e-14 6.1261e-12 -1.08294e-14
 -1.30453e-14 6.1261e-12 7.4251e-14
 -9.03573e-14 6.1261e-12 -2.67518e-16
 -8.94307e-14 6.1261e-12 -1.22498e-14
 -8.85041e-14 6.1261e-12 -2.42321e-14
 -8.84591e-14 6.1261e-12 -9.77308e-14
 -8.75015e-14 6.1261e-12 -1.22498e-14
 -8.6544e-14 6.1261e-12 7.32312e-14
 -8.00916e-15 6.1261e-12 -6.84628e-16
 -7.50058e-15 6.1261e-12 -1.40298e-14
 -6.992e-15 6.1261e-12 -2.73749e-14
 -7.1251e-15 6.1261e-12 -1.00874e-13
 -6.60256e-15 6.1261e-12 -1.40298e-14
 -6.08001e-15 6.1261e-12 7.28141e-14
 7.43389e-14 6.1261e-12 -1.10174e-15
 7.44295e-14 6.1261e-12 -1.58098e-14
 7.45201e-14 6.1261e-12 -3.05178e-14
 7.42089e-14 6.1261e-12 -1.04017e-13
 7.42964e-14 6.1261e-12 -1.58098e-14
 7.4384e-14 6.1261e-12 7.2397e-14
 1.56856e-15 -5.61734e-12 8.96545e-16
 1.67674e-15 -5.61734e-12 -1.47422e-14
 1.78492e-15 -5.61734e-12 -3.03809e-14
 1.58808e-15 -5.61734e-12 -7.58894e-14
 1.69443e-15 -5.61734e-12 -1.47422e-14
 1.80078e-15 -5.61734e-12 4.64051e-14
 -7.52338e-15 -5.61734e-12 1.05177e-15
 -7.05817e-15 -5.61734e-12 -1.24083e-14
 -6.59295e-15 -5.61734e-12 -2.58685e-14
 -6.57526e-15 -5.61734e-12 -7.1377e-14
 -6.11111e-15 -5.61734e-12 -1.24083e-14
 -5.64696e-15 -5.61734e-12 4.65603e-14
 -1.66153e-14 -5.61734e-12 1.207e-15
 -1.57931e-14 -5.61734e-12 -1.00745e-14
 -1.49708e-14 -5.61734e-12 -2.1356e-14
 -1.47386e-14 -5.61734e-12 -6.68645e-14
 -1.39166e-14 -5.61734e-12 -1.00745e-14
 -1.30947e-14 -5.61734e-12 4.67155e-14
 -6.21238e-14 -5.61734e-12 7.82185e-16
 -6.13016e-14 -5.61734e-12 -1.06096e-14
 -6.04793e-14 -5.61734e-12 -2.20014e-14
 -6.02471e-14 -5.61734e-12 -6.751e-14
 -5.94252e-14 -5.61734e-12 -1.06096e-14
 -5.86032e-14 -5.61734e-12 4.62907e-14
 -7.52338e-15 -5.61734e-12 5.16655e-16
 -7.05817e-15 -5.61734e-12 -1.26431e-14
 -6.59295e-15 -5.61734e-12 -2.58029e-14
 -6.57526e-15 -5.61734e-12 -7.13114e-14
 -6.11111e-15 -5.61734e-12 -1.26431e-14
 -5.64696e-15 -5.61734e-12 4.60252e-14
 4.70771e-14 -5.61734e-12 2.51125e-16
 4.71852e-14 -5.61734e-12 -1.46766e-14
 4.72934e-14 -5.61734e-12 -2.96044e-14
 4.70966e-14 -5.61734e-12 -7.51129e-14
 4.72029e-14 -5.61734e-12 -1.46766e-14
 4.73093e-14 -5.61734e-12 4.57596e-14
 9.53637e-16 1.19523e-11 7.24556e-16
 9.91449e-16 1.19523e-11 -1.14117e-14
 1.02926e-15 1.19523e-11 -2.35481e-14
 8.97956e-16 1.19523e-11 -1.09389e-13
 9.34551e-16 1.19523e-11 -1.14117e-14
 9.71146e-16 1.19523e-11 8.65655e-14
 -8.05432e-15 1.19523e-11 1.36968e-15
 -7.85172e-15 1.19523e-11 -7.59166e-15
 -7.64913e-15 1.19523e-11 -1.6553e-14
 -7.70603e-15 1.19523e-11 -1.02394e-13
 -7.50185e-15 1.19523e-11 -7.59166e-15
 -7.29768e-15 1.19523e-11 8.72106e-14
 -1.70623e-14 1.19523e-11 2.01481e-15
 -1.66949e-14 1.19523e-11 -3.77157e-15
 -1.63275e-14 1.19523e-11 -9.55795e-15
 -1.631e-14 1.19523e-11 -9.53988e-14
 -1.59383e-14 1.19523e-11 -3.77157e-15
 -1.55665e-14 1.19523e-11 8.78557e-14
 -1.02903e-13 1.19523e-11 1.4335e-15
 -1.02536e-13 1.19523e-11 -4.05348e-15
 -1.02168e-13 1.19523e-11 -9.54046e-15
 -1.02151e-13 1.19523e-11 -9.53814e-14
 -1.01779e-13 1.19523e-11 -4.05348e-15
 -1.01407e-13 1.19523e-11 8.72744e-14
 -8.05432e-15 1.19523e-11 1.08777e-15
 -7.85172e-15 1.19523e-11 -6.17232e-15
 -7.64913e-15 1.19523e-11 -1.34324e-14
 -7.70603e-15 1.19523e-11 -9.92733e-14
 -7.50185e-15 1.19523e-11 -6.17232e-15
 -7.29768e-15 1.19523e-11 8.69287e-14
 8.67945e-14 1.19523e-11 7.4204e-16
 8.68323e-14 1.19523e-11 -8.29116e-15
 8.68702e-14 1.19523e-11 -1.73244e-14
 8.67389e-14 1.19523e-11 -1.03165e-13
 8.67754e-14 1.19523e-11 -8.29116e-15
 8.6812e-14 1.19523e-11 8.65829e-14
 4.78247e-16 -6.65655e-12 5.91593e-16
 4.6166e-16 -6.65655e-12 -8.83704e-15
 4.45072e-16 -6.65655e-12 -1.82657e-14
 3.64427e-16 -6.65655e-12 -1.35287e-13
 3.47096e-16 -6.65655e-12 -8.83704e-15
 3.29764e-16 -6.65655e-12 1.17613e-13
 -8.46477e-15 -6.65655e-12 1.61545e-15
 -8.46521e-15 -6.65655e-12 -3.86794e-15
 -8.46565e-15 -6.65655e-12 -9.35134e-15
 -8.58021e-15 -6.65655e-12 -1.26373e-13
 -8.57702e-15 -6.65655e-12 -3.86794e-15
 -8.57383e-15 -6.65655e-12 1.18637e-13
 -1.74078e-14 -6.65655e-12 2.63932e-15
 -1.73921e-14 -6.65655e-12 1.10116e-15
 -1.73764e-14 -6.65655e-12 -4.37004e-16
 -1.75249e-14 -6.65655e-12 -1.17458e-13
 -1.75011e-14 -6.65655e-12 1.10116e-15
 -1.74774e-14 -6.65655e-12 1.19661e-13
 -1.34429e-13 -6.65655e-12 1.93703e-15
 -1.34413e-13 -6.65655e-12 1.015e-15
 -1.34398e-13 -6.65655e-12 9.29637e-17
 -1.34546e-13 -6.65655e-12 -1.16928e-13
 -1.34522e-13 -6.65655e-12 1.015e-15
 -1.34499e-13 -6.65655e-12 1.18958e-13
 -8.46477e-15 -6.65655e-12 1.5293e-15
 -8.46521e-15 -6.65655e-12 -1.16982e-15
 -8.46565e-15 -6.65655e-12 -3.86895e-15
 -8.58021e-15 -6.65655e-12 -1.2089e-13
 -8.57702e-15 -6.65655e-12 -1.16982e-15
 -8.57383e-15 -6.65655e-12 1.18551e-13
 1.175e-13 -6.65655e-12 1.12156e-15
 1.17483e-13 -6.65655e-12 -3.35465e-15
 1.17466e-13 -6.65655e-12 -7.83086e-15
 1.17386e-13 -6.65655e-12 -1.24852e-13
 1.17368e-13 -6.65655e-12 -3.35465e-15
 1.17351e-13 -6.65655e-12 1.18143e-13
 6.80638e-16 -6.84364e-13 -1.13502e-15
 6.7719e-16 -6.84364e-13 -8.80303e-15
 6.73742e-16 -6.84364e-13 -1.6471e-14
 6.84828e-16 -6.84364e-13 -8.18301e-14
 6.80632e-16 -6.84364e-13 -8.80303e-15
 6.76436e-16 -6.84364e-13 6.4224e-14
 -8.5276e-15 -6.84364e-13 -6.73323e-17
 -8.54567e-15 -6.84364e-13 -4.75005e-15
 -8.56374e-15 -6.84364e-13 -9.43276e-15
 -8.56029e-15 -6.84364e-13 -7.47918e-14
 -8.58153e-15 -6.84364e-13 -4.75005e-15
 -8.60277e-15 -6.84364e-13 6.52917e-14
 -1.77358e-14 -6.84364e-13 1.00036e-15
 -1.77685e-14 -6.84364e-13 -6.97059e-16
 -1.78012e-14 -6.84364e-13 -2.39448e-15
 -1.78054e-14 -6.84364e-13 -6.77535e-14
 -1.78437e-14 -6.84364e-13 -6.97059e-16
 -1.7882e-14 -6.84364e-13 6.63594e-14
 -8.30949e-14 -6.84364e-13 1.41859e-15
 -8.31276e-14 -6.84364e-13 3.56122e-16
 -8.31602e-14 -6.84364e-13 -7.0635e-16
 -8.31644e-14 -6.84364e-13 -6.60654e-14
 -8.32027e-14 -6.84364e-13 3.56122e-16
 -8.3241e-14 -6.84364e-13 6.67776e-14
 -8.5276e-15 -6.84364e-13 9.85849e-16
 -8.54567e-15 -6.84364e-13 -2.05306e-15
 -8.56374e-15 -6.84364e-13 -5.09196e-15
 -8.56029e-15 -6.84364e-13 -7.0451e-14
 -8.58153e-15 -6.84364e-13 -2.05306e-15
 -8.60277e-15 -6.84364e-13 6.63449e-14
 6.60397e-14 -6.84364e-13 5.53104e-16
 6.60362e-14 -6.84364e-13 -4.46223e-15
 6.60328e-14 -6.84364e-13 -9.47757e-15
 6.60439e-14 -6.84364e-13 -7.48366e-14
 6.60397e-14 -6.84364e-13 -4.46223e-15
 6.60355e-14 -6.84364e-13 6.59121e-14
 -1.74309e-16 3.89871e-12 -3.21587e-16
 -1.62123e-16 3.89871e-12 -5.0368e-15
 -1.49938e-16 3.89871e-12 -9.75202e-15
 -1.40837e-16 3.89871e-12 -1.3814e-13
 -1.35266e-16 3.89871e-12 -5.0368e-15
 -1.29695e-16 3.89871e-12 1.28067e-13
 -1.0102e-14 3.89871e-12 -1.9115e-16
 -1.00673e-14 3.89871e-12 -4.20865e-15
 -1.00326e-14 3.89871e-12 -8.22614e-15
 -1.00058e-14 3.89871e-12 -1.36614e-13
 -9.99365e-15 3.89871e-12 -4.20865e-15
 -9.98155e-15 3.89871e-12 1.28197e-13
 -2.00296e-14 3.89871e-12 -6.07123e-17
 -1.99724e-14 3.89871e-12 -3.38049e-15
 -1.99153e-14 3.89871e-12 -6.70026e-15
 -1.98707e-14 3.89871e-12 -1.35088e-13
 -1.9852e-14 3.89871e-12 -3.38049e-15
 -1.98334e-14 3.89871e-12 1.28327e-13
 -1.48418e-13 3.89871e-12 3.79879e-16
 -1.48361e-13 3.89871e-12 -3.47501e-15
 -1.48303e-13 3.89871e-12 -7.32989e-15
 -1.48259e-13 3.89871e-12 -1.35718e-13
 -1.4824e-13 3.89871e-12 -3.47501e-15
 -1.48222e-13 3.89871e-12 1.28768e-13
 -1.0102e-14 3.89871e-12 -2.85668e-16
 -1.00673e-14 3.89871e-12 -6.49098e-15
 -1.00326e-14 3.89871e-12 -1.26963e-14
 -1.00058e-14 3.89871e-12 -1.41084e-13
 -9.99365e-15 3.89871e-12 -6.49098e-15
 -9.98155e-15 3.89871e-12 1.28102e-13
 1.28214e-13 3.89871e-12 -9.51215e-16
 1.28226e-13 3.89871e-12 -9.50696e-15
 1.28238e-13 3.89871e-12 -1.80627e-14
 1.28247e-13 3.89871e-12 -1.46451e-13
 1.28253e-13 3.89871e-12 -9.50696e-15
 1.28258e-13 3.89871e-12 1.27437e-13
 -8.27616e-16 -3.3757e-12 2.99998e-16
 -8.03484e-16 -3.3757e-12 -2.15884e-15
 -7.79352e-16 -3.3757e-12 -4.61768e-15
 -7.71768e-16 -3.3757e-12 -1.8117e-13
 -7.58734e-16 -3.3757e-12 -2.15884e-15
 -7.457e-16 -3.3757e-12 1.76852e-13
 -1.1305e-14 -3.3757e-12 -2.85765e-16
 -1.123e-14 -3.3757e-12 -3.79494e-15
 -1.1155e-14 -3.3757e-12 -7.30411e-15
 -1.11103e-14 -3.3757e-12 -1.83856e-13
 -1.10727e-14 -3.3757e-12 -3.79494e-15
 -1.10351e-14 -3.3757e-12 1.76266e-13
 -2.17824e-14 -3.3757e-12 -8.71527e-16
 -2.16566e-14 -3.3757e-12 -5.43103e-15
 -2.15307e-14 -3.3757e-12 -9.99053e-15
 -2.14488e-14 -3.3757e-12 -1.86542e-13
 -2.13867e-14 -3.3757e-12 -5.43103e-15
 -2.13246e-14 -3.3757e-12 1.7568e-13
 -1.98334e-13 -3.3757e-12 -4.13853e-16
 -1.98208e-13 -3.3757e-12 -6.40256e-15
 -1.98083e-13 -3.3757e-12 -1.23913e-14
 -1.98001e-13 -3.3757e-12 -1.88943e-13
 -1.97939e-13 -3.3757e-12 -6.40256e-15
 -1.97876e-13 -3.3757e-12 1.76138e-13
 -1.1305e-14 -3.3757e-12 -1.2573e-15
 -1.123e-14 -3.3757e-12 -9.88222e-15
 -1.1155e-14 -3.3757e-12 -1.85071e-14
 -1.11103e-14 -3.3757e-12 -1.95059e-13
 -1.10727e-14 -3.3757e-12 -9.88222e-15
 -1.10351e-14 -3.3757e-12 1.75295e-13
 1.75724e-13 -3.3757e-12 -2.10074e-15
 1.75748e-13 -3.3757e-12 -1.33619e-14
 1.75772e-13 -3.3757e-12 -2.4623e-14
 1.7578e-13 -3.3757e-12 -2.01175e-13
 1.75793e-13 -3.3757e-12 -1.33619e-14
 1.75806e-13 -3.3757e-12 1.74451e-13
 -6.51202e-16 2.02325e-13 1.51391e-15
 -6.29181e-16 2.02325e-13 -2.90886e-15
 -6.0716e-16 2.02325e-13 -7.33164e-15
 -6.15727e-16 2.02325e-13 -1.14837e-13
 -6.02595e-16 2.02325e-13 -2.90886e-15
 -5.89463e-16 2.02325e-13 1.09019e-13
 -1.15601e-14 2.02325e-13 1.00084e-15
 -1.14838e-14 2.02325e-13 -4.79027e-15
 -1.14074e-14 2.02325e-13 -1.05814e-14
 -1.13808e-14 2.02325e-13 -1.18087e-13
 -1.1335e-14 2.02325e-13 -4.79027e-15
 -1.12892e-14 2.02325e-13 1.08506e-13
 -2.24691e-14 2.02325e-13 4.87767e-16
 -2.23384e-14 2.02325e-13 -6.67168e-15
 -2.22077e-14 2.02325e-13 -1.38311e-14
 -2.21459e-14 2.02325e-13 -1.21336e-13
 -2.20674e-14 2.02325e-13 -6.67168e-15
 -2.19889e-14 2.02325e-13 1.07993e-13
 -1.29974e-13 2.02325e-13 1.5874e-15
 -1.29844e-13 2.02325e-13 -6.93699e-15
 -1.29713e-13 2.02325e-13 -1.54614e-14
 -1.29651e-13 2.02325e-13 -1.22967e-13
 -1.29573e-13 2.02325e-13 -6.93699e-15
 -1.29494e-13 2.02325e-13 1.09093e-13
 -1.15601e-14 2.02325e-13 7.35526e-16
 -1.14838e-14 2.02325e-13 -1.04788e-14
 -1.14074e-14 2.02325e-13 -2.16932e-14
 -1.13808e-14 2.02325e-13 -1.29198e-13
 -1.1335e-14 2.02325e-13 -1.04788e-14
 -1.12892e-14 2.02325e-13 1.08241e-13
 1.06854e-13 2.02325e-13 -1.16352e-16
 1.06876e-13 2.02325e-13 -1.40207e-14
 1.06898e-13 2.02325e-13 -2.7925e-14
 1.0689e-13 2.02325e-13 -1.3543e-13
 1.06903e-13 2.02325e-13 -1.40207e-14
 1.06916e-13 2.02325e-13 1.07389e-13
 -1.40724e-15 3.31191e-12 -1.21611e-15
 -1.39017e-15 3.31191e-12 -1.19485e-14
 -1.37311e-15 3.31191e-12 -2.26808e-14
 -1.37967e-15 3.31191e-12 -2.07375e-13
 -1.36477e-15 3.31191e-12 -1.19485e-14
 -1.34988e-15 3.31191e-12 1.83478e-13
 -1.2992e-14 3.31191e-12 -1.49131e-15
 -1.29324e-14 3.31191e-12 -1.30241e-14
 -1.28727e-14 3.31191e-12 -2.45568e-14
 -1.28473e-14 3.31191e-12 -2.09251e-13
 -1.27967e-14 3.31191e-12 -1.30241e-14
 -1.27461e-14 3.31191e-12 1.83203e-13
 -2.45768e-14 3.31191e-12 -1.76652e-15
 -2.44746e-14 3.31191e-12 -1.40997e-14
 -2.43723e-14 3.31191e-12 -2.64328e-14
 -2.4315e-14 3.31191e-12 -2.11127e-13
 -2.42287e-14 3.31191e-12 -1.40997e-14
 -2.41424e-14 3.31191e-12 1.82928e-13
 -2.09271e-13 3.31191e-12 -8.25822e-16
 -2.09169e-13 3.31191e-12 -1.4302e-14
 -2.09067e-13 3.31191e-12 -2.77782e-14
 -2.09009e-13 3.31191e-12 -2.12473e-13
 -2.08923e-13 3.31191e-12 -1.4302e-14
 -2.08837e-13 3.31191e-12 1.83869e-13
 -1.2992e-14 3.31191e-12 -1.69368e-15
 -1.29324e-14 3.31191e-12 -1.77812e-14
 -1.28727e-14 3.31191e-12 -3.38688e-14
 -1.28473e-14 3.31191e-12 -2.18563e-13
 -1.27967e-14 3.31191e-12 -1.77812e-14
 -1.27461e-14 3.31191e-12 1.83001e-13
 1.83287e-13 3.31191e-12 -2.56154e-15
 1.83304e-13 3.31191e-12 -2.12604e-14
 1.83321e-13 3.31191e-12 -3.99593e-14
 1.83315e-13 3.31191e-12 -2.24654e-13
 1.8333e-13 3.31191e-12 -2.12604e-14
 1.83345e-13 3.31191e-12 1.82133e-13
 -2.0062e-15 -3.71756e-12 -3.37894e-15
 -1.99306e-15 -3.71756e-12 -1.911e-14
 -1.97993e-15 -3.71756e-12 -3.4841e-14
 -1.98489e-15 -3.71756e-12 -2.80688e-13
 -1.9686e-15 -3.71756e-12 -1.911e-14
 -1.95231e-15 -3.71756e-12 2.42468e-13
 -1.41264e-14 -3.71756e-12 -3.4657e-15
 -1.408e-14 -3.71756e-12 -1.95472e-14
 -1.40336e-14 -3.71756e-12 -3.56287e-14
 -1.40091e-14 -3.71756e-12 -2.81475e-13
 -1.39548e-14 -3.71756e-12 -1.95472e-14
 -1.39004e-14 -3.71756e-12 2.42381e-13
 -2.62466e-14 -3.71756e-12 -3.55246e-15
 -2.61669e-14 -3.71756e-12 -1.99844e-14
 -2.60872e-14 -3.71756e-12 -3.64164e-14
 -2.60334e-14 -3.71756e-12 -2.82263e-13
 -2.59409e-14 -3.71756e-12 -1.99844e-14
 -2.58485e-14 -3.71756e-12 2.42294e-13
 -2.72093e-13 -3.71756e-12 -2.73768e-15
 -2.72014e-13 -3.71756e-12 -2.01369e-14
 -2.71934e-13 -3.71756e-12 -3.75361e-14
 -2.7188e-13 -3.71756e-12 -2.83383e-13
 -2.71788e-13 -3.71756e-12 -2.01369e-14
 -2.71695e-13 -3.71756e-12 2.43109e-13
 -1.41264e-14 -3.71756e-12 -3.61819e-15
 -1.408e-14 -3.71756e-12 -2.35665e-14
 -1.40336e-14 -3.71756e-12 -4.35148e-14
 -1.40091e-14 -3.71756e-12 -2.89361e-13
 -1.39548e-14 -3.71756e-12 -2.35665e-14
 -1.39004e-14 -3.71756e-12 2.42229e-13
 2.43841e-13 -3.71756e-12 -4.49871e-15
 2.43854e-13 -3.71756e-12 -2.69961e-14
 2.43867e-13 -3.71756e-12 -4.94934e-14
 2.43862e-13 -3.71756e-12 -2.9534e-13
 2.43878e-13 -3.71756e-12 -2.69961e-14
 2.43894e-13 -3.71756e-12 2.41348e-13
 -1.92899e-15 1.2616e-12 -2.99104e-15
 -1.91964e-15 1.2616e-12 -1.96733e-14
 -1.9103e-15 1.2616e-12 -3.63556e-14
 -1.90531e-15 1.2616e-12 -2.05136e-13
 -1.89146e-15 1.2616e-12 -1.96733e-14
 -1.87761e-15 1.2616e-12 1.6579e-13
 -1.45564e-14 1.2616e-12 -3.02892e-15
 -1.45275e-14 1.2616e-12 -1.96395e-14
 -1.44986e-14 1.2616e-12 -3.625e-14
 -1.44704e-14 1.2616e-12 -2.05031e-13
 -1.44263e-14 1.2616e-12 -1.96395e-14
 -1.43821e-14 1.2616e-12 1.65752e-13
 -2.71838e-14 1.2616e-12 -3.0668e-15
 -2.71354e-14 1.2616e-12 -1.96056e-14
 -2.7087e-14 1.2616e-12 -3.61444e-14
 -2.70356e-14 1.2616e-12 -2.04925e-13
 -2.69611e-14 1.2616e-12 -1.96056e-14
 -2.68867e-14 1.2616e-12 1.65714e-13
 -1.95965e-13 1.2616e-12 -3.05145e-15
 -1.95916e-13 1.2616e-12 -2.04258e-14
 -1.95868e-13 1.2616e-12 -3.78002e-14
 -1.95816e-13 1.2616e-12 -2.06581e-13
 -1.95742e-13 1.2616e-12 -2.04258e-14
 -1.95667e-13 1.2616e-12 1.65729e-13
 -1.45564e-14 1.2616e-12 -3.84911e-15
 -1.45275e-14 1.2616e-12 -2.32281e-14
 -1.44986e-14 1.2616e-12 -4.26071e-14
 -1.44704e-14 1.2616e-12 -2.11388e-13
 -1.44263e-14 1.2616e-12 -2.32281e-14
 -1.43821e-14 1.2616e-12 1.64932e-13
 1.66852e-13 1.2616e-12 -4.64678e-15
 1.66861e-13 1.2616e-12 -2.60304e-14
 1.66871e-13 1.2616e-12 -4.74141e-14
 1.66876e-13 1.2616e-12 -2.16195e-13
 1.66889e-13 1.2616e-12 -2.60304e-14
 1.66903e-13 1.2616e-12 1.64134e-13
 -2.61913e-15 2.62078e-12 -2.93141e-15
 -2.6184e-15 2.62078e-12 -1.8209e-14
 -2.61766e-15 2.62078e-12 -3.34865e-14
 -2.61738e-15 2.62078e-12 -2.83167e-13
 -2.61094e-15 2.62078e-12 -1.8209e-14
 -2.6045e-15 2.62078e-12 2.46749e-13
 -1.60297e-14 2.62078e-12 -2.74502e-15
 -1.60275e-14 2.62078e-12 -1.74784e-14
 -1.60254e-14 2.62078e-12 -3.22117e-14
 -1.60179e-14 2.62078e-12 -2.81892e-13
 -1.59969e-14 2.62078e-12 -1.74784e-14
 -1.59758e-14 2.62078e-12 2.46935e-13
 -2.94402e-14 2.62078e-12 -2.55863e-15
 -2.94367e-14 2.62078e-12 -1.67477e-14
 -2.94331e-14 2.62078e-12 -3.09368e-14
 -2.94184e-14 2.62078e-12 -2.80617e-13
 -2.93828e-14 2.62078e-12 -1.67477e-14
 -2.93472e-14 2.62078e-12 2.47121e-13
 -2.7912e-13 2.62078e-12 -2.44961e-15
 -2.79117e-13 2.62078e-12 -1.68188e-14
 -2.79113e-13 2.62078e-12 -3.11881e-14
 -2.79098e-13 2.62078e-12 -2.80868e-13
 -2.79063e-13 2.62078e-12 -1.68188e-14
 -2.79027e-13 2.62078e-12 2.4723e-13
 -1.60297e-14 2.62078e-12 -2.81613e-15
 -1.60275e-14 2.62078e-12 -1.82216e-14
 -1.60254e-14 2.62078e-12 -3.36272e-14
 -1.60179e-14 2.62078e-12 -2.83307e-13
 -1.59969e-14 2.62078e-12 -1.82216e-14
 -1.59758e-14 2.62078e-12 2.46864e-13
 2.47061e-13 2.62078e-12 -3.18265e-15
 2.47062e-13 2.62078e-12 -1.96244e-14
 2.47062e-13 2.62078e-12 -3.60662e-14
 2.47063e-13 2.62078e-12 -2.85746e-13
 2.47069e-13 2.62078e-12 -1.96244e-14
 2.47075e-13 2.62078e-12 2.46497e-13
 -3.19063e-15 -4.10777e-12 -2.88203e-15
 -3.19704e-15 -4.10777e-12 -1.69963e-14
 -3.20344e-15 -4.10777e-12 -3.11107e-14
 -3.20704e-15 -4.10777e-12 -3.47784e-13
 -3.20674e-15 -4.10777e-12 -1.69963e-14
 -3.20645e-15 -4.10777e-12 3.13791e-13
 -1.72497e-14 -4.10777e-12 -2.50992e-15
 -1.72697e-14 -4.10777e-12 -1.56887e-14
 -1.72897e-14 -4.10777e-12 -2.88675e-14
 -1.72994e-14 -4.10777e-12 -3.45541e-13
 -1.72975e-14 -4.10777e-12 -1.56887e-14
 -1.72956e-14 -4.10777e-12 3.14163e-13