<?xml version="1.0"?>
<!-- time 34.5063-->
<VTKFile type="UnstructuredGrid" version="0.1" byte_order="LittleEndian">
<UnstructuredGrid>
<Piece NumberOfPoints="3240" NumberOfCells="0">
<Points>
  <DataArray type="Float32" Name="Position" NumberOfComponents="3" format="ascii">
	-333.333 2066.67 -333.333
	-333.333 2066.67 -200
	-333.333 2066.67 -66.6667
	-333.333 2066.67 66.6667
	-333.333 2066.67 200
	-333.333 2066.67 333.333
	-200 2066.67 -333.333
	-200 2066.67 -200
	-200 2066.67 -66.6667
	-200 2066.67 66.6667
	-200 2066.67 200
	-200 2066.67 333.333
	-66.6667 2066.67 -333.333
	-66.6667 2066.67 -200
	-66.6667 2066.67 -66.6667
	-66.6667 2066.67 66.6667
	-66.6667 2066.67 200
	-66.6667 2066.67 333.333
	66.6667 2066.67 -333.333
	66.6667 2066.67 -200
	66.6667 2066.67 -66.6667
	66.6667 2066.67 66.6667
	66.6667 2066.67 200
	66.6667 2066.67 333.333
	200 2066.67 -333.333
	200 2066.67 -200
	200 2066.67 -66.6667
	200 2066.67 66.6667
	200 2066.67 200
	200 2066.67 333.333
	333.333 2066.67 -333.333
	333.333 2066.67 -200
	333.333 2066.67 -66.6667
	333.333 2066.67 66.6667
	333.333 2066.67 200
	333.333 2066.67 333.333
	-333.333 2200 -333.333
	-333.333 2200 -200
	-333.333 2200 -66.6667
	-333.333 2200 66.6667
	-333.333 2200 200
	-333.333 2200 333.333
	-200 2200 -333.333
	-200 2200 -200
	-200 2200 -66.6667
	-200 2200 66.6667
	-200 2200 200
	-200 2200 333.333
	-66.6667 2200 -333.333
	-66.6667 2200 -200
	-66.6667 2200 -66.6667
	-66.6667 2200 66.6667
	-66.6667 2200 200
	-66.6667 2200 333.333
	66.6667 2200 -333.333
	66.6667 2200 -200
	66.6667 2200 -66.6667
	66.6667 2200 66.6667
	66.6667 2200 200
	66.6667 2200 333.333
	200 2200 -333.333
	200 2200 -200
	200 2200 -66.6667
	200 2200 66.6667
	200 2200 200
	200 2200 333.333
	333.333 2200 -333.333
	333.333 2200 -200
	333.333 2200 -66.6667
	333.333 2200 66.6667
	333.333 2200 200
	333.333 2200 333.333
	-333.333 2333.33 -333.333
	-333.333 2333.33 -200
	-333.333 2333.33 -66.6667
	-333.333 2333.33 66.6667
	-333.333 2333.33 200
	-333.333 2333.33 333.333
	-200 2333.33 -333.333
	-200 2333.33 -200
	-200 2333.33 -66.6667
	-200 2333.33 66.6667
	-200 2333.33 200
	-200 2333.33 333.333
	-66.6667 2333.33 -333.333
	-66.6667 2333.33 -200
	-66.6667 2333.33 -66.6667
	-66.6667 2333.33 66.6667
	-66.6667 2333.33 200
	-66.6667 2333.33 333.333
	66.6667 2333.33 -333.333
	66.6667 2333.33 -200
	66.6667 2333.33 -66.6667
	66.6667 2333.33 66.6667
	66.6667 2333.33 200
	66.6667 2333.33 333.333
	200 2333.33 -333.333
	200 2333.33 -200
	200 2333.33 -66.6667
	200 2333.33 66.6667
	200 2333.33 200
	200 2333.33 333.333
	333.333 2333.33 -333.333
	333.333 2333.33 -200
	333.333 2333.33 -66.6667
	333.333 2333.33 66.6667
	333.333 2333.33 200
	333.333 2333.33 333.333
	-333.333 2466.67 -333.333
	-333.333 2466.67 -200
	-333.333 2466.67 -66.6667
	-333.333 2466.67 66.6667
	-333.333 2466.67 200
	-333.333 2466.67 333.333
	-200 2466.67 -333.333
	-200 2466.67 -200
	-200 2466.67 -66.6667
	-200 2466.67 66.6667
	-200 2466.67 200
	-200 2466.67 333.333
	-66.6667 2466.67 -333.333
	-66.6667 2466.67 -200
	-66.6667 2466.67 -66.6667
	-66.6667 2466.67 66.6667
	-66.6667 2466.67 200
	-66.6667 2466.67 333.333
	66.6667 2466.67 -333.333
	66.6667 2466.67 -200
	66.6667 2466.67 -66.6667
	66.6667 2466.67 66.6667
	66.6667 2466.67 200
	66.6667 2466.67 333.333
	200 2466.67 -333.333
	200 2466.67 -200
	200 2466.67 -66.6667
	200 2466.67 66.6667
	200 2466.67 200
	200 2466.67 333.333
	333.333 2466.67 -333.333
	333.333 2466.67 -200
	333.333 2466.67 -66.6667
	333.333 2466.67 66.6667
	333.333 2466.67 200
	333.333 2466.67 333.333
	-333.333 2600 -333.333
	-333.333 2600 -200
	-333.333 2600 -66.6667
	-333.333 2600 66.6667
	-333.333 2600 200
	-333.333 2600 333.333
	-200 2600 -333.333
	-200 2600 -200
	-200 2600 -66.6667
	-200 2600 66.6667
	-200 2600 200
	-200 2600 333.333
	-66.6667 2600 -333.333
	-66.6667 2600 -200
	-66.6667 2600 -66.6667
	-66.6667 2600 66.6667
	-66.6667 2600 200
	-66.6667 2600 333.333
	66.6667 2600 -333.333
	66.6667 2600 -200
	66.6667 2600 -66.6667
	66.6667 2600 66.6667
	66.6667 2600 200
	66.6667 2600 333.333
	200 2600 -333.333
	200 2600 -200
	200 2600 -66.6667
	200 2600 66.6667
	200 2600 200
	200 2600 333.333
	333.333 2600 -333.333
	333.333 2600 -200
	333.333 2600 -66.6667
	333.333 2600 66.6667
	333.333 2600 200
	333.333 2600 333.333
	-333.333 2733.33 -333.333
	-333.333 2733.33 -200
	-333.333 2733.33 -66.6667
	-333.333 2733.33 66.6667
	-333.333 2733.33 200
	-333.333 2733.33 333.333
	-200 2733.33 -333.333
	-200 2733.33 -200
	-200 2733.33 -66.6667
	-200 2733.33 66.6667
	-200 2733.33 200
	-200 2733.33 333.333
	-66.6667 2733.33 -333.333
	-66.6667 2733.33 -200
	-66.6667 2733.33 -66.6667
	-66.6667 2733.33 66.6667
	-66.6667 2733.33 200
	-66.6667 2733.33 333.333
	66.6667 2733.33 -333.333
	66.6667 2733.33 -200
	66.6667 2733.33 -66.6667
	66.6667 2733.33 66.6667
	66.6667 2733.33 200
	66.6667 2733.33 333.333
	200 2733.33 -333.333
	200 2733.33 -200
	200 2733.33 -66.6667
	200 2733.33 66.6667
	200 2733.33 200
	200 2733.33 333.333
	333.333 2733.33 -333.333
	333.333 2733.33 -200
	333.333 2733.33 -66.6667
	333.333 2733.33 66.6667
	333.333 2733.33 200
	333.333 2733.33 333.333
	-333.333 2866.67 -333.333
	-333.333 2866.67 -200
	-333.333 2866.67 -66.6667
	-333.333 2866.67 66.6667
	-333.333 2866.67 200
	-333.333 2866.67 333.333
	-200 2866.67 -333.333
	-200 2866.67 -200
	-200 2866.67 -66.6667
	-200 2866.67 66.6667
	-200 2866.67 200
	-200 2866.67 333.333
	-66.6667 2866.67 -333.333
	-66.6667 2866.67 -200
	-66.6667 2866.67 -66.6667
	-66.6667 2866.67 66.6667
	-66.6667 2866.67 200
	-66.6667 2866.67 333.333
	66.6667 2866.67 -333.333
	66.6667 2866.67 -200
	66.6667 2866.67 -66.6667
	66.6667 2866.67 66.6667
	66.6667 2866.67 200
	66.6667 2866.67 333.333
	200 2866.67 -333.333
	200 2866.67 -200
	200 2866.67 -66.6667
	200 2866.67 66.6667
	200 2866.67 200
	200 2866.67 333.333
	333.333 2866.67 -333.333
	333.333 2866.67 -200
	333.333 2866.67 -66.6667
	333.333 2866.67 66.6667
	333.333 2866.67 200
	333.333 2866.67 333.333
	-333.333 3000 -333.333
	-333.333 3000 -200
	-333.333 3000 -66.6667
	-333.333 3000 66.6667
	-333.333 3000 200
	-333.333 3000 333.333
	-200 3000 -333.333
	-200 3000 -200
	-200 3000 -66.6667
	-200 3000 66.6667
	-200 3000 200
	-200 3000 333.333
	-66.6667 3000 -333.333
	-66.6667 3000 -200
	-66.6667 3000 -66.6667
	-66.6667 3000 66.6667
	-66.6667 3000 200
	-66.6667 3000 333.333
	66.6667 3000 -333.333
	66.6667 3000 -200
	66.6667 3000 -66.6667
	66.6667 3000 66.6667
	66.6667 3000 200
	66.6667 3000 333.333
	200 3000 -333.333
	200 3000 -200
	200 3000 -66.6667
	200 3000 66.6667
	200 3000 200
	200 3000 333.333
	333.333 3000 -333.333
	333.333 3000 -200
	333.333 3000 -66.6667
	333.333 3000 66.6667
	333.333 3000 200
	333.333 3000 333.333
	-333.333 3133.33 -333.333
	-333.333 3133.33 -200
	-333.333 3133.33 -66.6667
	-333.333 3133.33 66.6667
	-333.333 3133.33 200
	-333.333 3133.33 333.333
	-200 3133.33 -333.333
	-200 3133.33 -200
	-200 3133.33 -66.6667
	-200 3133.33 66.6667
	-200 3133.33 200
	-200 3133.33 333.333
	-66.6667 3133.33 -333.333
	-66.6667 3133.33 -200
	-66.6667 3133.33 -66.6667
	-66.6667 3133.33 66.6667
	-66.6667 3133.33 200
	-66.6667 3133.33 333.333
	66.6667 3133.33 -333.333
	66.6667 3133.33 -200
	66.6667 3133.33 -66.6667
	66.6667 3133.33 66.6667
	66.6667 3133.33 200
	66.6667 3133.33 333.333
	200 3133.33 -333.333
	200 3133.33 -200
	200 3133.33 -66.6667
	200 3133.33 66.6667
	200 3133.33 200
	200 3133.33 333.333
	333.333 3133.33 -333.333
	333.333 3133.33 -200
	333.333 3133.33 -66.6667
	333.333 3133.33 66.6667
	333.333 3133.33 200
	333.333 3133.33 333.333
	-333.333 3266.67 -333.333
	-333.333 3266.67 -200
	-333.333 3266.67 -66.6667
	-333.333 3266.67 66.6667
	-333.333 3266.67 200
	-333.333 3266.67 333.333
	-200 3266.67 -333.333
	-200 3266.67 -200
	-200 3266.67 -66.6667
	-200 3266.67 66.6667
	-200 3266.67 200
	-200 3266.67 333.333
	-66.6667 3266.67 -333.333
	-66.6667 3266.67 -200
	-66.6667 3266.67 -66.6667
	-66.6667 3266.67 66.6667
	-66.6667 3266.67 200
	-66.6667 3266.67 333.333
	66.6667 3266.67 -333.333
	66.6667 3266.67 -200
	66.6667 3266.67 -66.6667
	66.6667 3266.67 66.6667
	66.6667 3266.67 200
	66.6667 3266.67 333.333
	200 3266.67 -333.333
	200 3266.67 -200
	200 3266.67 -66.6667
	200 3266.67 66.6667
	200 3266.67 200
	200 3266.67 333.333
	333.333 3266.67 -333.333
	333.333 3266.67 -200
	333.333 3266.67 -66.6667
	333.333 3266.67 66.6667
	333.333 3266.67 200
	333.333 3266.67 333.333
	-333.333 3400 -333.333
	-333.333 3400 -200
	-333.333 3400 -66.6667
	-333.333 3400 66.6667
	-333.333 3400 200
	-333.333 3400 333.333
	-200 3400 -333.333
	-200 3400 -200
	-200 3400 -66.6667
	-200 3400 66.6667
	-200 3400 200
	-200 3400 333.333
	-66.6667 3400 -333.333
	-66.6667 3400 -200
	-66.6667 3400 -66.6667
	-66.6667 3400 66.6667
	-66.6667 3400 200
	-66.6667 3400 333.333
	66.6667 3400 -333.333
	66.6667 3400 -200
	66.6667 3400 -66.6667
	66.6667 3400 66.6667
	66.6667 3400 200
	66.6667 3400 333.333
	200 3400 -333.333
	200 3400 -200
	200 3400 -66.6667
	200 3400 66.6667
	200 3400 200
	200 3400 333.333
	333.333 3400 -333.333
	333.333 3400 -200
	333.333 3400 -66.6667
	333.333 3400 66.6667
	333.333 3400 200
	333.333 3400 333.333
	-333.333 3533.33 -333.333
	-333.333 3533.33 -200
	-333.333 3533.33 -66.6667
	-333.333 3533.33 66.6667
	-333.333 3533.33 200
	-333.333 3533.33 333.333
	-200 3533.33 -333.333
	-200 3533.33 -200
	-200 3533.33 -66.6667
	-200 3533.33 66.6667
	-200 3533.33 200
	-200 3533.33 333.333
	-66.6667 3533.33 -333.333
	-66.6667 3533.33 -200
	-66.6667 3533.33 -66.6667
	-66.6667 3533.33 66.6667
	-66.6667 3533.33 200
	-66.6667 3533.33 333.333
	66.6667 3533.33 -333.333
	66.6667 3533.33 -200
	66.6667 3533.33 -66.6667
	66.6667 3533.33 66.6667
	66.6667 3533.33 200
	66.6667 3533.33 333.333
	200 3533.33 -333.333
	200 3533.33 -200
	200 3533.33 -66.6667
	200 3533.33 66.6667
	200 3533.33 200
	200 3533.33 333.333
	333.333 3533.33 -333.333
	333.333 3533.33 -200
	333.333 3533.33 -66.6667
	333.333 3533.33 66.6667
	333.333 3533.33 200
	333.333 3533.33 333.333
	-333.333 3666.67 -333.333
	-333.333 3666.67 -200
[...]
<PointData  Vectors="vector">
  <DataArray type="Float32" Name="Velocity" NumberOfComponents="3" format="ascii">
 -6.27519e-14 -1.33074e-07 -4.54423e-14
 -5.69493e-13 -1.32881e-07 3.03637e-12
 -1.07623e-12 -1.32685e-07 7.8332e-12
 3.25126e-13 -1.32756e-07 7.86838e-12
 -1.44332e-12 -1.32624e-07 3.5781e-12
 -2.65004e-12 -1.32492e-07 -3.54048e-13
 3.1267e-12 -1.32881e-07 -5.5616e-13
 2.05981e-12 -1.32776e-07 2.0286e-12
 3.45474e-13 -1.32679e-07 4.61336e-12
 7.55557e-13 -1.32672e-07 4.2515e-12
 -1.48695e-12 -1.32594e-07 2.37263e-12
 -4.32235e-12 -1.32521e-07 -1.02184e-12
 7.84074e-12 -1.32685e-07 -1.06688e-12
 4.66662e-12 -1.32679e-07 3.06631e-13
 1.76718e-12 -1.32672e-07 1.68014e-12
 1.18599e-12 -1.3259e-07 1.80536e-12
 -3.7981e-12 -1.32568e-07 3.23878e-13
 -9.01432e-12 -1.32549e-07 -1.58951e-12
 7.85834e-12 -1.32756e-07 3.28453e-13
 4.33775e-12 -1.32672e-07 7.19559e-13
 1.87027e-12 -1.3259e-07 1.11066e-12
 1.42237e-12 -1.32433e-07 1.33479e-12
 -4.05706e-12 -1.32432e-07 5.75506e-13
 -9.62983e-12 -1.32424e-07 -2.30895e-13
 3.64499e-12 -1.32624e-07 -1.43585e-12
 2.39806e-12 -1.32594e-07 -1.50892e-12
 3.70659e-13 -1.32568e-07 -3.91781e-12
 6.22238e-13 -1.32432e-07 -4.05846e-12
 -2.48384e-12 -1.32478e-07 -2.51162e-12
 -5.28497e-12 -1.32532e-07 -8.57218e-13
 -3.67284e-13 -1.32492e-07 -2.66525e-12
 -1.03475e-12 -1.32521e-07 -4.34272e-12
 -1.60209e-12 -1.32549e-07 -9.0019e-12
 -2.40719e-13 -1.32424e-07 -9.65873e-12
 -8.71361e-13 -1.32532e-07 -5.31866e-12
 -1.45031e-12 -1.32637e-07 -1.43053e-12
 -1.21453e-12 -1.95758e-06 -1.20549e-12
 -1.32168e-12 -1.95741e-06 2.10785e-12
 -1.42884e-12 -1.95725e-06 4.95577e-12
 -6.38589e-13 -1.95729e-06 4.38761e-12
 -7.05296e-13 -1.95723e-06 1.39999e-12
 -7.72003e-13 -1.95714e-06 1.67624e-13
 2.1186e-12 -1.95741e-06 -1.31249e-12
 1.79233e-12 -1.95738e-06 1.77896e-12
 1.46606e-12 -1.95735e-06 4.38078e-12
 2.0598e-12 -1.95734e-06 3.74791e-12
 7.67912e-13 -1.95733e-06 1.09093e-12
 -5.23971e-13 -1.95731e-06 2.15377e-13
 4.97453e-12 -1.95725e-06 -1.41949e-12
 4.3853e-12 -1.95735e-06 1.45008e-12
 3.78559e-12 -1.95744e-06 3.73643e-12
 4.17038e-12 -1.95738e-06 3.12914e-12
 1.19851e-12 -1.95743e-06 8.64316e-13
 -1.43765e-12 -1.95747e-06 2.291e-13
 4.41488e-12 -1.95729e-06 -6.34353e-13
 3.78409e-12 -1.95734e-06 2.04723e-12
 3.12974e-12 -1.95738e-06 4.13186e-12
 3.82832e-12 -1.95725e-06 3.83116e-12
 1.2872e-12 -1.95729e-06 1.23377e-12
 -1.30562e-12 -1.95734e-06 7.74473e-13
 1.40359e-12 -1.95723e-06 -6.99063e-13
 1.07708e-12 -1.95733e-06 7.64974e-13
 9.0239e-13 -1.95743e-06 1.21978e-12
 1.28484e-12 -1.95729e-06 1.24909e-12
 9.22408e-13 -1.95736e-06 9.20699e-13
 -3.37864e-13 -1.95742e-06 -8.29932e-15
 1.5933e-13 -1.95714e-06 -7.63774e-13
 2.45735e-13 -1.95731e-06 -5.17286e-13
 2.14347e-13 -1.95747e-06 -1.41811e-12
 7.68185e-13 -1.95734e-06 -1.31661e-12
 8.05693e-15 -1.95742e-06 -3.29485e-13
 -1.38239e-13 -1.95752e-06 -1.44519e-13
 -2.23706e-12 -3.68834e-06 -2.23536e-12
 -1.98946e-12 -3.68821e-06 6.49483e-13
 -1.74187e-12 -3.68809e-06 2.55259e-12
 -1.49415e-12 -3.68809e-06 1.06567e-12
 -1.23664e-12 -3.68805e-06 -3.2646e-13
 -9.79133e-13 -3.68803e-06 1.13802e-12
 6.48845e-13 -3.68821e-06 -1.98394e-12
 1.55487e-12 -3.68824e-06 1.55735e-12
 2.46089e-12 -3.68826e-06 4.06978e-12
 3.21767e-12 -3.68823e-06 2.58909e-12
 3.44075e-12 -3.68826e-06 6.67352e-13
 3.66382e-12 -3.68829e-06 1.41572e-12
 2.53469e-12 -3.68809e-06 -1.73253e-12
 4.07035e-12 -3.68826e-06 2.46521e-12
 5.63676e-12 -3.68844e-06 5.68645e-12
 6.89671e-12 -3.68838e-06 3.89786e-12
 6.85501e-12 -3.68846e-06 1.95368e-12
 6.83882e-12 -3.68856e-06 1.51608e-12
 1.10127e-12 -3.68809e-06 -1.48911e-12
 2.58102e-12 -3.68823e-06 3.22592e-12
 3.95149e-12 -3.68838e-06 6.88984e-12
 4.86522e-12 -3.68828e-06 4.90736e-12
 5.02895e-12 -3.68835e-06 3.23444e-12
 5.0919e-12 -3.68842e-06 1.31494e-12
 -3.6689e-13 -3.68805e-06 -1.23151e-12
 6.58172e-13 -3.68826e-06 3.4547e-12
 1.93911e-12 -3.68846e-06 6.86994e-12
 3.25724e-12 -3.68835e-06 5.03487e-12
 2.31841e-12 -3.68843e-06 2.3405e-12
 2.03137e-12 -3.6885e-06 2.72524e-12
 1.13411e-12 -3.68803e-06 -9.73914e-13
 1.40542e-12 -3.68829e-06 3.68349e-12
 1.49939e-12 -3.68856e-06 6.86116e-12
 1.30191e-12 -3.68842e-06 5.12639e-12
 2.71446e-12 -3.6885e-06 2.04011e-12
 3.55049e-12 -3.68858e-06 3.56686e-12
 -1.4282e-12 -4.48169e-06 -1.43466e-12
 -1.36943e-12 -4.48154e-06 9.36476e-13
 -1.31065e-12 -4.48139e-06 2.12151e-12
 -1.96187e-12 -4.48133e-06 1.44087e-12
 -2.08486e-12 -4.48128e-06 -3.88725e-13
 -2.20785e-12 -4.48122e-06 1.85568e-12
 9.41845e-13 -4.48154e-06 -1.37057e-12
 2.00546e-12 -4.48154e-06 2.00397e-12
 3.06908e-12 -4.48153e-06 4.54055e-12
 2.39403e-12 -4.48146e-06 2.8697e-12
 2.68908e-12 -4.48148e-06 8.67606e-13
 2.98414e-12 -4.4815e-06 2.10253e-12
 2.12578e-12 -4.48139e-06 -1.30648e-12
 4.54239e-12 -4.48153e-06 3.07147e-12
 6.59384e-12 -4.48167e-06 6.57611e-12
 5.7536e-12 -4.48158e-06 4.47719e-12
 6.37705e-12 -4.48168e-06 2.79078e-12
 6.70732e-12 -4.48177e-06 1.88736e-12
 1.44991e-12 -4.48133e-06 -1.96469e-12
 2.8716e-12 -4.48146e-06 2.38513e-12
 4.5256e-12 -4.48158e-06 5.78967e-12
 4.25744e-12 -4.4814e-06 4.22841e-12
 4.38506e-12 -4.48149e-06 1.8859e-12
 4.7738e-12 -4.48158e-06 9.30398e-13
 -3.82396e-13 -4.48128e-06 -2.08542e-12
 8.84897e-13 -4.48148e-06 2.68481e-12
 2.64168e-12 -4.48168e-06 6.4116e-12
 1.88684e-12 -4.48149e-06 4.3647e-12
 1.61377e-12 -4.4816e-06 1.62732e-12
 1.36687e-12 -4.48171e-06 1.86128e-12
 1.8593e-12 -4.48122e-06 -2.20615e-12
 2.10184e-12 -4.4815e-06 2.98449e-12
 1.98772e-12 -4.48177e-06 6.72988e-12
 9.28783e-13 -4.48158e-06 4.83735e-12
 1.85634e-12 -4.48171e-06 1.33014e-12
 2.78978e-12 -4.48183e-06 2.79805e-12
 -9.10631e-13 8.28321e-06 -9.18632e-13
 -7.74095e-13 8.28323e-06 -4.56433e-13
 -6.37559e-13 8.28326e-06 -5.80917e-13
 -1.32172e-12 8.28329e-06 -1.23529e-12
 -1.31899e-12 8.28335e-06 1.1546e-12
 -1.31626e-12 8.2834e-06 -1.42669e-12
 -4.57967e-13 8.28323e-06 -7.7837e-13
 7.90716e-13 8.28321e-06 7.94965e-13
 2.0394e-12 8.28318e-06 1.61278e-12
 1.53612e-12 8.28323e-06 1.93336e-12
 2.14693e-12 8.28322e-06 7.09031e-13
 2.75774e-12 8.28321e-06 -1.68126e-13
 -5.91987e-13 8.28326e-06 -6.38107e-13
 1.59019e-12 8.28318e-06 2.04636e-12
 4.2743e-12 8.2831e-06 4.28877e-12
 3.91329e-12 8.28315e-06 3.83836e-12
 4.90052e-12 8.28309e-06 1.43027e-12
 6.00162e-12 8.28301e-06 7.04996e-13
 -1.24648e-12 8.28329e-06 -1.32445e-12
 1.96792e-12 8.28323e-06 1.53764e-12
 3.83491e-12 8.28315e-06 3.91906e-12
 3.50818e-12 8.28326e-06 3.54699e-12
 4.56811e-12 8.28318e-06 1.09781e-12
 5.47621e-12 8.28311e-06 -2.01238e-13
 1.15886e-12 8.28335e-06 -1.32009e-12
 6.7597e-13 8.28322e-06 2.14809e-12
 1.42794e-12 8.28309e-06 4.95237e-12
 1.15846e-12 8.28318e-06 4.59869e-12
 1.38497e-12 8.28309e-06 1.25833e-12
 1.52903e-12 8.28299e-06 4.70475e-13
 -1.42662e-12 8.2834e-06 -1.31572e-12
 -1.66725e-13 8.28321e-06 2.75855e-12
 7.03795e-13 8.28301e-06 6.02626e-12
 -2.55136e-13 8.28311e-06 5.47371e-12
 3.88545e-13 8.28299e-06 1.54121e-12
 1.15264e-12 8.28288e-06 1.15593e-12
 -1.48884e-12 1.11433e-05 -1.47971e-12
 -3.13862e-13 1.11433e-05 -1.04572e-12
 -1.17209e-13 1.11434e-05 -2.33084e-12
 -8.26829e-13 1.11434e-05 -2.2385e-12
 -7.26915e-13 1.11435e-05 -1.7232e-12
 -6.27002e-13 1.11435e-05 -8.25734e-13
 -1.06764e-12 1.11433e-05 -3.20556e-13
 -6.26727e-13 1.11433e-05 -5.54563e-13
 1.24338e-12 1.11433e-05 2.89865e-13
 8.72905e-13 1.11434e-05 2.57003e-13
 1.72781e-12 1.11434e-05 -3.41828e-13
 2.58271e-12 1.11433e-05 -5.68315e-13
 -2.3204e-12 1.11434e-05 -1.21408e-13
 2.80195e-13 1.11433e-05 1.25388e-12
 2.58632e-12 1.11433e-05 2.58403e-12
 2.50983e-12 1.11433e-05 2.36379e-12
 4.06802e-12 1.11432e-05 1.43873e-12
 5.58107e-12 1.11432e-05 -3.52124e-13
 -2.26068e-12 1.11434e-05 -8.29502e-13
 2.87982e-13 1.11434e-05 8.82462e-13
 2.31966e-12 1.11433e-05 2.53162e-12
 2.26961e-12 1.11434e-05 2.30012e-12
 3.55541e-12 1.11433e-05 1.21016e-12
 4.98453e-12 1.11432e-05 -1.13627e-12
 -1.73083e-12 1.11435e-05 -7.2843e-13
 -3.53297e-13 1.11434e-05 1.73317e-12
 1.42735e-12 1.11432e-05 4.08027e-12
 1.19706e-12 1.11433e-05 3.57742e-12
 2.15399e-12 1.11432e-05 2.16378e-12
 2.77979e-12 1.1143e-05 -8.49246e-13
 -8.22745e-13 1.11435e-05 -6.27358e-13
 -5.65298e-13 1.11433e-05 2.58388e-12
 -3.50387e-13 1.11432e-05 5.58376e-12
 -1.13196e-12 1.11432e-05 4.99804e-12
 -8.46817e-13 1.1143e-05 2.78627e-12
 -3.28704e-13 1.11428e-05 -3.29253e-13
 -2.97762e-13 2.87221e-06 -2.58787e-13
 1.54267e-13 2.87225e-06 -1.4105e-12
 3.38996e-13 2.87228e-06 -4.40927e-13
 -3.11671e-13 2.87233e-06 -9.34651e-13
 -1.73454e-13 2.87235e-06 -7.86294e-13
 -3.52361e-14 2.87235e-06 -8.92424e-14
 -1.38982e-12 2.87225e-06 1.41546e-13
 6.33596e-13 2.87224e-06 6.3815e-13
 1.88285e-12 2.87224e-06 1.11678e-12
 1.61749e-12 2.87229e-06 1.02048e-12
 2.46475e-12 2.87223e-06 6.1469e-13
 3.31201e-12 2.87218e-06 1.30676e-13
 -4.44358e-13 2.87228e-06 3.24314e-13
 1.09495e-12 2.87224e-06 1.88515e-12
 3.39761e-12 2.8722e-06 3.41755e-12
 3.50905e-12 2.87224e-06 3.05937e-12
 4.98093e-12 2.87212e-06 1.99604e-12
 6.47245e-12 2.87199e-06 5.62622e-13
 -9.52466e-13 2.87233e-06 -3.14845e-13
 9.99507e-13 2.87229e-06 1.62772e-12
 3.0588e-12 2.87224e-06 3.5052e-12
 3.05052e-12 2.87233e-06 3.07215e-12
 4.46069e-12 2.87219e-06 1.92262e-12
 5.81784e-12 2.87204e-06 -1.45392e-13
 -7.94301e-13 2.87235e-06 -1.77279e-13
 6.09321e-13 2.87223e-06 2.47038e-12
 1.97172e-12 2.87212e-06 4.99602e-12
 1.89369e-12 2.87219e-06 4.46739e-12
 2.48758e-12 2.87201e-06 2.48806e-12
 3.05595e-12 2.87183e-06 4.50137e-13
 -8.2206e-14 2.87235e-06 -3.97121e-14
 1.4091e-13 2.87218e-06 3.31304e-12
 5.76052e-13 2.87199e-06 6.46328e-12
 -1.40407e-13 2.87204e-06 5.843e-12
 4.55877e-13 2.87183e-06 3.03779e-12
 1.11106e-12 2.87162e-06 1.10456e-12
 1.21681e-13 3.97065e-05 1.14421e-13
 2.12724e-13 3.97066e-05 -1.31231e-12
 3.03767e-13 3.97066e-05 5.455e-13
 -2.26668e-13 3.97066e-05 2.21692e-13
 -1.48339e-13 3.97067e-05 -2.49402e-13
 -7.00104e-14 3.97067e-05 1.2373e-13
 -1.33561e-12 3.97066e-05 2.06177e-13
 8.19051e-13 3.97066e-05 8.23038e-13
 1.6786e-12 3.97066e-05 1.41368e-12
 1.37429e-12 3.97066e-05 1.20447e-12
 1.93947e-12 3.97066e-05 8.26185e-13
 2.50464e-12 3.97066e-05 2.54236e-13
 5.56428e-13 3.97066e-05 2.97932e-13
 1.40047e-12 3.97066e-05 1.68487e-12
 2.97094e-12 3.97066e-05 2.98539e-12
 2.88622e-12 3.97066e-05 2.68264e-12
 3.87606e-12 3.97065e-05 1.82913e-12
 4.87376e-12 3.97065e-05 5.31983e-13
 2.15023e-13 3.97066e-05 -2.30373e-13
 1.1882e-12 3.97066e-05 1.38345e-12
 2.63778e-12 3.97066e-05 2.90823e-12
 2.51745e-12 3.97067e-05 2.52433e-12
 3.47915e-12 3.97066e-05 1.71359e-12
 4.46702e-12 3.97065e-05 -8.98362e-14
 -2.49589e-13 3.97067e-05 -1.51765e-13
 8.21495e-13 3.97066e-05 1.94644e-12
 1.85659e-12 3.97065e-05 3.89344e-12
 1.69176e-12 3.97066e-05 3.49337e-12
 2.10675e-12 3.97065e-05 2.11158e-12
 2.40592e-12 3.97064e-05 2.68485e-13
 1.30025e-13 3.97067e-05 -7.31558e-14
 2.5982e-13 3.97066e-05 2.50944e-12
 5.17878e-13 3.97065e-05 4.87735e-12
 -8.53968e-14 3.97065e-05 4.484e-12
 2.73048e-13 3.97064e-05 2.40748e-12
 7.13293e-13 3.97063e-05 7.08607e-13
 2.3794e-13 5.64308e-05 2.33353e-13
 2.57393e-13 5.64308e-05 -9.47998e-13
 2.76847e-13 5.64309e-05 1.23625e-12
 -1.61714e-13 5.64309e-05 1.04605e-12
 -1.29148e-13 5.6431e-05 1.60081e-13
 -9.65827e-14 5.6431e-05 2.86472e-13
 -9.24207e-13 5.64308e-05 2.55563e-13
 9.60765e-13 5.64309e-05 9.64317e-13
 1.52253e-12 5.64309e-05 1.5808e-12
 1.18846e-12 5.64309e-05 1.40425e-12
 1.53808e-12 5.64309e-05 9.88359e-13
 1.88769e-12 5.64309e-05 3.48654e-13
 1.22493e-12 5.64309e-05 2.77773e-13
 1.50905e-12 5.64309e-05 1.53183e-12
 2.67071e-12 5.64309e-05 2.68315e-12
 2.4215e-12 5.64309e-05 2.38022e-12
 3.03581e-12 5.64309e-05 1.69165e-12
 3.65536e-12 5.64309e-05 5.0507e-13
 1.03812e-12 5.64309e-05 -1.65825e-13
 1.52935e-12 5.64309e-05 1.19679e-12
 2.33402e-12 5.64309e-05 2.47237e-12
 2.12477e-12 5.64309e-05 2.10297e-12
 2.73149e-12 5.64309e-05 1.51512e-12
 3.31465e-12 5.64309e-05 -2.61963e-14
 1.66178e-13 5.6431e-05 -1.32268e-13
 9.11545e-13 5.64309e-05 1.54608e-12
 1.70993e-12 5.64309e-05 3.05233e-12
 1.4963e-12 5.64309e-05 2.71808e-12
 1.834e-12 5.64309e-05 1.87815e-12
 2.1475e-12 5.64309e-05 1.0503e-13
 2.92199e-13 5.6431e-05 -9.87115e-14
 3.50684e-13 5.64309e-05 1.89538e-12
 4.88352e-13 5.64309e-05 3.67024e-12
 -2.80638e-14 5.64309e-05 3.31813e-12
 1.08693e-13 5.64309e-05 2.1417e-12
 2.87985e-13 5.64309e-05 3.12821e-13
 1.60192e-13 -8.09969e-05 1.61036e-13
 2.40764e-13 -8.09968e-05 -6.41891e-13
 3.21336e-13 -8.09968e-05 1.11398e-12
 1.67312e-13 -8.09967e-05 9.65163e-13
 2.37519e-13 -8.09967e-05 2.12189e-13
 3.07726e-13 -8.09967e-05 2.20324e-13
 -6.40851e-13 -8.09968e-05 2.43461e-13
 8.0489e-13 -8.09968e-05 8.11582e-13
 1.24674e-12 -8.09968e-05 1.35611e-12
 1.26334e-12 -8.09967e-05 1.19278e-12
 1.54132e-12 -8.09967e-05 8.53572e-13
 1.81929e-12 -8.09968e-05 3.18077e-13
 1.1169e-12 -8.09968e-05 3.25886e-13
 1.34542e-12 -8.09968e-05 1.26116e-12
 2.1276e-12 -8.09967e-05 2.15386e-12
 2.30699e-12 -8.09967e-05 1.84053e-12
 2.76655e-12 -8.09968e-05 1.50673e-12
 3.23004e-12 -8.09968e-05 4.32191e-13
 9.67997e-13 -8.09967e-05 1.69333e-13
 1.18193e-12 -8.09967e-05 1.27467e-12
 1.83103e-12 -8.09967e-05 2.32369e-12
 1.98146e-12 -8.09967e-05 2.01455e-12
 2.42698e-12 -8.09968e-05 1.5516e-12
 2.86399e-12 -8.09968e-05 2.85069e-13
 2.13229e-13 -8.09967e-05 2.37025e-13
 8.46879e-13 -8.09967e-05 1.54954e-12
 1.48511e-12 -8.09968e-05 2.78218e-12
 1.55626e-12 -8.09968e-05 2.44095e-12
 1.83516e-12 -8.09968e-05 1.83268e-12
 2.07151e-12 -8.09969e-05 4.20842e-13
 2.1957e-13 -8.09967e-05 3.04718e-13
 3.15547e-13 -8.09968e-05 1.82441e-12
 4.21995e-13 -8.09968e-05 3.24329e-12
 2.76453e-13 -8.09968e-05 2.84053e-12
 4.0704e-13 -8.09969e-05 2.11377e-12
 5.84745e-13 -8.09969e-05 5.80827e-13
 7.6395e-14 -0.000693738 7.45043e-14
 9.70248e-14 -0.000693738 1.62846e-13
 1.17654e-13 -0.000693738 2.51188e-13
 9.64349e-15 -0.000693738 3.98594e-14
 3.73388e-14 -0.000693738 1.3616e-13
 6.5034e-14 -0.000693738 2.32461e-13
 1.6916e-13 -0.000693738 9.62537e-14
 3.63395e-13 -0.000693738 3.61991e-13
 5.5763e-13 -0.000693738 6.27729e-13
 5.09804e-13 -0.000693738 4.25913e-13
 6.37418e-13 -0.000693738 3.44577e-13
 7.65032e-13 -0.000693738 2.63241e-13
 2.61925e-13 -0.000693738 1.18003e-13
 6.29764e-13 -0.000693738 5.61137e-13
 9.54913e-13 -0.000693738 9.61578e-13
 9.67273e-13 -0.000693738 8.33719e-13
 1.17125e-12 -0.000693738 5.73936e-13
 1.37915e-12 -0.000693738 2.94021e-13
 5.05417e-14 -0.000693738 8.50614e-15
 4.27847e-13 -0.000693738 5.11175e-13
 8.26904e-13 -0.000693738 9.71151e-13
 8.43206e-13 -0.000693738 8.47111e-13
 1.05099e-12 -0.000693738 5.25824e-13
 1.24307e-12 -0.000693738 1.84405e-13
 1.42473e-13 -0.000693738 3.43759e-14
 3.4598e-13 -0.000693738 6.38052e-13
 5.70428e-13 -0.000693738 1.17548e-12
 5.24616e-13 -0.000693738 1.05542e-12
 6.93585e-13 -0.000693738 6.94093e-13
 8.74332e-13 -0.000693738 2.08585e-13
 2.34405e-13 -0.000693738 6.02456e-14
 2.64113e-13 -0.000693738 7.64929e-13
 2.9382e-13 -0.000693738 1.38373e-12
 1.85895e-13 -0.000693738 1.24802e-12
 2.11994e-13 -0.000693738 8.74141e-13
 2.38093e-13 -0.000693738 2.32764e-13
 1.00081e-14 -0.00168357 5.95097e-15
 -1.68508e-14 -0.00168357 5.0663e-15
 -4.37098e-14 -0.00168357 4.18163e-15
 -1.15267e-13 -0.00168357 -2.53016e-13
 -1.21251e-13 -0.00168357 -5.46979e-15
 -1.27236e-13 -0.00168357 2.42077e-13
 1.55579e-14 -0.00168357 -2.03693e-14
 1.36256e-14 -0.00168357 5.80911e-15
 1.16933e-14 -0.00168357 3.19875e-14
 -8.71773e-14 -0.00168357 -2.21e-13
 -7.86828e-14 -0.00168357 -6.01205e-16
 -7.01883e-14 -0.00168357 2.19798e-13
 2.11078e-14 -0.00168357 -4.66895e-14
 4.41021e-14 -0.00168357 6.55191e-15
 6.70962e-14 -0.00168357 5.97931e-14
 -5.90875e-14 -0.00168357 -1.88984e-13
 -3.61146e-14 -0.00168357 4.26738e-15
 -1.31417e-14 -0.00168357 1.97519e-13
 -2.36116e-13 -0.00168357 -1.18906e-13
 -2.08935e-13 -0.00168357 -9.36933e-14
 -1.81754e-13 -0.00168357 -6.84803e-14
 -3.08515e-13 -0.00168357 -3.17886e-13
 -2.86164e-13 -0.00168357 -9.72833e-14
 -2.63812e-13 -0.00168357 1.23319e-13
 5.02169e-15 -0.00168357 -1.2617e-13
 7.21502e-15 -0.00168357 -8.40615e-14
 9.40835e-15 -0.00168357 -4.1953e-14
 -9.07011e-14 -0.00168357 -2.91898e-13
 -8.298e-14 -0.00168357 -8.84075e-14
 -7.52589e-14 -0.00168357 1.15083e-13
 2.46159e-13 -0.00168357 -1.33434e-13
 2.23365e-13 -0.00168357 -7.44297e-14
 2.0057e-13 -0.00168357 -1.54257e-14
 1.27113e-13 -0.00168357 -2.65911e-13
 1.20204e-13 -0.00168357 -7.95317e-14
 1.13294e-13 -0.00168357 1.06847e-13
 -5.30367e-15 -0.00311082 -8.04128e-15
 -1.30144e-14 -0.00311082 -4.54751e-14
 -2.07251e-14 -0.00311082 -8.29089e-14
 -1.30934e-14 -0.00311082 -2.48511e-13
 -1.74322e-14 -0.00311082 -4.54751e-14
 -2.1771e-14 -0.00311082 1.57561e-13
 -3.57654e-14 -0.00311082 -1.27907e-14
 -6.44923e-14 -0.00311082 -7.08448e-14
 -9.32191e-14 -0.00311082 -1.28899e-13
 -9.76369e-14 -0.00311082 -2.94501e-13
 -1.14881e-13 -0.00311082 -7.08448e-14
 -1.32125e-13 -0.00311082 1.52812e-13
 -6.62272e-14 -0.00311082 -1.75402e-14
 -1.1597e-13 -0.00311082 -9.62145e-14
 -1.65713e-13 -0.00311082 -1.74889e-13
 -1.8218e-13 -0.00311082 -3.40491e-13
 -2.12329e-13 -0.00311082 -9.62145e-14
 -2.42478e-13 -0.00311082 1.48062e-13
 -2.3183e-13 -0.00311082 -1.32111e-14
 -2.81573e-13 -0.00311082 -1.00927e-13
 -3.31315e-13 -0.00311082 -1.88643e-13
 -3.47783e-13 -0.00311082 -3.54246e-13
 -3.77932e-13 -0.00311082 -1.00927e-13
 -4.08081e-13 -0.00311082 1.52391e-13
 -3.57654e-14 -0.00311082 -1.75034e-14
 -6.44923e-14 -0.00311082 -1.16839e-13
 -9.32191e-14 -0.00311082 -2.16175e-13
 -9.76369e-14 -0.00311082 -3.81778e-13
 -1.14881e-13 -0.00311082 -1.16839e-13
 -1.32125e-13 -0.00311082 1.48099e-13
 1.60299e-13 -0.00311082 -2.17956e-14
 1.52588e-13 -0.00311082 -1.32751e-13
 1.44877e-13 -0.00311082 -2.43707e-13
 1.52509e-13 -0.00311082 -4.0931e-13
 1.4817e-13 -0.00311082 -1.32751e-13
 1.43831e-13 -0.00311082 1.43807e-13
 6.25847e-16 -0.00687939 -8.38814e-16
 -3.18774e-15 -0.00687939 -2.11727e-14
 -7.00132e-15 -0.00687939 -4.15065e-14
 -1.79763e-15 -0.00687939 -2.91488e-13
 -3.28243e-15 -0.00687939 -2.11727e-14
 -4.76723e-15 -0.00687939 2.49143e-13
 -1.44109e-14 -0.00687939 -2.5031e-15
 -2.84142e-14 -0.00687939 -3.18074e-14
 -4.24174e-14 -0.00687939 -6.11117e-14
 -4.25121e-14 -0.00687939 -3.11093e-13
 -4.95099e-14 -0.00687939 -3.18074e-14
 -5.65077e-14 -0.00687939 2.47479e-13
 -2.94477e-14 -0.00687939 -4.16739e-15
 -5.36406e-14 -0.00687939 -4.24421e-14
 -7.78335e-14 -0.00687939 -8.07168e-14
 -8.32265e-14 -0.00687939 -3.30699e-13
 -9.57374e-14 -0.00687939 -4.24421e-14
 -1.08248e-13 -0.00687939 2.45814e-13
 -2.7943e-13 -0.00687939 -1.77829e-16
 -3.03622e-13 -0.00687939 -4.26971e-14
 -3.27815e-13 -0.00687939 -8.52164e-14
 -3.33208e-13 -0.00687939 -3.35198e-13
 -3.45719e-13 -0.00687939 -4.26971e-14
 -3.5823e-13 -0.00687939 2.49804e-13
 -1.44109e-14 -0.00687939 -2.75814e-15
 -2.84142e-14 -0.00687939 -4.99938e-14
 -4.24174e-14 -0.00687939 -9.72295e-14
 -4.25121e-14 -0.00687939 -3.47211e-13
 -4.95099e-14 -0.00687939 -4.99938e-14
 -5.65077e-14 -0.00687939 2.47224e-13
 2.50608e-13 -0.00687939 -5.33844e-15
 2.46794e-13 -0.00687939 -5.72905e-14
 2.4298e-13 -0.00687939 -1.09243e-13
 2.48184e-13 -0.00687939 -3.59224e-13
 2.46699e-13 -0.00687939 -5.72905e-14
 2.45215e-13 -0.00687939 2.44643e-13
 5.53612e-15 -0.012289 5.1256e-15
 4.94979e-15 -0.012289 -1.04767e-15
 4.36345e-15 -0.012289 -7.22093e-15
 7.55648e-15 -0.012289 -3.27078e-13
 8.43509e-15 -0.012289 -1.04767e-15
 9.31371e-15 -0.012289 3.24983e-13
 3.27289e-15 -0.012289 6.01617e-15
 1.46238e-15 -0.012289 5.19798e-16
 -3.48133e-16 -0.012289 -4.97658e-15
 3.13717e-15 -0.012289 -3.24834e-13
 4.6242e-15 -0.012289 5.19798e-16
 6.11123e-15 -0.012289 3.25873e-13
 1.00966e-15 -0.012289 6.90674e-15
 -2.02503e-15 -0.012289 2.08726e-15
 -5.05972e-15 -0.012289 -2.73222e-15
 -1.28213e-15 -0.012289 -3.22589e-13
 8.13307e-16 -0.012289 2.08726e-15
 2.90875e-15 -0.012289 3.26764e-13
 -3.18847e-13 -0.012289 1.06151e-14
 -3.21882e-13 -0.012289 5.52359e-15
 -3.24917e-13 -0.012289 4.32046e-16
 -3.21139e-13 -0.012289 -3.19425e-13