<?xml version="1.0"?>
<VTKFile type="UnstructuredGrid" version="0.1" byte_order="LittleEndian" compressor="vtkZLibDataCompressor">
<UnstructuredGrid>
<Piece NumberOfPoints="960" NumberOfCells="120">
<Points>
<DataArray type="Float32" NumberOfComponents="3" format="ascii">
-4.000000e+02 -6.000000e+03 -4.000000e+02
0.000000e+00 -6.000000e+03 -4.000000e+02
-4.000000e+02 -5.600090e+03 -4.000000e+02
-1.021210e-10 -5.600090e+03 -4.000000e+02
-4.000000e+02 -6.000000e+03 0.000000e+00
0.000000e+00 -6.000000e+03 0.000000e+00
-4.000000e+02 -5.600090e+03 -3.115400e-10
4.449140e-10 -5.600090e+03 4.110600e-10
0.000000e+00 -6.000000e+03 -4.000000e+02
4.000000e+02 -6.000000e+03 -4.000000e+02
-1.021210e-10 -5.600090e+03 -4.000000e+02
4.000000e+02 -5.600090e+03 -4.000000e+02
0.000000e+00 -6.000000e+03 0.000000e+00
4.000000e+02 -6.000000e+03 0.000000e+00
4.449140e-10 -5.600090e+03 4.110600e-10
4.000000e+02 -5.600090e+03 2.791450e-10
-4.000000e+02 -5.600090e+03 -4.000000e+02
-1.021210e-10 -5.600090e+03 -4.000000e+02
-4.000000e+02 -5.200150e+03 -4.000000e+02
6.094180e-10 -5.200150e+03 -4.000000e+02
-4.000000e+02 -5.600090e+03 -3.115400e-10
4.449140e-10 -5.600090e+03 4.110600e-10
-4.000000e+02 -5.200150e+03 2.595690e-10
3.435760e-10 -5.200150e+03 7.654740e-10
-1.021210e-10 -5.600090e+03 -4.000000e+02
4.000000e+02 -5.600090e+03 -4.000000e+02
6.094180e-10 -5.200150e+03 -4.000000e+02
4.000000e+02 -5.200150e+03 -4.000000e+02
4.449140e-10 -5.600090e+03 4.110600e-10
4.000000e+02 -5.600090e+03 2.791450e-10
3.435760e-10 -5.200150e+03 7.654740e-10
4.000000e+02 -5.200150e+03 7.524750e-10
-4.000000e+02 -5.200150e+03 -4.000000e+02
6.094180e-10 -5.200150e+03 -4.000000e+02
-4.000000e+02 -4.800180e+03 -4.000000e+02
5.031640e-10 -4.800180e+03 -4.000000e+02
-4.000000e+02 -5.200150e+03 2.595690e-10
3.435760e-10 -5.200150e+03 7.654740e-10
-4.000000e+02 -4.800180e+03 1.296520e-09
8.451140e-10 -4.800180e+03 1.730380e-09
6.094180e-10 -5.200150e+03 -4.000000e+02
4.000000e+02 -5.200150e+03 -4.000000e+02
5.031640e-10 -4.800180e+03 -4.000000e+02
4.000000e+02 -4.800180e+03 -4.000000e+02
3.435760e-10 -5.200150e+03 7.654740e-10
4.000000e+02 -5.200150e+03 7.524750e-10
8.451140e-10 -4.800180e+03 1.730380e-09
4.000000e+02 -4.800180e+03 1.340970e-09
-4.000000e+02 -4.800180e+03 -4.000000e+02
5.031640e-10 -4.800180e+03 -4.000000e+02
-4.000000e+02 -4.400220e+03 -4.000000e+02
-1.919460e-10 -4.400220e+03 -4.000000e+02
-4.000000e+02 -4.800180e+03 1.296520e-09
8.451140e-10 -4.800180e+03 1.730380e-09
-4.000000e+02 -4.400220e+03 1.722560e-09
9.506630e-10 -4.400220e+03 1.387660e-09
5.031640e-10 -4.800180e+03 -4.000000e+02
4.000000e+02 -4.800180e+03 -4.000000e+02
-1.919460e-10 -4.400220e+03 -4.000000e+02
4.000000e+02 -4.400220e+03 -4.000000e+02
8.451140e-10 -4.800180e+03 1.730380e-09
4.000000e+02 -4.800180e+03 1.340970e-09
9.506630e-10 -4.400220e+03 1.387660e-09
4.000000e+02 -4.400220e+03 2.226880e-09
-4.000000e+02 -4.400220e+03 -4.000000e+02
-1.919460e-10 -4.400220e+03 -4.000000e+02
-4.000000e+02 -4.000250e+03 -4.000000e+02
8.853720e-10 -4.000250e+03 -4.000000e+02
-4.000000e+02 -4.400220e+03 1.722560e-09
9.506630e-10 -4.400220e+03 1.387660e-09
-4.000000e+02 -4.000250e+03 1.330740e-09
4.107250e-10 -4.000250e+03 1.808090e-09
-1.919460e-10 -4.400220e+03 -4.000000e+02
4.000000e+02 -4.400220e+03 -4.000000e+02
8.853720e-10 -4.000250e+03 -4.000000e+02
4.000000e+02 -4.000250e+03 -4.000000e+02
9.506630e-10 -4.400220e+03 1.387660e-09
4.000000e+02 -4.400220e+03 2.226880e-09
4.107250e-10 -4.000250e+03 1.808090e-09
4.000000e+02 -4.000250e+03 2.136670e-09
-4.000000e+02 -4.000250e+03 -4.000000e+02
8.853720e-10 -4.000250e+03 -4.000000e+02
-4.000000e+02 -3.600260e+03 -4.000000e+02
1.964050e-09 -3.600260e+03 -4.000000e+02
-4.000000e+02 -4.000250e+03 1.330740e-09
4.107250e-10 -4.000250e+03 1.808090e-09
-4.000000e+02 -3.600260e+03 2.191070e-09
7.524810e-10 -3.600260e+03 2.326760e-09
8.853720e-10 -4.000250e+03 -4.000000e+02
4.000000e+02 -4.000250e+03 -4.000000e+02
1.964050e-09 -3.600260e+03 -4.000000e+02
4.000000e+02 -3.600260e+03 -4.000000e+02
4.107250e-10 -4.000250e+03 1.808090e-09
4.000000e+02 -4.000250e+03 2.136670e-09
7.524810e-10 -3.600260e+03 2.326760e-09
4.000000e+02 -3.600260e+03 2.297060e-09
-4.000000e+02 -3.600260e+03 -4.000000e+02
1.964050e-09 -3.600260e+03 -4.000000e+02
-4.000000e+02 -3.200260e+03 -4.000000e+02
1.781270e-09 -3.200260e+03 -4.000000e+02
-4.000000e+02 -3.600260e+03 2.191070e-09
7.524810e-10 -3.600260e+03 2.326760e-09
-4.000000e+02 -3.200260e+03 1.533090e-09
1.004000e-09 -3.200260e+03 1.992880e-09
1.964050e-09 -3.600260e+03 -4.000000e+02
4.000000e+02 -3.600260e+03 -4.000000e+02
1.781270e-09 -3.200260e+03 -4.000000e+02
4.000000e+02 -3.200260e+03 -4.000000e+02
7.524810e-10 -3.600260e+03 2.326760e-09
4.000000e+02 -3.600260e+03 2.297060e-09
1.004000e-09 -3.200260e+03 1.992880e-09
4.000000e+02 -3.200260e+03 2.185110e-09
-4.000000e+02 -3.200260e+03 -4.000000e+02
1.781270e-09 -3.200260e+03 -4.000000e+02
-4.000000e+02 -2.800260e+03 -4.000000e+02
2.077070e-09 -2.800260e+03 -4.000000e+02
-4.000000e+02 -3.200260e+03 1.533090e-09
1.004000e-09 -3.200260e+03 1.992880e-09
-4.000000e+02 -2.800260e+03 -1.401600e-10
1.031990e-09 -2.800260e+03 6.952960e-10
1.781270e-09 -3.200260e+03 -4.000000e+02
4.000000e+02 -3.200260e+03 -4.000000e+02
2.077070e-09 -2.800260e+03 -4.000000e+02
4.000000e+02 -2.800260e+03 -4.000000e+02
1.004000e-09 -3.200260e+03 1.992880e-09
4.000000e+02 -3.200260e+03 2.185110e-09
1.031990e-09 -2.800260e+03 6.952960e-10
4.000000e+02 -2.800260e+03 1.209340e-09
-4.000000e+02 -2.800260e+03 -4.000000e+02
2.077070e-09 -2.800260e+03 -4.000000e+02
-4.000000e+02 -2.400270e+03 -4.000000e+02
2.132670e-09 -2.400270e+03 -4.000000e+02
-4.000000e+02 -2.800260e+03 -1.401600e-10
1.031990e-09 -2.800260e+03 6.952960e-10
-4.000000e+02 -2.400270e+03 -8.244100e-10
1.441560e-09 -2.400270e+03 -3.035080e-10
2.077070e-09 -2.800260e+03 -4.000000e+02
4.000000e+02 -2.800260e+03 -4.000000e+02
2.132670e-09 -2.400270e+03 -4.000000e+02
4.000000e+02 -2.400270e+03 -4.000000e+02
1.031990e-09 -2.800260e+03 6.952960e-10
4.000000e+02 -2.800260e+03 1.209340e-09
1.441560e-09 -2.400270e+03 -3.035080e-10
4.000000e+02 -2.400270e+03 4.834980e-10
-4.000000e+02 -2.400270e+03 -4.000000e+02
2.132670e-09 -2.400270e+03 -4.000000e+02
-4.000000e+02 -2.000270e+03 -4.000000e+02
8.700650e-10 -2.000270e+03 -4.000000e+02
-4.000000e+02 -2.400270e+03 -8.244100e-10
1.441560e-09 -2.400270e+03 -3.035080e-10
-4.000000e+02 -2.000270e+03 -6.845770e-10
8.211010e-10 -2.000270e+03 3.244630e-10
2.132670e-09 -2.400270e+03 -4.000000e+02
4.000000e+02 -2.400270e+03 -4.000000e+02
8.700650e-10 -2.000270e+03 -4.000000e+02
4.000000e+02 -2.000270e+03 -4.000000e+02
1.441560e-09 -2.400270e+03 -3.035080e-10
4.000000e+02 -2.400270e+03 4.834980e-10
8.211010e-10 -2.000270e+03 3.244630e-10
4.000000e+02 -2.000270e+03 8.840530e-10
-4.000000e+02 -2.000270e+03 -4.000000e+02
8.700650e-10 -2.000270e+03 -4.000000e+02
-4.000000e+02 -1.600270e+03 -4.000000e+02
6.938100e-10 -1.600270e+03 -4.000000e+02
-4.000000e+02 -2.000270e+03 -6.845770e-10
8.211010e-10 -2.000270e+03 3.244630e-10
-4.000000e+02 -1.600270e+03 -5.140420e-10
6.072850e-10 -1.600270e+03 -5.513200e-10
8.700650e-10 -2.000270e+03 -4.000000e+02
4.000000e+02 -2.000270e+03 -4.000000e+02
6.938100e-10 -1.600270e+03 -4.000000e+02
4.000000e+02 -1.600270e+03 -4.000000e+02
8.211010e-10 -2.000270e+03 3.244630e-10
4.000000e+02 -2.000270e+03 8.840530e-10
6.072850e-10 -1.600270e+03 -5.513200e-10
4.000000e+02 -1.600270e+03 1.324430e-10
-4.000000e+02 -1.600270e+03 -4.000000e+02
6.938100e-10 -1.600270e+03 -4.000000e+02
-4.000000e+02 -1.200270e+03 -4.000000e+02
6.404510e-10 -1.200270e+03 -4.000000e+02
-4.000000e+02 -1.600270e+03 -5.140420e-10
6.072850e-10 -1.600270e+03 -5.513200e-10
-4.000000e+02 -1.200270e+03 -1.147310e-09
1.493570e-10 -1.200270e+03 -1.062320e-09
6.938100e-10 -1.600270e+03 -4.000000e+02
4.000000e+02 -1.600270e+03 -4.000000e+02
6.404510e-10 -1.200270e+03 -4.000000e+02
4.000000e+02 -1.200270e+03 -4.000000e+02
6.072850e-10 -1.600270e+03 -5.513200e-10
4.000000e+02 -1.600270e+03 1.324430e-10
1.493570e-10 -1.200270e+03 -1.062320e-09
4.000000e+02 -1.200270e+03 -5.067400e-10
-4.000000e+02 -1.200270e+03 -4.000000e+02
6.404510e-10 -1.200270e+03 -4.000000e+02
-4.000000e+02 -8.002730e+02 -4.000000e+02
5.144120e-10 -8.002730e+02 -4.000000e+02
-4.000000e+02 -1.200270e+03 -1.147310e-09
1.493570e-10 -1.200270e+03 -1.062320e-09
-4.000000e+02 -8.002730e+02 -9.114460e-10
2.065450e-10 -8.002730e+02 -5.316770e-10
6.404510e-10 -1.200270e+03 -4.000000e+02
4.000000e+02 -1.200270e+03 -4.000000e+02
5.144120e-10 -8.002730e+02 -4.000000e+02
4.000000e+02 -8.002730e+02 -4.000000e+02
1.493570e-10 -1.200270e+03 -1.062320e-09
4.000000e+02 -1.200270e+03 -5.067400e-10
2.065450e-10 -8.002730e+02 -5.316770e-10
4.000000e+02 -8.002730e+02 -1.871440e-10
-4.000000e+02 -8.002730e+02 -4.000000e+02
5.144120e-10 -8.002730e+02 -4.000000e+02
-4.000000e+02 -4.002740e+02 -4.000000e+02
4.583290e-10 -4.002740e+02 -4.000000e+02
-4.000000e+02 -8.002730e+02 -9.114460e-10
2.065450e-10 -8.002730e+02 -5.316770e-10
-4.000000e+02 -4.002740e+02 -8.572850e-10
3.178800e-10 -4.002740e+02 -3.742290e-10
5.144120e-10 -8.002730e+02 -4.000000e+02
4.000000e+02 -8.002730e+02 -4.000000e+02
4.583290e-10 -4.002740e+02 -4.000000e+02
4.000000e+02 -4.002740e+02 -4.000000e+02
2.065450e-10 -8.002730e+02 -5.316770e-10
4.000000e+02 -8.002730e+02 -1.871440e-10
3.178800e-10 -4.002740e+02 -3.742290e-10
4.000000e+02 -4.002740e+02 -2.351300e-10
-4.000000e+02 -4.002740e+02 -4.000000e+02
4.583290e-10 -4.002740e+02 -4.000000e+02
-4.000000e+02 -2.745590e-01 -4.000000e+02
4.581560e-10 -2.745590e-01 -4.000000e+02
-4.000000e+02 -4.002740e+02 -8.572850e-10
3.178800e-10 -4.002740e+02 -3.742290e-10
-4.000000e+02 -2.745590e-01 -6.111760e-10
1.812270e-10 -2.745590e-01 -4.560360e-10
4.583290e-10 -4.002740e+02 -4.000000e+02
4.000000e+02 -4.002740e+02 -4.000000e+02
4.581560e-10 -2.745590e-01 -4.000000e+02
4.000000e+02 -2.745590e-01 -4.000000e+02
3.178800e-10 -4.002740e+02 -3.742290e-10
[...]
<PointData>
<DataArray type="Float32" Name="V1" format="ascii">
0.000000e+00
0.000000e+00
1.885350e-10
-3.643070e-10
0.000000e+00
0.000000e+00
1.885350e-10
7.776320e-10
0.000000e+00
0.000000e+00
-3.643070e-10
-1.068370e-09
0.000000e+00
0.000000e+00
7.776320e-10
1.633970e-09
1.885350e-10
-3.643070e-10
-1.885350e-09
-3.047670e-10
1.885350e-10
7.776320e-10
7.384290e-10
1.031540e-09
-3.643070e-10
-1.068370e-09
-3.047670e-10
1.005520e-09
7.776320e-10
1.633970e-09
1.031540e-09
-4.399150e-10
-1.885350e-09
-3.047670e-10
1.115500e-09
8.758760e-10
7.384290e-10
1.031540e-09
-3.613590e-10
-1.153160e-09
-3.047670e-10
1.005520e-09
8.758760e-10
-9.112530e-10
1.031540e-09
-4.399150e-10
-1.153160e-09
0.000000e+00
1.115500e-09
8.758760e-10
1.178340e-09
2.066750e-10
-3.613590e-10
-1.153160e-09
-5.656050e-10
2.634190e-10
8.758760e-10
-9.112530e-10
2.066750e-10
-1.146920e-09
-1.153160e-09
0.000000e+00
2.634190e-10
1.146920e-09
1.178340e-09
2.066750e-10
2.152440e-09
6.857710e-10
-5.656050e-10
2.634190e-10
-2.513800e-10
-1.558400e-10
2.066750e-10
-1.146920e-09
6.857710e-10
-1.398300e-09
2.634190e-10
1.146920e-09
-1.558400e-10
-6.912950e-10
2.152440e-09
6.857710e-10
2.985140e-10
3.037760e-10
-2.513800e-10
-1.558400e-10
-9.583870e-10
-1.056670e-09
6.857710e-10
-1.398300e-09
3.037760e-10
8.798300e-10
-1.558400e-10
-6.912950e-10
-1.056670e-09
4.713380e-10
2.985140e-10
3.037760e-10
-1.256900e-10
1.092890e-09
-9.583870e-10
-1.056670e-09
-4.870490e-10
2.571660e-10
3.037760e-10
8.798300e-10
1.092890e-09
1.586840e-09
-1.056670e-09
4.713380e-10
2.571660e-10
1.382590e-09
-1.256900e-10
1.092890e-09
-6.284500e-10
7.999290e-10
-4.870490e-10
2.571660e-10
4.399150e-10
-2.901470e-10
1.092890e-09
1.586840e-09
7.999290e-10
6.912950e-10
2.571660e-10
1.382590e-09
-2.901470e-10
-1.571130e-09
-6.284500e-10
7.999290e-10
7.070060e-10
3.667160e-10
4.399150e-10
-2.901470e-10
4.084930e-10
3.170750e-10
7.999290e-10
6.912950e-10
3.667160e-10
4.399150e-10
-2.901470e-10
-1.571130e-09
3.170750e-10
-2.985140e-10
7.070060e-10
3.667160e-10
2.042460e-10
-1.143520e-10
4.084930e-10
3.170750e-10
4.556260e-10
4.948650e-11
3.667160e-10
4.399150e-10
-1.143520e-10
-5.498940e-10
3.170750e-10
-2.985140e-10
4.948650e-11
-4.242040e-10
2.042460e-10
-1.143520e-10
-1.036940e-09
-5.024200e-10
4.556260e-10
4.948650e-11
-4.556260e-10
1.804280e-10
-1.143520e-10
-5.498940e-10
-5.024200e-10
4.399150e-10
4.948650e-11
-4.242040e-10
1.804280e-10
6.912950e-10
-1.036940e-09
-5.024200e-10
-3.613590e-10
4.810530e-12
-4.556260e-10
1.804280e-10
-4.556260e-10
2.154050e-11
-5.024200e-10
4.399150e-10
4.810530e-12
-4.084930e-10
1.804280e-10
6.912950e-10
2.154050e-11
1.005520e-09
-3.613590e-10
4.810530e-12
-8.169850e-10
8.974740e-11
-4.556260e-10
2.154050e-11
2.042460e-10
-1.897250e-10
4.810530e-12
-4.084930e-10
8.974740e-11
5.341830e-10
2.154050e-11
1.005520e-09
-1.897250e-10
-1.571130e-11
-8.169850e-10
8.974740e-11
1.036940e-09
7.093790e-11
2.042460e-10
-1.897250e-10
1.571130e-10
9.039680e-10
8.974740e-11
5.341830e-10
7.093790e-11
-1.225480e-09
-1.897250e-10
-1.571130e-11
9.039680e-10
7.541400e-10
1.036940e-09
7.093790e-11
4.084930e-10
3.746460e-10
1.571130e-10
9.039680e-10
2.199580e-10
2.682990e-10
7.093790e-11
-1.225480e-09
3.746460e-10
-4.556260e-10
9.039680e-10
7.541400e-10
2.682990e-10
-1.099790e-10
4.084930e-10
3.746460e-10
-1.414010e-10
-5.207970e-10
2.199580e-10
2.682990e-10
0.000000e+00
-3.048030e-10
3.746460e-10
-4.556260e-10
-5.207970e-10
2.828030e-10
2.682990e-10
-1.099790e-10
-3.048030e-10
-2.199580e-10
-1.414010e-10
-5.207970e-10
-4.084930e-10
1.335160e-10
0.000000e+00
-3.048030e-10
0.000000e+00
1.095160e-10
-5.207970e-10
2.828030e-10
1.335160e-10
-5.184710e-10
-3.048030e-10
-2.199580e-10
1.095160e-10
0.000000e+00
-4.084930e-10
1.335160e-10
0.000000e+00
-9.995860e-12
0.000000e+00
1.095160e-10
0.000000e+00
4.267180e-11
1.335160e-10
-5.184710e-10
-9.995860e-12
5.656050e-10
1.095160e-10
0.000000e+00
4.267180e-11
1.414010e-10
0.000000e+00
-9.995860e-12
0.000000e+00
-1.116640e-10
0.000000e+00
4.267180e-11
0.000000e+00
-5.857600e-11
-9.995860e-12
5.656050e-10
-1.116640e-10
-5.813160e-10
4.267180e-11
1.414010e-10
-5.857600e-11
0.000000e+00
0.000000e+00
-1.116640e-10
0.000000e+00
-1.833210e-10
0.000000e+00
-5.857600e-11
0.000000e+00
-9.879900e-11
-1.116640e-10
-5.813160e-10
-1.833210e-10
0.000000e+00
-5.857600e-11
0.000000e+00
-9.879900e-11
0.000000e+00
0.000000e+00
-1.833210e-10
0.000000e+00
4.076040e-11
0.000000e+00
-9.879900e-11
0.000000e+00
3.679500e-11
-1.833210e-10
0.000000e+00
4.076040e-11
0.000000e+00
-9.879900e-11
0.000000e+00
3.679500e-11
0.000000e+00
0.000000e+00
4.076040e-11
0.000000e+00
-9.361130e-12
0.000000e+00
3.679500e-11
0.000000e+00
-1.469040e-11
4.076040e-11
0.000000e+00
-9.361130e-12
0.000000e+00
3.679500e-11
0.000000e+00
-1.469040e-11
0.000000e+00
0.000000e+00
-9.361130e-12
0.000000e+00
-1.427970e-11
0.000000e+00
-1.469040e-11
0.000000e+00
-1.176970e-11
-9.361130e-12
0.000000e+00
-1.427970e-11
0.000000e+00
-1.469040e-11
0.000000e+00
-1.176970e-11
0.000000e+00
0.000000e+00
-1.427970e-11
0.000000e+00
4.586510e-11
0.000000e+00
-1.176970e-11
0.000000e+00
4.546370e-11
-1.427970e-11
0.000000e+00
4.586510e-11
0.000000e+00
-1.176970e-11
0.000000e+00
4.546370e-11
0.000000e+00
0.000000e+00
4.586510e-11
0.000000e+00
5.610440e-11
0.000000e+00
4.546370e-11
0.000000e+00
4.049450e-11
4.586510e-11
0.000000e+00
5.610440e-11
0.000000e+00
4.546370e-11
0.000000e+00
4.049450e-11
0.000000e+00
0.000000e+00
5.610440e-11
0.000000e+00
-2.282280e-11
0.000000e+00
4.049450e-11
0.000000e+00
-2.315610e-11
5.610440e-11
0.000000e+00
-2.282280e-11
0.000000e+00
4.049450e-11
0.000000e+00
-2.315610e-11
0.000000e+00
0.000000e+00
-2.282280e-11
0.000000e+00
-2.133990e-11
0.000000e+00
-2.315610e-11
0.000000e+00
-1.718560e-11
-2.282280e-11
0.000000e+00
-2.133990e-11
0.000000e+00
-2.315610e-11
0.000000e+00
-1.718560e-11
0.000000e+00
0.000000e+00
-2.133990e-11
0.000000e+00
3.069820e-13
0.000000e+00
-1.718560e-11
0.000000e+00
-2.069500e-12
-2.133990e-11
0.000000e+00
3.069820e-13
0.000000e+00
-1.718560e-11
0.000000e+00
-2.069500e-12
0.000000e+00
0.000000e+00
3.069820e-13
0.000000e+00
6.478860e-13
0.000000e+00
-2.069500e-12
0.000000e+00
-2.132950e-12
3.069820e-13
0.000000e+00
6.478860e-13
0.000000e+00
-2.069500e-12
0.000000e+00
-2.132950e-12
0.000000e+00
0.000000e+00
6.478860e-13
0.000000e+00
3.769400e-12
0.000000e+00
-2.132950e-12
0.000000e+00
9.209850e-12
6.478860e-13
0.000000e+00
3.769400e-12
0.000000e+00
-2.132950e-12
0.000000e+00
9.209850e-12
0.000000e+00
0.000000e+00
0.000000e+00
1.885350e-10
7.776320e-10
0.000000e+00
0.000000e+00
1.099790e-10
-5.786910e-10
0.000000e+00
0.000000e+00
7.776320e-10
1.633970e-09
0.000000e+00
0.000000e+00
-5.786910e-10
-1.021230e-09
1.885350e-10
7.776320e-10
7.384290e-10
1.031540e-09
1.099790e-10
-5.786910e-10
-2.073890e-09
-1.789780e-09
7.776320e-10
1.633970e-09
1.031540e-09
-4.399150e-10
-5.786910e-10
-1.021230e-09
-1.789780e-09
-2.828030e-10
7.384290e-10
1.031540e-09
-3.613590e-10
-1.153160e-09
-2.073890e-09
-1.789780e-09
1.319750e-09
9.265200e-10
1.031540e-09
-4.399150e-10
-1.153160e-09
0.000000e+00
-1.789780e-09
-2.828030e-10
9.265200e-10
3.456480e-10
-3.613590e-10
-1.153160e-09
-5.656050e-10
2.634190e-10
1.319750e-09
9.265200e-10
1.099790e-09
1.562940e-10
-1.153160e-09
0.000000e+00
2.634190e-10
1.146920e-09
9.265200e-10
3.456480e-10
1.562940e-10
-1.901060e-09
-5.656050e-10
2.634190e-10
-2.513800e-10
-1.558400e-10
1.099790e-09
1.562940e-10
1.586840e-09
4.055200e-10
2.634190e-10
1.146920e-09
-1.558400e-10
-6.912950e-10
1.562940e-10
-1.901060e-09
4.055200e-10
-1.241190e-09
-2.513800e-10
-1.558400e-10
-9.583870e-10
-1.056670e-09
1.586840e-09
4.055200e-10
2.670910e-10
3.540520e-10
-1.558400e-10
-6.912950e-10
-1.056670e-09
4.713380e-10
4.055200e-10
-1.241190e-09
3.540520e-10
8.641190e-10
-9.583870e-10
-1.056670e-09
-4.870490e-10
2.571660e-10
2.670910e-10
3.540520e-10
-1.382590e-09
5.311270e-10
-1.056670e-09
4.713380e-10
2.571660e-10
1.382590e-09
3.540520e-10
8.641190e-10
5.311270e-10
1.806790e-09
-4.870490e-10
2.571660e-10
4.399150e-10
-2.901470e-10
-1.382590e-09
5.311270e-10
-1.115500e-09
2.899040e-10
2.571660e-10
1.382590e-09
-2.901470e-10
-1.571130e-09
5.311270e-10
1.806790e-09
2.899040e-10
1.555410e-09
4.399150e-10
-2.901470e-10
4.084930e-10
3.170750e-10
-1.115500e-09
2.899040e-10
7.070060e-10
7.112890e-10
-2.901470e-10
-1.571130e-09
3.170750e-10
-2.985140e-10
2.899040e-10
1.555410e-09
7.112890e-10
6.598730e-10
4.084930e-10
3.170750e-10
4.556260e-10
4.948650e-11
7.070060e-10
7.112890e-10
7.541400e-10
-4.111840e-10
3.170750e-10
-2.985140e-10
4.948650e-11
-4.242040e-10
7.112890e-10
6.598730e-10
-4.111840e-10
5.813160e-10
4.556260e-10
4.948650e-11
-4.556260e-10
1.804280e-10
7.541400e-10
-4.111840e-10
-1.005520e-09
2.793670e-11
4.948650e-11
-4.242040e-10
1.804280e-10
6.912950e-10
-4.111840e-10
5.813160e-10
2.793670e-11
-3.927810e-10
-4.556260e-10
1.804280e-10
-4.556260e-10
2.154050e-11
-1.005520e-09
2.793670e-11
6.127390e-10
4.740690e-10
1.804280e-10
6.912950e-10
2.154050e-11
1.005520e-09
2.793670e-11
-3.927810e-10
4.740690e-10
-7.541400e-10
-4.556260e-10
2.154050e-11
2.042460e-10
-1.897250e-10
6.127390e-10
4.740690e-10
-9.583870e-10
-1.887610e-10
2.154050e-11
1.005520e-09
-1.897250e-10
-1.571130e-11
4.740690e-10
-7.541400e-10
-1.887610e-10
1.822510e-09
2.042460e-10
-1.897250e-10
1.571130e-10
9.039680e-10
-9.583870e-10
-1.887610e-10
-2.513800e-10
-2.087170e-11
-1.897250e-10
-1.571130e-11
9.039680e-10
7.541400e-10
-1.887610e-10
1.822510e-09
-2.087170e-11
-5.184710e-10
1.571130e-10
9.039680e-10
2.199580e-10
2.682990e-10
-2.513800e-10
-2.087170e-11
5.813160e-10
1.499190e-10
9.039680e-10
7.541400e-10
2.682990e-10
-1.099790e-10
-2.087170e-11
-5.184710e-10
1.499190e-10
1.036940e-09
2.199580e-10
2.682990e-10
0.000000e+00
-3.048030e-10
5.813160e-10
1.499190e-10
2.513800e-10
-1.144020e-10
2.682990e-10
-1.099790e-10
-3.048030e-10
-2.199580e-10
1.499190e-10
1.036940e-09
-1.144020e-10
-2.670910e-10
0.000000e+00
-3.048030e-10
0.000000e+00
1.095160e-10
2.513800e-10
-1.144020e-10
0.000000e+00
2.459540e-10
-3.048030e-10
-2.199580e-10
1.095160e-10
0.000000e+00
-1.144020e-10
-2.670910e-10
2.459540e-10
-5.498940e-10
0.000000e+00
1.095160e-10
0.000000e+00
4.267180e-11
0.000000e+00
2.459540e-10
7.227180e-10
-5.340730e-10
1.095160e-10
0.000000e+00
4.267180e-11
1.414010e-10
2.459540e-10
-5.498940e-10
-5.340730e-10
2.828030e-10
0.000000e+00
4.267180e-11
0.000000e+00
-5.857600e-11
7.227180e-10
-5.340730e-10
0.000000e+00
2.108480e-10
4.267180e-11
1.414010e-10
-5.857600e-11
0.000000e+00
-5.340730e-10
2.828030e-10
2.108480e-10
0.000000e+00
0.000000e+00
-5.857600e-11
0.000000e+00
-9.879900e-11
0.000000e+00
2.108480e-10
0.000000e+00
-1.412510e-10
-5.857600e-11
0.000000e+00
-9.879900e-11
0.000000e+00
2.108480e-10
0.000000e+00
-1.412510e-10
0.000000e+00
0.000000e+00
-9.879900e-11
0.000000e+00
3.679500e-11
0.000000e+00
-1.412510e-10
0.000000e+00
2.033160e-11
-9.879900e-11
0.000000e+00
3.679500e-11
0.000000e+00
-1.412510e-10
0.000000e+00
2.033160e-11
0.000000e+00
0.000000e+00
3.679500e-11
0.000000e+00
-1.469040e-11
0.000000e+00
2.033160e-11
0.000000e+00
-1.080970e-11
3.679500e-11
0.000000e+00
-1.469040e-11
0.000000e+00
2.033160e-11
0.000000e+00
-1.080970e-11
0.000000e+00
0.000000e+00
-1.469040e-11
0.000000e+00
-1.176970e-11
0.000000e+00
-1.080970e-11
0.000000e+00
-1.453560e-11
-1.469040e-11
0.000000e+00
-1.176970e-11
0.000000e+00
-1.080970e-11
0.000000e+00
-1.453560e-11
0.000000e+00
0.000000e+00
-1.176970e-11
0.000000e+00
4.546370e-11
0.000000e+00
-1.453560e-11
0.000000e+00
4.329160e-11
-1.176970e-11
0.000000e+00
4.546370e-11
0.000000e+00
-1.453560e-11
0.000000e+00
4.329160e-11
0.000000e+00
0.000000e+00
4.546370e-11
0.000000e+00
4.049450e-11
0.000000e+00
4.329160e-11
0.000000e+00
3.242200e-11
4.546370e-11
0.000000e+00
4.049450e-11
0.000000e+00
4.329160e-11
0.000000e+00
3.242200e-11
0.000000e+00
0.000000e+00
4.049450e-11
0.000000e+00
-2.315610e-11
0.000000e+00
3.242200e-11
0.000000e+00
-1.867790e-11
4.049450e-11
0.000000e+00
-2.315610e-11
0.000000e+00
3.242200e-11
0.000000e+00
-1.867790e-11
0.000000e+00
0.000000e+00
-2.315610e-11
0.000000e+00
-1.718560e-11
0.000000e+00
-1.867790e-11
0.000000e+00
-1.785100e-11
-2.315610e-11
0.000000e+00
-1.718560e-11
0.000000e+00
-1.867790e-11
0.000000e+00
-1.785100e-11
0.000000e+00
0.000000e+00
-1.718560e-11
0.000000e+00
-2.069500e-12
0.000000e+00
-1.785100e-11
0.000000e+00
-4.367620e-12
-1.718560e-11
0.000000e+00
-2.069500e-12
0.000000e+00
-1.785100e-11
0.000000e+00
-4.367620e-12
0.000000e+00
0.000000e+00
-2.069500e-12
0.000000e+00
-2.132950e-12
0.000000e+00
-4.367620e-12
0.000000e+00
-2.105520e-12
-2.069500e-12
0.000000e+00
-2.132950e-12
0.000000e+00
-4.367620e-12
0.000000e+00
-2.105520e-12
0.000000e+00
0.000000e+00
-2.132950e-12
0.000000e+00
9.209850e-12
0.000000e+00
-2.105520e-12
0.000000e+00
1.361640e-11
-2.132950e-12
0.000000e+00
9.209850e-12
0.000000e+00
-2.105520e-12
0.000000e+00
1.361640e-11
0.000000e+00
</DataArray>
<DataArray type="Float32" Name="V2" format="ascii">
0.000000e+00
0.000000e+00
-5.025020e-02
-5.025020e-02
0.000000e+00
0.000000e+00
-5.025020e-02
-5.025020e-02
0.000000e+00
0.000000e+00
-5.025020e-02
-5.025020e-02
0.000000e+00
0.000000e+00
-5.025020e-02
-5.025020e-02
-5.025020e-02
-5.025020e-02
-7.058980e-02
-7.058980e-02
-5.025020e-02
-5.025020e-02
-7.058980e-02
-7.058980e-02
-5.025020e-02
-5.025020e-02
-7.058980e-02
-7.058980e-02
-5.025020e-02
-5.025020e-02
-7.058980e-02
-7.058980e-02
-7.058980e-02
-7.058980e-02
-4.381750e-02
-4.381750e-02
-7.058980e-02
-7.058980e-02
-4.381750e-02
-4.381750e-02
-7.058980e-02
-7.058980e-02
-4.381750e-02
-4.381750e-02
-7.058980e-02
-7.058980e-02
-4.381750e-02
-4.381750e-02
-4.381750e-02
-4.381750e-02
-7.642050e-03
-7.642050e-03
-4.381750e-02
-4.381750e-02
-7.642050e-03
-7.642050e-03
-4.381750e-02
-4.381750e-02
-7.642050e-03
-7.642050e-03
-4.381750e-02
-4.381750e-02
-7.642050e-03
-7.642050e-03
-7.642050e-03
-7.642050e-03
-2.446830e-03
-2.446830e-03
-7.642050e-03
-7.642050e-03
-2.446830e-03
-2.446840e-03
-7.642050e-03
-7.642050e-03
-2.446830e-03
-2.446830e-03
-7.642050e-03
-7.642050e-03
-2.446840e-03
-2.446830e-03
-2.446830e-03
-2.446830e-03
-9.807910e-03
-9.807910e-03
-2.446830e-03
-2.446840e-03
-9.807910e-03
-9.807910e-03
-2.446830e-03
-2.446830e-03
-9.807910e-03
-9.807910e-03
-2.446840e-03
-2.446830e-03
-9.807910e-03
-9.807900e-03
-9.807910e-03
-9.807910e-03
-3.992180e-03
-3.992170e-03
-9.807910e-03
-9.807910e-03
-3.992170e-03
-3.992180e-03
-9.807910e-03
-9.807910e-03
-3.992170e-03
-3.992170e-03
-9.807910e-03
-9.807900e-03
-3.992180e-03
-3.992170e-03
-3.992180e-03
-3.992170e-03
4.648030e-04
4.648060e-04
-3.992170e-03
-3.992180e-03
4.648040e-04
4.648040e-04
-3.992170e-03
-3.992170e-03
4.648060e-04
4.648050e-04
-3.992180e-03
-3.992170e-03
4.648040e-04
4.648010e-04
4.648030e-04
4.648060e-04
-1.317820e-03
-1.317820e-03
4.648040e-04
4.648040e-04
-1.317820e-03
-1.317820e-03
4.648060e-04
4.648050e-04
-1.317820e-03
-1.317820e-03
4.648040e-04
4.648010e-04
-1.317820e-03
-1.317820e-03
-1.317820e-03
-1.317820e-03
-1.791120e-03
-1.791120e-03
-1.317820e-03
-1.317820e-03
-1.791120e-03
-1.791120e-03
-1.317820e-03
-1.317820e-03
-1.791120e-03
-1.791120e-03
-1.317820e-03
-1.317820e-03
-1.791120e-03
-1.791120e-03
-1.791120e-03
-1.791120e-03
-1.077090e-03
-1.077090e-03
-1.791120e-03
-1.791120e-03
-1.077090e-03
-1.077090e-03
-1.791120e-03
-1.791120e-03
-1.077090e-03
-1.077090e-03
-1.791120e-03
-1.791120e-03
-1.077090e-03
-1.077090e-03
-1.077090e-03
-1.077090e-03
-4.427430e-04
-4.427400e-04
-1.077090e-03
-1.077090e-03
-4.427410e-04
-4.427380e-04
-1.077090e-03
-1.077090e-03
-4.427400e-04
-4.427410e-04
-1.077090e-03
-1.077090e-03
-4.427380e-04
-4.427400e-04
-4.427430e-04
-4.427400e-04
-6.380670e-04
-6.380670e-04
-4.427410e-04
-4.427380e-04
-6.380680e-04
-6.380680e-04
-4.427400e-04
-4.427410e-04
-6.380670e-04
-6.380680e-04
-4.427380e-04
-4.427400e-04
-6.380680e-04
-6.380660e-04
-6.380670e-04
-6.380670e-04
-5.172390e-04
-5.172380e-04
-6.380680e-04
-6.380680e-04
-5.172390e-04
-5.172390e-04
-6.380670e-04
-6.380680e-04
-5.172380e-04
-5.172390e-04
-6.380680e-04
-6.380660e-04
-5.172390e-04
-5.172400e-04
-5.172390e-04
-5.172380e-04
-6.601540e-04
-6.601530e-04
-5.172390e-04
-5.172390e-04
-6.601520e-04
-6.601540e-04
-5.172380e-04
-5.172390e-04
-6.601530e-04
-6.601540e-04
-5.172390e-04
-5.172400e-04
-6.601540e-04
-6.601550e-04
-6.601540e-04
-6.601530e-04
-2.564430e-04
-2.564430e-04
-6.601520e-04
-6.601540e-04
-2.564430e-04
-2.564440e-04
-6.601530e-04
-6.601540e-04
-2.564430e-04
-2.564420e-04
-6.601540e-04
-6.601550e-04
-2.564440e-04
-2.564420e-04
-2.564430e-04
-2.564430e-04
-3.172160e-04
-3.172180e-04
-2.564430e-04
-2.564440e-04
-3.172180e-04
-3.172180e-04
-2.564430e-04
-2.564420e-04
-3.172180e-04
-3.172150e-04
-2.564440e-04
-2.564420e-04
-3.172180e-04
-3.172180e-04
-3.172160e-04
-3.172180e-04
-4.631940e-04
-4.631940e-04
-3.172180e-04
-3.172180e-04
-4.631920e-04
-4.631930e-04
-3.172180e-04
-3.172150e-04
-4.631940e-04
-4.631950e-04
-3.172180e-04
-3.172180e-04
-4.631930e-04
-4.631920e-04
-4.631940e-04
-4.631940e-04
-4.896690e-04
-4.896690e-04
-4.631920e-04
-4.631930e-04
-4.896700e-04
-4.896680e-04
-4.631940e-04
-4.631950e-04
-4.896690e-04
-4.896670e-04
-4.631930e-04
-4.631920e-04
-4.896680e-04
-4.896700e-04
-4.896690e-04
-4.896690e-04
-3.613680e-04
-3.613690e-04
-4.896700e-04
-4.896680e-04
-3.613690e-04
-3.613690e-04
-4.896690e-04
-4.896670e-04
-3.613690e-04
-3.613690e-04
-4.896680e-04
-4.896700e-04
-3.613690e-04
-3.613690e-04
-3.613680e-04
-3.613690e-04
-3.797450e-04
-3.797450e-04
-3.613690e-04
-3.613690e-04
-3.797440e-04
-3.797440e-04
-3.613690e-04
-3.613690e-04
-3.797450e-04
-3.797450e-04
-3.613690e-04
-3.613690e-04
-3.797440e-04
-3.797450e-04
-3.797450e-04
-3.797450e-04
-4.181030e-04
-4.181030e-04
-3.797440e-04
-3.797440e-04
-4.181030e-04
-4.181030e-04
-3.797450e-04
-3.797450e-04
-4.181030e-04
-4.181040e-04
-3.797440e-04
-3.797450e-04
-4.181030e-04
-4.181030e-04
-4.181030e-04
-4.181030e-04
-6.270040e-04
-6.270050e-04
-4.181030e-04
-4.181030e-04
-6.270030e-04
-6.270040e-04
-4.181030e-04
-4.181040e-04
-6.270050e-04
-6.270050e-04
-4.181030e-04
-4.181030e-04
-6.270040e-04
-6.270050e-04
-6.270040e-04
-6.270050e-04
-3.218700e-04
-3.218700e-04
-6.270030e-04
-6.270040e-04
-3.218690e-04
-3.218700e-04
-6.270050e-04
-6.270050e-04
-3.218700e-04
-3.218700e-04
-6.270040e-04
-6.270050e-04
-3.218700e-04
-3.218700e-04
-3.218700e-04
-3.218700e-04
-3.935630e-04
-3.935630e-04
-3.218690e-04
-3.218700e-04
-3.935640e-04
-3.935640e-04
-3.218700e-04
-3.218700e-04
-3.935630e-04
-3.935640e-04
-3.218700e-04
-3.218700e-04
-3.935640e-04
-3.935640e-04
-3.935630e-04
-3.935630e-04
-4.441810e-04
-4.441800e-04
-3.935640e-04
-3.935640e-04
-4.441810e-04
-4.441800e-04
-3.935630e-04
-3.935640e-04
-4.441800e-04
-4.441790e-04
-3.935640e-04
-3.935640e-04
-4.441800e-04
-4.441800e-04
-4.441810e-04
-4.441800e-04
-1.459650e-04
-1.459650e-04
-4.441810e-04
-4.441800e-04
-1.459650e-04
-1.459650e-04
-4.441800e-04
-4.441790e-04
-1.459650e-04
-1.459660e-04
-4.441800e-04
-4.441800e-04
-1.459650e-04
-1.459650e-04
-1.459650e-04
-1.459650e-04
-1.215760e-04
-1.215760e-04
-1.459650e-04
-1.459650e-04
-1.215760e-04
-1.215760e-04
-1.459650e-04
-1.459660e-04
-1.215760e-04
-1.215760e-04
-1.459650e-04
-1.459650e-04
-1.215760e-04
-1.215760e-04
-1.215760e-04
-1.215760e-04
-2.486710e-05
-2.486730e-05
-1.215760e-04
-1.215760e-04
-2.486710e-05
-2.486740e-05
-1.215760e-04
-1.215760e-04
-2.486730e-05
-2.486700e-05
-1.215760e-04
-1.215760e-04
-2.486740e-05
-2.486730e-05
-2.486710e-05
-2.486730e-05
6.615120e-04
6.615120e-04
-2.486710e-05
-2.486740e-05
6.615130e-04
6.615120e-04
-2.486730e-05
-2.486700e-05
6.615120e-04
6.615110e-04
-2.486740e-05
-2.486730e-05
6.615120e-04
6.615110e-04
0.000000e+00
0.000000e+00
-5.025020e-02
-5.025020e-02
0.000000e+00
0.000000e+00
-5.025020e-02
-5.025020e-02
0.000000e+00
0.000000e+00
-5.025020e-02
-5.025020e-02
0.000000e+00
0.000000e+00
-5.025020e-02
-5.025020e-02
-5.025020e-02
-5.025020e-02
-7.058980e-02
-7.058980e-02
-5.025020e-02
-5.025020e-02
-7.058980e-02
-7.058980e-02
-5.025020e-02
-5.025020e-02