<?xml version="1.0"?>
<VTKFile type="UnstructuredGrid" version="0.1" byte_order="LittleEndian" compressor="vtkZLibDataCompressor">
<UnstructuredGrid>
<Piece NumberOfPoints="960" NumberOfCells="120">
<Points>
<DataArray type="Float32" NumberOfComponents="3" format="ascii">
-4.000000e+02 -6.000000e+03 -4.000000e+02
0.000000e+00 -6.000000e+03 -4.000000e+02
-4.000000e+02 -5.600000e+03 -4.000000e+02
8.879750e-10 -5.600000e+03 -4.000000e+02
-4.000000e+02 -6.000000e+03 0.000000e+00
0.000000e+00 -6.000000e+03 0.000000e+00
-4.000000e+02 -5.600000e+03 -1.735610e-10
-2.933750e-10 -5.600000e+03 -5.440500e-11
0.000000e+00 -6.000000e+03 -4.000000e+02
4.000000e+02 -6.000000e+03 -4.000000e+02
8.879750e-10 -5.600000e+03 -4.000000e+02
4.000000e+02 -5.600000e+03 -4.000000e+02
0.000000e+00 -6.000000e+03 0.000000e+00
4.000000e+02 -6.000000e+03 0.000000e+00
-2.933750e-10 -5.600000e+03 -5.440500e-11
4.000000e+02 -5.600000e+03 -1.032670e-09
-4.000000e+02 -5.600000e+03 -4.000000e+02
8.879750e-10 -5.600000e+03 -4.000000e+02
-4.000000e+02 -5.200000e+03 -4.000000e+02
5.917340e-10 -5.200000e+03 -4.000000e+02
-4.000000e+02 -5.600000e+03 -1.735610e-10
-2.933750e-10 -5.600000e+03 -5.440500e-11
-4.000000e+02 -5.200000e+03 -4.064850e-11
-8.464590e-11 -5.200000e+03 -5.398730e-10
8.879750e-10 -5.600000e+03 -4.000000e+02
4.000000e+02 -5.600000e+03 -4.000000e+02
5.917340e-10 -5.200000e+03 -4.000000e+02
4.000000e+02 -5.200000e+03 -4.000000e+02
-2.933750e-10 -5.600000e+03 -5.440500e-11
4.000000e+02 -5.600000e+03 -1.032670e-09
-8.464590e-11 -5.200000e+03 -5.398730e-10
4.000000e+02 -5.200000e+03 -2.186610e-10
-4.000000e+02 -5.200000e+03 -4.000000e+02
5.917340e-10 -5.200000e+03 -4.000000e+02
-4.000000e+02 -4.800000e+03 -4.000000e+02
-2.343700e-10 -4.800000e+03 -4.000000e+02
-4.000000e+02 -5.200000e+03 -4.064850e-11
-8.464590e-11 -5.200000e+03 -5.398730e-10
-4.000000e+02 -4.800000e+03 -5.461650e-10
4.234540e-10 -4.800000e+03 -1.358980e-10
5.917340e-10 -5.200000e+03 -4.000000e+02
4.000000e+02 -5.200000e+03 -4.000000e+02
-2.343700e-10 -4.800000e+03 -4.000000e+02
4.000000e+02 -4.800000e+03 -4.000000e+02
-8.464590e-11 -5.200000e+03 -5.398730e-10
4.000000e+02 -5.200000e+03 -2.186610e-10
4.234540e-10 -4.800000e+03 -1.358980e-10
4.000000e+02 -4.800000e+03 -6.633010e-10
-4.000000e+02 -4.800000e+03 -4.000000e+02
-2.343700e-10 -4.800000e+03 -4.000000e+02
-4.000000e+02 -4.400010e+03 -4.000000e+02
1.470950e-09 -4.400010e+03 -4.000000e+02
-4.000000e+02 -4.800000e+03 -5.461650e-10
4.234540e-10 -4.800000e+03 -1.358980e-10
-4.000000e+02 -4.400010e+03 7.893190e-10
1.118740e-09 -4.400010e+03 7.387980e-10
-2.343700e-10 -4.800000e+03 -4.000000e+02
4.000000e+02 -4.800000e+03 -4.000000e+02
1.470950e-09 -4.400010e+03 -4.000000e+02
4.000000e+02 -4.400010e+03 -4.000000e+02
4.234540e-10 -4.800000e+03 -1.358980e-10
4.000000e+02 -4.800000e+03 -6.633010e-10
1.118740e-09 -4.400010e+03 7.387980e-10
4.000000e+02 -4.400010e+03 3.428000e-10
-4.000000e+02 -4.400010e+03 -4.000000e+02
1.470950e-09 -4.400010e+03 -4.000000e+02
-4.000000e+02 -4.000010e+03 -4.000000e+02
2.629710e-09 -4.000010e+03 -4.000000e+02
-4.000000e+02 -4.400010e+03 7.893190e-10
1.118740e-09 -4.400010e+03 7.387980e-10
-4.000000e+02 -4.000010e+03 1.161090e-10
2.187060e-09 -4.000010e+03 2.073950e-10
1.470950e-09 -4.400010e+03 -4.000000e+02
4.000000e+02 -4.400010e+03 -4.000000e+02
2.629710e-09 -4.000010e+03 -4.000000e+02
4.000000e+02 -4.000010e+03 -4.000000e+02
1.118740e-09 -4.400010e+03 7.387980e-10
4.000000e+02 -4.400010e+03 3.428000e-10
2.187060e-09 -4.000010e+03 2.073950e-10
4.000000e+02 -4.000010e+03 2.414500e-10
-4.000000e+02 -4.000010e+03 -4.000000e+02
2.629710e-09 -4.000010e+03 -4.000000e+02
-4.000000e+02 -3.600010e+03 -4.000000e+02
3.085780e-09 -3.600010e+03 -4.000000e+02
-4.000000e+02 -4.000010e+03 1.161090e-10
2.187060e-09 -4.000010e+03 2.073950e-10
-4.000000e+02 -3.600010e+03 5.895710e-10
3.500100e-09 -3.600010e+03 5.650950e-10
2.629710e-09 -4.000010e+03 -4.000000e+02
4.000000e+02 -4.000010e+03 -4.000000e+02
3.085780e-09 -3.600010e+03 -4.000000e+02
4.000000e+02 -3.600010e+03 -4.000000e+02
2.187060e-09 -4.000010e+03 2.073950e-10
4.000000e+02 -4.000010e+03 2.414500e-10
3.500100e-09 -3.600010e+03 5.650950e-10
4.000000e+02 -3.600010e+03 2.754040e-11
-4.000000e+02 -3.600010e+03 -4.000000e+02
3.085780e-09 -3.600010e+03 -4.000000e+02
-4.000000e+02 -3.200010e+03 -4.000000e+02
2.666780e-09 -3.200010e+03 -4.000000e+02
-4.000000e+02 -3.600010e+03 5.895710e-10
3.500100e-09 -3.600010e+03 5.650950e-10
-4.000000e+02 -3.200010e+03 1.103150e-09
2.874600e-09 -3.200010e+03 9.022240e-10
3.085780e-09 -3.600010e+03 -4.000000e+02
4.000000e+02 -3.600010e+03 -4.000000e+02
2.666780e-09 -3.200010e+03 -4.000000e+02
4.000000e+02 -3.200010e+03 -4.000000e+02
3.500100e-09 -3.600010e+03 5.650950e-10
4.000000e+02 -3.600010e+03 2.754040e-11
2.874600e-09 -3.200010e+03 9.022240e-10
4.000000e+02 -3.200010e+03 1.292070e-09
-4.000000e+02 -3.200010e+03 -4.000000e+02
2.666780e-09 -3.200010e+03 -4.000000e+02
-4.000000e+02 -2.800020e+03 -4.000000e+02
2.260640e-09 -2.800020e+03 -4.000000e+02
-4.000000e+02 -3.200010e+03 1.103150e-09
2.874600e-09 -3.200010e+03 9.022240e-10
-4.000000e+02 -2.800020e+03 7.509420e-10
2.129770e-09 -2.800020e+03 7.325190e-10
2.666780e-09 -3.200010e+03 -4.000000e+02
4.000000e+02 -3.200010e+03 -4.000000e+02
2.260640e-09 -2.800020e+03 -4.000000e+02
4.000000e+02 -2.800020e+03 -4.000000e+02
2.874600e-09 -3.200010e+03 9.022240e-10
4.000000e+02 -3.200010e+03 1.292070e-09
2.129770e-09 -2.800020e+03 7.325190e-10
4.000000e+02 -2.800020e+03 1.683250e-09
-4.000000e+02 -2.800020e+03 -4.000000e+02
2.260640e-09 -2.800020e+03 -4.000000e+02
-4.000000e+02 -2.400020e+03 -4.000000e+02
1.256370e-09 -2.400020e+03 -4.000000e+02
-4.000000e+02 -2.800020e+03 7.509420e-10
2.129770e-09 -2.800020e+03 7.325190e-10
-4.000000e+02 -2.400020e+03 7.767840e-10
1.764750e-09 -2.400020e+03 1.172090e-09
2.260640e-09 -2.800020e+03 -4.000000e+02
4.000000e+02 -2.800020e+03 -4.000000e+02
1.256370e-09 -2.400020e+03 -4.000000e+02
4.000000e+02 -2.400020e+03 -4.000000e+02
2.129770e-09 -2.800020e+03 7.325190e-10
4.000000e+02 -2.800020e+03 1.683250e-09
1.764750e-09 -2.400020e+03 1.172090e-09
4.000000e+02 -2.400020e+03 9.137270e-10
-4.000000e+02 -2.400020e+03 -4.000000e+02
1.256370e-09 -2.400020e+03 -4.000000e+02
-4.000000e+02 -2.000030e+03 -4.000000e+02
1.439430e-09 -2.000030e+03 -4.000000e+02
-4.000000e+02 -2.400020e+03 7.767840e-10
1.764750e-09 -2.400020e+03 1.172090e-09
-4.000000e+02 -2.000030e+03 7.583870e-10
9.501090e-10 -2.000030e+03 1.339190e-09
1.256370e-09 -2.400020e+03 -4.000000e+02
4.000000e+02 -2.400020e+03 -4.000000e+02
1.439430e-09 -2.000030e+03 -4.000000e+02
4.000000e+02 -2.000030e+03 -4.000000e+02
1.764750e-09 -2.400020e+03 1.172090e-09
4.000000e+02 -2.400020e+03 9.137270e-10
9.501090e-10 -2.000030e+03 1.339190e-09
4.000000e+02 -2.000030e+03 1.918140e-09
-4.000000e+02 -2.000030e+03 -4.000000e+02
1.439430e-09 -2.000030e+03 -4.000000e+02
-4.000000e+02 -1.600040e+03 -4.000000e+02
2.053960e-09 -1.600040e+03 -4.000000e+02
-4.000000e+02 -2.000030e+03 7.583870e-10
9.501090e-10 -2.000030e+03 1.339190e-09
-4.000000e+02 -1.600040e+03 1.379890e-09
1.663030e-09 -1.600040e+03 1.874480e-09
1.439430e-09 -2.000030e+03 -4.000000e+02
4.000000e+02 -2.000030e+03 -4.000000e+02
2.053960e-09 -1.600040e+03 -4.000000e+02
4.000000e+02 -1.600040e+03 -4.000000e+02
9.501090e-10 -2.000030e+03 1.339190e-09
4.000000e+02 -2.000030e+03 1.918140e-09
1.663030e-09 -1.600040e+03 1.874480e-09
4.000000e+02 -1.600040e+03 2.428450e-09
-4.000000e+02 -1.600040e+03 -4.000000e+02
2.053960e-09 -1.600040e+03 -4.000000e+02
-4.000000e+02 -1.200060e+03 -4.000000e+02
1.309460e-09 -1.200060e+03 -4.000000e+02
-4.000000e+02 -1.600040e+03 1.379890e-09
1.663030e-09 -1.600040e+03 1.874480e-09
-4.000000e+02 -1.200060e+03 8.330030e-10
1.871260e-09 -1.200060e+03 1.364320e-09
2.053960e-09 -1.600040e+03 -4.000000e+02
4.000000e+02 -1.600040e+03 -4.000000e+02
1.309460e-09 -1.200060e+03 -4.000000e+02
4.000000e+02 -1.200060e+03 -4.000000e+02
1.663030e-09 -1.600040e+03 1.874480e-09
4.000000e+02 -1.600040e+03 2.428450e-09
1.871260e-09 -1.200060e+03 1.364320e-09
4.000000e+02 -1.200060e+03 1.840390e-09
-4.000000e+02 -1.200060e+03 -4.000000e+02
1.309460e-09 -1.200060e+03 -4.000000e+02
-4.000000e+02 -8.000900e+02 -4.000000e+02
9.164380e-10 -8.000900e+02 -4.000000e+02
-4.000000e+02 -1.200060e+03 8.330030e-10
1.871260e-09 -1.200060e+03 1.364320e-09
-4.000000e+02 -8.000900e+02 1.785560e-09
7.779410e-10 -8.000900e+02 8.730360e-10
1.309460e-09 -1.200060e+03 -4.000000e+02
4.000000e+02 -1.200060e+03 -4.000000e+02
9.164380e-10 -8.000900e+02 -4.000000e+02
4.000000e+02 -8.000900e+02 -4.000000e+02
1.871260e-09 -1.200060e+03 1.364320e-09
4.000000e+02 -1.200060e+03 1.840390e-09
7.779410e-10 -8.000900e+02 8.730360e-10
4.000000e+02 -8.000900e+02 1.194110e-09
-4.000000e+02 -8.000900e+02 -4.000000e+02
9.164380e-10 -8.000900e+02 -4.000000e+02
-4.000000e+02 -4.001400e+02 -4.000000e+02
8.681540e-10 -4.001400e+02 -4.000000e+02
-4.000000e+02 -8.000900e+02 1.785560e-09
7.779410e-10 -8.000900e+02 8.730360e-10
-4.000000e+02 -4.001400e+02 1.000380e-09
4.396360e-10 -4.001400e+02 7.480970e-10
9.164380e-10 -8.000900e+02 -4.000000e+02
4.000000e+02 -8.000900e+02 -4.000000e+02
8.681540e-10 -4.001400e+02 -4.000000e+02
4.000000e+02 -4.001400e+02 -4.000000e+02
7.779410e-10 -8.000900e+02 8.730360e-10
4.000000e+02 -8.000900e+02 1.194110e-09
4.396360e-10 -4.001400e+02 7.480970e-10
4.000000e+02 -4.001400e+02 3.074610e-10
-4.000000e+02 -4.001400e+02 -4.000000e+02
8.681540e-10 -4.001400e+02 -4.000000e+02
-4.000000e+02 -2.038990e-01 -4.000000e+02
1.226130e-09 -2.038990e-01 -4.000000e+02
-4.000000e+02 -4.001400e+02 1.000380e-09
4.396360e-10 -4.001400e+02 7.480970e-10
-4.000000e+02 -2.038990e-01 1.189270e-10
1.610190e-09 -2.038990e-01 7.120180e-10
8.681540e-10 -4.001400e+02 -4.000000e+02
4.000000e+02 -4.001400e+02 -4.000000e+02
1.226130e-09 -2.038990e-01 -4.000000e+02
4.000000e+02 -2.038990e-01 -4.000000e+02
4.396360e-10 -4.001400e+02 7.480970e-10
[...]
<PointData>
<DataArray type="Float32" Name="V1" format="ascii">
0.000000e+00
0.000000e+00
-4.713380e-10
-6.610890e-11
0.000000e+00
0.000000e+00
-4.713380e-11
-1.405300e-11
0.000000e+00
0.000000e+00
-6.610890e-11
2.372400e-09
0.000000e+00
0.000000e+00
-1.405300e-11
5.970280e-10
-4.713380e-10
-6.610890e-11
-1.256900e-10
2.243900e-10
-4.713380e-11
-1.405300e-11
2.199580e-10
4.657780e-10
-6.610890e-11
2.372400e-09
2.243900e-10
2.670910e-10
-1.405300e-11
5.970280e-10
4.657780e-10
1.052650e-09
-1.256900e-10
2.243900e-10
1.351170e-09
6.259110e-10
2.199580e-10
4.657780e-10
1.916770e-09
3.164080e-10
2.243900e-10
2.670910e-10
6.259110e-10
-2.152440e-09
4.657780e-10
1.052650e-09
3.164080e-10
-2.199580e-10
1.351170e-09
6.259110e-10
-7.541400e-10
-2.425750e-10
1.916770e-09
3.164080e-10
-1.099790e-10
1.122640e-10
6.259110e-10
-2.152440e-09
-2.425750e-10
-1.099790e-10
3.164080e-10
-2.199580e-10
1.122640e-10
6.912950e-10
-7.541400e-10
-2.425750e-10
1.304030e-09
2.864440e-10
-1.099790e-10
1.122640e-10
1.681100e-09
-2.765520e-10
-2.425750e-10
-1.099790e-10
2.864440e-10
0.000000e+00
1.122640e-10
6.912950e-10
-2.765520e-10
-4.399150e-10
1.304030e-09
2.864440e-10
-9.426750e-11
1.653180e-10
1.681100e-09
-2.765520e-10
-3.299360e-10
-3.774910e-10
2.864440e-10
0.000000e+00
1.653180e-10
3.456480e-10
-2.765520e-10
-4.399150e-10
-3.774910e-10
-9.426750e-11
-9.426750e-11
1.653180e-10
2.670910e-10
-1.765950e-10
-3.299360e-10
-3.774910e-10
-2.356690e-10
1.049290e-10
1.653180e-10
3.456480e-10
-1.765950e-10
-7.070060e-10
-3.774910e-10
-9.426750e-11
1.049290e-10
-3.142250e-11
2.670910e-10
-1.765950e-10
4.084930e-10
-4.295730e-10
-2.356690e-10
1.049290e-10
-1.115500e-09
-9.314470e-10
-1.765950e-10
-7.070060e-10
-4.295730e-10
-2.058170e-09
1.049290e-10
-3.142250e-11
-9.314470e-10
-1.571130e-10
4.084930e-10
-4.295730e-10
-5.656050e-10
-1.237840e-10
-1.115500e-09
-9.314470e-10
1.885350e-10
1.162710e-09
-4.295730e-10
-2.058170e-09
-1.237840e-10
1.414010e-09
-9.314470e-10
-1.571130e-10
1.162710e-09
-1.256900e-10
-5.656050e-10
-1.237840e-10
-3.456480e-10
-1.119680e-09
1.885350e-10
1.162710e-09
-4.084930e-10
1.531980e-10
-1.237840e-10
1.414010e-09
-1.119680e-09
-8.955420e-10
1.162710e-09
-1.256900e-10
1.531980e-10
-3.770700e-10
-3.456480e-10
-1.119680e-09
1.932480e-09
7.330740e-10
-4.084930e-10
1.531980e-10
-7.855630e-10
-5.747910e-10
-1.119680e-09
-8.955420e-10
7.330740e-10
-6.912950e-10
1.531980e-10
-3.770700e-10
-5.747910e-10
2.042460e-10
1.932480e-09
7.330740e-10
8.326970e-10
4.639280e-10
-7.855630e-10
-5.747910e-10
2.513800e-10
-6.913600e-10
7.330740e-10
-6.912950e-10
4.639280e-10
2.042460e-10
-5.747910e-10
2.042460e-10
-6.913600e-10
3.299360e-10
8.326970e-10
4.639280e-10
-1.775370e-09
-4.472140e-10
2.513800e-10
-6.913600e-10
5.341830e-10
9.954530e-10
4.639280e-10
2.042460e-10
-4.472140e-10
-2.199580e-10
-6.913600e-10
3.299360e-10
9.954530e-10
-6.284500e-11
-1.775370e-09
-4.472140e-10
8.641190e-10
1.863470e-09
5.341830e-10
9.954530e-10
-1.256900e-09
1.465900e-10
-4.472140e-10
-2.199580e-10
1.863470e-09
1.461150e-09
9.954530e-10
-6.284500e-11
1.465900e-10
4.870490e-10
8.641190e-10
1.863470e-09
-1.665390e-09
-2.137610e-09
-1.256900e-09
1.465900e-10
-1.649680e-09
-5.719590e-10
1.863470e-09
1.461150e-09
-2.137610e-09
-3.283650e-09
1.465900e-10
4.870490e-10
-5.719590e-10
1.256900e-10
-1.665390e-09
-2.137610e-09
-3.205100e-09
2.481700e-09
-1.649680e-09
-5.719590e-10
4.210620e-09
-6.003570e-10
-2.137610e-09
-3.283650e-09
2.481700e-09
9.913800e-09
-5.719590e-10
1.256900e-10
-6.003570e-10
-6.520170e-09
-3.205100e-09
2.481700e-09
1.431300e-08
1.488420e-09
4.210620e-09
-6.003570e-10
-1.348030e-08
5.743340e-10
2.481700e-09
9.913800e-09
1.488420e-09
-1.241190e-08
-6.003570e-10
-6.520170e-09
5.743340e-10
1.464290e-08
1.431300e-08
1.488420e-09
-2.520090e-08
-9.291570e-09
-1.348030e-08
5.743340e-10
1.830360e-08
2.768110e-09
1.488420e-09
-1.241190e-08
-9.291570e-09
7.352870e-09
5.743340e-10
1.464290e-08
2.768110e-09
-1.234900e-08
-2.520090e-08
-9.291570e-09
9.882380e-09
3.157920e-09
1.830360e-08
2.768110e-09
2.639490e-09
-6.362150e-10
-9.291570e-09
7.352870e-09
3.157920e-09
-5.278980e-09
2.768110e-09
-1.234900e-08
-6.362150e-10
-3.220810e-09
9.882380e-09
3.157920e-09
-5.654480e-08
-4.129310e-09
2.639490e-09
-6.362150e-10
3.399920e-08
-3.700360e-09
3.157920e-09
-5.278980e-09
-4.129310e-09
4.820210e-08
-6.362150e-10
-3.220810e-09
-3.700360e-09
-4.176050e-08
-5.654480e-08
-4.129310e-09
4.282890e-08
9.530650e-09
3.399920e-08
-3.700360e-09
-2.193290e-08
1.688670e-09
-4.129310e-09
4.820210e-08
9.530650e-09
-2.356690e-08
-3.700360e-09
-4.176050e-08
1.688670e-09
2.532650e-08
4.282890e-08
9.530650e-09
4.375580e-08
4.757850e-09
-2.193290e-08
1.688670e-09
-2.568790e-08
2.025430e-09
9.530650e-09
-2.356690e-08
4.757850e-09
-3.410910e-08
1.688670e-09
2.532650e-08
2.025430e-09
2.977280e-08
4.375580e-08
4.757850e-09
-4.537410e-08
-7.938930e-09
-2.568790e-08
2.025430e-09
2.073890e-08
-1.521790e-09
4.757850e-09
-3.410910e-08
-7.938930e-09
2.945860e-08
2.025430e-09
2.977280e-08
-1.521790e-09
-2.373970e-08
-4.537410e-08
-7.938930e-09
-5.467520e-09
-1.438400e-09
2.073890e-08
-1.521790e-09
-1.099790e-09
3.182390e-10
-7.938930e-09
2.945860e-08
-1.438400e-09
2.592360e-09
-1.521790e-09
-2.373970e-08
3.182390e-10
1.775370e-09
-5.467520e-09
-1.438400e-09
4.870490e-10
-4.341320e-10
-1.099790e-09
3.182390e-10
-1.005520e-09
-7.523010e-10
-1.438400e-09
2.592360e-09
-4.341320e-10
-1.508280e-09
3.182390e-10
1.775370e-09
-7.523010e-10
-5.656050e-10
4.870490e-10
-4.341320e-10
4.870490e-09
1.354980e-09
-1.005520e-09
-7.523010e-10
2.985140e-10
3.649850e-10
-4.341320e-10
-1.508280e-09
1.354980e-09
-2.199580e-09
-7.523010e-10
-5.656050e-10
3.649850e-10
4.556260e-10
4.870490e-09
1.354980e-09
5.027600e-10
6.035710e-10
2.985140e-10
3.649850e-10
0.000000e+00
5.033080e-10
1.354980e-09
-2.199580e-09
6.035710e-10
6.912950e-10
3.649850e-10
4.556260e-10
5.033080e-10
9.740980e-10
5.027600e-10
6.035710e-10
9.426750e-11
5.211690e-11
0.000000e+00
5.033080e-10
1.099790e-10
7.639790e-11
6.035710e-10
6.912950e-10
5.211690e-11
0.000000e+00
5.033080e-10
9.740980e-10
7.639790e-11
0.000000e+00
9.426750e-11
5.211690e-11
0.000000e+00
-8.675840e-11
1.099790e-10
7.639790e-11
0.000000e+00
-9.056610e-11
5.211690e-11
0.000000e+00
-8.675840e-11
-1.414010e-10
7.639790e-11
0.000000e+00
-9.056610e-11
-1.414010e-10
0.000000e+00
-8.675840e-11
0.000000e+00
-3.358750e-11
0.000000e+00
-9.056610e-11
0.000000e+00
-3.214510e-11
-8.675840e-11
-1.414010e-10
-3.358750e-11
-7.855630e-11
-9.056610e-11
-1.414010e-10
-3.214510e-11
-4.713380e-11
0.000000e+00
0.000000e+00
-4.713380e-11
-1.405300e-11
0.000000e+00
0.000000e+00
-1.209770e-09
-2.590100e-10
0.000000e+00
0.000000e+00
-1.405300e-11
5.970280e-10
0.000000e+00
0.000000e+00
-2.590100e-10
3.613590e-10
-4.713380e-11
-1.405300e-11
2.199580e-10
4.657780e-10
-1.209770e-09
-2.590100e-10
6.284500e-11
-5.564530e-10
-1.405300e-11
5.970280e-10
4.657780e-10
1.052650e-09
-2.590100e-10
3.613590e-10
-5.564530e-10
-3.063690e-09
2.199580e-10
4.657780e-10
1.916770e-09
3.164080e-10
6.284500e-11
-5.564530e-10
3.613590e-10
6.222220e-10
4.657780e-10
1.052650e-09
3.164080e-10
-2.199580e-10
-5.564530e-10
-3.063690e-09
6.222220e-10
-9.583870e-10
1.916770e-09
3.164080e-10
-1.099790e-10
1.122640e-10
3.613590e-10
6.222220e-10
1.539700e-09
-1.597600e-10
3.164080e-10
-2.199580e-10
1.122640e-10
6.912950e-10
6.222220e-10
-9.583870e-10
-1.597600e-10
-2.812310e-09
-1.099790e-10
1.122640e-10
1.681100e-09
-2.765520e-10
1.539700e-09
-1.597600e-10
-6.441610e-10
9.648310e-11
1.122640e-10
6.912950e-10
-2.765520e-10
-4.399150e-10
-1.597600e-10
-2.812310e-09
9.648310e-11
8.955420e-10
1.681100e-09
-2.765520e-10
-3.299360e-10
-3.774910e-10
-6.441610e-10
9.648310e-11
-1.523990e-09
1.877130e-10
-2.765520e-10
-4.399150e-10
-3.774910e-10
-9.426750e-11
9.648310e-11
8.955420e-10
1.877130e-10
1.712530e-09
-3.299360e-10
-3.774910e-10
-2.356690e-10
1.049290e-10
-1.523990e-09
1.877130e-10
-1.979620e-09
-2.813870e-10
-3.774910e-10
-9.426750e-11
1.049290e-10
-3.142250e-11
1.877130e-10
1.712530e-09
-2.813870e-10
-1.225480e-09
-2.356690e-10
1.049290e-10
-1.115500e-09
-9.314470e-10
-1.979620e-09
-2.813870e-10
4.713380e-10
1.001640e-09
1.049290e-10
-3.142250e-11
-9.314470e-10
-1.571130e-10
-2.813870e-10
-1.225480e-09
1.001640e-09
1.555410e-09
-1.115500e-09
-9.314470e-10
1.885350e-10
1.162710e-09
4.713380e-10
1.001640e-09
-9.740980e-10
6.998630e-10
-9.314470e-10
-1.571130e-10
1.162710e-09
-1.256900e-10
1.001640e-09
1.555410e-09
6.998630e-10
1.084080e-09
1.885350e-10
1.162710e-09
-4.084930e-10
1.531980e-10
-9.740980e-10
6.998630e-10
-9.740980e-10
-8.445100e-10
1.162710e-09
-1.256900e-10
1.531980e-10
-3.770700e-10
6.998630e-10
1.084080e-09
-8.445100e-10
3.456480e-10
-4.084930e-10
1.531980e-10
-7.855630e-10
-5.747910e-10
-9.740980e-10
-8.445100e-10
5.498940e-10
6.567070e-10
1.531980e-10
-3.770700e-10
-5.747910e-10
2.042460e-10
-8.445100e-10
3.456480e-10
6.567070e-10
4.556260e-10
-7.855630e-10
-5.747910e-10
2.513800e-10
-6.913600e-10
5.498940e-10
6.567070e-10
2.545220e-09
1.051280e-09
-5.747910e-10
2.042460e-10
-6.913600e-10
3.299360e-10
6.567070e-10
4.556260e-10
1.051280e-09
3.927810e-10
2.513800e-10
-6.913600e-10
5.341830e-10
9.954530e-10
2.545220e-09
1.051280e-09
3.299360e-10
1.014470e-09
-6.913600e-10
3.299360e-10
9.954530e-10
-6.284500e-11
1.051280e-09
3.927810e-10
1.014470e-09
1.256900e-09
5.341830e-10
9.954530e-10
-1.256900e-09
1.465900e-10
3.299360e-10
1.014470e-09
9.583870e-10
1.943820e-10
9.954530e-10
-6.284500e-11
1.465900e-10
4.870490e-10
1.014470e-09
1.256900e-09
1.943820e-10
-6.441610e-10
-1.256900e-09
1.465900e-10
-1.649680e-09
-5.719590e-10
9.583870e-10
1.943820e-10
-2.356690e-10
1.335160e-09
1.465900e-10
4.870490e-10
-5.719590e-10
1.256900e-10
1.943820e-10
-6.441610e-10
1.335160e-09
1.099790e-09
-1.649680e-09
-5.719590e-10
4.210620e-09
-6.003570e-10
-2.356690e-10
1.335160e-09
-8.468370e-09
-2.765530e-09
-5.719590e-10
1.256900e-10
-6.003570e-10
-6.520170e-09
1.335160e-09
1.099790e-09
-2.765530e-09
2.089600e-09
4.210620e-09
-6.003570e-10
-1.348030e-08
5.743340e-10
-8.468370e-09
-2.765530e-09
1.511420e-08
1.982040e-09
-6.003570e-10
-6.520170e-09
5.743340e-10
1.464290e-08
-2.765530e-09
2.089600e-09
1.982040e-09
-1.219190e-08
-1.348030e-08
5.743340e-10
1.830360e-08
2.768110e-09
1.511420e-08
1.982040e-09
-1.324460e-08
8.198890e-09
5.743340e-10
1.464290e-08
2.768110e-09
-1.234900e-08
1.982040e-09
-1.219190e-08
8.198890e-09
2.829600e-08
1.830360e-08
2.768110e-09
2.639490e-09
-6.362150e-10
-1.324460e-08
8.198890e-09
-1.681100e-09
-5.683260e-09
2.768110e-09
-1.234900e-08
-6.362150e-10
-3.220810e-09
8.198890e-09
2.829600e-08
-5.683260e-09
-9.929510e-09
2.639490e-09
-6.362150e-10
3.399920e-08
-3.700360e-09
-1.681100e-09
-5.683260e-09
-3.082550e-08
8.313830e-10
-6.362150e-10
-3.220810e-09
-3.700360e-09
-4.176050e-08
-5.683260e-09
-9.929510e-09
8.313830e-10
3.222380e-08
3.399920e-08
-3.700360e-09
-2.193290e-08
1.688670e-09
-3.082550e-08
8.313830e-10
9.143950e-09
-8.674130e-09
-3.700360e-09
-4.176050e-08
1.688670e-09
2.532650e-08
8.313830e-10
3.222380e-08
-8.674130e-09
-2.666200e-08
-2.193290e-08
1.688670e-09
-2.568790e-08
2.025430e-09
9.143950e-09
-8.674130e-09
2.188580e-08
-3.644760e-09
1.688670e-09
2.532650e-08
2.025430e-09
2.977280e-08
-8.674130e-09
-2.666200e-08
-3.644760e-09
-2.919150e-08
-2.568790e-08
2.025430e-09
2.073890e-08
-1.521790e-09
2.188580e-08
-3.644760e-09
-8.499790e-09
8.495480e-09
2.025430e-09
2.977280e-08
-1.521790e-09
-2.373970e-08
-3.644760e-09
-2.919150e-08
8.495480e-09
2.564080e-08
2.073890e-08
-1.521790e-09
-1.099790e-09
3.182390e-10
-8.499790e-09
8.495480e-09
-2.403820e-09
2.092630e-09
-1.521790e-09
-2.373970e-08
3.182390e-10
1.775370e-09
8.495480e-09
2.564080e-08
2.092630e-09
6.692990e-09
-1.099790e-09
3.182390e-10
-1.005520e-09
-7.523010e-10
-2.403820e-09
2.092630e-09
2.356690e-10
-1.019560e-09
3.182390e-10
1.775370e-09
-7.523010e-10
-5.656050e-10
2.092630e-09
6.692990e-09
-1.019560e-09
-2.278130e-09
-1.005520e-09
-7.523010e-10
2.985140e-10
3.649850e-10
2.356690e-10
-1.019560e-09
1.571130e-09
-1.123270e-09
-7.523010e-10
-5.656050e-10
3.649850e-10
4.556260e-10
-1.019560e-09
-2.278130e-09
-1.123270e-09
-3.849260e-09
2.985140e-10
3.649850e-10
0.000000e+00
5.033080e-10
1.571130e-09
-1.123270e-09
-4.870490e-10
3.817660e-10
3.649850e-10
4.556260e-10
5.033080e-10
9.740980e-10
-1.123270e-09
-3.849260e-09
3.817660e-10
1.209770e-09
0.000000e+00
5.033080e-10
1.099790e-10
7.639790e-11
-4.870490e-10
3.817660e-10
-4.713380e-11
5.564270e-11
5.033080e-10
9.740980e-10
7.639790e-11
0.000000e+00
3.817660e-10
1.209770e-09
5.564270e-11
1.571130e-10
1.099790e-10
7.639790e-11
0.000000e+00
-9.056610e-11
-4.713380e-11
5.564270e-11
0.000000e+00
-8.835920e-11
7.639790e-11
0.000000e+00
-9.056610e-11
-1.414010e-10
5.564270e-11
1.571130e-10
-8.835920e-11
-1.728240e-10
0.000000e+00
-9.056610e-11
0.000000e+00
-3.214510e-11
0.000000e+00
-8.835920e-11
0.000000e+00
-3.271830e-11
-9.056610e-11
-1.414010e-10
-3.214510e-11
-4.713380e-11
-8.835920e-11
-1.728240e-10
-3.271830e-11
-6.284500e-11
</DataArray>
<DataArray type="Float32" Name="V2" format="ascii">
0.000000e+00
0.000000e+00
-1.553580e-04
-1.553600e-04
0.000000e+00
0.000000e+00
-1.553630e-04
-1.553610e-04
0.000000e+00
0.000000e+00
-1.553600e-04
-1.553590e-04
0.000000e+00
0.000000e+00
-1.553610e-04
-1.553630e-04
-1.553580e-04
-1.553600e-04
1.812850e-04
1.812890e-04
-1.553630e-04
-1.553610e-04
1.812870e-04
1.812890e-04
-1.553600e-04
-1.553590e-04
1.812890e-04
1.812840e-04
-1.553610e-04
-1.553630e-04
1.812890e-04
1.812870e-04
1.812850e-04
1.812890e-04
2.491620e-04
2.491650e-04
1.812870e-04
1.812890e-04
2.491680e-04
2.491630e-04
1.812890e-04
1.812840e-04
2.491650e-04
2.491660e-04
1.812890e-04
1.812870e-04
2.491630e-04
2.491620e-04
2.491620e-04
2.491650e-04
5.516570e-04
5.516590e-04
2.491680e-04
2.491630e-04
5.516580e-04
5.516560e-04
2.491650e-04
2.491660e-04
5.516590e-04
5.516520e-04
2.491630e-04
2.491620e-04
5.516560e-04
5.516590e-04
5.516570e-04
5.516590e-04
1.591310e-04
1.591280e-04
5.516580e-04
5.516560e-04
1.591320e-04
1.591270e-04
5.516590e-04
5.516520e-04
1.591280e-04
1.591300e-04
5.516560e-04
5.516590e-04
1.591270e-04
1.591310e-04
1.591310e-04
1.591280e-04
9.078630e-04
9.078600e-04
1.591320e-04
1.591270e-04
9.078650e-04
9.078630e-04
1.591280e-04
1.591300e-04
9.078600e-04
9.078620e-04
1.591270e-04
1.591310e-04
9.078630e-04
9.078630e-04
9.078630e-04
9.078600e-04
9.987480e-04
9.987410e-04
9.078650e-04
9.078630e-04
9.987400e-04
9.987440e-04
9.078600e-04
9.078620e-04
9.987410e-04
9.987340e-04
9.078630e-04
9.078630e-04
9.987440e-04
9.987450e-04
9.987480e-04
9.987410e-04
2.001320e-03
2.001310e-03
9.987400e-04
9.987440e-04
2.001320e-03
2.001310e-03
9.987410e-04
9.987340e-04
2.001310e-03
2.001320e-03
9.987440e-04
9.987450e-04
2.001310e-03
2.001320e-03
2.001320e-03
2.001310e-03
2.347190e-03
2.347190e-03
2.001320e-03
2.001310e-03
2.347190e-03
2.347190e-03
2.001310e-03
2.001320e-03
2.347190e-03
2.347200e-03
2.001310e-03
2.001320e-03
2.347190e-03
2.347190e-03
2.347190e-03
2.347190e-03
4.779360e-03
4.779360e-03
2.347190e-03
2.347190e-03
4.779370e-03
4.779360e-03
2.347190e-03
2.347200e-03
4.779360e-03
4.779360e-03
2.347190e-03
2.347190e-03
4.779360e-03
4.779360e-03
4.779360e-03
4.779360e-03
9.835750e-03
9.835750e-03
4.779370e-03
4.779360e-03
9.835750e-03
9.835750e-03
4.779360e-03
4.779360e-03
9.835750e-03
9.835750e-03
4.779360e-03
4.779360e-03
9.835750e-03
9.835750e-03
9.835750e-03
9.835750e-03
1.715040e-02
1.715040e-02
9.835750e-03
9.835750e-03
1.715040e-02
1.715040e-02
9.835750e-03
9.835750e-03
1.715040e-02
1.715040e-02
9.835750e-03
9.835750e-03
1.715040e-02
1.715040e-02
1.715040e-02
1.715040e-02
2.794870e-02
2.794870e-02
1.715040e-02
1.715040e-02
2.794870e-02
2.794870e-02
1.715040e-02
1.715040e-02
2.794870e-02
2.794870e-02
1.715040e-02
1.715040e-02
2.794870e-02
2.794870e-02
2.794870e-02
2.794870e-02
3.981950e-02
3.981950e-02
2.794870e-02
2.794870e-02
3.981950e-02
3.981950e-02
2.794870e-02
2.794870e-02
3.981950e-02
3.981950e-02
2.794870e-02
2.794870e-02
3.981950e-02
3.981950e-02
3.981950e-02
3.981950e-02
4.795880e-02
4.795880e-02
3.981950e-02
3.981950e-02
4.795880e-02
4.795880e-02
3.981950e-02
3.981950e-02
4.795880e-02
4.795880e-02
3.981950e-02
3.981950e-02
4.795880e-02
4.795880e-02
4.795880e-02
4.795880e-02
4.109630e-02
4.109630e-02
4.795880e-02
4.795880e-02
4.109630e-02
4.109640e-02
4.795880e-02
4.795880e-02
4.109630e-02
4.109630e-02
4.795880e-02
4.795880e-02
4.109640e-02
4.109640e-02
4.109630e-02
4.109630e-02
1.975100e-02
1.975100e-02
4.109630e-02
4.109640e-02
1.975100e-02
1.975100e-02
4.109630e-02
4.109630e-02
1.975100e-02
1.975100e-02
4.109640e-02
4.109640e-02
1.975100e-02
1.975100e-02
1.975100e-02
1.975100e-02
-7.397250e-03
-7.397290e-03
1.975100e-02
1.975100e-02
-7.397320e-03
-7.397260e-03
1.975100e-02
1.975100e-02
-7.397290e-03
-7.397250e-03
1.975100e-02
1.975100e-02
-7.397260e-03
-7.397330e-03
-7.397250e-03
-7.397290e-03
-2.576890e-02
-2.576870e-02
-7.397320e-03
-7.397260e-03
-2.576870e-02
-2.576880e-02
-7.397290e-03
-7.397250e-03
-2.576870e-02
-2.576880e-02
-7.397260e-03
-7.397330e-03
-2.576880e-02
-2.576870e-02
-2.576890e-02
-2.576870e-02
-1.508570e-02
-1.508600e-02
-2.576870e-02
-2.576880e-02
-1.508590e-02
-1.508570e-02
-2.576870e-02
-2.576880e-02
-1.508600e-02
-1.508570e-02
-2.576880e-02
-2.576870e-02
-1.508570e-02
-1.508590e-02
-1.508570e-02
-1.508600e-02
8.352680e-03
8.352210e-03
-1.508590e-02
-1.508570e-02
8.352340e-03
8.352580e-03
-1.508600e-02
-1.508570e-02
8.352210e-03
8.352540e-03
-1.508570e-02
-1.508590e-02
8.352580e-03
8.352310e-03
8.352680e-03
8.352210e-03
1.469820e-02
1.469880e-02
8.352340e-03
8.352580e-03
1.469850e-02
1.469830e-02
8.352210e-03
8.352540e-03
1.469880e-02
1.469830e-02
8.352580e-03
8.352310e-03
1.469830e-02
1.469860e-02
1.469820e-02
1.469880e-02
-2.721240e-03
-2.721260e-03
1.469850e-02
1.469830e-02
-2.721180e-03
-2.721190e-03
1.469880e-02
1.469830e-02
-2.721260e-03
-2.721180e-03
1.469830e-02
1.469860e-02
-2.721190e-03
-2.721180e-03
-2.721240e-03
-2.721260e-03
-7.705350e-03
-7.705240e-03
-2.721180e-03
-2.721190e-03
-7.705310e-03
-7.705350e-03
-2.721260e-03
-2.721180e-03
-7.705240e-03
-7.705330e-03
-2.721190e-03
-2.721180e-03
-7.705350e-03
-7.705320e-03
-7.705350e-03
-7.705240e-03
1.582730e-03
1.582650e-03
-7.705310e-03
-7.705350e-03
1.582700e-03
1.582720e-03
-7.705240e-03
-7.705330e-03
1.582650e-03
1.582700e-03
-7.705350e-03
-7.705320e-03
1.582720e-03
1.582690e-03
1.582730e-03
1.582650e-03
3.079740e-03
3.079710e-03
1.582700e-03
1.582720e-03
3.079710e-03
3.079720e-03
1.582650e-03
1.582700e-03
3.079710e-03
3.079720e-03
1.582720e-03
1.582690e-03
3.079720e-03
3.079710e-03
3.079740e-03
3.079710e-03
-3.270180e-04
-3.270210e-04
3.079710e-03
3.079720e-03
-3.270060e-04
-3.270020e-04
3.079710e-03
3.079720e-03
-3.270210e-04
-3.270150e-04
3.079720e-03
3.079710e-03
-3.270020e-04
-3.270080e-04
-3.270180e-04
-3.270210e-04
-1.932600e-04
-1.932590e-04
-3.270060e-04
-3.270020e-04
-1.932630e-04
-1.932620e-04
-3.270210e-04
-3.270150e-04
-1.932590e-04
-1.932580e-04
-3.270020e-04
-3.270080e-04
-1.932620e-04
-1.932600e-04
-1.932600e-04
-1.932590e-04
4.237660e-05
4.237730e-05
-1.932630e-04
-1.932620e-04
4.237610e-05
4.237640e-05
-1.932590e-04
-1.932580e-04
4.237730e-05
4.237690e-05
-1.932620e-04
-1.932600e-04
4.237640e-05
4.237690e-05
4.237660e-05
4.237730e-05
-4.596120e-05
-4.596200e-05
4.237610e-05
4.237640e-05
-4.596130e-05
-4.596180e-05
4.237730e-05
4.237690e-05
-4.596200e-05
-4.596200e-05
4.237640e-05
4.237690e-05
-4.596180e-05
-4.596220e-05
0.000000e+00
0.000000e+00
-1.553630e-04
-1.553610e-04
0.000000e+00
0.000000e+00
-1.553550e-04
-1.553620e-04
0.000000e+00
0.000000e+00
-1.553610e-04
-1.553630e-04
0.000000e+00
0.000000e+00
-1.553620e-04
-1.553570e-04
-1.553630e-04
-1.553610e-04
1.812870e-04
1.812890e-04
-1.553550e-04
-1.553620e-04
1.812850e-04
1.812880e-04
-1.553610e-04
-1.553630e-04
1.812890e-04
1.812870e-04
-1.553620e-04
-1.553570e-04
1.812880e-04
1.812840e-04
1.812870e-04
1.812890e-04
2.491680e-04
2.491630e-04
1.812850e-04
1.812880e-04
2.491580e-04
2.491680e-04
1.812890e-04
1.812870e-04