<?xml version="1.0"?>
<!-- time 33.5204-->
<VTKFile type="UnstructuredGrid" version="0.1" byte_order="LittleEndian">
<UnstructuredGrid>
<Piece NumberOfPoints="3240" NumberOfCells="0">
<Points>
  <DataArray type="Float32" Name="Position" NumberOfComponents="3" format="ascii">
	-333.333 2066.67 -333.333
	-333.333 2066.67 -200
	-333.333 2066.67 -66.6667
	-333.333 2066.67 66.6667
	-333.333 2066.67 200
	-333.333 2066.67 333.333
	-200 2066.67 -333.333
	-200 2066.67 -200
	-200 2066.67 -66.6667
	-200 2066.67 66.6667
	-200 2066.67 200
	-200 2066.67 333.333
	-66.6667 2066.67 -333.333
	-66.6667 2066.67 -200
	-66.6667 2066.67 -66.6667
	-66.6667 2066.67 66.6667
	-66.6667 2066.67 200
	-66.6667 2066.67 333.333
	66.6667 2066.67 -333.333
	66.6667 2066.67 -200
	66.6667 2066.67 -66.6667
	66.6667 2066.67 66.6667
	66.6667 2066.67 200
	66.6667 2066.67 333.333
	200 2066.67 -333.333
	200 2066.67 -200
	200 2066.67 -66.6667
	200 2066.67 66.6667
	200 2066.67 200
	200 2066.67 333.333
	333.333 2066.67 -333.333
	333.333 2066.67 -200
	333.333 2066.67 -66.6667
	333.333 2066.67 66.6667
	333.333 2066.67 200
	333.333 2066.67 333.333
	-333.333 2200 -333.333
	-333.333 2200 -200
	-333.333 2200 -66.6667
	-333.333 2200 66.6667
	-333.333 2200 200
	-333.333 2200 333.333
	-200 2200 -333.333
	-200 2200 -200
	-200 2200 -66.6667
	-200 2200 66.6667
	-200 2200 200
	-200 2200 333.333
	-66.6667 2200 -333.333
	-66.6667 2200 -200
	-66.6667 2200 -66.6667
	-66.6667 2200 66.6667
	-66.6667 2200 200
	-66.6667 2200 333.333
	66.6667 2200 -333.333
	66.6667 2200 -200
	66.6667 2200 -66.6667
	66.6667 2200 66.6667
	66.6667 2200 200
	66.6667 2200 333.333
	200 2200 -333.333
	200 2200 -200
	200 2200 -66.6667
	200 2200 66.6667
	200 2200 200
	200 2200 333.333
	333.333 2200 -333.333
	333.333 2200 -200
	333.333 2200 -66.6667
	333.333 2200 66.6667
	333.333 2200 200
	333.333 2200 333.333
	-333.333 2333.33 -333.333
	-333.333 2333.33 -200
	-333.333 2333.33 -66.6667
	-333.333 2333.33 66.6667
	-333.333 2333.33 200
	-333.333 2333.33 333.333
	-200 2333.33 -333.333
	-200 2333.33 -200
	-200 2333.33 -66.6667
	-200 2333.33 66.6667
	-200 2333.33 200
	-200 2333.33 333.333
	-66.6667 2333.33 -333.333
	-66.6667 2333.33 -200
	-66.6667 2333.33 -66.6667
	-66.6667 2333.33 66.6667
	-66.6667 2333.33 200
	-66.6667 2333.33 333.333
	66.6667 2333.33 -333.333
	66.6667 2333.33 -200
	66.6667 2333.33 -66.6667
	66.6667 2333.33 66.6667
	66.6667 2333.33 200
	66.6667 2333.33 333.333
	200 2333.33 -333.333
	200 2333.33 -200
	200 2333.33 -66.6667
	200 2333.33 66.6667
	200 2333.33 200
	200 2333.33 333.333
	333.333 2333.33 -333.333
	333.333 2333.33 -200
	333.333 2333.33 -66.6667
	333.333 2333.33 66.6667
	333.333 2333.33 200
	333.333 2333.33 333.333
	-333.333 2466.67 -333.333
	-333.333 2466.67 -200
	-333.333 2466.67 -66.6667
	-333.333 2466.67 66.6667
	-333.333 2466.67 200
	-333.333 2466.67 333.333
	-200 2466.67 -333.333
	-200 2466.67 -200
	-200 2466.67 -66.6667
	-200 2466.67 66.6667
	-200 2466.67 200
	-200 2466.67 333.333
	-66.6667 2466.67 -333.333
	-66.6667 2466.67 -200
	-66.6667 2466.67 -66.6667
	-66.6667 2466.67 66.6667
	-66.6667 2466.67 200
	-66.6667 2466.67 333.333
	66.6667 2466.67 -333.333
	66.6667 2466.67 -200
	66.6667 2466.67 -66.6667
	66.6667 2466.67 66.6667
	66.6667 2466.67 200
	66.6667 2466.67 333.333
	200 2466.67 -333.333
	200 2466.67 -200
	200 2466.67 -66.6667
	200 2466.67 66.6667
	200 2466.67 200
	200 2466.67 333.333
	333.333 2466.67 -333.333
	333.333 2466.67 -200
	333.333 2466.67 -66.6667
	333.333 2466.67 66.6667
	333.333 2466.67 200
	333.333 2466.67 333.333
	-333.333 2600 -333.333
	-333.333 2600 -200
	-333.333 2600 -66.6667
	-333.333 2600 66.6667
	-333.333 2600 200
	-333.333 2600 333.333
	-200 2600 -333.333
	-200 2600 -200
	-200 2600 -66.6667
	-200 2600 66.6667
	-200 2600 200
	-200 2600 333.333
	-66.6667 2600 -333.333
	-66.6667 2600 -200
	-66.6667 2600 -66.6667
	-66.6667 2600 66.6667
	-66.6667 2600 200
	-66.6667 2600 333.333
	66.6667 2600 -333.333
	66.6667 2600 -200
	66.6667 2600 -66.6667
	66.6667 2600 66.6667
	66.6667 2600 200
	66.6667 2600 333.333
	200 2600 -333.333
	200 2600 -200
	200 2600 -66.6667
	200 2600 66.6667
	200 2600 200
	200 2600 333.333
	333.333 2600 -333.333
	333.333 2600 -200
	333.333 2600 -66.6667
	333.333 2600 66.6667
	333.333 2600 200
	333.333 2600 333.333
	-333.333 2733.33 -333.333
	-333.333 2733.33 -200
	-333.333 2733.33 -66.6667
	-333.333 2733.33 66.6667
	-333.333 2733.33 200
	-333.333 2733.33 333.333
	-200 2733.33 -333.333
	-200 2733.33 -200
	-200 2733.33 -66.6667
	-200 2733.33 66.6667
	-200 2733.33 200
	-200 2733.33 333.333
	-66.6667 2733.33 -333.333
	-66.6667 2733.33 -200
	-66.6667 2733.33 -66.6667
	-66.6667 2733.33 66.6667
	-66.6667 2733.33 200
	-66.6667 2733.33 333.333
	66.6667 2733.33 -333.333
	66.6667 2733.33 -200
	66.6667 2733.33 -66.6667
	66.6667 2733.33 66.6667
	66.6667 2733.33 200
	66.6667 2733.33 333.333
	200 2733.33 -333.333
	200 2733.33 -200
	200 2733.33 -66.6667
	200 2733.33 66.6667
	200 2733.33 200
	200 2733.33 333.333
	333.333 2733.33 -333.333
	333.333 2733.33 -200
	333.333 2733.33 -66.6667
	333.333 2733.33 66.6667
	333.333 2733.33 200
	333.333 2733.33 333.333
	-333.333 2866.67 -333.333
	-333.333 2866.67 -200
	-333.333 2866.67 -66.6667
	-333.333 2866.67 66.6667
	-333.333 2866.67 200
	-333.333 2866.67 333.333
	-200 2866.67 -333.333
	-200 2866.67 -200
	-200 2866.67 -66.6667
	-200 2866.67 66.6667
	-200 2866.67 200
	-200 2866.67 333.333
	-66.6667 2866.67 -333.333
	-66.6667 2866.67 -200
	-66.6667 2866.67 -66.6667
	-66.6667 2866.67 66.6667
	-66.6667 2866.67 200
	-66.6667 2866.67 333.333
	66.6667 2866.67 -333.333
	66.6667 2866.67 -200
	66.6667 2866.67 -66.6667
	66.6667 2866.67 66.6667
	66.6667 2866.67 200
	66.6667 2866.67 333.333
	200 2866.67 -333.333
	200 2866.67 -200
	200 2866.67 -66.6667
	200 2866.67 66.6667
	200 2866.67 200
	200 2866.67 333.333
	333.333 2866.67 -333.333
	333.333 2866.67 -200
	333.333 2866.67 -66.6667
	333.333 2866.67 66.6667
	333.333 2866.67 200
	333.333 2866.67 333.333
	-333.333 3000 -333.333
	-333.333 3000 -200
	-333.333 3000 -66.6667
	-333.333 3000 66.6667
	-333.333 3000 200
	-333.333 3000 333.333
	-200 3000 -333.333
	-200 3000 -200
	-200 3000 -66.6667
	-200 3000 66.6667
	-200 3000 200
	-200 3000 333.333
	-66.6667 3000 -333.333
	-66.6667 3000 -200
	-66.6667 3000 -66.6667
	-66.6667 3000 66.6667
	-66.6667 3000 200
	-66.6667 3000 333.333
	66.6667 3000 -333.333
	66.6667 3000 -200
	66.6667 3000 -66.6667
	66.6667 3000 66.6667
	66.6667 3000 200
	66.6667 3000 333.333
	200 3000 -333.333
	200 3000 -200
	200 3000 -66.6667
	200 3000 66.6667
	200 3000 200
	200 3000 333.333
	333.333 3000 -333.333
	333.333 3000 -200
	333.333 3000 -66.6667
	333.333 3000 66.6667
	333.333 3000 200
	333.333 3000 333.333
	-333.333 3133.33 -333.333
	-333.333 3133.33 -200
	-333.333 3133.33 -66.6667
	-333.333 3133.33 66.6667
	-333.333 3133.33 200
	-333.333 3133.33 333.333
	-200 3133.33 -333.333
	-200 3133.33 -200
	-200 3133.33 -66.6667
	-200 3133.33 66.6667
	-200 3133.33 200
	-200 3133.33 333.333
	-66.6667 3133.33 -333.333
	-66.6667 3133.33 -200
	-66.6667 3133.33 -66.6667
	-66.6667 3133.33 66.6667
	-66.6667 3133.33 200
	-66.6667 3133.33 333.333
	66.6667 3133.33 -333.333
	66.6667 3133.33 -200
	66.6667 3133.33 -66.6667
	66.6667 3133.33 66.6667
	66.6667 3133.33 200
	66.6667 3133.33 333.333
	200 3133.33 -333.333
	200 3133.33 -200
	200 3133.33 -66.6667
	200 3133.33 66.6667
	200 3133.33 200
	200 3133.33 333.333
	333.333 3133.33 -333.333
	333.333 3133.33 -200
	333.333 3133.33 -66.6667
	333.333 3133.33 66.6667
	333.333 3133.33 200
	333.333 3133.33 333.333
	-333.333 3266.67 -333.333
	-333.333 3266.67 -200
	-333.333 3266.67 -66.6667
	-333.333 3266.67 66.6667
	-333.333 3266.67 200
	-333.333 3266.67 333.333
	-200 3266.67 -333.333
	-200 3266.67 -200
	-200 3266.67 -66.6667
	-200 3266.67 66.6667
	-200 3266.67 200
	-200 3266.67 333.333
	-66.6667 3266.67 -333.333
	-66.6667 3266.67 -200
	-66.6667 3266.67 -66.6667
	-66.6667 3266.67 66.6667
	-66.6667 3266.67 200
	-66.6667 3266.67 333.333
	66.6667 3266.67 -333.333
	66.6667 3266.67 -200
	66.6667 3266.67 -66.6667
	66.6667 3266.67 66.6667
	66.6667 3266.67 200
	66.6667 3266.67 333.333
	200 3266.67 -333.333
	200 3266.67 -200
	200 3266.67 -66.6667
	200 3266.67 66.6667
	200 3266.67 200
	200 3266.67 333.333
	333.333 3266.67 -333.333
	333.333 3266.67 -200
	333.333 3266.67 -66.6667
	333.333 3266.67 66.6667
	333.333 3266.67 200
	333.333 3266.67 333.333
	-333.333 3400 -333.333
	-333.333 3400 -200
	-333.333 3400 -66.6667
	-333.333 3400 66.6667
	-333.333 3400 200
	-333.333 3400 333.333
	-200 3400 -333.333
	-200 3400 -200
	-200 3400 -66.6667
	-200 3400 66.6667
	-200 3400 200
	-200 3400 333.333
	-66.6667 3400 -333.333
	-66.6667 3400 -200
	-66.6667 3400 -66.6667
	-66.6667 3400 66.6667
	-66.6667 3400 200
	-66.6667 3400 333.333
	66.6667 3400 -333.333
	66.6667 3400 -200
	66.6667 3400 -66.6667
	66.6667 3400 66.6667
	66.6667 3400 200
	66.6667 3400 333.333
	200 3400 -333.333
	200 3400 -200
	200 3400 -66.6667
	200 3400 66.6667
	200 3400 200
	200 3400 333.333
	333.333 3400 -333.333
	333.333 3400 -200
	333.333 3400 -66.6667
	333.333 3400 66.6667
	333.333 3400 200
	333.333 3400 333.333
	-333.333 3533.33 -333.333
	-333.333 3533.33 -200
	-333.333 3533.33 -66.6667
	-333.333 3533.33 66.6667
	-333.333 3533.33 200
	-333.333 3533.33 333.333
	-200 3533.33 -333.333
	-200 3533.33 -200
	-200 3533.33 -66.6667
	-200 3533.33 66.6667
	-200 3533.33 200
	-200 3533.33 333.333
	-66.6667 3533.33 -333.333
	-66.6667 3533.33 -200
	-66.6667 3533.33 -66.6667
	-66.6667 3533.33 66.6667
	-66.6667 3533.33 200
	-66.6667 3533.33 333.333
	66.6667 3533.33 -333.333
	66.6667 3533.33 -200
	66.6667 3533.33 -66.6667
	66.6667 3533.33 66.6667
	66.6667 3533.33 200
	66.6667 3533.33 333.333
	200 3533.33 -333.333
	200 3533.33 -200
	200 3533.33 -66.6667
	200 3533.33 66.6667
	200 3533.33 200
	200 3533.33 333.333
	333.333 3533.33 -333.333
	333.333 3533.33 -200
	333.333 3533.33 -66.6667
	333.333 3533.33 66.6667
	333.333 3533.33 200
	333.333 3533.33 333.333
	-333.333 3666.67 -333.333
	-333.333 3666.67 -200
[...]
<PointData  Vectors="vector">
  <DataArray type="Float32" Name="Velocity" NumberOfComponents="3" format="ascii">
 9.6838e-16 -1.3782e-07 -1.29607e-15
 1.97318e-16 -1.3782e-07 5.06079e-15
 -5.73744e-16 -1.3782e-07 1.14177e-14
 1.98916e-16 -1.3782e-07 -8.62946e-14
 1.31952e-15 -1.3782e-07 5.06079e-15
 2.44013e-15 -1.3782e-07 9.64162e-14
 -9.37371e-16 -1.3782e-07 -2.91476e-15
 -5.41972e-16 -1.3782e-07 5.10607e-15
 -1.46574e-16 -1.3782e-07 1.31269e-14
 9.75631e-16 -1.3782e-07 -8.45854e-14
 -1.291e-15 -1.3782e-07 5.10607e-15
 -3.55762e-15 -1.3782e-07 9.47975e-14
 -2.84312e-15 -1.3782e-07 -4.53344e-15
 -1.28126e-15 -1.3782e-07 5.15135e-15
 2.80595e-16 -1.3782e-07 1.48361e-14
 1.75235e-15 -1.3782e-07 -8.28761e-14
 -3.90152e-15 -1.3782e-07 5.15135e-15
 -9.55538e-15 -1.3782e-07 9.31788e-14
 -1.00555e-13 -1.3782e-07 -1.34475e-15
 -9.89935e-14 -1.3782e-07 7.62032e-15
 -9.74317e-14 -1.3782e-07 1.65854e-14
 -9.59599e-14 -1.3782e-07 -8.11269e-14
 -1.01614e-13 -1.3782e-07 7.62032e-15
 -1.07268e-13 -1.3782e-07 9.63675e-14
 -9.37371e-16 -1.3782e-07 -4.45793e-16
 -5.41972e-16 -1.3782e-07 3.7092e-15
 -1.46574e-16 -1.3782e-07 7.86419e-15
 9.75631e-16 -1.3782e-07 -8.98481e-14
 -1.291e-15 -1.3782e-07 3.7092e-15
 -3.55762e-15 -1.3782e-07 9.72665e-14
 9.86807e-14 -1.3782e-07 4.53168e-16
 9.79096e-14 -1.3782e-07 -2.01926e-16
 9.71385e-14 -1.3782e-07 -8.57019e-16
 9.79112e-14 -1.3782e-07 -9.85693e-14
 9.90318e-14 -1.3782e-07 -2.01926e-16
 1.00152e-13 -1.3782e-07 9.81654e-14
 5.0996e-16 4.52975e-07 -3.34239e-15
 1.35815e-16 4.52975e-07 2.56919e-15
 -2.3833e-16 4.52975e-07 8.48077e-15
 -1.99803e-16 4.52975e-07 -1.15339e-13
 8.66906e-16 4.52975e-07 2.56919e-15
 1.93362e-15 4.52975e-07 1.20478e-13
 -2.29797e-16 4.52975e-07 -3.58425e-15
 -1.42869e-16 4.52975e-07 2.49618e-15
 -5.59414e-17 4.52975e-07 8.57661e-15
 6.7515e-16 4.52975e-07 -1.15243e-13
 4.3867e-16 4.52975e-07 2.49618e-15
 2.0219e-16 4.52975e-07 1.20236e-13
 -9.69554e-16 4.52975e-07 -3.82611e-15
 -4.21553e-16 4.52975e-07 2.42317e-15
 1.26447e-16 4.52975e-07 8.67245e-15
 1.5501e-15 4.52975e-07 -1.15148e-13
 1.04341e-17 4.52975e-07 2.42317e-15
 -1.52923e-15 4.52975e-07 1.19994e-13
 -1.2479e-13 4.52975e-07 -2.49695e-15
 -1.24242e-13 4.52975e-07 4.3338e-15
 -1.23694e-13 4.52975e-07 1.11646e-14
 -1.2227e-13 4.52975e-07 -1.12656e-13
 -1.2381e-13 4.52975e-07 4.3338e-15
 -1.25349e-13 4.52975e-07 1.21323e-13
 -2.29797e-16 4.52975e-07 -1.67362e-15
 -1.42869e-16 4.52975e-07 3.18961e-15
 -5.59414e-17 4.52975e-07 8.05284e-15
 6.7515e-16 4.52975e-07 -1.15767e-13
 4.3867e-16 4.52975e-07 3.18961e-15
 2.0219e-16 4.52975e-07 1.22147e-13
 1.2433e-13 4.52975e-07 -8.50283e-16
 1.23956e-13 4.52975e-07 2.04542e-15
 1.23582e-13 4.52975e-07 4.94113e-15
 1.2362e-13 4.52975e-07 -1.18879e-13
 1.24687e-13 4.52975e-07 2.04542e-15
 1.25754e-13 4.52975e-07 1.2297e-13
 1.02987e-16 8.18809e-07 -5.15905e-15
 8.12149e-17 8.18809e-07 3.57255e-16
 5.94433e-17 8.18809e-07 5.87356e-15
 -5.53774e-16 8.18809e-07 -1.41125e-13
 4.65082e-16 8.18809e-07 3.57255e-16
 1.48394e-15 8.18809e-07 1.41839e-13
 3.98382e-16 8.18809e-07 -4.1786e-15
 2.11444e-16 8.18809e-07 1.79204e-16
 2.4506e-17 8.18809e-07 4.53701e-15
 4.08373e-16 8.18809e-07 -1.42461e-13
 1.97422e-15 8.18809e-07 1.79204e-16
 3.54006e-15 8.18809e-07 1.4282e-13
 6.93777e-16 8.18809e-07 -3.19815e-15
 3.41673e-16 8.18809e-07 1.15175e-18
 -1.04312e-17 8.18809e-07 3.20045e-15
 1.37052e-15 8.18809e-07 -1.43798e-13
 3.48335e-15 8.18809e-07 1.15175e-18
 5.59619e-15 8.18809e-07 1.438e-13
 -1.46305e-13 8.18809e-07 -3.51984e-15
 -1.46657e-13 8.18809e-07 1.41611e-15
 -1.47009e-13 8.18809e-07 6.35206e-15
 -1.45628e-13 8.18809e-07 -1.40646e-13
 -1.43515e-13 8.18809e-07 1.41611e-15
 -1.41402e-13 8.18809e-07 1.43479e-13
 3.98382e-16 8.18809e-07 -2.76364e-15
 2.11444e-16 8.18809e-07 2.72836e-15
 2.4506e-17 8.18809e-07 8.22036e-15
 4.08373e-16 8.18809e-07 -1.38778e-13
 1.97422e-15 8.18809e-07 2.72836e-15
 3.54006e-15 8.18809e-07 1.44235e-13
 1.47101e-13 8.18809e-07 -2.00744e-15
 1.4708e-13 8.18809e-07 4.04061e-15
 1.47058e-13 8.18809e-07 1.00887e-14
 1.46445e-13 8.18809e-07 -1.3691e-13
 1.47463e-13 8.18809e-07 4.04061e-15
 1.48482e-13 8.18809e-07 1.44991e-13
 -5.80837e-17 6.83364e-07 -5.40459e-17
 1.62464e-16 6.83364e-07 2.48376e-15
 3.83012e-16 6.83364e-07 5.02157e-15
 -1.9113e-16 6.83364e-07 -8.60576e-14
 -3.61133e-16 6.83364e-07 2.48376e-15
 -5.31136e-16 6.83364e-07 9.10252e-14
 -2.76526e-16 6.83364e-07 1.51927e-15
 3.97963e-17 6.83364e-07 2.85515e-15
 3.56119e-16 6.83364e-07 4.19102e-15
 -1.67478e-16 6.83364e-07 -8.68882e-14
 5.67017e-16 6.83364e-07 2.85515e-15
 1.30151e-15 6.83364e-07 9.25985e-14
 -4.94969e-16 6.83364e-07 3.09258e-15
 -8.28715e-17 6.83364e-07 3.22653e-15
 3.29226e-16 6.83364e-07 3.36048e-15
 -1.43826e-16 6.83364e-07 -8.77187e-14
 1.49517e-15 6.83364e-07 3.22653e-15
 3.13416e-15 6.83364e-07 9.41718e-14
 -9.15742e-14 6.83364e-07 2.0825e-15
 -9.11621e-14 6.83364e-07 3.08355e-15
 -9.075e-14 6.83364e-07 4.08459e-15
 -9.1223e-14 6.83364e-07 -8.69946e-14
 -8.9584e-14 6.83364e-07 3.08355e-15
 -8.79451e-14 6.83364e-07 9.31617e-14
 -2.76526e-16 6.83364e-07 1.37629e-15
 3.97963e-17 6.83364e-07 4.03553e-15
 3.56119e-16 6.83364e-07 6.69478e-15
 -1.67478e-16 6.83364e-07 -8.43844e-14
 5.67017e-16 6.83364e-07 4.03553e-15
 1.30151e-15 6.83364e-07 9.24555e-14
 9.10211e-14 6.83364e-07 6.70071e-16
 9.12417e-14 6.83364e-07 4.98752e-15
 9.14622e-14 6.83364e-07 9.30496e-15
 9.08881e-14 6.83364e-07 -8.17742e-14
 9.07181e-14 6.83364e-07 4.98752e-15
 9.05481e-14 6.83364e-07 9.17493e-14
 -1.6284e-16 -2.24036e-06 -7.98286e-16
 -3.1537e-17 -2.24036e-06 1.67032e-16
 9.97664e-17 -2.24036e-06 1.13235e-15
 -5.72144e-16 -2.24036e-06 -1.70547e-13
 -4.05156e-16 -2.24036e-06 1.67032e-16
 -2.38167e-16 -2.24036e-06 1.70881e-13
 -1.3399e-17 -2.24036e-06 -5.01238e-16
 5.38846e-17 -2.24036e-06 3.40406e-16
 1.21168e-16 -2.24036e-06 1.18205e-15
 -2.5245e-16 -2.24036e-06 -1.70498e-13
 3.57178e-16 -2.24036e-06 3.40406e-16
 9.66806e-16 -2.24036e-06 1.71178e-13
 1.36043e-16 -2.24036e-06 -2.04191e-16
 1.39306e-16 -2.24036e-06 5.1378e-16
 1.4257e-16 -2.24036e-06 1.23175e-15
 6.72433e-17 -2.24036e-06 -1.70448e-13
 1.11951e-15 -2.24036e-06 5.1378e-16
 2.17178e-15 -2.24036e-06 1.71476e-13
 -1.71544e-13 -2.24036e-06 -2.61175e-16
 -1.7154e-13 -2.24036e-06 9.54157e-16
 -1.71537e-13 -2.24036e-06 2.16949e-15
 -1.71612e-13 -2.24036e-06 -1.6951e-13
 -1.7056e-13 -2.24036e-06 9.54157e-16
 -1.69508e-13 -2.24036e-06 1.71419e-13
 -1.3399e-17 -2.24036e-06 -6.08615e-17
 5.38846e-17 -2.24036e-06 1.06873e-15
 1.21168e-16 -2.24036e-06 2.19832e-15
 -2.5245e-16 -2.24036e-06 -1.69481e-13
 3.57178e-16 -2.24036e-06 1.06873e-15
 9.66806e-16 -2.24036e-06 1.71619e-13
 1.71517e-13 -2.24036e-06 1.39452e-16
 1.71648e-13 -2.24036e-06 1.1833e-15
 1.71779e-13 -2.24036e-06 2.22716e-15
 1.71108e-13 -2.24036e-06 -1.69453e-13
 1.71275e-13 -2.24036e-06 1.1833e-15
 1.71442e-13 -2.24036e-06 1.71819e-13
 -2.43823e-16 -4.35682e-06 -1.37364e-15
 -1.81514e-16 -4.35682e-06 -1.62397e-15
 -1.19206e-16 -4.35682e-06 -1.8743e-15
 -8.66689e-16 -4.35682e-06 -2.35865e-13
 -4.39177e-16 -4.35682e-06 -1.62397e-15
 -1.16644e-17 -4.35682e-06 2.32617e-13
 1.90026e-16 -4.35682e-06 -2.06324e-15
 6.47804e-17 -4.35682e-06 -1.60364e-15
 -6.04647e-17 -4.35682e-06 -1.14404e-15
 -3.18127e-16 -4.35682e-06 -2.35135e-13
 1.94964e-16 -4.35682e-06 -1.60364e-15
 7.08055e-16 -4.35682e-06 2.31928e-13
 6.23874e-16 -4.35682e-06 -2.75285e-15
 3.11075e-16 -4.35682e-06 -1.58331e-15
 -1.72399e-18 -4.35682e-06 -4.13783e-16
 2.30435e-16 -4.35682e-06 -2.34405e-13
 8.29105e-16 -4.35682e-06 -1.58331e-15
 1.42778e-15 -4.35682e-06 2.31238e-13
 -2.33367e-13 -4.35682e-06 -2.07302e-15
 -2.3368e-13 -4.35682e-06 -6.91969e-16
 -2.33993e-13 -4.35682e-06 6.89087e-16
 -2.3376e-13 -4.35682e-06 -2.33302e-13
 -2.33162e-13 -4.35682e-06 -6.91969e-16
 -2.32563e-13 -4.35682e-06 2.31918e-13
 1.90026e-16 -4.35682e-06 -1.1719e-15
 6.47804e-17 -4.35682e-06 -1.2248e-15
 -6.04647e-17 -4.35682e-06 -1.27771e-15
 -3.18127e-16 -4.35682e-06 -2.35269e-13
 1.94964e-16 -4.35682e-06 -1.2248e-15
 7.08055e-16 -4.35682e-06 2.32819e-13
 2.33747e-13 -4.35682e-06 -2.7077e-16
 2.33809e-13 -4.35682e-06 -1.75764e-15
 2.33872e-13 -4.35682e-06 -3.24451e-15
 2.33124e-13 -4.35682e-06 -2.37235e-13
 2.33552e-13 -4.35682e-06 -1.75764e-15
 2.33979e-13 -4.35682e-06 2.3372e-13
 -1.08328e-15 -4.66827e-06 9.67225e-16
 -9.33441e-16 -4.66827e-06 8.75626e-18
 -7.83603e-16 -4.66827e-06 -9.49712e-16
 -8.41176e-16 -4.66827e-06 -1.32624e-13
 -2.98715e-16 -4.66827e-06 8.75626e-18
 2.43746e-16 -4.66827e-06 1.32642e-13
 -5.14777e-17 -4.66827e-06 -1.05457e-15
 -4.06023e-16 -4.66827e-06 -2.53066e-16
 -7.60568e-16 -4.66827e-06 5.4844e-16
 -1.25841e-16 -4.66827e-06 -1.31126e-13
 1.40994e-16 -4.66827e-06 -2.53066e-16
 4.07829e-16 -4.66827e-06 1.3062e-13
 9.80324e-16 -4.66827e-06 -3.07637e-15
 1.21396e-16 -4.66827e-06 -5.14888e-16
 -7.37532e-16 -4.66827e-06 2.04659e-15
 5.89493e-16 -4.66827e-06 -1.29628e-13
 5.80702e-16 -4.66827e-06 -5.14888e-16
 5.71912e-16 -4.66827e-06 1.28598e-13
 -1.30694e-13 -4.66827e-06 -2.04428e-15
 -1.31553e-13 -4.66827e-06 -1.00892e-15
 -1.32412e-13 -4.66827e-06 2.64273e-17
 -1.31085e-13 -4.66827e-06 -1.31648e-13
 -1.31094e-13 -4.66827e-06 -1.00892e-15
 -1.31103e-13 -4.66827e-06 1.2963e-13
 -5.14777e-17 -4.66827e-06 -1.54861e-15
 -4.06023e-16 -4.66827e-06 -1.32711e-15
 -7.60568e-16 -4.66827e-06 -1.10562e-15
 -1.25841e-16 -4.66827e-06 -1.3278e-13
 1.40994e-16 -4.66827e-06 -1.32711e-15
 4.07829e-16 -4.66827e-06 1.30126e-13
 1.30591e-13 -4.66827e-06 -1.05294e-15
 1.30741e-13 -4.66827e-06 -1.6453e-15
 1.30891e-13 -4.66827e-06 -2.23767e-15
 1.30833e-13 -4.66827e-06 -1.33912e-13
 1.31376e-13 -4.66827e-06 -1.6453e-15
 1.31918e-13 -4.66827e-06 1.30622e-13
 -2.22415e-16 -2.29642e-06 8.23271e-16
 -3.67434e-16 -2.29642e-06 -2.29729e-15
 -5.12453e-16 -2.29642e-06 -5.41785e-15
 -2.85685e-16 -2.29642e-06 -2.62086e-13
 -3.25935e-16 -2.29642e-06 -2.29729e-15
 -3.66186e-16 -2.29642e-06 2.57491e-13
 -2.06787e-16 -2.29642e-06 5.36959e-16
 3.48278e-17 -2.29642e-06 -1.37273e-15
 2.76443e-16 -2.29642e-06 -3.28242e-15
 3.17941e-16 -2.29642e-06 -2.5995e-13
 -5.22723e-17 -2.29642e-06 -1.37273e-15
 -4.22486e-16 -2.29642e-06 2.57205e-13
 -1.9116e-16 -2.29642e-06 2.50647e-16
 4.3709e-16 -2.29642e-06 -4.48168e-16
 1.06534e-15 -2.29642e-06 -1.14698e-15
 9.21568e-16 -2.29642e-06 -2.57815e-13
 2.21391e-16 -2.29642e-06 -4.48168e-16
 -4.78787e-16 -2.29642e-06 2.56918e-13
 -2.56859e-13 -2.29642e-06 -4.98983e-16
 -2.56231e-13 -2.29642e-06 -9.77136e-16
 -2.55602e-13 -2.29642e-06 -1.45529e-15
 -2.55746e-13 -2.29642e-06 -2.58123e-13
 -2.56446e-13 -2.29642e-06 -9.77136e-16
 -2.57146e-13 -2.29642e-06 2.56169e-13
 -2.06787e-16 -2.29642e-06 7.98984e-18
 3.48278e-17 -2.29642e-06 -5.75121e-16
 2.76443e-16 -2.29642e-06 -1.15823e-15
 3.17941e-16 -2.29642e-06 -2.57826e-13
 -5.22723e-17 -2.29642e-06 -5.75121e-16
 -4.22486e-16 -2.29642e-06 2.56676e-13
 2.56445e-13 -2.29642e-06 5.14963e-16
 2.563e-13 -2.29642e-06 -1.73106e-16
 2.56155e-13 -2.29642e-06 -8.61174e-16
 2.56382e-13 -2.29642e-06 -2.57529e-13
 2.56342e-13 -2.29642e-06 -1.73106e-16
 2.56301e-13 -2.29642e-06 2.57183e-13
 4.35428e-16 -4.29563e-07 7.1326e-16
 6.50949e-17 -4.29563e-07 -4.05945e-15
 -3.05239e-16 -4.29563e-07 -8.83216e-15
 1.38798e-16 -4.29563e-07 -3.61013e-13
 -3.46728e-16 -4.29563e-07 -4.05945e-15
 -8.32254e-16 -4.29563e-07 3.52894e-13
 -3.25457e-16 -4.29563e-07 1.75311e-15
 3.71713e-16 -4.29563e-07 -2.22833e-15
 1.06888e-15 -4.29563e-07 -6.20978e-15
 6.5706e-16 -4.29563e-07 -3.58391e-13
 -1.99946e-16 -4.29563e-07 -2.22833e-15
 -1.05695e-15 -4.29563e-07 3.53934e-13
 -1.08634e-15 -4.29563e-07 2.79296e-15
 6.78332e-16 -4.29563e-07 -3.97218e-16
 2.44301e-15 -4.29563e-07 -3.5874e-15
 1.17532e-15 -4.29563e-07 -3.55768e-13
 -5.31637e-17 -4.29563e-07 -3.97218e-16
 -1.28165e-15 -4.29563e-07 3.54974e-13
 -3.53267e-13 -4.29563e-07 6.81856e-16
 -3.51503e-13 -4.29563e-07 -9.52857e-16
 -3.49738e-13 -4.29563e-07 -2.58757e-15
 -3.51006e-13 -4.29563e-07 -3.54769e-13
 -3.52234e-13 -4.29563e-07 -9.52857e-16
 -3.53463e-13 -4.29563e-07 3.52863e-13
 -3.25457e-16 -4.29563e-07 1.19747e-15
 3.71713e-16 -4.29563e-07 -4.95032e-19
 1.06888e-15 -4.29563e-07 -1.19846e-15
 6.5706e-16 -4.29563e-07 -3.53379e-13
 -1.99946e-16 -4.29563e-07 -4.95032e-19
 -1.05695e-15 -4.29563e-07 3.53378e-13
 3.52616e-13 -4.29563e-07 1.71309e-15
 3.52246e-13 -4.29563e-07 9.51867e-16
 3.51876e-13 -4.29563e-07 1.90648e-16
 3.5232e-13 -4.29563e-07 -3.5199e-13
 3.51834e-13 -4.29563e-07 9.51867e-16
 3.51349e-13 -4.29563e-07 3.53894e-13
 -2.45774e-15 1.61068e-06 -2.49582e-15
 -2.84376e-15 1.61068e-06 -3.8751e-15
 -3.22979e-15 1.61068e-06 -5.25438e-15
 -2.53084e-15 1.61068e-06 -2.24992e-13
 -2.86724e-15 1.61068e-06 -3.8751e-15
 -3.20364e-15 1.61068e-06 2.17242e-13
 -5.38465e-18 1.61068e-06 -9.1433e-16
 4.74763e-16 1.61068e-06 -1.22748e-15
 9.54911e-16 1.61068e-06 -1.54064e-15
 9.31439e-16 1.61068e-06 -2.21278e-13
 3.08564e-16 1.61068e-06 -1.22748e-15
 -3.1431e-16 1.61068e-06 2.18823e-13
 2.44697e-15 1.61068e-06 6.67162e-16
 3.79329e-15 1.61068e-06 1.42013e-15
 5.13961e-15 1.61068e-06 2.1731e-15
 4.39371e-15 1.61068e-06 -2.17565e-13
 3.48437e-15 1.61068e-06 1.42013e-15
 2.57502e-15 1.61068e-06 2.20405e-13
 -2.17291e-13 1.61068e-06 -2.28931e-15
 -2.15944e-13 1.61068e-06 -1.18927e-16
 -2.14598e-13 1.61068e-06 2.05145e-15
 -2.15344e-13 1.61068e-06 -2.17686e-13
 -2.16253e-13 1.61068e-06 -1.18927e-16
 -2.17163e-13 1.61068e-06 2.17448e-13
 -5.38465e-18 1.61068e-06 -2.45339e-15
 4.74763e-16 1.61068e-06 3.80576e-16
 9.54911e-16 1.61068e-06 3.21454e-15
 9.31439e-16 1.61068e-06 -2.16523e-13
 3.08564e-16 1.61068e-06 3.80576e-16
 -3.1431e-16 1.61068e-06 2.17284e-13
 2.1728e-13 1.61068e-06 -2.61747e-15
 2.16894e-13 1.61068e-06 8.8008e-16
 2.16508e-13 1.61068e-06 4.37763e-15
 2.17207e-13 1.61068e-06 -2.1536e-13
 2.1687e-13 1.61068e-06 8.8008e-16
 2.16534e-13 1.61068e-06 2.1712e-13
 3.15707e-16 4.38539e-05 9.01341e-16
 -9.69641e-17 4.38539e-05 -5.73854e-16
 -5.09635e-16 4.38539e-05 -2.04905e-15
 3.97733e-16 4.38539e-05 -3.70935e-13
 4.01118e-16 4.38539e-05 -5.73854e-16
 4.04504e-16 4.38539e-05 3.69787e-13
 -3.0716e-16 4.38539e-05 1.71509e-15
 -7.98057e-16 4.38539e-05 -2.25587e-16
 -1.28895e-15 4.38539e-05 -2.16627e-15
 -7.90872e-16 4.38539e-05 -3.71052e-13
 -7.70404e-16 4.38539e-05 -2.25587e-16
 -7.49936e-16 4.38539e-05 3.70601e-13
 -9.30026e-16 4.38539e-05 2.52885e-15
 -1.49915e-15 4.38539e-05 1.2268e-16
 -2.06827e-15 4.38539e-05 -2.28349e-15
 -1.97948e-15 4.38539e-05 -3.71169e-13
 -1.94193e-15 4.38539e-05 1.2268e-16
 -1.90438e-15 4.38539e-05 3.71415e-13
 -3.69816e-13 4.38539e-05 4.10505e-16
 -3.70385e-13 4.38539e-05 -1.03083e-15
 -3.70954e-13 4.38539e-05 -2.47217e-15
 -3.70865e-13 4.38539e-05 -3.71358e-13
 -3.70828e-13 4.38539e-05 -1.03083e-15
 -3.7079e-13 4.38539e-05 3.69296e-13
 -3.0716e-16 4.38539e-05 5.61578e-16
 -7.98057e-16 4.38539e-05 -2.6162e-16
 -1.28895e-15 4.38539e-05 -1.08482e-15
 -7.90872e-16 4.38539e-05 -3.69971e-13
 -7.70404e-16 4.38539e-05 -2.6162e-16
 -7.49936e-16 4.38539e-05 3.69447e-13
 3.69202e-13 4.38539e-05 7.12651e-16
 3.68789e-13 4.38539e-05 5.07595e-16
 3.68376e-13 4.38539e-05 3.02539e-16
 3.69284e-13 4.38539e-05 -3.68583e-13
 3.69287e-13 4.38539e-05 5.07595e-16
 3.6929e-13 4.38539e-05 3.69599e-13
 2.51294e-15 7.52913e-05 3.59271e-15
 2.07916e-15 7.52913e-05 2.04152e-15
 1.64538e-15 7.52913e-05 4.90323e-16
 2.71786e-15 7.52913e-05 -4.86557e-13
 2.99044e-15 7.52913e-05 2.04152e-15
 3.26302e-15 7.52913e-05 4.9064e-13
 -5.46245e-16 7.52913e-05 3.79823e-15
 -1.80644e-15 7.52913e-05 5.68152e-16
 -3.06664e-15 7.52913e-05 -2.66193e-15
 -2.15536e-15 7.52913e-05 -4.89709e-13
 -1.62521e-15 7.52913e-05 5.68152e-16
 -1.09506e-15 7.52913e-05 4.90845e-13
 -3.60543e-15 7.52913e-05 4.00375e-15
 -5.69204e-15 7.52913e-05 -9.05213e-16
 -7.77865e-15 7.52913e-05 -5.81417e-15
 -7.02858e-15 7.52913e-05 -4.92861e-13
 -6.24086e-15 7.52913e-05 -9.05213e-16
 -5.45314e-15 7.52913e-05 4.91051e-13
 -4.90652e-13 7.52913e-05 2.54941e-15
 -4.92739e-13 7.52913e-05 -1.75329e-15
 -4.94826e-13 7.52913e-05 -6.05598e-15
 -4.94076e-13 7.52913e-05 -4.93103e-13
 -4.93288e-13 7.52913e-05 -1.75329e-15
 -4.925e-13 7.52913e-05 4.89596e-13
 -5.46245e-16 7.52913e-05 2.95016e-15
 -1.80644e-15 7.52913e-05 -7.70394e-16
 -3.06664e-15 7.52913e-05 -4.49095e-15
 -2.15536e-15 7.52913e-05 -4.91538e-13
 -1.62521e-15 7.52913e-05 -7.70394e-16
 -1.09506e-15 7.52913e-05 4.89997e-13
 4.8956e-13 7.52913e-05 3.35091e-15
 4.89126e-13 7.52913e-05 2.12496e-16
 4.88692e-13 7.52913e-05 -2.92592e-15
 4.89765e-13 7.52913e-05 -4.89973e-13
 4.90038e-13 7.52913e-05 2.12496e-16
 4.9031e-13 7.52913e-05 4.90398e-13
 -3.87964e-14 -7.80271e-05 9.12262e-16
 -3.96015e-14 -7.80271e-05 2.13916e-15
 -4.04066e-14 -7.80271e-05 3.36605e-15
 -1.5907e-14 -7.80271e-05 -3.44961e-13
 -1.42623e-14 -7.80271e-05 2.13915e-15
 -1.26175e-14 -7.80271e-05 3.49239e-13
 1.1895e-14 -7.80271e-05 7.09467e-16
 1.00539e-14 -7.80271e-05 -1.53502e-17
 8.21282e-15 -7.80271e-05 -7.40167e-16
 7.80076e-15 -7.80271e-05 -3.49067e-13
 5.63294e-16 -7.80271e-05 -1.53584e-17
 -6.67417e-15 -7.80271e-05 3.49036e-13
 6.25864e-14 -7.80271e-05 5.06671e-16
 5.97093e-14 -7.80271e-05 -2.16986e-15
 5.68322e-14 -7.80271e-05 -4.84639e-15
 3.15085e-14 -7.80271e-05 -3.53173e-13
 1.53889e-14 -7.80271e-05 -2.16987e-15
 -7.30833e-16 -7.80271e-05 3.48833e-13
 -4.13606e-13 -7.80271e-05 1.50592e-15
 -4.14583e-13 -7.80271e-05 -8.68422e-16
 -4.15559e-13 -7.80271e-05 -3.24276e-15
 -3.90937e-13 -7.80271e-05 -3.51569e-13
 -3.70979e-13 -7.80271e-05 -8.6843e-16
 -3.5102e-13 -7.80271e-05 3.49832e-13
 -9.53022e-15 -7.80271e-05 2.0109e-15
 -1.03452e-14 -7.80271e-05 -3.42943e-16
 -1.11603e-14 -7.80271e-05 -2.69679e-15
 -8.83185e-15 -7.80271e-05 -3.51023e-13
 -3.42818e-16 -7.80271e-05 -3.42951e-16
 8.14621e-15 -7.80271e-05 3.50337e-13
 3.94546e-13 -7.80271e-05 2.51589e-15
 3.93892e-13 -7.80271e-05 1.82536e-16
 3.93239e-13 -7.80271e-05 -2.15082e-15
 3.73273e-13 -7.80271e-05 -3.50477e-13
 3.70293e-13 -7.80271e-05 1.82528e-16
 3.67313e-13 -7.80271e-05 3.50842e-13
 8.14403e-15 -0.000610829 1.48889e-15
 7.24092e-15 -0.000610829 -1.40243e-16
 6.33782e-15 -0.000610829 -1.76937e-15
 2.17107e-14 -0.000610829 -5.00086e-13
 1.08552e-14 -0.000610829 -1.40259e-16
 -3.12601e-19 -0.000610829 4.99805e-13
 1.33034e-13 -0.000610829 1.50235e-15
 1.31681e-13 -0.000610829 -1.5958e-16
 1.30329e-13 -0.000610829 -1.82151e-15
 8.47629e-14 -0.000610829 -5.00138e-13
 5.54308e-14 -0.000610829 -1.59596e-16
 2.60987e-14 -0.000610829 4.99819e-13
 -7.5537e-14 -0.000610829 1.51581e-15
 -6.6869e-14 -0.000610829 -1.78918e-16
 -5.68922e-14 -0.000610829 -1.87365e-15
 1.3763e-13 -0.000610829 -5.0019e-13
 1.00006e-13 -0.000610829 -1.78934e-16
 5.21978e-14 -0.000610829 4.99832e-13
 -4.36688e-13 -0.000610829 1.54681e-15
 -4.46094e-13 -0.000610829 -2.35353e-16
 -4.56808e-13 -0.000610829 -2.01751e-15
 -6.54784e-13 -0.000610829 -5.00334e-13
 -6.13651e-13 -0.000610829 -2.35369e-16
 -5.62333e-13 -0.000610829 4.99863e-13
 -1.34194e-13 -0.000610829 1.44591e-15
 -1.33828e-13 -0.000610829 -3.81078e-16
 -1.33463e-13 -0.000610829 -2.20807e-15
 -8.69628e-14 -0.000610829 -5.00525e-13
 -5.738e-14 -0.000610829 -3.81094e-16
 -2.77971e-14 -0.000610829 4.99763e-13
 5.01762e-13 -0.000610829 1.34502e-15
 5.01428e-13 -0.000610829 -5.26802e-16
 5.01095e-13 -0.000610829 -2.39863e-15
 4.91043e-13 -0.000610829 -5.00715e-13
 4.98891e-13 -0.000610829 -5.26819e-16
 5.06739e-13 -0.000610829 4.99662e-13
 4.70158e-14 -0.00167223 1.96639e-15
 4.60315e-14 -0.00167223 -2.02783e-15
 4.50473e-14 -0.00167223 -6.02206e-15
 5.28623e-14 -0.00167223 -6.28546e-13
 3.16552e-14 -0.00167223 -2.02786e-15
 1.04481e-14 -0.00167223 6.24491e-13
 1.92477e-14 -0.00167223 2.15894e-15
 2.74609e-14 -0.00167223 -2.79017e-16
 4.35271e-14 -0.00167223 -2.71698e-15
 -2.23973e-13 -0.00167223 -6.25241e-13
 1.00867e-13 -0.00167223 -2.7904e-16
 5.32382e-14 -0.00167223 6.24684e-13
 -3.45315e-13 -0.00167223 2.35149e-15
 -3.59316e-13 -0.00167223 1.4698e-15
 -3.85096e-13 -0.00167223 5.88108e-16