<?xml version="1.0"?>
<!-- time 68.0268-->
<VTKFile type="UnstructuredGrid" version="0.1" byte_order="LittleEndian">
<UnstructuredGrid>
<Piece NumberOfPoints="3240" NumberOfCells="0">
<Points>
  <DataArray type="Float32" Name="Position" NumberOfComponents="3" format="ascii">
	-333.333 2066.28 -333.333
	-333.333 2066.28 -200
	-333.333 2066.28 -66.6667
	-333.333 2066.28 66.6667
	-333.333 2066.28 200
	-333.333 2066.28 333.333
	-200 2066.28 -333.333
	-200 2066.28 -200
	-200 2066.28 -66.6667
	-200 2066.28 66.6667
	-200 2066.28 200
	-200 2066.28 333.333
	-66.6667 2066.28 -333.333
	-66.6667 2066.28 -200
	-66.6667 2066.28 -66.6667
	-66.6667 2066.28 66.6667
	-66.6667 2066.28 200
	-66.6667 2066.28 333.333
	66.6667 2066.28 -333.333
	66.6667 2066.28 -200
	66.6667 2066.28 -66.6667
	66.6667 2066.28 66.6667
	66.6667 2066.28 200
	66.6667 2066.28 333.333
	200 2066.28 -333.333
	200 2066.28 -200
	200 2066.28 -66.6667
	200 2066.28 66.6667
	200 2066.28 200
	200 2066.28 333.333
	333.333 2066.28 -333.333
	333.333 2066.28 -200
	333.333 2066.28 -66.6667
	333.333 2066.28 66.6667
	333.333 2066.28 200
	333.333 2066.28 333.333
	-333.333 2199.67 -333.333
	-333.333 2199.67 -200
	-333.333 2199.67 -66.6667
	-333.333 2199.67 66.6667
	-333.333 2199.67 200
	-333.333 2199.67 333.333
	-200 2199.67 -333.333
	-200 2199.67 -200
	-200 2199.67 -66.6667
	-200 2199.67 66.6667
	-200 2199.67 200
	-200 2199.67 333.333
	-66.6667 2199.67 -333.333
	-66.6667 2199.67 -200
	-66.6667 2199.67 -66.6667
	-66.6667 2199.67 66.6667
	-66.6667 2199.67 200
	-66.6667 2199.67 333.333
	66.6667 2199.67 -333.333
	66.6667 2199.67 -200
	66.6667 2199.67 -66.6667
	66.6667 2199.67 66.6667
	66.6667 2199.67 200
	66.6667 2199.67 333.333
	200 2199.67 -333.333
	200 2199.67 -200
	200 2199.67 -66.6667
	200 2199.67 66.6667
	200 2199.67 200
	200 2199.67 333.333
	333.333 2199.67 -333.333
	333.333 2199.67 -200
	333.333 2199.67 -66.6667
	333.333 2199.67 66.6667
	333.333 2199.67 200
	333.333 2199.67 333.333
	-333.333 2333 -333.333
	-333.333 2333 -200
	-333.333 2333 -66.6667
	-333.333 2333 66.6667
	-333.333 2333 200
	-333.333 2333 333.333
	-200 2333 -333.333
	-200 2333 -200
	-200 2333 -66.6667
	-200 2333 66.6667
	-200 2333 200
	-200 2333 333.333
	-66.6667 2333 -333.333
	-66.6667 2333 -200
	-66.6667 2333 -66.6667
	-66.6667 2333 66.6667
	-66.6667 2333 200
	-66.6667 2333 333.333
	66.6667 2333 -333.333
	66.6667 2333 -200
	66.6667 2333 -66.6667
	66.6667 2333 66.6667
	66.6667 2333 200
	66.6667 2333 333.333
	200 2333 -333.333
	200 2333 -200
	200 2333 -66.6667
	200 2333 66.6667
	200 2333 200
	200 2333 333.333
	333.333 2333 -333.333
	333.333 2333 -200
	333.333 2333 -66.6667
	333.333 2333 66.6667
	333.333 2333 200
	333.333 2333 333.333
	-333.333 2466.34 -333.333
	-333.333 2466.34 -200
	-333.333 2466.34 -66.6667
	-333.333 2466.34 66.6667
	-333.333 2466.34 200
	-333.333 2466.34 333.333
	-200 2466.34 -333.333
	-200 2466.34 -200
	-200 2466.34 -66.6667
	-200 2466.34 66.6667
	-200 2466.34 200
	-200 2466.34 333.333
	-66.6667 2466.34 -333.333
	-66.6667 2466.34 -200
	-66.6667 2466.34 -66.6667
	-66.6667 2466.34 66.6667
	-66.6667 2466.34 200
	-66.6667 2466.34 333.333
	66.6667 2466.34 -333.333
	66.6667 2466.34 -200
	66.6667 2466.34 -66.6667
	66.6667 2466.34 66.6667
	66.6667 2466.34 200
	66.6667 2466.34 333.333
	200 2466.34 -333.333
	200 2466.34 -200
	200 2466.34 -66.6667
	200 2466.34 66.6667
	200 2466.34 200
	200 2466.34 333.333
	333.333 2466.34 -333.333
	333.333 2466.34 -200
	333.333 2466.34 -66.6667
	333.333 2466.34 66.6667
	333.333 2466.34 200
	333.333 2466.34 333.333
	-333.333 2599.67 -333.333
	-333.333 2599.67 -200
	-333.333 2599.67 -66.6667
	-333.333 2599.67 66.6667
	-333.333 2599.67 200
	-333.333 2599.67 333.333
	-200 2599.67 -333.333
	-200 2599.67 -200
	-200 2599.67 -66.6667
	-200 2599.67 66.6667
	-200 2599.67 200
	-200 2599.67 333.333
	-66.6667 2599.67 -333.333
	-66.6667 2599.67 -200
	-66.6667 2599.67 -66.6667
	-66.6667 2599.67 66.6667
	-66.6667 2599.67 200
	-66.6667 2599.67 333.333
	66.6667 2599.67 -333.333
	66.6667 2599.67 -200
	66.6667 2599.67 -66.6667
	66.6667 2599.67 66.6667
	66.6667 2599.67 200
	66.6667 2599.67 333.333
	200 2599.67 -333.333
	200 2599.67 -200
	200 2599.67 -66.6667
	200 2599.67 66.6667
	200 2599.67 200
	200 2599.67 333.333
	333.333 2599.67 -333.333
	333.333 2599.67 -200
	333.333 2599.67 -66.6667
	333.333 2599.67 66.6667
	333.333 2599.67 200
	333.333 2599.67 333.333
	-333.333 2733 -333.333
	-333.333 2733 -200
	-333.333 2733 -66.6667
	-333.333 2733 66.6667
	-333.333 2733 200
	-333.333 2733 333.333
	-200 2733 -333.333
	-200 2733 -200
	-200 2733 -66.6667
	-200 2733 66.6667
	-200 2733 200
	-200 2733 333.333
	-66.6667 2733 -333.333
	-66.6667 2733 -200
	-66.6667 2733 -66.6667
	-66.6667 2733 66.6667
	-66.6667 2733 200
	-66.6667 2733 333.333
	66.6667 2733 -333.333
	66.6667 2733 -200
	66.6667 2733 -66.6667
	66.6667 2733 66.6667
	66.6667 2733 200
	66.6667 2733 333.333
	200 2733 -333.333
	200 2733 -200
	200 2733 -66.6667
	200 2733 66.6667
	200 2733 200
	200 2733 333.333
	333.333 2733 -333.333
	333.333 2733 -200
	333.333 2733 -66.6667
	333.333 2733 66.6667
	333.333 2733 200
	333.333 2733 333.333
	-333.333 2866.34 -333.333
	-333.333 2866.34 -200
	-333.333 2866.34 -66.6667
	-333.333 2866.34 66.6667
	-333.333 2866.34 200
	-333.333 2866.34 333.333
	-200 2866.34 -333.333
	-200 2866.34 -200
	-200 2866.34 -66.6667
	-200 2866.34 66.6667
	-200 2866.34 200
	-200 2866.34 333.333
	-66.6667 2866.34 -333.333
	-66.6667 2866.34 -200
	-66.6667 2866.34 -66.6667
	-66.6667 2866.34 66.6667
	-66.6667 2866.34 200
	-66.6667 2866.34 333.333
	66.6667 2866.34 -333.333
	66.6667 2866.34 -200
	66.6667 2866.34 -66.6667
	66.6667 2866.34 66.6667
	66.6667 2866.34 200
	66.6667 2866.34 333.333
	200 2866.34 -333.333
	200 2866.34 -200
	200 2866.34 -66.6667
	200 2866.34 66.6667
	200 2866.34 200
	200 2866.34 333.333
	333.333 2866.34 -333.333
	333.333 2866.34 -200
	333.333 2866.34 -66.6667
	333.333 2866.34 66.6667
	333.333 2866.34 200
	333.333 2866.34 333.333
	-333.333 2999.67 -333.333
	-333.333 2999.67 -200
	-333.333 2999.67 -66.6667
	-333.333 2999.67 66.6667
	-333.333 2999.67 200
	-333.333 2999.67 333.333
	-200 2999.67 -333.333
	-200 2999.67 -200
	-200 2999.67 -66.6667
	-200 2999.67 66.6667
	-200 2999.67 200
	-200 2999.67 333.333
	-66.6667 2999.67 -333.333
	-66.6667 2999.67 -200
	-66.6667 2999.67 -66.6667
	-66.6667 2999.67 66.6667
	-66.6667 2999.67 200
	-66.6667 2999.67 333.333
	66.6667 2999.67 -333.333
	66.6667 2999.67 -200
	66.6667 2999.67 -66.6667
	66.6667 2999.67 66.6667
	66.6667 2999.67 200
	66.6667 2999.67 333.333
	200 2999.67 -333.333
	200 2999.67 -200
	200 2999.67 -66.6667
	200 2999.67 66.6667
	200 2999.67 200
	200 2999.67 333.333
	333.333 2999.67 -333.333
	333.333 2999.67 -200
	333.333 2999.67 -66.6667
	333.333 2999.67 66.6667
	333.333 2999.67 200
	333.333 2999.67 333.333
	-333.333 3133 -333.333
	-333.333 3133 -200
	-333.333 3133 -66.6667
	-333.333 3133 66.6667
	-333.333 3133 200
	-333.333 3133 333.333
	-200 3133 -333.333
	-200 3133 -200
	-200 3133 -66.6667
	-200 3133 66.6667
	-200 3133 200
	-200 3133 333.333
	-66.6667 3133 -333.333
	-66.6667 3133 -200
	-66.6667 3133 -66.6667
	-66.6667 3133 66.6667
	-66.6667 3133 200
	-66.6667 3133 333.333
	66.6667 3133 -333.333
	66.6667 3133 -200
	66.6667 3133 -66.6667
	66.6667 3133 66.6667
	66.6667 3133 200
	66.6667 3133 333.333
	200 3133 -333.333
	200 3133 -200
	200 3133 -66.6667
	200 3133 66.6667
	200 3133 200
	200 3133 333.333
	333.333 3133 -333.333
	333.333 3133 -200
	333.333 3133 -66.6667
	333.333 3133 66.6667
	333.333 3133 200
	333.333 3133 333.333
	-333.333 3266.33 -333.333
	-333.333 3266.33 -200
	-333.333 3266.33 -66.6667
	-333.333 3266.33 66.6667
	-333.333 3266.33 200
	-333.333 3266.33 333.333
	-200 3266.33 -333.333
	-200 3266.33 -200
	-200 3266.33 -66.6667
	-200 3266.33 66.6667
	-200 3266.33 200
	-200 3266.33 333.333
	-66.6667 3266.33 -333.333
	-66.6667 3266.33 -200
	-66.6667 3266.33 -66.6667
	-66.6667 3266.33 66.6667
	-66.6667 3266.33 200
	-66.6667 3266.33 333.333
	66.6667 3266.33 -333.333
	66.6667 3266.33 -200
	66.6667 3266.33 -66.6667
	66.6667 3266.33 66.6667
	66.6667 3266.33 200
	66.6667 3266.33 333.333
	200 3266.33 -333.333
	200 3266.33 -200
	200 3266.33 -66.6667
	200 3266.33 66.6667
	200 3266.33 200
	200 3266.33 333.333
	333.333 3266.33 -333.333
	333.333 3266.33 -200
	333.333 3266.33 -66.6667
	333.333 3266.33 66.6667
	333.333 3266.33 200
	333.333 3266.33 333.333
	-333.333 3399.67 -333.333
	-333.333 3399.67 -200
	-333.333 3399.67 -66.6667
	-333.333 3399.67 66.6667
	-333.333 3399.67 200
	-333.333 3399.67 333.333
	-200 3399.67 -333.333
	-200 3399.67 -200
	-200 3399.67 -66.6667
	-200 3399.67 66.6667
	-200 3399.67 200
	-200 3399.67 333.333
	-66.6667 3399.67 -333.333
	-66.6667 3399.67 -200
	-66.6667 3399.67 -66.6667
	-66.6667 3399.67 66.6667
	-66.6667 3399.67 200
	-66.6667 3399.67 333.333
	66.6667 3399.67 -333.333
	66.6667 3399.67 -200
	66.6667 3399.67 -66.6667
	66.6667 3399.67 66.6667
	66.6667 3399.67 200
	66.6667 3399.67 333.333
	200 3399.67 -333.333
	200 3399.67 -200
	200 3399.67 -66.6667
	200 3399.67 66.6667
	200 3399.67 200
	200 3399.67 333.333
	333.333 3399.67 -333.333
	333.333 3399.67 -200
	333.333 3399.67 -66.6667
	333.333 3399.67 66.6667
	333.333 3399.67 200
	333.333 3399.67 333.333
	-333.333 3533 -333.333
	-333.333 3533 -200
	-333.333 3533 -66.6667
	-333.333 3533 66.6667
	-333.333 3533 200
	-333.333 3533 333.333
	-200 3533 -333.333
	-200 3533 -200
	-200 3533 -66.6667
	-200 3533 66.6667
	-200 3533 200
	-200 3533 333.333
	-66.6667 3533 -333.333
	-66.6667 3533 -200
	-66.6667 3533 -66.6667
	-66.6667 3533 66.6667
	-66.6667 3533 200
	-66.6667 3533 333.333
	66.6667 3533 -333.333
	66.6667 3533 -200
	66.6667 3533 -66.6667
	66.6667 3533 66.6667
	66.6667 3533 200
	66.6667 3533 333.333
	200 3533 -333.333
	200 3533 -200
	200 3533 -66.6667
	200 3533 66.6667
	200 3533 200
	200 3533 333.333
	333.333 3533 -333.333
	333.333 3533 -200
	333.333 3533 -66.6667
	333.333 3533 66.6667
	333.333 3533 200
	333.333 3533 333.333
	-333.333 3666.33 -333.333
	-333.333 3666.33 -200
[...]
<PointData  Vectors="vector">
  <DataArray type="Float32" Name="Velocity" NumberOfComponents="3" format="ascii">
 2.32626e-11 -6.23684e-05 -1.32497e-11
 4.42189e-12 -6.23687e-05 1.18966e-10
 2.73484e-11 -6.2369e-05 2.39239e-10
 -3.79288e-11 -6.23689e-05 1.42977e-10
 -1.1378e-11 -6.23692e-05 7.74371e-11
 -9.70693e-11 -6.23695e-05 2.49874e-11
 -2.72747e-11 -6.23689e-05 -1.02016e-10
 -4.74152e-11 -6.2369e-05 2.64247e-11
 -1.67088e-11 -6.2369e-05 2.11744e-10
 2.96295e-11 -6.23688e-05 2.41621e-10
 5.29451e-11 -6.2369e-05 9.91552e-11
 2.16074e-11 -6.23692e-05 1.42623e-11
 -4.23452e-11 -6.23695e-05 3.93807e-11
 -5.35517e-11 -6.23693e-05 1.28474e-11
 3.1735e-11 -6.23691e-05 1.35727e-10
 5.24527e-11 -6.23687e-05 1.17101e-10
 2.4146e-11 -6.23688e-05 7.96217e-11
 4.42145e-11 -6.23689e-05 7.35101e-12
 -3.50936e-11 -6.23689e-05 7.3871e-11
 -3.98383e-11 -6.23687e-05 -7.03995e-13
 -4.60193e-11 -6.23685e-05 1.39728e-10
 -8.83363e-12 -6.23683e-05 1.64067e-10
 -2.97962e-11 -6.23685e-05 9.418e-11
 8.53144e-12 -6.23686e-05 5.7361e-12
 -6.06851e-11 -6.23688e-05 -7.79838e-11
 2.01717e-11 -6.23688e-05 1.22794e-11
 -9.99981e-12 -6.23688e-05 2.97953e-10
 -8.96161e-12 -6.23687e-05 1.59361e-10
 -1.59814e-11 -6.23687e-05 8.35105e-11
 -3.35305e-11 -6.23687e-05 7.65621e-11
 1.40622e-11 -6.23687e-05 4.55269e-11
 2.96619e-11 -6.23688e-05 4.45129e-11
 -3.13774e-11 -6.2369e-05 2.06802e-10
 2.278e-11 -6.23691e-05 2.28575e-10
 1.82323e-11 -6.23689e-05 3.81662e-11
 8.34404e-11 -6.23688e-05 6.28968e-11
 3.72136e-11 -0.000759576 -2.20252e-12
 -3.2827e-11 -0.000759576 2.94572e-11
 -2.16796e-11 -0.000759574 1.06511e-10
 6.60959e-12 -0.000759573 1.33165e-10
 2.96453e-11 -0.000759575 2.80521e-11
 -5.90219e-12 -0.000759574 -3.08991e-11
 -1.98021e-11 -0.000759574 -3.35097e-11
 -1.70578e-11 -0.000759575 6.30625e-11
 1.02978e-11 -0.000759574 1.02503e-10
 -2.87854e-11 -0.000759574 1.08614e-10
 -9.02704e-11 -0.000759575 1.05726e-11
 -1.33612e-11 -0.000759574 -5.32186e-11
 -2.73302e-11 -0.000759571 1.36766e-11
 -1.71694e-11 -0.000759573 3.26271e-11
 -2.51763e-11 -0.000759576 3.15636e-11
 2.65989e-11 -0.000759574 6.35559e-11
 1.24368e-11 -0.000759573 3.34984e-11
 6.73796e-12 -0.000759573 -4.29588e-11
 -2.3025e-11 -0.000759573 5.46588e-12
 -2.24359e-11 -0.000759575 5.24419e-11
 -5.88413e-11 -0.000759576 3.85687e-11
 1.2216e-12 -0.000759575 8.85328e-11
 -9.38379e-12 -0.000759575 5.4219e-11
 -6.31848e-12 -0.000759574 -4.81761e-11
 -1.08174e-11 -0.000759572 -2.07928e-11
 2.278e-11 -0.000759575 6.02092e-11
 -2.90687e-11 -0.000759575 1.18374e-10
 2.17642e-11 -0.000759574 6.92296e-11
 -1.14045e-11 -0.000759574 1.87675e-11
 -5.43706e-11 -0.000759576 -4.19993e-11
 -2.9577e-11 -0.000759572 3.03044e-11
 3.74388e-12 -0.000759573 2.91484e-11
 7.18668e-11 -0.000759573 5.559e-11
 -2.08303e-11 -0.000759572 9.40533e-11
 4.07709e-11 -0.000759574 5.10122e-11
 1.02257e-11 -0.000759576 -4.35746e-11
 2.41619e-12 -0.000994684 -3.50966e-11
 -4.91113e-11 -0.000994684 7.71394e-12
 1.73748e-11 -0.000994683 -1.99869e-11
 -1.67234e-11 -0.000994683 3.22405e-11
 1.28665e-11 -0.000994683 -1.31847e-11
 -8.77914e-12 -0.000994682 2.83076e-12
 2.3185e-11 -0.000994683 -4.01842e-12
 -3.95599e-11 -0.000994683 -4.14437e-11
 2.91113e-11 -0.000994682 4.30446e-11
 1.28386e-11 -0.000994683 -5.43722e-11
 1.8529e-11 -0.000994683 3.33508e-12
 -5.70914e-11 -0.000994682 -8.75239e-12
 -2.26965e-11 -0.00099468 -2.72509e-11
 -2.65019e-11 -0.000994681 -4.47376e-11
 -5.73437e-11 -0.000994683 -1.36327e-11
 -5.22806e-11 -0.000994683 1.57277e-11
 -8.07639e-11 -0.000994681 -1.03094e-11
 -8.74006e-12 -0.000994681 -1.8743e-11
 7.21294e-12 -0.000994682 -5.52039e-11
 -5.03386e-11 -0.000994683 9.74863e-12
 -2.82139e-11 -0.000994684 3.8372e-12
 -4.103e-12 -0.000994684 -3.99228e-11
 -1.03093e-10 -0.000994683 -3.17918e-12
 -5.61644e-11 -0.000994681 2.20605e-11
 -1.69492e-11 -0.000994681 -4.17948e-12
 2.60946e-11 -0.000994683 -6.26366e-11
 2.83526e-11 -0.000994683 4.24715e-11
 5.8489e-11 -0.000994682 -7.96641e-12
 3.15396e-12 -0.000994682 -2.89094e-11
 -5.60794e-11 -0.000994683 -4.37304e-11
 -1.79406e-11 -0.00099468 -3.20576e-12
 9.73965e-11 -0.000994681 -6.7188e-11
 -4.85357e-11 -0.000994681 -4.87703e-11
 -2.93012e-11 -0.00099468 -3.92501e-11
 6.22697e-11 -0.000994682 -1.73868e-11
 4.38676e-11 -0.000994684 2.85627e-11
 -2.90798e-11 -3.91084e-05 2.00734e-11
 -4.96582e-11 -3.91073e-05 2.26182e-11
 -1.96915e-11 -3.91088e-05 1.52969e-11
 -4.83056e-11 -3.91093e-05 -2.12426e-11
 -4.90217e-11 -3.91091e-05 2.47661e-11
 -1.56691e-11 -3.91119e-05 -1.05353e-11
 -4.82126e-11 -3.91095e-05 -6.27326e-11
 -2.38633e-11 -3.91082e-05 3.86986e-11
 -2.70953e-11 -3.91088e-05 2.03438e-11
 -9.64132e-12 -3.91084e-05 -1.73891e-12
 -3.21622e-11 -3.91083e-05 2.39494e-11
 -1.5302e-10 -3.9111e-05 -7.08771e-12
 -6.18049e-13 -3.91119e-05 -5.09002e-12
 -9.8591e-12 -3.91105e-05 -1.84376e-11
 -3.73967e-11 -3.9108e-05 -1.74346e-11
 -4.68634e-11 -3.91082e-05 1.07692e-11
 -2.63551e-11 -3.91107e-05 -3.58538e-11
 -4.9629e-11 -3.91107e-05 3.79434e-11
 -1.14584e-11 -3.911e-05 2.11432e-11
 -6.71866e-11 -3.91082e-05 -4.06882e-11
 -1.18842e-12 -3.91071e-05 -9.68545e-12
 -1.17112e-11 -3.91078e-05 -2.33328e-12
 -2.59005e-12 -3.91082e-05 7.017e-12
 -5.64453e-11 -3.91105e-05 1.53024e-11
 -2.06571e-11 -3.91105e-05 -1.63232e-11
 -3.04373e-11 -3.91074e-05 -5.43198e-11
 -4.75922e-12 -3.91085e-05 1.26954e-11
 -8.06311e-11 -3.91093e-05 -4.2258e-11
 -2.25878e-11 -3.91096e-05 4.39864e-13
 -3.32429e-11 -3.91088e-05 3.84243e-11
 2.34433e-11 -3.91104e-05 9.70247e-12
 6.92458e-11 -3.91093e-05 -9.60086e-13
 -4.68174e-11 -3.91099e-05 -8.50781e-11
 8.10831e-11 -3.91104e-05 -4.45696e-11
 -5.2788e-11 -3.91088e-05 -1.03866e-11
 5.3058e-11 -3.91082e-05 1.78426e-11
 3.32365e-11 -0.00101665 -9.14149e-12
 5.18924e-11 -0.00101665 2.15807e-13
 -2.58288e-13 -0.00101665 -7.34839e-12
 5.38274e-11 -0.00101665 -2.95705e-11
 5.53364e-11 -0.00101665 3.54257e-11
 4.16754e-11 -0.00101665 9.14975e-13
 -8.03808e-12 -0.00101665 -1.84853e-11
 3.96465e-11 -0.00101665 4.55258e-11
 1.92226e-11 -0.00101665 -2.73854e-11
 1.02885e-11 -0.00101665 -2.05832e-11
 -4.6141e-12 -0.00101665 1.6834e-11
 -7.87253e-12 -0.00101665 -2.25815e-11
 -2.87968e-11 -0.00101665 -2.10976e-11
 -7.22257e-11 -0.00101665 5.04135e-11
 -7.04791e-11 -0.00101665 -1.34357e-11
 -6.27728e-11 -0.00101665 -3.55947e-11
 -6.07622e-11 -0.00101665 4.02578e-12
 -5.6439e-11 -0.00101665 -2.81531e-11
 -2.50851e-11 -0.00101665 -1.80507e-11
 -6.56283e-11 -0.00101665 4.58322e-11
 -4.57202e-11 -0.00101665 -6.49451e-12
 -1.7848e-11 -0.00101665 -1.67897e-12
 -2.22367e-11 -0.00101665 -1.2889e-11
 -2.62981e-11 -0.00101665 -2.75288e-11
 3.41111e-11 -0.00101665 6.56648e-11
 7.07725e-13 -0.00101665 -3.59488e-11
 5.06835e-11 -0.00101665 -1.83337e-11
 -7.03697e-11 -0.00101665 -1.85004e-11
 -2.56216e-11 -0.00101665 -6.7164e-11
 -4.32079e-11 -0.00101665 2.08329e-11
 -4.18122e-11 -0.00101665 4.29026e-11
 -9.98827e-12 -0.00101665 -2.80287e-11
 -2.82533e-11 -0.00101665 -3.44005e-11
 3.71294e-11 -0.00101665 -3.7605e-11
 -2.52644e-11 -0.00101665 1.11231e-11
 -2.44378e-11 -0.00101665 -4.00865e-11
 -4.66532e-11 -0.000535477 -3.75859e-11
 1.02468e-11 -0.000535479 2.29791e-11
 -4.88873e-11 -0.000535485 -6.64491e-11
 -8.79464e-12 -0.000535484 -5.26457e-12
 -4.67625e-11 -0.00053548 2.19869e-11
 -7.06925e-11 -0.000535481 8.14193e-12
 1.55359e-12 -0.000535485 2.09233e-11
 3.78326e-11 -0.000535482 -2.14147e-11
 -2.47449e-12 -0.000535484 -7.27464e-11
 -3.50798e-12 -0.000535483 -4.98e-11
 3.41724e-11 -0.000535481 5.12693e-12
 3.56061e-11 -0.000535483 6.18337e-11
 -8.31284e-12 -0.000535492 -1.26942e-11
 -6.36148e-11 -0.000535488 -2.89073e-11
 9.82169e-13 -0.000535482 1.65061e-11
 -1.04381e-11 -0.000535485 -1.00609e-11
 -1.71648e-11 -0.000535486 9.02414e-12
 3.23783e-12 -0.000535486 -2.98213e-11
 1.62268e-11 -0.000535485 7.40248e-12
 -1.63194e-11 -0.000535482 -6.22397e-12
 2.25333e-11 -0.00053548 -5.38978e-11
 -4.59666e-11 -0.00053548 -3.11125e-11
 1.10069e-11 -0.000535482 1.63851e-11
 -2.13734e-12 -0.000535485 3.77512e-11
 7.84392e-12 -0.000535486 -2.7066e-11
 -1.52401e-11 -0.000535481 -7.88665e-12
 1.59128e-11 -0.000535484 -2.80031e-11
 3.03671e-11 -0.000535484 -9.65397e-12
 -4.26635e-11 -0.000535483 2.28243e-11
 3.39556e-11 -0.000535482 2.45358e-12
 3.18267e-11 -0.000535488 -3.41087e-11
 3.4936e-11 -0.000535486 -3.63091e-11
 -1.48702e-11 -0.000535486 -1.33569e-11
 3.98352e-11 -0.00053549 8.9394e-12
 5.73321e-11 -0.000535484 3.83411e-11
 -9.61847e-12 -0.000535479 -2.84548e-11
 1.50502e-11 -0.000449324 -9.50941e-12
 -5.73634e-11 -0.000449323 -1.33786e-11
 1.99059e-11 -0.000449321 -1.53121e-11
 -4.84658e-11 -0.000449321 -8.63962e-11
 2.65531e-11 -0.000449323 -2.07353e-11
 -4.21587e-11 -0.000449323 4.86372e-11
 7.43938e-12 -0.000449321 -3.47602e-11
 2.54616e-11 -0.000449322 2.59412e-11
 -2.11095e-11 -0.000449321 -6.51714e-11
 3.79663e-11 -0.000449322 -4.77472e-11
 8.21626e-12 -0.000449323 5.86845e-12
 2.3075e-11 -0.000449321 2.16695e-11
 3.67191e-12 -0.000449319 1.10798e-11
 -3.13077e-11 -0.00044932 -9.60733e-12
 -3.01978e-12 -0.000449321 -1.67562e-11
 -1.90877e-11 -0.000449321 -7.30855e-11
 4.34207e-12 -0.00044932 -1.62822e-11
 1.39802e-11 -0.000449319 1.29233e-11
 3.33521e-11 -0.000449321 -7.78604e-12
 3.43167e-11 -0.000449322 -4.15865e-11
 1.8191e-11 -0.000449322 -5.93053e-11
 8.08476e-12 -0.000449323 -1.38219e-11
 -2.76672e-11 -0.000449322 -1.72888e-11
 3.69426e-11 -0.00044932 3.73896e-11
 -6.8134e-12 -0.00044932 -1.09448e-12
 7.25339e-11 -0.000449323 -4.62173e-11
 1.55285e-11 -0.000449321 -2.40333e-11
 4.03586e-11 -0.000449321 1.21587e-12
 -5.17724e-11 -0.000449322 1.26201e-11
 -1.05635e-11 -0.000449321 -5.61042e-11
 -3.38551e-12 -0.000449319 -8.45062e-13
 -7.2385e-12 -0.00044932 -3.38282e-12
 -5.9992e-12 -0.00044932 -3.51841e-11
 -6.90007e-12 -0.000449319 -1.39887e-11
 5.40605e-11 -0.000449321 -1.98598e-11
 -5.7777e-12 -0.000449323 -5.15823e-11
 1.2635e-11 -0.000485716 -3.84063e-11
 1.06064e-11 -0.000485716 -1.87701e-11
 -1.25329e-11 -0.000485716 6.19161e-12
 -2.03073e-11 -0.000485716 3.6647e-11
 -1.37595e-11 -0.000485716 2.21178e-11
 -2.37967e-11 -0.000485716 -1.46384e-11
 -4.23047e-12 -0.000485715 -1.14292e-11
 -2.80087e-12 -0.000485716 3.05208e-11
 7.06503e-12 -0.000485717 8.22887e-12
 -2.66165e-11 -0.000485716 -3.67911e-11
 4.90536e-12 -0.000485717 8.87757e-12
 2.09199e-11 -0.000485716 2.44477e-12
 -4.08219e-12 -0.000485715 -2.80768e-11
 7.19734e-12 -0.000485716 2.11524e-11
 2.92478e-11 -0.000485718 -1.51645e-11
 9.73754e-12 -0.000485716 4.11298e-11
 -7.86252e-12 -0.000485716 1.33939e-11
 9.30597e-12 -0.000485716 -2.18667e-11
 -2.65409e-12 -0.000485716 -2.04312e-11
 -5.40373e-12 -0.000485717 -7.7092e-12
 6.5649e-12 -0.000485718 1.52818e-11
 1.20933e-11 -0.000485717 2.50241e-11
 2.59903e-11 -0.000485716 5.29361e-13
 1.00043e-12 -0.000485716 -9.61864e-12
 6.46357e-12 -0.000485716 -1.90142e-11
 1.83036e-11 -0.000485717 5.95622e-12
 -2.62589e-11 -0.000485718 -1.92605e-11
 2.91674e-11 -0.000485717 1.51131e-11
 8.42019e-13 -0.000485717 3.93988e-11
 -5.34009e-12 -0.000485717 -2.19359e-11
 -2.37375e-13 -0.000485716 -4.02623e-11
 -2.40078e-11 -0.000485717 1.07701e-11
 -4.18712e-12 -0.000485718 -3.09376e-11
 -1.2076e-11 -0.000485716 1.68232e-11
 -7.46372e-12 -0.000485717 5.19066e-11
 1.1216e-11 -0.000485718 -1.08628e-11
 6.9785e-12 -0.000194831 1.65545e-11
 -1.04984e-11 -0.00019483 1.87094e-12
 -1.78547e-11 -0.000194831 -1.3609e-11
 -1.97637e-11 -0.000194832 4.77423e-11
 1.70501e-11 -0.00019483 1.31535e-11
 -1.7648e-11 -0.00019483 -3.95438e-12
 -2.44666e-11 -0.000194831 -2.48816e-11
 -1.60508e-12 -0.00019483 3.08445e-11
 2.7063e-12 -0.00019483 8.27068e-12
 4.55251e-12 -0.000194831 2.81251e-11
 -6.4267e-12 -0.00019483 -3.63942e-11
 3.4723e-12 -0.00019483 6.9268e-11
 1.09942e-11 -0.000194832 -1.1152e-11
 -6.87097e-12 -0.000194831 3.26304e-12
 -6.58495e-12 -0.000194829 3.57658e-11
 1.2087e-11 -0.000194831 3.53404e-11
 -4.23391e-12 -0.000194831 5.28685e-11
 4.20979e-12 -0.00019483 -2.73759e-11
 -4.46664e-12 -0.000194831 -1.88791e-11
 3.69982e-12 -0.00019483 1.17381e-11
 9.77445e-12 -0.000194829 4.31343e-11
 -1.36945e-11 -0.00019483 6.94354e-12
 2.98175e-12 -0.00019483 1.39122e-11
 2.78673e-11 -0.00019483 2.67438e-11
 -1.93729e-11 -0.000194831 2.42736e-12
 -5.68511e-12 -0.00019483 2.7759e-11
 -1.20571e-11 -0.00019483 1.32373e-11
 -2.87278e-12 -0.000194831 3.47307e-11
 -8.6817e-12 -0.000194831 -2.45585e-11
 3.115e-12 -0.000194829 3.35966e-11
 6.61545e-12 -0.000194832 8.68333e-12
 5.77638e-14 -0.000194831 1.41754e-11
 5.9178e-12 -0.000194831 1.63984e-11
 -3.53444e-12 -0.000194832 2.8491e-11
 -6.50097e-12 -0.00019483 4.53316e-11
 -9.39798e-12 -0.000194829 -2.22762e-11
 1.3155e-11 -0.000364605 4.31317e-12
 5.66306e-12 -0.000364607 1.35558e-11
 2.23473e-12 -0.000364608 2.44719e-11
 7.61483e-12 -0.000364607 1.76205e-11
 -1.60693e-11 -0.000364607 2.93834e-11
 -7.86038e-12 -0.000364608 -1.14242e-11
 3.30913e-12 -0.000364606 -4.42048e-11
 4.50306e-12 -0.000364606 4.08219e-11
 -4.80424e-12 -0.000364607 3.65416e-11
 -4.62594e-12 -0.000364606 4.6244e-11
 2.60807e-14 -0.000364607 1.28914e-11
 1.96102e-11 -0.000364607 -2.42351e-12
 -1.27818e-11 -0.000364607 -2.20062e-11
 5.13817e-12 -0.000364607 3.73114e-11
 3.54571e-12 -0.000364606 4.04344e-11
 1.55063e-13 -0.000364606 1.19882e-11
 1.10268e-11 -0.000364606 3.12983e-11
 2.08534e-11 -0.000364607 2.79887e-12
 -2.75681e-12 -0.000364607 -4.40607e-11
 1.6507e-12 -0.000364607 5.02234e-11
 5.83423e-12 -0.000364607 4.47248e-11
 7.28943e-12 -0.000364607 9.34918e-12
 2.89693e-11 -0.000364607 3.08957e-11
 2.17778e-12 -0.000364607 2.23431e-12
 7.3618e-12 -0.000364607 4.88911e-12
 -4.78838e-12 -0.000364606 6.39171e-12
 7.26398e-12 -0.000364607 2.48726e-11
 1.63066e-12 -0.000364606 3.47697e-11
 1.09272e-12 -0.000364606 1.86709e-11
 2.05194e-13 -0.000364607 1.08305e-11
 6.79481e-12 -0.000364607 2.11998e-13
 8.42215e-12 -0.000364607 3.2483e-11
 1.20234e-11 -0.000364606 3.11853e-11
 5.61678e-12 -0.000364606 2.77151e-11
 9.16531e-12 -0.000364606 3.36631e-11
 1.57498e-11 -0.000364606 -1.77802e-11
 4.83232e-12 -0.000193063 -4.89379e-12
 -2.57823e-11 -0.000193062 1.78666e-11
 9.51953e-12 -0.000193062 1.5066e-11
 -9.34933e-12 -0.000193062 1.38859e-11
 -1.19656e-12 -0.000193062 -5.09007e-13
 6.6229e-12 -0.000193061 1.38785e-12
 -5.72986e-12 -0.000193062 -2.15618e-11
 -9.29797e-13 -0.000193062 1.46477e-11
 -1.22515e-11 -0.000193063 1.77594e-11
 4.59737e-12 -0.000193062 9.25655e-12
 9.28228e-12 -0.000193062 3.24736e-11
 7.10702e-12 -0.000193063 2.07315e-12
 -1.40981e-11 -0.000193061 -8.94759e-12
 1.44531e-13 -0.000193062 3.29423e-12
 -2.72344e-12 -0.000193063 3.21316e-11
 -1.64761e-12 -0.000193062 3.84456e-11
 -6.51498e-12 -0.000193063 7.13152e-12
 -6.72572e-12 -0.000193064 -5.56343e-12
 -8.84862e-12 -0.000193061 4.2723e-12
 6.7354e-12 -0.000193062 1.20793e-11
 -6.82011e-12 -0.000193063 2.42271e-11
 6.23099e-13 -0.000193062 1.65904e-11
 -4.74726e-12 -0.000193063 1.27494e-11
 -5.64712e-13 -0.000193063 -8.69464e-12
 -5.33412e-12 -0.000193062 -1.56276e-11
 -6.11531e-12 -0.000193062 4.73823e-12
 -7.69943e-13 -0.000193063 1.68017e-11
 -5.68068e-12 -0.000193062 1.55687e-11
 7.74555e-13 -0.000193062 5.56733e-11
 1.20374e-12 -0.000193063 -4.94343e-12
 -6.51913e-13 -0.000193062 -3.11896e-11
 7.34192e-12 -0.000193062 2.55112e-11
 5.67072e-12 -0.000193063 2.87738e-11
 -1.24422e-12 -0.000193062 1.28923e-11
 3.04129e-12 -0.000193062 5.09611e-11
 6.33093e-12 -0.000193063 -3.75788e-12
 -2.93934e-12 -0.00109394 5.90401e-12
 -4.42413e-12 -0.00109394 -3.37997e-12
 4.16698e-12 -0.00109394 2.62865e-12
 3.99104e-15 -0.00109394 6.45387e-13
 -1.24608e-12 -0.00109394 1.398e-11
 -3.05012e-13 -0.00109394 -4.7807e-12
 -6.37997e-12 -0.00109394 -8.39156e-12
 -1.51485e-11 -0.00109394 9.1122e-12
 -1.19192e-11 -0.00109394 1.49016e-11
 -1.61931e-11 -0.00109394 -6.54199e-13
 -1.95624e-11 -0.00109394 2.02427e-11
 -1.66527e-11 -0.00109394 -8.4541e-12
 -2.30603e-11 -0.00109394 -1.11507e-11
 -6.91312e-12 -0.00109394 -8.72513e-14
 -1.00673e-11 -0.00109394 2.11665e-11
 -3.36147e-12 -0.00109394 9.53869e-12
 -4.25239e-12 -0.00109394 2.06512e-11
 8.25216e-12 -0.00109394 -1.59974e-12
 -2.99111e-11 -0.00109394 -1.53786e-11
 -1.81901e-11 -0.00109394 4.18728e-12
 -1.2973e-11 -0.00109394 2.07348e-11
 -2.22135e-11 -0.00109394 1.85945e-11
 4.51857e-12 -0.00109394 1.58667e-11
 -7.72861e-12 -0.00109394 -8.23538e-12
 -1.01251e-11 -0.00109394 6.70736e-12
 -1.13091e-11 -0.00109394 7.2768e-12
 -7.08392e-13 -0.00109394 1.91106e-11
 8.55584e-12 -0.00109394 2.41568e-11
 -5.16467e-13 -0.00109394 2.48546e-12
 -7.0529e-12 -0.00109394 -9.88251e-12
 7.02971e-12 -0.00109394 -1.37898e-11
 6.3556e-12 -0.00109394 5.69729e-12
 -2.38042e-12 -0.00109394 3.65645e-11
 -3.56538e-12 -0.00109394 3.72857e-11
 -4.88721e-12 -0.00109394 5.2387e-12
 8.37292e-12 -0.00109394 -7.04675e-12
 -2.57155e-12 -0.000787824 -9.56061e-12
 -8.11081e-12 -0.000787824 1.79176e-11
 3.18932e-12 -0.000787823 1.96089e-12
 -8.59234e-12 -0.000787823 8.29817e-12
 1.69997e-13 -0.000787823 2.19866e-11
 4.83131e-14 -0.000787823 2.25038e-12
 -1.22556e-11 -0.000787823 -1.83118e-11
 -1.78962e-11 -0.000787824 3.29518e-12
 -8.72159e-12 -0.000787824 2.8367e-11
 -6.70812e-12 -0.000787823 3.04615e-11
 -2.3099e-11 -0.000787824 3.55616e-12
 -7.65987e-12 -0.000787824 6.32214e-12
 -2.64571e-11 -0.000787823 -1.05829e-11
 -2.23232e-11 -0.000787824 2.62274e-11
 -2.68032e-11 -0.000787824 2.07288e-11
 -1.31503e-11 -0.000787823 9.2563e-12
 -1.80052e-12 -0.000787824 2.23479e-11
 -1.28e-11 -0.000787825 -3.46817e-12
 -2.40979e-11 -0.000787823 -8.19888e-12
 -2.35752e-11 -0.000787824 9.10422e-12
 -2.17123e-11 -0.000787824 2.47882e-11
 -1.23488e-11 -0.000787823 2.66915e-11
 -1.2861e-11 -0.000787824 5.25335e-12
 -5.87895e-12 -0.000787825 1.08334e-11
 -1.97451e-11 -0.000787824 1.54482e-11
 -2.37605e-12 -0.000787824 1.2533e-11
 -2.28709e-12 -0.000787824 1.92341e-11
 -8.23947e-12 -0.000787823 3.11012e-11
 -7.74334e-12 -0.000787823 4.8573e-12
 -7.69734e-12 -0.000787824 -2.74738e-12
 -1.27134e-12 -0.000787824 -1.33987e-11
 2.31018e-12 -0.000787824 7.05625e-12
 -1.20702e-12 -0.000787824 3.58771e-11
 -3.77012e-12 -0.000787823 1.7175e-11
 9.15626e-13 -0.000787823 4.07069e-11
 -2.04106e-12 -0.000787824 4.96165e-12
 -9.72909e-12 -0.000543789 7.32598e-12
 -7.77982e-12 -0.00054379 -1.25498e-11
 3.46627e-12 -0.000543792 -1.12217e-12
 -3.4081e-12 -0.000543792 2.22264e-12
 -1.74432e-14 -0.000543791 2.63877e-12
 6.22577e-13 -0.000543792 6.08997e-13
 1.14553e-12 -0.000543789 -8.69286e-12
 -8.41278e-12 -0.000543789 -1.20593e-11
 -8.92708e-12 -0.000543791 9.41073e-12
 -2.09063e-12 -0.00054379 7.77928e-12
 -1.09663e-11 -0.000543789 4.63974e-12
 -9.82556e-12 -0.00054379 1.90079e-12
 -2.10362e-11 -0.00054379 3.00193e-12
 -7.99322e-12 -0.00054379 6.67761e-12
 -8.41854e-12 -0.00054379 -4.64742e-12
 -1.31629e-11 -0.00054379 -5.41085e-12
 -1.43747e-11 -0.000543789 -1.1808e-12
 -1.28789e-11 -0.000543789 8.41375e-12
 -1.06078e-11 -0.000543789 -1.73577e-11
 -1.81893e-11 -0.00054379 -9.94239e-12
 -8.26376e-12 -0.00054379 1.65099e-11
 -1.28885e-11 -0.000543791 1.03855e-11
 -9.46586e-13 -0.00054379 -1.58193e-12
 -1.16255e-11 -0.000543789 1.02492e-11
 -1.85933e-11 -0.00054379 -3.96061e-12
 4.29607e-12 -0.000543788 8.69179e-12
 -6.58278e-12 -0.00054379 1.07521e-11
 2.40009e-12 -0.000543791 2.62732e-13
 -1.59033e-12 -0.000543789 -1.19309e-12
 4.4139e-12 -0.000543789 9.10148e-13
 7.78089e-12 -0.000543791 7.77612e-13
 -4.14686e-12 -0.00054379 5.92399e-12
 -4.68119e-12 -0.00054379 6.58524e-12
 -2.49247e-12 -0.000543791 8.60142e-13
 -1.53676e-12 -0.00054379 -1.66356e-12
 2.06779e-12 -0.00054379 1.01811e-11
 -1.08891e-12 3.87957e-05 -5.39715e-12
 -5.96318e-12 3.87966e-05 6.93441e-12
 -2.80093e-12 3.87977e-05 -1.97358e-11
 -2.1613e-13 3.8797e-05 -1.16508e-11
 -5.47271e-12 3.87974e-05 -1.00585e-11
 -1.16198e-12 3.87982e-05 2.8103e-12
 -3.02359e-12 3.87962e-05 -5.69247e-12
 -1.81632e-12 3.87966e-05 -2.68984e-12
 7.95258e-12 3.87971e-05 -1.96014e-11
 -4.61045e-12 3.87966e-05 -9.14211e-12
 -6.95799e-12 3.87971e-05 -5.21071e-12