<?xml version="1.0"?>
<!-- time 73.4492-->
<VTKFile type="UnstructuredGrid" version="0.1" byte_order="LittleEndian">
<UnstructuredGrid>
<Piece NumberOfPoints="3240" NumberOfCells="0">
<Points>
  <DataArray type="Float32" Name="Position" NumberOfComponents="3" format="ascii">
	-333.333 2066.26 -333.333
	-333.333 2066.26 -200
	-333.333 2066.23 -66.6667
	-333.333 2066.23 66.6667
	-333.333 2066.26 200
	-333.333 2066.26 333.333
	-200 2066.26 -333.333
	-200 2066.17 -200
	-200 2066.1 -66.6667
	-200 2066.1 66.6667
	-200 2066.17 200
	-200 2066.26 333.333
	-66.6667 2066.23 -333.333
	-66.6667 2066.1 -200
	-66.6667 2066.02 -66.6667
	-66.6667 2066.02 66.6667
	-66.6667 2066.1 200
	-66.6667 2066.23 333.333
	66.6667 2066.23 -333.333
	66.6667 2066.1 -200
	66.6667 2066.02 -66.6667
	66.6667 2066.02 66.6667
	66.6667 2066.1 200
	66.6667 2066.23 333.333
	200 2066.26 -333.333
	200 2066.17 -200
	200 2066.1 -66.6667
	200 2066.1 66.6667
	200 2066.17 200
	200 2066.26 333.333
	333.333 2066.26 -333.333
	333.333 2066.26 -200
	333.333 2066.23 -66.6667
	333.333 2066.23 66.6667
	333.333 2066.26 200
	333.333 2066.26 333.333
	-333.333 2199.64 -333.333
	-333.333 2199.62 -200
	-333.333 2199.65 -66.6667
	-333.333 2199.65 66.6667
	-333.333 2199.62 200
	-333.333 2199.64 333.333
	-200 2199.62 -333.333
	-200 2199.64 -200
	-200 2199.61 -66.6667
	-200 2199.61 66.6667
	-200 2199.64 200
	-200 2199.62 333.333
	-66.6667 2199.65 -333.333
	-66.6667 2199.61 -200
	-66.6667 2199.54 -66.6667
	-66.6667 2199.54 66.6667
	-66.6667 2199.61 200
	-66.6667 2199.65 333.333
	66.6667 2199.65 -333.333
	66.6667 2199.61 -200
	66.6667 2199.54 -66.6667
	66.6667 2199.54 66.6667
	66.6667 2199.61 200
	66.6667 2199.65 333.333
	200 2199.62 -333.333
	200 2199.64 -200
	200 2199.61 -66.6667
	200 2199.61 66.6667
	200 2199.64 200
	200 2199.62 333.333
	333.333 2199.64 -333.333
	333.333 2199.62 -200
	333.333 2199.65 -66.6667
	333.333 2199.65 66.6667
	333.333 2199.62 200
	333.333 2199.64 333.333
	-333.333 2332.97 -333.333
	-333.333 2332.97 -200
	-333.333 2332.98 -66.6667
	-333.333 2332.98 66.6667
	-333.333 2332.97 200
	-333.333 2332.97 333.333
	-200 2332.97 -333.333
	-200 2332.99 -200
	-200 2332.98 -66.6667
	-200 2332.98 66.6667
	-200 2332.99 200
	-200 2332.97 333.333
	-66.6667 2332.98 -333.333
	-66.6667 2332.98 -200
	-66.6667 2332.89 -66.6667
	-66.6667 2332.89 66.6667
	-66.6667 2332.98 200
	-66.6667 2332.98 333.333
	66.6667 2332.98 -333.333
	66.6667 2332.98 -200
	66.6667 2332.89 -66.6667
	66.6667 2332.89 66.6667
	66.6667 2332.98 200
	66.6667 2332.98 333.333
	200 2332.97 -333.333
	200 2332.99 -200
	200 2332.98 -66.6667
	200 2332.98 66.6667
	200 2332.99 200
	200 2332.97 333.333
	333.333 2332.97 -333.333
	333.333 2332.97 -200
	333.333 2332.98 -66.6667
	333.333 2332.98 66.6667
	333.333 2332.97 200
	333.333 2332.97 333.333
	-333.333 2466.33 -333.333
	-333.333 2466.32 -200
	-333.333 2466.32 -66.6667
	-333.333 2466.32 66.6667
	-333.333 2466.32 200
	-333.333 2466.33 333.333
	-200 2466.32 -333.333
	-200 2466.33 -200
	-200 2466.32 -66.6667
	-200 2466.32 66.6667
	-200 2466.33 200
	-200 2466.32 333.333
	-66.6667 2466.32 -333.333
	-66.6667 2466.32 -200
	-66.6667 2466.31 -66.6667
	-66.6667 2466.31 66.6667
	-66.6667 2466.32 200
	-66.6667 2466.32 333.333
	66.6667 2466.32 -333.333
	66.6667 2466.32 -200
	66.6667 2466.31 -66.6667
	66.6667 2466.31 66.6667
	66.6667 2466.32 200
	66.6667 2466.32 333.333
	200 2466.32 -333.333
	200 2466.33 -200
	200 2466.32 -66.6667
	200 2466.32 66.6667
	200 2466.33 200
	200 2466.32 333.333
	333.333 2466.33 -333.333
	333.333 2466.32 -200
	333.333 2466.32 -66.6667
	333.333 2466.32 66.6667
	333.333 2466.32 200
	333.333 2466.33 333.333
	-333.333 2599.67 -333.333
	-333.333 2599.65 -200
	-333.333 2599.67 -66.6667
	-333.333 2599.67 66.6667
	-333.333 2599.65 200
	-333.333 2599.67 333.333
	-200 2599.65 -333.333
	-200 2599.67 -200
	-200 2599.67 -66.6667
	-200 2599.67 66.6667
	-200 2599.67 200
	-200 2599.65 333.333
	-66.6667 2599.67 -333.333
	-66.6667 2599.67 -200
	-66.6667 2599.66 -66.6667
	-66.6667 2599.66 66.6667
	-66.6667 2599.67 200
	-66.6667 2599.67 333.333
	66.6667 2599.67 -333.333
	66.6667 2599.67 -200
	66.6667 2599.66 -66.6667
	66.6667 2599.66 66.6667
	66.6667 2599.67 200
	66.6667 2599.67 333.333
	200 2599.65 -333.333
	200 2599.67 -200
	200 2599.67 -66.6667
	200 2599.67 66.6667
	200 2599.67 200
	200 2599.65 333.333
	333.333 2599.67 -333.333
	333.333 2599.65 -200
	333.333 2599.67 -66.6667
	333.333 2599.67 66.6667
	333.333 2599.65 200
	333.333 2599.67 333.333
	-333.333 2733 -333.333
	-333.333 2733 -200
	-333.333 2733 -66.6667
	-333.333 2733 66.6667
	-333.333 2733 200
	-333.333 2733 333.333
	-200 2733 -333.333
	-200 2733 -200
	-200 2733.01 -66.6667
	-200 2733.01 66.6667
	-200 2733 200
	-200 2733 333.333
	-66.6667 2733 -333.333
	-66.6667 2733.01 -200
	-66.6667 2733 -66.6667
	-66.6667 2733 66.6667
	-66.6667 2733.01 200
	-66.6667 2733 333.333
	66.6667 2733 -333.333
	66.6667 2733.01 -200
	66.6667 2733 -66.6667
	66.6667 2733 66.6667
	66.6667 2733.01 200
	66.6667 2733 333.333
	200 2733 -333.333
	200 2733 -200
	200 2733.01 -66.6667
	200 2733.01 66.6667
	200 2733 200
	200 2733 333.333
	333.333 2733 -333.333
	333.333 2733 -200
	333.333 2733 -66.6667
	333.333 2733 66.6667
	333.333 2733 200
	333.333 2733 333.333
	-333.333 2866.33 -333.333
	-333.333 2866.34 -200
	-333.333 2866.33 -66.6667
	-333.333 2866.33 66.6667
	-333.333 2866.34 200
	-333.333 2866.33 333.333
	-200 2866.34 -333.333
	-200 2866.34 -200
	-200 2866.34 -66.6667
	-200 2866.34 66.6667
	-200 2866.34 200
	-200 2866.34 333.333
	-66.6667 2866.33 -333.333
	-66.6667 2866.34 -200
	-66.6667 2866.33 -66.6667
	-66.6667 2866.33 66.6667
	-66.6667 2866.34 200
	-66.6667 2866.33 333.333
	66.6667 2866.33 -333.333
	66.6667 2866.34 -200
	66.6667 2866.33 -66.6667
	66.6667 2866.33 66.6667
	66.6667 2866.34 200
	66.6667 2866.33 333.333
	200 2866.34 -333.333
	200 2866.34 -200
	200 2866.34 -66.6667
	200 2866.34 66.6667
	200 2866.34 200
	200 2866.34 333.333
	333.333 2866.33 -333.333
	333.333 2866.34 -200
	333.333 2866.33 -66.6667
	333.333 2866.33 66.6667
	333.333 2866.34 200
	333.333 2866.33 333.333
	-333.333 2999.66 -333.333
	-333.333 2999.68 -200
	-333.333 2999.67 -66.6667
	-333.333 2999.67 66.6667
	-333.333 2999.68 200
	-333.333 2999.66 333.333
	-200 2999.68 -333.333
	-200 2999.67 -200
	-200 2999.67 -66.6667
	-200 2999.67 66.6667
	-200 2999.67 200
	-200 2999.68 333.333
	-66.6667 2999.67 -333.333
	-66.6667 2999.67 -200
	-66.6667 2999.66 -66.6667
	-66.6667 2999.66 66.6667
	-66.6667 2999.67 200
	-66.6667 2999.67 333.333
	66.6667 2999.67 -333.333
	66.6667 2999.67 -200
	66.6667 2999.66 -66.6667
	66.6667 2999.66 66.6667
	66.6667 2999.67 200
	66.6667 2999.67 333.333
	200 2999.68 -333.333
	200 2999.67 -200
	200 2999.67 -66.6667
	200 2999.67 66.6667
	200 2999.67 200
	200 2999.68 333.333
	333.333 2999.66 -333.333
	333.333 2999.68 -200
	333.333 2999.67 -66.6667
	333.333 2999.67 66.6667
	333.333 2999.68 200
	333.333 2999.66 333.333
	-333.333 3133.01 -333.333
	-333.333 3133.01 -200
	-333.333 3133 -66.6667
	-333.333 3133 66.6667
	-333.333 3133.01 200
	-333.333 3133.01 333.333
	-200 3133.01 -333.333
	-200 3133 -200
	-200 3133 -66.6667
	-200 3133 66.6667
	-200 3133 200
	-200 3133.01 333.333
	-66.6667 3133 -333.333
	-66.6667 3133 -200
	-66.6667 3133 -66.6667
	-66.6667 3133 66.6667
	-66.6667 3133 200
	-66.6667 3133 333.333
	66.6667 3133 -333.333
	66.6667 3133 -200
	66.6667 3133 -66.6667
	66.6667 3133 66.6667
	66.6667 3133 200
	66.6667 3133 333.333
	200 3133.01 -333.333
	200 3133 -200
	200 3133 -66.6667
	200 3133 66.6667
	200 3133 200
	200 3133.01 333.333
	333.333 3133.01 -333.333
	333.333 3133.01 -200
	333.333 3133 -66.6667
	333.333 3133 66.6667
	333.333 3133.01 200
	333.333 3133.01 333.333
	-333.333 3266.34 -333.333
	-333.333 3266.34 -200
	-333.333 3266.34 -66.6667
	-333.333 3266.34 66.6667
	-333.333 3266.34 200
	-333.333 3266.34 333.333
	-200 3266.34 -333.333
	-200 3266.34 -200
	-200 3266.34 -66.6667
	-200 3266.34 66.6667
	-200 3266.34 200
	-200 3266.34 333.333
	-66.6667 3266.34 -333.333
	-66.6667 3266.34 -200
	-66.6667 3266.34 -66.6667
	-66.6667 3266.34 66.6667
	-66.6667 3266.34 200
	-66.6667 3266.34 333.333
	66.6667 3266.34 -333.333
	66.6667 3266.34 -200
	66.6667 3266.34 -66.6667
	66.6667 3266.34 66.6667
	66.6667 3266.34 200
	66.6667 3266.34 333.333
	200 3266.34 -333.333
	200 3266.34 -200
	200 3266.34 -66.6667
	200 3266.34 66.6667
	200 3266.34 200
	200 3266.34 333.333
	333.333 3266.34 -333.333
	333.333 3266.34 -200
	333.333 3266.34 -66.6667
	333.333 3266.34 66.6667
	333.333 3266.34 200
	333.333 3266.34 333.333
	-333.333 3399.67 -333.333
	-333.333 3399.67 -200
	-333.333 3399.68 -66.6667
	-333.333 3399.68 66.6667
	-333.333 3399.67 200
	-333.333 3399.67 333.333
	-200 3399.67 -333.333
	-200 3399.67 -200
	-200 3399.67 -66.6667
	-200 3399.67 66.6667
	-200 3399.67 200
	-200 3399.67 333.333
	-66.6667 3399.68 -333.333
	-66.6667 3399.67 -200
	-66.6667 3399.67 -66.6667
	-66.6667 3399.67 66.6667
	-66.6667 3399.67 200
	-66.6667 3399.68 333.333
	66.6667 3399.68 -333.333
	66.6667 3399.67 -200
	66.6667 3399.67 -66.6667
	66.6667 3399.67 66.6667
	66.6667 3399.67 200
	66.6667 3399.68 333.333
	200 3399.67 -333.333
	200 3399.67 -200
	200 3399.67 -66.6667
	200 3399.67 66.6667
	200 3399.67 200
	200 3399.67 333.333
	333.333 3399.67 -333.333
	333.333 3399.67 -200
	333.333 3399.68 -66.6667
	333.333 3399.68 66.6667
	333.333 3399.67 200
	333.333 3399.67 333.333
	-333.333 3533 -333.333
	-333.333 3533 -200
	-333.333 3533.01 -66.6667
	-333.333 3533.01 66.6667
	-333.333 3533 200
	-333.333 3533 333.333
	-200 3533 -333.333
	-200 3533 -200
	-200 3533 -66.6667
	-200 3533 66.6667
	-200 3533 200
	-200 3533 333.333
	-66.6667 3533.01 -333.333
	-66.6667 3533 -200
	-66.6667 3533 -66.6667
	-66.6667 3533 66.6667
	-66.6667 3533 200
	-66.6667 3533.01 333.333
	66.6667 3533.01 -333.333
	66.6667 3533 -200
	66.6667 3533 -66.6667
	66.6667 3533 66.6667
	66.6667 3533 200
	66.6667 3533.01 333.333
	200 3533 -333.333
	200 3533 -200
	200 3533 -66.6667
	200 3533 66.6667
	200 3533 200
	200 3533 333.333
	333.333 3533 -333.333
[...]
<PointData  Vectors="vector">
  <DataArray type="Float32" Name="Velocity" NumberOfComponents="3" format="ascii">
 -1.12883e-05 -0.00241033 -1.12885e-05
 -1.69205e-05 -0.010937 -2.63996e-06
 1.91928e-06 0.0113611 -1.68176e-05
 1.91916e-06 0.0113611 1.68181e-05
 -1.692e-05 -0.010937 2.64033e-06
 -1.12886e-05 -0.00241032 1.12886e-05
 -2.64851e-06 -0.010937 -1.69189e-05
 1.84172e-05 0.00928471 1.84165e-05
 -5.32585e-07 0.00696019 1.47146e-06
 -5.32436e-07 0.00696019 -1.47101e-06
 1.84167e-05 0.00928472 -1.84162e-05
 -2.64812e-06 -0.010937 1.6919e-05
 -1.67892e-05 0.0113611 1.91867e-06
 1.47139e-06 0.00696019 -5.31088e-07
 1.36552e-06 0.00464682 1.3655e-06
 1.36553e-06 0.00464682 -1.36517e-06
 1.47143e-06 0.0069602 5.31293e-07
 -1.67946e-05 0.0113611 -1.91858e-06
 1.6789e-05 0.0113611 1.91869e-06
 -1.47144e-06 0.00696019 -5.31258e-07
 -1.36551e-06 0.00464682 1.36545e-06
 -1.36548e-06 0.00464683 -1.36517e-06
 -1.47135e-06 0.0069602 5.31344e-07
 1.67947e-05 0.0113611 -1.91869e-06
 2.64784e-06 -0.010937 -1.69194e-05
 -1.84175e-05 0.00928472 1.84166e-05
 5.31548e-07 0.00696019 1.47124e-06
 5.31617e-07 0.0069602 -1.47102e-06
 -1.84167e-05 0.00928473 -1.84166e-05
 2.64822e-06 -0.0109369 1.69192e-05
 1.12874e-05 -0.00241032 -1.12884e-05
 1.69195e-05 -0.010937 -2.63742e-06
 -1.9192e-06 0.0113611 -1.68222e-05
 -1.91893e-06 0.0113611 1.68224e-05
 1.69197e-05 -0.0109369 2.63734e-06
 1.12887e-05 -0.0024103 1.12882e-05
 -1.09829e-06 -0.00473632 -1.10008e-06
 -3.91146e-06 0.0135347 8.59035e-07
 -3.07053e-06 0.00378714 2.44621e-07
 -3.1909e-06 0.00378715 -2.44625e-07
 -3.91244e-06 0.0135347 -8.57977e-07
 -1.09869e-06 -0.00473635 1.10088e-06
 8.58201e-07 0.0135347 -3.91425e-06
 3.65635e-07 -0.00231107 3.63069e-07
 -1.75684e-06 -0.0053177 1.4124e-06
 -1.53943e-06 -0.0053177 -1.40939e-06
 3.65093e-07 -0.00231106 -3.63423e-07
 8.58456e-07 0.0135347 3.91326e-06
 2.42037e-07 0.00378714 -3.1903e-06
 1.40552e-06 -0.0053177 -1.5346e-06
 1.52803e-06 -0.00427901 1.46246e-06
 1.46679e-06 -0.00427902 -1.46355e-06
 1.40741e-06 -0.00531771 1.53648e-06
 2.42643e-07 0.00378714 3.19098e-06
 -2.42586e-07 0.00378714 -3.19033e-06
 -1.40409e-06 -0.00531771 -1.53421e-06
 -1.29009e-06 -0.00427902 1.46193e-06
 -1.46755e-06 -0.00427902 -1.46446e-06
 -1.40569e-06 -0.00531772 1.53736e-06
 -2.42618e-07 0.00378714 3.19096e-06
 -8.58469e-07 0.0135347 -3.91404e-06
 -3.66069e-07 -0.00231108 3.63204e-07
 1.29673e-06 -0.00531773 1.41159e-06
 1.54024e-06 -0.00531774 -1.40955e-06
 -3.65223e-07 -0.00231106 -3.63467e-07
 -8.58284e-07 0.0135347 3.91327e-06
 1.09839e-06 -0.00473636 -1.10045e-06
 3.91004e-06 0.0135347 8.5885e-07
 3.29261e-06 0.00378714 2.44516e-07
 3.19105e-06 0.00378714 -2.4471e-07
 3.91137e-06 0.0135348 -8.58199e-07
 1.09934e-06 -0.00473637 1.10077e-06
 1.12382e-06 -0.0124084 1.12454e-06
 1.1377e-06 0.00454634 -4.18839e-06
 1.07454e-06 -0.00259997 5.96182e-07
 1.07449e-06 -0.00259998 -5.95132e-07
 1.13762e-06 0.00454633 4.18902e-06
 1.12367e-06 -0.0124083 -1.12369e-06
 -4.19244e-06 0.00454634 1.1384e-06
 -4.67701e-06 -0.00296728 -4.67764e-06
 9.06722e-07 0.00355387 1.27022e-06
 9.0667e-07 0.00355387 -1.26948e-06
 -4.67757e-06 -0.00296728 4.67846e-06
 -4.19312e-06 0.00454632 -1.13761e-06
 5.88829e-07 -0.00259997 1.07524e-06
 1.27085e-06 0.00355387 9.07459e-07
 -3.59596e-06 -0.011511 -3.59772e-06
 -3.59596e-06 -0.011511 3.59832e-06
 1.27142e-06 0.00355387 -9.06642e-07
 5.89368e-07 -0.00260001 -1.07449e-06
 -5.8809e-07 -0.00259998 1.0752e-06
 -1.27048e-06 0.00355388 9.07382e-07
 3.59627e-06 -0.011511 -3.59769e-06
 3.59641e-06 -0.011511 3.5983e-06
 -1.27039e-06 0.00355388 -9.06706e-07
 -5.87765e-07 -0.00260002 -1.07451e-06
 4.192e-06 0.00454633 1.13833e-06
 4.67705e-06 -0.0029673 -4.67794e-06
 -9.06535e-07 0.00355388 1.27008e-06
 -9.06443e-07 0.00355389 -1.26943e-06
 4.67739e-06 -0.0029673 4.67847e-06
 4.19256e-06 0.00454631 -1.13771e-06
 -1.12398e-06 -0.0124082 1.12439e-06
 -1.13777e-06 0.00454632 -4.18945e-06
 -1.07449e-06 -0.00260002 5.96679e-07
 -1.07438e-06 -0.00260002 -5.95918e-07
 -1.13742e-06 0.00454631 4.18976e-06
 -1.12342e-06 -0.0124081 -1.12385e-06
 -3.13538e-06 -0.00374675 -3.13494e-06
 -3.72869e-06 -0.00918174 -8.32618e-07
 -1.42377e-06 0.00198395 -2.76183e-06
 -1.4238e-06 0.00198395 2.75956e-06
 -3.72876e-06 -0.00918165 8.36705e-07
 -3.13558e-06 -0.00374688 3.13591e-06
 -8.17558e-07 -0.00918175 -3.72947e-06
 -1.26698e-06 0.00557173 -1.2839e-06
 7.80977e-07 -0.00312937 -8.56744e-07
 7.80927e-07 -0.00312934 8.49467e-07
 -1.26162e-06 0.00557174 1.29249e-06
 -8.19324e-07 -0.00918158 3.7308e-06
 -2.77543e-06 0.00198395 -1.42393e-06
 -8.73518e-07 -0.00312937 7.82363e-07
 -4.25723e-06 -0.00957134 -4.2593e-06
 -4.25682e-06 -0.00957134 4.26014e-06
 -8.78333e-07 -0.0031293 -7.81617e-07
 -2.77363e-06 0.00198388 1.42483e-06
 2.76206e-06 0.00198395 -1.42389e-06
 8.57665e-07 -0.00312935 7.82179e-07
 4.25791e-06 -0.00957132 -4.2589e-06
 4.25735e-06 -0.00957134 4.25968e-06
 8.79091e-07 -0.00312927 -7.81448e-07
 2.77805e-06 0.00198388 1.42472e-06
 8.31506e-07 -0.00918165 -3.72924e-06
 1.28252e-06 0.00557173 -1.27171e-06
 -7.81229e-07 -0.00312929 -8.68214e-07
 -7.80809e-07 -0.00312927 8.72788e-07
 1.26156e-06 0.00557174 1.26864e-06
 8.15892e-07 -0.00918145 3.72994e-06
 3.13554e-06 -0.00374693 -3.13512e-06
 3.72986e-06 -0.00918156 -8.26675e-07
 1.42435e-06 0.00198388 -2.76744e-06
 1.42432e-06 0.00198388 2.76907e-06
 3.72939e-06 -0.00918144 8.26347e-07
 3.13609e-06 -0.00374705 3.13589e-06
 -2.93025e-06 -0.00502417 -2.9301e-06
 -1.92363e-08 -0.00468971 -3.3477e-06
 1.6223e-07 -0.00743762 5.64853e-07
 1.62152e-07 -0.00743761 -5.631e-07
 3.25748e-08 -0.0046898 3.34796e-06
 -2.93121e-06 -0.00502295 2.93069e-06
 -3.34874e-06 -0.0046897 -1.39016e-08
 -2.91488e-06 -0.0081124 -2.90217e-06
 -3.45434e-06 -0.00822238 -1.4018e-06
 -3.45296e-06 -0.00822227 1.41195e-06
 -2.87263e-06 -0.0081122 2.89614e-06
 -3.35008e-06 -0.00468987 1.22381e-08
 5.64788e-07 -0.00743759 1.62737e-07
 -1.38594e-06 -0.00822241 -3.455e-06
 -2.23023e-07 -0.00529228 -2.21859e-07
 -2.24345e-07 -0.00529226 2.21331e-07
 -1.46423e-06 -0.00822206 3.45709e-06
 5.66447e-07 -0.00743752 -1.6195e-07
 -5.65158e-07 -0.00743756 1.62709e-07
 1.38593e-06 -0.00822228 -3.45524e-06
 2.24409e-07 -0.00529227 -2.21536e-07
 2.23713e-07 -0.00529225 2.21182e-07
 1.48342e-06 -0.00822188 3.45709e-06
 -5.64543e-07 -0.00743751 -1.61961e-07
 3.34957e-06 -0.0046898 -1.3813e-08
 2.91608e-06 -0.00811216 -2.90337e-06
 3.45382e-06 -0.00822197 -1.40112e-06
 3.45454e-06 -0.00822185 1.40728e-06
 2.85569e-06 -0.00811179 2.90021e-06
 3.34959e-06 -0.00468999 1.29631e-08
 2.93085e-06 -0.00502302 -2.9302e-06
 1.91726e-08 -0.00468988 -3.3481e-06
 -1.61903e-07 -0.00743748 5.64892e-07
 -1.61808e-07 -0.0074375 -5.63179e-07
 -3.34323e-08 -0.00469 3.3481e-06
 2.9313e-06 -0.00502187 2.93057e-06
 -9.86974e-07 -0.00907999 -9.86625e-07
 -5.30789e-06 0.00557144 -4.66528e-06
 -5.66929e-06 -0.000833797 1.06207e-06
 -5.66938e-06 -0.000833789 -1.06151e-06
 -5.30874e-06 0.00557142 4.66609e-06
 -9.87139e-07 -0.00908108 9.87351e-07
 -4.66548e-06 0.00557143 -5.30797e-06
 -7.00008e-07 -0.00905754 -6.99672e-07
 -2.21108e-07 -0.00306464 7.28991e-07
 -2.21042e-07 -0.00306473 -7.28372e-07
 -6.99251e-07 -0.00905781 7.00397e-07
 -4.66575e-06 0.00557143 5.30863e-06
 1.06162e-06 -0.000833806 -5.66935e-06
 7.28255e-07 -0.00306461 -2.21094e-07
 6.06933e-07 -0.00141807 6.07919e-07
 6.06919e-07 -0.00141817 -6.07308e-07
 7.28193e-07 -0.00306484 2.21788e-07
 1.06178e-06 -0.000833778 5.66995e-06
 -1.06131e-06 -0.000833805 -5.66935e-06
 -7.27852e-07 -0.00306467 -2.212e-07
 -6.0651e-07 -0.00141813 6.0797e-07
 -6.06477e-07 -0.00141823 -6.07387e-07
 -7.27743e-07 -0.00306495 2.21883e-07
 -1.06126e-06 -0.000833791 5.66993e-06
 4.666e-06 0.00557144 -5.30772e-06
 7.00299e-07 -0.00905781 -7.00088e-07
 2.21484e-07 -0.00306487 7.28968e-07
 2.21426e-07 -0.00306494 -7.2842e-07
 6.99663e-07 -0.00905827 7.00777e-07
 4.66619e-06 0.00557145 5.30826e-06
 9.87309e-07 -0.00908098 -9.86686e-07
 5.30838e-06 0.00557147 -4.66535e-06
 5.66971e-06 -0.00083379 1.06194e-06
 5.66982e-06 -0.000833798 -1.06173e-06
 5.30919e-06 0.00557146 4.66628e-06
 9.87541e-07 -0.009082 9.87288e-07
 -9.45201e-07 -0.0113777 -9.44957e-07
 -9.07054e-07 0.00888514 -4.42538e-06
 -8.87272e-07 -0.00308101 9.18655e-07
 -8.87289e-07 -0.00308103 -9.1856e-07
 -9.07112e-07 0.00888517 4.4261e-06
 -9.45295e-07 -0.011378 9.45421e-07
 -4.42583e-06 0.00888514 -9.06811e-07
 -4.31802e-06 0.000740763 -4.31772e-06
 -4.02207e-06 -0.00368024 1.00661e-06
 -4.02202e-06 -0.00368033 -1.00645e-06
 -4.31794e-06 0.000740862 4.31833e-06
 -4.42567e-06 0.00888516 9.07252e-07
 9.18654e-07 -0.00308102 -8.87012e-07
 1.00653e-06 -0.00368027 -4.02178e-06
 9.1345e-07 0.00685894 9.13493e-07
 9.13404e-07 0.00685894 -9.13792e-07
 1.00647e-06 -0.00368061 4.02283e-06
 9.18534e-07 -0.003081 8.87437e-07
 -9.18711e-07 -0.00308104 -8.8702e-07
 -1.00652e-06 -0.0036804 -4.02183e-06
 -9.14173e-07 0.00685896 9.13511e-07
 -9.14216e-07 0.00685896 -9.1378e-07
 -1.00649e-06 -0.00368073 4.02281e-06
 -9.18691e-07 -0.00308098 8.87429e-07
 4.42661e-06 0.00888515 -9.06831e-07
 4.31872e-06 0.000740922 -4.31781e-06
 4.02351e-06 -0.00368071 1.00662e-06
 4.02355e-06 -0.00368077 -1.00646e-06
 4.31869e-06 0.000741107 4.31834e-06
 4.42657e-06 0.00888516 9.07229e-07
 9.45531e-07 -0.0113779 -9.44991e-07
 9.07384e-07 0.00888513 -4.42555e-06
 8.87609e-07 -0.00308101 9.18695e-07
 8.87631e-07 -0.00308098 -9.18623e-07
 9.07454e-07 0.00888515 4.42615e-06
 9.45643e-07 -0.0113782 9.45382e-07
 -7.90994e-07 0.00368864 -7.90907e-07
 -7.47401e-07 -0.00745492 -3.0826e-06
 -7.24395e-07 0.00317256 -1.65678e-06
 -7.24409e-07 0.00317256 1.65661e-06
 -7.47434e-07 -0.0074549 3.08298e-06
 -7.91056e-07 0.00368893 7.91036e-07
 -3.08312e-06 -0.00745494 -7.473e-07
 -3.10546e-06 -0.00371541 -3.10525e-06
 -2.90433e-06 0.00511262 -1.77202e-06
 -2.90432e-06 0.00511273 1.77209e-06
 -3.10545e-06 -0.00371545 3.10537e-06
 -3.083e-06 -0.0074549 7.47421e-07
 -1.65714e-06 0.00317256 -7.24291e-07
 -1.77205e-06 0.00511261 -2.90411e-06
 -1.52252e-06 0.00414333 -1.52253e-06
 -1.52253e-06 0.00414337 1.52261e-06
 -1.77205e-06 0.00511292 2.90421e-06
 -1.65708e-06 0.00317253 7.24398e-07
 1.65702e-06 0.00317256 -7.24294e-07
 1.77229e-06 0.00511268 -2.90412e-06
 1.5228e-06 0.00414333 -1.52253e-06
 1.5228e-06 0.00414336 1.52261e-06
 1.77227e-06 0.00511301 2.90421e-06
 1.65689e-06 0.00317252 7.24396e-07
 3.0838e-06 -0.00745497 -7.47309e-07
 3.10577e-06 -0.00371549 -3.10528e-06
 2.90459e-06 0.00511291 -1.77205e-06
 2.90458e-06 0.00511298 1.77209e-06
 3.10575e-06 -0.00371558 3.10539e-06
 3.08371e-06 -0.00745493 7.47412e-07
 7.91228e-07 0.0036889 -7.90924e-07
 7.4764e-07 -0.00745498 -3.08269e-06
 7.24632e-07 0.00317252 -1.65687e-06
 7.24646e-07 0.00317252 1.65663e-06
 7.47679e-07 -0.00745495 3.08308e-06
 7.91298e-07 0.00368916 7.91016e-07
 -4.53453e-07 0.00876102 -4.53575e-07
 -4.22386e-07 0.00270477 -1.71221e-06
 -4.12324e-07 -0.00187083 7.50449e-07
 -4.12307e-07 -0.00187084 -7.50581e-07
 -4.22441e-07 0.00270484 1.71217e-06
 -4.53512e-07 0.00876103 4.53225e-07
 -1.71229e-06 0.00270472 -4.22492e-07
 -1.52986e-06 0.00139821 -1.52997e-06
 -1.30465e-06 -0.00433397 7.70896e-07
 -1.3046e-06 -0.00433404 -7.71033e-07
 -1.52978e-06 0.00139798 1.52992e-06
 -1.71215e-06 0.00270477 4.22154e-07
 7.50629e-07 -0.00187084 -4.12391e-07
 7.70952e-07 -0.00433389 -1.30448e-06
 5.74442e-07 -0.00240002 5.74109e-07
 5.74385e-07 -0.00240002 -5.74133e-07
 7.70914e-07 -0.00433398 1.30432e-06
 7.50495e-07 -0.00187075 4.12055e-07
 -7.50682e-07 -0.00187084 -4.12396e-07
 -7.7089e-07 -0.00433388 -1.30454e-06
 -5.74806e-07 -0.00240002 5.74159e-07
 -5.74955e-07 -0.00240002 -5.74119e-07
 -7.70868e-07 -0.00433397 1.30431e-06
 -7.50713e-07 -0.00187073 4.12052e-07
 1.71273e-06 0.00270454 -4.22493e-07
 1.53021e-06 0.00139804 -1.52998e-06
 1.30542e-06 -0.00433379 7.70895e-07
 1.30553e-06 -0.00433387 -7.71026e-07
 1.53009e-06 0.00139773 1.52991e-06
 1.71273e-06 0.00270458 4.2215e-07
 4.53573e-07 0.00876094 -4.53573e-07
 4.22481e-07 0.00270446 -1.71232e-06
 4.12405e-07 -0.00187075 7.50509e-07
 4.12425e-07 -0.00187073 -7.50597e-07
 4.2255e-07 0.0027045 1.7122e-06
 4.53613e-07 0.00876096 4.53226e-07
 1.01192e-07 0.0138122 1.01165e-07
 9.49642e-08 -0.00241129 -1.37222e-08
 8.29508e-08 0.00259994 -2.13979e-06
 8.29561e-08 0.00259994 2.13802e-06
 9.49489e-08 -0.0024113 1.43436e-08
 1.01134e-07 0.013812 -1.0123e-07
 -1.33838e-08 -0.00241121 9.49522e-08
 7.9106e-08 0.00340231 7.87872e-08
 2.76266e-07 -0.00416908 -2.09808e-06
 2.76216e-07 -0.0041691 2.09836e-06
 7.91064e-08 0.00340242 -8.01817e-08
 -1.33344e-08 -0.00241122 -9.50401e-08
 -2.13999e-06 0.00259995 8.29533e-08
 -2.09804e-06 -0.00416912 2.75434e-07
 -1.92916e-06 -0.00818063 -1.92873e-06
 -1.92912e-06 -0.00818063 1.93136e-06
 -2.09808e-06 -0.00416923 -2.79183e-07
 -2.13997e-06 0.00259986 -8.30289e-08
 2.14055e-06 0.00259995 8.29498e-08
 2.09861e-06 -0.00416917 2.75445e-07
 1.93081e-06 -0.0081806 -1.92874e-06
 1.93074e-06 -0.0081806 1.9314e-06
 2.0986e-06 -0.0041693 -2.79213e-07
 2.14058e-06 0.00259986 -8.30262e-08
 1.29061e-08 -0.00241096 9.49472e-08
 -7.96252e-08 0.00340233 7.87896e-08
 -2.77835e-07 -0.00416935 -2.09808e-06
 -2.77765e-07 -0.00416935 2.09838e-06
 -7.95761e-08 0.00340245 -8.01891e-08
 1.27578e-08 -0.00241094 -9.50346e-08
 -1.011e-07 0.0138122 1.01161e-07
 -9.48437e-08 -0.00241082 -1.37145e-08
 -8.28708e-08 0.00259986 -2.13981e-06
 -8.28746e-08 0.00259985 2.13806e-06
 -9.48588e-08 -0.00241086 1.43504e-08
 -1.01037e-07 0.013812 -1.01236e-07
 7.50418e-07 0.00139629 7.50135e-07
 7.2996e-07 -0.00798044 4.22361e-07
 7.2182e-07 0.00290278 7.02443e-07
 7.21784e-07 0.00290279 -7.01223e-07
 7.29939e-07 -0.0079805 -4.24137e-07
 7.50443e-07 0.0013966 -7.51299e-07
 4.22568e-07 -0.00798039 7.29592e-07
 3.1432e-07 0.0042293 3.18148e-07
 -1.30723e-08 5.57083e-05 8.69092e-07
 -1.56367e-08 5.57367e-05 -8.86198e-07
 3.14693e-07 0.00422928 -3.01536e-07
 4.2255e-07 -0.00798047 -7.3081e-07
 7.0255e-07 0.00290279 7.21479e-07
 8.73157e-07 5.56918e-05 -2.61039e-08
 1.2326e-06 -0.00157264 1.24539e-06
 1.23518e-06 -0.00157263 -1.19411e-06
 8.72777e-07 5.57393e-05 -2.56337e-08
 7.02507e-07 0.00290282 -7.22705e-07
 -7.00796e-07 0.0029028 7.21512e-07
 -8.88501e-07 5.57029e-05 -2.46183e-08
 -1.18948e-06 -0.00157266 1.24387e-06
 -1.18964e-06 -0.00157265 -1.19178e-06
 -8.88422e-07 5.57725e-05 -2.79329e-08
 -7.00825e-07 0.00290281 -7.22725e-07
 -4.23908e-07 -0.00798026 7.29606e-07
 -2.98581e-07 0.00422935 3.18141e-07
 -2.96808e-08 5.57276e-05 8.69093e-07
 -2.95062e-08 5.576e-05 -8.86156e-07
 -2.98668e-07 0.00422934 -3.01547e-07
 -4.23915e-07 -0.00798034 -7.30822e-07
 -7.51058e-07 0.00139647 7.50162e-07
 -7.306e-07 -0.00798021 4.2237e-07
 -7.22427e-07 0.00290284 7.02429e-07
 -7.22435e-07 0.00290283 -7.01223e-07
 -7.30587e-07 -0.00798026 -4.24123e-07
 -7.51022e-07 0.00139676 -7.51287e-07
 7.1761e-07 -0.00909085 7.17653e-07
 1.54038e-07 -0.00162129 1.17029e-06
 1.18768e-06 -0.00625823 -2.74076e-07
 1.18766e-06 -0.00625823 2.73329e-07
 1.56464e-07 -0.00162123 -1.1594e-06
 7.16347e-07 -0.00909104 -7.29806e-07
 1.17068e-06 -0.00162137 1.56379e-07
 1.75602e-06 0.00345498 1.75332e-06
 7.29167e-07 3.14157e-06 -2.64156e-07
 7.29182e-07 3.16151e-06 2.63452e-07
 1.75359e-06 0.00345501 -1.7439e-06
 1.17194e-06 -0.00162129 -1.67085e-07
 -2.73855e-07 -0.00625826 1.18747e-06
 -2.63957e-07 3.14811e-06 7.29038e-07
 -2.58037e-07 -0.00215249 -2.58251e-07
 -2.58031e-07 -0.00215241 2.57464e-07
 -2.63968e-07 3.18114e-06 -7.29957e-07
 -2.73872e-07 -0.00625841 -1.18775e-06
 2.73576e-07 -0.00625828 1.1875e-06
 2.63685e-07 3.14688e-06 7.2901e-07
 2.57682e-07 -0.00215241 -2.5825e-07
 2.57669e-07 -0.00215234 2.5747e-07
 2.63685e-07 3.14959e-06 -7.29987e-07
 2.73571e-07 -0.00625842 -1.18772e-06
 -1.1579e-06 -0.00162163 1.56361e-07
 -1.73639e-06 0.003455 1.75335e-06
 -7.29861e-07 3.13802e-06 -2.64152e-07
 -7.29864e-07 3.129e-06 2.63463e-07
 -1.73668e-06 0.00345505 -1.74314e-06
 -1.15699e-06 -0.00162156 -1.67837e-07
 -7.30751e-07 -0.00909099 7.1787e-07
 -1.74035e-07 -0.00162175 1.17009e-06
 -1.18728e-06 -0.00625847 -2.74061e-07
 -1.18727e-06 -0.00625847 2.73344e-07
 -1.73746e-07 -0.00162166 -1.1607e-06
 -7.31651e-07 -0.00909117 -7.28506e-07
 2.8472e-07 0.0011676 2.84585e-07
 8.82651e-07 -0.00308854 -2.96368e-07
 8.62663e-07 0.00186068 1.29511e-06
 8.62602e-07 0.00186067 -1.29595e-06
 8.82646e-07 -0.00308856 2.95764e-07
 2.84722e-07 0.00116764 -2.8529e-07
 -2.96157e-07 -0.00308852 8.82532e-07
 6.84686e-07 -0.00401717 6.84519e-07
 7.13109e-07 0.00412575 -2.53961e-07
 7.1317e-07 0.00412576 2.53211e-07
 6.84697e-07 -0.00401709 -6.85166e-07
 -2.9616e-07 -0.00308854 -8.83255e-07
 1.29523e-06 0.00186071 8.62551e-07
 -2.53789e-07 0.00412574 7.12945e-07
 -2.50014e-07 0.00243041 -2.50187e-07
 -2.50015e-07 0.00243033 2.49435e-07
 -2.53798e-07 0.00412576 -7.13369e-07
 1.29524e-06 0.00186092 -8.63476e-07
 -1.29573e-06 0.00186073 8.6254e-07
 2.53392e-07 0.00412574 7.12961e-07
 2.49607e-07 0.0024303 -2.50177e-07
 2.49611e-07 0.00243024 2.49428e-07
 2.53388e-07 0.00412576 -7.13337e-07
 -1.29577e-06 0.00186094 -8.63503e-07
 2.95952e-07 -0.00308846 8.82547e-07
 -6.84977e-07 -0.00401709 6.84531e-07
 -7.13191e-07 0.00412574 -2.53966e-07
 -7.13137e-07 0.00412575 2.53217e-07
 -6.84962e-07 -0.00401699 -6.85147e-07
 2.95982e-07 -0.00308848 -8.83268e-07
 -2.85091e-07 0.00116767 2.84604e-07
 -8.83036e-07 -0.00308843 -2.96363e-07
 -8.63246e-07 0.00186099 1.29514e-06
 -8.63302e-07 0.00186099 -1.29597e-06
 -8.83047e-07 -0.00308846 2.95801e-07
 -2.85091e-07 0.00116771 -2.85301e-07
 1.02903e-07 0.00110551 1.02765e-07
 1.26533e-07 -0.00406061 1.00957e-06
 7.37658e-08 0.00267087 -2.75927e-07
 7.38343e-08 0.00267086 2.75214e-07
 1.26523e-07 -0.00406063 -1.0104e-06
 1.02836e-07 0.00110543 -1.03328e-07
 1.00959e-06 -0.00406061 1.26446e-07
 1.00545e-06 -0.00107792 1.00538e-06
 7.78575e-07 0.000222097 -2.65877e-07
 7.80341e-07 0.000222065 2.65169e-07
 1.00547e-06 -0.00107799 -1.00609e-06
 1.00967e-06 -0.00406063 -1.27108e-07
 -2.7582e-07 0.00267089 7.37432e-08
 -2.65776e-07 0.000222114 7.79084e-07
 3.16838e-08 -0.000738056 3.09537e-08
 2.98579e-08 -0.000738014 -3.11099e-08
 -2.65792e-07 0.00022206 -7.80361e-07
 -2.75834e-07 0.00267092 -7.43729e-08
 2.75306e-07 0.0026709 7.37419e-08
 2.65272e-07 0.00022211 7.78818e-07
 -3.41462e-08 -0.000737977 3.12241e-08
 -3.20806e-08 -0.000737936 -3.25918e-08
 2.65282e-07 0.000222065 -7.78911e-07
 2.75332e-07 0.00267096 -7.43343e-08
 -1.0102e-06 -0.00406058 1.2647e-07
 -1.00598e-06 -0.001078 1.00538e-06
 -7.77209e-07 0.000222112 -2.65885e-07
 -7.79222e-07 0.000222093 2.65184e-07
 -1.006e-06 -0.00107813 -1.00611e-06
 -1.01037e-06 -0.0040606 -1.27094e-07
 -1.03251e-07 0.00110549 1.02799e-07
 -1.26956e-07 -0.00406057 1.00957e-06
 -7.41252e-08 0.00267094 -2.75931e-07
 -7.41846e-08 0.00267097 2.75226e-07
 -1.26941e-07 -0.00406059 -1.01038e-06
 -1.03099e-07 0.00110541 -1.03347e-07
 1.23577e-07 0.0040827 1.23503e-07
 2.56657e-08 0.00177513 4.04947e-07
 -4.22049e-08 -0.00630183 -3.16653e-07
 -4.21966e-08 -0.00630182 3.15994e-07
 2.56897e-08 0.00177512 -4.05636e-07
 1.23552e-07 0.00408274 -1.24087e-07
 4.04861e-07 0.00177514 2.57467e-08
 5.26088e-07 0.00103966 5.2601e-07
 6.03945e-07 0.00275146 -3.07235e-07
 6.03941e-07 0.00275144 3.06585e-07
 5.26073e-07 0.00103961 -5.26539e-07
 4.04909e-07 0.00177512 -2.64777e-08
 -3.1662e-07 -0.00630188 -4.21812e-08
 -3.07218e-07 0.00275147 6.03926e-07
 -3.02274e-07 0.00304184 -3.0229e-07
 -3.02273e-07 0.00304179 3.01643e-07
 -3.07217e-07 0.00275146 -6.04471e-07
 -3.16628e-07 -0.00630192 4.14768e-08
 3.16055e-07 -0.0063019 -4.2175e-08
 3.06646e-07 0.00275148 6.03923e-07
 3.01705e-07 0.00304178 -3.02287e-07
 3.01697e-07 0.00304175 3.01645e-07
 3.06645e-07 0.00275147 -6.0448e-07
 3.16057e-07 -0.00630196 4.14832e-08
 -4.05416e-07 0.00177515 2.57296e-08
 -5.26568e-07 0.00103962 5.26042e-07
 -6.04464e-07 0.0027515 -3.07229e-07
 -6.04451e-07 0.00275149 3.06592e-07
 -5.26521e-07 0.00103957 -5.26565e-07
 -4.05536e-07 0.00177513 -2.64592e-08