<?xml version="1.0"?>
<!-- time 76.8998-->
<VTKFile type="UnstructuredGrid" version="0.1" byte_order="LittleEndian">
<UnstructuredGrid>
<Piece NumberOfPoints="3240" NumberOfCells="0">
<Points>
  <DataArray type="Float32" Name="Position" NumberOfComponents="3" format="ascii">
	-333.333 2066.03 -333.333
	-333.333 2066.25 -200
	-333.333 2066.35 -66.6667
	-333.333 2066.35 66.6667
	-333.333 2066.25 200
	-333.333 2066.03 333.333
	-200 2066.25 -333.333
	-200 2066.29 -200
	-200 2066.34 -66.6667
	-200 2066.34 66.6667
	-200 2066.29 200
	-200 2066.25 333.333
	-66.6667 2066.35 -333.333
	-66.6667 2066.34 -200
	-66.6667 2066.32 -66.6667
	-66.6667 2066.32 66.6667
	-66.6667 2066.34 200
	-66.6667 2066.35 333.333
	66.6667 2066.35 -333.333
	66.6667 2066.34 -200
	66.6667 2066.32 -66.6667
	66.6667 2066.32 66.6667
	66.6667 2066.34 200
	66.6667 2066.35 333.333
	200 2066.25 -333.333
	200 2066.29 -200
	200 2066.34 -66.6667
	200 2066.34 66.6667
	200 2066.29 200
	200 2066.25 333.333
	333.333 2066.03 -333.333
	333.333 2066.25 -200
	333.333 2066.35 -66.6667
	333.333 2066.35 66.6667
	333.333 2066.25 200
	333.333 2066.03 333.333
	-333.333 2199.62 -333.333
	-333.333 2199.59 -200
	-333.333 2199.69 -66.6667
	-333.333 2199.69 66.6667
	-333.333 2199.59 200
	-333.333 2199.62 333.333
	-200 2199.59 -333.333
	-200 2199.64 -200
	-200 2199.69 -66.6667
	-200 2199.69 66.6667
	-200 2199.64 200
	-200 2199.59 333.333
	-66.6667 2199.69 -333.333
	-66.6667 2199.69 -200
	-66.6667 2199.67 -66.6667
	-66.6667 2199.67 66.6667
	-66.6667 2199.69 200
	-66.6667 2199.69 333.333
	66.6667 2199.69 -333.333
	66.6667 2199.69 -200
	66.6667 2199.67 -66.6667
	66.6667 2199.67 66.6667
	66.6667 2199.69 200
	66.6667 2199.69 333.333
	200 2199.59 -333.333
	200 2199.64 -200
	200 2199.69 -66.6667
	200 2199.69 66.6667
	200 2199.64 200
	200 2199.59 333.333
	333.333 2199.62 -333.333
	333.333 2199.59 -200
	333.333 2199.69 -66.6667
	333.333 2199.69 66.6667
	333.333 2199.59 200
	333.333 2199.62 333.333
	-333.333 2332.96 -333.333
	-333.333 2332.99 -200
	-333.333 2333.02 -66.6667
	-333.333 2333.02 66.6667
	-333.333 2332.99 200
	-333.333 2332.96 333.333
	-200 2332.99 -333.333
	-200 2333.01 -200
	-200 2333.02 -66.6667
	-200 2333.02 66.6667
	-200 2333.01 200
	-200 2332.99 333.333
	-66.6667 2333.02 -333.333
	-66.6667 2333.02 -200
	-66.6667 2333 -66.6667
	-66.6667 2333 66.6667
	-66.6667 2333.02 200
	-66.6667 2333.02 333.333
	66.6667 2333.02 -333.333
	66.6667 2333.02 -200
	66.6667 2333 -66.6667
	66.6667 2333 66.6667
	66.6667 2333.02 200
	66.6667 2333.02 333.333
	200 2332.99 -333.333
	200 2333.01 -200
	200 2333.02 -66.6667
	200 2333.02 66.6667
	200 2333.01 200
	200 2332.99 333.333
	333.333 2332.96 -333.333
	333.333 2332.99 -200
	333.333 2333.02 -66.6667
	333.333 2333.02 66.6667
	333.333 2332.99 200
	333.333 2332.96 333.333
	-333.333 2466.3 -333.333
	-333.333 2466.34 -200
	-333.333 2466.36 -66.6667
	-333.333 2466.36 66.6667
	-333.333 2466.34 200
	-333.333 2466.3 333.333
	-200 2466.34 -333.333
	-200 2466.35 -200
	-200 2466.36 -66.6667
	-200 2466.36 66.6667
	-200 2466.35 200
	-200 2466.34 333.333
	-66.6667 2466.36 -333.333
	-66.6667 2466.36 -200
	-66.6667 2466.33 -66.6667
	-66.6667 2466.33 66.6667
	-66.6667 2466.36 200
	-66.6667 2466.36 333.333
	66.6667 2466.36 -333.333
	66.6667 2466.36 -200
	66.6667 2466.33 -66.6667
	66.6667 2466.33 66.6667
	66.6667 2466.36 200
	66.6667 2466.36 333.333
	200 2466.34 -333.333
	200 2466.35 -200
	200 2466.36 -66.6667
	200 2466.36 66.6667
	200 2466.35 200
	200 2466.34 333.333
	333.333 2466.3 -333.333
	333.333 2466.34 -200
	333.333 2466.36 -66.6667
	333.333 2466.36 66.6667
	333.333 2466.34 200
	333.333 2466.3 333.333
	-333.333 2599.66 -333.333
	-333.333 2599.68 -200
	-333.333 2599.69 -66.6667
	-333.333 2599.69 66.6667
	-333.333 2599.68 200
	-333.333 2599.66 333.333
	-200 2599.68 -333.333
	-200 2599.68 -200
	-200 2599.68 -66.6667
	-200 2599.68 66.6667
	-200 2599.68 200
	-200 2599.68 333.333
	-66.6667 2599.69 -333.333
	-66.6667 2599.68 -200
	-66.6667 2599.66 -66.6667
	-66.6667 2599.66 66.6667
	-66.6667 2599.68 200
	-66.6667 2599.69 333.333
	66.6667 2599.69 -333.333
	66.6667 2599.68 -200
	66.6667 2599.66 -66.6667
	66.6667 2599.66 66.6667
	66.6667 2599.68 200
	66.6667 2599.69 333.333
	200 2599.68 -333.333
	200 2599.68 -200
	200 2599.68 -66.6667
	200 2599.68 66.6667
	200 2599.68 200
	200 2599.68 333.333
	333.333 2599.66 -333.333
	333.333 2599.68 -200
	333.333 2599.69 -66.6667
	333.333 2599.69 66.6667
	333.333 2599.68 200
	333.333 2599.66 333.333
	-333.333 2733 -333.333
	-333.333 2733.02 -200
	-333.333 2733.03 -66.6667
	-333.333 2733.03 66.6667
	-333.333 2733.02 200
	-333.333 2733 333.333
	-200 2733.02 -333.333
	-200 2733.03 -200
	-200 2733.02 -66.6667
	-200 2733.02 66.6667
	-200 2733.03 200
	-200 2733.02 333.333
	-66.6667 2733.03 -333.333
	-66.6667 2733.02 -200
	-66.6667 2733.01 -66.6667
	-66.6667 2733.01 66.6667
	-66.6667 2733.02 200
	-66.6667 2733.03 333.333
	66.6667 2733.03 -333.333
	66.6667 2733.02 -200
	66.6667 2733.01 -66.6667
	66.6667 2733.01 66.6667
	66.6667 2733.02 200
	66.6667 2733.03 333.333
	200 2733.02 -333.333
	200 2733.03 -200
	200 2733.02 -66.6667
	200 2733.02 66.6667
	200 2733.03 200
	200 2733.02 333.333
	333.333 2733 -333.333
	333.333 2733.02 -200
	333.333 2733.03 -66.6667
	333.333 2733.03 66.6667
	333.333 2733.02 200
	333.333 2733 333.333
	-333.333 2866.36 -333.333
	-333.333 2866.36 -200
	-333.333 2866.35 -66.6667
	-333.333 2866.35 66.6667
	-333.333 2866.36 200
	-333.333 2866.36 333.333
	-200 2866.36 -333.333
	-200 2866.36 -200
	-200 2866.35 -66.6667
	-200 2866.35 66.6667
	-200 2866.36 200
	-200 2866.36 333.333
	-66.6667 2866.35 -333.333
	-66.6667 2866.35 -200
	-66.6667 2866.34 -66.6667
	-66.6667 2866.34 66.6667
	-66.6667 2866.35 200
	-66.6667 2866.35 333.333
	66.6667 2866.35 -333.333
	66.6667 2866.35 -200
	66.6667 2866.34 -66.6667
	66.6667 2866.34 66.6667
	66.6667 2866.35 200
	66.6667 2866.35 333.333
	200 2866.36 -333.333
	200 2866.36 -200
	200 2866.35 -66.6667
	200 2866.35 66.6667
	200 2866.36 200
	200 2866.36 333.333
	333.333 2866.36 -333.333
	333.333 2866.36 -200
	333.333 2866.35 -66.6667
	333.333 2866.35 66.6667
	333.333 2866.36 200
	333.333 2866.36 333.333
	-333.333 2999.7 -333.333
	-333.333 2999.7 -200
	-333.333 2999.69 -66.6667
	-333.333 2999.69 66.6667
	-333.333 2999.7 200
	-333.333 2999.7 333.333
	-200 2999.7 -333.333
	-200 2999.69 -200
	-200 2999.68 -66.6667
	-200 2999.68 66.6667
	-200 2999.69 200
	-200 2999.7 333.333
	-66.6667 2999.69 -333.333
	-66.6667 2999.68 -200
	-66.6667 2999.68 -66.6667
	-66.6667 2999.68 66.6667
	-66.6667 2999.68 200
	-66.6667 2999.69 333.333
	66.6667 2999.69 -333.333
	66.6667 2999.68 -200
	66.6667 2999.68 -66.6667
	66.6667 2999.68 66.6667
	66.6667 2999.68 200
	66.6667 2999.69 333.333
	200 2999.7 -333.333
	200 2999.69 -200
	200 2999.68 -66.6667
	200 2999.68 66.6667
	200 2999.69 200
	200 2999.7 333.333
	333.333 2999.7 -333.333
	333.333 2999.7 -200
	333.333 2999.69 -66.6667
	333.333 2999.69 66.6667
	333.333 2999.7 200
	333.333 2999.7 333.333
	-333.333 3133.04 -333.333
	-333.333 3133.03 -200
	-333.333 3133.02 -66.6667
	-333.333 3133.02 66.6667
	-333.333 3133.03 200
	-333.333 3133.04 333.333
	-200 3133.03 -333.333
	-200 3133.03 -200
	-200 3133.02 -66.6667
	-200 3133.02 66.6667
	-200 3133.03 200
	-200 3133.03 333.333
	-66.6667 3133.02 -333.333
	-66.6667 3133.02 -200
	-66.6667 3133.02 -66.6667
	-66.6667 3133.02 66.6667
	-66.6667 3133.02 200
	-66.6667 3133.02 333.333
	66.6667 3133.02 -333.333
	66.6667 3133.02 -200
	66.6667 3133.02 -66.6667
	66.6667 3133.02 66.6667
	66.6667 3133.02 200
	66.6667 3133.02 333.333
	200 3133.03 -333.333
	200 3133.03 -200
	200 3133.02 -66.6667
	200 3133.02 66.6667
	200 3133.03 200
	200 3133.03 333.333
	333.333 3133.04 -333.333
	333.333 3133.03 -200
	333.333 3133.02 -66.6667
	333.333 3133.02 66.6667
	333.333 3133.03 200
	333.333 3133.04 333.333
	-333.333 3266.37 -333.333
	-333.333 3266.36 -200
	-333.333 3266.36 -66.6667
	-333.333 3266.36 66.6667
	-333.333 3266.36 200
	-333.333 3266.37 333.333
	-200 3266.36 -333.333
	-200 3266.36 -200
	-200 3266.35 -66.6667
	-200 3266.35 66.6667
	-200 3266.36 200
	-200 3266.36 333.333
	-66.6667 3266.36 -333.333
	-66.6667 3266.35 -200
	-66.6667 3266.35 -66.6667
	-66.6667 3266.35 66.6667
	-66.6667 3266.35 200
	-66.6667 3266.36 333.333
	66.6667 3266.36 -333.333
	66.6667 3266.35 -200
	66.6667 3266.35 -66.6667
	66.6667 3266.35 66.6667
	66.6667 3266.35 200
	66.6667 3266.36 333.333
	200 3266.36 -333.333
	200 3266.36 -200
	200 3266.35 -66.6667
	200 3266.35 66.6667
	200 3266.36 200
	200 3266.36 333.333
	333.333 3266.37 -333.333
	333.333 3266.36 -200
	333.333 3266.36 -66.6667
	333.333 3266.36 66.6667
	333.333 3266.36 200
	333.333 3266.37 333.333
	-333.333 3399.7 -333.333
	-333.333 3399.69 -200
	-333.333 3399.69 -66.6667
	-333.333 3399.69 66.6667
	-333.333 3399.69 200
	-333.333 3399.7 333.333
	-200 3399.69 -333.333
	-200 3399.69 -200
	-200 3399.68 -66.6667
	-200 3399.68 66.6667
	-200 3399.69 200
	-200 3399.69 333.333
	-66.6667 3399.69 -333.333
	-66.6667 3399.68 -200
	-66.6667 3399.68 -66.6667
	-66.6667 3399.68 66.6667
	-66.6667 3399.68 200
	-66.6667 3399.69 333.333
	66.6667 3399.69 -333.333
	66.6667 3399.68 -200
	66.6667 3399.68 -66.6667
	66.6667 3399.68 66.6667
	66.6667 3399.68 200
	66.6667 3399.69 333.333
	200 3399.69 -333.333
	200 3399.69 -200
	200 3399.68 -66.6667
	200 3399.68 66.6667
	200 3399.69 200
	200 3399.69 333.333
	333.333 3399.7 -333.333
	333.333 3399.69 -200
	333.333 3399.69 -66.6667
	333.333 3399.69 66.6667
	333.333 3399.69 200
	333.333 3399.7 333.333
	-333.333 3533.04 -333.333
	-333.333 3533.03 -200
	-333.333 3533.02 -66.6667
	-333.333 3533.02 66.6667
	-333.333 3533.03 200
	-333.333 3533.04 333.333
	-200 3533.03 -333.333
	-200 3533.03 -200
	-200 3533.01 -66.6667
	-200 3533.01 66.6667
	-200 3533.03 200
	-200 3533.03 333.333
	-66.6667 3533.02 -333.333
	-66.6667 3533.01 -200
	-66.6667 3533.02 -66.6667
	-66.6667 3533.02 66.6667
	-66.6667 3533.01 200
	-66.6667 3533.02 333.333
	66.6667 3533.02 -333.333
	66.6667 3533.01 -200
	66.6667 3533.02 -66.6667
	66.6667 3533.02 66.6667
[...]
<PointData  Vectors="vector">
  <DataArray type="Float32" Name="Velocity" NumberOfComponents="3" format="ascii">
 2.48813e-05 -0.0023101 2.48511e-05
 -3.178e-05 0.00710714 -1.1258e-05
 -2.70556e-05 0.00345262 1.61466e-05
 -2.70517e-05 0.00345267 -1.62147e-05
 -3.17482e-05 0.00710712 1.12836e-05
 2.48367e-05 -0.00231014 -2.47982e-05
 -1.13363e-05 0.00710712 -3.20991e-05
 -5.53067e-06 -0.0015465 -5.36867e-06
 -1.22477e-05 0.00290223 -9.38384e-06
 -1.22469e-05 0.00290226 9.36223e-06
 -5.53196e-06 -0.00154652 5.37534e-06
 -1.1301e-05 0.00710709 3.21235e-05
 1.62814e-05 0.00345249 -2.7073e-05
 -1.01285e-05 0.00290217 -1.22641e-05
 -6.88046e-06 0.00450504 -6.89135e-06
 -6.88366e-06 0.00450505 6.92008e-06
 -1.01311e-05 0.00290225 1.22566e-05
 1.6266e-05 0.00345266 2.70603e-05
 -1.62759e-05 0.00345246 -2.69942e-05
 1.01291e-05 0.00290215 -1.23563e-05
 6.88394e-06 0.00450503 -6.86474e-06
 6.88593e-06 0.00450504 6.86246e-06
 1.01327e-05 0.00290223 1.23043e-05
 -1.63434e-05 0.0034526 2.70559e-05
 1.13367e-05 0.00710704 -3.21415e-05
 5.53266e-06 -0.0015466 -5.35599e-06
 1.22491e-05 0.00290213 -9.38337e-06
 1.22472e-05 0.00290216 9.36745e-06
 5.53258e-06 -0.00154659 5.36065e-06
 1.14293e-05 0.00710704 3.21594e-05
 -2.48768e-05 -0.00231023 2.5148e-05
 3.17829e-05 0.00710702 -1.14294e-05
 2.7053e-05 0.00345243 1.62448e-05
 2.70499e-05 0.00345244 -1.62352e-05
 3.17472e-05 0.00710702 1.13774e-05
 -2.48841e-05 -0.00231023 -2.50998e-05
 -3.30526e-06 -0.00739525 -3.2451e-06
 4.50788e-06 -0.00900836 8.0748e-06
 3.8942e-06 -4.00627e-05 1.28784e-05
 3.89531e-06 -4.00365e-05 -1.28704e-05
 4.46346e-06 -0.00900846 -8.07364e-06
 -3.29879e-06 -0.00739464 3.24696e-06
 8.19337e-06 -0.00900836 4.40307e-06
 1.16075e-05 0.00327197 1.15254e-05
 1.26657e-05 -0.00369749 -5.7428e-06
 1.26648e-05 -0.00369776 5.74704e-06
 1.16513e-05 0.00327206 -1.15223e-05
 8.20942e-06 -0.00900846 -4.40033e-06
 1.28261e-05 -4.02616e-05 3.87184e-06
 -5.69563e-06 -0.00369736 1.25874e-05
 5.19562e-06 0.00407351 5.17213e-06
 5.19591e-06 0.00407355 -5.16824e-06
 -5.68856e-06 -0.0036979 -1.25833e-05
 1.27999e-05 -3.99956e-05 -3.87045e-06
 -1.2844e-05 -4.02822e-05 3.62632e-06
 5.69523e-06 -0.00369748 1.26035e-05
 -5.19421e-06 0.00407358 5.18829e-06
 -5.19471e-06 0.00407365 -5.18457e-06
 5.69033e-06 -0.00369793 -1.25998e-05
 -1.28323e-05 -4.00593e-05 -3.62494e-06
 -8.17832e-06 -0.00900841 4.34507e-06
 -1.15991e-05 0.003272 1.1435e-05
 -1.26644e-05 -0.00369767 -5.74833e-06
 -1.26631e-05 -0.00369783 5.75236e-06
 -1.16491e-05 0.00327202 -1.14332e-05
 -8.17011e-06 -0.0090084 -4.34269e-06
 3.31955e-06 -0.00739446 -3.32182e-06
 -4.50836e-06 -0.00900842 7.74977e-06
 -3.89197e-06 -4.0257e-05 1.29924e-05
 -3.89416e-06 -4.02338e-05 -1.29791e-05
 -4.46271e-06 -0.00900838 -7.75345e-06
 3.29845e-06 -0.0073948 3.31991e-06
 -3.37718e-06 0.00471567 -3.33499e-06
 5.99571e-06 -0.00536829 6.51483e-06
 9.54306e-06 -5.35931e-05 6.415e-06
 9.54288e-06 -5.38019e-05 -6.41756e-06
 6.16831e-06 -0.00536831 -6.50373e-06
 -3.36095e-06 0.00471583 3.33644e-06
 6.60722e-06 -0.00536828 6.16861e-06
 -3.3711e-06 -0.00308705 -3.5351e-06
 -4.17019e-06 -0.000653274 3.61795e-06
 -4.17373e-06 -0.000653004 -3.61376e-06
 -3.50293e-06 -0.00308798 3.52319e-06
 6.35921e-06 -0.00536832 -6.15145e-06
 6.36314e-06 -5.31197e-05 9.50419e-06
 3.66761e-06 -0.00065341 -4.25557e-06
 2.91181e-07 0.00182742 3.32876e-07
 2.93788e-07 0.00182741 -3.29211e-07
 3.62341e-06 -0.000652922 4.25842e-06
 6.58844e-06 -5.40803e-05 -9.50166e-06
 -6.34618e-06 -5.3132e-05 9.47954e-06
 -3.66511e-06 -0.000653314 -4.2981e-06
 -2.88404e-07 0.00182734 3.53283e-07
 -2.92087e-07 0.00182731 -3.50739e-07
 -3.62158e-06 -0.000652921 4.30185e-06
 -6.58224e-06 -5.39067e-05 -9.4771e-06
 -6.62301e-06 -0.00536826 7.10762e-06
 3.38758e-06 -0.00308721 -4.54105e-06
 4.17171e-06 -0.000653158 3.62638e-06
 4.17597e-06 -0.000653018 -3.62271e-06
 3.51486e-06 -0.00308764 4.52398e-06
 -6.36053e-06 -0.00536842 -7.08575e-06
 3.38758e-06 0.00471588 -3.37246e-06
 -6.00622e-06 -0.00536825 7.48116e-06
 -9.5408e-06 -5.33296e-05 5.34219e-06
 -9.54079e-06 -5.33812e-05 -5.5091e-06
 -6.17521e-06 -0.0053684 -7.36197e-06
 3.36495e-06 0.00471578 3.42847e-06
 -1.2737e-06 0.000328186 -1.28097e-06
 -4.10055e-06 -0.00858956 6.65138e-06
 3.01753e-06 0.00612729 -9.10676e-07
 3.00454e-06 0.00612751 9.14084e-07
 -4.10707e-06 -0.00858885 -6.61633e-06
 -1.32272e-06 0.000328516 1.24937e-06
 6.60577e-06 -0.00858978 -4.09791e-06
 8.87482e-06 -0.00533211 8.87135e-06
 2.323e-06 -0.011812 2.08011e-06
 2.33131e-06 -0.0118121 -2.07841e-06
 8.87513e-06 -0.00533278 -8.86992e-06
 6.64746e-06 -0.00858887 4.10142e-06
 -9.0322e-07 0.00612665 3.11261e-06
 2.0807e-06 -0.0118121 2.18834e-06
 -9.95858e-07 0.0152055 -9.85756e-07
 -9.93101e-07 0.0152055 9.90119e-07
 2.08156e-06 -0.0118121 -2.18662e-06
 -9.02587e-07 0.00612766 -3.11217e-06
 9.07418e-07 0.00612652 3.09233e-06
 -2.07575e-06 -0.0118122 2.15798e-06
 1.00349e-06 0.0152056 -9.66847e-07
 1.00103e-06 0.0152055 9.69924e-07
 -2.077e-06 -0.0118121 -2.15778e-06
 9.06232e-07 0.00612738 -3.08906e-06
 -6.61578e-06 -0.00858994 -4.02793e-06
 -8.87031e-06 -0.0053322 8.81524e-06
 -2.31112e-06 -0.0118122 2.07333e-06
 -2.31862e-06 -0.0118122 -2.07061e-06
 -8.87102e-06 -0.00533257 -8.81267e-06
 -6.64418e-06 -0.0085894 4.02927e-06
 1.28938e-06 0.000328748 -1.83272e-06
 4.0988e-06 -0.00858985 7.16202e-06
 -3.03049e-06 0.00612651 -9.17153e-07
 -3.01867e-06 0.00612656 9.20068e-07
 4.10587e-06 -0.00858971 -7.14151e-06
 1.3252e-06 0.000328575 1.81605e-06
 4.61299e-06 0.000488219 4.63154e-06
 7.78202e-07 0.00155851 2.40293e-06
 1.48811e-06 -0.00692574 -2.36595e-06
 1.4873e-06 -0.00692557 2.35854e-06
 7.77149e-07 0.00155704 -2.39512e-06
 4.62892e-06 0.000487288 -4.62946e-06
 2.3887e-06 0.00155899 7.87205e-07
 5.59432e-06 -0.00334233 5.59584e-06
 4.81577e-06 0.0055432 -2.35891e-06
 4.81536e-06 0.00554313 2.36056e-06
 5.5913e-06 -0.00334136 -5.59361e-06
 2.4303e-06 0.00155712 -7.88499e-07
 -2.36281e-06 -0.00692577 1.48392e-06
 -2.33724e-06 0.00554325 4.8155e-06
 -1.70359e-06 0.0141643 -1.7017e-06
 -1.7038e-06 0.0141643 1.70292e-06
 -2.33755e-06 0.0055431 -4.81559e-06
 -2.35827e-06 -0.0069253 -1.48226e-06
 2.36945e-06 -0.00692549 1.47247e-06
 2.33995e-06 0.00554324 4.80934e-06
 1.70608e-06 0.0141643 -1.71173e-06
 1.70625e-06 0.0141643 1.71327e-06
 2.33984e-06 0.00554309 -4.80935e-06
 2.36312e-06 -0.00692527 -1.47085e-06
 -2.38978e-06 0.00155949 7.61432e-07
 -5.59282e-06 -0.00334222 5.57189e-06
 -4.8138e-06 0.0055432 -2.31737e-06
 -4.81334e-06 0.00554315 2.31849e-06
 -5.58908e-06 -0.00334169 -5.56917e-06
 -2.42893e-06 0.00155806 -7.61815e-07
 -4.61138e-06 0.000486591 4.57129e-06
 -7.76411e-07 0.00155933 2.38863e-06
 -1.48703e-06 -0.00692503 -2.42002e-06
 -1.48589e-06 -0.00692499 2.41367e-06
 -7.74695e-07 0.00155877 -2.38097e-06
 -4.6264e-06 0.000487241 -4.56877e-06
 4.93518e-06 -0.00640417 4.9521e-06
 9.72521e-07 0.00737453 6.50111e-07
 6.92816e-06 0.000819777 -3.72023e-06
 6.92748e-06 0.00082001 3.71955e-06
 9.72816e-07 0.007376 -6.50804e-07
 4.93192e-06 -0.00640314 -4.95287e-06
 6.73302e-07 0.00737412 9.75009e-07
 7.37312e-06 -0.00551963 7.38752e-06
 1.82678e-07 -0.00815226 -4.18985e-06
 1.8239e-07 -0.00815225 4.18929e-06
 7.36987e-06 -0.00551968 -7.38793e-06
 6.70543e-07 0.00737584 -9.75788e-07
 -3.68791e-06 0.000819173 6.93305e-06
 -4.1816e-06 -0.00815221 1.87122e-07
 -3.0655e-06 -0.00496052 -3.06733e-06
 -3.06618e-06 -0.0049605 3.06694e-06
 -4.18439e-06 -0.00815221 -1.87532e-07
 -3.6933e-06 0.000820265 -6.9335e-06
 3.6891e-06 0.000819099 6.92607e-06
 4.18281e-06 -0.0081521 1.84451e-07
 3.06663e-06 -0.00496054 -3.04696e-06
 3.06754e-06 -0.00496052 3.07331e-06
 4.18616e-06 -0.00815217 -2.11354e-07
 3.69559e-06 0.000820022 -6.92632e-06
 -6.71767e-07 0.00737657 1.01157e-06
 -7.37145e-06 -0.00551963 7.32362e-06
 -1.81335e-07 -0.00815204 -4.19889e-06
 -1.80838e-07 -0.00815209 4.19899e-06
 -7.36702e-06 -0.00551963 -7.32336e-06
 -6.68066e-07 0.00737455 -1.01209e-06
 -4.93361e-06 -0.0064024 4.91724e-06
 -9.71464e-07 0.00737654 6.70019e-07
 -6.92657e-06 0.000819216 -3.65888e-06
 -6.92567e-06 0.000819275 3.65908e-06
 -9.71529e-07 0.00737682 -6.69986e-07
 -4.92917e-06 -0.00640331 -4.91707e-06
 3.56366e-06 -0.00269236 3.57868e-06
 4.25071e-06 0.00613745 2.14456e-06
 3.75468e-06 0.000277904 -4.69522e-06
 3.75442e-06 0.000278003 4.69439e-06
 4.24911e-06 0.00613681 -2.14743e-06
 3.56816e-06 -0.00266166 -3.58148e-06
 2.13764e-06 0.00613759 4.26263e-06
 2.89191e-06 0.00312638 2.8991e-06
 4.13175e-06 0.00562848 5.34917e-06
 4.13099e-06 0.00562861 -5.34836e-06
 2.88854e-06 0.00312627 -2.90325e-06
 2.15987e-06 0.00613688 -4.26514e-06
 -4.68129e-06 0.000277985 3.76256e-06
 5.34946e-06 0.00562836 4.13714e-06
 4.32385e-06 -0.00751603 4.32305e-06
 4.32422e-06 -0.00751607 -4.32321e-06
 5.35236e-06 0.00562858 -4.13969e-06
 -4.70436e-06 0.000278149 -3.76503e-06
 4.68115e-06 0.000278156 3.75852e-06
 -5.34932e-06 0.00562834 4.13523e-06
 -4.32344e-06 -0.00751602 4.32196e-06
 -4.32372e-06 -0.00751606 -4.32167e-06
 -5.35129e-06 0.00562852 -4.13759e-06
 4.70592e-06 0.000278183 -3.76088e-06
 -2.13681e-06 0.00613514 4.251e-06
 -2.89102e-06 0.00312628 2.89279e-06
 -4.13077e-06 0.00562837 5.3463e-06
 -4.1297e-06 0.00562845 -5.34446e-06
 -2.88682e-06 0.00312615 -2.89654e-06
 -2.15776e-06 0.00613754 -4.25285e-06
 -3.56298e-06 -0.00264592 3.5599e-06
 -4.25012e-06 0.00613519 2.1339e-06
 -3.75389e-06 0.000278377 -4.68848e-06
 -3.75314e-06 0.000278335 4.68891e-06
 -4.24763e-06 0.00613519 -2.13573e-06
 -3.56611e-06 -0.00266453 -3.56162e-06
 2.47575e-06 -0.00213344 2.48453e-06
 1.99781e-06 -0.00175659 1.68384e-06
 1.95093e-06 0.00437357 2.74072e-06
 1.95045e-06 0.00437334 -2.74376e-06
 1.99669e-06 -0.0017565 -1.68737e-06
 2.47336e-06 -0.00216553 -2.48774e-06
 1.67886e-06 -0.0017566 2.00552e-06
 9.19617e-07 -0.000735387 9.23816e-07
 9.23068e-07 -0.000627806 3.69664e-06
 9.22927e-07 -0.000627939 -3.69961e-06
 9.19175e-07 -0.000735254 -9.26875e-07
 1.67792e-06 -0.00175646 -2.0085e-06
 2.74049e-06 0.00437379 1.95784e-06
 3.69646e-06 -0.000627721 9.26493e-07
 3.59263e-06 0.00707033 3.59219e-06
 3.59271e-06 0.00707034 -3.59466e-06
 3.69637e-06 -0.000627943 -9.29333e-07
 2.74024e-06 0.00437306 -1.96075e-06
 -2.74059e-06 0.00437365 1.9563e-06
 -3.69651e-06 -0.000627749 9.25605e-07
 -3.59227e-06 0.00707033 3.59196e-06
 -3.59204e-06 0.00707034 -3.59422e-06
 -3.69545e-06 -0.000627914 -9.28153e-07
 -2.73892e-06 0.00437314 -1.95892e-06
 -1.67924e-06 -0.00175652 2.00078e-06
 -9.19746e-07 -0.000735248 9.21232e-07
 -9.22928e-07 -0.000627804 3.69602e-06
 -9.22447e-07 -0.000627875 -3.69823e-06
 -9.18291e-07 -0.000735196 -9.23529e-07
 -1.67655e-06 -0.00175647 -2.00294e-06
 -2.47612e-06 -0.00218197 2.4773e-06
 -1.99786e-06 -0.00175647 1.67985e-06
 -1.95086e-06 0.00437333 2.7393e-06
 -1.95003e-06 0.00437332 -2.74099e-06
 -1.99576e-06 -0.00175644 -1.68229e-06
 -2.47205e-06 -0.00216262 -2.47914e-06
 2.01113e-06 -0.00218768 2.01459e-06
 2.6715e-06 -0.000939028 1.78227e-06
 2.09355e-06 -0.00736323 3.00066e-06
 2.09317e-06 -0.007363 -3.00454e-06
 2.6708e-06 -0.000938808 -1.78676e-06
 2.00958e-06 -0.00218846 -2.01793e-06
 1.78086e-06 -0.00093916 2.67504e-06
 -8.07013e-07 -0.00048464 -8.06029e-07
 -9.76985e-07 0.0139835 4.58331e-06
 -9.7705e-07 0.0139836 -4.58711e-06
 -8.06765e-07 -0.000484914 8.02107e-07
 1.78099e-06 -0.000938825 -2.67822e-06
 3.0009e-06 -0.00736351 2.09715e-06
 4.58318e-06 0.0139836 -9.75999e-07
 5.20332e-06 -0.00709463 5.20327e-06
 5.20341e-06 -0.0070947 -5.20666e-06
 4.58253e-06 0.0139836 9.72633e-07
 3.00047e-06 -0.00736274 -2.10044e-06
 -3.01635e-06 -0.00736339 2.0968e-06
 -4.5839e-06 0.0139836 -9.76154e-07
 -5.20355e-06 -0.00709462 5.20321e-06
 -5.20331e-06 -0.00709469 -5.20635e-06
 -4.58224e-06 0.0139836 9.73058e-07
 -2.99445e-06 -0.00736284 -2.09981e-06
 -1.77677e-06 -0.000939426 2.67397e-06
 8.06131e-07 -0.000484838 -8.06319e-07
 9.76788e-07 0.0139837 4.58315e-06
 9.77193e-07 0.0139837 -4.58616e-06
 8.06938e-07 -0.000484815 8.03198e-07
 -1.78586e-06 -0.000939001 -2.6763e-06
 -2.00207e-06 -0.00218828 2.01305e-06
 -2.67134e-06 -0.000939493 1.78206e-06
 -2.09364e-06 -0.0073631 3.00027e-06
 -2.09291e-06 -0.00736307 -3.00286e-06
 -2.66966e-06 -0.000939193 -1.78522e-06
 -2.00798e-06 -0.00218831 -2.01505e-06
 -9.78242e-08 -0.00242298 -9.80532e-08
 -2.92763e-07 -0.00815625 2.53997e-06
 -4.97394e-07 0.00141342 7.19111e-06
 -4.97596e-07 0.00141269 -7.1947e-06
 -2.93376e-07 -0.00815646 -2.54456e-06
 -9.85274e-08 -0.00241923 9.40405e-08
 2.53862e-06 -0.00815616 -2.92611e-07
 2.52132e-06 0.00300479 2.51633e-06
 2.59338e-06 -0.00292514 6.98459e-06
 2.59328e-06 -0.00292543 -6.98837e-06
 2.52326e-06 0.0030047 -2.52001e-06
 2.53569e-06 -0.00815651 2.88718e-07
 7.1939e-06 0.00141459 -4.9683e-07
 6.98055e-06 -0.00292495 2.58835e-06
 6.19425e-06 7.781e-05 6.17345e-06
 6.18201e-06 7.78313e-05 -6.17679e-06
 6.97871e-06 -0.00292553 -2.59196e-06
 7.19668e-06 0.00141184 4.93255e-07
 -7.1953e-06 0.0014143 -4.96693e-07
 -6.98104e-06 -0.00292498 2.5883e-06
 -6.19428e-06 7.78332e-05 6.17515e-06
 -6.18175e-06 7.78498e-05 -6.17818e-06
 -6.97829e-06 -0.00292551 -2.59169e-06
 -7.19632e-06 0.00141226 4.93391e-07
 -2.53951e-06 -0.00815613 -2.92174e-07
 -2.52252e-06 0.00300476 2.51773e-06
 -2.59435e-06 -0.00292513 6.98392e-06
 -2.59389e-06 -0.00292533 -6.9869e-06
 -2.52341e-06 0.00300471 -2.52065e-06
 -2.5352e-06 -0.00815642 2.89101e-07
 9.67805e-08 -0.00241852 -9.72247e-08
 2.91978e-07 -0.00815614 2.53936e-06
 4.96852e-07 0.00141348 7.19296e-06
 4.97387e-07 0.00141341 -7.19515e-06
 2.93559e-07 -0.00815639 -2.54282e-06
 9.91267e-08 -0.0024195 9.45613e-08
 1.59384e-06 0.00503393 1.59208e-06
 9.67698e-07 0.00580087 4.4821e-07
 7.50506e-07 -0.0102152 1.57094e-06
 7.50536e-07 -0.0102148 -1.57439e-06
 9.67627e-07 0.0058006 -4.52372e-07
 1.5941e-06 0.00503376 -1.59604e-06
 4.47524e-07 0.00580098 9.66347e-07
 9.54887e-07 -0.00309111 9.53439e-07
 8.7112e-07 -0.00114227 1.54192e-06
 8.70944e-07 -0.00114208 -1.54545e-06
 9.54953e-07 -0.0030908 -9.57078e-07
 4.50791e-07 0.00580059 -9.69949e-07
 1.56852e-06 -0.0102158 7.49368e-07
 1.54278e-06 -0.00114238 8.69992e-07
 1.81857e-06 -0.00205393 1.81796e-06
 1.81875e-06 -0.00205386 -1.82079e-06
 1.54285e-06 -0.00114201 -8.73639e-07
 1.56497e-06 -0.0102143 -7.52877e-07
 -1.57071e-06 -0.0102156 7.49611e-07
 -1.54403e-06 -0.00114237 8.70145e-07
 -1.8198e-06 -0.00205395 1.81815e-06
 -1.81977e-06 -0.00205387 -1.82072e-06
 -1.54324e-06 -0.00114202 -8.73562e-07
 -1.56524e-06 -0.0102145 -7.52866e-07
 -4.54221e-07 0.00580109 9.67072e-07
 -9.56127e-07 -0.00309095 9.54011e-07
 -8.72016e-07 -0.00114229 1.54239e-06
 -8.71516e-07 -0.00114214 -1.5452e-06
 -9.55298e-07 -0.00309089 -9.56899e-07
 -4.50849e-07 0.00580074 -9.69911e-07
 -1.5895e-06 0.00503421 1.59347e-06
 -9.68929e-07 0.00580109 4.4664e-07
 -7.51225e-07 -0.0102151 1.56816e-06
 -7.50896e-07 -0.0102151 -1.57041e-06
 -9.67939e-07 0.0058009 -4.49592e-07
 -1.59392e-06 0.0050337 -1.59617e-06
 2.65626e-06 0.00567307 2.65408e-06
 2.37239e-06 0.000752339 3.24975e-06
 2.09618e-06 -0.00155149 2.14329e-06
 2.09628e-06 -0.00155228 -2.14581e-06
 2.37298e-06 0.00075236 -3.25253e-06
 2.65803e-06 0.00567374 -2.65901e-06
 3.25098e-06 0.000752322 2.37031e-06
 3.11128e-06 0.00767733 3.11043e-06
 3.11935e-06 0.00379804 -1.13688e-06
 3.11932e-06 0.0037981 1.13443e-06
 3.11093e-06 0.00767746 -3.11327e-06
 3.24991e-06 0.000752331 -2.37452e-06
 2.14287e-06 -0.00155036 2.09461e-06
 -1.13483e-06 0.00379802 3.11846e-06
 9.24553e-08 -0.00114972 9.12358e-08
 9.2607e-08 -0.00114976 -9.39226e-08
 -1.13484e-06 0.00379814 -3.12137e-06
 2.14617e-06 -0.00155324 -2.09779e-06
 -2.14411e-06 -0.0015508 2.09484e-06
 1.13343e-06 0.00379807 3.11867e-06
 -9.38291e-08 -0.00114971 9.11554e-08
 -9.37515e-08 -0.00114975 -9.36243e-08
 1.13412e-06 0.00379814 -3.12135e-06
 -2.14653e-06 -0.00155288 -2.09776e-06
 -3.2525e-06 0.000752247 2.37109e-06
 -3.11292e-06 0.00767734 3.11109e-06
 -3.12084e-06 0.00379812 -1.13824e-06
 -3.12056e-06 0.00379814 1.13649e-06
 -3.11192e-06 0.0076774 -3.11328e-06
 -3.25063e-06 0.000752291 -2.37457e-06
 -2.65948e-06 0.00567413 2.65542e-06
 -2.37459e-06 0.00075223 3.25092e-06
 -2.09778e-06 -0.00155192 2.14615e-06
 -2.09757e-06 -0.00155211 -2.14759e-06
 -2.37413e-06 0.000752237 -3.25267e-06
 -2.65903e-06 0.0056737 -2.65904e-06
 3.97944e-06 0.00189812 3.9778e-06
 3.72898e-06 0.00416545 4.17825e-07
 3.20346e-06 -0.00157732 1.70726e-06
 3.20346e-06 -0.00157728 -1.71184e-06
 3.72926e-06 0.00416394 -4.2202e-07
 3.98036e-06 0.00190287 -3.97734e-06
 4.19183e-07 0.00416591 3.72782e-06
 3.62793e-07 -0.00228611 3.62521e-07
 1.05211e-06 -0.000337585 5.32207e-07
 1.05216e-06 -0.000337561 -5.36754e-07
 3.61968e-07 -0.00228617 -3.63581e-07
 4.22746e-07 0.00416391 -3.72986e-06
 1.72524e-06 -0.00157732 3.20086e-06
 5.25024e-07 -0.000337611 1.05004e-06
 2.11604e-06 -0.00454771 2.11883e-06
 2.11621e-06 -0.00454782 -2.11917e-06
 5.27217e-07 -0.000337574 -1.05393e-06
 1.75078e-06 -0.00157735 -3.20361e-06
 -1.7289e-06 -0.00157733 3.20274e-06
 -5.29403e-07 -0.000337662 1.05188e-06
 -2.11936e-06 -0.00454785 2.11582e-06
 -2.1193e-06 -0.00454794 -2.11931e-06
 -5.30965e-07 -0.000337604 -1.05399e-06
 -1.7533e-06 -0.00157737 -3.2035e-06
 -4.22154e-07 0.00416616 3.72877e-06
 -3.63636e-07 -0.00228604 3.61864e-07
 -1.05426e-06 -0.000337689 5.23398e-07
 -1.05414e-06 -0.000337649 -5.27673e-07
 -3.62061e-07 -0.00228608 -3.61994e-07
 -4.245e-07 0.00416467 -3.73012e-06
 -3.9805e-06 0.00190399 3.9803e-06
 -3.73076e-06 0.00416592 4.22494e-07
 -3.20428e-06 -0.00157736 1.746e-06
 -3.20399e-06 -0.00157733 -1.7491e-06
 -3.73034e-06 0.00416533 -4.24634e-07
 -3.98034e-06 0.0019027 -3.98027e-06
 1.06109e-06 -0.00565045 1.06034e-06
 3.87401e-06 0.00172848 4.59967e-06
 3.90063e-06 0.00225535 -2.46869e-06
 3.90069e-06 0.00225579 2.46666e-06
 3.87417e-06 0.0017295 -4.60165e-06
 1.06131e-06 -0.00565571 -1.06249e-06
 4.59914e-06 0.00172816 3.87382e-06
 2.11037e-06 0.00530242 2.11053e-06
 2.22426e-06 0.00377582 -2.43753e-06
 2.22431e-06 0.00377564 2.43575e-06
 2.11045e-06 0.00530221 -2.11244e-06
 4.59949e-06 0.00172956 -3.8757e-06
 -2.46926e-06 0.00225461 3.90056e-06
 -2.43786e-06 0.00377581 2.22446e-06
 -2.41182e-06 0.00527437 -2.41129e-06
 -2.41171e-06 0.00527447 2.40964e-06
 -2.43741e-06 0.00377548 -2.22612e-06
 -2.46899e-06 0.00225651 -3.90225e-06
 2.46609e-06 0.00225502 3.90072e-06
 2.43476e-06 0.00377529 2.22453e-06
 2.40901e-06 0.00527449 -2.41116e-06
 2.40908e-06 0.00527455 2.40972e-06
 2.43495e-06 0.00377535 -2.22603e-06
 2.46678e-06 0.00225633 -3.90222e-06
 -4.60215e-06 0.00172803 3.8743e-06
 -2.11316e-06 0.00530225 2.11071e-06
 -2.22691e-06 0.00377498 -2.43691e-06
 -2.22672e-06 0.00377509 2.43563e-06
 -2.1127e-06 0.00530221 -2.11202e-06
 -4.60141e-06 0.00172913 -3.87561e-06
 -1.06443e-06 -0.00565776 1.06162e-06
 -3.87702e-06 0.00172822 4.59968e-06
 -3.90346e-06 0.00225586 -2.46837e-06
 -3.90332e-06 0.00225586 2.46725e-06
 -3.87657e-06 0.0017287 -4.60055e-06
 -1.06377e-06 -0.00565531 -1.06302e-06
 2.93994e-06 0.000388936 2.94069e-06
 3.03824e-06 -0.000437628 1.66392e-06
 3.02192e-06 -0.0043537 1.86581e-06
 3.02197e-06 -0.00435394 -1.86716e-06
 3.03841e-06 -0.000437375 -1.66529e-06
 2.94021e-06 0.000391551 -2.94205e-06
 1.66304e-06 -0.000437712 3.03898e-06
 1.52909e-06 0.00289765 1.52998e-06
 1.47125e-06 0.00233995 1.85115e-06
 1.47132e-06 0.00234014 -1.85234e-06
 1.5293e-06 0.00289808 -1.53118e-06
 1.66339e-06 -0.000437348 -3.04018e-06
 1.86489e-06 -0.00435334 3.02269e-06
 1.85016e-06 0.00233995 1.47213e-06
 1.89525e-06 0.000731806 1.89627e-06
 1.89533e-06 0.000731792 -1.89732e-06
 1.85039e-06 0.00234029 -1.47316e-06
 1.86529e-06 -0.00435429 -3.02372e-06
 -1.86855e-06 -0.00435355 3.02279e-06
 -1.85362e-06 0.00234043 1.47223e-06
 -1.89857e-06 0.000731797 1.89637e-06
 -1.89849e-06 0.000731791 -1.89726e-06
 -1.85336e-06 0.0023404 -1.47311e-06
 -1.86814e-06 -0.0043542 -3.02365e-06
 -1.66673e-06 -0.000437722 3.03927e-06
 -1.5326e-06 0.00289805 1.53027e-06
 -1.47455e-06 0.00234073 1.85144e-06
 -1.47445e-06 0.00234064 -1.85216e-06