<?xml version="1.0"?>
<VTKFile type="UnstructuredGrid" version="0.1" byte_order="LittleEndian" compressor="vtkZLibDataCompressor">
<UnstructuredGrid>
<Piece NumberOfPoints="960" NumberOfCells="120">
<Points>
<DataArray type="Float32" NumberOfComponents="3" format="ascii">
-4.000000e+02 -6.000000e+03 -4.000000e+02
0.000000e+00 -6.000000e+03 -4.000000e+02
-4.000000e+02 -5.600000e+03 -4.000000e+02
-8.764570e-10 -5.600000e+03 -4.000000e+02
-4.000000e+02 -6.000000e+03 0.000000e+00
0.000000e+00 -6.000000e+03 0.000000e+00
-4.000000e+02 -5.600000e+03 -9.581040e-10
-1.086470e-09 -5.600000e+03 -4.009620e-10
0.000000e+00 -6.000000e+03 -4.000000e+02
4.000000e+02 -6.000000e+03 -4.000000e+02
-8.764570e-10 -5.600000e+03 -4.000000e+02
4.000000e+02 -5.600000e+03 -4.000000e+02
0.000000e+00 -6.000000e+03 0.000000e+00
4.000000e+02 -6.000000e+03 0.000000e+00
-1.086470e-09 -5.600000e+03 -4.009620e-10
4.000000e+02 -5.600000e+03 -3.223930e-10
-4.000000e+02 -5.600000e+03 -4.000000e+02
-8.764570e-10 -5.600000e+03 -4.000000e+02
-4.000000e+02 -5.200000e+03 -4.000000e+02
-1.704990e-09 -5.200000e+03 -4.000000e+02
-4.000000e+02 -5.600000e+03 -9.581040e-10
-1.086470e-09 -5.600000e+03 -4.009620e-10
-4.000000e+02 -5.200000e+03 -1.377320e-09
-1.330240e-09 -5.200000e+03 -1.620940e-09
-8.764570e-10 -5.600000e+03 -4.000000e+02
4.000000e+02 -5.600000e+03 -4.000000e+02
-1.704990e-09 -5.200000e+03 -4.000000e+02
4.000000e+02 -5.200000e+03 -4.000000e+02
-1.086470e-09 -5.600000e+03 -4.009620e-10
4.000000e+02 -5.600000e+03 -3.223930e-10
-1.330240e-09 -5.200000e+03 -1.620940e-09
4.000000e+02 -5.200000e+03 -4.800350e-10
-4.000000e+02 -5.200000e+03 -4.000000e+02
-1.704990e-09 -5.200000e+03 -4.000000e+02
-4.000000e+02 -4.800000e+03 -4.000000e+02
-1.856800e-09 -4.800000e+03 -4.000000e+02
-4.000000e+02 -5.200000e+03 -1.377320e-09
-1.330240e-09 -5.200000e+03 -1.620940e-09
-4.000000e+02 -4.800000e+03 -1.238320e-09
-1.480770e-09 -4.800000e+03 -2.633910e-10
-1.704990e-09 -5.200000e+03 -4.000000e+02
4.000000e+02 -5.200000e+03 -4.000000e+02
-1.856800e-09 -4.800000e+03 -4.000000e+02
4.000000e+02 -4.800000e+03 -4.000000e+02
-1.330240e-09 -5.200000e+03 -1.620940e-09
4.000000e+02 -5.200000e+03 -4.800350e-10
-1.480770e-09 -4.800000e+03 -2.633910e-10
4.000000e+02 -4.800000e+03 -3.244620e-10
-4.000000e+02 -4.800000e+03 -4.000000e+02
-1.856800e-09 -4.800000e+03 -4.000000e+02
-4.000000e+02 -4.400000e+03 -4.000000e+02
-9.530670e-10 -4.400000e+03 -4.000000e+02
-4.000000e+02 -4.800000e+03 -1.238320e-09
-1.480770e-09 -4.800000e+03 -2.633910e-10
-4.000000e+02 -4.400000e+03 -8.537450e-11
-1.479980e-09 -4.400000e+03 6.042130e-10
-1.856800e-09 -4.800000e+03 -4.000000e+02
4.000000e+02 -4.800000e+03 -4.000000e+02
-9.530670e-10 -4.400000e+03 -4.000000e+02
4.000000e+02 -4.400000e+03 -4.000000e+02
-1.480770e-09 -4.800000e+03 -2.633910e-10
4.000000e+02 -4.800000e+03 -3.244620e-10
-1.479980e-09 -4.400000e+03 6.042130e-10
4.000000e+02 -4.400000e+03 2.480000e-10
-4.000000e+02 -4.400000e+03 -4.000000e+02
-9.530670e-10 -4.400000e+03 -4.000000e+02
-4.000000e+02 -4.000000e+03 -4.000000e+02
-1.115200e-10 -4.000000e+03 -4.000000e+02
-4.000000e+02 -4.400000e+03 -8.537450e-11
-1.479980e-09 -4.400000e+03 6.042130e-10
-4.000000e+02 -4.000000e+03 -3.015130e-10
-5.784360e-10 -4.000000e+03 -4.762990e-11
-9.530670e-10 -4.400000e+03 -4.000000e+02
4.000000e+02 -4.400000e+03 -4.000000e+02
-1.115200e-10 -4.000000e+03 -4.000000e+02
4.000000e+02 -4.000000e+03 -4.000000e+02
-1.479980e-09 -4.400000e+03 6.042130e-10
4.000000e+02 -4.400000e+03 2.480000e-10
-5.784360e-10 -4.000000e+03 -4.762990e-11
4.000000e+02 -4.000000e+03 3.957510e-10
-4.000000e+02 -4.000000e+03 -4.000000e+02
-1.115200e-10 -4.000000e+03 -4.000000e+02
-4.000000e+02 -3.600000e+03 -4.000000e+02
1.767610e-11 -3.600000e+03 -4.000000e+02
-4.000000e+02 -4.000000e+03 -3.015130e-10
-5.784360e-10 -4.000000e+03 -4.762990e-11
-4.000000e+02 -3.600000e+03 -1.158200e-11
-2.876330e-10 -3.600000e+03 -5.633850e-10
-1.115200e-10 -4.000000e+03 -4.000000e+02
4.000000e+02 -4.000000e+03 -4.000000e+02
1.767610e-11 -3.600000e+03 -4.000000e+02
4.000000e+02 -3.600000e+03 -4.000000e+02
-5.784360e-10 -4.000000e+03 -4.762990e-11
4.000000e+02 -4.000000e+03 3.957510e-10
-2.876330e-10 -3.600000e+03 -5.633850e-10
4.000000e+02 -3.600000e+03 2.336490e-10
-4.000000e+02 -3.600000e+03 -4.000000e+02
1.767610e-11 -3.600000e+03 -4.000000e+02
-4.000000e+02 -3.200000e+03 -4.000000e+02
-4.812180e-10 -3.200000e+03 -4.000000e+02
-4.000000e+02 -3.600000e+03 -1.158200e-11
-2.876330e-10 -3.600000e+03 -5.633850e-10
-4.000000e+02 -3.200000e+03 -7.792320e-12
-7.979640e-10 -3.200000e+03 4.329600e-11
1.767610e-11 -3.600000e+03 -4.000000e+02
4.000000e+02 -3.600000e+03 -4.000000e+02
-4.812180e-10 -3.200000e+03 -4.000000e+02
4.000000e+02 -3.200000e+03 -4.000000e+02
-2.876330e-10 -3.600000e+03 -5.633850e-10
4.000000e+02 -3.600000e+03 2.336490e-10
-7.979640e-10 -3.200000e+03 4.329600e-11
4.000000e+02 -3.200000e+03 -8.723950e-11
-4.000000e+02 -3.200000e+03 -4.000000e+02
-4.812180e-10 -3.200000e+03 -4.000000e+02
-4.000000e+02 -2.800010e+03 -4.000000e+02
8.505330e-10 -2.800010e+03 -4.000000e+02
-4.000000e+02 -3.200000e+03 -7.792320e-12
-7.979640e-10 -3.200000e+03 4.329600e-11
-4.000000e+02 -2.800010e+03 4.441430e-10
3.586320e-10 -2.800010e+03 8.875900e-10
-4.812180e-10 -3.200000e+03 -4.000000e+02
4.000000e+02 -3.200000e+03 -4.000000e+02
8.505330e-10 -2.800010e+03 -4.000000e+02
4.000000e+02 -2.800010e+03 -4.000000e+02
-7.979640e-10 -3.200000e+03 4.329600e-11
4.000000e+02 -3.200000e+03 -8.723950e-11
3.586320e-10 -2.800010e+03 8.875900e-10
4.000000e+02 -2.800010e+03 3.659230e-10
-4.000000e+02 -2.800010e+03 -4.000000e+02
8.505330e-10 -2.800010e+03 -4.000000e+02
-4.000000e+02 -2.400010e+03 -4.000000e+02
6.857590e-10 -2.400010e+03 -4.000000e+02
-4.000000e+02 -2.800010e+03 4.441430e-10
3.586320e-10 -2.800010e+03 8.875900e-10
-4.000000e+02 -2.400010e+03 1.235930e-09
4.489730e-10 -2.400010e+03 6.038280e-10
8.505330e-10 -2.800010e+03 -4.000000e+02
4.000000e+02 -2.800010e+03 -4.000000e+02
6.857590e-10 -2.400010e+03 -4.000000e+02
4.000000e+02 -2.400010e+03 -4.000000e+02
3.586320e-10 -2.800010e+03 8.875900e-10
4.000000e+02 -2.800010e+03 3.659230e-10
4.489730e-10 -2.400010e+03 6.038280e-10
4.000000e+02 -2.400010e+03 5.062230e-10
-4.000000e+02 -2.400010e+03 -4.000000e+02
6.857590e-10 -2.400010e+03 -4.000000e+02
-4.000000e+02 -2.000020e+03 -4.000000e+02
-1.296460e-09 -2.000020e+03 -4.000000e+02
-4.000000e+02 -2.400010e+03 1.235930e-09
4.489730e-10 -2.400010e+03 6.038280e-10
-4.000000e+02 -2.000020e+03 -2.466620e-10
-1.179220e-09 -2.000020e+03 8.860020e-11
6.857590e-10 -2.400010e+03 -4.000000e+02
4.000000e+02 -2.400010e+03 -4.000000e+02
-1.296460e-09 -2.000020e+03 -4.000000e+02
4.000000e+02 -2.000020e+03 -4.000000e+02
4.489730e-10 -2.400010e+03 6.038280e-10
4.000000e+02 -2.400010e+03 5.062230e-10
-1.179220e-09 -2.000020e+03 8.860020e-11
4.000000e+02 -2.000020e+03 2.619170e-10
-4.000000e+02 -2.000020e+03 -4.000000e+02
-1.296460e-09 -2.000020e+03 -4.000000e+02
-4.000000e+02 -1.600030e+03 -4.000000e+02
-8.427460e-11 -1.600030e+03 -4.000000e+02
-4.000000e+02 -2.000020e+03 -2.466620e-10
-1.179220e-09 -2.000020e+03 8.860020e-11
-4.000000e+02 -1.600030e+03 2.243350e-10
-6.978680e-10 -1.600030e+03 5.899280e-10
-1.296460e-09 -2.000020e+03 -4.000000e+02
4.000000e+02 -2.000020e+03 -4.000000e+02
-8.427460e-11 -1.600030e+03 -4.000000e+02
4.000000e+02 -1.600030e+03 -4.000000e+02
-1.179220e-09 -2.000020e+03 8.860020e-11
4.000000e+02 -2.000020e+03 2.619170e-10
-6.978680e-10 -1.600030e+03 5.899280e-10
4.000000e+02 -1.600030e+03 4.866700e-10
-4.000000e+02 -1.600030e+03 -4.000000e+02
-8.427460e-11 -1.600030e+03 -4.000000e+02
-4.000000e+02 -1.200060e+03 -4.000000e+02
-1.723540e-09 -1.200060e+03 -4.000000e+02
-4.000000e+02 -1.600030e+03 2.243350e-10
-6.978680e-10 -1.600030e+03 5.899280e-10
-4.000000e+02 -1.200060e+03 -4.174930e-11
-1.368010e-09 -1.200060e+03 4.616180e-10
-8.427460e-11 -1.600030e+03 -4.000000e+02
4.000000e+02 -1.600030e+03 -4.000000e+02
-1.723540e-09 -1.200060e+03 -4.000000e+02
4.000000e+02 -1.200060e+03 -4.000000e+02
-6.978680e-10 -1.600030e+03 5.899280e-10
4.000000e+02 -1.600030e+03 4.866700e-10
-1.368010e-09 -1.200060e+03 4.616180e-10
4.000000e+02 -1.200060e+03 3.886640e-10
-4.000000e+02 -1.200060e+03 -4.000000e+02
-1.723540e-09 -1.200060e+03 -4.000000e+02
-4.000000e+02 -8.001090e+02 -4.000000e+02
-2.909190e-09 -8.001090e+02 -4.000000e+02
-4.000000e+02 -1.200060e+03 -4.174930e-11
-1.368010e-09 -1.200060e+03 4.616180e-10
-4.000000e+02 -8.001090e+02 1.718910e-09
-2.587220e-09 -8.001090e+02 1.110040e-09
-1.723540e-09 -1.200060e+03 -4.000000e+02
4.000000e+02 -1.200060e+03 -4.000000e+02
-2.909190e-09 -8.001090e+02 -4.000000e+02
4.000000e+02 -8.001090e+02 -4.000000e+02
-1.368010e-09 -1.200060e+03 4.616180e-10
4.000000e+02 -1.200060e+03 3.886640e-10
-2.587220e-09 -8.001090e+02 1.110040e-09
4.000000e+02 -8.001090e+02 1.327620e-09
-4.000000e+02 -8.001090e+02 -4.000000e+02
-2.909190e-09 -8.001090e+02 -4.000000e+02
-4.000000e+02 -4.001750e+02 -4.000000e+02
-2.487860e-09 -4.001750e+02 -4.000000e+02
-4.000000e+02 -8.001090e+02 1.718910e-09
-2.587220e-09 -8.001090e+02 1.110040e-09
-4.000000e+02 -4.001750e+02 3.433980e-09
-2.498600e-09 -4.001750e+02 3.151090e-09
-2.909190e-09 -8.001090e+02 -4.000000e+02
4.000000e+02 -8.001090e+02 -4.000000e+02
-2.487860e-09 -4.001750e+02 -4.000000e+02
4.000000e+02 -4.001750e+02 -4.000000e+02
-2.587220e-09 -8.001090e+02 1.110040e-09
4.000000e+02 -8.001090e+02 1.327620e-09
-2.498600e-09 -4.001750e+02 3.151090e-09
4.000000e+02 -4.001750e+02 2.512310e-09
-4.000000e+02 -4.001750e+02 -4.000000e+02
-2.487860e-09 -4.001750e+02 -4.000000e+02
-4.000000e+02 -2.479720e-01 -4.000000e+02
-4.662850e-09 -2.479680e-01 -4.000000e+02
-4.000000e+02 -4.001750e+02 3.433980e-09
-2.498600e-09 -4.001750e+02 3.151090e-09
-4.000000e+02 -2.479680e-01 3.764180e-09
-4.333780e-09 -2.479650e-01 3.285820e-09
-2.487860e-09 -4.001750e+02 -4.000000e+02
4.000000e+02 -4.001750e+02 -4.000000e+02
-4.662850e-09 -2.479680e-01 -4.000000e+02
[...]
<PointData>
<DataArray type="Float32" Name="V1" format="ascii">
0.000000e+00
0.000000e+00
-1.972220e-05
6.001340e-10
0.000000e+00
0.000000e+00
-1.991420e-05
6.399350e-11
0.000000e+00
0.000000e+00
6.001340e-10
1.972320e-05
0.000000e+00
0.000000e+00
6.399350e-11
1.991350e-05
-1.972220e-05
6.001340e-10
-5.737280e-07
3.879130e-10
-1.991420e-05
6.399350e-11
-8.061290e-07
1.607620e-10
6.001340e-10
1.972320e-05
3.879130e-10
5.736490e-07
6.399350e-11
1.991350e-05
1.607620e-10
8.065530e-07
-5.737280e-07
3.879130e-10
1.004530e-05
1.275920e-10
-8.061290e-07
1.607620e-10
1.033440e-05
-2.570550e-11
3.879130e-10
5.736490e-07
1.275920e-10
-1.004430e-05
1.607620e-10
8.065530e-07
-2.570550e-11
-1.033550e-05
1.004530e-05
1.275920e-10
4.498130e-08
-1.873290e-10
1.033440e-05
-2.570550e-11
5.608920e-09
5.542670e-10
1.275920e-10
-1.004430e-05
-1.873290e-10
-4.516990e-08
-2.570550e-11
-1.033550e-05
5.542670e-10
-4.147770e-09
4.498130e-08
-1.873290e-10
-1.226630e-05
-8.093300e-10
5.608920e-09
5.542670e-10
-1.233050e-05
4.149300e-10
-1.873290e-10
-4.516990e-08
-8.093300e-10
1.226480e-05
5.542670e-10
-4.147770e-09
4.149300e-10
1.233060e-05
-1.226630e-05
-8.093300e-10
9.724200e-06
-2.867490e-10
-1.233050e-05
4.149300e-10
9.930140e-06
-2.296520e-10
-8.093300e-10
1.226480e-05
-2.867490e-10
-9.724340e-06
4.149300e-10
1.233060e-05
-2.296520e-10
-9.930690e-06
9.724200e-06
-2.867490e-10
8.604110e-07
-1.375650e-10
9.930140e-06
-2.296520e-10
7.049170e-07
4.099870e-10
-2.867490e-10
-9.724340e-06
-1.375650e-10
-8.600970e-07
-2.296520e-10
-9.930690e-06
4.099870e-10
-7.035340e-07
8.604110e-07
-1.375650e-10
1.604240e-06
-1.024540e-09
7.049170e-07
4.099870e-10
1.457750e-06
-6.381800e-10
-1.375650e-10
-8.600970e-07
-1.024540e-09
-1.605670e-06
4.099870e-10
-7.035340e-07
-6.381800e-10
-1.458050e-06
1.604240e-06
-1.024540e-09
-4.851640e-08
1.887270e-10
1.457750e-06
-6.381800e-10
-2.378680e-08
-2.807480e-10
-1.024540e-09
-1.605670e-06
1.887270e-10
4.883060e-08
-6.381800e-10
-1.458050e-06
-2.807480e-10
2.262420e-08
-4.851640e-08
1.887270e-10
-1.311200e-05
-8.557990e-10
-2.378680e-08
-2.807480e-10
-1.315030e-05
8.526090e-10
1.887270e-10
4.883060e-08
-8.557990e-10
1.311080e-05
-2.807480e-10
2.262420e-08
8.526090e-10
1.315210e-05
-1.311200e-05
-8.557990e-10
4.604610e-06
6.161410e-11
-1.315030e-05
8.526090e-10
4.567140e-06
7.378400e-10
-8.557990e-10
1.311080e-05
6.161410e-11
-4.605470e-06
8.526090e-10
1.315210e-05
7.378400e-10
-4.565990e-06
4.604610e-06
6.161410e-11
1.101230e-05
1.281530e-09
4.567140e-06
7.378400e-10
1.112080e-05
-6.695980e-10
6.161410e-11
-4.605470e-06
1.281530e-09
-1.101120e-05
7.378400e-10
-4.565990e-06
-6.695980e-10
-1.112120e-05
1.101230e-05
1.281530e-09
-3.822530e-06
-1.247430e-09
1.112080e-05
-6.695980e-10
-3.707420e-06
5.135820e-10
1.281530e-09
-1.101120e-05
-1.247430e-09
3.821350e-06
-6.695980e-10
-1.112120e-05
5.135820e-10
3.709100e-06
-3.822530e-06
-1.247430e-09
-3.486830e-06
6.957980e-10
-3.707420e-06
5.135820e-10
-3.349060e-06
4.891080e-10
-1.247430e-09
3.821350e-06
6.957980e-10
3.487440e-06
5.135820e-10
3.709100e-06
4.891080e-10
3.348670e-06
-3.486830e-06
6.957980e-10
-6.989950e-06
3.360640e-09
-3.349060e-06
4.891080e-10
-6.886350e-06
1.829450e-09
6.957980e-10
3.487440e-06
3.360640e-09
6.996800e-06
4.891080e-10
3.348670e-06
1.829450e-09
6.890420e-06
-6.989950e-06
3.360640e-09
1.647250e-06
-4.353370e-09
-6.886350e-06
1.829450e-09
1.754040e-06
-2.293410e-09
3.360640e-09
6.996800e-06
-4.353370e-09
-1.656250e-06
1.829450e-09
6.890420e-06
-2.293410e-09
-1.759080e-06
1.647250e-06
-4.353370e-09
1.126600e-05
-3.647600e-10
1.754040e-06
-2.293410e-09
1.124630e-05
-2.562270e-09
-4.353370e-09
-1.656250e-06
-3.647600e-10
-1.126780e-05
-2.293410e-09
-1.759080e-06
-2.562270e-09
-1.125010e-05
1.126600e-05
-3.647600e-10
8.033870e-06
1.297740e-08
1.124630e-05
-2.562270e-09
8.215640e-06
7.800910e-09
-3.647600e-10
-1.126780e-05
1.297740e-08
-8.006440e-06
-2.562270e-09
-1.125010e-05
7.800910e-09
-8.199300e-06
8.033870e-06
1.297740e-08
3.102140e-06
-1.220250e-08
8.215640e-06
7.800910e-09
3.115100e-06
-6.675440e-09
1.297740e-08
-8.006440e-06
-1.220250e-08
-3.127420e-06
7.800910e-09
-8.199300e-06
-6.675440e-09
-3.128080e-06
3.102140e-06
-1.220250e-08
1.435290e-06
-2.256490e-08
3.115100e-06
-6.675440e-09
1.371140e-06
-1.924700e-08
-1.220250e-08
-3.127420e-06
-2.256490e-08
-1.480130e-06
-6.675440e-09
-3.128080e-06
-1.924700e-08
-1.409330e-06
1.435290e-06
-2.256490e-08
3.900270e-06
-5.583790e-10
1.371140e-06
-1.924700e-08
3.986280e-06
-2.705770e-09
-2.256490e-08
-1.480130e-06
-5.583790e-10
-3.901260e-06
-1.924700e-08
-1.409330e-06
-2.705770e-09
-3.991600e-06
3.900270e-06
-5.583790e-10
1.203610e-06
1.685880e-08
3.986280e-06
-2.705770e-09
1.291940e-06
1.300620e-08
-5.583790e-10
-3.901260e-06
1.685880e-08
-1.169730e-06
-2.705770e-09
-3.991600e-06
1.300620e-08
-1.265870e-06
1.203610e-06
1.685880e-08
-1.486500e-06
8.484020e-09
1.291940e-06
1.300620e-08
-1.507290e-06
8.007850e-09
1.685880e-08
-1.169730e-06
8.484020e-09
1.503360e-06
1.300620e-08
-1.265870e-06
8.007850e-09
1.523210e-06
-1.486500e-06
8.484020e-09
1.103530e-06
4.473570e-09
-1.507290e-06
8.007850e-09
9.923860e-07
5.594260e-09
8.484020e-09
1.503360e-06
4.473570e-09
-1.094560e-06
8.007850e-09
1.523210e-06
5.594260e-09
-9.812150e-07
1.103530e-06
4.473570e-09
6.587570e-07
-2.977080e-09
9.923860e-07
5.594260e-09
5.283540e-07
-2.509810e-09
4.473570e-09
-1.094560e-06
-2.977080e-09
-6.646800e-07
5.594260e-09
-9.812150e-07
-2.509810e-09
-5.332710e-07
6.587570e-07
-2.977080e-09
-1.870000e-06
-1.054740e-08
5.283540e-07
-2.509810e-09
-1.797740e-06
-9.534060e-09
-2.977080e-09
-6.646800e-07
-1.054740e-08
1.848900e-06
-2.509810e-09
-5.332710e-07
-9.534060e-09
1.778690e-06
-1.870000e-06
-1.054740e-08
-2.037750e-07
3.930160e-10
-1.797740e-06
-9.534060e-09
-1.802710e-07
8.443460e-10
-1.054740e-08
1.848900e-06
3.930160e-10
2.045450e-07
-9.534060e-09
1.778690e-06
8.443460e-10
1.819210e-07
-2.037750e-07
3.930160e-10
8.459410e-07
6.221130e-09
-1.802710e-07
8.443460e-10
1.446880e-06
5.788910e-09
3.930160e-10
2.045450e-07
6.221130e-09
-8.335130e-07
8.443460e-10
1.819210e-07
5.788910e-09
-1.435320e-06
8.459410e-07
6.221130e-09
-1.967210e-07
1.381620e-09
1.446880e-06
5.788910e-09
2.177740e-06
1.072390e-09
6.221130e-09
-8.335130e-07
1.381620e-09
1.994700e-07
5.788910e-09
-1.435320e-06
1.072390e-09
-2.175620e-06
-1.967210e-07
1.381620e-09
-1.154090e-06
-1.239160e-09
2.177740e-06
1.072390e-09
-7.437850e-06
-1.490930e-09
1.381620e-09
1.994700e-07
-1.239160e-09
1.151600e-06
1.072390e-09
-2.175620e-06
-1.490930e-09
7.434880e-06
0.000000e+00
0.000000e+00
-1.991420e-05
6.399350e-11
0.000000e+00
0.000000e+00
-1.972180e-05
1.024970e-09
0.000000e+00
0.000000e+00
6.399350e-11
1.991350e-05
0.000000e+00
0.000000e+00
1.024970e-09
1.972290e-05
-1.991420e-05
6.399350e-11
-8.061290e-07
1.607620e-10
-1.972180e-05
1.024970e-09
-5.752200e-07
-6.842720e-10
6.399350e-11
1.991350e-05
1.607620e-10
8.065530e-07
1.024970e-09
1.972290e-05
-6.842720e-10
5.736020e-07
-8.061290e-07
1.607620e-10
1.033440e-05
-2.570550e-11
-5.752200e-07
-6.842720e-10
1.004650e-05
4.491960e-10
1.607620e-10
8.065530e-07
-2.570550e-11
-1.033550e-05
-6.842720e-10
5.736020e-07
4.491960e-10
-1.004570e-05
1.033440e-05
-2.570550e-11
5.608920e-09
5.542670e-10
1.004650e-05
4.491960e-10
4.625390e-08
2.986940e-10
-2.570550e-11
-1.033550e-05
5.542670e-10
-4.147770e-09
4.491960e-10
-1.004570e-05
2.986940e-10
-4.469850e-08
5.608920e-09
5.542670e-10
-1.233050e-05
4.149300e-10
4.625390e-08
2.986940e-10
-1.226600e-05
-7.673720e-10
5.542670e-10
-4.147770e-09
4.149300e-10
1.233060e-05
2.986940e-10
-4.469850e-08
-7.673720e-10
1.226520e-05
-1.233050e-05
4.149300e-10
9.930140e-06
-2.296520e-10
-1.226600e-05
-7.673720e-10
9.725240e-06
-1.955000e-10
4.149300e-10
1.233060e-05
-2.296520e-10
-9.930690e-06
-7.673720e-10
1.226520e-05
-1.955000e-10
-9.724420e-06
9.930140e-06
-2.296520e-10
7.049170e-07
4.099870e-10
9.725240e-06
-1.955000e-10
8.600340e-07
-5.619430e-10
-2.296520e-10
-9.930690e-06
4.099870e-10
-7.035340e-07
-1.955000e-10
-9.724420e-06
-5.619430e-10
-8.609610e-07
7.049170e-07
4.099870e-10
1.457750e-06
-6.381800e-10
8.600340e-07
-5.619430e-10
1.603050e-06
-5.773000e-11
4.099870e-10
-7.035340e-07
-6.381800e-10
-1.458050e-06
-5.619430e-10
-8.609610e-07
-5.773000e-11
-1.603110e-06
1.457750e-06
-6.381800e-10
-2.378680e-08
-2.807480e-10
1.603050e-06
-5.773000e-11
-4.923910e-08
-3.353300e-10
-6.381800e-10
-1.458050e-06
-2.807480e-10
2.262420e-08
-5.773000e-11
-1.603110e-06
-3.353300e-10
4.774650e-08
-2.378680e-08
-2.807480e-10
-1.315030e-05
8.526090e-10
-4.923910e-08
-3.353300e-10
-1.311090e-05
-3.281810e-10
-2.807480e-10
2.262420e-08
8.526090e-10
1.315210e-05
-3.353300e-10
4.774650e-08
-3.281810e-10
1.311010e-05
-1.315030e-05
8.526090e-10
4.567140e-06
7.378400e-10
-1.311090e-05
-3.281810e-10
4.604590e-06
6.510970e-10
8.526090e-10
1.315210e-05
7.378400e-10
-4.565990e-06
-3.281810e-10
1.311010e-05
6.510970e-10
-4.604540e-06
4.567140e-06
7.378400e-10
1.112080e-05
-6.695980e-10
4.604590e-06
6.510970e-10
1.101190e-05
-1.753840e-10
7.378400e-10
-4.565990e-06
-6.695980e-10
-1.112120e-05
6.510970e-10
-4.604540e-06
-1.753840e-10
-1.101270e-05
1.112080e-05
-6.695980e-10
-3.707420e-06
5.135820e-10
1.101190e-05
-1.753840e-10
-3.822190e-06
-3.933050e-10
-6.695980e-10
-1.112120e-05
5.135820e-10
3.709100e-06
-1.753840e-10
-1.101270e-05
-3.933050e-10
3.822470e-06
-3.707420e-06
5.135820e-10
-3.349060e-06
4.891080e-10
-3.822190e-06
-3.933050e-10
-3.488610e-06
3.888980e-11
5.135820e-10
3.709100e-06
4.891080e-10
3.348670e-06
-3.933050e-10
3.822470e-06
3.888980e-11
3.486720e-06
-3.349060e-06
4.891080e-10
-6.886350e-06
1.829450e-09
-3.488610e-06
3.888980e-11
-6.991300e-06
1.348620e-09
4.891080e-10
3.348670e-06
1.829450e-09
6.890420e-06
3.888980e-11
3.486720e-06
1.348620e-09
6.994480e-06
-6.886350e-06
1.829450e-09
1.754040e-06
-2.293410e-09
-6.991300e-06
1.348620e-09
1.653340e-06
-1.986850e-10
1.829450e-09
6.890420e-06
-2.293410e-09
-1.759080e-06
1.348620e-09
6.994480e-06
-1.986850e-10
-1.652700e-06
1.754040e-06
-2.293410e-09
1.124630e-05
-2.562270e-09
1.653340e-06
-1.986850e-10
1.126380e-05
-4.375880e-09
-2.293410e-09
-1.759080e-06
-2.562270e-09
-1.125010e-05
-1.986850e-10
-1.652700e-06
-4.375880e-09
-1.127330e-05
1.124630e-05
-2.562270e-09
8.215640e-06
7.800910e-09
1.126380e-05
-4.375880e-09
8.024300e-06
5.835230e-09
-2.562270e-09
-1.125010e-05
7.800910e-09
-8.199300e-06
-4.375880e-09
-1.127330e-05
5.835230e-09
-8.012820e-06
8.215640e-06
7.800910e-09
3.115100e-06
-6.675440e-09
8.024300e-06
5.835230e-09
3.114760e-06
-2.267550e-09
7.800910e-09
-8.199300e-06
-6.675440e-09
-3.128080e-06
5.835230e-09
-8.012820e-06
-2.267550e-09
-3.120520e-06
3.115100e-06
-6.675440e-09
1.371140e-06
-1.924700e-08
3.114760e-06
-2.267550e-09
1.441270e-06
-1.614920e-08
-6.675440e-09
-3.128080e-06
-1.924700e-08
-1.409330e-06
-2.267550e-09
-3.120520e-06
-1.614920e-08
-1.473350e-06
1.371140e-06
-1.924700e-08
3.986280e-06
-2.705770e-09
1.441270e-06
-1.614920e-08
3.894840e-06
-4.839440e-09
-1.924700e-08
-1.409330e-06
-2.705770e-09
-3.991600e-06
-1.614920e-08
-1.473350e-06
-4.839440e-09
-3.904390e-06
3.986280e-06
-2.705770e-09
1.291940e-06
1.300620e-08
3.894840e-06
-4.839440e-09
1.195660e-06
8.854690e-09
-2.705770e-09
-3.991600e-06
1.300620e-08
-1.265870e-06
-4.839440e-09
-3.904390e-06
8.854690e-09
-1.177790e-06
1.291940e-06
1.300620e-08
-1.507290e-06
8.007850e-09
1.195660e-06
8.854690e-09
-1.486790e-06
7.609800e-09
1.300620e-08
-1.265870e-06
8.007850e-09
1.523210e-06
8.854690e-09
-1.177790e-06
7.609800e-09
1.502090e-06
-1.507290e-06
8.007850e-09
9.923860e-07
5.594260e-09
-1.486790e-06
7.609800e-09
1.106140e-06
6.941600e-09
8.007850e-09
1.523210e-06
5.594260e-09
-9.812150e-07
7.609800e-09
1.502090e-06
6.941600e-09
-1.092290e-06
9.923860e-07
5.594260e-09
5.283540e-07
-2.509810e-09
1.106140e-06
6.941600e-09
6.594800e-07
-1.876690e-09
5.594260e-09
-9.812150e-07
-2.509810e-09
-5.332710e-07
6.941600e-09
-1.092290e-06
-1.876690e-09
-6.632190e-07
5.283540e-07
-2.509810e-09
-1.797740e-06
-9.534060e-09
6.594800e-07
-1.876690e-09
-1.868370e-06
-8.660060e-09
-2.509810e-09
-5.332710e-07
-9.534060e-09
1.778690e-06
-1.876690e-09
-6.632190e-07
-8.660060e-09
1.850990e-06
-1.797740e-06
-9.534060e-09
-1.802710e-07
8.443460e-10
-1.868370e-06
-8.660060e-09
-2.026750e-07
1.259760e-09
-9.534060e-09
1.778690e-06
8.443460e-10
1.819210e-07
-8.660060e-09
1.850990e-06
1.259760e-09
2.051580e-07
-1.802710e-07
8.443460e-10
1.446880e-06
5.788910e-09
-2.026750e-07
1.259760e-09
8.452500e-07
5.446020e-09
8.443460e-10
1.819210e-07
5.788910e-09
-1.435320e-06
1.259760e-09
2.051580e-07
5.446020e-09
-8.343780e-07
1.446880e-06
5.788910e-09
2.177740e-06
1.072390e-09
8.452500e-07
5.446020e-09
-1.976320e-07
7.815800e-10
5.788910e-09
-1.435320e-06
1.072390e-09
-2.175620e-06
5.446020e-09
-8.343780e-07
7.815800e-10
1.991560e-07
2.177740e-06
1.072390e-09
-7.437850e-06
-1.490930e-09
-1.976320e-07
7.815800e-10
-1.154070e-06
-1.748960e-09
1.072390e-09
-2.175620e-06
-1.490930e-09
7.434880e-06
7.815800e-10
1.991560e-07
-1.748960e-09
1.150540e-06
</DataArray>
<DataArray type="Float32" Name="V2" format="ascii">
0.000000e+00
0.000000e+00
-3.725410e-04
-3.802350e-04
0.000000e+00
0.000000e+00
-3.802400e-04
-3.873400e-04
0.000000e+00
0.000000e+00
-3.802350e-04
-3.725410e-04
0.000000e+00
0.000000e+00
-3.873400e-04
-3.802370e-04
-3.725410e-04
-3.802350e-04
-6.911270e-04
-7.089300e-04
-3.802400e-04
-3.873400e-04
-7.089280e-04
-7.267650e-04
-3.802350e-04
-3.725410e-04
-7.089300e-04
-6.911260e-04
-3.873400e-04
-3.802370e-04
-7.267650e-04
-7.089350e-04
-6.911270e-04
-7.089300e-04
-3.724200e-04
-3.549960e-04
-7.089280e-04
-7.267650e-04
-3.550040e-04
-3.375750e-04
-7.089300e-04
-6.911260e-04
-3.549960e-04
-3.724170e-04
-7.267650e-04
-7.089350e-04
-3.375750e-04
-3.550010e-04
-3.724200e-04
-3.549960e-04
-1.455940e-05
-2.834810e-06
-3.550040e-04
-3.375750e-04
-2.836700e-06
9.568780e-06
-3.549960e-04
-3.724170e-04
-2.834810e-06
-1.456260e-05
-3.375750e-04
-3.550010e-04
9.568780e-06
-2.836200e-06
-1.455940e-05
-2.834810e-06
5.609530e-04
5.628490e-04
-2.836700e-06
9.568780e-06
5.628460e-04
5.642090e-04
-2.834810e-06
-1.456260e-05
5.628490e-04
5.609510e-04
9.568780e-06
-2.836200e-06
5.642090e-04
5.628460e-04
5.609530e-04
5.628490e-04
7.187240e-04
7.082040e-04
5.628460e-04
5.642090e-04
7.082000e-04
6.972110e-04
5.628490e-04
5.609510e-04
7.082040e-04
7.187170e-04
5.642090e-04
5.628460e-04
6.972110e-04
7.081970e-04
7.187240e-04
7.082040e-04
1.103020e-03
1.090500e-03
7.082000e-04
6.972110e-04
1.090490e-03
1.078650e-03
7.082040e-04
7.187170e-04
1.090500e-03
1.103020e-03
6.972110e-04
7.081970e-04
1.078650e-03
1.090500e-03
1.103020e-03
1.090500e-03
1.256620e-03
1.254600e-03
1.090490e-03
1.078650e-03
1.254600e-03
1.252260e-03
1.090500e-03
1.103020e-03
1.254600e-03
1.256620e-03
1.078650e-03
1.090500e-03
1.252260e-03
1.254590e-03
1.256620e-03
1.254600e-03
2.253000e-03
2.257620e-03
1.254600e-03
1.252260e-03
2.257620e-03
2.261790e-03
1.254600e-03
1.256620e-03
2.257620e-03
2.253000e-03
1.252260e-03
1.254590e-03
2.261790e-03
2.257620e-03
2.253000e-03
2.257620e-03
5.879760e-03
5.874500e-03
2.257620e-03
2.261790e-03
5.874490e-03
5.870050e-03
2.257620e-03
2.253000e-03
5.874500e-03
5.879760e-03
2.261790e-03
2.257620e-03
5.870050e-03
5.874490e-03
5.879760e-03
5.874500e-03
1.309850e-02
1.309090e-02
5.874490e-03
5.870050e-03
1.309090e-02
1.308340e-02
5.874500e-03
5.879760e-03
1.309090e-02
1.309850e-02
5.870050e-03
5.874490e-03
1.308340e-02
1.309090e-02
1.309850e-02
1.309090e-02
2.549570e-02
2.550390e-02
1.309090e-02
1.308340e-02
2.550390e-02
2.551210e-02
1.309090e-02
1.309850e-02
2.550390e-02
2.549570e-02
1.308340e-02
1.309090e-02
2.551210e-02
2.550390e-02
2.549570e-02
2.550390e-02
3.998750e-02
3.999350e-02
2.550390e-02
2.551210e-02
3.999350e-02
3.999960e-02
2.550390e-02
2.549570e-02
3.999350e-02
3.998750e-02
2.551210e-02
2.550390e-02
3.999960e-02
3.999350e-02
3.998750e-02
3.999350e-02
4.955620e-02
4.955970e-02
3.999350e-02
3.999960e-02
4.955970e-02
4.956300e-02
3.999350e-02
3.998750e-02
4.955970e-02
4.955620e-02
3.999960e-02
3.999350e-02
4.956300e-02
4.955970e-02
4.955620e-02
4.955970e-02
4.614900e-02
4.615070e-02
4.955970e-02
4.956300e-02
4.615070e-02
4.615260e-02
4.955970e-02
4.955620e-02
4.615070e-02
4.614900e-02
4.956300e-02
4.955970e-02
4.615260e-02
4.615070e-02
4.614900e-02
4.615070e-02
2.773380e-02
2.772720e-02
4.615070e-02
4.615260e-02
2.772720e-02
2.772000e-02
4.615070e-02
4.614900e-02
2.772720e-02
2.773370e-02
4.615260e-02
4.615070e-02
2.772000e-02
2.772710e-02
2.773380e-02
2.772720e-02
-1.222980e-03
-1.224920e-03
2.772720e-02
2.772000e-02
-1.224920e-03
-1.226960e-03
2.772720e-02
2.773370e-02
-1.224920e-03
-1.222960e-03
2.772000e-02
2.772710e-02
-1.226960e-03
-1.224910e-03
-1.222980e-03
-1.224920e-03
-2.317420e-02
-2.316830e-02
-1.224920e-03
-1.226960e-03
-2.316820e-02
-2.316230e-02
-1.224920e-03
-1.222960e-03
-2.316830e-02
-2.317410e-02
-1.226960e-03
-1.224910e-03
-2.316230e-02
-2.316820e-02
-2.317420e-02
-2.316830e-02
-1.682870e-02
-1.682260e-02
-2.316820e-02
-2.316230e-02
-1.682260e-02
-1.681690e-02
-2.316830e-02
-2.317410e-02
-1.682260e-02
-1.682890e-02
-2.316230e-02
-2.316820e-02
-1.681690e-02
-1.682270e-02
-1.682870e-02
-1.682260e-02
6.746270e-03
6.735410e-03
-1.682260e-02
-1.681690e-02
6.735420e-03
6.725920e-03
-1.682260e-02
-1.682890e-02
6.735410e-03
6.746310e-03
-1.681690e-02
-1.682270e-02
6.725920e-03
6.735390e-03
6.746270e-03
6.735410e-03
1.247340e-02
1.246350e-02
6.735420e-03
6.725920e-03
1.246360e-02
1.245300e-02
6.735410e-03
6.746310e-03
1.246350e-02
1.247350e-02
6.725920e-03
6.735390e-03
1.245300e-02
1.246350e-02
1.247340e-02
1.246350e-02
-3.496540e-05
-2.517950e-05
1.246360e-02
1.245300e-02
-2.516040e-05
-1.400950e-05
1.246350e-02
1.247350e-02
-2.517950e-05
-3.503060e-05
1.245300e-02
1.246350e-02
-1.400950e-05
-2.519600e-05
-3.496540e-05
-2.517950e-05
-5.123990e-03
-5.119350e-03
-2.516040e-05
-1.400950e-05
-5.119360e-03
-5.113130e-03
-2.517950e-05
-3.503060e-05
-5.119350e-03
-5.123980e-03
-1.400950e-05
-2.519600e-05
-5.113130e-03
-5.119330e-03
-5.123990e-03
-5.119350e-03
-1.462540e-04
-1.497210e-04
-5.119360e-03
-5.113130e-03
-1.497590e-04
-1.514910e-04
-5.119350e-03
-5.123980e-03
-1.497210e-04
-1.461620e-04
-5.113130e-03
-5.119330e-03
-1.514910e-04
-1.496870e-04
-1.462540e-04
-1.497210e-04
1.539800e-03
1.542250e-03
-1.497590e-04
-1.514910e-04
1.542180e-03
1.542630e-03
-1.497210e-04
-1.461620e-04
1.542250e-03
1.539920e-03
-1.514910e-04
-1.496870e-04
1.542630e-03
1.542290e-03
1.539800e-03
1.542250e-03
-2.770470e-04
-2.697960e-04
1.542180e-03
1.542630e-03
-2.698160e-04
-2.645680e-04
1.542250e-03
1.539920e-03
-2.697960e-04
-2.769800e-04
1.542630e-03
1.542290e-03
-2.645680e-04
-2.697390e-04
-2.770470e-04
-2.697960e-04
-5.108600e-04
-5.163930e-04
-2.698160e-04
-2.645680e-04
-5.163220e-04
-5.225290e-04
-2.697960e-04
-2.769800e-04
-5.163930e-04
-5.109950e-04
-2.645680e-04
-2.697390e-04
-5.225290e-04
-5.164430e-04
-5.108600e-04
-5.163930e-04
-1.119230e-04
-1.158150e-04
-5.163220e-04
-5.225290e-04
-1.157750e-04
-1.206180e-04
-5.163930e-04
-5.109950e-04
-1.158150e-04
-1.120440e-04
-5.225290e-04
-5.164430e-04
-1.206180e-04
-1.158910e-04
-1.119230e-04
-1.158150e-04
-2.331720e-04
-2.445180e-04
-1.157750e-04
-1.206180e-04
-2.445210e-04
-2.321180e-04
-1.158150e-04
-1.120440e-04
-2.445180e-04
-2.331900e-04
-1.206180e-04
-1.158910e-04
-2.321180e-04
-2.445350e-04
-2.331720e-04
-2.445180e-04
-3.660060e-04
-4.345610e-04
-2.445210e-04
-2.321180e-04
-4.345660e-04
-3.871310e-04
-2.445180e-04
-2.331900e-04
-4.345610e-04
-3.659890e-04
-2.321180e-04
-2.445350e-04
-3.871310e-04
-4.345480e-04
0.000000e+00
0.000000e+00
-3.802400e-04
-3.873400e-04
0.000000e+00
0.000000e+00
-3.725410e-04
-3.802410e-04
0.000000e+00
0.000000e+00
-3.873400e-04
-3.802370e-04
0.000000e+00
0.000000e+00
-3.802410e-04
-3.725360e-04
-3.802400e-04
-3.873400e-04
-7.089280e-04
-7.267650e-04
-3.725410e-04
-3.802410e-04
-6.911280e-04
-7.089310e-04
-3.873400e-04
-3.802370e-04
-7.267650e-04
-7.089350e-04
-3.802410e-04
-3.725360e-04
-7.089310e-04
-6.911300e-04
-7.089280e-04