<?xml version="1.0"?>
<VTKFile type="UnstructuredGrid" version="0.1" byte_order="LittleEndian" compressor="vtkZLibDataCompressor">
<UnstructuredGrid>
<Piece NumberOfPoints="960" NumberOfCells="120">
<Points>
<DataArray type="Float32" NumberOfComponents="3" format="ascii">
-4.000000e+02 -6.000000e+03 -4.000000e+02
0.000000e+00 -6.000000e+03 -4.000000e+02
-4.000000e+02 -5.600000e+03 -4.000000e+02
7.696700e-11 -5.600000e+03 -4.000000e+02
-4.000000e+02 -6.000000e+03 0.000000e+00
0.000000e+00 -6.000000e+03 0.000000e+00
-4.000000e+02 -5.600000e+03 8.274470e-10
-2.528370e-10 -5.600000e+03 5.429780e-10
0.000000e+00 -6.000000e+03 -4.000000e+02
4.000000e+02 -6.000000e+03 -4.000000e+02
7.696700e-11 -5.600000e+03 -4.000000e+02
4.000000e+02 -5.600000e+03 -4.000000e+02
0.000000e+00 -6.000000e+03 0.000000e+00
4.000000e+02 -6.000000e+03 0.000000e+00
-2.528370e-10 -5.600000e+03 5.429780e-10
4.000000e+02 -5.600000e+03 1.072010e-09
-4.000000e+02 -5.600000e+03 -4.000000e+02
7.696700e-11 -5.600000e+03 -4.000000e+02
-4.000000e+02 -5.200000e+03 -4.000000e+02
2.050910e-10 -5.200000e+03 -4.000000e+02
-4.000000e+02 -5.600000e+03 8.274470e-10
-2.528370e-10 -5.600000e+03 5.429780e-10
-4.000000e+02 -5.200000e+03 1.420680e-09
1.968220e-10 -5.200000e+03 1.244940e-09
7.696700e-11 -5.600000e+03 -4.000000e+02
4.000000e+02 -5.600000e+03 -4.000000e+02
2.050910e-10 -5.200000e+03 -4.000000e+02
4.000000e+02 -5.200000e+03 -4.000000e+02
-2.528370e-10 -5.600000e+03 5.429780e-10
4.000000e+02 -5.600000e+03 1.072010e-09
1.968220e-10 -5.200000e+03 1.244940e-09
4.000000e+02 -5.200000e+03 1.226090e-09
-4.000000e+02 -5.200000e+03 -4.000000e+02
2.050910e-10 -5.200000e+03 -4.000000e+02
-4.000000e+02 -4.800000e+03 -4.000000e+02
-1.264160e-09 -4.800000e+03 -4.000000e+02
-4.000000e+02 -5.200000e+03 1.420680e-09
1.968220e-10 -5.200000e+03 1.244940e-09
-4.000000e+02 -4.800000e+03 1.329710e-09
-4.853560e-10 -4.800000e+03 1.525160e-09
2.050910e-10 -5.200000e+03 -4.000000e+02
4.000000e+02 -5.200000e+03 -4.000000e+02
-1.264160e-09 -4.800000e+03 -4.000000e+02
4.000000e+02 -4.800000e+03 -4.000000e+02
1.968220e-10 -5.200000e+03 1.244940e-09
4.000000e+02 -5.200000e+03 1.226090e-09
-4.853560e-10 -4.800000e+03 1.525160e-09
4.000000e+02 -4.800000e+03 1.763730e-09
-4.000000e+02 -4.800000e+03 -4.000000e+02
-1.264160e-09 -4.800000e+03 -4.000000e+02
-4.000000e+02 -4.399990e+03 -4.000000e+02
-7.922150e-10 -4.399990e+03 -4.000000e+02
-4.000000e+02 -4.800000e+03 1.329710e-09
-4.853560e-10 -4.800000e+03 1.525160e-09
-4.000000e+02 -4.399990e+03 1.728560e-09
-1.113630e-09 -4.399990e+03 1.383670e-09
-1.264160e-09 -4.800000e+03 -4.000000e+02
4.000000e+02 -4.800000e+03 -4.000000e+02
-7.922150e-10 -4.399990e+03 -4.000000e+02
4.000000e+02 -4.399990e+03 -4.000000e+02
-4.853560e-10 -4.800000e+03 1.525160e-09
4.000000e+02 -4.800000e+03 1.763730e-09
-1.113630e-09 -4.399990e+03 1.383670e-09
4.000000e+02 -4.399990e+03 1.369810e-09
-4.000000e+02 -4.399990e+03 -4.000000e+02
-7.922150e-10 -4.399990e+03 -4.000000e+02
-4.000000e+02 -3.999990e+03 -4.000000e+02
-4.685690e-10 -3.999990e+03 -4.000000e+02
-4.000000e+02 -4.399990e+03 1.728560e-09
-1.113630e-09 -4.399990e+03 1.383670e-09
-4.000000e+02 -3.999990e+03 1.520790e-09
-9.977100e-10 -3.999990e+03 1.158860e-09
-7.922150e-10 -4.399990e+03 -4.000000e+02
4.000000e+02 -4.399990e+03 -4.000000e+02
-4.685690e-10 -3.999990e+03 -4.000000e+02
4.000000e+02 -3.999990e+03 -4.000000e+02
-1.113630e-09 -4.399990e+03 1.383670e-09
4.000000e+02 -4.399990e+03 1.369810e-09
-9.977100e-10 -3.999990e+03 1.158860e-09
4.000000e+02 -3.999990e+03 1.012430e-09
-4.000000e+02 -3.999990e+03 -4.000000e+02
-4.685690e-10 -3.999990e+03 -4.000000e+02
-4.000000e+02 -3.600030e+03 -4.000000e+02
-9.673070e-10 -3.600030e+03 -4.000000e+02
-4.000000e+02 -3.999990e+03 1.520790e-09
-9.977100e-10 -3.999990e+03 1.158860e-09
-4.000000e+02 -3.600030e+03 9.995310e-10
-1.598160e-09 -3.600030e+03 8.622020e-10
-4.685690e-10 -3.999990e+03 -4.000000e+02
4.000000e+02 -3.999990e+03 -4.000000e+02
-9.673070e-10 -3.600030e+03 -4.000000e+02
4.000000e+02 -3.600030e+03 -4.000000e+02
-9.977100e-10 -3.999990e+03 1.158860e-09
4.000000e+02 -3.999990e+03 1.012430e-09
-1.598160e-09 -3.600030e+03 8.622020e-10
4.000000e+02 -3.600030e+03 1.158130e-09
-4.000000e+02 -3.600030e+03 -4.000000e+02
-9.673070e-10 -3.600030e+03 -4.000000e+02
-4.000000e+02 -3.200110e+03 -4.000000e+02
-1.031000e-09 -3.200110e+03 -4.000000e+02
-4.000000e+02 -3.600030e+03 9.995310e-10
-1.598160e-09 -3.600030e+03 8.622020e-10
-4.000000e+02 -3.200110e+03 2.007880e-10
-1.076250e-09 -3.200110e+03 5.172440e-10
-9.673070e-10 -3.600030e+03 -4.000000e+02
4.000000e+02 -3.600030e+03 -4.000000e+02
-1.031000e-09 -3.200110e+03 -4.000000e+02
4.000000e+02 -3.200110e+03 -4.000000e+02
-1.598160e-09 -3.600030e+03 8.622020e-10
4.000000e+02 -3.600030e+03 1.158130e-09
-1.076250e-09 -3.200110e+03 5.172440e-10
4.000000e+02 -3.200110e+03 1.099950e-09
-4.000000e+02 -3.200110e+03 -4.000000e+02
-1.031000e-09 -3.200110e+03 -4.000000e+02
-4.000000e+02 -2.800180e+03 -4.000000e+02
-8.388940e-10 -2.800180e+03 -4.000000e+02
-4.000000e+02 -3.200110e+03 2.007880e-10
-1.076250e-09 -3.200110e+03 5.172440e-10
-4.000000e+02 -2.800180e+03 -7.997990e-11
-7.028150e-10 -2.800180e+03 5.233730e-10
-1.031000e-09 -3.200110e+03 -4.000000e+02
4.000000e+02 -3.200110e+03 -4.000000e+02
-8.388940e-10 -2.800180e+03 -4.000000e+02
4.000000e+02 -2.800180e+03 -4.000000e+02
-1.076250e-09 -3.200110e+03 5.172440e-10
4.000000e+02 -3.200110e+03 1.099950e-09
-7.028150e-10 -2.800180e+03 5.233730e-10
4.000000e+02 -2.800180e+03 6.152630e-10
-4.000000e+02 -2.800180e+03 -4.000000e+02
-8.388940e-10 -2.800180e+03 -4.000000e+02
-4.000000e+02 -2.400240e+03 -4.000000e+02
-6.380020e-10 -2.400240e+03 -4.000000e+02
-4.000000e+02 -2.800180e+03 -7.997990e-11
-7.028150e-10 -2.800180e+03 5.233730e-10
-4.000000e+02 -2.400240e+03 5.985560e-10
-7.342590e-10 -2.400240e+03 5.816510e-10
-8.388940e-10 -2.800180e+03 -4.000000e+02
4.000000e+02 -2.800180e+03 -4.000000e+02
-6.380020e-10 -2.400240e+03 -4.000000e+02
4.000000e+02 -2.400240e+03 -4.000000e+02
-7.028150e-10 -2.800180e+03 5.233730e-10
4.000000e+02 -2.800180e+03 6.152630e-10
-7.342590e-10 -2.400240e+03 5.816510e-10
4.000000e+02 -2.400240e+03 5.959820e-10
-4.000000e+02 -2.400240e+03 -4.000000e+02
-6.380020e-10 -2.400240e+03 -4.000000e+02
-4.000000e+02 -2.000260e+03 -4.000000e+02
-6.446560e-10 -2.000260e+03 -4.000000e+02
-4.000000e+02 -2.400240e+03 5.985560e-10
-7.342590e-10 -2.400240e+03 5.816510e-10
-4.000000e+02 -2.000260e+03 2.381670e-10
-4.884230e-10 -2.000260e+03 -2.713270e-11
-6.380020e-10 -2.400240e+03 -4.000000e+02
4.000000e+02 -2.400240e+03 -4.000000e+02
-6.446560e-10 -2.000260e+03 -4.000000e+02
4.000000e+02 -2.000260e+03 -4.000000e+02
-7.342590e-10 -2.400240e+03 5.816510e-10
4.000000e+02 -2.400240e+03 5.959820e-10
-4.884230e-10 -2.000260e+03 -2.713270e-11
4.000000e+02 -2.000260e+03 2.167840e-10
-4.000000e+02 -2.000260e+03 -4.000000e+02
-6.446560e-10 -2.000260e+03 -4.000000e+02
-4.000000e+02 -1.600270e+03 -4.000000e+02
-3.360220e-10 -1.600270e+03 -4.000000e+02
-4.000000e+02 -2.000260e+03 2.381670e-10
-4.884230e-10 -2.000260e+03 -2.713270e-11
-4.000000e+02 -1.600270e+03 -4.527290e-11
-3.720510e-10 -1.600270e+03 1.524870e-10
-6.446560e-10 -2.000260e+03 -4.000000e+02
4.000000e+02 -2.000260e+03 -4.000000e+02
-3.360220e-10 -1.600270e+03 -4.000000e+02
4.000000e+02 -1.600270e+03 -4.000000e+02
-4.884230e-10 -2.000260e+03 -2.713270e-11
4.000000e+02 -2.000260e+03 2.167840e-10
-3.720510e-10 -1.600270e+03 1.524870e-10
4.000000e+02 -1.600270e+03 -1.634820e-10
-4.000000e+02 -1.600270e+03 -4.000000e+02
-3.360220e-10 -1.600270e+03 -4.000000e+02
-4.000000e+02 -1.200280e+03 -4.000000e+02
-2.023400e-10 -1.200280e+03 -4.000000e+02
-4.000000e+02 -1.600270e+03 -4.527290e-11
-3.720510e-10 -1.600270e+03 1.524870e-10
-4.000000e+02 -1.200280e+03 -1.853510e-10
1.853480e-10 -1.200280e+03 -1.498790e-10
-3.360220e-10 -1.600270e+03 -4.000000e+02
4.000000e+02 -1.600270e+03 -4.000000e+02
-2.023400e-10 -1.200280e+03 -4.000000e+02
4.000000e+02 -1.200280e+03 -4.000000e+02
-3.720510e-10 -1.600270e+03 1.524870e-10
4.000000e+02 -1.600270e+03 -1.634820e-10
1.853480e-10 -1.200280e+03 -1.498790e-10
4.000000e+02 -1.200280e+03 -1.557900e-10
-4.000000e+02 -1.200280e+03 -4.000000e+02
-2.023400e-10 -1.200280e+03 -4.000000e+02
-4.000000e+02 -8.002830e+02 -4.000000e+02
2.499560e-10 -8.002830e+02 -4.000000e+02
-4.000000e+02 -1.200280e+03 -1.853510e-10
1.853480e-10 -1.200280e+03 -1.498790e-10
-4.000000e+02 -8.002830e+02 -2.236860e-10
5.730240e-10 -8.002830e+02 -3.657260e-10
-2.023400e-10 -1.200280e+03 -4.000000e+02
4.000000e+02 -1.200280e+03 -4.000000e+02
2.499560e-10 -8.002830e+02 -4.000000e+02
4.000000e+02 -8.002830e+02 -4.000000e+02
1.853480e-10 -1.200280e+03 -1.498790e-10
4.000000e+02 -1.200280e+03 -1.557900e-10
5.730240e-10 -8.002830e+02 -3.657260e-10
4.000000e+02 -8.002830e+02 -4.957570e-10
-4.000000e+02 -8.002830e+02 -4.000000e+02
2.499560e-10 -8.002830e+02 -4.000000e+02
-4.000000e+02 -4.002850e+02 -4.000000e+02
5.958930e-10 -4.002850e+02 -4.000000e+02
-4.000000e+02 -8.002830e+02 -2.236860e-10
5.730240e-10 -8.002830e+02 -3.657260e-10
-4.000000e+02 -4.002850e+02 2.974790e-10
5.940040e-10 -4.002850e+02 -8.553260e-11
2.499560e-10 -8.002830e+02 -4.000000e+02
4.000000e+02 -8.002830e+02 -4.000000e+02
5.958930e-10 -4.002850e+02 -4.000000e+02
4.000000e+02 -4.002850e+02 -4.000000e+02
5.730240e-10 -8.002830e+02 -3.657260e-10
4.000000e+02 -8.002830e+02 -4.957570e-10
5.940040e-10 -4.002850e+02 -8.553260e-11
4.000000e+02 -4.002850e+02 -2.841190e-10
-4.000000e+02 -4.002850e+02 -4.000000e+02
5.958930e-10 -4.002850e+02 -4.000000e+02
-4.000000e+02 -2.863660e-01 -4.000000e+02
5.178460e-10 -2.863700e-01 -4.000000e+02
-4.000000e+02 -4.002850e+02 2.974790e-10
5.940040e-10 -4.002850e+02 -8.553260e-11
-4.000000e+02 -2.863700e-01 4.573780e-10
4.430380e-10 -2.863730e-01 2.263710e-10
5.958930e-10 -4.002850e+02 -4.000000e+02
4.000000e+02 -4.002850e+02 -4.000000e+02
5.178460e-10 -2.863700e-01 -4.000000e+02
[...]
<PointData>
<DataArray type="Float32" Name="V1" format="ascii">
0.000000e+00
0.000000e+00
5.790380e-07
-7.550960e-10
0.000000e+00
0.000000e+00
5.772940e-07
3.058580e-10
0.000000e+00
0.000000e+00
-7.550960e-10
-5.798710e-07
0.000000e+00
0.000000e+00
3.058580e-10
-5.770430e-07
5.790380e-07
-7.550960e-10
-7.272110e-07
1.106670e-09
5.772940e-07
3.058580e-10
-7.272430e-07
-2.747020e-10
-7.550960e-10
-5.798710e-07
1.106670e-09
7.298980e-07
3.058580e-10
-5.770430e-07
-2.747020e-10
7.267870e-07
-7.272110e-07
1.106670e-09
7.324590e-08
-2.181590e-10
-7.272430e-07
-2.747020e-10
7.140770e-08
3.538560e-10
1.106670e-09
7.298980e-07
-2.181590e-10
-7.341870e-08
-2.747020e-10
7.267870e-07
3.538560e-10
-7.011930e-08
7.324590e-08
-2.181590e-10
1.821030e-06
-8.870580e-10
7.140770e-08
3.538560e-10
1.822800e-06
5.597630e-10
-2.181590e-10
-7.341870e-08
-8.870580e-10
-1.822210e-06
3.538560e-10
-7.011930e-08
5.597630e-10
-1.821500e-06
1.821030e-06
-8.870580e-10
-4.048980e-06
-3.393940e-11
1.822800e-06
5.597630e-10
-4.044500e-06
-9.085010e-11
-8.870580e-10
-1.822210e-06
-3.393940e-11
4.049390e-06
5.597630e-10
-1.821500e-06
-9.085010e-11
4.044670e-06
-4.048980e-06
-3.393940e-11
3.848880e-06
-9.429710e-10
-4.044500e-06
-9.085010e-11
3.839610e-06
9.954090e-11
-3.393940e-11
4.049390e-06
-9.429710e-10
-3.850250e-06
-9.085010e-11
4.044670e-06
9.954090e-11
-3.839300e-06
3.848880e-06
-9.429710e-10
1.384760e-06
8.177250e-11
3.839610e-06
9.954090e-11
1.394750e-06
-7.323080e-10
-9.429710e-10
-3.850250e-06
8.177250e-11
-1.384510e-06
9.954090e-11
-3.839300e-06
-7.323080e-10
-1.396640e-06
1.384760e-06
8.177250e-11
-9.765330e-06
4.548660e-11
1.394750e-06
-7.323080e-10
-9.771980e-06
-7.269230e-11
8.177250e-11
-1.384510e-06
4.548660e-11
9.766230e-06
-7.323080e-10
-1.396640e-06
-7.269230e-11
9.772090e-06
-9.765330e-06
4.548660e-11
1.326740e-05
9.550720e-11
-9.771980e-06
-7.269230e-11
1.326300e-05
6.393840e-11
4.548660e-11
9.766230e-06
9.550720e-11
-1.326810e-05
-7.269230e-11
9.772090e-06
6.393840e-11
-1.326350e-05
1.326740e-05
9.550720e-11
-3.955310e-06
-4.729480e-10
1.326300e-05
6.393840e-11
-3.952210e-06
2.748410e-10
9.550720e-11
-1.326810e-05
-4.729480e-10
3.955060e-06
6.393840e-11
-1.326350e-05
2.748410e-10
3.952530e-06
-3.955310e-06
-4.729480e-10
-1.311750e-05
1.686950e-10
-3.952210e-06
2.748410e-10
-1.308000e-05
-3.019090e-10
-4.729480e-10
3.955060e-06
1.686950e-10
1.311810e-05
2.748410e-10
3.952530e-06
-3.019090e-10
1.307940e-05
-1.311750e-05
1.686950e-10
1.414310e-05
7.900970e-11
-1.308000e-05
-3.019090e-10
1.404080e-05
-2.658970e-10
1.686950e-10
1.311810e-05
7.900970e-11
-1.414210e-05
-3.019090e-10
1.307940e-05
-2.658970e-10
-1.404100e-05
1.414310e-05
7.900970e-11
4.428520e-06
-3.524820e-10
1.404080e-05
-2.658970e-10
4.573110e-06
4.928930e-10
7.900970e-11
-1.414210e-05
-3.524820e-10
-4.429630e-06
-2.658970e-10
-1.404100e-05
4.928930e-10
-4.572020e-06
4.428520e-06
-3.524820e-10
-5.949650e-06
-9.536320e-11
4.573110e-06
4.928930e-10
-6.067110e-06
-4.258600e-10
-3.524820e-10
-4.429630e-06
-9.536320e-11
5.949900e-06
4.928930e-10
-4.572020e-06
-4.258600e-10
6.067010e-06
-5.949650e-06
-9.536320e-11
-7.086840e-06
2.150780e-10
-6.067110e-06
-4.258600e-10
-7.151970e-06
9.748930e-12
-9.536320e-11
5.949900e-06
2.150780e-10
7.086260e-06
-4.258600e-10
6.067010e-06
9.748930e-12
7.152750e-06
-7.086840e-06
2.150780e-10
5.278620e-06
-2.926450e-10
-7.151970e-06
9.748930e-12
5.411980e-06
-1.645450e-10
2.150780e-10
7.086260e-06
-2.926450e-10
-5.279200e-06
9.748930e-12
7.152750e-06
-1.645450e-10
-5.411620e-06
5.278620e-06
-2.926450e-10
4.678840e-06
8.123770e-11
5.411980e-06
-1.645450e-10
4.368500e-06
-3.107520e-10
-2.926450e-10
-5.279200e-06
8.123770e-11
-4.677680e-06
-1.645450e-10
-5.411620e-06
-3.107520e-10
-4.369140e-06
4.678840e-06
8.123770e-11
4.821340e-06
-8.922910e-11
4.368500e-06
-3.107520e-10
4.885870e-06
1.428820e-10
8.123770e-11
-4.677680e-06
-8.922910e-11
-4.821860e-06
-3.107520e-10
-4.369140e-06
1.428820e-10
-4.885270e-06
4.821340e-06
-8.922910e-11
4.060070e-06
1.147110e-09
4.885870e-06
1.428820e-10
4.210490e-06
-1.020080e-09
-8.922910e-11
-4.821860e-06
1.147110e-09
-4.058580e-06
1.428820e-10
-4.885270e-06
-1.020080e-09
-4.211920e-06
4.060070e-06
1.147110e-09
2.792900e-06
1.057120e-10
4.210490e-06
-1.020080e-09
2.577460e-06
-3.585980e-11
1.147110e-09
-4.058580e-06
1.057120e-10
-2.792610e-06
-1.020080e-09
-4.211920e-06
-3.585980e-11
-2.577480e-06
2.792900e-06
1.057120e-10
-5.437870e-06
1.857980e-10
2.577460e-06
-3.585980e-11
-5.038400e-06
-2.106410e-10
1.057120e-10
-2.792610e-06
1.857980e-10
5.438200e-06
-3.585980e-11
-2.577480e-06
-2.106410e-10
5.037970e-06
-5.437870e-06
1.857980e-10
-3.146100e-06
-5.293120e-11
-5.038400e-06
-2.106410e-10
-2.926660e-06
-1.747890e-10
1.857980e-10
5.438200e-06
-5.293120e-11
3.145910e-06
-2.106410e-10
5.037970e-06
-1.747890e-10
2.926410e-06
-3.146100e-06
-5.293120e-11
4.606810e-06
-1.182780e-10
-2.926660e-06
-1.747890e-10
4.355730e-06
-1.395220e-10
-5.293120e-11
3.145910e-06
-1.182780e-10
-4.607040e-06
-1.747890e-10
2.926410e-06
-1.395220e-10
-4.355980e-06
4.606810e-06
-1.182780e-10
5.092100e-06
-5.930040e-11
4.355730e-06
-1.395220e-10
4.980840e-06
-7.996910e-11
-1.182780e-10
-4.607040e-06
-5.930040e-11
-5.092190e-06
-1.395220e-10
-4.355980e-06
-7.996910e-11
-4.980990e-06
5.092100e-06
-5.930040e-11
-6.482940e-07
7.665510e-11
4.980840e-06
-7.996910e-11
-5.955670e-07
2.822800e-11
-5.930040e-11
-5.092190e-06
7.665510e-11
6.484190e-07
-7.996910e-11
-4.980990e-06
2.822800e-11
5.956140e-07
-6.482940e-07
7.665510e-11
-4.358400e-06
3.199980e-11
-5.955670e-07
2.822800e-11
-4.206030e-06
3.561760e-11
7.665510e-11
6.484190e-07
3.199980e-11
4.358440e-06
2.822800e-11
5.956140e-07
3.561760e-11
4.206120e-06
-4.358400e-06
3.199980e-11
-1.962790e-06
-5.467500e-11
-4.206030e-06
3.561760e-11
-1.977800e-06
-2.117160e-11
3.199980e-11
4.358440e-06
-5.467500e-11
1.962700e-06
3.561760e-11
4.206120e-06
-2.117160e-11
1.977730e-06
-1.962790e-06
-5.467500e-11
1.169880e-06
1.713320e-11
-1.977800e-06
-2.117160e-11
1.211780e-06
1.654820e-11
-5.467500e-11
1.962700e-06
1.713320e-11
-1.169830e-06
-2.117160e-11
1.977730e-06
1.654820e-11
-1.211710e-06
1.169880e-06
1.713320e-11
3.303450e-06
6.822880e-12
1.211780e-06
1.654820e-11
3.530490e-06
3.527920e-12
1.713320e-11
-1.169830e-06
6.822880e-12
-3.303420e-06
1.654820e-11
-1.211710e-06
3.527920e-12
-3.530520e-06
3.303450e-06
6.822880e-12
-5.823030e-06
-5.500720e-11
3.530490e-06
3.527920e-12
-6.480990e-06
-5.831160e-11
6.822880e-12
-3.303420e-06
-5.500720e-11
5.822860e-06
3.527920e-12
-3.530520e-06
-5.831160e-11
6.480890e-06
0.000000e+00
0.000000e+00
5.772940e-07
3.058580e-10
0.000000e+00
0.000000e+00
5.785200e-07
-1.072370e-09
0.000000e+00
0.000000e+00
3.058580e-10
-5.770430e-07
0.000000e+00
0.000000e+00
-1.072370e-09
-5.806720e-07
5.772940e-07
3.058580e-10
-7.272430e-07
-2.747020e-10
5.785200e-07
-1.072370e-09
-7.293010e-07
-2.335740e-11
3.058580e-10
-5.770430e-07
-2.747020e-10
7.267870e-07
-1.072370e-09
-5.806720e-07
-2.335740e-11
7.283740e-07
-7.272430e-07
-2.747020e-10
7.140770e-08
3.538560e-10
-7.293010e-07
-2.335740e-11
7.304160e-08
-4.407400e-10
-2.747020e-10
7.267870e-07
3.538560e-10
-7.011930e-08
-2.335740e-11
7.283740e-07
-4.407400e-10
-7.244460e-08
7.140770e-08
3.538560e-10
1.822800e-06
5.597630e-10
7.304160e-08
-4.407400e-10
1.821530e-06
-5.176920e-10
3.538560e-10
-7.011930e-08
5.597630e-10
-1.821500e-06
-4.407400e-10
-7.244460e-08
-5.176920e-10
-1.822300e-06
1.822800e-06
5.597630e-10
-4.044500e-06
-9.085010e-11
1.821530e-06
-5.176920e-10
-4.048950e-06
-1.333670e-10
5.597630e-10
-1.821500e-06
-9.085010e-11
4.044670e-06
-5.176920e-10
-1.822300e-06
-1.333670e-10
4.049690e-06
-4.044500e-06
-9.085010e-11
3.839610e-06
9.954090e-11
-4.048950e-06
-1.333670e-10
3.849100e-06
-3.175130e-10
-9.085010e-11
4.044670e-06
9.954090e-11
-3.839300e-06
-1.333670e-10
4.049690e-06
-3.175130e-10
-3.849890e-06
3.839610e-06
9.954090e-11
1.394750e-06
-7.323080e-10
3.849100e-06
-3.175130e-10
1.384020e-06
7.506740e-10
9.954090e-11
-3.839300e-06
-7.323080e-10
-1.396640e-06
-3.175130e-10
-3.849890e-06
7.506740e-10
-1.383600e-06
1.394750e-06
-7.323080e-10
-9.771980e-06
-7.269230e-11
1.384020e-06
7.506740e-10
-9.765970e-06
2.967860e-10
-7.323080e-10
-1.396640e-06
-7.269230e-11
9.772090e-06
7.506740e-10
-1.383600e-06
2.967860e-10
9.767110e-06
-9.771980e-06
-7.269230e-11
1.326300e-05
6.393840e-11
-9.765970e-06
2.967860e-10
1.326790e-05
-4.457070e-11
-7.269230e-11
9.772090e-06
6.393840e-11
-1.326350e-05
2.967860e-10
9.767110e-06
-4.457070e-11
-1.326820e-05
1.326300e-05
6.393840e-11
-3.952210e-06
2.748410e-10
1.326790e-05
-4.457070e-11
-3.955540e-06
8.265070e-11
6.393840e-11
-1.326350e-05
2.748410e-10
3.952530e-06
-4.457070e-11
-1.326820e-05
8.265070e-11
3.955450e-06
-3.952210e-06
2.748410e-10
-1.308000e-05
-3.019090e-10
-3.955540e-06
8.265070e-11
-1.311730e-05
1.446520e-10
2.748410e-10
3.952530e-06
-3.019090e-10
1.307940e-05
8.265070e-11
3.955450e-06
1.446520e-10
1.311740e-05
-1.308000e-05
-3.019090e-10
1.404080e-05
-2.658970e-10
-1.311730e-05
1.446520e-10
1.414260e-05
-2.328560e-10
-3.019090e-10
1.307940e-05
-2.658970e-10
-1.404100e-05
1.446520e-10
1.311740e-05
-2.328560e-10
-1.414250e-05
1.404080e-05
-2.658970e-10
4.573110e-06
4.928930e-10
1.414260e-05
-2.328560e-10
4.428740e-06
4.850250e-10
-2.658970e-10
-1.404100e-05
4.928930e-10
-4.572020e-06
-2.328560e-10
-1.414250e-05
4.850250e-10
-4.429030e-06
4.573110e-06
4.928930e-10
-6.067110e-06
-4.258600e-10
4.428740e-06
4.850250e-10
-5.949870e-06
4.788510e-10
4.928930e-10
-4.572020e-06
-4.258600e-10
6.067010e-06
4.850250e-10
-4.429030e-06
4.788510e-10
5.950730e-06
-6.067110e-06
-4.258600e-10
-7.151970e-06
9.748930e-12
-5.949870e-06
4.788510e-10
-7.086990e-06
-6.663830e-11
-4.258600e-10
6.067010e-06
9.748930e-12
7.152750e-06
4.788510e-10
5.950730e-06
-6.663830e-11
7.086120e-06
-7.151970e-06
9.748930e-12
5.411980e-06
-1.645450e-10
-7.086990e-06
-6.663830e-11
5.278820e-06
-5.222340e-10
9.748930e-12
7.152750e-06
-1.645450e-10
-5.411620e-06
-6.663830e-11
7.086120e-06
-5.222340e-10
-5.278980e-06
5.411980e-06
-1.645450e-10
4.368500e-06
-3.107520e-10
5.278820e-06
-5.222340e-10
4.678830e-06
2.747920e-10
-1.645450e-10
-5.411620e-06
-3.107520e-10
-4.369140e-06
-5.222340e-10
-5.278980e-06
2.747920e-10
-4.677990e-06
4.368500e-06
-3.107520e-10
4.885870e-06
1.428820e-10
4.678830e-06
2.747920e-10
4.821060e-06
-9.217270e-11
-3.107520e-10
-4.369140e-06
1.428820e-10
-4.885270e-06
2.747920e-10
-4.677990e-06
-9.217270e-11
-4.821580e-06
4.885870e-06
1.428820e-10
4.210490e-06
-1.020080e-09
4.821060e-06
-9.217270e-11
4.060010e-06
9.414420e-10
1.428820e-10
-4.885270e-06
-1.020080e-09
-4.211920e-06
-9.217270e-11
-4.821580e-06
9.414420e-10
-4.057810e-06
4.210490e-06
-1.020080e-09
2.577460e-06
-3.585980e-11
4.060010e-06
9.414420e-10
2.792940e-06
2.279730e-10
-1.020080e-09
-4.211920e-06
-3.585980e-11
-2.577480e-06
9.414420e-10
-4.057810e-06
2.279730e-10
-2.792420e-06
2.577460e-06
-3.585980e-11
-5.038400e-06
-2.106410e-10
2.792940e-06
2.279730e-10
-5.437890e-06
2.408330e-10
-3.585980e-11
-2.577480e-06
-2.106410e-10
5.037970e-06
2.279730e-10
-2.792420e-06
2.408330e-10
5.438330e-06
-5.038400e-06
-2.106410e-10
-2.926660e-06
-1.747890e-10
-5.437890e-06
2.408330e-10
-3.146050e-06
3.634080e-11
-2.106410e-10
5.037970e-06
-1.747890e-10
2.926410e-06
2.408330e-10
5.438330e-06
3.634080e-11
3.146210e-06
-2.926660e-06
-1.747890e-10
4.355730e-06
-1.395220e-10
-3.146050e-06
3.634080e-11
4.606790e-06
-9.390120e-11
-1.747890e-10
2.926410e-06
-1.395220e-10
-4.355980e-06
3.634080e-11
3.146210e-06
-9.390120e-11
-4.607000e-06
4.355730e-06
-1.395220e-10
4.980840e-06
-7.996910e-11
4.606790e-06
-9.390120e-11
5.092030e-06
-1.072750e-10
-1.395220e-10
-4.355980e-06
-7.996910e-11
-4.980990e-06
-9.390120e-11
-4.607000e-06
-1.072750e-10
-5.092240e-06
4.980840e-06
-7.996910e-11
-5.955670e-07
2.822800e-11
5.092030e-06
-1.072750e-10
-6.483720e-07
-4.412400e-12
-7.996910e-11
-4.980990e-06
2.822800e-11
5.956140e-07
-1.072750e-10
-5.092240e-06
-4.412400e-12
6.483560e-07
-5.955670e-07
2.822800e-11
-4.206030e-06
3.561760e-11
-6.483720e-07
-4.412400e-12
-4.358350e-06
4.322290e-11
2.822800e-11
5.956140e-07
3.561760e-11
4.206120e-06
-4.412400e-12
6.483560e-07
4.322290e-11
4.358430e-06
-4.206030e-06
3.561760e-11
-1.977800e-06
-2.117160e-11
-4.358350e-06
4.322290e-11
-1.962730e-06
5.028640e-12
3.561760e-11
4.206120e-06
-2.117160e-11
1.977730e-06
4.322290e-11
4.358430e-06
5.028640e-12
1.962730e-06
-1.977800e-06
-2.117160e-11
1.211780e-06
1.654820e-11
-1.962730e-06
5.028640e-12
1.169840e-06
1.806750e-11
-2.117160e-11
1.977730e-06
1.654820e-11
-1.211710e-06
5.028640e-12
1.962730e-06
1.806750e-11
-1.169840e-06
1.211780e-06
1.654820e-11
3.530490e-06
3.527920e-12
1.169840e-06
1.806750e-11
3.303420e-06
-1.374390e-11
1.654820e-11
-1.211710e-06
3.527920e-12
-3.530520e-06
1.806750e-11
-1.169840e-06
-1.374390e-11
-3.303460e-06
3.530490e-06
3.527920e-12
-6.480990e-06
-5.831160e-11
3.303420e-06
-1.374390e-11
-5.823060e-06
-4.884100e-11
3.527920e-12
-3.530520e-06
-5.831160e-11
6.480890e-06
-1.374390e-11
-3.303460e-06
-4.884100e-11
5.822920e-06
</DataArray>
<DataArray type="Float32" Name="V2" format="ascii">
0.000000e+00
0.000000e+00
6.860800e-04
6.863520e-04
0.000000e+00
0.000000e+00
6.863490e-04
6.866090e-04
0.000000e+00
0.000000e+00
6.863520e-04
6.860830e-04
0.000000e+00
0.000000e+00
6.866090e-04
6.863490e-04
6.860800e-04
6.863520e-04
-4.393130e-03
-4.392860e-03
6.863490e-04
6.866090e-04
-4.392860e-03
-4.392590e-03
6.863520e-04
6.860830e-04
-4.392860e-03
-4.393130e-03
6.866090e-04
6.863490e-04
-4.392590e-03
-4.392860e-03
-4.393130e-03
-4.392860e-03
1.960940e-03
1.959730e-03
-4.392860e-03
-4.392590e-03
1.959730e-03
1.958520e-03
-4.392860e-03
-4.393130e-03
1.959730e-03
1.960940e-03
-4.392590e-03
-4.392860e-03
1.958520e-03
1.959730e-03
1.960940e-03
1.959730e-03
1.108050e-02
1.108230e-02
1.959730e-03
1.958520e-03
1.108230e-02
1.108400e-02
1.959730e-03
1.960940e-03
1.108230e-02
1.108050e-02
1.958520e-03
1.959730e-03
1.108400e-02
1.108230e-02
1.108050e-02
1.108230e-02
-1.071920e-02
-1.071960e-02
1.108230e-02
1.108400e-02
-1.071960e-02
-1.072000e-02
1.108230e-02
1.108050e-02
-1.071960e-02
-1.071920e-02
1.108400e-02
1.108230e-02
-1.072000e-02
-1.071960e-02
-1.071920e-02
-1.071960e-02
-4.611660e-02
-4.611990e-02
-1.071960e-02
-1.072000e-02
-4.611990e-02
-4.612320e-02
-1.071960e-02
-1.071920e-02
-4.611990e-02
-4.611660e-02
-1.072000e-02
-1.071960e-02
-4.612320e-02
-4.611990e-02
-4.611660e-02
-4.611990e-02
-5.728760e-02
-5.728120e-02
-4.611990e-02
-4.612320e-02
-5.728120e-02
-5.727480e-02
-4.611990e-02
-4.611660e-02
-5.728120e-02
-5.728760e-02
-4.612320e-02
-4.611990e-02
-5.727480e-02
-5.728120e-02
-5.728760e-02
-5.728120e-02
-4.531630e-02
-4.531900e-02
-5.728120e-02
-5.727480e-02
-4.531900e-02
-4.532180e-02
-5.728120e-02
-5.728760e-02
-4.531900e-02
-4.531630e-02
-5.727480e-02
-5.728120e-02
-4.532180e-02
-4.531900e-02
-4.531630e-02
-4.531900e-02
-2.536390e-02
-2.537160e-02
-4.531900e-02
-4.532180e-02
-2.537160e-02
-2.537930e-02
-4.531900e-02
-4.531630e-02
-2.537160e-02
-2.536390e-02
-4.532180e-02
-4.531900e-02
-2.537930e-02
-2.537160e-02
-2.536390e-02
-2.537160e-02
-1.094800e-02
-1.093830e-02
-2.537160e-02
-2.537930e-02
-1.093830e-02
-1.092880e-02
-2.537160e-02
-2.536390e-02
-1.093830e-02
-1.094800e-02
-2.537930e-02
-2.537160e-02
-1.092880e-02
-1.093830e-02
-1.094800e-02
-1.093830e-02
-4.547500e-03
-4.545560e-03
-1.093830e-02
-1.092880e-02
-4.545560e-03
-4.543350e-03
-1.093830e-02
-1.094800e-02
-4.545560e-03
-4.547500e-03
-1.092880e-02
-1.093830e-02
-4.543350e-03
-4.545560e-03
-4.547500e-03
-4.545560e-03
-3.239450e-03
-3.242060e-03
-4.545560e-03
-4.543350e-03
-3.242060e-03
-3.245060e-03
-4.545560e-03
-4.547500e-03
-3.242060e-03
-3.239440e-03
-4.543350e-03
-4.545560e-03
-3.245060e-03
-3.242060e-03
-3.239450e-03
-3.242060e-03
-2.838450e-03
-2.828650e-03
-3.242060e-03
-3.245060e-03
-2.828650e-03
-2.818790e-03
-3.242060e-03
-3.239440e-03
-2.828650e-03
-2.838450e-03
-3.245060e-03
-3.242060e-03
-2.818790e-03
-2.828650e-03
-2.838450e-03
-2.828650e-03
-1.174680e-03
-1.187650e-03
-2.828650e-03
-2.818790e-03
-1.187650e-03
-1.199930e-03
-2.828650e-03
-2.838450e-03
-1.187650e-03
-1.174680e-03
-2.818790e-03
-2.828650e-03
-1.199930e-03
-1.187650e-03
-1.174680e-03
-1.187650e-03
-8.165910e-05
-1.073420e-04
-1.187650e-03
-1.199930e-03
-1.073420e-04
-1.341910e-04
-1.187650e-03
-1.174680e-03
-1.073420e-04
-8.165930e-05
-1.199930e-03
-1.187650e-03
-1.341910e-04
-1.073430e-04
-8.165910e-05
-1.073420e-04
6.222850e-04
6.173390e-04
-1.073420e-04
-1.341910e-04
6.173390e-04
6.128290e-04
-1.073420e-04
-8.165930e-05
6.173390e-04
6.222840e-04
-1.341910e-04
-1.073430e-04
6.128290e-04
6.173390e-04
6.222850e-04
6.173390e-04
5.798100e-04
5.762390e-04
6.173390e-04
6.128290e-04
5.762390e-04
5.740720e-04
6.173390e-04
6.222840e-04
5.762390e-04
5.798120e-04
6.128290e-04
6.173390e-04
5.740720e-04
5.762390e-04
5.798100e-04
5.762390e-04
2.395620e-04
2.370870e-04
5.762390e-04
5.740720e-04
2.370870e-04
2.342310e-04
5.762390e-04
5.798120e-04
2.370870e-04
2.395630e-04
5.740720e-04
5.762390e-04
2.342310e-04
2.370850e-04
2.395620e-04
2.370870e-04
-1.656590e-04
-1.686640e-04
2.370870e-04
2.342310e-04
-1.686640e-04
-1.711460e-04
2.370870e-04
2.395630e-04
-1.686640e-04
-1.656610e-04
2.342310e-04
2.370850e-04
-1.711460e-04
-1.686630e-04
-1.656590e-04
-1.686640e-04
-3.340610e-04
-3.241420e-04
-1.686640e-04
-1.711460e-04
-3.241420e-04
-3.167920e-04
-1.686640e-04
-1.656610e-04
-3.241420e-04
-3.340620e-04
-1.711460e-04
-1.686630e-04
-3.167920e-04
-3.241420e-04
-3.340610e-04
-3.241420e-04
-4.759760e-05
-4.669370e-05
-3.241420e-04
-3.167920e-04
-4.669430e-05
-5.048150e-05
-3.241420e-04
-3.340620e-04
-4.669370e-05
-4.759790e-05
-3.167920e-04
-3.241420e-04
-5.048150e-05
-4.669420e-05
-4.759760e-05
-4.669370e-05
3.384350e-04
3.079630e-04
-4.669430e-05
-5.048150e-05
3.079630e-04
2.803050e-04
-4.669370e-05
-4.759790e-05
3.079630e-04
3.384340e-04
-5.048150e-05
-4.669420e-05
2.803050e-04
3.079630e-04
3.384350e-04
3.079630e-04
8.601300e-05
8.225620e-05
3.079630e-04
2.803050e-04
8.225630e-05
8.068160e-05
3.079630e-04
3.384340e-04
8.225620e-05
8.601230e-05
2.803050e-04
3.079630e-04
8.068160e-05
8.225620e-05
8.601300e-05
8.225620e-05
-4.287930e-04
-4.101760e-04
8.225630e-05
8.068160e-05
-4.101770e-04
-3.919790e-04
8.225620e-05
8.601230e-05
-4.101760e-04
-4.287940e-04
8.068160e-05
8.225620e-05
-3.919790e-04
-4.101760e-04
-4.287930e-04
-4.101760e-04
-1.380810e-03
-1.356960e-03
-4.101770e-04
-3.919790e-04
-1.356960e-03
-1.334280e-03
-4.101760e-04
-4.287940e-04
-1.356960e-03
-1.380810e-03
-3.919790e-04
-4.101760e-04
-1.334280e-03
-1.356960e-03
-1.380810e-03
-1.356960e-03
-1.338420e-03
-1.321480e-03
-1.356960e-03
-1.334280e-03
-1.321480e-03
-1.304160e-03
-1.356960e-03
-1.380810e-03
-1.321480e-03
-1.338410e-03
-1.334280e-03
-1.356960e-03
-1.304160e-03
-1.321480e-03
-1.338420e-03
-1.321480e-03
-1.601240e-04
-1.755050e-04
-1.321480e-03
-1.304160e-03
-1.755050e-04
-1.902890e-04
-1.321480e-03
-1.338410e-03
-1.755050e-04
-1.601250e-04
-1.304160e-03
-1.321480e-03
-1.902890e-04
-1.755050e-04
-1.601240e-04
-1.755050e-04
6.686850e-04
6.485980e-04
-1.755050e-04
-1.902890e-04
6.485990e-04
6.305300e-04
-1.755050e-04
-1.601250e-04
6.485980e-04
6.686830e-04
-1.902890e-04
-1.755050e-04
6.305300e-04
6.485970e-04
6.686850e-04
6.485980e-04
7.369590e-04
7.193640e-04
6.485990e-04
6.305300e-04
7.193640e-04
7.129910e-04
6.485980e-04
6.686830e-04
7.193640e-04
7.369590e-04
6.305300e-04
6.485970e-04
7.129910e-04
7.193640e-04
7.369590e-04
7.193640e-04
2.694930e-05
-8.002430e-06
7.193640e-04
7.129910e-04
-8.002430e-06
1.048310e-05
7.193640e-04
7.369590e-04
-8.002430e-06
2.695000e-05
7.129910e-04
7.193640e-04
1.048310e-05
-8.002060e-06
0.000000e+00
0.000000e+00
6.863490e-04
6.866090e-04
0.000000e+00
0.000000e+00
6.860780e-04
6.863470e-04
0.000000e+00
0.000000e+00
6.866090e-04
6.863490e-04
0.000000e+00
0.000000e+00
6.863470e-04
6.860780e-04
6.863490e-04
6.866090e-04
-4.392860e-03
-4.392590e-03
6.860780e-04
6.863470e-04
-4.393130e-03
-4.392860e-03
6.866090e-04
6.863490e-04