<?xml version="1.0"?>
<VTKFile type="UnstructuredGrid" version="0.1" byte_order="LittleEndian" compressor="vtkZLibDataCompressor">
<UnstructuredGrid>
<Piece NumberOfPoints="960" NumberOfCells="120">
<Points>
<DataArray type="Float32" NumberOfComponents="3" format="ascii">
-4.000000e+02 -6.000000e+03 -4.000000e+02
0.000000e+00 -6.000000e+03 -4.000000e+02
-4.000000e+02 -5.600000e+03 -4.000000e+02
-1.554260e-10 -5.600000e+03 -4.000000e+02
-4.000000e+02 -6.000000e+03 0.000000e+00
0.000000e+00 -6.000000e+03 0.000000e+00
-4.000000e+02 -5.600000e+03 -7.541600e-10
5.357700e-11 -5.600000e+03 1.146900e-10
0.000000e+00 -6.000000e+03 -4.000000e+02
4.000000e+02 -6.000000e+03 -4.000000e+02
-1.554260e-10 -5.600000e+03 -4.000000e+02
4.000000e+02 -5.600000e+03 -4.000000e+02
0.000000e+00 -6.000000e+03 0.000000e+00
4.000000e+02 -6.000000e+03 0.000000e+00
5.357700e-11 -5.600000e+03 1.146900e-10
4.000000e+02 -5.600000e+03 -1.834730e-10
-4.000000e+02 -5.600000e+03 -4.000000e+02
-1.554260e-10 -5.600000e+03 -4.000000e+02
-4.000000e+02 -5.200000e+03 -4.000000e+02
-3.671060e-10 -5.200000e+03 -4.000000e+02
-4.000000e+02 -5.600000e+03 -7.541600e-10
5.357700e-11 -5.600000e+03 1.146900e-10
-4.000000e+02 -5.200000e+03 2.882920e-11
-5.262080e-10 -5.200000e+03 2.551910e-10
-1.554260e-10 -5.600000e+03 -4.000000e+02
4.000000e+02 -5.600000e+03 -4.000000e+02
-3.671060e-10 -5.200000e+03 -4.000000e+02
4.000000e+02 -5.200000e+03 -4.000000e+02
5.357700e-11 -5.600000e+03 1.146900e-10
4.000000e+02 -5.600000e+03 -1.834730e-10
-5.262080e-10 -5.200000e+03 2.551910e-10
4.000000e+02 -5.200000e+03 1.413910e-10
-4.000000e+02 -5.200000e+03 -4.000000e+02
-3.671060e-10 -5.200000e+03 -4.000000e+02
-4.000000e+02 -4.800000e+03 -4.000000e+02
-1.440850e-09 -4.800000e+03 -4.000000e+02
-4.000000e+02 -5.200000e+03 2.882920e-11
-5.262080e-10 -5.200000e+03 2.551910e-10
-4.000000e+02 -4.800000e+03 3.550990e-10
-1.458840e-09 -4.800000e+03 1.566050e-10
-3.671060e-10 -5.200000e+03 -4.000000e+02
4.000000e+02 -5.200000e+03 -4.000000e+02
-1.440850e-09 -4.800000e+03 -4.000000e+02
4.000000e+02 -4.800000e+03 -4.000000e+02
-5.262080e-10 -5.200000e+03 2.551910e-10
4.000000e+02 -5.200000e+03 1.413910e-10
-1.458840e-09 -4.800000e+03 1.566050e-10
4.000000e+02 -4.800000e+03 9.385560e-11
-4.000000e+02 -4.800000e+03 -4.000000e+02
-1.440850e-09 -4.800000e+03 -4.000000e+02
-4.000000e+02 -4.400010e+03 -4.000000e+02
-7.579470e-10 -4.400010e+03 -4.000000e+02
-4.000000e+02 -4.800000e+03 3.550990e-10
-1.458840e-09 -4.800000e+03 1.566050e-10
-4.000000e+02 -4.400010e+03 4.146780e-11
-1.488810e-09 -4.400010e+03 -5.251420e-11
-1.440850e-09 -4.800000e+03 -4.000000e+02
4.000000e+02 -4.800000e+03 -4.000000e+02
-7.579470e-10 -4.400010e+03 -4.000000e+02
4.000000e+02 -4.400010e+03 -4.000000e+02
-1.458840e-09 -4.800000e+03 1.566050e-10
4.000000e+02 -4.800000e+03 9.385560e-11
-1.488810e-09 -4.400010e+03 -5.251420e-11
4.000000e+02 -4.400010e+03 2.013030e-10
-4.000000e+02 -4.400010e+03 -4.000000e+02
-7.579470e-10 -4.400010e+03 -4.000000e+02
-4.000000e+02 -4.000010e+03 -4.000000e+02
-4.553230e-10 -4.000010e+03 -4.000000e+02
-4.000000e+02 -4.400010e+03 4.146780e-11
-1.488810e-09 -4.400010e+03 -5.251420e-11
-4.000000e+02 -4.000010e+03 -6.272440e-10
-4.462830e-10 -4.000010e+03 -8.187190e-11
-7.579470e-10 -4.400010e+03 -4.000000e+02
4.000000e+02 -4.400010e+03 -4.000000e+02
-4.553230e-10 -4.000010e+03 -4.000000e+02
4.000000e+02 -4.000010e+03 -4.000000e+02
-1.488810e-09 -4.400010e+03 -5.251420e-11
4.000000e+02 -4.400010e+03 2.013030e-10
-4.462830e-10 -4.000010e+03 -8.187190e-11
4.000000e+02 -4.000010e+03 -3.001510e-10
-4.000000e+02 -4.000010e+03 -4.000000e+02
-4.553230e-10 -4.000010e+03 -4.000000e+02
-4.000000e+02 -3.600030e+03 -4.000000e+02
3.341830e-10 -3.600030e+03 -4.000000e+02
-4.000000e+02 -4.000010e+03 -6.272440e-10
-4.462830e-10 -4.000010e+03 -8.187190e-11
-4.000000e+02 -3.600030e+03 -5.814280e-10
-1.558800e-10 -3.600030e+03 -4.758290e-10
-4.553230e-10 -4.000010e+03 -4.000000e+02
4.000000e+02 -4.000010e+03 -4.000000e+02
3.341830e-10 -3.600030e+03 -4.000000e+02
4.000000e+02 -3.600030e+03 -4.000000e+02
-4.462830e-10 -4.000010e+03 -8.187190e-11
4.000000e+02 -4.000010e+03 -3.001510e-10
-1.558800e-10 -3.600030e+03 -4.758290e-10
4.000000e+02 -3.600030e+03 -1.674890e-12
-4.000000e+02 -3.600030e+03 -4.000000e+02
3.341830e-10 -3.600030e+03 -4.000000e+02
-4.000000e+02 -3.200060e+03 -4.000000e+02
1.317160e-09 -3.200060e+03 -4.000000e+02
-4.000000e+02 -3.600030e+03 -5.814280e-10
-1.558800e-10 -3.600030e+03 -4.758290e-10
-4.000000e+02 -3.200060e+03 -1.475270e-09
1.071940e-09 -3.200060e+03 -5.730280e-10
3.341830e-10 -3.600030e+03 -4.000000e+02
4.000000e+02 -3.600030e+03 -4.000000e+02
1.317160e-09 -3.200060e+03 -4.000000e+02
4.000000e+02 -3.200060e+03 -4.000000e+02
-1.558800e-10 -3.600030e+03 -4.758290e-10
4.000000e+02 -3.600030e+03 -1.674890e-12
1.071940e-09 -3.200060e+03 -5.730280e-10
4.000000e+02 -3.200060e+03 3.293780e-10
-4.000000e+02 -3.200060e+03 -4.000000e+02
1.317160e-09 -3.200060e+03 -4.000000e+02
-4.000000e+02 -2.800110e+03 -4.000000e+02
9.856920e-10 -2.800110e+03 -4.000000e+02
-4.000000e+02 -3.200060e+03 -1.475270e-09
1.071940e-09 -3.200060e+03 -5.730280e-10
-4.000000e+02 -2.800110e+03 -1.498020e-09
1.088880e-09 -2.800110e+03 -1.493340e-09
1.317160e-09 -3.200060e+03 -4.000000e+02
4.000000e+02 -3.200060e+03 -4.000000e+02
9.856920e-10 -2.800110e+03 -4.000000e+02
4.000000e+02 -2.800110e+03 -4.000000e+02
1.071940e-09 -3.200060e+03 -5.730280e-10
4.000000e+02 -3.200060e+03 3.293780e-10
1.088880e-09 -2.800110e+03 -1.493340e-09
4.000000e+02 -2.800110e+03 -1.385590e-09
-4.000000e+02 -2.800110e+03 -4.000000e+02
9.856920e-10 -2.800110e+03 -4.000000e+02
-4.000000e+02 -2.400180e+03 -4.000000e+02
5.660390e-10 -2.400180e+03 -4.000000e+02
-4.000000e+02 -2.800110e+03 -1.498020e-09
1.088880e-09 -2.800110e+03 -1.493340e-09
-4.000000e+02 -2.400180e+03 -1.229840e-09
-2.375800e-10 -2.400180e+03 -9.666310e-10
9.856920e-10 -2.800110e+03 -4.000000e+02
4.000000e+02 -2.800110e+03 -4.000000e+02
5.660390e-10 -2.400180e+03 -4.000000e+02
4.000000e+02 -2.400180e+03 -4.000000e+02
1.088880e-09 -2.800110e+03 -1.493340e-09
4.000000e+02 -2.800110e+03 -1.385590e-09
-2.375800e-10 -2.400180e+03 -9.666310e-10
4.000000e+02 -2.400180e+03 -9.672300e-10
-4.000000e+02 -2.400180e+03 -4.000000e+02
5.660390e-10 -2.400180e+03 -4.000000e+02
-4.000000e+02 -2.000260e+03 -4.000000e+02
-3.353470e-10 -2.000260e+03 -4.000000e+02
-4.000000e+02 -2.400180e+03 -1.229840e-09
-2.375800e-10 -2.400180e+03 -9.666310e-10
-4.000000e+02 -2.000260e+03 -1.032870e-09
-6.773020e-10 -2.000260e+03 -5.626280e-10
5.660390e-10 -2.400180e+03 -4.000000e+02
4.000000e+02 -2.400180e+03 -4.000000e+02
-3.353470e-10 -2.000260e+03 -4.000000e+02
4.000000e+02 -2.000260e+03 -4.000000e+02
-2.375800e-10 -2.400180e+03 -9.666310e-10
4.000000e+02 -2.400180e+03 -9.672300e-10
-6.773020e-10 -2.000260e+03 -5.626280e-10
4.000000e+02 -2.000260e+03 -7.635930e-10
-4.000000e+02 -2.000260e+03 -4.000000e+02
-3.353470e-10 -2.000260e+03 -4.000000e+02
-4.000000e+02 -1.600300e+03 -4.000000e+02
-1.818000e-09 -1.600300e+03 -4.000000e+02
-4.000000e+02 -2.000260e+03 -1.032870e-09
-6.773020e-10 -2.000260e+03 -5.626280e-10
-4.000000e+02 -1.600300e+03 8.166280e-10
-1.641280e-09 -1.600300e+03 3.071440e-10
-3.353470e-10 -2.000260e+03 -4.000000e+02
4.000000e+02 -2.000260e+03 -4.000000e+02
-1.818000e-09 -1.600300e+03 -4.000000e+02
4.000000e+02 -1.600300e+03 -4.000000e+02
-6.773020e-10 -2.000260e+03 -5.626280e-10
4.000000e+02 -2.000260e+03 -7.635930e-10
-1.641280e-09 -1.600300e+03 3.071440e-10
4.000000e+02 -1.600300e+03 1.752480e-10
-4.000000e+02 -1.600300e+03 -4.000000e+02
-1.818000e-09 -1.600300e+03 -4.000000e+02
-4.000000e+02 -1.200310e+03 -4.000000e+02
-2.292560e-09 -1.200310e+03 -4.000000e+02
-4.000000e+02 -1.600300e+03 8.166280e-10
-1.641280e-09 -1.600300e+03 3.071440e-10
-4.000000e+02 -1.200310e+03 3.149870e-09
-2.060610e-09 -1.200310e+03 2.095420e-09
-1.818000e-09 -1.600300e+03 -4.000000e+02
4.000000e+02 -1.600300e+03 -4.000000e+02
-2.292560e-09 -1.200310e+03 -4.000000e+02
4.000000e+02 -1.200310e+03 -4.000000e+02
-1.641280e-09 -1.600300e+03 3.071440e-10
4.000000e+02 -1.600300e+03 1.752480e-10
-2.060610e-09 -1.200310e+03 2.095420e-09
4.000000e+02 -1.200310e+03 2.015250e-09
-4.000000e+02 -1.200310e+03 -4.000000e+02
-2.292560e-09 -1.200310e+03 -4.000000e+02
-4.000000e+02 -8.002860e+02 -4.000000e+02
-4.030660e-09 -8.002860e+02 -4.000000e+02
-4.000000e+02 -1.200310e+03 3.149870e-09
-2.060610e-09 -1.200310e+03 2.095420e-09
-4.000000e+02 -8.002860e+02 3.619970e-09
-2.956710e-09 -8.002860e+02 3.082550e-09
-2.292560e-09 -1.200310e+03 -4.000000e+02
4.000000e+02 -1.200310e+03 -4.000000e+02
-4.030660e-09 -8.002860e+02 -4.000000e+02
4.000000e+02 -8.002860e+02 -4.000000e+02
-2.060610e-09 -1.200310e+03 2.095420e-09
4.000000e+02 -1.200310e+03 2.015250e-09
-2.956710e-09 -8.002860e+02 3.082550e-09
4.000000e+02 -8.002860e+02 2.646130e-09
-4.000000e+02 -8.002860e+02 -4.000000e+02
-4.030660e-09 -8.002860e+02 -4.000000e+02
-4.000000e+02 -4.002650e+02 -4.000000e+02
-3.978890e-09 -4.002650e+02 -4.000000e+02
-4.000000e+02 -8.002860e+02 3.619970e-09
-2.956710e-09 -8.002860e+02 3.082550e-09
-4.000000e+02 -4.002650e+02 3.591530e-09
-3.605100e-09 -4.002650e+02 2.885550e-09
-4.030660e-09 -8.002860e+02 -4.000000e+02
4.000000e+02 -8.002860e+02 -4.000000e+02
-3.978890e-09 -4.002650e+02 -4.000000e+02
4.000000e+02 -4.002650e+02 -4.000000e+02
-2.956710e-09 -8.002860e+02 3.082550e-09
4.000000e+02 -8.002860e+02 2.646130e-09
-3.605100e-09 -4.002650e+02 2.885550e-09
4.000000e+02 -4.002650e+02 2.317660e-09
-4.000000e+02 -4.002650e+02 -4.000000e+02
-3.978890e-09 -4.002650e+02 -4.000000e+02
-4.000000e+02 -2.703780e-01 -4.000000e+02
-2.846530e-09 -2.703800e-01 -4.000000e+02
-4.000000e+02 -4.002650e+02 3.591530e-09
-3.605100e-09 -4.002650e+02 2.885550e-09
-4.000000e+02 -2.703800e-01 3.844900e-09
-2.211470e-09 -2.703820e-01 2.617990e-09
-3.978890e-09 -4.002650e+02 -4.000000e+02
4.000000e+02 -4.002650e+02 -4.000000e+02
-2.846530e-09 -2.703800e-01 -4.000000e+02
[...]
<PointData>
<DataArray type="Float32" Name="V1" format="ascii">
0.000000e+00
0.000000e+00
6.866370e-06
-1.191480e-09
0.000000e+00
0.000000e+00
6.817050e-06
-5.298130e-10
0.000000e+00
0.000000e+00
-1.191480e-09
-6.869430e-06
0.000000e+00
0.000000e+00
-5.298130e-10
-6.818900e-06
6.866370e-06
-1.191480e-09
-1.742170e-06
5.915240e-10
6.817050e-06
-5.298130e-10
-1.831210e-06
3.056000e-11
-1.191480e-09
-6.869430e-06
5.915240e-10
1.743070e-06
-5.298130e-10
-6.818900e-06
3.056000e-11
1.831400e-06
-1.742170e-06
5.915240e-10
1.662250e-07
-1.182170e-09
-1.831210e-06
3.056000e-11
3.572270e-07
1.043770e-09
5.915240e-10
1.743070e-06
-1.182170e-09
-1.683620e-07
3.056000e-11
1.831400e-06
1.043770e-09
-3.552940e-07
1.662250e-07
-1.182170e-09
-4.277810e-06
-3.851870e-10
3.572270e-07
1.043770e-09
-4.332550e-06
-4.200430e-10
-1.182170e-09
-1.683620e-07
-3.851870e-10
4.276230e-06
1.043770e-09
-3.552940e-07
-4.200430e-10
4.332270e-06
-4.277810e-06
-3.851870e-10
3.833070e-07
1.243910e-09
-4.332550e-06
-4.200430e-10
2.688820e-07
-4.362500e-10
-3.851870e-10
4.276230e-06
1.243910e-09
-3.816420e-07
-4.200430e-10
4.332270e-06
-4.362500e-10
-2.694640e-07
3.833070e-07
1.243910e-09
1.218540e-05
-3.145860e-10
2.688820e-07
-4.362500e-10
1.241230e-05
1.583200e-10
1.243910e-09
-3.816420e-07
-3.145860e-10
-1.218660e-05
-4.362500e-10
-2.694640e-07
1.583200e-10
-1.241240e-05
1.218540e-05
-3.145860e-10
-8.085800e-06
1.518630e-10
1.241230e-05
1.583200e-10
-8.166160e-06
-5.990000e-10
-3.145860e-10
-1.218660e-05
1.518630e-10
8.087210e-06
1.583200e-10
-1.241240e-05
-5.990000e-10
8.166460e-06
-8.085800e-06
1.518630e-10
-8.663530e-06
2.012380e-10
-8.166160e-06
-5.990000e-10
-8.856830e-06
8.290370e-10
1.518630e-10
8.087210e-06
2.012380e-10
8.664210e-06
-5.990000e-10
8.166460e-06
8.290370e-10
8.857690e-06
-8.663530e-06
2.012380e-10
1.229880e-05
6.738540e-11
-8.856830e-06
8.290370e-10
1.245860e-05
-1.784420e-10
2.012380e-10
8.664210e-06
6.738540e-11
-1.229840e-05
8.290370e-10
8.857690e-06
-1.784420e-10
-1.245890e-05
1.229880e-05
6.738540e-11
2.592310e-06
8.615810e-10
1.245860e-05
-1.784420e-10
2.524880e-06
-8.986580e-10
6.738540e-11
-1.229840e-05
8.615810e-10
-2.591040e-06
-1.784420e-10
-1.245890e-05
-8.986580e-10
-2.526790e-06
2.592310e-06
8.615810e-10
-5.085150e-06
2.966360e-10
2.524880e-06
-8.986580e-10
-5.275130e-06
5.627610e-10
8.615810e-10
-2.591040e-06
2.966360e-10
5.084930e-06
-8.986580e-10
-2.526790e-06
5.627610e-10
5.275310e-06
-5.085150e-06
2.966360e-10
-9.138730e-06
1.141380e-10
-5.275130e-06
5.627610e-10
-9.046270e-06
-5.054400e-10
2.966360e-10
5.084930e-06
1.141380e-10
9.140320e-06
5.627610e-10
5.275310e-06
-5.054400e-10
9.045330e-06
-9.138730e-06
1.141380e-10
2.587750e-06
-5.117140e-11
-9.046270e-06
-5.054400e-10
2.805760e-06
-4.614780e-11
1.141380e-10
9.140320e-06
-5.117140e-11
-2.587410e-06
-5.054400e-10
9.045330e-06
-4.614780e-11
-2.805860e-06
2.587750e-06
-5.117140e-11
8.827930e-06
-4.275230e-10
2.805760e-06
-4.614780e-11
8.814600e-06
-3.913830e-10
-5.117140e-11
-2.587410e-06
-4.275230e-10
-8.829080e-06
-4.614780e-11
-2.805860e-06
-3.913830e-10
-8.815290e-06
8.827930e-06
-4.275230e-10
4.168890e-06
4.993790e-10
8.814600e-06
-3.913830e-10
4.336310e-06
1.680220e-10
-4.275230e-10
-8.829080e-06
4.993790e-10
-4.168230e-06
-3.913830e-10
-8.815290e-06
1.680220e-10
-4.335960e-06
4.168890e-06
4.993790e-10
-4.685390e-06
-3.822700e-10
4.336310e-06
1.680220e-10
-4.626410e-06
-3.924190e-10
4.993790e-10
-4.168230e-06
-3.822700e-10
4.684620e-06
1.680220e-10
-4.335960e-06
-3.924190e-10
4.625420e-06
-4.685390e-06
-3.822700e-10
-9.153820e-06
-2.901470e-10
-4.626410e-06
-3.924190e-10
-9.045880e-06
-2.591120e-10
-3.822700e-10
4.684620e-06
-2.901470e-10
9.153390e-06
-3.924190e-10
4.625420e-06
-2.591120e-10
9.045940e-06
-9.153820e-06
-2.901470e-10
-7.872690e-06
-4.457280e-10
-9.045880e-06
-2.591120e-10
-7.794970e-06
5.539580e-10
-2.901470e-10
9.153390e-06
-4.457280e-10
7.872890e-06
-2.591120e-10
9.045940e-06
5.539580e-10
7.795520e-06
-7.872690e-06
-4.457280e-10
-3.019690e-06
-1.945230e-09
-7.794970e-06
5.539580e-10
-3.050450e-06
-1.743950e-09
-4.457280e-10
7.872890e-06
-1.945230e-09
3.016220e-06
5.539580e-10
7.795520e-06
-1.743950e-09
3.046950e-06
-3.019690e-06
-1.945230e-09
-2.380790e-06
-2.283830e-09
-3.050450e-06
-1.743950e-09
-2.137300e-06
-2.298340e-09
-1.945230e-09
3.016220e-06
-2.283830e-09
2.376220e-06
-1.743950e-09
3.046950e-06
-2.298340e-09
2.132720e-06
-2.380790e-06
-2.283830e-09
3.263700e-07
-1.726500e-10
-2.137300e-06
-2.298340e-09
2.263830e-07
5.900390e-11
-2.283830e-09
2.376220e-06
-1.726500e-10
-3.267000e-07
-2.298340e-09
2.132720e-06
5.900390e-11
-2.262580e-07
3.263700e-07
-1.726500e-10
2.273730e-07
8.749720e-10
2.263830e-07
5.900390e-11
7.495840e-08
1.071650e-09
-1.726500e-10
-3.267000e-07
8.749720e-10
-2.255510e-07
5.900390e-11
-2.262580e-07
1.071650e-09
-7.282170e-08
2.273730e-07
8.749720e-10
-1.271940e-06
-2.183600e-09
7.495840e-08
1.071650e-09
-1.390070e-06
-2.501520e-09
8.749720e-10
-2.255510e-07
-2.183600e-09
1.267580e-06
1.071650e-09
-7.282170e-08
-2.501520e-09
1.385060e-06
-1.271940e-06
-2.183600e-09
-1.515480e-06
-7.497670e-10
-1.390070e-06
-2.501520e-09
-1.476100e-06
-1.010290e-09
-2.183600e-09
1.267580e-06
-7.497670e-10
1.514030e-06
-2.501520e-09
1.385060e-06
-1.010290e-09
1.474140e-06
-1.515480e-06
-7.497670e-10
4.425390e-07
3.539700e-09
-1.476100e-06
-1.010290e-09
5.915130e-07
3.801420e-09
-7.497670e-10
1.514030e-06
3.539700e-09
-4.354690e-07
-1.010290e-09
1.474140e-06
3.801420e-09
-5.838930e-07
4.425390e-07
3.539700e-09
1.698430e-06
2.965900e-09
5.915130e-07
3.801420e-09
1.704220e-06
3.145760e-09
3.539700e-09
-4.354690e-07
2.965900e-09
-1.692460e-06
3.801420e-09
-5.838930e-07
3.145760e-09
-1.697850e-06
1.698430e-06
2.965900e-09
7.294420e-07
1.724840e-09
1.704220e-06
3.145760e-09
7.044460e-07
1.708280e-09
2.965900e-09
-1.692460e-06
1.724840e-09
-7.260010e-07
3.145760e-09
-1.697850e-06
1.708280e-09
-7.010050e-07
7.294420e-07
1.724840e-09
5.371680e-08
2.663520e-10
7.044460e-07
1.708280e-09
1.554630e-07
2.637840e-10
1.724840e-09
-7.260010e-07
2.663520e-10
-5.324540e-08
1.708280e-09
-7.010050e-07
2.637840e-10
-1.549760e-07
5.371680e-08
2.663520e-10
4.277700e-07
-1.093830e-09
1.554630e-07
2.637840e-10
-1.349000e-06
-1.050630e-09
2.663520e-10
-5.324540e-08
-1.093830e-09
-4.301430e-07
2.637840e-10
-1.549760e-07
-1.050630e-09
1.346780e-06
4.277700e-07
-1.093830e-09
-1.471670e-07
-8.671160e-10
-1.349000e-06
-1.050630e-09
3.669570e-06
-9.512810e-10
-1.093830e-09
-4.301430e-07
-8.671160e-10
1.453130e-07
-1.050630e-09
1.346780e-06
-9.512810e-10
-3.671530e-06
0.000000e+00
0.000000e+00
6.817050e-06
-5.298130e-10
0.000000e+00
0.000000e+00
6.865820e-06
-5.009480e-10
0.000000e+00
0.000000e+00
-5.298130e-10
-6.818900e-06
0.000000e+00
0.000000e+00
-5.009480e-10
-6.866970e-06
6.817050e-06
-5.298130e-10
-1.831210e-06
3.056000e-11
6.865820e-06
-5.009480e-10
-1.744750e-06
6.436880e-10
-5.298130e-10
-6.818900e-06
3.056000e-11
1.831400e-06
-5.009480e-10
-6.866970e-06
6.436880e-10
1.744140e-06
-1.831210e-06
3.056000e-11
3.572270e-07
1.043770e-09
-1.744750e-06
6.436880e-10
1.679060e-07
-8.856780e-11
3.056000e-11
1.831400e-06
1.043770e-09
-3.552940e-07
6.436880e-10
1.744140e-06
-8.856780e-11
-1.679690e-07
3.572270e-07
1.043770e-09
-4.332550e-06
-4.200430e-10
1.679060e-07
-8.856780e-11
-4.276700e-06
-1.185950e-09
1.043770e-09
-3.552940e-07
-4.200430e-10
4.332270e-06
-8.856780e-11
-1.679690e-07
-1.185950e-09
4.273870e-06
-4.332550e-06
-4.200430e-10
2.688820e-07
-4.362500e-10
-4.276700e-06
-1.185950e-09
3.820980e-07
6.424260e-10
-4.200430e-10
4.332270e-06
-4.362500e-10
-2.694640e-07
-1.185950e-09
4.273870e-06
6.424260e-10
-3.806680e-07
2.688820e-07
-4.362500e-10
1.241230e-05
1.583200e-10
3.820980e-07
6.424260e-10
1.218400e-05
-6.190800e-10
-4.362500e-10
-2.694640e-07
1.583200e-10
-1.241240e-05
6.424260e-10
-3.806680e-07
-6.190800e-10
-1.218550e-05
1.241230e-05
1.583200e-10
-8.166160e-06
-5.990000e-10
1.218400e-05
-6.190800e-10
-8.085110e-06
-3.044790e-10
1.583200e-10
-1.241240e-05
-5.990000e-10
8.166460e-06
-6.190800e-10
-1.218550e-05
-3.044790e-10
8.085880e-06
-8.166160e-06
-5.990000e-10
-8.856830e-06
8.290370e-10
-8.085110e-06
-3.044790e-10
-8.663000e-06
1.137420e-09
-5.990000e-10
8.166460e-06
8.290370e-10
8.857690e-06
-3.044790e-10
8.085880e-06
1.137420e-09
8.663990e-06
-8.856830e-06
8.290370e-10
1.245860e-05
-1.784420e-10
-8.663000e-06
1.137420e-09
1.229660e-05
-1.800540e-09
8.290370e-10
8.857690e-06
-1.784420e-10
-1.245890e-05
1.137420e-09
8.663990e-06
-1.800540e-09
-1.230090e-05
1.245860e-05
-1.784420e-10
2.524880e-06
-8.986580e-10
1.229660e-05
-1.800540e-09
2.592730e-06
9.710350e-10
-1.784420e-10
-1.245890e-05
-8.986580e-10
-2.526790e-06
-1.800540e-09
-1.230090e-05
9.710350e-10
-2.590800e-06
2.524880e-06
-8.986580e-10
-5.275130e-06
5.627610e-10
2.592730e-06
9.710350e-10
-5.083710e-06
6.716080e-10
-8.986580e-10
-2.526790e-06
5.627610e-10
5.275310e-06
9.710350e-10
-2.590800e-06
6.716080e-10
5.084980e-06
-5.275130e-06
5.627610e-10
-9.046270e-06
-5.054400e-10
-5.083710e-06
6.716080e-10
-9.139710e-06
3.182010e-11
5.627610e-10
5.275310e-06
-5.054400e-10
9.045330e-06
6.716080e-10
5.084980e-06
3.182010e-11
9.139960e-06
-9.046270e-06
-5.054400e-10
2.805760e-06
-4.614780e-11
-9.139710e-06
3.182010e-11
2.586920e-06
1.181260e-10
-5.054400e-10
9.045330e-06
-4.614780e-11
-2.805860e-06
3.182010e-11
9.139960e-06
1.181260e-10
-2.586650e-06
2.805760e-06
-4.614780e-11
8.814600e-06
-3.913830e-10
2.586920e-06
1.181260e-10
8.828640e-06
1.655380e-10
-4.614780e-11
-2.805860e-06
-3.913830e-10
-8.815290e-06
1.181260e-10
-2.586650e-06
1.655380e-10
-8.828880e-06
8.814600e-06
-3.913830e-10
4.336310e-06
1.680220e-10
8.828640e-06
1.655380e-10
4.169250e-06
8.648540e-10
-3.913830e-10
-8.815290e-06
1.680220e-10
-4.335960e-06
1.655380e-10
-8.828880e-06
8.648540e-10
-4.168150e-06
4.336310e-06
1.680220e-10
-4.626410e-06
-3.924190e-10
4.169250e-06
8.648540e-10
-4.685470e-06
-1.081870e-09
1.680220e-10
-4.335960e-06
-3.924190e-10
4.625420e-06
8.648540e-10
-4.168150e-06
-1.081870e-09
4.683560e-06
-4.626410e-06
-3.924190e-10
-9.045880e-06
-2.591120e-10
-4.685470e-06
-1.081870e-09
-9.155180e-06
1.429690e-10
-3.924190e-10
4.625420e-06
-2.591120e-10
9.045940e-06
-1.081870e-09
4.683560e-06
1.429690e-10
9.155510e-06
-9.045880e-06
-2.591120e-10
-7.794970e-06
5.539580e-10
-9.155180e-06
1.429690e-10
-7.873260e-06
-3.792180e-10
-2.591120e-10
9.045940e-06
5.539580e-10
7.795520e-06
1.429690e-10
9.155510e-06
-3.792180e-10
7.873550e-06
-7.794970e-06
5.539580e-10
-3.050450e-06
-1.743950e-09
-7.873260e-06
-3.792180e-10
-3.019640e-06
-1.917690e-09
5.539580e-10
7.795520e-06
-1.743950e-09
3.046950e-06
-3.792180e-10
7.873550e-06
-1.917690e-09
3.015350e-06
-3.050450e-06
-1.743950e-09
-2.137300e-06
-2.298340e-09
-3.019640e-06
-1.917690e-09
-2.380570e-06
-2.302100e-09
-1.743950e-09
3.046950e-06
-2.298340e-09
2.132720e-06
-1.917690e-09
3.015350e-06
-2.302100e-09
2.375980e-06
-2.137300e-06
-2.298340e-09
2.263830e-07
5.900390e-11
-2.380570e-06
-2.302100e-09
3.269200e-07
2.681950e-10
-2.298340e-09
2.132720e-06
5.900390e-11
-2.262580e-07
-2.302100e-09
2.375980e-06
2.681950e-10
-3.264010e-07
2.263830e-07
5.900390e-11
7.495840e-08
1.071650e-09
3.269200e-07
2.681950e-10
2.278600e-07
1.159640e-09
5.900390e-11
-2.262580e-07
1.071650e-09
-7.282170e-08
2.681950e-10
-3.264010e-07
1.159640e-09
-2.255510e-07
7.495840e-08
1.071650e-09
-1.390070e-06
-2.501520e-09
2.278600e-07
1.159640e-09
-1.272740e-06
-2.914500e-09
1.071650e-09
-7.282170e-08
-2.501520e-09
1.385060e-06
1.159640e-09
-2.255510e-07
-2.914500e-09
1.266800e-06
-1.390070e-06
-2.501520e-09
-1.476100e-06
-1.010290e-09
-1.272740e-06
-2.914500e-09
-1.516090e-06
-1.182810e-09
-2.501520e-09
1.385060e-06
-1.010290e-09
1.474140e-06
-2.914500e-09
1.266800e-06
-1.182810e-09
1.513730e-06
-1.476100e-06
-1.010290e-09
5.915130e-07
3.801420e-09
-1.516090e-06
-1.182810e-09
4.431830e-07
4.136120e-09
-1.010290e-09
1.474140e-06
3.801420e-09
-5.838930e-07
-1.182810e-09
1.513730e-06
4.136120e-09
-4.349350e-07
5.915130e-07
3.801420e-09
1.704220e-06
3.145760e-09
4.431830e-07
4.136120e-09
1.698920e-06
3.285750e-09
3.801420e-09
-5.838930e-07
3.145760e-09
-1.697850e-06
4.136120e-09
-4.349350e-07
3.285750e-09
-1.692320e-06
1.704220e-06
3.145760e-09
7.044460e-07
1.708280e-09
1.698920e-06
3.285750e-09
7.293950e-07
1.636760e-09
3.145760e-09
-1.697850e-06
1.708280e-09
-7.010050e-07
3.285750e-09
-1.692320e-06
1.636760e-09
-7.261430e-07
7.044460e-07
1.708280e-09
1.554630e-07
2.637840e-10
7.293950e-07
1.636760e-09
5.376390e-08
2.730050e-10
1.708280e-09
-7.010050e-07
2.637840e-10
-1.549760e-07
1.636760e-09
-7.261430e-07
2.730050e-10
-5.319830e-08
1.554630e-07
2.637840e-10
-1.349000e-06
-1.050630e-09
5.376390e-08
2.730050e-10
4.278800e-07
-1.013690e-09
2.637840e-10
-1.549760e-07
-1.050630e-09
1.346780e-06
2.730050e-10
-5.319830e-08
-1.013690e-09
-4.300640e-07
-1.349000e-06
-1.050630e-09
3.669570e-06
-9.512810e-10
4.278800e-07
-1.013690e-09
-1.472460e-07
-1.014830e-09
-1.050630e-09
1.346780e-06
-9.512810e-10
-3.671530e-06
-1.013690e-09
-4.300640e-07
-1.014830e-09
1.451410e-07
</DataArray>
<DataArray type="Float32" Name="V2" format="ascii">
0.000000e+00
0.000000e+00
9.211580e-04
9.228520e-04
0.000000e+00
0.000000e+00
9.228500e-04
9.251180e-04
0.000000e+00
0.000000e+00
9.228520e-04
9.211650e-04
0.000000e+00
0.000000e+00
9.251180e-04
9.228520e-04
9.211580e-04
9.228520e-04
1.681150e-03
1.682270e-03
9.228500e-04
9.251180e-04
1.682270e-03
1.683210e-03
9.228520e-04
9.211650e-04
1.682270e-03
1.681150e-03
9.251180e-04
9.228520e-04
1.683210e-03
1.682270e-03
1.681150e-03
1.682270e-03
1.670430e-03
1.675330e-03
1.682270e-03
1.683210e-03
1.675330e-03
1.680110e-03
1.682270e-03
1.681150e-03
1.675330e-03
1.670430e-03
1.683210e-03
1.682270e-03
1.680110e-03
1.675330e-03
1.670430e-03
1.675330e-03
2.778420e-03
2.779120e-03
1.675330e-03
1.680110e-03
2.779110e-03
2.780280e-03
1.675330e-03
1.670430e-03
2.779120e-03
2.778420e-03
1.680110e-03
1.675330e-03
2.780280e-03
2.779110e-03
2.778420e-03
2.779120e-03
5.999530e-03
5.998590e-03
2.779110e-03
2.780280e-03
5.998590e-03
5.997200e-03
2.779120e-03
2.778420e-03
5.998590e-03
5.999530e-03
2.780280e-03
2.779110e-03
5.997200e-03
5.998590e-03
5.999530e-03
5.998590e-03
1.486310e-02
1.487340e-02
5.998590e-03
5.997200e-03
1.487340e-02
1.488360e-02
5.998590e-03
5.999530e-03
1.487340e-02
1.486310e-02
5.997200e-03
5.998590e-03
1.488360e-02
1.487340e-02
1.486310e-02
1.487340e-02
2.802650e-02
2.802370e-02
1.487340e-02
1.488360e-02
2.802370e-02
2.802150e-02
1.487340e-02
1.486310e-02
2.802370e-02
2.802650e-02
1.488360e-02
1.487340e-02
2.802150e-02
2.802370e-02
2.802650e-02
2.802370e-02
4.353500e-02
4.352260e-02
2.802370e-02
2.802150e-02
4.352260e-02
4.350950e-02
2.802370e-02
2.802650e-02
4.352260e-02
4.353500e-02
2.802150e-02
2.802370e-02
4.350950e-02
4.352260e-02
4.353500e-02
4.352260e-02
5.222820e-02
5.221880e-02
4.352260e-02
4.350950e-02
5.221880e-02
5.220940e-02
4.352260e-02
4.353500e-02
5.221880e-02
5.222820e-02
4.350950e-02
4.352260e-02
5.220940e-02
5.221880e-02
5.222820e-02
5.221880e-02
4.573490e-02
4.573830e-02
5.221880e-02
5.220940e-02
4.573830e-02
4.574250e-02
5.221880e-02
5.222820e-02
4.573830e-02
4.573490e-02
5.220940e-02
5.221880e-02
4.574250e-02
4.573830e-02
4.573490e-02
4.573830e-02
2.029680e-02
2.030120e-02
4.573830e-02
4.574250e-02
2.030120e-02
2.030520e-02
4.573830e-02
4.573490e-02
2.030120e-02
2.029680e-02
4.574250e-02
4.573830e-02
2.030520e-02
2.030120e-02
2.029680e-02
2.030120e-02
-1.110950e-02
-1.111220e-02
2.030120e-02
2.030520e-02
-1.111220e-02
-1.111470e-02
2.030120e-02
2.029680e-02
-1.111220e-02
-1.110950e-02
2.030520e-02
2.030120e-02
-1.111470e-02
-1.111220e-02
-1.110950e-02
-1.111220e-02
-2.220060e-02
-2.220300e-02
-1.111220e-02
-1.111470e-02
-2.220300e-02
-2.220480e-02
-1.111220e-02
-1.110950e-02
-2.220300e-02
-2.220060e-02
-1.111470e-02
-1.111220e-02
-2.220480e-02
-2.220300e-02
-2.220060e-02
-2.220300e-02
-7.133240e-03
-7.131670e-03
-2.220300e-02
-2.220480e-02
-7.131670e-03
-7.130240e-03
-2.220300e-02
-2.220060e-02
-7.131670e-03
-7.133240e-03
-2.220480e-02
-2.220300e-02
-7.130240e-03
-7.131670e-03
-7.133240e-03
-7.131670e-03
1.160150e-02
1.161020e-02
-7.131670e-03
-7.130240e-03
1.161020e-02
1.161880e-02
-7.131670e-03
-7.133240e-03
1.161020e-02
1.160150e-02
-7.130240e-03
-7.131670e-03
1.161880e-02
1.161020e-02
1.160150e-02
1.161020e-02
7.229880e-03
7.237860e-03
1.161020e-02
1.161880e-02
7.237860e-03
7.245480e-03
1.161020e-02
1.160150e-02
7.237860e-03
7.229880e-03
1.161880e-02
1.161020e-02
7.245480e-03
7.237860e-03
7.229880e-03
7.237860e-03
-7.843400e-03
-7.840460e-03
7.237860e-03
7.245480e-03
-7.840460e-03
-7.837730e-03
7.237860e-03
7.229880e-03
-7.840460e-03
-7.843400e-03
7.245480e-03
7.237860e-03
-7.837730e-03
-7.840460e-03
-7.843400e-03
-7.840460e-03
-4.088130e-03
-4.087500e-03
-7.840460e-03
-7.837730e-03
-4.087510e-03
-4.087260e-03
-7.840460e-03
-7.843400e-03
-4.087500e-03
-4.088130e-03
-7.837730e-03
-7.840460e-03
-4.087260e-03
-4.087510e-03
-4.088130e-03
-4.087500e-03
4.403240e-03
4.399700e-03
-4.087510e-03
-4.087260e-03
4.399700e-03
4.395830e-03
-4.087500e-03
-4.088130e-03
4.399700e-03
4.403230e-03
-4.087260e-03
-4.087510e-03
4.395830e-03
4.399690e-03
4.403240e-03
4.399700e-03
-1.621710e-04
-1.642090e-04
4.399700e-03
4.395830e-03
-1.642070e-04
-1.654420e-04
4.399700e-03
4.403230e-03
-1.642090e-04
-1.621790e-04
4.395830e-03
4.399690e-03
-1.654420e-04
-1.642140e-04
-1.621710e-04
-1.642090e-04
-2.139330e-03
-2.136840e-03
-1.642070e-04
-1.654420e-04
-2.136830e-03
-2.132080e-03
-1.642090e-04
-1.621790e-04
-2.136840e-03
-2.139330e-03
-1.654420e-04
-1.642140e-04
-2.132080e-03
-2.136830e-03
-2.139330e-03
-2.136840e-03
-1.378670e-04
-1.317220e-04
-2.136830e-03
-2.132080e-03
-1.317250e-04
-1.258130e-04
-2.136840e-03
-2.139330e-03
-1.317220e-04
-1.378680e-04
-2.132080e-03
-2.136830e-03
-1.258130e-04
-1.317240e-04
-1.378670e-04
-1.317220e-04
2.325300e-04
2.328740e-04
-1.317250e-04
-1.258130e-04
2.328680e-04
2.342490e-04
-1.317220e-04
-1.378680e-04
2.328740e-04
2.325250e-04
-1.258130e-04
-1.317240e-04
2.342490e-04
2.328620e-04
2.325300e-04
2.328740e-04
-2.121260e-05
-2.523280e-05
2.328680e-04
2.342490e-04
-2.523340e-05
-3.287990e-05
2.328740e-04
2.325250e-04
-2.523280e-05
-2.119910e-05
2.342490e-04
2.328620e-04
-3.287990e-05
-2.522230e-05
-2.121260e-05
-2.523280e-05
3.987920e-05
3.400690e-05
-2.523340e-05
-3.287990e-05
3.401200e-05
2.897050e-05
-2.523280e-05
-2.119910e-05
3.400690e-05
3.990360e-05
-3.287990e-05
-2.522230e-05
2.897050e-05
3.403500e-05
3.987920e-05
3.400690e-05
1.473660e-04
1.449880e-04
3.401200e-05
2.897050e-05
1.449890e-04
1.435400e-04
3.400690e-05
3.990360e-05
1.449880e-04
1.473670e-04
2.897050e-05
3.403500e-05
1.435400e-04
1.449930e-04
1.473660e-04
1.449880e-04
3.221720e-05
3.547000e-05
1.449890e-04
1.435400e-04
3.546800e-05
3.854440e-05
1.449880e-04
1.473670e-04
3.547000e-05
3.220960e-05
1.435400e-04
1.449930e-04
3.854440e-05
3.546260e-05
3.221720e-05
3.547000e-05
-2.238790e-04
-2.261620e-04
3.546800e-05
3.854440e-05
-2.261600e-04
-2.272470e-04
3.547000e-05
3.220960e-05
-2.261620e-04
-2.238820e-04
3.854440e-05
3.546260e-05
-2.272470e-04
-2.261620e-04
-2.238790e-04
-2.261620e-04
-3.080220e-04
-3.028360e-04
-2.261600e-04
-2.272470e-04
-3.028360e-04
-2.977150e-04
-2.261620e-04
-2.238820e-04
-3.028360e-04
-3.080220e-04
-2.272470e-04
-2.261620e-04
-2.977150e-04
-3.028360e-04
-3.080220e-04
-3.028360e-04
-4.611680e-04
-4.228270e-04
-3.028360e-04
-2.977150e-04
-4.228280e-04
-4.005620e-04
-3.028360e-04
-3.080220e-04
-4.228270e-04
-4.611690e-04
-2.977150e-04
-3.028360e-04
-4.005620e-04
-4.228280e-04
0.000000e+00
0.000000e+00
9.228500e-04
9.251180e-04
0.000000e+00
0.000000e+00
9.211610e-04
9.228520e-04
0.000000e+00
0.000000e+00
9.251180e-04
9.228520e-04
0.000000e+00
0.000000e+00
9.228520e-04
9.211640e-04
9.228500e-04
9.251180e-04
1.682270e-03
1.683210e-03
9.211610e-04
9.228520e-04
1.681150e-03
1.682270e-03
9.251180e-04
9.228520e-04
1.683210e-03
1.682270e-03
9.228520e-04
9.211640e-04
1.682270e-03
1.681150e-03
1.682270e-03
1.683210e-03
1.675330e-03
1.680110e-03
1.681150e-03