<?xml version="1.0"?>
<!-- time 17.7461-->
<VTKFile type="UnstructuredGrid" version="0.1" byte_order="LittleEndian">
<UnstructuredGrid>
<Piece NumberOfPoints="3240" NumberOfCells="0">
<Points>
  <DataArray type="Float32" Name="Position" NumberOfComponents="3" format="ascii">
	-333.333 2066.67 -333.333
	-333.333 2066.67 -200
	-333.333 2066.67 -66.6667
	-333.333 2066.67 66.6667
	-333.333 2066.67 200
	-333.333 2066.67 333.333
	-200 2066.67 -333.333
	-200 2066.67 -200
	-200 2066.67 -66.6667
	-200 2066.67 66.6667
	-200 2066.67 200
	-200 2066.67 333.333
	-66.6667 2066.67 -333.333
	-66.6667 2066.67 -200
	-66.6667 2066.67 -66.6667
	-66.6667 2066.67 66.6667
	-66.6667 2066.67 200
	-66.6667 2066.67 333.333
	66.6667 2066.67 -333.333
	66.6667 2066.67 -200
	66.6667 2066.67 -66.6667
	66.6667 2066.67 66.6667
	66.6667 2066.67 200
	66.6667 2066.67 333.333
	200 2066.67 -333.333
	200 2066.67 -200
	200 2066.67 -66.6667
	200 2066.67 66.6667
	200 2066.67 200
	200 2066.67 333.333
	333.333 2066.67 -333.333
	333.333 2066.67 -200
	333.333 2066.67 -66.6667
	333.333 2066.67 66.6667
	333.333 2066.67 200
	333.333 2066.67 333.333
	-333.333 2200 -333.333
	-333.333 2200 -200
	-333.333 2200 -66.6667
	-333.333 2200 66.6667
	-333.333 2200 200
	-333.333 2200 333.333
	-200 2200 -333.333
	-200 2200 -200
	-200 2200 -66.6667
	-200 2200 66.6667
	-200 2200 200
	-200 2200 333.333
	-66.6667 2200 -333.333
	-66.6667 2200 -200
	-66.6667 2200 -66.6667
	-66.6667 2200 66.6667
	-66.6667 2200 200
	-66.6667 2200 333.333
	66.6667 2200 -333.333
	66.6667 2200 -200
	66.6667 2200 -66.6667
	66.6667 2200 66.6667
	66.6667 2200 200
	66.6667 2200 333.333
	200 2200 -333.333
	200 2200 -200
	200 2200 -66.6667
	200 2200 66.6667
	200 2200 200
	200 2200 333.333
	333.333 2200 -333.333
	333.333 2200 -200
	333.333 2200 -66.6667
	333.333 2200 66.6667
	333.333 2200 200
	333.333 2200 333.333
	-333.333 2333.33 -333.333
	-333.333 2333.33 -200
	-333.333 2333.33 -66.6667
	-333.333 2333.33 66.6667
	-333.333 2333.33 200
	-333.333 2333.33 333.333
	-200 2333.33 -333.333
	-200 2333.33 -200
	-200 2333.33 -66.6667
	-200 2333.33 66.6667
	-200 2333.33 200
	-200 2333.33 333.333
	-66.6667 2333.33 -333.333
	-66.6667 2333.33 -200
	-66.6667 2333.33 -66.6667
	-66.6667 2333.33 66.6667
	-66.6667 2333.33 200
	-66.6667 2333.33 333.333
	66.6667 2333.33 -333.333
	66.6667 2333.33 -200
	66.6667 2333.33 -66.6667
	66.6667 2333.33 66.6667
	66.6667 2333.33 200
	66.6667 2333.33 333.333
	200 2333.33 -333.333
	200 2333.33 -200
	200 2333.33 -66.6667
	200 2333.33 66.6667
	200 2333.33 200
	200 2333.33 333.333
	333.333 2333.33 -333.333
	333.333 2333.33 -200
	333.333 2333.33 -66.6667
	333.333 2333.33 66.6667
	333.333 2333.33 200
	333.333 2333.33 333.333
	-333.333 2466.67 -333.333
	-333.333 2466.67 -200
	-333.333 2466.67 -66.6667
	-333.333 2466.67 66.6667
	-333.333 2466.67 200
	-333.333 2466.67 333.333
	-200 2466.67 -333.333
	-200 2466.67 -200
	-200 2466.67 -66.6667
	-200 2466.67 66.6667
	-200 2466.67 200
	-200 2466.67 333.333
	-66.6667 2466.67 -333.333
	-66.6667 2466.67 -200
	-66.6667 2466.67 -66.6667
	-66.6667 2466.67 66.6667
	-66.6667 2466.67 200
	-66.6667 2466.67 333.333
	66.6667 2466.67 -333.333
	66.6667 2466.67 -200
	66.6667 2466.67 -66.6667
	66.6667 2466.67 66.6667
	66.6667 2466.67 200
	66.6667 2466.67 333.333
	200 2466.67 -333.333
	200 2466.67 -200
	200 2466.67 -66.6667
	200 2466.67 66.6667
	200 2466.67 200
	200 2466.67 333.333
	333.333 2466.67 -333.333
	333.333 2466.67 -200
	333.333 2466.67 -66.6667
	333.333 2466.67 66.6667
	333.333 2466.67 200
	333.333 2466.67 333.333
	-333.333 2600 -333.333
	-333.333 2600 -200
	-333.333 2600 -66.6667
	-333.333 2600 66.6667
	-333.333 2600 200
	-333.333 2600 333.333
	-200 2600 -333.333
	-200 2600 -200
	-200 2600 -66.6667
	-200 2600 66.6667
	-200 2600 200
	-200 2600 333.333
	-66.6667 2600 -333.333
	-66.6667 2600 -200
	-66.6667 2600 -66.6667
	-66.6667 2600 66.6667
	-66.6667 2600 200
	-66.6667 2600 333.333
	66.6667 2600 -333.333
	66.6667 2600 -200
	66.6667 2600 -66.6667
	66.6667 2600 66.6667
	66.6667 2600 200
	66.6667 2600 333.333
	200 2600 -333.333
	200 2600 -200
	200 2600 -66.6667
	200 2600 66.6667
	200 2600 200
	200 2600 333.333
	333.333 2600 -333.333
	333.333 2600 -200
	333.333 2600 -66.6667
	333.333 2600 66.6667
	333.333 2600 200
	333.333 2600 333.333
	-333.333 2733.33 -333.333
	-333.333 2733.33 -200
	-333.333 2733.33 -66.6667
	-333.333 2733.33 66.6667
	-333.333 2733.33 200
	-333.333 2733.33 333.333
	-200 2733.33 -333.333
	-200 2733.33 -200
	-200 2733.33 -66.6667
	-200 2733.33 66.6667
	-200 2733.33 200
	-200 2733.33 333.333
	-66.6667 2733.33 -333.333
	-66.6667 2733.33 -200
	-66.6667 2733.33 -66.6667
	-66.6667 2733.33 66.6667
	-66.6667 2733.33 200
	-66.6667 2733.33 333.333
	66.6667 2733.33 -333.333
	66.6667 2733.33 -200
	66.6667 2733.33 -66.6667
	66.6667 2733.33 66.6667
	66.6667 2733.33 200
	66.6667 2733.33 333.333
	200 2733.33 -333.333
	200 2733.33 -200
	200 2733.33 -66.6667
	200 2733.33 66.6667
	200 2733.33 200
	200 2733.33 333.333
	333.333 2733.33 -333.333
	333.333 2733.33 -200
	333.333 2733.33 -66.6667
	333.333 2733.33 66.6667
	333.333 2733.33 200
	333.333 2733.33 333.333
	-333.333 2866.67 -333.333
	-333.333 2866.67 -200
	-333.333 2866.67 -66.6667
	-333.333 2866.67 66.6667
	-333.333 2866.67 200
	-333.333 2866.67 333.333
	-200 2866.67 -333.333
	-200 2866.67 -200
	-200 2866.67 -66.6667
	-200 2866.67 66.6667
	-200 2866.67 200
	-200 2866.67 333.333
	-66.6667 2866.67 -333.333
	-66.6667 2866.67 -200
	-66.6667 2866.67 -66.6667
	-66.6667 2866.67 66.6667
	-66.6667 2866.67 200
	-66.6667 2866.67 333.333
	66.6667 2866.67 -333.333
	66.6667 2866.67 -200
	66.6667 2866.67 -66.6667
	66.6667 2866.67 66.6667
	66.6667 2866.67 200
	66.6667 2866.67 333.333
	200 2866.67 -333.333
	200 2866.67 -200
	200 2866.67 -66.6667
	200 2866.67 66.6667
	200 2866.67 200
	200 2866.67 333.333
	333.333 2866.67 -333.333
	333.333 2866.67 -200
	333.333 2866.67 -66.6667
	333.333 2866.67 66.6667
	333.333 2866.67 200
	333.333 2866.67 333.333
	-333.333 3000 -333.333
	-333.333 3000 -200
	-333.333 3000 -66.6667
	-333.333 3000 66.6667
	-333.333 3000 200
	-333.333 3000 333.333
	-200 3000 -333.333
	-200 3000 -200
	-200 3000 -66.6667
	-200 3000 66.6667
	-200 3000 200
	-200 3000 333.333
	-66.6667 3000 -333.333
	-66.6667 3000 -200
	-66.6667 3000 -66.6667
	-66.6667 3000 66.6667
	-66.6667 3000 200
	-66.6667 3000 333.333
	66.6667 3000 -333.333
	66.6667 3000 -200
	66.6667 3000 -66.6667
	66.6667 3000 66.6667
	66.6667 3000 200
	66.6667 3000 333.333
	200 3000 -333.333
	200 3000 -200
	200 3000 -66.6667
	200 3000 66.6667
	200 3000 200
	200 3000 333.333
	333.333 3000 -333.333
	333.333 3000 -200
	333.333 3000 -66.6667
	333.333 3000 66.6667
	333.333 3000 200
	333.333 3000 333.333
	-333.333 3133.33 -333.333
	-333.333 3133.33 -200
	-333.333 3133.33 -66.6667
	-333.333 3133.33 66.6667
	-333.333 3133.33 200
	-333.333 3133.33 333.333
	-200 3133.33 -333.333
	-200 3133.33 -200
	-200 3133.33 -66.6667
	-200 3133.33 66.6667
	-200 3133.33 200
	-200 3133.33 333.333
	-66.6667 3133.33 -333.333
	-66.6667 3133.33 -200
	-66.6667 3133.33 -66.6667
	-66.6667 3133.33 66.6667
	-66.6667 3133.33 200
	-66.6667 3133.33 333.333
	66.6667 3133.33 -333.333
	66.6667 3133.33 -200
	66.6667 3133.33 -66.6667
	66.6667 3133.33 66.6667
	66.6667 3133.33 200
	66.6667 3133.33 333.333
	200 3133.33 -333.333
	200 3133.33 -200
	200 3133.33 -66.6667
	200 3133.33 66.6667
	200 3133.33 200
	200 3133.33 333.333
	333.333 3133.33 -333.333
	333.333 3133.33 -200
	333.333 3133.33 -66.6667
	333.333 3133.33 66.6667
	333.333 3133.33 200
	333.333 3133.33 333.333
	-333.333 3266.67 -333.333
	-333.333 3266.67 -200
	-333.333 3266.67 -66.6667
	-333.333 3266.67 66.6667
	-333.333 3266.67 200
	-333.333 3266.67 333.333
	-200 3266.67 -333.333
	-200 3266.67 -200
	-200 3266.67 -66.6667
	-200 3266.67 66.6667
	-200 3266.67 200
	-200 3266.67 333.333
	-66.6667 3266.67 -333.333
	-66.6667 3266.67 -200
	-66.6667 3266.67 -66.6667
	-66.6667 3266.67 66.6667
	-66.6667 3266.67 200
	-66.6667 3266.67 333.333
	66.6667 3266.67 -333.333
	66.6667 3266.67 -200
	66.6667 3266.67 -66.6667
	66.6667 3266.67 66.6667
	66.6667 3266.67 200
	66.6667 3266.67 333.333
	200 3266.67 -333.333
	200 3266.67 -200
	200 3266.67 -66.6667
	200 3266.67 66.6667
	200 3266.67 200
	200 3266.67 333.333
	333.333 3266.67 -333.333
	333.333 3266.67 -200
	333.333 3266.67 -66.6667
	333.333 3266.67 66.6667
	333.333 3266.67 200
	333.333 3266.67 333.333
	-333.333 3400 -333.333
	-333.333 3400 -200
	-333.333 3400 -66.6667
	-333.333 3400 66.6667
	-333.333 3400 200
	-333.333 3400 333.333
	-200 3400 -333.333
	-200 3400 -200
	-200 3400 -66.6667
	-200 3400 66.6667
	-200 3400 200
	-200 3400 333.333
	-66.6667 3400 -333.333
	-66.6667 3400 -200
	-66.6667 3400 -66.6667
	-66.6667 3400 66.6667
	-66.6667 3400 200
	-66.6667 3400 333.333
	66.6667 3400 -333.333
	66.6667 3400 -200
	66.6667 3400 -66.6667
	66.6667 3400 66.6667
	66.6667 3400 200
	66.6667 3400 333.333
	200 3400 -333.333
	200 3400 -200
	200 3400 -66.6667
	200 3400 66.6667
	200 3400 200
	200 3400 333.333
	333.333 3400 -333.333
	333.333 3400 -200
	333.333 3400 -66.6667
	333.333 3400 66.6667
	333.333 3400 200
	333.333 3400 333.333
	-333.333 3533.33 -333.333
	-333.333 3533.33 -200
	-333.333 3533.33 -66.6667
	-333.333 3533.33 66.6667
	-333.333 3533.33 200
	-333.333 3533.33 333.333
	-200 3533.33 -333.333
	-200 3533.33 -200
	-200 3533.33 -66.6667
	-200 3533.33 66.6667
	-200 3533.33 200
	-200 3533.33 333.333
	-66.6667 3533.33 -333.333
	-66.6667 3533.33 -200
	-66.6667 3533.33 -66.6667
	-66.6667 3533.33 66.6667
	-66.6667 3533.33 200
	-66.6667 3533.33 333.333
	66.6667 3533.33 -333.333
	66.6667 3533.33 -200
	66.6667 3533.33 -66.6667
	66.6667 3533.33 66.6667
	66.6667 3533.33 200
	66.6667 3533.33 333.333
	200 3533.33 -333.333
	200 3533.33 -200
	200 3533.33 -66.6667
	200 3533.33 66.6667
	200 3533.33 200
	200 3533.33 333.333
	333.333 3533.33 -333.333
	333.333 3533.33 -200
	333.333 3533.33 -66.6667
	333.333 3533.33 66.6667
	333.333 3533.33 200
	333.333 3533.33 333.333
	-333.333 3666.67 -333.333
	-333.333 3666.67 -200
[...]
<PointData  Vectors="vector">
  <DataArray type="Float32" Name="Velocity" NumberOfComponents="3" format="ascii">
 6.29711e-13 4.35674e-12 6.29711e-13
 6.21045e-13 4.2847e-12 -2.70804e-13
 6.16251e-13 4.24844e-12 -5.39822e-13
 6.16251e-13 4.24844e-12 2.69151e-13
 6.21045e-13 4.2847e-12 -1.07137e-12
 6.29711e-13 4.35674e-12 9.77308e-13
 -2.70804e-13 4.2847e-12 6.21045e-13
 -2.86716e-13 4.21454e-12 -2.86716e-13
 -2.94902e-13 4.17731e-12 -5.42908e-13
 -2.94902e-13 4.17731e-12 2.71884e-13
 -2.86716e-13 4.21454e-12 -1.07368e-12
 -2.70804e-13 4.2847e-12 9.94766e-13
 -5.39822e-13 4.24844e-12 6.16251e-13
 -5.42908e-13 4.17731e-12 -2.94902e-13
 -5.444e-13 4.13999e-12 -5.444e-13
 -5.444e-13 4.13999e-12 2.71997e-13
 -5.42908e-13 4.17731e-12 -1.07347e-12
 -5.39822e-13 4.24844e-12 1.00341e-12
 2.69151e-13 4.24844e-12 6.16251e-13
 2.71884e-13 4.17731e-12 -2.94902e-13
 2.71997e-13 4.13999e-12 -5.444e-13
 2.71997e-13 4.13999e-12 2.71997e-13
 2.71884e-13 4.17731e-12 -1.07347e-12
 2.69151e-13 4.24844e-12 1.00341e-12
 -1.07137e-12 4.2847e-12 6.21045e-13
 -1.07368e-12 4.21454e-12 -2.86716e-13
 -1.07347e-12 4.17731e-12 -5.42908e-13
 -1.07347e-12 4.17731e-12 2.71884e-13
 -1.07368e-12 4.21454e-12 -1.07368e-12
 -1.07137e-12 4.2847e-12 9.94766e-13
 9.77308e-13 4.35674e-12 6.29711e-13
 9.94766e-13 4.2847e-12 -2.70804e-13
 1.00341e-12 4.24844e-12 -5.39822e-13
 1.00341e-12 4.24844e-12 2.69151e-13
 9.94766e-13 4.2847e-12 -1.07137e-12
 9.77308e-13 4.35674e-12 9.77308e-13
 6.18576e-13 -1.8764e-11 6.18576e-13
 6.09946e-13 -1.87742e-11 -2.92168e-13
 6.0549e-13 -1.8787e-11 -5.45621e-13
 6.0549e-13 -1.8787e-11 2.79312e-13
 6.09946e-13 -1.87742e-11 -1.05947e-12
 6.18576e-13 -1.8764e-11 9.92264e-13
 -2.92168e-13 -1.87742e-11 6.09946e-13
 -3.06186e-13 -1.87979e-11 -3.06186e-13
 -3.13978e-13 -1.8796e-11 -5.49283e-13
 -3.13978e-13 -1.8796e-11 2.7986e-13
 -3.06186e-13 -1.87979e-11 -1.05937e-12
 -2.92168e-13 -1.87742e-11 1.00868e-12
 -5.45621e-13 -1.8787e-11 6.0549e-13
 -5.49283e-13 -1.8796e-11 -3.13978e-13
 -5.50533e-13 -1.88085e-11 -5.50533e-13
 -5.50533e-13 -1.88085e-11 2.81372e-13
 -5.49283e-13 -1.8796e-11 -1.0619e-12
 -5.45621e-13 -1.8787e-11 1.01825e-12
 2.79312e-13 -1.8787e-11 6.0549e-13
 2.7986e-13 -1.8796e-11 -3.13978e-13
 2.81372e-13 -1.88085e-11 -5.50533e-13
 2.81372e-13 -1.88085e-11 2.81372e-13
 2.7986e-13 -1.8796e-11 -1.0619e-12
 2.79312e-13 -1.8787e-11 1.01825e-12
 -1.05947e-12 -1.87742e-11 6.09946e-13
 -1.05937e-12 -1.87979e-11 -3.06186e-13
 -1.0619e-12 -1.8796e-11 -5.49283e-13
 -1.0619e-12 -1.8796e-11 2.7986e-13
 -1.05937e-12 -1.87979e-11 -1.05937e-12
 -1.05947e-12 -1.87742e-11 1.00868e-12
 9.92264e-13 -1.8764e-11 6.18576e-13
 1.00868e-12 -1.87742e-11 -2.92168e-13
 1.01825e-12 -1.8787e-11 -5.45621e-13
 1.01825e-12 -1.8787e-11 2.79312e-13
 1.00868e-12 -1.87742e-11 -1.05947e-12
 9.92264e-13 -1.8764e-11 9.92264e-13
 6.25017e-13 1.8088e-11 6.25017e-13
 6.163e-13 1.80741e-11 -2.96364e-13
 6.11709e-13 1.80808e-11 -5.49221e-13
 6.11709e-13 1.80808e-11 2.77827e-13
 6.163e-13 1.80741e-11 -1.05455e-12
 6.25017e-13 1.8088e-11 9.92726e-13
 -2.96364e-13 1.80741e-11 6.163e-13
 -3.11578e-13 1.80894e-11 -3.11578e-13
 -3.18171e-13 1.80681e-11 -5.51442e-13
 -3.18171e-13 1.80681e-11 2.78635e-13
 -3.11578e-13 1.80894e-11 -1.05418e-12
 -2.96364e-13 1.80741e-11 1.00924e-12
 -5.49221e-13 1.80808e-11 6.11709e-13
 -5.51442e-13 1.80681e-11 -3.18171e-13
 -5.53863e-13 1.8076e-11 -5.53863e-13
 -5.53863e-13 1.8076e-11 2.7904e-13
 -5.51442e-13 1.80681e-11 -1.05523e-12
 -5.49221e-13 1.80808e-11 1.01878e-12
 2.77827e-13 1.80808e-11 6.11709e-13
 2.78635e-13 1.80681e-11 -3.18171e-13
 2.7904e-13 1.8076e-11 -5.53863e-13
 2.7904e-13 1.8076e-11 2.7904e-13
 2.78635e-13 1.80681e-11 -1.05523e-12
 2.77827e-13 1.80808e-11 1.01878e-12
 -1.05455e-12 1.80741e-11 6.163e-13
 -1.05418e-12 1.80894e-11 -3.11578e-13
 -1.05523e-12 1.80681e-11 -5.51442e-13
 -1.05523e-12 1.80681e-11 2.78635e-13
 -1.05418e-12 1.80894e-11 -1.05418e-12
 -1.05455e-12 1.80741e-11 1.00924e-12
 9.92726e-13 1.8088e-11 6.25017e-13
 1.00924e-12 1.80741e-11 -2.96364e-13
 1.01878e-12 1.80808e-11 -5.49221e-13
 1.01878e-12 1.80808e-11 2.77827e-13
 1.00924e-12 1.80741e-11 -1.05455e-12
 9.92726e-13 1.8088e-11 9.92726e-13
 6.18596e-13 3.73643e-12 6.18596e-13
 6.09925e-13 3.7824e-12 -3.11856e-13
 6.05276e-13 3.79895e-12 -5.53648e-13
 6.05276e-13 3.79895e-12 2.85652e-13
 6.09925e-13 3.7824e-12 -1.03842e-12
 6.18596e-13 3.73643e-12 9.9935e-13
 -3.11856e-13 3.7824e-12 6.09925e-13
 -3.25442e-13 3.81512e-12 -3.25442e-13
 -3.31827e-13 3.84609e-12 -5.56629e-13
 -3.31827e-13 3.84609e-12 2.88193e-13
 -3.25442e-13 3.81512e-12 -1.04184e-12
 -3.11856e-13 3.7824e-12 1.01799e-12
 -5.53648e-13 3.79895e-12 6.05276e-13
 -5.56629e-13 3.84609e-12 -3.31827e-13
 -5.58835e-13 3.8641e-12 -5.58835e-13
 -5.58835e-13 3.8641e-12 2.8881e-13
 -5.56629e-13 3.84609e-12 -1.0428e-12
 -5.53648e-13 3.79895e-12 1.02745e-12
 2.85652e-13 3.79895e-12 6.05276e-13
 2.88193e-13 3.84609e-12 -3.31827e-13
 2.8881e-13 3.8641e-12 -5.58835e-13
 2.8881e-13 3.8641e-12 2.8881e-13
 2.88193e-13 3.84609e-12 -1.0428e-12
 2.85652e-13 3.79895e-12 1.02745e-12
 -1.03842e-12 3.7824e-12 6.09925e-13
 -1.04184e-12 3.81512e-12 -3.25442e-13
 -1.0428e-12 3.84609e-12 -5.56629e-13
 -1.0428e-12 3.84609e-12 2.88193e-13
 -1.04184e-12 3.81512e-12 -1.04184e-12
 -1.03842e-12 3.7824e-12 1.01799e-12
 9.9935e-13 3.73643e-12 6.18596e-13
 1.01799e-12 3.7824e-12 -3.11856e-13
 1.02745e-12 3.79895e-12 -5.53648e-13
 1.02745e-12 3.79895e-12 2.85652e-13
 1.01799e-12 3.7824e-12 -1.03842e-12
 9.9935e-13 3.73643e-12 9.9935e-13
 6.05374e-13 -2.4985e-12 6.05374e-13
 5.9651e-13 -2.47689e-12 -3.32395e-13
 5.92061e-13 -2.46603e-12 -5.60783e-13
 5.92061e-13 -2.46603e-12 2.96829e-13
 5.9651e-13 -2.47689e-12 -1.02602e-12
 6.05374e-13 -2.4985e-12 1.01918e-12
 -3.32395e-13 -2.47689e-12 5.9651e-13
 -3.45532e-13 -2.45521e-12 -3.45532e-13
 -3.51584e-13 -2.44354e-12 -5.63145e-13
 -3.51584e-13 -2.44354e-12 2.99898e-13
 -3.45532e-13 -2.45521e-12 -1.0306e-12
 -3.32395e-13 -2.47689e-12 1.03863e-12
 -5.60783e-13 -2.46603e-12 5.92061e-13
 -5.63145e-13 -2.44354e-12 -3.51584e-13
 -5.65073e-13 -2.43158e-12 -5.65073e-13
 -5.65073e-13 -2.43158e-12 3.00729e-13
 -5.63145e-13 -2.44354e-12 -1.0315e-12
 -5.60783e-13 -2.46603e-12 1.04782e-12
 2.96829e-13 -2.46603e-12 5.92061e-13
 2.99898e-13 -2.44354e-12 -3.51584e-13
 3.00729e-13 -2.43158e-12 -5.65073e-13
 3.00729e-13 -2.43158e-12 3.00729e-13
 2.99898e-13 -2.44354e-12 -1.0315e-12
 2.96829e-13 -2.46603e-12 1.04782e-12
 -1.02602e-12 -2.47689e-12 5.9651e-13
 -1.0306e-12 -2.45521e-12 -3.45532e-13
 -1.0315e-12 -2.44354e-12 -5.63145e-13
 -1.0315e-12 -2.44354e-12 2.99898e-13
 -1.0306e-12 -2.45521e-12 -1.0306e-12
 -1.02602e-12 -2.47689e-12 1.03863e-12
 1.01918e-12 -2.4985e-12 6.05374e-13
 1.03863e-12 -2.47689e-12 -3.32395e-13
 1.04782e-12 -2.46603e-12 -5.60783e-13
 1.04782e-12 -2.46603e-12 2.96829e-13
 1.03863e-12 -2.47689e-12 -1.02602e-12
 1.01918e-12 -2.4985e-12 1.01918e-12
 6.08641e-13 -1.83062e-11 6.08641e-13
 5.99297e-13 -1.83116e-11 -3.39633e-13
 5.94502e-13 -1.83142e-11 -5.64001e-13
 5.94502e-13 -1.83142e-11 2.96535e-13
 5.99297e-13 -1.83116e-11 -1.01965e-12
 6.08641e-13 -1.83062e-11 1.01868e-12
 -3.39633e-13 -1.83116e-11 5.99297e-13
 -3.51455e-13 -1.83165e-11 -3.51455e-13
 -3.58858e-13 -1.8319e-11 -5.67383e-13
 -3.58858e-13 -1.8319e-11 2.98768e-13
 -3.51455e-13 -1.83165e-11 -1.02248e-12
 -3.39633e-13 -1.83116e-11 1.03833e-12
 -5.64001e-13 -1.83142e-11 5.94502e-13
 -5.67383e-13 -1.8319e-11 -3.58858e-13
 -5.67772e-13 -1.83213e-11 -5.67772e-13
 -5.67772e-13 -1.83213e-11 3.01196e-13
 -5.67383e-13 -1.8319e-11 -1.02707e-12
 -5.64001e-13 -1.83142e-11 1.05014e-12
 2.96535e-13 -1.83142e-11 5.94502e-13
 2.98768e-13 -1.8319e-11 -3.58858e-13
 3.01196e-13 -1.83213e-11 -5.67772e-13
 3.01196e-13 -1.83213e-11 3.01196e-13
 2.98768e-13 -1.8319e-11 -1.02707e-12
 2.96535e-13 -1.83142e-11 1.05014e-12
 -1.01965e-12 -1.83116e-11 5.99297e-13
 -1.02248e-12 -1.83165e-11 -3.51455e-13
 -1.02707e-12 -1.8319e-11 -5.67383e-13
 -1.02707e-12 -1.8319e-11 2.98768e-13
 -1.02248e-12 -1.83165e-11 -1.02248e-12
 -1.01965e-12 -1.83116e-11 1.03833e-12
 1.01868e-12 -1.83062e-11 6.08641e-13
 1.03833e-12 -1.83116e-11 -3.39633e-13
 1.05014e-12 -1.83142e-11 -5.64001e-13
 1.05014e-12 -1.83142e-11 2.96535e-13
 1.03833e-12 -1.83116e-11 -1.01965e-12
 1.01868e-12 -1.83062e-11 1.01868e-12
 6.05115e-13 2.04173e-11 6.05115e-13
 5.95452e-13 2.03918e-11 -3.52673e-13
 5.90445e-13 2.03783e-11 -5.679e-13
 5.90445e-13 2.03783e-11 2.98392e-13
 5.95452e-13 2.03918e-11 -1.01736e-12
 6.05115e-13 2.04173e-11 1.03162e-12
 -3.52673e-13 2.03918e-11 5.95452e-13
 -3.6433e-13 2.03671e-11 -3.6433e-13
 -3.70345e-13 2.03533e-11 -5.70848e-13
 -3.70345e-13 2.03533e-11 3.0104e-13
 -3.6433e-13 2.03671e-11 -1.02128e-12
 -3.52673e-13 2.03918e-11 1.05242e-12
 -5.679e-13 2.03783e-11 5.90445e-13
 -5.70848e-13 2.03533e-11 -3.70345e-13
 -5.7233e-13 2.03393e-11 -5.7233e-13
 -5.7233e-13 2.03393e-11 3.02379e-13
 -5.70848e-13 2.03533e-11 -1.02316e-12
 -5.679e-13 2.03783e-11 1.06288e-12
 2.98392e-13 2.03783e-11 5.90445e-13
 3.0104e-13 2.03533e-11 -3.70345e-13
 3.02379e-13 2.03393e-11 -5.7233e-13
 3.02379e-13 2.03393e-11 3.02379e-13
 3.0104e-13 2.03533e-11 -1.02316e-12
 2.98392e-13 2.03783e-11 1.06288e-12
 -1.01736e-12 2.03918e-11 5.95452e-13
 -1.02128e-12 2.03671e-11 -3.6433e-13
 -1.02316e-12 2.03533e-11 -5.70848e-13
 -1.02316e-12 2.03533e-11 3.0104e-13
 -1.02128e-12 2.03671e-11 -1.02128e-12
 -1.01736e-12 2.03918e-11 1.05242e-12
 1.03162e-12 2.04173e-11 6.05115e-13
 1.05242e-12 2.03918e-11 -3.52673e-13
 1.06288e-12 2.03783e-11 -5.679e-13
 1.06288e-12 2.03783e-11 2.98392e-13
 1.05242e-12 2.03918e-11 -1.01736e-12
 1.03162e-12 2.04173e-11 1.03162e-12
 5.95175e-13 -2.24855e-12 5.95175e-13
 5.85395e-13 -2.27167e-12 -3.68371e-13
 5.80452e-13 -2.2989e-12 -5.7332e-13
 5.80452e-13 -2.2989e-12 3.07134e-13
 5.85395e-13 -2.27167e-12 -1.00398e-12
 5.95175e-13 -2.24855e-12 1.03798e-12
 -3.68371e-13 -2.27167e-12 5.85395e-13
 -3.79761e-13 -2.30942e-12 -3.79761e-13
 -3.85545e-13 -2.32146e-12 -5.7582e-13
 -3.85545e-13 -2.32146e-12 3.10133e-13
 -3.79761e-13 -2.30942e-12 -1.00917e-12
 -3.68371e-13 -2.27167e-12 1.05971e-12
 -5.7332e-13 -2.2989e-12 5.80452e-13
 -5.7582e-13 -2.32146e-12 -3.85545e-13
 -5.77118e-13 -2.33346e-12 -5.77118e-13
 -5.77118e-13 -2.33346e-12 3.11611e-13
 -5.7582e-13 -2.32146e-12 -1.01102e-12
 -5.7332e-13 -2.2989e-12 1.06999e-12
 3.07134e-13 -2.2989e-12 5.80452e-13
 3.10133e-13 -2.32146e-12 -3.85545e-13
 3.11611e-13 -2.33346e-12 -5.77118e-13
 3.11611e-13 -2.33346e-12 3.11611e-13
 3.10133e-13 -2.32146e-12 -1.01102e-12
 3.07134e-13 -2.2989e-12 1.06999e-12
 -1.00398e-12 -2.27167e-12 5.85395e-13
 -1.00917e-12 -2.30942e-12 -3.79761e-13
 -1.01102e-12 -2.32146e-12 -5.7582e-13
 -1.01102e-12 -2.32146e-12 3.10133e-13
 -1.00917e-12 -2.30942e-12 -1.00917e-12
 -1.00398e-12 -2.27167e-12 1.05971e-12
 1.03798e-12 -2.24855e-12 5.95175e-13
 1.05971e-12 -2.27167e-12 -3.68371e-13
 1.06999e-12 -2.2989e-12 -5.7332e-13
 1.06999e-12 -2.2989e-12 3.07134e-13
 1.05971e-12 -2.27167e-12 -1.00398e-12
 1.03798e-12 -2.24855e-12 1.03798e-12
 5.90428e-13 -1.83215e-11 5.90428e-13
 5.80522e-13 -1.83267e-11 -3.79491e-13
 5.7546e-13 -1.83008e-11 -5.76438e-13
 5.7546e-13 -1.83008e-11 3.08222e-13
 5.80522e-13 -1.83267e-11 -1.005e-12
 5.90428e-13 -1.83215e-11 1.05467e-12
 -3.79491e-13 -1.83267e-11 5.80522e-13
 -3.90766e-13 -1.83024e-11 -3.90766e-13
 -3.96575e-13 -1.83051e-11 -5.78738e-13
 -3.96575e-13 -1.83051e-11 3.11472e-13
 -3.90766e-13 -1.83024e-11 -1.01003e-12
 -3.79491e-13 -1.83267e-11 1.07634e-12
 -5.76438e-13 -1.83008e-11 5.7546e-13
 -5.78738e-13 -1.83051e-11 -3.96575e-13
 -5.79887e-13 -1.83077e-11 -5.79887e-13
 -5.79887e-13 -1.83077e-11 3.131e-13
 -5.78738e-13 -1.83051e-11 -1.0118e-12
 -5.76438e-13 -1.83008e-11 1.08655e-12
 3.08222e-13 -1.83008e-11 5.7546e-13
 3.11472e-13 -1.83051e-11 -3.96575e-13
 3.131e-13 -1.83077e-11 -5.79887e-13
 3.131e-13 -1.83077e-11 3.131e-13
 3.11472e-13 -1.83051e-11 -1.0118e-12
 3.08222e-13 -1.83008e-11 1.08655e-12
 -1.005e-12 -1.83267e-11 5.80522e-13
 -1.01003e-12 -1.83024e-11 -3.90766e-13
 -1.0118e-12 -1.83051e-11 -5.78738e-13
 -1.0118e-12 -1.83051e-11 3.11472e-13
 -1.01003e-12 -1.83024e-11 -1.01003e-12
 -1.005e-12 -1.83267e-11 1.07634e-12
 1.05467e-12 -1.83215e-11 5.90428e-13
 1.07634e-12 -1.83267e-11 -3.79491e-13
 1.08655e-12 -1.83008e-11 -5.76438e-13
 1.08655e-12 -1.83008e-11 3.08222e-13
 1.07634e-12 -1.83267e-11 -1.005e-12
 1.05467e-12 -1.83215e-11 1.05467e-12
 5.80225e-13 2.01564e-11 5.80225e-13
 5.70395e-13 2.01699e-11 -3.9197e-13
 5.65336e-13 2.01626e-11 -5.80018e-13
 5.65336e-13 2.01626e-11 3.16221e-13
 5.70395e-13 2.01699e-11 -9.93336e-13
 5.80225e-13 2.01564e-11 1.06064e-12
 -3.9197e-13 2.01699e-11 5.70395e-13
 -4.02992e-13 2.01705e-11 -4.02992e-13
 -4.08666e-13 2.01773e-11 -5.82017e-13
 -4.08666e-13 2.01773e-11 3.19643e-13
 -4.02992e-13 2.01705e-11 -9.98417e-13
 -3.9197e-13 2.01699e-11 1.08195e-12
 -5.80018e-13 2.01626e-11 5.65336e-13
 -5.82017e-13 2.01773e-11 -4.08666e-13
 -5.83024e-13 2.01843e-11 -5.83024e-13
 -5.83024e-13 2.01843e-11 3.21363e-13
 -5.82017e-13 2.01773e-11 -1.00021e-12
 -5.80018e-13 2.01626e-11 1.09201e-12
 3.16221e-13 2.01626e-11 5.65336e-13
 3.19643e-13 2.01773e-11 -4.08666e-13
 3.21363e-13 2.01843e-11 -5.83024e-13
 3.21363e-13 2.01843e-11 3.21363e-13
 3.19643e-13 2.01773e-11 -1.00021e-12
 3.16221e-13 2.01626e-11 1.09201e-12
 -9.93336e-13 2.01699e-11 5.70395e-13
 -9.98417e-13 2.01705e-11 -4.02992e-13
 -1.00021e-12 2.01773e-11 -5.82017e-13
 -1.00021e-12 2.01773e-11 3.19643e-13
 -9.98417e-13 2.01705e-11 -9.98417e-13
 -9.93336e-13 2.01699e-11 1.08195e-12
 1.06064e-12 2.01564e-11 5.80225e-13
 1.08195e-12 2.01699e-11 -3.9197e-13
 1.09201e-12 2.01626e-11 -5.80018e-13
 1.09201e-12 2.01626e-11 3.16221e-13
 1.08195e-12 2.01699e-11 -9.93336e-13
 1.06064e-12 2.01564e-11 1.06064e-12
 5.65895e-13 9.18964e-13 5.65895e-13
 5.56226e-13 9.37816e-13 -4.09252e-13
 5.51331e-13 9.47132e-13 -5.82668e-13
 5.51331e-13 9.47132e-13 3.21767e-13
 5.56226e-13 9.37816e-13 -1.00373e-12
 5.65895e-13 9.18964e-13 1.1002e-12
 -4.09252e-13 9.37816e-13 5.56226e-13
 -4.1733e-13 9.57249e-13 -4.1733e-13
 -4.22776e-13 9.67364e-13 -5.85642e-13
 -4.22776e-13 9.67364e-13 3.30567e-13
 -4.1733e-13 9.57249e-13 -9.90648e-13
 -4.09252e-13 9.37816e-13 1.09612e-12
 -5.82668e-13 9.47132e-13 5.51331e-13
 -5.85642e-13 9.67364e-13 -4.22776e-13
 -5.86518e-13 9.77949e-13 -5.86518e-13
 -5.86518e-13 9.77949e-13 3.32341e-13
 -5.85642e-13 9.67364e-13 -9.93828e-13
 -5.82668e-13 9.47132e-13 1.10724e-12
 3.21767e-13 9.47132e-13 5.51331e-13
 3.30567e-13 9.67364e-13 -4.22776e-13
 3.32341e-13 9.77949e-13 -5.86518e-13
 3.32341e-13 9.77949e-13 3.32341e-13
 3.30567e-13 9.67364e-13 -9.93828e-13
 3.21767e-13 9.47132e-13 1.10724e-12
 -1.00373e-12 9.37816e-13 5.56226e-13
 -9.90648e-13 9.57249e-13 -4.1733e-13
 -9.93828e-13 9.67364e-13 -5.85642e-13
 -9.93828e-13 9.67364e-13 3.30567e-13
 -9.90648e-13 9.57249e-13 -9.90648e-13
 -1.00373e-12 9.37816e-13 1.09612e-12
 1.1002e-12 9.18964e-13 5.65895e-13
 1.09612e-12 9.37816e-13 -4.09252e-13
 1.10724e-12 9.47132e-13 -5.82668e-13
 1.10724e-12 9.47132e-13 3.21767e-13
 1.09612e-12 9.37816e-13 -1.00373e-12
 1.1002e-12 9.18964e-13 1.1002e-12
 5.53536e-13 -2.01105e-11 5.53536e-13
 5.43982e-13 -2.01014e-11 -4.20762e-13
 5.39114e-13 -2.00973e-11 -5.86203e-13
 5.39114e-13 -2.00973e-11 3.31347e-13
 5.43982e-13 -2.01014e-11 -9.96231e-13
 5.53536e-13 -2.01105e-11 1.11063e-12
 -4.20762e-13 -2.01014e-11 5.43982e-13
 -4.31253e-13 -2.01068e-11 -4.31253e-13
 -4.36645e-13 -2.01018e-11 -5.87701e-13
 -4.36645e-13 -2.01018e-11 3.35025e-13
 -4.31253e-13 -2.01068e-11 -1.00151e-12
 -4.20762e-13 -2.01014e-11 1.13117e-12
 -5.86203e-13 -2.00973e-11 5.39114e-13
 -5.87701e-13 -2.01018e-11 -4.36645e-13
 -5.88449e-13 -2.00965e-11 -5.88449e-13
 -5.88449e-13 -2.00965e-11 3.36865e-13
 -5.87701e-13 -2.01018e-11 -1.0034e-12
 -5.86203e-13 -2.00973e-11 1.14082e-12
 3.31347e-13 -2.00973e-11 5.39114e-13
 3.35025e-13 -2.01018e-11 -4.36645e-13
 3.36865e-13 -2.00965e-11 -5.88449e-13
 3.36865e-13 -2.00965e-11 3.36865e-13
 3.35025e-13 -2.01018e-11 -1.0034e-12
 3.31347e-13 -2.00973e-11 1.14082e-12
 -9.96231e-13 -2.01014e-11 5.43982e-13
 -1.00151e-12 -2.01068e-11 -4.31253e-13
 -1.0034e-12 -2.01018e-11 -5.87701e-13
 -1.0034e-12 -2.01018e-11 3.35025e-13
 -1.00151e-12 -2.01068e-11 -1.00151e-12
 -9.96231e-13 -2.01014e-11 1.13117e-12
 1.11063e-12 -2.01105e-11 5.53536e-13
 1.13117e-12 -2.01014e-11 -4.20762e-13
 1.14082e-12 -2.00973e-11 -5.86203e-13
 1.14082e-12 -2.00973e-11 3.31347e-13
 1.13117e-12 -2.01014e-11 -9.96231e-13
 1.11063e-12 -2.01105e-11 1.11063e-12
 5.39464e-13 1.80709e-11 5.39464e-13
 5.30107e-13 1.80603e-11 -4.34205e-13
 5.2531e-13 1.80552e-11 -5.88401e-13
 5.2531e-13 1.80552e-11 3.38934e-13
 5.30107e-13 1.80603e-11 -9.95667e-13
 5.39464e-13 1.80709e-11 1.13245e-12
 -4.34205e-13 1.80603e-11 5.30107e-13
 -4.43123e-13 1.80796e-11 -4.43123e-13
 -4.4838e-13 1.80749e-11 -5.9098e-13
 -4.4838e-13 1.80749e-11 3.43992e-13
 -4.43123e-13 1.80796e-11 -9.97152e-13
 -4.34205e-13 1.80603e-11 1.14737e-12
 -5.88401e-13 1.80552e-11 5.2531e-13
 -5.9098e-13 1.80749e-11 -4.4838e-13
 -5.9162e-13 1.80706e-11 -5.9162e-13
 -5.9162e-13 1.80706e-11 3.45872e-13
 -5.9098e-13 1.80749e-11 -9.9649e-13
 -5.88401e-13 1.80552e-11 1.15424e-12
 3.38934e-13 1.80552e-11 5.2531e-13
 3.43992e-13 1.80749e-11 -4.4838e-13
 3.45872e-13 1.80706e-11 -5.9162e-13
 3.45872e-13 1.80706e-11 3.45872e-13
 3.43992e-13 1.80749e-11 -9.9649e-13
 3.38934e-13 1.80552e-11 1.15424e-12
 -9.95667e-13 1.80603e-11 5.30107e-13
 -9.97152e-13 1.80796e-11 -4.43123e-13
 -9.9649e-13 1.80749e-11 -5.9098e-13
 -9.9649e-13 1.80749e-11 3.43992e-13
 -9.97152e-13 1.80796e-11 -9.97152e-13
 -9.95667e-13 1.80603e-11 1.14737e-12
 1.13245e-12 1.80709e-11 5.39464e-13
 1.14737e-12 1.80603e-11 -4.34205e-13
 1.15424e-12 1.80552e-11 -5.88401e-13
 1.15424e-12 1.80552e-11 3.38934e-13
 1.14737e-12 1.80603e-11 -9.95667e-13
 1.13245e-12 1.80709e-11 1.13245e-12
 5.24048e-13 5.01809e-12 5.24048e-13
 5.14916e-13 4.9445e-12 -4.48274e-13
 5.10288e-13 4.91488e-12 -5.91977e-13
 5.10288e-13 4.91488e-12 3.4711e-13
 5.14916e-13 4.9445e-12 -9.99505e-13
 5.24048e-13 5.01809e-12 1.16143e-12
 -4.48274e-13 4.9445e-12 5.14916e-13
 -4.58212e-13 4.85804e-12 -4.58212e-13
 -4.60657e-13 4.82862e-12 -5.93002e-13
 -4.60657e-13 4.82862e-12 3.50914e-13
 -4.58212e-13 4.85804e-12 -1.00379e-12
 -4.48274e-13 4.9445e-12 1.17984e-12
 -5.91977e-13 4.91488e-12 5.10288e-13
 -5.93002e-13 4.82862e-12 -4.60657e-13
 -5.94859e-13 4.79921e-12 -5.94859e-13
 -5.94859e-13 4.79921e-12 3.52815e-13
 -5.93002e-13 4.82862e-12 -1.00061e-12
 -5.91977e-13 4.91488e-12 1.18257e-12
 3.4711e-13 4.91488e-12 5.10288e-13
 3.50914e-13 4.82862e-12 -4.60657e-13
 3.52815e-13 4.79921e-12 -5.94859e-13
 3.52815e-13 4.79921e-12 3.52815e-13
 3.50914e-13 4.82862e-12 -1.00061e-12
 3.4711e-13 4.91488e-12 1.18257e-12
 -9.99505e-13 4.9445e-12 5.14916e-13
 -1.00379e-12 4.85804e-12 -4.58212e-13
 -1.00061e-12 4.82862e-12 -5.93002e-13
 -1.00061e-12 4.82862e-12 3.50914e-13
 -1.00379e-12 4.85804e-12 -1.00379e-12
 -9.99505e-13 4.9445e-12 1.17984e-12
 1.16143e-12 5.01809e-12 5.24048e-13
 1.17984e-12 4.9445e-12 -4.48274e-13
 1.18257e-12 4.91488e-12 -5.91977e-13
 1.18257e-12 4.91488e-12 3.4711e-13
 1.17984e-12 4.9445e-12 -9.99505e-13
 1.16143e-12 5.01809e-12 1.16143e-12
 5.08959e-13 -2.02825e-11 5.08959e-13
 5.00023e-13 -2.02336e-11 -4.60508e-13
 4.95472e-13 -2.02236e-11 -5.94712e-13
 4.95472e-13 -2.02236e-11 3.54087e-13
 5.00023e-13 -2.02336e-11 -1.00264e-12
 5.08959e-13 -2.02825e-11 1.18738e-12
 -4.60508e-13 -2.02336e-11 5.00023e-13
 -4.70237e-13 -2.0184e-11 -4.70237e-13
 -4.73924e-13 -2.01741e-11 -5.95613e-13
 -4.73924e-13 -2.01741e-11 3.57936e-13
 -4.70237e-13 -2.0184e-11 -1.0018e-12
 -4.60508e-13 -2.02336e-11 1.2003e-12
 -5.94712e-13 -2.02236e-11 4.95472e-13
 -5.95613e-13 -2.01741e-11 -4.73924e-13
 -5.97371e-13 -2.01642e-11 -5.97371e-13
 -5.97371e-13 -2.01642e-11 3.6117e-13
 -5.95613e-13 -2.01741e-11 -1.0039e-12
 -5.94712e-13 -2.02236e-11 1.2081e-12
 3.54087e-13 -2.02236e-11 4.95472e-13