<?xml version="1.0"?>
<!-- time 90.7024-->
<VTKFile type="UnstructuredGrid" version="0.1" byte_order="LittleEndian">
<UnstructuredGrid>
<Piece NumberOfPoints="3240" NumberOfCells="0">
<Points>
  <DataArray type="Float32" Name="Position" NumberOfComponents="3" format="ascii">
	-333.333 2066.13 -333.333
	-333.334 2066.26 -200
	-333.334 2066.29 -66.6668
	-333.334 2066.29 66.6668
	-333.334 2066.26 200
	-333.333 2066.13 333.333
	-200 2066.26 -333.334
	-200 2066.29 -200
	-200 2066.28 -66.6668
	-200 2066.28 66.6668
	-200 2066.29 200
	-200 2066.26 333.334
	-66.6668 2066.29 -333.334
	-66.6668 2066.28 -200
	-66.6668 2066.32 -66.6668
	-66.6668 2066.32 66.6668
	-66.6668 2066.28 200
	-66.6668 2066.29 333.334
	66.6668 2066.29 -333.334
	66.6668 2066.28 -200
	66.6668 2066.32 -66.6668
	66.6668 2066.32 66.6668
	66.6668 2066.28 200
	66.6668 2066.29 333.334
	200 2066.26 -333.334
	200 2066.29 -200
	200 2066.28 -66.6668
	200 2066.28 66.6668
	200 2066.29 200
	200 2066.26 333.334
	333.333 2066.13 -333.333
	333.334 2066.26 -200
	333.334 2066.29 -66.6668
	333.334 2066.29 66.6668
	333.334 2066.26 200
	333.333 2066.13 333.333
	-333.333 2199.65 -333.333
	-333.333 2199.62 -200
	-333.333 2199.66 -66.6667
	-333.333 2199.66 66.6667
	-333.333 2199.62 200
	-333.333 2199.65 333.333
	-200 2199.62 -333.333
	-200 2199.67 -200
	-200 2199.64 -66.6667
	-200 2199.64 66.6667
	-200 2199.67 200
	-200 2199.62 333.333
	-66.6667 2199.66 -333.333
	-66.6667 2199.64 -200
	-66.6667 2199.67 -66.6667
	-66.6667 2199.67 66.6667
	-66.6667 2199.64 200
	-66.6667 2199.66 333.333
	66.6667 2199.66 -333.333
	66.6667 2199.64 -200
	66.6667 2199.67 -66.6667
	66.6667 2199.67 66.6667
	66.6667 2199.64 200
	66.6667 2199.66 333.333
	200 2199.62 -333.333
	200 2199.67 -200
	200 2199.64 -66.6667
	200 2199.64 66.6667
	200 2199.67 200
	200 2199.62 333.333
	333.333 2199.65 -333.333
	333.333 2199.62 -200
	333.333 2199.66 -66.6667
	333.333 2199.66 66.6667
	333.333 2199.62 200
	333.333 2199.65 333.333
	-333.333 2332.99 -333.333
	-333.333 2333.02 -200
	-333.333 2332.99 -66.6667
	-333.333 2332.99 66.6667
	-333.333 2333.02 200
	-333.333 2332.99 333.333
	-200 2333.02 -333.333
	-200 2333.01 -200
	-200 2332.98 -66.6667
	-200 2332.98 66.6667
	-200 2333.01 200
	-200 2333.02 333.333
	-66.6667 2332.99 -333.333
	-66.6667 2332.98 -200
	-66.6667 2333 -66.6667
	-66.6667 2333 66.6667
	-66.6667 2332.98 200
	-66.6667 2332.99 333.333
	66.6667 2332.99 -333.333
	66.6667 2332.98 -200
	66.6667 2333 -66.6667
	66.6667 2333 66.6667
	66.6667 2332.98 200
	66.6667 2332.99 333.333
	200 2333.02 -333.333
	200 2333.01 -200
	200 2332.98 -66.6667
	200 2332.98 66.6667
	200 2333.01 200
	200 2333.02 333.333
	333.333 2332.99 -333.333
	333.333 2333.02 -200
	333.333 2332.99 -66.6667
	333.333 2332.99 66.6667
	333.333 2333.02 200
	333.333 2332.99 333.333
	-333.333 2466.32 -333.333
	-333.333 2466.35 -200
	-333.333 2466.33 -66.6667
	-333.333 2466.33 66.6667
	-333.333 2466.35 200
	-333.333 2466.32 333.333
	-200 2466.35 -333.333
	-200 2466.36 -200
	-200 2466.34 -66.6667
	-200 2466.34 66.6667
	-200 2466.36 200
	-200 2466.35 333.333
	-66.6667 2466.33 -333.333
	-66.6667 2466.34 -200
	-66.6667 2466.34 -66.6667
	-66.6667 2466.34 66.6667
	-66.6667 2466.34 200
	-66.6667 2466.33 333.333
	66.6667 2466.33 -333.333
	66.6667 2466.34 -200
	66.6667 2466.34 -66.6667
	66.6667 2466.34 66.6667
	66.6667 2466.34 200
	66.6667 2466.33 333.333
	200 2466.35 -333.333
	200 2466.36 -200
	200 2466.34 -66.6667
	200 2466.34 66.6667
	200 2466.36 200
	200 2466.35 333.333
	333.333 2466.32 -333.333
	333.333 2466.35 -200
	333.333 2466.33 -66.6667
	333.333 2466.33 66.6667
	333.333 2466.35 200
	333.333 2466.32 333.333
	-333.333 2599.68 -333.333
	-333.333 2599.69 -200
	-333.333 2599.68 -66.6667
	-333.333 2599.68 66.6667
	-333.333 2599.69 200
	-333.333 2599.68 333.333
	-200 2599.69 -333.333
	-200 2599.7 -200
	-200 2599.68 -66.6667
	-200 2599.68 66.6667
	-200 2599.7 200
	-200 2599.69 333.333
	-66.6667 2599.68 -333.333
	-66.6667 2599.68 -200
	-66.6667 2599.67 -66.6667
	-66.6667 2599.67 66.6667
	-66.6667 2599.68 200
	-66.6667 2599.68 333.333
	66.6667 2599.68 -333.333
	66.6667 2599.68 -200
	66.6667 2599.67 -66.6667
	66.6667 2599.67 66.6667
	66.6667 2599.68 200
	66.6667 2599.68 333.333
	200 2599.69 -333.333
	200 2599.7 -200
	200 2599.68 -66.6667
	200 2599.68 66.6667
	200 2599.7 200
	200 2599.69 333.333
	333.333 2599.68 -333.333
	333.333 2599.69 -200
	333.333 2599.68 -66.6667
	333.333 2599.68 66.6667
	333.333 2599.69 200
	333.333 2599.68 333.333
	-333.333 2733.02 -333.333
	-333.333 2733.03 -200
	-333.333 2733.02 -66.6667
	-333.333 2733.02 66.6667
	-333.333 2733.03 200
	-333.333 2733.02 333.333
	-200 2733.03 -333.333
	-200 2733.03 -200
	-200 2733.01 -66.6667
	-200 2733.01 66.6667
	-200 2733.03 200
	-200 2733.03 333.333
	-66.6667 2733.02 -333.333
	-66.6667 2733.01 -200
	-66.6667 2733.01 -66.6667
	-66.6667 2733.01 66.6667
	-66.6667 2733.01 200
	-66.6667 2733.02 333.333
	66.6667 2733.02 -333.333
	66.6667 2733.01 -200
	66.6667 2733.01 -66.6667
	66.6667 2733.01 66.6667
	66.6667 2733.01 200
	66.6667 2733.02 333.333
	200 2733.03 -333.333
	200 2733.03 -200
	200 2733.01 -66.6667
	200 2733.01 66.6667
	200 2733.03 200
	200 2733.03 333.333
	333.333 2733.02 -333.333
	333.333 2733.03 -200
	333.333 2733.02 -66.6667
	333.333 2733.02 66.6667
	333.333 2733.03 200
	333.333 2733.02 333.333
	-333.333 2866.35 -333.333
	-333.333 2866.36 -200
	-333.333 2866.36 -66.6667
	-333.333 2866.36 66.6667
	-333.333 2866.36 200
	-333.333 2866.35 333.333
	-200 2866.36 -333.333
	-200 2866.35 -200
	-200 2866.35 -66.6667
	-200 2866.35 66.6667
	-200 2866.35 200
	-200 2866.36 333.333
	-66.6667 2866.36 -333.333
	-66.6667 2866.35 -200
	-66.6667 2866.35 -66.6667
	-66.6667 2866.35 66.6667
	-66.6667 2866.35 200
	-66.6667 2866.36 333.333
	66.6667 2866.36 -333.333
	66.6667 2866.35 -200
	66.6667 2866.35 -66.6667
	66.6667 2866.35 66.6667
	66.6667 2866.35 200
	66.6667 2866.36 333.333
	200 2866.36 -333.333
	200 2866.35 -200
	200 2866.35 -66.6667
	200 2866.35 66.6667
	200 2866.35 200
	200 2866.36 333.333
	333.333 2866.35 -333.333
	333.333 2866.36 -200
	333.333 2866.36 -66.6667
	333.333 2866.36 66.6667
	333.333 2866.36 200
	333.333 2866.35 333.333
	-333.333 2999.68 -333.333
	-333.333 2999.7 -200
	-333.333 2999.69 -66.6667
	-333.333 2999.69 66.6667
	-333.333 2999.7 200
	-333.333 2999.68 333.333
	-200 2999.7 -333.333
	-200 2999.68 -200
	-200 2999.68 -66.6667
	-200 2999.68 66.6667
	-200 2999.68 200
	-200 2999.7 333.333
	-66.6667 2999.69 -333.333
	-66.6667 2999.68 -200
	-66.6667 2999.68 -66.6667
	-66.6667 2999.68 66.6667
	-66.6667 2999.68 200
	-66.6667 2999.69 333.333
	66.6667 2999.69 -333.333
	66.6667 2999.68 -200
	66.6667 2999.68 -66.6667
	66.6667 2999.68 66.6667
	66.6667 2999.68 200
	66.6667 2999.69 333.333
	200 2999.7 -333.333
	200 2999.68 -200
	200 2999.68 -66.6667
	200 2999.68 66.6667
	200 2999.68 200
	200 2999.7 333.333
	333.333 2999.68 -333.333
	333.333 2999.7 -200
	333.333 2999.69 -66.6667
	333.333 2999.69 66.6667
	333.333 2999.7 200
	333.333 2999.68 333.333
	-333.333 3133.03 -333.333
	-333.333 3133.03 -200
	-333.333 3133.03 -66.6667
	-333.333 3133.03 66.6667
	-333.333 3133.03 200
	-333.333 3133.03 333.333
	-200 3133.03 -333.333
	-200 3133.02 -200
	-200 3133.01 -66.6667
	-200 3133.01 66.6667
	-200 3133.02 200
	-200 3133.03 333.333
	-66.6667 3133.03 -333.333
	-66.6667 3133.01 -200
	-66.6667 3133.02 -66.6667
	-66.6667 3133.02 66.6667
	-66.6667 3133.01 200
	-66.6667 3133.03 333.333
	66.6667 3133.03 -333.333
	66.6667 3133.01 -200
	66.6667 3133.02 -66.6667
	66.6667 3133.02 66.6667
	66.6667 3133.01 200
	66.6667 3133.03 333.333
	200 3133.03 -333.333
	200 3133.02 -200
	200 3133.01 -66.6667
	200 3133.01 66.6667
	200 3133.02 200
	200 3133.03 333.333
	333.333 3133.03 -333.333
	333.333 3133.03 -200
	333.333 3133.03 -66.6667
	333.333 3133.03 66.6667
	333.333 3133.03 200
	333.333 3133.03 333.333
	-333.333 3266.36 -333.333
	-333.333 3266.36 -200
	-333.333 3266.36 -66.6667
	-333.333 3266.36 66.6667
	-333.333 3266.36 200
	-333.333 3266.36 333.333
	-200 3266.36 -333.333
	-200 3266.35 -200
	-200 3266.35 -66.6667
	-200 3266.35 66.6667
	-200 3266.35 200
	-200 3266.36 333.333
	-66.6667 3266.36 -333.333
	-66.6667 3266.35 -200
	-66.6667 3266.35 -66.6667
	-66.6667 3266.35 66.6667
	-66.6667 3266.35 200
	-66.6667 3266.36 333.333
	66.6667 3266.36 -333.333
	66.6667 3266.35 -200
	66.6667 3266.35 -66.6667
	66.6667 3266.35 66.6667
	66.6667 3266.35 200
	66.6667 3266.36 333.333
	200 3266.36 -333.333
	200 3266.35 -200
	200 3266.35 -66.6667
	200 3266.35 66.6667
	200 3266.35 200
	200 3266.36 333.333
	333.333 3266.36 -333.333
	333.333 3266.36 -200
	333.333 3266.36 -66.6667
	333.333 3266.36 66.6667
	333.333 3266.36 200
	333.333 3266.36 333.333
	-333.333 3399.69 -333.333
	-333.333 3399.7 -200
	-333.333 3399.69 -66.6667
	-333.333 3399.69 66.6667
	-333.333 3399.7 200
	-333.333 3399.69 333.333
	-200 3399.7 -333.333
	-200 3399.68 -200
	-200 3399.68 -66.6667
	-200 3399.68 66.6667
	-200 3399.68 200
	-200 3399.7 333.333
	-66.6667 3399.69 -333.333
	-66.6667 3399.68 -200
	-66.6667 3399.68 -66.6667
	-66.6667 3399.68 66.6667
	-66.6667 3399.68 200
	-66.6667 3399.69 333.333
	66.6667 3399.69 -333.333
	66.6667 3399.68 -200
	66.6667 3399.68 -66.6667
	66.6667 3399.68 66.6667
	66.6667 3399.68 200
	66.6667 3399.69 333.333
	200 3399.7 -333.333
	200 3399.68 -200
	200 3399.68 -66.6667
	200 3399.68 66.6667
	200 3399.68 200
	200 3399.7 333.333
	333.333 3399.69 -333.333
	333.333 3399.7 -200
	333.333 3399.69 -66.6667
	333.333 3399.69 66.6667
	333.333 3399.7 200
	333.333 3399.69 333.333
	-333.333 3533.03 -333.333
	-333.333 3533.03 -200
	-333.333 3533.02 -66.6667
	-333.333 3533.02 66.6667
	-333.333 3533.03 200
	-333.333 3533.03 333.333
	-200 3533.03 -333.333
	-200 3533.02 -200
	-200 3533.02 -66.6667
	-200 3533.02 66.6667
	-200 3533.02 200
	-200 3533.03 333.333
	-66.6667 3533.02 -333.333
	-66.6667 3533.02 -200
	-66.6667 3533.01 -66.6667
	-66.6667 3533.01 66.6667
	-66.6667 3533.02 200
	-66.6667 3533.02 333.333
	66.6667 3533.02 -333.333
	66.6667 3533.02 -200
	66.6667 3533.01 -66.6667
[...]
<PointData  Vectors="vector">
  <DataArray type="Float32" Name="Velocity" NumberOfComponents="3" format="ascii">
 -3.9197e-05 0.0245475 -3.94692e-05
 -1.12298e-05 0.0174693 7.10753e-06
 -6.76111e-06 0.00463889 -1.30451e-06
 -6.7588e-06 0.00463979 1.51528e-06
 -1.1203e-05 0.0174686 -7.07748e-06
 -3.9177e-05 0.0245459 3.94731e-05
 7.3333e-06 0.0174693 -1.18087e-05
 3.19933e-07 -0.00677261 1.38108e-06
 3.78702e-07 0.0103944 8.2549e-07
 3.7765e-07 0.0103941 -7.29836e-07
 2.92924e-07 -0.00677718 -1.34531e-06
 7.32489e-06 0.0174684 1.19063e-05
 -1.4037e-06 0.00463678 -7.00862e-06
 1.15645e-06 0.0103945 2.32174e-07
 -2.56406e-06 0.00597942 -2.60078e-06
 -2.56928e-06 0.00598269 2.698e-06
 1.16795e-06 0.010394 -1.7128e-07
 -1.43542e-06 0.00464121 7.06413e-06
 1.40405e-06 0.00463737 -6.90205e-06
 -1.13969e-06 0.0103945 1.55121e-07
 2.58113e-06 0.00597947 -2.57054e-06
 2.58082e-06 0.00598281 2.63192e-06
 -1.16486e-06 0.0103942 -1.43551e-07
 1.3491e-06 0.00464081 7.0272e-06
 -7.35487e-06 0.0174688 -1.17712e-05
 -3.00123e-07 -0.00677292 1.36578e-06
 -3.63777e-07 0.0103945 9.09045e-07
 -3.68245e-07 0.0103944 -8.16369e-07
 -2.86696e-07 -0.00677815 -1.35276e-06
 -7.25619e-06 0.0174689 1.18471e-05
 3.92885e-05 0.0245468 -3.89523e-05
 1.12498e-05 0.0174688 6.8829e-06
 6.7719e-06 0.0046393 -1.71852e-06
 6.76587e-06 0.0046395 1.75088e-06
 1.12049e-05 0.0174691 -6.96379e-06
 3.91878e-05 0.0245472 3.91645e-05
 -9.1304e-06 0.0144621 -9.22557e-06
 -5.73112e-06 -0.00207948 -9.86049e-06
 2.34466e-06 0.00147112 1.05061e-05
 2.35295e-06 0.00145364 -1.05045e-05
 -5.62577e-06 -0.00207735 1.00186e-05
 -9.07618e-06 0.0144597 9.28034e-06
 -9.89232e-06 -0.00208074 -5.98967e-06
 7.24076e-06 0.000181992 7.66402e-06
 8.72287e-07 -0.00273885 1.53278e-05
 8.71499e-07 -0.00273896 -1.52507e-05
 7.01317e-06 0.00018916 -7.59254e-06
 -9.94873e-06 -0.00207774 6.04535e-06
 1.06096e-05 0.00151182 2.20433e-06
 1.52314e-05 -0.00273886 7.50635e-07
 1.69546e-05 -0.000281867 1.71238e-05
 1.70528e-05 -0.000283534 -1.70396e-05
 1.51546e-05 -0.00273928 -6.91457e-07
 1.05558e-05 0.00140624 -2.15385e-06
 -1.07466e-05 0.00147806 1.63332e-06
 -1.51106e-05 -0.00273927 7.73367e-07
 -1.6946e-05 -0.000282048 1.74012e-05
 -1.71067e-05 -0.000283382 -1.73243e-05
 -1.51318e-05 -0.00273939 -7.13217e-07
 -1.06461e-05 0.00140558 -1.58693e-06
 9.95195e-06 -0.00208043 -5.87459e-06
 -7.10009e-06 0.00018377 8.11906e-06
 -8.57113e-07 -0.00273949 1.52746e-05
 -7.92958e-07 -0.00273939 -1.52395e-05
 -7.00318e-06 0.000190021 -8.12221e-06
 9.90923e-06 -0.00207937 6.01459e-06
 9.27207e-06 0.014461 -9.51949e-06
 5.52356e-06 -0.0020802 -9.85998e-06
 -2.32469e-06 0.00146953 1.16792e-05
 -2.34386e-06 0.00146385 -1.16172e-05
 5.61615e-06 -0.00207836 9.87239e-06
 9.21765e-06 0.0144609 9.60477e-06
 -5.45584e-06 -0.0107492 -5.39372e-06
 9.6738e-06 0.00371803 -1.16576e-06
 -1.12154e-05 -0.0029708 5.72736e-06
 -1.12172e-05 -0.00296964 -5.71254e-06
 9.72629e-06 0.00389322 1.29348e-06
 -5.40268e-06 -0.0107452 5.44943e-06
 -2.3384e-06 0.00370407 9.47127e-06
 -8.20569e-06 0.00217968 -8.45447e-06
 1.14684e-05 -0.00286726 -7.29795e-06
 1.14638e-05 -0.00286745 7.36818e-06
 -8.35776e-06 0.00215148 8.51793e-06
 -2.04428e-06 0.00389219 -9.41141e-06
 6.99402e-06 -0.00292133 -1.07259e-05
 -7.10664e-06 -0.00286693 1.06233e-05
 7.72037e-06 -0.00270841 7.74191e-06
 7.71862e-06 -0.00269206 -7.65932e-06
 -7.27663e-06 -0.00286759 -1.05636e-05
 6.71912e-06 -0.00297261 1.07723e-05
 -7.22152e-06 -0.00297229 -9.99031e-06
 7.11171e-06 -0.00286666 9.93201e-06
 -7.71801e-06 -0.00270933 7.77764e-06
 -7.72173e-06 -0.00269308 -7.70247e-06
 7.27821e-06 -0.00286733 -9.88102e-06
 -6.66843e-06 -0.00296849 1.00479e-05
 2.67769e-06 0.00370229 9.49852e-06
 8.21715e-06 0.00217653 -8.51314e-06
 -1.14636e-05 -0.00286664 -7.42413e-06
 -1.14622e-05 -0.00286687 7.41951e-06
 8.36394e-06 0.00215755 8.64219e-06
 1.99632e-06 0.0037315 -9.44526e-06
 5.38228e-06 -0.0107315 -5.26502e-06
 -9.65919e-06 0.00370477 -7.47434e-07
 1.12337e-05 -0.00297534 5.4788e-06
 1.12393e-05 -0.00297839 -4.26957e-06
 -9.71799e-06 0.00372497 -3.0732e-07
 5.41148e-06 -0.0107431 5.28052e-06
 -5.70617e-06 -0.00541121 -5.72408e-06
 -7.09582e-06 -0.0023771 -1.19565e-05
 -6.08712e-06 -0.00491051 -5.31298e-06
 -6.13657e-06 -0.00488278 5.13252e-06
 -7.11693e-06 -0.00255346 1.22093e-05
 -5.67421e-06 -0.00540621 5.82548e-06
 -1.22572e-05 -0.00236132 -7.22978e-06
 3.22469e-07 0.00258112 1.03653e-06
 7.44534e-06 -0.00606327 3.61606e-06
 7.47633e-06 -0.00606715 -3.25848e-06
 5.6358e-07 0.0025846 -1.22541e-06
 -1.24653e-05 -0.00255288 7.23502e-06
 -4.89959e-06 -0.00497025 -6.17464e-06
 4.32614e-06 -0.00606053 7.37428e-06
 -7.63487e-06 -0.00101333 -7.24939e-06
 -7.65229e-06 -0.00104341 7.30852e-06
 4.11041e-06 -0.00606794 -7.31045e-06
 -4.77011e-06 -0.00470775 6.22658e-06
 5.05795e-06 -0.00491204 -6.13392e-06
 -4.61899e-06 -0.00605936 7.50882e-06
 7.58243e-06 -0.00101216 -5.79693e-06
 7.61335e-06 -0.00104222 5.85024e-06
 -4.41895e-06 -0.006066 -7.44922e-06
 4.77569e-06 -0.00471054 6.1968e-06
 1.21223e-05 -0.00236127 -7.21328e-06
 -7.08335e-08 0.00258044 -8.87653e-07
 -7.40839e-06 -0.0060601 5.58388e-06
 -7.45865e-06 -0.00606321 -5.52299e-06
 -3.00585e-07 0.00258574 9.48206e-07
 1.24587e-05 -0.00239344 7.26786e-06
 5.67407e-06 -0.00540283 -6.15189e-06
 7.12676e-06 -0.00236413 -1.20569e-05
 6.0921e-06 -0.00489548 -5.64109e-06
 6.14828e-06 -0.00487579 5.72034e-06
 7.15449e-06 -0.00238755 1.20017e-05
 5.66888e-06 -0.00540551 6.30372e-06
 -1.49427e-05 -0.00521753 -1.505e-05
 -7.8997e-06 -0.00793062 -1.7893e-06
 -7.83042e-06 0.00231871 -5.85134e-06
 -7.78506e-06 0.00230326 6.10129e-06
 -7.87968e-06 -0.00792078 1.7126e-06
 -1.44379e-05 -0.00524424 1.50021e-05
 -1.68019e-06 -0.0079302 -7.8948e-06
 2.18499e-06 -0.00262593 2.10855e-06
 1.05639e-06 0.00262392 1.04316e-05
 1.01886e-06 0.00262441 -1.03525e-05
 2.13652e-06 -0.00263647 -2.0746e-06
 -2.13219e-06 -0.00792117 7.91263e-06
 -6.15122e-06 0.00233716 -7.87561e-06
 1.04663e-05 0.0026221 1.02925e-06
 1.21136e-05 -0.00548943 1.21205e-05
 1.21254e-05 -0.00543479 -1.21018e-05
 1.04786e-05 0.00262491 -9.78433e-07
 -6.90077e-06 0.00221116 7.94333e-06
 6.0063e-06 0.00232328 -7.92045e-06
 -1.04808e-05 0.00261977 1.02742e-06
 -1.21117e-05 -0.0054896 1.21727e-05
 -1.21329e-05 -0.00543487 -1.20666e-05
 -1.0498e-05 0.00262439 -9.94501e-07
 6.84959e-06 0.00221343 7.92566e-06
 1.71459e-06 -0.00793243 -8.00777e-06
 -2.20365e-06 -0.00262566 2.15468e-06
 -1.03025e-06 0.00261982 1.05275e-05
 -1.03944e-06 0.00262204 -1.04541e-05
 -2.15374e-06 -0.00263386 -2.12134e-06
 2.16378e-06 -0.00793203 8.05249e-06
 1.49866e-05 -0.00522843 -1.43511e-05
 7.87095e-06 -0.00793259 -2.32138e-06
 7.74653e-06 0.0023149 -6.66706e-06
 7.76409e-06 0.0023034 6.93856e-06
 7.87472e-06 -0.0079343 2.30447e-06
 1.44233e-05 -0.00524341 1.42548e-05
 -1.16221e-05 0.00375111 -1.16402e-05
 -1.40686e-05 0.00645997 -6.14604e-07
 -1.21526e-05 0.00281314 -5.67389e-06
 -1.21538e-05 0.00281362 5.6944e-06
 -1.40728e-05 0.00648301 6.38405e-07
 -1.15935e-05 0.00375982 1.16533e-05
 -6.79502e-07 0.00646071 -1.40562e-05
 -1.03254e-05 0.004707 -1.03037e-05
 -3.83253e-06 -0.0162042 -1.53971e-06
 -3.8297e-06 -0.0162048 1.56309e-06
 -1.02986e-05 0.00472962 1.03224e-05
 -6.67972e-07 0.00648271 1.40819e-05
 -5.66672e-06 0.00281886 -1.22203e-05
 -1.53288e-06 -0.0162035 -3.91607e-06
 -8.7323e-06 -0.0118802 -8.72684e-06
 -8.74114e-06 -0.0118945 8.75322e-06
 -1.49765e-06 -0.0162064 3.94512e-06
 -5.67252e-06 0.00283369 1.22447e-05
 5.62397e-06 0.00281219 -1.25258e-05
 1.49238e-06 -0.0162045 -3.34213e-06
 8.70094e-06 -0.0118802 -8.78861e-06
 8.71388e-06 -0.0118945 8.57996e-06
 1.46257e-06 -0.0162075 4.13653e-06
 5.6465e-06 0.00283313 1.2033e-05
 6.64058e-07 0.0064631 -1.4059e-05
 1.02895e-05 0.00470733 -1.02891e-05
 3.79576e-06 -0.0162058 -1.49981e-06
 3.79665e-06 -0.0162065 1.53478e-06
 1.02785e-05 0.00472337 1.03212e-05
 6.39718e-07 0.00645829 1.4098e-05
 1.15545e-05 0.00376127 -1.16332e-05
 1.40308e-05 0.00646251 -7.10665e-07
 1.21189e-05 0.00281277 -5.60153e-06
 1.2125e-05 0.00281239 5.64057e-06
 1.40516e-05 0.00646202 7.49392e-07
 1.15839e-05 0.00376029 1.16755e-05
 -3.65523e-06 -0.000822871 -3.67199e-06
 -6.26081e-06 -0.00923927 7.43354e-07
 -5.05799e-06 -0.00194343 1.89063e-06
 -5.08843e-06 -0.0019436 -1.75047e-06
 -6.24214e-06 -0.00928194 -9.17885e-07
 -3.87018e-06 -0.000773225 3.66759e-06
 1.25866e-06 -0.00923829 -6.26063e-06
 -1.18544e-05 -0.0112565 -1.17752e-05
 -8.60626e-06 -0.00770171 -4.77365e-06
 -8.54455e-06 -0.00769967 4.64481e-06
 -1.18929e-05 -0.0112551 1.18865e-05
 -1.56686e-06 -0.00928179 6.25473e-06
 1.33219e-06 -0.00192954 -5.1066e-06
 -4.80122e-06 -0.00769989 -8.62019e-06
 9.77986e-06 4.57406e-05 9.70202e-06
 9.75545e-06 0.000184934 -9.69202e-06
 -4.65831e-06 -0.00770006 8.61973e-06
 6.25139e-06 -0.00193216 5.09071e-06
 -1.43102e-06 -0.00194067 -5.10459e-06
 4.74991e-06 -0.00769444 -8.56871e-06
 -9.82447e-06 4.58965e-05 9.69432e-06
 -9.79711e-06 0.00018506 -9.6901e-06
 4.62542e-06 -0.00769808 8.56757e-06
 -6.22791e-06 -0.0019317 5.11269e-06
 -1.27496e-06 -0.00923012 -6.27048e-06
 1.18055e-05 -0.0112578 -1.17935e-05
 8.56311e-06 -0.00769529 -4.76862e-06
 8.50814e-06 -0.0076968 4.66238e-06
 1.18643e-05 -0.0112553 1.19241e-05
 1.48358e-06 -0.00923948 6.27608e-06
 3.60596e-06 -0.000752308 -3.67213e-06
 6.21451e-06 -0.00923019 1.35483e-06
 5.01708e-06 -0.00194049 1.31612e-06
 5.05551e-06 -0.00194088 -1.25217e-06
 6.20989e-06 -0.00923098 -1.37687e-06
 3.85233e-06 -0.00077667 3.67917e-06
 7.21693e-06 -0.00672244 7.15809e-06
 6.16121e-06 0.0123193 7.73389e-06
 6.11981e-06 0.000588636 -2.78598e-06
 6.12424e-06 0.000589741 2.73113e-06
 6.17522e-06 0.0123642 -7.77374e-06
 7.27563e-06 -0.006753 -7.22773e-06
 7.68598e-06 0.0123193 6.14942e-06
 7.28041e-06 0.0034605 7.27548e-06
 7.17875e-06 -0.00566122 -4.85956e-06
 7.1837e-06 -0.00566096 4.81097e-06
 7.29481e-06 0.00346044 -7.32221e-06
 7.67311e-06 0.0123642 -6.19884e-06
 -2.78775e-06 0.000575551 6.09616e-06
 -4.86181e-06 -0.00566244 7.18073e-06
 -4.79944e-06 -0.00357097 -4.81918e-06
 -4.79584e-06 -0.00372122 4.77765e-06
 -4.83757e-06 -0.00566121 -7.22274e-06
 -2.76704e-06 0.000575981 -6.13646e-06
 2.73412e-06 0.000587573 6.10143e-06
 4.81527e-06 -0.00566499 7.18e-06
 4.76036e-06 -0.00357094 -4.80065e-06
 4.76378e-06 -0.00372112 4.76615e-06
 4.81209e-06 -0.00566243 -7.21463e-06
 2.74773e-06 0.000575482 -6.13457e-06
 -7.74155e-06 0.0123219 6.15496e-06
 -7.32779e-06 0.0034648 7.28346e-06
 -7.21865e-06 -0.00566563 -4.85423e-06
 -7.21638e-06 -0.00566465 4.82685e-06
 -7.31647e-06 0.00346126 -7.31102e-06
 -7.69933e-06 0.012319 -6.18023e-06
 -7.27195e-06 -0.00678558 7.20713e-06
 -6.20918e-06 0.0123215 7.70766e-06
 -6.16057e-06 0.000589802 -2.76965e-06
 -6.15785e-06 0.000589813 2.74984e-06
 -6.20597e-06 0.0123227 -7.70607e-06
 -7.28909e-06 -0.00674833 -7.24713e-06
 7.36109e-06 0.00960441 7.33142e-06
 3.34007e-06 -0.000270108 4.94588e-06
 3.09375e-06 -0.0022298 -3.20711e-06
 3.09906e-06 -0.00222877 3.1057e-06
 3.3591e-06 -0.000240408 -5.04796e-06
 7.38635e-06 0.00961236 -7.43241e-06
 4.97638e-06 -0.000269071 3.31513e-06
 -3.9173e-06 0.000122267 -3.93933e-06
 -4.45542e-06 0.00409083 6.18758e-06
 -4.43234e-06 0.00408868 -6.29638e-06
 -3.83447e-06 0.000111516 3.85526e-06
 4.99986e-06 -0.000240854 -3.40347e-06
 -3.21011e-06 -0.00223526 3.05238e-06
 6.23227e-06 0.00409303 -4.53758e-06
 5.5347e-06 -0.0101448 5.56095e-06
 5.51992e-06 -0.0101354 -5.64701e-06
 6.1837e-06 0.00408842 4.45155e-06
 -3.13911e-06 -0.00224512 -3.13756e-06
 3.15339e-06 -0.00223552 3.05534e-06
 -6.26208e-06 0.00409516 -4.53465e-06
 -5.5441e-06 -0.0101446 5.56484e-06
 -5.53616e-06 -0.0101352 -5.64263e-06
 -6.21354e-06 0.00409058 4.45617e-06
 3.14128e-06 -0.00224611 -3.13244e-06
 -5.01377e-06 -0.00026927 3.32082e-06
 3.87898e-06 0.00011776 -3.93945e-06
 4.41363e-06 0.00409487 6.2111e-06
 4.41312e-06 0.00409308 -6.27345e-06
 3.83731e-06 0.000111549 3.86247e-06
 -5.00898e-06 -0.000272279 -3.39103e-06
 -7.39455e-06 0.00961915 7.34692e-06
 -3.37447e-06 -0.00026975 4.96335e-06
 -3.12047e-06 -0.0022359 -3.19181e-06
 -3.11774e-06 -0.00223588 3.12928e-06
 -3.36343e-06 -0.000272436 -5.02615e-06
 -7.38934e-06 0.00961176 -7.40787e-06
 3.99132e-06 -0.00794493 3.93097e-06
 3.72959e-06 -0.000235676 -4.80908e-06
 3.48863e-06 -0.00125018 -1.71623e-06
 3.49348e-06 -0.0012475 1.57302e-06
 3.74411e-06 -0.000219484 4.66768e-06
 4.01564e-06 -0.00790962 -4.07431e-06
 -4.75899e-06 -0.000236907 3.66822e-06
 -5.83361e-06 0.00100767 -5.91064e-06
 -4.66265e-06 0.00479529 -2.71746e-06
 -4.64171e-06 0.0047989 2.58385e-06
 -5.81521e-06 0.000996179 5.77686e-06
 -4.74575e-06 -0.000219691 -3.80297e-06
 -1.65124e-06 -0.00126837 3.42623e-06
 -2.65322e-06 0.00479236 -4.72393e-06
 -2.19363e-06 0.00789835 -2.24854e-06
 -2.18825e-06 0.00789221 2.12305e-06
 -2.63109e-06 0.00480018 4.59859e-06
 -1.62378e-06 -0.00125422 -3.55235e-06
 1.63268e-06 -0.00125459 3.42986e-06
 2.64236e-06 0.00479095 -4.72084e-06
 2.18987e-06 0.00789845 -2.24499e-06
 2.19243e-06 0.00789236 2.12735e-06
 2.64388e-06 0.00479781 4.60359e-06
 1.64407e-06 -0.00125519 -3.54775e-06
 4.7389e-06 -0.000251335 3.67914e-06
 5.8221e-06 0.00100992 -5.90041e-06
 4.66035e-06 0.00479333 -2.70606e-06
 4.64736e-06 0.00479616 2.59625e-06
 5.82776e-06 0.00100176 5.79067e-06
 4.76562e-06 -0.000234396 -3.7892e-06
 -4.01192e-06 -0.00789249 3.94911e-06
 -3.74172e-06 -0.00025116 -4.79538e-06
 -3.4925e-06 -0.0012563 -1.69299e-06
 -3.48915e-06 -0.001255 1.58903e-06
 -3.73169e-06 -0.000250259 4.69397e-06
 -3.99552e-06 -0.00791167 -4.05168e-06
 4.5694e-06 0.00313281 4.48069e-06
 3.8933e-06 0.00373811 2.13959e-06
 3.66091e-06 0.00319279 2.07076e-06
 3.66532e-06 0.0031884 -2.23955e-06
 3.90636e-06 0.00371817 -2.3099e-06
 4.59136e-06 0.00310755 -4.65236e-06
 2.22614e-06 0.00373865 3.80461e-06
 2.71698e-06 0.00575855 2.62833e-06
 2.61122e-06 -0.00112374 2.03903e-06
 2.61499e-06 -0.0011257 -2.19961e-06
 2.72903e-06 0.00577726 -2.78975e-06
 2.24932e-06 0.00371826 -3.96736e-06
 2.15598e-06 0.00320112 3.5717e-06
 2.12712e-06 -0.00112151 2.52255e-06
 -1.49314e-06 -0.00526125 -1.58296e-06
 -1.4897e-06 -0.00528423 1.43085e-06
 2.13814e-06 -0.00112671 -2.67611e-06
 2.17058e-06 0.00319994 -3.72632e-06
 -2.14752e-06 0.00320142 3.57525e-06
 -2.11073e-06 -0.00111991 2.52607e-06
 1.51657e-06 -0.00526028 -1.5789e-06
 1.52036e-06 -0.00528443 1.43414e-06
 -2.09982e-06 -0.00112469 -2.67222e-06
 -2.1252e-06 0.00320262 -3.72225e-06
 -2.22245e-06 0.0037476 3.81527e-06
 -2.70077e-06 0.00575761 2.63901e-06
 -2.58755e-06 -0.00112186 2.04991e-06
 -2.58388e-06 -0.00112378 -2.1885e-06
 -2.69056e-06 0.0057709 -2.77814e-06
 -2.20355e-06 0.00373804 -3.95517e-06
 -4.55499e-06 0.00309998 4.49849e-06
 -3.87744e-06 0.00374786 2.15472e-06
 -3.63724e-06 0.00320118 2.0852e-06
 -3.63399e-06 0.00319864 -2.2175e-06
 -3.86768e-06 0.00374756 -2.28812e-06
 -4.545e-06 0.00311231 -4.63238e-06
 2.92898e-06 0.00378872 2.85651e-06
 4.42675e-06 -0.000637087 2.18297e-06
 4.13681e-06 -0.00387641 -1.84086e-06
 4.14046e-06 -0.0038793 1.66297e-06
 4.43795e-06 -0.000605015 -2.433e-06
 2.84585e-06 0.00381573 -2.97302e-06
 2.32832e-06 -0.000637467 4.31804e-06
 1.45561e-06 -0.00506956 1.34673e-06
 -9.28475e-07 0.00135452 -1.73041e-06
 -9.26845e-07 0.00135656 1.55721e-06
 1.46938e-06 -0.00506771 -1.51803e-06
 2.44218e-06 -0.000603842 -4.49408e-06
 -1.73293e-06 -0.00385793 4.02848e-06
 -1.62323e-06 0.00135349 -1.03706e-06
 1.26055e-06 0.00372608 1.17133e-06
 1.26705e-06 0.0037177 -1.33502e-06
 -1.62063e-06 0.00135893 8.69747e-07
 -1.72125e-06 -0.00385965 -4.1964e-06
 1.76903e-06 -0.00387513 4.03156e-06
 1.66574e-06 0.00135573 -1.03392e-06
 -1.21184e-06 0.00372464 1.18794e-06
 -1.21202e-06 0.00371658 -1.34803e-06
 1.68133e-06 0.00135845 8.75539e-07
 1.79098e-06 -0.0038586 -4.19298e-06
 -2.37196e-06 -0.000597758 4.32742e-06
 -1.4119e-06 -0.00507027 1.35236e-06
 9.77819e-07 0.00136042 -1.71893e-06
 9.8234e-07 0.00136084 1.56408e-06
 -1.40648e-06 -0.00506857 -1.50437e-06
 -2.3752e-06 -0.000632202 -4.48401e-06
 -2.8103e-06 0.00381515 2.89033e-06
 -4.38422e-06 -0.000598763 2.18031e-06
 -4.08768e-06 -0.00387193 -1.82155e-06
 -4.0848e-06 -0.00387222 1.67476e-06
 -4.37573e-06 -0.000594896 -2.391e-06
 -2.77676e-06 0.00381437 -2.98258e-06
 -9.69058e-07 -0.000273295 -1.08207e-06
 -2.09064e-07 -0.00459713 1.14075e-06
 3.4641e-07 0.000598196 2.21654e-06
 3.48423e-07 0.000602342 -2.39866e-06
 -2.01654e-07 -0.00463165 -1.3011e-06
 -9.54874e-07 -0.000310471 9.09964e-07
 1.25459e-06 -0.0045966 -3.16745e-07
 1.2978e-06 0.00305532 1.18284e-06
 7.53807e-07 0.00444667 1.63083e-06
 7.55818e-07 0.00444778 -1.79553e-06
 1.30374e-06 0.00305498 -1.34445e-06
 1.26838e-06 -0.0046328 1.47915e-07
 2.33357e-06 0.000624743 2.45757e-07
 1.74782e-06 0.00444656 6.2386e-07
 4.60844e-06 -0.00237931 4.49392e-06
 4.61168e-06 -0.0023497 -4.67767e-06
 1.75465e-06 0.00444734 -8.32442e-07
 2.34883e-06 0.000580731 -3.31658e-07
 -2.28167e-06 0.000594677 2.41315e-07
 -1.68219e-06 0.00444606 6.37673e-07
 -4.54287e-06 -0.00237856 4.49773e-06
 -4.54178e-06 -0.00234825 -4.65392e-06
 -1.67378e-06 0.00444646 -7.66422e-07
 -2.27034e-06 0.000579947 -4.20366e-07
 -1.19268e-06 -0.00463745 -3.16296e-07
 -1.23079e-06 0.00305864 1.19105e-06
 -6.62761e-07 0.00444516 1.64054e-06
 -6.59911e-07 0.00444569 -1.7869e-06
 -1.22378e-06 0.00305536 -1.33764e-06
 -1.18042e-06 -0.00460208 1.5695e-07
 1.03231e-06 -0.000310729 -1.07008e-06
 2.65495e-07 -0.00463778 1.15335e-06
 -3.00719e-07 0.000593997 2.23371e-06
 -2.97652e-07 0.000595177 -2.38887e-06
 2.72769e-07 -0.00464201 -1.29175e-06
 1.03664e-06 -0.000308393 9.20125e-07
 -1.14797e-06 0.00210732 -1.25785e-06
 1.93963e-06 -0.00171156 2.30506e-06
 1.2793e-06 0.00220896 -3.10211e-06
 1.28076e-06 0.00220781 2.96226e-06
 1.94289e-06 -0.00170997 -2.4458e-06
 -1.1403e-06 0.00205267 1.1147e-06
 2.40817e-06 -0.00171003 1.83505e-06
 1.91018e-06 0.00420495 1.8108e-06
 1.89735e-06 0.00453998 1.89063e-06
 1.89869e-06 0.00453643 -2.02597e-06
 1.91654e-06 0.00419931 -1.94758e-06
 2.4151e-06 -0.00171013 -1.9734e-06
 -2.99584e-06 0.00216544 1.1765e-06
 2.00104e-06 0.00454097 1.78396e-06
 2.85278e-06 -0.00769244 2.75654e-06
 2.85437e-06 -0.00769253 -2.88853e-06
 2.00466e-06 0.00453532 -1.91677e-06
 -2.98987e-06 0.00222718 -1.31106e-06
 3.06694e-06 0.00221055 1.1777e-06
 -1.92717e-06 0.00453805 1.78576e-06
 -2.77796e-06 -0.0076924 2.75773e-06
 -2.77705e-06 -0.00769238 -2.88639e-06
 -1.91964e-06 0.00453581 -1.91599e-06
 3.07512e-06 0.00222726 -1.30949e-06
 -2.33729e-06 -0.00171328 1.83746e-06
 -1.84034e-06 0.00420497 1.81635e-06
 -1.82149e-06 0.00453597 1.89558e-06
 -1.81988e-06 0.00453537 -2.02296e-06
 -1.8387e-06 0.0042028 -1.94384e-06
 -2.32963e-06 -0.00171396 -1.96702e-06
 1.22034e-06 0.0020259 -1.24984e-06
 -1.86301e-06 -0.00171299 2.31143e-06
 -1.20228e-06 0.00221254 -3.09556e-06
 -1.20049e-06 0.00221196 2.96986e-06
 -1.8593e-06 -0.00171541 -2.43717e-06
 1.22724e-06 0.00205648 1.12069e-06
 4.2752e-06 -0.000219358 4.18863e-06
 2.45778e-06 -6.60272e-05 2.42481e-06
 2.44248e-06 -0.00156444 -5.54885e-07
 2.4429e-06 -0.0015679 4.57148e-07
 2.45993e-06 -5.9808e-05 -2.52313e-06
 4.27768e-06 -0.000174817 -4.28809e-06
 2.51063e-06 -6.64727e-05 2.37359e-06
 4.29098e-06 -0.000514299 4.20461e-06
 4.2334e-06 0.00038162 -5.69039e-07
 4.23401e-06 0.000379676 4.73414e-07
 4.29191e-06 -0.000514657 -4.30069e-06
 2.51319e-06 -6.01821e-05 -2.47099e-06
 -4.71054e-07 -0.00156547 2.3575e-06
 -4.8448e-07 0.000389345 4.14875e-06
 -6.8033e-07 0.00173373 -7.64258e-07
 -6.79793e-07 0.00173417 6.70235e-07
 -4.82885e-07 0.000380328 -4.24338e-06
 -4.684e-07 -0.00157373 -2.45307e-06
 5.44563e-07 -0.00156746 2.35794e-06
 5.5821e-07 0.000392024 4.14932e-06
 7.5466e-07 0.00173365 -7.63759e-07
 7.5519e-07 0.00173393 6.70787e-07
 5.59806e-07 0.000382038 -4.24292e-06
 5.47172e-07 -0.00157365 -2.45237e-06
 -2.43677e-06 -7.51503e-05 2.37553e-06
 -4.21512e-06 -0.000514769 4.20569e-06
 -4.15877e-06 0.000392893 -5.67452e-07
 -4.15827e-06 0.000390345 4.74986e-07
 -4.21336e-06 -0.000514818 -4.29964e-06