MercuryDPM 0.14 name oneDimChain revision 6406 repository https://svn.mercurydpm.org/SourceCode/Branches/OomphlibCouplingExplicit
dataFile    fileType ONE_FILE saveCount 92 counter 103 lastSavedTimeStep 9332
fStatFile   fileType ONE_FILE saveCount 92 counter 103 lastSavedTimeStep 9332
eneFile     fileType ONE_FILE saveCount 92 counter 103 lastSavedTimeStep 9332
restartFile fileType ONE_FILE saveCount 92 counter 103 lastSavedTimeStep 9332
statFile    fileType ONE_FILE saveCount 92 counter 0
interactionFile fileType NO_FILE saveCount 0 counter 0
xMin -500 xMax 500 yMin -5000 yMax 5000 zMin -500 zMax 500
timeStep 0.0107162522263564 time 100.004065776375 ntimeSteps 9332 timeMax 100
systemDimensions 3 particleDimensions 3 gravity 0 0 -0 writeVTK 1 MULTIPLE_FILES NO_FILE 103 103 0 0 random  0 1103515245 12345 1073741824 607 273 784607267
Species 1
LinearViscoelasticReversibleAdhesiveSpecies id 0 density 2500 stiffness 13333333333.3333 dissipation -0 adhesionForceMax 0 adhesionStiffness 13333333333.3333
Walls 0
Boundaries 0
Particles 3240
BaseParticle id 0 indSpecies 0 position -333.333638618879 2066.34945941745 -333.333638759614 orientation 1 0 0 0 velocity -1.33867983791784e-06 0.0882835700178815 -1.39544594218845e-06 angularVelocity 0 0 0 force -7015.27079749531 72709694.84963 -7248.0101130854 torque 0 0 0 radius 66.6666666666667 invMass 3.22288759761088e-10
BaseParticle id 1 indSpecies 0 position -333.333718541577 2066.36754971042 -200.000010099939 orientation 1 0 0 0 velocity 2.60560899339713e-05 0.104194227123003 2.04419382208988e-05 angularVelocity 0 0 0 force -6676.99441077223 72460154.2422424 -4748.85327339264 torque 0 0 0 radius 66.6666666666667 invMass 3.22288759761088e-10
BaseParticle id 2 indSpecies 0 position -333.333633030233 2066.39905573728 -66.666676598624 orientation 1 0 0 0 velocity 3.02581809967874e-05 0.0820537312890188 1.63907850687029e-05 angularVelocity 0 0 0 force -6868.74229849018 -131285511.175611 -2083.88162421248 torque 0 0 0 radius 66.6666666666667 invMass 3.22288759761088e-10
BaseParticle id 3 indSpecies 0 position -333.333632830252 2066.39999387183 66.6666776958326 orientation 1 0 0 0 velocity 3.03105546968408e-05 0.0796910988957348 -1.66928812370995e-05 angularVelocity 0 0 0 force -6847.28635669491 -140166334.891976 598.35125500703 torque 0 0 0 radius 66.6666666666667 invMass 3.22288759761088e-10
BaseParticle id 4 indSpecies 0 position -333.333717468814 2066.36739159694 200.000014488453 orientation 1 0 0 0 velocity 2.62466308925554e-05 0.104168014764944 -2.0335821129918e-05 angularVelocity 0 0 0 force -6567.24750754824 72478303.4831118 3238.12934933098 torque 0 0 0 radius 66.6666666666667 invMass 3.22288759761088e-10
BaseParticle id 5 indSpecies 0 position -333.333637642031 2066.34912946464 333.333642682426 orientation 1 0 0 0 velocity -1.04383055770403e-06 0.0882008396009528 1.16000353679534e-06 angularVelocity 0 0 0 force -6826.4149552462 72741583.0990534 5690.20965211719 torque 0 0 0 radius 66.6666666666667 invMass 3.22288759761088e-10
BaseParticle id 6 indSpecies 0 position -200.000016810813 2066.36757566266 -333.333727946978 orientation 1 0 0 0 velocity 1.95437967013861e-05 0.104198528171708 2.57240782345319e-05 angularVelocity 0 0 0 force -4568.71494859577 72466595.5684261 -6845.15637958466 torque 0 0 0 radius 66.6666666666667 invMass 3.22288759761088e-10
BaseParticle id 7 indSpecies 0 position -200.000050171614 2066.34460763563 -200.000037791043 orientation 1 0 0 0 velocity 2.30708426802353e-05 0.0635147410305515 6.44692893586844e-06 angularVelocity 0 0 0 force -4363.42286764935 -23763108.6656205 -4484.33764523048 torque 0 0 0 radius 66.6666666666667 invMass 3.22288759761088e-10
BaseParticle id 8 indSpecies 0 position -200.000088643239 2066.35721522243 -66.6667010558299 orientation 1 0 0 0 velocity 2.2898291499945e-05 0.0472955282100847 2.63223726364232e-05 angularVelocity 0 0 0 force -4213.45363346625 72119424.6838234 -1977.38786824694 torque 0 0 0 radius 66.6666666666667 invMass 3.22288759761088e-10
BaseParticle id 9 indSpecies 0 position -200.000088531394 2066.35717517781 66.6667034735726 orientation 1 0 0 0 velocity 2.29462991964142e-05 0.0472887307899183 -2.59383193521484e-05 angularVelocity 0 0 0 force -4179.09477904037 72124135.663638 602.531807097819 torque 0 0 0 radius 66.6666666666667 invMass 3.22288759761088e-10
BaseParticle id 10 indSpecies 0 position -200.00005034384 2066.34475420145 200.000041015793 orientation 1 0 0 0 velocity 2.31930745786587e-05 0.0638259646933148 -6.92655127213195e-06 angularVelocity 0 0 0 force -4258.34698217737 -27973242.0130332 3091.94051390964 torque 0 0 0 radius 66.6666666666667 invMass 3.22288759761088e-10
BaseParticle id 11 indSpecies 0 position -200.00001828224 2066.36731826574 333.333731727861 orientation 1 0 0 0 velocity 1.9614946209199e-05 0.104153903227597 -2.57607846897307e-05 angularVelocity 0 0 0 force -4385.86269489185 72492309.8897598 5405.87997014914 torque 0 0 0 radius 66.6666666666667 invMass 3.22288759761088e-10
BaseParticle id 12 indSpecies 0 position -66.6666709987567 2066.39609848544 -333.33363471186 orientation 1 0 0 0 velocity 1.71941181276259e-05 0.0857590961049992 3.02994677366993e-05 angularVelocity 0 0 0 force -1933.33244568389 -87830113.7567099 -6903.96533409892 torque 0 0 0 radius 66.6666666666667 invMass 3.22288759761088e-10
BaseParticle id 13 indSpecies 0 position -66.6667119665913 2066.35723706984 -200.000089403574 orientation 1 0 0 0 velocity 8.70171500658925e-06 0.0472936538301456 2.29459828627497e-05 angularVelocity 0 0 0 force -1863.63588608711 72126838.5820185 -4305.48682938375 torque 0 0 0 radius 66.6666666666667 invMass 3.22288759761088e-10
BaseParticle id 14 indSpecies 0 position -66.6667569248425 2066.33412706709 -66.6667567856325 orientation 1 0 0 0 velocity 4.92606704147223e-06 0.0635395653109121 4.98698344739587e-06 angularVelocity 0 0 0 force -1802.81361835644 72004216.5104468 -1894.58954113264 torque 0 0 0 radius 66.6666666666667 invMass 3.22288759761088e-10
BaseParticle id 15 indSpecies 0 position -66.6667569331246 2066.33385251646 66.6667606144985 orientation 1 0 0 0 velocity 4.96600150280731e-06 0.0636068339277066 -4.90347124417978e-06 angularVelocity 0 0 0 force -1768.53327860804 72007909.2279198 608.570546022891 torque 0 0 0 radius 66.6666666666667 invMass 3.22288759761088e-10
BaseParticle id 16 indSpecies 0 position -66.6667113546991 2066.35712449796 200.00009230858 orientation 1 0 0 0 velocity 8.85056193923239e-06 0.0472769720760073 -2.29051803174737e-05 angularVelocity 0 0 0 force -1757.97538212564 72138216.8618083 3000.41081268796 torque 0 0 0 radius 66.6666666666667 invMass 3.22288759761088e-10
BaseParticle id 17 indSpecies 0 position -66.6666687382267 2066.39966547592 333.333637601148 orientation 1 0 0 0 velocity 1.75683359379234e-05 0.0816944574725014 -3.02705816588067e-05 angularVelocity 0 0 0 force -1738.85889572051 -139491096.048036 5659.3665922498 torque 0 0 0 radius 66.6666666666667 invMass 3.22288759761088e-10
BaseParticle id 18 indSpecies 0 position 66.6666722655356 2066.39912183018 -333.33363182109 orientation 1 0 0 0 velocity -1.73596570252574e-05 0.0820204464156853 3.04890801528597e-05 angularVelocity 0 0 0 force 727.268332635802 -131495059.954993 -6897.92688607263 torque 0 0 0 radius 66.6666666666667 invMass 3.22288759761088e-10
BaseParticle id 19 indSpecies 0 position 66.6667129377057 2066.35721630895 -200.000091266314 orientation 1 0 0 0 velocity -8.87825646779637e-06 0.0472772037138743 2.29378845697951e-05 angularVelocity 0 0 0 force 718.61052902505 72138928.2356262 -4243.29159653392 torque 0 0 0 radius 66.6666666666667 invMass 3.22288759761088e-10
BaseParticle id 20 indSpecies 0 position 66.6667581276795 2066.3341129678 -66.6667558745882 orientation 1 0 0 0 velocity -5.0157999342267e-06 0.0635379187317193 5.0693369063998e-06 angularVelocity 0 0 0 force 720.104049786865 72015346.0068036 -1851.28559597264 torque 0 0 0 radius 66.6666666666667 invMass 3.22288759761088e-10
BaseParticle id 21 indSpecies 0 position 66.6667582398734 2066.33383804003 66.6667590029707 orientation 1 0 0 0 velocity -4.97365400856271e-06 0.0636049097085312 -4.93419236637293e-06 angularVelocity 0 0 0 force 755.482287085563 72018181.680481 633.531805825462 torque 0 0 0 radius 66.6666666666667 invMass 3.22288759761088e-10
BaseParticle id 22 indSpecies 0 position 66.6667127299909 2066.35710856236 200.000093220141 orientation 1 0 0 0 velocity -8.77383239235861e-06 0.0472670657765408 -2.28575588558497e-05 angularVelocity 0 0 0 force 827.198260992315 72147772.5854866 3008.41642708264 torque 0 0 0 radius 66.6666666666667 invMass 3.22288759761088e-10
BaseParticle id 23 indSpecies 0 position 66.666677421532 2066.3996153258 333.333636742864 orientation 1 0 0 0 velocity -1.65674743167179e-05 0.0816847421945817 -3.03035703091135e-05 angularVelocity 0 0 0 force 920.733185081233 -139187402.706511 5649.4492695071 torque 0 0 0 radius 66.6666666666667 invMass 3.22288759761088e-10
BaseParticle id 24 indSpecies 0 position 200.00001668339 2066.3675303901 -333.333726294926 orientation 1 0 0 0 velocity -1.99580538404824e-05 0.104187837804579 2.6028747116517e-05 angularVelocity 0 0 0 force 3369.15695871388 72505607.9690019 -6597.88779471934 torque 0 0 0 radius 66.6666666666667 invMass 3.22288759761088e-10
BaseParticle id 25 indSpecies 0 position 200.000051200409 2066.34460150899 -200.000035567665 orientation 1 0 0 0 velocity -2.32431238689412e-05 0.0635236243991854 6.03532967251851e-06 angularVelocity 0 0 0 force 3224.43477813746 -24205739.4496941 -4294.16886955784 torque 0 0 0 radius 66.6666666666667 invMass 3.22288759761088e-10
BaseParticle id 26 indSpecies 0 position 200.00008978564 2066.3571688488 -66.6667003815036 orientation 1 0 0 0 velocity -2.29873005707517e-05 0.0472623603910587 2.71762692926648e-05 angularVelocity 0 0 0 force 3136.94335796623 72152366.5675576 -1845.22323068987 torque 0 0 0 radius 66.6666666666667 invMass 3.22288759761088e-10
BaseParticle id 27 indSpecies 0 position 200.000089790541 2066.35713411439 66.6667030395865 orientation 1 0 0 0 velocity -2.29514354916323e-05 0.0472617813916015 -2.65527014122959e-05 angularVelocity 0 0 0 force 3174.24623253955 72154542.803984 680.466576184419 torque 0 0 0 radius 66.6666666666667 invMass 3.22288759761088e-10
BaseParticle id 28 indSpecies 0 position 200.00005179318 2066.34467685911 200.00003943026 orientation 1 0 0 0 velocity -2.31072120225292e-05 0.0638006216370362 -6.24140651670525e-06 angularVelocity 0 0 0 force 3338.86585771387 -27706601.8181651 3117.72414655802 torque 0 0 0 radius 66.6666666666667 invMass 3.22288759761088e-10
BaseParticle id 29 indSpecies 0 position 200.000013573425 2066.36726079661 333.333730321956 orientation 1 0 0 0 velocity -2.0280947340418e-05 0.104135905403834 -2.58058654167722e-05 angularVelocity 0 0 0 force 3563.81344417833 72518786.8422696 5385.37431856121 torque 0 0 0 radius 66.6666666666667 invMass 3.22288759761088e-10
BaseParticle id 30 indSpecies 0 position 333.33364022009 2066.34933655672 -333.333640513314 orientation 1 0 0 0 velocity 1.15066703918273e-06 0.0882369482495921 -4.31690727617071e-07 angularVelocity 0 0 0 force 5822.34755854321 72773244.6629572 -6830.95537840566 torque 0 0 0 radius 66.6666666666667 invMass 3.22288759761088e-10
BaseParticle id 31 indSpecies 0 position 333.333719599151 2066.36746962467 -200.000030763771 orientation 1 0 0 0 velocity -2.6226290710371e-05 0.104174765101784 1.83312488680657e-05 angularVelocity 0 0 0 force 5545.32578627048 72518459.3140228 -4429.64206419678 torque 0 0 0 radius 66.6666666666667 invMass 3.22288759761088e-10
BaseParticle id 32 indSpecies 0 position 333.33363410174 2066.39947912174 -66.6666606754415 orientation 1 0 0 0 velocity -3.03437820671801e-05 0.0808576487870235 6.95588064087406e-06 angularVelocity 0 0 0 force 5816.20383846128 -136595565.353647 -156842.02552223 torque 0 0 0 radius 66.6666666666667 invMass 3.22288759761088e-10
BaseParticle id 33 indSpecies 0 position 333.333634064239 2066.40007787664 66.6666610296873 orientation 1 0 0 0 velocity -3.03072793338597e-05 0.0788518973624461 -6.90396229072937e-06 angularVelocity 0 0 0 force 5861.04862670771 -139965016.586978 155715.530710858 torque 0 0 0 radius 66.6666666666667 invMass 3.22288759761088e-10
BaseParticle id 34 indSpecies 0 position 333.333718851362 2066.36730763227 200.000034385683 orientation 1 0 0 0 velocity -2.61528561790638e-05 0.104141480715717 -1.79608621092791e-05 angularVelocity 0 0 0 force 5666.95525298358 72524068.9226297 3289.393398844 torque 0 0 0 radius 66.6666666666667 invMass 3.22288759761088e-10
BaseParticle id 35 indSpecies 0 position 333.333638323654 2066.34905978305 333.333647808671 orientation 1 0 0 0 velocity 1.24837857036495e-06 0.0881714131410409 8.78000043588756e-07 angularVelocity 0 0 0 force 6028.65195678044 72784213.1437715 5660.86131172185 torque 0 0 0 radius 66.6666666666667 invMass 3.22288759761088e-10
BaseParticle id 36 indSpecies 0 position -333.333440559503 2199.69466276678 -333.333439143944 orientation 1 0 0 0 velocity -9.30796936896253e-06 -0.001431804895685 -7.93715588751933e-06 angularVelocity 0 0 0 force -3636.60751522816 -228849340.946746 -3259.07067104055 torque 0 0 0 radius 66.6666666666667 invMass 3.22288759761088e-10
BaseParticle id 37 indSpecies 0 position -333.333349800542 2199.70449908951 -200.000084594108 orientation 1 0 0 0 velocity -3.00002835843781e-06 0.00363207864817017 4.86504043193023e-05 angularVelocity 0 0 0 force -16295.4128949461 -2662491.37921023 -2009.81287347133 torque 0 0 0 radius 66.6666666666667 invMass 3.22288759761088e-10
BaseParticle id 38 indSpecies 0 position -333.33338661327 2199.71758629678 -66.6666963674492 orientation 1 0 0 0 velocity 7.99502477916602e-06 0.03649665774451 -8.14410995689655e-06 angularVelocity 0 0 0 force -2792.17097818459 -118441261.653835 -910.032109783801 torque 0 0 0 radius 66.6666666666667 invMass 3.22288759761088e-10
BaseParticle id 39 indSpecies 0 position -333.333387811701 2199.71787833289 66.6666947225407 orientation 1 0 0 0 velocity 7.86804105766985e-06 0.039724906208037 8.14548085443256e-06 angularVelocity 0 0 0 force -2775.53782270502 -120830288.764645 538.599225275423 torque 0 0 0 radius 66.6666666666667 invMass 3.22288759761088e-10
BaseParticle id 40 indSpecies 0 position -333.333350282709 2199.70408452243 200.000083400421 orientation 1 0 0 0 velocity -2.59742065397274e-06 0.00363796619035698 -4.9306957489837e-05 angularVelocity 0 0 0 force -11654.8688522293 -3153791.1018178 1616.24872266125 torque 0 0 0 radius 66.6666666666667 invMass 3.22288759761088e-10
BaseParticle id 41 indSpecies 0 position -333.333441359249 2199.69452963112 333.333439585704 orientation 1 0 0 0 velocity -1.01241493663525e-05 -0.00145961979700859 8.78046564205878e-06 angularVelocity 0 0 0 force -3579.35051049826 -229779957.820286 2842.51421076122 torque 0 0 0 radius 66.6666666666667 invMass 3.22288759761088e-10
BaseParticle id 42 indSpecies 0 position -200.000083357199 2199.70451384629 -333.333350102753 orientation 1 0 0 0 velocity 4.94687622414597e-05 0.00361552621607744 -5.44262807225333e-06 angularVelocity 0 0 0 force -2486.20447499861 -2696830.05375907 -28401.2028835367 torque 0 0 0 radius 66.6666666666667 invMass 3.22288759761088e-10
BaseParticle id 43 indSpecies 0 position -200.000021666656 2199.67096080094 -200.000022912048 orientation 1 0 0 0 velocity 2.12980696515736e-05 0.0979091926589429 1.61289559493064e-05 angularVelocity 0 0 0 force -168581.275508043 160068818.841478 -179088.709059612 torque 0 0 0 radius 66.6666666666667 invMass 3.22288759761088e-10
BaseParticle id 44 indSpecies 0 position -200.00000776185 2199.69233267565 -66.6667065109463 orientation 1 0 0 0 velocity -7.69108960923696e-06 0.0867016386998504 9.25003672286355e-06 angularVelocity 0 0 0 force -2167.56514828132 -132360025.935711 202192.486105058 torque 0 0 0 radius 66.6666666666667 invMass 3.22288759761088e-10
BaseParticle id 45 indSpecies 0 position -200.000006996088 2199.69229548752 66.6667057520996 orientation 1 0 0 0 velocity -6.9355088108647e-06 0.0867046034641204 -9.67532321281302e-06 angularVelocity 0 0 0 force -2157.73035112434 -132210009.619837 -204357.697097927 torque 0 0 0 radius 66.6666666666667 invMass 3.22288759761088e-10
BaseParticle id 46 indSpecies 0 position -200.000021739421 2199.6708002226 200.000021995047 orientation 1 0 0 0 velocity 2.27361616086071e-05 0.0976097939900255 -1.55104152719614e-05 angularVelocity 0 0 0 force -162723.910566284 164037257.869362 184116.946981125 torque 0 0 0 radius 66.6666666666667 invMass 3.22288759761088e-10
BaseParticle id 47 indSpecies 0 position -200.000081963512 2199.70405304321 333.333349525637 orientation 1 0 0 0 velocity 5.06010870590925e-05 0.00360108038456985 5.61573820137598e-06 angularVelocity 0 0 0 force -2430.3131171413 -3110818.10339557 24502.0532087385 torque 0 0 0 radius 66.6666666666667 invMass 3.22288759761088e-10
BaseParticle id 48 indSpecies 0 position -66.6666974867185 2199.71778739595 -333.333386806879 orientation 1 0 0 0 velocity -8.3749943793508e-06 0.0301272478010636 8.21241149616435e-06 angularVelocity 0 0 0 force -1484.44538771532 -154234571.536707 -2401.69209025248 torque 0 0 0 radius 66.6666666666667 invMass 3.22288759761088e-10
BaseParticle id 49 indSpecies 0 position -66.6667035043413 2199.69235608709 -200.000007206211 orientation 1 0 0 0 velocity 1.16820688652392e-06 0.0866953600610222 -6.05455323477034e-06 angularVelocity 0 0 0 force 178073.307671831 -132370620.120996 -1629.32750254462 torque 0 0 0 radius 66.6666666666667 invMass 3.22288759761088e-10
BaseParticle id 50 indSpecies 0 position -66.6666738496221 2199.67442364408 -66.6666746488747 orientation 1 0 0 0 velocity -2.18619387349151e-06 0.0784776782161359 -3.12059823886661e-06 angularVelocity 0 0 0 force -1195.77338509415 -231990078.174695 -607.377023382423 torque 0 0 0 radius 66.6666666666667 invMass 3.22288759761088e-10
BaseParticle id 51 indSpecies 0 position -66.6666738222419 2199.67470556832 66.666673507757 orientation 1 0 0 0 velocity -2.75884387123694e-06 0.0781872174653292 3.14875350295448e-06 angularVelocity 0 0 0 force -1184.68793624028 -238399025.335103 320.465457275318 torque 0 0 0 radius 66.6666666666667 invMass 3.22288759761088e-10
BaseParticle id 52 indSpecies 0 position -66.666702801705 2199.69224143658 200.00000628002 orientation 1 0 0 0 velocity -6.90912563931781e-07 0.0867205927021881 6.28077394078796e-06 angularVelocity 0 0 0 force 167668.786658053 -132049396.800104 1328.23063082309 torque 0 0 0 radius 66.6666666666667 invMass 3.22288759761088e-10
BaseParticle id 53 indSpecies 0 position -66.666696432168 2199.71759696336 333.333386831364 orientation 1 0 0 0 velocity -8.22226335791009e-06 0.0331452993546055 -7.94372097387059e-06 angularVelocity 0 0 0 force -1428.23553547741 -82116859.4704096 1977.93161984144 torque 0 0 0 radius 66.6666666666667 invMass 3.22288759761088e-10
BaseParticle id 54 indSpecies 0 position 66.6666954836653 2199.7176351921 -333.333387356909 orientation 1 0 0 0 velocity 7.7869489183425e-06 0.0365043811483599 7.57152662632953e-06 angularVelocity 0 0 0 force -111.535565273176 -119737370.567212 -2288.10773604237 torque 0 0 0 radius 66.6666666666667 invMass 3.22288759761088e-10
BaseParticle id 55 indSpecies 0 position 66.6667039074941 2199.69233683352 -200.000009760877 orientation 1 0 0 0 velocity -3.10628811501826e-06 0.0866817987617685 -1.19869269218743e-05 angularVelocity 0 0 0 force -194587.94218905 -132413266.869563 -1605.66085718355 torque 0 0 0 radius 66.6666666666667 invMass 3.22288759761088e-10
BaseParticle id 56 indSpecies 0 position 66.6666739980593 2199.67441302475 -66.6666726267469 orientation 1 0 0 0 velocity 1.87488507253229e-06 0.0784782943078694 -1.80626851011578e-06 angularVelocity 0 0 0 force -344.20168780543 -231966825.817984 -584.60978765705 torque 0 0 0 radius 66.6666666666667 invMass 3.22288759761088e-10
BaseParticle id 57 indSpecies 0 position 66.6666740275908 2199.67469522164 66.6666718093462 orientation 1 0 0 0 velocity 2.1626107147277e-06 0.0781904836179489 1.82437131535888e-06 angularVelocity 0 0 0 force -335.135664363267 -238312832.029284 317.644680017147 torque 0 0 0 radius 66.6666666666667 invMass 3.22288759761088e-10
BaseParticle id 58 indSpecies 0 position 66.6667029503778 2199.69222514051 200.000009212264 orientation 1 0 0 0 velocity 1.35782165418483e-06 0.0867175300486785 1.24180610008403e-05 angularVelocity 0 0 0 force -165891.074688755 -132028715.351703 1325.20644196538 torque 0 0 0 radius 66.6666666666667 invMass 3.22288759761088e-10
BaseParticle id 59 indSpecies 0 position 66.6666954669566 2199.71756824002 333.333386932433 orientation 1 0 0 0 velocity 7.94165388372997e-06 0.033261503498631 -7.3456105983653e-06 angularVelocity 0 0 0 force -65.6917873079251 -82575236.0353123 1958.44957050177 torque 0 0 0 radius 66.6666666666667 invMass 3.22288759761088e-10
BaseParticle id 60 indSpecies 0 position 200.000084238611 2199.70448125661 -333.333347995392 orientation 1 0 0 0 velocity -5.00095190304526e-05 0.00356465667899507 -1.04326078121422e-05 angularVelocity 0 0 0 force 879.953680278318 -2749094.05851375 -56277.4319803168 torque 0 0 0 radius 66.6666666666667 invMass 3.22288759761088e-10
BaseParticle id 61 indSpecies 0 position 200.000020945041 2199.6709198902 -200.000022908483 orientation 1 0 0 0 velocity -2.22555756323912e-05 0.0978866824116092 7.96966563060495e-06 angularVelocity 0 0 0 force 195042.604512624 160550260.591039 -147595.02441566 torque 0 0 0 radius 66.6666666666667 invMass 3.22288759761088e-10
BaseParticle id 62 indSpecies 0 position 200.00000787096 2199.69228672453 -66.6667062535291 orientation 1 0 0 0 velocity 7.32677579006035e-06 0.0866967302547844 2.32384724794134e-05 angularVelocity 0 0 0 force 621.84938362155 -132241162.633245 198873.355925845 torque 0 0 0 radius 66.6666666666667 invMass 3.22288759761088e-10
BaseParticle id 63 indSpecies 0 position 200.000007665507 2199.69225074313 66.6667057314842 orientation 1 0 0 0 velocity 6.99254385550739e-06 0.0867066361831473 -2.23124451018059e-05 angularVelocity 0 0 0 force 634.517250580346 -132135302.829168 -200708.995396686 torque 0 0 0 radius 66.6666666666667 invMass 3.22288759761088e-10
BaseParticle id 64 indSpecies 0 position 200.000022126893 2199.67074021125 200.000022245042 orientation 1 0 0 0 velocity -2.43411706645471e-05 0.0975998626303966 -8.05017035135418e-06 angularVelocity 0 0 0 force 161103.305570993 163838540.158432 154334.919965329 torque 0 0 0 radius 66.6666666666667 invMass 3.22288759761088e-10
BaseParticle id 65 indSpecies 0 position 200.000084012348 2199.70444985756 333.333347702653 orientation 1 0 0 0 velocity -4.99903516194988e-05 0.00364820306832982 1.03969574851678e-05 angularVelocity 0 0 0 force 955.154988388652 -3170163.01398414 50539.9532582084 torque 0 0 0 radius 66.6666666666667 invMass 3.22288759761088e-10
BaseParticle id 66 indSpecies 0 position 333.333441709572 2199.69479237778 -333.333431044734 orientation 1 0 0 0 velocity 9.13977465749175e-06 -0.00149396188372831 -2.29671262569813e-06 angularVelocity 0 0 0 force 2023.2473832536 -233361273.026967 -2995.64710279575 torque 0 0 0 radius 66.6666666666667 invMass 3.22288759761088e-10
BaseParticle id 67 indSpecies 0 position 333.333350384632 2199.7044757871 -200.000086747747 orientation 1 0 0 0 velocity 4.75772001707391e-06 0.00358428316073101 4.32800325264178e-05 angularVelocity 0 0 0 force 1625.65805540783 -2646368.05593291 -1842.74935905534 torque 0 0 0 radius 66.6666666666667 invMass 3.22288759761088e-10
BaseParticle id 68 indSpecies 0 position 333.333386867656 2199.71761972457 -66.6667058992479 orientation 1 0 0 0 velocity -8.30910370405529e-06 0.0382474434711972 -8.25349422524064e-06 angularVelocity 0 0 0 force 1227.9474804063 -117548617.653058 -883.84080896459 torque 0 0 0 radius 66.6666666666667 invMass 3.22288759761088e-10
BaseParticle id 69 indSpecies 0 position 333.333387711149 2199.71797338256 66.6667055046336 orientation 1 0 0 0 velocity -8.17263040851121e-06 0.0408188755089066 8.57888431012048e-06 angularVelocity 0 0 0 force 1243.40841739623 -124610499.61075 626.593128036833 torque 0 0 0 radius 66.6666666666667 invMass 3.22288759761088e-10
BaseParticle id 70 indSpecies 0 position 333.333350801509 2199.70444548344 200.000086983048 orientation 1 0 0 0 velocity 2.8415501229221e-06 0.0036259189772004 -4.22508238429784e-05 angularVelocity 0 0 0 force 6986.57056973243 -3067797.95165236 1575.29884375861 torque 0 0 0 radius 66.6666666666667 invMass 3.22288759761088e-10
BaseParticle id 71 indSpecies 0 position 333.333441617959 2199.6944528722 333.333430106756 orientation 1 0 0 0 velocity 9.25405588423588e-06 -0.00121578710420367 1.88824705004366e-06 angularVelocity 0 0 0 force 2100.83536621093 -229678246.588883 2709.66783860363 torque 0 0 0 radius 66.6666666666667 invMass 3.22288759761088e-10
BaseParticle id 72 indSpecies 0 position -333.333355385949 2333.00620972901 -333.333356342916 orientation 1 0 0 0 velocity 3.19501743557494e-06 0.0581626675176995 3.73191373498929e-06 angularVelocity 0 0 0 force 364.276294810372 -26169341.1586653 1204.72471838695 torque 0 0 0 radius 66.6666666666667 invMass 3.22288759761088e-10
BaseParticle id 73 indSpecies 0 position -333.333347743335 2333.03254023705 -200.00000979276 orientation 1 0 0 0 velocity 4.3073904958821e-06 0.0107571419982414 1.39237487345721e-05 angularVelocity 0 0 0 force -114632.977641792 -50662840.8901564 774.611663215367 torque 0 0 0 radius 66.6666666666667 invMass 3.22288759761088e-10
BaseParticle id 74 indSpecies 0 position -333.333363092917 2333.02325670493 -66.6666688684844 orientation 1 0 0 0 velocity -1.50344381198423e-05 0.0450445387513606 1.82180106917956e-05 angularVelocity 0 0 0 force -32762.755146048 199565320.36768 537.779741325757 torque 0 0 0 radius 66.6666666666667 invMass 3.22288759761088e-10
BaseParticle id 75 indSpecies 0 position -333.333362912042 2333.02276599091 66.6666646983347 orientation 1 0 0 0 velocity -1.48754535941103e-05 0.0449124550931767 -1.8069169914329e-05 angularVelocity 0 0 0 force -33671.3072318147 215099023.836945 180.941256713354 torque 0 0 0 radius 66.6666666666667 invMass 3.22288759761088e-10
BaseParticle id 76 indSpecies 0 position -333.333348508426 2333.03209009202 200.000006747894 orientation 1 0 0 0 velocity 5.26073659467213e-06 0.0102476601367638 -1.33055252875468e-05 angularVelocity 0 0 0 force -119548.893077307 -50624564.4011235 -55.1590010655696 torque 0 0 0 radius 66.6666666666667 invMass 3.22288759761088e-10
BaseParticle id 77 indSpecies 0 position -333.333356198875 2333.00600905062 333.333352221515 orientation 1 0 0 0 velocity 3.06700591020234e-06 0.0581848088060617 -3.58450152212111e-06 angularVelocity 0 0 0 force 286.815164113671 -25929177.598576 -514.732467616173 torque 0 0 0 radius 66.6666666666667 invMass 3.22288759761088e-10
BaseParticle id 78 indSpecies 0 position -200.000008544317 2333.03255167999 -333.333350652257 orientation 1 0 0 0 velocity 1.37084178908515e-05 0.0107381186431204 8.27782234456406e-06 angularVelocity 0 0 0 force -217.879766715488 -50661065.3069096 -65450.928666418 torque 0 0 0 radius 66.6666666666667 invMass 3.22288759761088e-10
BaseParticle id 79 indSpecies 0 position -200.000025408542 2333.00735465414 -200.000024696735 orientation 1 0 0 0 velocity -9.24742097276867e-06 0.0136366697072037 -1.01355689345857e-05 angularVelocity 0 0 0 force 45389.7997653335 65994805.605903 -49780.0003483505 torque 0 0 0 radius 66.6666666666667 invMass 3.22288759761088e-10
BaseParticle id 80 indSpecies 0 position -200.000032812329 2333.01095395479 -66.6667002033447 orientation 1 0 0 0 velocity 9.27908651001483e-06 0.0541570520263834 1.97864143960865e-05 angularVelocity 0 0 0 force -47162.5505022233 -3047885.13492991 117655.791855597 torque 0 0 0 radius 66.6666666666667 invMass 3.22288759761088e-10
BaseParticle id 81 indSpecies 0 position -200.000032656738 2333.01092782643 66.6666963987506 orientation 1 0 0 0 velocity 9.3519474214901e-06 0.0541739579435911 -1.89245616270444e-05 angularVelocity 0 0 0 force -47775.6199584263 -3354590.27647565 -113496.675636224 torque 0 0 0 radius 66.6666666666667 invMass 3.22288759761088e-10
BaseParticle id 82 indSpecies 0 position -200.000026454839 2333.00735050995 200.000021151363 orientation 1 0 0 0 velocity -9.74079440366427e-06 0.0134240465403008 1.04644804019111e-05 angularVelocity 0 0 0 force 58347.5913311584 63917896.5750867 42904.8329497389 torque 0 0 0 radius 66.6666666666667 invMass 3.22288759761088e-10
BaseParticle id 83 indSpecies 0 position -200.000006958375 2333.03206125384 333.33334688816 orientation 1 0 0 0 velocity 1.43624936766695e-05 0.0103215796499649 -8.49756019178452e-06 angularVelocity 0 0 0 force -292.090322710106 -50114413.8840137 70268.2207758783 torque 0 0 0 radius 66.6666666666667 invMass 3.22288759761088e-10
BaseParticle id 84 indSpecies 0 position -66.6666682856335 2333.02382515362 -333.333363958212 orientation 1 0 0 0 velocity 1.77881384843773e-05 0.0464729180785466 -2.01339085355342e-05 angularVelocity 0 0 0 force -585.887861788031 193387597.908882 -27096.956827532 torque 0 0 0 radius 66.6666666666667 invMass 3.22288759761088e-10
BaseParticle id 85 indSpecies 0 position -66.6666973255351 2333.01097570742 -200.000033372792 orientation 1 0 0 0 velocity 2.1777413198069e-05 0.054164862255785 2.77552445649727e-05 angularVelocity 0 0 0 force 68661.9038385865 -3004842.39187625 10901.2078809383 torque 0 0 0 radius 66.6666666666667 invMass 3.22288759761088e-10
BaseParticle id 86 indSpecies 0 position -66.6667078572272 2332.98579687799 -66.6667037870365 orientation 1 0 0 0 velocity 1.91246770731116e-05 0.00413973214328204 7.54927552482512e-06 angularVelocity 0 0 0 force 79335.5397712452 255889561.826641 18682.6227216413 torque 0 0 0 radius 66.6666666666667 invMass 3.22288759761088e-10