<?xml version="1.0"?>
<!-- time 65.0691-->
<VTKFile type="UnstructuredGrid" version="0.1" byte_order="LittleEndian">
<UnstructuredGrid>
<Piece NumberOfPoints="3240" NumberOfCells="0">
<Points>
  <DataArray type="Float32" Name="Position" NumberOfComponents="3" format="ascii">
	-333.333 2066.15 -333.333
	-333.333 2066.26 -200
	-333.333 2066.32 -66.6667
	-333.333 2066.32 66.6667
	-333.333 2066.26 200
	-333.333 2066.15 333.333
	-200 2066.26 -333.333
	-200 2066.31 -200
	-200 2066.26 -66.6667
	-200 2066.26 66.6667
	-200 2066.31 200
	-200 2066.26 333.333
	-66.6667 2066.32 -333.333
	-66.6667 2066.26 -200
	-66.6667 2066.2 -66.6667
	-66.6667 2066.2 66.6667
	-66.6667 2066.26 200
	-66.6667 2066.32 333.333
	66.6667 2066.32 -333.333
	66.6667 2066.26 -200
	66.6667 2066.2 -66.6667
	66.6667 2066.2 66.6667
	66.6667 2066.26 200
	66.6667 2066.32 333.333
	200 2066.26 -333.333
	200 2066.31 -200
	200 2066.26 -66.6667
	200 2066.26 66.6667
	200 2066.31 200
	200 2066.26 333.333
	333.333 2066.15 -333.333
	333.333 2066.26 -200
	333.333 2066.32 -66.6667
	333.333 2066.32 66.6667
	333.333 2066.26 200
	333.333 2066.15 333.333
	-333.333 2199.67 -333.333
	-333.333 2199.69 -200
	-333.333 2199.69 -66.6667
	-333.333 2199.69 66.6667
	-333.333 2199.69 200
	-333.333 2199.67 333.333
	-200 2199.69 -333.333
	-200 2199.68 -200
	-200 2199.67 -66.6667
	-200 2199.67 66.6667
	-200 2199.68 200
	-200 2199.69 333.333
	-66.6667 2199.69 -333.333
	-66.6667 2199.67 -200
	-66.6667 2199.64 -66.6667
	-66.6667 2199.64 66.6667
	-66.6667 2199.67 200
	-66.6667 2199.69 333.333
	66.6667 2199.69 -333.333
	66.6667 2199.67 -200
	66.6667 2199.64 -66.6667
	66.6667 2199.64 66.6667
	66.6667 2199.67 200
	66.6667 2199.69 333.333
	200 2199.69 -333.333
	200 2199.68 -200
	200 2199.67 -66.6667
	200 2199.67 66.6667
	200 2199.68 200
	200 2199.69 333.333
	333.333 2199.67 -333.333
	333.333 2199.69 -200
	333.333 2199.69 -66.6667
	333.333 2199.69 66.6667
	333.333 2199.69 200
	333.333 2199.67 333.333
	-333.333 2333.04 -333.333
	-333.333 2333.03 -200
	-333.333 2333.02 -66.6667
	-333.333 2333.02 66.6667
	-333.333 2333.03 200
	-333.333 2333.04 333.333
	-200 2333.03 -333.333
	-200 2333.01 -200
	-200 2333.01 -66.6667
	-200 2333.01 66.6667
	-200 2333.01 200
	-200 2333.03 333.333
	-66.6667 2333.02 -333.333
	-66.6667 2333.01 -200
	-66.6667 2333.01 -66.6667
	-66.6667 2333.01 66.6667
	-66.6667 2333.01 200
	-66.6667 2333.02 333.333
	66.6667 2333.02 -333.333
	66.6667 2333.01 -200
	66.6667 2333.01 -66.6667
	66.6667 2333.01 66.6667
	66.6667 2333.01 200
	66.6667 2333.02 333.333
	200 2333.03 -333.333
	200 2333.01 -200
	200 2333.01 -66.6667
	200 2333.01 66.6667
	200 2333.01 200
	200 2333.03 333.333
	333.333 2333.04 -333.333
	333.333 2333.03 -200
	333.333 2333.02 -66.6667
	333.333 2333.02 66.6667
	333.333 2333.03 200
	333.333 2333.04 333.333
	-333.333 2466.38 -333.333
	-333.333 2466.37 -200
	-333.333 2466.36 -66.6667
	-333.333 2466.36 66.6667
	-333.333 2466.37 200
	-333.333 2466.38 333.333
	-200 2466.37 -333.333
	-200 2466.34 -200
	-200 2466.34 -66.6667
	-200 2466.34 66.6667
	-200 2466.34 200
	-200 2466.37 333.333
	-66.6667 2466.36 -333.333
	-66.6667 2466.34 -200
	-66.6667 2466.34 -66.6667
	-66.6667 2466.34 66.6667
	-66.6667 2466.34 200
	-66.6667 2466.36 333.333
	66.6667 2466.36 -333.333
	66.6667 2466.34 -200
	66.6667 2466.34 -66.6667
	66.6667 2466.34 66.6667
	66.6667 2466.34 200
	66.6667 2466.36 333.333
	200 2466.37 -333.333
	200 2466.34 -200
	200 2466.34 -66.6667
	200 2466.34 66.6667
	200 2466.34 200
	200 2466.37 333.333
	333.333 2466.38 -333.333
	333.333 2466.37 -200
	333.333 2466.36 -66.6667
	333.333 2466.36 66.6667
	333.333 2466.37 200
	333.333 2466.38 333.333
	-333.333 2599.71 -333.333
	-333.333 2599.71 -200
	-333.333 2599.7 -66.6667
	-333.333 2599.7 66.6667
	-333.333 2599.71 200
	-333.333 2599.71 333.333
	-200 2599.71 -333.333
	-200 2599.68 -200
	-200 2599.69 -66.6667
	-200 2599.69 66.6667
	-200 2599.68 200
	-200 2599.71 333.333
	-66.6667 2599.7 -333.333
	-66.6667 2599.69 -200
	-66.6667 2599.68 -66.6667
	-66.6667 2599.68 66.6667
	-66.6667 2599.69 200
	-66.6667 2599.7 333.333
	66.6667 2599.7 -333.333
	66.6667 2599.69 -200
	66.6667 2599.68 -66.6667
	66.6667 2599.68 66.6667
	66.6667 2599.69 200
	66.6667 2599.7 333.333
	200 2599.71 -333.333
	200 2599.68 -200
	200 2599.69 -66.6667
	200 2599.69 66.6667
	200 2599.68 200
	200 2599.71 333.333
	333.333 2599.71 -333.333
	333.333 2599.71 -200
	333.333 2599.7 -66.6667
	333.333 2599.7 66.6667
	333.333 2599.71 200
	333.333 2599.71 333.333
	-333.333 2733.05 -333.333
	-333.333 2733.04 -200
	-333.333 2733.04 -66.6667
	-333.333 2733.04 66.6667
	-333.333 2733.04 200
	-333.333 2733.05 333.333
	-200 2733.04 -333.333
	-200 2733.02 -200
	-200 2733.02 -66.6667
	-200 2733.02 66.6667
	-200 2733.02 200
	-200 2733.04 333.333
	-66.6667 2733.04 -333.333
	-66.6667 2733.02 -200
	-66.6667 2733.02 -66.6667
	-66.6667 2733.02 66.6667
	-66.6667 2733.02 200
	-66.6667 2733.04 333.333
	66.6667 2733.04 -333.333
	66.6667 2733.02 -200
	66.6667 2733.02 -66.6667
	66.6667 2733.02 66.6667
	66.6667 2733.02 200
	66.6667 2733.04 333.333
	200 2733.04 -333.333
	200 2733.02 -200
	200 2733.02 -66.6667
	200 2733.02 66.6667
	200 2733.02 200
	200 2733.04 333.333
	333.333 2733.05 -333.333
	333.333 2733.04 -200
	333.333 2733.04 -66.6667
	333.333 2733.04 66.6667
	333.333 2733.04 200
	333.333 2733.05 333.333
	-333.333 2866.37 -333.333
	-333.333 2866.37 -200
	-333.333 2866.37 -66.6667
	-333.333 2866.37 66.6667
	-333.333 2866.37 200
	-333.333 2866.37 333.333
	-200 2866.37 -333.333
	-200 2866.35 -200
	-200 2866.35 -66.6667
	-200 2866.35 66.6667
	-200 2866.35 200
	-200 2866.37 333.333
	-66.6667 2866.37 -333.333
	-66.6667 2866.35 -200
	-66.6667 2866.36 -66.6667
	-66.6667 2866.36 66.6667
	-66.6667 2866.35 200
	-66.6667 2866.37 333.333
	66.6667 2866.37 -333.333
	66.6667 2866.35 -200
	66.6667 2866.36 -66.6667
	66.6667 2866.36 66.6667
	66.6667 2866.35 200
	66.6667 2866.37 333.333
	200 2866.37 -333.333
	200 2866.35 -200
	200 2866.35 -66.6667
	200 2866.35 66.6667
	200 2866.35 200
	200 2866.37 333.333
	333.333 2866.37 -333.333
	333.333 2866.37 -200
	333.333 2866.37 -66.6667
	333.333 2866.37 66.6667
	333.333 2866.37 200
	333.333 2866.37 333.333
	-333.333 2999.71 -333.333
	-333.333 2999.7 -200
	-333.333 2999.7 -66.6667
	-333.333 2999.7 66.6667
	-333.333 2999.7 200
	-333.333 2999.71 333.333
	-200 2999.7 -333.333
	-200 2999.7 -200
	-200 2999.69 -66.6667
	-200 2999.69 66.6667
	-200 2999.7 200
	-200 2999.7 333.333
	-66.6667 2999.7 -333.333
	-66.6667 2999.69 -200
	-66.6667 2999.69 -66.6667
	-66.6667 2999.69 66.6667
	-66.6667 2999.69 200
	-66.6667 2999.7 333.333
	66.6667 2999.7 -333.333
	66.6667 2999.69 -200
	66.6667 2999.69 -66.6667
	66.6667 2999.69 66.6667
	66.6667 2999.69 200
	66.6667 2999.7 333.333
	200 2999.7 -333.333
	200 2999.7 -200
	200 2999.69 -66.6667
	200 2999.69 66.6667
	200 2999.7 200
	200 2999.7 333.333
	333.333 2999.71 -333.333
	333.333 2999.7 -200
	333.333 2999.7 -66.6667
	333.333 2999.7 66.6667
	333.333 2999.7 200
	333.333 2999.71 333.333
	-333.333 3133.04 -333.333
	-333.333 3133.03 -200
	-333.333 3133.03 -66.6667
	-333.333 3133.03 66.6667
	-333.333 3133.03 200
	-333.333 3133.04 333.333
	-200 3133.03 -333.333
	-200 3133.04 -200
	-200 3133.03 -66.6667
	-200 3133.03 66.6667
	-200 3133.04 200
	-200 3133.03 333.333
	-66.6667 3133.03 -333.333
	-66.6667 3133.03 -200
	-66.6667 3133.02 -66.6667
	-66.6667 3133.02 66.6667
	-66.6667 3133.03 200
	-66.6667 3133.03 333.333
	66.6667 3133.03 -333.333
	66.6667 3133.03 -200
	66.6667 3133.02 -66.6667
	66.6667 3133.02 66.6667
	66.6667 3133.03 200
	66.6667 3133.03 333.333
	200 3133.03 -333.333
	200 3133.04 -200
	200 3133.03 -66.6667
	200 3133.03 66.6667
	200 3133.04 200
	200 3133.03 333.333
	333.333 3133.04 -333.333
	333.333 3133.03 -200
	333.333 3133.03 -66.6667
	333.333 3133.03 66.6667
	333.333 3133.03 200
	333.333 3133.04 333.333
	-333.333 3266.37 -333.333
	-333.333 3266.36 -200
	-333.333 3266.36 -66.6667
	-333.333 3266.36 66.6667
	-333.333 3266.36 200
	-333.333 3266.37 333.333
	-200 3266.36 -333.333
	-200 3266.37 -200
	-200 3266.36 -66.6667
	-200 3266.36 66.6667
	-200 3266.37 200
	-200 3266.36 333.333
	-66.6667 3266.36 -333.333
	-66.6667 3266.36 -200
	-66.6667 3266.35 -66.6667
	-66.6667 3266.35 66.6667
	-66.6667 3266.36 200
	-66.6667 3266.36 333.333
	66.6667 3266.36 -333.333
	66.6667 3266.36 -200
	66.6667 3266.35 -66.6667
	66.6667 3266.35 66.6667
	66.6667 3266.36 200
	66.6667 3266.36 333.333
	200 3266.36 -333.333
	200 3266.37 -200
	200 3266.36 -66.6667
	200 3266.36 66.6667
	200 3266.37 200
	200 3266.36 333.333
	333.333 3266.37 -333.333
	333.333 3266.36 -200
	333.333 3266.36 -66.6667
	333.333 3266.36 66.6667
	333.333 3266.36 200
	333.333 3266.37 333.333
	-333.333 3399.71 -333.333
	-333.333 3399.7 -200
	-333.333 3399.69 -66.6667
	-333.333 3399.69 66.6667
	-333.333 3399.7 200
	-333.333 3399.71 333.333
	-200 3399.7 -333.333
	-200 3399.7 -200
	-200 3399.69 -66.6667
	-200 3399.69 66.6667
	-200 3399.7 200
	-200 3399.7 333.333
	-66.6667 3399.69 -333.333
	-66.6667 3399.69 -200
	-66.6667 3399.69 -66.6667
	-66.6667 3399.69 66.6667
	-66.6667 3399.69 200
	-66.6667 3399.69 333.333
	66.6667 3399.69 -333.333
	66.6667 3399.69 -200
	66.6667 3399.69 -66.6667
	66.6667 3399.69 66.6667
	66.6667 3399.69 200
	66.6667 3399.69 333.333
	200 3399.7 -333.333
	200 3399.7 -200
	200 3399.69 -66.6667
	200 3399.69 66.6667
	200 3399.7 200
	200 3399.7 333.333
	333.333 3399.71 -333.333
	333.333 3399.7 -200
	333.333 3399.69 -66.6667
	333.333 3399.69 66.6667
	333.333 3399.7 200
	333.333 3399.71 333.333
	-333.333 3533.04 -333.333
	-333.333 3533.03 -200
	-333.333 3533.03 -66.6667
	-333.333 3533.03 66.6667
	-333.333 3533.03 200
	-333.333 3533.04 333.333
	-200 3533.03 -333.333
	-200 3533.03 -200
	-200 3533.02 -66.6667
	-200 3533.02 66.6667
	-200 3533.03 200
	-200 3533.03 333.333
	-66.6667 3533.03 -333.333
	-66.6667 3533.02 -200
	-66.6667 3533.02 -66.6667
	-66.6667 3533.02 66.6667
	-66.6667 3533.02 200
	-66.6667 3533.03 333.333
	66.6667 3533.03 -333.333
	66.6667 3533.02 -200
	66.6667 3533.02 -66.6667
	66.6667 3533.02 66.6667
[...]
<PointData  Vectors="vector">
  <DataArray type="Float32" Name="Velocity" NumberOfComponents="3" format="ascii">
 -4.56842e-06 -0.0156709 -4.56149e-06
 -5.08953e-07 -0.00583184 -6.05464e-06
 -2.6063e-06 0.00101649 6.04453e-06
 -2.60588e-06 0.00101649 -6.05886e-06
 -5.07288e-07 -0.00583184 6.01933e-06
 -4.61544e-06 -0.0156709 4.61177e-06
 -5.99968e-06 -0.00583184 -5.35364e-07
 7.51095e-06 0.0126808 7.53837e-06
 1.01747e-05 0.0102218 -2.92746e-06
 1.0175e-05 0.0102218 2.92763e-06
 7.51155e-06 0.0126808 -7.53728e-06
 -6.03584e-06 -0.00583185 5.34596e-07
 5.97994e-06 0.00101649 -2.61246e-06
 -2.87886e-06 0.0102218 1.01684e-05
 1.55456e-07 0.00776987 1.66998e-07
 1.55207e-07 0.00776987 -1.66752e-07
 -2.87835e-06 0.0102218 -1.01664e-05
 6.06741e-06 0.00101649 2.61052e-06
 -5.97951e-06 0.00101649 -2.61822e-06
 2.879e-06 0.0102218 1.01605e-05
 -1.55401e-07 0.00776987 1.6705e-07
 -1.55017e-07 0.00776987 -1.67008e-07
 2.87863e-06 0.0102218 -1.01584e-05
 -5.9801e-06 0.00101649 2.61608e-06
 5.99917e-06 -0.00583184 -5.59988e-07
 -7.51042e-06 0.0126808 7.52203e-06
 -1.0174e-05 0.0102218 -2.93609e-06
 -1.01745e-05 0.0102218 2.93612e-06
 -7.5109e-06 0.0126808 -7.52154e-06
 5.99892e-06 -0.00583185 5.59076e-07
 4.56995e-06 -0.0156709 -4.08692e-06
 5.09168e-07 -0.00583184 -5.72996e-06
 2.60633e-06 0.00101649 4.92369e-06
 2.60625e-06 0.00101649 -4.93926e-06
 5.08079e-07 -0.00583185 5.69806e-06
 4.56793e-06 -0.0156709 4.13355e-06
 -5.96432e-06 -0.0110771 -5.95875e-06
 -8.98817e-06 -0.00409858 -1.1143e-05
 -8.54537e-06 0.0142074 9.35837e-06
 -8.54503e-06 0.0142074 -9.35793e-06
 -8.98676e-06 -0.00409858 1.11428e-05
 -5.9629e-06 -0.0110771 5.95859e-06
 -1.11591e-05 -0.00409858 -9.04811e-06
 -1.58183e-05 -0.00403098 -1.58709e-05
 -1.5344e-05 -0.00225298 2.01858e-06
 -1.53445e-05 -0.00225297 -2.01809e-06
 -1.58213e-05 -0.00403096 1.58705e-05
 -1.11616e-05 -0.00409856 9.04793e-06
 9.38208e-06 0.0142074 -8.55631e-06
 2.06219e-06 -0.00225298 -1.5317e-05
 8.5973e-08 -0.00385691 7.65455e-08
 8.637e-08 -0.00385691 -7.62204e-08
 2.06479e-06 -0.00225297 1.5317e-05
 9.39479e-06 0.0142074 8.5559e-06
 -9.38449e-06 0.0142074 -8.56493e-06
 -2.065e-06 -0.00225298 -1.54914e-05
 -8.62006e-08 -0.00385691 9.85539e-08
 -8.64185e-08 -0.00385691 -9.82577e-08
 -2.06427e-06 -0.00225297 1.54912e-05
 -9.39376e-06 0.0142074 8.56448e-06
 1.11615e-05 -0.00409855 -9.07305e-06
 1.58217e-05 -0.00403096 -1.58573e-05
 1.53442e-05 -0.00225298 2.00413e-06
 1.53448e-05 -0.00225298 -2.00342e-06
 1.58215e-05 -0.00403094 1.58563e-05
 1.1162e-05 -0.00409853 9.0727e-06
 5.9653e-06 -0.0110771 -6.0025e-06
 8.98801e-06 -0.00409853 -1.11501e-05
 8.54563e-06 0.0142075 9.39812e-06
 8.54525e-06 0.0142075 -9.39735e-06
 8.98711e-06 -0.00409852 1.11492e-05
 5.96345e-06 -0.0110771 6.00178e-06
 -9.9602e-06 0.000660872 -9.94854e-06
 -1.15672e-05 0.00114575 -7.55891e-06
 -1.1946e-05 -0.0038916 9.90686e-06
 -1.19462e-05 -0.0038916 -9.90691e-06
 -1.1568e-05 0.00114573 7.55908e-06
 -9.96188e-06 0.00066088 9.94796e-06
 -7.56424e-06 0.00114575 -1.15557e-05
 -7.69677e-06 -0.000625837 -7.69676e-06
 -7.53312e-06 0.00230423 8.79196e-06
 -7.53355e-06 0.00230424 -8.79179e-06
 -7.69806e-06 -0.000625842 7.69662e-06
 -7.56658e-06 0.00114571 1.15552e-05
 9.90349e-06 -0.00389157 -1.19376e-05
 8.79216e-06 0.00230423 -7.53296e-06
 8.82973e-06 -0.00963831 8.82591e-06
 8.83014e-06 -0.00963831 -8.82598e-06
 8.79358e-06 0.00230424 7.53282e-06
 9.90608e-06 -0.00389163 1.19372e-05
 -9.90403e-06 -0.00389159 -1.19402e-05
 -8.79243e-06 0.00230423 -7.53292e-06
 -8.82982e-06 -0.00963831 8.82154e-06
 -8.83023e-06 -0.00963831 -8.8217e-06
 -8.79365e-06 0.00230424 7.53279e-06
 -9.90574e-06 -0.00389163 1.19399e-05
 7.56439e-06 0.00114572 -1.15624e-05
 7.69667e-06 -0.000625852 -7.69652e-06
 7.53298e-06 0.00230423 8.77784e-06
 7.53349e-06 0.00230423 -8.77769e-06
 7.6982e-06 -0.000625854 7.69639e-06
 7.56699e-06 0.00114568 1.15617e-05
 9.96111e-06 0.000660872 -9.96024e-06
 1.15675e-05 0.0011457 -7.54871e-06
 1.1946e-05 -0.00389164 9.87366e-06
 1.19463e-05 -0.00389164 -9.87347e-06
 1.15684e-05 0.00114567 7.5486e-06
 9.96239e-06 0.000660871 9.95921e-06
 -6.73667e-06 0.00387702 -6.73003e-06
 -6.56769e-06 -0.000440888 7.60965e-06
 -7.94166e-06 0.00526283 -2.90379e-06
 -7.94213e-06 0.00526283 2.90419e-06
 -6.56917e-06 -0.000440901 -7.60879e-06
 -6.7409e-06 0.00387703 6.72777e-06
 7.60346e-06 -0.000440885 -6.56076e-06
 3.61712e-06 -0.000391048 3.64246e-06
 -1.2281e-06 -0.00623651 -5.43997e-07
 -1.22854e-06 -0.0062365 5.45668e-07
 3.61833e-06 -0.000391044 -3.64484e-06
 7.60637e-06 -0.000440899 6.56052e-06
 -2.90606e-06 0.00526283 -7.93531e-06
 -5.25333e-07 -0.00623651 -1.19821e-06
 4.91666e-06 0.00149597 4.88995e-06
 4.91687e-06 0.00149597 -4.89051e-06
 -5.26506e-07 -0.0062365 1.19834e-06
 -2.90744e-06 0.00526284 7.93481e-06
 2.90581e-06 0.00526283 -7.93623e-06
 5.24069e-07 -0.00623651 -1.1912e-06
 -4.91755e-06 0.00149597 4.87926e-06
 -4.91775e-06 0.00149597 -4.87969e-06
 5.25245e-07 -0.0062365 1.19109e-06
 2.90713e-06 0.00526283 7.93583e-06
 -7.60223e-06 -0.000440881 -6.56321e-06
 -3.61556e-06 -0.000391049 3.6586e-06
 1.22893e-06 -0.0062365 -5.71792e-07
 1.22945e-06 -0.0062365 5.71474e-07
 -3.61667e-06 -0.000391046 -3.65886e-06
 -7.60555e-06 -0.00044089 6.5628e-06
 6.73574e-06 0.00387702 -6.72731e-06
 6.56702e-06 -0.000440879 7.582e-06
 7.94116e-06 0.00526284 -2.89532e-06
 7.94165e-06 0.00526284 2.89525e-06
 6.5687e-06 -0.000440884 -7.58167e-06
 6.74092e-06 0.00387702 6.72599e-06
 -6.535e-06 0.000334228 -6.52843e-06
 -4.36662e-06 0.0186075 3.72745e-06
 -2.63165e-06 -0.00221983 -3.21103e-06
 -2.63187e-06 -0.00221982 3.23336e-06
 -4.36742e-06 0.0186075 -3.75218e-06
 -6.51781e-06 0.0003342 6.52933e-06
 3.74379e-06 0.0186075 -4.36133e-06
 -6.79121e-06 -0.00550877 -6.78931e-06
 -8.38945e-06 0.00481773 5.92709e-06
 -8.39003e-06 0.00481774 -5.92691e-06
 -6.79321e-06 -0.00550876 6.78965e-06
 3.77616e-06 0.0186075 4.3594e-06
 -3.23296e-06 -0.00221986 -2.62743e-06
 5.92299e-06 0.00481773 -8.38589e-06
 5.359e-06 -0.0121041 5.35926e-06
 5.3593e-06 -0.0121041 -5.35953e-06
 5.92426e-06 0.00481773 8.3849e-06
 -3.24326e-06 -0.0022198 2.62738e-06
 3.22234e-06 -0.00221986 -2.62887e-06
 -5.92256e-06 0.00481772 -8.38569e-06
 -5.35867e-06 -0.0121041 5.35676e-06
 -5.3591e-06 -0.0121041 -5.35678e-06
 -5.92447e-06 0.00481772 8.38456e-06
 3.23835e-06 -0.00221981 2.62877e-06
 -3.7327e-06 0.0186075 -4.35916e-06
 6.79032e-06 -0.00550876 -6.79192e-06
 8.38884e-06 0.00481772 5.91571e-06
 8.3895e-06 0.00481772 -5.91628e-06
 6.79297e-06 -0.00550875 6.79278e-06
 -3.77091e-06 0.0186075 4.35764e-06
 6.53408e-06 0.000334207 -6.53734e-06
 4.36631e-06 0.0186075 3.73868e-06
 2.63103e-06 -0.00221984 -3.23848e-06
 2.63138e-06 -0.00221983 3.26068e-06
 4.36734e-06 0.0186075 -3.76308e-06
 6.51738e-06 0.000334191 6.53832e-06
 8.51416e-06 -0.00647731 8.52045e-06
 1.56811e-06 0.00489982 -1.32944e-07
 9.4301e-07 -0.00677151 -4.13514e-06
 9.42665e-07 -0.00677153 4.13433e-06
 1.56712e-06 0.00489969 1.31723e-07
 8.5195e-06 -0.00647749 -8.52036e-06
 -1.3512e-07 0.00489984 1.57117e-06
 6.0884e-06 0.00509108 6.09122e-06
 6.54648e-06 -0.00602597 -4.27255e-06
 6.54668e-06 -0.00602596 4.27188e-06
 6.0889e-06 0.00509104 -6.09183e-06
 -1.41453e-07 0.00489969 -1.57169e-06
 -4.13372e-06 -0.00677148 9.45567e-07
 -4.27235e-06 -0.00602597 6.54742e-06
 -4.34108e-06 -0.00762463 -4.34008e-06
 -4.34128e-06 -0.00762463 4.33945e-06
 -4.27312e-06 -0.00602595 -6.54797e-06
 -4.13513e-06 -0.00677155 -9.46057e-07
 4.13347e-06 -0.00677148 9.44746e-07
 4.27196e-06 -0.00602596 6.54564e-06
 4.34063e-06 -0.00762463 -4.33919e-06
 4.34082e-06 -0.00762462 4.33855e-06
 4.2727e-06 -0.00602594 -6.54612e-06
 4.13467e-06 -0.00677153 -9.45191e-07
 1.36046e-07 0.00489983 1.56865e-06
 -6.08889e-06 0.00509106 6.08598e-06
 -6.54708e-06 -0.00602595 -4.26994e-06
 -6.54723e-06 -0.00602595 4.26929e-06
 -6.08939e-06 0.00509104 -6.08632e-06
 1.41657e-07 0.00489981 -1.56914e-06
 -8.51573e-06 -0.00647746 8.51426e-06
 -1.56834e-06 0.00489984 -1.38969e-07
 -9.43144e-07 -0.0067715 -4.13122e-06
 -9.42783e-07 -0.0067715 4.13036e-06
 -1.56714e-06 0.00489984 1.37478e-07
 -8.51985e-06 -0.00647741 -8.51334e-06
 1.43951e-06 -0.00109145 1.44324e-06
 2.12068e-06 3.41633e-05 6.39925e-06
 1.62256e-06 -0.00288762 1.02492e-06
 1.62263e-06 -0.00288763 -1.03018e-06
 2.12008e-06 3.42471e-05 -6.39483e-06
 1.44551e-06 -0.00109139 -1.44448e-06
 6.39856e-06 3.41515e-05 2.12394e-06
 1.45804e-06 -0.0124031 1.46056e-06
 2.68512e-06 -0.00478743 4.84337e-06
 2.68451e-06 -0.00478743 -4.84133e-06
 1.45512e-06 -0.0124031 -1.46341e-06
 6.67948e-06 3.42515e-05 -2.12506e-06
 1.02337e-06 -0.0028876 1.62457e-06
 4.84443e-06 -0.00478742 2.68757e-06
 3.81845e-06 0.00907673 3.81745e-06
 3.81877e-06 0.00907673 -3.81655e-06
 4.84718e-06 -0.00478742 -2.689e-06
 7.81039e-07 -0.00288763 -1.62584e-06
 -1.02153e-06 -0.0028876 1.62363e-06
 -4.84529e-06 -0.00478742 2.68753e-06
 -3.81923e-06 0.00907673 3.81694e-06
 -3.81974e-06 0.00907673 -3.81577e-06
 -4.84793e-06 -0.00478742 -2.68903e-06
 -7.81066e-07 -0.00288763 -1.62498e-06
 -6.40147e-06 3.41689e-05 2.12145e-06
 -1.45814e-06 -0.0124031 1.45978e-06
 -2.68533e-06 -0.00478742 4.84217e-06
 -2.68468e-06 -0.00478742 -4.83969e-06
 -1.45522e-06 -0.0124031 -1.4628e-06
 -6.68024e-06 3.41862e-05 -2.12251e-06
 -1.43965e-06 -0.00109141 1.43926e-06
 -2.12104e-06 3.41677e-05 6.40093e-06
 -1.62292e-06 -0.0028876 1.0199e-06
 -1.62279e-06 -0.0028876 -1.02557e-06
 -2.12039e-06 3.41688e-05 -6.39566e-06
 -1.44569e-06 -0.00109146 -1.44037e-06
 2.79926e-06 -0.00416398 2.80129e-06
 2.27226e-06 -0.0102716 1.77309e-06
 2.18398e-06 0.00268567 2.75321e-06
 2.18377e-06 0.00268569 -2.75365e-06
 2.27196e-06 -0.0102716 -1.77399e-06
 2.79836e-06 -0.00416388 -2.80183e-06
 1.77171e-06 -0.0102716 2.27404e-06
 9.71483e-07 0.00942738 9.72643e-07
 9.55167e-07 -0.00315314 3.68352e-06
 9.55124e-07 -0.00315313 -3.6841e-06
 9.7134e-07 0.00942737 -9.73306e-07
 1.77169e-06 -0.0102716 -2.27456e-06
 2.75326e-06 0.00268564 2.18585e-06
 3.68343e-06 -0.00315314 9.56164e-07
 3.56845e-06 -0.00121883 3.56814e-06
 3.56846e-06 -0.00121882 -3.56846e-06
 3.68314e-06 -0.00315313 -9.56827e-07
 2.75266e-06 0.0026857 -2.18653e-06
 -2.7536e-06 0.00268564 2.18548e-06
 -3.68387e-06 -0.00315314 9.5596e-07
 -3.56875e-06 -0.00121881 3.56806e-06
 -3.56877e-06 -0.0012188 -3.56839e-06
 -3.68356e-06 -0.00315313 -9.56565e-07
 -2.75304e-06 0.00268568 -2.18611e-06
 -1.77225e-06 -0.0102715 2.27274e-06
 -9.71981e-07 0.00942737 9.72092e-07
 -9.55668e-07 -0.00315314 3.68335e-06
 -9.55607e-07 -0.00315314 -3.68385e-06
 -9.7178e-07 0.00942736 -9.7268e-07
 -1.77204e-06 -0.0102716 -2.27315e-06
 -2.79966e-06 -0.0041639 2.7995e-06
 -2.27263e-06 -0.0102715 1.77234e-06
 -2.1845e-06 0.00268563 2.75252e-06
 -2.18428e-06 0.00268563 -2.75273e-06
 -2.27233e-06 -0.0102715 -1.77326e-06
 -2.79875e-06 -0.00416389 -2.7998e-06
 3.35129e-06 0.00137158 3.35225e-06
 3.91344e-06 -0.00945871 5.28874e-06
 3.30181e-06 0.00279464 4.19381e-07
 3.30162e-06 0.00279464 -4.20446e-07
 3.91332e-06 -0.00945873 -5.28924e-06
 3.35073e-06 0.00137139 -3.35214e-06
 5.28821e-06 -0.00945869 3.91441e-06
 5.0397e-06 -0.00134175 5.04025e-06
 5.27717e-06 0.0023234 -3.83363e-07
 5.2773e-06 0.0023234 3.8265e-07
 5.03921e-06 -0.0013417 -5.04094e-06
 5.2877e-06 -0.00945873 -3.91439e-06
 4.19087e-07 0.00279464 3.30284e-06
 -3.83594e-07 0.00232341 5.27759e-06
 -2.20514e-07 0.00111688 -2.20264e-07
 -2.2066e-07 0.00111688 2.2084e-07
 -3.83624e-07 0.0023234 -5.27913e-06
 4.19119e-07 0.00279461 -3.30319e-06
 -4.20252e-07 0.00279462 3.30271e-06
 3.82862e-07 0.00232341 5.27765e-06
 2.21451e-07 0.00111687 -2.20465e-07
 2.21573e-07 0.00111686 2.21006e-07
 3.82931e-07 0.00232341 -5.27913e-06
 -4.2017e-07 0.0027946 -3.30304e-06
 -5.29754e-06 -0.00945868 3.91396e-06
 -5.04039e-06 -0.00134172 5.04002e-06
 -5.27897e-06 0.00232341 -3.83422e-07
 -5.27907e-06 0.00232341 3.8275e-07
 -5.03987e-06 -0.0013417 -5.04067e-06
 -5.28805e-06 -0.00945874 -3.91386e-06
 -3.34191e-06 0.00137148 3.35155e-06
 -3.91315e-06 -0.00945869 5.28833e-06
 -3.30208e-06 0.00279456 4.19319e-07
 -3.30189e-06 0.00279456 -4.2029e-07
 -3.91308e-06 -0.00945873 -5.28876e-06
 -3.3504e-06 0.00137143 -3.35135e-06
 6.42856e-06 -0.00715724 6.42959e-06
 9.23174e-07 -0.00293375 2.68909e-06
 5.51486e-07 0.0030879 2.38496e-06
 5.5139e-07 0.00308791 -2.38525e-06
 9.23331e-07 -0.00293372 -2.69083e-06
 6.4309e-06 -0.0071571 -6.42836e-06
 2.68941e-06 -0.00293375 9.23924e-07
 7.68501e-06 0.000661112 7.68515e-06
 7.80977e-06 -0.000454958 2.35209e-06
 7.80973e-06 -0.000454969 -2.35234e-06
 7.68442e-06 0.000661171 -7.68566e-06
 2.68636e-06 -0.00293371 -9.23942e-07
 2.38487e-06 0.00308788 5.51828e-07
 2.35197e-06 -0.000454956 7.81037e-06
 2.28777e-06 0.00160953 2.28789e-06
 2.28773e-06 0.00160953 -2.28813e-06
 2.35188e-06 -0.000454979 -7.81061e-06
 2.38474e-06 0.00308795 -5.52122e-07
 -2.38525e-06 0.00308792 5.51789e-07
 -2.35232e-06 -0.000454962 7.81032e-06
 -2.28795e-06 0.00160953 2.28789e-06
 -2.28793e-06 0.00160953 -2.28812e-06
 -2.35224e-06 -0.000454983 -7.81056e-06
 -2.38512e-06 0.00308796 -5.5208e-07
 -2.68961e-06 -0.00293373 9.23845e-07
 -7.68544e-06 0.000661116 7.68499e-06
 -7.81008e-06 -0.000454972 2.35208e-06
 -7.81005e-06 -0.000454979 -2.35234e-06
 -7.6849e-06 0.000661142 -7.68549e-06
 -2.68693e-06 -0.00293371 -9.23851e-07
 -6.42869e-06 -0.00715721 6.42988e-06
 -9.23126e-07 -0.00293372 2.68843e-06
 -5.51743e-07 0.00308799 2.38493e-06
 -5.51655e-07 0.003088 -2.38523e-06
 -9.23297e-07 -0.00293371 -2.69051e-06
 -6.43079e-06 -0.00715713 -6.42828e-06
 6.56282e-06 0.00539494 6.56295e-06
 6.4197e-06 0.00162894 2.6035e-07
 6.34825e-06 -0.00368818 -3.00481e-06
 6.34818e-06 -0.00368816 3.00484e-06
 6.41949e-06 0.00162894 -2.60394e-07
 6.56247e-06 0.00539404 -6.56298e-06
 2.60243e-07 0.00162894 6.41989e-06
 8.33765e-08 -0.00281974 8.35226e-08
 1.23945e-08 0.00456507 -2.65988e-06
 1.23781e-08 0.00456508 2.65987e-06
 8.32686e-08 -0.00281969 -8.35435e-08
 2.60105e-07 0.00162893 -6.41993e-06
 -3.01047e-06 -0.00368819 6.3485e-06
 -2.66133e-06 0.00456507 1.25409e-08
 -1.78666e-06 -0.00157686 -1.78256e-06
 -1.78621e-06 -0.00157687 1.78264e-06
 -2.66082e-06 0.00456508 -1.26785e-08
 -3.01065e-06 -0.00368815 -6.34856e-06
 3.0104e-06 -0.00368819 6.34848e-06
 2.66128e-06 0.00456507 1.25113e-08
 1.78648e-06 -0.00157686 -1.7826e-06
 1.78599e-06 -0.00157689 1.78266e-06
 2.6607e-06 0.00456509 -1.26678e-08
 3.01047e-06 -0.00368816 -6.34856e-06
 -2.60241e-07 0.00162892 6.41984e-06
 -8.3425e-08 -0.00281974 8.34285e-08
 -1.2357e-08 0.00456508 -2.66003e-06
 -1.23344e-08 0.00456508 2.65997e-06
 -8.33767e-08 -0.00281971 -8.34982e-08
 -2.60185e-07 0.00162892 -6.41994e-06
 -6.56288e-06 0.00539362 6.56289e-06
 -6.41977e-06 0.00162891 2.60256e-07
 -6.34835e-06 -0.00368818 -3.01084e-06
 -6.3483e-06 -0.00368817 3.0108e-06
 -6.41962e-06 0.00162891 -2.6038e-07
 -6.56263e-06 0.00539408 -6.563e-06
 5.02988e-06 3.69682e-05 5.02991e-06
 4.90223e-06 -0.000716296 2.60818e-06
 4.83266e-06 0.00189973 -1.60388e-06
 4.8326e-06 0.00189973 1.60393e-06
 4.90206e-06 -0.00071607 -2.60777e-06
 5.02959e-06 3.65461e-05 -5.02969e-06
 2.60819e-06 -0.00071638 4.90233e-06
 1.75642e-06 -0.000198975 1.75587e-06
 -4.34667e-07 -0.00102549 -4.22746e-07
 -4.34122e-07 -0.00102547 4.2725e-07
 1.75725e-06 -0.000198973 -1.75998e-06
 2.60809e-06 -0.000716066 -4.90215e-06
 -1.60387e-06 0.00189974 4.83279e-06
 -4.23156e-07 -0.0010255 -4.3558e-07
 1.89689e-06 -0.0026573 1.89758e-06
 1.89635e-06 -0.00265729 -1.89323e-06
 -4.24048e-07 -0.00102546 4.31564e-07
 -1.6038e-06 0.00189972 -4.83264e-06
 1.60389e-06 0.00189974 4.83278e-06
 4.25301e-07 -0.00102549 -4.35083e-07
 -1.89507e-06 -0.0026573 1.89699e-06
 -1.89522e-06 -0.00265729 -1.89299e-06
 4.25445e-07 -0.00102546 4.31357e-07
 1.60376e-06 0.00189973 -4.83266e-06
 -2.60787e-06 -0.000716463 4.90231e-06
 -1.75829e-06 -0.000198999 1.75694e-06
 4.33067e-07 -0.00102547 -4.2408e-07
 4.33147e-07 -0.00102546 4.28584e-07
 -1.75853e-06 -0.000198992 -1.76122e-06
 -2.60799e-06 -0.000716176 -4.90223e-06
 -5.02974e-06 3.63168e-05 5.02988e-06
 -4.90213e-06 -0.000716437 2.60791e-06
 -4.83258e-06 0.00189973 -1.60408e-06
 -4.83255e-06 0.00189973 1.60399e-06
 -4.90206e-06 -0.000716286 -2.60766e-06
 -5.02962e-06 3.66122e-05 -5.02982e-06
 3.41566e-06 -0.000601991 3.41531e-06
 3.26641e-06 -0.00042464 1.31726e-06
 1.28027e-06 -0.00681072 2.17257e-06
 1.28038e-06 -0.00681071 -2.17277e-06
 3.26689e-06 -0.000424772 -1.31605e-06
 3.41615e-06 -0.000600905 -3.4151e-06
 1.31706e-06 -0.000424592 3.26611e-06
 1.35022e-06 0.00522013 1.35046e-06
 3.01991e-06 -0.0031731 2.25135e-06
 3.01973e-06 -0.00317314 -2.25134e-06
 1.3496e-06 0.00522011 -1.35124e-06
 1.31639e-06 -0.000424777 -3.26425e-06
 2.17239e-06 -0.00681072 1.27888e-06
 2.25123e-06 -0.00317309 3.02134e-06
 2.54551e-06 0.00215146 2.54557e-06
 2.54549e-06 0.00215148 -2.5457e-06
 2.25109e-06 -0.00317316 -3.02285e-06
 2.17211e-06 -0.00681069 -1.27627e-06
 -2.1726e-06 -0.00681072 1.28065e-06
 -2.25133e-06 -0.00317311 3.01959e-06
 -2.54568e-06 0.00215148 2.54549e-06
 -2.54568e-06 0.0021515 -2.54565e-06
 -2.2513e-06 -0.00317316 -3.02248e-06
 -2.17251e-06 -0.00681069 -1.27675e-06
 -1.31755e-06 -0.000424556 3.26704e-06
 -1.35126e-06 0.00522013 1.34965e-06
 -3.02292e-06 -0.00317313 2.25107e-06
 -3.02266e-06 -0.00317315 -2.25123e-06
 -1.35068e-06 0.00522012 -1.35054e-06
 -1.31696e-06 -0.000424716 -3.26525e-06
 -3.41404e-06 -0.000600399 3.41653e-06
 -3.26445e-06 -0.000424575 1.31637e-06
 -1.27638e-06 -0.0068107 2.17197e-06
 -1.27666e-06 -0.00681069 -2.17242e-06
 -3.26511e-06 -0.000424659 -1.317e-06
 -3.41479e-06 -0.000600983 -3.41481e-06
 6.92817e-07 -0.00342251 6.92797e-07
 5.63473e-07 -0.00556558 -4.9024e-07
 6.22155e-07 0.00120026 2.24821e-06
 6.22131e-07 0.00120021 -2.24769e-06
 5.63388e-07 -0.00556557 4.90753e-07
 6.92685e-07 -0.00342307 -6.92279e-07
 -4.90299e-07 -0.00556559 5.63465e-07
 8.27586e-08 -0.000417216 8.28421e-08
 2.20477e-07 -0.000309691 1.85937e-06
 2.20428e-07 -0.000309662 -1.85884e-06
 8.25639e-08 -0.000417374 -8.243e-08
 -4.90458e-07 -0.00556556 -5.62991e-07
 2.24816e-06 0.00120043 6.22166e-07
 1.85935e-06 -0.000309701 2.20543e-07
 1.6956e-06 0.00287083 1.69563e-06
 1.6956e-06 0.00287082 -1.6952e-06
 1.8594e-06 -0.000309648 -2.20112e-07
 2.24808e-06 0.00120012 -6.2174e-07
 -2.24781e-06 0.00120042 6.22159e-07
 -1.85917e-06 -0.000309689 2.20459e-07
 -1.69537e-06 0.00287082 1.69566e-06
 -1.69543e-06 0.00287082 -1.69524e-06
 -1.85928e-06 -0.000309643 -2.20101e-07
 -2.2479e-06 0.00120017 -6.21774e-07
 4.90715e-07 -0.00556561 5.63432e-07
 -8.22513e-08 -0.000417211 8.25825e-08
 -2.20066e-07 -0.000309672 1.85947e-06
 -2.20021e-07 -0.000309653 -1.85912e-06
 -8.22069e-08 -0.000417303 -8.22426e-08
 4.90704e-07 -0.00556555 -5.63086e-07
 -6.92446e-07 -0.00342332 6.92733e-07
 -5.63137e-07 -0.00556561 -4.90451e-07
 -6.21885e-07 0.00120035 2.24817e-06
 -6.21901e-07 0.00120033 -2.24786e-06
 -5.63162e-07 -0.00556556 4.90762e-07
 -6.92488e-07 -0.00342306 -6.9243e-07
 -1.17457e-06 0.00384515 -1.17445e-06
 -9.89948e-07 -0.00220555 -8.56569e-07
 -9.61773e-07 -0.00136738 1.01837e-06
 -9.61803e-07 -0.00136738 -1.01782e-06
 -9.90025e-07 -0.00220558 8.57111e-07
 -1.17472e-06 0.00384516 1.17502e-06
 -8.56674e-07 -0.00220553 -9.89869e-07
 -9.29017e-07 -0.00125806 -9.2893e-07
 -9.56417e-07 0.00473758 1.02615e-06
 -9.56434e-07 0.00473757 -1.02565e-06
 -9.29063e-07 -0.00125799 9.29435e-07
 -8.56753e-07 -0.00220557 9.90394e-07
 1.01841e-06 -0.00136725 -9.61699e-07
 1.02613e-06 0.00473758 -9.56355e-07
 1.08183e-06 0.00154511 1.08189e-06
 1.08182e-06 0.0015451 -1.08144e-06
 1.02608e-06 0.00473756 9.56828e-07
 1.01835e-06 -0.00136738 9.6219e-07
 -1.01806e-06 -0.00136721 -9.61731e-07
 -1.02581e-06 0.00473758 -9.56372e-07
 -1.08157e-06 0.0015451 1.08188e-06
 -1.08159e-06 0.00154509 -1.08147e-06
 -1.02585e-06 0.00473755 9.56803e-07
 -1.01815e-06 -0.00136733 9.62192e-07
 8.57003e-07 -0.00220551 -9.89969e-07
 9.29314e-07 -0.00125805 -9.28983e-07
 9.56712e-07 0.00473757 1.02613e-06
 9.56701e-07 0.00473756 -1.02574e-06