<?xml version="1.0"?>
<!-- time 28.591-->
<VTKFile type="UnstructuredGrid" version="0.1" byte_order="LittleEndian">
<UnstructuredGrid>
<Piece NumberOfPoints="3240" NumberOfCells="0">
<Points>
  <DataArray type="Float32" Name="Position" NumberOfComponents="3" format="ascii">
	-333.333 2066.67 -333.333
	-333.333 2066.67 -200
	-333.333 2066.67 -66.6667
	-333.333 2066.67 66.6667
	-333.333 2066.67 200
	-333.333 2066.67 333.333
	-200 2066.67 -333.333
	-200 2066.67 -200
	-200 2066.67 -66.6667
	-200 2066.67 66.6667
	-200 2066.67 200
	-200 2066.67 333.333
	-66.6667 2066.67 -333.333
	-66.6667 2066.67 -200
	-66.6667 2066.67 -66.6667
	-66.6667 2066.67 66.6667
	-66.6667 2066.67 200
	-66.6667 2066.67 333.333
	66.6667 2066.67 -333.333
	66.6667 2066.67 -200
	66.6667 2066.67 -66.6667
	66.6667 2066.67 66.6667
	66.6667 2066.67 200
	66.6667 2066.67 333.333
	200 2066.67 -333.333
	200 2066.67 -200
	200 2066.67 -66.6667
	200 2066.67 66.6667
	200 2066.67 200
	200 2066.67 333.333
	333.333 2066.67 -333.333
	333.333 2066.67 -200
	333.333 2066.67 -66.6667
	333.333 2066.67 66.6667
	333.333 2066.67 200
	333.333 2066.67 333.333
	-333.333 2200 -333.333
	-333.333 2200 -200
	-333.333 2200 -66.6667
	-333.333 2200 66.6667
	-333.333 2200 200
	-333.333 2200 333.333
	-200 2200 -333.333
	-200 2200 -200
	-200 2200 -66.6667
	-200 2200 66.6667
	-200 2200 200
	-200 2200 333.333
	-66.6667 2200 -333.333
	-66.6667 2200 -200
	-66.6667 2200 -66.6667
	-66.6667 2200 66.6667
	-66.6667 2200 200
	-66.6667 2200 333.333
	66.6667 2200 -333.333
	66.6667 2200 -200
	66.6667 2200 -66.6667
	66.6667 2200 66.6667
	66.6667 2200 200
	66.6667 2200 333.333
	200 2200 -333.333
	200 2200 -200
	200 2200 -66.6667
	200 2200 66.6667
	200 2200 200
	200 2200 333.333
	333.333 2200 -333.333
	333.333 2200 -200
	333.333 2200 -66.6667
	333.333 2200 66.6667
	333.333 2200 200
	333.333 2200 333.333
	-333.333 2333.33 -333.333
	-333.333 2333.33 -200
	-333.333 2333.33 -66.6667
	-333.333 2333.33 66.6667
	-333.333 2333.33 200
	-333.333 2333.33 333.333
	-200 2333.33 -333.333
	-200 2333.33 -200
	-200 2333.33 -66.6667
	-200 2333.33 66.6667
	-200 2333.33 200
	-200 2333.33 333.333
	-66.6667 2333.33 -333.333
	-66.6667 2333.33 -200
	-66.6667 2333.33 -66.6667
	-66.6667 2333.33 66.6667
	-66.6667 2333.33 200
	-66.6667 2333.33 333.333
	66.6667 2333.33 -333.333
	66.6667 2333.33 -200
	66.6667 2333.33 -66.6667
	66.6667 2333.33 66.6667
	66.6667 2333.33 200
	66.6667 2333.33 333.333
	200 2333.33 -333.333
	200 2333.33 -200
	200 2333.33 -66.6667
	200 2333.33 66.6667
	200 2333.33 200
	200 2333.33 333.333
	333.333 2333.33 -333.333
	333.333 2333.33 -200
	333.333 2333.33 -66.6667
	333.333 2333.33 66.6667
	333.333 2333.33 200
	333.333 2333.33 333.333
	-333.333 2466.67 -333.333
	-333.333 2466.67 -200
	-333.333 2466.67 -66.6667
	-333.333 2466.67 66.6667
	-333.333 2466.67 200
	-333.333 2466.67 333.333
	-200 2466.67 -333.333
	-200 2466.67 -200
	-200 2466.67 -66.6667
	-200 2466.67 66.6667
	-200 2466.67 200
	-200 2466.67 333.333
	-66.6667 2466.67 -333.333
	-66.6667 2466.67 -200
	-66.6667 2466.67 -66.6667
	-66.6667 2466.67 66.6667
	-66.6667 2466.67 200
	-66.6667 2466.67 333.333
	66.6667 2466.67 -333.333
	66.6667 2466.67 -200
	66.6667 2466.67 -66.6667
	66.6667 2466.67 66.6667
	66.6667 2466.67 200
	66.6667 2466.67 333.333
	200 2466.67 -333.333
	200 2466.67 -200
	200 2466.67 -66.6667
	200 2466.67 66.6667
	200 2466.67 200
	200 2466.67 333.333
	333.333 2466.67 -333.333
	333.333 2466.67 -200
	333.333 2466.67 -66.6667
	333.333 2466.67 66.6667
	333.333 2466.67 200
	333.333 2466.67 333.333
	-333.333 2600 -333.333
	-333.333 2600 -200
	-333.333 2600 -66.6667
	-333.333 2600 66.6667
	-333.333 2600 200
	-333.333 2600 333.333
	-200 2600 -333.333
	-200 2600 -200
	-200 2600 -66.6667
	-200 2600 66.6667
	-200 2600 200
	-200 2600 333.333
	-66.6667 2600 -333.333
	-66.6667 2600 -200
	-66.6667 2600 -66.6667
	-66.6667 2600 66.6667
	-66.6667 2600 200
	-66.6667 2600 333.333
	66.6667 2600 -333.333
	66.6667 2600 -200
	66.6667 2600 -66.6667
	66.6667 2600 66.6667
	66.6667 2600 200
	66.6667 2600 333.333
	200 2600 -333.333
	200 2600 -200
	200 2600 -66.6667
	200 2600 66.6667
	200 2600 200
	200 2600 333.333
	333.333 2600 -333.333
	333.333 2600 -200
	333.333 2600 -66.6667
	333.333 2600 66.6667
	333.333 2600 200
	333.333 2600 333.333
	-333.333 2733.33 -333.333
	-333.333 2733.33 -200
	-333.333 2733.33 -66.6667
	-333.333 2733.33 66.6667
	-333.333 2733.33 200
	-333.333 2733.33 333.333
	-200 2733.33 -333.333
	-200 2733.33 -200
	-200 2733.33 -66.6667
	-200 2733.33 66.6667
	-200 2733.33 200
	-200 2733.33 333.333
	-66.6667 2733.33 -333.333
	-66.6667 2733.33 -200
	-66.6667 2733.33 -66.6667
	-66.6667 2733.33 66.6667
	-66.6667 2733.33 200
	-66.6667 2733.33 333.333
	66.6667 2733.33 -333.333
	66.6667 2733.33 -200
	66.6667 2733.33 -66.6667
	66.6667 2733.33 66.6667
	66.6667 2733.33 200
	66.6667 2733.33 333.333
	200 2733.33 -333.333
	200 2733.33 -200
	200 2733.33 -66.6667
	200 2733.33 66.6667
	200 2733.33 200
	200 2733.33 333.333
	333.333 2733.33 -333.333
	333.333 2733.33 -200
	333.333 2733.33 -66.6667
	333.333 2733.33 66.6667
	333.333 2733.33 200
	333.333 2733.33 333.333
	-333.333 2866.67 -333.333
	-333.333 2866.67 -200
	-333.333 2866.67 -66.6667
	-333.333 2866.67 66.6667
	-333.333 2866.67 200
	-333.333 2866.67 333.333
	-200 2866.67 -333.333
	-200 2866.67 -200
	-200 2866.67 -66.6667
	-200 2866.67 66.6667
	-200 2866.67 200
	-200 2866.67 333.333
	-66.6667 2866.67 -333.333
	-66.6667 2866.67 -200
	-66.6667 2866.67 -66.6667
	-66.6667 2866.67 66.6667
	-66.6667 2866.67 200
	-66.6667 2866.67 333.333
	66.6667 2866.67 -333.333
	66.6667 2866.67 -200
	66.6667 2866.67 -66.6667
	66.6667 2866.67 66.6667
	66.6667 2866.67 200
	66.6667 2866.67 333.333
	200 2866.67 -333.333
	200 2866.67 -200
	200 2866.67 -66.6667
	200 2866.67 66.6667
	200 2866.67 200
	200 2866.67 333.333
	333.333 2866.67 -333.333
	333.333 2866.67 -200
	333.333 2866.67 -66.6667
	333.333 2866.67 66.6667
	333.333 2866.67 200
	333.333 2866.67 333.333
	-333.333 3000 -333.333
	-333.333 3000 -200
	-333.333 3000 -66.6667
	-333.333 3000 66.6667
	-333.333 3000 200
	-333.333 3000 333.333
	-200 3000 -333.333
	-200 3000 -200
	-200 3000 -66.6667
	-200 3000 66.6667
	-200 3000 200
	-200 3000 333.333
	-66.6667 3000 -333.333
	-66.6667 3000 -200
	-66.6667 3000 -66.6667
	-66.6667 3000 66.6667
	-66.6667 3000 200
	-66.6667 3000 333.333
	66.6667 3000 -333.333
	66.6667 3000 -200
	66.6667 3000 -66.6667
	66.6667 3000 66.6667
	66.6667 3000 200
	66.6667 3000 333.333
	200 3000 -333.333
	200 3000 -200
	200 3000 -66.6667
	200 3000 66.6667
	200 3000 200
	200 3000 333.333
	333.333 3000 -333.333
	333.333 3000 -200
	333.333 3000 -66.6667
	333.333 3000 66.6667
	333.333 3000 200
	333.333 3000 333.333
	-333.333 3133.33 -333.333
	-333.333 3133.33 -200
	-333.333 3133.33 -66.6667
	-333.333 3133.33 66.6667
	-333.333 3133.33 200
	-333.333 3133.33 333.333
	-200 3133.33 -333.333
	-200 3133.33 -200
	-200 3133.33 -66.6667
	-200 3133.33 66.6667
	-200 3133.33 200
	-200 3133.33 333.333
	-66.6667 3133.33 -333.333
	-66.6667 3133.33 -200
	-66.6667 3133.33 -66.6667
	-66.6667 3133.33 66.6667
	-66.6667 3133.33 200
	-66.6667 3133.33 333.333
	66.6667 3133.33 -333.333
	66.6667 3133.33 -200
	66.6667 3133.33 -66.6667
	66.6667 3133.33 66.6667
	66.6667 3133.33 200
	66.6667 3133.33 333.333
	200 3133.33 -333.333
	200 3133.33 -200
	200 3133.33 -66.6667
	200 3133.33 66.6667
	200 3133.33 200
	200 3133.33 333.333
	333.333 3133.33 -333.333
	333.333 3133.33 -200
	333.333 3133.33 -66.6667
	333.333 3133.33 66.6667
	333.333 3133.33 200
	333.333 3133.33 333.333
	-333.333 3266.67 -333.333
	-333.333 3266.67 -200
	-333.333 3266.67 -66.6667
	-333.333 3266.67 66.6667
	-333.333 3266.67 200
	-333.333 3266.67 333.333
	-200 3266.67 -333.333
	-200 3266.67 -200
	-200 3266.67 -66.6667
	-200 3266.67 66.6667
	-200 3266.67 200
	-200 3266.67 333.333
	-66.6667 3266.67 -333.333
	-66.6667 3266.67 -200
	-66.6667 3266.67 -66.6667
	-66.6667 3266.67 66.6667
	-66.6667 3266.67 200
	-66.6667 3266.67 333.333
	66.6667 3266.67 -333.333
	66.6667 3266.67 -200
	66.6667 3266.67 -66.6667
	66.6667 3266.67 66.6667
	66.6667 3266.67 200
	66.6667 3266.67 333.333
	200 3266.67 -333.333
	200 3266.67 -200
	200 3266.67 -66.6667
	200 3266.67 66.6667
	200 3266.67 200
	200 3266.67 333.333
	333.333 3266.67 -333.333
	333.333 3266.67 -200
	333.333 3266.67 -66.6667
	333.333 3266.67 66.6667
	333.333 3266.67 200
	333.333 3266.67 333.333
	-333.333 3400 -333.333
	-333.333 3400 -200
	-333.333 3400 -66.6667
	-333.333 3400 66.6667
	-333.333 3400 200
	-333.333 3400 333.333
	-200 3400 -333.333
	-200 3400 -200
	-200 3400 -66.6667
	-200 3400 66.6667
	-200 3400 200
	-200 3400 333.333
	-66.6667 3400 -333.333
	-66.6667 3400 -200
	-66.6667 3400 -66.6667
	-66.6667 3400 66.6667
	-66.6667 3400 200
	-66.6667 3400 333.333
	66.6667 3400 -333.333
	66.6667 3400 -200
	66.6667 3400 -66.6667
	66.6667 3400 66.6667
	66.6667 3400 200
	66.6667 3400 333.333
	200 3400 -333.333
	200 3400 -200
	200 3400 -66.6667
	200 3400 66.6667
	200 3400 200
	200 3400 333.333
	333.333 3400 -333.333
	333.333 3400 -200
	333.333 3400 -66.6667
	333.333 3400 66.6667
	333.333 3400 200
	333.333 3400 333.333
	-333.333 3533.33 -333.333
	-333.333 3533.33 -200
	-333.333 3533.33 -66.6667
	-333.333 3533.33 66.6667
	-333.333 3533.33 200
	-333.333 3533.33 333.333
	-200 3533.33 -333.333
	-200 3533.33 -200
	-200 3533.33 -66.6667
	-200 3533.33 66.6667
	-200 3533.33 200
	-200 3533.33 333.333
	-66.6667 3533.33 -333.333
	-66.6667 3533.33 -200
	-66.6667 3533.33 -66.6667
	-66.6667 3533.33 66.6667
	-66.6667 3533.33 200
	-66.6667 3533.33 333.333
	66.6667 3533.33 -333.333
	66.6667 3533.33 -200
	66.6667 3533.33 -66.6667
	66.6667 3533.33 66.6667
	66.6667 3533.33 200
	66.6667 3533.33 333.333
	200 3533.33 -333.333
	200 3533.33 -200
	200 3533.33 -66.6667
	200 3533.33 66.6667
	200 3533.33 200
	200 3533.33 333.333
	333.333 3533.33 -333.333
	333.333 3533.33 -200
	333.333 3533.33 -66.6667
	333.333 3533.33 66.6667
	333.333 3533.33 200
	333.333 3533.33 333.333
	-333.333 3666.67 -333.333
	-333.333 3666.67 -200
	-333.333 3666.67 -66.6667
[...]
<PointData  Vectors="vector">
  <DataArray type="Float32" Name="Velocity" NumberOfComponents="3" format="ascii">
 3.33873e-14 5.14918e-12 2.41762e-14
 4.10031e-14 5.34573e-12 -5.96199e-15
 4.22922e-14 5.13206e-12 2.93619e-14
 3.91889e-14 5.13204e-12 -1.2517e-13
 3.35186e-14 5.34566e-12 2.61137e-14
 2.48589e-14 5.1491e-12 4.80347e-14
 -2.46723e-15 5.34573e-12 3.16051e-14
 -2.61546e-14 5.64811e-12 -3.05363e-14
 -1.81284e-14 5.31654e-12 7.74746e-14
 -2.11608e-14 5.31652e-12 -1.43806e-13
 -3.19344e-14 5.64804e-12 3.66491e-14
 -6.77978e-15 5.34565e-12 1.52427e-14
 2.71433e-14 5.13209e-12 3.67108e-14
 7.65898e-14 5.31656e-12 -2.05985e-14
 3.74215e-14 4.95483e-12 3.81123e-14
 3.44228e-14 4.95481e-12 -1.27347e-13
 7.26788e-14 5.3165e-12 4.35164e-14
 2.69847e-14 5.13201e-12 5.30748e-14
 -1.27372e-13 5.13209e-12 3.96697e-14
 -1.44676e-13 5.31656e-12 -1.98479e-14
 -1.28027e-13 4.95483e-12 3.67609e-14
 -1.31024e-13 4.95481e-12 -1.28693e-13
 -1.48583e-13 5.3165e-12 4.42826e-14
 -1.27526e-13 5.13201e-12 5.60529e-14
 2.96484e-14 5.34573e-12 3.6246e-14
 4.1064e-14 5.64811e-12 -2.86808e-14
 4.60091e-14 5.31654e-12 7.65292e-14
 4.29807e-14 5.31652e-12 -1.44736e-13
 3.52944e-14 5.64804e-12 3.85464e-14
 2.53487e-14 5.34565e-12 1.99338e-14
 5.72899e-14 5.14918e-12 2.61349e-14
 2.46775e-14 5.34573e-12 -3.95845e-15
 5.86803e-14 5.13206e-12 3.14203e-14
 5.55819e-14 5.13204e-12 -1.23093e-13
 1.72059e-14 5.34566e-12 2.81675e-14
 4.87772e-14 5.1491e-12 5.00543e-14
 3.59666e-14 -2.26244e-12 3.44663e-14
 4.44139e-14 -2.44103e-12 -5.57993e-15
 4.41941e-14 -2.42902e-12 -1.93216e-13
 4.22361e-14 -2.42895e-12 1.36083e-14
 3.95715e-14 -2.44089e-12 1.65032e-14
 3.07187e-14 -2.26225e-12 1.33189e-13
 -9.24854e-15 -2.44103e-12 4.20441e-14
 -4.54215e-14 -2.6632e-12 -4.34351e-14
 -3.35825e-14 -2.59815e-12 -5.59377e-14
 -3.54583e-14 -2.59808e-12 -8.92605e-14
 -4.84904e-14 -2.66311e-12 2.96496e-14
 -1.03324e-14 -2.44089e-12 7.6109e-14
 -2.01989e-13 -2.42907e-12 4.47443e-14
 -6.24455e-14 -2.59817e-12 -3.09661e-14
 -1.45873e-13 -2.50327e-12 -1.41258e-13
 -1.4761e-13 -2.5032e-12 -3.23288e-14
 -6.3458e-14 -2.59806e-12 3.58619e-14
 -1.98888e-13 -2.42891e-12 1.23768e-13
 4.85524e-15 -2.42907e-12 4.77916e-14
 -9.5748e-14 -2.59817e-12 -3.00744e-14
 -3.69232e-14 -2.50327e-12 -1.42518e-13
 -3.86564e-14 -2.5032e-12 -3.35868e-14
 -9.6752e-14 -2.59806e-12 3.67584e-14
 7.96678e-15 -2.42891e-12 1.26821e-13
 1.29083e-14 -2.44103e-12 4.72527e-14
 2.77469e-14 -2.6632e-12 -4.16048e-14
 3.33222e-14 -2.59815e-12 -5.76398e-14
 3.1455e-14 -2.59808e-12 -9.09574e-14
 2.47061e-14 -2.66311e-12 3.15073e-14
 1.18556e-14 -2.44089e-12 8.13398e-14
 1.3478e-13 -2.26244e-12 3.69146e-14
 7.85742e-14 -2.44103e-12 -4.33808e-15
 1.23311e-13 -2.42902e-12 -1.93111e-13
 1.21364e-13 -2.42895e-12 1.37196e-14
 7.37635e-14 -2.44089e-12 1.77679e-14
 1.29569e-13 -2.26225e-12 1.35657e-13
 3.23423e-14 -5.60152e-12 3.81601e-14
 3.64312e-14 -5.66022e-12 6.59936e-14
 3.77489e-14 -5.17273e-12 -9.08935e-14
 3.79238e-14 -5.17217e-12 -2.4672e-14
 3.70215e-14 -5.65872e-12 -3.74437e-14
 3.27257e-14 -5.59977e-12 9.38512e-14
 5.80096e-14 -5.66034e-12 4.06331e-14
 2.61651e-14 -6.12756e-12 3.17143e-14
 3.45517e-14 -5.24677e-12 9.46703e-15
 3.46145e-14 -5.24622e-12 -8.91806e-14
 2.75839e-14 -6.12607e-12 -2.90843e-14
 6.08799e-14 -5.6586e-12 3.76523e-14
 -1.00883e-13 -5.1733e-12 4.20203e-14
 2.69417e-15 -5.24722e-12 3.81538e-14
 -5.99552e-14 -5.45291e-12 -5.70779e-14
 -6.00452e-14 -5.45237e-12 -6.11593e-14
 4.83534e-15 -5.24576e-12 -2.20367e-14
 -9.56826e-14 -5.1716e-12 8.6098e-14
 -3.47494e-14 -5.1733e-12 4.48731e-14
 -9.60364e-14 -5.24722e-12 3.88129e-14
 -6.40982e-14 -5.45291e-12 -5.85511e-14
 -6.41898e-14 -5.45237e-12 -6.26574e-14
 -9.39003e-14 -5.24576e-12 -2.14461e-14
 -2.95542e-14 -5.1716e-12 8.88657e-14
 -4.56182e-14 -5.66034e-12 4.53527e-14
 -3.48065e-14 -6.12756e-12 3.26703e-14
 -2.57479e-14 -5.24677e-12 6.53467e-15
 -2.56894e-14 -5.24622e-12 -9.21803e-14
 -3.34009e-14 -6.12607e-12 -2.83324e-14
 -4.27613e-14 -5.6586e-12 4.21273e-14
 8.78742e-14 -5.60152e-12 4.05133e-14
 3.33155e-14 -5.66022e-12 6.60552e-14
 8.17657e-14 -5.17273e-12 -9.30947e-14
 8.1937e-14 -5.17217e-12 -2.69558e-14
 3.38947e-14 -5.65872e-12 -3.76234e-14
 8.82472e-14 -5.59977e-12 9.591e-14
 3.57503e-14 3.50828e-12 4.10042e-14
 3.8631e-14 3.25117e-12 1.39789e-13
 4.11125e-14 2.80337e-12 -1.59379e-13
 4.32525e-14 2.80468e-12 2.56323e-14
 4.28779e-14 3.25453e-12 -1.13552e-13
 3.94272e-14 3.51232e-12 9.68554e-14
 1.38735e-13 3.25088e-12 4.1789e-14
 1.06565e-13 3.1792e-12 1.05826e-13
 1.13519e-13 2.31464e-12 -8.5636e-14
 1.14722e-13 2.31591e-12 -2.26214e-14
 1.08847e-13 3.18251e-12 -1.05535e-13
 1.40309e-13 3.25482e-12 5.26208e-14
 -1.56179e-13 2.80209e-12 4.2058e-14
 -8.09254e-14 2.31365e-12 1.09901e-13
 -1.3508e-13 2.36062e-12 -1.43275e-13
 -1.34793e-13 2.36189e-12 -2.67093e-15
 -8.08467e-14 2.3169e-12 -1.00243e-13
 -1.56825e-13 2.80597e-12 9.32852e-14
 2.84768e-14 2.80209e-12 4.38744e-14
 -1.82409e-14 2.31365e-12 1.09804e-13
 5.23663e-15 2.36062e-12 -1.45321e-13
 5.50485e-15 2.36189e-12 -4.79069e-15
 -1.82098e-14 2.3169e-12 -1.0053e-13
 2.77725e-14 2.80597e-12 9.48601e-14
 -1.15397e-13 3.25088e-12 4.45979e-14
 -1.05523e-13 3.1792e-12 1.04962e-13
 -9.72227e-14 2.31464e-12 -9.04014e-14
 -9.60661e-14 2.31591e-12 -2.75739e-14
 -1.03359e-13 3.18251e-12 -1.06917e-13
 -1.13963e-13 3.25482e-12 5.47872e-14
 9.07796e-14 3.50828e-12 4.17991e-14
 4.8723e-14 3.25117e-12 1.37828e-13
 9.17548e-14 2.80337e-12 -1.64212e-13
 9.38407e-14 2.80468e-12 2.05639e-14
 5.28335e-14 3.25453e-12 -1.16149e-13
 9.42925e-14 3.51232e-12 9.68486e-14
 4.77617e-14 7.51436e-12 4.22201e-14
 5.18605e-14 5.92718e-12 2.06249e-13
 5.28624e-14 5.94248e-12 -3.1578e-13
 5.43065e-14 5.94074e-12 9.9996e-14
 5.28564e-14 5.92378e-12 -2.12629e-13
 4.52037e-14 7.50888e-12 1.27792e-13
 2.26946e-13 5.9295e-12 4.55402e-14
 1.97257e-13 5.28741e-12 1.77529e-13
 1.99669e-13 5.15158e-12 -2.16504e-13
 1.98826e-13 5.14953e-12 2.79455e-14
 1.91201e-13 5.28497e-12 -2.11827e-13
 2.15053e-13 5.92417e-12 7.35111e-14
 -2.80556e-13 5.94801e-12 4.44315e-14
 -1.83966e-13 5.15385e-12 1.79997e-13
 -2.58455e-13 5.46969e-12 -2.8872e-13
 -2.61661e-13 5.46719e-12 6.35345e-14
 -1.97333e-13 5.14964e-12 -2.04539e-13
 -3.01613e-13 5.94082e-12 1.17026e-13
 1.34819e-13 5.94801e-12 4.43393e-14
 6.00724e-14 5.15385e-12 1.78116e-13
 9.33951e-14 5.46969e-12 -2.92377e-13
 9.01731e-14 5.46719e-12 5.98493e-14
 4.66647e-14 5.14964e-12 -2.06501e-13
 1.13709e-13 5.94082e-12 1.16807e-13
 -1.93177e-13 5.9295e-12 4.39219e-14
 -1.93476e-13 5.28741e-12 1.71944e-13
 -1.86077e-13 5.15158e-12 -2.26248e-13
 -1.86957e-13 5.14953e-12 1.81207e-14
 -1.99716e-13 5.28497e-12 -2.17922e-13
 -2.05242e-13 5.92417e-12 7.13563e-14
 1.31937e-13 7.51436e-12 3.82289e-14
 7.8394e-14 5.92718e-12 1.98646e-13
 1.24145e-13 5.94248e-12 -3.27026e-13
 1.25544e-13 5.94074e-12 8.86257e-14
 7.92272e-14 5.92378e-12 -2.20762e-13
 1.29209e-13 7.50888e-12 1.2315e-13
 -9.36518e-14 4.81851e-11 -1.03856e-13
 -9.75608e-14 4.75358e-11 2.03227e-13
 -9.20689e-14 4.48029e-11 -4.45012e-13
 -9.34294e-14 4.4782e-11 2.26472e-13
 -1.04233e-13 4.74774e-11 -2.03397e-13
 -1.04756e-13 4.8114e-11 2.83993e-13
 2.32261e-13 4.7555e-11 -1.07114e-13
 2.05088e-13 4.50419e-11 1.79564e-13
 2.07983e-13 4.51274e-11 -3.6823e-13
 2.0422e-13 4.51044e-11 1.92068e-13
 1.91515e-13 4.49765e-11 -2.02641e-13
 2.12303e-13 4.74757e-11 2.32654e-13
 -3.96865e-13 4.48525e-11 -1.02412e-13
 -3.26339e-13 4.51603e-11 1.85484e-13
 -3.85845e-13 4.53924e-11 -4.20776e-13
 -3.919e-13 4.53673e-11 2.09247e-13
 -3.46228e-13 4.50891e-11 -1.96678e-13
 -4.25001e-13 4.47666e-11 2.71491e-13
 2.7566e-13 4.48525e-11 -1.0525e-13
 2.34926e-13 4.51603e-11 1.81685e-13
 2.44856e-13 4.53924e-11 -4.25278e-13
 2.38915e-13 4.53673e-11 2.05129e-13
 2.1534e-13 4.50891e-11 -1.99502e-13
 2.47879e-13 4.47666e-11 2.69762e-13
 -1.72173e-13 4.7555e-11 -1.1533e-13
 -1.75171e-13 4.50419e-11 1.69362e-13
 -1.73016e-13 4.51274e-11 -3.79426e-13
 -1.76469e-13 4.51044e-11 1.81841e-13
 -1.8786e-13 4.49765e-11 -2.10196e-13
 -1.91131e-13 4.74757e-11 2.27301e-13
 2.95917e-13 4.81851e-11 -1.14187e-13
 2.43607e-13 4.75358e-11 1.91298e-13
 2.82409e-13 4.48029e-11 -4.57667e-13
 2.81418e-13 4.4782e-11 2.14913e-13
 2.37954e-13 4.74774e-11 -2.12481e-13
 2.85988e-13 4.8114e-11 2.76768e-13
 -3.84441e-13 -2.27042e-10 -3.84416e-13
 -3.75724e-13 -2.13864e-10 8.01193e-14
 -3.69448e-13 -2.202e-10 -6.00338e-13
 -3.7281e-13 -2.20249e-10 3.83197e-13
 -3.84016e-13 -2.13995e-10 -6.31359e-14
 -3.94032e-13 -2.27207e-10 5.88183e-13
 8.64275e-14 -2.13822e-10 -3.75898e-13
 7.17279e-14 -1.83712e-10 6.67992e-14
 7.90934e-14 -1.87945e-10 -5.4398e-13
 7.55537e-14 -1.87998e-10 3.64705e-13
 6.48661e-14 -1.83856e-10 -6.58572e-14
 8.13551e-14 -2.14e-10 5.42586e-13
 -5.86182e-13 -2.20092e-10 -3.70722e-13
 -5.32677e-13 -1.87876e-10 7.56439e-14
 -5.73617e-13 -1.85548e-10 -5.80455e-13
 -5.77072e-13 -1.85606e-10 3.7776e-13
 -5.37022e-13 -1.88032e-10 -6.04437e-14
 -5.85671e-13 -2.20285e-10 5.74482e-13
 4.01516e-13 -2.20092e-10 -3.76237e-13
 3.7981e-13 -1.87876e-10 7.07705e-14
 3.87747e-13 -1.85548e-10 -5.84225e-13
 3.84655e-13 -1.85606e-10 3.75097e-13
 3.76365e-13 -1.88032e-10 -6.26225e-14
 4.03121e-13 -2.20285e-10 5.72195e-13
 -4.80775e-14 -2.13822e-10 -3.89029e-13
 -5.30014e-14 -1.83712e-10 5.56557e-14
 -5.08473e-14 -1.87945e-10 -5.51434e-13
 -5.3476e-14 -1.87998e-10 3.59942e-13
 -5.74777e-14 -1.83856e-10 -7.01111e-14
 -5.03269e-14 -2.14e-10 5.3742e-13
 5.96674e-13 -2.27042e-10 -3.99145e-13
 5.50223e-13 -2.13864e-10 6.88994e-14
 5.81227e-13 -2.202e-10 -6.06355e-13
 5.78984e-13 -2.20249e-10 3.80391e-13
 5.44785e-13 -2.13995e-10 -6.64109e-14
 5.90521e-13 -2.27207e-10 5.82732e-13
 -6.62283e-13 -1.55437e-09 -6.03442e-13
 -6.75917e-13 -1.53155e-09 -9.66228e-14
 -6.47066e-13 -1.51615e-09 -6.03175e-13
 -6.41916e-13 -1.51624e-09 4.44527e-13
 -6.4754e-13 -1.53173e-09 5.22243e-14
 -6.07496e-13 -1.55453e-09 8.36696e-13
 -2.74942e-13 -1.53211e-09 -6.3436e-13
 -2.19003e-13 -1.49723e-09 -8.68621e-14
 -2.28752e-13 -1.48073e-09 -6.61063e-13
 -1.83505e-13 -1.48079e-09 4.87629e-13
 -1.26904e-13 -1.49731e-09 9.37277e-14
 -7.09625e-14 -1.53174e-09 8.18156e-13
 -6.12724e-13 -1.51686e-09 -6.22807e-13
 -6.50385e-13 -1.48091e-09 -1.26718e-13
 -6.17947e-13 -1.45125e-09 -5.72473e-13
 -6.47232e-13 -1.45128e-09 4.49263e-13
 -6.69701e-13 -1.48084e-09 8.68604e-14
 -6.70631e-13 -1.5163e-09 8.45647e-13
 3.97626e-13 -1.51686e-09 -6.27248e-13
 3.97547e-13 -1.48091e-09 -1.31375e-13
 4.16026e-13 -1.45125e-09 -5.66422e-13
 4.27356e-13 -1.45128e-09 4.48359e-13
 4.56938e-13 -1.48084e-09 8.75691e-14
 4.81825e-13 -1.5163e-09 8.45153e-13
 1.02004e-14 -1.53211e-09 -6.51226e-13
 5.48047e-14 -1.49723e-09 -9.4089e-14
 5.11231e-14 -1.48073e-09 -6.5503e-13
 5.73574e-14 -1.48079e-09 4.96586e-13
 8.56419e-14 -1.49731e-09 9.95055e-14
 6.41047e-14 -1.53174e-09 8.19524e-13
 8.21937e-13 -1.55437e-09 -6.2644e-13
 8.04473e-13 -1.53155e-09 -3.62877e-13
 8.32188e-13 -1.51615e-09 -3.19773e-13
 8.3497e-13 -1.51624e-09 4.53457e-13
 8.19706e-13 -1.53173e-09 6.50129e-14
 8.50734e-13 -1.55453e-09 8.42345e-13
 -1.95347e-14 -3.24507e-09 2.02538e-13
 -8.98831e-15 -3.19928e-09 7.94323e-13
 2.9224e-14 -3.16749e-09 -5.74701e-13
 7.78218e-14 -3.16753e-09 2.78558e-13
 1.76795e-13 -3.19879e-09 -8.02373e-13
 2.55129e-13 -3.24434e-09 3.89571e-14
 5.83336e-13 -3.20089e-09 1.4902e-13
 5.92334e-13 -3.15308e-09 7.48816e-13
 6.26736e-13 -3.10795e-09 -5.27658e-13
 6.67627e-13 -3.10775e-09 2.81897e-13
 7.45309e-13 -3.15181e-09 -7.8864e-13
 8.2058e-13 -3.19881e-09 1.17084e-14
 -7.35744e-13 -3.17131e-09 1.04615e-13
 -6.75146e-13 -3.11023e-09 7.28293e-13
 -6.76038e-13 -3.0686e-09 -5.57179e-13
 -6.51516e-13 -3.06815e-09 3.07844e-13
 -5.6817e-13 -3.10773e-09 -7.49302e-13
 -5.80307e-13 -3.16764e-09 8.36092e-14
 1.28433e-13 -3.17131e-09 1.08887e-13
 1.46842e-13 -3.11023e-09 7.40338e-13
 1.86819e-13 -3.0686e-09 -5.40205e-13
 2.10382e-13 -3.06815e-09 3.22636e-13
 2.34898e-13 -3.10773e-09 -7.39045e-13
 2.67061e-13 -3.16764e-09 9.12044e-14
 -9.05017e-13 -3.20089e-09 1.39084e-13
 -8.90386e-13 -3.15308e-09 7.71528e-13
 -8.46261e-13 -3.10795e-09 -4.76344e-13
 -8.26684e-13 -3.10775e-09 3.32058e-13
 -8.16568e-13 -3.15181e-09 -7.50927e-13
 -7.94476e-13 -3.19881e-09 4.01495e-14
 -2.69422e-14 -3.24507e-09 1.66849e-13
 -6.08579e-14 -3.19928e-09 8.09702e-13
 1.04051e-14 -3.16749e-09 -5.09747e-13
 2.89327e-14 -3.16753e-09 3.48198e-13
 6.07081e-15 -3.19879e-09 -7.46751e-13
 6.9328e-14 -3.24434e-09 8.10947e-14
 1.33111e-12 -4.40613e-09 1.56886e-12
 1.31374e-12 -4.43083e-09 2.08724e-13
 1.39744e-12 -4.36179e-09 -3.59796e-13
 1.52051e-12 -4.36162e-09 2.25792e-13
 1.64788e-12 -4.42977e-09 -1.96355e-13
 1.8043e-12 -4.40296e-09 -1.8076e-12
 -6.14877e-13 -4.43648e-09 1.54563e-12
 -5.03027e-13 -4.4674e-09 -1.46211e-13
 -4.53501e-13 -4.38181e-09 -2.17214e-13
 -3.76608e-13 -4.38099e-09 2.11595e-13
 -1.08451e-13 -4.46304e-09 -1.8248e-13
 -1.30955e-13 -4.42981e-09 -1.74255e-12
 -2.85384e-13 -4.37276e-09 1.34277e-12
 -3.02443e-13 -4.38783e-09 -1.27779e-13
 -1.97538e-13 -4.30052e-09 -1.85066e-13
 -1.65281e-13 -4.29866e-09 1.23296e-13
 -2.1222e-13 -4.38078e-09 -7.18499e-14
 -7.1342e-15 -4.36143e-09 -1.64687e-12
 6.66993e-14 -4.37276e-09 1.27581e-12
 4.29085e-16 -4.38783e-09 -5.00197e-15
 -9.35419e-15 -4.30052e-09 -1.58489e-13
 2.44966e-14 -4.29866e-09 1.56611e-13
 2.47898e-13 -4.38078e-09 -4.75245e-14
 2.57416e-13 -4.36143e-09 -1.62606e-12
 -3.39997e-13 -4.43648e-09 1.21594e-12
 -2.50486e-13 -4.4674e-09 1.99835e-13
 -2.34922e-13 -4.38181e-09 -1.56913e-13
 -2.06505e-13 -4.38099e-09 3.54537e-13
 -2.98067e-13 -4.46304e-09 -1.16146e-13
 -2.69968e-13 -4.42981e-09 -1.67451e-12
 -1.91713e-12 -4.40613e-09 1.12084e-12
 -1.87384e-12 -4.43083e-09 5.74353e-13
 -1.79373e-12 -4.36179e-09 -2.81301e-13
 -1.75394e-12 -4.36162e-09 2.98564e-13
 -1.75136e-12 -4.42977e-09 -3.50763e-15
 -1.74568e-12 -4.40296e-09 -1.70913e-12
 3.18211e-12 -3.12391e-09 4.45629e-12
 3.12937e-12 -3.17702e-09 1.37003e-13
 3.46856e-12 -3.12255e-09 7.46756e-14
 3.75361e-12 -3.12151e-09 -5.96851e-13
 4.18871e-12 -3.17161e-09 -1.60195e-13
 4.63075e-12 -3.115e-09 -4.65411e-12
 -4.45241e-13 -3.19041e-09 3.96731e-12
 -6.25747e-13 -3.28032e-09 -5.42514e-13
 -5.04133e-13 -3.18692e-09 1.5743e-13
 -3.57615e-13 -3.1843e-09 8.09999e-14
 -3.76979e-13 -3.2692e-09 -8.10246e-13
 2.25055e-13 -3.17164e-09 -4.28885e-12
 -4.98572e-13 -3.14903e-09 3.67157e-12
 -7.56943e-13 -3.20053e-09 -5.89941e-13
 -4.93705e-13 -3.11397e-09 7.23627e-14
 -3.40685e-13 -3.11002e-09 -1.23912e-13
 -8.63566e-14 -3.18337e-09 -5.79286e-13
 -9.02592e-14 -3.12147e-09 -4.2914e-12
 -5.07693e-13 -3.14903e-09 3.69047e-12
 7.36523e-14 -3.20053e-09 -6.16744e-13
 -2.1841e-13 -3.11397e-09 2.01552e-13
 -9.55545e-14 -3.11002e-09 5.27997e-14
 -6.72123e-14 -3.18337e-09 -6.86124e-13
 -8.78952e-13 -3.12147e-09 -4.21077e-12
 -2.76037e-14 -3.19041e-09 3.72679e-12
 -5.90822e-14 -3.28032e-09 -8.94813e-13
 -9.22777e-15 -3.18692e-09 4.5724e-13
 -1.60342e-13 -3.1843e-09 4.224e-13
 -2.08615e-13 -3.2692e-09 -9.99058e-13
 6.2261e-14 -3.17164e-09 -4.16856e-12
 -4.82874e-12 -3.12391e-09 3.7637e-12
 -4.77845e-12 -3.17702e-09 -1.87421e-13
 -4.74602e-12 -3.12255e-09 -6.90968e-14
 -4.59689e-12 -3.12151e-09 6.60165e-14
 -4.48342e-12 -3.17161e-09 -6.63985e-13
 -4.48425e-12 -3.115e-09 -4.49545e-12
 3.7488e-12 1.20453e-10 5.91305e-12
 4.43138e-12 1.00194e-10 -3.3971e-12
 4.85696e-12 3.42371e-11 -4.75404e-12
 5.31977e-12 3.67625e-11 5.08123e-12
 5.75794e-12 1.11592e-10 3.41266e-12
 5.45807e-12 1.39289e-10 -6.15325e-12
 -4.74393e-12 7.841e-11 5.61026e-12
 -4.6478e-12 -4.49262e-11 -3.89013e-12
 -4.00764e-12 -4.6903e-11 -5.31279e-12
 -3.68596e-12 -4.20095e-11 5.23906e-12
 -3.78399e-12 -2.40728e-11 3.30207e-12
 -3.74565e-12 1.11508e-10 -6.69244e-12
 -5.27963e-12 -9.23251e-12 4.8677e-12
 -5.56308e-12 -7.02839e-11 -4.01446e-12
 -5.15821e-12 -9.68029e-11 -5.15007e-12
 -5.00353e-12 -8.93833e-11 4.86507e-12
 -5.31149e-12 -4.02796e-11 2.96399e-12
 -5.1386e-12 3.74561e-11 -6.69606e-12
 4.80714e-12 -9.23251e-12 4.66469e-12
 5.04158e-12 -7.02839e-11 -4.03542e-12
 4.78329e-12 -9.68029e-11 -5.04582e-12
 4.88697e-12 -8.93833e-11 4.92765e-12
 5.13629e-12 -4.02796e-11 2.97446e-12
 4.70147e-12 3.74561e-11 -6.71583e-12
 3.31719e-12 7.841e-11 4.10213e-12
 3.14153e-12 -4.49262e-11 -4.73407e-12
 2.80819e-12 -4.6903e-11 -5.45977e-12
 2.94535e-12 -4.20095e-11 5.06866e-12
 3.34578e-12 -2.40728e-11 3.03648e-12
 3.37891e-12 1.11508e-10 -7.01152e-12
 -6.06821e-12 1.20453e-10 3.0361e-12
 -6.75536e-12 1.00194e-10 -5.15942e-12
 -6.80916e-12 3.42371e-11 -5.42058e-12
 -6.61795e-12 3.67625e-11 4.53832e-12
 -6.35408e-12 1.11592e-10 2.80717e-12
 -5.71396e-12 1.39289e-10 -6.8068e-12
 2.89612e-11 2.41313e-08 3.17294e-11
 2.87002e-11 2.29758e-08 1.35805e-12
 2.94466e-11 2.29335e-08 -1.04276e-11
 2.99328e-11 2.29376e-08 1.10957e-11
 2.97731e-11 2.29938e-08 -1.07323e-12
 2.99351e-11 2.41611e-08 -3.12523e-11
 -3.25804e-13 2.29479e-08 2.98216e-11
 -1.30464e-12 2.15345e-08 -7.45536e-13
 -1.51504e-13 2.15584e-08 -1.11075e-11
 2.16448e-13 2.15651e-08 1.0855e-11
 -6.90922e-13 2.15629e-08 -2.55799e-13
 9.09966e-14 2.29935e-08 -3.10216e-11
 -1.08772e-11 2.28772e-08 2.85259e-11
 -1.10879e-11 2.15285e-08 -9.87222e-13
 -1.06198e-11 2.15899e-08 -1.12268e-11
 -1.04038e-11 2.15995e-08 1.01461e-11
 -1.09352e-11 2.15673e-08 -1.34743e-12
 -1.11497e-11 2.29385e-08 -3.14494e-11
 1.10838e-11 2.28772e-08 2.77675e-11
 1.09911e-11 2.15285e-08 -1.28074e-12
 1.0594e-11 2.15899e-08 -1.1276e-11
 1.07575e-11 2.15995e-08 1.00478e-11
 1.09833e-11 2.15673e-08 -1.52109e-12
 1.05845e-11 2.29385e-08 -3.16878e-11
 -3.3535e-13 2.29479e-08 2.56574e-11
 3.09698e-13 2.15345e-08 -3.38075e-12
 -6.81147e-13 2.15584e-08 -1.23591e-11
 -4.85455e-13 2.15651e-08 9.73898e-12
 4.35007e-13 2.15629e-08 -1.49618e-12
 -6.33642e-13 2.29935e-08 -3.24119e-11
 -2.97239e-11 2.41313e-08 2.42588e-11
 -2.98291e-11 2.29758e-08 -3.82023e-12
 -3.03093e-11 2.29335e-08 -1.32111e-11
 -3.00538e-11 2.29376e-08 8.77175e-12
 -2.95183e-11 2.29938e-08 -3.43665e-12
 -2.97243e-11 2.41611e-08 -3.37754e-11
 2.29528e-10 9.72424e-08 2.3186e-10
 2.16852e-10 9.58456e-08 1.29801e-10
 2.18934e-10 9.48153e-08 1.30589e-11
 2.19241e-10 9.48232e-08 -1.32054e-11
 2.16128e-10 9.58785e-08 -1.30807e-10
 2.28513e-10 9.72951e-08 -2.30067e-10
 1.29033e-10 9.58058e-08 2.16267e-10
 1.23067e-10 9.42578e-08 1.21534e-10
 1.24176e-10 9.32978e-08 3.13362e-12
 1.24085e-10 9.33086e-08 -5.80859e-12
 1.22596e-10 9.43031e-08 -1.25366e-10
 1.26917e-10 9.58769e-08 -2.18313e-10
 1.52674e-11 9.47343e-08 2.15033e-10
 6.56287e-12 9.32543e-08 1.19498e-10
 9.17637e-12 9.23207e-08 3.73637e-12
 9.04326e-12 9.23347e-08 -9.94237e-12
 4.96562e-12 9.33113e-08 -1.2711e-10
 1.18095e-11 9.4823e-08 -2.21127e-10
 -7.34505e-12 9.47343e-08 2.12693e-10
 -7.69776e-13 9.32543e-08 1.18012e-10
 -3.73653e-12 9.23207e-08 2.34866e-12
 -3.94113e-12 9.23347e-08 -1.06187e-11
 -2.07399e-12 9.33113e-08 -1.28112e-10
 -1.03978e-11 9.4823e-08 -2.22109e-10
 -1.25429e-10 9.58058e-08 2.05752e-10
 -1.20259e-10 9.42578e-08 1.12829e-10
 -1.2209e-10 9.32978e-08 -3.13033e-12
 -1.2191e-10 9.33086e-08 -1.00567e-11
 -1.21173e-10 9.43031e-08 -1.29469e-10
 -1.28277e-10 9.58769e-08 -2.23038e-10
 -2.25576e-10 9.72424e-08 2.14337e-10
 -2.13099e-10 9.58456e-08 1.15972e-10
 -2.16172e-10 9.48153e-08 1.54804e-12
 -2.16159e-10 9.48232e-08 -2.02185e-11
 -2.13677e-10 9.58785e-08 -1.37897e-10
 -2.25978e-10 9.72951e-08 -2.37931e-10
 7.29234e-10 9.30343e-08 7.29763e-10
 7.32546e-10 8.82907e-08 4.59702e-10
 7.19591e-10 9.1347e-08 1.27547e-10
 7.19373e-10 9.13579e-08 -1.30118e-10
 7.3104e-10 8.8333e-08 -4.60237e-10
 7.25962e-10 9.31016e-08 -7.28468e-10
 4.62544e-10 8.8236e-08 7.29473e-10
 4.62194e-10 7.98354e-08 4.57168e-10
 4.54234e-10 8.52149e-08 1.21969e-10
 4.53966e-10 8.52284e-08 -1.28725e-10
 4.60095e-10 7.98911e-08 -4.61715e-10
 4.58047e-10 8.83229e-08 -7.33432e-10
 1.33952e-10 9.1241e-08 7.11805e-10
 1.30513e-10 8.5156e-08 4.45523e-10
 1.28447e-10 8.92815e-08 1.17599e-10
 1.2818e-10 8.92981e-08 -1.29605e-10