<?xml version="1.0"?>
<!-- time 57.6749-->
<VTKFile type="UnstructuredGrid" version="0.1" byte_order="LittleEndian">
<UnstructuredGrid>
<Piece NumberOfPoints="3240" NumberOfCells="0">
<Points>
  <DataArray type="Float32" Name="Position" NumberOfComponents="3" format="ascii">
	-333.333 2066.29 -333.333
	-333.333 2066.28 -200
	-333.333 2066.26 -66.6667
	-333.333 2066.26 66.6667
	-333.333 2066.28 200
	-333.333 2066.29 333.333
	-200 2066.28 -333.333
	-200 2066.29 -200
	-200 2066.27 -66.6667
	-200 2066.27 66.6667
	-200 2066.29 200
	-200 2066.28 333.333
	-66.6667 2066.26 -333.333
	-66.6667 2066.27 -200
	-66.6667 2066.25 -66.6667
	-66.6667 2066.25 66.6667
	-66.6667 2066.27 200
	-66.6667 2066.26 333.333
	66.6667 2066.26 -333.333
	66.6667 2066.27 -200
	66.6667 2066.25 -66.6667
	66.6667 2066.25 66.6667
	66.6667 2066.27 200
	66.6667 2066.26 333.333
	200 2066.28 -333.333
	200 2066.29 -200
	200 2066.27 -66.6667
	200 2066.27 66.6667
	200 2066.29 200
	200 2066.28 333.333
	333.333 2066.29 -333.333
	333.333 2066.28 -200
	333.333 2066.26 -66.6667
	333.333 2066.26 66.6667
	333.333 2066.28 200
	333.333 2066.29 333.333
	-333.333 2199.69 -333.333
	-333.333 2199.69 -200
	-333.333 2199.68 -66.6667
	-333.333 2199.68 66.6667
	-333.333 2199.69 200
	-333.333 2199.69 333.333
	-200 2199.69 -333.333
	-200 2199.68 -200
	-200 2199.67 -66.6667
	-200 2199.67 66.6667
	-200 2199.68 200
	-200 2199.69 333.333
	-66.6667 2199.68 -333.333
	-66.6667 2199.67 -200
	-66.6667 2199.67 -66.6667
	-66.6667 2199.67 66.6667
	-66.6667 2199.67 200
	-66.6667 2199.68 333.333
	66.6667 2199.68 -333.333
	66.6667 2199.67 -200
	66.6667 2199.67 -66.6667
	66.6667 2199.67 66.6667
	66.6667 2199.67 200
	66.6667 2199.68 333.333
	200 2199.69 -333.333
	200 2199.68 -200
	200 2199.67 -66.6667
	200 2199.67 66.6667
	200 2199.68 200
	200 2199.69 333.333
	333.333 2199.69 -333.333
	333.333 2199.69 -200
	333.333 2199.68 -66.6667
	333.333 2199.68 66.6667
	333.333 2199.69 200
	333.333 2199.69 333.333
	-333.333 2333.02 -333.333
	-333.333 2333.02 -200
	-333.333 2333.02 -66.6667
	-333.333 2333.02 66.6667
	-333.333 2333.02 200
	-333.333 2333.02 333.333
	-200 2333.02 -333.333
	-200 2333.01 -200
	-200 2333.01 -66.6667
	-200 2333.01 66.6667
	-200 2333.01 200
	-200 2333.02 333.333
	-66.6667 2333.02 -333.333
	-66.6667 2333.01 -200
	-66.6667 2333 -66.6667
	-66.6667 2333 66.6667
	-66.6667 2333.01 200
	-66.6667 2333.02 333.333
	66.6667 2333.02 -333.333
	66.6667 2333.01 -200
	66.6667 2333 -66.6667
	66.6667 2333 66.6667
	66.6667 2333.01 200
	66.6667 2333.02 333.333
	200 2333.02 -333.333
	200 2333.01 -200
	200 2333.01 -66.6667
	200 2333.01 66.6667
	200 2333.01 200
	200 2333.02 333.333
	333.333 2333.02 -333.333
	333.333 2333.02 -200
	333.333 2333.02 -66.6667
	333.333 2333.02 66.6667
	333.333 2333.02 200
	333.333 2333.02 333.333
	-333.333 2466.35 -333.333
	-333.333 2466.35 -200
	-333.333 2466.35 -66.6667
	-333.333 2466.35 66.6667
	-333.333 2466.35 200
	-333.333 2466.35 333.333
	-200 2466.35 -333.333
	-200 2466.35 -200
	-200 2466.35 -66.6667
	-200 2466.35 66.6667
	-200 2466.35 200
	-200 2466.35 333.333
	-66.6667 2466.35 -333.333
	-66.6667 2466.35 -200
	-66.6667 2466.34 -66.6667
	-66.6667 2466.34 66.6667
	-66.6667 2466.35 200
	-66.6667 2466.35 333.333
	66.6667 2466.35 -333.333
	66.6667 2466.35 -200
	66.6667 2466.34 -66.6667
	66.6667 2466.34 66.6667
	66.6667 2466.35 200
	66.6667 2466.35 333.333
	200 2466.35 -333.333
	200 2466.35 -200
	200 2466.35 -66.6667
	200 2466.35 66.6667
	200 2466.35 200
	200 2466.35 333.333
	333.333 2466.35 -333.333
	333.333 2466.35 -200
	333.333 2466.35 -66.6667
	333.333 2466.35 66.6667
	333.333 2466.35 200
	333.333 2466.35 333.333
	-333.333 2599.69 -333.333
	-333.333 2599.68 -200
	-333.333 2599.68 -66.6667
	-333.333 2599.68 66.6667
	-333.333 2599.68 200
	-333.333 2599.69 333.333
	-200 2599.68 -333.333
	-200 2599.68 -200
	-200 2599.68 -66.6667
	-200 2599.68 66.6667
	-200 2599.68 200
	-200 2599.68 333.333
	-66.6667 2599.68 -333.333
	-66.6667 2599.68 -200
	-66.6667 2599.68 -66.6667
	-66.6667 2599.68 66.6667
	-66.6667 2599.68 200
	-66.6667 2599.68 333.333
	66.6667 2599.68 -333.333
	66.6667 2599.68 -200
	66.6667 2599.68 -66.6667
	66.6667 2599.68 66.6667
	66.6667 2599.68 200
	66.6667 2599.68 333.333
	200 2599.68 -333.333
	200 2599.68 -200
	200 2599.68 -66.6667
	200 2599.68 66.6667
	200 2599.68 200
	200 2599.68 333.333
	333.333 2599.69 -333.333
	333.333 2599.68 -200
	333.333 2599.68 -66.6667
	333.333 2599.68 66.6667
	333.333 2599.68 200
	333.333 2599.69 333.333
	-333.333 2733.02 -333.333
	-333.333 2733.01 -200
	-333.333 2733.02 -66.6667
	-333.333 2733.02 66.6667
	-333.333 2733.01 200
	-333.333 2733.02 333.333
	-200 2733.01 -333.333
	-200 2733.02 -200
	-200 2733.01 -66.6667
	-200 2733.01 66.6667
	-200 2733.02 200
	-200 2733.01 333.333
	-66.6667 2733.02 -333.333
	-66.6667 2733.01 -200
	-66.6667 2733.01 -66.6667
	-66.6667 2733.01 66.6667
	-66.6667 2733.01 200
	-66.6667 2733.02 333.333
	66.6667 2733.02 -333.333
	66.6667 2733.01 -200
	66.6667 2733.01 -66.6667
	66.6667 2733.01 66.6667
	66.6667 2733.01 200
	66.6667 2733.02 333.333
	200 2733.01 -333.333
	200 2733.02 -200
	200 2733.01 -66.6667
	200 2733.01 66.6667
	200 2733.02 200
	200 2733.01 333.333
	333.333 2733.02 -333.333
	333.333 2733.01 -200
	333.333 2733.02 -66.6667
	333.333 2733.02 66.6667
	333.333 2733.01 200
	333.333 2733.02 333.333
	-333.333 2866.35 -333.333
	-333.333 2866.35 -200
	-333.333 2866.35 -66.6667
	-333.333 2866.35 66.6667
	-333.333 2866.35 200
	-333.333 2866.35 333.333
	-200 2866.35 -333.333
	-200 2866.35 -200
	-200 2866.35 -66.6667
	-200 2866.35 66.6667
	-200 2866.35 200
	-200 2866.35 333.333
	-66.6667 2866.35 -333.333
	-66.6667 2866.35 -200
	-66.6667 2866.34 -66.6667
	-66.6667 2866.34 66.6667
	-66.6667 2866.35 200
	-66.6667 2866.35 333.333
	66.6667 2866.35 -333.333
	66.6667 2866.35 -200
	66.6667 2866.34 -66.6667
	66.6667 2866.34 66.6667
	66.6667 2866.35 200
	66.6667 2866.35 333.333
	200 2866.35 -333.333
	200 2866.35 -200
	200 2866.35 -66.6667
	200 2866.35 66.6667
	200 2866.35 200
	200 2866.35 333.333
	333.333 2866.35 -333.333
	333.333 2866.35 -200
	333.333 2866.35 -66.6667
	333.333 2866.35 66.6667
	333.333 2866.35 200
	333.333 2866.35 333.333
	-333.333 2999.68 -333.333
	-333.333 2999.68 -200
	-333.333 2999.68 -66.6667
	-333.333 2999.68 66.6667
	-333.333 2999.68 200
	-333.333 2999.68 333.333
	-200 2999.68 -333.333
	-200 2999.68 -200
	-200 2999.68 -66.6667
	-200 2999.68 66.6667
	-200 2999.68 200
	-200 2999.68 333.333
	-66.6667 2999.68 -333.333
	-66.6667 2999.68 -200
	-66.6667 2999.68 -66.6667
	-66.6667 2999.68 66.6667
	-66.6667 2999.68 200
	-66.6667 2999.68 333.333
	66.6667 2999.68 -333.333
	66.6667 2999.68 -200
	66.6667 2999.68 -66.6667
	66.6667 2999.68 66.6667
	66.6667 2999.68 200
	66.6667 2999.68 333.333
	200 2999.68 -333.333
	200 2999.68 -200
	200 2999.68 -66.6667
	200 2999.68 66.6667
	200 2999.68 200
	200 2999.68 333.333
	333.333 2999.68 -333.333
	333.333 2999.68 -200
	333.333 2999.68 -66.6667
	333.333 2999.68 66.6667
	333.333 2999.68 200
	333.333 2999.68 333.333
	-333.333 3133.02 -333.333
	-333.333 3133.01 -200
	-333.333 3133.01 -66.6667
	-333.333 3133.01 66.6667
	-333.333 3133.01 200
	-333.333 3133.02 333.333
	-200 3133.01 -333.333
	-200 3133.01 -200
	-200 3133.01 -66.6667
	-200 3133.01 66.6667
	-200 3133.01 200
	-200 3133.01 333.333
	-66.6667 3133.01 -333.333
	-66.6667 3133.01 -200
	-66.6667 3133.01 -66.6667
	-66.6667 3133.01 66.6667
	-66.6667 3133.01 200
	-66.6667 3133.01 333.333
	66.6667 3133.01 -333.333
	66.6667 3133.01 -200
	66.6667 3133.01 -66.6667
	66.6667 3133.01 66.6667
	66.6667 3133.01 200
	66.6667 3133.01 333.333
	200 3133.01 -333.333
	200 3133.01 -200
	200 3133.01 -66.6667
	200 3133.01 66.6667
	200 3133.01 200
	200 3133.01 333.333
	333.333 3133.02 -333.333
	333.333 3133.01 -200
	333.333 3133.01 -66.6667
	333.333 3133.01 66.6667
	333.333 3133.01 200
	333.333 3133.02 333.333
	-333.333 3266.35 -333.333
	-333.333 3266.35 -200
	-333.333 3266.34 -66.6667
	-333.333 3266.34 66.6667
	-333.333 3266.35 200
	-333.333 3266.35 333.333
	-200 3266.35 -333.333
	-200 3266.34 -200
	-200 3266.34 -66.6667
	-200 3266.34 66.6667
	-200 3266.34 200
	-200 3266.35 333.333
	-66.6667 3266.34 -333.333
	-66.6667 3266.34 -200
	-66.6667 3266.34 -66.6667
	-66.6667 3266.34 66.6667
	-66.6667 3266.34 200
	-66.6667 3266.34 333.333
	66.6667 3266.34 -333.333
	66.6667 3266.34 -200
	66.6667 3266.34 -66.6667
	66.6667 3266.34 66.6667
	66.6667 3266.34 200
	66.6667 3266.34 333.333
	200 3266.35 -333.333
	200 3266.34 -200
	200 3266.34 -66.6667
	200 3266.34 66.6667
	200 3266.34 200
	200 3266.35 333.333
	333.333 3266.35 -333.333
	333.333 3266.35 -200
	333.333 3266.34 -66.6667
	333.333 3266.34 66.6667
	333.333 3266.35 200
	333.333 3266.35 333.333
	-333.333 3399.69 -333.333
	-333.333 3399.68 -200
	-333.333 3399.68 -66.6667
	-333.333 3399.68 66.6667
	-333.333 3399.68 200
	-333.333 3399.69 333.333
	-200 3399.68 -333.333
	-200 3399.68 -200
	-200 3399.67 -66.6667
	-200 3399.67 66.6667
	-200 3399.68 200
	-200 3399.68 333.333
	-66.6667 3399.68 -333.333
	-66.6667 3399.67 -200
	-66.6667 3399.68 -66.6667
	-66.6667 3399.68 66.6667
	-66.6667 3399.67 200
	-66.6667 3399.68 333.333
	66.6667 3399.68 -333.333
	66.6667 3399.67 -200
	66.6667 3399.68 -66.6667
	66.6667 3399.68 66.6667
	66.6667 3399.67 200
	66.6667 3399.68 333.333
	200 3399.68 -333.333
	200 3399.68 -200
	200 3399.67 -66.6667
	200 3399.67 66.6667
	200 3399.68 200
	200 3399.68 333.333
	333.333 3399.69 -333.333
	333.333 3399.68 -200
	333.333 3399.68 -66.6667
	333.333 3399.68 66.6667
	333.333 3399.68 200
	333.333 3399.69 333.333
	-333.333 3533.02 -333.333
	-333.333 3533.01 -200
	-333.333 3533.01 -66.6667
	-333.333 3533.01 66.6667
	-333.333 3533.01 200
	-333.333 3533.02 333.333
	-200 3533.01 -333.333
	-200 3533.01 -200
	-200 3533.01 -66.6667
	-200 3533.01 66.6667
	-200 3533.01 200
	-200 3533.01 333.333
	-66.6667 3533.01 -333.333
	-66.6667 3533.01 -200
	-66.6667 3533.01 -66.6667
	-66.6667 3533.01 66.6667
	-66.6667 3533.01 200
	-66.6667 3533.01 333.333
	66.6667 3533.01 -333.333
	66.6667 3533.01 -200
[...]
<PointData  Vectors="vector">
  <DataArray type="Float32" Name="Velocity" NumberOfComponents="3" format="ascii">
 1.99074e-05 0.000158839 1.99037e-05
 1.60787e-05 0.000683023 1.9045e-05
 9.24967e-06 0.000292615 -9.8119e-06
 9.24972e-06 0.000292615 9.81266e-06
 1.60784e-05 0.000683024 -1.9045e-05
 1.99048e-05 0.000158839 -1.99031e-05
 1.90452e-05 0.000683023 1.60748e-05
 1.80645e-05 0.00219602 1.80639e-05
 1.61245e-05 0.00129473 -1.05213e-05
 1.61245e-05 0.00129473 1.05204e-05
 1.8064e-05 0.00219602 -1.80638e-05
 1.90452e-05 0.000683024 -1.60734e-05
 -9.81142e-06 0.000292614 9.24592e-06
 -1.0592e-05 0.00129473 1.61239e-05
 -8.43817e-06 0.00079383 -8.43388e-06
 -8.43874e-06 0.00079383 8.43141e-06
 -1.05893e-05 0.00129473 -1.6124e-05
 -9.81402e-06 0.000292615 -9.24338e-06
 9.80862e-06 0.000292614 9.24671e-06
 1.05885e-05 0.00129473 1.61245e-05
 8.43441e-06 0.00079383 -8.43444e-06
 8.43528e-06 0.00079383 8.43185e-06
 1.05861e-05 0.00129473 -1.61246e-05
 9.81091e-06 0.000292615 -9.244e-06
 -1.90456e-05 0.000683022 1.60763e-05
 -1.80649e-05 0.00219602 1.80652e-05
 -1.61247e-05 0.00129473 -1.05923e-05
 -1.61247e-05 0.00129473 1.0591e-05
 -1.80641e-05 0.00219602 -1.80653e-05
 -1.90451e-05 0.000683024 -1.60745e-05
 -1.99048e-05 0.000158839 1.99044e-05
 -1.60751e-05 0.000683023 1.90464e-05
 -9.2459e-06 0.000292615 -9.81269e-06
 -9.24644e-06 0.000292616 9.81282e-06
 -1.60754e-05 0.000683024 -1.90474e-05
 -1.9902e-05 0.00015884 -1.9903e-05
 9.37105e-07 -0.00120985 9.35642e-07
 -4.84017e-06 -0.00104522 1.81224e-05
 -7.37364e-06 -0.00145745 5.7081e-06
 -7.37413e-06 -0.00145745 -5.70763e-06
 -4.83477e-06 -0.00104522 -1.81231e-05
 9.47398e-07 -0.00120988 -9.34256e-07
 1.81313e-05 -0.00104522 -4.8557e-06
 1.46741e-05 -0.00199926 1.46715e-05
 1.18488e-05 -0.00232948 9.99194e-06
 1.1849e-05 -0.00232949 -9.98918e-06
 1.46733e-05 -0.00199925 -1.4671e-05
 1.81267e-05 -0.00104522 4.85293e-06
 5.69003e-06 -0.00145744 -7.39064e-06
 9.96652e-06 -0.00232949 1.18459e-05
 8.85387e-06 -0.00162284 8.88004e-06
 8.85427e-06 -0.00162284 -8.88268e-06
 9.95736e-06 -0.00232949 -1.18453e-05
 5.66776e-06 -0.00145745 7.39264e-06
 -5.69307e-06 -0.00145744 -7.39038e-06
 -9.97047e-06 -0.00232948 1.18465e-05
 -8.85341e-06 -0.00162284 8.87955e-06
 -8.85359e-06 -0.00162284 -8.88224e-06
 -9.96084e-06 -0.00232949 -1.18456e-05
 -5.67227e-06 -0.00145745 7.39221e-06
 -1.81317e-05 -0.00104522 -4.85466e-06
 -1.46744e-05 -0.00199926 1.46731e-05
 -1.18466e-05 -0.00232949 9.99002e-06
 -1.18466e-05 -0.00232949 -9.98718e-06
 -1.46721e-05 -0.00199925 -1.46726e-05
 -1.81246e-05 -0.00104522 4.85179e-06
 -9.34431e-07 -0.00120987 9.32157e-07
 4.84395e-06 -0.00104522 1.81235e-05
 7.37059e-06 -0.00145745 5.71898e-06
 7.3706e-06 -0.00145745 -5.71773e-06
 4.83646e-06 -0.00104522 -1.81244e-05
 -9.45753e-07 -0.00120987 -9.31641e-07
 4.05937e-06 -0.00250391 4.05406e-06
 8.14783e-06 -0.000390119 -4.98892e-06
 4.2124e-06 0.000913046 3.12825e-05
 4.21067e-06 0.000913048 -3.12792e-05
 8.14528e-06 -0.000390111 4.98652e-06
 4.05561e-06 -0.0025039 -4.05399e-06
 -4.9889e-06 -0.000390109 8.26411e-06
 -6.78263e-06 -0.000928088 -6.76705e-06
 -6.96269e-06 0.00030513 2.65439e-05
 -6.95429e-06 0.00030513 -2.66636e-05
 -6.7832e-06 -0.000928092 6.76925e-06
 -4.99654e-06 -0.000390107 -8.14626e-06
 3.12859e-05 0.000913054 4.20913e-06
 2.66663e-05 0.000305129 -6.95093e-06
 2.74138e-05 -0.00229941 2.74025e-05
 2.73977e-05 -0.00229941 -2.73199e-05
 2.66637e-05 0.00030513 6.99365e-06
 3.12889e-05 0.000913064 -4.33455e-06
 -3.12851e-05 0.000913047 4.20952e-06
 -2.66686e-05 0.00030513 -6.95044e-06
 -2.73239e-05 -0.0022994 2.74023e-05
 -2.73925e-05 -0.00229941 -2.73194e-05
 -2.66664e-05 0.000305131 6.99291e-06
 -3.12875e-05 0.000913058 -4.33481e-06
 4.98468e-06 -0.000390117 8.26503e-06
 6.78081e-06 -0.000928087 -6.76628e-06
 6.99463e-06 0.00030513 2.65448e-05
 6.94442e-06 0.000305131 -2.66646e-05
 6.78133e-06 -0.000928092 6.7688e-06
 4.98993e-06 -0.000390102 -8.14733e-06
 -4.0568e-06 -0.0025039 4.05592e-06
 -8.14411e-06 -0.000390103 -4.98849e-06
 -4.33443e-06 0.000913063 3.12838e-05
 -4.20618e-06 0.000913065 -3.128e-05
 -8.14117e-06 -0.000390093 4.98465e-06
 -4.05107e-06 -0.0025039 -4.05508e-06
 -6.33201e-06 -0.00390234 -6.34015e-06
 -2.7645e-07 -0.0029528 -1.77226e-05
 -8.42968e-06 -0.0025642 -1.36831e-05
 -8.42855e-06 -0.0025642 1.36866e-05
 -2.80391e-07 -0.0029528 1.77182e-05
 -6.33194e-06 -0.00390234 6.34158e-06
 -1.77196e-05 -0.00295281 -2.82422e-07
 -1.56186e-05 -0.00456632 -1.56182e-05
 -1.39856e-05 -0.00387988 -1.04615e-05
 -1.39907e-05 -0.00387988 1.04671e-05
 -1.56158e-05 -0.00456632 1.56123e-05
 -1.75666e-05 -0.00295281 2.8289e-07
 -1.36854e-05 -0.00256422 -8.43779e-06
 -1.0468e-05 -0.00387988 -1.39923e-05
 -7.40086e-06 -0.00369338 -7.38581e-06
 -7.39987e-06 -0.00369338 7.38268e-06
 -1.04753e-05 -0.00387988 1.40008e-05
 -1.37322e-05 -0.00256422 8.43253e-06
 1.36827e-05 -0.0025642 -8.43557e-06
 1.0459e-05 -0.00387988 -1.39955e-05
 7.41098e-06 -0.00369338 -7.38447e-06
 7.41194e-06 -0.00369338 7.38255e-06
 1.04577e-05 -0.00387988 1.40003e-05
 1.36399e-05 -0.00256421 8.43283e-06
 1.77214e-05 -0.00295279 -2.83989e-07
 1.56283e-05 -0.00456632 -1.5612e-05
 1.39505e-05 -0.00387988 -1.04654e-05
 1.39506e-05 -0.00387988 1.04668e-05
 1.56339e-05 -0.00456631 1.5611e-05
 1.78075e-05 -0.00295281 2.83964e-07
 6.33239e-06 -0.00390234 -6.3413e-06
 2.75627e-07 -0.00295281 -1.77188e-05
 8.45501e-06 -0.00256422 -1.36864e-05
 8.45703e-06 -0.00256422 1.36835e-05
 2.8011e-07 -0.00295282 1.7721e-05
 6.18329e-06 -0.00390233 6.34248e-06
 -3.48795e-05 -0.00170206 -3.4888e-05
 -2.18224e-05 -0.00336254 -1.88911e-05
 -1.95547e-05 0.00117979 -4.15822e-06
 -1.95531e-05 0.00117979 4.16258e-06
 -2.18215e-05 -0.00336254 1.88849e-05
 -3.48822e-05 -0.00170206 3.48896e-05
 -1.8893e-05 -0.00336254 -2.18216e-05
 -2.57559e-05 0.00168511 -2.57602e-05
 -1.83011e-05 0.00151269 1.98059e-07
 -1.83027e-05 0.00151269 -1.9838e-07
 -2.57534e-05 0.00168511 2.57583e-05
 -1.88892e-05 -0.00336255 2.1824e-05
 -4.19243e-06 0.00117979 -1.9478e-05
 1.95391e-07 0.00151269 -1.84211e-05
 7.28465e-07 -0.00135787 7.53313e-07
 7.28647e-07 -0.00135787 -7.55217e-07
 1.94488e-07 0.00151269 1.84408e-05
 -4.19326e-06 0.00117979 1.9461e-05
 4.19072e-06 0.00117979 -1.94765e-05
 -1.95166e-07 0.00151268 -1.84224e-05
 -7.28568e-07 -0.00135787 7.53789e-07
 -7.29033e-07 -0.00135787 -7.5575e-07
 -1.95453e-07 0.00151268 1.84416e-05
 4.18508e-06 0.00117979 1.94601e-05
 1.8892e-05 -0.00336254 -2.18208e-05
 2.57576e-05 0.00168511 -2.57601e-05
 1.82876e-05 0.00151268 1.9964e-07
 1.82847e-05 0.00151268 -2.00054e-07
 2.57556e-05 0.00168511 2.57584e-05
 1.88943e-05 -0.00336254 2.18234e-05
 3.48814e-05 -0.00170206 -3.48843e-05
 2.18202e-05 -0.00336254 -1.88882e-05
 1.95688e-05 0.00117979 -4.16046e-06
 1.95721e-05 0.00117979 4.1604e-06
 2.18206e-05 -0.00336254 1.8882e-05
 3.48851e-05 -0.00170206 3.48905e-05
 -1.88921e-05 -0.00239876 -1.89399e-05
 -1.98422e-05 -0.00289113 5.55669e-06
 -1.3117e-05 -0.00118473 -1.41469e-05
 -1.31096e-05 -0.00118472 1.4146e-05
 -1.98218e-05 -0.00289112 -5.54027e-06
 -1.88785e-05 -0.00239877 1.89237e-05
 5.48636e-06 -0.00289113 -1.98259e-05
 1.41173e-05 -0.000155471 1.40908e-05
 1.22183e-05 0.000437928 4.43591e-06
 1.22122e-05 0.000437927 -4.43752e-06
 1.41004e-05 -0.000155473 -1.40737e-05
 5.48227e-06 -0.00289113 1.98107e-05
 -1.4234e-05 -0.00118472 -1.31135e-05
 4.42144e-06 0.000437926 1.22168e-05
 -9.13584e-06 -0.00228935 -9.15492e-06
 -9.13702e-06 -0.00228935 9.15003e-06
 4.42911e-06 0.000437923 -1.21899e-05
 -1.42341e-05 -0.00118472 1.30928e-05
 1.42345e-05 -0.00118473 -1.3112e-05
 -4.42081e-06 0.000437924 1.22172e-05
 9.13924e-06 -0.00228935 -9.15617e-06
 9.14141e-06 -0.00228935 9.15022e-06
 -4.42711e-06 0.000437922 -1.21882e-05
 1.42343e-05 -0.00118472 1.30903e-05
 -5.49113e-06 -0.00289113 -1.9821e-05
 -1.4128e-05 -0.000155476 1.40922e-05
 -1.22336e-05 0.000437921 4.43629e-06
 -1.22369e-05 0.00043792 -4.44001e-06
 -1.41204e-05 -0.00015548 -1.40739e-05
 -5.49597e-06 -0.00289112 1.9807e-05
 1.88952e-05 -0.00239876 -1.8935e-05
 1.98517e-05 -0.00289112 5.56046e-06
 1.31291e-05 -0.00118472 -1.41463e-05
 1.31302e-05 -0.00118472 1.41435e-05
 1.98398e-05 -0.00289112 -5.54406e-06
 1.88915e-05 -0.00239877 1.89211e-05
 -2.69163e-05 0.000300189 -2.69157e-05
 -2.32171e-05 0.00174041 -1.00152e-05
 -2.01906e-05 -0.00177746 -2.39535e-05
 -2.01878e-05 -0.00177746 2.38819e-05
 -2.32101e-05 0.00174041 1.00742e-05
 -2.6922e-05 0.000300187 2.69277e-05
 -1.00165e-05 0.00174041 -2.32154e-05
 -8.90069e-06 -0.000446715 -8.90143e-06
 -3.93258e-06 -0.000767169 -2.44012e-05
 -3.92848e-06 -0.000767169 2.44138e-05
 -8.89482e-06 -0.000446713 8.89396e-06
 -1.00718e-05 0.00174041 2.32105e-05
 -2.38805e-05 -0.00177746 -2.01878e-05
 -2.44088e-05 -0.000767167 -3.92654e-06
 -2.30795e-05 -0.000569539 -2.30699e-05
 -2.3079e-05 -0.000569536 2.30728e-05
 -2.4407e-05 -0.000767165 3.92806e-06
 -2.40591e-05 -0.00177746 2.01846e-05
 2.38799e-05 -0.00177745 -2.0186e-05
 2.44097e-05 -0.000767167 -3.92449e-06
 2.30767e-05 -0.000569539 -2.30697e-05
 2.30744e-05 -0.000569537 2.3071e-05
 2.44112e-05 -0.000767165 3.92668e-06
 2.4061e-05 -0.00177746 2.01838e-05
 1.00159e-05 0.00174041 -2.321e-05
 8.89923e-06 -0.000446708 -8.89807e-06
 3.9352e-06 -0.000767167 -2.4402e-05
 3.93289e-06 -0.000767166 2.44117e-05
 8.89027e-06 -0.000446708 8.89047e-06
 1.00685e-05 0.00174041 2.32083e-05
 2.69164e-05 0.000300185 -2.69254e-05
 2.32172e-05 0.0017404 -1.00707e-05
 2.01909e-05 -0.00177745 -2.40568e-05
 2.01882e-05 -0.00177745 2.40566e-05
 2.32103e-05 0.0017404 1.00712e-05
 2.69228e-05 0.000300189 2.69248e-05
 -2.52386e-05 0.00114726 -2.52124e-05
 -3.208e-05 0.000182467 -1.20338e-05
 -2.63423e-05 0.000158943 -7.67979e-06
 -2.63417e-05 0.000158946 7.66684e-06
 -3.20755e-05 0.00018247 1.20487e-05
 -2.52063e-05 0.00114727 2.52101e-05
 -1.20123e-05 0.000182473 -3.20859e-05
 -5.57202e-06 -6.71919e-05 -5.55196e-06
 -4.84099e-06 0.000844088 -2.56329e-06
 -4.83841e-06 0.000844087 2.56162e-06
 -5.56295e-06 -6.71914e-05 5.54927e-06
 -1.20361e-05 0.000182471 3.20905e-05
 -7.68061e-06 0.00015895 -2.63428e-05
 -2.55122e-06 0.000844089 -4.83463e-06
 -4.05971e-06 0.00158621 -4.06542e-06
 -4.05829e-06 0.00158621 4.06015e-06
 -2.55026e-06 0.000844087 4.83533e-06
 -7.66916e-06 0.000158949 2.63484e-05
 7.68633e-06 0.000158948 -2.63414e-05
 2.55372e-06 0.00084409 -4.83365e-06
 4.06407e-06 0.00158621 -4.06522e-06
 4.06286e-06 0.00158621 4.05867e-06
 2.55336e-06 0.000844088 4.83498e-06
 7.67367e-06 0.000158949 2.63476e-05
 1.2029e-05 0.000182468 -3.20835e-05
 5.57317e-06 -6.71883e-05 -5.54982e-06
 4.84064e-06 0.000844088 -2.55896e-06
 4.83841e-06 0.000844088 2.55819e-06
 5.56181e-06 -6.71919e-05 5.54924e-06
 1.20318e-05 0.000182474 3.20852e-05
 2.52152e-05 0.00114727 -2.52083e-05
 3.20759e-05 0.000182476 -1.20324e-05
 2.63383e-05 0.000158952 -7.67585e-06
 2.63372e-05 0.000158953 7.66909e-06
 3.20733e-05 0.000182478 1.20393e-05
 2.52057e-05 0.00114726 2.52078e-05
 -6.14662e-06 0.00142204 -6.14575e-06
 -5.52689e-06 -0.00184501 -1.28765e-05
 -4.43831e-06 -0.00499729 -9.39811e-06
 -4.43731e-06 -0.00499729 9.39802e-06
 -5.52397e-06 -0.00184502 1.28778e-05
 -6.14266e-06 0.00142204 6.14446e-06
 -1.28733e-05 -0.00184501 -5.526e-06
 -1.09769e-05 -0.00254961 -1.0975e-05
 -9.61201e-06 -0.000284397 -1.28036e-05
 -9.61104e-06 -0.000284395 1.28045e-05
 -1.0974e-05 -0.00254961 1.09753e-05
 -1.28721e-05 -0.00184501 5.52516e-06
 -9.40301e-06 -0.00499729 -4.4375e-06
 -1.28042e-05 -0.000284395 -9.61057e-06
 -1.14187e-05 0.00121055 -1.14186e-05
 -1.14184e-05 0.00121055 1.14192e-05
 -1.28032e-05 -0.000284391 9.61092e-06
 -9.39941e-06 -0.00499729 4.43728e-06
 9.40119e-06 -0.00499729 -4.43686e-06
 1.28039e-05 -0.000284396 -9.61021e-06
 1.14186e-05 0.00121055 -1.14186e-05
 1.14183e-05 0.00121055 1.14189e-05
 1.28029e-05 -0.000284391 9.61052e-06
 9.39745e-06 -0.00499729 4.43703e-06
 1.28745e-05 -0.00184502 -5.52432e-06
 1.09769e-05 -0.00254961 -1.09736e-05
 9.61199e-06 -0.000284392 -1.28038e-05
 9.61106e-06 -0.00028439 1.28035e-05
 1.09741e-05 -0.00254961 1.0974e-05
 1.28737e-05 -0.00184502 5.52455e-06
 6.1463e-06 0.00142204 -6.14332e-06
 5.52667e-06 -0.00184503 -1.2877e-05
 4.43822e-06 -0.0049973 -9.39643e-06
 4.43723e-06 -0.0049973 9.39581e-06
 5.5239e-06 -0.00184502 1.28773e-05
 6.14259e-06 0.00142203 6.14348e-06
 -4.9969e-06 7.37883e-06 -4.99634e-06
 -5.64868e-06 0.000250136 2.41102e-06
 -4.8362e-06 -6.5713e-05 -5.55539e-06
 -4.83611e-06 -6.5713e-05 5.55589e-06
 -5.64896e-06 0.000250133 -2.41122e-06
 -4.99629e-06 7.38166e-06 4.99619e-06
 2.41e-06 0.000250133 -5.6535e-06
 3.56673e-06 -0.00232398 3.57033e-06
 3.20702e-06 -0.00532548 -6.43218e-06
 3.20746e-06 -0.00532548 6.43305e-06
 3.56838e-06 -0.00232398 -3.56956e-06
 2.41175e-06 0.000250133 5.65226e-06
 -5.55173e-06 -6.57105e-05 -4.83852e-06
 -6.43528e-06 -0.00532548 3.20947e-06
 -7.12619e-06 0.00317001 -7.12607e-06
 -7.12604e-06 0.00317002 7.12646e-06
 -6.43441e-06 -0.00532548 -3.20823e-06
 -5.55214e-06 -6.57075e-05 4.83753e-06
 5.55142e-06 -6.57128e-05 -4.83823e-06
 6.43546e-06 -0.00532547 3.20961e-06
 7.12653e-06 0.00317001 -7.12614e-06
 7.12646e-06 0.00317001 7.12627e-06
 6.43483e-06 -0.00532548 -3.20821e-06
 5.55198e-06 -6.57097e-05 4.83732e-06
 -2.4101e-06 0.000250136 -5.65181e-06
 -3.56682e-06 -0.00232399 3.5703e-06
 -3.20728e-06 -0.00532547 -6.43281e-06
 -3.20757e-06 -0.00532547 6.43246e-06
 -3.56796e-06 -0.00232398 -3.56935e-06
 -2.41133e-06 0.00025013 5.65152e-06
 4.99648e-06 7.38057e-06 -4.99588e-06
 5.64796e-06 0.000250128 2.41175e-06
 4.83576e-06 -6.57121e-05 -5.55444e-06
 4.83554e-06 -6.57102e-05 5.55423e-06
 5.64778e-06 0.000250126 -2.41057e-06
 4.9956e-06 7.3911e-06 4.99493e-06
 1.07955e-06 0.000862874 1.08053e-06
 -1.73147e-06 0.00138332 3.02478e-06
 -2.0717e-06 0.00329182 8.567e-06
 -2.07164e-06 0.00329182 -8.56468e-06
 -1.73149e-06 0.00138333 -3.02705e-06
 1.07954e-06 0.000862874 -1.08026e-06
 3.02771e-06 0.00138332 -1.73083e-06
 7.00394e-06 0.00218135 7.00172e-06
 5.70064e-06 0.00191245 5.00983e-06
 5.70073e-06 0.00191245 -5.00818e-06
 7.00235e-06 0.00218135 -7.00314e-06
 3.02675e-06 0.00138332 1.73103e-06
 8.56407e-06 0.00329182 -2.07105e-06
 5.007e-06 0.00191245 5.70082e-06
 5.38024e-06 5.9932e-05 5.38069e-06
 5.38017e-06 5.99312e-05 -5.38006e-06
 5.00868e-06 0.00191245 -5.70113e-06
 8.56497e-06 0.00329182 2.07123e-06
 -8.56496e-06 0.00329182 -2.0711e-06
 -5.0101e-06 0.00191245 5.70059e-06
 -5.38071e-06 5.99332e-05 5.38089e-06
 -5.38103e-06 5.99317e-05 -5.38002e-06
 -5.00437e-06 0.00191245 -5.70119e-06
 -8.56295e-06 0.00329182 2.07128e-06
 -3.02692e-06 0.00138332 -1.73103e-06
 -7.00096e-06 0.00218136 7.00441e-06
 -5.7004e-06 0.00191245 5.00705e-06
 -5.7001e-06 0.00191245 -5.0094e-06
 -7.00686e-06 0.00218135 -7.00191e-06
 -3.02914e-06 0.00138333 1.73116e-06
 -1.07983e-06 0.000862881 1.08006e-06
 1.73132e-06 0.00138333 3.02731e-06
 2.0718e-06 0.00329182 8.56461e-06
 2.07181e-06 0.00329182 -8.566e-06
 1.73159e-06 0.00138334 -3.02574e-06
 -1.07938e-06 0.00086288 -1.08011e-06
 7.5939e-06 2.84571e-05 7.59415e-06
 6.04485e-06 0.00158732 3.0135e-06
 4.82936e-06 0.000729488 5.47384e-06
 4.82937e-06 0.000729488 -5.47422e-06
 6.04481e-06 0.00158732 -3.01301e-06
 7.59371e-06 2.84648e-05 -7.59386e-06
 3.01367e-06 0.00158732 6.04517e-06
 4.70616e-06 0.000426546 4.70573e-06
 3.10784e-06 -0.000533569 1.74227e-06
 3.1078e-06 -0.000533568 -1.74253e-06
 4.70615e-06 0.000426546 -4.70534e-06
 3.01363e-06 0.00158732 -6.04493e-06
 5.47558e-06 0.000729489 4.82968e-06
 1.74545e-06 -0.000533568 3.10743e-06
 6.01137e-06 -0.00255234 6.01141e-06
 6.01133e-06 -0.00255233 -6.01172e-06
 1.74745e-06 -0.000533567 -3.10697e-06
 5.47833e-06 0.00072949 -4.82949e-06
 -5.47581e-06 0.00072949 4.82962e-06
 -1.7455e-06 -0.000533567 3.10757e-06
 -6.01164e-06 -0.00255233 6.01134e-06
 -6.01163e-06 -0.00255233 -6.01171e-06
 -1.74778e-06 -0.000533567 -3.10705e-06
 -5.47893e-06 0.000729489 -4.82948e-06
 -3.01347e-06 0.00158732 6.04497e-06
 -4.70611e-06 0.000426542 4.70608e-06
 -3.1076e-06 -0.000533567 1.74274e-06
 -3.10752e-06 -0.000533567 -1.74299e-06
 -4.7059e-06 0.000426546 -4.7057e-06
 -3.01323e-06 0.00158732 -6.04489e-06
 -7.59394e-06 2.84609e-05 7.59384e-06
 -6.0449e-06 0.00158732 3.01366e-06
 -4.82934e-06 0.000729489 5.47488e-06
 -4.82933e-06 0.000729489 -5.47521e-06
 -6.04478e-06 0.00158731 -3.01325e-06
 -7.59368e-06 2.84565e-05 -7.59376e-06
 6.06234e-06 -0.00331639 6.06225e-06
 4.80193e-06 -0.00304936 7.69871e-06
 3.67115e-06 -0.000413498 3.5508e-06
 3.67105e-06 -0.000413495 -3.55087e-06
 4.80152e-06 -0.00304937 -7.6986e-06
 6.06164e-06 -0.0033164 -6.0619e-06
 7.69894e-06 -0.00304936 4.80196e-06
 7.0794e-06 -0.00325493 7.07935e-06
 6.11075e-06 -0.00252562 3.05556e-06
 6.11061e-06 -0.00252563 -3.05557e-06
 7.07883e-06 -0.00325493 -7.07925e-06
 7.69804e-06 -0.00304937 -4.80171e-06
 3.55096e-06 -0.000413499 3.67129e-06
 3.05561e-06 -0.00252563 6.11084e-06
 2.91959e-06 -0.00177008 2.91966e-06
 2.91951e-06 -0.00177008 -2.91958e-06
 3.05533e-06 -0.00252563 -6.11081e-06
 3.55052e-06 -0.000413499 -3.67114e-06
 -3.55104e-06 -0.000413497 3.67119e-06
 -3.05571e-06 -0.00252563 6.11073e-06
 -2.91968e-06 -0.00177008 2.91964e-06
 -2.91959e-06 -0.00177008 -2.91949e-06
 -3.05541e-06 -0.00252563 -6.11072e-06
 -3.55062e-06 -0.000413499 -3.67113e-06
 -7.69901e-06 -0.00304937 4.80163e-06
 -7.07948e-06 -0.00325493 7.07896e-06
 -6.11083e-06 -0.00252564 3.05548e-06
 -6.11067e-06 -0.00252563 -3.05533e-06
 -7.07895e-06 -0.00325493 -7.07896e-06
 -7.69822e-06 -0.00304936 -4.80159e-06
 -6.06231e-06 -0.0033164 6.06175e-06
 -4.80191e-06 -0.00304936 7.69815e-06
 -3.67114e-06 -0.00041349 3.55068e-06
 -3.67107e-06 -0.000413492 -3.55052e-06
 -4.80156e-06 -0.00304936 -7.6982e-06
 -6.0617e-06 -0.0033164 -6.06169e-06
 4.02658e-06 0.000535299 4.02621e-06
 3.25967e-06 2.80431e-06 4.98314e-06
 2.6162e-06 -0.00231044 3.36861e-06
 2.61592e-06 -0.00231044 -3.36654e-06
 3.25869e-06 2.81019e-06 -4.98537e-06
 4.02513e-06 0.000535303 -4.0256e-06
 4.9839e-06 2.80646e-06 3.25947e-06
 2.08983e-06 -0.000718743 2.08922e-06
 2.65765e-06 0.000337232 1.5278e-06
 2.65764e-06 0.000337233 -1.52688e-06
 2.08944e-06 -0.00071874 -2.09023e-06
 4.98453e-06 2.8143e-06 -3.25899e-06
 3.36901e-06 -0.00231044 2.6162e-06
 1.52835e-06 0.000337234 2.65764e-06
 4.33252e-06 0.00199446 4.33332e-06
 4.33339e-06 0.00199447 -4.33274e-06
 1.5227e-06 0.000337239 -2.65822e-06
 3.36599e-06 -0.00231044 -2.61591e-06
 -3.36804e-06 -0.00231044 2.61599e-06
 -1.52798e-06 0.000337241 2.6577e-06
 -4.33206e-06 0.00199447 4.33406e-06
 -4.33325e-06 0.00199447 -4.33361e-06
 -1.52266e-06 0.00033724 -2.65805e-06
 -3.36657e-06 -0.00231044 -2.61584e-06
 -4.98495e-06 2.80943e-06 3.25877e-06
 -2.0903e-06 -0.000718731 2.08947e-06
 -2.65824e-06 0.000337244 1.52351e-06
 -2.65789e-06 0.000337242 -1.5233e-06
 -2.0896e-06 -0.000718739 -2.0895e-06
 -4.98411e-06 2.80503e-06 -3.25872e-06
 -4.02652e-06 0.000535303 4.02521e-06
 -3.25965e-06 2.80666e-06 4.9846e-06
 -2.61622e-06 -0.00231043 3.3661e-06
 -2.61597e-06 -0.00231043 -3.36658e-06
 -3.25882e-06 2.80273e-06 -4.98394e-06
 -4.02531e-06 0.000535303 -4.02519e-06
 3.37336e-07 -0.00158915 3.35656e-07
 -1.21958e-08 0.00190535 3.24599e-06
 -8.74327e-08 0.000121096 1.94265e-06
 -8.7754e-08 0.000121096 -1.94066e-06
 -1.32588e-08 0.00190535 -3.24444e-06
 3.3696e-07 -0.00158915 -3.3875e-07
 3.24439e-06 0.00190535 -1.24237e-08
 3.30996e-06 0.00168903 3.30951e-06
 3.1016e-06 0.00240092 2.10238e-06
 3.10123e-06 0.00240092 -2.10263e-06
 3.30875e-06 0.00168903 -3.30935e-06
 3.24583e-06 0.00190535 1.28954e-08
 1.9252e-06 0.000121099 -8.7448e-08
 2.10271e-06 0.00240092 3.10145e-06
 2.14222e-06 -0.000379486 2.14234e-06
 2.14245e-06 -0.00037949 -2.14243e-06
 2.10219e-06 0.00240092 -3.1014e-06
 1.95821e-06 0.000121097 8.77633e-08
 -1.9253e-06 0.0001211 -8.76727e-08
 -2.10284e-06 0.00240092 3.10127e-06
 -2.14231e-06 -0.000379488 2.14251e-06
 -2.14252e-06 -0.00037949 -2.14247e-06
 -2.10227e-06 0.00240092 -3.10122e-06
 -1.95825e-06 0.000121098 8.78476e-08
 -3.2444e-06 0.00190535 -1.31422e-08