<?xml version="1.0"?>
<!-- time 91.6883-->
<VTKFile type="UnstructuredGrid" version="0.1" byte_order="LittleEndian">
<UnstructuredGrid>
<Piece NumberOfPoints="3240" NumberOfCells="0">
<Points>
  <DataArray type="Float32" Name="Position" NumberOfComponents="3" format="ascii">
	-333.333 2066.36 -333.333
	-333.333 2066.37 -200
	-333.334 2066.36 -66.6667
	-333.333 2066.36 66.6667
	-333.333 2066.37 200
	-333.333 2066.36 333.333
	-200 2066.37 -333.333
	-200 2066.34 -200
	-200 2066.36 -66.6667
	-200 2066.36 66.6667
	-200 2066.34 200
	-200 2066.37 333.333
	-66.6667 2066.36 -333.334
	-66.6667 2066.36 -200
	-66.6668 2066.34 -66.6668
	-66.6667 2066.34 66.6668
	-66.6667 2066.36 200
	-66.6668 2066.36 333.334
	66.6667 2066.36 -333.334
	66.6667 2066.36 -200
	66.6668 2066.34 -66.6667
	66.6667 2066.34 66.6668
	66.6667 2066.36 200
	66.6667 2066.36 333.334
	200 2066.37 -333.333
	200 2066.34 -200
	200 2066.36 -66.6667
	200 2066.36 66.6667
	200 2066.34 200
	200 2066.37 333.333
	333.333 2066.36 -333.333
	333.333 2066.37 -200
	333.334 2066.36 -66.6667
	333.334 2066.36 66.6667
	333.333 2066.37 200
	333.333 2066.36 333.333
	-333.334 2199.68 -333.334
	-333.333 2199.7 -200
	-333.333 2199.68 -66.6669
	-333.333 2199.68 66.6669
	-333.333 2199.7 200
	-333.334 2199.68 333.334
	-200 2199.7 -333.333
	-200 2199.67 -200
	-200 2199.69 -66.6667
	-200 2199.69 66.6667
	-200 2199.67 200
	-200 2199.7 333.333
	-66.6668 2199.68 -333.333
	-66.6667 2199.69 -200
	-66.6668 2199.67 -66.6668
	-66.6667 2199.67 66.6668
	-66.6667 2199.69 200
	-66.6668 2199.68 333.333
	66.6668 2199.68 -333.333
	66.6667 2199.69 -200
	66.6668 2199.67 -66.6668
	66.6667 2199.67 66.6668
	66.6667 2199.69 200
	66.6668 2199.68 333.333
	200 2199.7 -333.333
	200 2199.67 -200
	200 2199.69 -66.6667
	200 2199.69 66.6667
	200 2199.67 200
	200 2199.7 333.333
	333.334 2199.68 -333.334
	333.333 2199.7 -200
	333.333 2199.68 -66.6669
	333.333 2199.68 66.6669
	333.333 2199.7 200
	333.334 2199.68 333.334
	-333.333 2333.01 -333.333
	-333.333 2333.03 -200
	-333.334 2333.01 -66.6667
	-333.334 2333.01 66.6667
	-333.333 2333.03 200
	-333.333 2333.01 333.333
	-200 2333.03 -333.334
	-200 2333 -200
	-200 2333.03 -66.6666
	-200 2333.03 66.6666
	-200 2333 200
	-200 2333.03 333.334
	-66.6667 2333.01 -333.334
	-66.6667 2333.03 -200
	-66.6667 2333.02 -66.6667
	-66.6667 2333.02 66.6667
	-66.6668 2333.03 200
	-66.6667 2333.01 333.334
	66.6666 2333.01 -333.334
	66.6666 2333.03 -200
	66.6666 2333.02 -66.6667
	66.6667 2333.02 66.6667
	66.6668 2333.03 200
	66.6666 2333.01 333.334
	200 2333.03 -333.333
	200 2333 -200
	200 2333.03 -66.6667
	200 2333.03 66.6667
	200 2333 200
	200 2333.03 333.333
	333.333 2333.01 -333.333
	333.333 2333.03 -200
	333.334 2333.01 -66.6667
	333.334 2333.01 66.6666
	333.333 2333.03 200
	333.333 2333.01 333.333
	-333.333 2466.35 -333.333
	-333.333 2466.36 -200
	-333.333 2466.35 -66.6667
	-333.333 2466.35 66.6667
	-333.333 2466.36 200
	-333.333 2466.35 333.333
	-200 2466.36 -333.333
	-200 2466.35 -200
	-200 2466.36 -66.6667
	-200 2466.36 66.6667
	-200 2466.35 200
	-200 2466.36 333.333
	-66.6667 2466.35 -333.333
	-66.6667 2466.36 -200
	-66.6667 2466.35 -66.6667
	-66.6667 2466.35 66.6667
	-66.6667 2466.36 200
	-66.6667 2466.35 333.333
	66.6666 2466.35 -333.333
	66.6667 2466.36 -200
	66.6667 2466.36 -66.6667
	66.6667 2466.36 66.6667
	66.6667 2466.36 200
	66.6667 2466.35 333.333
	200 2466.36 -333.333
	200 2466.35 -200
	200 2466.36 -66.6667
	200 2466.36 66.6667
	200 2466.35 200
	200 2466.36 333.333
	333.333 2466.35 -333.333
	333.333 2466.36 -200
	333.333 2466.35 -66.6667
	333.333 2466.35 66.6667
	333.333 2466.36 200
	333.333 2466.35 333.333
	-333.333 2599.7 -333.333
	-333.334 2599.7 -200
	-333.334 2599.69 -66.6667
	-333.334 2599.69 66.6667
	-333.334 2599.7 200
	-333.333 2599.7 333.333
	-200 2599.7 -333.334
	-200 2599.69 -200
	-200 2599.69 -66.6668
	-200 2599.69 66.6668
	-200 2599.69 200
	-200 2599.7 333.334
	-66.6667 2599.69 -333.334
	-66.6668 2599.69 -200
	-66.6667 2599.69 -66.6667
	-66.6667 2599.69 66.6667
	-66.6668 2599.69 200
	-66.6667 2599.69 333.334
	66.6667 2599.69 -333.334
	66.6668 2599.69 -200
	66.6667 2599.69 -66.6667
	66.6667 2599.69 66.6667
	66.6668 2599.69 200
	66.6667 2599.69 333.334
	200 2599.7 -333.334
	200 2599.69 -200
	200 2599.69 -66.6668
	200 2599.69 66.6668
	200 2599.69 200
	200 2599.7 333.334
	333.333 2599.7 -333.333
	333.334 2599.7 -200
	333.334 2599.69 -66.6667
	333.334 2599.69 66.6667
	333.334 2599.7 200
	333.333 2599.7 333.333
	-333.334 2733.03 -333.334
	-333.333 2733.03 -200
	-333.334 2733.02 -66.6667
	-333.334 2733.02 66.6667
	-333.333 2733.03 200
	-333.334 2733.03 333.334
	-200 2733.03 -333.333
	-200 2733.02 -200
	-200 2733.02 -66.6667
	-200 2733.02 66.6667
	-200 2733.02 200
	-200 2733.03 333.333
	-66.6667 2733.02 -333.334
	-66.6667 2733.02 -200
	-66.6667 2733.02 -66.6667
	-66.6667 2733.02 66.6667
	-66.6667 2733.02 200
	-66.6667 2733.02 333.334
	66.6667 2733.02 -333.334
	66.6667 2733.02 -200
	66.6667 2733.02 -66.6667
	66.6667 2733.02 66.6667
	66.6667 2733.02 200
	66.6667 2733.02 333.334
	200 2733.03 -333.333
	200 2733.02 -200
	200 2733.02 -66.6667
	200 2733.02 66.6667
	200 2733.02 200
	200 2733.03 333.333
	333.334 2733.03 -333.334
	333.333 2733.03 -200
	333.334 2733.02 -66.6667
	333.334 2733.02 66.6667
	333.333 2733.03 200
	333.334 2733.03 333.334
	-333.333 2866.36 -333.333
	-333.334 2866.36 -200
	-333.334 2866.36 -66.6667
	-333.334 2866.36 66.6667
	-333.334 2866.36 200
	-333.333 2866.36 333.333
	-200 2866.36 -333.334
	-200 2866.35 -200
	-200 2866.36 -66.6668
	-200 2866.36 66.6668
	-200 2866.35 200
	-200 2866.36 333.334
	-66.6667 2866.36 -333.334
	-66.6668 2866.36 -200
	-66.6667 2866.35 -66.6667
	-66.6667 2866.35 66.6667
	-66.6668 2866.36 200
	-66.6667 2866.36 333.334
	66.6667 2866.36 -333.334
	66.6668 2866.36 -200
	66.6667 2866.35 -66.6667
	66.6667 2866.35 66.6667
	66.6668 2866.36 200
	66.6667 2866.36 333.334
	200 2866.36 -333.334
	200 2866.35 -200
	200 2866.36 -66.6668
	200 2866.36 66.6668
	200 2866.35 200
	200 2866.36 333.334
	333.333 2866.36 -333.333
	333.334 2866.36 -200
	333.334 2866.36 -66.6667
	333.334 2866.36 66.6667
	333.334 2866.36 200
	333.333 2866.36 333.333
	-333.333 2999.7 -333.333
	-333.334 2999.7 -200
	-333.334 2999.69 -66.6667
	-333.334 2999.69 66.6667
	-333.334 2999.7 200
	-333.333 2999.7 333.333
	-200 2999.7 -333.334
	-200 2999.69 -200
	-200 2999.69 -66.6667
	-200 2999.69 66.6667
	-200 2999.69 200
	-200 2999.7 333.334
	-66.6667 2999.69 -333.334
	-66.6667 2999.69 -200
	-66.6667 2999.69 -66.6667
	-66.6667 2999.69 66.6667
	-66.6667 2999.69 200
	-66.6667 2999.69 333.334
	66.6667 2999.69 -333.334
	66.6667 2999.69 -200
	66.6667 2999.69 -66.6667
	66.6667 2999.69 66.6667
	66.6667 2999.69 200
	66.6667 2999.69 333.334
	200 2999.7 -333.334
	200 2999.69 -200
	200 2999.69 -66.6667
	200 2999.69 66.6667
	200 2999.69 200
	200 2999.7 333.334
	333.333 2999.7 -333.333
	333.334 2999.7 -200
	333.334 2999.69 -66.6667
	333.334 2999.69 66.6667
	333.334 2999.7 200
	333.333 2999.7 333.333
	-333.334 3133.03 -333.334
	-333.334 3133.03 -200
	-333.333 3133.03 -66.6667
	-333.333 3133.03 66.6667
	-333.334 3133.03 200
	-333.334 3133.03 333.334
	-200 3133.03 -333.334
	-200 3133.03 -200
	-200 3133.03 -66.6667
	-200 3133.03 66.6667
	-200 3133.03 200
	-200 3133.03 333.334
	-66.6667 3133.03 -333.333
	-66.6667 3133.03 -200
	-66.6668 3133.02 -66.6668
	-66.6668 3133.02 66.6668
	-66.6667 3133.03 200
	-66.6667 3133.03 333.333
	66.6667 3133.03 -333.333
	66.6667 3133.03 -200
	66.6668 3133.02 -66.6668
	66.6668 3133.02 66.6668
	66.6667 3133.03 200
	66.6667 3133.03 333.333
	200 3133.03 -333.334
	200 3133.03 -200
	200 3133.03 -66.6667
	200 3133.03 66.6667
	200 3133.03 200
	200 3133.03 333.334
	333.334 3133.03 -333.334
	333.334 3133.03 -200
	333.333 3133.03 -66.6667
	333.333 3133.03 66.6667
	333.334 3133.03 200
	333.334 3133.03 333.334
	-333.334 3266.37 -333.334
	-333.333 3266.36 -200
	-333.333 3266.37 -66.6667
	-333.333 3266.37 66.6667
	-333.333 3266.36 200
	-333.334 3266.37 333.334
	-200 3266.36 -333.333
	-200 3266.36 -200
	-200 3266.36 -66.6667
	-200 3266.36 66.6667
	-200 3266.36 200
	-200 3266.36 333.333
	-66.6667 3266.37 -333.333
	-66.6667 3266.36 -200
	-66.6667 3266.35 -66.6667
	-66.6667 3266.35 66.6667
	-66.6667 3266.36 200
	-66.6667 3266.37 333.333
	66.6667 3266.37 -333.333
	66.6667 3266.36 -200
	66.6667 3266.35 -66.6667
	66.6667 3266.35 66.6667
	66.6667 3266.36 200
	66.6667 3266.37 333.333
	200 3266.36 -333.333
	200 3266.36 -200
	200 3266.36 -66.6667
	200 3266.36 66.6667
	200 3266.36 200
	200 3266.36 333.333
	333.334 3266.37 -333.334
	333.333 3266.36 -200
	333.333 3266.37 -66.6667
	333.333 3266.37 66.6667
	333.333 3266.36 200
	333.334 3266.37 333.334
	-333.334 3399.7 -333.334
	-333.334 3399.7 -200
	-333.334 3399.7 -66.6668
	-333.334 3399.7 66.6668
	-333.334 3399.7 200
	-333.334 3399.7 333.334
	-200 3399.7 -333.334
	-200 3399.69 -200
	-200 3399.69 -66.6668
	-200 3399.69 66.6668
	-200 3399.69 200
	-200 3399.7 333.334
	-66.6668 3399.7 -333.334
	-66.6668 3399.69 -200
	-66.6668 3399.69 -66.6668
	-66.6668 3399.69 66.6668
	-66.6668 3399.69 200
	-66.6668 3399.7 333.334
	66.6668 3399.7 -333.334
	66.6668 3399.69 -200
	66.6668 3399.69 -66.6668
	66.6668 3399.69 66.6668
	66.6668 3399.69 200
	66.6668 3399.7 333.334
	200 3399.7 -333.334
	200 3399.69 -200
	200 3399.69 -66.6668
	200 3399.69 66.6668
	200 3399.69 200
	200 3399.7 333.334
	333.334 3399.7 -333.334
	333.334 3399.7 -200
	333.334 3399.7 -66.6668
	333.334 3399.7 66.6668
	333.334 3399.7 200
	333.334 3399.7 333.334
	-333.333 3533.03 -333.333
	-333.333 3533.03 -200
	-333.333 3533.03 -66.6667
	-333.333 3533.03 66.6667
	-333.333 3533.03 200
	-333.333 3533.03 333.333
	-200 3533.03 -333.333
	-200 3533.03 -200
	-200 3533.03 -66.6667
	-200 3533.03 66.6667
	-200 3533.03 200
	-200 3533.03 333.333
	-66.6667 3533.03 -333.333
	-66.6667 3533.03 -200
	-66.6667 3533.03 -66.6667
	-66.6667 3533.03 66.6667
	-66.6667 3533.03 200
	-66.6667 3533.03 333.333
	66.6667 3533.03 -333.333
	66.6667 3533.03 -200
	66.6667 3533.03 -66.6667
	66.6667 3533.03 66.6667
[...]
<PointData  Vectors="vector">
  <DataArray type="Float32" Name="Velocity" NumberOfComponents="3" format="ascii">
 -1.40997e-05 0.0199084 -3.39247e-05
 -3.64373e-05 -0.0141489 -1.01421e-05
 3.57391e-05 -0.00485507 -4.36357e-05
 2.85142e-05 -0.00486194 4.13397e-05
 -1.64688e-05 -0.0141439 1.63252e-05
 -1.7107e-05 0.0199438 2.84993e-05
 -2.85017e-05 -0.0141303 -1.03917e-05
 -1.08419e-05 0.017881 -2.29865e-05
 -4.65845e-05 0.0132944 -4.3459e-05
 -3.70992e-05 0.0132794 4.3398e-05
 -2.27122e-05 0.0178744 2.28385e-05
 -2.50122e-05 -0.0141442 1.05617e-05
 -4.84678e-05 -0.00480031 1.58489e-05
 -4.43801e-05 0.0132579 -2.24329e-05
 5.30884e-05 0.0205915 5.76408e-05
 5.5424e-05 0.0206609 -5.7485e-05
 -4.72273e-05 0.0132752 3.37101e-05
 -5.07052e-05 -0.00485664 -2.58597e-05
 4.75648e-05 -0.00481519 2.19482e-05
 5.16164e-05 0.0132659 -3.17611e-05
 -5.20143e-05 0.0205805 5.76341e-05
 -5.40959e-05 0.0205346 -5.72271e-05
 4.57876e-05 0.0132782 4.04209e-05
 4.85323e-05 -0.00485459 -2.96261e-05
 2.59787e-05 -0.014143 -1.44995e-05
 2.23266e-05 0.0178818 -2.50807e-05
 4.73958e-05 0.0132958 -4.48168e-05
 4.52926e-05 0.0132653 4.61693e-05
 2.58084e-05 0.0178805 2.40579e-05
 2.46173e-05 -0.0141454 1.41369e-05
 1.76997e-05 0.0199014 -3.64993e-05
 1.79497e-05 -0.0141424 -1.48118e-05
 -3.73723e-05 -0.00474839 -4.60073e-05
 -3.78263e-05 -0.00483274 4.6476e-05
 1.50448e-05 -0.01414 1.25858e-05
 1.99405e-05 0.0199265 3.68097e-05
 1.89537e-05 0.00548941 1.93814e-05
 -1.709e-05 0.0138893 2.37934e-05
 3.05489e-05 0.012795 2.24529e-05
 2.98334e-06 0.012807 -1.84004e-05
 1.22737e-06 0.0138912 -2.27174e-05
 1.18173e-05 0.00551189 -2.53918e-05
 3.24661e-05 0.0138919 2.85506e-05
 2.42021e-05 0.00564418 -5.67009e-06
 -8.36541e-06 0.00430887 -3.56976e-05
 9.11306e-06 0.00430989 3.78068e-05
 1.65637e-05 0.00571711 -2.04951e-05
 3.68778e-05 0.0138931 -4.52663e-06
 1.61338e-05 0.012794 -2.35136e-05
 -3.08125e-05 0.00434818 3.08534e-05
 2.63189e-06 -0.0108262 2.25907e-05
 2.68048e-05 -0.0109256 -2.01548e-05
 -3.9648e-05 0.00432262 -3.35201e-05
 1.38661e-05 0.0127977 2.45266e-05
 -8.76502e-06 0.0128018 -2.45754e-05
 3.45446e-05 0.00434511 3.24667e-05
 -2.44101e-05 -0.0108398 1.78122e-05
 -2.70489e-05 -0.0108072 -1.89868e-05
 3.42969e-05 0.00432659 -3.19302e-05
 -1.32269e-05 0.012796 2.59499e-05
 -3.2442e-05 0.0138751 2.31669e-05
 7.63789e-06 0.0055918 -1.16119e-05
 -1.53038e-05 0.00432182 -3.83806e-05
 -1.52013e-05 0.00431359 3.98282e-05
 1.16135e-05 0.0056532 5.87462e-06
 -2.76414e-05 0.0138854 -1.89358e-05
 -2.63542e-05 0.00554995 2.41848e-05
 -1.8485e-05 0.0138549 1.21188e-05
 1.49088e-05 0.0127885 2.01541e-05
 3.29696e-06 0.0128132 -1.76316e-05
 -2.39953e-05 0.0138833 -1.24682e-05
 -2.15023e-05 0.00552639 -2.71455e-05
 3.98111e-05 0.0074729 6.16571e-05
 7.11451e-05 0.0133074 -5.77063e-06
 -6.31435e-06 0.0180471 -4.17457e-05
 -8.52945e-06 0.0180379 3.80041e-05
 2.56091e-05 0.013288 7.46251e-06
 6.51621e-05 0.00743797 -6.00677e-05
 3.14585e-05 0.0132989 5.00164e-05
 1.79581e-05 0.00426647 -7.53693e-06
 2.72381e-05 0.00635788 1.30142e-05
 2.65272e-05 0.00636385 -1.39234e-05
 3.67848e-05 0.00419331 7.84645e-06
 -1.2155e-05 0.0132876 -4.9619e-05
 -7.41965e-06 0.0180095 -3.44063e-06
 -1.3638e-06 0.00625401 2.23907e-05
 3.1906e-05 0.0156136 3.30804e-05
 3.23763e-05 0.0155997 -3.2811e-05
 3.31484e-05 0.00635838 -2.29753e-05
 1.77245e-05 0.0180403 3.75396e-06
 -2.03028e-05 0.0180106 -5.97798e-06
 2.79286e-05 0.0062724 2.03815e-05
 -3.68191e-05 0.0156169 3.26878e-05
 -3.36503e-05 0.0156049 -3.20057e-05
 -3.94167e-05 0.0063513 -2.11679e-05
 -1.37544e-05 0.0180437 6.02877e-06
 1.44523e-05 0.0133154 6.40153e-05
 -5.21818e-05 0.00430125 5.82047e-05
 -2.34272e-05 0.00635924 1.79888e-05
 -2.55791e-05 0.00627066 -1.7898e-05
 -3.05446e-05 0.00424986 -5.36859e-05
 5.65867e-06 0.013292 -6.88447e-05
 -5.77872e-05 0.00743875 6.13764e-05
 -6.33679e-05 0.0133162 -5.21277e-06
 7.42619e-06 0.0179741 1.75545e-05
 8.77485e-06 0.0180071 -2.55949e-05
 -2.54846e-05 0.0133127 9.51347e-06
 -6.228e-05 0.00744384 -5.79639e-05
 7.01934e-05 0.00898827 6.84975e-05
 7.1256e-05 0.0188983 4.38107e-05
 9.97766e-05 0.0111391 3.78697e-05
 0.000100131 0.0111396 -3.62136e-05
 7.18232e-05 0.0189045 -4.63099e-05
 6.21186e-05 0.00898759 -6.81002e-05
 3.7166e-05 0.0188999 7.1345e-05
 7.59177e-05 0.0115507 7.81397e-05
 -2.42393e-05 0.016455 -3.20237e-06
 -2.82944e-05 0.016458 1.97038e-06
 7.43814e-05 0.0115577 -7.71166e-05
 4.9913e-05 0.0189036 -7.14794e-05
 -4.91966e-05 0.0111302 0.000101197
 -1.38259e-06 0.0165568 -2.69089e-05
 7.24189e-06 0.00683685 5.55765e-06
 8.61526e-06 0.00684251 -6.40911e-06
 -7.86512e-08 0.0164569 2.74252e-05
 3.51137e-05 0.0111405 -0.000101137
 4.81016e-05 0.0111294 9.9184e-05
 -8.2297e-06 0.0165486 -2.7801e-05
 -1.11046e-05 0.00685679 4.95634e-06
 -9.59473e-06 0.0068663 -2.7697e-06
 -1.3385e-06 0.0164545 2.60998e-05
 -3.44647e-05 0.0111382 -9.9995e-05
 -3.99858e-05 0.018895 6.61865e-05
 -7.67427e-05 0.0115493 7.39863e-05
 3.06152e-05 0.0164324 -3.10199e-06
 3.01552e-05 0.0165599 4.0352e-06
 -7.21322e-05 0.0115526 -7.56369e-05
 -4.97335e-05 0.018907 -6.58564e-05
 -6.56689e-05 0.00898023 6.82472e-05
 -6.03815e-05 0.0188944 3.86426e-05
 -0.000102115 0.0111298 3.77701e-05
 -0.000100957 0.0111257 -3.89427e-05
 -7.238e-05 0.0188914 -3.73159e-05
 -6.2362e-05 0.00898465 -6.8798e-05
 3.98154e-05 0.00353343 3.54376e-05
 7.54741e-05 -0.00252132 -2.09562e-05
 1.38577e-05 -0.00531645 -2.18026e-05
 1.36565e-05 -0.00533871 1.97229e-05
 7.46802e-05 -0.00252281 2.24127e-05
 3.5599e-05 0.00358649 -3.51177e-05
 -1.91202e-05 -0.00251387 7.73836e-05
 3.05456e-05 0.00329582 3.03369e-05
 3.89504e-05 -0.00242497 9.94733e-06
 3.94433e-05 -0.00242541 -9.90511e-06
 2.77584e-05 0.00329727 -3.18259e-05
 -3.19838e-05 -0.0025228 -7.59726e-05
 -2.51095e-05 -0.00531769 1.53156e-05
 1.27665e-05 -0.00242393 3.88029e-05
 -7.10193e-05 0.00512395 -7.22739e-05
 -7.1951e-05 0.00508777 7.31093e-05
 1.24773e-05 -0.0024277 -3.91471e-05
 -2.8163e-06 -0.0053129 -1.56322e-05
 1.83696e-05 -0.00531492 1.44575e-05
 -9.68801e-06 -0.00239073 3.88944e-05
 7.3153e-05 0.00508215 -7.21519e-05
 7.33815e-05 0.00510097 7.29108e-05
 -1.27353e-05 -0.00242333 -3.91651e-05
 -2.46049e-06 -0.00531567 -1.48253e-05
 2.1835e-05 -0.00250499 7.4651e-05
 -3.15017e-05 0.00329907 3.12974e-05
 -3.9059e-05 -0.00241322 9.66919e-06
 -4.01648e-05 -0.00241082 -8.27697e-06
 -2.73036e-05 0.00331069 -3.12789e-05
 3.66005e-05 -0.00251852 -7.62349e-05
 -3.55699e-05 0.00357333 3.34701e-05
 -7.7587e-05 -0.00249362 -2.25441e-05
 -1.61259e-05 -0.00526938 -2.19666e-05
 -1.46854e-05 -0.00533477 2.26483e-05
 -7.49986e-05 -0.00250942 2.23747e-05
 -3.48157e-05 0.00358229 -3.4395e-05
 1.71841e-05 -0.00277451 1.90748e-05
 -2.9494e-06 -0.00147785 1.00795e-05
 1.91591e-05 -0.000728477 2.72077e-05
 1.89406e-05 -0.000708172 -2.829e-05
 9.10817e-08 -0.00147368 -4.26001e-06
 1.99576e-05 -0.0028247 -2.38595e-05
 1.04888e-05 -0.00150678 -4.22246e-07
 -5.2944e-05 -0.00509361 -5.14481e-05
 -1.48267e-05 0.00127859 7.34873e-06
 -1.44152e-05 0.00127821 -4.83379e-06
 -4.79578e-05 -0.00507848 4.94598e-05
 8.35265e-06 -0.0014726 1.28467e-07
 2.88265e-05 -0.000723445 1.94574e-05
 6.84925e-06 0.00126213 -1.45438e-05
 -4.60762e-06 -0.00301837 -3.57627e-06
 -4.33568e-06 -0.00295056 3.3813e-06
 8.83512e-06 0.00128434 1.34526e-05
 2.71181e-05 -0.000728922 -1.7667e-05
 -2.75456e-05 -0.000727688 1.87437e-05
 2.08888e-06 0.00122666 -1.46183e-05
 4.15976e-06 -0.00295506 -3.63807e-06
 3.4123e-06 -0.00295513 3.76652e-06
 -1.46177e-05 0.00127938 1.40454e-05
 -2.8436e-05 -0.000727519 -1.78353e-05
 -3.17769e-06 -0.00151283 -1.9733e-06
 4.59205e-05 -0.00510223 -5.05958e-05
 1.35224e-05 0.00124419 5.54575e-06
 1.37942e-05 0.00125112 -5.63252e-06
 4.73493e-05 -0.00510623 5.1717e-05
 -6.60093e-06 -0.00147657 1.07166e-06
 -2.60968e-05 -0.00282133 2.02835e-05
 5.32975e-07 -0.00151345 6.90966e-06
 -1.80544e-05 -0.000707649 2.8323e-05
 -1.80598e-05 -0.000719307 -2.78617e-05
 5.77129e-06 -0.00150699 -6.63692e-06
 -2.07883e-05 -0.00282468 -2.12153e-05
 1.6369e-05 -0.00492609 1.63832e-05
 -2.2348e-05 -0.00201606 2.58038e-05
 -4.89444e-05 -0.00482211 -3.19602e-05
 -4.84788e-05 -0.00481952 3.16944e-05
 -2.74411e-05 -0.00201221 -2.47808e-05
 1.81793e-05 -0.00493087 -1.71082e-05
 2.58185e-05 -0.00199589 -2.17377e-05
 -2.54658e-05 -0.00712959 -2.55881e-05
 2.24019e-05 -0.00476317 2.39219e-05
 2.0287e-05 -0.00476663 -2.32577e-05
 -2.43429e-05 -0.00712985 2.55653e-05
 2.38376e-05 -0.00201313 2.1265e-05
 -3.21364e-05 -0.00481822 -4.87787e-05
 2.36315e-05 -0.00474903 1.75745e-05
 -2.78783e-05 -0.00290837 -2.43867e-05
 -2.7696e-05 -0.00291154 2.65602e-05
 2.82658e-05 -0.00475931 -1.96868e-05
 -3.30808e-05 -0.00481986 4.90124e-05
 3.16914e-05 -0.00481513 -4.90674e-05
 -2.31642e-05 -0.0047518 8.83299e-06
 2.03221e-05 -0.00293285 -1.42105e-05
 2.83784e-05 -0.00293329 2.52006e-05
 -2.93932e-05 -0.0047616 -1.94003e-05
 3.11832e-05 -0.00481978 4.89391e-05
 -2.39993e-05 -0.00198614 -2.149e-05
 2.62971e-05 -0.0071279 -2.55043e-05
 -1.61058e-05 -0.00476228 2.33783e-05
 -2.23653e-05 -0.0047541 -2.36721e-05
 3.19828e-05 -0.00712973 2.54962e-05
 -2.5422e-05 -0.00201291 2.19207e-05
 -1.80746e-05 -0.00492931 1.69579e-05
 2.06005e-05 -0.00198104 2.43316e-05
 4.96457e-05 -0.00484869 -3.14445e-05
 4.93135e-05 -0.00481423 3.21684e-05
 2.04685e-05 -0.00199238 -2.52911e-05
 -1.50705e-05 -0.004933 -1.67604e-05
 7.07511e-06 -0.0030444 7.03833e-06
 1.38281e-05 -0.00326196 -1.04777e-05
 -2.77293e-05 -0.00235523 2.34301e-05
 -2.75912e-05 -0.00235061 -2.16272e-05
 1.37972e-05 -0.00326158 8.46691e-06
 8.11191e-06 -0.00304541 -6.74244e-06
 -9.4818e-06 -0.00325819 1.35652e-05
 1.99031e-06 -0.00477776 2.30132e-06
 2.77337e-05 -0.00276132 4.11796e-05
 3.04611e-05 -0.00275326 -4.11564e-05
 1.71482e-06 -0.00478238 -2.46629e-06
 -1.297e-05 -0.00326167 -1.33108e-05
 2.18336e-05 -0.00236804 -2.80635e-05
 4.09094e-05 -0.00276068 2.65535e-05
 1.47041e-05 -0.00413179 1.67847e-05
 9.22018e-06 -0.00413206 -1.09017e-05
 4.10944e-05 -0.00276338 -3.2711e-05
 2.46186e-05 -0.00235465 2.84797e-05
 -2.13258e-05 -0.00236405 -2.83468e-05
 -4.13036e-05 -0.00276037 3.14307e-05
 -1.30097e-05 -0.00410321 1.07387e-05
 -1.00099e-05 -0.00412284 -1.17414e-05
 -4.13008e-05 -0.00276261 -3.02799e-05
 -2.2908e-05 -0.00235479 2.83512e-05
 8.31628e-06 -0.00326063 1.32132e-05
 -2.53826e-06 -0.00477185 2.48286e-06
 -3.07873e-05 -0.00274964 4.11226e-05
 -3.15949e-05 -0.00275859 -4.10546e-05
 -2.04176e-06 -0.00477752 -2.26429e-06
 8.92136e-06 -0.0032621 -1.34275e-05
 -6.60676e-06 -0.00304274 6.71367e-06
 -1.31569e-05 -0.00326617 -7.81325e-06
 2.87311e-05 -0.00239433 2.04956e-05
 2.91557e-05 -0.0023477 -1.98574e-05
 -1.358e-05 -0.00325892 7.35618e-06
 -6.06373e-06 -0.00304472 -6.91596e-06
 2.67057e-05 -0.00207202 2.65046e-05
 1.71976e-05 -0.00418786 -1.61277e-05
 -1.80943e-05 -0.000837029 2.60508e-05
 -1.82495e-05 -0.000851344 -2.62984e-05
 1.7271e-05 -0.00419115 1.6126e-05
 2.66761e-05 -0.00207342 -2.6152e-05
 -1.61585e-05 -0.00417624 1.7288e-05
 -1.10032e-05 -0.00495739 -1.11801e-05
 2.82957e-05 -0.00283909 2.72999e-05
 2.87424e-05 -0.0028469 -2.7348e-05
 -1.10691e-05 -0.00495898 1.10595e-05
 -1.58172e-05 -0.00419214 -1.70146e-05
 2.61078e-05 -0.000839635 -1.79634e-05
 2.52236e-05 -0.0028325 2.82623e-05
 9.06343e-07 -0.00569587 8.90372e-07
 7.1465e-07 -0.00570022 -8.40185e-07
 2.66566e-05 -0.00283358 -2.81634e-05
 2.59464e-05 -0.000841177 1.7931e-05
 -2.64833e-05 -0.000837638 -1.80156e-05
 -2.55054e-05 -0.00283157 2.83892e-05
 -1.47004e-06 -0.00572659 8.12432e-07
 -1.89187e-06 -0.0057056 -9.4023e-07
 -2.69678e-05 -0.00283872 -2.82055e-05
 -2.66003e-05 -0.000840827 1.80782e-05
 1.59321e-05 -0.00418063 1.67798e-05
 1.07949e-05 -0.00495339 -1.0965e-05
 -2.76209e-05 -0.00284984 2.58653e-05
 -2.79066e-05 -0.00283182 -2.57515e-05
 1.1103e-05 -0.00495519 1.10037e-05
 1.616e-05 -0.00419062 -1.68891e-05
 -2.6175e-05 -0.00207104 2.62062e-05
 -1.68454e-05 -0.00417893 -1.60424e-05
 1.77819e-05 -0.000924352 2.63602e-05
 1.83835e-05 -0.000818203 -2.63129e-05
 -1.72083e-05 -0.00417869 1.60718e-05
 -2.6598e-05 -0.00207179 -2.63277e-05
 -3.4189e-05 -0.00346256 -3.42576e-05
 -6.01471e-05 -0.00257851 -8.15257e-06
 -1.75393e-05 -0.00176558 9.51101e-06
 -1.77166e-05 -0.00174883 -9.42916e-06
 -6.01438e-05 -0.00258099 7.96654e-06
 -3.41714e-05 -0.00345315 3.44408e-05
 -8.37363e-06 -0.00259378 -6.01509e-05
 3.479e-05 -0.00132435 3.47238e-05
 -4.39951e-05 -0.0031939 2.07272e-05
 -4.36421e-05 -0.0031943 -2.07003e-05
 3.49235e-05 -0.00129719 -3.46655e-05
 -9.18914e-06 -0.00258033 6.01365e-05
 9.6624e-06 -0.00175764 -1.71411e-05
 2.07264e-05 -0.00319372 -4.43605e-05
 -1.03059e-05 -0.0021539 -1.06087e-05
 -1.02821e-05 -0.0021516 1.06759e-05
 2.06525e-05 -0.00320019 4.44125e-05
 1.01817e-05 -0.00176755 1.70896e-05
 -9.71595e-06 -0.001763 -1.77482e-05
 -2.07639e-05 -0.00319014 -4.36281e-05
 1.00307e-05 -0.00219661 -1.06382e-05
 9.66449e-06 -0.00216464 1.06887e-05
 -2.07442e-05 -0.00319356 4.37681e-05
 -1.03917e-05 -0.0017646 1.76306e-05
 8.17752e-06 -0.00258988 -6.01728e-05
 -3.47697e-05 -0.00131128 3.47116e-05
 4.46577e-05 -0.00317987 2.07851e-05
 4.48094e-05 -0.00319166 -2.06635e-05
 -3.48641e-05 -0.00132896 -3.4748e-05
 9.14623e-06 -0.00257778 6.01227e-05
 3.43901e-05 -0.00346157 -3.42879e-05
 6.00776e-05 -0.0025972 -8.51736e-06
 1.70319e-05 -0.00167133 9.79807e-06
 1.70515e-05 -0.00177387 -9.84831e-06
 6.00503e-05 -0.0025949 8.60014e-06
 3.42763e-05 -0.00345634 3.42443e-05
 -1.95095e-05 -0.0036607 -1.95191e-05
 5.66733e-06 -0.000523727 1.78572e-05
 1.46371e-05 0.000688052 -7.86624e-06
 1.46761e-05 0.000680082 7.86349e-06
 5.71701e-06 -0.00052303 -1.79056e-05
 -1.95797e-05 -0.00366756 1.952e-05
 1.78989e-05 -0.000530205 5.59263e-06
 -1.5336e-06 -0.00106205 -1.58864e-06
 -1.00726e-05 -0.00211135 -9.63191e-06
 -6.46035e-06 -0.00210941 9.6586e-06
 -1.29209e-06 -0.00108483 1.56428e-06
 1.78214e-05 -0.000522595 -5.63147e-06
 -7.86655e-06 0.000678852 1.45888e-05
 -9.68656e-06 -0.00211718 -9.9507e-06
 5.65396e-06 0.000621919 5.43728e-06
 1.30112e-06 0.000625504 -5.5294e-06
 -9.80725e-06 -0.00210822 1.00631e-05
 -8.25971e-06 0.00069355 -1.46156e-05
 7.84089e-06 0.000682983 1.46173e-05
 9.68912e-06 -0.0021241 -9.97956e-06
 -5.71784e-06 0.000674638 5.49858e-06
 -1.34113e-06 0.000634971 -5.54833e-06
 9.7679e-06 -0.00211188 1.00582e-05
 8.22117e-06 0.000688059 -1.46261e-05
 -1.79243e-05 -0.000527545 5.65439e-06
 1.49538e-06 -0.00106835 -1.52952e-06
 1.01165e-05 -0.00212232 -9.6832e-06
 6.47477e-06 -0.00211767 9.68658e-06
 1.29019e-06 -0.00106298 1.53059e-06
 -1.78079e-05 -0.000523594 -5.61792e-06
 1.94633e-05 -0.003661 -1.95028e-05
 -5.71218e-06 -0.000527059 1.79321e-05
 -1.46617e-05 0.000686219 -7.87563e-06
 -1.46661e-05 0.000691615 7.8998e-06
 -5.6782e-06 -0.000528764 -1.79095e-05
 1.95971e-05 -0.00366434 1.95028e-05
 1.28733e-05 -0.00123819 1.28614e-05
 -1.54881e-05 -0.000620604 -2.67675e-05
 3.22767e-05 -0.000407829 1.94134e-05
 3.22619e-05 -0.000408765 -1.94428e-05
 -1.54286e-05 -0.000617779 2.66791e-05
 1.31287e-05 -0.0012287 -1.28811e-05
 -2.69304e-05 -0.000616766 -1.54417e-05
 1.55618e-05 0.000435768 1.57573e-05
 -3.29891e-05 -0.00336275 2.7626e-05
 -3.29513e-05 -0.00336405 -2.76383e-05
 1.51195e-05 0.000429913 -1.58471e-05
 -2.65894e-05 -0.000622113 1.54547e-05
 1.95719e-05 -0.000405228 3.22441e-05
 2.75642e-05 -0.00336299 -3.28971e-05
 -2.45069e-05 0.00146448 -2.45812e-05
 -2.45037e-05 0.00146304 2.45252e-05
 2.80442e-05 -0.00336344 3.29634e-05
 1.95522e-05 -0.000412993 -3.22839e-05
 -1.96106e-05 -0.000406431 3.22682e-05
 -2.75626e-05 -0.00336321 -3.28469e-05
 2.4629e-05 0.00149331 -2.46226e-05
 2.46313e-05 0.00147589 2.45026e-05
 -2.74742e-05 -0.00336324 3.29869e-05
 -1.95077e-05 -0.000406604 -3.22849e-05
 2.68688e-05 -0.000619063 -1.53761e-05
 -1.56494e-05 0.000425644 1.58702e-05
 3.29042e-05 -0.0033641 2.76084e-05
 3.28697e-05 -0.00336365 -2.7631e-05
 -1.55336e-05 0.000438934 -1.58774e-05
 2.66143e-05 -0.00062226 1.5452e-05
 -1.28796e-05 -0.00122823 1.29038e-05
 1.55348e-05 -0.000622465 -2.66165e-05
 -3.22759e-05 -0.000405383 1.93947e-05
 -3.22366e-05 -0.000408031 -1.93484e-05
 1.53664e-05 -0.000620204 2.66108e-05
 -1.30939e-05 -0.00123192 -1.2865e-05
 3.47575e-06 0.000769528 6.01916e-06
 1.54833e-05 0.00117453 3.92789e-06
 9.04137e-06 0.00255222 4.20829e-06
 9.02819e-06 0.00254678 -4.12659e-06
 1.5456e-05 0.00117216 -4.40045e-06
 2.80806e-06 0.000748324 -5.72613e-06
 5.86558e-06 0.00117174 1.54615e-05
 -2.03442e-06 0.00109341 -2.06175e-06
 -2.00919e-06 0.00195179 -8.72239e-06
 -2.00641e-06 0.0019568 8.75203e-06
 -2.00167e-06 0.00111515 2.02792e-06
 6.66444e-06 0.0011737 -1.55044e-05
 4.83636e-06 0.00254565 9.03141e-06
 -8.73491e-06 0.00196081 -2.0392e-06
 1.88332e-05 0.00273171 1.88228e-05
 1.88412e-05 0.00273228 -1.85634e-05
 -8.73427e-06 0.00195306 2.05784e-06
 4.68438e-06 0.00255564 -9.30776e-06
 -4.60687e-06 0.00254739 9.1542e-06
 8.75628e-06 0.00196382 -2.01184e-06
 -1.8551e-05 0.00274526 1.87184e-05
 -1.8575e-05 0.00273994 -1.86926e-05
 8.75653e-06 0.0019529 2.03802e-06
 -4.6372e-06 0.00255145 -9.1942e-06
 -7.278e-06 0.00117198 1.54972e-05
 2.03462e-06 0.00109398 -2.02276e-06
 2.04058e-06 0.00195823 -8.7137e-06
 2.05325e-06 0.00196092 8.73981e-06
 2.03564e-06 0.00109015 2.03538e-06
 -6.66523e-06 0.00117414 -1.549e-05
 -2.34141e-06 0.000759453 6.08394e-06
 -1.54833e-05 0.00117584 4.07771e-06
 -9.26737e-06 0.00252309 4.12547e-06
 -9.24338e-06 0.00254386 -4.11571e-06
 -1.53997e-05 0.00117312 -4.2732e-06
 -2.72657e-06 0.000758856 -5.81536e-06
 -1.63041e-06 0.00243454 -1.63553e-06
 5.3882e-06 0.00416062 -1.82571e-05
 -4.90079e-06 0.00144477 -9.36557e-06
 -4.9092e-06 0.0014474 9.16996e-06
 5.38221e-06 0.00416354 1.84618e-05
 -1.59697e-06 0.00243669 1.58336e-06
 -1.8279e-05 0.00416263 5.40649e-06
 -1.7853e-05 -2.97278e-05 -1.78614e-05
 4.45057e-06 -0.000754131 1.90533e-05
 4.44814e-06 -0.000758279 -1.90595e-05
 -1.78401e-05 -4.02356e-05 1.78611e-05
 -1.82993e-05 0.00416389 -5.39449e-06
 -9.38306e-06 0.0014497 -4.91018e-06
 1.90633e-05 -0.00076647 4.46122e-06
 1.73942e-05 0.00265637 1.73972e-05
 1.73881e-05 0.00265604 -1.73667e-05
 1.90514e-05 -0.000756508 -4.46512e-06
 -9.31168e-06 0.00144635 4.92426e-06
 9.14035e-06 0.00144962 -4.90904e-06
 -1.90632e-05 -0.000767874 4.46357e-06
 -1.73834e-05 0.00262115 1.73982e-05
 -1.73758e-05 0.00264049 -1.73664e-05
 -1.90235e-05 -0.000754296 -4.46704e-06
 9.19958e-06 0.00144841 4.91507e-06
 1.84677e-05 0.0041658 5.42677e-06
 1.78268e-05 -2.44811e-05 -1.78384e-05
 -4.47409e-06 -0.000758166 1.90575e-05
 -4.46717e-06 -0.000765803 -1.90425e-05
 1.78363e-05 -2.58787e-05 1.78661e-05
 1.84291e-05 0.00416306 -5.41229e-06
 1.5895e-06 0.00243901 -1.59555e-06
 -5.39521e-06 0.00416577 -1.83435e-05
 4.92336e-06 0.00143188 -9.20994e-06
 4.91966e-06 0.00144228 9.19737e-06
 -5.38726e-06 0.00416614 1.84345e-05
 1.62199e-06 0.00243673 1.61202e-06
 6.71456e-06 0.00137341 6.74541e-06
 3.39752e-06 -5.67244e-05 3.51778e-07
 3.30343e-06 0.000559175 -1.11343e-05
 3.30819e-06 0.000565418 1.11614e-05
 3.40981e-06 -5.79574e-05 -3.37433e-07
 6.74308e-06 0.00135143 -6.76388e-06
 3.21954e-07 -5.85183e-05 3.42604e-06
 -8.17599e-06 0.00179738 -8.13489e-06
 -1.5648e-05 0.00162234 1.58536e-06
 -1.56176e-05 0.00162244 -1.5503e-06
 -8.15524e-06 0.00178767 8.15607e-06
 3.37378e-07 -5.6443e-05 -3.41843e-06
 -1.11731e-05 0.000565306 3.33326e-06
 1.5468e-06 0.0016202 -1.55515e-05
 3.16296e-06 -0.000707876 3.13115e-06
 3.09743e-06 -0.000708362 -3.16478e-06
 1.52918e-06 0.00162146 1.56488e-05
 -1.11532e-05 0.00055861 -3.30798e-06
 1.1091e-05 0.000564148 3.33254e-06
 -1.60127e-06 0.00161962 -1.55538e-05
 -3.14282e-06 -0.000716424 3.13133e-06
 -3.17356e-06 -0.000712619 -3.16607e-06
 -1.59516e-06 0.0016222 1.56441e-05
 1.11027e-05 0.000558568 -3.3095e-06
 -4.0946e-07 -6.0124e-05 3.43343e-06
 8.08262e-06 0.00179745 -8.13281e-06
 1.55131e-05 0.00162181 1.59493e-06
 1.55515e-05 0.00161947 -1.54699e-06
 8.08961e-06 0.00179763 8.15732e-06
 -3.92593e-07 -5.7166e-05 -3.41029e-06
 -6.80374e-06 0.00135611 6.76321e-06