<?xml version="1.0"?>
<VTKFile type="UnstructuredGrid" version="0.1" byte_order="LittleEndian" compressor="vtkZLibDataCompressor">
<UnstructuredGrid>
<Piece NumberOfPoints="960" NumberOfCells="120">
<Points>
<DataArray type="Float32" NumberOfComponents="3" format="ascii">
-4.000000e+02 -6.000000e+03 -4.000000e+02
0.000000e+00 -6.000000e+03 -4.000000e+02
-4.000000e+02 -5.600000e+03 -4.000000e+02
8.558000e-10 -5.600000e+03 -4.000000e+02
-4.000000e+02 -6.000000e+03 0.000000e+00
0.000000e+00 -6.000000e+03 0.000000e+00
-4.000000e+02 -5.600000e+03 6.572250e-11
6.684050e-10 -5.600000e+03 9.210010e-11
0.000000e+00 -6.000000e+03 -4.000000e+02
4.000000e+02 -6.000000e+03 -4.000000e+02
8.558000e-10 -5.600000e+03 -4.000000e+02
4.000000e+02 -5.600000e+03 -4.000000e+02
0.000000e+00 -6.000000e+03 0.000000e+00
4.000000e+02 -6.000000e+03 0.000000e+00
6.684050e-10 -5.600000e+03 9.210010e-11
4.000000e+02 -5.600000e+03 -2.415770e-11
-4.000000e+02 -5.600000e+03 -4.000000e+02
8.558000e-10 -5.600000e+03 -4.000000e+02
-4.000000e+02 -5.200000e+03 -4.000000e+02
2.202180e-10 -5.200000e+03 -4.000000e+02
-4.000000e+02 -5.600000e+03 6.572250e-11
6.684050e-10 -5.600000e+03 9.210010e-11
-4.000000e+02 -5.200000e+03 6.366470e-10
1.016100e-10 -5.200000e+03 2.591660e-10
8.558000e-10 -5.600000e+03 -4.000000e+02
4.000000e+02 -5.600000e+03 -4.000000e+02
2.202180e-10 -5.200000e+03 -4.000000e+02
4.000000e+02 -5.200000e+03 -4.000000e+02
6.684050e-10 -5.600000e+03 9.210010e-11
4.000000e+02 -5.600000e+03 -2.415770e-11
1.016100e-10 -5.200000e+03 2.591660e-10
4.000000e+02 -5.200000e+03 4.570220e-10
-4.000000e+02 -5.200000e+03 -4.000000e+02
2.202180e-10 -5.200000e+03 -4.000000e+02
-4.000000e+02 -4.800000e+03 -4.000000e+02
-5.650670e-10 -4.800000e+03 -4.000000e+02
-4.000000e+02 -5.200000e+03 6.366470e-10
1.016100e-10 -5.200000e+03 2.591660e-10
-4.000000e+02 -4.800000e+03 2.177070e-09
-6.515980e-10 -4.800000e+03 1.927950e-09
2.202180e-10 -5.200000e+03 -4.000000e+02
4.000000e+02 -5.200000e+03 -4.000000e+02
-5.650670e-10 -4.800000e+03 -4.000000e+02
4.000000e+02 -4.800000e+03 -4.000000e+02
1.016100e-10 -5.200000e+03 2.591660e-10
4.000000e+02 -5.200000e+03 4.570220e-10
-6.515980e-10 -4.800000e+03 1.927950e-09
4.000000e+02 -4.800000e+03 2.228420e-09
-4.000000e+02 -4.800000e+03 -4.000000e+02
-5.650670e-10 -4.800000e+03 -4.000000e+02
-4.000000e+02 -4.400000e+03 -4.000000e+02
-1.328270e-09 -4.400000e+03 -4.000000e+02
-4.000000e+02 -4.800000e+03 2.177070e-09
-6.515980e-10 -4.800000e+03 1.927950e-09
-4.000000e+02 -4.400000e+03 1.852010e-09
-1.317140e-09 -4.400000e+03 1.846780e-09
-5.650670e-10 -4.800000e+03 -4.000000e+02
4.000000e+02 -4.800000e+03 -4.000000e+02
-1.328270e-09 -4.400000e+03 -4.000000e+02
4.000000e+02 -4.400000e+03 -4.000000e+02
-6.515980e-10 -4.800000e+03 1.927950e-09
4.000000e+02 -4.800000e+03 2.228420e-09
-1.317140e-09 -4.400000e+03 1.846780e-09
4.000000e+02 -4.400000e+03 1.764990e-09
-4.000000e+02 -4.400000e+03 -4.000000e+02
-1.328270e-09 -4.400000e+03 -4.000000e+02
-4.000000e+02 -4.000010e+03 -4.000000e+02
-2.539420e-09 -4.000010e+03 -4.000000e+02
-4.000000e+02 -4.400000e+03 1.852010e-09
-1.317140e-09 -4.400000e+03 1.846780e-09
-4.000000e+02 -4.000010e+03 5.278180e-10
-1.329280e-09 -4.000010e+03 1.012860e-09
-1.328270e-09 -4.400000e+03 -4.000000e+02
4.000000e+02 -4.400000e+03 -4.000000e+02
-2.539420e-09 -4.000010e+03 -4.000000e+02
4.000000e+02 -4.000010e+03 -4.000000e+02
-1.317140e-09 -4.400000e+03 1.846780e-09
4.000000e+02 -4.400000e+03 1.764990e-09
-1.329280e-09 -4.000010e+03 1.012860e-09
4.000000e+02 -4.000010e+03 4.612280e-10
-4.000000e+02 -4.000010e+03 -4.000000e+02
-2.539420e-09 -4.000010e+03 -4.000000e+02
-4.000000e+02 -3.600010e+03 -4.000000e+02
-1.916390e-09 -3.600010e+03 -4.000000e+02
-4.000000e+02 -4.000010e+03 5.278180e-10
-1.329280e-09 -4.000010e+03 1.012860e-09
-4.000000e+02 -3.600010e+03 1.303660e-09
-2.136570e-09 -3.600010e+03 1.497960e-09
-2.539420e-09 -4.000010e+03 -4.000000e+02
4.000000e+02 -4.000010e+03 -4.000000e+02
-1.916390e-09 -3.600010e+03 -4.000000e+02
4.000000e+02 -3.600010e+03 -4.000000e+02
-1.329280e-09 -4.000010e+03 1.012860e-09
4.000000e+02 -4.000010e+03 4.612280e-10
-2.136570e-09 -3.600010e+03 1.497960e-09
4.000000e+02 -3.600010e+03 8.418640e-10
-4.000000e+02 -3.600010e+03 -4.000000e+02
-1.916390e-09 -3.600010e+03 -4.000000e+02
-4.000000e+02 -3.200010e+03 -4.000000e+02
-1.032700e-09 -3.200010e+03 -4.000000e+02
-4.000000e+02 -3.600010e+03 1.303660e-09
-2.136570e-09 -3.600010e+03 1.497960e-09
-4.000000e+02 -3.200010e+03 2.491630e-09
-1.064760e-09 -3.200010e+03 1.126960e-09
-1.916390e-09 -3.600010e+03 -4.000000e+02
4.000000e+02 -3.600010e+03 -4.000000e+02
-1.032700e-09 -3.200010e+03 -4.000000e+02
4.000000e+02 -3.200010e+03 -4.000000e+02
-2.136570e-09 -3.600010e+03 1.497960e-09
4.000000e+02 -3.600010e+03 8.418640e-10
-1.064760e-09 -3.200010e+03 1.126960e-09
4.000000e+02 -3.200010e+03 1.125280e-09
-4.000000e+02 -3.200010e+03 -4.000000e+02
-1.032700e-09 -3.200010e+03 -4.000000e+02
-4.000000e+02 -2.800010e+03 -4.000000e+02
-1.854160e-09 -2.800010e+03 -4.000000e+02
-4.000000e+02 -3.200010e+03 2.491630e-09
-1.064760e-09 -3.200010e+03 1.126960e-09
-4.000000e+02 -2.800010e+03 3.090280e-09
-8.779530e-10 -2.800010e+03 3.375670e-10
-1.032700e-09 -3.200010e+03 -4.000000e+02
4.000000e+02 -3.200010e+03 -4.000000e+02
-1.854160e-09 -2.800010e+03 -4.000000e+02
4.000000e+02 -2.800010e+03 -4.000000e+02
-1.064760e-09 -3.200010e+03 1.126960e-09
4.000000e+02 -3.200010e+03 1.125280e-09
-8.779530e-10 -2.800010e+03 3.375670e-10
4.000000e+02 -2.800010e+03 1.833190e-09
-4.000000e+02 -2.800010e+03 -4.000000e+02
-1.854160e-09 -2.800010e+03 -4.000000e+02
-4.000000e+02 -2.400020e+03 -4.000000e+02
1.672650e-10 -2.400020e+03 -4.000000e+02
-4.000000e+02 -2.800010e+03 3.090280e-09
-8.779530e-10 -2.800010e+03 3.375670e-10
-4.000000e+02 -2.400020e+03 1.076190e-09
-1.841230e-09 -2.400020e+03 1.205170e-09
-1.854160e-09 -2.800010e+03 -4.000000e+02
4.000000e+02 -2.800010e+03 -4.000000e+02
1.672650e-10 -2.400020e+03 -4.000000e+02
4.000000e+02 -2.400020e+03 -4.000000e+02
-8.779530e-10 -2.800010e+03 3.375670e-10
4.000000e+02 -2.800010e+03 1.833190e-09
-1.841230e-09 -2.400020e+03 1.205170e-09
4.000000e+02 -2.400020e+03 3.708940e-10
-4.000000e+02 -2.400020e+03 -4.000000e+02
1.672650e-10 -2.400020e+03 -4.000000e+02
-4.000000e+02 -2.000030e+03 -4.000000e+02
-1.448180e-09 -2.000030e+03 -4.000000e+02
-4.000000e+02 -2.400020e+03 1.076190e-09
-1.841230e-09 -2.400020e+03 1.205170e-09
-4.000000e+02 -2.000030e+03 4.822490e-10
1.866550e-09 -2.000030e+03 2.638880e-10
1.672650e-10 -2.400020e+03 -4.000000e+02
4.000000e+02 -2.400020e+03 -4.000000e+02
-1.448180e-09 -2.000030e+03 -4.000000e+02
4.000000e+02 -2.000030e+03 -4.000000e+02
-1.841230e-09 -2.400020e+03 1.205170e-09
4.000000e+02 -2.400020e+03 3.708940e-10
1.866550e-09 -2.000030e+03 2.638880e-10
4.000000e+02 -2.000030e+03 -6.956110e-10
-4.000000e+02 -2.000030e+03 -4.000000e+02
-1.448180e-09 -2.000030e+03 -4.000000e+02
-4.000000e+02 -1.600050e+03 -4.000000e+02
-7.098460e-10 -1.600050e+03 -4.000000e+02
-4.000000e+02 -2.000030e+03 4.822490e-10
1.866550e-09 -2.000030e+03 2.638880e-10
-4.000000e+02 -1.600050e+03 1.553590e-10
-4.851210e-10 -1.600050e+03 -2.075480e-09
-1.448180e-09 -2.000030e+03 -4.000000e+02
4.000000e+02 -2.000030e+03 -4.000000e+02
-7.098460e-10 -1.600050e+03 -4.000000e+02
4.000000e+02 -1.600050e+03 -4.000000e+02
1.866550e-09 -2.000030e+03 2.638880e-10
4.000000e+02 -2.000030e+03 -6.956110e-10
-4.851210e-10 -1.600050e+03 -2.075480e-09
4.000000e+02 -1.600050e+03 -7.802750e-10
-4.000000e+02 -1.600050e+03 -4.000000e+02
-7.098460e-10 -1.600050e+03 -4.000000e+02
-4.000000e+02 -1.200080e+03 -4.000000e+02
-9.564580e-10 -1.200080e+03 -4.000000e+02
-4.000000e+02 -1.600050e+03 1.553590e-10
-4.851210e-10 -1.600050e+03 -2.075480e-09
-4.000000e+02 -1.200080e+03 -3.996310e-11
-2.827450e-09 -1.200080e+03 2.754230e-10
-7.098460e-10 -1.600050e+03 -4.000000e+02
4.000000e+02 -1.600050e+03 -4.000000e+02
-9.564580e-10 -1.200080e+03 -4.000000e+02
4.000000e+02 -1.200080e+03 -4.000000e+02
-4.851210e-10 -1.600050e+03 -2.075480e-09
4.000000e+02 -1.600050e+03 -7.802750e-10
-2.827450e-09 -1.200080e+03 2.754230e-10
4.000000e+02 -1.200080e+03 -1.625510e-09
-4.000000e+02 -1.200080e+03 -4.000000e+02
-9.564580e-10 -1.200080e+03 -4.000000e+02
-4.000000e+02 -8.001330e+02 -4.000000e+02
-5.468320e-09 -8.001330e+02 -4.000000e+02
-4.000000e+02 -1.200080e+03 -3.996310e-11
-2.827450e-09 -1.200080e+03 2.754230e-10
-4.000000e+02 -8.001330e+02 2.181400e-09
-1.516640e-10 -8.001330e+02 1.891780e-09
-9.564580e-10 -1.200080e+03 -4.000000e+02
4.000000e+02 -1.200080e+03 -4.000000e+02
-5.468320e-09 -8.001330e+02 -4.000000e+02
4.000000e+02 -8.001330e+02 -4.000000e+02
-2.827450e-09 -1.200080e+03 2.754230e-10
4.000000e+02 -1.200080e+03 -1.625510e-09
-1.516640e-10 -8.001330e+02 1.891780e-09
4.000000e+02 -8.001330e+02 1.779040e-09
-4.000000e+02 -8.001330e+02 -4.000000e+02
-5.468320e-09 -8.001330e+02 -4.000000e+02
-4.000000e+02 -4.001980e+02 -4.000000e+02
4.071800e-09 -4.001980e+02 -4.000000e+02
-4.000000e+02 -8.001330e+02 2.181400e-09
-1.516640e-10 -8.001330e+02 1.891780e-09
-4.000000e+02 -4.001980e+02 5.607700e-10
1.495540e-10 -4.001980e+02 -1.147740e-09
-5.468320e-09 -8.001330e+02 -4.000000e+02
4.000000e+02 -8.001330e+02 -4.000000e+02
4.071800e-09 -4.001980e+02 -4.000000e+02
4.000000e+02 -4.001980e+02 -4.000000e+02
-1.516640e-10 -8.001330e+02 1.891780e-09
4.000000e+02 -8.001330e+02 1.779040e-09
1.495540e-10 -4.001980e+02 -1.147740e-09
4.000000e+02 -4.001980e+02 -7.683340e-10
-4.000000e+02 -4.001980e+02 -4.000000e+02
4.071800e-09 -4.001980e+02 -4.000000e+02
-4.000000e+02 -2.653220e-01 -4.000000e+02
3.691920e-10 -2.653290e-01 -4.000000e+02
-4.000000e+02 -4.001980e+02 5.607700e-10
1.495540e-10 -4.001980e+02 -1.147740e-09
-4.000000e+02 -2.653290e-01 6.310240e-10
1.221780e-09 -2.653360e-01 2.765830e-10
4.071800e-09 -4.001980e+02 -4.000000e+02
4.000000e+02 -4.001980e+02 -4.000000e+02
3.691920e-10 -2.653290e-01 -4.000000e+02
4.000000e+02 -2.653220e-01 -4.000000e+02
[...]
<PointData>
<DataArray type="Float32" Name="V1" format="ascii">
0.000000e+00
0.000000e+00
2.696120e-05
-3.512010e-10
0.000000e+00
0.000000e+00
2.572790e-05
5.887590e-10
0.000000e+00
0.000000e+00
-3.512010e-10
-2.696190e-05
0.000000e+00
0.000000e+00
5.887590e-10
-2.572630e-05
2.696120e-05
-3.512010e-10
4.209960e-06
2.281720e-10
2.572790e-05
5.887590e-10
4.570720e-06
-3.718160e-10
-3.512010e-10
-2.696190e-05
2.281720e-10
-4.209550e-06
5.887590e-10
-2.572630e-05
-3.718160e-10
-4.572430e-06
4.209960e-06
2.281720e-10
-2.536090e-05
9.612650e-10
4.570720e-06
-3.718160e-10
-2.721590e-05
-4.849820e-10
2.281720e-10
-4.209550e-06
9.612650e-10
2.536230e-05
-3.718160e-10
-4.572430e-06
-4.849820e-10
2.721500e-05
-2.536090e-05
9.612650e-10
1.190310e-05
-4.015100e-10
-2.721590e-05
-4.849820e-10
1.222410e-05
1.269600e-09
9.612650e-10
2.536230e-05
-4.015100e-10
-1.190290e-05
-4.849820e-10
2.721500e-05
1.269600e-09
-1.222160e-05
1.190310e-05
-4.015100e-10
2.485950e-05
-1.450300e-09
1.222410e-05
1.269600e-09
2.584070e-05
-5.197540e-10
-4.015100e-10
-1.190290e-05
-1.450300e-09
-2.486270e-05
1.269600e-09
-1.222160e-05
-5.197540e-10
-2.584150e-05
2.485950e-05
-1.450300e-09
-2.371780e-05
-9.034830e-10
2.584070e-05
-5.197540e-10
-2.622060e-05
1.097170e-10
-1.450300e-09
-2.486270e-05
-9.034830e-10
2.371630e-05
-5.197540e-10
-2.584150e-05
1.097170e-10
2.621940e-05
-2.371780e-05
-9.034830e-10
-1.016930e-05
1.832470e-10
-2.622060e-05
1.097170e-10
-8.085010e-06
3.069010e-10
-9.034830e-10
2.371630e-05
1.832470e-10
1.016900e-05
1.097170e-10
2.621940e-05
3.069010e-10
8.085830e-06
-1.016930e-05
1.832470e-10
1.012870e-05
1.005140e-09
-8.085010e-06
3.069010e-10
9.763590e-06
-1.390700e-09
1.832470e-10
1.016900e-05
1.005140e-09
-1.012700e-05
3.069010e-10
8.085830e-06
-1.390700e-09
-9.766930e-06
1.012870e-05
1.005140e-09
5.521450e-06
5.058530e-10
9.763590e-06
-1.390700e-09
4.675320e-06
1.514580e-09
1.005140e-09
-1.012700e-05
5.058530e-10
-5.521090e-06
-1.390700e-09
-9.766930e-06
1.514580e-09
-4.673720e-06
5.521450e-06
5.058530e-10
1.761560e-06
3.411750e-10
4.675320e-06
1.514580e-09
6.047700e-06
5.714250e-10
5.058530e-10
-5.521090e-06
3.411750e-10
-1.760240e-06
1.514580e-09
-4.673720e-06
5.714250e-10
-6.045110e-06
1.761560e-06
3.411750e-10
-1.138340e-05
2.120880e-09
6.047700e-06
5.714250e-10
-1.196620e-05
-2.400980e-09
3.411750e-10
-1.760240e-06
2.120880e-09
1.138550e-05
5.714250e-10
-6.045110e-06
-2.400980e-09
1.195910e-05
-1.138340e-05
2.120880e-09
7.361400e-06
-4.954780e-09
-1.196620e-05
-2.400980e-09
5.097490e-06
-6.477000e-10
2.120880e-09
1.138550e-05
-4.954780e-09
-7.367340e-06
-2.400980e-09
1.195910e-05
-6.477000e-10
-5.095490e-06
7.361400e-06
-4.954780e-09
-5.681660e-07
2.510710e-09
5.097490e-06
-6.477000e-10
1.295000e-06
7.195830e-10
-4.954780e-09
-7.367340e-06
2.510710e-09
5.689520e-07
-6.477000e-10
-5.095490e-06
7.195830e-10
-1.295520e-06
-5.681660e-07
2.510710e-09
2.594400e-07
4.328000e-09
1.295000e-06
7.195830e-10
-2.861260e-06
3.658360e-10
2.510710e-09
5.689520e-07
4.328000e-09
-2.533600e-07
7.195830e-10
-1.295520e-06
3.658360e-10
2.853920e-06
2.594400e-07
4.328000e-09
5.872180e-06
-1.315440e-08
-2.861260e-06
3.658360e-10
3.049960e-06
1.673510e-10
4.328000e-09
-2.533600e-07
-1.315440e-08
-5.880030e-06
3.658360e-10
2.853920e-06
1.673510e-10
-3.020720e-06
5.872180e-06
-1.315440e-08
-9.374230e-06
1.588470e-08
3.049960e-06
1.673510e-10
-1.000600e-05
8.595860e-09
-1.315440e-08
-5.880030e-06
1.588470e-08
9.364320e-06
1.673510e-10
-3.020720e-06
8.595860e-09
9.968300e-06
-9.374230e-06
1.588470e-08
7.452670e-06
3.630830e-09
-1.000600e-05
8.595860e-09
7.643760e-06
-1.155200e-08
1.588470e-08
9.364320e-06
3.630830e-09
-7.404200e-06
8.595860e-09
9.968300e-06
-1.155200e-08
-7.618640e-06
7.452670e-06
3.630830e-09
9.505840e-06
-2.706140e-08
7.643760e-06
-1.155200e-08
6.813690e-06
-3.736270e-09
3.630830e-09
-7.404200e-06
-2.706140e-08
-9.542690e-06
-1.155200e-08
-7.618640e-06
-3.736270e-09
-6.805360e-06
9.505840e-06
-2.706140e-08
-3.150300e-06
9.005190e-09
6.813690e-06
-3.736270e-09
-5.488820e-06
-1.692980e-08
-2.706140e-08
-9.542690e-06
9.005190e-09
3.002750e-06
-3.736270e-09
-6.805360e-06
-1.692980e-08
5.430940e-06
-3.150300e-06
9.005190e-09
-1.704900e-05
-1.395280e-08
-5.488820e-06
-1.692980e-08
-1.804210e-05
1.193740e-07
9.005190e-09
3.002750e-06
-1.395280e-08
1.716090e-05
-1.692980e-08
5.430940e-06
1.193740e-07
1.790850e-05
-1.704900e-05
-1.395280e-08
-1.994940e-05
-2.829320e-08
-1.804210e-05
1.193740e-07
-1.366650e-05
-3.184590e-08
-1.395280e-08
1.716090e-05
-2.829320e-08
2.009860e-05
1.193740e-07
1.790850e-05
-3.184590e-08
1.375220e-05
-1.994940e-05
-2.829320e-08
4.360650e-05
-3.504950e-08
-1.366650e-05
-3.184590e-08
4.264520e-05
2.408770e-08
-2.829320e-08
2.009860e-05
-3.504950e-08
-4.371360e-05
-3.184590e-08
1.375220e-05
2.408770e-08
-4.274300e-05
4.360650e-05
-3.504950e-08
-1.683780e-05
3.922140e-09
4.264520e-05
2.408770e-08
-1.728170e-05
2.742310e-08
-3.504950e-08
-4.371360e-05
3.922140e-09
1.686960e-05
2.408770e-08
-4.274300e-05
2.742310e-08
1.733610e-05
-1.683780e-05
3.922140e-09
-2.311910e-05
3.201020e-08
-1.728170e-05
2.742310e-08
-2.411260e-05
1.756990e-08
3.922140e-09
1.686960e-05
3.201020e-08
2.318070e-05
2.742310e-08
1.733610e-05
1.756990e-08
2.415480e-05
-2.311910e-05
3.201020e-08
2.011990e-05
-3.096060e-08
-2.411260e-05
1.756990e-08
1.799630e-05
-2.090680e-08
3.201020e-08
2.318070e-05
-3.096060e-08
-2.018060e-05
1.756990e-08
2.415480e-05
-2.090680e-08
-1.804770e-05
2.011990e-05
-3.096060e-08
-2.198570e-06
-3.760990e-10
1.799630e-05
-2.090680e-08
-6.716400e-07
-1.001380e-09
-3.096060e-08
-2.018060e-05
-3.760990e-10
2.200640e-06
-2.090680e-08
-1.804770e-05
-1.001380e-09
6.694250e-07
-2.198570e-06
-3.760990e-10
2.708290e-06
1.460380e-08
-6.716400e-07
-1.001380e-09
3.611770e-06
1.945530e-08
-3.760990e-10
2.200640e-06
1.460380e-08
-2.677400e-06
-1.001380e-09
6.694250e-07
1.945530e-08
-3.576530e-06
2.708290e-06
1.460380e-08
3.578710e-07
-1.086840e-08
3.611770e-06
1.945530e-08
2.259230e-06
-7.400480e-09
1.460380e-08
-2.677400e-06
-1.086840e-08
-3.785940e-07
1.945530e-08
-3.576530e-06
-7.400480e-09
-2.273370e-06
3.578710e-07
-1.086840e-08
-2.031950e-06
-2.911650e-09
2.259230e-06
-7.400480e-09
-2.595580e-06
-5.902120e-09
-1.086840e-08
-3.785940e-07
-2.911650e-09
2.026170e-06
-7.400480e-09
-2.273370e-06
-5.902120e-09
2.583810e-06
-2.031950e-06
-2.911650e-09
-2.981790e-06
2.028250e-09
-2.595580e-06
-5.902120e-09
-5.545710e-06
1.446440e-09
-2.911650e-09
2.026170e-06
2.028250e-09
2.985940e-06
-5.902120e-09
2.583810e-06
1.446440e-09
5.548620e-06
0.000000e+00
0.000000e+00
2.572790e-05
5.887590e-10
0.000000e+00
0.000000e+00
2.696130e-05
-2.620160e-10
0.000000e+00
0.000000e+00
5.887590e-10
-2.572630e-05
0.000000e+00
0.000000e+00
-2.620160e-10
-2.696120e-05
2.572790e-05
5.887590e-10
4.570720e-06
-3.718160e-10
2.696130e-05
-2.620160e-10
4.207460e-06
-2.230070e-10
5.887590e-10
-2.572630e-05
-3.718160e-10
-4.572430e-06
-2.620160e-10
-2.696120e-05
-2.230070e-10
-4.208950e-06
4.570720e-06
-3.718160e-10
-2.721590e-05
-4.849820e-10
4.207460e-06
-2.230070e-10
-2.535930e-05
5.292930e-10
-3.718160e-10
-4.572430e-06
-4.849820e-10
2.721500e-05
-2.230070e-10
-4.208950e-06
5.292930e-10
2.536090e-05
-2.721590e-05
-4.849820e-10
1.222410e-05
1.269600e-09
-2.535930e-05
5.292930e-10
1.190530e-05
2.630260e-10
-4.849820e-10
2.721500e-05
1.269600e-09
-1.222160e-05
5.292930e-10
2.536090e-05
2.630260e-10
-1.190330e-05
1.222410e-05
1.269600e-09
2.584070e-05
-5.197540e-10
1.190530e-05
2.630260e-10
2.486090e-05
-6.203600e-10
1.269600e-09
-1.222160e-05
-5.197540e-10
-2.584150e-05
2.630260e-10
-1.190330e-05
-6.203600e-10
-2.486250e-05
2.584070e-05
-5.197540e-10
-2.622060e-05
1.097170e-10
2.486090e-05
-6.203600e-10
-2.371750e-05
1.414450e-10
-5.197540e-10
-2.584150e-05
1.097170e-10
2.621940e-05
-6.203600e-10
-2.486250e-05
1.414450e-10
2.371770e-05
-2.622060e-05
1.097170e-10
-8.085010e-06
3.069010e-10
-2.371750e-05
1.414450e-10
-1.016720e-05
-1.410850e-10
1.097170e-10
2.621940e-05
3.069010e-10
8.085830e-06
1.414450e-10
2.371770e-05
-1.410850e-10
1.016670e-05
-8.085010e-06
3.069010e-10
9.763590e-06
-1.390700e-09
-1.016720e-05
-1.410850e-10
1.012690e-05
-1.251410e-10
3.069010e-10
8.085830e-06
-1.390700e-09
-9.766930e-06
-1.410850e-10
1.016670e-05
-1.251410e-10
-1.012670e-05
9.763590e-06
-1.390700e-09
4.675320e-06
1.514580e-09
1.012690e-05
-1.251410e-10
5.520100e-06
1.197030e-10
-1.390700e-09
-9.766930e-06
1.514580e-09
-4.673720e-06
-1.251410e-10
-1.012670e-05
1.197030e-10
-5.519080e-06
4.675320e-06
1.514580e-09
6.047700e-06
5.714250e-10
5.520100e-06
1.197030e-10
1.764140e-06
7.510200e-10
1.514580e-09
-4.673720e-06
5.714250e-10
-6.045110e-06
1.197030e-10
-5.519080e-06
7.510200e-10
-1.760920e-06
6.047700e-06
5.714250e-10
-1.196620e-05
-2.400980e-09
1.764140e-06
7.510200e-10
-1.138640e-05
2.499690e-09
5.714250e-10
-6.045110e-06
-2.400980e-09
1.195910e-05
7.510200e-10
-1.760920e-06
2.499690e-09
1.139020e-05
-1.196620e-05
-2.400980e-09
5.097490e-06
-6.477000e-10
-1.138640e-05
2.499690e-09
7.363000e-06
-5.480870e-09
-2.400980e-09
1.195910e-05
-6.477000e-10
-5.095490e-06
2.499690e-09
1.139020e-05
-5.480870e-09
-7.371340e-06
5.097490e-06
-6.477000e-10
1.295000e-06
7.195830e-10
7.363000e-06
-5.480870e-09
-5.704600e-07
2.399850e-09
-6.477000e-10
-5.095490e-06
7.195830e-10
-1.295520e-06
-5.480870e-09
-7.371340e-06
2.399850e-09
5.718580e-07
1.295000e-06
7.195830e-10
-2.861260e-06
3.658360e-10
-5.704600e-07
2.399850e-09
2.618120e-07
1.286950e-09
7.195830e-10
-1.295520e-06
3.658360e-10
2.853920e-06
2.399850e-09
5.718580e-07
1.286950e-09
-2.550410e-07
-2.861260e-06
3.658360e-10
3.049960e-06
1.673510e-10
2.618120e-07
1.286950e-09
5.870420e-06
-5.471870e-09
3.658360e-10
2.853920e-06
1.673510e-10
-3.020720e-06
1.286950e-09
-2.550410e-07
-5.471870e-09
-5.880240e-06
3.049960e-06
1.673510e-10
-1.000600e-05
8.595860e-09
5.870420e-06
-5.471870e-09
-9.363920e-06
1.074690e-08
1.673510e-10
-3.020720e-06
8.595860e-09
9.968300e-06
-5.471870e-09
-5.880240e-06
1.074690e-08
9.367270e-06
-1.000600e-05
8.595860e-09
7.643760e-06
-1.155200e-08
-9.363920e-06
1.074690e-08
7.427120e-06
-1.328660e-08
8.595860e-09
9.968300e-06
-1.155200e-08
-7.618640e-06
1.074690e-08
9.367270e-06
-1.328660e-08
-7.421040e-06
7.643760e-06
-1.155200e-08
6.813690e-06
-3.736270e-09
7.427120e-06
-1.328660e-08
9.508810e-06
-7.695990e-09
-1.155200e-08
-7.618640e-06
-3.736270e-09
-6.805360e-06
-1.328660e-08
-7.421040e-06
-7.695990e-09
-9.513260e-06
6.813690e-06
-3.736270e-09
-5.488820e-06
-1.692980e-08
9.508810e-06
-7.695990e-09
-3.116940e-06
5.809060e-08
-3.736270e-09
-6.805360e-06
-1.692980e-08
5.430940e-06
-7.695990e-09
-9.513260e-06
5.809060e-08
3.020740e-06
-5.488820e-06
-1.692980e-08
-1.804210e-05
1.193740e-07
-3.116940e-06
5.809060e-08
-1.692350e-05
-1.485260e-07
-1.692980e-08
5.430940e-06
1.193740e-07
1.790850e-05
5.809060e-08
3.020740e-06
-1.485260e-07
1.722060e-05
-1.804210e-05
1.193740e-07
-1.366650e-05
-3.184590e-08
-1.692350e-05
-1.485260e-07
-2.007340e-05
2.105950e-08
1.193740e-07
1.790850e-05
-3.184590e-08
1.375220e-05
-1.485260e-07
1.722060e-05
2.105950e-08
1.993870e-05
-1.366650e-05
-3.184590e-08
4.264520e-05
2.408770e-08
-2.007340e-05
2.105950e-08
4.364370e-05
2.644710e-08
-3.184590e-08
1.375220e-05
2.408770e-08
-4.274300e-05
2.105950e-08
1.993870e-05
2.644710e-08
-4.379170e-05
4.264520e-05
2.408770e-08
-1.728170e-05
2.742310e-08
4.364370e-05
2.644710e-08
-1.679670e-05
2.784350e-08
2.408770e-08
-4.274300e-05
2.742310e-08
1.733610e-05
2.644710e-08
-4.379170e-05
2.784350e-08
1.685690e-05
-1.728170e-05
2.742310e-08
-2.411260e-05
1.756990e-08
-1.679670e-05
2.784350e-08
-2.311220e-05
1.582390e-08
2.742310e-08
1.733610e-05
1.756990e-08
2.415480e-05
2.784350e-08
1.685690e-05
1.582390e-08
2.314700e-05
-2.411260e-05
1.756990e-08
1.799630e-05
-2.090680e-08
-2.311220e-05
1.582390e-08
2.010830e-05
-2.588860e-08
1.756990e-08
2.415480e-05
-2.090680e-08
-1.804770e-05
1.582390e-08
2.314700e-05
-2.588860e-08
-2.016080e-05
1.799630e-05
-2.090680e-08
-6.716400e-07
-1.001380e-09
2.010830e-05
-2.588860e-08
-2.214550e-06
-6.825550e-09
-2.090680e-08
-1.804770e-05
-1.001380e-09
6.694250e-07
-2.588860e-08
-2.016080e-05
-6.825550e-09
2.201490e-06
-6.716400e-07
-1.001380e-09
3.611770e-06
1.945530e-08
-2.214550e-06
-6.825550e-09
2.711570e-06
2.118570e-08
-1.001380e-09
6.694250e-07
1.945530e-08
-3.576530e-06
-6.825550e-09
2.201490e-06
2.118570e-08
-2.667760e-06
3.611770e-06
1.945530e-08
2.259230e-06
-7.400480e-09
2.711570e-06
2.118570e-08
3.678320e-07
-2.631820e-09
1.945530e-08
-3.576530e-06
-7.400480e-09
-2.273370e-06
2.118570e-08
-2.667760e-06
-2.631820e-09
-3.724200e-07
2.259230e-06
-7.400480e-09
-2.595580e-06
-5.902120e-09
3.678320e-07
-2.631820e-09
-2.036150e-06
-7.623510e-09
-7.400480e-09
-2.273370e-06
-5.902120e-09
2.583810e-06
-2.631820e-09
-3.724200e-07
-7.623510e-09
2.021020e-06
-2.595580e-06
-5.902120e-09
-5.545710e-06
1.446440e-09
-2.036150e-06
-7.623510e-09
-2.983980e-06
8.735280e-11
-5.902120e-09
2.583810e-06
1.446440e-09
5.548620e-06
-7.623510e-09
2.021020e-06
8.735280e-11
2.984230e-06
</DataArray>
<DataArray type="Float32" Name="V2" format="ascii">
0.000000e+00
0.000000e+00
-2.583560e-05
-1.793240e-05
0.000000e+00
0.000000e+00
-1.792770e-05
-2.144490e-05
0.000000e+00
0.000000e+00
-1.793240e-05
-2.584280e-05
0.000000e+00
0.000000e+00
-2.144490e-05
-1.792470e-05
-2.583560e-05
-1.793240e-05
-5.150750e-05
-2.704100e-06
-1.792770e-05
-2.144490e-05
-2.705480e-06
4.941030e-05
-1.793240e-05
-2.584280e-05
-2.704100e-06
-5.151120e-05
-2.144490e-05
-1.792470e-05
4.941030e-05
-2.709500e-06
-5.150750e-05
-2.704100e-06
5.624410e-04
5.171340e-04
-2.705480e-06
4.941030e-05
5.171390e-04
4.778590e-04
-2.704100e-06
-5.151120e-05
5.171340e-04
5.624400e-04
4.941030e-05
-2.709500e-06
4.778590e-04
5.171400e-04
5.624410e-04
5.171340e-04
3.408420e-04
3.712330e-04
5.171390e-04
4.778590e-04
3.712340e-04
3.934130e-04
5.171340e-04
5.624400e-04
3.712330e-04
3.408520e-04
4.778590e-04
5.171400e-04
3.934130e-04
3.712320e-04
3.408420e-04
3.712330e-04
1.061910e-03
1.034970e-03
3.712340e-04
3.934130e-04
1.034970e-03
1.011830e-03
3.712330e-04
3.408520e-04
1.034970e-03
1.061910e-03
3.934130e-04
3.712320e-04
1.011830e-03
1.034970e-03
1.061910e-03
1.034970e-03
3.728260e-04
3.565730e-04
1.034970e-03
1.011830e-03
3.565720e-04
3.445910e-04
1.034970e-03
1.061910e-03
3.565730e-04
3.728330e-04
1.011830e-03
1.034970e-03
3.445910e-04
3.565740e-04
3.728260e-04
3.565730e-04
1.528060e-03
1.552510e-03
3.565720e-04
3.445910e-04
1.552510e-03
1.570580e-03
3.565730e-04
3.728330e-04
1.552510e-03
1.528070e-03
3.445910e-04
3.565740e-04
1.570580e-03
1.552510e-03
1.528060e-03
1.552510e-03
1.506020e-03
1.503620e-03
1.552510e-03
1.570580e-03
1.503620e-03
1.505040e-03
1.552510e-03
1.528070e-03
1.503620e-03
1.506010e-03
1.570580e-03
1.552510e-03
1.505040e-03
1.503620e-03
1.506020e-03
1.503620e-03
4.625490e-03
4.669470e-03
1.503620e-03
1.505040e-03
4.669460e-03
4.719210e-03
1.503620e-03
1.506010e-03
4.669470e-03
4.625500e-03
1.505040e-03
1.503620e-03
4.719210e-03
4.669470e-03
4.625490e-03
4.669470e-03
8.848930e-03
8.827640e-03
4.669460e-03
4.719210e-03
8.827630e-03
8.801010e-03
4.669470e-03
4.625500e-03
8.827640e-03
8.848930e-03
4.719210e-03
4.669470e-03
8.801010e-03
8.827640e-03
8.848930e-03
8.827640e-03
1.624710e-02
1.623700e-02
8.827630e-03
8.801010e-03
1.623700e-02
1.622270e-02
8.827640e-03
8.848930e-03
1.623700e-02
1.624710e-02
8.801010e-03
8.827640e-03
1.622270e-02
1.623700e-02
1.624710e-02
1.623700e-02
2.804550e-02
2.805450e-02
1.623700e-02
1.622270e-02
2.805450e-02
2.806840e-02
1.623700e-02
1.624710e-02
2.805450e-02
2.804550e-02
1.622270e-02
1.623700e-02
2.806840e-02
2.805450e-02
2.804550e-02
2.805450e-02
4.040030e-02
4.040590e-02
2.805450e-02
2.806840e-02
4.040590e-02
4.040420e-02
2.805450e-02
2.804550e-02
4.040590e-02
4.040030e-02
2.806840e-02
2.805450e-02
4.040420e-02
4.040590e-02
4.040030e-02
4.040590e-02
4.825200e-02
4.823780e-02
4.040590e-02
4.040420e-02
4.823770e-02
4.821630e-02
4.040590e-02
4.040030e-02
4.823780e-02
4.825200e-02
4.040420e-02
4.040590e-02
4.821630e-02
4.823770e-02
4.825200e-02
4.823780e-02
4.102840e-02
4.103400e-02
4.823770e-02
4.821630e-02
4.103400e-02
4.105000e-02
4.823780e-02
4.825200e-02
4.103400e-02
4.102840e-02
4.821630e-02
4.823770e-02
4.105000e-02
4.103400e-02
4.102840e-02
4.103400e-02
2.022770e-02
2.025100e-02
4.103400e-02
4.105000e-02
2.025100e-02
2.027090e-02
4.103400e-02
4.102840e-02
2.025100e-02
2.022780e-02
4.105000e-02
4.103400e-02
2.027090e-02
2.025100e-02
2.022770e-02
2.025100e-02
-9.620870e-03
-9.627640e-03
2.025100e-02
2.027090e-02
-9.627650e-03
-9.638350e-03
2.025100e-02
2.022780e-02
-9.627640e-03
-9.620880e-03
2.027090e-02
2.025100e-02
-9.638350e-03
-9.627620e-03
-9.620870e-03
-9.627640e-03
-2.674980e-02
-2.678020e-02
-9.627650e-03
-9.638350e-03
-2.678020e-02
-2.681110e-02
-9.627640e-03
-9.620880e-03
-2.678020e-02
-2.674980e-02
-9.638350e-03
-9.627620e-03
-2.681110e-02
-2.678030e-02
-2.674980e-02
-2.678020e-02
-1.274360e-02
-1.270210e-02
-2.678020e-02
-2.681110e-02
-1.270210e-02
-1.264650e-02
-2.678020e-02
-2.674980e-02
-1.270210e-02
-1.274390e-02
-2.681110e-02
-2.678030e-02
-1.264650e-02
-1.270220e-02
-1.274360e-02
-1.270210e-02
1.119040e-02
1.130560e-02
-1.270210e-02
-1.264650e-02
1.130550e-02
1.131990e-02
-1.270210e-02
-1.274390e-02
1.130560e-02
1.119090e-02
-1.264650e-02
-1.270220e-02
1.131990e-02
1.130580e-02
1.119040e-02
1.130560e-02
1.383530e-02
1.378660e-02
1.130550e-02
1.131990e-02
1.378660e-02
1.377010e-02
1.130560e-02
1.119090e-02
1.378660e-02
1.383510e-02
1.131990e-02
1.130580e-02
1.377010e-02
1.378620e-02
1.383530e-02
1.378660e-02
-4.326460e-03
-4.447580e-03
1.378660e-02
1.377010e-02
-4.447540e-03
-4.571140e-03
1.378660e-02
1.383510e-02
-4.447580e-03
-4.327330e-03
1.377010e-02
1.378620e-02
-4.571140e-03
-4.447720e-03
-4.326460e-03
-4.447580e-03
-7.242110e-03
-7.125680e-03
-4.447540e-03
-4.571140e-03
-7.125840e-03
-6.978810e-03
-4.447580e-03
-4.327330e-03
-7.125680e-03
-7.241440e-03
-4.571140e-03
-4.447720e-03
-6.978810e-03
-7.124830e-03
-7.242110e-03
-7.125680e-03
2.521710e-03
2.431590e-03
-7.125840e-03
-6.978810e-03
2.431770e-03
2.376410e-03
-7.125680e-03
-7.241440e-03
2.431590e-03
2.521430e-03
-6.978810e-03
-7.124830e-03
2.376410e-03
2.431140e-03
2.521710e-03
2.431590e-03
2.455140e-03
2.454630e-03
2.431770e-03
2.376410e-03
2.454520e-03
2.401190e-03
2.431590e-03
2.521430e-03
2.454630e-03
2.455470e-03
2.376410e-03
2.431140e-03
2.401190e-03
2.454590e-03
2.455140e-03
2.454630e-03
-6.735550e-04
-6.627360e-04
2.454520e-03
2.401190e-03
-6.628020e-04
-6.608200e-04
2.454630e-03
2.455470e-03
-6.627360e-04
-6.733250e-04
2.401190e-03
2.454590e-03
-6.608200e-04
-6.626310e-04
-6.735550e-04
-6.627360e-04
-2.896030e-04
-2.743670e-04
-6.628020e-04
-6.608200e-04
-2.739680e-04
-2.533810e-04
-6.627360e-04
-6.733250e-04
-2.743670e-04
-2.893930e-04
-6.608200e-04
-6.626310e-04
-2.533810e-04
-2.740830e-04
-2.896030e-04
-2.743670e-04
2.078830e-04
1.996880e-04
-2.739680e-04
-2.533810e-04
1.993910e-04
1.829120e-04
-2.743670e-04
-2.893930e-04
1.996880e-04
2.074660e-04
-2.533810e-04
-2.740830e-04
1.829120e-04
1.994510e-04
2.078830e-04
1.996880e-04
8.389520e-05
8.760370e-05
1.993910e-04
1.829120e-04
8.756080e-05
1.298780e-04
1.996880e-04
2.074660e-04
8.760370e-05
8.386340e-05
1.829120e-04
1.994510e-04
1.298780e-04
8.754630e-05
8.389520e-05
8.760370e-05
-9.063630e-06
-1.996710e-06
8.756080e-05
1.298780e-04
-1.991680e-06
-3.116860e-06
8.760370e-05
8.386340e-05
-1.996710e-06
-9.081610e-06
1.298780e-04
8.754630e-05
-3.116860e-06
-1.998720e-06
0.000000e+00
0.000000e+00
-1.792770e-05
-2.144490e-05
0.000000e+00
0.000000e+00
-2.583960e-05
-1.793240e-05
0.000000e+00
0.000000e+00
-2.144490e-05
-1.792470e-05
0.000000e+00
0.000000e+00
-1.793240e-05
-2.584330e-05
-1.792770e-05
-2.144490e-05
-2.705480e-06
4.941030e-05
-2.583960e-05
-1.793240e-05
-5.150840e-05
-2.706860e-06
-2.144490e-05
-1.792470e-05
4.941030e-05
-2.709500e-06
-1.793240e-05
-2.584330e-05
-2.706860e-06
-5.151430e-05
-2.705480e-06
4.941030e-05
5.171390e-04
4.778590e-04
-5.150840e-05
-2.706860e-06
5.624410e-04