<?xml version="1.0"?>
<VTKFile type="UnstructuredGrid" version="0.1" byte_order="LittleEndian" compressor="vtkZLibDataCompressor">
<UnstructuredGrid>
<Piece NumberOfPoints="960" NumberOfCells="120">
<Points>
<DataArray type="Float32" NumberOfComponents="3" format="ascii">
-4.000000e+02 -6.000000e+03 -4.000000e+02
0.000000e+00 -6.000000e+03 -4.000000e+02
-4.000000e+02 -5.600010e+03 -4.000000e+02
1.889650e-10 -5.600010e+03 -4.000000e+02
-4.000000e+02 -6.000000e+03 0.000000e+00
0.000000e+00 -6.000000e+03 0.000000e+00
-4.000000e+02 -5.600010e+03 3.613420e-10
-8.338880e-10 -5.600010e+03 5.630480e-10
0.000000e+00 -6.000000e+03 -4.000000e+02
4.000000e+02 -6.000000e+03 -4.000000e+02
1.889650e-10 -5.600010e+03 -4.000000e+02
4.000000e+02 -5.600010e+03 -4.000000e+02
0.000000e+00 -6.000000e+03 0.000000e+00
4.000000e+02 -6.000000e+03 0.000000e+00
-8.338880e-10 -5.600010e+03 5.630480e-10
4.000000e+02 -5.600010e+03 -2.365730e-10
-4.000000e+02 -5.600010e+03 -4.000000e+02
1.889650e-10 -5.600010e+03 -4.000000e+02
-4.000000e+02 -5.199990e+03 -4.000000e+02
-5.816430e-10 -5.199990e+03 -4.000000e+02
-4.000000e+02 -5.600010e+03 3.613420e-10
-8.338880e-10 -5.600010e+03 5.630480e-10
-4.000000e+02 -5.199990e+03 -6.273360e-10
-3.944710e-10 -5.199990e+03 -5.651480e-10
1.889650e-10 -5.600010e+03 -4.000000e+02
4.000000e+02 -5.600010e+03 -4.000000e+02
-5.816430e-10 -5.199990e+03 -4.000000e+02
4.000000e+02 -5.199990e+03 -4.000000e+02
-8.338880e-10 -5.600010e+03 5.630480e-10
4.000000e+02 -5.600010e+03 -2.365730e-10
-3.944710e-10 -5.199990e+03 -5.651480e-10
4.000000e+02 -5.199990e+03 -9.496890e-11
-4.000000e+02 -5.199990e+03 -4.000000e+02
-5.816430e-10 -5.199990e+03 -4.000000e+02
-4.000000e+02 -4.799980e+03 -4.000000e+02
1.847260e-10 -4.799980e+03 -4.000000e+02
-4.000000e+02 -5.199990e+03 -6.273360e-10
-3.944710e-10 -5.199990e+03 -5.651480e-10
-4.000000e+02 -4.799980e+03 -6.041240e-11
3.319700e-11 -4.799980e+03 -1.969300e-10
-5.816430e-10 -5.199990e+03 -4.000000e+02
4.000000e+02 -5.199990e+03 -4.000000e+02
1.847260e-10 -4.799980e+03 -4.000000e+02
4.000000e+02 -4.799980e+03 -4.000000e+02
-3.944710e-10 -5.199990e+03 -5.651480e-10
4.000000e+02 -5.199990e+03 -9.496890e-11
3.319700e-11 -4.799980e+03 -1.969300e-10
4.000000e+02 -4.799980e+03 -2.798050e-10
-4.000000e+02 -4.799980e+03 -4.000000e+02
1.847260e-10 -4.799980e+03 -4.000000e+02
-4.000000e+02 -4.400000e+03 -4.000000e+02
-6.522500e-10 -4.400000e+03 -4.000000e+02
-4.000000e+02 -4.799980e+03 -6.041240e-11
3.319700e-11 -4.799980e+03 -1.969300e-10
-4.000000e+02 -4.400000e+03 2.665140e-10
-3.635830e-10 -4.400000e+03 6.602810e-11
1.847260e-10 -4.799980e+03 -4.000000e+02
4.000000e+02 -4.799980e+03 -4.000000e+02
-6.522500e-10 -4.400000e+03 -4.000000e+02
4.000000e+02 -4.400000e+03 -4.000000e+02
3.319700e-11 -4.799980e+03 -1.969300e-10
4.000000e+02 -4.799980e+03 -2.798050e-10
-3.635830e-10 -4.400000e+03 6.602810e-11
4.000000e+02 -4.400000e+03 1.246280e-10
-4.000000e+02 -4.400000e+03 -4.000000e+02
-6.522500e-10 -4.400000e+03 -4.000000e+02
-4.000000e+02 -4.000060e+03 -4.000000e+02
-1.407250e-09 -4.000060e+03 -4.000000e+02
-4.000000e+02 -4.400000e+03 2.665140e-10
-3.635830e-10 -4.400000e+03 6.602810e-11
-4.000000e+02 -4.000060e+03 -3.889090e-10
-5.727680e-10 -4.000060e+03 -4.862720e-10
-6.522500e-10 -4.400000e+03 -4.000000e+02
4.000000e+02 -4.400000e+03 -4.000000e+02
-1.407250e-09 -4.000060e+03 -4.000000e+02
4.000000e+02 -4.000060e+03 -4.000000e+02
-3.635830e-10 -4.400000e+03 6.602810e-11
4.000000e+02 -4.400000e+03 1.246280e-10
-5.727680e-10 -4.000060e+03 -4.862720e-10
4.000000e+02 -4.000060e+03 -7.295790e-10
-4.000000e+02 -4.000060e+03 -4.000000e+02
-1.407250e-09 -4.000060e+03 -4.000000e+02
-4.000000e+02 -3.600130e+03 -4.000000e+02
-1.355010e-09 -3.600130e+03 -4.000000e+02
-4.000000e+02 -4.000060e+03 -3.889090e-10
-5.727680e-10 -4.000060e+03 -4.862720e-10
-4.000000e+02 -3.600130e+03 2.147390e-10
-1.069400e-09 -3.600130e+03 -2.686860e-10
-1.407250e-09 -4.000060e+03 -4.000000e+02
4.000000e+02 -4.000060e+03 -4.000000e+02
-1.355010e-09 -3.600130e+03 -4.000000e+02
4.000000e+02 -3.600130e+03 -4.000000e+02
-5.727680e-10 -4.000060e+03 -4.862720e-10
4.000000e+02 -4.000060e+03 -7.295790e-10
-1.069400e-09 -3.600130e+03 -2.686860e-10
4.000000e+02 -3.600130e+03 -5.360380e-10
-4.000000e+02 -3.600130e+03 -4.000000e+02
-1.355010e-09 -3.600130e+03 -4.000000e+02
-4.000000e+02 -3.200190e+03 -4.000000e+02
-1.007620e-09 -3.200190e+03 -4.000000e+02
-4.000000e+02 -3.600130e+03 2.147390e-10
-1.069400e-09 -3.600130e+03 -2.686860e-10
-4.000000e+02 -3.200190e+03 -4.317690e-10
-1.164490e-09 -3.200190e+03 -7.924060e-10
-1.355010e-09 -3.600130e+03 -4.000000e+02
4.000000e+02 -3.600130e+03 -4.000000e+02
-1.007620e-09 -3.200190e+03 -4.000000e+02
4.000000e+02 -3.200190e+03 -4.000000e+02
-1.069400e-09 -3.600130e+03 -2.686860e-10
4.000000e+02 -3.600130e+03 -5.360380e-10
-1.164490e-09 -3.200190e+03 -7.924060e-10
4.000000e+02 -3.200190e+03 -9.031200e-10
-4.000000e+02 -3.200190e+03 -4.000000e+02
-1.007620e-09 -3.200190e+03 -4.000000e+02
-4.000000e+02 -2.800230e+03 -4.000000e+02
-1.319290e-09 -2.800230e+03 -4.000000e+02
-4.000000e+02 -3.200190e+03 -4.317690e-10
-1.164490e-09 -3.200190e+03 -7.924060e-10
-4.000000e+02 -2.800230e+03 -6.129380e-10
-1.354440e-09 -2.800230e+03 -6.347620e-10
-1.007620e-09 -3.200190e+03 -4.000000e+02
4.000000e+02 -3.200190e+03 -4.000000e+02
-1.319290e-09 -2.800230e+03 -4.000000e+02
4.000000e+02 -2.800230e+03 -4.000000e+02
-1.164490e-09 -3.200190e+03 -7.924060e-10
4.000000e+02 -3.200190e+03 -9.031200e-10
-1.354440e-09 -2.800230e+03 -6.347620e-10
4.000000e+02 -2.800230e+03 -1.027800e-09
-4.000000e+02 -2.800230e+03 -4.000000e+02
-1.319290e-09 -2.800230e+03 -4.000000e+02
-4.000000e+02 -2.400260e+03 -4.000000e+02
-1.124110e-09 -2.400260e+03 -4.000000e+02
-4.000000e+02 -2.800230e+03 -6.129380e-10
-1.354440e-09 -2.800230e+03 -6.347620e-10
-4.000000e+02 -2.400260e+03 -6.313260e-10
-1.344040e-09 -2.400260e+03 -8.523660e-10
-1.319290e-09 -2.800230e+03 -4.000000e+02
4.000000e+02 -2.800230e+03 -4.000000e+02
-1.124110e-09 -2.400260e+03 -4.000000e+02
4.000000e+02 -2.400260e+03 -4.000000e+02
-1.354440e-09 -2.800230e+03 -6.347620e-10
4.000000e+02 -2.800230e+03 -1.027800e-09
-1.344040e-09 -2.400260e+03 -8.523660e-10
4.000000e+02 -2.400260e+03 -9.717320e-10
-4.000000e+02 -2.400260e+03 -4.000000e+02
-1.124110e-09 -2.400260e+03 -4.000000e+02
-4.000000e+02 -2.000270e+03 -4.000000e+02
-8.264440e-10 -2.000270e+03 -4.000000e+02
-4.000000e+02 -2.400260e+03 -6.313260e-10
-1.344040e-09 -2.400260e+03 -8.523660e-10
-4.000000e+02 -2.000270e+03 -7.930750e-10
-6.533830e-10 -2.000270e+03 -1.003800e-09
-1.124110e-09 -2.400260e+03 -4.000000e+02
4.000000e+02 -2.400260e+03 -4.000000e+02
-8.264440e-10 -2.000270e+03 -4.000000e+02
4.000000e+02 -2.000270e+03 -4.000000e+02
-1.344040e-09 -2.400260e+03 -8.523660e-10
4.000000e+02 -2.400260e+03 -9.717320e-10
-6.533830e-10 -2.000270e+03 -1.003800e-09
4.000000e+02 -2.000270e+03 -1.314910e-09
-4.000000e+02 -2.000270e+03 -4.000000e+02
-8.264440e-10 -2.000270e+03 -4.000000e+02
-4.000000e+02 -1.600270e+03 -4.000000e+02
-2.241750e-10 -1.600270e+03 -4.000000e+02
-4.000000e+02 -2.000270e+03 -7.930750e-10
-6.533830e-10 -2.000270e+03 -1.003800e-09
-4.000000e+02 -1.600270e+03 -9.708590e-10
-2.680880e-10 -1.600270e+03 -5.361110e-10
-8.264440e-10 -2.000270e+03 -4.000000e+02
4.000000e+02 -2.000270e+03 -4.000000e+02
-2.241750e-10 -1.600270e+03 -4.000000e+02
4.000000e+02 -1.600270e+03 -4.000000e+02
-6.533830e-10 -2.000270e+03 -1.003800e-09
4.000000e+02 -2.000270e+03 -1.314910e-09
-2.680880e-10 -1.600270e+03 -5.361110e-10
4.000000e+02 -1.600270e+03 -7.806060e-10
-4.000000e+02 -1.600270e+03 -4.000000e+02
-2.241750e-10 -1.600270e+03 -4.000000e+02
-4.000000e+02 -1.200270e+03 -4.000000e+02
1.007310e-10 -1.200270e+03 -4.000000e+02
-4.000000e+02 -1.600270e+03 -9.708590e-10
-2.680880e-10 -1.600270e+03 -5.361110e-10
-4.000000e+02 -1.200270e+03 -8.538560e-10
5.926340e-11 -1.200270e+03 -7.977520e-10
-2.241750e-10 -1.600270e+03 -4.000000e+02
4.000000e+02 -1.600270e+03 -4.000000e+02
1.007310e-10 -1.200270e+03 -4.000000e+02
4.000000e+02 -1.200270e+03 -4.000000e+02
-2.680880e-10 -1.600270e+03 -5.361110e-10
4.000000e+02 -1.600270e+03 -7.806060e-10
5.926340e-11 -1.200270e+03 -7.977520e-10
4.000000e+02 -1.200270e+03 -8.093040e-10
-4.000000e+02 -1.200270e+03 -4.000000e+02
1.007310e-10 -1.200270e+03 -4.000000e+02
-4.000000e+02 -8.002760e+02 -4.000000e+02
-4.097500e-11 -8.002760e+02 -4.000000e+02
-4.000000e+02 -1.200270e+03 -8.538560e-10
5.926340e-11 -1.200270e+03 -7.977520e-10
-4.000000e+02 -8.002760e+02 -8.864470e-10
2.895400e-10 -8.002760e+02 -1.004540e-09
1.007310e-10 -1.200270e+03 -4.000000e+02
4.000000e+02 -1.200270e+03 -4.000000e+02
-4.097500e-11 -8.002760e+02 -4.000000e+02
4.000000e+02 -8.002760e+02 -4.000000e+02
5.926340e-11 -1.200270e+03 -7.977520e-10
4.000000e+02 -1.200270e+03 -8.093040e-10
2.895400e-10 -8.002760e+02 -1.004540e-09
4.000000e+02 -8.002760e+02 -1.118660e-09
-4.000000e+02 -8.002760e+02 -4.000000e+02
-4.097500e-11 -8.002760e+02 -4.000000e+02
-4.000000e+02 -4.002780e+02 -4.000000e+02
5.322550e-10 -4.002780e+02 -4.000000e+02
-4.000000e+02 -8.002760e+02 -8.864470e-10
2.895400e-10 -8.002760e+02 -1.004540e-09
-4.000000e+02 -4.002780e+02 -1.012040e-09
5.640830e-10 -4.002780e+02 -1.086880e-09
-4.097500e-11 -8.002760e+02 -4.000000e+02
4.000000e+02 -8.002760e+02 -4.000000e+02
5.322550e-10 -4.002780e+02 -4.000000e+02
4.000000e+02 -4.002780e+02 -4.000000e+02
2.895400e-10 -8.002760e+02 -1.004540e-09
4.000000e+02 -8.002760e+02 -1.118660e-09
5.640830e-10 -4.002780e+02 -1.086880e-09
4.000000e+02 -4.002780e+02 -1.012930e-09
-4.000000e+02 -4.002780e+02 -4.000000e+02
5.322550e-10 -4.002780e+02 -4.000000e+02
-4.000000e+02 -2.789180e-01 -4.000000e+02
9.147850e-10 -2.789100e-01 -4.000000e+02
-4.000000e+02 -4.002780e+02 -1.012040e-09
5.640830e-10 -4.002780e+02 -1.086880e-09
-4.000000e+02 -2.789100e-01 -1.387560e-09
8.066260e-10 -2.789030e-01 -1.010340e-09
5.322550e-10 -4.002780e+02 -4.000000e+02
4.000000e+02 -4.002780e+02 -4.000000e+02
[...]
<PointData>
<DataArray type="Float32" Name="V1" format="ascii">
0.000000e+00
0.000000e+00
6.146400e-07
7.048850e-10
0.000000e+00
0.000000e+00
6.232030e-07
-4.312980e-10
0.000000e+00
0.000000e+00
7.048850e-10
-6.132570e-07
0.000000e+00
0.000000e+00
-4.312980e-10
-6.238310e-07
6.146400e-07
7.048850e-10
-1.397280e-06
-2.038390e-10
6.232030e-07
-4.312980e-10
-1.413950e-06
-6.679000e-10
7.048850e-10
-6.132570e-07
-2.038390e-10
1.397080e-06
-4.312980e-10
-6.238310e-07
-6.679000e-10
1.413490e-06
-1.397280e-06
-2.038390e-10
1.854240e-06
-6.105200e-10
-1.413950e-06
-6.679000e-10
1.879650e-06
1.022640e-09
-2.038390e-10
1.397080e-06
-6.105200e-10
-1.855890e-06
-6.679000e-10
1.413490e-06
1.022640e-09
-1.878480e-06
1.854240e-06
-6.105200e-10
-5.983950e-07
-2.774340e-10
1.879650e-06
1.022640e-09
-6.254960e-07
2.739460e-10
-6.105200e-10
-1.855890e-06
-2.774340e-10
5.984570e-07
1.022640e-09
-1.878480e-06
2.739460e-10
6.265330e-07
-5.983950e-07
-2.774340e-10
-2.988960e-06
-7.984100e-10
-6.254960e-07
2.739460e-10
-2.973120e-06
3.793240e-10
-2.774340e-10
5.984570e-07
-7.984100e-10
2.986680e-06
2.739460e-10
6.265330e-07
3.793240e-10
2.972950e-06
-2.988960e-06
-7.984100e-10
6.863760e-06
-4.341840e-10
-2.973120e-06
3.793240e-10
6.889980e-06
-1.400850e-10
-7.984100e-10
2.986680e-06
-4.341840e-10
-6.863560e-06
3.793240e-10
2.972950e-06
-1.400850e-10
-6.889680e-06
6.863760e-06
-4.341840e-10
-6.520740e-06
-5.131680e-11
6.889980e-06
-1.400850e-10
-6.623740e-06
2.780620e-10
-4.341840e-10
-6.863560e-06
-5.131680e-11
6.520490e-06
-1.400850e-10
-6.889680e-06
2.780620e-10
6.623710e-06
-6.520740e-06
-5.131680e-11
-2.958270e-07
2.955280e-10
-6.623740e-06
2.780620e-10
-8.196560e-08
2.256770e-10
-5.131680e-11
6.520490e-06
2.955280e-10
2.962040e-07
2.780620e-10
6.623710e-06
2.256770e-10
8.260980e-08
-2.958270e-07
2.955280e-10
9.010000e-06
1.400630e-11
-8.196560e-08
2.256770e-10
8.672360e-06
-6.529520e-10
2.955280e-10
2.962040e-07
1.400630e-11
-9.009890e-06
2.256770e-10
8.260980e-08
-6.529520e-10
-8.673350e-06
9.010000e-06
1.400630e-11
-1.125490e-05
-5.540350e-10
8.672360e-06
-6.529520e-10
-1.083710e-05
2.208550e-10
1.400630e-11
-9.009890e-06
-5.540350e-10
1.125350e-05
-6.529520e-10
-8.673350e-06
2.208550e-10
1.083680e-05
-1.125490e-05
-5.540350e-10
2.546370e-06
5.738490e-10
-1.083710e-05
2.208550e-10
2.234380e-06
7.848970e-11
-5.540350e-10
1.125350e-05
5.738490e-10
-2.545520e-06
2.208550e-10
1.083680e-05
7.848970e-11
-2.234230e-06
2.546370e-06
5.738490e-10
4.585830e-06
2.317220e-10
2.234380e-06
7.848970e-11
4.388580e-06
1.846960e-10
5.738490e-10
-2.545520e-06
2.317220e-10
-4.585850e-06
7.848970e-11
-2.234230e-06
1.846960e-10
-4.389060e-06
4.585830e-06
2.317220e-10
8.134550e-06
6.657780e-11
4.388580e-06
1.846960e-10
9.026290e-06
2.320090e-10
2.317220e-10
-4.585850e-06
6.657780e-11
-8.134550e-06
1.846960e-10
-4.389060e-06
2.320090e-10
-9.026190e-06
8.134550e-06
6.657780e-11
-7.700400e-06
-6.199810e-10
9.026290e-06
2.320090e-10
-8.252260e-06
-2.215660e-10
6.657780e-11
-8.134550e-06
-6.199810e-10
7.699520e-06
2.320090e-10
-9.026190e-06
-2.215660e-10
8.251790e-06
-7.700400e-06
-6.199810e-10
-2.390990e-05
2.783000e-10
-8.252260e-06
-2.215660e-10
-2.525360e-05
-2.001230e-10
-6.199810e-10
7.699520e-06
2.783000e-10
2.390990e-05
-2.215660e-10
8.251790e-06
-2.001230e-10
2.525360e-05
-2.390990e-05
2.783000e-10
2.865280e-06
-8.828810e-11
-2.525360e-05
-2.001230e-10
5.193430e-06
1.847340e-10
2.783000e-10
2.390990e-05
-8.828810e-11
-2.864680e-06
-2.001230e-10
2.525360e-05
1.847340e-10
-5.192650e-06
2.865280e-06
-8.828810e-11
2.753990e-05
4.234080e-10
5.193430e-06
1.847340e-10
2.595710e-05
-1.064770e-10
-8.828810e-11
-2.864680e-06
4.234080e-10
-2.754060e-05
1.847340e-10
-5.192650e-06
-1.064770e-10
-2.595750e-05
2.753990e-05
4.234080e-10
1.060740e-05
-1.842360e-09
2.595710e-05
-1.064770e-10
8.605970e-06
-7.668720e-10
4.234080e-10
-2.754060e-05
-1.842360e-09
-1.060340e-05
-1.064770e-10
-2.595750e-05
-7.668720e-10
-8.604580e-06
1.060740e-05
-1.842360e-09
-1.407570e-05
6.274680e-09
8.605970e-06
-7.668720e-10
-1.423070e-05
9.953890e-10
-1.842360e-09
-1.060340e-05
6.274680e-09
1.406470e-05
-7.668720e-10
-8.604580e-06
9.953890e-10
1.422790e-05
-1.407570e-05
6.274680e-09
-2.114780e-05
-7.197940e-09
-1.423070e-05
9.953890e-10
-1.864790e-05
4.795490e-09
6.274680e-09
1.406470e-05
-7.197940e-09
2.116290e-05
9.953890e-10
1.422790e-05
4.795490e-09
1.863850e-05
-2.114780e-05
-7.197940e-09
-8.255310e-06
-1.337870e-08
-1.864790e-05
4.795490e-09
-9.741500e-06
-2.662600e-09
-7.197940e-09
2.116290e-05
-1.337870e-08
8.283260e-06
4.795490e-09
1.863850e-05
-2.662600e-09
9.746930e-06
-8.255310e-06
-1.337870e-08
-8.098680e-07
-2.805980e-09
-9.741500e-06
-2.662600e-09
-5.634010e-06
-4.120430e-11
-1.337870e-08
8.283260e-06
-2.805980e-09
8.157280e-07
-2.662600e-09
9.746930e-06
-4.120430e-11
5.634280e-06
-8.098680e-07
-2.805980e-09
1.193160e-05
2.918210e-10
-5.634010e-06
-4.120430e-11
1.673590e-05
2.320250e-10
-2.805980e-09
8.157280e-07
2.918210e-10
-1.193220e-05
-4.120430e-11
5.634280e-06
2.320250e-10
-1.673650e-05
1.193160e-05
2.918210e-10
2.317930e-06
2.332800e-11
1.673590e-05
2.320250e-10
7.915880e-06
5.608990e-11
2.918210e-10
-1.193220e-05
2.332800e-11
-2.317770e-06
2.320250e-10
-1.673650e-05
5.608990e-11
-7.915750e-06
2.317930e-06
2.332800e-11
-5.523700e-06
1.229410e-11
7.915880e-06
5.608990e-11
-6.485540e-06
-1.953820e-11
2.332800e-11
-2.317770e-06
1.229410e-11
5.524060e-06
5.608990e-11
-7.915750e-06
-1.953820e-11
6.485860e-06
-5.523700e-06
1.229410e-11
-1.598320e-06
5.280090e-11
-6.485540e-06
-1.953820e-11
-6.102310e-06
5.002390e-11
1.229410e-11
5.524060e-06
5.280090e-11
1.598420e-06
-1.953820e-11
6.485860e-06
5.002390e-11
6.102460e-06
-1.598320e-06
5.280090e-11
-6.125790e-06
2.543530e-11
-6.102310e-06
5.002390e-11
-6.883650e-06
3.985950e-11
5.280090e-11
1.598420e-06
2.543530e-11
6.125850e-06
5.002390e-11
6.102460e-06
3.985950e-11
6.883740e-06
-6.125790e-06
2.543530e-11
-1.878440e-06
7.158560e-12
-6.883650e-06
3.985950e-11
-1.236820e-06
7.215610e-15
2.543530e-11
6.125850e-06
7.158560e-12
1.878520e-06
3.985950e-11
6.883740e-06
7.215610e-15
1.236900e-06
-1.878440e-06
7.158560e-12
4.311360e-06
-3.722710e-11
-1.236820e-06
7.215610e-15
4.008490e-06
-1.055330e-10
7.158560e-12
1.878520e-06
-3.722710e-11
-4.311230e-06
7.215610e-15
1.236900e-06
-1.055330e-10
-4.008240e-06
4.311360e-06
-3.722710e-11
-1.120060e-05
-8.984890e-12
4.008490e-06
-1.055330e-10
-1.153300e-05
-2.342170e-11
-3.722710e-11
-4.311230e-06
-8.984890e-12
1.120060e-05
-1.055330e-10
-4.008240e-06
-2.342170e-11
1.153310e-05
0.000000e+00
0.000000e+00
6.232030e-07
-4.312980e-10
0.000000e+00
0.000000e+00
6.138070e-07
4.319680e-10
0.000000e+00
0.000000e+00
-4.312980e-10
-6.238310e-07
0.000000e+00
0.000000e+00
4.319680e-10
-6.130370e-07
6.232030e-07
-4.312980e-10
-1.413950e-06
-6.679000e-10
6.138070e-07
4.319680e-10
-1.398250e-06
-1.044700e-10
-4.312980e-10
-6.238310e-07
-6.679000e-10
1.413490e-06
4.319680e-10
-6.130370e-07
-1.044700e-10
1.398870e-06
-1.413950e-06
-6.679000e-10
1.879650e-06
1.022640e-09
-1.398250e-06
-1.044700e-10
1.855660e-06
2.341670e-10
-6.679000e-10
1.413490e-06
1.022640e-09
-1.878480e-06
-1.044700e-10
1.398870e-06
2.341670e-10
-1.855880e-06
1.879650e-06
1.022640e-09
-6.254960e-07
2.739460e-10
1.855660e-06
2.341670e-10
-5.985520e-07
-1.892740e-10
1.022640e-09
-1.878480e-06
2.739460e-10
6.265330e-07
2.341670e-10
-1.855880e-06
-1.892740e-10
5.986620e-07
-6.254960e-07
2.739460e-10
-2.973120e-06
3.793240e-10
-5.985520e-07
-1.892740e-10
-2.987900e-06
-2.944830e-11
2.739460e-10
6.265330e-07
3.793240e-10
2.972950e-06
-1.892740e-10
5.986620e-07
-2.944830e-11
2.987310e-06
-2.973120e-06
3.793240e-10
6.889980e-06
-1.400850e-10
-2.987900e-06
-2.944830e-11
6.864030e-06
-5.419210e-10
3.793240e-10
2.972950e-06
-1.400850e-10
-6.889680e-06
-2.944830e-11
2.987310e-06
-5.419210e-10
-6.864560e-06
6.889980e-06
-1.400850e-10
-6.623740e-06
2.780620e-10
6.864030e-06
-5.419210e-10
-6.521100e-06
-1.970360e-11
-1.400850e-10
-6.889680e-06
2.780620e-10
6.623710e-06
-5.419210e-10
-6.864560e-06
-1.970360e-11
6.520160e-06
-6.623740e-06
2.780620e-10
-8.196560e-08
2.256770e-10
-6.521100e-06
-1.970360e-11
-2.948370e-07
6.041810e-10
2.780620e-10
6.623710e-06
2.256770e-10
8.260980e-08
-1.970360e-11
6.520160e-06
6.041810e-10
2.955130e-07
-8.196560e-08
2.256770e-10
8.672360e-06
-6.529520e-10
-2.948370e-07
6.041810e-10
9.010720e-06
5.437500e-10
2.256770e-10
8.260980e-08
-6.529520e-10
-8.673350e-06
6.041810e-10
2.955130e-07
5.437500e-10
-9.009700e-06
8.672360e-06
-6.529520e-10
-1.083710e-05
2.208550e-10
9.010720e-06
5.437500e-10
-1.125480e-05
-5.726040e-10
-6.529520e-10
-8.673350e-06
2.208550e-10
1.083680e-05
5.437500e-10
-9.009700e-06
-5.726040e-10
1.125400e-05
-1.083710e-05
2.208550e-10
2.234380e-06
7.848970e-11
-1.125480e-05
-5.726040e-10
2.545880e-06
1.519370e-10
2.208550e-10
1.083680e-05
7.848970e-11
-2.234230e-06
-5.726040e-10
1.125400e-05
1.519370e-10
-2.545770e-06
2.234380e-06
7.848970e-11
4.388580e-06
1.846960e-10
2.545880e-06
1.519370e-10
4.585610e-06
3.029980e-11
7.848970e-11
-2.234230e-06
1.846960e-10
-4.389060e-06
1.519370e-10
-2.545770e-06
3.029980e-11
-4.585240e-06
4.388580e-06
1.846960e-10
9.026290e-06
2.320090e-10
4.585610e-06
3.029980e-11
8.133720e-06
9.990540e-12
1.846960e-10
-4.389060e-06
2.320090e-10
-9.026190e-06
3.029980e-11
-4.585240e-06
9.990540e-12
-8.134350e-06
9.026290e-06
2.320090e-10
-8.252260e-06
-2.215660e-10
8.133720e-06
9.990540e-12
-7.699900e-06
-4.110190e-10
2.320090e-10
-9.026190e-06
-2.215660e-10
8.251790e-06
9.990540e-12
-8.134350e-06
-4.110190e-10
7.699520e-06
-8.252260e-06
-2.215660e-10
-2.525360e-05
-2.001230e-10
-7.699900e-06
-4.110190e-10
-2.391020e-05
3.688140e-10
-2.215660e-10
8.251790e-06
-2.001230e-10
2.525360e-05
-4.110190e-10
7.699520e-06
3.688140e-10
2.391080e-05
-2.525360e-05
-2.001230e-10
5.193430e-06
1.847340e-10
-2.391020e-05
3.688140e-10
2.864980e-06
-5.359890e-11
-2.001230e-10
2.525360e-05
1.847340e-10
-5.192650e-06
3.688140e-10
2.391080e-05
-5.359890e-11
-2.865030e-06
5.193430e-06
1.847340e-10
2.595710e-05
-1.064770e-10
2.864980e-06
-5.359890e-11
2.754040e-05
-2.989500e-10
1.847340e-10
-5.192650e-06
-1.064770e-10
-2.595750e-05
-5.359890e-11
-2.865030e-06
-2.989500e-10
-2.754040e-05
2.595710e-05
-1.064770e-10
8.605970e-06
-7.668720e-10
2.754040e-05
-2.989500e-10
1.060640e-05
-1.720700e-10
-1.064770e-10
-2.595750e-05
-7.668720e-10
-8.604580e-06
-2.989500e-10
-2.754040e-05
-1.720700e-10
-1.060640e-05
8.605970e-06
-7.668720e-10
-1.423070e-05
9.953890e-10
1.060640e-05
-1.720700e-10
-1.407230e-05
5.583640e-10
-7.668720e-10
-8.604580e-06
9.953890e-10
1.422790e-05
-1.720700e-10
-1.060640e-05
5.583640e-10
1.407210e-05
-1.423070e-05
9.953890e-10
-1.864790e-05
4.795490e-09
-1.407230e-05
5.583640e-10
-2.115390e-05
1.206720e-09
9.953890e-10
1.422790e-05
4.795490e-09
1.863850e-05
5.583640e-10
1.407210e-05
1.206720e-09
2.115140e-05
-1.864790e-05
4.795490e-09
-9.741500e-06
-2.662600e-09
-2.115390e-05
1.206720e-09
-8.271570e-06
6.290990e-10
4.795490e-09
1.863850e-05
-2.662600e-09
9.746930e-06
1.206720e-09
2.115140e-05
6.290990e-10
8.270640e-06
-9.741500e-06
-2.662600e-09
-5.634010e-06
-4.120430e-11
-8.271570e-06
6.290990e-10
-8.172210e-07
4.557670e-10
-2.662600e-09
9.746930e-06
-4.120430e-11
5.634280e-06
6.290990e-10
8.270640e-06
4.557670e-10
8.165140e-07
-5.634010e-06
-4.120430e-11
1.673590e-05
2.320250e-10
-8.172210e-07
4.557670e-10
1.193140e-05
1.351010e-10
-4.120430e-11
5.634280e-06
2.320250e-10
-1.673650e-05
4.557670e-10
8.165140e-07
1.351010e-10
-1.193170e-05
1.673590e-05
2.320250e-10
7.915880e-06
5.608990e-11
1.193140e-05
1.351010e-10
2.317570e-06
5.710490e-11
2.320250e-10
-1.673650e-05
5.608990e-11
-7.915750e-06
1.351010e-10
-1.193170e-05
5.710490e-11
-2.317610e-06
7.915880e-06
5.608990e-11
-6.485540e-06
-1.953820e-11
2.317570e-06
5.710490e-11
-5.523680e-06
3.626340e-11
5.608990e-11
-7.915750e-06
-1.953820e-11
6.485860e-06
5.710490e-11
-2.317610e-06
3.626340e-11
5.523870e-06
-6.485540e-06
-1.953820e-11
-6.102310e-06
5.002390e-11
-5.523680e-06
3.626340e-11
-1.598340e-06
8.409610e-11
-1.953820e-11
6.485860e-06
5.002390e-11
6.102460e-06
3.626340e-11
5.523870e-06
8.409610e-11
1.598480e-06
-6.102310e-06
5.002390e-11
-6.883650e-06
3.985950e-11
-1.598340e-06
8.409610e-11
-6.125790e-06
2.293020e-11
5.002390e-11
6.102460e-06
3.985950e-11
6.883740e-06
8.409610e-11
1.598480e-06
2.293020e-11
6.125900e-06
-6.883650e-06
3.985950e-11
-1.236820e-06
7.215610e-15
-6.125790e-06
2.293020e-11
-1.878440e-06
-9.499800e-12
3.985950e-11
6.883740e-06
7.215610e-15
1.236900e-06
2.293020e-11
6.125900e-06
-9.499800e-12
1.878500e-06
-1.236820e-06
7.215610e-15
4.008490e-06
-1.055330e-10
-1.878440e-06
-9.499800e-12
4.311440e-06
-1.231090e-10
7.215610e-15
1.236900e-06
-1.055330e-10
-4.008240e-06
-9.499800e-12
1.878500e-06
-1.231090e-10
-4.311110e-06
4.008490e-06
-1.055330e-10
-1.153300e-05
-2.342170e-11
4.311440e-06
-1.231090e-10
-1.120060e-05
-2.330920e-11
-1.055330e-10
-4.008240e-06
-2.342170e-11
1.153310e-05
-1.231090e-10
-4.311110e-06
-2.330920e-11
1.120070e-05
</DataArray>
<DataArray type="Float32" Name="V2" format="ascii">
0.000000e+00
0.000000e+00
2.542560e-03
2.543430e-03
0.000000e+00
0.000000e+00
2.543430e-03
2.544320e-03
0.000000e+00
0.000000e+00
2.543430e-03
2.542560e-03
0.000000e+00
0.000000e+00
2.544320e-03
2.543430e-03
2.542560e-03
2.543430e-03
1.273200e-02
1.273160e-02
2.543430e-03
2.544320e-03
1.273160e-02
1.273120e-02
2.543430e-03
2.542560e-03
1.273160e-02
1.273200e-02
2.544320e-03
2.543430e-03
1.273120e-02
1.273160e-02
1.273200e-02
1.273160e-02
1.739320e-03
1.738310e-03
1.273160e-02
1.273120e-02
1.738320e-03
1.737310e-03
1.273160e-02
1.273200e-02
1.738310e-03
1.739320e-03
1.273120e-02
1.273160e-02
1.737310e-03
1.738320e-03
1.739320e-03
1.738310e-03
-3.054520e-02
-3.054210e-02
1.738320e-03
1.737310e-03
-3.054210e-02
-3.053890e-02
1.738310e-03
1.739320e-03
-3.054210e-02
-3.054520e-02
1.737310e-03
1.738320e-03
-3.053890e-02
-3.054210e-02
-3.054520e-02
-3.054210e-02
-4.948540e-02
-4.948900e-02
-3.054210e-02
-3.053890e-02
-4.948900e-02
-4.949260e-02
-3.054210e-02
-3.054520e-02
-4.948900e-02
-4.948540e-02
-3.053890e-02
-3.054210e-02
-4.949260e-02
-4.948900e-02
-4.948540e-02
-4.948900e-02
-4.825640e-02
-4.825760e-02
-4.948900e-02
-4.949260e-02
-4.825760e-02
-4.825860e-02
-4.948900e-02
-4.948540e-02
-4.825760e-02
-4.825640e-02
-4.949260e-02
-4.948900e-02
-4.825860e-02
-4.825760e-02
-4.825640e-02
-4.825760e-02
-3.583270e-02
-3.582260e-02
-4.825760e-02
-4.825860e-02
-3.582260e-02
-3.581290e-02
-4.825760e-02
-4.825640e-02
-3.582260e-02
-3.583270e-02
-4.825860e-02
-4.825760e-02
-3.581290e-02
-3.582260e-02
-3.583270e-02
-3.582260e-02
-2.012240e-02
-2.013390e-02
-3.582260e-02
-3.581290e-02
-2.013390e-02
-2.014520e-02
-3.582260e-02
-3.583270e-02
-2.013390e-02
-2.012240e-02
-3.581290e-02
-3.582260e-02
-2.014520e-02
-2.013390e-02
-2.012240e-02
-2.013390e-02
-1.088940e-02
-1.089570e-02
-2.013390e-02
-2.014520e-02
-1.089570e-02
-1.090200e-02
-2.013390e-02
-2.012240e-02
-1.089570e-02
-1.088940e-02
-2.014520e-02
-2.013390e-02
-1.090200e-02
-1.089570e-02
-1.088940e-02
-1.089570e-02
-5.110220e-03
-5.087360e-03
-1.089570e-02
-1.090200e-02
-5.087350e-03
-5.064710e-03
-1.089570e-02
-1.088940e-02
-5.087360e-03
-5.110220e-03
-1.090200e-02
-1.089570e-02
-5.064710e-03
-5.087350e-03
-5.110220e-03
-5.087360e-03
-2.219220e-03
-2.217480e-03
-5.087350e-03
-5.064710e-03
-2.217470e-03
-2.215380e-03
-5.087360e-03
-5.110220e-03
-2.217480e-03
-2.219220e-03
-5.064710e-03
-5.087350e-03
-2.215380e-03
-2.217470e-03
-2.219220e-03
-2.217480e-03
-1.726660e-03
-1.747020e-03
-2.217470e-03
-2.215380e-03
-1.747020e-03
-1.767570e-03
-2.217480e-03
-2.219220e-03
-1.747020e-03
-1.726660e-03
-2.215380e-03
-2.217470e-03
-1.767570e-03
-1.747020e-03
-1.726660e-03
-1.747020e-03
-9.606420e-04
-9.814420e-04
-1.747020e-03
-1.767570e-03
-9.814420e-04
-1.001840e-03
-1.747020e-03
-1.726660e-03
-9.814420e-04
-9.606460e-04
-1.767570e-03
-1.747020e-03
-1.001840e-03
-9.814430e-04
-9.606420e-04
-9.814420e-04
-1.038000e-03
-1.021050e-03
-9.814420e-04
-1.001840e-03
-1.021050e-03
-1.004780e-03
-9.814420e-04
-9.606460e-04
-1.021050e-03
-1.038000e-03
-1.001840e-03
-9.814430e-04
-1.004780e-03
-1.021050e-03
-1.038000e-03
-1.021050e-03
-4.538930e-04
-4.463420e-04
-1.021050e-03
-1.004780e-03
-4.463440e-04
-4.400170e-04
-1.021050e-03
-1.038000e-03
-4.463420e-04
-4.538930e-04
-1.004780e-03
-1.021050e-03
-4.400170e-04
-4.463430e-04
-4.538930e-04
-4.463420e-04
-5.032010e-04
-5.104210e-04
-4.463440e-04
-4.400170e-04
-5.104200e-04
-5.150100e-04
-4.463420e-04
-4.538930e-04
-5.104210e-04
-5.032000e-04
-4.400170e-04
-4.463430e-04
-5.150100e-04
-5.104190e-04
-5.032010e-04
-5.104210e-04
-1.179970e-05
1.039860e-05
-5.104200e-04
-5.150100e-04
1.039430e-05
3.282960e-05
-5.104210e-04
-5.032000e-04
1.039860e-05
-1.180180e-05
-5.150100e-04
-5.104190e-04
3.282960e-05
1.039420e-05
-1.179970e-05
1.039860e-05
5.232150e-05
6.812450e-05
1.039430e-05
3.282960e-05
6.812430e-05
8.845370e-05
1.039860e-05
-1.180180e-05
6.812450e-05
5.232130e-05
3.282960e-05
1.039420e-05
8.845370e-05
6.812430e-05
5.232150e-05
6.812450e-05
1.885620e-04
2.025640e-04
6.812430e-05
8.845370e-05
2.025680e-04
2.170280e-04
6.812450e-05
5.232130e-05
2.025640e-04
1.885620e-04
8.845370e-05
6.812430e-05
2.170280e-04
2.025700e-04
1.885620e-04
2.025640e-04
3.508160e-04
4.055240e-04
2.025680e-04
2.170280e-04
4.055250e-04
4.148400e-04
2.025640e-04
1.885620e-04
4.055240e-04
3.508170e-04
2.170280e-04
2.025700e-04
4.148400e-04
4.055260e-04
3.508160e-04
4.055240e-04
4.003480e-04
4.037680e-04
4.055250e-04
4.148400e-04
4.037680e-04
4.981990e-04
4.055240e-04
3.508170e-04
4.037680e-04
4.003480e-04
4.148400e-04
4.055260e-04
4.981990e-04
4.037680e-04
4.003480e-04
4.037680e-04
3.696500e-04
3.941130e-04
4.037680e-04
4.981990e-04
3.941160e-04
2.261860e-04
4.037680e-04
4.003480e-04
3.941130e-04
3.696480e-04
4.981990e-04
4.037680e-04
2.261860e-04
3.941140e-04
3.696500e-04
3.941130e-04
1.831440e-04
1.501390e-04
3.941160e-04
2.261860e-04
1.501380e-04
1.840480e-04
3.941130e-04
3.696480e-04
1.501390e-04
1.831450e-04
2.261860e-04
3.941140e-04
1.840480e-04
1.501390e-04
1.831440e-04
1.501390e-04
1.627350e-04
2.006530e-04
1.501380e-04
1.840480e-04
2.006540e-04
3.060300e-04
1.501390e-04
1.831450e-04
2.006530e-04
1.627350e-04
1.840480e-04
1.501390e-04
3.060300e-04
2.006530e-04
1.627350e-04
2.006530e-04
3.557390e-04
2.721410e-04
2.006540e-04
3.060300e-04
2.721410e-04
1.906300e-04
2.006530e-04
1.627350e-04
2.721410e-04
3.557390e-04
3.060300e-04
2.006530e-04
1.906300e-04
2.721420e-04
3.557390e-04
2.721410e-04
-1.527200e-04
-6.523240e-05
2.721410e-04
1.906300e-04
-6.523310e-05
4.908510e-05
2.721410e-04
3.557390e-04
-6.523240e-05
-1.527210e-04
1.906300e-04
2.721420e-04
4.908510e-05
-6.523260e-05
-1.527200e-04
-6.523240e-05
-4.355120e-04
-4.623140e-04
-6.523310e-05
4.908510e-05
-4.623140e-04
-5.555390e-04
-6.523240e-05
-1.527210e-04
-4.623140e-04
-4.355120e-04
4.908510e-05
-6.523260e-05
-5.555390e-04
-4.623130e-04
-4.355120e-04
-4.623140e-04
1.486490e-05
6.277450e-05
-4.623140e-04
-5.555390e-04
6.277630e-05
1.189070e-04
-4.623140e-04
-4.355120e-04
6.277450e-05
1.486370e-05
-5.555390e-04
-4.623130e-04
1.189070e-04
6.277510e-05
1.486490e-05
6.277450e-05
-8.600090e-06
-1.723200e-05
6.277630e-05
1.189070e-04
-1.723300e-05
3.066460e-06
6.277450e-05
1.486370e-05
-1.723200e-05
-8.599590e-06
1.189070e-04
6.277510e-05
3.066460e-06
-1.723220e-05
-8.600090e-06
-1.723200e-05
-1.024620e-03
-1.016740e-03
-1.723300e-05
3.066460e-06
-1.016740e-03
-1.013190e-03
-1.723200e-05
-8.599590e-06
-1.016740e-03
-1.024620e-03
3.066460e-06
-1.723220e-05
-1.013190e-03
-1.016740e-03
0.000000e+00
0.000000e+00
2.543430e-03
2.544320e-03
0.000000e+00
0.000000e+00
2.542560e-03
2.543430e-03
0.000000e+00
0.000000e+00
2.544320e-03
2.543430e-03
0.000000e+00
0.000000e+00
2.543430e-03
2.542560e-03
2.543430e-03
2.544320e-03
1.273160e-02
1.273120e-02
2.542560e-03
2.543430e-03
1.273200e-02
1.273160e-02
2.544320e-03
2.543430e-03
1.273120e-02
1.273160e-02
2.543430e-03
2.542560e-03
1.273160e-02
1.273200e-02
1.273160e-02
1.273120e-02