MercuryDPM 0.14 name oneDimChain revision 6406 repository https://svn.mercurydpm.org/SourceCode/Branches/OomphlibCouplingExplicit
dataFile    fileType ONE_FILE saveCount 92 counter 103 lastSavedTimeStep 9332
fStatFile   fileType ONE_FILE saveCount 92 counter 103 lastSavedTimeStep 9332
eneFile     fileType ONE_FILE saveCount 92 counter 103 lastSavedTimeStep 9332
restartFile fileType ONE_FILE saveCount 92 counter 103 lastSavedTimeStep 9332
statFile    fileType ONE_FILE saveCount 92 counter 0
interactionFile fileType NO_FILE saveCount 0 counter 0
xMin -500 xMax 500 yMin -5000 yMax 5000 zMin -500 zMax 500
timeStep 0.0107162522263564 time 100.004065776375 ntimeSteps 9332 timeMax 100
systemDimensions 3 particleDimensions 3 gravity 0 0 -0 writeVTK 1 MULTIPLE_FILES NO_FILE 103 103 0 0 random  0 1103515245 12345 1073741824 607 273 784607267
Species 1
LinearViscoelasticReversibleAdhesiveSpecies id 0 density 2500 stiffness 13333333333.3333 dissipation -0 adhesionForceMax 0 adhesionStiffness 13333333333.3333
Walls 0
Boundaries 0
Particles 3240
BaseParticle id 0 indSpecies 0 position -333.333652773281 2066.40522121133 -333.333714906976 orientation 1 0 0 0 velocity -0.000131190624366198 0.0429342114493189 -0.000156698014816434 angularVelocity 0 0 0 force 209779.326872543 -47173332.5666819 240335.178581049 torque 0 0 0 radius 66.6666666666667 invMass 3.22288759761088e-10
BaseParticle id 1 indSpecies 0 position -333.333523124465 2066.34664120157 -200.00019370805 orientation 1 0 0 0 velocity -7.11041626693515e-05 0.0213421626895345 2.4820202515711e-05 angularVelocity 0 0 0 force 261919.646224595 112812635.575872 260167.886756038 torque 0 0 0 radius 66.6666666666667 invMass 3.22288759761088e-10
BaseParticle id 2 indSpecies 0 position -333.333589870619 2066.3992926911 -66.666665057807 orientation 1 0 0 0 velocity -1.37377150748797e-06 0.0224804226958155 -1.68118466856014e-05 angularVelocity 0 0 0 force 262806.561104348 -49251647.7582585 -144911.625954306 torque 0 0 0 radius 66.6666666666667 invMass 3.22288759761088e-10
BaseParticle id 3 indSpecies 0 position -333.333619753197 2066.39922081261 66.6666480016476 orientation 1 0 0 0 velocity -1.80408491572208e-06 0.0224842791179624 1.29622669104798e-05 angularVelocity 0 0 0 force 325266.55110674 -47589088.1702475 140850.560698015 torque 0 0 0 radius 66.6666666666667 invMass 3.22288759761088e-10
BaseParticle id 4 indSpecies 0 position -333.333562337382 2066.34658566689 200.000211339344 orientation 1 0 0 0 velocity -8.24676669841496e-05 0.021316467319349 -2.52336950792415e-05 angularVelocity 0 0 0 force 281043.965921773 112757201.726082 -264024.254742633 torque 0 0 0 radius 66.6666666666667 invMass 3.22288759761088e-10
BaseParticle id 5 indSpecies 0 position -333.333694975423 2066.40525358437 333.33371564536 orientation 1 0 0 0 velocity -0.000133684654036668 0.0428157481597603 0.00015966769551197 angularVelocity 0 0 0 force 228582.192552686 -47591518.6606639 -243898.668737728 torque 0 0 0 radius 66.6666666666667 invMass 3.22288759761088e-10
BaseParticle id 6 indSpecies 0 position -200.000157277444 2066.34661304966 -333.333569567532 orientation 1 0 0 0 velocity -9.77981135399808e-06 0.0213363847661349 -9.29391470924491e-05 angularVelocity 0 0 0 force 231691.919591107 112860348.044435 284121.514837561 torque 0 0 0 radius 66.6666666666667 invMass 3.22288759761088e-10
BaseParticle id 7 indSpecies 0 position -200.000117580712 2066.37076625955 -200.000025241271 orientation 1 0 0 0 velocity 2.81634781511405e-05 0.0368740696765523 5.81082087752342e-05 angularVelocity 0 0 0 force 263089.74262801 47148652.6798413 282348.100708986 torque 0 0 0 radius 66.6666666666667 invMass 3.22288759761088e-10
BaseParticle id 8 indSpecies 0 position -200.00026207479 2066.37921549069 -66.6666627740094 orientation 1 0 0 0 velocity -4.16262552757681e-05 0.033595194076819 4.77317308129192e-05 angularVelocity 0 0 0 force 343052.292986485 109772974.462615 13.0950531136768 torque 0 0 0 radius 66.6666666666667 invMass 3.22288759761088e-10
BaseParticle id 9 indSpecies 0 position -200.000212726358 2066.37921448344 66.6666613728648 orientation 1 0 0 0 velocity -3.00686700731212e-05 0.0335669201972727 -4.68776331211089e-05 angularVelocity 0 0 0 force 292839.929351132 109714164.868813 -5649.53623722575 torque 0 0 0 radius 66.6666666666667 invMass 3.22288759761088e-10
BaseParticle id 10 indSpecies 0 position -200.000068579948 2066.37064446796 200.000013075415 orientation 1 0 0 0 velocity 4.11732571527307e-05 0.0370914907737055 -6.73553292194875e-05 angularVelocity 0 0 0 force 270711.607703699 48561871.7103957 -286406.895092864 torque 0 0 0 radius 66.6666666666667 invMass 3.22288759761088e-10
BaseParticle id 11 indSpecies 0 position -200.000141799343 2066.34657345901 333.333584119173 orientation 1 0 0 0 velocity -1.47622279833228e-06 0.0213100732490321 0.000100309598309131 angularVelocity 0 0 0 force 239073.785474892 112766993.531409 -286512.061280675 torque 0 0 0 radius 66.6666666666667 invMass 3.22288759761088e-10
BaseParticle id 12 indSpecies 0 position -66.6667477870009 2066.39922599526 -333.333636273028 orientation 1 0 0 0 velocity 4.82470615917053e-05 0.0224538529841822 5.70667270202506e-06 angularVelocity 0 0 0 force 117839.94023296 -45770927.6589614 322950.814963446 torque 0 0 0 radius 66.6666666666667 invMass 3.22288759761088e-10
BaseParticle id 13 indSpecies 0 position -66.6667333635641 2066.37906884895 -200.000241979079 orientation 1 0 0 0 velocity 3.65061504735248e-05 0.033646226797102 -3.42579050299767e-05 angularVelocity 0 0 0 force 120199.788766383 109830679.229639 294043.495434946 torque 0 0 0 radius 66.6666666666667 invMass 3.22288759761088e-10
BaseParticle id 14 indSpecies 0 position -66.6667551837493 2066.36736006132 -66.6668340417727 orientation 1 0 0 0 velocity -4.0758254668318e-05 0.0306848576152217 -6.06564837109514e-05 angularVelocity 0 0 0 force 123323.917744875 109939667.379968 121037.973733203 torque 0 0 0 radius 66.6666666666667 invMass 3.22288759761088e-10
BaseParticle id 15 indSpecies 0 position -66.6667822273809 2066.36766995467 66.6668547244018 orientation 1 0 0 0 velocity -4.83375737639114e-05 0.0307877106433696 6.28353528276924e-05 angularVelocity 0 0 0 force 121712.430703142 109867044.972019 -127092.810231663 torque 0 0 0 radius 66.6666666666667 invMass 3.22288759761088e-10
BaseParticle id 16 indSpecies 0 position -66.6667178642261 2066.37925563878 200.000230165295 orientation 1 0 0 0 velocity 4.14689572293062e-05 0.0335768800405267 3.21090968616116e-05 angularVelocity 0 0 0 force 116520.251456744 109689556.738124 -297897.983245757 torque 0 0 0 radius 66.6666666666667 invMass 3.22288759761088e-10
BaseParticle id 17 indSpecies 0 position -66.6667167719582 2066.39930012284 333.333628071664 orientation 1 0 0 0 velocity 5.20097012723068e-05 0.0224615868305077 -6.10752331017977e-06 angularVelocity 0 0 0 force 114022.999595735 -48908121.3570913 -324510.774809085 torque 0 0 0 radius 66.6666666666667 invMass 3.22288759761088e-10
BaseParticle id 18 indSpecies 0 position 66.6667506072505 2066.39923961702 -333.333637929782 orientation 1 0 0 0 velocity -2.52355485514741e-05 0.0224443263940505 6.32301037085547e-06 angularVelocity 0 0 0 force -106972.256153938 -45784533.2154917 318739.243564389 torque 0 0 0 radius 66.6666666666667 invMass 3.22288759761088e-10
BaseParticle id 19 indSpecies 0 position 66.666701702805 2066.3792207372 -200.000241594789 orientation 1 0 0 0 velocity -7.11719239951001e-05 0.0337620234116283 -3.3338743650427e-05 angularVelocity 0 0 0 force -109887.836831879 109799674.12282 289094.708924248 torque 0 0 0 radius 66.6666666666667 invMass 3.22288759761088e-10
BaseParticle id 20 indSpecies 0 position 66.6667869202159 2066.36746120578 -66.6668139842277 orientation 1 0 0 0 velocity 5.37972155581134e-05 0.0311019804008493 -5.67347328685627e-05 angularVelocity 0 0 0 force -116190.507028209 109926781.679543 118906.347351543 torque 0 0 0 radius 66.6666666666667 invMass 3.22288759761088e-10
BaseParticle id 21 indSpecies 0 position 66.6668214168129 2066.36746726013 66.6668225174363 orientation 1 0 0 0 velocity 5.785493242388e-05 0.0311632553492378 5.61782732094682e-05 angularVelocity 0 0 0 force -118789.637524487 109870064.220477 -122982.246524562 torque 0 0 0 radius 66.6666666666667 invMass 3.22288759761088e-10
BaseParticle id 22 indSpecies 0 position 66.6666787349618 2066.37920881642 200.000236839818 orientation 1 0 0 0 velocity -4.55083920819101e-05 0.0335503129095526 3.25746410874485e-05 angularVelocity 0 0 0 force -115729.29097062 109700629.008154 -292290.571944082 torque 0 0 0 radius 66.6666666666667 invMass 3.22288759761088e-10
BaseParticle id 23 indSpecies 0 position 66.6667598001019 2066.39929694318 333.333634754825 orientation 1 0 0 0 velocity -3.11545099795883e-05 0.0224606416431938 -4.85428778090752e-06 angularVelocity 0 0 0 force -112833.511295426 -49168250.3966105 -321006.024796108 torque 0 0 0 radius 66.6666666666667 invMass 3.22288759761088e-10
BaseParticle id 24 indSpecies 0 position 200.000137133601 2066.34658068673 -333.333567460941 orientation 1 0 0 0 velocity -8.19336926075824e-06 0.0212687265241712 -8.45951860043727e-05 angularVelocity 0 0 0 force -233897.754111332 112812326.165592 272359.374391923 torque 0 0 0 radius 66.6666666666667 invMass 3.22288759761088e-10
BaseParticle id 25 indSpecies 0 position 200.000079582344 2066.37084507806 -200.000058558656 orientation 1 0 0 0 velocity -2.52327690548689e-05 0.0368830067484111 4.56934058052399e-05 angularVelocity 0 0 0 force -263704.336036105 46170517.5790288 267550.200757412 torque 0 0 0 radius 66.6666666666667 invMass 3.22288759761088e-10
BaseParticle id 26 indSpecies 0 position 200.000240503556 2066.37922238289 -66.6666819395576 orientation 1 0 0 0 velocity 3.73999638656551e-05 0.0336204226217766 4.81587937980932e-05 angularVelocity 0 0 0 force -287604.95811913 109795715.524666 116844.26260519 torque 0 0 0 radius 66.6666666666667 invMass 3.22288759761088e-10
BaseParticle id 27 indSpecies 0 position 200.000217141005 2066.37904701243 66.6666893348056 orientation 1 0 0 0 velocity 2.95326631319923e-05 0.0335807833663571 -4.79720849128049e-05 angularVelocity 0 0 0 force -290248.790699791 109754346.645283 -117151.403903063 torque 0 0 0 radius 66.6666666666667 invMass 3.22288759761088e-10
BaseParticle id 28 indSpecies 0 position 200.000031712271 2066.37076530208 200.000055763115 orientation 1 0 0 0 velocity -7.65098340168168e-05 0.0369364992944532 -4.53225415064557e-05 angularVelocity 0 0 0 force -269348.329383587 47419281.3536667 -270014.664859239 torque 0 0 0 radius 66.6666666666667 invMass 3.22288759761088e-10
BaseParticle id 29 indSpecies 0 position 200.000117157096 2066.34653075559 333.333563024783 orientation 1 0 0 0 velocity -1.47573772108325e-05 0.0212945551097956 8.37519675426579e-05 angularVelocity 0 0 0 force -239388.562739168 112806479.357781 -276977.787829093 torque 0 0 0 radius 66.6666666666667 invMass 3.22288759761088e-10
BaseParticle id 30 indSpecies 0 position 333.333670872331 2066.40517842184 -333.333726861052 orientation 1 0 0 0 velocity 0.000124406994049181 0.0429712418879211 -0.000152592953351011 angularVelocity 0 0 0 force -225257.837764645 -47927786.0131199 225167.021141233 torque 0 0 0 radius 66.6666666666667 invMass 3.22288759761088e-10
BaseParticle id 31 indSpecies 0 position 333.333592558546 2066.34654906233 -200.000205186187 orientation 1 0 0 0 velocity 0.000101846636007412 0.0212339261760922 1.63452850235617e-05 angularVelocity 0 0 0 force -273294.755759846 112869556.886541 241311.6128723 torque 0 0 0 radius 66.6666666666667 invMass 3.22288759761088e-10
BaseParticle id 32 indSpecies 0 position 333.333578328331 2066.39917021491 -66.6666673583595 orientation 1 0 0 0 velocity -7.2915752875483e-06 0.0222393794318132 3.94386230165952e-05 angularVelocity 0 0 0 force -320182.379228428 -41290595.8356384 -83008.3117820569 torque 0 0 0 radius 66.6666666666667 invMass 3.22288759761088e-10
BaseParticle id 33 indSpecies 0 position 333.333575031322 2066.39924082492 66.6666509363555 orientation 1 0 0 0 velocity -6.37525108504645e-06 0.0224723467061422 -4.37233990222309e-05 angularVelocity 0 0 0 force -322957.82347195 -45848795.8812104 85428.8748160704 torque 0 0 0 radius 66.6666666666667 invMass 3.22288759761088e-10
BaseParticle id 34 indSpecies 0 position 333.333637615625 2066.34657281715 200.000213669105 orientation 1 0 0 0 velocity 0.000121703233117581 0.0212434091911805 -2.25053831519221e-05 angularVelocity 0 0 0 force -279010.165797085 112823992.349506 -243345.237090888 torque 0 0 0 radius 66.6666666666667 invMass 3.22288759761088e-10
BaseParticle id 35 indSpecies 0 position 333.333675566489 2066.40525723944 333.333734218717 orientation 1 0 0 0 velocity 0.000127629438631439 0.0427568997175573 0.00016191397693271 angularVelocity 0 0 0 force -230458.717349433 -48379701.9806659 -231750.91150611 torque 0 0 0 radius 66.6666666666667 invMass 3.22288759761088e-10
BaseParticle id 36 indSpecies 0 position -333.333430176503 2199.72665989593 -333.333420929002 orientation 1 0 0 0 velocity -0.000114044014175259 0.0128925445489921 -0.000128175899800179 angularVelocity 0 0 0 force 33461.3606020786 217138468.325859 60286.5005828467 torque 0 0 0 radius 66.6666666666667 invMass 3.22288759761088e-10
BaseParticle id 37 indSpecies 0 position -333.333617874294 2199.70795543073 -200.000003604237 orientation 1 0 0 0 velocity -0.000137579653783678 0.0514777652917268 -3.43559789300572e-05 angularVelocity 0 0 0 force 107239.23651202 -279775796.871022 -124764.64191479 torque 0 0 0 radius 66.6666666666667 invMass 3.22288759761088e-10
BaseParticle id 38 indSpecies 0 position -333.333525163302 2199.72118279492 -66.6666910755259 orientation 1 0 0 0 velocity -4.96147175472462e-05 0.0851843956830401 2.16953184798738e-06 angularVelocity 0 0 0 force 187421.578476017 -130560530.869626 358301.317145684 torque 0 0 0 radius 66.6666666666667 invMass 3.22288759761088e-10
BaseParticle id 39 indSpecies 0 position -333.333518817073 2199.72123428766 66.6666433221258 orientation 1 0 0 0 velocity -8.28696826763829e-05 0.0853328031407366 7.11888368411514e-06 angularVelocity 0 0 0 force 197142.918882397 -131903551.076174 -91678.2637531167 torque 0 0 0 radius 66.6666666666667 invMass 3.22288759761088e-10
BaseParticle id 40 indSpecies 0 position -333.333576397261 2199.70788266461 200.000059236351 orientation 1 0 0 0 velocity -0.000116973310491426 0.0513183407061939 3.10441930141641e-05 angularVelocity 0 0 0 force 128311.101924259 -278892396.629478 -145125.113440329 torque 0 0 0 radius 66.6666666666667 invMass 3.22288759761088e-10
BaseParticle id 41 indSpecies 0 position -333.333464684267 2199.72666391686 333.333416042574 orientation 1 0 0 0 velocity -0.000149377785246762 0.0129648377234536 0.000121937679649978 angularVelocity 0 0 0 force 52960.5956910641 217516536.549955 -61310.4928576056 torque 0 0 0 radius 66.6666666666667 invMass 3.22288759761088e-10
BaseParticle id 42 indSpecies 0 position -200.000039507176 2199.70783611772 -333.333608318953 orientation 1 0 0 0 velocity 1.74495589774029e-05 0.0512844317241043 -0.000116751459975826 angularVelocity 0 0 0 force 116925.01414159 -278844353.402298 127880.224860728 torque 0 0 0 radius 66.6666666666667 invMass 3.22288759761088e-10
BaseParticle id 43 indSpecies 0 position -200.000063810691 2199.69936958771 -200.000043920764 orientation 1 0 0 0 velocity 1.95799495875926e-05 0.0352028509856239 3.48523815840061e-05 angularVelocity 0 0 0 force 164141.878764094 106668021.858735 183392.224822148 torque 0 0 0 radius 66.6666666666667 invMass 3.22288759761088e-10
BaseParticle id 44 indSpecies 0 position -200.000184281881 2199.71809880902 -66.6666289740048 orientation 1 0 0 0 velocity 1.99280867770436e-05 0.0220453141264629 1.09309608064791e-05 angularVelocity 0 0 0 force 206672.014394144 25562338.7276287 -214445.904252412 torque 0 0 0 radius 66.6666666666667 invMass 3.22288759761088e-10
BaseParticle id 45 indSpecies 0 position -200.000108546414 2199.71805810775 66.6666811425539 orientation 1 0 0 0 velocity 1.10963007868894e-06 0.0219460178200016 -1.6359766821258e-05 angularVelocity 0 0 0 force 67920.3628664557 25534423.0605866 211130.070305424 torque 0 0 0 radius 66.6666666666667 invMass 3.22288759761088e-10
BaseParticle id 46 indSpecies 0 position -200.000047518491 2199.69935910075 200.000027008239 orientation 1 0 0 0 velocity 2.33625261481525e-05 0.0349027239347037 -2.32402538516436e-05 angularVelocity 0 0 0 force 174105.618849654 102767968.752688 -185206.465393224 torque 0 0 0 radius 66.6666666666667 invMass 3.22288759761088e-10
BaseParticle id 47 indSpecies 0 position -200.000130265136 2199.70786555254 333.333574579671 orientation 1 0 0 0 velocity 2.0424539694594e-05 0.0513058736989981 0.000110396724102764 angularVelocity 0 0 0 force 125721.779182409 -278862861.100108 -128265.303745139 torque 0 0 0 radius 66.6666666666667 invMass 3.22288759761088e-10
BaseParticle id 48 indSpecies 0 position -66.6666924761139 2199.72136305881 -333.333545588483 orientation 1 0 0 0 velocity -1.0596030473377e-05 0.0846154734736379 -7.79689383680635e-05 angularVelocity 0 0 0 force 82734.8643399564 -134829287.038773 193549.842045905 torque 0 0 0 radius 66.6666666666667 invMass 3.22288759761088e-10
BaseParticle id 49 indSpecies 0 position -66.6666670157583 2199.71795653644 -200.000100845837 orientation 1 0 0 0 velocity 6.36439913452547e-05 0.0222387003106727 6.6492730986458e-05 angularVelocity 0 0 0 force 92385.2887643799 27078640.6020457 212192.152736241 torque 0 0 0 radius 66.6666666666667 invMass 3.22288759761088e-10
BaseParticle id 50 indSpecies 0 position -66.6667640610129 2199.70801416369 -66.6667518703268 orientation 1 0 0 0 velocity -2.96801289321543e-05 0.0345009073096561 -2.23275792387437e-05 angularVelocity 0 0 0 force 98147.1856093766 -241443281.858498 96999.8353907126 torque 0 0 0 radius 66.6666666666667 invMass 3.22288759761088e-10
BaseParticle id 51 indSpecies 0 position -66.6667863051665 2199.70844162806 66.666727720392 orientation 1 0 0 0 velocity 5.01264205251172e-05 0.0367149562288785 1.96476741233126e-05 angularVelocity 0 0 0 force 240048.460643073 -253440050.641063 -100682.152010391 torque 0 0 0 radius 66.6666666666667 invMass 3.22288759761088e-10
BaseParticle id 52 indSpecies 0 position -66.6666954162332 2199.7181214503 200.000141338036 orientation 1 0 0 0 velocity 4.35350162755537e-05 0.0220200131875621 -4.71944926722483e-05 angularVelocity 0 0 0 force 88869.9888433252 25584412.6547721 -214098.485040103 torque 0 0 0 radius 66.6666666666667 invMass 3.22288759761088e-10
BaseParticle id 53 indSpecies 0 position -66.6666270071681 2199.72121752708 333.333529154854 orientation 1 0 0 0 velocity -1.09679784384482e-05 0.0853336323043433 6.15139651082268e-05 angularVelocity 0 0 0 force -163091.050334951 -130516769.162753 -193819.98993932 torque 0 0 0 radius 66.6666666666667 invMass 3.22288759761088e-10
BaseParticle id 54 indSpecies 0 position 66.6666544919386 2199.721378921 -333.333529381347 orientation 1 0 0 0 velocity -3.74689664284963e-05 0.0848025012933903 -6.35391780660636e-05 angularVelocity 0 0 0 force -146464.595821111 -134232729.320071 190910.872615761 torque 0 0 0 radius 66.6666666666667 invMass 3.22288759761088e-10
BaseParticle id 55 indSpecies 0 position 66.6666666114065 2199.71792388846 -200.000135407631 orientation 1 0 0 0 velocity -2.86765757900525e-05 0.0221948790972502 5.04457848626957e-05 angularVelocity 0 0 0 force -80374.3966023421 27850556.0400833 208238.140560935 torque 0 0 0 radius 66.6666666666667 invMass 3.22288759761088e-10
BaseParticle id 56 indSpecies 0 position 66.6668079719447 2199.70833670384 -66.6667433153145 orientation 1 0 0 0 velocity 3.9241487061816e-05 0.0353708536352524 -2.02183737982821e-05 angularVelocity 0 0 0 force -104388.804506735 -244787597.002969 95202.3183778806 torque 0 0 0 radius 66.6666666666667 invMass 3.22288759761088e-10
BaseParticle id 57 indSpecies 0 position 66.6667949595313 2199.70846612102 66.6667147883807 orientation 1 0 0 0 velocity -2.01045387000738e-05 0.0355624474594742 1.57695144761966e-05 angularVelocity 0 0 0 force -338990.930237325 -245035113.10211 -97377.4328480734 torque 0 0 0 radius 66.6666666666667 invMass 3.22288759761088e-10
BaseParticle id 58 indSpecies 0 position 66.666652385897 2199.71811028022 200.000175238217 orientation 1 0 0 0 velocity -3.34680044815651e-05 0.0219943983375105 -3.02128339069006e-05 angularVelocity 0 0 0 force -89064.5382970628 25311709.0372219 -209829.183659706 torque 0 0 0 radius 66.6666666666667 invMass 3.22288759761088e-10
BaseParticle id 59 indSpecies 0 position 66.6666881321905 2199.72119439731 333.333518162255 orientation 1 0 0 0 velocity -2.89443435968397e-05 0.0851741192989496 4.81684218441417e-05 angularVelocity 0 0 0 force 163011.648873125 -130622750.832648 -192119.679326387 torque 0 0 0 radius 66.6666666666667 invMass 3.22288759761088e-10
BaseParticle id 60 indSpecies 0 position 199.999981466126 2199.70796040105 -333.333610726569 orientation 1 0 0 0 velocity -2.0523664735975e-05 0.0516735874928247 -0.000123924538519996 angularVelocity 0 0 0 force -39913.351321692 -280903202.606235 117958.265349252 torque 0 0 0 radius 66.6666666666667 invMass 3.22288759761088e-10
BaseParticle id 61 indSpecies 0 position 200.000087383466 2199.69937859015 -200.000052281087 orientation 1 0 0 0 velocity -2.75133256795994e-05 0.0352573845155882 3.58471590266683e-05 angularVelocity 0 0 0 force -161927.9421006 110109807.278374 169877.647642499 torque 0 0 0 radius 66.6666666666667 invMass 3.22288759761088e-10
BaseParticle id 62 indSpecies 0 position 200.000139858762 2199.71800355184 -66.6667035314991 orientation 1 0 0 0 velocity 2.72812606227993e-05 0.021968603493931 2.59599399718422e-05 angularVelocity 0 0 0 force -188428.362293518 25913748.1901641 89677.8340573032 torque 0 0 0 radius 66.6666666666667 invMass 3.22288759761088e-10
BaseParticle id 63 indSpecies 0 position 200.000109549338 2199.71791220259 66.6667064784932 orientation 1 0 0 0 velocity -2.02189658206713e-05 0.0222091084010927 -2.74888484731756e-05 angularVelocity 0 0 0 force 38240.9837024829 28048755.6728188 -89064.8578199473 torque 0 0 0 radius 66.6666666666667 invMass 3.22288759761088e-10
BaseParticle id 64 indSpecies 0 position 200.000072058786 2199.69939364705 200.00006548199 orientation 1 0 0 0 velocity -3.06632940082577e-05 0.0351104691223008 -3.31257959711245e-05 angularVelocity 0 0 0 force -171797.77056544 105838190.14514 -171818.769042508 torque 0 0 0 radius 66.6666666666667 invMass 3.22288759761088e-10
BaseParticle id 65 indSpecies 0 position 200.000032205194 2199.70783725187 333.333595622791 orientation 1 0 0 0 velocity 2.26102505165434e-05 0.0513198073607513 0.00012252808200964 angularVelocity 0 0 0 force -125817.469082427 -278970783.990248 -122358.39299795 torque 0 0 0 radius 66.6666666666667 invMass 3.22288759761088e-10
BaseParticle id 66 indSpecies 0 position 333.333525041654 2199.72656093405 -333.333370097881 orientation 1 0 0 0 velocity 0.000165121871032077 0.0130013648080524 -8.71408560024752e-05 angularVelocity 0 0 0 force -43263.9280121551 217907354.049232 -3012.41263451605 torque 0 0 0 radius 66.6666666666667 invMass 3.22288759761088e-10
BaseParticle id 67 indSpecies 0 position 333.33359225671 2199.70779883561 -200.000041810804 orientation 1 0 0 0 velocity 0.000110776418645957 0.0514715300535962 -5.34252340907411e-05 angularVelocity 0 0 0 force -114916.610041853 -280173263.602647 175663.113699018 torque 0 0 0 radius 66.6666666666667 invMass 3.22288759761088e-10
BaseParticle id 68 indSpecies 0 position 333.333521577225 2199.72163258838 -66.6666572581015 orientation 1 0 0 0 velocity -6.14011154307906e-06 0.0850626970242448 5.26958726584381e-06 angularVelocity 0 0 0 force -188652.882393333 -142357927.513839 -166485.80327942 torque 0 0 0 radius 66.6666666666667 invMass 3.22288759761088e-10
BaseParticle id 69 indSpecies 0 position 333.333505694401 2199.72137452334 66.6666574380327 orientation 1 0 0 0 velocity 7.32677440159014e-05 0.0848975839068482 -1.39847106217049e-05 angularVelocity 0 0 0 force -192574.199735445 -133713375.275982 168628.547096493 torque 0 0 0 radius 66.6666666666667 invMass 3.22288759761088e-10
BaseParticle id 70 indSpecies 0 position 333.333592347661 2199.70795706314 200.000044151466 orientation 1 0 0 0 velocity 0.000114560871977027 0.0516495361966692 6.77575299405461e-05 angularVelocity 0 0 0 force -123678.375096512 -280695404.481691 -218457.619129368 torque 0 0 0 radius 66.6666666666667 invMass 3.22288759761088e-10
BaseParticle id 71 indSpecies 0 position 333.333499084201 2199.72660661586 333.333369417375 orientation 1 0 0 0 velocity 0.000145339775068036 0.0132078442832062 8.0421427503746e-05 angularVelocity 0 0 0 force -52398.0649422658 218331096.132318 36232.2712953913 torque 0 0 0 radius 66.6666666666667 invMass 3.22288759761088e-10
BaseParticle id 72 indSpecies 0 position -333.333522198431 2333.06053081254 -333.333513387886 orientation 1 0 0 0 velocity -0.000157963621337532 0.0107497358994379 -0.000125745268333721 angularVelocity 0 0 0 force -177682.933326574 -212756745.273761 -159190.432047595 torque 0 0 0 radius 66.6666666666667 invMass 3.22288759761088e-10
BaseParticle id 73 indSpecies 0 position -333.333485422928 2333.01657032905 -200.000165111155 orientation 1 0 0 0 velocity -5.77894510553319e-05 0.0729758008595598 -5.87451354760958e-05 angularVelocity 0 0 0 force -87544.3850817009 295310126.538157 -12927.1978274151 torque 0 0 0 radius 66.6666666666667 invMass 3.22288759761088e-10
BaseParticle id 74 indSpecies 0 position -333.333768384745 2333.03010378464 -66.6666743044869 orientation 1 0 0 0 velocity 3.31108328492453e-06 0.0492571074703066 -1.59241080028422e-06 angularVelocity 0 0 0 force 12996.9206797162 263002002.317402 46061.9831624489 torque 0 0 0 radius 66.6666666666667 invMass 3.22288759761088e-10
BaseParticle id 75 indSpecies 0 position -333.333819254921 2333.03017457248 66.6666824200248 orientation 1 0 0 0 velocity -1.32764563555297e-06 0.0490458797246497 5.74146172040228e-06 angularVelocity 0 0 0 force 22229.7732577197 262523466.468167 -43592.0620432593 torque 0 0 0 radius 66.6666666666667 invMass 3.22288759761088e-10
BaseParticle id 76 indSpecies 0 position -333.333434401172 2333.01656265126 200.000148987622 orientation 1 0 0 0 velocity -9.93910463780281e-05 0.0731561409506352 4.41252997549703e-05 angularVelocity 0 0 0 force -68506.1342220457 294483763.513986 13314.9847181833 torque 0 0 0 radius 66.6666666666667 invMass 3.22288759761088e-10
BaseParticle id 77 indSpecies 0 position -333.333578097472 2333.06047560814 333.333525824075 orientation 1 0 0 0 velocity -0.000147847531631553 0.0107308441295042 0.000137800257712185 angularVelocity 0 0 0 force -161689.064930534 -210158801.537834 158001.625340929 torque 0 0 0 radius 66.6666666666667 invMass 3.22288759761088e-10
BaseParticle id 78 indSpecies 0 position -200.000096277312 2333.01651699724 -333.333599015752 orientation 1 0 0 0 velocity -2.51213731278997e-05 0.0731429646959853 -7.43380044246214e-05 angularVelocity 0 0 0 force -33336.2697823072 294758106.94153 -72021.7766357648 torque 0 0 0 radius 66.6666666666667 invMass 3.22288759761088e-10
BaseParticle id 79 indSpecies 0 position -200.000088457818 2333.03180362668 -200.000156723356 orientation 1 0 0 0 velocity -6.70832075755064e-05 0.0250164912029659 -3.67861342269879e-05 angularVelocity 0 0 0 force 22881.0278787568 -41308955.5023552 39000.0230908438 torque 0 0 0 radius 66.6666666666667 invMass 3.22288759761088e-10
BaseParticle id 80 indSpecies 0 position -200.000028076672 2333.04914118026 -66.6666414793149 orientation 1 0 0 0 velocity 1.97446431836114e-05 0.0131325929585095 -1.21258208198899e-05 angularVelocity 0 0 0 force -40336.6799726411 -271045776.5163 -416116.541070105 torque 0 0 0 radius 66.6666666666667 invMass 3.22288759761088e-10
BaseParticle id 81 indSpecies 0 position -200.000032524214 2333.04910049445 66.6666564188281 orientation 1 0 0 0 velocity -3.67364194525988e-05 0.0131854848041924 1.68913170388486e-05 angularVelocity 0 0 0 force 88602.0387878509 -270878365.656425 417369.255714081 torque 0 0 0 radius 66.6666666666667 invMass 3.22288759761088e-10
BaseParticle id 82 indSpecies 0 position -200.000060258641 2333.03161767768 200.000162864666 orientation 1 0 0 0 velocity -4.55325155776989e-05 0.0253264157182763 3.54509755183256e-05 angularVelocity 0 0 0 force 5480.69025825601 -38251669.1178507 -38953.4668868219 torque 0 0 0 radius 66.6666666666667 invMass 3.22288759761088e-10
BaseParticle id 83 indSpecies 0 position -200.000139414232 2333.01654703791 333.333580045775 orientation 1 0 0 0 velocity -5.19374123050424e-05 0.0731657805532959 7.2526071032422e-05 angularVelocity 0 0 0 force -23909.2367022136 294746363.691347 70888.2240473068 torque 0 0 0 radius 66.6666666666667 invMass 3.22288759761088e-10
BaseParticle id 84 indSpecies 0 position -66.6666305348254 2333.03020278161 -333.333754051591 orientation 1 0 0 0 velocity 9.45627512930972e-06 0.0499357188096076 6.47913999699215e-06 angularVelocity 0 0 0 force 40146.6697535954 263092254.138699 20701.1265340367 torque 0 0 0 radius 66.6666666666667 invMass 3.22288759761088e-10
BaseParticle id 85 indSpecies 0 position -66.6666611919018 2333.0491070745 -200.000026236474 orientation 1 0 0 0 velocity 2.34143353547534e-05 0.0131891207682707 6.88291236039633e-07 angularVelocity 0 0 0 force -28625.4898858917 -273478162.464162 2674.2718414464 torque 0 0 0 radius 66.6666666666667 invMass 3.22288759761088e-10
BaseParticle id 86 indSpecies 0 position -66.6667073278543 2333.01950610265 -66.6667027340754 orientation 1 0 0 0 velocity -2.2594350482474e-05 0.0795882800446302 -2.99503389842731e-05 angularVelocity 0 0 0 force 189639.36006355 155643991.637141 152150.859011331 torque 0 0 0 radius 66.6666666666667 invMass 3.22288759761088e-10