<?xml version="1.0"?>
<VTKFile type="UnstructuredGrid" version="0.1" byte_order="LittleEndian" compressor="vtkZLibDataCompressor">
<UnstructuredGrid>
<Piece NumberOfPoints="960" NumberOfCells="120">
<Points>
<DataArray type="Float32" NumberOfComponents="3" format="ascii">
-4.000000e+02 -6.000000e+03 -4.000000e+02
0.000000e+00 -6.000000e+03 -4.000000e+02
-4.000000e+02 -5.600000e+03 -4.000000e+02
-7.560370e-14 -5.600000e+03 -4.000000e+02
-4.000000e+02 -6.000000e+03 0.000000e+00
0.000000e+00 -6.000000e+03 0.000000e+00
-4.000000e+02 -5.600000e+03 -9.438910e-14
-3.099820e-13 -5.600000e+03 5.854180e-14
0.000000e+00 -6.000000e+03 -4.000000e+02
4.000000e+02 -6.000000e+03 -4.000000e+02
-7.560370e-14 -5.600000e+03 -4.000000e+02
4.000000e+02 -5.600000e+03 -4.000000e+02
0.000000e+00 -6.000000e+03 0.000000e+00
4.000000e+02 -6.000000e+03 0.000000e+00
-3.099820e-13 -5.600000e+03 5.854180e-14
4.000000e+02 -5.600000e+03 2.223620e-13
-4.000000e+02 -5.600000e+03 -4.000000e+02
-7.560370e-14 -5.600000e+03 -4.000000e+02
-4.000000e+02 -5.200000e+03 -4.000000e+02
4.575690e-13 -5.200000e+03 -4.000000e+02
-4.000000e+02 -5.600000e+03 -9.438910e-14
-3.099820e-13 -5.600000e+03 5.854180e-14
-4.000000e+02 -5.200000e+03 2.774560e-13
9.535770e-13 -5.200000e+03 -2.841600e-13
-7.560370e-14 -5.600000e+03 -4.000000e+02
4.000000e+02 -5.600000e+03 -4.000000e+02
4.575690e-13 -5.200000e+03 -4.000000e+02
4.000000e+02 -5.200000e+03 -4.000000e+02
-3.099820e-13 -5.600000e+03 5.854180e-14
4.000000e+02 -5.600000e+03 2.223620e-13
9.535770e-13 -5.200000e+03 -2.841600e-13
4.000000e+02 -5.200000e+03 -6.492130e-13
-4.000000e+02 -5.200000e+03 -4.000000e+02
4.575690e-13 -5.200000e+03 -4.000000e+02
-4.000000e+02 -4.800000e+03 -4.000000e+02
-1.587360e-12 -4.800000e+03 -4.000000e+02
-4.000000e+02 -5.200000e+03 2.774560e-13
9.535770e-13 -5.200000e+03 -2.841600e-13
-4.000000e+02 -4.800000e+03 -1.470460e-12
-2.203750e-12 -4.800000e+03 1.287510e-12
4.575690e-13 -5.200000e+03 -4.000000e+02
4.000000e+02 -5.200000e+03 -4.000000e+02
-1.587360e-12 -4.800000e+03 -4.000000e+02
4.000000e+02 -4.800000e+03 -4.000000e+02
9.535770e-13 -5.200000e+03 -2.841600e-13
4.000000e+02 -5.200000e+03 -6.492130e-13
-2.203750e-12 -4.800000e+03 1.287510e-12
4.000000e+02 -4.800000e+03 1.967530e-12
-4.000000e+02 -4.800000e+03 -4.000000e+02
-1.587360e-12 -4.800000e+03 -4.000000e+02
-4.000000e+02 -4.400000e+03 -4.000000e+02
-5.474390e-12 -4.400000e+03 -4.000000e+02
-4.000000e+02 -4.800000e+03 -1.470460e-12
-2.203750e-12 -4.800000e+03 1.287510e-12
-4.000000e+02 -4.400000e+03 -1.891800e-11
1.571870e-11 -4.400000e+03 -5.130170e-12
-1.587360e-12 -4.800000e+03 -4.000000e+02
4.000000e+02 -4.800000e+03 -4.000000e+02
-5.474390e-12 -4.400000e+03 -4.000000e+02
4.000000e+02 -4.400000e+03 -4.000000e+02
-2.203750e-12 -4.800000e+03 1.287510e-12
4.000000e+02 -4.800000e+03 1.967530e-12
1.571870e-11 -4.400000e+03 -5.130170e-12
4.000000e+02 -4.400000e+03 -5.253440e-13
-4.000000e+02 -4.400000e+03 -4.000000e+02
-5.474390e-12 -4.400000e+03 -4.000000e+02
-4.000000e+02 -4.000000e+03 -4.000000e+02
4.576250e-11 -4.000000e+03 -4.000000e+02
-4.000000e+02 -4.400000e+03 -1.891800e-11
1.571870e-11 -4.400000e+03 -5.130170e-12
-4.000000e+02 -4.000000e+03 5.367640e-11
5.118720e-11 -4.000000e+03 1.672780e-11
-5.474390e-12 -4.400000e+03 -4.000000e+02
4.000000e+02 -4.400000e+03 -4.000000e+02
4.576250e-11 -4.000000e+03 -4.000000e+02
4.000000e+02 -4.000000e+03 -4.000000e+02
1.571870e-11 -4.400000e+03 -5.130170e-12
4.000000e+02 -4.400000e+03 -5.253440e-13
5.118720e-11 -4.000000e+03 1.672780e-11
4.000000e+02 -4.000000e+03 4.411050e-11
-4.000000e+02 -4.000000e+03 -4.000000e+02
4.576250e-11 -4.000000e+03 -4.000000e+02
-4.000000e+02 -3.600000e+03 -4.000000e+02
2.517090e-11 -3.600000e+03 -4.000000e+02
-4.000000e+02 -4.000000e+03 5.367640e-11
5.118720e-11 -4.000000e+03 1.672780e-11
-4.000000e+02 -3.600000e+03 6.359300e-11
-2.804710e-11 -3.600000e+03 7.115150e-11
4.576250e-11 -4.000000e+03 -4.000000e+02
4.000000e+02 -4.000000e+03 -4.000000e+02
2.517090e-11 -3.600000e+03 -4.000000e+02
4.000000e+02 -3.600000e+03 -4.000000e+02
5.118720e-11 -4.000000e+03 1.672780e-11
4.000000e+02 -4.000000e+03 4.411050e-11
-2.804710e-11 -3.600000e+03 7.115150e-11
4.000000e+02 -3.600000e+03 1.372590e-11
-4.000000e+02 -3.600000e+03 -4.000000e+02
2.517090e-11 -3.600000e+03 -4.000000e+02
-4.000000e+02 -3.200000e+03 -4.000000e+02
-1.891320e-11 -3.200000e+03 -4.000000e+02
-4.000000e+02 -3.600000e+03 6.359300e-11
-2.804710e-11 -3.600000e+03 7.115150e-11
-4.000000e+02 -3.200000e+03 -1.378750e-10
-4.389590e-11 -3.200000e+03 -1.105350e-10
2.517090e-11 -3.600000e+03 -4.000000e+02
4.000000e+02 -3.600000e+03 -4.000000e+02
-1.891320e-11 -3.200000e+03 -4.000000e+02
4.000000e+02 -3.200000e+03 -4.000000e+02
-2.804710e-11 -3.600000e+03 7.115150e-11
4.000000e+02 -3.600000e+03 1.372590e-11
-4.389590e-11 -3.200000e+03 -1.105350e-10
4.000000e+02 -3.200000e+03 -1.832560e-10
-4.000000e+02 -3.200000e+03 -4.000000e+02
-1.891320e-11 -3.200000e+03 -4.000000e+02
-4.000000e+02 -2.800000e+03 -4.000000e+02
-9.669080e-11 -2.800000e+03 -4.000000e+02
-4.000000e+02 -3.200000e+03 -1.378750e-10
-4.389590e-11 -3.200000e+03 -1.105350e-10
-4.000000e+02 -2.800000e+03 -1.893240e-10
-8.362040e-11 -2.800000e+03 -3.120130e-10
-1.891320e-11 -3.200000e+03 -4.000000e+02
4.000000e+02 -3.200000e+03 -4.000000e+02
-9.669080e-11 -2.800000e+03 -4.000000e+02
4.000000e+02 -2.800000e+03 -4.000000e+02
-4.389590e-11 -3.200000e+03 -1.105350e-10
4.000000e+02 -3.200000e+03 -1.832560e-10
-8.362040e-11 -2.800000e+03 -3.120130e-10
4.000000e+02 -2.800000e+03 -1.610190e-10
-4.000000e+02 -2.800000e+03 -4.000000e+02
-9.669080e-11 -2.800000e+03 -4.000000e+02
-4.000000e+02 -2.400000e+03 -4.000000e+02
-1.073970e-10 -2.400000e+03 -4.000000e+02
-4.000000e+02 -2.800000e+03 -1.893240e-10
-8.362040e-11 -2.800000e+03 -3.120130e-10
-4.000000e+02 -2.400000e+03 -2.012690e-10
1.588050e-12 -2.400000e+03 -1.536360e-10
-9.669080e-11 -2.800000e+03 -4.000000e+02
4.000000e+02 -2.800000e+03 -4.000000e+02
-1.073970e-10 -2.400000e+03 -4.000000e+02
4.000000e+02 -2.400000e+03 -4.000000e+02
-8.362040e-11 -2.800000e+03 -3.120130e-10
4.000000e+02 -2.800000e+03 -1.610190e-10
1.588050e-12 -2.400000e+03 -1.536360e-10
4.000000e+02 -2.400000e+03 3.224770e-12
-4.000000e+02 -2.400000e+03 -4.000000e+02
-1.073970e-10 -2.400000e+03 -4.000000e+02
-4.000000e+02 -2.000000e+03 -4.000000e+02
1.338550e-10 -2.000000e+03 -4.000000e+02
-4.000000e+02 -2.400000e+03 -2.012690e-10
1.588050e-12 -2.400000e+03 -1.536360e-10
-4.000000e+02 -2.000000e+03 -1.548240e-10
7.947740e-11 -2.000000e+03 -1.239140e-11
-1.073970e-10 -2.400000e+03 -4.000000e+02
4.000000e+02 -2.400000e+03 -4.000000e+02
1.338550e-10 -2.000000e+03 -4.000000e+02
4.000000e+02 -2.000000e+03 -4.000000e+02
1.588050e-12 -2.400000e+03 -1.536360e-10
4.000000e+02 -2.400000e+03 3.224770e-12
7.947740e-11 -2.000000e+03 -1.239140e-11
4.000000e+02 -2.000000e+03 4.051150e-11
-4.000000e+02 -2.000000e+03 -4.000000e+02
1.338550e-10 -2.000000e+03 -4.000000e+02
-4.000000e+02 -1.600000e+03 -4.000000e+02
1.325260e-10 -1.600000e+03 -4.000000e+02
-4.000000e+02 -2.000000e+03 -1.548240e-10
7.947740e-11 -2.000000e+03 -1.239140e-11
-4.000000e+02 -1.600000e+03 -3.371440e-11
4.895940e-11 -1.600000e+03 6.552250e-11
1.338550e-10 -2.000000e+03 -4.000000e+02
4.000000e+02 -2.000000e+03 -4.000000e+02
1.325260e-10 -1.600000e+03 -4.000000e+02
4.000000e+02 -1.600000e+03 -4.000000e+02
7.947740e-11 -2.000000e+03 -1.239140e-11
4.000000e+02 -2.000000e+03 4.051150e-11
4.895940e-11 -1.600000e+03 6.552250e-11
4.000000e+02 -1.600000e+03 -7.665570e-11
-4.000000e+02 -1.600000e+03 -4.000000e+02
1.325260e-10 -1.600000e+03 -4.000000e+02
-4.000000e+02 -1.200000e+03 -4.000000e+02
4.022650e-11 -1.200000e+03 -4.000000e+02
-4.000000e+02 -1.600000e+03 -3.371440e-11
4.895940e-11 -1.600000e+03 6.552250e-11
-4.000000e+02 -1.200000e+03 -7.824190e-11
2.899960e-11 -1.200000e+03 -4.677460e-12
1.325260e-10 -1.600000e+03 -4.000000e+02
4.000000e+02 -1.600000e+03 -4.000000e+02
4.022650e-11 -1.200000e+03 -4.000000e+02
4.000000e+02 -1.200000e+03 -4.000000e+02
4.895940e-11 -1.600000e+03 6.552250e-11
4.000000e+02 -1.600000e+03 -7.665570e-11
2.899960e-11 -1.200000e+03 -4.677460e-12
4.000000e+02 -1.200000e+03 4.951920e-11
-4.000000e+02 -1.200000e+03 -4.000000e+02
4.022650e-11 -1.200000e+03 -4.000000e+02
-4.000000e+02 -8.000000e+02 -4.000000e+02
1.616100e-10 -8.000000e+02 -4.000000e+02
-4.000000e+02 -1.200000e+03 -7.824190e-11
2.899960e-11 -1.200000e+03 -4.677460e-12
-4.000000e+02 -8.000000e+02 8.955450e-12
3.201610e-10 -8.000000e+02 -4.694600e-11
4.022650e-11 -1.200000e+03 -4.000000e+02
4.000000e+02 -1.200000e+03 -4.000000e+02
1.616100e-10 -8.000000e+02 -4.000000e+02
4.000000e+02 -8.000000e+02 -4.000000e+02
2.899960e-11 -1.200000e+03 -4.677460e-12
4.000000e+02 -1.200000e+03 4.951920e-11
3.201610e-10 -8.000000e+02 -4.694600e-11
4.000000e+02 -8.000000e+02 1.254400e-11
-4.000000e+02 -8.000000e+02 -4.000000e+02
1.616100e-10 -8.000000e+02 -4.000000e+02
-4.000000e+02 -3.999980e+02 -4.000000e+02
3.628450e-10 -3.999980e+02 -4.000000e+02
-4.000000e+02 -8.000000e+02 8.955450e-12
3.201610e-10 -8.000000e+02 -4.694600e-11
-4.000000e+02 -3.999980e+02 -8.404330e-11
4.626480e-10 -3.999980e+02 -1.724780e-10
1.616100e-10 -8.000000e+02 -4.000000e+02
4.000000e+02 -8.000000e+02 -4.000000e+02
3.628450e-10 -3.999980e+02 -4.000000e+02
4.000000e+02 -3.999980e+02 -4.000000e+02
3.201610e-10 -8.000000e+02 -4.694600e-11
4.000000e+02 -8.000000e+02 1.254400e-11
4.626480e-10 -3.999980e+02 -1.724780e-10
4.000000e+02 -3.999980e+02 -2.972920e-10
-4.000000e+02 -3.999980e+02 -4.000000e+02
3.628450e-10 -3.999980e+02 -4.000000e+02
-4.000000e+02 3.486540e-03 -4.000000e+02
4.320260e-10 3.484330e-03 -4.000000e+02
-4.000000e+02 -3.999980e+02 -8.404330e-11
4.626480e-10 -3.999980e+02 -1.724780e-10
-4.000000e+02 3.484330e-03 -2.890350e-10
4.270880e-10 3.482120e-03 -3.227720e-10
3.628450e-10 -3.999980e+02 -4.000000e+02
4.000000e+02 -3.999980e+02 -4.000000e+02
4.320260e-10 3.484330e-03 -4.000000e+02
4.000000e+02 3.486540e-03 -4.000000e+02
[...]
<PointData>
<DataArray type="Float32" Name="V1" format="ascii">
0.000000e+00
0.000000e+00
0.000000e+00
1.630610e-13
0.000000e+00
0.000000e+00
0.000000e+00
-1.502300e-12
0.000000e+00
0.000000e+00
1.630610e-13
0.000000e+00
0.000000e+00
0.000000e+00
-1.502300e-12
0.000000e+00
0.000000e+00
1.630610e-13
0.000000e+00
-4.642980e-13
0.000000e+00
-1.502300e-12
0.000000e+00
5.921300e-12
1.630610e-13
0.000000e+00
-4.642980e-13
0.000000e+00
-1.502300e-12
0.000000e+00
5.921300e-12
0.000000e+00
0.000000e+00
-4.642980e-13
0.000000e+00
1.192060e-12
0.000000e+00
5.921300e-12
0.000000e+00
-2.222680e-11
-4.642980e-13
0.000000e+00
1.192060e-12
0.000000e+00
5.921300e-12
0.000000e+00
-2.222680e-11
0.000000e+00
0.000000e+00
1.192060e-12
0.000000e+00
3.899370e-12
0.000000e+00
-2.222680e-11
0.000000e+00
7.411150e-11
1.192060e-12
0.000000e+00
3.899370e-12
0.000000e+00
-2.222680e-11
0.000000e+00
7.411150e-11
0.000000e+00
0.000000e+00
3.899370e-12
2.042460e-10
5.653720e-11
0.000000e+00
7.411150e-11
2.985140e-10
2.206220e-11
3.899370e-12
0.000000e+00
5.653720e-11
0.000000e+00
7.411150e-11
0.000000e+00
2.206220e-11
0.000000e+00
2.042460e-10
5.653720e-11
-1.728240e-10
1.015160e-11
2.985140e-10
2.206220e-11
-3.927810e-10
-5.334140e-11
5.653720e-11
0.000000e+00
1.015160e-11
5.184710e-10
2.206220e-11
0.000000e+00
-5.334140e-11
0.000000e+00
-1.728240e-10
1.015160e-11
1.351170e-09
-1.430930e-10
-3.927810e-10
-5.334140e-11
1.382590e-09
-6.669780e-11
1.015160e-11
5.184710e-10
-1.430930e-10
-1.398300e-09
-5.334140e-11
0.000000e+00
-6.669780e-11
-1.633970e-09
1.351170e-09
-1.430930e-10
-2.199580e-09
-6.456200e-11
1.382590e-09
-6.669780e-11
-2.215290e-09
-9.326770e-11
-1.430930e-10
-1.398300e-09
-6.456200e-11
2.262420e-09
-6.669780e-11
-1.633970e-09
-9.326770e-11
2.121020e-09
-2.199580e-09
-6.456200e-11
-4.870490e-09
1.598890e-11
-2.215290e-09
-9.326770e-11
-5.231850e-09
1.453650e-11
-6.456200e-11
2.262420e-09
1.598890e-11
5.231850e-09
-9.326770e-11
2.121020e-09
1.453650e-11
4.917620e-09
-4.870490e-09
1.598890e-11
3.568030e-08
-6.891460e-11
-5.231850e-09
1.453650e-11
3.508320e-08
-1.651100e-11
1.598890e-11
5.231850e-09
-6.891460e-11
-3.569600e-08
1.453650e-11
4.917620e-09
-1.651100e-11
-3.498900e-08
3.568030e-08
-6.891460e-11
-1.030660e-07
7.372880e-11
3.508320e-08
-1.651100e-11
-1.031130e-07
-1.401930e-10
-6.891460e-11
-3.569600e-08
7.372880e-11
1.029560e-07
-1.651100e-11
-3.498900e-08
-1.401930e-10
1.029240e-07
-1.030660e-07
7.372880e-11
1.478430e-07
-3.416470e-11
-1.031130e-07
-1.401930e-10
1.491470e-07
-1.805920e-10
7.372880e-11
1.029560e-07
-3.416470e-11
-1.479210e-07
-1.401930e-10
1.029240e-07
-1.805920e-10
-1.495400e-07
1.478430e-07
-3.416470e-11
1.253440e-07
2.964720e-11
1.491470e-07
-1.805920e-10
1.233330e-07
5.336640e-12
-3.416470e-11
-1.479210e-07
2.964720e-11
-1.254230e-07
-1.805920e-10
-1.495400e-07
5.336640e-12
-1.232080e-07
1.253440e-07
2.964720e-11
-1.237860e-06
3.364720e-10
1.233330e-07
5.336640e-12
-1.235420e-06
1.025220e-10
2.964720e-11
-1.254230e-07
3.364720e-10
1.238250e-06
5.336640e-12
-1.232080e-07
1.025220e-10
1.235970e-06
-1.237860e-06
3.364720e-10
2.724220e-06
1.321650e-10
-1.235420e-06
1.025220e-10
2.729300e-06
6.017270e-12
3.364720e-10
1.238250e-06
1.321650e-10
-2.724320e-06
1.025220e-10
1.235970e-06
6.017270e-12
-2.729040e-06
2.724220e-06
1.321650e-10
-2.944130e-07
1.584720e-10
2.729300e-06
6.017270e-12
-3.244850e-07
1.536250e-11
1.321650e-10
-2.724320e-06
1.584720e-10
2.942720e-07
6.017270e-12
-2.729040e-06
1.536250e-11
3.244850e-07
-2.944130e-07
1.584720e-10
-1.269760e-05
9.945280e-11
-3.244850e-07
1.536250e-11
-1.260830e-05
-1.849460e-10
1.584720e-10
2.942720e-07
9.945280e-11
1.269770e-05
1.536250e-11
3.244850e-07
-1.849460e-10
1.260800e-05
-1.269760e-05
9.945280e-11
2.782340e-05
-1.395990e-10
-1.260830e-05
-1.849460e-10
2.774080e-05
1.973770e-10
9.945280e-11
1.269770e-05
-1.395990e-10
-2.782360e-05
-1.849460e-10
1.260800e-05
1.973770e-10
-2.774040e-05
2.782340e-05
-1.395990e-10
4.832450e-05
1.459920e-10
2.774080e-05
1.973770e-10
4.784360e-05
-2.308350e-10
-1.395990e-10
-2.782360e-05
1.459920e-10
-4.832390e-05
1.973770e-10
-2.774040e-05
-2.308350e-10
-4.784410e-05
4.832450e-05
1.459920e-10
1.066220e-05
1.875820e-11
4.784360e-05
-2.308350e-10
1.078640e-05
-3.212410e-11
1.459920e-10
-4.832390e-05
1.875820e-11
-1.066230e-05
-2.308350e-10
-4.784410e-05
-3.212410e-11
-1.078600e-05
1.066220e-05
1.875820e-11
-7.106550e-05
3.092510e-11
1.078640e-05
-3.212410e-11
-7.087320e-05
-7.558250e-13
1.875820e-11
-1.066230e-05
3.092510e-11
7.106560e-05
-3.212410e-11
-1.078600e-05
-7.558250e-13
7.087340e-05
-7.106550e-05
3.092510e-11
-5.539330e-05
4.140480e-11
-7.087320e-05
-7.558250e-13
-5.532970e-05
2.696170e-11
3.092510e-11
7.106560e-05
4.140480e-11
5.539350e-05
-7.558250e-13
7.087340e-05
2.696170e-11
5.532980e-05
-5.539330e-05
4.140480e-11
1.105720e-05
2.140590e-11
-5.532970e-05
2.696170e-11
1.112960e-05
3.688500e-11
4.140480e-11
5.539350e-05
2.140590e-11
-1.105720e-05
2.696170e-11
5.532980e-05
3.688500e-11
-1.112960e-05
1.105720e-05
2.140590e-11
2.757690e-05
1.524430e-11
1.112960e-05
3.688500e-11
2.730890e-05
2.103660e-11
2.140590e-11
-1.105720e-05
1.524430e-11
-2.757690e-05
3.688500e-11
-1.112960e-05
2.103660e-11
-2.730890e-05
2.757690e-05
1.524430e-11
1.766870e-05
1.308620e-11
2.730890e-05
2.103660e-11
1.779430e-05
1.907180e-11
1.524430e-11
-2.757690e-05
1.308620e-11
-1.766870e-05
2.103660e-11
-2.730890e-05
1.907180e-11
-1.779420e-05
1.766870e-05
1.308620e-11
-2.047620e-06
-4.611300e-13
1.779430e-05
1.907180e-11
-1.619090e-06
1.221490e-11
1.308620e-11
-1.766870e-05
-4.611300e-13
2.047620e-06
1.907180e-11
-1.779420e-05
1.221490e-11
1.619220e-06
-2.047620e-06
-4.611300e-13
-2.954050e-06
-6.156900e-12
-1.619090e-06
1.221490e-11
-3.031750e-06
-9.811600e-13
-4.611300e-13
2.047620e-06
-6.156900e-12
2.954030e-06
1.221490e-11
1.619220e-06
-9.811600e-13
3.031800e-06
-2.954050e-06
-6.156900e-12
5.083520e-06
-4.150420e-12
-3.031750e-06
-9.811600e-13
4.636410e-06
-1.228300e-11
-6.156900e-12
2.954030e-06
-4.150420e-12
-5.083440e-06
-9.811600e-13
3.031800e-06
-1.228300e-11
-4.636390e-06
5.083520e-06
-4.150420e-12
-1.003260e-06
-1.761430e-11
4.636410e-06
-1.228300e-11
-1.079770e-06
-3.645510e-11
-4.150420e-12
-5.083440e-06
-1.761430e-11
1.003210e-06
-1.228300e-11
-4.636390e-06
-3.645510e-11
1.079650e-06
-1.003260e-06
-1.761430e-11
3.444280e-06
-4.203050e-11
-1.079770e-06
-3.645510e-11
3.446670e-06
-3.807570e-11
-1.761430e-11
1.003210e-06
-4.203050e-11
-3.444410e-06
-3.645510e-11
1.079650e-06
-3.807570e-11
-3.446750e-06
0.000000e+00
0.000000e+00
0.000000e+00
-1.502300e-12
0.000000e+00
0.000000e+00
0.000000e+00
5.079580e-13
0.000000e+00
0.000000e+00
-1.502300e-12
0.000000e+00
0.000000e+00
0.000000e+00
5.079580e-13
0.000000e+00
0.000000e+00
-1.502300e-12
0.000000e+00
5.921300e-12
0.000000e+00
5.079580e-13
0.000000e+00
-2.450450e-12
-1.502300e-12
0.000000e+00
5.921300e-12
0.000000e+00
5.079580e-13
0.000000e+00
-2.450450e-12
0.000000e+00
0.000000e+00
5.921300e-12
0.000000e+00
-2.222680e-11
0.000000e+00
-2.450450e-12
0.000000e+00
1.083510e-11
5.921300e-12
0.000000e+00
-2.222680e-11
0.000000e+00
-2.450450e-12
0.000000e+00
1.083510e-11
0.000000e+00
0.000000e+00
-2.222680e-11
0.000000e+00
7.411150e-11
0.000000e+00
1.083510e-11
0.000000e+00
1.762660e-11
-2.222680e-11
0.000000e+00
7.411150e-11
0.000000e+00
1.083510e-11
0.000000e+00
1.762660e-11
0.000000e+00
0.000000e+00
7.411150e-11
2.985140e-10
2.206220e-11
0.000000e+00
1.762660e-11
0.000000e+00
4.441290e-11
7.411150e-11
0.000000e+00
2.206220e-11
0.000000e+00
1.762660e-11
0.000000e+00
4.441290e-11
0.000000e+00
2.985140e-10
2.206220e-11
-3.927810e-10
-5.334140e-11
0.000000e+00
4.441290e-11
-3.142250e-11
-4.758900e-11
2.206220e-11
0.000000e+00
-5.334140e-11
0.000000e+00
4.441290e-11
0.000000e+00
-4.758900e-11
0.000000e+00
-3.927810e-10
-5.334140e-11
1.382590e-09
-6.669780e-11
-3.142250e-11
-4.758900e-11
1.288320e-09
-1.545680e-10
-5.334140e-11
0.000000e+00
-6.669780e-11
-1.633970e-09
-4.758900e-11
0.000000e+00
-1.545680e-10
-1.743950e-09
1.382590e-09
-6.669780e-11
-2.215290e-09
-9.326770e-11
1.288320e-09
-1.545680e-10
-2.670910e-09
-3.820440e-11
-6.669780e-11
-1.633970e-09
-9.326770e-11
2.121020e-09
-1.545680e-10
-1.743950e-09
-3.820440e-11
2.812310e-09
-2.215290e-09
-9.326770e-11
-5.231850e-09
1.453650e-11
-2.670910e-09
-3.820440e-11
-5.027600e-09
9.114650e-11
-9.326770e-11
2.121020e-09
1.453650e-11
4.917620e-09
-3.820440e-11
2.812310e-09
9.114650e-11
5.373250e-09
-5.231850e-09
1.453650e-11
3.508320e-08
-1.651100e-11
-5.027600e-09
9.114650e-11
3.550740e-08
-3.882230e-10
1.453650e-11
4.917620e-09
-1.651100e-11
-3.498900e-08
9.114650e-11
5.373250e-09
-3.882230e-10
-3.572740e-08
3.508320e-08
-1.651100e-11
-1.031130e-07
-1.401930e-10
3.550740e-08
-3.882230e-10
-1.028300e-07
-7.454270e-11
-1.651100e-11
-3.498900e-08
-1.401930e-10
1.029240e-07
-3.882230e-10
-3.572740e-08
-7.454270e-11
1.025940e-07
-1.031130e-07
-1.401930e-10
1.491470e-07
-1.805920e-10
-1.028300e-07
-7.454270e-11
1.486280e-07
-1.293050e-10
-1.401930e-10
1.029240e-07
-1.805920e-10
-1.495400e-07
-7.454270e-11
1.025940e-07
-1.293050e-10
-1.480790e-07
1.491470e-07
-1.805920e-10
1.233330e-07
5.336640e-12
1.486280e-07
-1.293050e-10
1.252500e-07
8.983400e-11
-1.805920e-10
-1.495400e-07
5.336640e-12
-1.232080e-07
-1.293050e-10
-1.480790e-07
8.983400e-11
-1.249040e-07
1.233330e-07
5.336640e-12
-1.235420e-06
1.025220e-10
1.252500e-07
8.983400e-11
-1.237860e-06
6.577710e-11
5.336640e-12
-1.232080e-07
1.025220e-10
1.235970e-06
8.983400e-11
-1.249040e-07
6.577710e-11
1.238050e-06
-1.235420e-06
1.025220e-10
2.729300e-06
6.017270e-12
-1.237860e-06
6.577710e-11
2.724760e-06
2.217160e-10
1.025220e-10
1.235970e-06
6.017270e-12
-2.729040e-06
6.577710e-11
1.238050e-06
2.217160e-10
-2.724690e-06
2.729300e-06
6.017270e-12
-3.244850e-07
1.536250e-11
2.724760e-06
2.217160e-10
-2.940990e-07
2.779390e-10
6.017270e-12
-2.729040e-06
1.536250e-11
3.244850e-07
2.217160e-10
-2.724690e-06
2.779390e-10
2.944290e-07
-3.244850e-07
1.536250e-11
-1.260830e-05
-1.849460e-10
-2.940990e-07
2.779390e-10
-1.269760e-05
2.568650e-10
1.536250e-11
3.244850e-07
-1.849460e-10
1.260800e-05
2.779390e-10
2.944290e-07
2.568650e-10
1.269820e-05
-1.260830e-05
-1.849460e-10
2.774080e-05
1.973770e-10
-1.269760e-05
2.568650e-10
2.782350e-05
3.099480e-11
-1.849460e-10
1.260800e-05
1.973770e-10
-2.774040e-05
2.568650e-10
1.269820e-05
3.099480e-11
-2.782380e-05
2.774080e-05
1.973770e-10
4.784360e-05
-2.308350e-10
2.782350e-05
3.099480e-11
4.832470e-05
1.557640e-10
1.973770e-10
-2.774040e-05
-2.308350e-10
-4.784410e-05
3.099480e-11
-2.782380e-05
1.557640e-10
-4.832400e-05
4.784360e-05
-2.308350e-10
1.078640e-05
-3.212410e-11
4.832470e-05
1.557640e-10
1.066230e-05
1.316810e-10
-2.308350e-10
-4.784410e-05
-3.212410e-11
-1.078600e-05
1.557640e-10
-4.832400e-05
1.316810e-10
-1.066210e-05
1.078640e-05
-3.212410e-11
-7.087320e-05
-7.558250e-13
1.066230e-05
1.316810e-10
-7.106560e-05
-1.703190e-11
-3.212410e-11
-1.078600e-05
-7.558250e-13
7.087340e-05
1.316810e-10
-1.066210e-05
-1.703190e-11
7.106560e-05
-7.087320e-05
-7.558250e-13
-5.532970e-05
2.696170e-11
-7.106560e-05
-1.703190e-11
-5.539330e-05
2.991420e-11
-7.558250e-13
7.087340e-05
2.696170e-11
5.532980e-05
-1.703190e-11
7.106560e-05
2.991420e-11
5.539340e-05
-5.532970e-05
2.696170e-11
1.112960e-05
3.688500e-11
-5.539330e-05
2.991420e-11
1.105720e-05
5.223610e-11
2.696170e-11
5.532980e-05
3.688500e-11
-1.112960e-05
2.991420e-11
5.539340e-05
5.223610e-11
-1.105710e-05
1.112960e-05
3.688500e-11
2.730890e-05
2.103660e-11
1.105720e-05
5.223610e-11
2.757690e-05
2.465750e-11
3.688500e-11
-1.112960e-05
2.103660e-11
-2.730890e-05
5.223610e-11
-1.105710e-05
2.465750e-11
-2.757680e-05
2.730890e-05
2.103660e-11
1.779430e-05
1.907180e-11
2.757690e-05
2.465750e-11
1.766880e-05
2.364220e-11
2.103660e-11
-2.730890e-05
1.907180e-11
-1.779420e-05
2.465750e-11
-2.757680e-05
2.364220e-11
-1.766870e-05
1.779430e-05
1.907180e-11
-1.619090e-06
1.221490e-11
1.766880e-05
2.364220e-11
-2.047600e-06
8.267300e-12
1.907180e-11
-1.779420e-05
1.221490e-11
1.619220e-06
2.364220e-11
-1.766870e-05
8.267300e-12
2.047620e-06
-1.619090e-06
1.221490e-11
-3.031750e-06
-9.811600e-13
-2.047600e-06
8.267300e-12
-2.954060e-06
2.608250e-12
1.221490e-11
1.619220e-06
-9.811600e-13
3.031800e-06
8.267300e-12
2.047620e-06
2.608250e-12
2.954060e-06
-3.031750e-06
-9.811600e-13
4.636410e-06
-1.228300e-11
-2.954060e-06
2.608250e-12
5.083500e-06
-1.146750e-11
-9.811600e-13
3.031800e-06
-1.228300e-11
-4.636390e-06
2.608250e-12
2.954060e-06
-1.146750e-11
-5.083500e-06
4.636410e-06
-1.228300e-11
-1.079770e-06
-3.645510e-11
5.083500e-06
-1.146750e-11
-1.003310e-06
-2.724720e-11
-1.228300e-11
-4.636390e-06
-3.645510e-11
1.079650e-06
-1.146750e-11
-5.083500e-06
-2.724720e-11
1.003240e-06
-1.079770e-06
-3.645510e-11
3.446670e-06
-3.807570e-11
-1.003310e-06
-2.724720e-11
3.444270e-06
-4.424420e-11
-3.645510e-11
1.079650e-06
-3.807570e-11
-3.446750e-06
-2.724720e-11
1.003240e-06
-4.424420e-11
-3.444350e-06
</DataArray>
<DataArray type="Float32" Name="V2" format="ascii">
0.000000e+00
0.000000e+00
0.000000e+00
0.000000e+00
0.000000e+00
0.000000e+00
0.000000e+00
0.000000e+00
0.000000e+00
0.000000e+00
0.000000e+00
0.000000e+00
0.000000e+00
0.000000e+00
0.000000e+00
0.000000e+00
0.000000e+00
0.000000e+00
0.000000e+00
0.000000e+00
0.000000e+00
0.000000e+00
0.000000e+00
0.000000e+00
0.000000e+00
0.000000e+00
0.000000e+00
0.000000e+00
0.000000e+00
0.000000e+00
0.000000e+00
0.000000e+00
0.000000e+00
0.000000e+00
-1.206620e-08
-1.206620e-08
0.000000e+00
0.000000e+00
-1.181490e-08
-1.206620e-08
0.000000e+00
0.000000e+00
-1.206620e-08
-1.206620e-08
0.000000e+00
0.000000e+00
-1.206620e-08
-1.206620e-08
-1.206620e-08
-1.206620e-08
5.015030e-08
5.027600e-08
-1.181490e-08
-1.206620e-08
5.027600e-08
5.027600e-08
-1.206620e-08
-1.206620e-08
5.027600e-08
5.027600e-08
-1.206620e-08
-1.206620e-08
5.027600e-08
5.027600e-08
5.015030e-08
5.027600e-08
-4.600260e-08
-4.399150e-08
5.027600e-08
5.027600e-08
-4.549980e-08
-4.424290e-08
5.027600e-08
5.027600e-08
-4.399150e-08
-4.436860e-08
5.027600e-08
5.027600e-08
-4.424290e-08
-4.386580e-08
-4.600260e-08
-4.399150e-08
-3.205100e-07
-3.221440e-07
-4.549980e-08
-4.424290e-08
-3.212640e-07
-3.240290e-07
-4.399150e-08
-4.436860e-08
-3.221440e-07
-3.206350e-07
-4.424290e-08
-4.386580e-08
-3.240290e-07
-3.216410e-07
-3.205100e-07
-3.221440e-07
1.712020e-06
1.714540e-06
-3.212640e-07
-3.240290e-07
1.714160e-06
1.715170e-06
-3.221440e-07
-3.206350e-07
1.714540e-06
1.712150e-06
-3.240290e-07
-3.216410e-07
1.715170e-06
1.714790e-06
1.712020e-06
1.714540e-06
-2.696430e-06
-2.694480e-06
1.714160e-06
1.715170e-06
-2.692280e-06
-2.691340e-06
1.714540e-06
1.712150e-06
-2.694480e-06
-2.697370e-06
1.715170e-06
1.714790e-06
-2.691340e-06
-2.692470e-06
-2.696430e-06
-2.694480e-06
-7.050900e-06
-7.068740e-06
-2.692280e-06
-2.691340e-06
-7.069560e-06
-7.085590e-06
-2.694480e-06
-2.697370e-06
-7.068740e-06
-7.051270e-06
-2.691340e-06
-2.692470e-06
-7.085590e-06
-7.069810e-06
-7.050900e-06
-7.068740e-06
3.760440e-05
3.764850e-05
-7.069560e-06
-7.085590e-06
3.764990e-05
3.769460e-05
-7.068740e-06
-7.051270e-06
3.764850e-05
3.760430e-05
-7.085590e-06
-7.069810e-06
3.769460e-05
3.764880e-05
3.760440e-05
3.764850e-05
-7.019220e-06
-7.076790e-06
3.764990e-05
3.769460e-05
-7.076980e-06
-7.134800e-06
3.764850e-05
3.760430e-05
-7.076790e-06
-7.019160e-06
3.769460e-05
3.764880e-05
-7.134800e-06
-7.076410e-06
-7.019220e-06
-7.076790e-06
-3.051620e-04
-3.052360e-04
-7.076980e-06
-7.134800e-06
-3.052360e-04
-3.053080e-04
-7.076790e-06
-7.019160e-06
-3.052360e-04
-3.051610e-04
-7.134800e-06
-7.076410e-06
-3.053080e-04
-3.052350e-04
-3.051620e-04
-3.052360e-04
2.884120e-04
2.889800e-04
-3.052360e-04
-3.053080e-04
2.889790e-04
2.895450e-04
-3.052360e-04
-3.051610e-04
2.889800e-04
2.884130e-04
-3.053080e-04
-3.052350e-04
2.895450e-04
2.889790e-04
2.884120e-04
2.889800e-04
2.625550e-03
2.624420e-03
2.889790e-04
2.895450e-04
2.624420e-03
2.623280e-03
2.889800e-04
2.884130e-04
2.624420e-03
2.625550e-03
2.895450e-04
2.889790e-04
2.623280e-03
2.624420e-03
2.625550e-03
2.624420e-03
-1.424710e-03
-1.425100e-03
2.624420e-03
2.623280e-03
-1.425100e-03
-1.425450e-03
2.624420e-03
2.625550e-03
-1.425100e-03
-1.424720e-03
2.623280e-03
2.624420e-03
-1.425450e-03
-1.425100e-03
-1.424710e-03
-1.425100e-03
-2.436120e-02
-2.435430e-02
-1.425100e-03
-1.425450e-03
-2.435430e-02
-2.434760e-02
-1.425100e-03
-1.424720e-03
-2.435430e-02
-2.436120e-02
-1.425450e-03
-1.425100e-03
-2.434760e-02
-2.435430e-02
-2.436120e-02
-2.435430e-02
-5.306490e-02
-5.307570e-02
-2.435430e-02
-2.434760e-02
-5.307570e-02
-5.308640e-02
-2.435430e-02
-2.436120e-02
-5.307570e-02
-5.306490e-02
-2.434760e-02
-2.435430e-02
-5.308640e-02
-5.307570e-02
-5.306490e-02
-5.307570e-02
-5.501620e-02
-5.503070e-02
-5.307570e-02
-5.308640e-02
-5.503070e-02
-5.504510e-02
-5.307570e-02
-5.306490e-02
-5.503070e-02
-5.501620e-02
-5.308640e-02
-5.307570e-02
-5.504510e-02
-5.503070e-02
-5.501620e-02
-5.503070e-02
-3.215890e-02
-3.216630e-02
-5.503070e-02
-5.504510e-02
-3.216630e-02
-3.217380e-02
-5.503070e-02
-5.501620e-02
-3.216630e-02
-3.215890e-02
-5.504510e-02
-5.503070e-02
-3.217380e-02
-3.216630e-02
-3.215890e-02
-3.216630e-02
-1.441710e-02
-1.440650e-02
-3.216630e-02
-3.217380e-02
-1.440650e-02
-1.440200e-02
-3.216630e-02
-3.215890e-02
-1.440650e-02
-1.441710e-02
-3.217380e-02
-3.216630e-02
-1.440200e-02
-1.440650e-02
-1.441710e-02
-1.440650e-02
-4.875500e-03
-4.785920e-03
-1.440650e-02
-1.440200e-02
-4.785920e-03
-4.699610e-03
-1.440650e-02
-1.441710e-02
-4.785920e-03
-4.875500e-03
-1.440200e-02
-1.440650e-02
-4.699610e-03
-4.785920e-03
-4.875500e-03
-4.785920e-03
-2.270950e-03
-2.380540e-03
-4.785920e-03
-4.699610e-03
-2.380540e-03
-2.490630e-03
-4.785920e-03
-4.875500e-03
-2.380540e-03
-2.270950e-03
-4.699610e-03
-4.785920e-03
-2.490630e-03
-2.380540e-03
-2.270950e-03
-2.380540e-03
-4.853680e-03
-4.916530e-03
-2.380540e-03
-2.490630e-03
-4.916530e-03
-4.977990e-03
-2.380540e-03
-2.270950e-03
-4.916530e-03
-4.853680e-03
-2.490630e-03
-2.380540e-03
-4.977990e-03
-4.916530e-03
-4.853680e-03
-4.916530e-03
-2.163450e-03
-2.162640e-03
-4.916530e-03
-4.977990e-03
-2.162640e-03
-2.170480e-03
-4.916530e-03
-4.853680e-03
-2.162640e-03
-2.163450e-03
-4.977990e-03
-4.916530e-03
-2.170480e-03
-2.162640e-03
-2.163450e-03
-2.162640e-03
-1.762500e-03
-1.664400e-03
-2.162640e-03
-2.170480e-03
-1.664400e-03
-1.584990e-03
-2.162640e-03
-2.163450e-03
-1.664400e-03
-1.762500e-03
-2.170480e-03
-2.162640e-03
-1.584990e-03
-1.664400e-03
-1.762500e-03
-1.664400e-03
-6.811140e-04
-7.378900e-04
-1.664400e-03
-1.584990e-03
-7.378910e-04
-7.757150e-04
-1.664400e-03
-1.762500e-03
-7.378900e-04
-6.811150e-04
-1.584990e-03
-1.664400e-03
-7.757150e-04
-7.378910e-04
-6.811140e-04
-7.378900e-04
-5.169840e-05
-7.222150e-05
-7.378910e-04
-7.757150e-04
-7.222140e-05
-1.035810e-04
-7.378900e-04
-6.811150e-04
-7.222150e-05
-5.169820e-05
-7.757150e-04
-7.378910e-04
-1.035810e-04
-7.222150e-05
-5.169840e-05
-7.222150e-05
5.430190e-04
5.447360e-04
-7.222140e-05
-1.035810e-04
5.447360e-04
5.575310e-04
-7.222150e-05
-5.169820e-05
5.447360e-04
5.430190e-04
-1.035810e-04
-7.222150e-05
5.575310e-04
5.447360e-04
5.430190e-04
5.447360e-04
-3.576930e-04
-3.496770e-04
5.447360e-04
5.575310e-04
-3.496770e-04
-3.351010e-04
5.447360e-04
5.430190e-04
-3.496770e-04
-3.576930e-04
5.575310e-04
5.447360e-04
-3.351010e-04
-3.496770e-04
-3.576930e-04
-3.496770e-04
-1.841180e-04
-1.482260e-04
-3.496770e-04
-3.351010e-04
-1.482260e-04
-1.168730e-04
-3.496770e-04
-3.576930e-04
-1.482260e-04
-1.841180e-04
-3.351010e-04
-3.496770e-04
-1.168730e-04
-1.482270e-04
0.000000e+00
0.000000e+00
0.000000e+00
0.000000e+00
0.000000e+00
0.000000e+00
0.000000e+00
0.000000e+00
0.000000e+00
0.000000e+00
0.000000e+00
0.000000e+00
0.000000e+00
0.000000e+00
0.000000e+00
0.000000e+00
0.000000e+00
0.000000e+00
0.000000e+00
0.000000e+00
0.000000e+00
0.000000e+00
0.000000e+00
0.000000e+00
0.000000e+00
0.000000e+00
0.000000e+00
0.000000e+00
0.000000e+00
0.000000e+00
0.000000e+00