<?xml version="1.0"?>
<VTKFile type="UnstructuredGrid" version="0.1" byte_order="LittleEndian" compressor="vtkZLibDataCompressor">
<UnstructuredGrid>
<Piece NumberOfPoints="960" NumberOfCells="120">
<Points>
<DataArray type="Float32" NumberOfComponents="3" format="ascii">
-4.000000e+02 -6.000000e+03 -4.000000e+02
0.000000e+00 -6.000000e+03 -4.000000e+02
-4.000000e+02 -5.600010e+03 -4.000000e+02
-2.322120e-10 -5.600010e+03 -4.000000e+02
-4.000000e+02 -6.000000e+03 0.000000e+00
0.000000e+00 -6.000000e+03 0.000000e+00
-4.000000e+02 -5.600010e+03 -5.238880e-10
4.220800e-11 -5.600010e+03 5.241300e-11
0.000000e+00 -6.000000e+03 -4.000000e+02
4.000000e+02 -6.000000e+03 -4.000000e+02
-2.322120e-10 -5.600010e+03 -4.000000e+02
4.000000e+02 -5.600010e+03 -4.000000e+02
0.000000e+00 -6.000000e+03 0.000000e+00
4.000000e+02 -6.000000e+03 0.000000e+00
4.220800e-11 -5.600010e+03 5.241300e-11
4.000000e+02 -5.600010e+03 -5.948510e-10
-4.000000e+02 -5.600010e+03 -4.000000e+02
-2.322120e-10 -5.600010e+03 -4.000000e+02
-4.000000e+02 -5.200050e+03 -4.000000e+02
1.967990e-10 -5.200050e+03 -4.000000e+02
-4.000000e+02 -5.600010e+03 -5.238880e-10
4.220800e-11 -5.600010e+03 5.241300e-11
-4.000000e+02 -5.200050e+03 -5.638850e-10
-3.501970e-10 -5.200050e+03 -6.762050e-10
-2.322120e-10 -5.600010e+03 -4.000000e+02
4.000000e+02 -5.600010e+03 -4.000000e+02
1.967990e-10 -5.200050e+03 -4.000000e+02
4.000000e+02 -5.200050e+03 -4.000000e+02
4.220800e-11 -5.600010e+03 5.241300e-11
4.000000e+02 -5.600010e+03 -5.948510e-10
-3.501970e-10 -5.200050e+03 -6.762050e-10
4.000000e+02 -5.200050e+03 4.491830e-11
-4.000000e+02 -5.200050e+03 -4.000000e+02
1.967990e-10 -5.200050e+03 -4.000000e+02
-4.000000e+02 -4.800130e+03 -4.000000e+02
-7.237380e-10 -4.800130e+03 -4.000000e+02
-4.000000e+02 -5.200050e+03 -5.638850e-10
-3.501970e-10 -5.200050e+03 -6.762050e-10
-4.000000e+02 -4.800130e+03 -2.250670e-10
-1.093770e-09 -4.800130e+03 -2.560030e-10
1.967990e-10 -5.200050e+03 -4.000000e+02
4.000000e+02 -5.200050e+03 -4.000000e+02
-7.237380e-10 -4.800130e+03 -4.000000e+02
4.000000e+02 -4.800130e+03 -4.000000e+02
-3.501970e-10 -5.200050e+03 -6.762050e-10
4.000000e+02 -5.200050e+03 4.491830e-11
-1.093770e-09 -4.800130e+03 -2.560030e-10
4.000000e+02 -4.800130e+03 1.842650e-10
-4.000000e+02 -4.800130e+03 -4.000000e+02
-7.237380e-10 -4.800130e+03 -4.000000e+02
-4.000000e+02 -4.400200e+03 -4.000000e+02
-1.898900e-10 -4.400200e+03 -4.000000e+02
-4.000000e+02 -4.800130e+03 -2.250670e-10
-1.093770e-09 -4.800130e+03 -2.560030e-10
-4.000000e+02 -4.400200e+03 -9.808700e-10
-9.258740e-10 -4.400200e+03 -6.466620e-10
-7.237380e-10 -4.800130e+03 -4.000000e+02
4.000000e+02 -4.800130e+03 -4.000000e+02
-1.898900e-10 -4.400200e+03 -4.000000e+02
4.000000e+02 -4.400200e+03 -4.000000e+02
-1.093770e-09 -4.800130e+03 -2.560030e-10
4.000000e+02 -4.800130e+03 1.842650e-10
-9.258740e-10 -4.400200e+03 -6.466620e-10
4.000000e+02 -4.400200e+03 -8.266850e-10
-4.000000e+02 -4.400200e+03 -4.000000e+02
-1.898900e-10 -4.400200e+03 -4.000000e+02
-4.000000e+02 -4.000230e+03 -4.000000e+02
-1.118650e-10 -4.000230e+03 -4.000000e+02
-4.000000e+02 -4.400200e+03 -9.808700e-10
-9.258740e-10 -4.400200e+03 -6.466620e-10
-4.000000e+02 -4.000230e+03 -5.873040e-10
-5.506560e-10 -4.000230e+03 -4.735930e-10
-1.898900e-10 -4.400200e+03 -4.000000e+02
4.000000e+02 -4.400200e+03 -4.000000e+02
-1.118650e-10 -4.000230e+03 -4.000000e+02
4.000000e+02 -4.000230e+03 -4.000000e+02
-9.258740e-10 -4.400200e+03 -6.466620e-10
4.000000e+02 -4.400200e+03 -8.266850e-10
-5.506560e-10 -4.000230e+03 -4.735930e-10
4.000000e+02 -4.000230e+03 -5.579680e-10
-4.000000e+02 -4.000230e+03 -4.000000e+02
-1.118650e-10 -4.000230e+03 -4.000000e+02
-4.000000e+02 -3.600250e+03 -4.000000e+02
-1.017480e-09 -3.600250e+03 -4.000000e+02
-4.000000e+02 -4.000230e+03 -5.873040e-10
-5.506560e-10 -4.000230e+03 -4.735930e-10
-4.000000e+02 -3.600250e+03 8.335780e-13
-2.339270e-10 -3.600250e+03 -2.104010e-10
-1.118650e-10 -4.000230e+03 -4.000000e+02
4.000000e+02 -4.000230e+03 -4.000000e+02
-1.017480e-09 -3.600250e+03 -4.000000e+02
4.000000e+02 -3.600250e+03 -4.000000e+02
-5.506560e-10 -4.000230e+03 -4.735930e-10
4.000000e+02 -4.000230e+03 -5.579680e-10
-2.339270e-10 -3.600250e+03 -2.104010e-10
4.000000e+02 -3.600250e+03 -1.410620e-10
-4.000000e+02 -3.600250e+03 -4.000000e+02
-1.017480e-09 -3.600250e+03 -4.000000e+02
-4.000000e+02 -3.200260e+03 -4.000000e+02
-1.565550e-09 -3.200260e+03 -4.000000e+02
-4.000000e+02 -3.600250e+03 8.335780e-13
-2.339270e-10 -3.600250e+03 -2.104010e-10
-4.000000e+02 -3.200260e+03 2.317530e-10
-3.261850e-10 -3.200260e+03 6.265650e-10
-1.017480e-09 -3.600250e+03 -4.000000e+02
4.000000e+02 -3.600250e+03 -4.000000e+02
-1.565550e-09 -3.200260e+03 -4.000000e+02
4.000000e+02 -3.200260e+03 -4.000000e+02
-2.339270e-10 -3.600250e+03 -2.104010e-10
4.000000e+02 -3.600250e+03 -1.410620e-10
-3.261850e-10 -3.200260e+03 6.265650e-10
4.000000e+02 -3.200260e+03 7.458020e-10
-4.000000e+02 -3.200260e+03 -4.000000e+02
-1.565550e-09 -3.200260e+03 -4.000000e+02
-4.000000e+02 -2.800260e+03 -4.000000e+02
-8.307010e-10 -2.800260e+03 -4.000000e+02
-4.000000e+02 -3.200260e+03 2.317530e-10
-3.261850e-10 -3.200260e+03 6.265650e-10
-4.000000e+02 -2.800260e+03 9.056790e-10
-2.853990e-10 -2.800260e+03 8.007370e-10
-1.565550e-09 -3.200260e+03 -4.000000e+02
4.000000e+02 -3.200260e+03 -4.000000e+02
-8.307010e-10 -2.800260e+03 -4.000000e+02
4.000000e+02 -2.800260e+03 -4.000000e+02
-3.261850e-10 -3.200260e+03 6.265650e-10
4.000000e+02 -3.200260e+03 7.458020e-10
-2.853990e-10 -2.800260e+03 8.007370e-10
4.000000e+02 -2.800260e+03 6.588630e-10
-4.000000e+02 -2.800260e+03 -4.000000e+02
-8.307010e-10 -2.800260e+03 -4.000000e+02
-4.000000e+02 -2.400260e+03 -4.000000e+02
-1.379900e-10 -2.400260e+03 -4.000000e+02
-4.000000e+02 -2.800260e+03 9.056790e-10
-2.853990e-10 -2.800260e+03 8.007370e-10
-4.000000e+02 -2.400260e+03 8.215160e-10
3.209430e-11 -2.400260e+03 1.920410e-10
-8.307010e-10 -2.800260e+03 -4.000000e+02
4.000000e+02 -2.800260e+03 -4.000000e+02
-1.379900e-10 -2.400260e+03 -4.000000e+02
4.000000e+02 -2.400260e+03 -4.000000e+02
-2.853990e-10 -2.800260e+03 8.007370e-10
4.000000e+02 -2.800260e+03 6.588630e-10
3.209430e-11 -2.400260e+03 1.920410e-10
4.000000e+02 -2.400260e+03 2.131050e-10
-4.000000e+02 -2.400260e+03 -4.000000e+02
-1.379900e-10 -2.400260e+03 -4.000000e+02
-4.000000e+02 -2.000270e+03 -4.000000e+02
-1.617310e-10 -2.000270e+03 -4.000000e+02
-4.000000e+02 -2.400260e+03 8.215160e-10
3.209430e-11 -2.400260e+03 1.920410e-10
-4.000000e+02 -2.000270e+03 2.002130e-10
1.317570e-10 -2.000270e+03 -1.662590e-10
-1.379900e-10 -2.400260e+03 -4.000000e+02
4.000000e+02 -2.400260e+03 -4.000000e+02
-1.617310e-10 -2.000270e+03 -4.000000e+02
4.000000e+02 -2.000270e+03 -4.000000e+02
3.209430e-11 -2.400260e+03 1.920410e-10
4.000000e+02 -2.400260e+03 2.131050e-10
1.317570e-10 -2.000270e+03 -1.662590e-10
4.000000e+02 -2.000270e+03 -3.758080e-10
-4.000000e+02 -2.000270e+03 -4.000000e+02
-1.617310e-10 -2.000270e+03 -4.000000e+02
-4.000000e+02 -1.600270e+03 -4.000000e+02
5.291620e-10 -1.600270e+03 -4.000000e+02
-4.000000e+02 -2.000270e+03 2.002130e-10
1.317570e-10 -2.000270e+03 -1.662590e-10
-4.000000e+02 -1.600270e+03 4.687950e-11
2.864430e-10 -1.600270e+03 -2.365900e-10
-1.617310e-10 -2.000270e+03 -4.000000e+02
4.000000e+02 -2.000270e+03 -4.000000e+02
5.291620e-10 -1.600270e+03 -4.000000e+02
4.000000e+02 -1.600270e+03 -4.000000e+02
1.317570e-10 -2.000270e+03 -1.662590e-10
4.000000e+02 -2.000270e+03 -3.758080e-10
2.864430e-10 -1.600270e+03 -2.365900e-10
4.000000e+02 -1.600270e+03 -4.704760e-10
-4.000000e+02 -1.600270e+03 -4.000000e+02
5.291620e-10 -1.600270e+03 -4.000000e+02
-4.000000e+02 -1.200270e+03 -4.000000e+02
4.444950e-10 -1.200270e+03 -4.000000e+02
-4.000000e+02 -1.600270e+03 4.687950e-11
2.864430e-10 -1.600270e+03 -2.365900e-10
-4.000000e+02 -1.200270e+03 -4.653690e-10
4.133190e-10 -1.200270e+03 -3.709100e-10
5.291620e-10 -1.600270e+03 -4.000000e+02
4.000000e+02 -1.600270e+03 -4.000000e+02
4.444950e-10 -1.200270e+03 -4.000000e+02
4.000000e+02 -1.200270e+03 -4.000000e+02
2.864430e-10 -1.600270e+03 -2.365900e-10
4.000000e+02 -1.600270e+03 -4.704760e-10
4.133190e-10 -1.200270e+03 -3.709100e-10
4.000000e+02 -1.200270e+03 -1.303450e-10
-4.000000e+02 -1.200270e+03 -4.000000e+02
4.444950e-10 -1.200270e+03 -4.000000e+02
-4.000000e+02 -8.002690e+02 -4.000000e+02
9.426000e-10 -8.002690e+02 -4.000000e+02
-4.000000e+02 -1.200270e+03 -4.653690e-10
4.133190e-10 -1.200270e+03 -3.709100e-10
-4.000000e+02 -8.002690e+02 9.388710e-11
6.706370e-10 -8.002690e+02 2.485480e-10
4.444950e-10 -1.200270e+03 -4.000000e+02
4.000000e+02 -1.200270e+03 -4.000000e+02
9.426000e-10 -8.002690e+02 -4.000000e+02
4.000000e+02 -8.002690e+02 -4.000000e+02
4.133190e-10 -1.200270e+03 -3.709100e-10
4.000000e+02 -1.200270e+03 -1.303450e-10
6.706370e-10 -8.002690e+02 2.485480e-10
4.000000e+02 -8.002690e+02 4.583360e-10
-4.000000e+02 -8.002690e+02 -4.000000e+02
9.426000e-10 -8.002690e+02 -4.000000e+02
-4.000000e+02 -4.002690e+02 -4.000000e+02
7.972450e-10 -4.002690e+02 -4.000000e+02
-4.000000e+02 -8.002690e+02 9.388710e-11
6.706370e-10 -8.002690e+02 2.485480e-10
-4.000000e+02 -4.002690e+02 1.821510e-10
8.983210e-10 -4.002690e+02 3.498610e-10
9.426000e-10 -8.002690e+02 -4.000000e+02
4.000000e+02 -8.002690e+02 -4.000000e+02
7.972450e-10 -4.002690e+02 -4.000000e+02
4.000000e+02 -4.002690e+02 -4.000000e+02
6.706370e-10 -8.002690e+02 2.485480e-10
4.000000e+02 -8.002690e+02 4.583360e-10
8.983210e-10 -4.002690e+02 3.498610e-10
4.000000e+02 -4.002690e+02 7.036620e-10
-4.000000e+02 -4.002690e+02 -4.000000e+02
7.972450e-10 -4.002690e+02 -4.000000e+02
-4.000000e+02 -2.697270e-01 -4.000000e+02
5.353350e-10 -2.697150e-01 -4.000000e+02
-4.000000e+02 -4.002690e+02 1.821510e-10
8.983210e-10 -4.002690e+02 3.498610e-10
-4.000000e+02 -2.697150e-01 -1.516780e-10
1.504040e-10 -2.697050e-01 -6.098580e-11
7.972450e-10 -4.002690e+02 -4.000000e+02
4.000000e+02 -4.002690e+02 -4.000000e+02
5.353350e-10 -2.697150e-01 -4.000000e+02
[...]
<PointData>
<DataArray type="Float32" Name="V1" format="ascii">
0.000000e+00
0.000000e+00
1.099790e-07
8.569540e-10
0.000000e+00
0.000000e+00
8.672610e-09
-6.010280e-10
0.000000e+00
0.000000e+00
8.569540e-10
-1.082510e-07
0.000000e+00
0.000000e+00
-6.010280e-10
-9.866670e-09
1.099790e-07
8.569540e-10
-3.137240e-06
4.736650e-10
8.672610e-09
-6.010280e-10
-2.979170e-06
1.318200e-11
8.569540e-10
-1.082510e-07
4.736650e-10
3.138090e-06
-6.010280e-10
-9.866670e-09
1.318200e-11
2.978960e-06
-3.137240e-06
4.736650e-10
7.514820e-06
-7.537660e-10
-2.979170e-06
1.318200e-11
7.317390e-06
-2.244480e-10
4.736650e-10
3.138090e-06
-7.537660e-10
-7.515810e-06
1.318200e-11
2.978960e-06
-2.244480e-10
-7.317720e-06
7.514820e-06
-7.537660e-10
-8.296190e-06
-3.715150e-10
7.317390e-06
-2.244480e-10
-8.158600e-06
-4.463070e-10
-7.537660e-10
-7.515810e-06
-3.715150e-10
8.295510e-06
-2.244480e-10
-7.317720e-06
-4.463070e-10
8.158130e-06
-8.296190e-06
-3.715150e-10
7.204400e-07
-3.647940e-11
-8.158600e-06
-4.463070e-10
8.349590e-07
4.543570e-10
-3.715150e-10
8.295510e-06
-3.647940e-11
-7.205340e-07
-4.463070e-10
8.158130e-06
4.543570e-10
-8.343150e-07
7.204400e-07
-3.647940e-11
1.328760e-05
1.037890e-09
8.349590e-07
4.543570e-10
1.270100e-05
-1.913140e-10
-3.647940e-11
-7.205340e-07
1.037890e-09
-1.328680e-05
4.543570e-10
-8.343150e-07
-1.913140e-10
-1.270130e-05
1.328760e-05
1.037890e-09
-2.015460e-05
6.831860e-10
1.270100e-05
-1.913140e-10
-1.905680e-05
-2.692700e-10
1.037890e-09
-1.328680e-05
6.831860e-10
2.015520e-05
-1.913140e-10
-1.270130e-05
-2.692700e-10
1.905590e-05
-2.015460e-05
6.831860e-10
7.309760e-06
-1.292270e-09
-1.905680e-05
-2.692700e-10
6.057510e-06
5.664550e-11
6.831860e-10
2.015520e-05
-1.292270e-09
-7.312430e-06
-2.692700e-10
1.905590e-05
5.664550e-11
-6.058010e-06
7.309760e-06
-1.292270e-09
1.203430e-05
-3.135030e-10
6.057510e-06
5.664550e-11
1.276150e-05
1.275000e-10
-1.292270e-09
-7.312430e-06
-3.135030e-10
-1.203460e-05
5.664550e-11
-6.058010e-06
1.275000e-10
-1.276170e-05
1.203430e-05
-3.135030e-10
-1.144170e-05
-4.700580e-10
1.276150e-05
1.275000e-10
-1.122310e-05
3.125290e-10
-3.135030e-10
-1.203460e-05
-4.700580e-10
1.144130e-05
1.275000e-10
-1.276170e-05
3.125290e-10
1.122410e-05
-1.144170e-05
-4.700580e-10
-4.375490e-06
-3.856180e-10
-1.122310e-05
3.125290e-10
-5.352370e-06
-1.046520e-10
-4.700580e-10
1.144130e-05
-3.856180e-10
4.374390e-06
3.125290e-10
1.122410e-05
-1.046520e-10
5.351900e-06
-4.375490e-06
-3.856180e-10
9.567370e-06
2.411140e-10
-5.352370e-06
-1.046520e-10
1.135420e-05
2.383280e-10
-3.856180e-10
4.374390e-06
2.411140e-10
-9.566210e-06
-1.046520e-10
5.351900e-06
2.383280e-10
-1.135420e-05
9.567370e-06
2.411140e-10
1.149640e-05
-1.355750e-10
1.135420e-05
2.383280e-10
9.053220e-06
-3.589320e-10
2.411140e-10
-9.566210e-06
-1.355750e-10
-1.149730e-05
2.383280e-10
-1.135420e-05
-3.589320e-10
-9.053280e-06
1.149640e-05
-1.355750e-10
-2.914960e-05
-4.904910e-10
9.053220e-06
-3.589320e-10
-2.962210e-05
1.885850e-10
-1.355750e-10
-1.149730e-05
-4.904910e-10
2.914980e-05
-3.589320e-10
-9.053280e-06
1.885850e-10
2.962220e-05
-2.914960e-05
-4.904910e-10
1.515350e-07
1.910450e-10
-2.962210e-05
1.885850e-10
3.661760e-06
3.623880e-10
-4.904910e-10
2.914980e-05
1.910450e-10
-1.508440e-07
1.885850e-10
2.962220e-05
3.623880e-10
-3.661210e-06
1.515350e-07
1.910450e-10
1.615110e-05
-2.061140e-10
3.661760e-06
3.623880e-10
1.474830e-05
1.090850e-10
1.910450e-10
-1.508440e-07
-2.061140e-10
-1.615120e-05
3.623880e-10
-3.661210e-06
1.090850e-10
-1.474790e-05
1.615110e-05
-2.061140e-10
2.595610e-06
2.020100e-10
1.474830e-05
1.090850e-10
4.012610e-06
-1.700850e-10
-2.061140e-10
-1.615120e-05
2.020100e-10
-2.596060e-06
1.090850e-10
-1.474790e-05
-1.700850e-10
-4.012840e-06
2.595610e-06
2.020100e-10
-8.806490e-06
-3.386800e-10
4.012610e-06
-1.700850e-10
-2.901430e-06
-4.651690e-10
2.020100e-10
-2.596060e-06
-3.386800e-10
8.806610e-06
-1.700850e-10
-4.012840e-06
-4.651690e-10
2.902100e-06
-8.806490e-06
-3.386800e-10
9.165680e-06
-5.204040e-10
-2.901430e-06
-4.651690e-10
2.204600e-06
7.028700e-10
-3.386800e-10
8.806610e-06
-5.204040e-10
-9.164410e-06
-4.651690e-10
2.902100e-06
7.028700e-10
-2.205180e-06
9.165680e-06
-5.204040e-10
8.264530e-06
7.493200e-10
2.204600e-06
7.028700e-10
1.058380e-05
3.219910e-10
-5.204040e-10
-9.164410e-06
7.493200e-10
-8.267200e-06
7.028700e-10
-2.205180e-06
3.219910e-10
-1.058360e-05
8.264530e-06
7.493200e-10
2.289440e-06
-1.191870e-09
1.058380e-05
3.219910e-10
2.823600e-06
-7.409870e-10
7.493200e-10
-8.267200e-06
-1.191870e-09
-2.291380e-06
3.219910e-10
-1.058360e-05
-7.409870e-10
-2.824620e-06
2.289440e-06
-1.191870e-09
1.732470e-05
4.911390e-09
2.823600e-06
-7.409870e-10
1.045220e-05
-4.426270e-10
-1.191870e-09
-2.291380e-06
4.911390e-09
-1.733280e-05
-7.409870e-10
-2.824620e-06
-4.426270e-10
-1.044870e-05
1.732470e-05
4.911390e-09
1.581700e-05
6.170380e-09
1.045220e-05
-4.426270e-10
2.044090e-05
1.375550e-09
4.911390e-09
-1.733280e-05
6.170380e-09
-1.582840e-05
-4.426270e-10
-1.044870e-05
1.375550e-09
-2.044300e-05
1.581700e-05
6.170380e-09
-2.194060e-05
-7.139460e-10
2.044090e-05
1.375550e-09
-1.753080e-05
-7.510130e-11
6.170380e-09
-1.582840e-05
-7.139460e-10
2.194020e-05
1.375550e-09
-2.044300e-05
-7.510130e-11
1.753050e-05
-2.194060e-05
-7.139460e-10
-1.340120e-05
-3.771760e-11
-1.753080e-05
-7.510130e-11
-1.732840e-05
4.239800e-10
-7.139460e-10
2.194020e-05
-3.771760e-11
1.340060e-05
-7.510130e-11
1.753050e-05
4.239800e-10
1.732900e-05
-1.340120e-05
-3.771760e-11
-1.961860e-07
-4.494910e-10
-1.732840e-05
4.239800e-10
-1.687530e-06
-3.256550e-10
-3.771760e-11
1.340060e-05
-4.494910e-10
1.952750e-07
4.239800e-10
1.732900e-05
-3.256550e-10
1.686840e-06
-1.961860e-07
-4.494910e-10
2.694070e-06
2.277220e-10
-1.687530e-06
-3.256550e-10
3.179930e-06
2.315260e-10
-4.494910e-10
1.952750e-07
2.277220e-10
-2.693600e-06
-3.256550e-10
1.686840e-06
2.315260e-10
-3.179570e-06
2.694070e-06
2.277220e-10
1.038450e-05
2.444750e-10
3.179930e-06
2.315260e-10
1.122030e-05
2.596850e-10
2.277220e-10
-2.693600e-06
2.444750e-10
-1.038400e-05
2.315260e-10
-3.179570e-06
2.596850e-10
-1.121980e-05
1.038450e-05
2.444750e-10
-3.268700e-06
-3.664280e-13
1.122030e-05
2.596850e-10
-2.589010e-06
-2.805040e-11
2.444750e-10
-1.038400e-05
-3.664280e-13
3.268660e-06
2.596850e-10
-1.121980e-05
-2.805040e-11
2.588950e-06
-3.268700e-06
-3.664280e-13
5.460920e-06
-1.016920e-10
-2.589010e-06
-2.805040e-11
3.667460e-06
-1.527180e-10
-3.664280e-13
3.268660e-06
-1.016920e-10
-5.461090e-06
-2.805040e-11
2.588950e-06
-1.527180e-10
-3.667670e-06
0.000000e+00
0.000000e+00
8.672610e-09
-6.010280e-10
0.000000e+00
0.000000e+00
1.113930e-07
7.403650e-10
0.000000e+00
0.000000e+00
-6.010280e-10
-9.866670e-09
0.000000e+00
0.000000e+00
7.403650e-10
-1.100890e-07
8.672610e-09
-6.010280e-10
-2.979170e-06
1.318200e-11
1.113930e-07
7.403650e-10
-3.138230e-06
2.028140e-10
-6.010280e-10
-9.866670e-09
1.318200e-11
2.978960e-06
7.403650e-10
-1.100890e-07
2.028140e-10
3.138170e-06
-2.979170e-06
1.318200e-11
7.317390e-06
-2.244480e-10
-3.138230e-06
2.028140e-10
7.513500e-06
4.781750e-10
1.318200e-11
2.978960e-06
-2.244480e-10
-7.317720e-06
2.028140e-10
3.138170e-06
4.781750e-10
-7.513180e-06
7.317390e-06
-2.244480e-10
-8.158600e-06
-4.463070e-10
7.513500e-06
4.781750e-10
-8.298090e-06
-4.065080e-10
-2.244480e-10
-7.317720e-06
-4.463070e-10
8.158130e-06
4.781750e-10
-7.513180e-06
-4.065080e-10
8.297380e-06
-8.158600e-06
-4.463070e-10
8.349590e-07
4.543570e-10
-8.298090e-06
-4.065080e-10
7.198430e-07
-1.115420e-10
-4.463070e-10
8.158130e-06
4.543570e-10
-8.343150e-07
-4.065080e-10
8.297380e-06
-1.115420e-10
-7.196700e-07
8.349590e-07
4.543570e-10
1.270100e-05
-1.913140e-10
7.198430e-07
-1.115420e-10
1.328680e-05
3.854600e-10
4.543570e-10
-8.343150e-07
-1.913140e-10
-1.270130e-05
-1.115420e-10
-7.196700e-07
3.854600e-10
-1.328760e-05
1.270100e-05
-1.913140e-10
-1.905680e-05
-2.692700e-10
1.328680e-05
3.854600e-10
-2.015470e-05
4.382450e-10
-1.913140e-10
-1.270130e-05
-2.692700e-10
1.905590e-05
3.854600e-10
-1.328760e-05
4.382450e-10
2.015580e-05
-1.905680e-05
-2.692700e-10
6.057510e-06
5.664550e-11
-2.015470e-05
4.382450e-10
7.312140e-06
3.929970e-10
-2.692700e-10
1.905590e-05
5.664550e-11
-6.058010e-06
4.382450e-10
2.015580e-05
3.929970e-10
-7.312690e-06
6.057510e-06
5.664550e-11
1.276150e-05
1.275000e-10
7.312140e-06
3.929970e-10
1.203480e-05
-1.886840e-11
5.664550e-11
-6.058010e-06
1.275000e-10
-1.276170e-05
3.929970e-10
-7.312690e-06
-1.886840e-11
-1.203560e-05
1.276150e-05
1.275000e-10
-1.122310e-05
3.125290e-10
1.203480e-05
-1.886840e-11
-1.144150e-05
4.179500e-11
1.275000e-10
-1.276170e-05
3.125290e-10
1.122410e-05
-1.886840e-11
-1.203560e-05
4.179500e-11
1.144100e-05
-1.122310e-05
3.125290e-10
-5.352370e-06
-1.046520e-10
-1.144150e-05
4.179500e-11
-4.375330e-06
-4.745210e-10
3.125290e-10
1.122410e-05
-1.046520e-10
5.351900e-06
4.179500e-11
1.144100e-05
-4.745210e-10
4.374390e-06
-5.352370e-06
-1.046520e-10
1.135420e-05
2.383280e-10
-4.375330e-06
-4.745210e-10
9.567430e-06
5.595220e-11
-1.046520e-10
5.351900e-06
2.383280e-10
-1.135420e-05
-4.745210e-10
4.374390e-06
5.595220e-11
-9.567130e-06
1.135420e-05
2.383280e-10
9.053220e-06
-3.589320e-10
9.567430e-06
5.595220e-11
1.149720e-05
-1.339580e-10
2.383280e-10
-1.135420e-05
-3.589320e-10
-9.053280e-06
5.595220e-11
-9.567130e-06
-1.339580e-10
-1.149720e-05
9.053220e-06
-3.589320e-10
-2.962210e-05
1.885850e-10
1.149720e-05
-1.339580e-10
-2.915040e-05
-1.331870e-11
-3.589320e-10
-9.053280e-06
1.885850e-10
2.962220e-05
-1.339580e-10
-1.149720e-05
-1.331870e-11
2.914920e-05
-2.962210e-05
1.885850e-10
3.661760e-06
3.623880e-10
-2.915040e-05
-1.331870e-11
1.510010e-07
1.461520e-10
1.885850e-10
2.962220e-05
3.623880e-10
-3.661210e-06
-1.331870e-11
2.914920e-05
1.461520e-10
-1.507340e-07
3.661760e-06
3.623880e-10
1.474830e-05
1.090850e-10
1.510010e-07
1.461520e-10
1.615080e-05
2.296940e-10
3.623880e-10
-3.661210e-06
1.090850e-10
-1.474790e-05
1.461520e-10
-1.507340e-07
2.296940e-10
-1.615120e-05
1.474830e-05
1.090850e-10
4.012610e-06
-1.700850e-10
1.615080e-05
2.296940e-10
2.595630e-06
-3.977300e-10
1.090850e-10
-1.474790e-05
-1.700850e-10
-4.012840e-06
2.296940e-10
-1.615120e-05
-3.977300e-10
-2.595480e-06
4.012610e-06
-1.700850e-10
-2.901430e-06
-4.651690e-10
2.595630e-06
-3.977300e-10
-8.807120e-06
4.491510e-10
-1.700850e-10
-4.012840e-06
-4.651690e-10
2.902100e-06
-3.977300e-10
-2.595480e-06
4.491510e-10
8.807420e-06
-2.901430e-06
-4.651690e-10
2.204600e-06
7.028700e-10
-8.807120e-06
4.491510e-10
9.166060e-06
-2.809420e-10
-4.651690e-10
2.902100e-06
7.028700e-10
-2.205180e-06
4.491510e-10
8.807420e-06
-2.809420e-10
-9.165660e-06
2.204600e-06
7.028700e-10
1.058380e-05
3.219910e-10
9.166060e-06
-2.809420e-10
8.266130e-06
-1.599600e-09
7.028700e-10
-2.205180e-06
3.219910e-10
-1.058360e-05
-2.809420e-10
-9.165660e-06
-1.599600e-09
-8.265380e-06
1.058380e-05
3.219910e-10
2.823600e-06
-7.409870e-10
8.266130e-06
-1.599600e-09
2.289930e-06
-9.510720e-10
3.219910e-10
-1.058360e-05
-7.409870e-10
-2.824620e-06
-1.599600e-09
-8.265380e-06
-9.510720e-10
-2.291820e-06
2.823600e-06
-7.409870e-10
1.045220e-05
-4.426270e-10
2.289930e-06
-9.510720e-10
1.733820e-05
3.103180e-10
-7.409870e-10
-2.824620e-06
-4.426270e-10
-1.044870e-05
-9.510720e-10
-2.291820e-06
3.103180e-10
-1.733670e-05
1.045220e-05
-4.426270e-10
2.044090e-05
1.375550e-09
1.733820e-05
3.103180e-10
1.582540e-05
2.398020e-09
-4.426270e-10
-1.044870e-05
1.375550e-09
-2.044300e-05
3.103180e-10
-1.733670e-05
2.398020e-09
-1.582960e-05
2.044090e-05
1.375550e-09
-1.753080e-05
-7.510130e-11
1.582540e-05
2.398020e-09
-2.194460e-05
-4.133900e-10
1.375550e-09
-2.044300e-05
-7.510130e-11
1.753050e-05
2.398020e-09
-1.582960e-05
-4.133900e-10
2.194360e-05
-1.753080e-05
-7.510130e-11
-1.732840e-05
4.239800e-10
-2.194460e-05
-4.133900e-10
-1.339910e-05
-2.324180e-10
-7.510130e-11
1.753050e-05
4.239800e-10
1.732900e-05
-4.133900e-10
2.194360e-05
-2.324180e-10
1.339900e-05
-1.732840e-05
4.239800e-10
-1.687530e-06
-3.256550e-10
-1.339910e-05
-2.324180e-10
-1.987160e-07
-3.578700e-10
4.239800e-10
1.732900e-05
-3.256550e-10
1.686840e-06
-2.324180e-10
1.339900e-05
-3.578700e-10
1.980400e-07
-1.687530e-06
-3.256550e-10
3.179930e-06
2.315260e-10
-1.987160e-07
-3.578700e-10
2.694320e-06
1.751530e-10
-3.256550e-10
1.686840e-06
2.315260e-10
-3.179570e-06
-3.578700e-10
1.980400e-07
1.751530e-10
-2.694040e-06
3.179930e-06
2.315260e-10
1.122030e-05
2.596850e-10
2.694320e-06
1.751530e-10
1.038450e-05
2.054540e-10
2.315260e-10
-3.179570e-06
2.596850e-10
-1.121980e-05
1.751530e-10
-2.694040e-06
2.054540e-10
-1.038410e-05
1.122030e-05
2.596850e-10
-2.589010e-06
-2.805040e-11
1.038450e-05
2.054540e-10
-3.268650e-06
-2.368430e-12
2.596850e-10
-1.121980e-05
-2.805040e-11
2.588950e-06
2.054540e-10
-1.038410e-05
-2.368430e-12
3.268630e-06
-2.589010e-06
-2.805040e-11
3.667460e-06
-1.527180e-10
-3.268650e-06
-2.368430e-12
5.460860e-06
-1.211340e-10
-2.805040e-11
2.588950e-06
-1.527180e-10
-3.667670e-06
-2.368430e-12
3.268630e-06
-1.211340e-10
-5.461060e-06
</DataArray>
<DataArray type="Float32" Name="V2" format="ascii">
0.000000e+00
0.000000e+00
-6.021920e-02
-6.021530e-02
0.000000e+00
0.000000e+00
-6.021530e-02
-6.021160e-02
0.000000e+00
0.000000e+00
-6.021530e-02
-6.021920e-02
0.000000e+00
0.000000e+00
-6.021160e-02
-6.021530e-02
-6.021920e-02
-6.021530e-02
-6.104400e-02
-6.104670e-02
-6.021530e-02
-6.021160e-02
-6.104670e-02
-6.104940e-02
-6.021530e-02
-6.021920e-02
-6.104670e-02
-6.104400e-02
-6.021160e-02
-6.021530e-02
-6.104940e-02
-6.104680e-02
-6.104400e-02
-6.104670e-02
-3.832100e-02
-3.832320e-02
-6.104670e-02
-6.104940e-02
-3.832320e-02
-3.832530e-02
-6.104670e-02
-6.104400e-02
-3.832320e-02
-3.832100e-02
-6.104940e-02
-6.104680e-02
-3.832530e-02
-3.832320e-02
-3.832100e-02
-3.832320e-02
-2.945530e-02
-2.944450e-02
-3.832320e-02
-3.832530e-02
-2.944450e-02
-2.943430e-02
-3.832320e-02
-3.832100e-02
-2.944450e-02
-2.945530e-02
-3.832530e-02
-3.832320e-02
-2.943430e-02
-2.944450e-02
-2.945530e-02
-2.944450e-02
-2.216860e-02
-2.217960e-02
-2.944450e-02
-2.943430e-02
-2.217960e-02
-2.218950e-02
-2.944450e-02
-2.945530e-02
-2.217960e-02
-2.216870e-02
-2.943430e-02
-2.944450e-02
-2.218950e-02
-2.217960e-02
-2.216860e-02
-2.217960e-02
-7.855250e-03
-7.860080e-03
-2.217960e-02
-2.218950e-02
-7.860080e-03
-7.866420e-03
-2.217960e-02
-2.216870e-02
-7.860080e-03
-7.855250e-03
-2.218950e-02
-2.217960e-02
-7.866420e-03
-7.860080e-03
-7.855250e-03
-7.860080e-03
-2.723060e-03
-2.700860e-03
-7.860080e-03
-7.866420e-03
-2.700860e-03
-2.677450e-03
-7.860080e-03
-7.855250e-03
-2.700860e-03
-2.723070e-03
-7.866420e-03
-7.860080e-03
-2.677450e-03
-2.700860e-03
-2.723060e-03
-2.700860e-03
-2.312510e-03
-2.334140e-03
-2.700860e-03
-2.677450e-03
-2.334130e-03
-2.355280e-03
-2.700860e-03
-2.723070e-03
-2.334140e-03
-2.312510e-03
-2.677450e-03
-2.700860e-03
-2.355280e-03
-2.334140e-03
-2.312510e-03
-2.334140e-03
-1.371990e-03
-1.368430e-03
-2.334130e-03
-2.355280e-03
-1.368430e-03
-1.368320e-03
-2.334140e-03
-2.312510e-03
-1.368430e-03
-1.371990e-03
-2.355280e-03
-2.334140e-03
-1.368320e-03
-1.368430e-03
-1.371990e-03
-1.368430e-03
-1.076730e-03
-1.048010e-03
-1.368430e-03
-1.368320e-03
-1.048010e-03
-1.013830e-03
-1.368430e-03
-1.371990e-03
-1.048010e-03
-1.076730e-03
-1.368320e-03
-1.368430e-03
-1.013830e-03
-1.048020e-03
-1.076730e-03
-1.048010e-03
-3.355670e-04
-3.720870e-04
-1.048010e-03
-1.013830e-03
-3.720850e-04
-4.110600e-04
-1.048010e-03
-1.076730e-03
-3.720870e-04
-3.355640e-04
-1.013830e-03
-1.048020e-03
-4.110600e-04
-3.720870e-04
-3.355670e-04
-3.720870e-04
-1.184090e-03
-1.192640e-03
-3.720850e-04
-4.110600e-04
-1.192640e-03
-1.206310e-03
-3.720870e-04
-3.355640e-04
-1.192640e-03
-1.184090e-03
-4.110600e-04
-3.720870e-04
-1.206310e-03
-1.192630e-03
-1.184090e-03
-1.192640e-03
-3.859320e-04
-3.945750e-04
-1.192640e-03
-1.206310e-03
-3.945750e-04
-3.966130e-04
-1.192640e-03
-1.184090e-03
-3.945750e-04
-3.859360e-04
-1.206310e-03
-1.192630e-03
-3.966130e-04
-3.945770e-04
-3.859320e-04
-3.945750e-04
-5.479500e-04
-5.132940e-04
-3.945750e-04
-3.966130e-04
-5.132940e-04
-4.783370e-04
-3.945750e-04
-3.859360e-04
-5.132940e-04
-5.479470e-04
-3.966130e-04
-3.945770e-04
-4.783370e-04
-5.132920e-04
-5.479500e-04
-5.132940e-04
-1.406470e-04
-1.399540e-04
-5.132940e-04
-4.783370e-04
-1.399540e-04
-1.392400e-04
-5.132940e-04
-5.479470e-04
-1.399540e-04
-1.406460e-04
-4.783370e-04
-5.132920e-04
-1.392400e-04
-1.399530e-04
-1.406470e-04
-1.399540e-04
-3.138520e-04
-3.118170e-04
-1.399540e-04
-1.392400e-04
-3.118170e-04
-3.060810e-04
-1.399540e-04
-1.406460e-04
-3.118170e-04
-3.138530e-04
-1.392400e-04
-1.399530e-04
-3.060810e-04
-3.118180e-04
-3.138520e-04
-3.118170e-04
-2.669410e-04
-2.280120e-04
-3.118170e-04
-3.060810e-04
-2.280140e-04
-1.923970e-04
-3.118170e-04
-3.138530e-04
-2.280120e-04
-2.669400e-04
-3.060810e-04
-3.118180e-04
-1.923970e-04
-2.280140e-04
-2.669410e-04
-2.280120e-04
-2.457020e-04
-3.091010e-04
-2.280140e-04
-1.923970e-04
-3.090980e-04
-3.682600e-04
-2.280120e-04
-2.669400e-04
-3.091010e-04
-2.457020e-04
-1.923970e-04
-2.280140e-04
-3.682600e-04
-3.090980e-04
-2.457020e-04
-3.091010e-04
-2.286450e-04
-2.245730e-04
-3.090980e-04
-3.682600e-04
-2.245750e-04
-2.330160e-04
-3.091010e-04
-2.457020e-04
-2.245730e-04
-2.286450e-04
-3.682600e-04
-3.090980e-04
-2.330160e-04
-2.245750e-04
-2.286450e-04
-2.245730e-04
-2.231520e-04
-2.174740e-04
-2.245750e-04
-2.330160e-04
-2.174720e-04
-2.227210e-04
-2.245730e-04
-2.286450e-04
-2.174740e-04
-2.231520e-04
-2.330160e-04
-2.245750e-04
-2.227210e-04
-2.174720e-04
-2.231520e-04
-2.174740e-04
-4.764680e-05
-1.250520e-04
-2.174720e-04
-2.227210e-04
-1.250490e-04
-1.715300e-04
-2.174740e-04
-2.231520e-04
-1.250520e-04
-4.764710e-05
-2.227210e-04
-2.174720e-04
-1.715300e-04
-1.250530e-04
-4.764680e-05
-1.250520e-04
-3.017560e-04
-3.060000e-04
-1.250490e-04
-1.715300e-04
-3.060010e-04
-2.619680e-04
-1.250520e-04
-4.764710e-05
-3.060000e-04
-3.017520e-04
-1.715300e-04
-1.250530e-04
-2.619680e-04
-3.059870e-04
-3.017560e-04
-3.060000e-04
-6.681790e-04
-5.244470e-04
-3.060010e-04
-2.619680e-04
-5.244470e-04
-5.444030e-04
-3.060000e-04
-3.017520e-04
-5.244470e-04
-6.681820e-04
-2.619680e-04
-3.059870e-04
-5.444030e-04
-5.244580e-04
-6.681790e-04
-5.244470e-04
-5.366600e-04
-5.554740e-04
-5.244470e-04
-5.444030e-04
-5.554740e-04
-4.263370e-04
-5.244470e-04
-6.681820e-04
-5.554740e-04
-5.366570e-04
-5.444030e-04
-5.244580e-04
-4.263370e-04
-5.554660e-04
-5.366600e-04
-5.554740e-04
-4.941400e-04
-5.514260e-04
-5.554740e-04
-4.263370e-04
-5.514250e-04
-6.068100e-04
-5.554740e-04
-5.366570e-04
-5.514260e-04
-4.941440e-04
-4.263370e-04
-5.554660e-04
-6.068100e-04
-5.514320e-04
-4.941400e-04
-5.514260e-04
-5.324510e-04
-5.317590e-04
-5.514250e-04
-6.068100e-04
-5.317590e-04
-5.501930e-04
-5.514260e-04
-4.941440e-04
-5.317590e-04
-5.324490e-04
-6.068100e-04
-5.514320e-04
-5.501930e-04
-5.317570e-04
-5.324510e-04
-5.317590e-04
-5.435820e-04
-5.862180e-04
-5.317590e-04
-5.501930e-04
-5.862200e-04
-6.538320e-04
-5.317590e-04
-5.324490e-04
-5.862180e-04
-5.435810e-04
-5.501930e-04
-5.317570e-04
-6.538320e-04
-5.862180e-04
-5.435820e-04
-5.862180e-04
-4.077770e-04
-3.755910e-04
-5.862200e-04
-6.538320e-04
-3.755890e-04
-3.376860e-04
-5.862180e-04
-5.435810e-04
-3.755910e-04
-4.077790e-04
-6.538320e-04
-5.862180e-04
-3.376860e-04
-3.755920e-04
-4.077770e-04
-3.755910e-04
-1.649910e-04
-1.560270e-04
-3.755890e-04
-3.376860e-04
-1.560270e-04
-1.559280e-04
-3.755910e-04
-4.077790e-04
-1.560270e-04
-1.649910e-04
-3.376860e-04
-3.755920e-04
-1.559280e-04
-1.560270e-04
-1.649910e-04
-1.560270e-04
2.222140e-04
2.264610e-04
-1.560270e-04
-1.559280e-04
2.264600e-04
2.452400e-04
-1.560270e-04
-1.649910e-04
2.264610e-04
2.222150e-04
-1.559280e-04
-1.560270e-04
2.452400e-04
2.264610e-04
0.000000e+00
0.000000e+00
-6.021530e-02
-6.021160e-02
0.000000e+00
0.000000e+00
-6.021920e-02
-6.021530e-02
0.000000e+00
0.000000e+00
-6.021160e-02
-6.021530e-02
0.000000e+00
0.000000e+00
-6.021530e-02