<?xml version="1.0"?>
<!-- time 74.928-->
<VTKFile type="UnstructuredGrid" version="0.1" byte_order="LittleEndian">
<UnstructuredGrid>
<Piece NumberOfPoints="3240" NumberOfCells="0">
<Points>
  <DataArray type="Float32" Name="Position" NumberOfComponents="3" format="ascii">
	-333.333 2066.29 -333.333
	-333.333 2066.3 -200
	-333.333 2066.27 -66.6667
	-333.333 2066.27 66.6667
	-333.333 2066.3 200
	-333.333 2066.29 333.333
	-200 2066.3 -333.333
	-200 2066.32 -200
	-200 2066.29 -66.6667
	-200 2066.29 66.6667
	-200 2066.32 200
	-200 2066.3 333.333
	-66.6667 2066.27 -333.333
	-66.6667 2066.29 -200
	-66.6667 2066.25 -66.6667
	-66.6667 2066.25 66.6667
	-66.6667 2066.29 200
	-66.6667 2066.27 333.333
	66.6667 2066.27 -333.333
	66.6667 2066.29 -200
	66.6667 2066.25 -66.6667
	66.6667 2066.25 66.6667
	66.6667 2066.29 200
	66.6667 2066.27 333.333
	200 2066.3 -333.333
	200 2066.32 -200
	200 2066.29 -66.6667
	200 2066.29 66.6667
	200 2066.32 200
	200 2066.3 333.333
	333.333 2066.29 -333.333
	333.333 2066.3 -200
	333.333 2066.27 -66.6667
	333.333 2066.27 66.6667
	333.333 2066.3 200
	333.333 2066.29 333.333
	-333.333 2199.64 -333.333
	-333.333 2199.67 -200
	-333.333 2199.66 -66.6667
	-333.333 2199.66 66.6667
	-333.333 2199.67 200
	-333.333 2199.64 333.333
	-200 2199.67 -333.333
	-200 2199.66 -200
	-200 2199.63 -66.6667
	-200 2199.63 66.6667
	-200 2199.66 200
	-200 2199.67 333.333
	-66.6667 2199.66 -333.333
	-66.6667 2199.63 -200
	-66.6667 2199.65 -66.6667
	-66.6667 2199.65 66.6667
	-66.6667 2199.63 200
	-66.6667 2199.66 333.333
	66.6667 2199.66 -333.333
	66.6667 2199.63 -200
	66.6667 2199.65 -66.6667
	66.6667 2199.65 66.6667
	66.6667 2199.63 200
	66.6667 2199.66 333.333
	200 2199.67 -333.333
	200 2199.66 -200
	200 2199.63 -66.6667
	200 2199.63 66.6667
	200 2199.66 200
	200 2199.67 333.333
	333.333 2199.64 -333.333
	333.333 2199.67 -200
	333.333 2199.66 -66.6667
	333.333 2199.66 66.6667
	333.333 2199.67 200
	333.333 2199.64 333.333
	-333.333 2332.99 -333.333
	-333.334 2333.01 -200
	-333.333 2333 -66.6667
	-333.333 2333 66.6667
	-333.334 2333.01 200
	-333.333 2332.99 333.333
	-200 2333.01 -333.334
	-200 2333 -200
	-200 2332.99 -66.6667
	-200 2332.99 66.6667
	-200 2333 200
	-200 2333.01 333.334
	-66.6667 2333 -333.333
	-66.6667 2332.99 -200
	-66.6667 2332.99 -66.6667
	-66.6667 2332.99 66.6667
	-66.6667 2332.99 200
	-66.6667 2333 333.333
	66.6667 2333 -333.333
	66.6667 2332.99 -200
	66.6667 2332.99 -66.6667
	66.6667 2332.99 66.6667
	66.6667 2332.99 200
	66.6667 2333 333.333
	200 2333.01 -333.334
	200 2333 -200
	200 2332.99 -66.6667
	200 2332.99 66.6667
	200 2333 200
	200 2333.01 333.334
	333.333 2332.99 -333.333
	333.334 2333.01 -200
	333.333 2333 -66.6667
	333.333 2333 66.6667
	333.334 2333.01 200
	333.333 2332.99 333.333
	-333.333 2466.33 -333.333
	-333.334 2466.34 -200
	-333.333 2466.34 -66.6667
	-333.333 2466.34 66.6667
	-333.334 2466.34 200
	-333.333 2466.33 333.333
	-200 2466.34 -333.334
	-200 2466.34 -200
	-200 2466.33 -66.6667
	-200 2466.33 66.6667
	-200 2466.34 200
	-200 2466.34 333.334
	-66.6667 2466.34 -333.333
	-66.6667 2466.33 -200
	-66.6667 2466.32 -66.6667
	-66.6667 2466.32 66.6667
	-66.6667 2466.33 200
	-66.6667 2466.34 333.333
	66.6667 2466.34 -333.333
	66.6667 2466.33 -200
	66.6667 2466.32 -66.6667
	66.6667 2466.32 66.6667
	66.6667 2466.33 200
	66.6667 2466.34 333.333
	200 2466.34 -333.334
	200 2466.34 -200
	200 2466.33 -66.6667
	200 2466.33 66.6667
	200 2466.34 200
	200 2466.34 333.334
	333.333 2466.33 -333.333
	333.334 2466.34 -200
	333.333 2466.34 -66.6667
	333.333 2466.34 66.6667
	333.334 2466.34 200
	333.333 2466.33 333.333
	-333.333 2599.68 -333.333
	-333.333 2599.67 -200
	-333.333 2599.67 -66.6667
	-333.333 2599.67 66.6667
	-333.333 2599.67 200
	-333.333 2599.68 333.333
	-200 2599.67 -333.333
	-200 2599.67 -200
	-200 2599.66 -66.6667
	-200 2599.66 66.6667
	-200 2599.67 200
	-200 2599.67 333.333
	-66.6667 2599.67 -333.333
	-66.6667 2599.66 -200
	-66.6667 2599.66 -66.6667
	-66.6667 2599.66 66.6667
	-66.6667 2599.66 200
	-66.6667 2599.67 333.333
	66.6667 2599.67 -333.333
	66.6667 2599.66 -200
	66.6667 2599.66 -66.6667
	66.6667 2599.66 66.6667
	66.6667 2599.66 200
	66.6667 2599.67 333.333
	200 2599.67 -333.333
	200 2599.67 -200
	200 2599.66 -66.6667
	200 2599.66 66.6667
	200 2599.67 200
	200 2599.67 333.333
	333.333 2599.68 -333.333
	333.333 2599.67 -200
	333.333 2599.67 -66.6667
	333.333 2599.67 66.6667
	333.333 2599.67 200
	333.333 2599.68 333.333
	-333.334 2733.01 -333.334
	-333.333 2733.01 -200
	-333.333 2733 -66.6667
	-333.333 2733 66.6667
	-333.333 2733.01 200
	-333.334 2733.01 333.334
	-200 2733.01 -333.333
	-200 2733 -200
	-200 2733.01 -66.6667
	-200 2733.01 66.6667
	-200 2733 200
	-200 2733.01 333.333
	-66.6667 2733 -333.333
	-66.6667 2733.01 -200
	-66.6667 2732.99 -66.6667
	-66.6667 2732.99 66.6667
	-66.6667 2733.01 200
	-66.6667 2733 333.333
	66.6667 2733 -333.333
	66.6667 2733.01 -200
	66.6667 2732.99 -66.6667
	66.6667 2732.99 66.6667
	66.6667 2733.01 200
	66.6667 2733 333.333
	200 2733.01 -333.333
	200 2733 -200
	200 2733.01 -66.6667
	200 2733.01 66.6667
	200 2733 200
	200 2733.01 333.333
	333.334 2733.01 -333.334
	333.333 2733.01 -200
	333.333 2733 -66.6667
	333.333 2733 66.6667
	333.333 2733.01 200
	333.334 2733.01 333.334
	-333.333 2866.35 -333.333
	-333.333 2866.34 -200
	-333.333 2866.33 -66.6667
	-333.333 2866.33 66.6667
	-333.333 2866.34 200
	-333.333 2866.35 333.333
	-200 2866.34 -333.333
	-200 2866.34 -200
	-200 2866.34 -66.6667
	-200 2866.34 66.6667
	-200 2866.34 200
	-200 2866.34 333.333
	-66.6667 2866.33 -333.333
	-66.6667 2866.34 -200
	-66.6667 2866.33 -66.6667
	-66.6667 2866.33 66.6667
	-66.6667 2866.34 200
	-66.6667 2866.33 333.333
	66.6667 2866.33 -333.333
	66.6667 2866.34 -200
	66.6667 2866.33 -66.6667
	66.6667 2866.33 66.6667
	66.6667 2866.34 200
	66.6667 2866.33 333.333
	200 2866.34 -333.333
	200 2866.34 -200
	200 2866.34 -66.6667
	200 2866.34 66.6667
	200 2866.34 200
	200 2866.34 333.333
	333.333 2866.35 -333.333
	333.333 2866.34 -200
	333.333 2866.33 -66.6667
	333.333 2866.33 66.6667
	333.333 2866.34 200
	333.333 2866.35 333.333
	-333.333 2999.68 -333.333
	-333.333 2999.68 -200
	-333.333 2999.67 -66.6667
	-333.333 2999.67 66.6667
	-333.333 2999.68 200
	-333.333 2999.68 333.333
	-200 2999.68 -333.333
	-200 2999.67 -200
	-200 2999.67 -66.6667
	-200 2999.67 66.6667
	-200 2999.67 200
	-200 2999.68 333.333
	-66.6667 2999.67 -333.333
	-66.6667 2999.67 -200
	-66.6667 2999.66 -66.6667
	-66.6667 2999.66 66.6667
	-66.6667 2999.67 200
	-66.6667 2999.67 333.333
	66.6667 2999.67 -333.333
	66.6667 2999.67 -200
	66.6667 2999.66 -66.6667
	66.6667 2999.66 66.6667
	66.6667 2999.67 200
	66.6667 2999.67 333.333
	200 2999.68 -333.333
	200 2999.67 -200
	200 2999.67 -66.6667
	200 2999.67 66.6667
	200 2999.67 200
	200 2999.68 333.333
	333.333 2999.68 -333.333
	333.333 2999.68 -200
	333.333 2999.67 -66.6667
	333.333 2999.67 66.6667
	333.333 2999.68 200
	333.333 2999.68 333.333
	-333.333 3133.01 -333.333
	-333.333 3133.01 -200
	-333.333 3133 -66.6667
	-333.333 3133 66.6667
	-333.333 3133.01 200
	-333.333 3133.01 333.333
	-200 3133.01 -333.333
	-200 3133 -200
	-200 3133 -66.6667
	-200 3133 66.6667
	-200 3133 200
	-200 3133.01 333.333
	-66.6667 3133 -333.333
	-66.6667 3133 -200
	-66.6667 3133 -66.6667
	-66.6667 3133 66.6667
	-66.6667 3133 200
	-66.6667 3133 333.333
	66.6667 3133 -333.333
	66.6667 3133 -200
	66.6667 3133 -66.6667
	66.6667 3133 66.6667
	66.6667 3133 200
	66.6667 3133 333.333
	200 3133.01 -333.333
	200 3133 -200
	200 3133 -66.6667
	200 3133 66.6667
	200 3133 200
	200 3133.01 333.333
	333.333 3133.01 -333.333
	333.333 3133.01 -200
	333.333 3133 -66.6667
	333.333 3133 66.6667
	333.333 3133.01 200
	333.333 3133.01 333.333
	-333.333 3266.34 -333.333
	-333.333 3266.34 -200
	-333.333 3266.34 -66.6667
	-333.333 3266.34 66.6667
	-333.333 3266.34 200
	-333.333 3266.34 333.333
	-200 3266.34 -333.333
	-200 3266.33 -200
	-200 3266.34 -66.6667
	-200 3266.34 66.6667
	-200 3266.33 200
	-200 3266.34 333.333
	-66.6667 3266.34 -333.333
	-66.6667 3266.34 -200
	-66.6667 3266.33 -66.6667
	-66.6667 3266.33 66.6667
	-66.6667 3266.34 200
	-66.6667 3266.34 333.333
	66.6667 3266.34 -333.333
	66.6667 3266.34 -200
	66.6667 3266.33 -66.6667
	66.6667 3266.33 66.6667
	66.6667 3266.34 200
	66.6667 3266.34 333.333
	200 3266.34 -333.333
	200 3266.33 -200
	200 3266.34 -66.6667
	200 3266.34 66.6667
	200 3266.33 200
	200 3266.34 333.333
	333.333 3266.34 -333.333
	333.333 3266.34 -200
	333.333 3266.34 -66.6667
	333.333 3266.34 66.6667
	333.333 3266.34 200
	333.333 3266.34 333.333
	-333.333 3399.68 -333.333
	-333.333 3399.67 -200
	-333.333 3399.67 -66.6667
	-333.333 3399.67 66.6667
	-333.333 3399.67 200
	-333.333 3399.68 333.333
	-200 3399.67 -333.333
	-200 3399.67 -200
	-200 3399.67 -66.6667
	-200 3399.67 66.6667
	-200 3399.67 200
	-200 3399.67 333.333
	-66.6667 3399.67 -333.333
	-66.6667 3399.67 -200
	-66.6667 3399.67 -66.6667
	-66.6667 3399.67 66.6667
	-66.6667 3399.67 200
	-66.6667 3399.67 333.333
	66.6667 3399.67 -333.333
	66.6667 3399.67 -200
	66.6667 3399.67 -66.6667
	66.6667 3399.67 66.6667
	66.6667 3399.67 200
	66.6667 3399.67 333.333
	200 3399.67 -333.333
	200 3399.67 -200
	200 3399.67 -66.6667
	200 3399.67 66.6667
	200 3399.67 200
	200 3399.67 333.333
	333.333 3399.68 -333.333
	333.333 3399.67 -200
	333.333 3399.67 -66.6667
	333.333 3399.67 66.6667
	333.333 3399.67 200
	333.333 3399.68 333.333
	-333.333 3533.01 -333.333
	-333.333 3533.01 -200
	-333.333 3533.01 -66.6667
	-333.333 3533.01 66.6667
	-333.333 3533.01 200
	-333.333 3533.01 333.333
	-200 3533.01 -333.333
	-200 3533 -200
	-200 3533 -66.6667
	-200 3533 66.6667
	-200 3533 200
	-200 3533.01 333.333
	-66.6667 3533.01 -333.333
	-66.6667 3533 -200
	-66.6667 3533 -66.6667
	-66.6667 3533 66.6667
	-66.6667 3533 200
	-66.6667 3533.01 333.333
	66.6667 3533.01 -333.333
	66.6667 3533 -200
	66.6667 3533 -66.6667
	66.6667 3533 66.6667
	66.6667 3533 200
	66.6667 3533.01 333.333
	200 3533.01 -333.333
	200 3533 -200
	200 3533 -66.6667
	200 3533 66.6667
	200 3533 200
[...]
<PointData  Vectors="vector">
  <DataArray type="Float32" Name="Velocity" NumberOfComponents="3" format="ascii">
 7.14768e-06 -0.00450065 7.0969e-06
 -2.23615e-05 0.000910989 -3.44178e-06
 4.16048e-07 0.000118816 5.45227e-07
 4.01482e-07 0.000118816 -5.66963e-07
 -2.22677e-05 0.000910988 3.42378e-06
 7.16798e-06 -0.00450063 -7.05857e-06
 -3.60233e-06 0.000910987 -2.21215e-05
 1.45826e-05 -0.00115354 1.44773e-05
 -1.08502e-05 0.00109469 -2.28726e-05
 -1.08465e-05 0.00109469 2.28241e-05
 1.44739e-05 -0.00115352 -1.43458e-05
 -3.6129e-06 0.000910998 2.20371e-05
 8.02728e-07 0.000118813 4.15926e-07
 -2.27484e-05 0.00109469 -1.10254e-05
 2.9331e-06 0.000794807 3.03949e-06
 2.93947e-06 0.000794812 -2.97269e-06
 -2.28323e-05 0.0010947 1.09038e-05
 8.02089e-07 0.000118832 -3.63509e-07
 -7.97829e-07 0.000118816 4.52838e-07
 2.27697e-05 0.0010947 -1.09669e-05
 -3.32627e-06 0.000794817 3.10312e-06
 -3.32864e-06 0.000794819 -3.12726e-06
 2.28861e-05 0.00109471 1.09382e-05
 -6.6978e-07 0.00011883 -4.01882e-07
 3.60572e-06 0.000910994 -2.23395e-05
 -1.45794e-05 -0.00115351 1.45893e-05
 1.12869e-05 0.00109472 -2.28643e-05
 1.1291e-05 0.00109472 2.282e-05
 -1.46215e-05 -0.00115351 -1.45822e-05
 3.54938e-06 0.000910996 2.23777e-05
 -7.1647e-06 -0.00450061 7.14388e-06
 2.23341e-05 0.00091101 -3.61037e-06
 -4.56623e-07 0.000118847 7.96116e-07
 -4.53693e-07 0.000118844 -8.10686e-07
 2.23628e-05 0.000911003 3.5949e-06
 -7.23553e-06 -0.00450063 -7.11089e-06
 -9.23431e-06 0.00106528 -9.31651e-06
 9.3441e-06 0.00104266 -1.20574e-05
 8.77032e-06 -0.000168922 -2.44915e-05
 8.75416e-06 -0.000168957 2.45923e-05
 9.34748e-06 0.00104272 1.19508e-05
 -9.24704e-06 0.00106525 9.31906e-06
 -1.20212e-05 0.00104269 9.33364e-06
 -1.54813e-05 0.00128174 -1.52268e-05
 -2.791e-05 -0.00215312 -1.76895e-06
 -2.78753e-05 -0.00215312 1.43336e-06
 -1.5209e-05 0.00128165 1.54856e-05
 -1.19059e-05 0.00104271 -9.25592e-06
 -2.46501e-05 -0.000168943 8.71413e-06
 -1.34581e-06 -0.00215312 -2.77416e-05
 7.34836e-06 -0.000240204 7.1223e-06
 7.33529e-06 -0.000240225 -7.30556e-06
 -1.75441e-06 -0.00215313 2.78814e-05
 -2.4712e-05 -0.000168973 -8.6676e-06
 2.46321e-05 -0.000168907 8.72928e-06
 1.44945e-06 -0.00215311 -2.78131e-05
 -7.26431e-06 -0.00024024 7.23238e-06
 -7.38597e-06 -0.00024026 -7.27877e-06
 2.19454e-06 -0.00215312 2.78188e-05
 2.46758e-05 -0.000168959 -8.68541e-06
 1.20553e-05 0.00104272 9.37815e-06
 1.5424e-05 0.00128139 -1.52823e-05
 2.78492e-05 -0.0021531 -1.85763e-06
 2.79883e-05 -0.00215311 2.22194e-06
 1.4844e-05 0.0012817 1.48455e-05
 1.19705e-05 0.00104272 -9.3034e-06
 9.21237e-06 0.00106525 -9.30076e-06
 -9.39232e-06 0.00104278 -1.20747e-05
 -8.79226e-06 -0.000169005 -2.46127e-05
 -8.81664e-06 -0.000169008 2.45888e-05
 -9.42361e-06 0.00104277 1.21e-05
 9.22071e-06 0.00106526 9.29912e-06
 8.31157e-06 -0.00599077 8.28018e-06
 -2.45036e-05 -0.0031874 -2.4301e-05
 -1.53813e-05 -0.00157255 -1.32647e-05
 -1.51792e-05 -0.0015724 1.32483e-05
 -2.45892e-05 -0.0031875 2.43534e-05
 8.25387e-06 -0.00599075 -8.32258e-06
 -2.43241e-05 -0.00318745 -2.44832e-05
 9.82185e-06 0.000912393 9.90839e-06
 1.65388e-05 -0.0015774 1.7661e-05
 1.65483e-05 -0.00157741 -1.73252e-05
 9.9519e-06 0.000912454 -1.07717e-05
 -2.42968e-05 -0.00318746 2.50105e-05
 -1.33089e-05 -0.0015726 -1.51638e-05
 1.75529e-05 -0.0015774 1.66104e-05
 -1.75821e-05 -0.00395757 -1.77602e-05
 -1.73899e-05 -0.00395758 1.7451e-05
 1.76159e-05 -0.0015774 -1.61954e-05
 -1.31003e-05 -0.00157289 1.50631e-05
 1.34006e-05 -0.00157246 -1.52674e-05
 -1.76439e-05 -0.00157739 1.65894e-05
 1.75383e-05 -0.00395754 -1.76788e-05
 1.7425e-05 -0.00395753 1.73725e-05
 -1.75254e-05 -0.00157739 -1.61586e-05
 1.33517e-05 -0.00157257 1.51477e-05
 2.42953e-05 -0.00318751 -2.44758e-05
 -9.95044e-06 0.000912686 9.92016e-06
 -1.61783e-05 -0.00157743 1.76903e-05
 -1.67977e-05 -0.00157743 -1.73232e-05
 -1.00199e-05 0.000912428 -1.07773e-05
 2.41114e-05 -0.00318751 2.49665e-05
 -8.37363e-06 -0.00599077 8.31529e-06
 2.47246e-05 -0.00318763 -2.42702e-05
 1.50658e-05 -0.00157259 -1.33671e-05
 1.53927e-05 -0.0015726 1.33426e-05
 2.45679e-05 -0.00318764 2.43235e-05
 -8.31211e-06 -0.00599075 -8.34888e-06
 6.92432e-06 0.000426932 6.90546e-06
 1.74209e-06 0.000410458 8.92411e-06
 5.80259e-06 0.00128668 2.76072e-05
 5.87751e-06 0.00128662 -2.74288e-05
 1.81947e-06 0.000410519 -8.9894e-06
 6.80493e-06 0.000426948 -7.02613e-06
 9.12276e-06 0.000410511 1.74235e-06
 -3.46782e-06 -0.00378082 -3.40229e-06
 7.12114e-06 -0.00341085 1.73785e-05
 7.05076e-06 -0.00341086 -1.73122e-05
 -3.47822e-06 -0.00378083 3.394e-06
 9.98653e-06 0.000410508 -1.80234e-06
 2.72555e-05 0.00128672 5.7869e-06
 1.73298e-05 -0.00341085 7.27584e-06
 -2.86934e-05 -0.00126969 -2.90179e-05
 -2.89578e-05 -0.00126963 2.89309e-05
 1.75693e-05 -0.00341085 -7.1791e-06
 2.67216e-05 0.0012869 -5.79346e-06
 -2.74317e-05 0.00128662 5.82595e-06
 -1.73829e-05 -0.00341083 7.2254e-06
 2.87064e-05 -0.00126967 -2.90316e-05
 2.89798e-05 -0.00126962 2.89626e-05
 -1.73064e-05 -0.00341082 -7.16758e-06
 -2.78571e-05 0.00128672 -5.81147e-06
 -8.96467e-06 0.000410514 1.76217e-06
 3.41294e-06 -0.00378087 -3.39935e-06
 -7.50779e-06 -0.00341085 1.73927e-05
 -7.73868e-06 -0.00341084 -1.72972e-05
 3.30819e-06 -0.0037809 3.36912e-06
 -1.14347e-05 0.000410535 -1.82878e-06
 -6.89941e-06 0.000426928 7.05221e-06
 -1.62935e-06 0.000410547 8.90191e-06
 -5.42567e-06 0.00128679 2.75413e-05
 -5.21087e-06 0.00128679 -2.74455e-05
 -1.90797e-06 0.000410566 -8.99269e-06
 -4.21183e-06 0.000426938 -7.06355e-06
 -1.00062e-05 -4.46292e-05 -1.03023e-05
 -3.13228e-06 -0.000594295 3.3111e-05
 -1.52338e-05 -0.00338695 8.9487e-06
 -1.51672e-05 -0.00338689 -8.95953e-06
 -3.2372e-06 -0.000594172 -3.31157e-05
 -9.78262e-06 -4.46946e-05 1.0313e-05
 3.27222e-05 -0.000594082 -3.32951e-06
 1.22237e-05 0.00171638 1.22218e-05
 -7.61144e-06 0.000647281 -3.7659e-06
 -7.6699e-06 0.000647273 3.87777e-06
 1.22637e-05 0.00171643 -1.21769e-05
 3.28432e-05 -0.000594112 3.17154e-06
 1.0833e-05 -0.00338678 -1.49403e-05
 -3.73549e-06 0.000647269 -7.9723e-06
 2.58798e-05 0.00165804 2.62213e-05
 2.58986e-05 0.00165804 -2.62626e-05
 -3.82381e-06 0.00064725 7.98616e-06
 9.73647e-06 -0.00338675 1.49703e-05
 -1.0854e-05 -0.00338681 -1.49219e-05
 3.69419e-06 0.000647238 -7.96677e-06
 -2.59153e-05 0.00165802 2.62305e-05
 -2.61005e-05 0.001658 -2.63736e-05
 3.87037e-06 0.000647243 8.09166e-06
 -9.68813e-06 -0.00338694 1.49426e-05
 -3.27283e-05 -0.000594362 -3.29167e-06
 -1.224e-05 0.00171638 1.22342e-05
 7.60897e-06 0.000647215 -3.87728e-06
 7.85093e-06 0.000647226 3.88879e-06
 -1.2334e-05 0.00171638 -1.22302e-05
 -3.31526e-05 -0.000594105 3.27479e-06
 1.00393e-05 -4.47596e-05 -1.04974e-05
 3.19258e-06 -0.000594166 3.33237e-05
 1.52707e-05 -0.00338646 8.0181e-06
 1.51849e-05 -0.00338656 -8.01941e-06
 3.25902e-06 -0.000594024 -3.3307e-05
 1.00471e-05 -4.47611e-05 1.04765e-05
 -1.11524e-05 -0.000612352 -1.10686e-05
 5.06091e-06 0.000177698 -2.62854e-05
 -3.26975e-09 -0.00257456 -8.98162e-06
 -5.88679e-08 -0.00257454 8.98516e-06
 4.95775e-06 0.000177595 2.61703e-05
 -1.09239e-05 -0.000612327 1.11771e-05
 -2.64094e-05 0.000177463 5.24627e-06
 1.89808e-05 0.000331908 1.87321e-05
 1.55347e-05 0.00106209 -2.47233e-06
 1.56949e-05 0.0010621 2.49292e-06
 1.93038e-05 0.000331921 -1.93478e-05
 -2.63851e-05 0.000177521 -4.65108e-06
 -4.00031e-06 -0.0025746 4.65551e-07
 -2.43418e-06 0.0010621 1.52301e-05
 -1.17174e-05 -0.0046863 -1.18055e-05
 -1.17123e-05 -0.00468622 1.1781e-05
 -2.47288e-06 0.00106212 -1.50142e-05
 -4.01214e-06 -0.00257448 -6.54016e-07
 3.97555e-06 -0.00257474 5.65302e-07
 2.30047e-06 0.00106213 1.5195e-05
 1.16748e-05 -0.00468633 -1.17992e-05
 1.1662e-05 -0.00468634 1.17756e-05
 2.38748e-06 0.00106209 -1.50763e-05
 4.046e-06 -0.00257446 -6.57626e-07
 2.64186e-05 0.000177811 5.29579e-06
 -1.81026e-05 0.000332017 1.89113e-05
 -1.48361e-05 0.00106212 -2.53094e-06
 -1.46744e-05 0.00106209 2.54552e-06
 -1.83369e-05 0.000331894 -1.94781e-05
 2.64143e-05 0.000177473 -4.74477e-06
 1.1171e-05 -0.000612356 -1.10417e-05
 -5.80436e-06 0.000177566 -2.63107e-05
 -6.54801e-07 -0.00257464 -9.39692e-06
 -9.15884e-07 -0.00257457 9.39909e-06
 -5.84312e-06 0.000177411 2.63241e-05
 1.0859e-05 -0.000612285 1.1021e-05
 -2.20458e-05 -0.00272748 -2.21702e-05
 -2.0938e-05 0.000835076 -2.19907e-06
 -1.78997e-05 0.000390781 1.26066e-06
 -1.78289e-05 0.000391248 -3.06391e-06
 -2.08013e-05 0.000835142 4.33343e-06
 -2.24362e-05 -0.00272739 2.18365e-05
 -2.69846e-06 0.000835083 -2.07718e-05
 -1.52016e-05 -0.00154999 -1.53926e-05
 6.52032e-06 0.000678367 1.95563e-05
 6.55864e-06 0.000678386 -1.98809e-05
 -1.5426e-05 -0.00155005 1.56058e-05
 -5.80202e-07 0.000835094 2.08831e-05
 2.20807e-06 0.000391175 -1.80097e-05
 1.95651e-05 0.000678342 6.76713e-06
 -1.42178e-05 -0.000838021 -1.50716e-05
 -1.47102e-05 -0.000838121 1.50796e-05
 1.9681e-05 0.000678292 -6.69265e-06
 -4.64562e-07 0.000390876 1.79299e-05
 -2.30166e-06 0.000391329 -1.80733e-05
 -1.95103e-05 0.000678213 6.77777e-06
 1.42342e-05 -0.000837999 -1.56168e-05
 1.4712e-05 -0.000838001 1.56262e-05
 -1.97289e-05 0.00067825 -6.76196e-06
 3.8253e-07 0.000391139 1.80505e-05
 2.74577e-06 0.000835137 -2.07703e-05
 1.51092e-05 -0.00155049 -1.57575e-05
 -6.73747e-06 0.000678162 1.96861e-05
 -6.85239e-06 0.000678207 -1.98063e-05
 1.54318e-05 -0.00155005 1.58476e-05
 6.67844e-07 0.000835109 2.07991e-05
 2.20957e-05 -0.0027273 -2.24159e-05
 2.09785e-05 0.000835184 -2.30219e-06
 1.81015e-05 0.000392432 1.50517e-06
 1.81206e-05 0.000392238 -1.6283e-06
 2.08429e-05 0.000835175 2.43459e-06
 2.24318e-05 -0.00272742 2.24017e-05
 -1.30145e-05 -0.00171379 -1.29235e-05
 1.21498e-05 0.000329683 1.02598e-05
 1.58889e-05 -2.55793e-05 3.50463e-06
 1.58921e-05 -2.57599e-05 -3.51336e-06
 1.22213e-05 0.000329491 -1.03922e-05
 -1.29501e-05 -0.00171391 1.30635e-05
 1.05741e-05 0.000329663 1.21953e-05
 8.62527e-06 -0.00386224 1.05329e-05
 6.96734e-06 -0.00140524 1.18874e-05
 6.89462e-06 -0.00140526 -1.15852e-05
 8.43204e-06 -0.00386219 -1.08339e-05
 1.04749e-05 0.000329612 -1.21965e-05
 3.44248e-06 -2.58659e-05 1.58936e-05
 1.36019e-05 -0.00140524 6.85736e-06
 -3.27892e-06 0.000113593 -3.25696e-06
 -3.2223e-06 0.000113597 3.33005e-06
 1.39721e-05 -0.00140523 -6.87901e-06
 3.43469e-06 -2.5869e-05 -1.59435e-05
 -3.50862e-06 -2.58548e-05 1.59237e-05
 -1.37695e-05 -0.00140523 6.87549e-06
 3.19446e-06 0.000113581 -3.24512e-06
 3.24746e-06 0.000113587 3.31277e-06
 -1.43433e-05 -0.0014052 -6.8886e-06
 -3.41329e-06 -2.57917e-05 -1.59766e-05
 -1.02857e-05 0.000329485 1.22642e-05
 -8.45808e-06 -0.00386208 9.40042e-06
 -6.93292e-06 -0.00140524 1.31253e-05
 -6.93791e-06 -0.00140523 -1.30089e-05
 -8.05647e-06 -0.00386209 -9.51857e-06
 -1.03996e-05 0.00032955 -1.22625e-05
 1.27943e-05 -0.00171401 -1.29664e-05
 -1.21475e-05 0.000329372 1.0421e-05
 -1.5838e-05 -2.65498e-05 3.38464e-06
 -1.5874e-05 -2.6454e-05 -3.41214e-06
 -1.22252e-05 0.000329415 -1.04998e-05
 1.28547e-05 -0.00171388 1.30707e-05
 2.42069e-05 -0.00212377 2.42365e-05
 6.30988e-06 -0.000802996 9.68338e-06
 8.78059e-06 0.000410108 -4.17821e-06
 8.72243e-06 0.000409989 4.18518e-06
 6.30815e-06 -0.000802977 -9.68434e-06
 2.42805e-05 -0.00212372 -2.42429e-05
 9.6706e-06 -0.000802965 6.28056e-06
 1.87272e-05 0.00071121 1.87833e-05
 1.73817e-05 -0.00115759 -7.45023e-06
 1.74426e-05 -0.00115759 7.47103e-06
 1.88204e-05 0.000711116 -1.87514e-05
 9.73293e-06 -0.0008031 -6.33324e-06
 -4.21082e-06 0.000410027 8.78757e-06
 -7.51952e-06 -0.00115758 1.73742e-05
 -7.75671e-07 -0.00182779 -7.27704e-07
 -7.2628e-07 -0.0018278 7.35081e-07
 -7.46129e-06 -0.00115757 -1.73664e-05
 -4.2219e-06 0.000410093 -8.80196e-06
 4.20694e-06 0.000409996 8.8082e-06
 7.52744e-06 -0.00115752 1.73837e-05
 7.46385e-07 -0.00182779 -7.30595e-07
 7.28896e-07 -0.00182779 7.323e-07
 7.45744e-06 -0.00115757 -1.73733e-05
 4.21153e-06 0.000409997 -8.81919e-06
 -9.6647e-06 -0.00080301 6.39106e-06
 -1.8737e-05 0.00071117 1.87725e-05
 -1.74393e-05 -0.0011575 -7.44641e-06
 -1.74437e-05 -0.00115753 7.44396e-06
 -1.88236e-05 0.000710836 -1.87699e-05
 -9.73057e-06 -0.000802951 -6.39041e-06
 -2.42089e-05 -0.00212374 2.4298e-05
 -6.3083e-06 -0.00080282 9.73389e-06
 -8.69454e-06 0.000409719 -4.17802e-06
 -8.72507e-06 0.000409752 4.17876e-06
 -6.30117e-06 -0.000802832 -9.73527e-06
 -2.42712e-05 -0.00212382 -2.42972e-05
 -3.57018e-06 -0.00135164 -3.6805e-06
 8.91299e-06 -0.00214338 9.90056e-06
 1.57477e-05 -0.00206668 1.38297e-05
 1.5751e-05 -0.0020667 -1.38253e-05
 8.94223e-06 -0.00214305 -9.88387e-06
 -3.55173e-06 -0.00135174 3.65825e-06
 9.65257e-06 -0.00214335 9.18925e-06
 1.95675e-05 0.00192124 1.92855e-05
 -4.65852e-07 -0.00099733 -9.32962e-07
 -4.63647e-07 -0.000997332 9.44517e-07
 1.95495e-05 0.00192127 -1.93222e-05
 9.65974e-06 -0.00214308 -9.16425e-06
 1.39519e-05 -0.00206666 1.57487e-05
 -1.00911e-06 -0.00099732 -3.92261e-07
 6.43213e-07 -0.000122095 5.49543e-07
 6.39516e-07 -0.000122104 -6.03568e-07
 -1.00718e-06 -0.000997295 4.42374e-07
 1.39587e-05 -0.00206668 -1.57437e-05
 -1.4005e-05 -0.00206665 1.57508e-05
 1.01383e-06 -0.000997185 -3.98305e-07
 -6.44667e-07 -0.000122133 5.58148e-07
 -6.5183e-07 -0.000122139 -6.0701e-07
 1.01541e-06 -0.000997245 4.43615e-07
 -1.40009e-05 -0.00206667 -1.57458e-05
 -9.60676e-06 -0.00214308 9.16607e-06
 -1.95758e-05 0.00192124 1.93345e-05
 4.66825e-07 -0.000997098 -9.32814e-07
 4.72979e-07 -0.000997142 9.36134e-07
 -1.95865e-05 0.00192138 -1.9338e-05
 -9.72086e-06 -0.00214314 -9.16504e-06
 3.57636e-06 -0.0013517 -3.78351e-06
 -8.91047e-06 -0.002143 9.88843e-06
 -1.57484e-05 -0.00206676 1.39597e-05
 -1.57494e-05 -0.00206673 -1.39275e-05
 -8.91398e-06 -0.00214302 -9.79943e-06
 3.65516e-06 -0.00135161 3.66216e-06
 1.16582e-05 -0.000688532 1.16653e-05
 5.358e-06 0.000464957 -2.08211e-06
 5.52192e-06 -9.61445e-05 7.14629e-06
 5.51947e-06 -9.60219e-05 -7.20987e-06
 5.3502e-06 0.000464858 2.13039e-06
 1.16624e-05 -0.000688411 -1.16507e-05
 -2.11568e-06 0.000464923 5.34882e-06
 -1.4741e-05 -0.00183432 -1.46975e-05
 3.38909e-06 0.000945751 2.12252e-06
 3.39603e-06 0.000945771 -2.14217e-06
 -1.46274e-05 -0.00183437 1.47165e-05
 -2.08874e-06 0.000464897 -5.34778e-06
 7.1688e-06 -9.61129e-05 5.51426e-06
 2.2022e-06 0.000945776 3.37349e-06
 -5.87812e-06 0.000779011 -5.86152e-06
 -5.89053e-06 0.000779035 5.86105e-06
 2.10874e-06 0.000945826 -3.37343e-06
 7.12563e-06 -9.61778e-05 -5.51226e-06
 -7.14998e-06 -9.60985e-05 5.51337e-06
 -2.16164e-06 0.000945615 3.41023e-06
 5.88752e-06 0.000779156 -5.90195e-06
 5.92188e-06 0.000779143 5.87068e-06
 -2.17382e-06 0.000945753 -3.37881e-06
 -7.19602e-06 -9.61015e-05 -5.5115e-06
 2.09472e-06 0.000464872 5.34645e-06
 1.46981e-05 -0.00183434 -1.46884e-05
 -3.40014e-06 0.000945558 2.13362e-06
 -3.42906e-06 0.000945636 -2.10204e-06
 1.46905e-05 -0.00183436 1.46569e-05
 2.14269e-06 0.00046487 -5.34526e-06
 -1.16593e-05 -0.00068846 1.16473e-05
 -5.35884e-06 0.000464792 -2.12982e-06
 -5.52326e-06 -9.58356e-05 7.18048e-06
 -5.52078e-06 -9.58826e-05 -7.14672e-06
 -5.35084e-06 0.0004648 2.09529e-06
 -1.16481e-05 -0.00068846 -1.16464e-05
 2.2814e-06 0.00128027 2.27289e-06
 9.61333e-07 -0.000897772 1.43387e-05
 8.46807e-06 -0.00193869 -8.70566e-06
 8.46573e-06 -0.00193906 8.70476e-06
 9.52855e-07 -0.000897738 -1.43391e-05
 2.26774e-06 0.00128007 -2.27098e-06
 1.43521e-05 -0.000897669 9.57628e-07
 -5.60199e-06 -0.000886585 -5.60402e-06
 7.48443e-06 0.00140611 1.4762e-05
 7.48225e-06 0.0014061 -1.47616e-05
 -5.60578e-06 -0.000886363 5.60346e-06
 1.4339e-05 -0.000897768 -9.56185e-07
 -8.70159e-06 -0.00193876 8.46943e-06
 1.47688e-05 0.00140609 7.48977e-06
 -9.9171e-06 0.00192422 -9.90113e-06
 -9.90094e-06 0.0019242 9.90058e-06
 1.47611e-05 0.00140607 -7.49e-06
 -8.71017e-06 -0.00193858 -8.46663e-06
 8.69818e-06 -0.00193875 8.46214e-06
 -1.47703e-05 0.0014061 7.48306e-06
 9.92544e-06 0.0019241 -9.89636e-06
 9.90897e-06 0.00192409 9.9076e-06
 -1.47619e-05 0.00140609 -7.48804e-06
 8.70679e-06 -0.00193869 -8.46613e-06
 -1.43525e-05 -0.000897656 9.5156e-07
 5.60014e-06 -0.000885965 -5.60405e-06
 -7.49092e-06 0.00140609 1.47592e-05
 -7.48848e-06 0.00140609 -1.4758e-05
 5.60379e-06 -0.000886324 5.60501e-06
 -1.43397e-05 -0.000897734 -9.52041e-07
 -2.28254e-06 0.00128015 2.26703e-06
 -9.62677e-07 -0.000897654 1.43368e-05
 -8.4745e-06 -0.00193921 -8.70517e-06
 -8.47209e-06 -0.00193912 8.70378e-06
 -9.54545e-07 -0.000897657 -1.4335e-05
 -2.26803e-06 0.00128014 -2.26662e-06
 -3.83502e-06 0.000393419 -3.85015e-06
 -2.84034e-06 -0.00165713 -4.16455e-06
 -5.56611e-06 -0.00104022 5.22585e-06
 -5.56813e-06 -0.00103991 -5.21905e-06
 -2.84877e-06 -0.00165733 4.15964e-06
 -3.85856e-06 0.000393702 3.84933e-06
 -4.14905e-06 -0.00165724 -2.84484e-06
 4.8774e-06 -0.000671673 4.91677e-06
 -3.55257e-06 -0.000165284 -4.94132e-06
 -3.55518e-06 -0.000165307 4.94638e-06
 4.94403e-06 -0.000671817 -4.92126e-06
 -4.12314e-06 -0.00165725 2.84583e-06
 5.20821e-06 -0.00104016 -5.56514e-06
 -4.89117e-06 -0.000165303 -3.5564e-06
 -2.51757e-06 0.000738809 -2.43132e-06
 -2.45843e-06 0.000738795 2.43098e-06
 -4.97733e-06 -0.00016534 3.55553e-06
 5.18723e-06 -0.00104034 5.56848e-06
 -5.21866e-06 -0.00104008 -5.56484e-06
 4.8829e-06 -0.000165291 -3.55848e-06
 2.51614e-06 0.000738794 -2.41835e-06
 2.45732e-06 0.000738799 2.417e-06
 4.96495e-06 -0.000165334 3.55679e-06
 -5.21256e-06 -0.00104015 5.57011e-06
 4.15529e-06 -0.00165735 -2.84792e-06
 -4.87301e-06 -0.00067211 4.94766e-06
 3.55065e-06 -0.000165324 -4.98272e-06
 3.55376e-06 -0.000165342 4.97002e-06
 -4.93456e-06 -0.000671845 -4.93495e-06
 4.14515e-06 -0.00165734 2.84949e-06
 3.83457e-06 0.000393542 -3.85778e-06
 2.83977e-06 -0.00165753 -4.11727e-06
 5.56526e-06 -0.00103973 5.18141e-06
 5.56647e-06 -0.00103982 -5.21766e-06
 2.84736e-06 -0.00165751 4.15191e-06
 3.85745e-06 0.000393451 3.86023e-06
 -4.21108e-06 -0.000471731 -4.23726e-06
 -8.60125e-06 0.00057313 -7.30415e-07
 -9.06864e-06 0.000562685 -1.09292e-06
 -9.0779e-06 0.000562632 1.10051e-06
 -8.62725e-06 0.000573129 7.35377e-07
 -4.26493e-06 -0.00047186 4.22628e-06
 -7.21628e-07 0.000573194 -8.61677e-06
 -6.0221e-06 0.0012678 -6.01884e-06
 -6.50894e-06 -6.89273e-05 8.43128e-06
 -6.51154e-06 -6.89682e-05 -8.38788e-06
 -5.99258e-06 0.00126782 5.98076e-06
 -7.53633e-07 0.000573147 8.61314e-06
 -1.10761e-06 0.000562674 -9.07438e-06
 8.44016e-06 -6.89561e-05 -6.50938e-06
 5.81654e-06 -0.00169546 5.81236e-06
 5.80902e-06 -0.00169544 -5.81046e-06
 8.38968e-06 -6.89792e-05 6.51123e-06
 -1.09363e-06 0.000562775 9.07243e-06
 1.11153e-06 0.000562582 -9.07917e-06
 -8.42375e-06 -6.89353e-05 -6.51079e-06
 -5.81592e-06 -0.00169543 5.80863e-06
 -5.80945e-06 -0.00169543 -5.80699e-06
 -8.39023e-06 -6.89693e-05 6.51219e-06
 1.09184e-06 0.000562633 9.0779e-06
 7.17932e-07 0.000573138 -8.62669e-06
 6.00392e-06 0.00126783 -5.99314e-06
 6.50889e-06 -6.8968e-05 8.39086e-06
 6.51085e-06 -6.89865e-05 -8.38064e-06
 5.99133e-06 0.00126782 5.98398e-06
 7.50101e-07 0.000573167 8.62694e-06
 4.20838e-06 -0.000471812 -4.26305e-06
 8.60061e-06 0.000573154 -7.54089e-07
 9.06569e-06 0.000562551 -1.09453e-06
 9.07658e-06 0.000562574 1.09405e-06
 8.62643e-06 0.000573168 7.51362e-07
 4.26747e-06 -0.000471769 4.26709e-06
 -1.14616e-05 -0.00108862 -1.1341e-05
 -9.63341e-06 -0.000812802 -6.19271e-06
 -7.46632e-06 0.000667803 -1.43182e-06
 -7.47942e-06 0.000667742 1.37616e-06
 -9.73844e-06 -0.000812825 6.22032e-06
 -1.13107e-05 -0.0010887 1.13711e-05
 -6.3067e-06 -0.000812835 -9.69916e-06
 -6.54427e-06 -0.00040348 -6.58056e-06
 -4.43449e-06 -0.000576448 1.31249e-06
 -4.40947e-06 -0.000576392 -1.26866e-06
 -6.5923e-06 -0.00040369 6.55904e-06
 -6.01105e-06 -0.00081282 9.67851e-06
 -1.40593e-06 0.000667777 -7.47206e-06
 1.25137e-06 -0.000576417 -4.40709e-06
 -4.39131e-07 -4.9179e-05 -4.76907e-07
 -4.79337e-07 -4.91721e-05 4.62254e-07
 1.31272e-06 -0.000576379 4.42208e-06
 -1.43999e-06 0.000667822 7.47307e-06
 1.40512e-06 0.000667766 -7.47922e-06
 -1.24048e-06 -0.000576433 -4.40106e-06
 4.40116e-07 -4.91754e-05 -4.90486e-07
 4.84227e-07 -4.9164e-05 4.88763e-07