<?xml version="1.0"?>
<!-- time 84.2137-->
<VTKFile type="UnstructuredGrid" version="0.1" byte_order="LittleEndian">
<UnstructuredGrid>
<Piece NumberOfPoints="960" NumberOfCells="0">
<Points>
  <DataArray type="Float32" Name="Position" NumberOfComponents="3" format="ascii">
	-300 2099.64 -300
	-300 2099.62 -100
	-300 2099.62 100
	-300 2099.64 300
	-100 2099.62 -300
	-100 2099.6 -100
	-100 2099.6 100
	-100 2099.62 300
	100 2099.62 -300
	100 2099.6 -100
	100 2099.6 100
	100 2099.62 300
	300 2099.64 -300
	300 2099.62 -100
	300 2099.62 100
	300 2099.64 300
	-300 2299.66 -300
	-300 2299.66 -100
	-300 2299.66 100
	-300 2299.66 300
	-100 2299.66 -300
	-100 2299.65 -100
	-100 2299.65 100
	-100 2299.66 300
	100 2299.66 -300
	100 2299.65 -100
	100 2299.65 100
	100 2299.66 300
	300 2299.66 -300
	300 2299.66 -100
	300 2299.66 100
	300 2299.66 300
	-300 2499.66 -300
	-300 2499.66 -100
	-300 2499.66 100
	-300 2499.66 300
	-100 2499.66 -300
	-100 2499.66 -100
	-100 2499.66 100
	-100 2499.66 300
	100 2499.66 -300
	100 2499.66 -100
	100 2499.66 100
	100 2499.66 300
	300 2499.66 -300
	300 2499.66 -100
	300 2499.66 100
	300 2499.66 300
	-300 2699.67 -300
	-300 2699.67 -100
	-300 2699.67 100
	-300 2699.67 300
	-100 2699.67 -300
	-100 2699.66 -100
	-100 2699.66 100
	-100 2699.67 300
	100 2699.67 -300
	100 2699.66 -100
	100 2699.66 100
	100 2699.67 300
	300 2699.67 -300
	300 2699.67 -100
	300 2699.67 100
	300 2699.67 300
	-300 2899.67 -300
	-300 2899.67 -100
	-300 2899.67 100
	-300 2899.67 300
	-100 2899.67 -300
	-100 2899.66 -100
	-100 2899.66 100
	-100 2899.67 300
	100 2899.67 -300
	100 2899.66 -100
	100 2899.66 100
	100 2899.67 300
	300 2899.67 -300
	300 2899.67 -100
	300 2899.67 100
	300 2899.67 300
	-300 3099.67 -300
	-300 3099.67 -100
	-300 3099.67 100
	-300 3099.67 300
	-100 3099.67 -300
	-100 3099.66 -100
	-100 3099.66 100
	-100 3099.67 300
	100 3099.67 -300
	100 3099.66 -100
	100 3099.66 100
	100 3099.67 300
	300 3099.67 -300
	300 3099.67 -100
	300 3099.67 100
	300 3099.67 300
	-300 3299.67 -300
	-300 3299.67 -100
	-300 3299.67 100
	-300 3299.67 300
	-100 3299.67 -300
	-100 3299.66 -100
	-100 3299.66 100
	-100 3299.67 300
	100 3299.67 -300
	100 3299.66 -100
	100 3299.66 100
	100 3299.67 300
	300 3299.67 -300
	300 3299.67 -100
	300 3299.67 100
	300 3299.67 300
	-300 3499.67 -300
	-300 3499.67 -100
	-300 3499.67 100
	-300 3499.67 300
	-100 3499.67 -300
	-100 3499.66 -100
	-100 3499.66 100
	-100 3499.67 300
	100 3499.67 -300
	100 3499.66 -100
	100 3499.66 100
	100 3499.67 300
	300 3499.67 -300
	300 3499.67 -100
	300 3499.67 100
	300 3499.67 300
	-300 3699.67 -300
	-300 3699.67 -100
	-300 3699.67 100
	-300 3699.67 300
	-100 3699.67 -300
	-100 3699.66 -100
	-100 3699.66 100
	-100 3699.67 300
	100 3699.67 -300
	100 3699.66 -100
	100 3699.66 100
	100 3699.67 300
	300 3699.67 -300
	300 3699.67 -100
	300 3699.67 100
	300 3699.67 300
	-300 3899.67 -300
	-300 3899.67 -100
	-300 3899.67 100
	-300 3899.67 300
	-100 3899.67 -300
	-100 3899.66 -100
	-100 3899.66 100
	-100 3899.67 300
	100 3899.67 -300
	100 3899.66 -100
	100 3899.66 100
	100 3899.67 300
	300 3899.67 -300
	300 3899.67 -100
	300 3899.67 100
	300 3899.67 300
	-300 4099.67 -300
	-300 4099.67 -100
	-300 4099.67 100
	-300 4099.67 300
	-100 4099.67 -300
	-100 4099.66 -100
	-100 4099.66 100
	-100 4099.67 300
	100 4099.67 -300
	100 4099.66 -100
	100 4099.66 100
	100 4099.67 300
	300 4099.67 -300
	300 4099.67 -100
	300 4099.67 100
	300 4099.67 300
	-300 4299.67 -300
	-300 4299.67 -100
	-300 4299.67 100
	-300 4299.67 300
	-100 4299.67 -300
	-100 4299.66 -100
	-100 4299.66 100
	-100 4299.67 300
	100 4299.67 -300
	100 4299.66 -100
	100 4299.66 100
	100 4299.67 300
	300 4299.67 -300
	300 4299.67 -100
	300 4299.67 100
	300 4299.67 300
	-300 4499.67 -300
	-300 4499.67 -100
	-300 4499.67 100
	-300 4499.67 300
	-100 4499.67 -300
	-100 4499.66 -100
	-100 4499.66 100
	-100 4499.67 300
	100 4499.67 -300
	100 4499.66 -100
	100 4499.66 100
	100 4499.67 300
	300 4499.67 -300
	300 4499.67 -100
	300 4499.67 100
	300 4499.67 300
	-300 4699.68 -300
	-300 4699.67 -100
	-300 4699.67 100
	-300 4699.68 300
	-100 4699.67 -300
	-100 4699.67 -100
	-100 4699.67 100
	-100 4699.67 300
	100 4699.67 -300
	100 4699.67 -100
	100 4699.67 100
	100 4699.67 300
	300 4699.68 -300
	300 4699.67 -100
	300 4699.67 100
	300 4699.68 300
	-300 4899.68 -300
	-300 4899.67 -100
	-300 4899.67 100
	-300 4899.68 300
	-100 4899.67 -300
	-100 4899.67 -100
	-100 4899.67 100
	-100 4899.67 300
	100 4899.67 -300
	100 4899.67 -100
	100 4899.67 100
	100 4899.67 300
	300 4899.68 -300
	300 4899.67 -100
	300 4899.67 100
	300 4899.68 300
	-300 5099.68 -300
	-300 5099.67 -100
	-300 5099.67 100
	-300 5099.68 300
	-100 5099.67 -300
	-100 5099.67 -100
	-100 5099.67 100
	-100 5099.67 300
	100 5099.67 -300
	100 5099.67 -100
	100 5099.67 100
	100 5099.67 300
	300 5099.68 -300
	300 5099.67 -100
	300 5099.67 100
	300 5099.68 300
	-300 5299.68 -300
	-300 5299.68 -100
	-300 5299.68 100
	-300 5299.68 300
	-100 5299.68 -300
	-100 5299.67 -100
	-100 5299.67 100
	-100 5299.68 300
	100 5299.68 -300
	100 5299.67 -100
	100 5299.67 100
	100 5299.68 300
	300 5299.68 -300
	300 5299.68 -100
	300 5299.68 100
	300 5299.68 300
	-300 5499.68 -300
	-300 5499.68 -100
	-300 5499.68 100
	-300 5499.68 300
	-100 5499.68 -300
	-100 5499.68 -100
	-100 5499.68 100
	-100 5499.68 300
	100 5499.68 -300
	100 5499.68 -100
	100 5499.68 100
	100 5499.68 300
	300 5499.68 -300
	300 5499.68 -100
	300 5499.68 100
	300 5499.68 300
	-300 5699.69 -300
	-300 5699.68 -100
	-300 5699.68 100
	-300 5699.69 300
	-100 5699.68 -300
	-100 5699.68 -100
	-100 5699.68 100
	-100 5699.68 300
	100 5699.68 -300
	100 5699.68 -100
	100 5699.68 100
	100 5699.68 300
	300 5699.69 -300
	300 5699.68 -100
	300 5699.68 100
	300 5699.69 300
	-300 5899.7 -300
	-300 5899.68 -100
	-300 5899.68 100
	-300 5899.7 300
	-100 5899.68 -300
	-100 5899.68 -100
	-100 5899.68 100
	-100 5899.68 300
	100 5899.68 -300
	100 5899.68 -100
	100 5899.68 100
	100 5899.68 300
	300 5899.7 -300
	300 5899.68 -100
	300 5899.68 100
	300 5899.7 300
	-300 6099.72 -300
	-300 6099.7 -100
	-300 6099.7 100
	-300 6099.72 300
	-100 6099.7 -300
	-100 6099.69 -100
	-100 6099.69 100
	-100 6099.7 300
	100 6099.7 -300
	100 6099.69 -100
	100 6099.69 100
	100 6099.7 300
	300 6099.72 -300
	300 6099.7 -100
	300 6099.7 100
	300 6099.72 300
	-300 6299.72 -300
	-300 6299.72 -100
	-300 6299.72 100
	-300 6299.72 300
	-100 6299.72 -300
	-100 6299.72 -100
	-100 6299.72 100
	-100 6299.72 300
	100 6299.72 -300
	100 6299.72 -100
	100 6299.72 100
	100 6299.72 300
	300 6299.72 -300
	300 6299.72 -100
	300 6299.72 100
	300 6299.72 300
	-300 6499.75 -300
	-300 6499.74 -100
	-300 6499.74 100
	-300 6499.75 300
	-100 6499.74 -300
	-100 6499.74 -100
	-100 6499.74 100
	-100 6499.74 300
	100 6499.74 -300
	100 6499.74 -100
	100 6499.74 100
	100 6499.74 300
	300 6499.75 -300
	300 6499.74 -100
	300 6499.74 100
	300 6499.75 300
	-300 6699.84 -300
	-300 6699.84 -100
	-300 6699.84 100
	-300 6699.84 300
	-100 6699.84 -300
	-100 6699.84 -100
	-100 6699.84 100
	-100 6699.84 300
	100 6699.84 -300
	100 6699.84 -100
	100 6699.84 100
	100 6699.84 300
	300 6699.84 -300
	300 6699.84 -100
	300 6699.84 100
	300 6699.84 300
	-300 6899.84 -300
	-300 6899.84 -100
	-300 6899.84 100
	-300 6899.84 300
	-100 6899.84 -300
	-100 6899.84 -100
	-100 6899.84 100
	-100 6899.84 300
	100 6899.84 -300
	100 6899.84 -100
	100 6899.84 100
	100 6899.84 300
	300 6899.84 -300
	300 6899.84 -100
	300 6899.84 100
	300 6899.84 300
	-300 7099.84 -300
	-300 7099.84 -100
	-300 7099.84 100
	-300 7099.84 300
	-100 7099.84 -300
	-100 7099.84 -100
	-100 7099.84 100
	-100 7099.84 300
	100 7099.84 -300
	100 7099.84 -100
	100 7099.84 100
	100 7099.84 300
	300 7099.84 -300
	300 7099.84 -100
	300 7099.84 100
	300 7099.84 300
	-300 7299.84 -300
	-300 7299.84 -100
	-300 7299.84 100
	-300 7299.84 300
	-100 7299.84 -300
	-100 7299.84 -100
	-100 7299.84 100
	-100 7299.84 300
	100 7299.84 -300
	100 7299.84 -100
	100 7299.84 100
	100 7299.84 300
	300 7299.84 -300
	300 7299.84 -100
	300 7299.84 100
	300 7299.84 300
	-300 7499.84 -300
	-300 7499.84 -100
	-300 7499.84 100
	-300 7499.84 300
	-100 7499.84 -300
	-100 7499.84 -100
	-100 7499.84 100
	-100 7499.84 300
	100 7499.84 -300
	100 7499.84 -100
	100 7499.84 100
	100 7499.84 300
	300 7499.84 -300
	300 7499.84 -100
	300 7499.84 100
	300 7499.84 300
	-300 7699.85 -300
	-300 7699.85 -100
	-300 7699.85 100
	-300 7699.85 300
	-100 7699.85 -300
	-100 7699.85 -100
	-100 7699.85 100
	-100 7699.85 300
	100 7699.85 -300
	100 7699.85 -100
	100 7699.85 100
	100 7699.85 300
	300 7699.85 -300
	300 7699.85 -100
	300 7699.85 100
	300 7699.85 300
	-300 7899.85 -300
	-300 7899.85 -100
	-300 7899.85 100
	-300 7899.85 300
	-100 7899.85 -300
	-100 7899.85 -100
	-100 7899.85 100
	-100 7899.85 300
	100 7899.85 -300
	100 7899.85 -100
	100 7899.85 100
	100 7899.85 300
	300 7899.85 -300
	300 7899.85 -100
	300 7899.85 100
	300 7899.85 300
	-300 8099.85 -300
	-300 8099.85 -100
	-300 8099.85 100
	-300 8099.85 300
	-100 8099.85 -300
	-100 8099.85 -100
	-100 8099.85 100
	-100 8099.85 300
	100 8099.85 -300
	100 8099.85 -100
	100 8099.85 100
	100 8099.85 300
	300 8099.85 -300
	300 8099.85 -100
	300 8099.85 100
	300 8099.85 300
	-300 8299.86 -300
	-300 8299.86 -100
	-300 8299.86 100
	-300 8299.86 300
	-100 8299.86 -300
	-100 8299.86 -100
	-100 8299.86 100
	-100 8299.86 300
	100 8299.86 -300
	100 8299.86 -100
	100 8299.86 100
	100 8299.86 300
	300 8299.86 -300
	300 8299.86 -100
	300 8299.86 100
	300 8299.86 300
	-300 8499.87 -300
	-300 8499.87 -100
	-300 8499.87 100
	-300 8499.87 300
	-100 8499.87 -300
	-100 8499.87 -100
	-100 8499.87 100
	-100 8499.87 300
	100 8499.87 -300
	100 8499.87 -100
	100 8499.87 100
	100 8499.87 300
	300 8499.87 -300
	300 8499.87 -100
	300 8499.87 100
	300 8499.87 300
	-300 8699.87 -300
	-300 8699.87 -100
	-300 8699.87 100
	-300 8699.87 300
	-100 8699.87 -300
	-100 8699.87 -100
	-100 8699.87 100
	-100 8699.87 300
	100 8699.87 -300
	100 8699.87 -100
	100 8699.87 100
	100 8699.87 300
	300 8699.87 -300
	300 8699.87 -100
	300 8699.87 100
	300 8699.87 300
	-300 8899.88 -300
	-300 8899.88 -100
	-300 8899.88 100
	-300 8899.88 300
	-100 8899.88 -300
	-100 8899.88 -100
	-100 8899.88 100
	-100 8899.88 300
	100 8899.88 -300
	100 8899.88 -100
	100 8899.88 100
	100 8899.88 300
	300 8899.88 -300
	300 8899.88 -100
	300 8899.88 100
	300 8899.88 300
	-300 9099.89 -300
	-300 9099.89 -100
	-300 9099.89 100
	-300 9099.89 300
	-100 9099.89 -300
	-100 9099.89 -100
	-100 9099.89 100
	-100 9099.89 300
	100 9099.89 -300
	100 9099.89 -100
	100 9099.89 100
	100 9099.89 300
	300 9099.89 -300
	300 9099.89 -100
	300 9099.89 100
	300 9099.89 300
	-300 9299.89 -300
	-300 9299.89 -100
	-300 9299.89 100
	-300 9299.89 300
	-100 9299.89 -300
	-100 9299.89 -100
	-100 9299.89 100
	-100 9299.89 300
	100 9299.89 -300
	100 9299.89 -100
	100 9299.89 100
	100 9299.89 300
	300 9299.89 -300
	300 9299.89 -100
	300 9299.89 100
	300 9299.89 300
	-300 9499.9 -300
	-300 9499.9 -100
	-300 9499.9 100
	-300 9499.9 300
	-100 9499.9 -300
	-100 9499.9 -100
	-100 9499.9 100
	-100 9499.9 300
	100 9499.9 -300
	100 9499.9 -100
	100 9499.9 100
	100 9499.9 300
	300 9499.9 -300
	300 9499.9 -100
	300 9499.9 100
	300 9499.9 300
	-300 9699.91 -300
	-300 9699.91 -100
	-300 9699.91 100
	-300 9699.91 300
	-100 9699.91 -300
	-100 9699.91 -100
	-100 9699.91 100
	-100 9699.91 300
	100 9699.91 -300
	100 9699.91 -100
	100 9699.91 100
	100 9699.91 300
	300 9699.91 -300
	300 9699.91 -100
	300 9699.91 100
	300 9699.91 300
	-300 9899.92 -300
	-300 9899.92 -100
	-300 9899.92 100
	-300 9899.92 300
	-100 9899.92 -300
	-100 9899.92 -100
	-100 9899.92 100
	-100 9899.92 300
	100 9899.92 -300
	100 9899.92 -100
	100 9899.92 100
	100 9899.92 300
	300 9899.92 -300
	300 9899.92 -100
	300 9899.92 100
	300 9899.92 300
	-300 10099.9 -300
	-300 10099.9 -100
	-300 10099.9 100
	-300 10099.9 300
	-100 10099.9 -300
	-100 10099.9 -100
	-100 10099.9 100
	-100 10099.9 300
	100 10099.9 -300
	100 10099.9 -100
	100 10099.9 100
	100 10099.9 300
	300 10099.9 -300
	300 10099.9 -100
	300 10099.9 100
	300 10099.9 300
	-300 10299.9 -300
	-300 10299.9 -100
	-300 10299.9 100
	-300 10299.9 300
	-100 10299.9 -300
	-100 10299.9 -100
	-100 10299.9 100
	-100 10299.9 300
	100 10299.9 -300
	100 10299.9 -100
	100 10299.9 100
	100 10299.9 300
	300 10299.9 -300
	300 10299.9 -100
	300 10299.9 100
	300 10299.9 300
	-300 10500 -300
	-300 10500 -100
	-300 10500 100
	-300 10500 300
	-100 10500 -300
	-100 10500 -100
	-100 10500 100
	-100 10500 300
	100 10500 -300
	100 10500 -100
	100 10500 100
	100 10500 300
	300 10500 -300
	300 10500 -100
	300 10500 100
	300 10500 300
	-300 10700 -300
	-300 10700 -100
	-300 10700 100
	-300 10700 300
	-100 10700 -300
	-100 10700 -100
	-100 10700 100
	-100 10700 300
	100 10700 -300
	100 10700 -100
	100 10700 100
	100 10700 300
	300 10700 -300
	300 10700 -100
	300 10700 100
	300 10700 300
	-300 10900 -300
	-300 10900 -100
	-300 10900 100
	-300 10900 300
	-100 10900 -300
	-100 10900 -100
	-100 10900 100
	-100 10900 300
	100 10900 -300
	100 10900 -100
	100 10900 100
	100 10900 300
	300 10900 -300
	300 10900 -100
	300 10900 100
	300 10900 300
	-300 11100 -300
	-300 11100 -100
	-300 11100 100
	-300 11100 300
	-100 11100 -300
	-100 11100 -100
	-100 11100 100
	-100 11100 300
	100 11100 -300
	100 11100 -100
	100 11100 100
	100 11100 300
	300 11100 -300
	300 11100 -100
	300 11100 100
	300 11100 300
	-300 11300 -300
	-300 11300 -100
	-300 11300 100
	-300 11300 300
	-100 11300 -300
	-100 11300 -100
	-100 11300 100
	-100 11300 300
	100 11300 -300
	100 11300 -100
	100 11300 100
	100 11300 300
	300 11300 -300
	300 11300 -100
	300 11300 100
	300 11300 300
	-300 11500 -300
	-300 11500 -100
	-300 11500 100
	-300 11500 300
	-100 11500 -300
	-100 11500 -100
	-100 11500 100
	-100 11500 300
	100 11500 -300
	100 11500 -100
	100 11500 100
	100 11500 300
	300 11500 -300
	300 11500 -100
	300 11500 100
	300 11500 300
	-300 11700.1 -300
	-300 11700.1 -100
	-300 11700.1 100
	-300 11700.1 300
	-100 11700.1 -300
	-100 11700.1 -100
	-100 11700.1 100
	-100 11700.1 300
	100 11700.1 -300
	100 11700.1 -100
	100 11700.1 100
	100 11700.1 300
	300 11700.1 -300
	300 11700.1 -100
	300 11700.1 100
	300 11700.1 300
	-300 11900.1 -300
	-300 11900.1 -100
	-300 11900.1 100
	-300 11900.1 300
	-100 11900.1 -300
	-100 11900.1 -100
	-100 11900.1 100
	-100 11900.1 300
	100 11900.1 -300
	100 11900.1 -100
	100 11900.1 100
	100 11900.1 300
	300 11900.1 -300
	300 11900.1 -100
	300 11900.1 100
	300 11900.1 300
	-300 12100.1 -300
	-300 12100.1 -100
	-300 12100.1 100
	-300 12100.1 300
	-100 12100.1 -300
	-100 12100.1 -100
	-100 12100.1 100
	-100 12100.1 300
	100 12100.1 -300
	100 12100.1 -100
	100 12100.1 100
	100 12100.1 300
	300 12100.1 -300
	300 12100.1 -100
	300 12100.1 100
	300 12100.1 300
	-300 12300.1 -300
	-300 12300.1 -100
	-300 12300.1 100
	-300 12300.1 300
	-100 12300.1 -300
	-100 12300.1 -100
	-100 12300.1 100
	-100 12300.1 300
	100 12300.1 -300
	100 12300.1 -100
	100 12300.1 100
	100 12300.1 300
	300 12300.1 -300
	300 12300.1 -100
	300 12300.1 100
	300 12300.1 300
	-300 12500.2 -300
	-300 12500.2 -100
	-300 12500.2 100
	-300 12500.2 300
	-100 12500.2 -300
	-100 12500.2 -100
	-100 12500.2 100
	-100 12500.2 300
	100 12500.2 -300
	100 12500.2 -100
	100 12500.2 100
	100 12500.2 300
	300 12500.2 -300
	300 12500.2 -100
	300 12500.2 100
	300 12500.2 300
	-300 12700.2 -300
	-300 12700.2 -100
	-300 12700.2 100
	-300 12700.2 300
	-100 12700.2 -300
	-100 12700.2 -100
	-100 12700.2 100
	-100 12700.2 300
	100 12700.2 -300
	100 12700.2 -100
	100 12700.2 100
	100 12700.2 300
	300 12700.2 -300
	300 12700.2 -100
	300 12700.2 100
	300 12700.2 300
	-300 12900.3 -300
	-300 12900.3 -100
	-300 12900.3 100
	-300 12900.3 300
	-100 12900.3 -300
	-100 12900.3 -100
	-100 12900.3 100
	-100 12900.3 300
	100 12900.3 -300
	100 12900.3 -100
	100 12900.3 100
	100 12900.3 300
	300 12900.3 -300
	300 12900.3 -100
	300 12900.3 100
	300 12900.3 300
	-300 13100.4 -300
	-300 13100.4 -100
	-300 13100.4 100
	-300 13100.4 300
	-100 13100.4 -300
	-100 13100.4 -100
	-100 13100.4 100
	-100 13100.4 300
	100 13100.4 -300
	100 13100.4 -100
	100 13100.4 100
	100 13100.4 300
	300 13100.4 -300
	300 13100.4 -100
	300 13100.4 100
	300 13100.4 300
	-300 13300.5 -300
	-300 13300.5 -100
	-300 13300.5 100
	-300 13300.5 300
	-100 13300.5 -300
	-100 13300.5 -100
	-100 13300.5 100
	-100 13300.5 300
	100 13300.5 -300
	100 13300.5 -100
	100 13300.5 100
	100 13300.5 300
	300 13300.5 -300
	300 13300.5 -100
	300 13300.5 100
	300 13300.5 300
	-300 13500.7 -300
	-300 13500.7 -100
	-300 13500.7 100
	-300 13500.7 300
	-100 13500.7 -300
	-100 13500.7 -100
	-100 13500.7 100
	-100 13500.7 300
	100 13500.7 -300
	100 13500.7 -100
	100 13500.7 100
	100 13500.7 300
	300 13500.7 -300
	300 13500.7 -100
	300 13500.7 100
	300 13500.7 300
	-300 13701.1 -300
	-300 13701.1 -100
	-300 13701.1 100
	-300 13701.1 300
	-100 13701.1 -300
	-100 13701.1 -100
	-100 13701.1 100
	-100 13701.1 300
	100 13701.1 -300
	100 13701.1 -100
	100 13701.1 100
	100 13701.1 300
	300 13701.1 -300
	300 13701.1 -100
	300 13701.1 100
	300 13701.1 300
	-300 13902 -300
	-300 13902 -100
	-300 13902 100
	-300 13902 300
	-100 13902 -300
	-100 13902 -100
	-100 13902 100
	-100 13902 300
	100 13902 -300
	100 13902 -100
	100 13902 100
	100 13902 300
	300 13902 -300
	300 13902 -100
	300 13902 100
	300 13902 300
  </DataArray>
</Points>
<PointData  Vectors="vector">
  <DataArray type="Float32" Name="Velocity" NumberOfComponents="3" format="ascii">
 -2.35469e-06 -0.00108405 -2.36217e-06
 -1.57791e-06 -0.00127802 -7.60948e-07
 -1.56343e-06 -0.00127802 7.613e-07
 -2.36523e-06 -0.00108405 2.36231e-06
 -7.59274e-07 -0.00127802 -1.57067e-06
 -1.17456e-06 -0.00126367 -1.15302e-06
 -1.12897e-06 -0.00126367 1.14975e-06
 -7.64482e-07 -0.00127802 1.5745e-06
 7.59296e-07 -0.00127802 -1.56871e-06
 1.16927e-06 -0.00126367 -1.14968e-06
 1.12852e-06 -0.00126367 1.14757e-06
 7.64086e-07 -0.00127802 1.57123e-06
 2.35485e-06 -0.00108405 -2.36393e-06
 1.58294e-06 -0.00127802 -7.61937e-07
 1.56359e-06 -0.00127802 7.62163e-07
 2.36529e-06 -0.00108405 2.36401e-06
 -1.36318e-05 -0.000794614 -1.3632e-05
 -1.75803e-05 -3.69554e-05 8.4406e-06
 -1.75819e-05 -3.69555e-05 -8.43983e-06
 -1.36335e-05 -0.000794615 1.3631e-05
 8.43921e-06 -3.69464e-05 -1.7581e-05
 -1.3012e-06 -0.0011118 -1.30655e-06
 -1.29232e-06 -0.0011118 1.31099e-06
 8.44031e-06 -3.6967e-05 1.75765e-05
 -8.43916e-06 -3.69657e-05 -1.75817e-05
 1.30845e-06 -0.0011118 -1.30553e-06
 1.29749e-06 -0.0011118 1.30967e-06
 -8.44084e-06 -3.69727e-05 1.75775e-05
 1.36317e-05 -0.000794614 -1.36324e-05
 1.75727e-05 -3.6967e-05 8.44057e-06
 1.75765e-05 -3.69578e-05 -8.43971e-06
 1.36338e-05 -0.000794614 1.36315e-05
 -7.98793e-06 -0.00249492 -7.98813e-06
 -5.45893e-06 -4.32601e-06 -1.08243e-05
 -5.45959e-06 -4.32213e-06 1.08244e-05
 -7.98814e-06 -0.00249493 7.9879e-06
 -1.08237e-05 -4.336e-06 -5.45966e-06
 -9.25743e-06 -0.000930039 -9.25728e-06
 -9.25779e-06 -0.000930041 9.25658e-06
 -1.08245e-05 -4.3169e-06 5.46047e-06
 1.08238e-05 -4.3147e-06 -5.45968e-06
 9.25669e-06 -0.000930041 -9.25732e-06
 9.25717e-06 -0.000930041 9.2566e-06
 1.08245e-05 -4.31208e-06 5.46051e-06
 7.98793e-06 -0.00249493 -7.98782e-06
 5.45969e-06 -4.31601e-06 -1.0824e-05
 5.46025e-06 -4.32282e-06 1.08243e-05
 7.98816e-06 -0.00249493 7.98766e-06
 7.40832e-06 -9.85473e-05 7.40875e-06
 8.48664e-06 0.000540971 8.52074e-07
 8.48712e-06 0.000540969 -8.5266e-07
 7.40811e-06 -9.84874e-05 -7.40809e-06
 8.53164e-07 0.000540968 8.48728e-06
 3.09411e-07 0.00095375 3.08678e-07
 3.10611e-07 0.000953761 -3.07833e-07
 8.5335e-07 0.000540967 -8.48799e-06
 -8.53206e-07 0.000540968 8.48752e-06
 -3.08051e-07 0.000953777 3.09074e-07
 -3.09335e-07 0.000953786 -3.08147e-07
 -8.53095e-07 0.000540967 -8.48834e-06
 -7.4076e-06 -9.84849e-05 7.40927e-06
 -8.48741e-06 0.000540969 8.52368e-07
 -8.48781e-06 0.000540968 -8.53012e-07
 -7.40778e-06 -9.84954e-05 -7.40849e-06
 7.18561e-06 0.000416805 7.18712e-06
 1.0618e-05 -0.00216563 -6.19904e-08
 1.06181e-05 -0.00216562 6.26774e-08
 7.18582e-06 0.000416766 -7.1877e-06
 -5.77748e-08 -0.00216562 1.06213e-05
 -1.10477e-06 -0.00127115 -1.08969e-06
 -1.10552e-06 -0.00127116 1.0908e-06
 -5.88554e-08 -0.00216561 -1.06223e-05
 5.94729e-08 -0.00216561 1.06213e-05
 1.10719e-06 -0.00127117 -1.09055e-06
 1.10805e-06 -0.00127117 1.09178e-06
 6.01974e-08 -0.00216561 -1.06224e-05
 -7.18708e-06 0.000416764 7.1868e-06
 -1.06202e-05 -0.00216561 -6.40586e-08
 -1.06204e-05 -0.00216561 6.47919e-08
 -7.187e-06 0.000416771 -7.18744e-06
 7.87095e-06 0.000148082 7.87967e-06
 7.57532e-07 0.000763776 6.63743e-06
 7.56972e-07 0.000763773 -6.63631e-06
 7.87191e-06 0.000148105 -7.88061e-06
 6.64159e-06 0.000763778 7.37575e-07
 4.75945e-06 -0.000573063 4.51949e-06
 4.73739e-06 -0.000573055 -4.52474e-06
 6.64155e-06 0.000763775 -7.32183e-07
 -6.63893e-06 0.000763774 7.40125e-07
 -4.77733e-06 -0.00057307 4.52118e-06
 -4.75803e-06 -0.00057308 -4.53208e-06
 -6.63794e-06 0.000763776 -7.29111e-07
 -7.87342e-06 0.000148111 7.88081e-06
 -7.39435e-07 0.000763774 6.63759e-06
 -7.36109e-07 0.000763773 -6.63557e-06
 -7.87535e-06 0.00014811 -7.88277e-06
 -2.23549e-06 4.01309e-05 -2.23652e-06
 4.55084e-06 -0.000208725 1.21097e-05
 4.55068e-06 -0.000208727 -1.21092e-05
 -2.23612e-06 4.01005e-05 2.23618e-06
 1.21072e-05 -0.000208728 4.52093e-06
 2.82807e-06 0.0010034 2.87312e-06
 2.82808e-06 0.00100339 -2.87325e-06
 1.21074e-05 -0.00020873 -4.52062e-06
 -1.21059e-05 -0.00020873 4.52092e-06
 -2.82677e-06 0.0010034 2.87279e-06
 -2.82643e-06 0.0010034 -2.8729e-06
 -1.21067e-05 -0.00020873 -4.52066e-06
 2.23416e-06 4.00976e-05 -2.23737e-06
 -4.55222e-06 -0.000208729 1.21115e-05
 -4.55241e-06 -0.000208729 -1.21102e-05
 2.2354e-06 4.00984e-05 2.23621e-06
 -2.79844e-06 -0.000254243 -2.79526e-06
 -1.57295e-06 -0.000225293 3.66655e-06
 -1.5729e-06 -0.000225294 -3.66675e-06
 -2.79875e-06 -0.000254239 2.79571e-06
 3.66511e-06 -0.000225295 -1.57816e-06
 2.33992e-06 -0.000724268 2.35581e-06
 2.33995e-06 -0.00072429 -2.35578e-06
 3.66516e-06 -0.000225297 1.57834e-06
 -3.66474e-06 -0.000225296 -1.57823e-06
 -2.33883e-06 -0.000724286 2.35578e-06
 -2.33869e-06 -0.000724304 -2.35547e-06
 -3.6644e-06 -0.000225297 1.57809e-06
 2.79829e-06 -0.000254241 -2.79581e-06
 1.57207e-06 -0.000225296 3.66685e-06
 1.57185e-06 -0.000225295 -3.66647e-06
 2.79826e-06 -0.00025424 2.79558e-06
 5.26774e-07 0.000813847 5.1623e-07
 7.85035e-07 0.000224349 1.53702e-06
 7.84829e-07 0.000224348 -1.53428e-06
 5.29583e-07 0.000813851 -5.18731e-07
 1.5247e-06 0.000224351 7.86629e-07
 6.74989e-08 -0.00171913 6.89464e-08
 6.75225e-08 -0.00171911 -6.91991e-08
 1.52145e-06 0.000224352 -7.86158e-07
 -1.52689e-06 0.000224351 7.85783e-07
 -6.64491e-08 -0.00171912 6.94767e-08
 -6.66518e-08 -0.0017191 -6.90005e-08
 -1.52498e-06 0.000224353 -7.86062e-07
 -5.24345e-07 0.00081385 5.21964e-07
 -7.85834e-07 0.000224351 1.53048e-06
 -7.85439e-07 0.000224352 -1.53329e-06
 -5.25742e-07 0.00081385 -5.18945e-07
 2.55442e-06 -6.15805e-05 2.55511e-06
 2.34017e-06 -0.000396303 6.36877e-07
 2.34006e-06 -0.000396302 -6.36897e-07
 2.55417e-06 -6.15777e-05 -2.55477e-06
 6.37353e-07 -0.000396306 2.34037e-06
 5.82191e-07 0.000228102 5.81602e-07
 5.8221e-07 0.000228102 -5.8151e-07
 6.37396e-07 -0.000396309 -2.34013e-06
 -6.36985e-07 -0.000396306 2.34015e-06
 -5.8185e-07 0.000228104 5.81677e-07
 -5.81818e-07 0.000228104 -5.81418e-07
 -6.36898e-07 -0.000396311 -2.34009e-06
 -2.55429e-06 -6.15772e-05 2.55459e-06
 -2.33998e-06 -0.000396307 6.37028e-07
 -2.33991e-06 -0.000396307 -6.36663e-07
 -2.5541e-06 -6.15759e-05 -2.55464e-06
 2.88624e-06 -1.70859e-05 2.8864e-06
 2.88754e-06 3.00024e-05 3.64219e-07
 2.88752e-06 3.00022e-05 -3.64198e-07
 2.88622e-06 -1.70844e-05 -2.88618e-06
 3.64407e-07 3.00012e-05 2.88759e-06
 3.63937e-07 0.000382368 3.63736e-07
 3.63946e-07 0.000382368 -3.63676e-07
 3.64429e-07 3.00004e-05 -2.88741e-06
 -3.64164e-07 3.00006e-05 2.88756e-06
 -3.63697e-07 0.000382369 3.63763e-07
 -3.63692e-07 0.00038237 -3.63664e-07
 -3.64148e-07 3.00009e-05 -2.88741e-06
 -2.88608e-06 -1.70849e-05 2.88632e-06
 -2.88735e-06 3.00012e-05 3.64278e-07
 -2.88734e-06 3.00011e-05 -3.64159e-07
 -2.88605e-06 -1.70843e-05 -2.88619e-06
 2.77997e-06 -0.000288996 2.77982e-06
 2.74239e-06 0.000105443 4.51078e-07
 2.74239e-06 0.000105431 -4.50927e-07
 2.77997e-06 -0.000289 -2.77985e-06
 4.51072e-07 0.000105451 2.74231e-06
 4.42177e-07 -0.000217007 4.42145e-07
 4.42178e-07 -0.000217007 -4.42062e-07
 4.51095e-07 0.000105454 -2.74229e-06
 -4.50948e-07 0.000105444 2.74231e-06
 -4.42026e-07 -0.000217007 4.42156e-07
 -4.42034e-07 -0.000217007 -4.42057e-07
 -4.50944e-07 0.000105464 -2.7423e-06
 -2.77978e-06 -0.000289 2.77985e-06
 -2.74223e-06 0.000105447 4.51061e-07
 -2.74223e-06 0.000105445 -4.50947e-07
 -2.77982e-06 -0.000289002 -2.77987e-06
 -1.48026e-07 0.000259378 -1.48392e-07
 4.75879e-07 -8.53864e-05 3.5656e-06
 4.7588e-07 -8.53785e-05 -3.5653e-06
 -1.4804e-07 0.000259378 1.48127e-07
 3.56525e-06 -8.53929e-05 4.74409e-07
 2.8516e-06 -0.000109632 2.8531e-06
 2.8516e-06 -0.000109633 -2.85216e-06
 3.56525e-06 -8.5396e-05 -4.75341e-07
 -3.56541e-06 -8.53892e-05 4.74529e-07
 -2.85262e-06 -0.000109634 2.85298e-06
 -2.8528e-06 -0.000109635 -2.85235e-06
 -3.56545e-06 -8.54039e-05 -4.75149e-07
 1.48385e-07 0.000259377 -1.48396e-07
 -4.7467e-07 -8.53907e-05 3.56559e-06
 -4.74496e-07 -8.53898e-05 -3.5654e-06
 1.48412e-07 0.000259378 1.48204e-07
 -3.16952e-07 -0.000796463 -3.16913e-07
 -1.1198e-07 0.000317539 -3.05503e-06
 -1.11922e-07 0.000317537 3.05486e-06
 -3.169e-07 -0.000796459 3.1683e-07
 -3.05516e-06 0.000317539 -1.12094e-07
 -2.72987e-06 0.000264471 -2.73008e-06
 -2.72996e-06 0.00026447 2.72993e-06
 -3.05516e-06 0.000317537 1.11982e-07
 3.05507e-06 0.000317537 -1.12137e-07
 2.72971e-06 0.000264469 -2.73005e-06
 2.72966e-06 0.000264469 2.72998e-06
 3.0549e-06 0.000317536 1.11951e-07
 3.16848e-07 -0.000796458 -3.16955e-07
 1.11955e-07 0.000317536 -3.05499e-06
 1.12024e-07 0.000317535 3.05483e-06
 3.16972e-07 -0.000796456 3.16853e-07
 -2.7071e-06 0.000154079 -2.70723e-06
 3.72969e-07 -0.000242213 1.12955e-06
 3.73104e-07 -0.00024221 -1.12975e-06
 -2.70707e-06 0.000154076 2.70715e-06
 1.12939e-06 -0.000242209 3.7228e-07
 -1.94723e-06 -0.000439768 -1.94648e-06
 -1.94735e-06 -0.000439767 1.94631e-06
 1.12939e-06 -0.000242206 -3.72391e-07
 -1.12963e-06 -0.000242206 3.72145e-07
 1.94666e-06 -0.000439767 -1.94634e-06
 1.9465e-06 -0.000439765 1.94629e-06
 -1.1298e-06 -0.000242206 -3.7236e-07
 2.70708e-06 0.000154073 -2.70732e-06
 -3.72645e-07 -0.000242207 1.12965e-06
 -3.72514e-07 -0.000242207 -1.12981e-06
 2.70723e-06 0.000154072 2.7072e-06
 -2.64221e-06 -0.000118242 -2.64214e-06
 -1.91582e-06 -0.000430121 -1.52095e-06
 -1.91584e-06 -0.000430121 1.52081e-06
 -2.64221e-06 -0.000118238 2.642e-06
 -1.52097e-06 -0.000430121 -1.91574e-06
 -9.98229e-07 0.000400986 -9.98229e-07
 -9.98207e-07 0.000400986 9.98118e-07
 -1.52095e-06 -0.000430121 1.91558e-06
 1.52075e-06 -0.000430122 -1.91575e-06
 9.97994e-07 0.000400985 -9.9822e-07
 9.97966e-07 0.000400984 9.98089e-07
 1.52077e-06 -0.000430122 1.91561e-06
 2.64196e-06 -0.000118232 -2.64214e-06
 1.91562e-06 -0.000430122 -1.52094e-06
 1.91565e-06 -0.000430121 1.52081e-06
 2.64197e-06 -0.000118231 2.64201e-06
 -4.35868e-06 -0.000186846 -4.35865e-06
 -2.14969e-06 -0.000119742 2.64896e-06
 -2.1497e-06 -0.000119738 -2.64905e-06
 -4.35867e-06 -0.000186853 4.35855e-06
 2.64894e-06 -0.000119742 -2.14966e-06
 6.5513e-07 -0.000294155 6.55266e-07
 6.55067e-07 -0.000294155 -6.55336e-07
 2.64889e-06 -0.000119733 2.14955e-06
 -2.64914e-06 -0.000119737 -2.1496e-06
 -6.55318e-07 -0.000294155 6.55413e-07
 -6.55265e-07 -0.000294155 -6.5548e-07
 -2.64907e-06 -0.000119731 2.1495e-06
 4.35848e-06 -0.000186861 -4.35863e-06
 2.14952e-06 -0.000119734 2.64897e-06
 2.14954e-06 -0.000119733 -2.64905e-06
 4.35849e-06 -0.000186862 4.35854e-06
 -2.84146e-06 0.00079946 -2.84147e-06
 -2.39975e-06 0.000455676 -7.58078e-07
 -2.39975e-06 0.000455672 7.58086e-07
 -2.84146e-06 0.00079946 2.84148e-06
 -7.5811e-07 0.000455674 -2.39975e-06
 -1.66281e-06 -0.000200642 -1.66279e-06
 -1.66281e-06 -0.000200642 1.66279e-06
 -7.58122e-07 0.000455666 2.39976e-06
 7.58054e-07 0.00045567 -2.39975e-06
 1.66277e-06 -0.000200642 -1.66279e-06
 1.66276e-06 -0.000200641 1.6628e-06
 7.58075e-07 0.000455664 2.39976e-06
 2.84141e-06 0.000799461 -2.84146e-06
 2.3997e-06 0.000455668 -7.58083e-07
 2.3997e-06 0.000455666 7.58086e-07
 2.84141e-06 0.00079946 2.84146e-06
 -4.50166e-06 -0.00138929 -4.50164e-06
 -3.73776e-06 -0.00135325 -1.74327e-06
 -3.73777e-06 -0.00135325 1.74332e-06
 -4.50161e-06 -0.00138929 4.50167e-06
 -1.74325e-06 -0.00135325 -3.7378e-06
 -1.60778e-06 -0.00110774 -1.6077e-06
 -1.6078e-06 -0.00110774 1.60778e-06
 -1.74331e-06 -0.00135325 3.73779e-06
 1.74334e-06 -0.00135325 -3.73779e-06
 1.60778e-06 -0.00110774 -1.60771e-06
 1.60779e-06 -0.00110773 1.60777e-06
 1.74337e-06 -0.00135325 3.73779e-06
 4.50164e-06 -0.00138929 -4.50166e-06
 3.73782e-06 -0.00135325 -1.74328e-06
 3.73783e-06 -0.00135325 1.74328e-06
 4.50161e-06 -0.00138929 4.5017e-06
 -1.34081e-06 0.00104785 -1.34085e-06
 -1.70077e-06 0.000870205 1.50593e-06
 -1.70077e-06 0.000870206 -1.50588e-06
 -1.34082e-06 0.00104785 1.34089e-06
 1.50595e-06 0.000870206 -1.70081e-06
 1.32003e-06 0.000895911 1.32001e-06
 1.32003e-06 0.000895908 -1.31996e-06
 1.50595e-06 0.000870207 1.70085e-06
 -1.50587e-06 0.000870207 -1.70082e-06
 -1.31995e-06 0.000895909 1.32001e-06
 -1.31996e-06 0.000895904 -1.31997e-06
 -1.50587e-06 0.000870207 1.70085e-06
 1.34089e-06 0.00104785 -1.34086e-06
 1.70084e-06 0.000870206 1.50592e-06
 1.70084e-06 0.000870206 -1.50589e-06
 1.34088e-06 0.00104785 1.34088e-06
 -1.20581e-06 -0.000725137 -1.20587e-06
 -1.28422e-06 0.00152061 1.08471e-06
 -1.28422e-06 0.00152061 -1.08465e-06
 -1.20582e-06 -0.000725137 1.2059e-06
 1.0847e-06 0.00152061 -1.284e-06
 4.64331e-07 0.00136126 4.64047e-07
 4.64325e-07 0.00136126 -4.64203e-07
 1.0847e-06 0.00152061 1.28423e-06
 -1.08463e-06 0.00152061 -1.284e-06
 -4.64294e-07 0.00136126 4.64042e-07