<?xml version="1.0"?>
<VTKFile type="UnstructuredGrid" version="0.1" byte_order="LittleEndian" compressor="vtkZLibDataCompressor">
<UnstructuredGrid>
<Piece NumberOfPoints="960" NumberOfCells="120">
<Points>
<DataArray type="Float32" NumberOfComponents="3" format="ascii">
-4.000000e+02 -6.000000e+03 -4.000000e+02
0.000000e+00 -6.000000e+03 -4.000000e+02
-4.000000e+02 -5.600000e+03 -4.000000e+02
2.121800e-10 -5.600000e+03 -4.000000e+02
-4.000000e+02 -6.000000e+03 0.000000e+00
0.000000e+00 -6.000000e+03 0.000000e+00
-4.000000e+02 -5.600000e+03 1.543020e-10
1.152560e-10 -5.600000e+03 1.581240e-10
0.000000e+00 -6.000000e+03 -4.000000e+02
4.000000e+02 -6.000000e+03 -4.000000e+02
2.121800e-10 -5.600000e+03 -4.000000e+02
4.000000e+02 -5.600000e+03 -4.000000e+02
0.000000e+00 -6.000000e+03 0.000000e+00
4.000000e+02 -6.000000e+03 0.000000e+00
1.152560e-10 -5.600000e+03 1.581240e-10
4.000000e+02 -5.600000e+03 1.005010e-10
-4.000000e+02 -5.600000e+03 -4.000000e+02
2.121800e-10 -5.600000e+03 -4.000000e+02
-4.000000e+02 -5.200000e+03 -4.000000e+02
1.760840e-10 -5.200000e+03 -4.000000e+02
-4.000000e+02 -5.600000e+03 1.543020e-10
1.152560e-10 -5.600000e+03 1.581240e-10
-4.000000e+02 -5.200000e+03 -6.574880e-11
1.488550e-10 -5.200000e+03 2.181370e-11
2.121800e-10 -5.600000e+03 -4.000000e+02
4.000000e+02 -5.600000e+03 -4.000000e+02
1.760840e-10 -5.200000e+03 -4.000000e+02
4.000000e+02 -5.200000e+03 -4.000000e+02
1.152560e-10 -5.600000e+03 1.581240e-10
4.000000e+02 -5.600000e+03 1.005010e-10
1.488550e-10 -5.200000e+03 2.181370e-11
4.000000e+02 -5.200000e+03 -7.368730e-11
-4.000000e+02 -5.200000e+03 -4.000000e+02
1.760840e-10 -5.200000e+03 -4.000000e+02
-4.000000e+02 -4.800000e+03 -4.000000e+02
4.045970e-10 -4.800000e+03 -4.000000e+02
-4.000000e+02 -5.200000e+03 -6.574880e-11
1.488550e-10 -5.200000e+03 2.181370e-11
-4.000000e+02 -4.800000e+03 -1.455220e-10
4.031490e-11 -4.800000e+03 -1.557470e-10
1.760840e-10 -5.200000e+03 -4.000000e+02
4.000000e+02 -5.200000e+03 -4.000000e+02
4.045970e-10 -4.800000e+03 -4.000000e+02
4.000000e+02 -4.800000e+03 -4.000000e+02
1.488550e-10 -5.200000e+03 2.181370e-11
4.000000e+02 -5.200000e+03 -7.368730e-11
4.031490e-11 -4.800000e+03 -1.557470e-10
4.000000e+02 -4.800000e+03 -1.144270e-10
-4.000000e+02 -4.800000e+03 -4.000000e+02
4.045970e-10 -4.800000e+03 -4.000000e+02
-4.000000e+02 -4.400000e+03 -4.000000e+02
-1.625610e-10 -4.400000e+03 -4.000000e+02
-4.000000e+02 -4.800000e+03 -1.455220e-10
4.031490e-11 -4.800000e+03 -1.557470e-10
-4.000000e+02 -4.400000e+03 -2.881580e-11
1.275540e-10 -4.400000e+03 2.308280e-10
4.045970e-10 -4.800000e+03 -4.000000e+02
4.000000e+02 -4.800000e+03 -4.000000e+02
-1.625610e-10 -4.400000e+03 -4.000000e+02
4.000000e+02 -4.400000e+03 -4.000000e+02
4.031490e-11 -4.800000e+03 -1.557470e-10
4.000000e+02 -4.800000e+03 -1.144270e-10
1.275540e-10 -4.400000e+03 2.308280e-10
4.000000e+02 -4.400000e+03 5.529910e-10
-4.000000e+02 -4.400000e+03 -4.000000e+02
-1.625610e-10 -4.400000e+03 -4.000000e+02
-4.000000e+02 -3.999990e+03 -4.000000e+02
-2.523080e-11 -3.999990e+03 -4.000000e+02
-4.000000e+02 -4.400000e+03 -2.881580e-11
1.275540e-10 -4.400000e+03 2.308280e-10
-4.000000e+02 -3.999990e+03 3.484150e-10
7.469950e-11 -3.999990e+03 4.343920e-10
-1.625610e-10 -4.400000e+03 -4.000000e+02
4.000000e+02 -4.400000e+03 -4.000000e+02
-2.523080e-11 -3.999990e+03 -4.000000e+02
4.000000e+02 -3.999990e+03 -4.000000e+02
1.275540e-10 -4.400000e+03 2.308280e-10
4.000000e+02 -4.400000e+03 5.529910e-10
7.469950e-11 -3.999990e+03 4.343920e-10
4.000000e+02 -3.999990e+03 4.713610e-10
-4.000000e+02 -3.999990e+03 -4.000000e+02
-2.523080e-11 -3.999990e+03 -4.000000e+02
-4.000000e+02 -3.599990e+03 -4.000000e+02
2.020020e-10 -3.599990e+03 -4.000000e+02
-4.000000e+02 -3.999990e+03 3.484150e-10
7.469950e-11 -3.999990e+03 4.343920e-10
-4.000000e+02 -3.599990e+03 4.325610e-10
3.312860e-11 -3.599990e+03 1.731590e-10
-2.523080e-11 -3.999990e+03 -4.000000e+02
4.000000e+02 -3.999990e+03 -4.000000e+02
2.020020e-10 -3.599990e+03 -4.000000e+02
4.000000e+02 -3.599990e+03 -4.000000e+02
7.469950e-11 -3.999990e+03 4.343920e-10
4.000000e+02 -3.999990e+03 4.713610e-10
3.312860e-11 -3.599990e+03 1.731590e-10
4.000000e+02 -3.599990e+03 1.946330e-10
-4.000000e+02 -3.599990e+03 -4.000000e+02
2.020020e-10 -3.599990e+03 -4.000000e+02
-4.000000e+02 -3.200010e+03 -4.000000e+02
1.567750e-10 -3.200010e+03 -4.000000e+02
-4.000000e+02 -3.599990e+03 4.325610e-10
3.312860e-11 -3.599990e+03 1.731590e-10
-4.000000e+02 -3.200010e+03 3.090560e-10
8.310100e-11 -3.200010e+03 8.965200e-11
2.020020e-10 -3.599990e+03 -4.000000e+02
4.000000e+02 -3.599990e+03 -4.000000e+02
1.567750e-10 -3.200010e+03 -4.000000e+02
4.000000e+02 -3.200010e+03 -4.000000e+02
3.312860e-11 -3.599990e+03 1.731590e-10
4.000000e+02 -3.599990e+03 1.946330e-10
8.310100e-11 -3.200010e+03 8.965200e-11
4.000000e+02 -3.200010e+03 1.825550e-10
-4.000000e+02 -3.200010e+03 -4.000000e+02
1.567750e-10 -3.200010e+03 -4.000000e+02
-4.000000e+02 -2.800080e+03 -4.000000e+02
6.186310e-11 -2.800080e+03 -4.000000e+02
-4.000000e+02 -3.200010e+03 3.090560e-10
8.310100e-11 -3.200010e+03 8.965200e-11
-4.000000e+02 -2.800080e+03 -3.925060e-11
2.433620e-11 -2.800080e+03 -5.001510e-14
1.567750e-10 -3.200010e+03 -4.000000e+02
4.000000e+02 -3.200010e+03 -4.000000e+02
6.186310e-11 -2.800080e+03 -4.000000e+02
4.000000e+02 -2.800080e+03 -4.000000e+02
8.310100e-11 -3.200010e+03 8.965200e-11
4.000000e+02 -3.200010e+03 1.825550e-10
2.433620e-11 -2.800080e+03 -5.001510e-14
4.000000e+02 -2.800080e+03 -1.896540e-10
-4.000000e+02 -2.800080e+03 -4.000000e+02
6.186310e-11 -2.800080e+03 -4.000000e+02
-4.000000e+02 -2.400150e+03 -4.000000e+02
-6.926220e-11 -2.400150e+03 -4.000000e+02
-4.000000e+02 -2.800080e+03 -3.925060e-11
2.433620e-11 -2.800080e+03 -5.001510e-14
-4.000000e+02 -2.400150e+03 -8.216880e-11
5.407130e-11 -2.400150e+03 -6.421710e-11
6.186310e-11 -2.800080e+03 -4.000000e+02
4.000000e+02 -2.800080e+03 -4.000000e+02
-6.926220e-11 -2.400150e+03 -4.000000e+02
4.000000e+02 -2.400150e+03 -4.000000e+02
2.433620e-11 -2.800080e+03 -5.001510e-14
4.000000e+02 -2.800080e+03 -1.896540e-10
5.407130e-11 -2.400150e+03 -6.421710e-11
4.000000e+02 -2.400150e+03 -3.027140e-10
-4.000000e+02 -2.400150e+03 -4.000000e+02
-6.926220e-11 -2.400150e+03 -4.000000e+02
-4.000000e+02 -2.000190e+03 -4.000000e+02
8.630070e-11 -2.000190e+03 -4.000000e+02
-4.000000e+02 -2.400150e+03 -8.216880e-11
5.407130e-11 -2.400150e+03 -6.421710e-11
-4.000000e+02 -2.000190e+03 -1.766660e-10
2.523630e-10 -2.000190e+03 -3.140790e-10
-6.926220e-11 -2.400150e+03 -4.000000e+02
4.000000e+02 -2.400150e+03 -4.000000e+02
8.630070e-11 -2.000190e+03 -4.000000e+02
4.000000e+02 -2.000190e+03 -4.000000e+02
5.407130e-11 -2.400150e+03 -6.421710e-11
4.000000e+02 -2.400150e+03 -3.027140e-10
2.523630e-10 -2.000190e+03 -3.140790e-10
4.000000e+02 -2.000190e+03 -3.766600e-10
-4.000000e+02 -2.000190e+03 -4.000000e+02
8.630070e-11 -2.000190e+03 -4.000000e+02
-4.000000e+02 -1.600220e+03 -4.000000e+02
1.114420e-11 -1.600220e+03 -4.000000e+02
-4.000000e+02 -2.000190e+03 -1.766660e-10
2.523630e-10 -2.000190e+03 -3.140790e-10
-4.000000e+02 -1.600220e+03 -2.902480e-10
1.601130e-10 -1.600220e+03 -3.784070e-10
8.630070e-11 -2.000190e+03 -4.000000e+02
4.000000e+02 -2.000190e+03 -4.000000e+02
1.114420e-11 -1.600220e+03 -4.000000e+02
4.000000e+02 -1.600220e+03 -4.000000e+02
2.523630e-10 -2.000190e+03 -3.140790e-10
4.000000e+02 -2.000190e+03 -3.766600e-10
1.601130e-10 -1.600220e+03 -3.784070e-10
4.000000e+02 -1.600220e+03 -4.575920e-10
-4.000000e+02 -1.600220e+03 -4.000000e+02
1.114420e-11 -1.600220e+03 -4.000000e+02
-4.000000e+02 -1.200230e+03 -4.000000e+02
4.057860e-11 -1.200230e+03 -4.000000e+02
-4.000000e+02 -1.600220e+03 -2.902480e-10
1.601130e-10 -1.600220e+03 -3.784070e-10
-4.000000e+02 -1.200230e+03 -1.217390e-10
2.648750e-10 -1.200230e+03 -3.752630e-11
1.114420e-11 -1.600220e+03 -4.000000e+02
4.000000e+02 -1.600220e+03 -4.000000e+02
4.057860e-11 -1.200230e+03 -4.000000e+02
4.000000e+02 -1.200230e+03 -4.000000e+02
1.601130e-10 -1.600220e+03 -3.784070e-10
4.000000e+02 -1.600220e+03 -4.575920e-10
2.648750e-10 -1.200230e+03 -3.752630e-11
4.000000e+02 -1.200230e+03 -2.374580e-10
-4.000000e+02 -1.200230e+03 -4.000000e+02
4.057860e-11 -1.200230e+03 -4.000000e+02
-4.000000e+02 -8.002350e+02 -4.000000e+02
1.217280e-10 -8.002350e+02 -4.000000e+02
-4.000000e+02 -1.200230e+03 -1.217390e-10
2.648750e-10 -1.200230e+03 -3.752630e-11
-4.000000e+02 -8.002350e+02 1.166200e-10
3.063150e-10 -8.002350e+02 1.407160e-10
4.057860e-11 -1.200230e+03 -4.000000e+02
4.000000e+02 -1.200230e+03 -4.000000e+02
1.217280e-10 -8.002350e+02 -4.000000e+02
4.000000e+02 -8.002350e+02 -4.000000e+02
2.648750e-10 -1.200230e+03 -3.752630e-11
4.000000e+02 -1.200230e+03 -2.374580e-10
3.063150e-10 -8.002350e+02 1.407160e-10
4.000000e+02 -8.002350e+02 -1.602080e-11
-4.000000e+02 -8.002350e+02 -4.000000e+02
1.217280e-10 -8.002350e+02 -4.000000e+02
-4.000000e+02 -4.002380e+02 -4.000000e+02
1.001140e-10 -4.002380e+02 -4.000000e+02
-4.000000e+02 -8.002350e+02 1.166200e-10
3.063150e-10 -8.002350e+02 1.407160e-10
-4.000000e+02 -4.002380e+02 3.222230e-10
1.749690e-10 -4.002380e+02 1.087630e-10
1.217280e-10 -8.002350e+02 -4.000000e+02
4.000000e+02 -8.002350e+02 -4.000000e+02
1.001140e-10 -4.002380e+02 -4.000000e+02
4.000000e+02 -4.002380e+02 -4.000000e+02
3.063150e-10 -8.002350e+02 1.407160e-10
4.000000e+02 -8.002350e+02 -1.602080e-11
1.749690e-10 -4.002380e+02 1.087630e-10
4.000000e+02 -4.002380e+02 -7.080800e-11
-4.000000e+02 -4.002380e+02 -4.000000e+02
1.001140e-10 -4.002380e+02 -4.000000e+02
-4.000000e+02 -2.396740e-01 -4.000000e+02
-8.319900e-11 -2.396830e-01 -4.000000e+02
-4.000000e+02 -4.002380e+02 3.222230e-10
1.749690e-10 -4.002380e+02 1.087630e-10
-4.000000e+02 -2.396830e-01 4.779490e-10
-9.145300e-11 -2.396930e-01 3.367640e-10
1.001140e-10 -4.002380e+02 -4.000000e+02
4.000000e+02 -4.002380e+02 -4.000000e+02
-8.319900e-11 -2.396830e-01 -4.000000e+02
4.000000e+02 -2.396740e-01 -4.000000e+02
[...]
<PointData>
<DataArray type="Float32" Name="V1" format="ascii">
0.000000e+00
0.000000e+00
4.304100e-08
4.877350e-10
0.000000e+00
0.000000e+00
4.256960e-08
-1.027450e-10
0.000000e+00
0.000000e+00
4.877350e-10
-4.210620e-08
0.000000e+00
0.000000e+00
-1.027450e-10
-4.283670e-08
4.304100e-08
4.877350e-10
-1.075830e-07
-6.024480e-11
4.256960e-08
-1.027450e-10
-1.063810e-07
-7.878880e-11
4.877350e-10
-4.210620e-08
-6.024480e-11
1.072060e-07
-1.027450e-10
-4.283670e-08
-7.878880e-11
1.064040e-07
-1.075830e-07
-6.024480e-11
1.367820e-07
8.342150e-11
-1.063810e-07
-7.878880e-11
1.327760e-07
-9.053060e-12
-6.024480e-11
1.072060e-07
8.342150e-11
-1.366410e-07
-7.878880e-11
1.064040e-07
-9.053060e-12
-1.327370e-07
1.367820e-07
8.342150e-11
4.874420e-08
4.106880e-11
1.327760e-07
-9.053060e-12
6.067690e-08
-1.962980e-10
8.342150e-11
-1.366410e-07
4.106880e-11
-4.857920e-08
-9.053060e-12
-1.327370e-07
-1.962980e-10
-6.086540e-08
4.874420e-08
4.106880e-11
-6.257400e-07
-2.316450e-10
6.067690e-08
-1.962980e-10
-6.553010e-07
2.518410e-10
4.106880e-11
-4.857920e-08
-2.316450e-10
6.247500e-07
-1.962980e-10
-6.086540e-08
2.518410e-10
6.556540e-07
-6.257400e-07
-2.316450e-10
1.370560e-06
-7.795770e-11
-6.553010e-07
2.518410e-10
1.435770e-06
1.760430e-10
-2.316450e-10
6.247500e-07
-7.795770e-11
-1.370670e-06
2.518410e-10
6.556540e-07
1.760430e-10
-1.435370e-06
1.370560e-06
-7.795770e-11
-1.227430e-06
2.403610e-11
1.435770e-06
1.760430e-10
-1.339980e-06
2.683680e-10
-7.795770e-11
-1.370670e-06
2.403610e-11
1.227550e-06
1.760430e-10
-1.435370e-06
2.683680e-10
1.340490e-06
-1.227430e-06
2.403610e-11
-1.208170e-06
-8.331700e-11
-1.339980e-06
2.683680e-10
-1.066120e-06
4.028480e-11
2.403610e-11
1.227550e-06
-8.331700e-11
1.208280e-06
2.683680e-10
1.340490e-06
4.028480e-11
1.066090e-06
-1.208170e-06
-8.331700e-11
5.475360e-06
1.048890e-11
-1.066120e-06
4.028480e-11
5.398080e-06
-2.305740e-10
-8.331700e-11
1.208280e-06
1.048890e-11
-5.475350e-06
4.028480e-11
1.066090e-06
-2.305740e-10
-5.398470e-06
5.475360e-06
1.048890e-11
-7.217080e-06
-2.126300e-10
5.398080e-06
-2.305740e-10
-7.425220e-06
-7.064890e-11
1.048890e-11
-5.475350e-06
-2.126300e-10
7.216930e-06
-2.305740e-10
-5.398470e-06
-7.064890e-11
7.425170e-06
-7.217080e-06
-2.126300e-10
1.648490e-06
2.491150e-10
-7.425220e-06
-7.064890e-11
2.441210e-06
4.609090e-11
-2.126300e-10
7.216930e-06
2.491150e-10
-1.648020e-06
-7.064890e-11
7.425170e-06
4.609090e-11
-2.441210e-06
1.648490e-06
2.491150e-10
6.991740e-06
3.129730e-10
2.441210e-06
4.609090e-11
5.510860e-06
-1.475190e-10
2.491150e-10
-1.648020e-06
3.129730e-10
-6.991260e-06
4.609090e-11
-2.441210e-06
-1.475190e-10
-5.510950e-06
6.991740e-06
3.129730e-10
-7.883990e-06
-3.301240e-11
5.510860e-06
-1.475190e-10
-6.310010e-06
3.348550e-11
3.129730e-10
-6.991260e-06
-3.301240e-11
7.884150e-06
-1.475190e-10
-5.510950e-06
3.348550e-11
6.310040e-06
-7.883990e-06
-3.301240e-11
4.700710e-06
4.167650e-11
-6.310010e-06
3.348550e-11
4.347060e-06
8.129530e-11
-3.301240e-11
7.884150e-06
4.167650e-11
-4.700820e-06
3.348550e-11
6.310040e-06
8.129530e-11
-4.346940e-06
4.700710e-06
4.167650e-11
-4.348250e-06
6.489820e-11
4.347060e-06
8.129530e-11
-5.160420e-06
-3.124170e-11
4.167650e-11
-4.700820e-06
6.489820e-11
4.348180e-06
8.129530e-11
-4.346940e-06
-3.124170e-11
5.160370e-06
-4.348250e-06
6.489820e-11
1.173950e-05
3.198590e-11
-5.160420e-06
-3.124170e-11
1.033560e-05
-9.297410e-11
6.489820e-11
4.348180e-06
3.198590e-11
-1.173960e-05
-3.124170e-11
5.160370e-06
-9.297410e-11
-1.033570e-05
1.173950e-05
3.198590e-11
-9.594040e-06
-1.176180e-10
1.033560e-05
-9.297410e-11
-7.374440e-06
-5.352900e-11
3.198590e-11
-1.173960e-05
-1.176180e-10
9.593870e-06
-9.297410e-11
-1.033570e-05
-5.352900e-11
7.374260e-06
-9.594040e-06
-1.176180e-10
-1.496070e-05
-8.714380e-12
-7.374440e-06
-5.352900e-11
-1.521380e-05
-4.285190e-12
-1.176180e-10
9.593870e-06
-8.714380e-12
1.496060e-05
-5.352900e-11
7.374260e-06
-4.285190e-12
1.521360e-05
-1.496070e-05
-8.714380e-12
-7.011160e-06
1.082880e-10
-1.521380e-05
-4.285190e-12
-8.785740e-06
6.685730e-11
-8.714380e-12
1.496060e-05
1.082880e-10
7.011130e-06
-4.285190e-12
1.521360e-05
6.685730e-11
8.785840e-06
-7.011160e-06
1.082880e-10
2.075260e-05
4.504470e-11
-8.785740e-06
6.685730e-11
1.789320e-05
3.285200e-11
1.082880e-10
7.011130e-06
4.504470e-11
-2.075230e-05
6.685730e-11
8.785840e-06
3.285200e-11
-1.789310e-05
2.075260e-05
4.504470e-11
-1.702520e-06
1.612840e-10
1.789320e-05
3.285200e-11
-5.990990e-06
1.731930e-10
4.504470e-11
-2.075230e-05
1.612840e-10
1.702350e-06
3.285200e-11
-1.789310e-05
1.731930e-10
5.990820e-06
-1.702520e-06
1.612840e-10
-9.948230e-06
3.706140e-11
-5.990990e-06
1.731930e-10
-3.796090e-06
2.742280e-11
1.612840e-10
1.702350e-06
3.706140e-11
9.948120e-06
1.731930e-10
5.990820e-06
2.742280e-11
3.795960e-06
-9.948230e-06
3.706140e-11
-3.750710e-06
-2.024900e-11
-3.796090e-06
2.742280e-11
3.698480e-06
-3.362340e-11
3.706140e-11
9.948120e-06
-2.024900e-11
3.750740e-06
2.742280e-11
3.795960e-06
-3.362340e-11
-3.698490e-06
-3.750710e-06
-2.024900e-11
-3.843750e-06
-3.740050e-11
3.698480e-06
-3.362340e-11
-1.011890e-05
-1.942640e-11
-2.024900e-11
3.750740e-06
-3.740050e-11
3.843680e-06
-3.362340e-11
-3.698490e-06
-1.942640e-11
1.011890e-05
-3.843750e-06
-3.740050e-11
1.788990e-05
2.313000e-11
-1.011890e-05
-1.942640e-11
1.205130e-05
2.837860e-11
-3.740050e-11
3.843680e-06
2.313000e-11
-1.788990e-05
-1.942640e-11
1.011890e-05
2.837860e-11
-1.205120e-05
1.788990e-05
2.313000e-11
5.225200e-06
7.467350e-11
1.205130e-05
2.837860e-11
9.463190e-06
6.432440e-11
2.313000e-11
-1.788990e-05
7.467350e-11
-5.225070e-06
2.837860e-11
-1.205120e-05
6.432440e-11
-9.463030e-06
5.225200e-06
7.467350e-11
-1.085240e-05
1.711850e-11
9.463190e-06
6.432440e-11
-7.036310e-06
-3.418500e-13
7.467350e-11
-5.225070e-06
1.711850e-11
1.085250e-05
6.432440e-11
-9.463030e-06
-3.418500e-13
7.036400e-06
-1.085240e-05
1.711850e-11
-2.069740e-06
1.009530e-11
-7.036310e-06
-3.418500e-13
-3.568740e-06
1.836470e-11
1.711850e-11
1.085250e-05
1.009530e-11
2.069770e-06
-3.418500e-13
7.036400e-06
1.836470e-11
3.568780e-06
-2.069740e-06
1.009530e-11
2.392040e-06
3.312800e-11
-3.568740e-06
1.836470e-11
1.130080e-06
3.245450e-11
1.009530e-11
2.069770e-06
3.312800e-11
-2.391980e-06
1.836470e-11
3.568780e-06
3.245450e-11
-1.130020e-06
2.392040e-06
3.312800e-11
-2.437450e-06
2.389910e-11
1.130080e-06
3.245450e-11
-1.375900e-06
2.832090e-11
3.312800e-11
-2.391980e-06
2.389910e-11
2.437510e-06
3.245450e-11
-1.130020e-06
2.832090e-11
1.375970e-06
0.000000e+00
0.000000e+00
4.256960e-08
-1.027450e-10
0.000000e+00
0.000000e+00
4.337090e-08
-1.061690e-10
0.000000e+00
0.000000e+00
-1.027450e-10
-4.283670e-08
0.000000e+00
0.000000e+00
-1.061690e-10
-4.322170e-08
4.256960e-08
-1.027450e-10
-1.063810e-07
-7.878880e-11
4.337090e-08
-1.061690e-10
-1.076140e-07
3.289320e-10
-1.027450e-10
-4.283670e-08
-7.878880e-11
1.064040e-07
-1.061690e-10
-4.322170e-08
3.289320e-10
1.078420e-07
-1.063810e-07
-7.878880e-11
1.327760e-07
-9.053060e-12
-1.076140e-07
3.289320e-10
1.364290e-07
-2.487140e-10
-7.878880e-11
1.064040e-07
-9.053060e-12
-1.327370e-07
3.289320e-10
1.078420e-07
-2.487140e-10
-1.365310e-07
1.327760e-07
-9.053060e-12
6.067690e-08
-1.962980e-10
1.364290e-07
-2.487140e-10
4.874420e-08
-2.346890e-10
-9.053060e-12
-1.327370e-07
-1.962980e-10
-6.086540e-08
-2.487140e-10
-1.365310e-07
-2.346890e-10
-4.905840e-08
6.067690e-08
-1.962980e-10
-6.553010e-07
2.518410e-10
4.874420e-08
-2.346890e-10
-6.251120e-07
-1.485910e-11
-1.962980e-10
-6.086540e-08
2.518410e-10
6.556540e-07
-2.346890e-10
-4.905840e-08
-1.485910e-11
6.247820e-07
-6.553010e-07
2.518410e-10
1.435770e-06
1.760430e-10
-6.251120e-07
-1.485910e-11
1.370190e-06
-2.262800e-10
2.518410e-10
6.556540e-07
1.760430e-10
-1.435370e-06
-1.485910e-11
6.247820e-07
-2.262800e-10
-1.370670e-06
1.435770e-06
1.760430e-10
-1.339980e-06
2.683680e-10
1.370190e-06
-2.262800e-10
-1.227600e-06
1.120260e-10
1.760430e-10
-1.435370e-06
2.683680e-10
1.340490e-06
-2.262800e-10
-1.370670e-06
1.120260e-10
1.227470e-06
-1.339980e-06
2.683680e-10
-1.066120e-06
4.028480e-11
-1.227600e-06
1.120260e-10
-1.208490e-06
1.569980e-10
2.683680e-10
1.340490e-06
4.028480e-11
1.066090e-06
1.120260e-10
1.227470e-06
1.569980e-10
1.208850e-06
-1.066120e-06
4.028480e-11
5.398080e-06
-2.305740e-10
-1.208490e-06
1.569980e-10
5.475080e-06
-1.303040e-10
4.028480e-11
1.066090e-06
-2.305740e-10
-5.398470e-06
1.569980e-10
1.208850e-06
-1.303040e-10
-5.475240e-06
5.398080e-06
-2.305740e-10
-7.425220e-06
-7.064890e-11
5.475080e-06
-1.303040e-10
-7.216820e-06
5.216400e-11
-2.305740e-10
-5.398470e-06
-7.064890e-11
7.425170e-06
-1.303040e-10
-5.475240e-06
5.216400e-11
7.216750e-06
-7.425220e-06
-7.064890e-11
2.441210e-06
4.609090e-11
-7.216820e-06
5.216400e-11
1.648460e-06
-5.911490e-11
-7.064890e-11
7.425170e-06
4.609090e-11
-2.441210e-06
5.216400e-11
7.216750e-06
-5.911490e-11
-1.648150e-06
2.441210e-06
4.609090e-11
5.510860e-06
-1.475190e-10
1.648460e-06
-5.911490e-11
6.991340e-06
6.373910e-11
4.609090e-11
-2.441210e-06
-1.475190e-10
-5.510950e-06
-5.911490e-11
-1.648150e-06
6.373910e-11
-6.991420e-06
5.510860e-06
-1.475190e-10
-6.310010e-06
3.348550e-11
6.991340e-06
6.373910e-11
-7.883700e-06
1.486040e-10
-1.475190e-10
-5.510950e-06
3.348550e-11
6.310040e-06
6.373910e-11
-6.991420e-06
1.486040e-10
7.883910e-06
-6.310010e-06
3.348550e-11
4.347060e-06
8.129530e-11
-7.883700e-06
1.486040e-10
4.700980e-06
2.239560e-11
3.348550e-11
6.310040e-06
8.129530e-11
-4.346940e-06
1.486040e-10
7.883910e-06
2.239560e-11
-4.701050e-06
4.347060e-06
8.129530e-11
-5.160420e-06
-3.124170e-11
4.700980e-06
2.239560e-11
-4.348290e-06
-1.719300e-10
8.129530e-11
-4.346940e-06
-3.124170e-11
5.160370e-06
2.239560e-11
-4.701050e-06
-1.719300e-10
4.348120e-06
-5.160420e-06
-3.124170e-11
1.033560e-05
-9.297410e-11
-4.348290e-06
-1.719300e-10
1.173970e-05
2.247430e-11
-3.124170e-11
5.160370e-06
-9.297410e-11
-1.033570e-05
-1.719300e-10
4.348120e-06
2.247430e-11
-1.173950e-05
1.033560e-05
-9.297410e-11
-7.374440e-06
-5.352900e-11
1.173970e-05
2.247430e-11
-9.593890e-06
-4.836350e-11
-9.297410e-11
-1.033570e-05
-5.352900e-11
7.374260e-06
2.247430e-11
-1.173950e-05
-4.836350e-11
9.593880e-06
-7.374440e-06
-5.352900e-11
-1.521380e-05
-4.285190e-12
-9.593890e-06
-4.836350e-11
-1.496050e-05
2.628020e-11
-5.352900e-11
7.374260e-06
-4.285190e-12
1.521360e-05
-4.836350e-11
9.593880e-06
2.628020e-11
1.496060e-05
-1.521380e-05
-4.285190e-12
-8.785740e-06
6.685730e-11
-1.496050e-05
2.628020e-11
-7.011120e-06
2.877020e-12
-4.285190e-12
1.521360e-05
6.685730e-11
8.785840e-06
2.628020e-11
1.496060e-05
2.877020e-12
7.011150e-06
-8.785740e-06
6.685730e-11
1.789320e-05
3.285200e-11
-7.011120e-06
2.877020e-12
2.075250e-05
2.309600e-11
6.685730e-11
8.785840e-06
3.285200e-11
-1.789310e-05
2.877020e-12
7.011150e-06
2.309600e-11
-2.075240e-05
1.789320e-05
3.285200e-11
-5.990990e-06
1.731930e-10
2.075250e-05
2.309600e-11
-1.702500e-06
1.547870e-10
3.285200e-11
-1.789310e-05
1.731930e-10
5.990820e-06
2.309600e-11
-2.075240e-05
1.547870e-10
1.702480e-06
-5.990990e-06
1.731930e-10
-3.796090e-06
2.742280e-11
-1.702500e-06
1.547870e-10
-9.948260e-06
2.933180e-11
1.731930e-10
5.990820e-06
2.742280e-11
3.795960e-06
1.547870e-10
1.702480e-06
2.933180e-11
9.948190e-06
-3.796090e-06
2.742280e-11
3.698480e-06
-3.362340e-11
-9.948260e-06
2.933180e-11
-3.750810e-06
-2.998940e-11
2.742280e-11
3.795960e-06
-3.362340e-11
-3.698490e-06
2.933180e-11
9.948190e-06
-2.998940e-11
3.750800e-06
3.698480e-06
-3.362340e-11
-1.011890e-05
-1.942640e-11
-3.750810e-06
-2.998940e-11
-3.843800e-06
-2.153460e-11
-3.362340e-11
-3.698490e-06
-1.942640e-11
1.011890e-05
-2.998940e-11
3.750800e-06
-2.153460e-11
3.843760e-06
-1.011890e-05
-1.942640e-11
1.205130e-05
2.837860e-11
-3.843800e-06
-2.153460e-11
1.788990e-05
2.790790e-11
-1.942640e-11
1.011890e-05
2.837860e-11
-1.205120e-05
-2.153460e-11
3.843760e-06
2.790790e-11
-1.788990e-05
1.205130e-05
2.837860e-11
9.463190e-06
6.432440e-11
1.788990e-05
2.790790e-11
5.225200e-06
6.591150e-11
2.837860e-11
-1.205120e-05
6.432440e-11
-9.463030e-06
2.790790e-11
-1.788990e-05
6.591150e-11
-5.225040e-06
9.463190e-06
6.432440e-11
-7.036310e-06
-3.418500e-13
5.225200e-06
6.591150e-11
-1.085240e-05
2.654450e-12
6.432440e-11
-9.463030e-06
-3.418500e-13
7.036400e-06
6.591150e-11
-5.225040e-06
2.654450e-12
1.085250e-05
-7.036310e-06
-3.418500e-13
-3.568740e-06
1.836470e-11
-1.085240e-05
2.654450e-12
-2.069740e-06
2.239470e-11
-3.418500e-13
7.036400e-06
1.836470e-11
3.568780e-06
2.654450e-12
1.085250e-05
2.239470e-11
2.069800e-06
-3.568740e-06
1.836470e-11
1.130080e-06
3.245450e-11
-2.069740e-06
2.239470e-11
2.392010e-06
3.202300e-11
1.836470e-11
3.568780e-06
3.245450e-11
-1.130020e-06
2.239470e-11
2.069800e-06
3.202300e-11
-2.391950e-06
1.130080e-06
3.245450e-11
-1.375900e-06
2.832090e-11
2.392010e-06
3.202300e-11
-2.437480e-06
2.447550e-11
3.245450e-11
-1.130020e-06
2.832090e-11
1.375970e-06
3.202300e-11
-2.391950e-06
2.447550e-11
2.437510e-06
</DataArray>
<DataArray type="Float32" Name="V2" format="ascii">
0.000000e+00
0.000000e+00
5.825270e-04
5.825670e-04
0.000000e+00
0.000000e+00
5.825670e-04
5.826060e-04
0.000000e+00
0.000000e+00
5.825670e-04
5.825240e-04
0.000000e+00
0.000000e+00
5.826060e-04
5.825670e-04
5.825270e-04
5.825670e-04
-7.486720e-04
-7.487100e-04
5.825670e-04
5.826060e-04
-7.487090e-04
-7.487370e-04
5.825670e-04
5.825240e-04
-7.487100e-04
-7.486720e-04
5.826060e-04
5.825670e-04
-7.487370e-04
-7.487100e-04
-7.486720e-04
-7.487100e-04
-2.151970e-03
-2.151990e-03
-7.487090e-04
-7.487370e-04
-2.151980e-03
-2.152020e-03
-7.487100e-04
-7.486720e-04
-2.151990e-03
-2.151970e-03
-7.487370e-04
-7.487100e-04
-2.152020e-03
-2.151980e-03
-2.151970e-03
-2.151990e-03
3.308490e-03
3.308670e-03
-2.151980e-03
-2.152020e-03
3.308670e-03
3.308890e-03
-2.151990e-03
-2.151970e-03
3.308670e-03
3.308490e-03
-2.152020e-03
-2.151980e-03
3.308890e-03
3.308670e-03
3.308490e-03
3.308670e-03
9.683860e-03
9.683400e-03
3.308670e-03
3.308890e-03
9.683400e-03
9.682890e-03
3.308670e-03
3.308490e-03
9.683400e-03
9.683860e-03
3.308890e-03
3.308670e-03
9.682890e-03
9.683400e-03
9.683860e-03
9.683400e-03
-4.396670e-03
-4.396030e-03
9.683400e-03
9.682890e-03
-4.396030e-03
-4.395320e-03
9.683400e-03
9.683860e-03
-4.396030e-03
-4.396670e-03
9.682890e-03
9.683400e-03
-4.395320e-03
-4.396030e-03
-4.396670e-03
-4.396030e-03
-3.504120e-02
-3.504140e-02
-4.396030e-03
-4.395320e-03
-3.504140e-02
-3.504160e-02
-4.396030e-03
-4.396670e-03
-3.504140e-02
-3.504120e-02
-4.395320e-03
-4.396030e-03
-3.504160e-02
-3.504140e-02
-3.504120e-02
-3.504140e-02
-5.014230e-02
-5.014390e-02
-3.504140e-02
-3.504160e-02
-5.014390e-02
-5.014570e-02
-3.504140e-02
-3.504120e-02
-5.014390e-02
-5.014230e-02
-3.504160e-02
-3.504140e-02
-5.014570e-02
-5.014390e-02
-5.014230e-02
-5.014390e-02
-4.113970e-02
-4.113530e-02
-5.014390e-02
-5.014570e-02
-4.113530e-02
-4.113030e-02
-5.014390e-02
-5.014230e-02
-4.113530e-02
-4.113970e-02
-5.014570e-02
-5.014390e-02
-4.113030e-02
-4.113530e-02
-4.113970e-02
-4.113530e-02
-2.464970e-02
-2.465490e-02
-4.113530e-02
-4.113030e-02
-2.465490e-02
-2.466130e-02
-4.113530e-02
-4.113970e-02
-2.465490e-02
-2.464970e-02
-4.113030e-02
-4.113530e-02
-2.466130e-02
-2.465490e-02
-2.464970e-02
-2.465490e-02
-1.179150e-02
-1.179220e-02
-2.465490e-02
-2.466130e-02
-1.179220e-02
-1.179100e-02
-2.465490e-02
-2.464970e-02
-1.179220e-02
-1.179150e-02
-2.466130e-02
-2.465490e-02
-1.179100e-02
-1.179220e-02
-1.179150e-02
-1.179220e-02
-4.891410e-03
-4.880760e-03
-1.179220e-02
-1.179100e-02
-4.880760e-03
-4.872370e-03
-1.179220e-02
-1.179150e-02
-4.880760e-03
-4.891410e-03
-1.179100e-02
-1.179220e-02
-4.872370e-03
-4.880760e-03
-4.891410e-03
-4.880760e-03
-2.142520e-03
-2.146900e-03
-4.880760e-03
-4.872370e-03
-2.146900e-03
-2.150000e-03
-4.880760e-03
-4.891410e-03
-2.146900e-03
-2.142520e-03
-4.872370e-03
-4.880760e-03
-2.150000e-03
-2.146900e-03
-2.142520e-03
-2.146900e-03
-1.509860e-03
-1.518800e-03
-2.146900e-03
-2.150000e-03
-1.518800e-03
-1.525050e-03
-2.146900e-03
-2.142520e-03
-1.518800e-03
-1.509860e-03
-2.150000e-03
-2.146900e-03
-1.525050e-03
-1.518800e-03
-1.509860e-03
-1.518800e-03
-9.805930e-04
-1.002120e-03
-1.518800e-03
-1.525050e-03
-1.002120e-03
-1.032940e-03
-1.518800e-03
-1.509860e-03
-1.002120e-03
-9.805930e-04
-1.525050e-03
-1.518800e-03
-1.032940e-03
-1.002120e-03
-9.805930e-04
-1.002120e-03
-9.513450e-04
-9.349000e-04
-1.002120e-03
-1.032940e-03
-9.349000e-04
-9.111830e-04
-1.002120e-03
-9.805930e-04
-9.349000e-04
-9.513450e-04
-1.032940e-03
-1.002120e-03
-9.111830e-04
-9.349000e-04
-9.513450e-04
-9.349000e-04
-8.759730e-04
-8.737330e-04
-9.349000e-04
-9.111830e-04
-8.737330e-04
-8.636080e-04
-9.349000e-04
-9.513450e-04
-8.737330e-04
-8.759720e-04
-9.111830e-04
-9.349000e-04
-8.636080e-04
-8.737330e-04
-8.759730e-04
-8.737330e-04
-7.944050e-04
-7.703680e-04
-8.737330e-04
-8.636080e-04
-7.703680e-04
-7.575820e-04
-8.737330e-04
-8.759720e-04
-7.703680e-04
-7.944050e-04
-8.636080e-04
-8.737330e-04
-7.575820e-04
-7.703680e-04
-7.944050e-04
-7.703680e-04
-6.804680e-04
-6.736900e-04
-7.703680e-04
-7.575820e-04
-6.736900e-04
-6.713330e-04
-7.703680e-04
-7.944050e-04
-6.736900e-04
-6.804670e-04
-7.575820e-04
-7.703680e-04
-6.713330e-04
-6.736900e-04
-6.804680e-04
-6.736900e-04
-5.250340e-04
-5.157550e-04
-6.736900e-04
-6.713330e-04
-5.157550e-04
-4.851810e-04
-6.736900e-04
-6.804670e-04
-5.157550e-04
-5.250340e-04
-6.713330e-04
-6.736900e-04
-4.851810e-04
-5.157550e-04
-5.250340e-04
-5.157550e-04
-6.587250e-04
-5.927250e-04
-5.157550e-04
-4.851810e-04
-5.927250e-04
-5.809600e-04
-5.157550e-04
-5.250340e-04
-5.927250e-04
-6.587250e-04
-4.851810e-04
-5.157550e-04
-5.809600e-04
-5.927260e-04
-6.587250e-04
-5.927250e-04
-4.884030e-04
-4.715160e-04
-5.927250e-04
-5.809600e-04
-4.715160e-04
-5.603540e-04
-5.927250e-04
-6.587250e-04
-4.715160e-04
-4.884030e-04
-5.809600e-04
-5.927260e-04
-5.603540e-04
-4.715150e-04
-4.884030e-04
-4.715160e-04
-3.583320e-04
-4.552770e-04
-4.715160e-04
-5.603540e-04
-4.552770e-04
-3.987520e-04
-4.715160e-04
-4.884030e-04
-4.552770e-04
-3.583320e-04
-5.603540e-04
-4.715150e-04
-3.987520e-04
-4.552770e-04
-3.583320e-04
-4.552770e-04
-5.844960e-04
-6.580210e-04
-4.552770e-04
-3.987520e-04
-6.580210e-04
-6.686780e-04
-4.552770e-04
-3.583320e-04
-6.580210e-04
-5.844960e-04
-3.987520e-04
-4.552770e-04
-6.686780e-04
-6.580210e-04
-5.844960e-04
-6.580210e-04
-5.415350e-04
-5.556730e-04
-6.580210e-04
-6.686780e-04
-5.556730e-04
-6.594250e-04
-6.580210e-04
-5.844960e-04
-5.556730e-04
-5.415340e-04
-6.686780e-04
-6.580210e-04
-6.594250e-04
-5.556730e-04
-5.415350e-04
-5.556730e-04
-5.095610e-04
-3.613180e-04
-5.556730e-04
-6.594250e-04
-3.613180e-04
-2.537940e-04
-5.556730e-04
-5.415340e-04
-3.613180e-04
-5.095610e-04
-6.594250e-04
-5.556730e-04
-2.537940e-04
-3.613180e-04
-5.095610e-04
-3.613180e-04
-3.913010e-04
-3.634240e-04
-3.613180e-04
-2.537940e-04
-3.634240e-04
-3.334590e-04
-3.613180e-04
-5.095610e-04
-3.634240e-04
-3.913010e-04
-2.537940e-04
-3.613180e-04
-3.334590e-04
-3.634240e-04
-3.913010e-04
-3.634240e-04
-2.908660e-04
-4.003300e-04
-3.634240e-04
-3.334590e-04
-4.003300e-04
-4.767870e-04
-3.634240e-04
-3.913010e-04
-4.003300e-04
-2.908660e-04
-3.334590e-04
-3.634240e-04
-4.767870e-04
-4.003300e-04
-2.908660e-04
-4.003300e-04
-1.616300e-03
-1.559420e-03
-4.003300e-04
-4.767870e-04
-1.559420e-03
-1.500320e-03
-4.003300e-04
-2.908660e-04
-1.559420e-03
-1.616300e-03
-4.767870e-04
-4.003300e-04
-1.500320e-03
-1.559420e-03
-1.616300e-03
-1.559420e-03
-2.201930e-03
-2.223770e-03
-1.559420e-03
-1.500320e-03
-2.223770e-03
-2.236760e-03
-1.559420e-03
-1.616300e-03
-2.223770e-03
-2.201930e-03
-1.500320e-03
-1.559420e-03
-2.236760e-03
-2.223770e-03
0.000000e+00
0.000000e+00
5.825670e-04
5.826060e-04
0.000000e+00
0.000000e+00
5.825270e-04
5.825660e-04
0.000000e+00
0.000000e+00
5.826060e-04
5.825670e-04
0.000000e+00
0.000000e+00
5.825660e-04
5.825250e-04
5.825670e-04
5.826060e-04
-7.487090e-04
-7.487370e-04
5.825270e-04
5.825660e-04