<?xml version="1.0"?>
<VTKFile type="UnstructuredGrid" version="0.1" byte_order="LittleEndian" compressor="vtkZLibDataCompressor">
<UnstructuredGrid>
<Piece NumberOfPoints="960" NumberOfCells="120">
<Points>
<DataArray type="Float32" NumberOfComponents="3" format="ascii">
-4.000000e+02 -6.000000e+03 -4.000000e+02
0.000000e+00 -6.000000e+03 -4.000000e+02
-4.000000e+02 -5.600000e+03 -4.000000e+02
-2.399970e-10 -5.600000e+03 -4.000000e+02
-4.000000e+02 -6.000000e+03 0.000000e+00
0.000000e+00 -6.000000e+03 0.000000e+00
-4.000000e+02 -5.600000e+03 -4.263580e-12
9.845060e-11 -5.600000e+03 -9.974520e-11
0.000000e+00 -6.000000e+03 -4.000000e+02
4.000000e+02 -6.000000e+03 -4.000000e+02
-2.399970e-10 -5.600000e+03 -4.000000e+02
4.000000e+02 -5.600000e+03 -4.000000e+02
0.000000e+00 -6.000000e+03 0.000000e+00
4.000000e+02 -6.000000e+03 0.000000e+00
9.845060e-11 -5.600000e+03 -9.974520e-11
4.000000e+02 -5.600000e+03 6.823670e-11
-4.000000e+02 -5.600000e+03 -4.000000e+02
-2.399970e-10 -5.600000e+03 -4.000000e+02
-4.000000e+02 -5.200000e+03 -4.000000e+02
-5.877720e-11 -5.200000e+03 -4.000000e+02
-4.000000e+02 -5.600000e+03 -4.263580e-12
9.845060e-11 -5.600000e+03 -9.974520e-11
-4.000000e+02 -5.200000e+03 2.019750e-10
1.459360e-10 -5.200000e+03 -3.600370e-10
-2.399970e-10 -5.600000e+03 -4.000000e+02
4.000000e+02 -5.600000e+03 -4.000000e+02
-5.877720e-11 -5.200000e+03 -4.000000e+02
4.000000e+02 -5.200000e+03 -4.000000e+02
9.845060e-11 -5.600000e+03 -9.974520e-11
4.000000e+02 -5.600000e+03 6.823670e-11
1.459360e-10 -5.200000e+03 -3.600370e-10
4.000000e+02 -5.200000e+03 -1.331050e-11
-4.000000e+02 -5.200000e+03 -4.000000e+02
-5.877720e-11 -5.200000e+03 -4.000000e+02
-4.000000e+02 -4.800010e+03 -4.000000e+02
5.672380e-11 -4.800010e+03 -4.000000e+02
-4.000000e+02 -5.200000e+03 2.019750e-10
1.459360e-10 -5.200000e+03 -3.600370e-10
-4.000000e+02 -4.800010e+03 -1.233340e-10
3.830390e-10 -4.800010e+03 -7.537560e-13
-5.877720e-11 -5.200000e+03 -4.000000e+02
4.000000e+02 -5.200000e+03 -4.000000e+02
5.672380e-11 -4.800010e+03 -4.000000e+02
4.000000e+02 -4.800010e+03 -4.000000e+02
1.459360e-10 -5.200000e+03 -3.600370e-10
4.000000e+02 -5.200000e+03 -1.331050e-11
3.830390e-10 -4.800010e+03 -7.537560e-13
4.000000e+02 -4.800010e+03 -1.515730e-10
-4.000000e+02 -4.800010e+03 -4.000000e+02
5.672380e-11 -4.800010e+03 -4.000000e+02
-4.000000e+02 -4.400010e+03 -4.000000e+02
3.622580e-10 -4.400010e+03 -4.000000e+02
-4.000000e+02 -4.800010e+03 -1.233340e-10
3.830390e-10 -4.800010e+03 -7.537560e-13
-4.000000e+02 -4.400010e+03 -2.018180e-10
6.280940e-10 -4.400010e+03 7.903700e-11
5.672380e-11 -4.800010e+03 -4.000000e+02
4.000000e+02 -4.800010e+03 -4.000000e+02
3.622580e-10 -4.400010e+03 -4.000000e+02
4.000000e+02 -4.400010e+03 -4.000000e+02
3.830390e-10 -4.800010e+03 -7.537560e-13
4.000000e+02 -4.800010e+03 -1.515730e-10
6.280940e-10 -4.400010e+03 7.903700e-11
4.000000e+02 -4.400010e+03 -4.049160e-11
-4.000000e+02 -4.400010e+03 -4.000000e+02
3.622580e-10 -4.400010e+03 -4.000000e+02
-4.000000e+02 -4.000010e+03 -4.000000e+02
9.936870e-10 -4.000010e+03 -4.000000e+02
-4.000000e+02 -4.400010e+03 -2.018180e-10
6.280940e-10 -4.400010e+03 7.903700e-11
-4.000000e+02 -4.000010e+03 3.453660e-10
4.555810e-10 -4.000010e+03 3.305250e-10
3.622580e-10 -4.400010e+03 -4.000000e+02
4.000000e+02 -4.400010e+03 -4.000000e+02
9.936870e-10 -4.000010e+03 -4.000000e+02
4.000000e+02 -4.000010e+03 -4.000000e+02
6.280940e-10 -4.400010e+03 7.903700e-11
4.000000e+02 -4.400010e+03 -4.049160e-11
4.555810e-10 -4.000010e+03 3.305250e-10
4.000000e+02 -4.000010e+03 -1.462140e-11
-4.000000e+02 -4.000010e+03 -4.000000e+02
9.936870e-10 -4.000010e+03 -4.000000e+02
-4.000000e+02 -3.600020e+03 -4.000000e+02
8.863710e-10 -3.600020e+03 -4.000000e+02
-4.000000e+02 -4.000010e+03 3.453660e-10
4.555810e-10 -4.000010e+03 3.305250e-10
-4.000000e+02 -3.600020e+03 -6.160120e-12
2.734640e-10 -3.600020e+03 9.874470e-11
9.936870e-10 -4.000010e+03 -4.000000e+02
4.000000e+02 -4.000010e+03 -4.000000e+02
8.863710e-10 -3.600020e+03 -4.000000e+02
4.000000e+02 -3.600020e+03 -4.000000e+02
4.555810e-10 -4.000010e+03 3.305250e-10
4.000000e+02 -4.000010e+03 -1.462140e-11
2.734640e-10 -3.600020e+03 9.874470e-11
4.000000e+02 -3.600020e+03 -1.031160e-11
-4.000000e+02 -3.600020e+03 -4.000000e+02
8.863710e-10 -3.600020e+03 -4.000000e+02
-4.000000e+02 -3.200030e+03 -4.000000e+02
6.484210e-11 -3.200030e+03 -4.000000e+02
-4.000000e+02 -3.600020e+03 -6.160120e-12
2.734640e-10 -3.600020e+03 9.874470e-11
-4.000000e+02 -3.200030e+03 -5.207920e-10
3.680410e-10 -3.200030e+03 -1.807500e-10
8.863710e-10 -3.600020e+03 -4.000000e+02
4.000000e+02 -3.600020e+03 -4.000000e+02
6.484210e-11 -3.200030e+03 -4.000000e+02
4.000000e+02 -3.200030e+03 -4.000000e+02
2.734640e-10 -3.600020e+03 9.874470e-11
4.000000e+02 -3.600020e+03 -1.031160e-11
3.680410e-10 -3.200030e+03 -1.807500e-10
4.000000e+02 -3.200030e+03 -4.888980e-11
-4.000000e+02 -3.200030e+03 -4.000000e+02
6.484210e-11 -3.200030e+03 -4.000000e+02
-4.000000e+02 -2.800050e+03 -4.000000e+02
-1.311620e-10 -2.800050e+03 -4.000000e+02
-4.000000e+02 -3.200030e+03 -5.207920e-10
3.680410e-10 -3.200030e+03 -1.807500e-10
-4.000000e+02 -2.800050e+03 -3.753970e-10
6.891500e-11 -2.800050e+03 1.638560e-10
6.484210e-11 -3.200030e+03 -4.000000e+02
4.000000e+02 -3.200030e+03 -4.000000e+02
-1.311620e-10 -2.800050e+03 -4.000000e+02
4.000000e+02 -2.800050e+03 -4.000000e+02
3.680410e-10 -3.200030e+03 -1.807500e-10
4.000000e+02 -3.200030e+03 -4.888980e-11
6.891500e-11 -2.800050e+03 1.638560e-10
4.000000e+02 -2.800050e+03 -3.772780e-12
-4.000000e+02 -2.800050e+03 -4.000000e+02
-1.311620e-10 -2.800050e+03 -4.000000e+02
-4.000000e+02 -2.400090e+03 -4.000000e+02
1.055230e-11 -2.400090e+03 -4.000000e+02
-4.000000e+02 -2.800050e+03 -3.753970e-10
6.891500e-11 -2.800050e+03 1.638560e-10
-4.000000e+02 -2.400090e+03 -4.017830e-11
1.018240e-10 -2.400090e+03 -3.932590e-11
-1.311620e-10 -2.800050e+03 -4.000000e+02
4.000000e+02 -2.800050e+03 -4.000000e+02
1.055230e-11 -2.400090e+03 -4.000000e+02
4.000000e+02 -2.400090e+03 -4.000000e+02
6.891500e-11 -2.800050e+03 1.638560e-10
4.000000e+02 -2.800050e+03 -3.772780e-12
1.018240e-10 -2.400090e+03 -3.932590e-11
4.000000e+02 -2.400090e+03 2.293380e-10
-4.000000e+02 -2.400090e+03 -4.000000e+02
1.055230e-11 -2.400090e+03 -4.000000e+02
-4.000000e+02 -2.000140e+03 -4.000000e+02
5.399480e-10 -2.000140e+03 -4.000000e+02
-4.000000e+02 -2.400090e+03 -4.017830e-11
1.018240e-10 -2.400090e+03 -3.932590e-11
-4.000000e+02 -2.000140e+03 -1.076010e-10
4.212440e-10 -2.000140e+03 -2.596050e-10
1.055230e-11 -2.400090e+03 -4.000000e+02
4.000000e+02 -2.400090e+03 -4.000000e+02
5.399480e-10 -2.000140e+03 -4.000000e+02
4.000000e+02 -2.000140e+03 -4.000000e+02
1.018240e-10 -2.400090e+03 -3.932590e-11
4.000000e+02 -2.400090e+03 2.293380e-10
4.212440e-10 -2.000140e+03 -2.596050e-10
4.000000e+02 -2.000140e+03 5.023620e-11
-4.000000e+02 -2.000140e+03 -4.000000e+02
5.399480e-10 -2.000140e+03 -4.000000e+02
-4.000000e+02 -1.600200e+03 -4.000000e+02
7.205020e-10 -1.600200e+03 -4.000000e+02
-4.000000e+02 -2.000140e+03 -1.076010e-10
4.212440e-10 -2.000140e+03 -2.596050e-10
-4.000000e+02 -1.600200e+03 1.824510e-10
5.625950e-10 -1.600200e+03 1.150920e-10
5.399480e-10 -2.000140e+03 -4.000000e+02
4.000000e+02 -2.000140e+03 -4.000000e+02
7.205020e-10 -1.600200e+03 -4.000000e+02
4.000000e+02 -1.600200e+03 -4.000000e+02
4.212440e-10 -2.000140e+03 -2.596050e-10
4.000000e+02 -2.000140e+03 5.023620e-11
5.625950e-10 -1.600200e+03 1.150920e-10
4.000000e+02 -1.600200e+03 3.422320e-10
-4.000000e+02 -1.600200e+03 -4.000000e+02
7.205020e-10 -1.600200e+03 -4.000000e+02
-4.000000e+02 -1.200260e+03 -4.000000e+02
6.932080e-10 -1.200260e+03 -4.000000e+02
-4.000000e+02 -1.600200e+03 1.824510e-10
5.625950e-10 -1.600200e+03 1.150920e-10
-4.000000e+02 -1.200260e+03 1.649640e-10
4.396150e-10 -1.200260e+03 4.101120e-10
7.205020e-10 -1.600200e+03 -4.000000e+02
4.000000e+02 -1.600200e+03 -4.000000e+02
6.932080e-10 -1.200260e+03 -4.000000e+02
4.000000e+02 -1.200260e+03 -4.000000e+02
5.625950e-10 -1.600200e+03 1.150920e-10
4.000000e+02 -1.600200e+03 3.422320e-10
4.396150e-10 -1.200260e+03 4.101120e-10
4.000000e+02 -1.200260e+03 6.812530e-10
-4.000000e+02 -1.200260e+03 -4.000000e+02
6.932080e-10 -1.200260e+03 -4.000000e+02
-4.000000e+02 -8.002830e+02 -4.000000e+02
4.139700e-10 -8.002830e+02 -4.000000e+02
-4.000000e+02 -1.200260e+03 1.649640e-10
4.396150e-10 -1.200260e+03 4.101120e-10
-4.000000e+02 -8.002830e+02 3.313300e-10
1.976120e-10 -8.002830e+02 6.889040e-10
6.932080e-10 -1.200260e+03 -4.000000e+02
4.000000e+02 -1.200260e+03 -4.000000e+02
4.139700e-10 -8.002830e+02 -4.000000e+02
4.000000e+02 -8.002830e+02 -4.000000e+02
4.396150e-10 -1.200260e+03 4.101120e-10
4.000000e+02 -1.200260e+03 6.812530e-10
1.976120e-10 -8.002830e+02 6.889040e-10
4.000000e+02 -8.002830e+02 8.341170e-10
-4.000000e+02 -8.002830e+02 -4.000000e+02
4.139700e-10 -8.002830e+02 -4.000000e+02
-4.000000e+02 -4.002760e+02 -4.000000e+02
4.464870e-10 -4.002760e+02 -4.000000e+02
-4.000000e+02 -8.002830e+02 3.313300e-10
1.976120e-10 -8.002830e+02 6.889040e-10
-4.000000e+02 -4.002760e+02 6.317180e-10
2.110930e-10 -4.002760e+02 4.994500e-10
4.139700e-10 -8.002830e+02 -4.000000e+02
4.000000e+02 -8.002830e+02 -4.000000e+02
4.464870e-10 -4.002760e+02 -4.000000e+02
4.000000e+02 -4.002760e+02 -4.000000e+02
1.976120e-10 -8.002830e+02 6.889040e-10
4.000000e+02 -8.002830e+02 8.341170e-10
2.110930e-10 -4.002760e+02 4.994500e-10
4.000000e+02 -4.002760e+02 6.032280e-10
-4.000000e+02 -4.002760e+02 -4.000000e+02
4.464870e-10 -4.002760e+02 -4.000000e+02
-4.000000e+02 -2.538120e-01 -4.000000e+02
6.324870e-10 -2.538170e-01 -4.000000e+02
-4.000000e+02 -4.002760e+02 6.317180e-10
2.110930e-10 -4.002760e+02 4.994500e-10
-4.000000e+02 -2.538170e-01 3.988680e-10
1.235500e-10 -2.538250e-01 5.403010e-10
4.464870e-10 -4.002760e+02 -4.000000e+02
4.000000e+02 -4.002760e+02 -4.000000e+02
6.324870e-10 -2.538170e-01 -4.000000e+02
4.000000e+02 -2.538120e-01 -4.000000e+02
2.110930e-10 -4.002760e+02 4.994500e-10
[...]
<PointData>
<DataArray type="Float32" Name="V1" format="ascii">
0.000000e+00
0.000000e+00
2.211880e-06
-2.777560e-10
0.000000e+00
0.000000e+00
3.333570e-06
-1.907200e-10
0.000000e+00
0.000000e+00
-2.777560e-10
-2.212160e-06
0.000000e+00
0.000000e+00
-1.907200e-10
-3.334110e-06
2.211880e-06
-2.777560e-10
-9.495570e-07
-4.975050e-10
3.333570e-06
-1.907200e-10
-1.937540e-06
1.134310e-11
-2.777560e-10
-2.212160e-06
-4.975050e-10
9.491880e-07
-1.907200e-10
-3.334110e-06
1.134310e-11
1.937600e-06
-9.495570e-07
-4.975050e-10
-2.806160e-06
3.712720e-10
-1.937540e-06
1.134310e-11
-4.494830e-06
-1.905020e-10
-4.975050e-10
9.491880e-07
3.712720e-10
2.806670e-06
1.134310e-11
1.937600e-06
-1.905020e-10
4.494350e-06
-2.806160e-06
3.712720e-10
4.473130e-06
-1.636770e-11
-4.494830e-06
-1.905020e-10
6.811790e-06
1.718610e-10
3.712720e-10
2.806670e-06
-1.636770e-11
-4.473410e-06
-1.905020e-10
4.494350e-06
1.718610e-10
-6.811640e-06
4.473130e-06
-1.636770e-11
-9.633370e-06
-3.543540e-10
6.811790e-06
1.718610e-10
-1.027580e-05
3.472030e-10
-1.636770e-11
-4.473410e-06
-3.543540e-10
9.632520e-06
1.718610e-10
-6.811640e-06
3.472030e-10
1.027630e-05
-9.633370e-06
-3.543540e-10
1.491150e-05
5.564800e-10
-1.027580e-05
3.472030e-10
1.347390e-05
-6.024960e-12
-3.543540e-10
9.632520e-06
5.564800e-10
-1.491100e-05
3.472030e-10
1.027630e-05
-6.024960e-12
-1.347390e-05
1.491150e-05
5.564800e-10
-2.104680e-07
7.382220e-10
1.347390e-05
-6.024960e-12
-3.347830e-07
-2.197380e-10
5.564800e-10
-1.491100e-05
7.382220e-10
2.118030e-07
-6.024960e-12
-1.347390e-05
-2.197380e-10
3.345630e-07
-2.104680e-07
7.382220e-10
-1.514250e-05
-5.915090e-11
-3.347830e-07
-2.197380e-10
-1.244610e-05
2.365810e-10
7.382220e-10
2.118030e-07
-5.915090e-11
1.514250e-05
-2.197380e-10
3.345630e-07
2.365810e-10
1.244660e-05
-1.514250e-05
-5.915090e-11
9.440980e-06
1.934990e-10
-1.244610e-05
2.365810e-10
9.862250e-06
-1.956280e-10
-5.915090e-11
1.514250e-05
1.934990e-10
-9.440940e-06
2.365810e-10
1.244660e-05
-1.956280e-10
-9.862530e-06
9.440980e-06
1.934990e-10
6.795800e-06
1.089250e-10
9.862250e-06
-1.956280e-10
3.422310e-06
-1.567380e-10
1.934990e-10
-9.440940e-06
1.089250e-10
-6.795650e-06
-1.956280e-10
-9.862530e-06
-1.567380e-10
-3.422430e-06
6.795800e-06
1.089250e-10
-2.720740e-06
-8.710340e-11
3.422310e-06
-1.567380e-10
-1.988250e-06
2.067390e-10
1.089250e-10
-6.795650e-06
-8.710340e-11
2.720660e-06
-1.567380e-10
-3.422430e-06
2.067390e-10
1.988580e-06
-2.720740e-06
-8.710340e-11
-1.518500e-05
-1.683800e-10
-1.988250e-06
2.067390e-10
-1.404880e-05
1.482560e-10
-8.710340e-11
2.720660e-06
-1.683800e-10
1.518470e-05
2.067390e-10
1.988580e-06
1.482560e-10
1.404940e-05
-1.518500e-05
-1.683800e-10
5.633060e-06
2.386170e-10
-1.404880e-05
1.482560e-10
5.197450e-06
-1.129090e-10
-1.683800e-10
1.518470e-05
2.386170e-10
-5.632080e-06
1.482560e-10
1.404940e-05
-1.129090e-10
-5.197380e-06
5.633060e-06
2.386170e-10
5.567500e-06
-3.599980e-10
5.197450e-06
-1.129090e-10
7.746600e-06
-3.347140e-10
2.386170e-10
-5.632080e-06
-3.599980e-10
-5.568610e-06
-1.129090e-10
-5.197380e-06
-3.347140e-10
-7.747090e-06
5.567500e-06
-3.599980e-10
7.649340e-07
-1.234610e-10
7.746600e-06
-3.347140e-10
3.200750e-06
-1.899100e-12
-3.599980e-10
-5.568610e-06
-1.234610e-10
-7.648790e-07
-3.347140e-10
-7.747090e-06
-1.899100e-12
-3.200720e-06
7.649340e-07
-1.234610e-10
-3.029460e-06
2.880480e-10
3.200750e-06
-1.899100e-12
-2.480810e-06
-1.562580e-10
-1.234610e-10
-7.648790e-07
2.880480e-10
3.029990e-06
-1.899100e-12
-3.200720e-06
-1.562580e-10
2.480920e-06
-3.029460e-06
2.880480e-10
-6.947940e-06
-6.533590e-11
-2.480810e-06
-1.562580e-10
-7.314980e-06
-1.231370e-10
2.880480e-10
3.029990e-06
-6.533590e-11
6.947300e-06
-1.562580e-10
2.480920e-06
-1.231370e-10
7.314490e-06
-6.947940e-06
-6.533590e-11
-5.481660e-06
2.263280e-10
-7.314980e-06
-1.231370e-10
-6.326550e-06
1.439080e-10
-6.533590e-11
6.947300e-06
2.263280e-10
5.482090e-06
-1.231370e-10
7.314490e-06
1.439080e-10
6.326840e-06
-5.481660e-06
2.263280e-10
4.580790e-06
3.421520e-11
-6.326550e-06
1.439080e-10
7.770890e-06
2.829640e-10
2.263280e-10
5.482090e-06
3.421520e-11
-4.580730e-06
1.439080e-10
6.326840e-06
2.829640e-10
-7.770280e-06
4.580790e-06
3.421520e-11
4.848110e-06
3.049550e-10
7.770890e-06
2.829640e-10
6.029270e-06
-4.552130e-11
3.421520e-11
-4.580730e-06
3.049550e-10
-4.847660e-06
2.829640e-10
-7.770280e-06
-4.552130e-11
-6.029450e-06
4.848110e-06
3.049550e-10
-4.124010e-06
-1.555540e-11
6.029270e-06
-4.552130e-11
-2.511000e-06
-7.988020e-11
3.049550e-10
-4.847660e-06
-1.555540e-11
4.123830e-06
-4.552130e-11
-6.029450e-06
-7.988020e-11
2.510700e-06
-4.124010e-06
-1.555540e-11
-5.201110e-06
3.537640e-11
-2.511000e-06
-7.988020e-11
-8.134970e-06
8.692050e-11
-1.555540e-11
4.123830e-06
3.537640e-11
5.200930e-06
-7.988020e-11
2.510700e-06
8.692050e-11
8.134780e-06
-5.201110e-06
3.537640e-11
7.030450e-06
7.561000e-12
-8.134970e-06
8.692050e-11
8.865400e-06
5.496240e-11
3.537640e-11
5.200930e-06
7.561000e-12
-7.030610e-06
8.692050e-11
8.134780e-06
5.496240e-11
-8.865560e-06
7.030450e-06
7.561000e-12
7.258520e-07
9.729360e-11
8.865400e-06
5.496240e-11
2.651340e-06
3.017750e-10
7.561000e-12
-7.030610e-06
9.729360e-11
-7.260560e-07
5.496240e-11
-8.865560e-06
3.017750e-10
-2.651580e-06
7.258520e-07
9.729360e-11
-6.663110e-06
4.291650e-10
2.651340e-06
3.017750e-10
-9.830510e-06
3.487000e-10
9.729360e-11
-7.260560e-07
4.291650e-10
6.663790e-06
3.017750e-10
-2.651580e-06
3.487000e-10
9.830870e-06
-6.663110e-06
4.291650e-10
-3.044940e-06
-3.125600e-10
-9.830510e-06
3.487000e-10
-1.613000e-06
-3.176490e-10
4.291650e-10
6.663790e-06
-3.125600e-10
3.044320e-06
3.487000e-10
9.830870e-06
-3.176490e-10
1.612390e-06
-3.044940e-06
-3.125600e-10
3.261480e-06
-2.543870e-10
-1.613000e-06
-3.176490e-10
3.063140e-06
-1.321970e-10
-3.125600e-10
3.044320e-06
-2.543870e-10
-3.262000e-06
-3.176490e-10
1.612390e-06
-1.321970e-10
-3.063400e-06
3.261480e-06
-2.543870e-10
3.581690e-07
2.596910e-10
3.063140e-06
-1.321970e-10
-2.064380e-06
2.112580e-10
-2.543870e-10
-3.262000e-06
2.596910e-10
-3.576670e-07
-1.321970e-10
-3.063400e-06
2.112580e-10
2.064800e-06
3.581690e-07
2.596910e-10
-4.726130e-06
7.315470e-12
-2.064380e-06
2.112580e-10
2.706260e-08
-7.795190e-12
2.596910e-10
-3.576670e-07
7.315470e-12
4.726150e-06
2.112580e-10
2.064800e-06
-7.795190e-12
-2.704690e-08
-4.726130e-06
7.315470e-12
1.255450e-05
4.338930e-11
2.706260e-08
-7.795190e-12
5.744580e-06
4.300190e-11
7.315470e-12
4.726150e-06
4.338930e-11
-1.255440e-05
-7.795190e-12
-2.704690e-08
4.300190e-11
-5.744470e-06
0.000000e+00
0.000000e+00
3.333570e-06
-1.907200e-10
0.000000e+00
0.000000e+00
2.211160e-06
2.537990e-12
0.000000e+00
0.000000e+00
-1.907200e-10
-3.334110e-06
0.000000e+00
0.000000e+00
2.537990e-12
-2.211710e-06
3.333570e-06
-1.907200e-10
-1.937540e-06
1.134310e-11
2.211160e-06
2.537990e-12
-9.494780e-07
3.081980e-10
-1.907200e-10
-3.334110e-06
1.134310e-11
1.937600e-06
2.537990e-12
-2.211710e-06
3.081980e-10
9.499340e-07
-1.937540e-06
1.134310e-11
-4.494830e-06
-1.905020e-10
-9.494780e-07
3.081980e-10
-2.806780e-06
-1.898700e-10
1.134310e-11
1.937600e-06
-1.905020e-10
4.494350e-06
3.081980e-10
9.499340e-07
-1.898700e-10
2.806200e-06
-4.494830e-06
-1.905020e-10
6.811790e-06
1.718610e-10
-2.806780e-06
-1.898700e-10
4.472750e-06
-4.315220e-10
-1.905020e-10
4.494350e-06
1.718610e-10
-6.811640e-06
-1.898700e-10
2.806200e-06
-4.315220e-10
-4.473590e-06
6.811790e-06
1.718610e-10
-1.027580e-05
3.472030e-10
4.472750e-06
-4.315220e-10
-9.633800e-06
6.176970e-11
1.718610e-10
-6.811640e-06
3.472030e-10
1.027630e-05
-4.315220e-10
-4.473590e-06
6.176970e-11
9.633650e-06
-1.027580e-05
3.472030e-10
1.347390e-05
-6.024960e-12
-9.633800e-06
6.176970e-11
1.491200e-05
2.012950e-10
3.472030e-10
1.027630e-05
-6.024960e-12
-1.347390e-05
6.176970e-11
9.633650e-06
2.012950e-10
-1.491100e-05
1.347390e-05
-6.024960e-12
-3.347830e-07
-2.197380e-10
1.491200e-05
2.012950e-10
-2.103190e-07
1.361810e-10
-6.024960e-12
-1.347390e-05
-2.197380e-10
3.345630e-07
2.012950e-10
-1.491100e-05
1.361810e-10
2.108610e-07
-3.347830e-07
-2.197380e-10
-1.244610e-05
2.365810e-10
-2.103190e-07
1.361810e-10
-1.514200e-05
-6.370070e-11
-2.197380e-10
3.345630e-07
2.365810e-10
1.244660e-05
1.361810e-10
2.108610e-07
-6.370070e-11
1.514210e-05
-1.244610e-05
2.365810e-10
9.862250e-06
-1.956280e-10
-1.514200e-05
-6.370070e-11
9.442100e-06
1.446510e-10
2.365810e-10
1.244660e-05
-1.956280e-10
-9.862530e-06
-6.370070e-11
1.514210e-05
1.446510e-10
-9.442070e-06
9.862250e-06
-1.956280e-10
3.422310e-06
-1.567380e-10
9.442100e-06
1.446510e-10
6.795320e-06
-2.251840e-10
-1.956280e-10
-9.862530e-06
-1.567380e-10
-3.422430e-06
1.446510e-10
-9.442070e-06
-2.251840e-10
-6.795700e-06
3.422310e-06
-1.567380e-10
-1.988250e-06
2.067390e-10
6.795320e-06
-2.251840e-10
-2.720790e-06
-1.297830e-10
-1.567380e-10
-3.422430e-06
2.067390e-10
1.988580e-06
-2.251840e-10
-6.795700e-06
-1.297830e-10
2.720800e-06
-1.988250e-06
2.067390e-10
-1.404880e-05
1.482560e-10
-2.720790e-06
-1.297830e-10
-1.518610e-05
-2.464910e-10
2.067390e-10
1.988580e-06
1.482560e-10
1.404940e-05
-1.297830e-10
2.720800e-06
-2.464910e-10
1.518500e-05
-1.404880e-05
1.482560e-10
5.197450e-06
-1.129090e-10
-1.518610e-05
-2.464910e-10
5.633470e-06
8.013500e-10
1.482560e-10
1.404940e-05
-1.129090e-10
-5.197380e-06
-2.464910e-10
1.518500e-05
8.013500e-10
-5.632030e-06
5.197450e-06
-1.129090e-10
7.746600e-06
-3.347140e-10
5.633470e-06
8.013500e-10
5.567790e-06
-2.127990e-11
-1.129090e-10
-5.197380e-06
-3.347140e-10
-7.747090e-06
8.013500e-10
-5.632030e-06
-2.127990e-11
-5.568050e-06
7.746600e-06
-3.347140e-10
3.200750e-06
-1.899100e-12
5.567790e-06
-2.127990e-11
7.640540e-07
-6.510340e-10
-3.347140e-10
-7.747090e-06
-1.899100e-12
-3.200720e-06
-2.127990e-11
-5.568050e-06
-6.510340e-10
-7.652010e-07
3.200750e-06
-1.899100e-12
-2.480810e-06
-1.562580e-10
7.640540e-07
-6.510340e-10
-3.029440e-06
4.480520e-10
-1.899100e-12
-3.200720e-06
-1.562580e-10
2.480920e-06
-6.510340e-10
-7.652010e-07
4.480520e-10
3.030530e-06
-2.480810e-06
-1.562580e-10
-7.314980e-06
-1.231370e-10
-3.029440e-06
4.480520e-10
-6.948280e-06
-1.103140e-10
-1.562580e-10
2.480920e-06
-1.231370e-10
7.314490e-06
4.480520e-10
3.030530e-06
-1.103140e-10
6.948150e-06
-7.314980e-06
-1.231370e-10
-6.326550e-06
1.439080e-10
-6.948280e-06
-1.103140e-10
-5.481670e-06
-6.823780e-11
-1.231370e-10
7.314490e-06
1.439080e-10
6.326840e-06
-1.103140e-10
6.948150e-06
-6.823780e-11
5.481000e-06
-6.326550e-06
1.439080e-10
7.770890e-06
2.829640e-10
-5.481670e-06
-6.823780e-11
4.580630e-06
-9.667300e-11
1.439080e-10
6.326840e-06
2.829640e-10
-7.770280e-06
-6.823780e-11
5.481000e-06
-9.667300e-11
-4.580580e-06
7.770890e-06
2.829640e-10
6.029270e-06
-4.552130e-11
4.580630e-06
-9.667300e-11
4.847950e-06
1.898050e-11
2.829640e-10
-7.770280e-06
-4.552130e-11
-6.029450e-06
-9.667300e-11
-4.580580e-06
1.898050e-11
-4.848050e-06
6.029270e-06
-4.552130e-11
-2.511000e-06
-7.988020e-11
4.847950e-06
1.898050e-11
-4.123800e-06
1.522110e-10
-4.552130e-11
-6.029450e-06
-7.988020e-11
2.510700e-06
1.898050e-11
-4.848050e-06
1.522110e-10
4.123920e-06
-2.511000e-06
-7.988020e-11
-8.134970e-06
8.692050e-11
-4.123800e-06
1.522110e-10
-5.201280e-06
3.687760e-11
-7.988020e-11
2.510700e-06
8.692050e-11
8.134780e-06
1.522110e-10
4.123920e-06
3.687760e-11
5.201120e-06
-8.134970e-06
8.692050e-11
8.865400e-06
5.496240e-11
-5.201280e-06
3.687760e-11
7.030210e-06
-4.824830e-12
8.692050e-11
8.134780e-06
5.496240e-11
-8.865560e-06
3.687760e-11
5.201120e-06
-4.824830e-12
-7.030400e-06
8.865400e-06
5.496240e-11
2.651340e-06
3.017750e-10
7.030210e-06
-4.824830e-12
7.260560e-07
2.217910e-10
5.496240e-11
-8.865560e-06
3.017750e-10
-2.651580e-06
-4.824830e-12
-7.030400e-06
2.217910e-10
-7.259390e-07
2.651340e-06
3.017750e-10
-9.830510e-06
3.487000e-10
7.260560e-07
2.217910e-10
-6.663410e-06
2.509840e-10
3.017750e-10
-2.651580e-06
3.487000e-10
9.830870e-06
2.217910e-10
-7.259390e-07
2.509840e-10
6.663760e-06
-9.830510e-06
3.487000e-10
-1.613000e-06
-3.176490e-10
-6.663410e-06
2.509840e-10
-3.045000e-06
-3.306740e-10
3.487000e-10
9.830870e-06
-3.176490e-10
1.612390e-06
2.509840e-10
6.663760e-06
-3.306740e-10
3.044340e-06
-1.613000e-06
-3.176490e-10
3.063140e-06
-1.321970e-10
-3.045000e-06
-3.306740e-10
3.261780e-06
-1.257660e-10
-3.176490e-10
1.612390e-06
-1.321970e-10
-3.063400e-06
-3.306740e-10
3.044340e-06
-1.257660e-10
-3.262040e-06
3.063140e-06
-1.321970e-10
-2.064380e-06
2.112580e-10
3.261780e-06
-1.257660e-10
3.580590e-07
2.015190e-10
-1.321970e-10
-3.063400e-06
2.112580e-10
2.064800e-06
-1.257660e-10
-3.262040e-06
2.015190e-10
-3.576670e-07
-2.064380e-06
2.112580e-10
2.706260e-08
-7.795190e-12
3.580590e-07
2.015190e-10
-4.726160e-06
-5.472240e-12
2.112580e-10
2.064800e-06
-7.795190e-12
-2.704690e-08
2.015190e-10
-3.576670e-07
-5.472240e-12
4.726140e-06
2.706260e-08
-7.795190e-12
5.744580e-06
4.300190e-11
-4.726160e-06
-5.472240e-12
1.255450e-05
4.380260e-11
-7.795190e-12
-2.704690e-08
4.300190e-11
-5.744470e-06
-5.472240e-12
4.726140e-06
4.380260e-11
-1.255440e-05
</DataArray>
<DataArray type="Float32" Name="V2" format="ascii">
0.000000e+00
0.000000e+00
2.510500e-04
2.371020e-04
0.000000e+00
0.000000e+00
2.371000e-04
2.189820e-04
0.000000e+00
0.000000e+00
2.371020e-04
2.510500e-04
0.000000e+00
0.000000e+00
2.189820e-04
2.371000e-04
2.510500e-04
2.371020e-04
3.129160e-04
3.215280e-04
2.371000e-04
2.189820e-04
3.215290e-04
3.283740e-04
2.371020e-04
2.510500e-04
3.215280e-04
3.129160e-04
2.189820e-04
2.371000e-04
3.283740e-04
3.215280e-04
3.129160e-04
3.215280e-04
7.716820e-04
7.794930e-04
3.215290e-04
3.283740e-04
7.794920e-04
7.903310e-04
3.215280e-04
3.129160e-04
7.794930e-04
7.716840e-04
3.283740e-04
3.215280e-04
7.903310e-04
7.794920e-04
7.716820e-04
7.794930e-04
1.020430e-03
1.020600e-03
7.794920e-04
7.903310e-04
1.020600e-03
1.024560e-03
7.794930e-04
7.716840e-04
1.020600e-03
1.020430e-03
7.903310e-04
7.794920e-04
1.024560e-03
1.020600e-03
1.020430e-03
1.020600e-03
2.364330e-03
2.377090e-03
1.020600e-03
1.024560e-03
2.377090e-03
2.380800e-03
1.020600e-03
1.020430e-03
2.377090e-03
2.364330e-03
1.024560e-03
1.020600e-03
2.380800e-03
2.377090e-03
2.364330e-03
2.377090e-03
4.862320e-03
4.857680e-03
2.377090e-03
2.380800e-03
4.857680e-03
4.856010e-03
2.377090e-03
2.364330e-03
4.857680e-03
4.862320e-03
2.380800e-03
2.377090e-03
4.856010e-03
4.857680e-03
4.862320e-03
4.857680e-03
9.997880e-03
1.000210e-02
4.857680e-03
4.856010e-03
1.000210e-02
1.001660e-02
4.857680e-03
4.862320e-03
1.000210e-02
9.997880e-03
4.856010e-03
4.857680e-03
1.001660e-02
1.000210e-02
9.997880e-03
1.000210e-02
1.834200e-02
1.832410e-02
1.000210e-02
1.001660e-02
1.832410e-02
1.829500e-02
1.000210e-02
9.997880e-03
1.832410e-02
1.834200e-02
1.001660e-02
1.000210e-02
1.829500e-02
1.832410e-02
1.834200e-02
1.832410e-02
2.968350e-02
2.967410e-02
1.832410e-02
1.829500e-02
2.967410e-02
2.966720e-02
1.832410e-02
1.834200e-02
2.967410e-02
2.968350e-02
1.829500e-02
1.832410e-02
2.966720e-02
2.967410e-02
2.968350e-02
2.967410e-02
3.992810e-02
3.992960e-02
2.967410e-02
2.966720e-02
3.992960e-02
3.993340e-02
2.967410e-02
2.968350e-02
3.992960e-02
3.992810e-02
2.966720e-02
2.967410e-02
3.993340e-02
3.992960e-02
3.992810e-02
3.992960e-02
4.169730e-02
4.169830e-02
3.992960e-02
3.993340e-02
4.169830e-02
4.169190e-02
3.992960e-02
3.992810e-02
4.169830e-02
4.169730e-02
3.993340e-02
3.992960e-02
4.169190e-02
4.169830e-02
4.169730e-02
4.169830e-02
2.920110e-02
2.920170e-02
4.169830e-02
4.169190e-02
2.920180e-02
2.921150e-02
4.169830e-02
4.169730e-02
2.920170e-02
2.920110e-02
4.169190e-02
4.169830e-02
2.921150e-02
2.920180e-02
2.920110e-02
2.920170e-02
5.129870e-03
5.124630e-03
2.920180e-02
2.921150e-02
5.124630e-03
5.125520e-03
2.920170e-02
2.920110e-02
5.124630e-03
5.129860e-03
2.921150e-02
2.920180e-02
5.125520e-03
5.124630e-03
5.129870e-03
5.124630e-03
-1.525460e-02
-1.525270e-02
5.124630e-03
5.125520e-03
-1.525270e-02
-1.525510e-02
5.124630e-03
5.129860e-03
-1.525270e-02
-1.525460e-02
5.125520e-03
5.124630e-03
-1.525510e-02
-1.525270e-02
-1.525460e-02
-1.525270e-02
-1.626380e-02
-1.623650e-02
-1.525270e-02
-1.525510e-02
-1.623650e-02
-1.621200e-02
-1.525270e-02
-1.525460e-02
-1.623650e-02
-1.626380e-02
-1.525510e-02
-1.525270e-02
-1.621200e-02
-1.623650e-02
-1.626380e-02
-1.623650e-02
-1.284960e-04
-1.152890e-04
-1.623650e-02
-1.621200e-02
-1.152890e-04
-9.473900e-05
-1.623650e-02
-1.626380e-02
-1.152890e-04
-1.284940e-04
-1.621200e-02
-1.623650e-02
-9.473900e-05
-1.152900e-04
-1.284960e-04
-1.152890e-04
9.917440e-03
9.922300e-03
-1.152890e-04
-9.473900e-05
9.922300e-03
9.933860e-03
-1.152890e-04
-1.284940e-04
9.922300e-03
9.917440e-03
-9.473900e-05
-1.152900e-04
9.933860e-03
9.922310e-03
9.917440e-03
9.922300e-03
1.376190e-03
1.386390e-03
9.922300e-03
9.933860e-03
1.386390e-03
1.396890e-03
9.922300e-03
9.917440e-03
1.386390e-03
1.376190e-03
9.933860e-03
9.922310e-03
1.396890e-03
1.386390e-03
1.376190e-03
1.386390e-03
-6.082670e-03
-6.084820e-03
1.386390e-03
1.396890e-03
-6.084820e-03
-6.075950e-03
1.386390e-03
1.376190e-03
-6.084820e-03
-6.082670e-03
1.396890e-03
1.386390e-03
-6.075950e-03
-6.084820e-03
-6.082670e-03
-6.084820e-03
-6.073310e-04
-5.983320e-04
-6.084820e-03
-6.075950e-03
-5.983330e-04
-5.947930e-04
-6.084820e-03
-6.082670e-03
-5.983320e-04
-6.073340e-04
-6.075950e-03
-6.084820e-03
-5.947930e-04
-5.983340e-04
-6.073310e-04
-5.983320e-04
2.169830e-03
2.177400e-03
-5.983330e-04
-5.947930e-04
2.177400e-03
2.182340e-03
-5.983320e-04
-6.073340e-04
2.177400e-03
2.169830e-03
-5.947930e-04
-5.983340e-04
2.182340e-03
2.177400e-03
2.169830e-03
2.177400e-03
-3.553180e-04
-3.584900e-04
2.177400e-03
2.182340e-03
-3.584910e-04
-3.668960e-04
2.177400e-03
2.169830e-03
-3.584900e-04
-3.553170e-04
2.182340e-03
2.177400e-03
-3.668960e-04
-3.584910e-04
-3.553180e-04
-3.584900e-04
-7.240440e-04
-7.243330e-04
-3.584910e-04
-3.668960e-04
-7.243330e-04
-7.246300e-04
-3.584900e-04
-3.553170e-04
-7.243330e-04
-7.240470e-04
-3.668960e-04
-3.584910e-04
-7.246300e-04
-7.243330e-04
-7.240440e-04
-7.243330e-04
1.394400e-04
1.247020e-04
-7.243330e-04
-7.246300e-04
1.247040e-04
1.433730e-04
-7.243330e-04
-7.240470e-04
1.247020e-04
1.394410e-04
-7.246300e-04
-7.243330e-04
1.433730e-04
1.247040e-04
1.394400e-04
1.247020e-04
7.964490e-05
9.881220e-05
1.247040e-04
1.433730e-04
9.881250e-05
9.365660e-05
1.247020e-04
1.394410e-04
9.881220e-05
7.964810e-05
1.433730e-04
1.247040e-04
9.365660e-05
9.881360e-05
7.964490e-05
9.881220e-05
-1.738280e-04
-1.472150e-04
9.881250e-05
9.365660e-05
-1.472120e-04
-1.266080e-04
9.881220e-05
7.964810e-05
-1.472150e-04
-1.738320e-04
9.365660e-05
9.881360e-05
-1.266080e-04
-1.472160e-04
-1.738280e-04
-1.472150e-04
-3.691210e-05
-8.719860e-05
-1.472120e-04
-1.266080e-04
-8.719950e-05
-8.399560e-05
-1.472150e-04
-1.738320e-04
-8.719860e-05
-3.690830e-05
-1.266080e-04
-1.472160e-04
-8.399560e-05
-8.719680e-05
-3.691210e-05
-8.719860e-05
5.400180e-05
9.052770e-05
-8.719950e-05
-8.399560e-05
9.052650e-05
8.025720e-05
-8.719860e-05
-3.690830e-05
9.052770e-05
5.400050e-05
-8.399560e-05
-8.719680e-05
8.025720e-05
9.052650e-05
5.400180e-05
9.052770e-05
7.514730e-05
8.173540e-05
9.052650e-05
8.025720e-05
8.173520e-05
6.087470e-05
9.052770e-05
5.400050e-05
8.173540e-05
7.514690e-05
8.025720e-05
9.052650e-05
6.087470e-05
8.173500e-05
7.514730e-05
8.173540e-05
1.398000e-04
9.442890e-05
8.173520e-05
6.087470e-05
9.442890e-05
1.304510e-04
8.173540e-05
7.514690e-05
9.442890e-05
1.398000e-04
6.087470e-05
8.173500e-05
1.304510e-04
9.442890e-05
0.000000e+00
0.000000e+00
2.371000e-04
2.189820e-04
0.000000e+00
0.000000e+00
2.510510e-04
2.371020e-04
0.000000e+00
0.000000e+00
2.189820e-04
2.371000e-04
0.000000e+00
0.000000e+00
2.371020e-04
2.510510e-04
2.371000e-04
2.189820e-04
3.215290e-04
3.283740e-04
2.510510e-04
2.371020e-04
3.129150e-04
3.215290e-04
2.189820e-04
2.371000e-04
3.283740e-04
3.215280e-04
2.371020e-04
2.510510e-04
3.215290e-04
3.129150e-04
3.215290e-04
3.283740e-04
7.794920e-04
7.903310e-04
3.129150e-04
3.215290e-04
7.716860e-04
7.794950e-04