<?xml version="1.0"?>
<!-- time 47.8373-->
<VTKFile type="UnstructuredGrid" version="0.1" byte_order="LittleEndian">
<UnstructuredGrid>
<Piece NumberOfPoints="960" NumberOfCells="0">
<Points>
  <DataArray type="Float32" Name="Position" NumberOfComponents="3" format="ascii">
	-300 2099.71 -300
	-300 2099.7 -100
	-300 2099.7 100
	-300 2099.71 300
	-100 2099.7 -300
	-100 2099.69 -100
	-100 2099.69 100
	-100 2099.7 300
	100 2099.7 -300
	100 2099.69 -100
	100 2099.69 100
	100 2099.7 300
	300 2099.71 -300
	300 2099.7 -100
	300 2099.7 100
	300 2099.71 300
	-300 2299.73 -300
	-300 2299.72 -100
	-300 2299.72 100
	-300 2299.73 300
	-100 2299.72 -300
	-100 2299.72 -100
	-100 2299.72 100
	-100 2299.72 300
	100 2299.72 -300
	100 2299.72 -100
	100 2299.72 100
	100 2299.72 300
	300 2299.73 -300
	300 2299.72 -100
	300 2299.72 100
	300 2299.73 300
	-300 2499.73 -300
	-300 2499.72 -100
	-300 2499.72 100
	-300 2499.73 300
	-100 2499.72 -300
	-100 2499.72 -100
	-100 2499.72 100
	-100 2499.72 300
	100 2499.72 -300
	100 2499.72 -100
	100 2499.72 100
	100 2499.72 300
	300 2499.73 -300
	300 2499.72 -100
	300 2499.72 100
	300 2499.73 300
	-300 2699.72 -300
	-300 2699.72 -100
	-300 2699.72 100
	-300 2699.72 300
	-100 2699.72 -300
	-100 2699.72 -100
	-100 2699.72 100
	-100 2699.72 300
	100 2699.72 -300
	100 2699.72 -100
	100 2699.72 100
	100 2699.72 300
	300 2699.72 -300
	300 2699.72 -100
	300 2699.72 100
	300 2699.72 300
	-300 2899.72 -300
	-300 2899.72 -100
	-300 2899.72 100
	-300 2899.72 300
	-100 2899.72 -300
	-100 2899.71 -100
	-100 2899.71 100
	-100 2899.72 300
	100 2899.72 -300
	100 2899.71 -100
	100 2899.71 100
	100 2899.72 300
	300 2899.72 -300
	300 2899.72 -100
	300 2899.72 100
	300 2899.72 300
	-300 3099.72 -300
	-300 3099.71 -100
	-300 3099.71 100
	-300 3099.72 300
	-100 3099.71 -300
	-100 3099.71 -100
	-100 3099.71 100
	-100 3099.71 300
	100 3099.71 -300
	100 3099.71 -100
	100 3099.71 100
	100 3099.71 300
	300 3099.72 -300
	300 3099.71 -100
	300 3099.71 100
	300 3099.72 300
	-300 3299.72 -300
	-300 3299.71 -100
	-300 3299.71 100
	-300 3299.72 300
	-100 3299.71 -300
	-100 3299.71 -100
	-100 3299.71 100
	-100 3299.71 300
	100 3299.71 -300
	100 3299.71 -100
	100 3299.71 100
	100 3299.71 300
	300 3299.72 -300
	300 3299.71 -100
	300 3299.71 100
	300 3299.72 300
	-300 3499.72 -300
	-300 3499.71 -100
	-300 3499.71 100
	-300 3499.72 300
	-100 3499.71 -300
	-100 3499.71 -100
	-100 3499.71 100
	-100 3499.71 300
	100 3499.71 -300
	100 3499.71 -100
	100 3499.71 100
	100 3499.71 300
	300 3499.72 -300
	300 3499.71 -100
	300 3499.71 100
	300 3499.72 300
	-300 3699.72 -300
	-300 3699.71 -100
	-300 3699.71 100
	-300 3699.72 300
	-100 3699.71 -300
	-100 3699.71 -100
	-100 3699.71 100
	-100 3699.71 300
	100 3699.71 -300
	100 3699.71 -100
	100 3699.71 100
	100 3699.71 300
	300 3699.72 -300
	300 3699.71 -100
	300 3699.71 100
	300 3699.72 300
	-300 3899.72 -300
	-300 3899.71 -100
	-300 3899.71 100
	-300 3899.72 300
	-100 3899.71 -300
	-100 3899.71 -100
	-100 3899.71 100
	-100 3899.71 300
	100 3899.71 -300
	100 3899.71 -100
	100 3899.71 100
	100 3899.71 300
	300 3899.72 -300
	300 3899.71 -100
	300 3899.71 100
	300 3899.72 300
	-300 4099.72 -300
	-300 4099.71 -100
	-300 4099.71 100
	-300 4099.72 300
	-100 4099.71 -300
	-100 4099.71 -100
	-100 4099.71 100
	-100 4099.71 300
	100 4099.71 -300
	100 4099.71 -100
	100 4099.71 100
	100 4099.71 300
	300 4099.72 -300
	300 4099.71 -100
	300 4099.71 100
	300 4099.72 300
	-300 4299.72 -300
	-300 4299.71 -100
	-300 4299.71 100
	-300 4299.72 300
	-100 4299.71 -300
	-100 4299.71 -100
	-100 4299.71 100
	-100 4299.71 300
	100 4299.71 -300
	100 4299.71 -100
	100 4299.71 100
	100 4299.71 300
	300 4299.72 -300
	300 4299.71 -100
	300 4299.71 100
	300 4299.72 300
	-300 4499.72 -300
	-300 4499.72 -100
	-300 4499.72 100
	-300 4499.72 300
	-100 4499.72 -300
	-100 4499.71 -100
	-100 4499.71 100
	-100 4499.72 300
	100 4499.72 -300
	100 4499.71 -100
	100 4499.71 100
	100 4499.72 300
	300 4499.72 -300
	300 4499.72 -100
	300 4499.72 100
	300 4499.72 300
	-300 4699.72 -300
	-300 4699.71 -100
	-300 4699.71 100
	-300 4699.72 300
	-100 4699.71 -300
	-100 4699.71 -100
	-100 4699.71 100
	-100 4699.71 300
	100 4699.71 -300
	100 4699.71 -100
	100 4699.71 100
	100 4699.71 300
	300 4699.72 -300
	300 4699.71 -100
	300 4699.71 100
	300 4699.72 300
	-300 4899.72 -300
	-300 4899.72 -100
	-300 4899.72 100
	-300 4899.72 300
	-100 4899.72 -300
	-100 4899.71 -100
	-100 4899.71 100
	-100 4899.72 300
	100 4899.72 -300
	100 4899.71 -100
	100 4899.71 100
	100 4899.72 300
	300 4899.72 -300
	300 4899.72 -100
	300 4899.72 100
	300 4899.72 300
	-300 5099.72 -300
	-300 5099.72 -100
	-300 5099.72 100
	-300 5099.72 300
	-100 5099.72 -300
	-100 5099.72 -100
	-100 5099.72 100
	-100 5099.72 300
	100 5099.72 -300
	100 5099.72 -100
	100 5099.72 100
	100 5099.72 300
	300 5099.72 -300
	300 5099.72 -100
	300 5099.72 100
	300 5099.72 300
	-300 5299.72 -300
	-300 5299.72 -100
	-300 5299.72 100
	-300 5299.72 300
	-100 5299.72 -300
	-100 5299.72 -100
	-100 5299.72 100
	-100 5299.72 300
	100 5299.72 -300
	100 5299.72 -100
	100 5299.72 100
	100 5299.72 300
	300 5299.72 -300
	300 5299.72 -100
	300 5299.72 100
	300 5299.72 300
	-300 5499.72 -300
	-300 5499.72 -100
	-300 5499.72 100
	-300 5499.72 300
	-100 5499.72 -300
	-100 5499.72 -100
	-100 5499.72 100
	-100 5499.72 300
	100 5499.72 -300
	100 5499.72 -100
	100 5499.72 100
	100 5499.72 300
	300 5499.72 -300
	300 5499.72 -100
	300 5499.72 100
	300 5499.72 300
	-300 5699.72 -300
	-300 5699.72 -100
	-300 5699.72 100
	-300 5699.72 300
	-100 5699.72 -300
	-100 5699.72 -100
	-100 5699.72 100
	-100 5699.72 300
	100 5699.72 -300
	100 5699.72 -100
	100 5699.72 100
	100 5699.72 300
	300 5699.72 -300
	300 5699.72 -100
	300 5699.72 100
	300 5699.72 300
	-300 5899.73 -300
	-300 5899.72 -100
	-300 5899.72 100
	-300 5899.73 300
	-100 5899.72 -300
	-100 5899.72 -100
	-100 5899.72 100
	-100 5899.72 300
	100 5899.72 -300
	100 5899.72 -100
	100 5899.72 100
	100 5899.72 300
	300 5899.73 -300
	300 5899.72 -100
	300 5899.72 100
	300 5899.73 300
	-300 6099.73 -300
	-300 6099.72 -100
	-300 6099.72 100
	-300 6099.73 300
	-100 6099.72 -300
	-100 6099.72 -100
	-100 6099.72 100
	-100 6099.72 300
	100 6099.72 -300
	100 6099.72 -100
	100 6099.72 100
	100 6099.72 300
	300 6099.73 -300
	300 6099.72 -100
	300 6099.72 100
	300 6099.73 300
	-300 6299.75 -300
	-300 6299.75 -100
	-300 6299.75 100
	-300 6299.75 300
	-100 6299.75 -300
	-100 6299.75 -100
	-100 6299.75 100
	-100 6299.75 300
	100 6299.75 -300
	100 6299.75 -100
	100 6299.75 100
	100 6299.75 300
	300 6299.75 -300
	300 6299.75 -100
	300 6299.75 100
	300 6299.75 300
	-300 6499.77 -300
	-300 6499.77 -100
	-300 6499.77 100
	-300 6499.77 300
	-100 6499.77 -300
	-100 6499.77 -100
	-100 6499.77 100
	-100 6499.77 300
	100 6499.77 -300
	100 6499.77 -100
	100 6499.77 100
	100 6499.77 300
	300 6499.77 -300
	300 6499.77 -100
	300 6499.77 100
	300 6499.77 300
	-300 6699.78 -300
	-300 6699.78 -100
	-300 6699.78 100
	-300 6699.78 300
	-100 6699.78 -300
	-100 6699.78 -100
	-100 6699.78 100
	-100 6699.78 300
	100 6699.78 -300
	100 6699.78 -100
	100 6699.78 100
	100 6699.78 300
	300 6699.78 -300
	300 6699.78 -100
	300 6699.78 100
	300 6699.78 300
	-300 6899.78 -300
	-300 6899.78 -100
	-300 6899.78 100
	-300 6899.78 300
	-100 6899.78 -300
	-100 6899.78 -100
	-100 6899.78 100
	-100 6899.78 300
	100 6899.78 -300
	100 6899.78 -100
	100 6899.78 100
	100 6899.78 300
	300 6899.78 -300
	300 6899.78 -100
	300 6899.78 100
	300 6899.78 300
	-300 7099.78 -300
	-300 7099.78 -100
	-300 7099.78 100
	-300 7099.78 300
	-100 7099.78 -300
	-100 7099.78 -100
	-100 7099.78 100
	-100 7099.78 300
	100 7099.78 -300
	100 7099.78 -100
	100 7099.78 100
	100 7099.78 300
	300 7099.78 -300
	300 7099.78 -100
	300 7099.78 100
	300 7099.78 300
	-300 7299.79 -300
	-300 7299.79 -100
	-300 7299.79 100
	-300 7299.79 300
	-100 7299.79 -300
	-100 7299.79 -100
	-100 7299.79 100
	-100 7299.79 300
	100 7299.79 -300
	100 7299.79 -100
	100 7299.79 100
	100 7299.79 300
	300 7299.79 -300
	300 7299.79 -100
	300 7299.79 100
	300 7299.79 300
	-300 7499.79 -300
	-300 7499.78 -100
	-300 7499.78 100
	-300 7499.79 300
	-100 7499.78 -300
	-100 7499.78 -100
	-100 7499.78 100
	-100 7499.78 300
	100 7499.78 -300
	100 7499.78 -100
	100 7499.78 100
	100 7499.78 300
	300 7499.79 -300
	300 7499.78 -100
	300 7499.78 100
	300 7499.79 300
	-300 7699.79 -300
	-300 7699.79 -100
	-300 7699.79 100
	-300 7699.79 300
	-100 7699.79 -300
	-100 7699.79 -100
	-100 7699.79 100
	-100 7699.79 300
	100 7699.79 -300
	100 7699.79 -100
	100 7699.79 100
	100 7699.79 300
	300 7699.79 -300
	300 7699.79 -100
	300 7699.79 100
	300 7699.79 300
	-300 7899.79 -300
	-300 7899.79 -100
	-300 7899.79 100
	-300 7899.79 300
	-100 7899.79 -300
	-100 7899.79 -100
	-100 7899.79 100
	-100 7899.79 300
	100 7899.79 -300
	100 7899.79 -100
	100 7899.79 100
	100 7899.79 300
	300 7899.79 -300
	300 7899.79 -100
	300 7899.79 100
	300 7899.79 300
	-300 8099.79 -300
	-300 8099.79 -100
	-300 8099.79 100
	-300 8099.79 300
	-100 8099.79 -300
	-100 8099.79 -100
	-100 8099.79 100
	-100 8099.79 300
	100 8099.79 -300
	100 8099.79 -100
	100 8099.79 100
	100 8099.79 300
	300 8099.79 -300
	300 8099.79 -100
	300 8099.79 100
	300 8099.79 300
	-300 8299.79 -300
	-300 8299.79 -100
	-300 8299.79 100
	-300 8299.79 300
	-100 8299.79 -300
	-100 8299.79 -100
	-100 8299.79 100
	-100 8299.79 300
	100 8299.79 -300
	100 8299.79 -100
	100 8299.79 100
	100 8299.79 300
	300 8299.79 -300
	300 8299.79 -100
	300 8299.79 100
	300 8299.79 300
	-300 8499.8 -300
	-300 8499.8 -100
	-300 8499.8 100
	-300 8499.8 300
	-100 8499.8 -300
	-100 8499.8 -100
	-100 8499.8 100
	-100 8499.8 300
	100 8499.8 -300
	100 8499.8 -100
	100 8499.8 100
	100 8499.8 300
	300 8499.8 -300
	300 8499.8 -100
	300 8499.8 100
	300 8499.8 300
	-300 8699.8 -300
	-300 8699.8 -100
	-300 8699.8 100
	-300 8699.8 300
	-100 8699.8 -300
	-100 8699.8 -100
	-100 8699.8 100
	-100 8699.8 300
	100 8699.8 -300
	100 8699.8 -100
	100 8699.8 100
	100 8699.8 300
	300 8699.8 -300
	300 8699.8 -100
	300 8699.8 100
	300 8699.8 300
	-300 8899.81 -300
	-300 8899.81 -100
	-300 8899.81 100
	-300 8899.81 300
	-100 8899.81 -300
	-100 8899.81 -100
	-100 8899.81 100
	-100 8899.81 300
	100 8899.81 -300
	100 8899.81 -100
	100 8899.81 100
	100 8899.81 300
	300 8899.81 -300
	300 8899.81 -100
	300 8899.81 100
	300 8899.81 300
	-300 9099.81 -300
	-300 9099.81 -100
	-300 9099.81 100
	-300 9099.81 300
	-100 9099.81 -300
	-100 9099.81 -100
	-100 9099.81 100
	-100 9099.81 300
	100 9099.81 -300
	100 9099.81 -100
	100 9099.81 100
	100 9099.81 300
	300 9099.81 -300
	300 9099.81 -100
	300 9099.81 100
	300 9099.81 300
	-300 9299.82 -300
	-300 9299.82 -100
	-300 9299.82 100
	-300 9299.82 300
	-100 9299.82 -300
	-100 9299.82 -100
	-100 9299.82 100
	-100 9299.82 300
	100 9299.82 -300
	100 9299.82 -100
	100 9299.82 100
	100 9299.82 300
	300 9299.82 -300
	300 9299.82 -100
	300 9299.82 100
	300 9299.82 300
	-300 9499.82 -300
	-300 9499.82 -100
	-300 9499.82 100
	-300 9499.82 300
	-100 9499.82 -300
	-100 9499.82 -100
	-100 9499.82 100
	-100 9499.82 300
	100 9499.82 -300
	100 9499.82 -100
	100 9499.82 100
	100 9499.82 300
	300 9499.82 -300
	300 9499.82 -100
	300 9499.82 100
	300 9499.82 300
	-300 9699.83 -300
	-300 9699.83 -100
	-300 9699.83 100
	-300 9699.83 300
	-100 9699.83 -300
	-100 9699.83 -100
	-100 9699.83 100
	-100 9699.83 300
	100 9699.83 -300
	100 9699.83 -100
	100 9699.83 100
	100 9699.83 300
	300 9699.83 -300
	300 9699.83 -100
	300 9699.83 100
	300 9699.83 300
	-300 9899.83 -300
	-300 9899.83 -100
	-300 9899.83 100
	-300 9899.83 300
	-100 9899.83 -300
	-100 9899.83 -100
	-100 9899.83 100
	-100 9899.83 300
	100 9899.83 -300
	100 9899.83 -100
	100 9899.83 100
	100 9899.83 300
	300 9899.83 -300
	300 9899.83 -100
	300 9899.83 100
	300 9899.83 300
	-300 10099.8 -300
	-300 10099.8 -100
	-300 10099.8 100
	-300 10099.8 300
	-100 10099.8 -300
	-100 10099.8 -100
	-100 10099.8 100
	-100 10099.8 300
	100 10099.8 -300
	100 10099.8 -100
	100 10099.8 100
	100 10099.8 300
	300 10099.8 -300
	300 10099.8 -100
	300 10099.8 100
	300 10099.8 300
	-300 10299.8 -300
	-300 10299.8 -100
	-300 10299.8 100
	-300 10299.8 300
	-100 10299.8 -300
	-100 10299.8 -100
	-100 10299.8 100
	-100 10299.8 300
	100 10299.8 -300
	100 10299.8 -100
	100 10299.8 100
	100 10299.8 300
	300 10299.8 -300
	300 10299.8 -100
	300 10299.8 100
	300 10299.8 300
	-300 10499.9 -300
	-300 10499.9 -100
	-300 10499.9 100
	-300 10499.9 300
	-100 10499.9 -300
	-100 10499.9 -100
	-100 10499.9 100
	-100 10499.9 300
	100 10499.9 -300
	100 10499.9 -100
	100 10499.9 100
	100 10499.9 300
	300 10499.9 -300
	300 10499.9 -100
	300 10499.9 100
	300 10499.9 300
	-300 10699.9 -300
	-300 10699.9 -100
	-300 10699.9 100
	-300 10699.9 300
	-100 10699.9 -300
	-100 10699.9 -100
	-100 10699.9 100
	-100 10699.9 300
	100 10699.9 -300
	100 10699.9 -100
	100 10699.9 100
	100 10699.9 300
	300 10699.9 -300
	300 10699.9 -100
	300 10699.9 100
	300 10699.9 300
	-300 10899.9 -300
	-300 10899.9 -100
	-300 10899.9 100
	-300 10899.9 300
	-100 10899.9 -300
	-100 10899.9 -100
	-100 10899.9 100
	-100 10899.9 300
	100 10899.9 -300
	100 10899.9 -100
	100 10899.9 100
	100 10899.9 300
	300 10899.9 -300
	300 10899.9 -100
	300 10899.9 100
	300 10899.9 300
	-300 11099.9 -300
	-300 11099.9 -100
	-300 11099.9 100
	-300 11099.9 300
	-100 11099.9 -300
	-100 11099.9 -100
	-100 11099.9 100
	-100 11099.9 300
	100 11099.9 -300
	100 11099.9 -100
	100 11099.9 100
	100 11099.9 300
	300 11099.9 -300
	300 11099.9 -100
	300 11099.9 100
	300 11099.9 300
	-300 11299.9 -300
	-300 11299.9 -100
	-300 11299.9 100
	-300 11299.9 300
	-100 11299.9 -300
	-100 11299.9 -100
	-100 11299.9 100
	-100 11299.9 300
	100 11299.9 -300
	100 11299.9 -100
	100 11299.9 100
	100 11299.9 300
	300 11299.9 -300
	300 11299.9 -100
	300 11299.9 100
	300 11299.9 300
	-300 11499.9 -300
	-300 11499.9 -100
	-300 11499.9 100
	-300 11499.9 300
	-100 11499.9 -300
	-100 11499.9 -100
	-100 11499.9 100
	-100 11499.9 300
	100 11499.9 -300
	100 11499.9 -100
	100 11499.9 100
	100 11499.9 300
	300 11499.9 -300
	300 11499.9 -100
	300 11499.9 100
	300 11499.9 300
	-300 11699.9 -300
	-300 11699.9 -100
	-300 11699.9 100
	-300 11699.9 300
	-100 11699.9 -300
	-100 11699.9 -100
	-100 11699.9 100
	-100 11699.9 300
	100 11699.9 -300
	100 11699.9 -100
	100 11699.9 100
	100 11699.9 300
	300 11699.9 -300
	300 11699.9 -100
	300 11699.9 100
	300 11699.9 300
	-300 11899.9 -300
	-300 11899.9 -100
	-300 11899.9 100
	-300 11899.9 300
	-100 11899.9 -300
	-100 11899.9 -100
	-100 11899.9 100
	-100 11899.9 300
	100 11899.9 -300
	100 11899.9 -100
	100 11899.9 100
	100 11899.9 300
	300 11899.9 -300
	300 11899.9 -100
	300 11899.9 100
	300 11899.9 300
	-300 12100 -300
	-300 12100 -100
	-300 12100 100
	-300 12100 300
	-100 12100 -300
	-100 12100 -100
	-100 12100 100
	-100 12100 300
	100 12100 -300
	100 12100 -100
	100 12100 100
	100 12100 300
	300 12100 -300
	300 12100 -100
	300 12100 100
	300 12100 300
	-300 12300 -300
	-300 12300 -100
	-300 12300 100
	-300 12300 300
	-100 12300 -300
	-100 12300 -100
	-100 12300 100
	-100 12300 300
	100 12300 -300
	100 12300 -100
	100 12300 100
	100 12300 300
	300 12300 -300
	300 12300 -100
	300 12300 100
	300 12300 300
	-300 12500 -300
	-300 12500 -100
	-300 12500 100
	-300 12500 300
	-100 12500 -300
	-100 12500 -100
	-100 12500 100
	-100 12500 300
	100 12500 -300
	100 12500 -100
	100 12500 100
	100 12500 300
	300 12500 -300
	300 12500 -100
	300 12500 100
	300 12500 300
	-300 12700 -300
	-300 12700 -100
	-300 12700 100
	-300 12700 300
	-100 12700 -300
	-100 12700 -100
	-100 12700 100
	-100 12700 300
	100 12700 -300
	100 12700 -100
	100 12700 100
	100 12700 300
	300 12700 -300
	300 12700 -100
	300 12700 100
	300 12700 300
	-300 12900.1 -300
	-300 12900.1 -100
	-300 12900.1 100
	-300 12900.1 300
	-100 12900.1 -300
	-100 12900.1 -100
	-100 12900.1 100
	-100 12900.1 300
	100 12900.1 -300
	100 12900.1 -100
	100 12900.1 100
	100 12900.1 300
	300 12900.1 -300
	300 12900.1 -100
	300 12900.1 100
	300 12900.1 300
	-300 13100.1 -300
	-300 13100.1 -100
	-300 13100.1 100
	-300 13100.1 300
	-100 13100.1 -300
	-100 13100.1 -100
	-100 13100.1 100
	-100 13100.1 300
	100 13100.1 -300
	100 13100.1 -100
	100 13100.1 100
	100 13100.1 300
	300 13100.1 -300
	300 13100.1 -100
	300 13100.1 100
	300 13100.1 300
	-300 13300.2 -300
	-300 13300.2 -100
	-300 13300.2 100
	-300 13300.2 300
	-100 13300.2 -300
	-100 13300.2 -100
	-100 13300.2 100
	-100 13300.2 300
	100 13300.2 -300
	100 13300.2 -100
	100 13300.2 100
	100 13300.2 300
	300 13300.2 -300
	300 13300.2 -100
	300 13300.2 100
	300 13300.2 300
	-300 13500.3 -300
	-300 13500.3 -100
	-300 13500.3 100
	-300 13500.3 300
	-100 13500.3 -300
	-100 13500.3 -100
	-100 13500.3 100
	-100 13500.3 300
	100 13500.3 -300
	100 13500.3 -100
	100 13500.3 100
	100 13500.3 300
	300 13500.3 -300
	300 13500.3 -100
	300 13500.3 100
	300 13500.3 300
	-300 13700.5 -300
	-300 13700.5 -100
	-300 13700.5 100
	-300 13700.5 300
	-100 13700.5 -300
	-100 13700.5 -100
	-100 13700.5 100
	-100 13700.5 300
	100 13700.5 -300
	100 13700.5 -100
	100 13700.5 100
	100 13700.5 300
	300 13700.5 -300
	300 13700.5 -100
	300 13700.5 100
	300 13700.5 300
	-300 13901.1 -300
	-300 13901.1 -100
	-300 13901.1 100
	-300 13901.1 300
	-100 13901.1 -300
	-100 13901.1 -100
	-100 13901.1 100
	-100 13901.1 300
	100 13901.1 -300
	100 13901.1 -100
	100 13901.1 100
	100 13901.1 300
	300 13901.1 -300
	300 13901.1 -100
	300 13901.1 100
	300 13901.1 300
  </DataArray>
</Points>
<PointData  Vectors="vector">
  <DataArray type="Float32" Name="Velocity" NumberOfComponents="3" format="ascii">
 2.55789e-05 -0.0155411 2.5579e-05
 2.62176e-05 -0.0162124 9.59786e-06
 2.62175e-05 -0.0162124 -9.59788e-06
 2.55788e-05 -0.0155411 -2.5579e-05
 9.59782e-06 -0.0162124 2.62176e-05
 9.05144e-06 -0.0168393 9.05148e-06
 9.05147e-06 -0.0168393 -9.05156e-06
 9.59799e-06 -0.0162124 -2.62176e-05
 -9.59805e-06 -0.0162124 2.62175e-05
 -9.05174e-06 -0.0168393 9.05155e-06
 -9.052e-06 -0.0168393 -9.05163e-06
 -9.59777e-06 -0.0162124 -2.62175e-05
 -2.55788e-05 -0.0155411 2.55788e-05
 -2.62175e-05 -0.0162124 9.59796e-06
 -2.62172e-05 -0.0162124 -9.59803e-06
 -2.55791e-05 -0.0155411 -2.55789e-05
 -5.92068e-05 0.00137299 -5.92067e-05
 -5.96467e-05 0.00221319 -4.45238e-05
 -5.96467e-05 0.00221319 4.45237e-05
 -5.92066e-05 0.00137299 5.92068e-05
 -4.45237e-05 0.00221319 -5.96468e-05
 -4.39878e-05 0.00293469 -4.39877e-05
 -4.39878e-05 0.00293469 4.39877e-05
 -4.45239e-05 0.00221319 5.96468e-05
 4.45236e-05 0.00221319 -5.96468e-05
 4.39876e-05 0.00293469 -4.39877e-05
 4.39876e-05 0.00293469 4.39877e-05
 4.45238e-05 0.00221319 5.96468e-05
 5.92068e-05 0.00137299 -5.92068e-05
 5.96468e-05 0.00221319 -4.45238e-05
 5.96468e-05 0.00221319 4.45237e-05
 5.92066e-05 0.00137299 5.92067e-05
 -4.02821e-05 -0.0050349 -4.02822e-05
 -3.90665e-05 -0.00468504 -3.27588e-05
 -3.90664e-05 -0.00468504 3.27587e-05
 -4.02822e-05 -0.0050349 4.02821e-05
 -3.27589e-05 -0.00468504 -3.90664e-05
 -3.36917e-05 -0.00434375 -3.36918e-05
 -3.36917e-05 -0.00434375 3.36918e-05
 -3.27587e-05 -0.00468504 3.90663e-05
 3.27588e-05 -0.00468504 -3.90664e-05
 3.36917e-05 -0.00434375 -3.36918e-05
 3.36917e-05 -0.00434375 3.36918e-05
 3.27586e-05 -0.00468504 3.90663e-05
 4.0282e-05 -0.0050349 -4.02822e-05
 3.90663e-05 -0.00468504 -3.27588e-05
 3.90663e-05 -0.00468504 3.27587e-05
 4.02821e-05 -0.0050349 4.0282e-05
 -4.30012e-05 -0.00502523 -4.30012e-05
 -4.31726e-05 -0.00518814 -2.38116e-05
 -4.31727e-05 -0.00518813 2.38116e-05
 -4.30012e-05 -0.00502523 4.30013e-05
 -2.38117e-05 -0.00518813 -4.31726e-05
 -2.35967e-05 -0.00522778 -2.35967e-05
 -2.35966e-05 -0.00522778 2.35967e-05
 -2.38116e-05 -0.00518814 4.31727e-05
 2.38117e-05 -0.00518813 -4.31726e-05
 2.35967e-05 -0.00522778 -2.35967e-05
 2.35966e-05 -0.00522778 2.35967e-05
 2.38116e-05 -0.00518814 4.31726e-05
 4.30012e-05 -0.00502523 -4.30011e-05
 4.31726e-05 -0.00518813 -2.38118e-05
 4.31727e-05 -0.00518813 2.38118e-05
 4.30013e-05 -0.00502523 4.30012e-05
 -3.21467e-05 -0.00170443 -3.21468e-05
 -3.25056e-05 -0.00216199 -7.07968e-06
 -3.25056e-05 -0.00216199 7.07965e-06
 -3.21467e-05 -0.00170443 3.21468e-05
 -7.07969e-06 -0.00216199 -3.25056e-05
 -7.34147e-06 -0.00251179 -7.34142e-06
 -7.34148e-06 -0.0025118 7.3414e-06
 -7.07969e-06 -0.00216199 3.25056e-05
 7.07971e-06 -0.00216199 -3.25056e-05
 7.3415e-06 -0.0025118 -7.34143e-06
 7.3415e-06 -0.0025118 7.34141e-06
 7.07972e-06 -0.00216199 3.25056e-05
 3.21468e-05 -0.00170443 -3.21467e-05
 3.25056e-05 -0.00216199 -7.07969e-06
 3.25056e-05 -0.00216199 7.0797e-06
 3.21467e-05 -0.00170443 3.21468e-05
 -4.6421e-06 -0.00250266 -4.64216e-06
 -5.00893e-06 -0.00309266 -4.03688e-06
 -5.00893e-06 -0.00309266 4.03686e-06
 -4.64211e-06 -0.00250266 4.64214e-06
 -4.03682e-06 -0.00309266 -5.00898e-06
 -3.83068e-06 -0.0036521 -3.83069e-06
 -3.83069e-06 -0.0036521 3.83069e-06
 -4.03687e-06 -0.00309266 5.00895e-06
 4.03691e-06 -0.00309266 -5.00898e-06
 3.83072e-06 -0.0036521 -3.83068e-06
 3.83072e-06 -0.0036521 3.83069e-06
 4.03689e-06 -0.00309266 5.00897e-06
 4.64215e-06 -0.00250266 -4.64216e-06
 5.00899e-06 -0.00309266 -4.03683e-06
 5.00898e-06 -0.00309266 4.03688e-06
 4.64216e-06 -0.00250266 4.64213e-06
 3.86641e-06 -0.00271699 3.86635e-06
 3.54059e-06 -0.00293192 -3.81649e-06
 3.54057e-06 -0.00293192 3.81647e-06
 3.86639e-06 -0.00271699 -3.86638e-06
 -3.81647e-06 -0.00293192 3.54057e-06
 -3.73203e-06 -0.00320707 -3.73204e-06
 -3.73204e-06 -0.00320707 3.73203e-06
 -3.8165e-06 -0.00293192 -3.54059e-06
 3.81652e-06 -0.00293192 3.54057e-06
 3.73206e-06 -0.00320707 -3.73202e-06
 3.73204e-06 -0.00320707 3.73204e-06
 3.81648e-06 -0.00293192 -3.54057e-06
 -3.86635e-06 -0.00271699 3.86639e-06
 -3.54052e-06 -0.00293192 -3.81647e-06
 -3.54053e-06 -0.00293192 3.81651e-06
 -3.86634e-06 -0.00271699 -3.86641e-06
 6.87228e-06 -0.00117416 6.87223e-06
 6.64855e-06 -0.00101778 1.55174e-06
 6.64854e-06 -0.00101778 -1.55176e-06
 6.87228e-06 -0.00117416 -6.87224e-06
 1.55179e-06 -0.00101778 6.6485e-06
 1.53075e-06 -0.0010276 1.5307e-06
 1.53073e-06 -0.0010276 -1.53073e-06
 1.55177e-06 -0.00101778 -6.64852e-06
 -1.55171e-06 -0.00101778 6.6485e-06
 -1.53068e-06 -0.0010276 1.5307e-06
 -1.53068e-06 -0.0010276 -1.53071e-06
 -1.55171e-06 -0.00101778 -6.64851e-06
 -6.87222e-06 -0.00117416 6.87223e-06
 -6.64849e-06 -0.00101778 1.55174e-06
 -6.64849e-06 -0.00101778 -1.55175e-06
 -6.87222e-06 -0.00117416 -6.87225e-06
 6.9616e-06 -0.00223746 6.96153e-06
 6.70316e-06 -0.00173474 -7.3476e-07
 6.70315e-06 -0.00173474 7.34749e-07
 6.96159e-06 -0.00223746 -6.96153e-06
 -7.34725e-07 -0.00173474 6.7031e-06
 -8.04545e-07 -0.00178597 -8.04587e-07
 -8.04553e-07 -0.00178597 8.04556e-07
 -7.34725e-07 -0.00173474 -6.7031e-06
 7.34779e-07 -0.00173474 6.70311e-06
 8.04598e-07 -0.00178597 -8.04587e-07
 8.04599e-07 -0.00178597 8.04565e-07
 7.34787e-07 -0.00173474 -6.70309e-06
 -6.96151e-06 -0.00223746 6.96154e-06
 -6.70306e-06 -0.00173474 -7.34771e-07
 -6.70306e-06 -0.00173474 7.34745e-07
 -6.9615e-06 -0.00223746 -6.96154e-06
 4.62389e-06 -0.00241489 4.62386e-06
 4.16569e-06 -0.00268242 2.94452e-08
 4.16569e-06 -0.00268242 -2.9454e-08
 4.62388e-06 -0.00241489 -4.62386e-06
 2.94735e-08 -0.00268242 4.16566e-06
 -8.54292e-08 -0.00173677 -8.54623e-08
 -8.54368e-08 -0.00173677 8.54444e-08
 2.94845e-08 -0.00268242 -4.16568e-06
 -2.94492e-08 -0.00268242 4.16566e-06
 8.54562e-08 -0.00173677 -8.54603e-08
 8.54542e-08 -0.00173677 8.54508e-08
 -2.94491e-08 -0.00268242 -4.16567e-06
 -4.62385e-06 -0.00241489 4.62386e-06
 -4.16565e-06 -0.00268242 2.94443e-08
 -4.16565e-06 -0.00268242 -2.94632e-08
 -4.62384e-06 -0.00241489 -4.62388e-06
 1.63957e-06 -0.000250614 1.63956e-06
 1.38257e-06 -0.000625171 -2.34255e-06
 1.38257e-06 -0.000625171 2.34256e-06
 1.63956e-06 -0.000250614 -1.63956e-06
 -2.34251e-06 -0.000625171 1.38255e-06
 -2.43029e-06 -0.00145518 -2.43032e-06
 -2.4303e-06 -0.00145518 2.43034e-06
 -2.3425e-06 -0.000625171 -1.38258e-06
 2.34257e-06 -0.000625171 1.38256e-06
 2.43035e-06 -0.00145518 -2.43032e-06
 2.43034e-06 -0.00145518 2.43033e-06
 2.34257e-06 -0.000625171 -1.38258e-06
 -1.63954e-06 -0.000250614 1.63956e-06
 -1.38254e-06 -0.000625171 -2.34255e-06
 -1.38254e-06 -0.000625171 2.34254e-06
 -1.63954e-06 -0.000250614 -1.63958e-06
 -3.35205e-06 -0.00192989 -3.35206e-06
 -3.21842e-06 -0.000679692 2.15675e-08
 -3.21843e-06 -0.000679692 -2.15691e-08
 -3.35206e-06 -0.00192989 3.35207e-06
 2.15423e-08 -0.000679692 -3.21843e-06
 1.34193e-07 -0.000864639 1.34202e-07
 1.34189e-07 -0.000864639 -1.34216e-07
 2.15425e-08 -0.000679692 3.21842e-06
 -2.15587e-08 -0.000679692 -3.21843e-06
 -1.34212e-07 -0.000864639 1.34203e-07
 -1.34216e-07 -0.000864639 -1.34217e-07
 -2.15797e-08 -0.000679692 3.21842e-06
 3.35204e-06 -0.00192989 -3.35208e-06
 3.21841e-06 -0.000679692 2.1555e-08
 3.2184e-06 -0.000679692 -2.15595e-08
 3.35205e-06 -0.00192989 3.35203e-06
 -2.58729e-06 -0.000754528 -2.58728e-06
 -2.36673e-06 -0.000738604 -1.79403e-06
 -2.36674e-06 -0.000738604 1.79404e-06
 -2.5873e-06 -0.000754528 2.58729e-06
 -1.79406e-06 -0.000738604 -2.36674e-06
 -1.57189e-06 -0.000917885 -1.57187e-06
 -1.57188e-06 -0.000917885 1.57186e-06
 -1.79405e-06 -0.000738604 2.36674e-06
 1.79401e-06 -0.000738604 -2.36674e-06
 1.57183e-06 -0.000917885 -1.57187e-06
 1.57183e-06 -0.000917885 1.57185e-06
 1.794e-06 -0.000738604 2.36674e-06
 2.58729e-06 -0.000754528 -2.58729e-06
 2.36674e-06 -0.000738605 -1.79405e-06
 2.36673e-06 -0.000738604 1.794e-06
 2.58728e-06 -0.000754528 2.5873e-06
 -4.75333e-06 -0.00109424 -4.75331e-06
 -4.52783e-06 -0.00138341 -2.68791e-06
 -4.52784e-06 -0.00138341 2.68791e-06
 -4.75334e-06 -0.00109424 4.7533e-06
 -2.68792e-06 -0.00138341 -4.52782e-06
 -2.45351e-06 -0.00149456 -2.45349e-06
 -2.45351e-06 -0.00149456 2.45347e-06
 -2.68793e-06 -0.00138341 4.52781e-06
 2.68788e-06 -0.00138341 -4.52783e-06
 2.45346e-06 -0.00149456 -2.45349e-06
 2.45346e-06 -0.00149456 2.45347e-06
 2.68788e-06 -0.00138341 4.52781e-06
 4.75328e-06 -0.00109424 -4.75333e-06
 4.52779e-06 -0.00138341 -2.68792e-06
 4.52779e-06 -0.00138341 2.68789e-06
 4.75329e-06 -0.00109424 4.7533e-06
 -6.01715e-06 -0.000943353 -6.01712e-06
 -6.08657e-06 -0.00169048 -3.83594e-06
 -6.08657e-06 -0.00169048 3.83593e-06
 -6.01715e-06 -0.000943352 6.01711e-06
 -3.83595e-06 -0.00169048 -6.08655e-06
 -3.48878e-06 -0.00141184 -3.48877e-06
 -3.48878e-06 -0.00141184 3.48875e-06
 -3.83594e-06 -0.00169048 6.08653e-06
 3.8359e-06 -0.00169048 -6.08655e-06
 3.48873e-06 -0.00141184 -3.48878e-06
 3.48873e-06 -0.00141184 3.48875e-06
 3.83589e-06 -0.00169048 6.08654e-06
 6.0171e-06 -0.000943352 -6.01713e-06
 6.08652e-06 -0.00169048 -3.83595e-06
 6.08652e-06 -0.00169048 3.83592e-06
 6.01711e-06 -0.000943352 6.01712e-06
 1.92298e-07 -0.000180476 1.923e-07
 3.45963e-08 3.62691e-05 7.88744e-07
 3.45975e-08 3.62691e-05 -7.88774e-07
 1.92304e-07 -0.000180475 -1.9233e-07
 7.88738e-07 3.62692e-05 3.45947e-08
 6.20031e-07 -0.000232229 6.20036e-07
 6.20034e-07 -0.000232229 -6.20067e-07
 7.88736e-07 3.62691e-05 -3.46269e-08
 -7.8877e-07 3.62692e-05 3.45944e-08
 -6.20061e-07 -0.000232229 6.20036e-07
 -6.20064e-07 -0.000232229 -6.20065e-07
 -7.88764e-07 3.62691e-05 -3.46274e-08
 -1.92332e-07 -0.000180477 1.92299e-07
 -3.46301e-08 3.62692e-05 7.88743e-07
 -3.46306e-08 3.62692e-05 -7.88773e-07
 -1.92334e-07 -0.000180476 -1.92332e-07
 -1.36264e-06 -0.000898372 -1.36264e-06
 -1.47794e-06 -0.00159202 -4.13164e-08
 -1.47794e-06 -0.00159202 4.12779e-08
 -1.36264e-06 -0.000898372 1.3626e-06
 -4.13141e-08 -0.00159202 -1.47794e-06
 6.3245e-07 -0.00171746 6.32451e-07
 6.32451e-07 -0.00171746 -6.3249e-07
 -4.12866e-08 -0.00159202 1.47791e-06
 4.128e-08 -0.00159202 -1.47794e-06
 -6.32484e-07 -0.00171746 6.32452e-07
 -6.32482e-07 -0.00171746 -6.32489e-07
 4.12575e-08 -0.00159202 1.47791e-06
 1.36261e-06 -0.00089837 -1.36264e-06
 1.47791e-06 -0.00159202 -4.13109e-08
 1.47791e-06 -0.00159202 4.12757e-08
 1.36261e-06 -0.000898371 1.36261e-06
 -1.3341e-06 -0.000124669 -1.33411e-06
 -1.26237e-06 -0.000193118 9.93098e-07
 -1.26237e-06 -0.000193118 -9.93126e-07
 -1.3341e-06 -0.000124669 1.33408e-06
 9.93101e-07 -0.000193118 -1.26237e-06
 1.05824e-06 -0.00023606 1.05824e-06
 1.05824e-06 -0.00023606 -1.05826e-06
 9.93102e-07 -0.000193118 1.26234e-06
 -9.93119e-07 -0.000193118 -1.26237e-06
 -1.05826e-06 -0.00023606 1.05824e-06
 -1.05826e-06 -0.00023606 -1.05826e-06
 -9.93119e-07 -0.000193118 1.26235e-06
 1.33408e-06 -0.000124669 -1.3341e-06
 1.26235e-06 -0.000193118 9.93099e-07
 1.26235e-06 -0.000193118 -9.93123e-07
 1.33408e-06 -0.000124668 1.33408e-06
 1.57565e-06 -0.00143086 1.57566e-06
 1.56472e-06 -0.00142923 1.48975e-06
 1.56472e-06 -0.00142923 -1.48979e-06
 1.57567e-06 -0.00143086 -1.57567e-06
 1.48973e-06 -0.00142923 1.56472e-06
 1.56927e-06 -0.0011227 1.56927e-06
 1.56927e-06 -0.0011227 -1.5693e-06
 1.48976e-06 -0.00142923 -1.56474e-06
 -1.48976e-06 -0.00142923 1.56472e-06
 -1.5693e-06 -0.0011227 1.56926e-06
 -1.56929e-06 -0.0011227 -1.5693e-06
 -1.48979e-06 -0.00142923 -1.56473e-06
 -1.57566e-06 -0.00143086 1.57565e-06
 -1.56474e-06 -0.00142923 1.48974e-06
 -1.56474e-06 -0.00142923 -1.48978e-06
 -1.57569e-06 -0.00143086 -1.57566e-06
 -8.4977e-07 -0.000476362 -8.49771e-07
 -9.12518e-07 -0.000181656 -5.90006e-07
 -9.12518e-07 -0.000181656 5.89991e-07
 -8.49772e-07 -0.000476362 8.49754e-07
 -5.90005e-07 -0.000181656 -9.12519e-07
 -5.02006e-07 -0.000575084 -5.02007e-07
 -5.02007e-07 -0.000575084 5.01992e-07
 -5.90006e-07 -0.000181656 9.12502e-07
 5.89992e-07 -0.000181656 -9.12518e-07
 5.01991e-07 -0.000575084 -5.02007e-07
 5.0199e-07 -0.000575084 5.0199e-07
 5.8999e-07 -0.000181656 9.12502e-07
 8.49756e-07 -0.000476362 -8.49769e-07
 9.12503e-07 -0.000181656 -5.90009e-07
 9.12503e-07 -0.000181656 5.89989e-07
 8.49753e-07 -0.000476361 8.49755e-07
 -2.52286e-06 -0.000791281 -2.52286e-06
 -2.53471e-06 -0.00120267 -4.39114e-07
 -2.53471e-06 -0.00120267 4.39103e-07
 -2.52286e-06 -0.000791281 2.52285e-06
 -4.39114e-07 -0.00120267 -2.53472e-06
 -1.74798e-07 -0.00126156 -1.74799e-07
 -1.74799e-07 -0.00126156 1.74786e-07
 -4.39115e-07 -0.00120267 2.5347e-06