<?xml version="1.0"?>
<!-- time 61.2916-->
<VTKFile type="UnstructuredGrid" version="0.1" byte_order="LittleEndian">
<UnstructuredGrid>
<Piece NumberOfPoints="960" NumberOfCells="0">
<Points>
  <DataArray type="Float32" Name="Position" NumberOfComponents="3" format="ascii">
	-300 2099.65 -300
	-300 2099.62 -100
	-300 2099.62 100
	-300 2099.65 300
	-100 2099.62 -300
	-100 2099.6 -100
	-100 2099.6 100
	-100 2099.62 300
	100 2099.62 -300
	100 2099.6 -100
	100 2099.6 100
	100 2099.62 300
	300 2099.65 -300
	300 2099.62 -100
	300 2099.62 100
	300 2099.65 300
	-300 2299.68 -300
	-300 2299.68 -100
	-300 2299.68 100
	-300 2299.68 300
	-100 2299.68 -300
	-100 2299.67 -100
	-100 2299.67 100
	-100 2299.68 300
	100 2299.68 -300
	100 2299.67 -100
	100 2299.67 100
	100 2299.68 300
	300 2299.68 -300
	300 2299.68 -100
	300 2299.68 100
	300 2299.68 300
	-300 2499.69 -300
	-300 2499.68 -100
	-300 2499.68 100
	-300 2499.69 300
	-100 2499.68 -300
	-100 2499.67 -100
	-100 2499.67 100
	-100 2499.68 300
	100 2499.68 -300
	100 2499.67 -100
	100 2499.67 100
	100 2499.68 300
	300 2499.69 -300
	300 2499.68 -100
	300 2499.68 100
	300 2499.69 300
	-300 2699.68 -300
	-300 2699.68 -100
	-300 2699.68 100
	-300 2699.68 300
	-100 2699.68 -300
	-100 2699.67 -100
	-100 2699.67 100
	-100 2699.68 300
	100 2699.68 -300
	100 2699.67 -100
	100 2699.67 100
	100 2699.68 300
	300 2699.68 -300
	300 2699.68 -100
	300 2699.68 100
	300 2699.68 300
	-300 2899.68 -300
	-300 2899.68 -100
	-300 2899.68 100
	-300 2899.68 300
	-100 2899.68 -300
	-100 2899.67 -100
	-100 2899.67 100
	-100 2899.68 300
	100 2899.68 -300
	100 2899.67 -100
	100 2899.67 100
	100 2899.68 300
	300 2899.68 -300
	300 2899.68 -100
	300 2899.68 100
	300 2899.68 300
	-300 3099.68 -300
	-300 3099.68 -100
	-300 3099.68 100
	-300 3099.68 300
	-100 3099.68 -300
	-100 3099.67 -100
	-100 3099.67 100
	-100 3099.68 300
	100 3099.68 -300
	100 3099.67 -100
	100 3099.67 100
	100 3099.68 300
	300 3099.68 -300
	300 3099.68 -100
	300 3099.68 100
	300 3099.68 300
	-300 3299.68 -300
	-300 3299.68 -100
	-300 3299.68 100
	-300 3299.68 300
	-100 3299.68 -300
	-100 3299.67 -100
	-100 3299.67 100
	-100 3299.68 300
	100 3299.68 -300
	100 3299.67 -100
	100 3299.67 100
	100 3299.68 300
	300 3299.68 -300
	300 3299.68 -100
	300 3299.68 100
	300 3299.68 300
	-300 3499.68 -300
	-300 3499.68 -100
	-300 3499.68 100
	-300 3499.68 300
	-100 3499.68 -300
	-100 3499.67 -100
	-100 3499.67 100
	-100 3499.68 300
	100 3499.68 -300
	100 3499.67 -100
	100 3499.67 100
	100 3499.68 300
	300 3499.68 -300
	300 3499.68 -100
	300 3499.68 100
	300 3499.68 300
	-300 3699.68 -300
	-300 3699.68 -100
	-300 3699.68 100
	-300 3699.68 300
	-100 3699.68 -300
	-100 3699.67 -100
	-100 3699.67 100
	-100 3699.68 300
	100 3699.68 -300
	100 3699.67 -100
	100 3699.67 100
	100 3699.68 300
	300 3699.68 -300
	300 3699.68 -100
	300 3699.68 100
	300 3699.68 300
	-300 3899.68 -300
	-300 3899.68 -100
	-300 3899.68 100
	-300 3899.68 300
	-100 3899.68 -300
	-100 3899.67 -100
	-100 3899.67 100
	-100 3899.68 300
	100 3899.68 -300
	100 3899.67 -100
	100 3899.67 100
	100 3899.68 300
	300 3899.68 -300
	300 3899.68 -100
	300 3899.68 100
	300 3899.68 300
	-300 4099.68 -300
	-300 4099.68 -100
	-300 4099.68 100
	-300 4099.68 300
	-100 4099.68 -300
	-100 4099.67 -100
	-100 4099.67 100
	-100 4099.68 300
	100 4099.68 -300
	100 4099.67 -100
	100 4099.67 100
	100 4099.68 300
	300 4099.68 -300
	300 4099.68 -100
	300 4099.68 100
	300 4099.68 300
	-300 4299.68 -300
	-300 4299.68 -100
	-300 4299.68 100
	-300 4299.68 300
	-100 4299.68 -300
	-100 4299.67 -100
	-100 4299.67 100
	-100 4299.68 300
	100 4299.68 -300
	100 4299.67 -100
	100 4299.67 100
	100 4299.68 300
	300 4299.68 -300
	300 4299.68 -100
	300 4299.68 100
	300 4299.68 300
	-300 4499.69 -300
	-300 4499.68 -100
	-300 4499.68 100
	-300 4499.69 300
	-100 4499.68 -300
	-100 4499.67 -100
	-100 4499.67 100
	-100 4499.68 300
	100 4499.68 -300
	100 4499.67 -100
	100 4499.67 100
	100 4499.68 300
	300 4499.69 -300
	300 4499.68 -100
	300 4499.68 100
	300 4499.69 300
	-300 4699.69 -300
	-300 4699.68 -100
	-300 4699.68 100
	-300 4699.69 300
	-100 4699.68 -300
	-100 4699.67 -100
	-100 4699.67 100
	-100 4699.68 300
	100 4699.68 -300
	100 4699.67 -100
	100 4699.67 100
	100 4699.68 300
	300 4699.69 -300
	300 4699.68 -100
	300 4699.68 100
	300 4699.69 300
	-300 4899.69 -300
	-300 4899.68 -100
	-300 4899.68 100
	-300 4899.69 300
	-100 4899.68 -300
	-100 4899.67 -100
	-100 4899.67 100
	-100 4899.68 300
	100 4899.68 -300
	100 4899.67 -100
	100 4899.67 100
	100 4899.68 300
	300 4899.69 -300
	300 4899.68 -100
	300 4899.68 100
	300 4899.69 300
	-300 5099.69 -300
	-300 5099.68 -100
	-300 5099.68 100
	-300 5099.69 300
	-100 5099.68 -300
	-100 5099.68 -100
	-100 5099.68 100
	-100 5099.68 300
	100 5099.68 -300
	100 5099.68 -100
	100 5099.68 100
	100 5099.68 300
	300 5099.69 -300
	300 5099.68 -100
	300 5099.68 100
	300 5099.69 300
	-300 5299.69 -300
	-300 5299.69 -100
	-300 5299.69 100
	-300 5299.69 300
	-100 5299.69 -300
	-100 5299.69 -100
	-100 5299.69 100
	-100 5299.69 300
	100 5299.69 -300
	100 5299.69 -100
	100 5299.69 100
	100 5299.69 300
	300 5299.69 -300
	300 5299.69 -100
	300 5299.69 100
	300 5299.69 300
	-300 5499.69 -300
	-300 5499.69 -100
	-300 5499.69 100
	-300 5499.69 300
	-100 5499.69 -300
	-100 5499.69 -100
	-100 5499.69 100
	-100 5499.69 300
	100 5499.69 -300
	100 5499.69 -100
	100 5499.69 100
	100 5499.69 300
	300 5499.69 -300
	300 5499.69 -100
	300 5499.69 100
	300 5499.69 300
	-300 5699.69 -300
	-300 5699.69 -100
	-300 5699.69 100
	-300 5699.69 300
	-100 5699.69 -300
	-100 5699.69 -100
	-100 5699.69 100
	-100 5699.69 300
	100 5699.69 -300
	100 5699.69 -100
	100 5699.69 100
	100 5699.69 300
	300 5699.69 -300
	300 5699.69 -100
	300 5699.69 100
	300 5699.69 300
	-300 5899.69 -300
	-300 5899.69 -100
	-300 5899.69 100
	-300 5899.69 300
	-100 5899.69 -300
	-100 5899.69 -100
	-100 5899.69 100
	-100 5899.69 300
	100 5899.69 -300
	100 5899.69 -100
	100 5899.69 100
	100 5899.69 300
	300 5899.69 -300
	300 5899.69 -100
	300 5899.69 100
	300 5899.69 300
	-300 6099.71 -300
	-300 6099.71 -100
	-300 6099.71 100
	-300 6099.71 300
	-100 6099.71 -300
	-100 6099.71 -100
	-100 6099.71 100
	-100 6099.71 300
	100 6099.71 -300
	100 6099.71 -100
	100 6099.71 100
	100 6099.71 300
	300 6099.71 -300
	300 6099.71 -100
	300 6099.71 100
	300 6099.71 300
	-300 6299.73 -300
	-300 6299.73 -100
	-300 6299.73 100
	-300 6299.73 300
	-100 6299.73 -300
	-100 6299.73 -100
	-100 6299.73 100
	-100 6299.73 300
	100 6299.73 -300
	100 6299.73 -100
	100 6299.73 100
	100 6299.73 300
	300 6299.73 -300
	300 6299.73 -100
	300 6299.73 100
	300 6299.73 300
	-300 6499.75 -300
	-300 6499.74 -100
	-300 6499.74 100
	-300 6499.75 300
	-100 6499.74 -300
	-100 6499.74 -100
	-100 6499.74 100
	-100 6499.74 300
	100 6499.74 -300
	100 6499.74 -100
	100 6499.74 100
	100 6499.74 300
	300 6499.75 -300
	300 6499.74 -100
	300 6499.74 100
	300 6499.75 300
	-300 6699.8 -300
	-300 6699.8 -100
	-300 6699.8 100
	-300 6699.8 300
	-100 6699.8 -300
	-100 6699.8 -100
	-100 6699.8 100
	-100 6699.8 300
	100 6699.8 -300
	100 6699.8 -100
	100 6699.8 100
	100 6699.8 300
	300 6699.8 -300
	300 6699.8 -100
	300 6699.8 100
	300 6699.8 300
	-300 6899.8 -300
	-300 6899.8 -100
	-300 6899.8 100
	-300 6899.8 300
	-100 6899.8 -300
	-100 6899.8 -100
	-100 6899.8 100
	-100 6899.8 300
	100 6899.8 -300
	100 6899.8 -100
	100 6899.8 100
	100 6899.8 300
	300 6899.8 -300
	300 6899.8 -100
	300 6899.8 100
	300 6899.8 300
	-300 7099.8 -300
	-300 7099.8 -100
	-300 7099.8 100
	-300 7099.8 300
	-100 7099.8 -300
	-100 7099.8 -100
	-100 7099.8 100
	-100 7099.8 300
	100 7099.8 -300
	100 7099.8 -100
	100 7099.8 100
	100 7099.8 300
	300 7099.8 -300
	300 7099.8 -100
	300 7099.8 100
	300 7099.8 300
	-300 7299.8 -300
	-300 7299.8 -100
	-300 7299.8 100
	-300 7299.8 300
	-100 7299.8 -300
	-100 7299.8 -100
	-100 7299.8 100
	-100 7299.8 300
	100 7299.8 -300
	100 7299.8 -100
	100 7299.8 100
	100 7299.8 300
	300 7299.8 -300
	300 7299.8 -100
	300 7299.8 100
	300 7299.8 300
	-300 7499.8 -300
	-300 7499.8 -100
	-300 7499.8 100
	-300 7499.8 300
	-100 7499.8 -300
	-100 7499.8 -100
	-100 7499.8 100
	-100 7499.8 300
	100 7499.8 -300
	100 7499.8 -100
	100 7499.8 100
	100 7499.8 300
	300 7499.8 -300
	300 7499.8 -100
	300 7499.8 100
	300 7499.8 300
	-300 7699.81 -300
	-300 7699.81 -100
	-300 7699.81 100
	-300 7699.81 300
	-100 7699.81 -300
	-100 7699.81 -100
	-100 7699.81 100
	-100 7699.81 300
	100 7699.81 -300
	100 7699.81 -100
	100 7699.81 100
	100 7699.81 300
	300 7699.81 -300
	300 7699.81 -100
	300 7699.81 100
	300 7699.81 300
	-300 7899.81 -300
	-300 7899.81 -100
	-300 7899.81 100
	-300 7899.81 300
	-100 7899.81 -300
	-100 7899.81 -100
	-100 7899.81 100
	-100 7899.81 300
	100 7899.81 -300
	100 7899.81 -100
	100 7899.81 100
	100 7899.81 300
	300 7899.81 -300
	300 7899.81 -100
	300 7899.81 100
	300 7899.81 300
	-300 8099.81 -300
	-300 8099.81 -100
	-300 8099.81 100
	-300 8099.81 300
	-100 8099.81 -300
	-100 8099.81 -100
	-100 8099.81 100
	-100 8099.81 300
	100 8099.81 -300
	100 8099.81 -100
	100 8099.81 100
	100 8099.81 300
	300 8099.81 -300
	300 8099.81 -100
	300 8099.81 100
	300 8099.81 300
	-300 8299.82 -300
	-300 8299.82 -100
	-300 8299.82 100
	-300 8299.82 300
	-100 8299.82 -300
	-100 8299.82 -100
	-100 8299.82 100
	-100 8299.82 300
	100 8299.82 -300
	100 8299.82 -100
	100 8299.82 100
	100 8299.82 300
	300 8299.82 -300
	300 8299.82 -100
	300 8299.82 100
	300 8299.82 300
	-300 8499.82 -300
	-300 8499.82 -100
	-300 8499.82 100
	-300 8499.82 300
	-100 8499.82 -300
	-100 8499.82 -100
	-100 8499.82 100
	-100 8499.82 300
	100 8499.82 -300
	100 8499.82 -100
	100 8499.82 100
	100 8499.82 300
	300 8499.82 -300
	300 8499.82 -100
	300 8499.82 100
	300 8499.82 300
	-300 8699.83 -300
	-300 8699.83 -100
	-300 8699.83 100
	-300 8699.83 300
	-100 8699.83 -300
	-100 8699.83 -100
	-100 8699.83 100
	-100 8699.83 300
	100 8699.83 -300
	100 8699.83 -100
	100 8699.83 100
	100 8699.83 300
	300 8699.83 -300
	300 8699.83 -100
	300 8699.83 100
	300 8699.83 300
	-300 8899.83 -300
	-300 8899.83 -100
	-300 8899.83 100
	-300 8899.83 300
	-100 8899.83 -300
	-100 8899.83 -100
	-100 8899.83 100
	-100 8899.83 300
	100 8899.83 -300
	100 8899.83 -100
	100 8899.83 100
	100 8899.83 300
	300 8899.83 -300
	300 8899.83 -100
	300 8899.83 100
	300 8899.83 300
	-300 9099.84 -300
	-300 9099.84 -100
	-300 9099.84 100
	-300 9099.84 300
	-100 9099.84 -300
	-100 9099.84 -100
	-100 9099.84 100
	-100 9099.84 300
	100 9099.84 -300
	100 9099.84 -100
	100 9099.84 100
	100 9099.84 300
	300 9099.84 -300
	300 9099.84 -100
	300 9099.84 100
	300 9099.84 300
	-300 9299.85 -300
	-300 9299.85 -100
	-300 9299.85 100
	-300 9299.85 300
	-100 9299.85 -300
	-100 9299.85 -100
	-100 9299.85 100
	-100 9299.85 300
	100 9299.85 -300
	100 9299.85 -100
	100 9299.85 100
	100 9299.85 300
	300 9299.85 -300
	300 9299.85 -100
	300 9299.85 100
	300 9299.85 300
	-300 9499.85 -300
	-300 9499.85 -100
	-300 9499.85 100
	-300 9499.85 300
	-100 9499.85 -300
	-100 9499.85 -100
	-100 9499.85 100
	-100 9499.85 300
	100 9499.85 -300
	100 9499.85 -100
	100 9499.85 100
	100 9499.85 300
	300 9499.85 -300
	300 9499.85 -100
	300 9499.85 100
	300 9499.85 300
	-300 9699.86 -300
	-300 9699.86 -100
	-300 9699.86 100
	-300 9699.86 300
	-100 9699.86 -300
	-100 9699.86 -100
	-100 9699.86 100
	-100 9699.86 300
	100 9699.86 -300
	100 9699.86 -100
	100 9699.86 100
	100 9699.86 300
	300 9699.86 -300
	300 9699.86 -100
	300 9699.86 100
	300 9699.86 300
	-300 9899.87 -300
	-300 9899.87 -100
	-300 9899.87 100
	-300 9899.87 300
	-100 9899.87 -300
	-100 9899.87 -100
	-100 9899.87 100
	-100 9899.87 300
	100 9899.87 -300
	100 9899.87 -100
	100 9899.87 100
	100 9899.87 300
	300 9899.87 -300
	300 9899.87 -100
	300 9899.87 100
	300 9899.87 300
	-300 10099.9 -300
	-300 10099.9 -100
	-300 10099.9 100
	-300 10099.9 300
	-100 10099.9 -300
	-100 10099.9 -100
	-100 10099.9 100
	-100 10099.9 300
	100 10099.9 -300
	100 10099.9 -100
	100 10099.9 100
	100 10099.9 300
	300 10099.9 -300
	300 10099.9 -100
	300 10099.9 100
	300 10099.9 300
	-300 10299.9 -300
	-300 10299.9 -100
	-300 10299.9 100
	-300 10299.9 300
	-100 10299.9 -300
	-100 10299.9 -100
	-100 10299.9 100
	-100 10299.9 300
	100 10299.9 -300
	100 10299.9 -100
	100 10299.9 100
	100 10299.9 300
	300 10299.9 -300
	300 10299.9 -100
	300 10299.9 100
	300 10299.9 300
	-300 10499.9 -300
	-300 10499.9 -100
	-300 10499.9 100
	-300 10499.9 300
	-100 10499.9 -300
	-100 10499.9 -100
	-100 10499.9 100
	-100 10499.9 300
	100 10499.9 -300
	100 10499.9 -100
	100 10499.9 100
	100 10499.9 300
	300 10499.9 -300
	300 10499.9 -100
	300 10499.9 100
	300 10499.9 300
	-300 10699.9 -300
	-300 10699.9 -100
	-300 10699.9 100
	-300 10699.9 300
	-100 10699.9 -300
	-100 10699.9 -100
	-100 10699.9 100
	-100 10699.9 300
	100 10699.9 -300
	100 10699.9 -100
	100 10699.9 100
	100 10699.9 300
	300 10699.9 -300
	300 10699.9 -100
	300 10699.9 100
	300 10699.9 300
	-300 10899.9 -300
	-300 10899.9 -100
	-300 10899.9 100
	-300 10899.9 300
	-100 10899.9 -300
	-100 10899.9 -100
	-100 10899.9 100
	-100 10899.9 300
	100 10899.9 -300
	100 10899.9 -100
	100 10899.9 100
	100 10899.9 300
	300 10899.9 -300
	300 10899.9 -100
	300 10899.9 100
	300 10899.9 300
	-300 11099.9 -300
	-300 11099.9 -100
	-300 11099.9 100
	-300 11099.9 300
	-100 11099.9 -300
	-100 11099.9 -100
	-100 11099.9 100
	-100 11099.9 300
	100 11099.9 -300
	100 11099.9 -100
	100 11099.9 100
	100 11099.9 300
	300 11099.9 -300
	300 11099.9 -100
	300 11099.9 100
	300 11099.9 300
	-300 11299.9 -300
	-300 11299.9 -100
	-300 11299.9 100
	-300 11299.9 300
	-100 11299.9 -300
	-100 11299.9 -100
	-100 11299.9 100
	-100 11299.9 300
	100 11299.9 -300
	100 11299.9 -100
	100 11299.9 100
	100 11299.9 300
	300 11299.9 -300
	300 11299.9 -100
	300 11299.9 100
	300 11299.9 300
	-300 11499.9 -300
	-300 11499.9 -100
	-300 11499.9 100
	-300 11499.9 300
	-100 11499.9 -300
	-100 11499.9 -100
	-100 11499.9 100
	-100 11499.9 300
	100 11499.9 -300
	100 11499.9 -100
	100 11499.9 100
	100 11499.9 300
	300 11499.9 -300
	300 11499.9 -100
	300 11499.9 100
	300 11499.9 300
	-300 11700 -300
	-300 11700 -100
	-300 11700 100
	-300 11700 300
	-100 11700 -300
	-100 11700 -100
	-100 11700 100
	-100 11700 300
	100 11700 -300
	100 11700 -100
	100 11700 100
	100 11700 300
	300 11700 -300
	300 11700 -100
	300 11700 100
	300 11700 300
	-300 11900 -300
	-300 11900 -100
	-300 11900 100
	-300 11900 300
	-100 11900 -300
	-100 11900 -100
	-100 11900 100
	-100 11900 300
	100 11900 -300
	100 11900 -100
	100 11900 100
	100 11900 300
	300 11900 -300
	300 11900 -100
	300 11900 100
	300 11900 300
	-300 12100 -300
	-300 12100 -100
	-300 12100 100
	-300 12100 300
	-100 12100 -300
	-100 12100 -100
	-100 12100 100
	-100 12100 300
	100 12100 -300
	100 12100 -100
	100 12100 100
	100 12100 300
	300 12100 -300
	300 12100 -100
	300 12100 100
	300 12100 300
	-300 12300 -300
	-300 12300 -100
	-300 12300 100
	-300 12300 300
	-100 12300 -300
	-100 12300 -100
	-100 12300 100
	-100 12300 300
	100 12300 -300
	100 12300 -100
	100 12300 100
	100 12300 300
	300 12300 -300
	300 12300 -100
	300 12300 100
	300 12300 300
	-300 12500.1 -300
	-300 12500.1 -100
	-300 12500.1 100
	-300 12500.1 300
	-100 12500.1 -300
	-100 12500.1 -100
	-100 12500.1 100
	-100 12500.1 300
	100 12500.1 -300
	100 12500.1 -100
	100 12500.1 100
	100 12500.1 300
	300 12500.1 -300
	300 12500.1 -100
	300 12500.1 100
	300 12500.1 300
	-300 12700.1 -300
	-300 12700.1 -100
	-300 12700.1 100
	-300 12700.1 300
	-100 12700.1 -300
	-100 12700.1 -100
	-100 12700.1 100
	-100 12700.1 300
	100 12700.1 -300
	100 12700.1 -100
	100 12700.1 100
	100 12700.1 300
	300 12700.1 -300
	300 12700.1 -100
	300 12700.1 100
	300 12700.1 300
	-300 12900.2 -300
	-300 12900.2 -100
	-300 12900.2 100
	-300 12900.2 300
	-100 12900.2 -300
	-100 12900.2 -100
	-100 12900.2 100
	-100 12900.2 300
	100 12900.2 -300
	100 12900.2 -100
	100 12900.2 100
	100 12900.2 300
	300 12900.2 -300
	300 12900.2 -100
	300 12900.2 100
	300 12900.2 300
	-300 13100.2 -300
	-300 13100.2 -100
	-300 13100.2 100
	-300 13100.2 300
	-100 13100.2 -300
	-100 13100.2 -100
	-100 13100.2 100
	-100 13100.2 300
	100 13100.2 -300
	100 13100.2 -100
	100 13100.2 100
	100 13100.2 300
	300 13100.2 -300
	300 13100.2 -100
	300 13100.2 100
	300 13100.2 300
	-300 13300.3 -300
	-300 13300.3 -100
	-300 13300.3 100
	-300 13300.3 300
	-100 13300.3 -300
	-100 13300.3 -100
	-100 13300.3 100
	-100 13300.3 300
	100 13300.3 -300
	100 13300.3 -100
	100 13300.3 100
	100 13300.3 300
	300 13300.3 -300
	300 13300.3 -100
	300 13300.3 100
	300 13300.3 300
	-300 13500.5 -300
	-300 13500.5 -100
	-300 13500.5 100
	-300 13500.5 300
	-100 13500.5 -300
	-100 13500.5 -100
	-100 13500.5 100
	-100 13500.5 300
	100 13500.5 -300
	100 13500.5 -100
	100 13500.5 100
	100 13500.5 300
	300 13500.5 -300
	300 13500.5 -100
	300 13500.5 100
	300 13500.5 300
	-300 13700.7 -300
	-300 13700.7 -100
	-300 13700.7 100
	-300 13700.7 300
	-100 13700.7 -300
	-100 13700.7 -100
	-100 13700.7 100
	-100 13700.7 300
	100 13700.7 -300
	100 13700.7 -100
	100 13700.7 100
	100 13700.7 300
	300 13700.7 -300
	300 13700.7 -100
	300 13700.7 100
	300 13700.7 300
	-300 13901.4 -300
	-300 13901.4 -100
	-300 13901.4 100
	-300 13901.4 300
	-100 13901.4 -300
	-100 13901.4 -100
	-100 13901.4 100
	-100 13901.4 300
	100 13901.4 -300
	100 13901.4 -100
	100 13901.4 100
	100 13901.4 300
	300 13901.4 -300
	300 13901.4 -100
	300 13901.4 100
	300 13901.4 300
  </DataArray>
</Points>
<PointData  Vectors="vector">
  <DataArray type="Float32" Name="Velocity" NumberOfComponents="3" format="ascii">
 8.87411e-06 -0.000211994 8.87437e-06
 6.3988e-06 -0.000440726 1.77984e-06
 6.39904e-06 -0.000440726 -1.77977e-06
 8.87416e-06 -0.000211994 -8.87407e-06
 1.78032e-06 -0.000440726 6.39851e-06
 1.57058e-07 -0.000435439 1.57828e-07
 1.56445e-07 -0.000435439 -1.57764e-07
 1.78018e-06 -0.000440727 -6.3982e-06
 -1.78019e-06 -0.000440727 6.39851e-06
 -1.57025e-07 -0.000435439 1.5772e-07
 -1.56397e-07 -0.000435439 -1.5766e-07
 -1.78015e-06 -0.000440726 -6.39823e-06
 -8.87393e-06 -0.000211994 8.87433e-06
 -6.39856e-06 -0.000440727 1.77978e-06
 -6.3989e-06 -0.000440727 -1.77981e-06
 -8.87396e-06 -0.000211994 -8.8741e-06
 1.05893e-05 -0.000477178 1.05895e-05
 9.35304e-06 -0.000780017 -4.98377e-06
 9.35304e-06 -0.000780017 4.98279e-06
 1.05893e-05 -0.000477178 -1.05885e-05
 -4.98378e-06 -0.000780018 9.35343e-06
 -7.16708e-06 -0.0016054 -7.16744e-06
 -7.167e-06 -0.0016054 7.16742e-06
 -4.98354e-06 -0.000780017 -9.35338e-06
 4.98319e-06 -0.000780017 9.35348e-06
 7.16776e-06 -0.0016054 -7.16753e-06
 7.16759e-06 -0.0016054 7.16751e-06
 4.98273e-06 -0.000780017 -9.35342e-06
 -1.05886e-05 -0.000477178 1.05894e-05
 -9.35355e-06 -0.000780017 -4.98369e-06
 -9.35349e-06 -0.000780017 4.98278e-06
 -1.05883e-05 -0.000477178 -1.05885e-05
 -7.9276e-06 -0.00326807 -7.92983e-06
 -5.42122e-06 0.00067263 1.08536e-05
 -5.42098e-06 0.00067263 -1.08501e-05
 -7.92797e-06 -0.00326807 7.92642e-06
 1.08513e-05 0.000672629 -5.42277e-06
 7.12884e-06 0.000136021 7.13059e-06
 7.1287e-06 0.000136021 -7.1245e-06
 1.08518e-05 0.00067263 5.41672e-06
 -1.08481e-05 0.000672629 -5.42269e-06
 -7.12374e-06 0.000136022 7.13051e-06
 -7.12447e-06 0.000136022 -7.12422e-06
 -1.08497e-05 0.00067263 5.41644e-06
 7.92452e-06 -0.00326807 -7.9296e-06
 5.41628e-06 0.00067263 1.08534e-05
 5.41693e-06 0.00067263 -1.08498e-05
 7.92613e-06 -0.00326807 7.92603e-06
 -3.54324e-06 -0.00240701 -3.5428e-06
 -3.28169e-06 -0.00107234 -1.46799e-05
 -3.28145e-06 -0.00107234 1.46788e-05
 -3.54331e-06 -0.00240701 3.54384e-06
 -1.46802e-05 -0.00107234 -3.28122e-06
 -1.41253e-05 -0.00241551 -1.41247e-05
 -1.41248e-05 -0.00241551 1.41236e-05
 -1.46799e-05 -0.00107234 3.28223e-06
 1.46791e-05 -0.00107234 -3.28123e-06
 1.41241e-05 -0.00241551 -1.41247e-05
 1.41237e-05 -0.00241551 1.41236e-05
 1.46793e-05 -0.00107234 3.28225e-06
 3.5443e-06 -0.00240701 -3.54286e-06
 3.28287e-06 -0.00107234 -1.46801e-05
 3.28246e-06 -0.00107234 1.46788e-05
 3.54397e-06 -0.00240701 3.54405e-06
 -4.89522e-06 -0.000767348 -4.89516e-06
 -3.19392e-06 0.000586797 1.58185e-06
 -3.19398e-06 0.000586797 -1.58196e-06
 -4.89531e-06 -0.00076735 4.89526e-06
 1.58184e-06 0.000586797 -3.19391e-06
 1.78839e-06 -0.000806328 1.78843e-06
 1.78841e-06 -0.000806327 -1.78848e-06
 1.58183e-06 0.000586797 3.19392e-06
 -1.58195e-06 0.000586797 -3.194e-06
 -1.78851e-06 -0.000806328 1.78841e-06
 -1.78847e-06 -0.000806328 -1.78846e-06
 -1.58188e-06 0.000586797 3.19401e-06
 4.89525e-06 -0.00076735 -4.89535e-06
 3.19393e-06 0.000586797 1.58175e-06
 3.19392e-06 0.000586797 -1.58189e-06
 4.89529e-06 -0.00076735 4.89545e-06
 -1.74109e-05 1.41309e-05 -1.7411e-05
 -1.32221e-05 -0.000324757 -2.86314e-06
 -1.3222e-05 -0.000324757 2.86307e-06
 -1.74106e-05 1.41315e-05 1.74111e-05
 -2.86326e-06 -0.000324757 -1.32222e-05
 7.96397e-07 -0.00039339 7.96426e-07
 7.96294e-07 -0.00039339 -7.96515e-07
 -2.86312e-06 -0.000324757 1.32223e-05
 2.86305e-06 -0.000324757 -1.32222e-05
 -7.9676e-07 -0.00039339 7.96443e-07
 -7.96723e-07 -0.00039339 -7.96607e-07
 2.8626e-06 -0.000324756 1.32223e-05
 1.7411e-05 1.41326e-05 -1.74104e-05
 1.32224e-05 -0.000324757 -2.86252e-06
 1.32224e-05 -0.000324757 2.86225e-06
 1.74111e-05 1.4132e-05 1.74107e-05
 -1.82895e-05 -0.00100924 -1.82897e-05
 -1.57431e-05 -0.00277314 5.79365e-06
 -1.57431e-05 -0.00277314 -5.79362e-06
 -1.82894e-05 -0.00100924 1.82897e-05
 5.79457e-06 -0.00277314 -1.57433e-05
 6.3656e-06 0.000998169 6.36596e-06
 6.36558e-06 0.000998169 -6.36582e-06
 5.79407e-06 -0.00277314 1.57432e-05
 -5.79456e-06 -0.00277314 -1.57434e-05
 -6.36572e-06 0.000998169 6.36593e-06
 -6.36577e-06 0.000998169 -6.36578e-06
 -5.79416e-06 -0.00277314 1.57432e-05
 1.82893e-05 -0.00100924 -1.82897e-05
 1.57431e-05 -0.00277314 5.7938e-06
 1.57432e-05 -0.00277314 -5.79367e-06
 1.82894e-05 -0.00100924 1.82896e-05
 -4.77706e-06 0.000427138 -4.77702e-06
 -4.06292e-06 -0.00111995 -6.6164e-07
 -4.06295e-06 -0.00111995 6.6169e-07
 -4.77708e-06 0.000427139 4.77703e-06
 -6.61684e-07 -0.00111995 -4.06288e-06
 -4.22153e-07 -0.00117516 -4.22134e-07
 -4.22157e-07 -0.00117516 4.2216e-07
 -6.61674e-07 -0.00111995 4.06291e-06
 6.61717e-07 -0.00111995 -4.06288e-06
 4.22181e-07 -0.00117516 -4.22134e-07
 4.22185e-07 -0.00117516 4.22165e-07
 6.61708e-07 -0.00111995 4.06292e-06
 4.77706e-06 0.00042714 -4.77704e-06
 4.06292e-06 -0.00111995 -6.61658e-07
 4.06292e-06 -0.00111995 6.61704e-07
 4.77709e-06 0.000427139 4.77707e-06
 -9.51191e-07 0.000452647 -9.51194e-07
 -1.14869e-06 0.000427167 1.60715e-07
 -1.14869e-06 0.000427167 -1.60665e-07
 -9.51186e-07 0.000452648 9.5123e-07
 1.6068e-07 0.000427169 -1.14869e-06
 1.04199e-07 -0.000318176 1.04228e-07
 1.04199e-07 -0.000318176 -1.04188e-07
 1.60673e-07 0.000427168 1.14872e-06
 -1.60657e-07 0.000427168 -1.14868e-06
 -1.04179e-07 -0.000318176 1.0423e-07
 -1.04178e-07 -0.000318176 -1.04186e-07
 -1.60642e-07 0.000427169 1.14872e-06
 9.51225e-07 0.000452648 -9.51188e-07
 1.14872e-06 0.000427167 1.60692e-07
 1.14871e-06 0.000427168 -1.60651e-07
 9.51227e-07 0.000452648 9.51237e-07
 3.86132e-06 0.000102899 3.86131e-06
 2.72154e-06 -0.00185048 2.08564e-06
 2.72154e-06 -0.00185048 -2.0856e-06
 3.86132e-06 0.000102898 -3.86122e-06
 2.08566e-06 -0.00185049 2.72153e-06
 1.74486e-06 -0.000377687 1.74483e-06
 1.74486e-06 -0.000377686 -1.7448e-06
 2.08565e-06 -0.00185048 -2.72145e-06
 -2.08557e-06 -0.00185049 2.72154e-06
 -1.74477e-06 -0.000377687 1.74484e-06
 -1.74478e-06 -0.000377686 -1.74479e-06
 -2.08557e-06 -0.00185049 -2.72146e-06
 -3.86124e-06 0.000102898 3.86132e-06
 -2.72147e-06 -0.00185048 2.08563e-06
 -2.72147e-06 -0.00185048 -2.0856e-06
 -3.86124e-06 0.000102898 -3.86124e-06
 4.60244e-06 -0.000967376 4.60246e-06
 3.41113e-06 -0.000453383 1.94859e-06
 3.41112e-06 -0.000453385 -1.94856e-06
 4.60243e-06 -0.000967376 -4.60232e-06
 1.94864e-06 -0.000453382 3.41114e-06
 1.58689e-06 -0.00236148 1.58685e-06
 1.58688e-06 -0.00236148 -1.58681e-06
 1.94863e-06 -0.000453382 -3.41101e-06
 -1.94853e-06 -0.000453383 3.41114e-06
 -1.58679e-06 -0.00236148 1.58685e-06
 -1.58678e-06 -0.00236148 -1.58681e-06
 -1.94853e-06 -0.00045338 -3.41101e-06
 -4.60236e-06 -0.000967376 4.60245e-06
 -3.41105e-06 -0.000453383 1.94859e-06
 -3.41105e-06 -0.000453383 -1.94856e-06
 -4.60235e-06 -0.000967376 -4.60233e-06
 2.99515e-06 -0.00153288 2.99507e-06
 2.24057e-06 -0.000502425 1.33436e-06
 2.24057e-06 -0.000502424 -1.33416e-06
 2.99514e-06 -0.00153288 -2.99511e-06
 1.33426e-06 -0.000502425 2.24054e-06
 1.12261e-06 0.000629061 1.12266e-06
 1.12261e-06 0.00062906 -1.12253e-06
 1.33428e-06 -0.000502426 -2.24052e-06
 -1.33424e-06 -0.000502426 2.24053e-06
 -1.12256e-06 0.000629061 1.12267e-06
 -1.12256e-06 0.000629062 -1.12252e-06
 -1.33423e-06 -0.000502427 -2.24053e-06
 -2.99501e-06 -0.00153288 2.99509e-06
 -2.24046e-06 -0.000502426 1.33434e-06
 -2.24046e-06 -0.000502425 -1.33417e-06
 -2.99503e-06 -0.00153288 -2.9951e-06
 1.44288e-06 -0.00114414 1.44291e-06
 1.11075e-06 0.00101003 3.94443e-07
 1.11075e-06 0.00101003 -3.94381e-07
 1.44288e-06 -0.00114414 -1.4428e-06
 3.94454e-07 0.00101003 1.11077e-06
 3.08165e-07 -0.000569031 3.08149e-07
 3.08161e-07 -0.00056903 -3.08084e-07
 3.94446e-07 0.00101003 -1.11067e-06
 -3.94367e-07 0.00101003 1.11077e-06
 -3.08079e-07 -0.000569031 3.08155e-07
 -3.08079e-07 -0.000569031 -3.08078e-07
 -3.94363e-07 0.00101003 -1.11067e-06
 -1.44282e-06 -0.00114414 1.44291e-06
 -1.11069e-06 0.00101003 3.94448e-07
 -1.11069e-06 0.00101003 -3.94377e-07
 -1.4428e-06 -0.00114414 -1.44281e-06
 -8.8715e-07 0.00132138 -8.87264e-07
 -2.56431e-07 -0.00113059 2.6466e-06
 -2.56279e-07 -0.00113059 -2.64658e-06
 -8.87078e-07 0.00132138 8.87341e-07
 2.64647e-06 -0.00113059 -2.57187e-07
 2.27808e-06 -0.00105982 2.27885e-06
 2.27792e-06 -0.00105982 -2.27882e-06
 2.64641e-06 -0.00113059 2.57244e-07
 -2.64646e-06 -0.00113059 -2.57291e-07
 -2.27833e-06 -0.00105982 2.27896e-06
 -2.27856e-06 -0.00105982 -2.27874e-06
 -2.64664e-06 -0.00113059 2.57172e-07
 8.87233e-07 0.00132138 -8.87303e-07
 2.56784e-07 -0.00113059 2.64664e-06
 2.57005e-07 -0.00113059 -2.64661e-06
 8.87414e-07 0.00132138 8.87362e-07
 1.33239e-07 -0.00162995 1.33216e-07
 3.83989e-07 0.00201255 6.3562e-07
 3.8399e-07 0.00201255 -6.35595e-07
 1.33249e-07 -0.00162995 -1.33197e-07
 6.35618e-07 0.00201255 3.8397e-07
 7.10618e-07 0.00173377 7.10613e-07
 7.10621e-07 0.00173377 -7.10592e-07
 6.35626e-07 0.00201255 -3.83952e-07
 -6.35576e-07 0.00201255 3.83973e-07
 -7.10574e-07 0.00173377 7.10614e-07
 -7.10575e-07 0.00173377 -7.10591e-07
 -6.35575e-07 0.00201255 -3.8395e-07
 -1.33198e-07 -0.00162995 1.33219e-07
 -3.83943e-07 0.00201255 6.35621e-07
 -3.83944e-07 0.00201255 -6.35599e-07
 -1.33195e-07 -0.00162995 -1.33203e-07
 -2.77985e-06 0.00195188 -2.77984e-06
 -1.37338e-06 -0.00188988 1.15156e-06
 -1.37343e-06 -0.00188988 -1.15158e-06
 -2.77985e-06 0.00195188 2.77982e-06
 1.15178e-06 -0.00188988 -1.3733e-06
 4.98211e-07 -0.00186218 4.97934e-07
 4.98309e-07 -0.00186218 -4.97969e-07
 1.15182e-06 -0.00188988 1.37329e-06
 -1.15175e-06 -0.00188988 -1.37333e-06
 -4.98163e-07 -0.00186218 4.98008e-07
 -4.98255e-07 -0.00186218 -4.98031e-07
 -1.15178e-06 -0.00188988 1.37331e-06
 2.77988e-06 0.00195188 -2.77986e-06
 1.37341e-06 -0.00188988 1.15166e-06
 1.37345e-06 -0.00188988 -1.15168e-06
 2.77989e-06 0.00195188 2.77983e-06
 1.17563e-06 -0.00175116 1.17559e-06
 1.34108e-06 -0.00197996 -1.15123e-06
 1.34108e-06 -0.00197996 1.15118e-06
 1.17564e-06 -0.00175116 -1.17564e-06
 -1.15119e-06 -0.00197996 1.34104e-06
 -5.12007e-07 -0.00238666 -5.12052e-07
 -5.12008e-07 -0.00238666 5.12e-07
 -1.15119e-06 -0.00197996 -1.34109e-06
 1.15123e-06 -0.00197996 1.34104e-06
 5.12047e-07 -0.00238666 -5.12045e-07
 5.1205e-07 -0.00238666 5.11994e-07
 1.15124e-06 -0.00197996 -1.34109e-06
 -1.17559e-06 -0.00175116 1.17559e-06
 -1.34104e-06 -0.00197996 -1.15123e-06
 -1.34104e-06 -0.00197996 1.15118e-06
 -1.17559e-06 -0.00175116 -1.17564e-06
 -3.33238e-07 -0.00219978 -3.3327e-07
 -3.09338e-07 -0.0019527 4.04338e-07
 -3.09339e-07 -0.0019527 -4.04376e-07
 -3.33236e-07 -0.00219978 3.3323e-07
 4.0437e-07 -0.0019527 -3.09372e-07
 4.20501e-07 -0.00114889 4.20467e-07
 4.20501e-07 -0.00114889 -4.20508e-07
 4.04373e-07 -0.0019527 3.09328e-07
 -4.04346e-07 -0.0019527 -3.09371e-07
 -4.20474e-07 -0.00114889 4.20467e-07
 -4.20473e-07 -0.00114889 -4.20509e-07
 -4.04341e-07 -0.0019527 3.09328e-07
 3.33261e-07 -0.00219978 -3.33272e-07
 3.09364e-07 -0.0019527 4.04336e-07
 3.09367e-07 -0.0019527 -4.0438e-07
 3.33269e-07 -0.00219978 3.33226e-07
 -7.47167e-07 -0.00230441 -7.47202e-07
 -7.52844e-07 -0.00139314 -1.3253e-07
 -7.52842e-07 -0.00139314 1.3249e-07
 -7.47162e-07 -0.00230441 7.47168e-07
 -1.3251e-07 -0.00139314 -7.52877e-07
 -1.22111e-07 -0.00195837 -1.22186e-07
 -1.22082e-07 -0.00195837 1.2214e-07
 -1.3249e-07 -0.00139314 7.52844e-07
 1.32522e-07 -0.00139314 -7.52879e-07
 1.22142e-07 -0.00195837 -1.2219e-07
 1.22114e-07 -0.00195837 1.22147e-07
 1.32515e-07 -0.00139314 7.52842e-07
 7.47201e-07 -0.00230441 -7.47209e-07
 7.52864e-07 -0.00139314 -1.32536e-07
 7.52862e-07 -0.00139314 1.32499e-07
 7.47197e-07 -0.00230441 7.47163e-07
 -1.33065e-06 -0.00161553 -1.33066e-06
 -1.37322e-06 -0.00270611 -6.47229e-07
 -1.37322e-06 -0.00270611 6.47222e-07
 -1.33065e-06 -0.00161553 1.33065e-06
 -6.47219e-07 -0.00270611 -1.37324e-06
 -6.45634e-07 -0.00268238 -6.45643e-07
 -6.45634e-07 -0.00268238 6.45637e-07
 -6.47217e-07 -0.00270611 1.37323e-06
 6.47234e-07 -0.00270611 -1.37324e-06
 6.45653e-07 -0.00268238 -6.45643e-07
 6.45652e-07 -0.00268238 6.45637e-07
 6.47236e-07 -0.00270611 1.37322e-06
 1.33066e-06 -0.00161553 -1.33066e-06
 1.37324e-06 -0.00270611 -6.4723e-07
 1.37324e-06 -0.00270611 6.47221e-07
 1.33067e-06 -0.00161553 1.33065e-06
 -1.85234e-06 -0.00152262 -1.85235e-06
 -1.36176e-06 -0.001564 -8.77928e-07
 -1.36176e-06 -0.001564 8.77926e-07
 -1.85234e-06 -0.00152262 1.85235e-06
 -8.7792e-07 -0.001564 -1.36174e-06
 -1.33719e-06 -0.00160133 -1.33721e-06
 -1.33719e-06 -0.00160133 1.33719e-06
 -8.7792e-07 -0.001564 1.36176e-06
 8.77931e-07 -0.001564 -1.36174e-06
 1.3372e-06 -0.00160133 -1.33721e-06