MercuryDPM 0.14 name oneDimChain revision 6406 repository https://svn.mercurydpm.org/SourceCode/Branches/OomphlibCouplingExplicit
dataFile    fileType ONE_FILE saveCount 62 counter 102 lastSavedTimeStep 6222
fStatFile   fileType ONE_FILE saveCount 62 counter 102 lastSavedTimeStep 6222
eneFile     fileType ONE_FILE saveCount 62 counter 102 lastSavedTimeStep 6222
restartFile fileType ONE_FILE saveCount 62 counter 102 lastSavedTimeStep 6222
statFile    fileType ONE_FILE saveCount 62 counter 0
interactionFile fileType NO_FILE saveCount 0 counter 0
xMin -500 xMax 500 yMin -5000 yMax 5000 zMin -500 zMax 500
timeStep 0.0160743783395346 time 100.01478202859 ntimeSteps 6222 timeMax 100
systemDimensions 3 particleDimensions 3 gravity 0 0 -0 writeVTK 1 MULTIPLE_FILES NO_FILE 102 102 0 0 random  0 1103515245 12345 1073741824 607 273 784607267
Species 1
LinearViscoelasticReversibleAdhesiveSpecies id 0 density 2500 stiffness 20000000000 dissipation -0 adhesionForceMax 0 adhesionStiffness 20000000000
Walls 0
Boundaries 0
Particles 960
BaseParticle id 0 indSpecies 0 position -300.000065498534 2099.72669185014 -300.00007933324 orientation 1 0 0 0 velocity 7.30605033568722e-05 0.0367487094515199 7.00859400531943e-05 angularVelocity 0 0 0 force 1484175.22684691 -369208529.733367 1614585.30365565 torque 0 0 0 radius 100 invMass 9.54929658551372e-11
BaseParticle id 1 indSpecies 0 position -300.000096728449 2099.70230765477 -100.000057533242 orientation 1 0 0 0 velocity -3.59865919282444e-05 0.0254215213520737 -1.71344202528333e-05 angularVelocity 0 0 0 force 1311133.6739633 302713989.839729 333221.157991623 torque 0 0 0 radius 100 invMass 9.54929658551372e-11
BaseParticle id 2 indSpecies 0 position -300.000082223693 2099.70230757892 100.000057544219 orientation 1 0 0 0 velocity -3.06878061378877e-05 0.0254215313276304 1.7122881334909e-05 angularVelocity 0 0 0 force 1302981.69096172 302714018.681044 -333498.767540278 torque 0 0 0 radius 100 invMass 9.54929658551372e-11
BaseParticle id 3 indSpecies 0 position -300.000068069041 2099.72669180361 300.000079347455 orientation 1 0 0 0 velocity 7.18274174028572e-05 0.0367486443312363 -7.00997053178211e-05 angularVelocity 0 0 0 force 1502087.28451571 -369207514.848214 -1614919.4057407 torque 0 0 0 radius 100 invMass 9.54929658551372e-11
BaseParticle id 4 indSpecies 0 position -100.000074035574 2099.70230760703 -300.000081829996 orientation 1 0 0 0 velocity -2.05198431097859e-05 0.0254215068226692 -3.12121203123282e-05 angularVelocity 0 0 0 force 495431.132411869 302714494.736634 1296672.21701902 torque 0 0 0 radius 100 invMass 9.54929658551372e-11
BaseParticle id 5 indSpecies 0 position -99.9999918880842 2099.69779003611 -100.000000197209 orientation 1 0 0 0 velocity 2.4703292816618e-05 0.0178224328334943 2.52024816891111e-05 angularVelocity 0 0 0 force -44794.4088666581 227168990.719465 262821.262990895 torque 0 0 0 radius 100 invMass 9.54929658551372e-11
BaseParticle id 6 indSpecies 0 position -99.9999948949291 2099.69779016385 100.000000179093 orientation 1 0 0 0 velocity 2.63474203736859e-05 0.0178225113785434 -2.51901011453009e-05 angularVelocity 0 0 0 force 117292.187895015 227167611.22426 -262469.747032562 torque 0 0 0 radius 100 invMass 9.54929658551372e-11
BaseParticle id 7 indSpecies 0 position -100.000075310218 2099.70230761223 300.000081810777 orientation 1 0 0 0 velocity -2.14185708120528e-05 0.0254214530857724 3.1221116268802e-05 angularVelocity 0 0 0 force 467534.572494519 302714589.950901 -1296369.99744696 torque 0 0 0 radius 100 invMass 9.54929658551372e-11
BaseParticle id 8 indSpecies 0 position 100.000062247943 2099.70230760911 -300.000081923683 orientation 1 0 0 0 velocity 2.16654132647393e-05 0.0254215322785831 -3.12496139342848e-05 angularVelocity 0 0 0 force -328351.229498808 302714381.253837 1296708.1208932 torque 0 0 0 radius 100 invMass 9.54929658551372e-11
BaseParticle id 9 indSpecies 0 position 99.9999917529888 2099.6977899606 -100.000000202539 orientation 1 0 0 0 velocity -2.40375846410839e-05 0.0178224367637911 2.5200302344458e-05 angularVelocity 0 0 0 force 66603.3187595413 227169913.572171 262817.929304503 torque 0 0 0 radius 100 invMass 9.54929658551372e-11
BaseParticle id 10 indSpecies 0 position 99.9999970068616 2099.69779007982 100.000000179653 orientation 1 0 0 0 velocity -2.53253277392971e-05 0.0178224642751344 -2.5188333439453e-05 angularVelocity 0 0 0 force -94949.9292765806 227168395.714045 -262481.127769517 torque 0 0 0 radius 100 invMass 9.54929658551372e-11
BaseParticle id 11 indSpecies 0 position 100.000063466215 2099.70230769837 300.000081906969 orientation 1 0 0 0 velocity 2.18056792046369e-05 0.0254214216715956 3.12579953541011e-05 angularVelocity 0 0 0 force -324980.549635111 302714534.622688 -1296404.36132712 torque 0 0 0 radius 100 invMass 9.54929658551372e-11
BaseParticle id 12 indSpecies 0 position 300.000077402906 2099.72669179134 -300.000079326763 orientation 1 0 0 0 velocity -7.42606201776609e-05 0.0367486874359987 7.0094406414939e-05 angularVelocity 0 0 0 force -1651943.19775902 -369207785.217544 1614599.54006977 torque 0 0 0 radius 100 invMass 9.54929658551372e-11
BaseParticle id 13 indSpecies 0 position 300.000096864143 2099.70230782171 -100.000057477287 orientation 1 0 0 0 velocity 3.52399289783431e-05 0.0254215059393338 -1.71167847226855e-05 angularVelocity 0 0 0 force -1334025.71357272 302713914.54133 333181.91804237 torque 0 0 0 radius 100 invMass 9.54929658551372e-11
BaseParticle id 14 indSpecies 0 position 300.000080119977 2099.70230756215 100.000057487535 orientation 1 0 0 0 velocity 2.95754516251047e-05 0.0254215755480152 1.71053539477303e-05 angularVelocity 0 0 0 force -1326457.77745605 302713875.737809 -333499.018427103 torque 0 0 0 radius 100 invMass 9.54929658551372e-11
BaseParticle id 15 indSpecies 0 position 300.000080028824 2099.72669179668 300.000079347298 orientation 1 0 0 0 velocity -7.2268452099686e-05 0.0367486788977536 -7.0108071960086e-05 angularVelocity 0 0 0 force -1645428.39483116 -369208014.149001 -1614936.64776027 torque 0 0 0 radius 100 invMass 9.54929658551372e-11
BaseParticle id 16 indSpecies 0 position -300.00000945599 2299.69541957744 -300.000004372071 orientation 1 0 0 0 velocity 8.0874196959659e-05 0.0422620239421924 7.8536815541401e-05 angularVelocity 0 0 0 force 293404.307074466 491477527.744518 277856.233325095 torque 0 0 0 radius 100 invMass 9.54929658551372e-11
BaseParticle id 17 indSpecies 0 position -300.00013393186 2299.70640421959 -100.000030530255 orientation 1 0 0 0 velocity 4.78947842407112e-05 0.0339164402389612 1.46644561449838e-05 angularVelocity 0 0 0 force 552377.136997589 -278752298.963906 618136.631869294 torque 0 0 0 radius 100 invMass 9.54929658551372e-11
BaseParticle id 18 indSpecies 0 position -300.00013441128 2299.70640430799 100.000030529504 orientation 1 0 0 0 velocity 4.70977296916466e-05 0.0339165835866205 -1.47008967135344e-05 angularVelocity 0 0 0 force 548468.077334932 -278754022.739951 -618446.262908612 torque 0 0 0 radius 100 invMass 9.54929658551372e-11
BaseParticle id 19 indSpecies 0 position -300.000010734356 2299.69541956673 300.000004359549 orientation 1 0 0 0 velocity 8.09413858356412e-05 0.0422620444595703 -7.85410243965951e-05 angularVelocity 0 0 0 force 301504.957618822 491476555.882816 -277779.455254953 torque 0 0 0 radius 100 invMass 9.54929658551372e-11
BaseParticle id 20 indSpecies 0 position -100.000034793636 2299.70640419356 -300.000135008563 orientation 1 0 0 0 velocity 1.36212114314307e-05 0.033916500249921 4.64916733570696e-05 angularVelocity 0 0 0 force 619370.612110249 -278751630.500751 552234.099324482 torque 0 0 0 radius 100 invMass 9.54929658551372e-11
BaseParticle id 21 indSpecies 0 position -100.000007467708 2299.69391801424 -100.000010810979 orientation 1 0 0 0 velocity -3.09923810353914e-05 0.0601359266481631 -3.15416021438806e-05 angularVelocity 0 0 0 force 63952.4489416746 -7277006.80264932 48358.4774930347 torque 0 0 0 radius 100 invMass 9.54929658551372e-11
BaseParticle id 22 indSpecies 0 position -100.000006953007 2299.6939180781 100.000010805837 orientation 1 0 0 0 velocity -3.03687266738322e-05 0.0601357725894152 3.15632123534137e-05 angularVelocity 0 0 0 force 62466.9321056169 -7279898.18943341 -48201.1233715402 torque 0 0 0 radius 100 invMass 9.54929658551372e-11
BaseParticle id 23 indSpecies 0 position -100.000035523075 2299.70640421991 300.000135014467 orientation 1 0 0 0 velocity 1.28867521273611e-05 0.0339165599528916 -4.64704467458931e-05 angularVelocity 0 0 0 force 607960.268935689 -278752219.60555 -552161.427799605 torque 0 0 0 radius 100 invMass 9.54929658551372e-11
BaseParticle id 24 indSpecies 0 position 100.000039863207 2299.70640416297 -300.000135002592 orientation 1 0 0 0 velocity -3.53653164482286e-05 0.0339164346822763 4.64991077537661e-05 angularVelocity 0 0 0 force -796277.096797286 -278751953.540397 552278.874272395 torque 0 0 0 radius 100 invMass 9.54929658551372e-11
BaseParticle id 25 indSpecies 0 position 100.000011871609 2299.6939179828 -100.000010813925 orientation 1 0 0 0 velocity 3.12391499550952e-05 0.0601359518024643 -3.15442983961859e-05 angularVelocity 0 0 0 force -38376.7545212471 -7276547.22472924 48359.4085895586 torque 0 0 0 radius 100 invMass 9.54929658551372e-11
BaseParticle id 26 indSpecies 0 position 100.000011309718 2299.69391803225 100.000010799889 orientation 1 0 0 0 velocity 3.05238516985255e-05 0.0601358811129291 3.15637066780642e-05 angularVelocity 0 0 0 force -36651.3073831553 -7277396.73125224 -48204.404730845 torque 0 0 0 radius 100 invMass 9.54929658551372e-11
BaseParticle id 27 indSpecies 0 position 100.000040640661 2299.7064042661 300.00013501551 orientation 1 0 0 0 velocity -3.46120862112898e-05 0.0339165837202561 -4.64762583171306e-05 angularVelocity 0 0 0 force -786091.393734056 -278754545.729974 -552210.021557695 torque 0 0 0 radius 100 invMass 9.54929658551372e-11
BaseParticle id 28 indSpecies 0 position 300.000004226897 2299.69541957181 -300.000004368354 orientation 1 0 0 0 velocity -5.91754641272565e-05 0.0422622883131736 7.85419319416849e-05 angularVelocity 0 0 0 force -117292.405666558 491481029.03969 277907.699673753 torque 0 0 0 radius 100 invMass 9.54929658551372e-11
BaseParticle id 29 indSpecies 0 position 300.000129550404 2299.70640409939 -100.000030527501 orientation 1 0 0 0 velocity -4.8190727092335e-05 0.0339162307442816 1.46641760606275e-05 angularVelocity 0 0 0 force -579173.740788941 -278750456.480861 618146.401211994 torque 0 0 0 radius 100 invMass 9.54929658551372e-11
BaseParticle id 30 indSpecies 0 position 300.000130081517 2299.70640425044 100.000030517545 orientation 1 0 0 0 velocity -4.73062197664408e-05 0.0339165063462082 -1.46699239644939e-05 angularVelocity 0 0 0 force -575537.299443515 -278752494.112728 -617986.43937557 torque 0 0 0 radius 100 invMass 9.54929658551372e-11
BaseParticle id 31 indSpecies 0 position 300.000005457482 2299.69541955024 300.000004370288 orientation 1 0 0 0 velocity -5.9257186725971e-05 0.0422620992026632 -7.85758982765787e-05 angularVelocity 0 0 0 force -124229.005169417 491478566.563997 -278309.238581581 torque 0 0 0 radius 100 invMass 9.54929658551372e-11
BaseParticle id 32 indSpecies 0 position -300.000097688774 2499.68515529363 -300.000083367278 orientation 1 0 0 0 velocity 4.91109164944035e-05 0.0032890477983094 4.35722976922327e-05 angularVelocity 0 0 0 force 130725.968192753 228491916.209328 -215243.353074963 torque 0 0 0 radius 100 invMass 9.54929658551372e-11
BaseParticle id 33 indSpecies 0 position -300.000151021054 2499.6881521531 -100.000101113148 orientation 1 0 0 0 velocity -1.36477489673504e-05 0.0347801826178407 1.20475870201028e-05 angularVelocity 0 0 0 force 43815.7580494663 71935978.3707405 350404.817918777 torque 0 0 0 radius 100 invMass 9.54929658551372e-11
BaseParticle id 34 indSpecies 0 position -300.000151062871 2499.68815216185 100.000101102191 orientation 1 0 0 0 velocity -1.37177166214361e-05 0.0347799649889254 -1.20592568077619e-05 angularVelocity 0 0 0 force 42978.9380708428 71937972.4877836 -350330.168508408 torque 0 0 0 radius 100 invMass 9.54929658551372e-11
BaseParticle id 35 indSpecies 0 position -300.000097936363 2499.68515526516 300.00008335882 orientation 1 0 0 0 velocity 4.91864948427418e-05 0.00328906634045494 -4.35946997142948e-05 angularVelocity 0 0 0 force 130153.81048302 228492456.048128 215126.078796832 torque 0 0 0 radius 100 invMass 9.54929658551372e-11
BaseParticle id 36 indSpecies 0 position -100.000082092711 2499.68815212797 -300.000156285884 orientation 1 0 0 0 velocity 6.81250132801288e-06 0.0347801675563722 -1.71135349022209e-05 angularVelocity 0 0 0 force 7923.50744800161 71937767.4782591 53069.0874461272 torque 0 0 0 radius 100 invMass 9.54929658551372e-11
BaseParticle id 37 indSpecies 0 position -100.000115615995 2499.68561395582 -100.000114538337 orientation 1 0 0 0 velocity 3.17226794268619e-05 0.0143491418399324 3.51972791942362e-05 angularVelocity 0 0 0 force -13562.393257205 -50355448.6176864 -24029.0667825736 torque 0 0 0 radius 100 invMass 9.54929658551372e-11
BaseParticle id 38 indSpecies 0 position -100.000115584468 2499.68561383035 100.000114497677 orientation 1 0 0 0 velocity 3.16805404701945e-05 0.0143495660918972 -3.52406092589891e-05 angularVelocity 0 0 0 force -13944.5300757176 -50348682.6047624 24102.1830091261 torque 0 0 0 radius 100 invMass 9.54929658551372e-11
BaseParticle id 39 indSpecies 0 position -100.000082190825 2499.68815213461 300.00015633497 orientation 1 0 0 0 velocity 6.8864818372413e-06 0.0347801157872933 1.71911302543444e-05 angularVelocity 0 0 0 force 7746.88465540308 71938252.4224639 -53119.1595538934 torque 0 0 0 radius 100 invMass 9.54929658551372e-11
BaseParticle id 40 indSpecies 0 position 100.000101623043 2499.68815208384 -300.000156303619 orientation 1 0 0 0 velocity -2.13765365344259e-05 0.0347801227575303 -1.71367791511412e-05 angularVelocity 0 0 0 force -450596.290396265 71937631.700648 53143.1292570911 torque 0 0 0 radius 100 invMass 9.54929658551372e-11
BaseParticle id 41 indSpecies 0 position 100.000111707848 2499.68561398496 -100.000114519304 orientation 1 0 0 0 velocity -3.82567073107414e-05 0.0143490926695444 3.52229942861122e-05 angularVelocity 0 0 0 force 37108.0667502925 -50354609.5966227 -24007.8922121709 torque 0 0 0 radius 100 invMass 9.54929658551372e-11
BaseParticle id 42 indSpecies 0 position 100.000111757141 2499.68561393535 100.000114528402 orientation 1 0 0 0 velocity -3.80838337250168e-05 0.0143493520341825 -3.51963562984662e-05 angularVelocity 0 0 0 force 37423.0740574308 -50352823.7882224 24105.1482103825 torque 0 0 0 radius 100 invMass 9.54929658551372e-11
BaseParticle id 43 indSpecies 0 position 100.000101774897 2499.68815206497 300.000156300342 orientation 1 0 0 0 velocity -2.12437269938369e-05 0.0347799215955793 1.71443644704052e-05 angularVelocity 0 0 0 force -449667.427471666 71938958.8536659 -53221.7671419285 torque 0 0 0 radius 100 invMass 9.54929658551372e-11
BaseParticle id 44 indSpecies 0 position 300.000078203306 2499.68515551384 -300.0000833609 orientation 1 0 0 0 velocity -3.46289802320416e-05 0.00328883596643005 4.35131018195651e-05 angularVelocity 0 0 0 force 311000.676906805 228484264.489035 -215966.542122784 torque 0 0 0 radius 100 invMass 9.54929658551372e-11
BaseParticle id 45 indSpecies 0 position 300.000155126759 2499.68815212049 -100.000101152525 orientation 1 0 0 0 velocity 2.01231997487012e-05 0.0347804398460213 1.2112183521359e-05 angularVelocity 0 0 0 force -68558.0717453048 71933255.9971549 351385.773340684 torque 0 0 0 radius 100 invMass 9.54929658551372e-11
BaseParticle id 46 indSpecies 0 position 300.000155090184 2499.68815217457 100.000101187744 orientation 1 0 0 0 velocity 2.00614235756953e-05 0.0347801037318259 -1.22562443585599e-05 angularVelocity 0 0 0 force -67658.0065177704 71936799.3221481 -353006.707187141 torque 0 0 0 radius 100 invMass 9.54929658551372e-11
BaseParticle id 47 indSpecies 0 position 300.000078395802 2499.68515533719 300.000083310629 orientation 1 0 0 0 velocity -3.49098858101752e-05 0.0032890009866792 -4.34015833160141e-05 angularVelocity 0 0 0 force 310818.134756705 228490503.089948 217551.643189266 torque 0 0 0 radius 100 invMass 9.54929658551372e-11
BaseParticle id 48 indSpecies 0 position -300.000091566743 2699.67894642287 -300.000094535549 orientation 1 0 0 0 velocity -3.29392892301116e-05 0.0162300719685386 -3.20685462539612e-05 angularVelocity 0 0 0 force -920188.869614126 44360134.1094266 -906604.018802742 torque 0 0 0 radius 100 invMass 9.54929658551372e-11
BaseParticle id 49 indSpecies 0 position -300.000123905667 2699.66884347106 -100.000090423601 orientation 1 0 0 0 velocity -2.59467908811973e-05 0.00410979457115717 -1.9730364588262e-05 angularVelocity 0 0 0 force -739836.711439562 378695863.715315 -244265.510846233 torque 0 0 0 radius 100 invMass 9.54929658551372e-11
BaseParticle id 50 indSpecies 0 position -300.000123919285 2699.66884350808 100.000090414467 orientation 1 0 0 0 velocity -2.59071760625493e-05 0.00410979851470026 1.97233387112067e-05 angularVelocity 0 0 0 force -739927.410648009 378694082.269768 244309.145181603 torque 0 0 0 radius 100 invMass 9.54929658551372e-11
BaseParticle id 51 indSpecies 0 position -300.00009139846 2699.67894640296 300.000094528061 orientation 1 0 0 0 velocity -3.29636116983746e-05 0.0162300747987685 3.20608320468813e-05 angularVelocity 0 0 0 force -921574.796301819 44359934.8181431 906598.083738801 torque 0 0 0 radius 100 invMass 9.54929658551372e-11
BaseParticle id 52 indSpecies 0 position -100.000092233036 2699.66884349955 -300.000122158534 orientation 1 0 0 0 velocity -1.87712862837005e-05 0.00410961266584696 -2.56874216821261e-05 angularVelocity 0 0 0 force -230095.729590437 378693169.658774 -733474.575712332 torque 0 0 0 radius 100 invMass 9.54929658551372e-11
BaseParticle id 53 indSpecies 0 position -99.9999949847519 2699.66897351102 -99.9999941644244 orientation 1 0 0 0 velocity 1.12999076681196e-05 0.00504715763675116 1.01211843103573e-05 angularVelocity 0 0 0 force -381845.086856292 285287346.456356 -420754.115132965 torque 0 0 0 radius 100 invMass 9.54929658551372e-11
BaseParticle id 54 indSpecies 0 position -99.9999950350292 2699.66897354626 99.9999941759832 orientation 1 0 0 0 velocity 1.13690781519126e-05 0.00504718696881862 -1.01126830838002e-05 angularVelocity 0 0 0 force -380860.258751049 285284982.807316 420757.959704924 torque 0 0 0 radius 100 invMass 9.54929658551372e-11
BaseParticle id 55 indSpecies 0 position -100.000092119308 2699.6688435237 300.000122159158 orientation 1 0 0 0 velocity -1.86299053457436e-05 0.00410963126049192 2.56928005678846e-05 angularVelocity 0 0 0 force -229243.579410378 378692863.809489 733412.638501393 torque 0 0 0 radius 100 invMass 9.54929658551372e-11
BaseParticle id 56 indSpecies 0 position 100.000085579748 2699.66884342881 -300.000122236588 orientation 1 0 0 0 velocity 1.92651165553851e-05 0.00410969223668416 -2.57013531444985e-05 angularVelocity 0 0 0 force 251901.227400944 378693899.992836 -733455.114341242 torque 0 0 0 radius 100 invMass 9.54929658551372e-11
BaseParticle id 57 indSpecies 0 position 99.9999950484585 2699.66897362213 -99.9999941881044 orientation 1 0 0 0 velocity -1.1201182187524e-05 0.00504732542592498 1.01559159550239e-05 angularVelocity 0 0 0 force 394703.607194813 285284189.570835 -420105.631080633 torque 0 0 0 radius 100 invMass 9.54929658551372e-11
BaseParticle id 58 indSpecies 0 position 99.9999950526661 2699.66897357808 99.9999941850931 orientation 1 0 0 0 velocity -1.12851650228393e-05 0.00504717945847864 -1.01496262731411e-05 angularVelocity 0 0 0 force 393628.667639808 285286027.705372 420124.823092064 torque 0 0 0 radius 100 invMass 9.54929658551372e-11
BaseParticle id 59 indSpecies 0 position 100.000085510212 2699.66884338029 300.000122249416 orientation 1 0 0 0 velocity 1.92227737323165e-05 0.00410971048828451 2.57090438242847e-05 angularVelocity 0 0 0 force 251981.840109882 378692169.212103 733378.196742487 torque 0 0 0 radius 100 invMass 9.54929658551372e-11
BaseParticle id 60 indSpecies 0 position 300.000098267006 2699.67894645984 -300.000094512206 orientation 1 0 0 0 velocity 3.2421248943703e-05 0.0162298897211314 -3.20735623597299e-05 angularVelocity 0 0 0 force 897627.957419253 44359946.1049767 -906485.686700417 torque 0 0 0 radius 100 invMass 9.54929658551372e-11
BaseParticle id 61 indSpecies 0 position 300.000123868977 2699.66884337688 -100.000090444584 orientation 1 0 0 0 velocity 2.58187147351889e-05 0.00410976622136686 -1.97315424535273e-05 angularVelocity 0 0 0 force 726178.693982771 378698227.544276 -244240.800235843 torque 0 0 0 radius 100 invMass 9.54929658551372e-11
BaseParticle id 62 indSpecies 0 position 300.000123930706 2699.66884351336 100.000090428656 orientation 1 0 0 0 velocity 2.57941145954406e-05 0.00410969725774534 1.97241218286252e-05 angularVelocity 0 0 0 force 726370.515314242 378694586.720846 244330.10318856 torque 0 0 0 radius 100 invMass 9.54929658551372e-11
BaseParticle id 63 indSpecies 0 position 300.000098051868 2699.67894644208 300.000094515681 orientation 1 0 0 0 velocity 3.23469201560526e-05 0.016230052914374 3.2067281530273e-05 angularVelocity 0 0 0 force 898111.763217113 44359969.7473705 906450.8386279 torque 0 0 0 radius 100 invMass 9.54929658551372e-11
BaseParticle id 64 indSpecies 0 position -300.000189554377 2899.67167877515 -300.000189625177 orientation 1 0 0 0 velocity -5.30179949909737e-05 -0.00247643110639861 -5.30280672031039e-05 angularVelocity 0 0 0 force -619370.098092667 266587959.177786 -617916.344134837 torque 0 0 0 radius 100 invMass 9.54929658551372e-11
BaseParticle id 65 indSpecies 0 position -300.000136725569 2899.66618889545 -100.000005083027 orientation 1 0 0 0 velocity -2.94128488873832e-05 -0.00452955473059303 -2.56351941140704e-05 angularVelocity 0 0 0 force -458189.223475701 186158307.262649 -129159.924931433 torque 0 0 0 radius 100 invMass 9.54929658551372e-11
BaseParticle id 66 indSpecies 0 position -300.000136729249 2899.66618887417 100.000005080804 orientation 1 0 0 0 velocity -2.94202460532344e-05 -0.00452951139476749 2.56317414581881e-05 angularVelocity 0 0 0 force -458237.904875137 186159423.275079 129177.178966861 torque 0 0 0 radius 100 invMass 9.54929658551372e-11
BaseParticle id 67 indSpecies 0 position -300.000189463695 2899.67167875271 300.00018961402 orientation 1 0 0 0 velocity -5.30078009996516e-05 -0.002476421579324 5.30246973052504e-05 angularVelocity 0 0 0 force -619489.108810885 266588091.872003 617926.608679783 torque 0 0 0 radius 100 invMass 9.54929658551372e-11
BaseParticle id 68 indSpecies 0 position -100.000005097744 2899.66618883881 -300.000136893617 orientation 1 0 0 0 velocity -2.56782034248372e-05 -0.00452942179796112 -2.94876682972428e-05 angularVelocity 0 0 0 force -128105.523383968 186159585.977797 -456417.651909408 torque 0 0 0 radius 100 invMass 9.54929658551372e-11
BaseParticle id 69 indSpecies 0 position -100.000067944582 2899.66435541299 -100.000067923994 orientation 1 0 0 0 velocity -9.30192955425431e-06 -0.00163221312987338 -9.39108254982412e-06 angularVelocity 0 0 0 force -79251.6224657057 221662491.255143 -80112.2685622088 torque 0 0 0 radius 100 invMass 9.54929658551372e-11
BaseParticle id 70 indSpecies 0 position -100.000067932987 2899.66435547631 100.000067911939 orientation 1 0 0 0 velocity -9.30481178911982e-06 -0.0016324455010594 9.38953879414867e-06 angularVelocity 0 0 0 force -79283.8120580476 221662093.086918 80097.30687211 torque 0 0 0 radius 100 invMass 9.54929658551372e-11
BaseParticle id 71 indSpecies 0 position -100.000005118167 2899.6661888686 300.000136909019 orientation 1 0 0 0 velocity -2.5708587158401e-05 -0.00452942544457559 2.94959472255143e-05 angularVelocity 0 0 0 force -128168.853197564 186159597.055719 456407.024125928 torque 0 0 0 radius 100 invMass 9.54929658551372e-11
BaseParticle id 72 indSpecies 0 position 100.00000492115 2899.66618877065 -300.000136566051 orientation 1 0 0 0 velocity 2.57495044089503e-05 -0.00452945383695287 -2.93858614798743e-05 angularVelocity 0 0 0 force 131179.290892454 186159517.642931 -456452.772492386 torque 0 0 0 radius 100 invMass 9.54929658551372e-11
BaseParticle id 73 indSpecies 0 position 100.000067853216 2899.66435544403 -100.000067853289 orientation 1 0 0 0 velocity 9.34209398350625e-06 -0.00163231389884702 -9.33022119502249e-06 angularVelocity 0 0 0 force 82285.0875113663 221663876.016241 -80146.4689427206 torque 0 0 0 radius 100 invMass 9.54929658551372e-11
BaseParticle id 74 indSpecies 0 position 100.000067864719 2899.66435549057 100.000067820939 orientation 1 0 0 0 velocity 9.35232986558452e-06 -0.00163234301985335 9.32248679485043e-06 angularVelocity 0 0 0 force 82310.3891085738 221662342.915286 80128.3528648296 torque 0 0 0 radius 100 invMass 9.54929658551372e-11
BaseParticle id 75 indSpecies 0 position 100.000004894697 2899.66618862519 300.000136599085 orientation 1 0 0 0 velocity 2.5769685062731e-05 -0.00452940588353359 2.94002691531227e-05 angularVelocity 0 0 0 force 131242.709966006 186161298.313268 456450.19415721 torque 0 0 0 radius 100 invMass 9.54929658551372e-11
BaseParticle id 76 indSpecies 0 position 300.000189712456 2899.67167862799 -300.000189739601 orientation 1 0 0 0 velocity 5.2933946556359e-05 -0.00247629492063908 -5.30680911375563e-05 angularVelocity 0 0 0 force 616239.107527543 266591206.45633 -617917.879051988 torque 0 0 0 radius 100 invMass 9.54929658551372e-11
BaseParticle id 77 indSpecies 0 position 300.000136785674 2899.66618884851 -100.000005073891 orientation 1 0 0 0 velocity 2.93570344250975e-05 -0.00452959186709892 -2.5579972709996e-05 angularVelocity 0 0 0 force 455105.454387232 186157421.999348 -129196.08574188 torque 0 0 0 radius 100 invMass 9.54929658551372e-11
BaseParticle id 78 indSpecies 0 position 300.000136768471 2899.66618888805 100.000005128583 orientation 1 0 0 0 velocity 2.93576529678082e-05 -0.00452949988351668 2.55903780872878e-05 angularVelocity 0 0 0 force 455168.44897437 186159203.061983 129213.720059231 torque 0 0 0 radius 100 invMass 9.54929658551372e-11
BaseParticle id 79 indSpecies 0 position 300.000189665993 2899.67167875455 300.000189673953 orientation 1 0 0 0 velocity 5.29346089370299e-05 -0.00247639796284108 5.3051148456241e-05 angularVelocity 0 0 0 force 616378.836754564 266588671.388113 617947.415239117 torque 0 0 0 radius 100 invMass 9.54929658551372e-11
BaseParticle id 80 indSpecies 0 position -300.000120873387 3099.69289429509 -300.000121056266 orientation 1 0 0 0 velocity -1.59795411761904e-05 -0.0105797321915138 -1.59393673681375e-05 angularVelocity 0 0 0 force 189430.061297954 18709419.2025593 189610.180333578 torque 0 0 0 radius 100 invMass 9.54929658551372e-11
BaseParticle id 81 indSpecies 0 position -300.000110301408 3099.68304687901 -100.000016729148 orientation 1 0 0 0 velocity -5.08043827939941e-06 -0.0117893681234386 2.33362219061333e-05 angularVelocity 0 0 0 force 226382.622191563 19227112.130629 93759.782198616 torque 0 0 0 radius 100 invMass 9.54929658551372e-11
BaseParticle id 82 indSpecies 0 position -300.000110249368 3099.6830467659 100.000016721901 orientation 1 0 0 0 velocity -5.05303536146899e-06 -0.0117893989799819 -2.33381951757762e-05 angularVelocity 0 0 0 force 226411.680441854 19227183.4204457 -93758.1581128693 torque 0 0 0 radius 100 invMass 9.54929658551372e-11
BaseParticle id 83 indSpecies 0 position -300.000120979405 3099.6928943257 300.000121053431 orientation 1 0 0 0 velocity -1.59578140569754e-05 -0.0105797172906939 1.59369849604456e-05 angularVelocity 0 0 0 force 189511.380916081 18709494.6995198 -189603.057184212 torque 0 0 0 radius 100 invMass 9.54929658551372e-11
BaseParticle id 84 indSpecies 0 position -100.000016884322 3099.68304690048 -300.000110318985 orientation 1 0 0 0 velocity 2.33445423909558e-05 -0.011789362783625 -5.04840957249892e-06 angularVelocity 0 0 0 force 93615.5967201235 19226953.4345589 226613.533990353 torque 0 0 0 radius 100 invMass 9.54929658551372e-11
BaseParticle id 85 indSpecies 0 position -100.000098877513 3099.68556827353 -100.000099097774 orientation 1 0 0 0 velocity 2.54451827768365e-06 -0.0103837102967078 2.48651357396622e-06 angularVelocity 0 0 0 force 102408.511096337 4537931.7492401 102524.460608607 torque 0 0 0 radius 100 invMass 9.54929658551372e-11
BaseParticle id 86 indSpecies 0 position -100.000098921427 3099.68556827203 100.000099113298 orientation 1 0 0 0 velocity 2.5226039092794e-06 -0.0103837572658902 -2.48128160052077e-06 angularVelocity 0 0 0 force 102416.40445952 4536322.03721906 -102531.067564022 torque 0 0 0 radius 100 invMass 9.54929658551372e-11
BaseParticle id 87 indSpecies 0 position -100.000016774315 3099.68304684798 300.00011030537 orientation 1 0 0 0 velocity 2.33340644749179e-05 -0.0117893761490086 5.04508752775255e-06 angularVelocity 0 0 0 force 93639.5024593443 19227058.4632326 -226600.266967625 torque 0 0 0 radius 100 invMass 9.54929658551372e-11
BaseParticle id 88 indSpecies 0 position 100.000016793764 3099.68304698466 -300.000110419516 orientation 1 0 0 0 velocity -2.329229333685e-05 -0.0117893395216665 -5.10008183677655e-06 angularVelocity 0 0 0 force -93550.3206649077 19226889.9010507 226568.422864083 torque 0 0 0 radius 100 invMass 9.54929658551372e-11
BaseParticle id 89 indSpecies 0 position 100.000098723745 3099.68556818321 -100.000099065444 orientation 1 0 0 0 velocity -2.66291878437546e-06 -0.0103837152379317 2.50264353212911e-06 angularVelocity 0 0 0 force -102227.343291521 4539346.17866285 102499.298252433 torque 0 0 0 radius 100 invMass 9.54929658551372e-11
BaseParticle id 90 indSpecies 0 position 100.000098671422 3099.68556821375 100.000099169369 orientation 1 0 0 0 velocity -2.68994205568606e-06 -0.0103837482533938 -2.45243488509897e-06 angularVelocity 0 0 0 force -102232.104471557 4536754.06169656 -102507.816204985 torque 0 0 0 radius 100 invMass 9.54929658551372e-11