<?xml version="1.0"?>
<!-- time 29.8983-->
<VTKFile type="UnstructuredGrid" version="0.1" byte_order="LittleEndian">
<UnstructuredGrid>
<Piece NumberOfPoints="960" NumberOfCells="0">
<Points>
  <DataArray type="Float32" Name="Position" NumberOfComponents="3" format="ascii">
	-300 2100 -300
	-300 2100 -100
	-300 2100 100
	-300 2100 300
	-100 2100 -300
	-100 2100 -100
	-100 2100 100
	-100 2100 300
	100 2100 -300
	100 2100 -100
	100 2100 100
	100 2100 300
	300 2100 -300
	300 2100 -100
	300 2100 100
	300 2100 300
	-300 2300 -300
	-300 2300 -100
	-300 2300 100
	-300 2300 300
	-100 2300 -300
	-100 2300 -100
	-100 2300 100
	-100 2300 300
	100 2300 -300
	100 2300 -100
	100 2300 100
	100 2300 300
	300 2300 -300
	300 2300 -100
	300 2300 100
	300 2300 300
	-300 2500 -300
	-300 2500 -100
	-300 2500 100
	-300 2500 300
	-100 2500 -300
	-100 2500 -100
	-100 2500 100
	-100 2500 300
	100 2500 -300
	100 2500 -100
	100 2500 100
	100 2500 300
	300 2500 -300
	300 2500 -100
	300 2500 100
	300 2500 300
	-300 2700 -300
	-300 2700 -100
	-300 2700 100
	-300 2700 300
	-100 2700 -300
	-100 2700 -100
	-100 2700 100
	-100 2700 300
	100 2700 -300
	100 2700 -100
	100 2700 100
	100 2700 300
	300 2700 -300
	300 2700 -100
	300 2700 100
	300 2700 300
	-300 2900 -300
	-300 2900 -100
	-300 2900 100
	-300 2900 300
	-100 2900 -300
	-100 2900 -100
	-100 2900 100
	-100 2900 300
	100 2900 -300
	100 2900 -100
	100 2900 100
	100 2900 300
	300 2900 -300
	300 2900 -100
	300 2900 100
	300 2900 300
	-300 3100 -300
	-300 3100 -100
	-300 3100 100
	-300 3100 300
	-100 3100 -300
	-100 3100 -100
	-100 3100 100
	-100 3100 300
	100 3100 -300
	100 3100 -100
	100 3100 100
	100 3100 300
	300 3100 -300
	300 3100 -100
	300 3100 100
	300 3100 300
	-300 3300 -300
	-300 3300 -100
	-300 3300 100
	-300 3300 300
	-100 3300 -300
	-100 3300 -100
	-100 3300 100
	-100 3300 300
	100 3300 -300
	100 3300 -100
	100 3300 100
	100 3300 300
	300 3300 -300
	300 3300 -100
	300 3300 100
	300 3300 300
	-300 3500 -300
	-300 3500 -100
	-300 3500 100
	-300 3500 300
	-100 3500 -300
	-100 3500 -100
	-100 3500 100
	-100 3500 300
	100 3500 -300
	100 3500 -100
	100 3500 100
	100 3500 300
	300 3500 -300
	300 3500 -100
	300 3500 100
	300 3500 300
	-300 3700 -300
	-300 3700 -100
	-300 3700 100
	-300 3700 300
	-100 3700 -300
	-100 3700 -100
	-100 3700 100
	-100 3700 300
	100 3700 -300
	100 3700 -100
	100 3700 100
	100 3700 300
	300 3700 -300
	300 3700 -100
	300 3700 100
	300 3700 300
	-300 3900 -300
	-300 3900 -100
	-300 3900 100
	-300 3900 300
	-100 3900 -300
	-100 3900 -100
	-100 3900 100
	-100 3900 300
	100 3900 -300
	100 3900 -100
	100 3900 100
	100 3900 300
	300 3900 -300
	300 3900 -100
	300 3900 100
	300 3900 300
	-300 4100 -300
	-300 4100 -100
	-300 4100 100
	-300 4100 300
	-100 4100 -300
	-100 4100 -100
	-100 4100 100
	-100 4100 300
	100 4100 -300
	100 4100 -100
	100 4100 100
	100 4100 300
	300 4100 -300
	300 4100 -100
	300 4100 100
	300 4100 300
	-300 4300 -300
	-300 4300 -100
	-300 4300 100
	-300 4300 300
	-100 4300 -300
	-100 4300 -100
	-100 4300 100
	-100 4300 300
	100 4300 -300
	100 4300 -100
	100 4300 100
	100 4300 300
	300 4300 -300
	300 4300 -100
	300 4300 100
	300 4300 300
	-300 4500 -300
	-300 4500 -100
	-300 4500 100
	-300 4500 300
	-100 4500 -300
	-100 4500 -100
	-100 4500 100
	-100 4500 300
	100 4500 -300
	100 4500 -100
	100 4500 100
	100 4500 300
	300 4500 -300
	300 4500 -100
	300 4500 100
	300 4500 300
	-300 4700 -300
	-300 4700 -100
	-300 4700 100
	-300 4700 300
	-100 4700 -300
	-100 4700 -100
	-100 4700 100
	-100 4700 300
	100 4700 -300
	100 4700 -100
	100 4700 100
	100 4700 300
	300 4700 -300
	300 4700 -100
	300 4700 100
	300 4700 300
	-300 4900 -300
	-300 4900 -100
	-300 4900 100
	-300 4900 300
	-100 4900 -300
	-100 4900 -100
	-100 4900 100
	-100 4900 300
	100 4900 -300
	100 4900 -100
	100 4900 100
	100 4900 300
	300 4900 -300
	300 4900 -100
	300 4900 100
	300 4900 300
	-300 5100 -300
	-300 5100 -100
	-300 5100 100
	-300 5100 300
	-100 5100 -300
	-100 5100 -100
	-100 5100 100
	-100 5100 300
	100 5100 -300
	100 5100 -100
	100 5100 100
	100 5100 300
	300 5100 -300
	300 5100 -100
	300 5100 100
	300 5100 300
	-300 5299.99 -300
	-300 5299.99 -100
	-300 5299.99 100
	-300 5299.99 300
	-100 5299.99 -300
	-100 5299.99 -100
	-100 5299.99 100
	-100 5299.99 300
	100 5299.99 -300
	100 5299.99 -100
	100 5299.99 100
	100 5299.99 300
	300 5299.99 -300
	300 5299.99 -100
	300 5299.99 100
	300 5299.99 300
	-300 5499.98 -300
	-300 5499.98 -100
	-300 5499.98 100
	-300 5499.98 300
	-100 5499.98 -300
	-100 5499.98 -100
	-100 5499.98 100
	-100 5499.98 300
	100 5499.98 -300
	100 5499.98 -100
	100 5499.98 100
	100 5499.98 300
	300 5499.98 -300
	300 5499.98 -100
	300 5499.98 100
	300 5499.98 300
	-300 5699.96 -300
	-300 5699.96 -100
	-300 5699.96 100
	-300 5699.96 300
	-100 5699.96 -300
	-100 5699.96 -100
	-100 5699.96 100
	-100 5699.96 300
	100 5699.96 -300
	100 5699.96 -100
	100 5699.96 100
	100 5699.96 300
	300 5699.96 -300
	300 5699.96 -100
	300 5699.96 100
	300 5699.96 300
	-300 5899.92 -300
	-300 5899.92 -100
	-300 5899.92 100
	-300 5899.92 300
	-100 5899.92 -300
	-100 5899.92 -100
	-100 5899.92 100
	-100 5899.92 300
	100 5899.92 -300
	100 5899.92 -100
	100 5899.92 100
	100 5899.92 300
	300 5899.92 -300
	300 5899.92 -100
	300 5899.92 100
	300 5899.92 300
	-300 6099.86 -300
	-300 6099.86 -100
	-300 6099.86 100
	-300 6099.86 300
	-100 6099.86 -300
	-100 6099.86 -100
	-100 6099.86 100
	-100 6099.86 300
	100 6099.86 -300
	100 6099.86 -100
	100 6099.86 100
	100 6099.86 300
	300 6099.86 -300
	300 6099.86 -100
	300 6099.86 100
	300 6099.86 300
	-300 6299.81 -300
	-300 6299.81 -100
	-300 6299.81 100
	-300 6299.81 300
	-100 6299.81 -300
	-100 6299.81 -100
	-100 6299.81 100
	-100 6299.81 300
	100 6299.81 -300
	100 6299.81 -100
	100 6299.81 100
	100 6299.81 300
	300 6299.81 -300
	300 6299.81 -100
	300 6299.81 100
	300 6299.81 300
	-300 6499.77 -300
	-300 6499.77 -100
	-300 6499.77 100
	-300 6499.77 300
	-100 6499.77 -300
	-100 6499.77 -100
	-100 6499.77 100
	-100 6499.77 300
	100 6499.77 -300
	100 6499.77 -100
	100 6499.77 100
	100 6499.77 300
	300 6499.77 -300
	300 6499.77 -100
	300 6499.77 100
	300 6499.77 300
	-300 6699.74 -300
	-300 6699.74 -100
	-300 6699.74 100
	-300 6699.74 300
	-100 6699.74 -300
	-100 6699.74 -100
	-100 6699.74 100
	-100 6699.74 300
	100 6699.74 -300
	100 6699.74 -100
	100 6699.74 100
	100 6699.74 300
	300 6699.74 -300
	300 6699.74 -100
	300 6699.74 100
	300 6699.74 300
	-300 6899.74 -300
	-300 6899.74 -100
	-300 6899.74 100
	-300 6899.74 300
	-100 6899.74 -300
	-100 6899.74 -100
	-100 6899.74 100
	-100 6899.74 300
	100 6899.74 -300
	100 6899.74 -100
	100 6899.74 100
	100 6899.74 300
	300 6899.74 -300
	300 6899.74 -100
	300 6899.74 100
	300 6899.74 300
	-300 7099.75 -300
	-300 7099.75 -100
	-300 7099.75 100
	-300 7099.75 300
	-100 7099.75 -300
	-100 7099.75 -100
	-100 7099.75 100
	-100 7099.75 300
	100 7099.75 -300
	100 7099.75 -100
	100 7099.75 100
	100 7099.75 300
	300 7099.75 -300
	300 7099.75 -100
	300 7099.75 100
	300 7099.75 300
	-300 7299.75 -300
	-300 7299.75 -100
	-300 7299.75 100
	-300 7299.75 300
	-100 7299.75 -300
	-100 7299.75 -100
	-100 7299.75 100
	-100 7299.75 300
	100 7299.75 -300
	100 7299.75 -100
	100 7299.75 100
	100 7299.75 300
	300 7299.75 -300
	300 7299.75 -100
	300 7299.75 100
	300 7299.75 300
	-300 7499.75 -300
	-300 7499.75 -100
	-300 7499.75 100
	-300 7499.75 300
	-100 7499.75 -300
	-100 7499.75 -100
	-100 7499.75 100
	-100 7499.75 300
	100 7499.75 -300
	100 7499.75 -100
	100 7499.75 100
	100 7499.75 300
	300 7499.75 -300
	300 7499.75 -100
	300 7499.75 100
	300 7499.75 300
	-300 7699.75 -300
	-300 7699.75 -100
	-300 7699.75 100
	-300 7699.75 300
	-100 7699.75 -300
	-100 7699.75 -100
	-100 7699.75 100
	-100 7699.75 300
	100 7699.75 -300
	100 7699.75 -100
	100 7699.75 100
	100 7699.75 300
	300 7699.75 -300
	300 7699.75 -100
	300 7699.75 100
	300 7699.75 300
	-300 7899.76 -300
	-300 7899.76 -100
	-300 7899.76 100
	-300 7899.76 300
	-100 7899.76 -300
	-100 7899.76 -100
	-100 7899.76 100
	-100 7899.76 300
	100 7899.76 -300
	100 7899.76 -100
	100 7899.76 100
	100 7899.76 300
	300 7899.76 -300
	300 7899.76 -100
	300 7899.76 100
	300 7899.76 300
	-300 8099.76 -300
	-300 8099.76 -100
	-300 8099.76 100
	-300 8099.76 300
	-100 8099.76 -300
	-100 8099.76 -100
	-100 8099.76 100
	-100 8099.76 300
	100 8099.76 -300
	100 8099.76 -100
	100 8099.76 100
	100 8099.76 300
	300 8099.76 -300
	300 8099.76 -100
	300 8099.76 100
	300 8099.76 300
	-300 8299.76 -300
	-300 8299.76 -100
	-300 8299.76 100
	-300 8299.76 300
	-100 8299.76 -300
	-100 8299.76 -100
	-100 8299.76 100
	-100 8299.76 300
	100 8299.76 -300
	100 8299.76 -100
	100 8299.76 100
	100 8299.76 300
	300 8299.76 -300
	300 8299.76 -100
	300 8299.76 100
	300 8299.76 300
	-300 8499.76 -300
	-300 8499.76 -100
	-300 8499.76 100
	-300 8499.76 300
	-100 8499.76 -300
	-100 8499.76 -100
	-100 8499.76 100
	-100 8499.76 300
	100 8499.76 -300
	100 8499.76 -100
	100 8499.76 100
	100 8499.76 300
	300 8499.76 -300
	300 8499.76 -100
	300 8499.76 100
	300 8499.76 300
	-300 8699.77 -300
	-300 8699.77 -100
	-300 8699.77 100
	-300 8699.77 300
	-100 8699.77 -300
	-100 8699.77 -100
	-100 8699.77 100
	-100 8699.77 300
	100 8699.77 -300
	100 8699.77 -100
	100 8699.77 100
	100 8699.77 300
	300 8699.77 -300
	300 8699.77 -100
	300 8699.77 100
	300 8699.77 300
	-300 8899.77 -300
	-300 8899.77 -100
	-300 8899.77 100
	-300 8899.77 300
	-100 8899.77 -300
	-100 8899.77 -100
	-100 8899.77 100
	-100 8899.77 300
	100 8899.77 -300
	100 8899.77 -100
	100 8899.77 100
	100 8899.77 300
	300 8899.77 -300
	300 8899.77 -100
	300 8899.77 100
	300 8899.77 300
	-300 9099.78 -300
	-300 9099.78 -100
	-300 9099.78 100
	-300 9099.78 300
	-100 9099.78 -300
	-100 9099.78 -100
	-100 9099.78 100
	-100 9099.78 300
	100 9099.78 -300
	100 9099.78 -100
	100 9099.78 100
	100 9099.78 300
	300 9099.78 -300
	300 9099.78 -100
	300 9099.78 100
	300 9099.78 300
	-300 9299.78 -300
	-300 9299.78 -100
	-300 9299.78 100
	-300 9299.78 300
	-100 9299.78 -300
	-100 9299.78 -100
	-100 9299.78 100
	-100 9299.78 300
	100 9299.78 -300
	100 9299.78 -100
	100 9299.78 100
	100 9299.78 300
	300 9299.78 -300
	300 9299.78 -100
	300 9299.78 100
	300 9299.78 300
	-300 9499.78 -300
	-300 9499.78 -100
	-300 9499.78 100
	-300 9499.78 300
	-100 9499.78 -300
	-100 9499.78 -100
	-100 9499.78 100
	-100 9499.78 300
	100 9499.78 -300
	100 9499.78 -100
	100 9499.78 100
	100 9499.78 300
	300 9499.78 -300
	300 9499.78 -100
	300 9499.78 100
	300 9499.78 300
	-300 9699.79 -300
	-300 9699.79 -100
	-300 9699.79 100
	-300 9699.79 300
	-100 9699.79 -300
	-100 9699.79 -100
	-100 9699.79 100
	-100 9699.79 300
	100 9699.79 -300
	100 9699.79 -100
	100 9699.79 100
	100 9699.79 300
	300 9699.79 -300
	300 9699.79 -100
	300 9699.79 100
	300 9699.79 300
	-300 9899.79 -300
	-300 9899.79 -100
	-300 9899.79 100
	-300 9899.79 300
	-100 9899.79 -300
	-100 9899.79 -100
	-100 9899.79 100
	-100 9899.79 300
	100 9899.79 -300
	100 9899.79 -100
	100 9899.79 100
	100 9899.79 300
	300 9899.79 -300
	300 9899.79 -100
	300 9899.79 100
	300 9899.79 300
	-300 10099.8 -300
	-300 10099.8 -100
	-300 10099.8 100
	-300 10099.8 300
	-100 10099.8 -300
	-100 10099.8 -100
	-100 10099.8 100
	-100 10099.8 300
	100 10099.8 -300
	100 10099.8 -100
	100 10099.8 100
	100 10099.8 300
	300 10099.8 -300
	300 10099.8 -100
	300 10099.8 100
	300 10099.8 300
	-300 10299.8 -300
	-300 10299.8 -100
	-300 10299.8 100
	-300 10299.8 300
	-100 10299.8 -300
	-100 10299.8 -100
	-100 10299.8 100
	-100 10299.8 300
	100 10299.8 -300
	100 10299.8 -100
	100 10299.8 100
	100 10299.8 300
	300 10299.8 -300
	300 10299.8 -100
	300 10299.8 100
	300 10299.8 300
	-300 10499.8 -300
	-300 10499.8 -100
	-300 10499.8 100
	-300 10499.8 300
	-100 10499.8 -300
	-100 10499.8 -100
	-100 10499.8 100
	-100 10499.8 300
	100 10499.8 -300
	100 10499.8 -100
	100 10499.8 100
	100 10499.8 300
	300 10499.8 -300
	300 10499.8 -100
	300 10499.8 100
	300 10499.8 300
	-300 10699.8 -300
	-300 10699.8 -100
	-300 10699.8 100
	-300 10699.8 300
	-100 10699.8 -300
	-100 10699.8 -100
	-100 10699.8 100
	-100 10699.8 300
	100 10699.8 -300
	100 10699.8 -100
	100 10699.8 100
	100 10699.8 300
	300 10699.8 -300
	300 10699.8 -100
	300 10699.8 100
	300 10699.8 300
	-300 10899.8 -300
	-300 10899.8 -100
	-300 10899.8 100
	-300 10899.8 300
	-100 10899.8 -300
	-100 10899.8 -100
	-100 10899.8 100
	-100 10899.8 300
	100 10899.8 -300
	100 10899.8 -100
	100 10899.8 100
	100 10899.8 300
	300 10899.8 -300
	300 10899.8 -100
	300 10899.8 100
	300 10899.8 300
	-300 11099.8 -300
	-300 11099.8 -100
	-300 11099.8 100
	-300 11099.8 300
	-100 11099.8 -300
	-100 11099.8 -100
	-100 11099.8 100
	-100 11099.8 300
	100 11099.8 -300
	100 11099.8 -100
	100 11099.8 100
	100 11099.8 300
	300 11099.8 -300
	300 11099.8 -100
	300 11099.8 100
	300 11099.8 300
	-300 11299.8 -300
	-300 11299.8 -100
	-300 11299.8 100
	-300 11299.8 300
	-100 11299.8 -300
	-100 11299.8 -100
	-100 11299.8 100
	-100 11299.8 300
	100 11299.8 -300
	100 11299.8 -100
	100 11299.8 100
	100 11299.8 300
	300 11299.8 -300
	300 11299.8 -100
	300 11299.8 100
	300 11299.8 300
	-300 11499.8 -300
	-300 11499.8 -100
	-300 11499.8 100
	-300 11499.8 300
	-100 11499.8 -300
	-100 11499.8 -100
	-100 11499.8 100
	-100 11499.8 300
	100 11499.8 -300
	100 11499.8 -100
	100 11499.8 100
	100 11499.8 300
	300 11499.8 -300
	300 11499.8 -100
	300 11499.8 100
	300 11499.8 300
	-300 11699.9 -300
	-300 11699.9 -100
	-300 11699.9 100
	-300 11699.9 300
	-100 11699.9 -300
	-100 11699.9 -100
	-100 11699.9 100
	-100 11699.9 300
	100 11699.9 -300
	100 11699.9 -100
	100 11699.9 100
	100 11699.9 300
	300 11699.9 -300
	300 11699.9 -100
	300 11699.9 100
	300 11699.9 300
	-300 11899.9 -300
	-300 11899.9 -100
	-300 11899.9 100
	-300 11899.9 300
	-100 11899.9 -300
	-100 11899.9 -100
	-100 11899.9 100
	-100 11899.9 300
	100 11899.9 -300
	100 11899.9 -100
	100 11899.9 100
	100 11899.9 300
	300 11899.9 -300
	300 11899.9 -100
	300 11899.9 100
	300 11899.9 300
	-300 12099.9 -300
	-300 12099.9 -100
	-300 12099.9 100
	-300 12099.9 300
	-100 12099.9 -300
	-100 12099.9 -100
	-100 12099.9 100
	-100 12099.9 300
	100 12099.9 -300
	100 12099.9 -100
	100 12099.9 100
	100 12099.9 300
	300 12099.9 -300
	300 12099.9 -100
	300 12099.9 100
	300 12099.9 300
	-300 12299.9 -300
	-300 12299.9 -100
	-300 12299.9 100
	-300 12299.9 300
	-100 12299.9 -300
	-100 12299.9 -100
	-100 12299.9 100
	-100 12299.9 300
	100 12299.9 -300
	100 12299.9 -100
	100 12299.9 100
	100 12299.9 300
	300 12299.9 -300
	300 12299.9 -100
	300 12299.9 100
	300 12299.9 300
	-300 12499.9 -300
	-300 12499.9 -100
	-300 12499.9 100
	-300 12499.9 300
	-100 12499.9 -300
	-100 12499.9 -100
	-100 12499.9 100
	-100 12499.9 300
	100 12499.9 -300
	100 12499.9 -100
	100 12499.9 100
	100 12499.9 300
	300 12499.9 -300
	300 12499.9 -100
	300 12499.9 100
	300 12499.9 300
	-300 12699.9 -300
	-300 12699.9 -100
	-300 12699.9 100
	-300 12699.9 300
	-100 12699.9 -300
	-100 12699.9 -100
	-100 12699.9 100
	-100 12699.9 300
	100 12699.9 -300
	100 12699.9 -100
	100 12699.9 100
	100 12699.9 300
	300 12699.9 -300
	300 12699.9 -100
	300 12699.9 100
	300 12699.9 300
	-300 12900 -300
	-300 12900 -100
	-300 12900 100
	-300 12900 300
	-100 12900 -300
	-100 12900 -100
	-100 12900 100
	-100 12900 300
	100 12900 -300
	100 12900 -100
	100 12900 100
	100 12900 300
	300 12900 -300
	300 12900 -100
	300 12900 100
	300 12900 300
	-300 13100 -300
	-300 13100 -100
	-300 13100 100
	-300 13100 300
	-100 13100 -300
	-100 13100 -100
	-100 13100 100
	-100 13100 300
	100 13100 -300
	100 13100 -100
	100 13100 100
	100 13100 300
	300 13100 -300
	300 13100 -100
	300 13100 100
	300 13100 300
	-300 13300 -300
	-300 13300 -100
	-300 13300 100
	-300 13300 300
	-100 13300 -300
	-100 13300 -100
	-100 13300 100
	-100 13300 300
	100 13300 -300
	100 13300 -100
	100 13300 100
	100 13300 300
	300 13300 -300
	300 13300 -100
	300 13300 100
	300 13300 300
	-300 13500.1 -300
	-300 13500.1 -100
	-300 13500.1 100
	-300 13500.1 300
	-100 13500.1 -300
	-100 13500.1 -100
	-100 13500.1 100
	-100 13500.1 300
	100 13500.1 -300
	100 13500.1 -100
	100 13500.1 100
	100 13500.1 300
	300 13500.1 -300
	300 13500.1 -100
	300 13500.1 100
	300 13500.1 300
	-300 13700.2 -300
	-300 13700.2 -100
	-300 13700.2 100
	-300 13700.2 300
	-100 13700.2 -300
	-100 13700.2 -100
	-100 13700.2 100
	-100 13700.2 300
	100 13700.2 -300
	100 13700.2 -100
	100 13700.2 100
	100 13700.2 300
	300 13700.2 -300
	300 13700.2 -100
	300 13700.2 100
	300 13700.2 300
	-300 13900.6 -300
	-300 13900.6 -100
	-300 13900.6 100
	-300 13900.6 300
	-100 13900.6 -300
	-100 13900.6 -100
	-100 13900.6 100
	-100 13900.6 300
	100 13900.6 -300
	100 13900.6 -100
	100 13900.6 100
	100 13900.6 300
	300 13900.6 -300
	300 13900.6 -100
	300 13900.6 100
	300 13900.6 300
  </DataArray>
</Points>
<PointData  Vectors="vector">
  <DataArray type="Float32" Name="Velocity" NumberOfComponents="3" format="ascii">
 -1.54572e-14 7.24212e-11 -1.55126e-14
 1.00856e-14 7.01236e-11 -5.73971e-14
 -2.19332e-14 6.75835e-11 -5.73971e-14
 9.99808e-15 5.65962e-11 -1.55126e-14
 -1.01599e-13 6.38793e-11 1.88248e-14
 -4.22324e-14 7.24595e-11 2.29837e-14
 -1.67771e-14 7.50016e-11 2.29837e-14
 6.63087e-14 6.75835e-11 1.88248e-14
 -1.01599e-13 6.18493e-11 -8.61334e-15
 -4.22324e-14 7.41041e-11 5.04987e-14
 -1.67771e-14 7.24595e-11 5.04987e-14
 6.63087e-14 7.01236e-11 -8.61334e-15
 -1.54572e-14 5.02246e-11 1.20024e-14
 1.00856e-14 6.18493e-11 1.05667e-13
 -2.19332e-14 6.38793e-11 1.05667e-13
 9.99808e-15 7.24212e-11 1.20024e-14
 -1.43937e-13 2.66645e-10 -8.3324e-14
 -7.13477e-14 2.59652e-10 -2.38083e-13
 -2.4158e-14 2.4498e-10 -2.38083e-13
 8.27794e-14 2.10358e-10 -8.3324e-14
 -4.55043e-13 2.3943e-10 2.09153e-14
 -2.63024e-13 2.66033e-10 4.18772e-14
 -3.63083e-14 2.69916e-10 4.18772e-14
 2.60997e-13 2.4498e-10 2.09153e-14
 -4.55043e-13 2.18893e-10 6.84873e-14
 -2.63024e-13 2.5806e-10 2.66881e-13
 -3.63083e-14 2.66033e-10 2.66881e-13
 2.60997e-13 2.59652e-10 6.84873e-14
 -1.43937e-13 1.81705e-10 1.4168e-13
 -7.13477e-14 2.18893e-10 4.57647e-13
 -2.4158e-14 2.3943e-10 4.57647e-13
 8.27794e-14 2.66645e-10 1.4168e-13
 1.16569e-13 -3.5776e-10 1.23572e-13
 1.22442e-13 -3.65091e-10 -2.39514e-13
 -1.15584e-13 -3.79194e-10 -1.94371e-13
 -7.29833e-14 -4.223e-10 7.5156e-14
 -5.51864e-13 -3.98252e-10 1.39062e-13
 -1.33095e-13 -3.63639e-10 2.37408e-13
 -2.59636e-13 -3.56544e-10 2.61769e-13
 2.16085e-13 -3.79194e-10 1.12866e-13
 -5.28222e-13 -4.12307e-10 -9.16838e-14
 -1.1405e-13 -3.64116e-10 1.16844e-13
 -2.35275e-13 -3.63639e-10 1.35889e-13
 2.61228e-13 -3.65091e-10 -1.21167e-13
 7.2603e-14 -4.60119e-10 -6.9769e-14
 9.29587e-14 -4.12307e-10 5.29551e-13
 -1.4178e-13 -3.98252e-10 5.53194e-13
 -1.214e-13 -3.5776e-10 -1.13735e-13
 -9.01395e-13 -3.98698e-09 -7.51177e-13
 1.12326e-13 -3.98781e-09 -4.95437e-14
 -2.04015e-13 -3.99912e-09 -7.22075e-13
 8.48927e-15 -4.04745e-09 -1.15303e-14
 -8.71387e-13 -4.03233e-09 2.38095e-13
 -4.29655e-13 -3.99581e-09 2.3943e-13
 -2.7725e-13 -3.98057e-09 2.77027e-13
 7.29371e-13 -3.99912e-09 1.97781e-13
 -1.40306e-12 -4.05325e-09 -9.28853e-14
 -4.26173e-13 -3.99939e-09 4.24572e-13
 -2.39653e-13 -3.99581e-09 4.28054e-13
 5.68391e-14 -3.98781e-09 -1.13364e-13
 -1.40434e-13 -4.10914e-09 1.36015e-13
 9.18474e-14 -4.05325e-09 1.38794e-12
 -2.44329e-13 -4.03233e-09 8.56267e-13
 7.48136e-13 -3.98698e-09 8.96976e-13
 -7.83033e-13 -6.20131e-09 -7.3467e-13
 6.77353e-14 -6.19992e-09 -3.88616e-13
 -6.63543e-14 -6.20651e-09 -1.04087e-12
 7.54997e-14 -6.25558e-09 -7.19139e-14
 5.62989e-14 -6.23296e-09 9.32754e-14
 1.9847e-13 -6.19373e-09 -4.72164e-13
 4.50861e-13 -6.18552e-09 -4.46601e-13
 1.04624e-12 -6.20651e-09 6.76918e-14
 -4.57491e-13 -6.24901e-09 -3.40379e-14
 2.2799e-13 -6.20365e-09 -2.30545e-13
 4.73374e-13 -6.19373e-09 -2.01026e-13
 3.85693e-13 -6.19992e-09 -6.83878e-14
 -1.58904e-13 -6.30259e-09 1.55675e-13
 3.33854e-14 -6.24901e-09 4.45369e-13
 -8.88669e-14 -6.23296e-09 -6.84213e-14
 7.40443e-13 -6.20131e-09 7.79804e-13
 7.49892e-13 -9.0009e-09 -2.74532e-13
 6.01912e-13 -8.9757e-09 -1.2018e-12
 4.6049e-13 -8.97285e-09 -1.21803e-12
 2.5658e-13 -9.00699e-09 -2.58319e-13
 2.58962e-12 -8.98149e-09 -5.32015e-13
 2.23418e-12 -8.94013e-09 -1.70692e-12
 1.77601e-12 -8.9327e-09 -1.77937e-12
 1.2093e-12 -8.97285e-09 -4.59572e-13
 2.37836e-12 -8.97549e-09 -7.40834e-13
 2.09206e-12 -8.93243e-09 -2.09033e-12
 1.70356e-12 -8.94013e-09 -2.23246e-12
 1.19309e-12 -8.9757e-09 -6.01044e-13
 9.7294e-13 -9.00855e-09 -9.69586e-13
 7.41702e-13 -8.97549e-09 -2.37736e-12
 5.32934e-13 -8.98149e-09 -2.58862e-12
 2.72796e-13 -9.0009e-09 -7.46538e-13
 2.42571e-13 4.84622e-08 3.9484e-14
 7.74676e-14 4.84663e-08 -9.75801e-13
 2.22758e-13 4.84706e-08 -9.29349e-13
 6.66469e-14 4.84214e-08 -7.14231e-14
 2.43136e-12 4.85398e-08 -2.05179e-13
 1.80936e-12 4.8544e-08 -1.53302e-12
 1.61719e-12 4.85422e-08 -1.61794e-12
 9.21081e-13 4.84706e-08 -2.23701e-13
 1.80419e-12 4.85415e-08 -8.20207e-14
 1.58564e-12 4.85399e-08 -1.58333e-12
 1.53227e-12 4.8544e-08 -1.8082e-12
 9.67532e-13 4.84663e-08 -8.40726e-14
 7.08927e-13 4.85459e-08 -6.91914e-13
 7.31443e-14 4.85415e-08 -1.8339e-12
 2.04236e-13 4.85398e-08 -2.41318e-12
 -4.42602e-14 4.84622e-08 -2.45456e-13
 1.40821e-13 -9.97883e-08 -1.21585e-12
 -3.52956e-14 -9.98316e-08 1.14118e-13
 9.85931e-14 -9.98654e-08 -8.69439e-13
 -6.90491e-15 -9.99362e-08 8.98221e-15
 1.59164e-12 -9.97058e-08 -1.85478e-12
 8.88064e-13 -9.97526e-08 -2.77869e-13
 9.38905e-13 -9.97816e-08 -9.33312e-13
 8.72891e-13 -9.98654e-08 -9.48897e-14
 1.07738e-12 -9.96878e-08 -1.82732e-12
 3.66288e-13 -9.97333e-08 -3.56146e-13
 2.83462e-13 -9.97526e-08 -8.8434e-13
 -1.10666e-13 -9.98316e-08 3.46384e-14
 1.89725e-12 -9.96331e-08 -1.9018e-12
 1.82292e-12 -9.96878e-08 -1.05397e-12
 1.85848e-12 -9.97058e-08 -1.58687e-12
 1.21793e-12 -9.97883e-08 -1.37154e-13
 4.05115e-13 -1.45674e-06 -6.28854e-13
 3.11289e-13 -1.45679e-06 9.33792e-14
 4.28867e-13 -1.45682e-06 -3.89352e-13
 5.65581e-13 -1.45688e-06 -5.66208e-13
 5.5794e-13 -1.45672e-06 -1.51519e-12
 4.21606e-13 -1.45676e-06 7.7907e-13
 4.13799e-13 -1.45677e-06 -4.23467e-13
 3.85658e-13 -1.45682e-06 -4.31396e-13
 -2.36657e-13 -1.4567e-06 -1.36895e-12
 -4.3514e-13 -1.45672e-06 4.28453e-13
 -7.84236e-13 -1.45676e-06 -4.25101e-13
 -7.81458e-14 -1.45679e-06 -3.10923e-13
 1.80026e-12 -1.45665e-06 -1.76473e-12
 1.39039e-12 -1.4567e-06 2.21447e-13
 1.53991e-12 -1.45672e-06 -5.6438e-13
 6.27188e-13 -1.45674e-06 -4.00812e-13
 -2.19236e-12 -1.01139e-05 5.75222e-13
 -2.18962e-12 -1.01139e-05 4.36857e-13
 -2.1343e-12 -1.01139e-05 1.08856e-12
 -1.56708e-12 -1.01139e-05 1.56253e-12
 -1.79787e-12 -1.01139e-05 7.31788e-13
 -1.45658e-12 -1.01139e-05 9.38497e-13
 -1.43064e-12 -1.01139e-05 1.45561e-12
 -1.09105e-12 -1.01139e-05 2.14038e-12
 -2.57208e-12 -1.01139e-05 1.02371e-12
 -1.8736e-12 -1.01139e-05 1.85827e-12
 -9.63016e-13 -1.01139e-05 1.47391e-12
 -4.35085e-13 -1.01139e-05 2.19597e-12
 1.01922e-13 -1.01139e-05 -8.56998e-14
 -1.03601e-12 -1.01139e-05 2.58427e-12
 -7.32429e-13 -1.01139e-05 1.73735e-12
 -5.77307e-13 -1.01139e-05 2.22125e-12
 -2.22886e-12 -3.80628e-05 1.83029e-13
 -1.83586e-12 -3.80628e-05 1.0431e-12
 -1.91776e-12 -3.80627e-05 9.95508e-13
 -1.4401e-12 -3.80627e-05 1.37508e-12
 -9.37842e-13 -3.80628e-05 2.55617e-13
 -1.77248e-12 -3.80628e-05 1.33217e-12
 -1.23985e-12 -3.80628e-05 1.23342e-12
 -9.77802e-13 -3.80627e-05 1.92543e-12
 -2.65552e-12 -3.80628e-05 4.81912e-13
 -1.4763e-12 -3.80628e-05 1.48507e-12
 -1.32399e-12 -3.80628e-05 1.76852e-12
 -9.89881e-13 -3.80628e-05 1.83367e-12
 4.37686e-13 -3.80628e-05 -4.2012e-13
 -4.80503e-13 -3.80628e-05 2.63251e-12
 -2.59689e-13 -3.80628e-05 9.13513e-13
 -1.92006e-13 -3.80628e-05 2.25806e-12
 -1.51389e-12 -0.000142243 3.88494e-13
 -1.68341e-12 -0.000142243 2.04027e-12
 -1.81709e-12 -0.000142243 1.04414e-12
 -2.16485e-12 -0.000142243 2.17094e-12
 -1.78242e-12 -0.000142243 3.15304e-13
 -1.58947e-12 -0.000142243 1.60551e-12
 -1.68008e-12 -0.000142243 1.64783e-12
 -1.05063e-12 -0.000142243 1.81764e-12
 -6.63532e-13 -0.000142243 2.9192e-13
 -1.24366e-12 -0.000142243 1.24521e-12
 -1.5761e-12 -0.000142243 1.58435e-12
 -2.03908e-12 -0.000142243 1.68271e-12
 -3.42644e-13 -0.000142243 3.42396e-13
 -2.92637e-13 -0.000142243 6.46584e-13
 -3.18774e-13 -0.000142243 1.83091e-12
 -3.9347e-13 -0.000142243 1.46527e-12
 -1.64658e-12 -0.000394465 8.14126e-13
 -1.91238e-12 -0.000394465 2.1277e-12
 -2.00737e-12 -0.000394465 9.72715e-13
 -1.8221e-12 -0.000394465 1.8081e-12
 -1.00586e-12 -0.000394465 6.5421e-13
 -1.95053e-13 -0.000394465 1.10365e-12
 -8.33073e-13 -0.000394465 8.35548e-13
 -9.80527e-13 -0.000394465 2.02151e-12
 2.19199e-13 -0.000394465 4.74666e-13
 -8.83617e-13 -0.000394465 9.19619e-13
 -1.13979e-12 -0.000394465 1.09244e-13
 -2.12316e-12 -0.000394465 1.94175e-12
 -3.81427e-13 -0.000394465 3.838e-13
 -4.59883e-13 -0.000394465 -1.97843e-13
 -6.41476e-13 -0.000394465 9.45927e-13
 -8.02557e-13 -0.000394465 1.66976e-12
 -6.939e-13 -0.00111955 -1.75845e-12
 1.0533e-14 -0.00111955 6.54505e-14
 -4.69445e-13 -0.00111955 1.13692e-12
 -4.01683e-14 -0.00111955 5.12935e-14
 1.42852e-12 -0.00111955 -1.81514e-12
 4.02678e-13 -0.00111955 6.84084e-14
 4.7759e-13 -0.00111955 -4.036e-13
 -1.07025e-12 -0.00111955 4.6776e-13
 8.83161e-13 -0.00111955 -2.10755e-12
 2.67886e-13 -0.00111955 -2.2361e-13
 -1.90133e-13 -0.00111955 -4.00696e-13
 -1.58807e-13 -0.00111955 9.01648e-14
 5.84788e-13 -0.00111955 -6.59268e-13
 1.96731e-12 -0.00111955 -7.95572e-13
 1.86771e-12 -0.00111955 -1.45371e-12
 1.77459e-12 -0.00111955 7.08405e-13
 -1.06494e-12 -0.00258682 -1.46223e-12
 -5.09304e-13 -0.00258682 -8.49535e-13
 -7.78733e-13 -0.00258682 4.02566e-13
 -2.99443e-13 -0.00258682 3.13807e-13
 1.33151e-12 -0.00258682 -1.75783e-12
 1.05482e-12 -0.00258682 -8.17789e-13
 5.85398e-13 -0.00258682 -5.64572e-13
 -4.27491e-13 -0.00258682 7.84056e-13
 -1.68333e-13 -0.00258682 -1.98711e-12
 2.359e-13 -0.00258682 -3.87014e-13
 7.45594e-13 -0.00258682 -9.29666e-13
 8.62291e-13 -0.00258682 4.2557e-13
 1.99712e-12 -0.00258682 -2.04242e-12
 2.11037e-12 -0.00258682 1.75465e-13
 1.81696e-12 -0.00258682 -1.30974e-12
 1.46696e-12 -0.00258682 1.09226e-12
 5.16037e-13 -0.00606142 -5.96875e-13
 4.92306e-13 -0.00606142 -3.1269e-13
 4.27651e-13 -0.00606142 -9.45432e-13
 3.60563e-13 -0.00606142 -3.60561e-13
 1.34954e-13 -0.00606142 -7.58513e-13
 5.96644e-13 -0.00606142 -3.31816e-13
 8.79654e-13 -0.00606142 -8.83946e-13
 9.48166e-13 -0.00606142 -4.28773e-13
 2.4734e-13 -0.00606142 -1.10065e-12
 2.97455e-13 -0.00606142 -2.50318e-13
 3.48583e-13 -0.00606142 -5.70751e-13
 3.20287e-13 -0.00606142 -4.69135e-13
 1.20954e-12 -0.00606142 -1.2884e-12
 9.97493e-13 -0.00606142 -1.6353e-13
 7.36971e-13 -0.00606142 -1.52374e-13
 5.75634e-13 -0.00606142 -5.08229e-13
 1.44465e-13 -0.0120675 -5.67702e-13
 1.72024e-13 -0.0120675 -4.9897e-13
 1.86795e-13 -0.0120675 -9.7647e-13
 2.04097e-13 -0.0120675 -1.9931e-13
 2.3633e-13 -0.0120675 -5.17564e-13
 5.90039e-13 -0.0120675 -4.06685e-13
 8.57444e-13 -0.0120675 -8.46646e-13
 9.79431e-13 -0.0120675 -1.77203e-13
 2.30462e-13 -0.0120675 -1.86367e-13
 4.85615e-13 -0.0120675 -4.74415e-13
 3.90113e-13 -0.0120675 -5.88836e-13
 4.86368e-13 -0.0120675 -1.70131e-13
 5.81551e-13 -0.0120675 -5.26633e-13
 1.64767e-13 -0.0120675 -2.86007e-13
 5.06288e-13 -0.0120675 -2.4425e-13
 5.63241e-13 -0.0120675 -1.43608e-13
 -4.78003e-13 -0.0236181 -6.7402e-14
 -2.24695e-13 -0.0236181 -4.66945e-13
 8.80615e-14 -0.0236181 -5.04494e-13
 7.45881e-14 -0.0236181 -6.55501e-14
 -1.49682e-13 -0.0236181 -1.53302e-12
 -4.55862e-13 -0.0236181 4.52183e-13
 -4.42347e-13 -0.0236181 2.80618e-13
 5.18061e-13 -0.0236181 -6.99344e-14
 -3.04108e-13 -0.0236181 -1.05828e-12
 1.23377e-14 -0.0236181 3.40231e-14
 -8.88767e-14 -0.0236181 4.12301e-13
 4.5809e-13 -0.0236181 2.11491e-13
 1.39079e-12 -0.0236181 -1.37936e-12
 1.07959e-12 -0.0236181 3.06124e-13
 1.3277e-12 -0.0236181 1.39195e-13
 5.59745e-14 -0.0236181 4.80786e-13
 -1.22744e-13 -0.0399078 -1.28703e-12
 1.52217e-13 -0.0399078 4.00782e-13
 8.38957e-14 -0.0399078 2.32461e-13
 1.09725e-13 -0.0399078 -1.0984e-13
 -1.62964e-13 -0.0399078 -9.19307e-13
 -3.09362e-13 -0.0399078 4.72256e-13
 -2.01018e-13 -0.0399078 2.14417e-13
 -2.32181e-13 -0.0399078 -8.38756e-14
 -4.87387e-13 -0.0399078 -9.84848e-13
 -4.03452e-13 -0.0399078 3.53505e-13
 -4.61078e-13 -0.0399078 2.89856e-13
 -4.10979e-13 -0.0399078 -7.91604e-14
 9.06689e-13 -0.0399078 -9.21343e-13
 9.86819e-13 -0.0399078 5.15145e-13
 9.03348e-13 -0.0399078 -5.76742e-14
 1.29528e-12 -0.0399078 3.28703e-13
 1.14851e-13 -0.0605988 -1.5399e-12
 3.65922e-13 -0.0605988 -1.82512e-12
 3.80096e-13 -0.0605988 -7.00852e-13
 5.0554e-13 -0.0605988 -5.04459e-13
 -2.92985e-15 -0.0605988 -1.84526e-12
 -3.88008e-13 -0.0605988 -8.32206e-13
 2.58181e-13 -0.0605988 -2.58345e-13
 7.02869e-13 -0.0605988 -3.80305e-13
 -5.41299e-13 -0.0605988 -1.5463e-12
 1.28976e-12 -0.0605988 -1.25568e-12
 8.29326e-13 -0.0605988 3.55354e-13
 1.81127e-12 -0.0605988 -3.68455e-13
 1.14484e-12 -0.0605988 -1.15722e-12
 1.54101e-12 -0.0605988 5.58513e-13
 1.84539e-12 -0.0605988 -2.22901e-15
 1.54792e-12 -0.0605988 -1.23087e-13
 0 -0.0764 1.0788e-15
 0 -0.0764 1.06556e-15
 0 -0.0764 1.33919e-15
 0 -0.0764 0
 -4.71825e-16 -0.0764 7.32302e-16
 -1.00597e-15 -0.0764 9.54525e-16
 -1.12898e-15 -0.0764 1.12898e-15
 -1.33919e-15 -0.0764 0
 -3.17762e-16 -0.0764 6.67701e-16
 -6.63564e-16 -0.0764 6.68246e-16
 -9.52143e-16 -0.0764 1.00077e-15
 -1.06887e-15 -0.0764 0
 0 -0.0764 0
 -6.53153e-16 -0.0764 3.24005e-16
 -7.2954e-16 -0.0764 4.71825e-16
 -1.0788e-15 -0.0764 0
 0 -0.0725799 0
 0 -0.0725799 0
 0 -0.0725799 0
 0 -0.0725799 0
 0 -0.0725799 0
 0 -0.0725799 0
 0 -0.0725799 0
 0 -0.0725799 0
 0 -0.0725799 0
 0 -0.0725799 0
 0 -0.0725799 0
 0 -0.0725799 0
 0 -0.0725799 0
 0 -0.0725799 0
 0 -0.0725799 0
 0 -0.0725799 0
 0 -0.0471804 0
 0 -0.0471804 0
 0 -0.0471804 0
 0 -0.0471804 0
 0 -0.0471804 0
 0 -0.0471804 0
 0 -0.0471804 0
 0 -0.0471804 0
 0 -0.0471804 0
 0 -0.0471804 0
 0 -0.0471804 0
 0 -0.0471804 0
 0 -0.0471804 0
 0 -0.0471804 0
 0 -0.0471804 0
 0 -0.0471804 0
 0 -0.0139994 0
 0 -0.0139994 0
 0 -0.0139994 0