<?xml version="1.0"?>
<!-- time 73.2509-->
<VTKFile type="UnstructuredGrid" version="0.1" byte_order="LittleEndian">
<UnstructuredGrid>
<Piece NumberOfPoints="960" NumberOfCells="0">
<Points>
  <DataArray type="Float32" Name="Position" NumberOfComponents="3" format="ascii">
	-300 2099.63 -300
	-300 2099.63 -100
	-300 2099.63 100
	-300 2099.63 300
	-100 2099.63 -300
	-100 2099.63 -100
	-100 2099.63 100
	-100 2099.63 300
	100 2099.63 -300
	100 2099.63 -100
	100 2099.63 100
	100 2099.63 300
	300 2099.63 -300
	300 2099.63 -100
	300 2099.63 100
	300 2099.63 300
	-300 2299.67 -300
	-300 2299.67 -100
	-300 2299.67 100
	-300 2299.67 300
	-100 2299.67 -300
	-100 2299.67 -100
	-100 2299.67 100
	-100 2299.67 300
	100 2299.67 -300
	100 2299.67 -100
	100 2299.67 100
	100 2299.67 300
	300 2299.67 -300
	300 2299.67 -100
	300 2299.67 100
	300 2299.67 300
	-300 2499.67 -300
	-300 2499.67 -100
	-300 2499.67 100
	-300 2499.67 300
	-100 2499.67 -300
	-100 2499.67 -100
	-100 2499.67 100
	-100 2499.67 300
	100 2499.67 -300
	100 2499.67 -100
	100 2499.67 100
	100 2499.67 300
	300 2499.67 -300
	300 2499.67 -100
	300 2499.67 100
	300 2499.67 300
	-300 2699.67 -300
	-300 2699.67 -100
	-300 2699.67 100
	-300 2699.67 300
	-100 2699.67 -300
	-100 2699.67 -100
	-100 2699.67 100
	-100 2699.67 300
	100 2699.67 -300
	100 2699.67 -100
	100 2699.67 100
	100 2699.67 300
	300 2699.67 -300
	300 2699.67 -100
	300 2699.67 100
	300 2699.67 300
	-300 2899.67 -300
	-300 2899.67 -100
	-300 2899.67 100
	-300 2899.67 300
	-100 2899.67 -300
	-100 2899.67 -100
	-100 2899.67 100
	-100 2899.67 300
	100 2899.67 -300
	100 2899.67 -100
	100 2899.67 100
	100 2899.67 300
	300 2899.67 -300
	300 2899.67 -100
	300 2899.67 100
	300 2899.67 300
	-300 3099.67 -300
	-300 3099.67 -100
	-300 3099.67 100
	-300 3099.67 300
	-100 3099.67 -300
	-100 3099.67 -100
	-100 3099.67 100
	-100 3099.67 300
	100 3099.67 -300
	100 3099.67 -100
	100 3099.67 100
	100 3099.67 300
	300 3099.67 -300
	300 3099.67 -100
	300 3099.67 100
	300 3099.67 300
	-300 3299.67 -300
	-300 3299.67 -100
	-300 3299.67 100
	-300 3299.67 300
	-100 3299.67 -300
	-100 3299.67 -100
	-100 3299.67 100
	-100 3299.67 300
	100 3299.67 -300
	100 3299.67 -100
	100 3299.67 100
	100 3299.67 300
	300 3299.67 -300
	300 3299.67 -100
	300 3299.67 100
	300 3299.67 300
	-300 3499.67 -300
	-300 3499.67 -100
	-300 3499.67 100
	-300 3499.67 300
	-100 3499.67 -300
	-100 3499.67 -100
	-100 3499.67 100
	-100 3499.67 300
	100 3499.67 -300
	100 3499.67 -100
	100 3499.67 100
	100 3499.67 300
	300 3499.67 -300
	300 3499.67 -100
	300 3499.67 100
	300 3499.67 300
	-300 3699.67 -300
	-300 3699.67 -100
	-300 3699.67 100
	-300 3699.67 300
	-100 3699.67 -300
	-100 3699.67 -100
	-100 3699.67 100
	-100 3699.67 300
	100 3699.67 -300
	100 3699.67 -100
	100 3699.67 100
	100 3699.67 300
	300 3699.67 -300
	300 3699.67 -100
	300 3699.67 100
	300 3699.67 300
	-300 3899.67 -300
	-300 3899.67 -100
	-300 3899.67 100
	-300 3899.67 300
	-100 3899.67 -300
	-100 3899.67 -100
	-100 3899.67 100
	-100 3899.67 300
	100 3899.67 -300
	100 3899.67 -100
	100 3899.67 100
	100 3899.67 300
	300 3899.67 -300
	300 3899.67 -100
	300 3899.67 100
	300 3899.67 300
	-300 4099.67 -300
	-300 4099.67 -100
	-300 4099.67 100
	-300 4099.67 300
	-100 4099.67 -300
	-100 4099.67 -100
	-100 4099.67 100
	-100 4099.67 300
	100 4099.67 -300
	100 4099.67 -100
	100 4099.67 100
	100 4099.67 300
	300 4099.67 -300
	300 4099.67 -100
	300 4099.67 100
	300 4099.67 300
	-300 4299.67 -300
	-300 4299.67 -100
	-300 4299.67 100
	-300 4299.67 300
	-100 4299.67 -300
	-100 4299.67 -100
	-100 4299.67 100
	-100 4299.67 300
	100 4299.67 -300
	100 4299.67 -100
	100 4299.67 100
	100 4299.67 300
	300 4299.67 -300
	300 4299.67 -100
	300 4299.67 100
	300 4299.67 300
	-300 4499.67 -300
	-300 4499.67 -100
	-300 4499.67 100
	-300 4499.67 300
	-100 4499.67 -300
	-100 4499.67 -100
	-100 4499.67 100
	-100 4499.67 300
	100 4499.67 -300
	100 4499.67 -100
	100 4499.67 100
	100 4499.67 300
	300 4499.67 -300
	300 4499.67 -100
	300 4499.67 100
	300 4499.67 300
	-300 4699.67 -300
	-300 4699.67 -100
	-300 4699.67 100
	-300 4699.67 300
	-100 4699.67 -300
	-100 4699.67 -100
	-100 4699.67 100
	-100 4699.67 300
	100 4699.67 -300
	100 4699.67 -100
	100 4699.67 100
	100 4699.67 300
	300 4699.67 -300
	300 4699.67 -100
	300 4699.67 100
	300 4699.67 300
	-300 4899.67 -300
	-300 4899.67 -100
	-300 4899.67 100
	-300 4899.67 300
	-100 4899.67 -300
	-100 4899.67 -100
	-100 4899.67 100
	-100 4899.67 300
	100 4899.67 -300
	100 4899.67 -100
	100 4899.67 100
	100 4899.67 300
	300 4899.67 -300
	300 4899.67 -100
	300 4899.67 100
	300 4899.67 300
	-300 5099.67 -300
	-300 5099.67 -100
	-300 5099.67 100
	-300 5099.67 300
	-100 5099.67 -300
	-100 5099.67 -100
	-100 5099.67 100
	-100 5099.67 300
	100 5099.67 -300
	100 5099.67 -100
	100 5099.67 100
	100 5099.67 300
	300 5099.67 -300
	300 5099.67 -100
	300 5099.67 100
	300 5099.67 300
	-300 5299.67 -300
	-300 5299.67 -100
	-300 5299.67 100
	-300 5299.67 300
	-100 5299.67 -300
	-100 5299.67 -100
	-100 5299.67 100
	-100 5299.67 300
	100 5299.67 -300
	100 5299.67 -100
	100 5299.67 100
	100 5299.67 300
	300 5299.67 -300
	300 5299.67 -100
	300 5299.67 100
	300 5299.67 300
	-300 5499.68 -300
	-300 5499.68 -100
	-300 5499.68 100
	-300 5499.68 300
	-100 5499.68 -300
	-100 5499.68 -100
	-100 5499.68 100
	-100 5499.68 300
	100 5499.68 -300
	100 5499.68 -100
	100 5499.68 100
	100 5499.68 300
	300 5499.68 -300
	300 5499.68 -100
	300 5499.68 100
	300 5499.68 300
	-300 5699.68 -300
	-300 5699.68 -100
	-300 5699.68 100
	-300 5699.68 300
	-100 5699.68 -300
	-100 5699.68 -100
	-100 5699.68 100
	-100 5699.68 300
	100 5699.68 -300
	100 5699.68 -100
	100 5699.68 100
	100 5699.68 300
	300 5699.68 -300
	300 5699.68 -100
	300 5699.68 100
	300 5699.68 300
	-300 5899.68 -300
	-300 5899.68 -100
	-300 5899.68 100
	-300 5899.68 300
	-100 5899.68 -300
	-100 5899.68 -100
	-100 5899.68 100
	-100 5899.68 300
	100 5899.68 -300
	100 5899.68 -100
	100 5899.68 100
	100 5899.68 300
	300 5899.68 -300
	300 5899.68 -100
	300 5899.68 100
	300 5899.68 300
	-300 6099.72 -300
	-300 6099.72 -100
	-300 6099.72 100
	-300 6099.72 300
	-100 6099.72 -300
	-100 6099.72 -100
	-100 6099.72 100
	-100 6099.72 300
	100 6099.72 -300
	100 6099.72 -100
	100 6099.72 100
	100 6099.72 300
	300 6099.72 -300
	300 6099.72 -100
	300 6099.72 100
	300 6099.72 300
	-300 6299.74 -300
	-300 6299.74 -100
	-300 6299.74 100
	-300 6299.74 300
	-100 6299.74 -300
	-100 6299.74 -100
	-100 6299.74 100
	-100 6299.74 300
	100 6299.74 -300
	100 6299.74 -100
	100 6299.74 100
	100 6299.74 300
	300 6299.74 -300
	300 6299.74 -100
	300 6299.74 100
	300 6299.74 300
	-300 6499.77 -300
	-300 6499.77 -100
	-300 6499.77 100
	-300 6499.77 300
	-100 6499.77 -300
	-100 6499.77 -100
	-100 6499.77 100
	-100 6499.77 300
	100 6499.77 -300
	100 6499.77 -100
	100 6499.77 100
	100 6499.77 300
	300 6499.77 -300
	300 6499.77 -100
	300 6499.77 100
	300 6499.77 300
	-300 6699.79 -300
	-300 6699.79 -100
	-300 6699.79 100
	-300 6699.79 300
	-100 6699.79 -300
	-100 6699.79 -100
	-100 6699.79 100
	-100 6699.79 300
	100 6699.79 -300
	100 6699.79 -100
	100 6699.79 100
	100 6699.79 300
	300 6699.79 -300
	300 6699.79 -100
	300 6699.79 100
	300 6699.79 300
	-300 6899.81 -300
	-300 6899.81 -100
	-300 6899.81 100
	-300 6899.81 300
	-100 6899.81 -300
	-100 6899.81 -100
	-100 6899.81 100
	-100 6899.81 300
	100 6899.81 -300
	100 6899.81 -100
	100 6899.81 100
	100 6899.81 300
	300 6899.81 -300
	300 6899.81 -100
	300 6899.81 100
	300 6899.81 300
	-300 7099.82 -300
	-300 7099.82 -100
	-300 7099.82 100
	-300 7099.82 300
	-100 7099.82 -300
	-100 7099.82 -100
	-100 7099.82 100
	-100 7099.82 300
	100 7099.82 -300
	100 7099.82 -100
	100 7099.82 100
	100 7099.82 300
	300 7099.82 -300
	300 7099.82 -100
	300 7099.82 100
	300 7099.82 300
	-300 7299.82 -300
	-300 7299.82 -100
	-300 7299.82 100
	-300 7299.82 300
	-100 7299.82 -300
	-100 7299.82 -100
	-100 7299.82 100
	-100 7299.82 300
	100 7299.82 -300
	100 7299.82 -100
	100 7299.82 100
	100 7299.82 300
	300 7299.82 -300
	300 7299.82 -100
	300 7299.82 100
	300 7299.82 300
	-300 7499.83 -300
	-300 7499.83 -100
	-300 7499.83 100
	-300 7499.83 300
	-100 7499.83 -300
	-100 7499.83 -100
	-100 7499.83 100
	-100 7499.83 300
	100 7499.83 -300
	100 7499.83 -100
	100 7499.83 100
	100 7499.83 300
	300 7499.83 -300
	300 7499.83 -100
	300 7499.83 100
	300 7499.83 300
	-300 7699.83 -300
	-300 7699.83 -100
	-300 7699.83 100
	-300 7699.83 300
	-100 7699.83 -300
	-100 7699.83 -100
	-100 7699.83 100
	-100 7699.83 300
	100 7699.83 -300
	100 7699.83 -100
	100 7699.83 100
	100 7699.83 300
	300 7699.83 -300
	300 7699.83 -100
	300 7699.83 100
	300 7699.83 300
	-300 7899.84 -300
	-300 7899.84 -100
	-300 7899.84 100
	-300 7899.84 300
	-100 7899.84 -300
	-100 7899.84 -100
	-100 7899.84 100
	-100 7899.84 300
	100 7899.84 -300
	100 7899.84 -100
	100 7899.84 100
	100 7899.84 300
	300 7899.84 -300
	300 7899.84 -100
	300 7899.84 100
	300 7899.84 300
	-300 8099.84 -300
	-300 8099.84 -100
	-300 8099.84 100
	-300 8099.84 300
	-100 8099.84 -300
	-100 8099.84 -100
	-100 8099.84 100
	-100 8099.84 300
	100 8099.84 -300
	100 8099.84 -100
	100 8099.84 100
	100 8099.84 300
	300 8099.84 -300
	300 8099.84 -100
	300 8099.84 100
	300 8099.84 300
	-300 8299.85 -300
	-300 8299.85 -100
	-300 8299.85 100
	-300 8299.85 300
	-100 8299.85 -300
	-100 8299.85 -100
	-100 8299.85 100
	-100 8299.85 300
	100 8299.85 -300
	100 8299.85 -100
	100 8299.85 100
	100 8299.85 300
	300 8299.85 -300
	300 8299.85 -100
	300 8299.85 100
	300 8299.85 300
	-300 8499.85 -300
	-300 8499.85 -100
	-300 8499.85 100
	-300 8499.85 300
	-100 8499.85 -300
	-100 8499.85 -100
	-100 8499.85 100
	-100 8499.85 300
	100 8499.85 -300
	100 8499.85 -100
	100 8499.85 100
	100 8499.85 300
	300 8499.85 -300
	300 8499.85 -100
	300 8499.85 100
	300 8499.85 300
	-300 8699.86 -300
	-300 8699.86 -100
	-300 8699.86 100
	-300 8699.86 300
	-100 8699.86 -300
	-100 8699.86 -100
	-100 8699.86 100
	-100 8699.86 300
	100 8699.86 -300
	100 8699.86 -100
	100 8699.86 100
	100 8699.86 300
	300 8699.86 -300
	300 8699.86 -100
	300 8699.86 100
	300 8699.86 300
	-300 8899.87 -300
	-300 8899.87 -100
	-300 8899.87 100
	-300 8899.87 300
	-100 8899.87 -300
	-100 8899.87 -100
	-100 8899.87 100
	-100 8899.87 300
	100 8899.87 -300
	100 8899.87 -100
	100 8899.87 100
	100 8899.87 300
	300 8899.87 -300
	300 8899.87 -100
	300 8899.87 100
	300 8899.87 300
	-300 9099.87 -300
	-300 9099.87 -100
	-300 9099.87 100
	-300 9099.87 300
	-100 9099.87 -300
	-100 9099.87 -100
	-100 9099.87 100
	-100 9099.87 300
	100 9099.87 -300
	100 9099.87 -100
	100 9099.87 100
	100 9099.87 300
	300 9099.87 -300
	300 9099.87 -100
	300 9099.87 100
	300 9099.87 300
	-300 9299.87 -300
	-300 9299.87 -100
	-300 9299.87 100
	-300 9299.87 300
	-100 9299.87 -300
	-100 9299.87 -100
	-100 9299.87 100
	-100 9299.87 300
	100 9299.87 -300
	100 9299.87 -100
	100 9299.87 100
	100 9299.87 300
	300 9299.87 -300
	300 9299.87 -100
	300 9299.87 100
	300 9299.87 300
	-300 9499.88 -300
	-300 9499.88 -100
	-300 9499.88 100
	-300 9499.88 300
	-100 9499.88 -300
	-100 9499.88 -100
	-100 9499.88 100
	-100 9499.88 300
	100 9499.88 -300
	100 9499.88 -100
	100 9499.88 100
	100 9499.88 300
	300 9499.88 -300
	300 9499.88 -100
	300 9499.88 100
	300 9499.88 300
	-300 9699.88 -300
	-300 9699.88 -100
	-300 9699.88 100
	-300 9699.88 300
	-100 9699.88 -300
	-100 9699.88 -100
	-100 9699.88 100
	-100 9699.88 300
	100 9699.88 -300
	100 9699.88 -100
	100 9699.88 100
	100 9699.88 300
	300 9699.88 -300
	300 9699.88 -100
	300 9699.88 100
	300 9699.88 300
	-300 9899.89 -300
	-300 9899.89 -100
	-300 9899.89 100
	-300 9899.89 300
	-100 9899.89 -300
	-100 9899.89 -100
	-100 9899.89 100
	-100 9899.89 300
	100 9899.89 -300
	100 9899.89 -100
	100 9899.89 100
	100 9899.89 300
	300 9899.89 -300
	300 9899.89 -100
	300 9899.89 100
	300 9899.89 300
	-300 10099.9 -300
	-300 10099.9 -100
	-300 10099.9 100
	-300 10099.9 300
	-100 10099.9 -300
	-100 10099.9 -100
	-100 10099.9 100
	-100 10099.9 300
	100 10099.9 -300
	100 10099.9 -100
	100 10099.9 100
	100 10099.9 300
	300 10099.9 -300
	300 10099.9 -100
	300 10099.9 100
	300 10099.9 300
	-300 10299.9 -300
	-300 10299.9 -100
	-300 10299.9 100
	-300 10299.9 300
	-100 10299.9 -300
	-100 10299.9 -100
	-100 10299.9 100
	-100 10299.9 300
	100 10299.9 -300
	100 10299.9 -100
	100 10299.9 100
	100 10299.9 300
	300 10299.9 -300
	300 10299.9 -100
	300 10299.9 100
	300 10299.9 300
	-300 10499.9 -300
	-300 10499.9 -100
	-300 10499.9 100
	-300 10499.9 300
	-100 10499.9 -300
	-100 10499.9 -100
	-100 10499.9 100
	-100 10499.9 300
	100 10499.9 -300
	100 10499.9 -100
	100 10499.9 100
	100 10499.9 300
	300 10499.9 -300
	300 10499.9 -100
	300 10499.9 100
	300 10499.9 300
	-300 10699.9 -300
	-300 10699.9 -100
	-300 10699.9 100
	-300 10699.9 300
	-100 10699.9 -300
	-100 10699.9 -100
	-100 10699.9 100
	-100 10699.9 300
	100 10699.9 -300
	100 10699.9 -100
	100 10699.9 100
	100 10699.9 300
	300 10699.9 -300
	300 10699.9 -100
	300 10699.9 100
	300 10699.9 300
	-300 10899.9 -300
	-300 10899.9 -100
	-300 10899.9 100
	-300 10899.9 300
	-100 10899.9 -300
	-100 10899.9 -100
	-100 10899.9 100
	-100 10899.9 300
	100 10899.9 -300
	100 10899.9 -100
	100 10899.9 100
	100 10899.9 300
	300 10899.9 -300
	300 10899.9 -100
	300 10899.9 100
	300 10899.9 300
	-300 11100 -300
	-300 11100 -100
	-300 11100 100
	-300 11100 300
	-100 11100 -300
	-100 11100 -100
	-100 11100 100
	-100 11100 300
	100 11100 -300
	100 11100 -100
	100 11100 100
	100 11100 300
	300 11100 -300
	300 11100 -100
	300 11100 100
	300 11100 300
	-300 11300 -300
	-300 11300 -100
	-300 11300 100
	-300 11300 300
	-100 11300 -300
	-100 11300 -100
	-100 11300 100
	-100 11300 300
	100 11300 -300
	100 11300 -100
	100 11300 100
	100 11300 300
	300 11300 -300
	300 11300 -100
	300 11300 100
	300 11300 300
	-300 11500 -300
	-300 11500 -100
	-300 11500 100
	-300 11500 300
	-100 11500 -300
	-100 11500 -100
	-100 11500 100
	-100 11500 300
	100 11500 -300
	100 11500 -100
	100 11500 100
	100 11500 300
	300 11500 -300
	300 11500 -100
	300 11500 100
	300 11500 300
	-300 11700 -300
	-300 11700 -100
	-300 11700 100
	-300 11700 300
	-100 11700 -300
	-100 11700 -100
	-100 11700 100
	-100 11700 300
	100 11700 -300
	100 11700 -100
	100 11700 100
	100 11700 300
	300 11700 -300
	300 11700 -100
	300 11700 100
	300 11700 300
	-300 11900 -300
	-300 11900 -100
	-300 11900 100
	-300 11900 300
	-100 11900 -300
	-100 11900 -100
	-100 11900 100
	-100 11900 300
	100 11900 -300
	100 11900 -100
	100 11900 100
	100 11900 300
	300 11900 -300
	300 11900 -100
	300 11900 100
	300 11900 300
	-300 12100.1 -300
	-300 12100.1 -100
	-300 12100.1 100
	-300 12100.1 300
	-100 12100.1 -300
	-100 12100.1 -100
	-100 12100.1 100
	-100 12100.1 300
	100 12100.1 -300
	100 12100.1 -100
	100 12100.1 100
	100 12100.1 300
	300 12100.1 -300
	300 12100.1 -100
	300 12100.1 100
	300 12100.1 300
	-300 12300.1 -300
	-300 12300.1 -100
	-300 12300.1 100
	-300 12300.1 300
	-100 12300.1 -300
	-100 12300.1 -100
	-100 12300.1 100
	-100 12300.1 300
	100 12300.1 -300
	100 12300.1 -100
	100 12300.1 100
	100 12300.1 300
	300 12300.1 -300
	300 12300.1 -100
	300 12300.1 100
	300 12300.1 300
	-300 12500.1 -300
	-300 12500.1 -100
	-300 12500.1 100
	-300 12500.1 300
	-100 12500.1 -300
	-100 12500.1 -100
	-100 12500.1 100
	-100 12500.1 300
	100 12500.1 -300
	100 12500.1 -100
	100 12500.1 100
	100 12500.1 300
	300 12500.1 -300
	300 12500.1 -100
	300 12500.1 100
	300 12500.1 300
	-300 12700.2 -300
	-300 12700.2 -100
	-300 12700.2 100
	-300 12700.2 300
	-100 12700.2 -300
	-100 12700.2 -100
	-100 12700.2 100
	-100 12700.2 300
	100 12700.2 -300
	100 12700.2 -100
	100 12700.2 100
	100 12700.2 300
	300 12700.2 -300
	300 12700.2 -100
	300 12700.2 100
	300 12700.2 300
	-300 12900.2 -300
	-300 12900.2 -100
	-300 12900.2 100
	-300 12900.2 300
	-100 12900.2 -300
	-100 12900.2 -100
	-100 12900.2 100
	-100 12900.2 300
	100 12900.2 -300
	100 12900.2 -100
	100 12900.2 100
	100 12900.2 300
	300 12900.2 -300
	300 12900.2 -100
	300 12900.2 100
	300 12900.2 300
	-300 13100.3 -300
	-300 13100.3 -100
	-300 13100.3 100
	-300 13100.3 300
	-100 13100.3 -300
	-100 13100.3 -100
	-100 13100.3 100
	-100 13100.3 300
	100 13100.3 -300
	100 13100.3 -100
	100 13100.3 100
	100 13100.3 300
	300 13100.3 -300
	300 13100.3 -100
	300 13100.3 100
	300 13100.3 300
	-300 13300.4 -300
	-300 13300.4 -100
	-300 13300.4 100
	-300 13300.4 300
	-100 13300.4 -300
	-100 13300.4 -100
	-100 13300.4 100
	-100 13300.4 300
	100 13300.4 -300
	100 13300.4 -100
	100 13300.4 100
	100 13300.4 300
	300 13300.4 -300
	300 13300.4 -100
	300 13300.4 100
	300 13300.4 300
	-300 13500.6 -300
	-300 13500.6 -100
	-300 13500.6 100
	-300 13500.6 300
	-100 13500.6 -300
	-100 13500.6 -100
	-100 13500.6 100
	-100 13500.6 300
	100 13500.6 -300
	100 13500.6 -100
	100 13500.6 100
	100 13500.6 300
	300 13500.6 -300
	300 13500.6 -100
	300 13500.6 100
	300 13500.6 300
	-300 13700.9 -300
	-300 13700.9 -100
	-300 13700.9 100
	-300 13700.9 300
	-100 13700.9 -300
	-100 13700.9 -100
	-100 13700.9 100
	-100 13700.9 300
	100 13700.9 -300
	100 13700.9 -100
	100 13700.9 100
	100 13700.9 300
	300 13700.9 -300
	300 13700.9 -100
	300 13700.9 100
	300 13700.9 300
	-300 13901.7 -300
	-300 13901.7 -100
	-300 13901.7 100
	-300 13901.7 300
	-100 13901.7 -300
	-100 13901.7 -100
	-100 13901.7 100
	-100 13901.7 300
	100 13901.7 -300
	100 13901.7 -100
	100 13901.7 100
	100 13901.7 300
	300 13901.7 -300
	300 13901.7 -100
	300 13901.7 100
	300 13901.7 300
  </DataArray>
</Points>
<PointData  Vectors="vector">
  <DataArray type="Float32" Name="Velocity" NumberOfComponents="3" format="ascii">
 4.87043e-12 -0.000436951 -8.19702e-12
 1.75036e-11 -0.00043695 8.77082e-11
 1.18634e-11 -0.000436951 6.31108e-11
 4.80975e-13 -0.000436951 4.23075e-11
 2.15255e-11 -0.00043695 3.01147e-11
 2.9454e-11 -0.00043695 6.66946e-11
 2.90971e-11 -0.000436951 6.26745e-11
 4.3494e-11 -0.000436951 1.41028e-11
 2.36806e-11 -0.000436951 3.16972e-12
 2.61477e-11 -0.000436951 7.00786e-11
 2.69352e-11 -0.000436951 5.68775e-11
 3.32455e-11 -0.000436951 3.68212e-11
 1.09823e-11 -0.00043695 2.41704e-11
 1.04252e-11 -0.000436951 7.69964e-11
 6.61575e-12 -0.000436951 7.8678e-11
 1.08997e-11 -0.000436951 1.50498e-11
 5.19469e-12 -0.000504843 9.30677e-12
 -3.62428e-12 -0.000504843 -2.73596e-12
 -6.64477e-12 -0.000504843 -7.88398e-12
 2.99579e-13 -0.000504843 -6.34208e-12
 -1.3168e-11 -0.000504843 -1.75263e-11
 -6.87007e-12 -0.000504843 6.19867e-12
 -7.23203e-12 -0.000504843 -5.97171e-12
 -8.38208e-12 -0.000504843 1.2958e-11
 -1.16028e-11 -0.000504843 9.05557e-12
 -3.60839e-13 -0.000504843 -9.87506e-12
 -1.09225e-12 -0.000504843 -2.14687e-12
 -2.91397e-12 -0.000504843 -4.8602e-12
 -2.68861e-12 -0.000504843 4.24393e-12
 5.52489e-13 -0.000504843 -3.65692e-12
 -2.88162e-12 -0.000504843 -2.6932e-12
 -2.94174e-12 -0.000504843 7.97472e-12
 -4.96509e-12 -0.00068016 -6.16373e-12
 2.09208e-12 -0.00068016 -2.32089e-11
 -1.99919e-12 -0.00068016 -3.08193e-11
 -1.94605e-12 -0.000680159 8.80514e-12
 -2.05521e-11 -0.000680159 1.35971e-12
 -1.34036e-11 -0.00068016 -3.42769e-11
 -1.13452e-11 -0.00068016 -2.07813e-11
 -1.0838e-11 -0.000680159 9.44939e-12
 -1.68164e-11 -0.00068016 -8.46062e-12
 -1.22877e-11 -0.00068016 -1.53455e-11
 -1.03613e-11 -0.00068016 -2.74765e-11
 -1.09985e-11 -0.000680159 9.39665e-12
 3.59934e-12 -0.000680159 1.49785e-14
 -4.97951e-12 -0.00068016 -1.75279e-11
 -2.8211e-12 -0.00068016 -1.54733e-11
 -2.78721e-12 -0.00068016 -3.29242e-12
 -3.64429e-12 -0.000489713 2.05744e-12
 -2.10728e-13 -0.000489713 -8.59722e-12
 2.60458e-12 -0.000489713 -1.22989e-11
 -2.32818e-12 -0.000489713 -3.33635e-13
 6.20772e-12 -0.000489714 6.24726e-12
 -4.1181e-13 -0.000489713 -1.20223e-11
 4.88697e-13 -0.000489713 -1.33465e-11
 1.01701e-12 -0.000489714 -1.54798e-12
 -1.82102e-12 -0.000489713 1.56865e-12
 4.24741e-12 -0.000489713 -1.05038e-11
 -3.74925e-13 -0.000489713 -1.43302e-11
 -7.66476e-13 -0.000489714 1.56659e-12
 1.06493e-12 -0.000489714 -9.43897e-12
 2.4001e-12 -0.000489713 -4.54425e-12
 2.05886e-12 -0.000489713 -9.69816e-12
 2.63957e-12 -0.000489713 4.42176e-12
 1.49171e-12 -0.000491644 -5.21344e-12
 -4.79289e-12 -0.000491644 -6.66668e-12
 -6.4726e-12 -0.000491644 -6.31372e-12
 3.56621e-12 -0.000491644 -2.52508e-12
 3.45282e-12 -0.000491644 2.64734e-13
 1.02831e-11 -0.000491644 -1.40442e-11
 9.8578e-12 -0.000491644 -1.26378e-11
 1.15506e-12 -0.000491644 -1.12924e-12
 5.16334e-12 -0.000491644 4.50594e-13
 3.42452e-12 -0.000491644 -1.18176e-11
 2.20981e-12 -0.000491644 -1.34976e-11
 2.01519e-12 -0.000491644 -1.2751e-12
 2.52973e-12 -0.000491644 -9.34138e-12
 2.742e-12 -0.000491644 -5.27817e-12
 7.31541e-12 -0.000491644 -1.19342e-11
 -1.34341e-12 -0.000491644 -8.04674e-13
 -1.4869e-12 -0.000696853 4.18067e-12
 1.52758e-12 -0.000696853 -6.40548e-13
 1.3532e-12 -0.000696853 1.11691e-12
 -5.63996e-12 -0.000696854 -6.51521e-13
 5.27693e-12 -0.000696853 -2.47386e-12
 1.36337e-12 -0.000696853 -6.61297e-13
 1.29717e-12 -0.000696853 -2.14543e-12
 1.28572e-12 -0.000696854 2.40265e-12
 4.60943e-12 -0.000696853 -5.85872e-12
 9.34158e-13 -0.000696853 -8.45591e-13
 7.60898e-13 -0.000696853 -1.32659e-12
 -4.19543e-12 -0.000696854 1.67856e-12
 6.00713e-14 -0.000696853 -2.43605e-12
 1.78902e-12 -0.000696853 -2.90971e-12
 -1.20496e-12 -0.000696853 -3.8553e-12
 2.38793e-12 -0.000696853 -1.122e-12
 -1.19477e-12 -0.000618377 -1.25197e-12
 1.88509e-12 -0.000618377 7.77269e-12
 -2.99874e-13 -0.000618377 4.92176e-12
 -1.06369e-12 -0.000618377 1.79241e-12
 4.54936e-12 -0.000618377 2.08208e-12
 -1.23997e-12 -0.000618377 1.82337e-12
 -8.87966e-13 -0.000618377 1.38872e-12
 -4.92266e-12 -0.000618377 1.94128e-12
 1.62038e-12 -0.000618377 1.45332e-12
 5.20445e-13 -0.000618377 -3.37283e-13
 -2.50141e-12 -0.000618377 5.50962e-13
 -6.53175e-12 -0.000618377 9.65986e-15
 3.79597e-13 -0.000618377 7.47002e-13
 7.07919e-13 -0.000618377 -2.56137e-12
 7.50816e-14 -0.000618377 -3.33065e-12
 2.04233e-12 -0.000618377 2.63805e-12
 -1.29015e-12 -0.000472976 1.33845e-12
 5.59061e-13 -0.000472976 3.23625e-12
 -1.44978e-12 -0.000472977 3.33579e-12
 2.84467e-13 -0.000472976 1.554e-12
 2.79332e-12 -0.000472977 -2.25421e-12
 3.09496e-12 -0.000472977 2.85232e-12
 3.18104e-12 -0.000472978 5.54379e-12
 1.16734e-12 -0.000472977 1.18365e-12
 6.34665e-12 -0.000472976 2.22639e-12
 9.72579e-13 -0.000472977 9.58541e-13
 2.00697e-12 -0.000472976 1.24001e-12
 7.42691e-13 -0.000472975 1.80454e-13
 -1.88905e-13 -0.000472977 9.70748e-13
 2.08822e-12 -0.000472978 2.19554e-13
 3.25131e-13 -0.000472978 1.58323e-12
 -1.36697e-13 -0.000472978 1.0483e-12
 -6.75409e-13 -0.000614426 -3.44546e-13
 -1.49772e-12 -0.000614425 2.93387e-12
 -3.64334e-12 -0.000614425 3.01119e-12
 4.12104e-13 -0.000614425 8.04841e-14
 1.14232e-12 -0.000614425 1.42134e-12
 1.03989e-12 -0.000614424 2.20001e-12
 1.25913e-12 -0.000614424 1.92166e-12
 1.14887e-12 -0.000614425 1.26162e-12
 1.46432e-12 -0.000614426 -3.8183e-13
 8.44583e-13 -0.000614425 1.91792e-12
 1.70365e-12 -0.000614425 1.92781e-12
 4.32275e-13 -0.000614426 1.4294e-12
 -1.53929e-12 -0.000614425 1.7904e-12
 1.55976e-12 -0.000614424 2.71011e-12
 7.49578e-13 -0.000614424 1.93746e-12
 -6.1108e-13 -0.000614424 1.89955e-13
 -5.05141e-13 -0.000750987 1.14131e-12
 1.71983e-13 -0.000750987 2.69175e-12
 6.88062e-13 -0.000750987 2.27961e-12
 7.48069e-13 -0.000750987 1.11739e-12
 2.04253e-12 -0.000750986 7.27546e-14
 3.35501e-12 -0.000750987 3.82962e-12
 4.82562e-12 -0.000750986 5.28956e-12
 1.35409e-12 -0.000750987 9.47304e-13
 -6.10676e-13 -0.000750987 2.49472e-13
 2.66948e-12 -0.000750987 6.15742e-12
 2.77199e-12 -0.000750986 3.39832e-12
 4.41449e-12 -0.000750987 1.37243e-12
 1.87891e-12 -0.000750986 -1.99922e-13
 -9.37761e-13 -0.000750986 4.4986e-12
 -1.93391e-12 -0.000750986 7.99827e-12
 2.78163e-12 -0.000750987 1.40835e-12
 -1.1998e-12 -0.000609789 -5.69248e-13
 -7.51165e-13 -0.000609789 1.82597e-12
 3.98779e-13 -0.000609789 2.9434e-12
 2.38171e-13 -0.000609789 -3.95622e-13
 5.96269e-13 -0.00060979 -6.23606e-13
 7.87969e-13 -0.00060979 2.43896e-12
 3.09896e-12 -0.00060979 4.65108e-12
 1.61683e-12 -0.000609789 5.69349e-13
 9.6624e-13 -0.00060979 7.46931e-13
 -1.31503e-12 -0.000609789 3.97742e-12
 2.28793e-12 -0.00060979 5.04694e-12
 3.38495e-12 -0.000609789 8.50936e-13
 -1.70511e-12 -0.00060979 3.52324e-13
 2.13654e-12 -0.00060979 4.40257e-12
 -1.29263e-12 -0.00060979 7.32981e-12
 2.5982e-12 -0.00060979 9.00287e-13
 -1.14962e-12 -0.000322586 -6.84767e-14
 -1.28542e-12 -0.000322586 2.75801e-12
 -1.3894e-12 -0.000322586 1.46042e-12
 -4.4085e-13 -0.000322586 1.46496e-12
 -5.76805e-12 -0.000322585 1.31335e-12
 -3.49316e-12 -0.000322585 2.72622e-12
 -3.12639e-12 -0.000322585 2.7936e-12
 -1.22339e-12 -0.000322585 -4.532e-13
 -1.99921e-12 -0.000322585 1.50286e-12
 -2.06562e-12 -0.000322586 3.44149e-12
 -1.54376e-12 -0.000322585 3.61134e-12
 -1.02562e-12 -0.000322586 -3.18673e-13
 1.84766e-12 -0.000322585 -2.5978e-12
 -5.66064e-13 -0.000322585 3.19054e-12
 5.26241e-13 -0.000322585 5.679e-12
 -1.49911e-12 -0.000322585 2.22663e-12
 -6.49189e-13 -0.000485009 -4.63013e-13
 -1.37427e-12 -0.000485009 1.95357e-12
 -1.44248e-12 -0.000485009 1.29286e-12
 -6.94304e-13 -0.000485009 1.51746e-12
 -3.19796e-12 -0.000485009 8.91532e-13
 -3.82847e-12 -0.000485009 1.58157e-12
 -2.27891e-12 -0.000485009 1.68953e-12
 -2.19836e-12 -0.000485009 -5.55674e-13
 -2.09121e-12 -0.000485009 -5.41009e-13
 -2.19209e-12 -0.000485009 3.72454e-12
 -3.6609e-12 -0.000485009 2.3098e-12
 -3.66151e-12 -0.000485009 -3.96066e-13
 8.17859e-14 -0.000485009 -1.81702e-12
 -1.08715e-13 -0.000485009 1.9454e-12
 1.37438e-12 -0.000485009 2.45253e-12
 7.54762e-13 -0.000485009 1.79071e-12
 -1.13938e-12 -0.000503823 5.48574e-13
 -3.04895e-13 -0.000503823 1.47675e-12
 -2.54423e-13 -0.000503823 2.97327e-13
 -6.07704e-13 -0.000503823 -1.83611e-14
 -9.30356e-13 -0.000503823 -1.95267e-12
 -2.88282e-12 -0.000503823 7.19156e-13
 -3.07193e-12 -0.000503823 1.30694e-12
 -2.76976e-12 -0.000503823 9.09368e-13
 -1.66699e-12 -0.000503823 -2.56206e-13
 -2.67094e-12 -0.000503823 2.63537e-13
 -2.35945e-12 -0.000503823 2.80432e-13
 -2.42175e-12 -0.000503823 1.24963e-12
 -1.22583e-12 -0.000503823 7.21075e-13
 -6.43534e-13 -0.000503823 7.74794e-13
 -2.35395e-13 -0.000503823 -3.27195e-14
 -3.42909e-13 -0.000503823 -3.68444e-13
 -1.26436e-12 -0.000275293 7.23049e-13
 -1.25152e-12 -0.000275293 7.38942e-13
 -5.66247e-13 -0.000275293 5.34299e-13
 -3.68063e-13 -0.000275293 -9.13667e-13
 -9.95613e-15 -0.000275293 -1.13534e-12
 -8.95209e-13 -0.000275293 -5.64238e-13
 -2.73735e-12 -0.000275293 -4.19614e-13
 -1.68204e-12 -0.000275293 1.52729e-12
 -1.94762e-12 -0.000275293 -7.6999e-13
 -1.08578e-12 -0.000275293 -8.30963e-13
 -1.95337e-12 -0.000275293 -1.35372e-12
 -2.0417e-12 -0.000275293 1.581e-12
 1.68146e-12 -0.000275293 1.58156e-13
 1.55644e-13 -0.000275293 -3.63781e-13
 1.41538e-12 -0.000275293 -2.87735e-12
 -3.18569e-13 -0.000275293 1.2918e-12
 -1.98737e-13 -0.000412153 -9.56355e-13
 4.02442e-13 -0.000412153 2.67989e-13
 8.44855e-14 -0.000412153 -1.15519e-12
 8.59203e-14 -0.000412153 1.66922e-12
 1.06614e-12 -0.000412154 -6.79173e-13
 -1.03508e-12 -0.000412153 -1.40167e-12
 5.70794e-14 -0.000412153 -2.21808e-13
 -1.41848e-12 -0.000412152 1.20559e-12
 7.22201e-13 -0.000412154 -8.6979e-13
 6.707e-13 -0.000412153 -2.60012e-13
 -5.57585e-13 -0.000412153 -1.67291e-12
 3.06161e-13 -0.000412153 1.25679e-12
 1.86278e-13 -0.000412154 -1.27614e-12
 9.32054e-13 -0.000412153 -2.14069e-13
 9.2059e-13 -0.000412153 -1.46608e-12
 1.17662e-12 -0.000412153 1.21951e-12
 1.67691e-13 -0.000565857 -1.24925e-12
 2.21968e-13 -0.000565857 -6.10008e-14
 -9.40214e-14 -0.000565857 -1.31304e-12
 1.21954e-13 -0.000565857 1.39237e-12
 5.73339e-13 -0.000565856 -4.68487e-13
 1.29276e-12 -0.000565857 -2.14248e-12
 -3.55737e-13 -0.000565857 -2.03042e-13
 -7.14603e-13 -0.000565858 1.13283e-12
 5.74135e-13 -0.000565856 -3.90559e-13
 1.23101e-12 -0.000565857 -1.98736e-12
 1.01578e-12 -0.000565857 -5.34313e-13
 3.65744e-13 -0.000565857 6.83914e-13
 9.99677e-13 -0.000565857 -4.4727e-13
 -6.33513e-13 -0.000565857 -1.81923e-12
 9.61226e-13 -0.000565857 -6.25646e-13
 1.61747e-12 -0.000565857 7.88421e-13
 2.17829e-13 0.000334406 6.38196e-13
 -2.29541e-13 0.000334406 -7.05329e-13
 -1.52555e-14 0.000334406 -8.66886e-13
 -1.76259e-13 0.000334406 -9.70874e-13
 -4.69085e-13 0.000334406 -1.3962e-12
 1.5594e-13 0.000334406 -5.83541e-13
 -2.66382e-13 0.000334406 -1.85394e-12
 8.42934e-14 0.000334406 1.65203e-12
 7.20586e-13 0.000334406 -1.0705e-12
 1.42287e-13 0.000334406 -1.76043e-12
 1.00499e-12 0.000334406 -1.88131e-13
 1.37155e-13 0.000334406 7.30605e-13
 1.32955e-12 0.000334406 -1.29041e-12
 1.69047e-12 0.000334406 -2.44083e-12
 9.52935e-13 0.000334406 -1.25022e-13
 1.73351e-12 0.000334406 1.83219e-12
 -1.17913e-13 0.000274747 -7.87662e-13
 7.05165e-14 0.000274747 -1.90305e-13
 3.17064e-13 0.000274747 -1.24028e-12
 -3.09951e-13 0.000274747 1.12356e-12
 -4.78927e-14 0.000274747 -4.27373e-13
 -5.32442e-13 0.000274747 -1.76395e-12
 -6.29755e-13 0.000274747 -2.24979e-13
 -4.4696e-13 0.000274746 1.35941e-12
 -9.9383e-13 0.000274747 -5.35653e-13
 -8.52382e-13 0.000274747 -1.60903e-12
 -4.16242e-13 0.000274747 6.17302e-13
 5.03175e-13 0.000274747 1.23269e-12
 9.5768e-13 0.000274746 -4.67277e-13
 1.16174e-12 0.000274746 6.52175e-14
 1.36589e-12 0.000274746 -1.64413e-12
 1.12379e-12 0.000274746 1.86732e-12
 -4.51656e-13 7.3737e-05 -6.65374e-13
 -5.22923e-13 7.37372e-05 -1.01889e-12
 -2.118e-12 7.37369e-05 1.38082e-12
 -2.00132e-12 7.37367e-05 2.652e-12
 -3.18992e-12 7.37371e-05 -6.20666e-13
 -2.07503e-12 7.37373e-05 1.95629e-12
 -3.86961e-13 7.37371e-05 -5.95533e-13
 -1.22469e-12 7.37376e-05 2.36718e-12
 -1.59145e-12 7.37366e-05 -1.27502e-13
 -1.99809e-12 7.3737e-05 1.89497e-12
 -1.96039e-12 7.37365e-05 -6.84014e-13
 -6.9004e-13 7.37372e-05 2.54124e-12
 1.97038e-13 7.37375e-05 -8.68361e-13
 -3.97242e-13 7.37377e-05 1.80423e-12
 1.32981e-14 7.37374e-05 1.8348e-12
 -4.37294e-13 7.37382e-05 1.18038e-13
 0 -0.000537327 0
 0 -0.000537327 0
 0 -0.000537327 0
 0 -0.000537327 0
 0 -0.000537327 0
 0 -0.000537327 0
 0 -0.000537327 0