<?xml version="1.0"?>
<VTKFile type="UnstructuredGrid" version="0.1" byte_order="LittleEndian" compressor="vtkZLibDataCompressor">
<UnstructuredGrid>
<Piece NumberOfPoints="960" NumberOfCells="120">
<Points>
<DataArray type="Float32" NumberOfComponents="3" format="ascii">
-4.000000e+02 -6.000000e+03 -4.000000e+02
0.000000e+00 -6.000000e+03 -4.000000e+02
-4.000000e+02 -5.600000e+03 -4.000000e+02
6.340140e-10 -5.600000e+03 -4.000000e+02
-4.000000e+02 -6.000000e+03 0.000000e+00
0.000000e+00 -6.000000e+03 0.000000e+00
-4.000000e+02 -5.600000e+03 3.809380e-10
2.427660e-10 -5.600000e+03 2.240010e-10
0.000000e+00 -6.000000e+03 -4.000000e+02
4.000000e+02 -6.000000e+03 -4.000000e+02
6.340140e-10 -5.600000e+03 -4.000000e+02
4.000000e+02 -5.600000e+03 -4.000000e+02
0.000000e+00 -6.000000e+03 0.000000e+00
4.000000e+02 -6.000000e+03 0.000000e+00
2.427660e-10 -5.600000e+03 2.240010e-10
4.000000e+02 -5.600000e+03 -9.853030e-11
-4.000000e+02 -5.600000e+03 -4.000000e+02
6.340140e-10 -5.600000e+03 -4.000000e+02
-4.000000e+02 -5.200000e+03 -4.000000e+02
5.293650e-10 -5.200000e+03 -4.000000e+02
-4.000000e+02 -5.600000e+03 3.809380e-10
2.427660e-10 -5.600000e+03 2.240010e-10
-4.000000e+02 -5.200000e+03 1.020740e-10
4.834270e-10 -5.200000e+03 4.540350e-10
6.340140e-10 -5.600000e+03 -4.000000e+02
4.000000e+02 -5.600000e+03 -4.000000e+02
5.293650e-10 -5.200000e+03 -4.000000e+02
4.000000e+02 -5.200000e+03 -4.000000e+02
2.427660e-10 -5.600000e+03 2.240010e-10
4.000000e+02 -5.600000e+03 -9.853030e-11
4.834270e-10 -5.200000e+03 4.540350e-10
4.000000e+02 -5.200000e+03 3.184930e-10
-4.000000e+02 -5.200000e+03 -4.000000e+02
5.293650e-10 -5.200000e+03 -4.000000e+02
-4.000000e+02 -4.800000e+03 -4.000000e+02
5.315250e-10 -4.800000e+03 -4.000000e+02
-4.000000e+02 -5.200000e+03 1.020740e-10
4.834270e-10 -5.200000e+03 4.540350e-10
-4.000000e+02 -4.800000e+03 4.949400e-11
4.642640e-10 -4.800000e+03 1.579490e-10
5.293650e-10 -5.200000e+03 -4.000000e+02
4.000000e+02 -5.200000e+03 -4.000000e+02
5.315250e-10 -4.800000e+03 -4.000000e+02
4.000000e+02 -4.800000e+03 -4.000000e+02
4.834270e-10 -5.200000e+03 4.540350e-10
4.000000e+02 -5.200000e+03 3.184930e-10
4.642640e-10 -4.800000e+03 1.579490e-10
4.000000e+02 -4.800000e+03 8.800290e-10
-4.000000e+02 -4.800000e+03 -4.000000e+02
5.315250e-10 -4.800000e+03 -4.000000e+02
-4.000000e+02 -4.400010e+03 -4.000000e+02
1.073410e-09 -4.400010e+03 -4.000000e+02
-4.000000e+02 -4.800000e+03 4.949400e-11
4.642640e-10 -4.800000e+03 1.579490e-10
-4.000000e+02 -4.400010e+03 -7.205650e-10
7.720940e-10 -4.400010e+03 -4.515030e-10
5.315250e-10 -4.800000e+03 -4.000000e+02
4.000000e+02 -4.800000e+03 -4.000000e+02
1.073410e-09 -4.400010e+03 -4.000000e+02
4.000000e+02 -4.400010e+03 -4.000000e+02
4.642640e-10 -4.800000e+03 1.579490e-10
4.000000e+02 -4.800000e+03 8.800290e-10
7.720940e-10 -4.400010e+03 -4.515030e-10
4.000000e+02 -4.400010e+03 -4.801370e-11
-4.000000e+02 -4.400010e+03 -4.000000e+02
1.073410e-09 -4.400010e+03 -4.000000e+02
-4.000000e+02 -4.000010e+03 -4.000000e+02
1.369990e-09 -4.000010e+03 -4.000000e+02
-4.000000e+02 -4.400010e+03 -7.205650e-10
7.720940e-10 -4.400010e+03 -4.515030e-10
-4.000000e+02 -4.000010e+03 -1.217340e-09
8.711760e-10 -4.000010e+03 -1.136190e-09
1.073410e-09 -4.400010e+03 -4.000000e+02
4.000000e+02 -4.400010e+03 -4.000000e+02
1.369990e-09 -4.000010e+03 -4.000000e+02
4.000000e+02 -4.000010e+03 -4.000000e+02
7.720940e-10 -4.400010e+03 -4.515030e-10
4.000000e+02 -4.400010e+03 -4.801370e-11
8.711760e-10 -4.000010e+03 -1.136190e-09
4.000000e+02 -4.000010e+03 -1.063280e-09
-4.000000e+02 -4.000010e+03 -4.000000e+02
1.369990e-09 -4.000010e+03 -4.000000e+02
-4.000000e+02 -3.600010e+03 -4.000000e+02
1.050410e-09 -3.600010e+03 -4.000000e+02
-4.000000e+02 -4.000010e+03 -1.217340e-09
8.711760e-10 -4.000010e+03 -1.136190e-09
-4.000000e+02 -3.600010e+03 -1.448400e-09
8.882490e-10 -3.600010e+03 -1.568500e-09
1.369990e-09 -4.000010e+03 -4.000000e+02
4.000000e+02 -4.000010e+03 -4.000000e+02
1.050410e-09 -3.600010e+03 -4.000000e+02
4.000000e+02 -3.600010e+03 -4.000000e+02
8.711760e-10 -4.000010e+03 -1.136190e-09
4.000000e+02 -4.000010e+03 -1.063280e-09
8.882490e-10 -3.600010e+03 -1.568500e-09
4.000000e+02 -3.600010e+03 -9.932320e-10
-4.000000e+02 -3.600010e+03 -4.000000e+02
1.050410e-09 -3.600010e+03 -4.000000e+02
-4.000000e+02 -3.200020e+03 -4.000000e+02
1.237520e-09 -3.200020e+03 -4.000000e+02
-4.000000e+02 -3.600010e+03 -1.448400e-09
8.882490e-10 -3.600010e+03 -1.568500e-09
-4.000000e+02 -3.200020e+03 -7.600650e-10
9.576020e-10 -3.200020e+03 -1.085610e-09
1.050410e-09 -3.600010e+03 -4.000000e+02
4.000000e+02 -3.600010e+03 -4.000000e+02
1.237520e-09 -3.200020e+03 -4.000000e+02
4.000000e+02 -3.200020e+03 -4.000000e+02
8.882490e-10 -3.600010e+03 -1.568500e-09
4.000000e+02 -3.600010e+03 -9.932320e-10
9.576020e-10 -3.200020e+03 -1.085610e-09
4.000000e+02 -3.200020e+03 -9.616640e-10
-4.000000e+02 -3.200020e+03 -4.000000e+02
1.237520e-09 -3.200020e+03 -4.000000e+02
-4.000000e+02 -2.800030e+03 -4.000000e+02
1.097450e-09 -2.800030e+03 -4.000000e+02
-4.000000e+02 -3.200020e+03 -7.600650e-10
9.576020e-10 -3.200020e+03 -1.085610e-09
-4.000000e+02 -2.800030e+03 -4.162580e-10
9.205380e-10 -2.800030e+03 -4.579220e-10
1.237520e-09 -3.200020e+03 -4.000000e+02
4.000000e+02 -3.200020e+03 -4.000000e+02
1.097450e-09 -2.800030e+03 -4.000000e+02
4.000000e+02 -2.800030e+03 -4.000000e+02
9.576020e-10 -3.200020e+03 -1.085610e-09
4.000000e+02 -3.200020e+03 -9.616640e-10
9.205380e-10 -2.800030e+03 -4.579220e-10
4.000000e+02 -2.800030e+03 -3.407120e-10
-4.000000e+02 -2.800030e+03 -4.000000e+02
1.097450e-09 -2.800030e+03 -4.000000e+02
-4.000000e+02 -2.400060e+03 -4.000000e+02
8.239540e-10 -2.400060e+03 -4.000000e+02
-4.000000e+02 -2.800030e+03 -4.162580e-10
9.205380e-10 -2.800030e+03 -4.579220e-10
-4.000000e+02 -2.400060e+03 -4.842690e-10
3.946240e-10 -2.400060e+03 -1.419740e-10
1.097450e-09 -2.800030e+03 -4.000000e+02
4.000000e+02 -2.800030e+03 -4.000000e+02
8.239540e-10 -2.400060e+03 -4.000000e+02
4.000000e+02 -2.400060e+03 -4.000000e+02
9.205380e-10 -2.800030e+03 -4.579220e-10
4.000000e+02 -2.800030e+03 -3.407120e-10
3.946240e-10 -2.400060e+03 -1.419740e-10
4.000000e+02 -2.400060e+03 -2.713430e-12
-4.000000e+02 -2.400060e+03 -4.000000e+02
8.239540e-10 -2.400060e+03 -4.000000e+02
-4.000000e+02 -2.000090e+03 -4.000000e+02
8.257900e-10 -2.000090e+03 -4.000000e+02
-4.000000e+02 -2.400060e+03 -4.842690e-10
3.946240e-10 -2.400060e+03 -1.419740e-10
-4.000000e+02 -2.000090e+03 -3.417490e-10
5.907110e-10 -2.000090e+03 2.629310e-11
8.239540e-10 -2.400060e+03 -4.000000e+02
4.000000e+02 -2.400060e+03 -4.000000e+02
8.257900e-10 -2.000090e+03 -4.000000e+02
4.000000e+02 -2.000090e+03 -4.000000e+02
3.946240e-10 -2.400060e+03 -1.419740e-10
4.000000e+02 -2.400060e+03 -2.713430e-12
5.907110e-10 -2.000090e+03 2.629310e-11
4.000000e+02 -2.000090e+03 1.428850e-11
-4.000000e+02 -2.000090e+03 -4.000000e+02
8.257900e-10 -2.000090e+03 -4.000000e+02
-4.000000e+02 -1.600150e+03 -4.000000e+02
4.773620e-10 -1.600150e+03 -4.000000e+02
-4.000000e+02 -2.000090e+03 -3.417490e-10
5.907110e-10 -2.000090e+03 2.629310e-11
-4.000000e+02 -1.600150e+03 -4.613270e-10
6.587810e-10 -1.600150e+03 -2.355880e-10
8.257900e-10 -2.000090e+03 -4.000000e+02
4.000000e+02 -2.000090e+03 -4.000000e+02
4.773620e-10 -1.600150e+03 -4.000000e+02
4.000000e+02 -1.600150e+03 -4.000000e+02
5.907110e-10 -2.000090e+03 2.629310e-11
4.000000e+02 -2.000090e+03 1.428850e-11
6.587810e-10 -1.600150e+03 -2.355880e-10
4.000000e+02 -1.600150e+03 -8.082050e-11
-4.000000e+02 -1.600150e+03 -4.000000e+02
4.773620e-10 -1.600150e+03 -4.000000e+02
-4.000000e+02 -1.200200e+03 -4.000000e+02
2.601080e-10 -1.200200e+03 -4.000000e+02
-4.000000e+02 -1.600150e+03 -4.613270e-10
6.587810e-10 -1.600150e+03 -2.355880e-10
-4.000000e+02 -1.200200e+03 -6.150370e-10
1.954360e-10 -1.200200e+03 -2.965690e-10
4.773620e-10 -1.600150e+03 -4.000000e+02
4.000000e+02 -1.600150e+03 -4.000000e+02
2.601080e-10 -1.200200e+03 -4.000000e+02
4.000000e+02 -1.200200e+03 -4.000000e+02
6.587810e-10 -1.600150e+03 -2.355880e-10
4.000000e+02 -1.600150e+03 -8.082050e-11
1.954360e-10 -1.200200e+03 -2.965690e-10
4.000000e+02 -1.200200e+03 -2.325530e-10
-4.000000e+02 -1.200200e+03 -4.000000e+02
2.601080e-10 -1.200200e+03 -4.000000e+02
-4.000000e+02 -8.002570e+02 -4.000000e+02
4.325280e-10 -8.002570e+02 -4.000000e+02
-4.000000e+02 -1.200200e+03 -6.150370e-10
1.954360e-10 -1.200200e+03 -2.965690e-10
-4.000000e+02 -8.002570e+02 -4.288650e-10
4.534000e-10 -8.002570e+02 -6.135700e-11
2.601080e-10 -1.200200e+03 -4.000000e+02
4.000000e+02 -1.200200e+03 -4.000000e+02
4.325280e-10 -8.002570e+02 -4.000000e+02
4.000000e+02 -8.002570e+02 -4.000000e+02
1.954360e-10 -1.200200e+03 -2.965690e-10
4.000000e+02 -1.200200e+03 -2.325530e-10
4.534000e-10 -8.002570e+02 -6.135700e-11
4.000000e+02 -8.002570e+02 -8.639040e-11
-4.000000e+02 -8.002570e+02 -4.000000e+02
4.325280e-10 -8.002570e+02 -4.000000e+02
-4.000000e+02 -4.002860e+02 -4.000000e+02
3.650350e-10 -4.002860e+02 -4.000000e+02
-4.000000e+02 -8.002570e+02 -4.288650e-10
4.534000e-10 -8.002570e+02 -6.135700e-11
-4.000000e+02 -4.002860e+02 -7.838540e-11
3.110050e-10 -4.002860e+02 -1.187760e-10
4.325280e-10 -8.002570e+02 -4.000000e+02
4.000000e+02 -8.002570e+02 -4.000000e+02
3.650350e-10 -4.002860e+02 -4.000000e+02
4.000000e+02 -4.002860e+02 -4.000000e+02
4.534000e-10 -8.002570e+02 -6.135700e-11
4.000000e+02 -8.002570e+02 -8.639040e-11
3.110050e-10 -4.002860e+02 -1.187760e-10
4.000000e+02 -4.002860e+02 -2.373740e-10
-4.000000e+02 -4.002860e+02 -4.000000e+02
3.650350e-10 -4.002860e+02 -4.000000e+02
-4.000000e+02 -2.852410e-01 -4.000000e+02
5.135340e-10 -2.852410e-01 -4.000000e+02
-4.000000e+02 -4.002860e+02 -7.838540e-11
3.110050e-10 -4.002860e+02 -1.187760e-10
-4.000000e+02 -2.852410e-01 2.349840e-10
3.655370e-10 -2.852410e-01 4.893630e-11
3.650350e-10 -4.002860e+02 -4.000000e+02
4.000000e+02 -4.002860e+02 -4.000000e+02
5.135340e-10 -2.852410e-01 -4.000000e+02
4.000000e+02 -2.852410e-01 -4.000000e+02
[...]
<PointData>
<DataArray type="Float32" Name="V1" format="ascii">
0.000000e+00
0.000000e+00
1.649680e-10
4.185930e-11
0.000000e+00
0.000000e+00
6.834400e-10
1.184520e-10
0.000000e+00
0.000000e+00
4.185930e-11
1.256900e-10
0.000000e+00
0.000000e+00
1.184520e-10
-8.169850e-10
1.649680e-10
4.185930e-11
7.698510e-10
-8.511200e-11
6.834400e-10
1.184520e-10
2.356690e-11
3.097220e-10
4.185930e-11
1.256900e-10
-8.511200e-11
-1.115500e-09
1.184520e-10
-8.169850e-10
3.097220e-10
5.263270e-10
7.698510e-10
-8.511200e-11
-1.068370e-09
-5.946190e-10
2.356690e-11
3.097220e-10
6.284500e-11
5.005430e-11
-8.511200e-11
-1.115500e-09
-5.946190e-10
2.906580e-10
3.097220e-10
5.263270e-10
5.005430e-11
3.927810e-11
-1.068370e-09
-5.946190e-10
-4.320600e-10
-4.938120e-11
6.284500e-11
5.005430e-11
-2.199580e-10
-2.650130e-10
-5.946190e-10
2.906580e-10
-4.938120e-11
-1.571130e-10
5.005430e-11
3.927810e-11
-2.650130e-10
-5.184710e-10
-4.320600e-10
-4.938120e-11
-1.139070e-09
-2.629960e-10
-2.199580e-10
-2.650130e-10
8.326970e-10
1.440370e-10
-4.938120e-11
-1.571130e-10
-2.629960e-10
8.091300e-10
-2.650130e-10
-5.184710e-10
1.440370e-10
0.000000e+00
-1.139070e-09
-2.629960e-10
-3.535030e-10
-6.956530e-12
8.326970e-10
1.440370e-10
-9.033970e-10
-1.398320e-10
-2.629960e-10
8.091300e-10
-6.956530e-12
-3.142250e-11
1.440370e-10
0.000000e+00
-1.398320e-10
9.898090e-10
-3.535030e-10
-6.956530e-12
3.692140e-10
-1.336070e-10
-9.033970e-10
-1.398320e-10
9.426750e-11
-2.525450e-10
-6.956530e-12
-3.142250e-11
-1.336070e-10
-7.070060e-10
-1.398320e-10
9.898090e-10
-2.525450e-10
-2.670910e-10
3.692140e-10
-1.336070e-10
1.021230e-10
1.009090e-10
9.426750e-11
-2.525450e-10
3.927810e-11
1.828620e-10
-1.336070e-10
-7.070060e-10
1.009090e-10
1.021230e-10
-2.525450e-10
-2.670910e-10
1.828620e-10
1.178340e-10
1.021230e-10
1.009090e-10
9.191080e-10
3.057400e-10
3.927810e-11
1.828620e-10
2.906580e-10
1.447370e-11
1.009090e-10
1.021230e-10
3.057400e-10
9.426750e-11
1.828620e-10
1.178340e-10
1.447370e-11
-3.456480e-10
9.191080e-10
3.057400e-10
4.556260e-10
4.483230e-10
2.906580e-10
1.447370e-11
-8.484080e-10
-4.578720e-10
3.057400e-10
9.426750e-11
4.483230e-10
1.963910e-10
1.447370e-11
-3.456480e-10
-4.578720e-10
-4.006370e-10
4.556260e-10
4.483230e-10
-7.855630e-11
2.549770e-11
-8.484080e-10
-4.578720e-10
-4.477710e-10
9.237110e-11
4.483230e-10
1.963910e-10
2.549770e-11
4.556260e-10
-4.578720e-10
-4.006370e-10
9.237110e-11
2.749470e-10
-7.855630e-11
2.549770e-11
8.798300e-10
4.141070e-10
-4.477710e-10
9.237110e-11
1.256900e-10
-1.031630e-10
2.549770e-11
4.556260e-10
4.141070e-10
0.000000e+00
9.237110e-11
2.749470e-10
-1.031630e-10
-3.692140e-10
8.798300e-10
4.141070e-10
-1.256900e-10
-2.854850e-10
1.256900e-10
-1.031630e-10
-3.377920e-10
5.414120e-11
4.141070e-10
0.000000e+00
-2.854850e-10
3.770700e-10
-1.031630e-10
-3.692140e-10
5.414120e-11
4.713380e-10
-1.256900e-10
-2.854850e-10
7.855630e-12
-1.539310e-10
-3.377920e-10
5.414120e-11
7.070060e-11
-1.224860e-10
-2.854850e-10
3.770700e-10
-1.539310e-10
0.000000e+00
5.414120e-11
4.713380e-10
-1.224860e-10
1.571130e-11
7.855630e-12
-1.539310e-10
9.426750e-11
-1.706090e-10
7.070060e-11
-1.224860e-10
-1.571130e-11
2.159410e-11
-1.539310e-10
0.000000e+00
-1.706090e-10
0.000000e+00
-1.224860e-10
1.571130e-11
2.159410e-11
3.692140e-10
9.426750e-11
-1.706090e-10
9.583870e-10
3.310190e-10
-1.571130e-11
2.159410e-11
-3.849260e-10
-8.021180e-11
-1.706090e-10
0.000000e+00
3.310190e-10
-4.477710e-10
2.159410e-11
3.692140e-10
-8.021180e-11
4.556260e-10
9.583870e-10
3.310190e-10
-3.927810e-11
4.795880e-11
-3.849260e-10
-8.021180e-11
3.142250e-10
1.758820e-10
3.310190e-10
-4.477710e-10
4.795880e-11
0.000000e+00
-8.021180e-11
4.556260e-10
1.758820e-10
0.000000e+00
-3.927810e-11
4.795880e-11
6.284500e-10
1.236930e-10
3.142250e-10
1.758820e-10
0.000000e+00
-6.215670e-11
4.795880e-11
0.000000e+00
1.236930e-10
-4.791930e-10
1.758820e-10
0.000000e+00
-6.215670e-11
0.000000e+00
6.284500e-10
1.236930e-10
-9.269640e-10
-3.306410e-10
0.000000e+00
-6.215670e-11
-3.927810e-11
-8.868160e-11
1.236930e-10
-4.791930e-10
-3.306410e-10
-1.649680e-10
-6.215670e-11
0.000000e+00
-8.868160e-11
-2.749470e-10
-9.269640e-10
-3.306410e-10
0.000000e+00
-7.267050e-12
-3.927810e-11
-8.868160e-11
-8.641190e-11
-2.620350e-11
-3.306410e-10
-1.649680e-10
-7.267050e-12
0.000000e+00
-8.868160e-11
-2.749470e-10
-2.620350e-11
7.855630e-11
0.000000e+00
-7.267050e-12
-7.855630e-11
-9.302850e-11
-8.641190e-11
-2.620350e-11
0.000000e+00
-3.083420e-11
-7.267050e-12
0.000000e+00
-9.302850e-11
-1.099790e-10
-2.620350e-11
7.855630e-11
-3.083420e-11
-7.070060e-11
-7.855630e-11
-9.302850e-11
0.000000e+00
-1.541150e-11
0.000000e+00
-3.083420e-11
0.000000e+00
6.406030e-12
-9.302850e-11
-1.099790e-10
-1.541150e-11
0.000000e+00
-3.083420e-11
-7.070060e-11
6.406030e-12
0.000000e+00
0.000000e+00
-1.541150e-11
0.000000e+00
1.037360e-11
0.000000e+00
6.406030e-12
0.000000e+00
7.297210e-12
-1.541150e-11
0.000000e+00
1.037360e-11
0.000000e+00
6.406030e-12
0.000000e+00
7.297210e-12
0.000000e+00
0.000000e+00
1.037360e-11
0.000000e+00
-7.169280e-12
0.000000e+00
7.297210e-12
0.000000e+00
-8.886110e-12
1.037360e-11
0.000000e+00
-7.169280e-12
0.000000e+00
7.297210e-12
0.000000e+00
-8.886110e-12
0.000000e+00
0.000000e+00
-7.169280e-12
0.000000e+00
-6.388840e-12
0.000000e+00
-8.886110e-12
0.000000e+00
-3.412560e-12
-7.169280e-12
0.000000e+00
-6.388840e-12
0.000000e+00
-8.886110e-12
0.000000e+00
-3.412560e-12
0.000000e+00
0.000000e+00
-6.388840e-12
0.000000e+00
1.179190e-12
0.000000e+00
-3.412560e-12
0.000000e+00
1.795960e-12
-6.388840e-12
0.000000e+00
1.179190e-12
0.000000e+00
-3.412560e-12
0.000000e+00
1.795960e-12
0.000000e+00
0.000000e+00
1.179190e-12
0.000000e+00
3.884400e-13
0.000000e+00
1.795960e-12
0.000000e+00
-1.703140e-12
1.179190e-12
0.000000e+00
3.884400e-13
0.000000e+00
1.795960e-12
0.000000e+00
-1.703140e-12
0.000000e+00
0.000000e+00
3.884400e-13
0.000000e+00
-6.007380e-13
0.000000e+00
-1.703140e-12
0.000000e+00
-1.167550e-12
3.884400e-13
0.000000e+00
-6.007380e-13
0.000000e+00
-1.703140e-12
0.000000e+00
-1.167550e-12
0.000000e+00
0.000000e+00
-6.007380e-13
0.000000e+00
-1.703290e-12
0.000000e+00
-1.167550e-12
0.000000e+00
-1.793910e-12
-6.007380e-13
0.000000e+00
-1.703290e-12
0.000000e+00
-1.167550e-12
0.000000e+00
-1.793910e-12
0.000000e+00
0.000000e+00
-1.703290e-12
0.000000e+00
-3.217300e-12
0.000000e+00
-1.793910e-12
-2.356690e-11
-1.358230e-11
-1.703290e-12
0.000000e+00
-3.217300e-12
0.000000e+00
-1.793910e-12
0.000000e+00
-1.358230e-11
0.000000e+00
0.000000e+00
0.000000e+00
6.834400e-10
1.184520e-10
0.000000e+00
0.000000e+00
-1.154780e-09
-2.225680e-10
0.000000e+00
0.000000e+00
1.184520e-10
-8.169850e-10
0.000000e+00
0.000000e+00
-2.225680e-10
-2.592360e-10
6.834400e-10
1.184520e-10
2.356690e-11
3.097220e-10
-1.154780e-09
-2.225680e-10
3.849260e-10
-3.670590e-10
1.184520e-10
-8.169850e-10
3.097220e-10
5.263270e-10
-2.225680e-10
-2.592360e-10
-3.670590e-10
-6.284500e-10
2.356690e-11
3.097220e-10
6.284500e-11
5.005430e-11
3.849260e-10
-3.670590e-10
-2.592360e-10
2.299720e-10
3.097220e-10
5.263270e-10
5.005430e-11
3.927810e-11
-3.670590e-10
-6.284500e-10
2.299720e-10
7.305730e-10
6.284500e-11
5.005430e-11
-2.199580e-10
-2.650130e-10
-2.592360e-10
2.299720e-10
7.384290e-10
3.268740e-10
5.005430e-11
3.927810e-11
-2.650130e-10
-5.184710e-10
2.299720e-10
7.305730e-10
3.268740e-10
2.670910e-10
-2.199580e-10
-2.650130e-10
8.326970e-10
1.440370e-10
7.384290e-10
3.268740e-10
-3.142250e-10
-6.981240e-10
-2.650130e-10
-5.184710e-10
1.440370e-10
0.000000e+00
3.268740e-10
2.670910e-10
-6.981240e-10
1.021230e-10
8.326970e-10
1.440370e-10
-9.033970e-10
-1.398320e-10
-3.142250e-10
-6.981240e-10
-3.849260e-10
-2.005640e-10
1.440370e-10
0.000000e+00
-1.398320e-10
9.898090e-10
-6.981240e-10
1.021230e-10
-2.005640e-10
3.456480e-10
-9.033970e-10
-1.398320e-10
9.426750e-11
-2.525450e-10
-3.849260e-10
-2.005640e-10
1.178340e-10
1.957500e-10
-1.398320e-10
9.898090e-10
-2.525450e-10
-2.670910e-10
-2.005640e-10
3.456480e-10
1.957500e-10
-2.513800e-10
9.426750e-11
-2.525450e-10
3.927810e-11
1.828620e-10
1.178340e-10
1.957500e-10
-1.414010e-10
1.863220e-10
-2.525450e-10
-2.670910e-10
1.828620e-10
1.178340e-10
1.957500e-10
-2.513800e-10
1.863220e-10
4.713380e-10
3.927810e-11
1.828620e-10
2.906580e-10
1.447370e-11
-1.414010e-10
1.863220e-10
-2.513800e-10
-8.106590e-11
1.828620e-10
1.178340e-10
1.447370e-11
-3.456480e-10
1.863220e-10
4.713380e-10
-8.106590e-11
2.592360e-10
2.906580e-10
1.447370e-11
-8.484080e-10
-4.578720e-10
-2.513800e-10
-8.106590e-11
6.127390e-10
-1.147170e-10
1.447370e-11
-3.456480e-10
-4.578720e-10
-4.006370e-10
-8.106590e-11
2.592360e-10
-1.147170e-10
-4.949050e-10
-8.484080e-10
-4.578720e-10
-4.477710e-10
9.237110e-11
6.127390e-10
-1.147170e-10
-4.006370e-10
-7.035190e-11
-4.578720e-10
-4.006370e-10
9.237110e-11
2.749470e-10
-1.147170e-10
-4.949050e-10
-7.035190e-11
1.335460e-10
-4.477710e-10
9.237110e-11
1.256900e-10
-1.031630e-10
-4.006370e-10
-7.035190e-11
4.477710e-10
-1.449060e-10
9.237110e-11
2.749470e-10
-1.031630e-10
-3.692140e-10
-7.035190e-11
1.335460e-10
-1.449060e-10
-3.927810e-11
1.256900e-10
-1.031630e-10
-3.377920e-10
5.414120e-11
4.477710e-10
-1.449060e-10
5.498940e-10
2.688330e-10
-1.031630e-10
-3.692140e-10
5.414120e-11
4.713380e-10
-1.449060e-10
-3.927810e-11
2.688330e-10
-2.670910e-10
-3.377920e-10
5.414120e-11
7.070060e-11
-1.224860e-10
5.498940e-10
2.688330e-10
1.256900e-10
2.211290e-10
5.414120e-11
4.713380e-10
-1.224860e-10
1.571130e-11
2.688330e-10
-2.670910e-10
2.211290e-10
3.220810e-10
7.070060e-11
-1.224860e-10
-1.571130e-11
2.159410e-11
1.256900e-10
2.211290e-10
2.042460e-10
-4.699370e-10
-1.224860e-10
1.571130e-11
2.159410e-11
3.692140e-10
2.211290e-10
3.220810e-10
-4.699370e-10
-2.985140e-10
-1.571130e-11
2.159410e-11
-3.849260e-10
-8.021180e-11
2.042460e-10
-4.699370e-10
-2.121020e-10
-6.043630e-11
2.159410e-11
3.692140e-10
-8.021180e-11
4.556260e-10
-4.699370e-10
-2.985140e-10
-6.043630e-11
6.991510e-10
-3.849260e-10
-8.021180e-11
3.142250e-10
1.758820e-10
-2.121020e-10
-6.043630e-11
-6.048830e-10
8.324270e-11
-8.021180e-11
4.556260e-10
1.758820e-10
0.000000e+00
-6.043630e-11
6.991510e-10
8.324270e-11
-1.728240e-10
3.142250e-10
1.758820e-10
0.000000e+00
-6.215670e-11
-6.048830e-10
8.324270e-11
7.619960e-10
2.425510e-10
1.758820e-10
0.000000e+00
-6.215670e-11
0.000000e+00
8.324270e-11
-1.728240e-10
2.425510e-10
3.063690e-10
0.000000e+00
-6.215670e-11
-3.927810e-11
-8.868160e-11
7.619960e-10
2.425510e-10
-6.441610e-10
-9.169670e-11
-6.215670e-11
0.000000e+00
-8.868160e-11
-2.749470e-10
2.425510e-10
3.063690e-10
-9.169670e-11
1.099790e-10
-3.927810e-11
-8.868160e-11
-8.641190e-11
-2.620350e-11
-6.441610e-10
-9.169670e-11
-8.641190e-11
-1.143610e-10
-8.868160e-11
-2.749470e-10
-2.620350e-11
7.855630e-11
-9.169670e-11
1.099790e-10
-1.143610e-10
0.000000e+00
-8.641190e-11
-2.620350e-11
0.000000e+00
-3.083420e-11
-8.641190e-11
-1.143610e-10
0.000000e+00
2.646160e-12
-2.620350e-11
7.855630e-11
-3.083420e-11
-7.070060e-11
-1.143610e-10
0.000000e+00
2.646160e-12
0.000000e+00
0.000000e+00
-3.083420e-11
0.000000e+00
6.406030e-12
0.000000e+00
2.646160e-12
0.000000e+00
2.799910e-11
-3.083420e-11
-7.070060e-11
6.406030e-12
0.000000e+00
2.646160e-12
0.000000e+00
2.799910e-11
0.000000e+00
0.000000e+00
6.406030e-12
0.000000e+00
7.297210e-12
0.000000e+00
2.799910e-11
0.000000e+00
3.274030e-12
6.406030e-12
0.000000e+00
7.297210e-12
0.000000e+00
2.799910e-11
0.000000e+00
3.274030e-12
0.000000e+00
0.000000e+00
7.297210e-12
0.000000e+00
-8.886110e-12
0.000000e+00
3.274030e-12
0.000000e+00
-1.214010e-11
7.297210e-12
0.000000e+00
-8.886110e-12
0.000000e+00
3.274030e-12
0.000000e+00
-1.214010e-11
0.000000e+00
0.000000e+00
-8.886110e-12
0.000000e+00
-3.412560e-12
0.000000e+00
-1.214010e-11
0.000000e+00
3.824470e-13
-8.886110e-12
0.000000e+00
-3.412560e-12
0.000000e+00
-1.214010e-11
0.000000e+00
3.824470e-13
0.000000e+00
0.000000e+00
-3.412560e-12
0.000000e+00
1.795960e-12
0.000000e+00
3.824470e-13
0.000000e+00
3.234190e-12
-3.412560e-12
0.000000e+00
1.795960e-12
0.000000e+00
3.824470e-13
0.000000e+00
3.234190e-12
0.000000e+00
0.000000e+00
1.795960e-12
0.000000e+00
-1.703140e-12
0.000000e+00
3.234190e-12
0.000000e+00
-3.237630e-12
1.795960e-12
0.000000e+00
-1.703140e-12
0.000000e+00
3.234190e-12
0.000000e+00
-3.237630e-12
0.000000e+00
0.000000e+00
-1.703140e-12
0.000000e+00
-1.167550e-12
0.000000e+00
-3.237630e-12
0.000000e+00
-7.617970e-13
-1.703140e-12
0.000000e+00
-1.167550e-12
0.000000e+00
-3.237630e-12
0.000000e+00
-7.617970e-13
0.000000e+00
0.000000e+00
-1.167550e-12
0.000000e+00
-1.793910e-12
0.000000e+00
-7.617970e-13
0.000000e+00
-2.522730e-12
-1.167550e-12
0.000000e+00
-1.793910e-12
0.000000e+00
-7.617970e-13
0.000000e+00
-2.522730e-12
0.000000e+00
0.000000e+00
-1.793910e-12
-2.356690e-11
-1.358230e-11
0.000000e+00
-2.522730e-12
-1.571130e-11
-1.753020e-11
-1.793910e-12
0.000000e+00
-1.358230e-11
0.000000e+00
-2.522730e-12
0.000000e+00
-1.753020e-11
-1.571130e-11
</DataArray>
<DataArray type="Float32" Name="V2" format="ascii">
0.000000e+00
0.000000e+00
1.774530e-04
1.774510e-04
0.000000e+00
0.000000e+00
1.774490e-04
1.774510e-04
0.000000e+00
0.000000e+00
1.774510e-04
1.774500e-04
0.000000e+00
0.000000e+00
1.774510e-04
1.774490e-04
1.774530e-04
1.774510e-04
1.671290e-04
1.671300e-04
1.774490e-04
1.774510e-04
1.671280e-04
1.671290e-04
1.774510e-04
1.774500e-04
1.671300e-04
1.671290e-04
1.774510e-04
1.774490e-04
1.671290e-04
1.671290e-04
1.671290e-04
1.671300e-04
1.890720e-04
1.890710e-04
1.671280e-04
1.671290e-04
1.890710e-04
1.890710e-04
1.671300e-04
1.671290e-04
1.890710e-04
1.890700e-04
1.671290e-04
1.671290e-04
1.890710e-04
1.890700e-04
1.890720e-04
1.890710e-04
7.911130e-04
7.911120e-04
1.890710e-04
1.890710e-04
7.911140e-04
7.911130e-04
1.890710e-04
1.890700e-04
7.911120e-04
7.911150e-04
1.890710e-04
1.890700e-04
7.911130e-04
7.911140e-04
7.911130e-04
7.911120e-04
1.448570e-03
1.448570e-03
7.911140e-04
7.911130e-04
1.448570e-03
1.448570e-03
7.911120e-04
7.911150e-04
1.448570e-03
1.448570e-03
7.911130e-04
7.911140e-04
1.448570e-03
1.448570e-03
1.448570e-03
1.448570e-03
3.079180e-03
3.079180e-03
1.448570e-03
1.448570e-03
3.079190e-03
3.079180e-03
1.448570e-03
1.448570e-03
3.079180e-03
3.079180e-03
1.448570e-03
1.448570e-03
3.079180e-03
3.079180e-03
3.079180e-03
3.079180e-03
6.205340e-03
6.205350e-03
3.079190e-03
3.079180e-03
6.205340e-03
6.205340e-03
3.079180e-03
3.079180e-03
6.205350e-03
6.205340e-03
3.079180e-03
3.079180e-03
6.205340e-03
6.205340e-03
6.205340e-03
6.205350e-03
1.128460e-02
1.128460e-02
6.205340e-03
6.205340e-03
1.128460e-02
1.128460e-02
6.205350e-03
6.205340e-03
1.128460e-02
1.128460e-02
6.205340e-03
6.205340e-03
1.128460e-02
1.128460e-02
1.128460e-02
1.128460e-02
1.974800e-02
1.974800e-02
1.128460e-02
1.128460e-02
1.974800e-02
1.974800e-02
1.128460e-02
1.128460e-02
1.974800e-02
1.974800e-02
1.128460e-02
1.128460e-02
1.974800e-02
1.974800e-02
1.974800e-02
1.974800e-02
3.034290e-02
3.034290e-02
1.974800e-02
1.974800e-02
3.034290e-02
3.034290e-02
1.974800e-02
1.974800e-02
3.034290e-02
3.034290e-02
1.974800e-02
1.974800e-02
3.034290e-02
3.034290e-02
3.034290e-02
3.034290e-02
3.905980e-02
3.905980e-02
3.034290e-02
3.034290e-02
3.905980e-02
3.905980e-02
3.034290e-02
3.034290e-02
3.905980e-02
3.905980e-02
3.034290e-02
3.034290e-02
3.905980e-02
3.905980e-02
3.905980e-02
3.905980e-02
4.044040e-02
4.044040e-02
3.905980e-02
3.905980e-02
4.044040e-02
4.044040e-02
3.905980e-02
3.905980e-02
4.044040e-02
4.044040e-02
3.905980e-02
3.905980e-02
4.044040e-02
4.044040e-02
4.044040e-02
4.044040e-02
2.977940e-02
2.977940e-02
4.044040e-02
4.044040e-02
2.977940e-02
2.977940e-02
4.044040e-02
4.044040e-02
2.977940e-02
2.977940e-02
4.044040e-02
4.044040e-02
2.977940e-02
2.977940e-02
2.977940e-02
2.977940e-02
8.967710e-03
8.967710e-03
2.977940e-02
2.977940e-02
8.967710e-03
8.967710e-03
2.977940e-02
2.977940e-02
8.967710e-03
8.967720e-03
2.977940e-02
2.977940e-02
8.967710e-03
8.967710e-03
8.967710e-03
8.967710e-03
-9.962050e-03
-9.962040e-03
8.967710e-03
8.967710e-03
-9.962040e-03
-9.962040e-03
8.967710e-03
8.967720e-03
-9.962040e-03
-9.962040e-03
8.967710e-03
8.967710e-03
-9.962040e-03
-9.962040e-03
-9.962050e-03
-9.962040e-03
-1.412200e-02
-1.412200e-02
-9.962040e-03
-9.962040e-03
-1.412190e-02
-1.412190e-02
-9.962040e-03
-9.962040e-03
-1.412200e-02
-1.412200e-02
-9.962040e-03
-9.962040e-03
-1.412190e-02
-1.412200e-02
-1.412200e-02
-1.412200e-02
-3.907560e-03
-3.907560e-03
-1.412190e-02
-1.412190e-02
-3.907560e-03
-3.907560e-03
-1.412200e-02
-1.412200e-02
-3.907560e-03
-3.907560e-03
-1.412190e-02
-1.412200e-02
-3.907560e-03
-3.907560e-03
-3.907560e-03
-3.907560e-03
6.941810e-03
6.941810e-03
-3.907560e-03
-3.907560e-03
6.941810e-03
6.941800e-03
-3.907560e-03
-3.907560e-03
6.941810e-03
6.941810e-03
-3.907560e-03
-3.907560e-03
6.941800e-03
6.941800e-03
6.941810e-03
6.941810e-03
4.991290e-03
4.991290e-03
6.941810e-03
6.941800e-03
4.991290e-03
4.991290e-03
6.941810e-03
6.941810e-03
4.991290e-03
4.991290e-03
6.941800e-03
6.941800e-03
4.991290e-03
4.991290e-03
4.991290e-03
4.991290e-03
-3.662950e-03
-3.662950e-03
4.991290e-03
4.991290e-03
-3.662950e-03
-3.662950e-03
4.991290e-03
4.991290e-03
-3.662950e-03
-3.662950e-03
4.991290e-03
4.991290e-03
-3.662950e-03
-3.662950e-03
-3.662950e-03
-3.662950e-03
-2.000720e-03
-2.000710e-03
-3.662950e-03
-3.662950e-03
-2.000710e-03
-2.000710e-03
-3.662950e-03
-3.662950e-03
-2.000710e-03
-2.000710e-03
-3.662950e-03
-3.662950e-03
-2.000710e-03
-2.000710e-03
-2.000720e-03
-2.000710e-03
1.485350e-03
1.485350e-03
-2.000710e-03
-2.000710e-03
1.485350e-03
1.485350e-03
-2.000710e-03
-2.000710e-03
1.485350e-03
1.485350e-03
-2.000710e-03
-2.000710e-03
1.485350e-03
1.485350e-03
1.485350e-03
1.485350e-03
5.280160e-04
5.280160e-04
1.485350e-03
1.485350e-03
5.280160e-04
5.280160e-04
1.485350e-03
1.485350e-03
5.280160e-04
5.280160e-04
1.485350e-03
1.485350e-03
5.280160e-04
5.280160e-04
5.280160e-04
5.280160e-04
-2.338530e-04
-2.338530e-04
5.280160e-04
5.280160e-04
-2.338530e-04
-2.338530e-04
5.280160e-04
5.280160e-04
-2.338530e-04
-2.338530e-04
5.280160e-04
5.280160e-04
-2.338530e-04
-2.338530e-04
-2.338530e-04
-2.338530e-04
1.059520e-04
1.059520e-04
-2.338530e-04
-2.338530e-04
1.059520e-04
1.059520e-04
-2.338530e-04
-2.338530e-04
1.059520e-04
1.059520e-04
-2.338530e-04
-2.338530e-04
1.059520e-04
1.059520e-04
1.059520e-04
1.059520e-04
1.984220e-04
1.984220e-04
1.059520e-04
1.059520e-04
1.984230e-04
1.984220e-04
1.059520e-04
1.059520e-04
1.984220e-04
1.984220e-04
1.059520e-04
1.059520e-04
1.984220e-04
1.984220e-04
1.984220e-04
1.984220e-04
9.545000e-05
9.545000e-05
1.984230e-04
1.984220e-04
9.544990e-05
9.544990e-05
1.984220e-04
1.984220e-04
9.545000e-05
9.545000e-05
1.984220e-04
1.984220e-04
9.544990e-05
9.544990e-05
9.545000e-05
9.545000e-05
1.499750e-05
1.499730e-05
9.544990e-05
9.544990e-05
1.499720e-05
1.499720e-05
9.545000e-05
9.545000e-05
1.499730e-05
1.499730e-05
9.544990e-05
9.544990e-05
1.499720e-05
1.499720e-05
1.499750e-05
1.499730e-05
-4.814100e-05
-4.814120e-05
1.499720e-05
1.499720e-05
-4.814130e-05
-4.814120e-05
1.499730e-05
1.499730e-05
-4.814120e-05
-4.814100e-05
1.499720e-05
1.499720e-05
-4.814120e-05
-4.814130e-05
-4.814100e-05
-4.814120e-05
-9.191270e-05
-9.191260e-05
-4.814130e-05
-4.814120e-05
-9.191250e-05
-9.191250e-05
-4.814120e-05
-4.814100e-05
-9.191260e-05
-9.191250e-05
-4.814120e-05
-4.814130e-05
-9.191250e-05
-9.191220e-05
0.000000e+00
0.000000e+00
1.774490e-04
1.774510e-04
0.000000e+00
0.000000e+00
1.774520e-04
1.774510e-04
0.000000e+00
0.000000e+00
1.774510e-04
1.774490e-04
0.000000e+00
0.000000e+00
1.774510e-04
1.774510e-04
1.774490e-04
1.774510e-04
1.671280e-04
1.671290e-04
1.774520e-04
1.774510e-04
1.671320e-04
1.671300e-04
1.774510e-04
1.774490e-04
1.671290e-04
1.671290e-04
1.774510e-04
1.774510e-04
1.671300e-04
1.671310e-04
1.671280e-04
1.671290e-04
1.890710e-04
1.890710e-04
1.671320e-04
1.671300e-04
1.890730e-04
1.890700e-04
1.671290e-04
1.671290e-04
1.890710e-04
1.890700e-04
1.671300e-04
1.671310e-04
1.890700e-04