MercuryDPM 0.14 name oneDimChain revision 6406 repository https://svn.mercurydpm.org/SourceCode/Branches/OomphlibCouplingExplicit
dataFile    fileType ONE_FILE saveCount 62 counter 102 lastSavedTimeStep 6222
fStatFile   fileType ONE_FILE saveCount 62 counter 102 lastSavedTimeStep 6222
eneFile     fileType ONE_FILE saveCount 62 counter 102 lastSavedTimeStep 6222
restartFile fileType ONE_FILE saveCount 62 counter 102 lastSavedTimeStep 6222
statFile    fileType ONE_FILE saveCount 62 counter 0
interactionFile fileType NO_FILE saveCount 0 counter 0
xMin -500 xMax 500 yMin -5000 yMax 5000 zMin -500 zMax 500
timeStep 0.0160743783395346 time 100.01478202859 ntimeSteps 6222 timeMax 100
systemDimensions 3 particleDimensions 3 gravity 0 0 -0 writeVTK 1 MULTIPLE_FILES NO_FILE 102 102 0 0 random  0 1103515245 12345 1073741824 607 273 784607267
Species 1
LinearViscoelasticReversibleAdhesiveSpecies id 0 density 2500 stiffness 20000000000 dissipation -0 adhesionForceMax 0 adhesionStiffness 20000000000
Walls 0
Boundaries 0
Particles 960
BaseParticle id 0 indSpecies 0 position -300.0000000006 2099.70696027514 -300.000000000072 orientation 1 0 0 0 velocity 2.6933404518999e-10 0.0212458593927686 4.03034518009087e-10 angularVelocity 0 0 0 force 3.57928347792826 187400405.10407 0.0582860618880269 torque 0 0 0 radius 100 invMass 9.54929658551372e-11
BaseParticle id 1 indSpecies 0 position -300.000000000514 2099.70696028863 -99.999999999959 orientation 1 0 0 0 velocity 2.76140761586058e-10 0.0212458392948445 2.43295535300797e-10 angularVelocity 0 0 0 force 6.48601184058436 187400159.905547 0.839776121693131 torque 0 0 0 radius 100 invMass 9.54929658551372e-11
BaseParticle id 2 indSpecies 0 position -300.000000000944 2099.70696027706 100.000000000047 orientation 1 0 0 0 velocity 2.97001233258363e-10 0.0212458566796329 1.63465178106296e-10 angularVelocity 0 0 0 force 7.49200073759362 187400364.534457 2.38063487907759 torque 0 0 0 radius 100 invMass 9.54929658551372e-11
BaseParticle id 3 indSpecies 0 position -300.00000000033 2099.70696028586 300.000000000281 orientation 1 0 0 0 velocity 4.98315766733948e-10 0.021245843165655 2.96275830064271e-11 angularVelocity 0 0 0 force 10.1152465950729 187400208.782064 0.719757153752997 torque 0 0 0 radius 100 invMass 9.54929658551372e-11
BaseParticle id 4 indSpecies 0 position -99.9999999997606 2099.7069602889 -300.000000000114 orientation 1 0 0 0 velocity 2.81736276054934e-10 0.0212458402816426 2.05678625385989e-10 angularVelocity 0 0 0 force -2.64908069840844 187400153.694896 0.00867097925093922 torque 0 0 0 radius 100 invMass 9.54929658551372e-11
BaseParticle id 5 indSpecies 0 position -99.9999999999595 2099.70696027584 -99.9999999999792 orientation 1 0 0 0 velocity 1.78298810891204e-10 0.0212458579700184 3.3370080796085e-11 angularVelocity 0 0 0 force 0.063725501463421 187400399.382771 2.014254265282 torque 0 0 0 radius 100 invMass 9.54929658551372e-11
BaseParticle id 6 indSpecies 0 position -99.9999999997064 2099.70696028655 99.999999999978 orientation 1 0 0 0 velocity 3.77586076623098e-10 0.0212458432458038 1.94733206817384e-10 angularVelocity 0 0 0 force -0.134105351277214 187400198.771902 5.11965946144345 torque 0 0 0 radius 100 invMass 9.54929658551372e-11
BaseParticle id 7 indSpecies 0 position -100.000000000332 2099.70696027756 300.000000000073 orientation 1 0 0 0 velocity -1.46802007454891e-11 0.0212458564999937 -1.57571335915348e-11 angularVelocity 0 0 0 force 4.1593985670602 187400371.858743 4.31717943194952 torque 0 0 0 radius 100 invMass 9.54929658551372e-11
BaseParticle id 8 indSpecies 0 position 100.000000000078 2099.70696027551 -300.000000000132 orientation 1 0 0 0 velocity 2.99603440560987e-10 0.0212458576223521 1.60909327106237e-10 angularVelocity 0 0 0 force 2.73202011806619 187400394.780486 1.30563000188347 torque 0 0 0 radius 100 invMass 9.54929658551372e-11
BaseParticle id 9 indSpecies 0 position 99.9999999998977 2099.70696028881 -99.9999999999452 orientation 1 0 0 0 velocity 1.04480526869897e-10 0.0212458404463186 5.41392170480029e-11 angularVelocity 0 0 0 force 4.41152659609864 187400170.644972 3.81227838348287 torque 0 0 0 radius 100 invMass 9.54929658551372e-11
BaseParticle id 10 indSpecies 0 position 100.000000000095 2099.70696028829 100.000000000037 orientation 1 0 0 0 velocity 3.65510647143703e-10 0.021245840292307 2.44283687673533e-10 angularVelocity 0 0 0 force 7.0092018856317 187400173.904502 5.36590078277878 torque 0 0 0 radius 100 invMass 9.54929658551372e-11
BaseParticle id 11 indSpecies 0 position 99.9999999995319 2099.70696027534 300.000000000063 orientation 1 0 0 0 velocity -2.5732993777957e-11 0.0212458587017786 -1.07220430544335e-11 angularVelocity 0 0 0 force 8.32180551131647 187400416.236308 5.34520393810355 torque 0 0 0 radius 100 invMass 9.54929658551372e-11
BaseParticle id 12 indSpecies 0 position 300.000000000441 2099.70696028899 -300.000000000168 orientation 1 0 0 0 velocity 1.99364121424185e-10 0.0212458402519643 2.92451329887074e-10 angularVelocity 0 0 0 force -1.09920208934383 187400139.490914 1.84531921216208 torque 0 0 0 radius 100 invMass 9.54929658551372e-11
BaseParticle id 13 indSpecies 0 position 300.000000000476 2099.70696027574 -100.000000000042 orientation 1 0 0 0 velocity 1.35865743819078e-10 0.0212458566916331 1.35697212563598e-10 angularVelocity 0 0 0 force -0.774214238819124 187400404.396804 3.26852117977513 torque 0 0 0 radius 100 invMass 9.54929658551372e-11
BaseParticle id 14 indSpecies 0 position 300.000000000255 2099.7069602752 99.99999999993 orientation 1 0 0 0 velocity 6.05133330261367e-11 0.021245859188185 1.11765554945571e-10 angularVelocity 0 0 0 force -0.0100420363389746 187400415.233898 5.41588012834727 torque 0 0 0 radius 100 invMass 9.54929658551372e-11
BaseParticle id 15 indSpecies 0 position 300.000000000387 2099.70696028855 300.000000000156 orientation 1 0 0 0 velocity -6.83133370312546e-11 0.0212458383963815 4.79537468090784e-12 angularVelocity 0 0 0 force -0.117992190504189 187400155.383502 3.48935985861513 torque 0 0 0 radius 100 invMass 9.54929658551372e-11
BaseParticle id 16 indSpecies 0 position -300.000000000067 2299.69866863644 -300.000000000477 orientation 1 0 0 0 velocity 1.43424204714366e-10 0.0410928737131419 -2.59188602615248e-11 angularVelocity 0 0 0 force -1.23059861746875 -92773121.0211521 1.76926242413645 torque 0 0 0 radius 100 invMass 9.54929658551372e-11
BaseParticle id 17 indSpecies 0 position -300.000000000437 2299.69866863766 -100.000000000202 orientation 1 0 0 0 velocity 4.62401851542015e-11 0.0410929034486267 -4.21724736642482e-12 angularVelocity 0 0 0 force 0.91980070324293 -92772715.1193373 0.502690884089255 torque 0 0 0 radius 100 invMass 9.54929658551372e-11
BaseParticle id 18 indSpecies 0 position -300.000000000173 2299.69866863636 99.9999999997754 orientation 1 0 0 0 velocity 1.17910252865539e-10 0.0410928786363793 -4.12134185859926e-11 angularVelocity 0 0 0 force 0.0128012081421114 -92773046.304605 0.935037189369744 torque 0 0 0 radius 100 invMass 9.54929658551372e-11
BaseParticle id 19 indSpecies 0 position -300.000000000177 2299.69866863745 300.000000000159 orientation 1 0 0 0 velocity 1.88967868171014e-12 0.041092899062076 1.9429629241946e-11 angularVelocity 0 0 0 force -0.0583432014324305 -92772746.0261298 -1.23510335419452 torque 0 0 0 radius 100 invMass 9.54929658551372e-11
BaseParticle id 20 indSpecies 0 position -100.000000000175 2299.69866863768 -300.000000000389 orientation 1 0 0 0 velocity 6.22469830370803e-11 0.0410929017681334 -1.08656535474904e-10 angularVelocity 0 0 0 force 1.61616370086974 -92772772.6433226 0.983908442182236 torque 0 0 0 radius 100 invMass 9.54929658551372e-11
BaseParticle id 21 indSpecies 0 position -99.999999999808 2299.69866863666 -100.000000000223 orientation 1 0 0 0 velocity 5.96829969838288e-11 0.0410928775457054 -1.10141691527128e-10 angularVelocity 0 0 0 force -1.96809912124468 -92773011.6644875 1.7521986145382 torque 0 0 0 radius 100 invMass 9.54929658551372e-11
BaseParticle id 22 indSpecies 0 position -99.9999999999715 2299.69866863773 99.9999999998052 orientation 1 0 0 0 velocity -3.19395819477785e-11 0.0410928985127736 -2.65763148483978e-11 angularVelocity 0 0 0 force -1.1807605642732 -92772770.8648017 1.07763865876294 torque 0 0 0 radius 100 invMass 9.54929658551372e-11
BaseParticle id 23 indSpecies 0 position -99.9999999999664 2299.69866863662 299.999999999995 orientation 1 0 0 0 velocity 8.45990002894902e-11 0.0410928785785064 -8.81733311407265e-11 angularVelocity 0 0 0 force -1.85385398496644 -92773028.6553964 0.360795322460456 torque 0 0 0 radius 100 invMass 9.54929658551372e-11
BaseParticle id 24 indSpecies 0 position 99.9999999998074 2299.69866863613 -300.000000000453 orientation 1 0 0 0 velocity 1.23701853817635e-10 0.0410928780724892 -1.21065516854858e-10 angularVelocity 0 0 0 force -0.772088641532432 -92772986.7003622 0.524817065986218 torque 0 0 0 radius 100 invMass 9.54929658551372e-11
BaseParticle id 25 indSpecies 0 position 100.000000000122 2299.69866863827 -100.000000000233 orientation 1 0 0 0 velocity 8.09735043782829e-11 0.0410929018689407 -3.50214036635406e-11 angularVelocity 0 0 0 force 0.243617315527667 -92772762.6276546 1.31703164618314 torque 0 0 0 radius 100 invMass 9.54929658551372e-11
BaseParticle id 26 indSpecies 0 position 100.00000000004 2299.6986686379 99.9999999997774 orientation 1 0 0 0 velocity 9.95744611692307e-11 0.0410929031357648 -5.94141107870466e-11 angularVelocity 0 0 0 force -1.427181193668 -92772715.6210813 1.14835224584109 torque 0 0 0 radius 100 invMass 9.54929658551372e-11
BaseParticle id 27 indSpecies 0 position 100.000000000013 2299.69866863647 299.999999999879 orientation 1 0 0 0 velocity -1.29897135555725e-11 0.0410928754585204 -5.94848865478646e-11 angularVelocity 0 0 0 force -0.333831953633637 -92773053.3104052 0.744795087794845 torque 0 0 0 radius 100 invMass 9.54929658551372e-11
BaseParticle id 28 indSpecies 0 position 300.000000000336 2299.69866863773 -300.000000000243 orientation 1 0 0 0 velocity 1.08128269812846e-10 0.0410928994849825 1.073259024042e-12 angularVelocity 0 0 0 force -1.69487541313753 -92772898.8801396 -0.126880918873934 torque 0 0 0 radius 100 invMass 9.54929658551372e-11
BaseParticle id 29 indSpecies 0 position 300.000000000212 2299.69866863632 -100.000000000087 orientation 1 0 0 0 velocity -9.11680338143087e-12 0.0410928789226427 -3.42930628075702e-11 angularVelocity 0 0 0 force -2.03231336785649 -92772973.3122867 0.0960701070303193 torque 0 0 0 radius 100 invMass 9.54929658551372e-11
BaseParticle id 30 indSpecies 0 position 300.000000000294 2299.69866863642 99.9999999999051 orientation 1 0 0 0 velocity 1.00787569633495e-10 0.0410928742342283 1.53486548748655e-11 angularVelocity 0 0 0 force -2.46750285561511 -92773120.4758536 0.437856668506899 torque 0 0 0 radius 100 invMass 9.54929658551372e-11
BaseParticle id 31 indSpecies 0 position 300.000000000117 2299.69866863812 300.000000000246 orientation 1 0 0 0 velocity -1.6201591979693e-11 0.0410929036176002 -1.5447155879677e-10 angularVelocity 0 0 0 force -2.79834814755534 -92772730.6968406 -0.900697863056007 torque 0 0 0 radius 100 invMass 9.54929658551372e-11
BaseParticle id 32 indSpecies 0 position -300.000000000114 2499.69065741399 -300.000000000384 orientation 1 0 0 0 velocity 2.05620836825575e-10 0.0211375432676414 -9.30113297166894e-11 angularVelocity 0 0 0 force -0.393415982772333 -42556225.5309948 3.0216865235572 torque 0 0 0 radius 100 invMass 9.54929658551372e-11
BaseParticle id 33 indSpecies 0 position -300.000000000242 2499.69065742458 -100.00000000015 orientation 1 0 0 0 velocity -3.26047777344564e-11 0.021137546628375 -5.62817755717692e-11 angularVelocity 0 0 0 force -0.0528699605783545 -42556397.0529673 0.587502542832772 torque 0 0 0 radius 100 invMass 9.54929658551372e-11
BaseParticle id 34 indSpecies 0 position -300.000000000231 2499.69065741502 99.9999999997971 orientation 1 0 0 0 velocity 1.1018959070033e-11 0.0211375428356701 -1.2773397839331e-10 angularVelocity 0 0 0 force 1.11930204982297 -42556229.9524999 1.9427438431434 torque 0 0 0 radius 100 invMass 9.54929658551372e-11
BaseParticle id 35 indSpecies 0 position -300.000000000206 2499.69065742427 300.000000000206 orientation 1 0 0 0 velocity -1.33140069848287e-10 0.0211375483316972 -2.16352652164931e-11 angularVelocity 0 0 0 force 0.49934526528844 -42556374.2635208 -0.113526900328374 torque 0 0 0 radius 100 invMass 9.54929658551372e-11
BaseParticle id 36 indSpecies 0 position -100.000000000146 2499.69065742115 -300.000000000415 orientation 1 0 0 0 velocity 1.15807943857968e-10 0.0211375402302598 -1.70427061773042e-10 angularVelocity 0 0 0 force 0.895962527714607 -42556290.1718168 2.02231854871237 torque 0 0 0 radius 100 invMass 9.54929658551372e-11
BaseParticle id 37 indSpecies 0 position -99.9999999999735 2499.69065741869 -100.000000000138 orientation 1 0 0 0 velocity 1.0348341971526e-10 0.0211375513597955 -7.71009895826625e-11 angularVelocity 0 0 0 force -0.397875695787586 -42556344.4188514 1.02951655262827 torque 0 0 0 radius 100 invMass 9.54929658551372e-11
BaseParticle id 38 indSpecies 0 position -100.00000000005 2499.69065742296 99.999999999836 orientation 1 0 0 0 velocity 7.90973544883133e-11 0.0211375466087401 -1.0277310396053e-10 angularVelocity 0 0 0 force -0.134823920232225 -42556349.7071428 1.71854490231074 torque 0 0 0 radius 100 invMass 9.54929658551372e-11
BaseParticle id 39 indSpecies 0 position -100.000000000021 2499.6906574161 299.99999999995 orientation 1 0 0 0 velocity 3.10191940885775e-11 0.0211375443287256 -1.04812968540961e-10 angularVelocity 0 0 0 force -0.85029599846536 -42556261.6467158 0.646054904693765 torque 0 0 0 radius 100 invMass 9.54929658551372e-11
BaseParticle id 40 indSpecies 0 position 99.9999999998522 2499.69065741931 -300.0000000004 orientation 1 0 0 0 velocity 8.24405464823066e-11 0.0211375561264904 -2.07820506248408e-10 angularVelocity 0 0 0 force 0.0344971506352733 -42556382.1349304 1.86221244491371 torque 0 0 0 radius 100 invMass 9.54929658551372e-11
BaseParticle id 41 indSpecies 0 position 100.000000000069 2499.69065742317 -100.000000000117 orientation 1 0 0 0 velocity 8.09505718009397e-11 0.0211375416355204 -1.02909167294635e-10 angularVelocity 0 0 0 force -0.925866174663763 -42556351.0566973 0.894419241875953 torque 0 0 0 radius 100 invMass 9.54929658551372e-11
BaseParticle id 42 indSpecies 0 position 99.9999999999611 2499.69065742482 99.9999999998571 orientation 1 0 0 0 velocity 6.59072940873869e-12 0.021137546937178 -1.59161479945274e-10 angularVelocity 0 0 0 force -0.284494775954195 -42556390.0771381 1.99967825006649 torque 0 0 0 radius 100 invMass 9.54929658551372e-11
BaseParticle id 43 indSpecies 0 position 99.999999999997 2499.69065741678 299.999999999963 orientation 1 0 0 0 velocity -2.26577854824204e-11 0.0211375481599166 -1.4314260830098e-10 angularVelocity 0 0 0 force -1.81471330856873 -42556305.689964 0.685584964314723 torque 0 0 0 radius 100 invMass 9.54929658551372e-11
BaseParticle id 44 indSpecies 0 position 300.000000000117 2499.69065741557 -300.000000000166 orientation 1 0 0 0 velocity 1.74761632945167e-10 0.0211375266389418 -4.15022624351174e-11 angularVelocity 0 0 0 force -0.972422855100374 -42556108.4334165 0.709457214260082 torque 0 0 0 radius 100 invMass 9.54929658551372e-11
BaseParticle id 45 indSpecies 0 position 300.000000000175 2499.69065742061 -100.000000000081 orientation 1 0 0 0 velocity 6.67842549627099e-11 0.0211375575586558 -3.15656291398557e-11 angularVelocity 0 0 0 force -1.47181071239564 -42556424.8321999 0.0216072741878687 torque 0 0 0 radius 100 invMass 9.54929658551372e-11
BaseParticle id 46 indSpecies 0 position 300.000000000143 2499.69065741332 99.9999999999419 orientation 1 0 0 0 velocity 1.04121381148942e-10 0.0211375415675095 -1.37911203918685e-10 angularVelocity 0 0 0 force -1.69264513792912 -42556205.6863132 0.103956292529946 torque 0 0 0 radius 100 invMass 9.54929658551372e-11
BaseParticle id 47 indSpecies 0 position 300.000000000169 2499.69065742434 300.000000000188 orientation 1 0 0 0 velocity 6.14669928488737e-11 0.0211375458301422 -1.4971579886562e-10 angularVelocity 0 0 0 force -3.16171523384446 -42556353.0605557 -1.10778395169414 torque 0 0 0 radius 100 invMass 9.54929658551372e-11
BaseParticle id 48 indSpecies 0 position -300.000000000427 2699.6683744603 -299.999999999951 orientation 1 0 0 0 velocity 2.13614614786824e-10 0.00827773555808616 2.30342559528446e-10 angularVelocity 0 0 0 force 0.117265699620671 377980185.891752 0.0255675217156996 torque 0 0 0 radius 100 invMass 9.54929658551372e-11
BaseParticle id 49 indSpecies 0 position -300.000000000111 2699.66837447077 -99.9999999998874 orientation 1 0 0 0 velocity 1.6238830945269e-10 0.00827772425306903 1.62476327590066e-10 angularVelocity 0 0 0 force 0.131483157676052 377980351.350795 -0.896022452749349 torque 0 0 0 radius 100 invMass 9.54929658551372e-11
BaseParticle id 50 indSpecies 0 position -300.00000000022 2699.66837446165 100.000000000074 orientation 1 0 0 0 velocity 1.10391156949835e-10 0.00827773271273353 2.22059620675928e-10 angularVelocity 0 0 0 force 1.0196669389477 377980189.581803 -0.0781141676112314 torque 0 0 0 radius 100 invMass 9.54929658551372e-11
BaseParticle id 51 indSpecies 0 position -300.000000000013 2699.66837447104 300.000000000018 orientation 1 0 0 0 velocity 5.44120023869537e-12 0.00827772474043207 6.6497605116175e-11 angularVelocity 0 0 0 force 0.335379954613272 377980320.872376 2.23344682161719 torque 0 0 0 radius 100 invMass 9.54929658551372e-11
BaseParticle id 52 indSpecies 0 position -99.9999999999533 2699.66837446854 -299.999999999977 orientation 1 0 0 0 velocity 6.42682768132347e-11 0.00827773098344617 1.41492230800988e-10 angularVelocity 0 0 0 force -0.528873325412505 377980231.403199 0.118639812820174 torque 0 0 0 radius 100 invMass 9.54929658551372e-11
BaseParticle id 53 indSpecies 0 position -99.9999999999845 2699.66837446338 -99.9999999999633 orientation 1 0 0 0 velocity -2.1774767257606e-11 0.00827772508659398 1.12795292446904e-10 angularVelocity 0 0 0 force -0.227847091488326 377980330.20685 0.424035691485454 torque 0 0 0 radius 100 invMass 9.54929658551372e-11
BaseParticle id 54 indSpecies 0 position -99.9999999999951 2699.66837446948 100.000000000034 orientation 1 0 0 0 velocity 9.29246922112558e-11 0.0082777257994288 1.64271570747109e-10 angularVelocity 0 0 0 force 0.502599225806477 377980293.126281 0.527656453310651 torque 0 0 0 radius 100 invMass 9.54929658551372e-11
BaseParticle id 55 indSpecies 0 position -100.000000000002 2699.66837446241 300.000000000002 orientation 1 0 0 0 velocity -1.25021004953129e-11 0.00827773150382397 8.62697474384031e-11 angularVelocity 0 0 0 force -0.55511346068857 377980226.148886 2.85759749088191 torque 0 0 0 radius 100 invMass 9.54929658551372e-11
BaseParticle id 56 indSpecies 0 position 99.999999999986 2699.66837446331 -300.000000000023 orientation 1 0 0 0 velocity 1.71278210640934e-10 0.00827772494957933 1.06941888229131e-10 angularVelocity 0 0 0 force 1.55135367097385 377980393.105762 0.646696181462425 torque 0 0 0 radius 100 invMass 9.54929658551372e-11
BaseParticle id 57 indSpecies 0 position 99.99999999998 2699.66837446977 -99.9999999999555 orientation 1 0 0 0 velocity 7.80191005108706e-11 0.00827772592478545 1.22517210029989e-10 angularVelocity 0 0 0 force 0.823319414955655 377980283.755482 0.627484870469329 torque 0 0 0 radius 100 invMass 9.54929658551372e-11
BaseParticle id 58 indSpecies 0 position 100.000000000015 2699.6683744711 100.000000000034 orientation 1 0 0 0 velocity -1.43003307685443e-11 0.00827772414494005 1.6556684938415e-10 angularVelocity 0 0 0 force 0.89328153588548 377980337.754267 0.66506271556258 torque 0 0 0 radius 100 invMass 9.54929658551372e-11
BaseParticle id 59 indSpecies 0 position 99.9999999999725 2699.66837446224 300.000000000006 orientation 1 0 0 0 velocity 1.7142978755313e-11 0.00827772899738786 1.30069665875891e-10 angularVelocity 0 0 0 force 0.205441267248433 377980276.241199 2.38282821974836 torque 0 0 0 radius 100 invMass 9.54929658551372e-11
BaseParticle id 60 indSpecies 0 position 300.000000000349 2699.66837446571 -300.000000000125 orientation 1 0 0 0 velocity -1.97819790782308e-11 0.00827774243401324 5.04879231550249e-11 angularVelocity 0 0 0 force -0.613152893882267 377980020.390557 -0.336446200728296 torque 0 0 0 radius 100 invMass 9.54929658551372e-11
BaseParticle id 61 indSpecies 0 position 300.000000000164 2699.66837446401 -99.9999999999624 orientation 1 0 0 0 velocity -7.95758426965983e-11 0.00827772312095507 1.74920035505885e-10 angularVelocity 0 0 0 force -0.491250189840783 377980432.437018 -0.312273322784631 torque 0 0 0 radius 100 invMass 9.54929658551372e-11
BaseParticle id 62 indSpecies 0 position 300.000000000161 2699.66837445971 100.000000000033 orientation 1 0 0 0 velocity -2.94088824200976e-11 0.00827773540093849 1.86165106991346e-10 angularVelocity 0 0 0 force -0.445306042903798 377980154.187977 -0.594571942724765 torque 0 0 0 radius 100 invMass 9.54929658551372e-11
BaseParticle id 63 indSpecies 0 position 300.000000000062 2699.66837447142 300.000000000001 orientation 1 0 0 0 velocity 7.04494683686987e-11 0.0082777263978117 2.83784373958481e-10 angularVelocity 0 0 0 force -1.29766345205846 377980300.037429 1.31688445225768 torque 0 0 0 radius 100 invMass 9.54929658551372e-11
BaseParticle id 64 indSpecies 0 position -300.00000000037 2899.66662767436 -300.000000000016 orientation 1 0 0 0 velocity 2.3095445551843e-10 0.000140637580516828 2.66677420517885e-11 angularVelocity 0 0 0 force 0.207147153712588 226077273.069197 0.29301150939046 torque 0 0 0 radius 100 invMass 9.54929658551372e-11
BaseParticle id 65 indSpecies 0 position -300.000000000136 2899.66662769197 -99.9999999999829 orientation 1 0 0 0 velocity 1.89905608382468e-10 0.000140643413168534 8.04764493870863e-11 angularVelocity 0 0 0 force 0.126510940381189 226077178.472624 0.479916870288695 torque 0 0 0 radius 100 invMass 9.54929658551372e-11
BaseParticle id 66 indSpecies 0 position -300.000000000224 2899.66662767665 100.000000000042 orientation 1 0 0 0 velocity 1.10805715366718e-10 0.000140638835252571 -1.13980981785805e-11 angularVelocity 0 0 0 force 0.403192802819427 226077246.951745 -0.908170715581655 torque 0 0 0 radius 100 invMass 9.54929658551372e-11
BaseParticle id 67 indSpecies 0 position -300.000000000024 2899.66662769171 300.000000000004 orientation 1 0 0 0 velocity 8.09541289503824e-12 0.000140642168371972 7.20928878935674e-12 angularVelocity 0 0 0 force -0.283431075416251 226077164.004693 1.40747348748487 torque 0 0 0 radius 100 invMass 9.54929658551372e-11
BaseParticle id 68 indSpecies 0 position -100.000000000113 2899.66662768569 -300.000000000117 orientation 1 0 0 0 velocity 1.85586742012222e-10 0.000140640752977525 -5.7103523210464e-11 angularVelocity 0 0 0 force 0.0950303046681955 226077221.161979 0.505473741821789 torque 0 0 0 radius 100 invMass 9.54929658551372e-11
BaseParticle id 69 indSpecies 0 position -100.000000000042 2899.66662768277 -100.00000000002 orientation 1 0 0 0 velocity 9.78470244720903e-11 0.000140640252576253 4.28822949094401e-11 angularVelocity 0 0 0 force 0.274693823614696 226077195.575094 0.882740518916205 torque 0 0 0 radius 100 invMass 9.54929658551372e-11
BaseParticle id 70 indSpecies 0 position -100.000000000076 2899.66662768904 99.9999999999802 orientation 1 0 0 0 velocity 1.19292600862257e-10 0.000140641112144027 -1.50060016140764e-11 angularVelocity 0 0 0 force 0.385372567841742 226077173.825371 -0.0508018410826807 torque 0 0 0 radius 100 invMass 9.54929658551372e-11
BaseParticle id 71 indSpecies 0 position -100.000000000023 2899.66662767849 299.999999999961 orientation 1 0 0 0 velocity 7.88851797773033e-11 0.000140640382963827 3.3306245967199e-11 angularVelocity 0 0 0 force -0.38871330674313 226077241.857112 1.68160494074798 torque 0 0 0 radius 100 invMass 9.54929658551372e-11
BaseParticle id 72 indSpecies 0 position 99.9999999998684 2899.66662768504 -300.000000000104 orientation 1 0 0 0 velocity 1.12839917067376e-10 0.00014063892985685 -7.80817771132089e-11 angularVelocity 0 0 0 force 0.680157557821962 226077149.651542 0.762684712180367 torque 0 0 0 radius 100 invMass 9.54929658551372e-11
BaseParticle id 73 indSpecies 0 position 99.9999999999665 2899.66662768816 -100.000000000005 orientation 1 0 0 0 velocity 1.19216571881118e-10 0.000140643282322565 4.51410593026737e-11 angularVelocity 0 0 0 force 0.00302227718085589 226077229.034893 1.05826083541138 torque 0 0 0 radius 100 invMass 9.54929658551372e-11
BaseParticle id 74 indSpecies 0 position 99.999999999925 2899.66662769222 100.000000000002 orientation 1 0 0 0 velocity 7.99986141279132e-11 0.000140642061939584 -1.90079900955759e-11 angularVelocity 0 0 0 force 0.214287696982992 226077159.087517 -0.085894349349012 torque 0 0 0 radius 100 invMass 9.54929658551372e-11
BaseParticle id 75 indSpecies 0 position 99.9999999999701 2899.66662767968 300.000000000015 orientation 1 0 0 0 velocity 8.08102855305557e-11 0.000140640351444315 6.19077068203417e-11 angularVelocity 0 0 0 force -0.409077708955411 226077226.517038 0.774968918426309 torque 0 0 0 radius 100 invMass 9.54929658551372e-11
BaseParticle id 76 indSpecies 0 position 300.000000000287 2899.66662767492 -300.000000000194 orientation 1 0 0 0 velocity 1.01588153668332e-10 0.00014063941642263 -1.11280643713638e-10 angularVelocity 0 0 0 force -0.759700952173055 226077354.39159 0.238610136130483 torque 0 0 0 radius 100 invMass 9.54929658551372e-11
BaseParticle id 77 indSpecies 0 position 300.000000000201 2899.66662768667 -99.9999999999957 orientation 1 0 0 0 velocity 2.96557431321379e-11 0.000140640923547617 5.79233493486684e-11 angularVelocity 0 0 0 force -0.809982313979369 226077150.010574 0.182754377521785 torque 0 0 0 radius 100 invMass 9.54929658551372e-11
BaseParticle id 78 indSpecies 0 position 300.000000000093 2899.66662767279 99.9999999999843 orientation 1 0 0 0 velocity 6.70426968660468e-11 0.000140638058028046 4.09184344191236e-11 angularVelocity 0 0 0 force -0.564976712483079 226077276.249049 -0.280932135752764 torque 0 0 0 radius 100 invMass 9.54929658551372e-11
BaseParticle id 79 indSpecies 0 position 300.000000000017 2899.66662769132 300.000000000035 orientation 1 0 0 0 velocity 1.25965926847221e-10 0.00014064246498278 2.05544216181542e-10 angularVelocity 0 0 0 force -1.0426685846575 226077179.582824 0.19375762970266 torque 0 0 0 radius 100 invMass 9.54929658551372e-11
BaseParticle id 80 indSpecies 0 position -300.000000000116 3099.68688615949 -299.99999999951 orientation 1 0 0 0 velocity -1.59184293368435e-10 -0.0129475908753245 -5.30249080137022e-11 angularVelocity 0 0 0 force -0.297400069187776 -18377264.8677275 -1.72873625850548 torque 0 0 0 radius 100 invMass 9.54929658551372e-11
BaseParticle id 81 indSpecies 0 position -300.000000000045 3099.68688611486 -99.9999999994902 orientation 1 0 0 0 velocity -1.08521630265196e-10 -0.012947639572931 3.77800439001772e-11 angularVelocity 0 0 0 force -0.21758703336845 -18377073.942565 -1.62374772426995 torque 0 0 0 radius 100 invMass 9.54929658551372e-11
BaseParticle id 82 indSpecies 0 position -300.000000000041 3099.6868861463 100.00000000046 orientation 1 0 0 0 velocity -1.74560022138332e-11 -0.0129476049350422 1.88310416044029e-10 angularVelocity 0 0 0 force -1.09517199988347 -18377218.6750579 -0.714309721338285 torque 0 0 0 radius 100 invMass 9.54929658551372e-11
BaseParticle id 83 indSpecies 0 position -300.000000000023 3099.68688612705 300.000000000528 orientation 1 0 0 0 velocity -2.24998611955586e-11 -0.0129476288213928 3.61500883954531e-10 angularVelocity 0 0 0 force 0.0122459706113672 -18377114.8172417 -0.380890676369497 torque 0 0 0 radius 100 invMass 9.54929658551372e-11
BaseParticle id 84 indSpecies 0 position -100.00000000014 3099.68688613083 -299.999999999591 orientation 1 0 0 0 velocity 8.36964696434502e-12 -0.0129476217596583 -6.55773862362842e-11 angularVelocity 0 0 0 force 0.0543056972384259 -18377152.2303437 -1.74724503610371 torque 0 0 0 radius 100 invMass 9.54929658551372e-11
BaseParticle id 85 indSpecies 0 position -100.000000000074 3099.68688613816 -99.9999999995485 orientation 1 0 0 0 velocity 3.4516409482853e-11 -0.0129476174573203 4.49246524659226e-11 angularVelocity 0 0 0 force 0.171906255407875 -18377151.6081806 -1.43157959225784 torque 0 0 0 radius 100 invMass 9.54929658551372e-11
BaseParticle id 86 indSpecies 0 position -100.000000000105 3099.68688613047 100.000000000415 orientation 1 0 0 0 velocity 1.25202779152509e-11 -0.0129476263392942 1.47215938432298e-10 angularVelocity 0 0 0 force 1.56466829997838 -18377127.5833995 -1.01036456491977 torque 0 0 0 radius 100 invMass 9.54929658551372e-11
BaseParticle id 87 indSpecies 0 position -100.000000000013 3099.68688614155 300.000000000474 orientation 1 0 0 0 velocity 1.52242628252813e-11 -0.0129476104152909 3.68572573795455e-10 angularVelocity 0 0 0 force 0.198624332391767 -18377193.8519478 -0.338563719172466 torque 0 0 0 radius 100 invMass 9.54929658551372e-11
BaseParticle id 88 indSpecies 0 position 99.9999999997907 3099.6868861302 -299.999999999558 orientation 1 0 0 0 velocity 4.69336914306949e-11 -0.0129476207900722 -6.11398329030688e-11 angularVelocity 0 0 0 force 2.08247139871014 -18377140.2968414 -1.76957381179962 torque 0 0 0 radius 100 invMass 9.54929658551372e-11
BaseParticle id 89 indSpecies 0 position 99.9999999998627 3099.68688612858 -99.9999999995063 orientation 1 0 0 0 velocity 4.86589079758617e-11 -0.0129476296269811 5.06955372595438e-11 angularVelocity 0 0 0 force 1.71535123511149 -18377111.7774101 -1.70761825275383 torque 0 0 0 radius 100 invMass 9.54929658551372e-11
BaseParticle id 90 indSpecies 0 position 99.9999999998751 3099.68688611864 100.00000000045 orientation 1 0 0 0 velocity -5.92056227457954e-12 -0.0129476363373491 1.51774837760323e-10 angularVelocity 0 0 0 force 1.32241420256853 -18377096.1649443 -0.917420781952131 torque 0 0 0 radius 100 invMass 9.54929658551372e-11