<?xml version="1.0"?>
<!-- time 53.817-->
<VTKFile type="UnstructuredGrid" version="0.1" byte_order="LittleEndian">
<UnstructuredGrid>
<Piece NumberOfPoints="960" NumberOfCells="0">
<Points>
  <DataArray type="Float32" Name="Position" NumberOfComponents="3" format="ascii">
	-300 2099.64 -300
	-300 2099.64 -100
	-300 2099.64 100
	-300 2099.64 300
	-100 2099.64 -300
	-100 2099.64 -100
	-100 2099.64 100
	-100 2099.64 300
	100 2099.64 -300
	100 2099.64 -100
	100 2099.64 100
	100 2099.64 300
	300 2099.64 -300
	300 2099.64 -100
	300 2099.64 100
	300 2099.64 300
	-300 2299.69 -300
	-300 2299.69 -100
	-300 2299.69 100
	-300 2299.69 300
	-100 2299.69 -300
	-100 2299.69 -100
	-100 2299.69 100
	-100 2299.69 300
	100 2299.69 -300
	100 2299.69 -100
	100 2299.69 100
	100 2299.69 300
	300 2299.69 -300
	300 2299.69 -100
	300 2299.69 100
	300 2299.69 300
	-300 2499.69 -300
	-300 2499.69 -100
	-300 2499.69 100
	-300 2499.69 300
	-100 2499.69 -300
	-100 2499.69 -100
	-100 2499.69 100
	-100 2499.69 300
	100 2499.69 -300
	100 2499.69 -100
	100 2499.69 100
	100 2499.69 300
	300 2499.69 -300
	300 2499.69 -100
	300 2499.69 100
	300 2499.69 300
	-300 2699.68 -300
	-300 2699.68 -100
	-300 2699.68 100
	-300 2699.68 300
	-100 2699.68 -300
	-100 2699.68 -100
	-100 2699.68 100
	-100 2699.68 300
	100 2699.68 -300
	100 2699.68 -100
	100 2699.68 100
	100 2699.68 300
	300 2699.68 -300
	300 2699.68 -100
	300 2699.68 100
	300 2699.68 300
	-300 2899.68 -300
	-300 2899.68 -100
	-300 2899.68 100
	-300 2899.68 300
	-100 2899.68 -300
	-100 2899.68 -100
	-100 2899.68 100
	-100 2899.68 300
	100 2899.68 -300
	100 2899.68 -100
	100 2899.68 100
	100 2899.68 300
	300 2899.68 -300
	300 2899.68 -100
	300 2899.68 100
	300 2899.68 300
	-300 3099.68 -300
	-300 3099.68 -100
	-300 3099.68 100
	-300 3099.68 300
	-100 3099.68 -300
	-100 3099.68 -100
	-100 3099.68 100
	-100 3099.68 300
	100 3099.68 -300
	100 3099.68 -100
	100 3099.68 100
	100 3099.68 300
	300 3099.68 -300
	300 3099.68 -100
	300 3099.68 100
	300 3099.68 300
	-300 3299.68 -300
	-300 3299.68 -100
	-300 3299.68 100
	-300 3299.68 300
	-100 3299.68 -300
	-100 3299.68 -100
	-100 3299.68 100
	-100 3299.68 300
	100 3299.68 -300
	100 3299.68 -100
	100 3299.68 100
	100 3299.68 300
	300 3299.68 -300
	300 3299.68 -100
	300 3299.68 100
	300 3299.68 300
	-300 3499.68 -300
	-300 3499.68 -100
	-300 3499.68 100
	-300 3499.68 300
	-100 3499.68 -300
	-100 3499.68 -100
	-100 3499.68 100
	-100 3499.68 300
	100 3499.68 -300
	100 3499.68 -100
	100 3499.68 100
	100 3499.68 300
	300 3499.68 -300
	300 3499.68 -100
	300 3499.68 100
	300 3499.68 300
	-300 3699.68 -300
	-300 3699.68 -100
	-300 3699.68 100
	-300 3699.68 300
	-100 3699.68 -300
	-100 3699.68 -100
	-100 3699.68 100
	-100 3699.68 300
	100 3699.68 -300
	100 3699.68 -100
	100 3699.68 100
	100 3699.68 300
	300 3699.68 -300
	300 3699.68 -100
	300 3699.68 100
	300 3699.68 300
	-300 3899.68 -300
	-300 3899.68 -100
	-300 3899.68 100
	-300 3899.68 300
	-100 3899.68 -300
	-100 3899.68 -100
	-100 3899.68 100
	-100 3899.68 300
	100 3899.68 -300
	100 3899.68 -100
	100 3899.68 100
	100 3899.68 300
	300 3899.68 -300
	300 3899.68 -100
	300 3899.68 100
	300 3899.68 300
	-300 4099.67 -300
	-300 4099.67 -100
	-300 4099.67 100
	-300 4099.67 300
	-100 4099.67 -300
	-100 4099.67 -100
	-100 4099.67 100
	-100 4099.67 300
	100 4099.67 -300
	100 4099.67 -100
	100 4099.67 100
	100 4099.67 300
	300 4099.67 -300
	300 4099.67 -100
	300 4099.67 100
	300 4099.67 300
	-300 4299.68 -300
	-300 4299.68 -100
	-300 4299.68 100
	-300 4299.68 300
	-100 4299.68 -300
	-100 4299.68 -100
	-100 4299.68 100
	-100 4299.68 300
	100 4299.68 -300
	100 4299.68 -100
	100 4299.68 100
	100 4299.68 300
	300 4299.68 -300
	300 4299.68 -100
	300 4299.68 100
	300 4299.68 300
	-300 4499.68 -300
	-300 4499.68 -100
	-300 4499.68 100
	-300 4499.68 300
	-100 4499.68 -300
	-100 4499.68 -100
	-100 4499.68 100
	-100 4499.68 300
	100 4499.68 -300
	100 4499.68 -100
	100 4499.68 100
	100 4499.68 300
	300 4499.68 -300
	300 4499.68 -100
	300 4499.68 100
	300 4499.68 300
	-300 4699.69 -300
	-300 4699.69 -100
	-300 4699.69 100
	-300 4699.69 300
	-100 4699.69 -300
	-100 4699.69 -100
	-100 4699.69 100
	-100 4699.69 300
	100 4699.69 -300
	100 4699.69 -100
	100 4699.69 100
	100 4699.69 300
	300 4699.69 -300
	300 4699.69 -100
	300 4699.69 100
	300 4699.69 300
	-300 4899.69 -300
	-300 4899.69 -100
	-300 4899.69 100
	-300 4899.69 300
	-100 4899.69 -300
	-100 4899.69 -100
	-100 4899.69 100
	-100 4899.69 300
	100 4899.69 -300
	100 4899.69 -100
	100 4899.69 100
	100 4899.69 300
	300 4899.69 -300
	300 4899.69 -100
	300 4899.69 100
	300 4899.69 300
	-300 5099.7 -300
	-300 5099.7 -100
	-300 5099.7 100
	-300 5099.7 300
	-100 5099.7 -300
	-100 5099.7 -100
	-100 5099.7 100
	-100 5099.7 300
	100 5099.7 -300
	100 5099.7 -100
	100 5099.7 100
	100 5099.7 300
	300 5099.7 -300
	300 5099.7 -100
	300 5099.7 100
	300 5099.7 300
	-300 5299.7 -300
	-300 5299.7 -100
	-300 5299.7 100
	-300 5299.7 300
	-100 5299.7 -300
	-100 5299.7 -100
	-100 5299.7 100
	-100 5299.7 300
	100 5299.7 -300
	100 5299.7 -100
	100 5299.7 100
	100 5299.7 300
	300 5299.7 -300
	300 5299.7 -100
	300 5299.7 100
	300 5299.7 300
	-300 5499.7 -300
	-300 5499.7 -100
	-300 5499.7 100
	-300 5499.7 300
	-100 5499.7 -300
	-100 5499.7 -100
	-100 5499.7 100
	-100 5499.7 300
	100 5499.7 -300
	100 5499.7 -100
	100 5499.7 100
	100 5499.7 300
	300 5499.7 -300
	300 5499.7 -100
	300 5499.7 100
	300 5499.7 300
	-300 5699.7 -300
	-300 5699.7 -100
	-300 5699.7 100
	-300 5699.7 300
	-100 5699.7 -300
	-100 5699.7 -100
	-100 5699.7 100
	-100 5699.7 300
	100 5699.7 -300
	100 5699.7 -100
	100 5699.7 100
	100 5699.7 300
	300 5699.7 -300
	300 5699.7 -100
	300 5699.7 100
	300 5699.7 300
	-300 5899.71 -300
	-300 5899.71 -100
	-300 5899.71 100
	-300 5899.71 300
	-100 5899.71 -300
	-100 5899.71 -100
	-100 5899.71 100
	-100 5899.71 300
	100 5899.71 -300
	100 5899.71 -100
	100 5899.71 100
	100 5899.71 300
	300 5899.71 -300
	300 5899.71 -100
	300 5899.71 100
	300 5899.71 300
	-300 6099.73 -300
	-300 6099.73 -100
	-300 6099.73 100
	-300 6099.73 300
	-100 6099.73 -300
	-100 6099.73 -100
	-100 6099.73 100
	-100 6099.73 300
	100 6099.73 -300
	100 6099.73 -100
	100 6099.73 100
	100 6099.73 300
	300 6099.73 -300
	300 6099.73 -100
	300 6099.73 100
	300 6099.73 300
	-300 6299.74 -300
	-300 6299.74 -100
	-300 6299.74 100
	-300 6299.74 300
	-100 6299.74 -300
	-100 6299.74 -100
	-100 6299.74 100
	-100 6299.74 300
	100 6299.74 -300
	100 6299.74 -100
	100 6299.74 100
	100 6299.74 300
	300 6299.74 -300
	300 6299.74 -100
	300 6299.74 100
	300 6299.74 300
	-300 6499.75 -300
	-300 6499.75 -100
	-300 6499.75 100
	-300 6499.75 300
	-100 6499.75 -300
	-100 6499.75 -100
	-100 6499.75 100
	-100 6499.75 300
	100 6499.75 -300
	100 6499.75 -100
	100 6499.75 100
	100 6499.75 300
	300 6499.75 -300
	300 6499.75 -100
	300 6499.75 100
	300 6499.75 300
	-300 6699.77 -300
	-300 6699.77 -100
	-300 6699.77 100
	-300 6699.77 300
	-100 6699.77 -300
	-100 6699.77 -100
	-100 6699.77 100
	-100 6699.77 300
	100 6699.77 -300
	100 6699.77 -100
	100 6699.77 100
	100 6699.77 300
	300 6699.77 -300
	300 6699.77 -100
	300 6699.77 100
	300 6699.77 300
	-300 6899.78 -300
	-300 6899.78 -100
	-300 6899.78 100
	-300 6899.78 300
	-100 6899.78 -300
	-100 6899.78 -100
	-100 6899.78 100
	-100 6899.78 300
	100 6899.78 -300
	100 6899.78 -100
	100 6899.78 100
	100 6899.78 300
	300 6899.78 -300
	300 6899.78 -100
	300 6899.78 100
	300 6899.78 300
	-300 7099.79 -300
	-300 7099.79 -100
	-300 7099.79 100
	-300 7099.79 300
	-100 7099.79 -300
	-100 7099.79 -100
	-100 7099.79 100
	-100 7099.79 300
	100 7099.79 -300
	100 7099.79 -100
	100 7099.79 100
	100 7099.79 300
	300 7099.79 -300
	300 7099.79 -100
	300 7099.79 100
	300 7099.79 300
	-300 7299.79 -300
	-300 7299.79 -100
	-300 7299.79 100
	-300 7299.79 300
	-100 7299.79 -300
	-100 7299.79 -100
	-100 7299.79 100
	-100 7299.79 300
	100 7299.79 -300
	100 7299.79 -100
	100 7299.79 100
	100 7299.79 300
	300 7299.79 -300
	300 7299.79 -100
	300 7299.79 100
	300 7299.79 300
	-300 7499.8 -300
	-300 7499.8 -100
	-300 7499.8 100
	-300 7499.8 300
	-100 7499.8 -300
	-100 7499.8 -100
	-100 7499.8 100
	-100 7499.8 300
	100 7499.8 -300
	100 7499.8 -100
	100 7499.8 100
	100 7499.8 300
	300 7499.8 -300
	300 7499.8 -100
	300 7499.8 100
	300 7499.8 300
	-300 7699.8 -300
	-300 7699.8 -100
	-300 7699.8 100
	-300 7699.8 300
	-100 7699.8 -300
	-100 7699.8 -100
	-100 7699.8 100
	-100 7699.8 300
	100 7699.8 -300
	100 7699.8 -100
	100 7699.8 100
	100 7699.8 300
	300 7699.8 -300
	300 7699.8 -100
	300 7699.8 100
	300 7699.8 300
	-300 7899.8 -300
	-300 7899.8 -100
	-300 7899.8 100
	-300 7899.8 300
	-100 7899.8 -300
	-100 7899.8 -100
	-100 7899.8 100
	-100 7899.8 300
	100 7899.8 -300
	100 7899.8 -100
	100 7899.8 100
	100 7899.8 300
	300 7899.8 -300
	300 7899.8 -100
	300 7899.8 100
	300 7899.8 300
	-300 8099.8 -300
	-300 8099.8 -100
	-300 8099.8 100
	-300 8099.8 300
	-100 8099.8 -300
	-100 8099.8 -100
	-100 8099.8 100
	-100 8099.8 300
	100 8099.8 -300
	100 8099.8 -100
	100 8099.8 100
	100 8099.8 300
	300 8099.8 -300
	300 8099.8 -100
	300 8099.8 100
	300 8099.8 300
	-300 8299.81 -300
	-300 8299.81 -100
	-300 8299.81 100
	-300 8299.81 300
	-100 8299.81 -300
	-100 8299.81 -100
	-100 8299.81 100
	-100 8299.81 300
	100 8299.81 -300
	100 8299.81 -100
	100 8299.81 100
	100 8299.81 300
	300 8299.81 -300
	300 8299.81 -100
	300 8299.81 100
	300 8299.81 300
	-300 8499.81 -300
	-300 8499.81 -100
	-300 8499.81 100
	-300 8499.81 300
	-100 8499.81 -300
	-100 8499.81 -100
	-100 8499.81 100
	-100 8499.81 300
	100 8499.81 -300
	100 8499.81 -100
	100 8499.81 100
	100 8499.81 300
	300 8499.81 -300
	300 8499.81 -100
	300 8499.81 100
	300 8499.81 300
	-300 8699.81 -300
	-300 8699.81 -100
	-300 8699.81 100
	-300 8699.81 300
	-100 8699.81 -300
	-100 8699.81 -100
	-100 8699.81 100
	-100 8699.81 300
	100 8699.81 -300
	100 8699.81 -100
	100 8699.81 100
	100 8699.81 300
	300 8699.81 -300
	300 8699.81 -100
	300 8699.81 100
	300 8699.81 300
	-300 8899.82 -300
	-300 8899.82 -100
	-300 8899.82 100
	-300 8899.82 300
	-100 8899.82 -300
	-100 8899.82 -100
	-100 8899.82 100
	-100 8899.82 300
	100 8899.82 -300
	100 8899.82 -100
	100 8899.82 100
	100 8899.82 300
	300 8899.82 -300
	300 8899.82 -100
	300 8899.82 100
	300 8899.82 300
	-300 9099.82 -300
	-300 9099.82 -100
	-300 9099.82 100
	-300 9099.82 300
	-100 9099.82 -300
	-100 9099.82 -100
	-100 9099.82 100
	-100 9099.82 300
	100 9099.82 -300
	100 9099.82 -100
	100 9099.82 100
	100 9099.82 300
	300 9099.82 -300
	300 9099.82 -100
	300 9099.82 100
	300 9099.82 300
	-300 9299.83 -300
	-300 9299.83 -100
	-300 9299.83 100
	-300 9299.83 300
	-100 9299.83 -300
	-100 9299.83 -100
	-100 9299.83 100
	-100 9299.83 300
	100 9299.83 -300
	100 9299.83 -100
	100 9299.83 100
	100 9299.83 300
	300 9299.83 -300
	300 9299.83 -100
	300 9299.83 100
	300 9299.83 300
	-300 9499.83 -300
	-300 9499.83 -100
	-300 9499.83 100
	-300 9499.83 300
	-100 9499.83 -300
	-100 9499.83 -100
	-100 9499.83 100
	-100 9499.83 300
	100 9499.83 -300
	100 9499.83 -100
	100 9499.83 100
	100 9499.83 300
	300 9499.83 -300
	300 9499.83 -100
	300 9499.83 100
	300 9499.83 300
	-300 9699.84 -300
	-300 9699.84 -100
	-300 9699.84 100
	-300 9699.84 300
	-100 9699.84 -300
	-100 9699.84 -100
	-100 9699.84 100
	-100 9699.84 300
	100 9699.84 -300
	100 9699.84 -100
	100 9699.84 100
	100 9699.84 300
	300 9699.84 -300
	300 9699.84 -100
	300 9699.84 100
	300 9699.84 300
	-300 9899.85 -300
	-300 9899.85 -100
	-300 9899.85 100
	-300 9899.85 300
	-100 9899.85 -300
	-100 9899.85 -100
	-100 9899.85 100
	-100 9899.85 300
	100 9899.85 -300
	100 9899.85 -100
	100 9899.85 100
	100 9899.85 300
	300 9899.85 -300
	300 9899.85 -100
	300 9899.85 100
	300 9899.85 300
	-300 10099.9 -300
	-300 10099.9 -100
	-300 10099.9 100
	-300 10099.9 300
	-100 10099.9 -300
	-100 10099.9 -100
	-100 10099.9 100
	-100 10099.9 300
	100 10099.9 -300
	100 10099.9 -100
	100 10099.9 100
	100 10099.9 300
	300 10099.9 -300
	300 10099.9 -100
	300 10099.9 100
	300 10099.9 300
	-300 10299.9 -300
	-300 10299.9 -100
	-300 10299.9 100
	-300 10299.9 300
	-100 10299.9 -300
	-100 10299.9 -100
	-100 10299.9 100
	-100 10299.9 300
	100 10299.9 -300
	100 10299.9 -100
	100 10299.9 100
	100 10299.9 300
	300 10299.9 -300
	300 10299.9 -100
	300 10299.9 100
	300 10299.9 300
	-300 10499.9 -300
	-300 10499.9 -100
	-300 10499.9 100
	-300 10499.9 300
	-100 10499.9 -300
	-100 10499.9 -100
	-100 10499.9 100
	-100 10499.9 300
	100 10499.9 -300
	100 10499.9 -100
	100 10499.9 100
	100 10499.9 300
	300 10499.9 -300
	300 10499.9 -100
	300 10499.9 100
	300 10499.9 300
	-300 10699.9 -300
	-300 10699.9 -100
	-300 10699.9 100
	-300 10699.9 300
	-100 10699.9 -300
	-100 10699.9 -100
	-100 10699.9 100
	-100 10699.9 300
	100 10699.9 -300
	100 10699.9 -100
	100 10699.9 100
	100 10699.9 300
	300 10699.9 -300
	300 10699.9 -100
	300 10699.9 100
	300 10699.9 300
	-300 10899.9 -300
	-300 10899.9 -100
	-300 10899.9 100
	-300 10899.9 300
	-100 10899.9 -300
	-100 10899.9 -100
	-100 10899.9 100
	-100 10899.9 300
	100 10899.9 -300
	100 10899.9 -100
	100 10899.9 100
	100 10899.9 300
	300 10899.9 -300
	300 10899.9 -100
	300 10899.9 100
	300 10899.9 300
	-300 11099.9 -300
	-300 11099.9 -100
	-300 11099.9 100
	-300 11099.9 300
	-100 11099.9 -300
	-100 11099.9 -100
	-100 11099.9 100
	-100 11099.9 300
	100 11099.9 -300
	100 11099.9 -100
	100 11099.9 100
	100 11099.9 300
	300 11099.9 -300
	300 11099.9 -100
	300 11099.9 100
	300 11099.9 300
	-300 11299.9 -300
	-300 11299.9 -100
	-300 11299.9 100
	-300 11299.9 300
	-100 11299.9 -300
	-100 11299.9 -100
	-100 11299.9 100
	-100 11299.9 300
	100 11299.9 -300
	100 11299.9 -100
	100 11299.9 100
	100 11299.9 300
	300 11299.9 -300
	300 11299.9 -100
	300 11299.9 100
	300 11299.9 300
	-300 11499.9 -300
	-300 11499.9 -100
	-300 11499.9 100
	-300 11499.9 300
	-100 11499.9 -300
	-100 11499.9 -100
	-100 11499.9 100
	-100 11499.9 300
	100 11499.9 -300
	100 11499.9 -100
	100 11499.9 100
	100 11499.9 300
	300 11499.9 -300
	300 11499.9 -100
	300 11499.9 100
	300 11499.9 300
	-300 11699.9 -300
	-300 11699.9 -100
	-300 11699.9 100
	-300 11699.9 300
	-100 11699.9 -300
	-100 11699.9 -100
	-100 11699.9 100
	-100 11699.9 300
	100 11699.9 -300
	100 11699.9 -100
	100 11699.9 100
	100 11699.9 300
	300 11699.9 -300
	300 11699.9 -100
	300 11699.9 100
	300 11699.9 300
	-300 11900 -300
	-300 11900 -100
	-300 11900 100
	-300 11900 300
	-100 11900 -300
	-100 11900 -100
	-100 11900 100
	-100 11900 300
	100 11900 -300
	100 11900 -100
	100 11900 100
	100 11900 300
	300 11900 -300
	300 11900 -100
	300 11900 100
	300 11900 300
	-300 12100 -300
	-300 12100 -100
	-300 12100 100
	-300 12100 300
	-100 12100 -300
	-100 12100 -100
	-100 12100 100
	-100 12100 300
	100 12100 -300
	100 12100 -100
	100 12100 100
	100 12100 300
	300 12100 -300
	300 12100 -100
	300 12100 100
	300 12100 300
	-300 12300 -300
	-300 12300 -100
	-300 12300 100
	-300 12300 300
	-100 12300 -300
	-100 12300 -100
	-100 12300 100
	-100 12300 300
	100 12300 -300
	100 12300 -100
	100 12300 100
	100 12300 300
	300 12300 -300
	300 12300 -100
	300 12300 100
	300 12300 300
	-300 12500 -300
	-300 12500 -100
	-300 12500 100
	-300 12500 300
	-100 12500 -300
	-100 12500 -100
	-100 12500 100
	-100 12500 300
	100 12500 -300
	100 12500 -100
	100 12500 100
	100 12500 300
	300 12500 -300
	300 12500 -100
	300 12500 100
	300 12500 300
	-300 12700.1 -300
	-300 12700.1 -100
	-300 12700.1 100
	-300 12700.1 300
	-100 12700.1 -300
	-100 12700.1 -100
	-100 12700.1 100
	-100 12700.1 300
	100 12700.1 -300
	100 12700.1 -100
	100 12700.1 100
	100 12700.1 300
	300 12700.1 -300
	300 12700.1 -100
	300 12700.1 100
	300 12700.1 300
	-300 12900.1 -300
	-300 12900.1 -100
	-300 12900.1 100
	-300 12900.1 300
	-100 12900.1 -300
	-100 12900.1 -100
	-100 12900.1 100
	-100 12900.1 300
	100 12900.1 -300
	100 12900.1 -100
	100 12900.1 100
	100 12900.1 300
	300 12900.1 -300
	300 12900.1 -100
	300 12900.1 100
	300 12900.1 300
	-300 13100.2 -300
	-300 13100.2 -100
	-300 13100.2 100
	-300 13100.2 300
	-100 13100.2 -300
	-100 13100.2 -100
	-100 13100.2 100
	-100 13100.2 300
	100 13100.2 -300
	100 13100.2 -100
	100 13100.2 100
	100 13100.2 300
	300 13100.2 -300
	300 13100.2 -100
	300 13100.2 100
	300 13100.2 300
	-300 13300.2 -300
	-300 13300.2 -100
	-300 13300.2 100
	-300 13300.2 300
	-100 13300.2 -300
	-100 13300.2 -100
	-100 13300.2 100
	-100 13300.2 300
	100 13300.2 -300
	100 13300.2 -100
	100 13300.2 100
	100 13300.2 300
	300 13300.2 -300
	300 13300.2 -100
	300 13300.2 100
	300 13300.2 300
	-300 13500.4 -300
	-300 13500.4 -100
	-300 13500.4 100
	-300 13500.4 300
	-100 13500.4 -300
	-100 13500.4 -100
	-100 13500.4 100
	-100 13500.4 300
	100 13500.4 -300
	100 13500.4 -100
	100 13500.4 100
	100 13500.4 300
	300 13500.4 -300
	300 13500.4 -100
	300 13500.4 100
	300 13500.4 300
	-300 13700.6 -300
	-300 13700.6 -100
	-300 13700.6 100
	-300 13700.6 300
	-100 13700.6 -300
	-100 13700.6 -100
	-100 13700.6 100
	-100 13700.6 300
	100 13700.6 -300
	100 13700.6 -100
	100 13700.6 100
	100 13700.6 300
	300 13700.6 -300
	300 13700.6 -100
	300 13700.6 100
	300 13700.6 300
	-300 13901.2 -300
	-300 13901.2 -100
	-300 13901.2 100
	-300 13901.2 300
	-100 13901.2 -300
	-100 13901.2 -100
	-100 13901.2 100
	-100 13901.2 300
	100 13901.2 -300
	100 13901.2 -100
	100 13901.2 100
	100 13901.2 300
	300 13901.2 -300
	300 13901.2 -100
	300 13901.2 100
	300 13901.2 300
  </DataArray>
</Points>
<PointData  Vectors="vector">
  <DataArray type="Float32" Name="Velocity" NumberOfComponents="3" format="ascii">
 4.0759e-13 -0.000834136 -4.99551e-12
 5.34246e-13 -0.000834137 5.4689e-12
 -8.69539e-13 -0.000834137 4.99892e-12
 -2.23183e-12 -0.000834137 -6.68187e-13
 6.54132e-12 -0.000834137 1.24531e-12
 5.95586e-12 -0.000834137 8.67681e-12
 7.22061e-12 -0.000834137 8.14717e-12
 1.10776e-11 -0.000834137 -2.5499e-12
 5.87562e-12 -0.000834137 -1.98632e-12
 5.8958e-12 -0.000834137 9.10272e-12
 4.65247e-12 -0.000834137 9.09978e-12
 1.27565e-11 -0.000834137 -2.66597e-12
 3.93301e-13 -0.000834137 -4.06779e-13
 -2.58399e-12 -0.000834137 1.03155e-11
 -3.30648e-12 -0.000834137 6.30785e-12
 -1.88094e-12 -0.000834137 -4.74087e-12
 -6.30471e-13 -0.00107418 -4.84039e-12
 -5.19106e-12 -0.00107419 1.08364e-11
 -5.57473e-12 -0.00107419 9.04312e-13
 -7.20138e-12 -0.00107419 5.27105e-12
 1.07241e-11 -0.00107418 -6.37224e-12
 7.54933e-12 -0.00107418 8.29744e-12
 3.14961e-12 -0.00107418 9.85185e-13
 2.41944e-12 -0.00107419 6.10375e-12
 1.16376e-11 -0.00107418 -6.0926e-12
 1.01431e-11 -0.00107419 1.17139e-12
 6.01704e-12 -0.00107419 -7.45981e-12
 4.35862e-12 -0.00107419 9.99104e-12
 -2.07533e-12 -0.00107418 -1.28096e-11
 -2.32846e-12 -0.00107418 -9.24744e-13
 -5.10867e-12 -0.00107418 8.33566e-12
 -5.24571e-12 -0.00107418 -7.58959e-12
 -2.04669e-14 -0.00143692 -4.72526e-12
 -5.03285e-12 -0.00143692 9.62891e-12
 -5.15481e-12 -0.00143692 1.61053e-11
 -6.47409e-12 -0.00143692 -2.73105e-12
 2.46292e-12 -0.00143692 -4.52802e-12
 3.12432e-12 -0.00143692 5.78213e-12
 1.28095e-12 -0.00143692 1.30326e-11
 -1.64884e-12 -0.00143692 -2.94219e-12
 8.38448e-12 -0.00143692 -7.11464e-12
 5.05932e-12 -0.00143692 3.26478e-12
 -4.78038e-12 -0.00143692 1.34233e-11
 4.95088e-13 -0.00143692 -3.81674e-12
 -2.86666e-12 -0.00143692 -1.04442e-12
 -9.07514e-13 -0.00143692 3.58156e-12
 5.10965e-12 -0.00143692 -2.0538e-12
 -3.52907e-12 -0.00143692 -1.42614e-12
 -6.90687e-12 -0.00114414 5.19556e-14
 6.76416e-13 -0.00114414 6.74589e-12
 9.20998e-13 -0.00114414 1.97343e-12
 -4.24296e-12 -0.00114414 -1.52273e-12
 -6.18424e-12 -0.00114414 -1.29279e-12
 -5.31218e-12 -0.00114414 3.66348e-12
 -5.68621e-12 -0.00114414 6.00912e-12
 -7.89223e-12 -0.00114414 -2.77288e-12
 -5.23824e-12 -0.00114414 -2.78474e-13
 -8.24715e-12 -0.00114414 5.35184e-12
 -7.65794e-12 -0.00114414 3.86499e-12
 -3.24775e-12 -0.00114414 -2.45232e-12
 -2.4436e-12 -0.00114414 -2.6152e-12
 -4.92742e-12 -0.00114414 5.36896e-12
 -4.47433e-12 -0.00114414 8.03093e-12
 -4.29884e-12 -0.00114414 -2.42187e-12
 -5.20314e-13 -0.00196058 -1.3543e-12
 -1.42705e-12 -0.00196058 7.15101e-12
 -9.31942e-13 -0.00196058 4.7008e-12
 -4.21822e-13 -0.00196058 2.43514e-12
 -6.13403e-12 -0.00196058 -3.24202e-13
 -3.1306e-12 -0.00196058 6.67773e-12
 -1.47833e-12 -0.00196058 7.20253e-12
 -1.88708e-12 -0.00196058 2.30047e-12
 -7.36708e-12 -0.00196058 1.60576e-13
 -2.21533e-12 -0.00196058 4.99569e-12
 -2.81748e-12 -0.00196058 8.6895e-12
 -2.40279e-12 -0.00196058 8.89775e-13
 -1.6873e-12 -0.00196058 -6.18141e-13
 -6.59164e-13 -0.00196058 7.41561e-12
 -3.18798e-12 -0.00196058 1.24698e-11
 -1.68757e-12 -0.00196058 2.75451e-12
 -3.13289e-12 -0.00103183 -4.58308e-12
 3.09396e-13 -0.00103183 3.5787e-12
 -4.29737e-12 -0.00103183 -3.17575e-12
 1.91654e-12 -0.00103183 8.15136e-13
 -3.76917e-12 -0.00103183 -4.10602e-13
 -6.61359e-13 -0.00103183 8.40519e-13
 1.95135e-12 -0.00103183 -1.68091e-12
 8.07782e-13 -0.00103183 2.65866e-12
 -6.64093e-12 -0.00103183 -3.10415e-12
 1.04065e-12 -0.00103183 5.69212e-12
 6.85181e-13 -0.00103183 8.26632e-13
 3.00912e-12 -0.00103183 1.07089e-12
 3.51009e-12 -0.00103183 3.76363e-12
 -1.69867e-12 -0.00103183 3.32862e-12
 3.84958e-12 -0.00103183 4.5489e-12
 2.07597e-12 -0.00103183 2.49853e-12
 9.87381e-13 -0.000273064 -1.48241e-12
 3.39346e-12 -0.000273064 -3.33154e-12
 3.24627e-12 -0.000273064 -4.15597e-12
 2.49865e-12 -0.000273064 -1.077e-12
 -1.09049e-12 -0.000273064 -5.50993e-13
 -3.25453e-13 -0.000273064 -2.1066e-12
 1.3641e-12 -0.000273064 -3.35292e-12
 2.71373e-12 -0.000273064 -6.06651e-13
 -8.42318e-13 -0.000273064 -2.44083e-12
 1.97078e-12 -0.000273064 1.6934e-12
 3.68672e-12 -0.000273064 -2.40111e-12
 6.79646e-12 -0.000273064 1.28737e-13
 3.07298e-12 -0.000273064 1.55012e-12
 3.46383e-12 -0.000273064 -2.74949e-13
 3.85485e-12 -0.000273064 1.43819e-12
 4.32626e-12 -0.000273064 1.22519e-12
 7.87301e-13 -0.000952533 -3.71848e-14
 -2.62614e-13 -0.000952533 -3.2768e-12
 1.89855e-12 -0.000952533 -2.19303e-12
 1.8619e-12 -0.000952533 1.57847e-12
 -2.0308e-12 -0.000952534 -1.01051e-12
 2.68426e-12 -0.000952534 -3.56023e-12
 -4.01023e-13 -0.000952533 -1.76911e-12
 -9.24587e-13 -0.000952534 1.34684e-12
 1.46331e-12 -0.000952534 -1.82615e-12
 4.69148e-13 -0.000952534 -4.24118e-12
 3.48582e-13 -0.000952534 -1.84854e-12
 4.14242e-14 -0.000952534 1.83089e-12
 3.41699e-12 -0.000952534 6.82599e-13
 1.92592e-12 -0.000952534 -4.52924e-12
 1.92057e-12 -0.000952534 -2.05479e-12
 2.01953e-12 -0.000952533 1.06011e-12
 1.56817e-12 -0.00122258 -7.07309e-13
 1.71718e-12 -0.00122258 -2.18871e-12
 7.63205e-13 -0.00122258 -1.83885e-12
 5.06756e-13 -0.00122258 -8.17229e-14
 -1.59458e-12 -0.00122258 -1.09981e-12
 -1.6082e-12 -0.00122258 -3.25179e-12
 -1.86499e-12 -0.00122258 -2.13983e-12
 -9.01334e-13 -0.00122258 -3.27371e-13
 -5.35183e-14 -0.00122258 -1.69765e-12
 7.01807e-13 -0.00122258 -4.86694e-12
 1.74952e-13 -0.00122258 -2.52412e-12
 -1.17624e-12 -0.00122258 7.44917e-15
 3.53027e-12 -0.00122258 -1.8642e-12
 1.5697e-12 -0.00122258 -7.02105e-12
 1.07798e-12 -0.00122258 -3.1013e-12
 -6.04507e-13 -0.00122258 1.32136e-12
 1.62143e-12 0.00018905 -8.29815e-14
 -1.78779e-12 0.00018905 -5.63179e-13
 -5.1023e-12 0.00018905 5.06966e-13
 1.67507e-14 0.00018905 1.11486e-12
 -2.29504e-12 0.00018905 -9.07195e-13
 6.16974e-13 0.00018905 -3.86323e-13
 2.18497e-12 0.00018905 6.43596e-13
 -2.52934e-12 0.00018905 1.25546e-12
 -2.67298e-13 0.00018905 -4.92348e-13
 -1.03587e-12 0.00018905 -1.52386e-13
 -1.58003e-12 0.00018905 -2.4257e-12
 -2.0184e-12 0.00018905 1.61264e-12
 1.83153e-12 0.00018905 -2.20148e-12
 2.72019e-12 0.00018905 -5.64418e-13
 2.96451e-12 0.00018905 -3.89018e-12
 1.1106e-12 0.000189051 3.18913e-12
 2.41871e-13 -0.000672251 7.96404e-13
 3.42756e-13 -0.000672251 1.97226e-12
 -1.4562e-12 -0.000672251 2.21495e-13
 -8.61304e-14 -0.000672251 1.65288e-12
 -3.64e-12 -0.00067225 -2.37878e-13
 -2.56838e-12 -0.000672251 1.0201e-12
 -2.11627e-12 -0.000672251 2.67289e-12
 -2.25613e-12 -0.000672251 1.73977e-12
 -1.37603e-12 -0.00067225 7.57227e-14
 -1.31845e-12 -0.00067225 1.90626e-12
 -1.92129e-12 -0.00067225 1.006e-12
 -2.11449e-12 -0.000672251 5.55119e-13
 2.45063e-12 -0.00067225 -1.28041e-12
 9.87417e-13 -0.000672251 1.08157e-12
 1.31527e-12 -0.000672251 -4.48525e-13
 -7.48298e-13 -0.000672251 2.3096e-12
 -1.25132e-14 -0.00270433 -1.39523e-12
 -1.34779e-13 -0.00270433 8.95631e-13
 -3.44298e-13 -0.00270433 1.49462e-12
 -7.51228e-13 -0.00270433 8.16872e-13
 -2.54338e-12 -0.00270433 -5.56076e-13
 -1.63173e-12 -0.00270433 1.2795e-12
 -2.38724e-12 -0.00270433 1.73938e-12
 -1.77437e-12 -0.00270433 7.70264e-13
 -6.23045e-13 -0.00270433 -6.1384e-13
 -9.6872e-13 -0.00270433 7.5297e-13
 -1.0128e-12 -0.00270433 1.65715e-12
 -1.02267e-12 -0.00270433 6.59387e-13
 1.40345e-12 -0.00270433 -1.38409e-12
 5.19405e-13 -0.00270433 3.45409e-14
 7.56936e-13 -0.00270433 2.29195e-12
 1.27008e-12 -0.00270433 3.4641e-13
 -7.94596e-13 -0.00260063 -8.24377e-13
 -7.53163e-13 -0.00260063 6.17536e-13
 -7.54769e-13 -0.00260063 2.26782e-12
 -8.65057e-13 -0.00260063 9.50996e-13
 -4.89239e-13 -0.00260063 -1.95193e-13
 -1.19787e-12 -0.00260063 1.08862e-12
 -1.06602e-12 -0.00260063 1.6645e-12
 -1.24018e-12 -0.00260063 1.45226e-12
 -1.51487e-12 -0.00260063 2.19702e-13
 -2.37489e-12 -0.00260063 6.96848e-13
 -2.77587e-12 -0.00260063 1.90106e-12
 -1.0304e-12 -0.00260063 1.33558e-12
 3.03791e-13 -0.00260063 -6.23883e-13
 1.04239e-12 -0.00260063 2.25205e-12
 1.46287e-12 -0.00260063 4.09903e-13
 9.08082e-13 -0.00260063 1.23777e-12
 -1.01611e-12 -0.00254258 -2.91936e-13
 -1.23623e-12 -0.00254258 3.4903e-13
 -8.59914e-13 -0.00254258 1.75403e-12
 -1.12771e-12 -0.00254258 3.99769e-13
 -3.99806e-13 -0.00254258 -8.57952e-13
 -1.28793e-12 -0.00254258 1.62181e-14
 -1.59672e-12 -0.00254258 2.16254e-12
 -1.68311e-12 -0.00254258 2.93193e-13
 -1.20745e-12 -0.00254258 -2.28401e-12
 2.10673e-13 -0.00254258 5.07178e-13
 -2.29955e-13 -0.00254258 1.85626e-12
 -1.83444e-13 -0.00254258 9.21607e-13
 1.85281e-12 -0.00254258 -9.55891e-13
 -3.32588e-13 -0.00254258 -1.00399e-12
 -5.63933e-13 -0.00254258 1.1944e-12
 -5.46743e-13 -0.00254258 2.13803e-13
 -1.1873e-12 -0.00258613 -7.50402e-13
 -9.5234e-13 -0.00258613 -1.10827e-13
 -1.86556e-12 -0.00258613 1.76699e-12
 -1.67674e-12 -0.00258613 6.57635e-13
 -3.61197e-13 -0.00258613 -1.00633e-12
 -1.16136e-12 -0.00258613 -3.89749e-13
 -4.51278e-13 -0.00258613 1.29034e-12
 -1.83695e-12 -0.00258613 5.35486e-13
 5.58262e-13 -0.00258613 -9.84851e-13
 -5.17915e-13 -0.00258613 -6.16961e-13
 -1.08466e-12 -0.00258613 1.09659e-12
 -5.94088e-13 -0.00258613 5.36028e-13
 -8.85411e-14 -0.00258613 -1.15165e-12
 -5.17852e-13 -0.00258613 -1.27344e-12
 -1.40289e-13 -0.00258613 5.5316e-13
 -8.98396e-14 -0.00258613 3.38493e-13
 -1.14898e-12 -0.00197124 -1.73518e-13
 -1.30161e-12 -0.00197124 1.90568e-12
 -1.42371e-12 -0.00197124 2.24098e-14
 -1.37557e-12 -0.00197124 2.24042e-12
 -7.48402e-13 -0.00197124 -3.25836e-13
 -1.52052e-12 -0.00197124 1.62479e-12
 -3.05429e-13 -0.00197124 -2.819e-13
 -6.9196e-13 -0.00197124 2.04105e-12
 -1.28669e-12 -0.00197124 -2.0624e-13
 -4.24586e-13 -0.00197124 1.12013e-12
 -1.5554e-12 -0.00197124 3.5829e-13
 -1.97545e-12 -0.00197124 1.42996e-12
 1.7497e-12 -0.00197124 -7.85639e-13
 2.61848e-13 -0.00197124 1.16218e-12
 -6.38971e-14 -0.00197124 6.36036e-13
 -8.03337e-14 -0.00197124 3.4159e-13
 -1.41528e-12 -0.00211866 -8.62104e-13
 -5.7725e-13 -0.00211866 6.73452e-13
 -1.09595e-12 -0.00211866 2.287e-12
 -1.40366e-12 -0.00211866 1.52905e-12
 -4.24759e-14 -0.00211866 -2.1449e-13
 -1.55645e-12 -0.00211866 3.07206e-13
 -1.45423e-12 -0.00211866 1.11961e-12
 -1.28183e-12 -0.00211866 1.6368e-12
 -5.35366e-14 -0.00211866 -2.68869e-13
 -1.41128e-12 -0.00211866 6.48734e-13
 -1.3429e-12 -0.00211866 4.77636e-13
 -1.88085e-12 -0.00211866 1.46334e-12
 -1.24535e-13 -0.00211866 -5.93178e-13
 7.08119e-13 -0.00211866 2.2217e-13
 5.34964e-13 -0.00211866 5.82431e-13
 4.33256e-13 -0.00211866 9.38725e-13
 -1.38834e-12 -0.00207697 1.49415e-13
 -1.8889e-12 -0.00207697 8.8847e-13
 -1.95247e-12 -0.00207697 1.43666e-12
 -1.84899e-12 -0.00207697 1.8335e-12
 -5.74005e-13 -0.00207697 -3.89243e-13
 -1.18303e-12 -0.00207697 1.02714e-12
 -7.81517e-13 -0.00207697 1.99048e-12
 -1.0762e-12 -0.00207697 1.22495e-12
 -1.51721e-12 -0.00207697 1.06039e-13
 -6.27797e-13 -0.00207697 4.93029e-13
 -1.26387e-12 -0.00207697 1.67105e-12
 -1.07606e-12 -0.00207697 1.27514e-12
 1.1329e-12 -0.00207697 -2.76447e-13
 7.23775e-13 -0.00207697 6.61976e-13
 7.44809e-13 -0.00207697 1.18639e-12
 2.4535e-13 -0.00207697 1.31516e-12
 -1.62701e-12 -0.00193205 9.05056e-14
 -9.38988e-13 -0.00193205 4.65912e-14
 -1.53288e-12 -0.00193205 9.56908e-13
 -1.59352e-12 -0.00193205 1.81472e-12
 -4.26308e-14 -0.00193205 -4.46181e-15
 -3.9614e-13 -0.00193205 1.54814e-13
 -5.66182e-13 -0.00193205 1.46051e-12
 1.64539e-13 -0.00193205 1.48674e-12
 -1.21473e-12 -0.00193205 -1.29741e-13
 -1.06423e-12 -0.00193205 1.88113e-13
 -3.91156e-13 -0.00193205 1.37524e-12
 -8.51558e-13 -0.00193205 1.2992e-12
 1.38056e-12 -0.00193205 -2.53113e-13
 1.33605e-12 -0.00193205 5.65348e-13
 1.10721e-12 -0.00193205 1.49137e-12
 1.07818e-12 -0.00193205 1.32971e-12
 -1.80048e-12 -0.00177043 -1.7814e-12
 -1.14187e-12 -0.00177043 -1.95332e-13
 -1.3767e-12 -0.00177043 -3.50657e-13
 -9.5036e-13 -0.00177043 -5.48489e-14
 -5.10729e-13 -0.00177043 -9.18706e-13
 2.65302e-13 -0.00177043 -4.01112e-14
 6.13517e-13 -0.00177043 -6.16768e-13
 1.04571e-12 -0.00177043 8.16286e-13
 -1.41356e-12 -0.00177043 -8.48422e-13
 -3.60767e-13 -0.00177043 3.81862e-14
 2.68083e-13 -0.00177043 -1.46936e-13
 4.57947e-13 -0.00177043 1.29282e-12
 -2.97923e-13 -0.00177043 -7.18285e-13
 -9.04923e-13 -0.00177043 -1.09369e-13
 -4.7981e-13 -0.00177043 1.02193e-12
 6.74523e-14 -0.00177043 1.887e-12
 0 -0.000537327 0
 0 -0.000537327 0
 0 -0.000537327 0
 0 -0.000537327 0
 0 -0.000537327 0
 0 -0.000537327 0
 0 -0.000537327 0
 0 -0.000537327 0
 0 -0.000537327 0
 0 -0.000537327 0
 0 -0.000537327 0
 0 -0.000537327 0
 0 -0.000537327 0
 0 -0.000537327 0
 0 -0.000537327 0
 0 -0.000537327 0
 0 0.000307245 0
 0 0.000307245 0
 0 0.000307245 0
 0 0.000307245 0
 0 0.000307245 0
 0 0.000307245 0
 0 0.000307245 0
 0 0.000307245 0