<?xml version="1.0"?>
<VTKFile type="UnstructuredGrid" version="0.1" byte_order="LittleEndian" compressor="vtkZLibDataCompressor">
<UnstructuredGrid>
<Piece NumberOfPoints="960" NumberOfCells="120">
<Points>
<DataArray type="Float32" NumberOfComponents="3" format="ascii">
-4.000000e+02 -6.000000e+03 -4.000000e+02
0.000000e+00 -6.000000e+03 -4.000000e+02
-4.000000e+02 -5.600000e+03 -4.000000e+02
3.125190e-11 -5.600000e+03 -4.000000e+02
-4.000000e+02 -6.000000e+03 0.000000e+00
0.000000e+00 -6.000000e+03 0.000000e+00
-4.000000e+02 -5.600000e+03 -4.640200e-10
9.369050e-12 -5.600000e+03 -2.686180e-10
0.000000e+00 -6.000000e+03 -4.000000e+02
4.000000e+02 -6.000000e+03 -4.000000e+02
3.125190e-11 -5.600000e+03 -4.000000e+02
4.000000e+02 -5.600000e+03 -4.000000e+02
0.000000e+00 -6.000000e+03 0.000000e+00
4.000000e+02 -6.000000e+03 0.000000e+00
9.369050e-12 -5.600000e+03 -2.686180e-10
4.000000e+02 -5.600000e+03 -4.337230e-10
-4.000000e+02 -5.600000e+03 -4.000000e+02
3.125190e-11 -5.600000e+03 -4.000000e+02
-4.000000e+02 -5.200000e+03 -4.000000e+02
-4.746110e-10 -5.200000e+03 -4.000000e+02
-4.000000e+02 -5.600000e+03 -4.640200e-10
9.369050e-12 -5.600000e+03 -2.686180e-10
-4.000000e+02 -5.200000e+03 1.412440e-10
-2.778950e-10 -5.200000e+03 -1.487920e-10
3.125190e-11 -5.600000e+03 -4.000000e+02
4.000000e+02 -5.600000e+03 -4.000000e+02
-4.746110e-10 -5.200000e+03 -4.000000e+02
4.000000e+02 -5.200000e+03 -4.000000e+02
9.369050e-12 -5.600000e+03 -2.686180e-10
4.000000e+02 -5.600000e+03 -4.337230e-10
-2.778950e-10 -5.200000e+03 -1.487920e-10
4.000000e+02 -5.200000e+03 -5.123810e-10
-4.000000e+02 -5.200000e+03 -4.000000e+02
-4.746110e-10 -5.200000e+03 -4.000000e+02
-4.000000e+02 -4.800000e+03 -4.000000e+02
-2.276860e-10 -4.800000e+03 -4.000000e+02
-4.000000e+02 -5.200000e+03 1.412440e-10
-2.778950e-10 -5.200000e+03 -1.487920e-10
-4.000000e+02 -4.800000e+03 2.882010e-11
-1.005210e-09 -4.800000e+03 -1.582800e-10
-4.746110e-10 -5.200000e+03 -4.000000e+02
4.000000e+02 -5.200000e+03 -4.000000e+02
-2.276860e-10 -4.800000e+03 -4.000000e+02
4.000000e+02 -4.800000e+03 -4.000000e+02
-2.778950e-10 -5.200000e+03 -1.487920e-10
4.000000e+02 -5.200000e+03 -5.123810e-10
-1.005210e-09 -4.800000e+03 -1.582800e-10
4.000000e+02 -4.800000e+03 -5.036520e-10
-4.000000e+02 -4.800000e+03 -4.000000e+02
-2.276860e-10 -4.800000e+03 -4.000000e+02
-4.000000e+02 -4.400010e+03 -4.000000e+02
-7.463620e-10 -4.400010e+03 -4.000000e+02
-4.000000e+02 -4.800000e+03 2.882010e-11
-1.005210e-09 -4.800000e+03 -1.582800e-10
-4.000000e+02 -4.400010e+03 -7.495510e-10
-9.485620e-10 -4.400010e+03 -7.381370e-10
-2.276860e-10 -4.800000e+03 -4.000000e+02
4.000000e+02 -4.800000e+03 -4.000000e+02
-7.463620e-10 -4.400010e+03 -4.000000e+02
4.000000e+02 -4.400010e+03 -4.000000e+02
-1.005210e-09 -4.800000e+03 -1.582800e-10
4.000000e+02 -4.800000e+03 -5.036520e-10
-9.485620e-10 -4.400010e+03 -7.381370e-10
4.000000e+02 -4.400010e+03 -8.952830e-10
-4.000000e+02 -4.400010e+03 -4.000000e+02
-7.463620e-10 -4.400010e+03 -4.000000e+02
-4.000000e+02 -4.000010e+03 -4.000000e+02
-7.315050e-10 -4.000010e+03 -4.000000e+02
-4.000000e+02 -4.400010e+03 -7.495510e-10
-9.485620e-10 -4.400010e+03 -7.381370e-10
-4.000000e+02 -4.000010e+03 -9.735710e-10
-7.851210e-10 -4.000010e+03 -6.897360e-10
-7.463620e-10 -4.400010e+03 -4.000000e+02
4.000000e+02 -4.400010e+03 -4.000000e+02
-7.315050e-10 -4.000010e+03 -4.000000e+02
4.000000e+02 -4.000010e+03 -4.000000e+02
-9.485620e-10 -4.400010e+03 -7.381370e-10
4.000000e+02 -4.400010e+03 -8.952830e-10
-7.851210e-10 -4.000010e+03 -6.897360e-10
4.000000e+02 -4.000010e+03 -9.400070e-10
-4.000000e+02 -4.000010e+03 -4.000000e+02
-7.315050e-10 -4.000010e+03 -4.000000e+02
-4.000000e+02 -3.600010e+03 -4.000000e+02
-6.035900e-10 -3.600010e+03 -4.000000e+02
-4.000000e+02 -4.000010e+03 -9.735710e-10
-7.851210e-10 -4.000010e+03 -6.897360e-10
-4.000000e+02 -3.600010e+03 -3.201610e-10
-6.844090e-10 -3.600010e+03 -3.823270e-10
-7.315050e-10 -4.000010e+03 -4.000000e+02
4.000000e+02 -4.000010e+03 -4.000000e+02
-6.035900e-10 -3.600010e+03 -4.000000e+02
4.000000e+02 -3.600010e+03 -4.000000e+02
-7.851210e-10 -4.000010e+03 -6.897360e-10
4.000000e+02 -4.000010e+03 -9.400070e-10
-6.844090e-10 -3.600010e+03 -3.823270e-10
4.000000e+02 -3.600010e+03 -4.392090e-10
-4.000000e+02 -3.600010e+03 -4.000000e+02
-6.035900e-10 -3.600010e+03 -4.000000e+02
-4.000000e+02 -3.200010e+03 -4.000000e+02
-1.719940e-10 -3.200010e+03 -4.000000e+02
-4.000000e+02 -3.600010e+03 -3.201610e-10
-6.844090e-10 -3.600010e+03 -3.823270e-10
-4.000000e+02 -3.200010e+03 -4.813900e-12
-3.117400e-10 -3.200010e+03 -6.300780e-11
-6.035900e-10 -3.600010e+03 -4.000000e+02
4.000000e+02 -3.600010e+03 -4.000000e+02
-1.719940e-10 -3.200010e+03 -4.000000e+02
4.000000e+02 -3.200010e+03 -4.000000e+02
-6.844090e-10 -3.600010e+03 -3.823270e-10
4.000000e+02 -3.600010e+03 -4.392090e-10
-3.117400e-10 -3.200010e+03 -6.300780e-11
4.000000e+02 -3.200010e+03 -7.949570e-11
-4.000000e+02 -3.200010e+03 -4.000000e+02
-1.719940e-10 -3.200010e+03 -4.000000e+02
-4.000000e+02 -2.800020e+03 -4.000000e+02
-1.117770e-10 -2.800020e+03 -4.000000e+02
-4.000000e+02 -3.200010e+03 -4.813900e-12
-3.117400e-10 -3.200010e+03 -6.300780e-11
-4.000000e+02 -2.800020e+03 -1.784190e-11
-5.383690e-10 -2.800020e+03 -1.734830e-10
-1.719940e-10 -3.200010e+03 -4.000000e+02
4.000000e+02 -3.200010e+03 -4.000000e+02
-1.117770e-10 -2.800020e+03 -4.000000e+02
4.000000e+02 -2.800020e+03 -4.000000e+02
-3.117400e-10 -3.200010e+03 -6.300780e-11
4.000000e+02 -3.200010e+03 -7.949570e-11
-5.383690e-10 -2.800020e+03 -1.734830e-10
4.000000e+02 -2.800020e+03 1.136450e-10
-4.000000e+02 -2.800020e+03 -4.000000e+02
-1.117770e-10 -2.800020e+03 -4.000000e+02
-4.000000e+02 -2.400020e+03 -4.000000e+02
-9.682400e-10 -2.400020e+03 -4.000000e+02
-4.000000e+02 -2.800020e+03 -1.784190e-11
-5.383690e-10 -2.800020e+03 -1.734830e-10
-4.000000e+02 -2.400020e+03 9.180990e-11
-7.446540e-10 -2.400020e+03 -2.637890e-11
-1.117770e-10 -2.800020e+03 -4.000000e+02
4.000000e+02 -2.800020e+03 -4.000000e+02
-9.682400e-10 -2.400020e+03 -4.000000e+02
4.000000e+02 -2.400020e+03 -4.000000e+02
-5.383690e-10 -2.800020e+03 -1.734830e-10
4.000000e+02 -2.800020e+03 1.136450e-10
-7.446540e-10 -2.400020e+03 -2.637890e-11
4.000000e+02 -2.400020e+03 1.379540e-10
-4.000000e+02 -2.400020e+03 -4.000000e+02
-9.682400e-10 -2.400020e+03 -4.000000e+02
-4.000000e+02 -2.000020e+03 -4.000000e+02
-1.085420e-09 -2.000020e+03 -4.000000e+02
-4.000000e+02 -2.400020e+03 9.180990e-11
-7.446540e-10 -2.400020e+03 -2.637890e-11
-4.000000e+02 -2.000020e+03 1.991440e-10
-7.626860e-10 -2.000020e+03 2.597130e-10
-9.682400e-10 -2.400020e+03 -4.000000e+02
4.000000e+02 -2.400020e+03 -4.000000e+02
-1.085420e-09 -2.000020e+03 -4.000000e+02
4.000000e+02 -2.000020e+03 -4.000000e+02
-7.446540e-10 -2.400020e+03 -2.637890e-11
4.000000e+02 -2.400020e+03 1.379540e-10
-7.626860e-10 -2.000020e+03 2.597130e-10
4.000000e+02 -2.000020e+03 -4.868500e-11
-4.000000e+02 -2.000020e+03 -4.000000e+02
-1.085420e-09 -2.000020e+03 -4.000000e+02
-4.000000e+02 -1.600020e+03 -4.000000e+02
-6.708450e-10 -1.600020e+03 -4.000000e+02
-4.000000e+02 -2.000020e+03 1.991440e-10
-7.626860e-10 -2.000020e+03 2.597130e-10
-4.000000e+02 -1.600020e+03 6.900110e-11
-6.110830e-10 -1.600020e+03 5.170950e-11
-1.085420e-09 -2.000020e+03 -4.000000e+02
4.000000e+02 -2.000020e+03 -4.000000e+02
-6.708450e-10 -1.600020e+03 -4.000000e+02
4.000000e+02 -1.600020e+03 -4.000000e+02
-7.626860e-10 -2.000020e+03 2.597130e-10
4.000000e+02 -2.000020e+03 -4.868500e-11
-6.110830e-10 -1.600020e+03 5.170950e-11
4.000000e+02 -1.600020e+03 4.746910e-11
-4.000000e+02 -1.600020e+03 -4.000000e+02
-6.708450e-10 -1.600020e+03 -4.000000e+02
-4.000000e+02 -1.200030e+03 -4.000000e+02
1.395560e-10 -1.200030e+03 -4.000000e+02
-4.000000e+02 -1.600020e+03 6.900110e-11
-6.110830e-10 -1.600020e+03 5.170950e-11
-4.000000e+02 -1.200030e+03 5.766000e-10
-1.226690e-10 -1.200030e+03 2.387510e-10
-6.708450e-10 -1.600020e+03 -4.000000e+02
4.000000e+02 -1.600020e+03 -4.000000e+02
1.395560e-10 -1.200030e+03 -4.000000e+02
4.000000e+02 -1.200030e+03 -4.000000e+02
-6.110830e-10 -1.600020e+03 5.170950e-11
4.000000e+02 -1.600020e+03 4.746910e-11
-1.226690e-10 -1.200030e+03 2.387510e-10
4.000000e+02 -1.200030e+03 7.393840e-11
-4.000000e+02 -1.200030e+03 -4.000000e+02
1.395560e-10 -1.200030e+03 -4.000000e+02
-4.000000e+02 -8.000430e+02 -4.000000e+02
-2.200700e-11 -8.000430e+02 -4.000000e+02
-4.000000e+02 -1.200030e+03 5.766000e-10
-1.226690e-10 -1.200030e+03 2.387510e-10
-4.000000e+02 -8.000430e+02 2.925610e-10
-9.469270e-11 -8.000430e+02 4.035860e-10
1.395560e-10 -1.200030e+03 -4.000000e+02
4.000000e+02 -1.200030e+03 -4.000000e+02
-2.200700e-11 -8.000430e+02 -4.000000e+02
4.000000e+02 -8.000430e+02 -4.000000e+02
-1.226690e-10 -1.200030e+03 2.387510e-10
4.000000e+02 -1.200030e+03 7.393840e-11
-9.469270e-11 -8.000430e+02 4.035860e-10
4.000000e+02 -8.000430e+02 1.724490e-10
-4.000000e+02 -8.000430e+02 -4.000000e+02
-2.200700e-11 -8.000430e+02 -4.000000e+02
-4.000000e+02 -4.000630e+02 -4.000000e+02
2.385410e-10 -4.000630e+02 -4.000000e+02
-4.000000e+02 -8.000430e+02 2.925610e-10
-9.469270e-11 -8.000430e+02 4.035860e-10
-4.000000e+02 -4.000630e+02 3.607990e-10
1.873630e-10 -4.000630e+02 4.421480e-10
-2.200700e-11 -8.000430e+02 -4.000000e+02
4.000000e+02 -8.000430e+02 -4.000000e+02
2.385410e-10 -4.000630e+02 -4.000000e+02
4.000000e+02 -4.000630e+02 -4.000000e+02
-9.469270e-11 -8.000430e+02 4.035860e-10
4.000000e+02 -8.000430e+02 1.724490e-10
1.873630e-10 -4.000630e+02 4.421480e-10
4.000000e+02 -4.000630e+02 9.580820e-11
-4.000000e+02 -4.000630e+02 -4.000000e+02
2.385410e-10 -4.000630e+02 -4.000000e+02
-4.000000e+02 -9.474840e-02 -4.000000e+02
2.424250e-10 -9.474840e-02 -4.000000e+02
-4.000000e+02 -4.000630e+02 3.607990e-10
1.873630e-10 -4.000630e+02 4.421480e-10
-4.000000e+02 -9.474840e-02 4.088630e-10
5.587530e-11 -9.474840e-02 9.291710e-11
2.385410e-10 -4.000630e+02 -4.000000e+02
4.000000e+02 -4.000630e+02 -4.000000e+02
[...]
<PointData>
<DataArray type="Float32" Name="V1" format="ascii">
0.000000e+00
0.000000e+00
-3.063690e-10
-3.978060e-10
0.000000e+00
0.000000e+00
8.719750e-10
6.237500e-10
0.000000e+00
0.000000e+00
-3.978060e-10
2.278130e-10
0.000000e+00
0.000000e+00
6.237500e-10
3.142250e-11
-3.063690e-10
-3.978060e-10
-1.170490e-09
-2.699350e-10
8.719750e-10
6.237500e-10
7.227180e-10
4.838810e-10
-3.978060e-10
2.278130e-10
-2.699350e-10
3.849260e-10
6.237500e-10
3.142250e-11
4.838810e-10
3.849260e-10
-1.170490e-09
-2.699350e-10
-7.070060e-11
-2.795130e-11
7.227180e-10
4.838810e-10
-9.269640e-10
-5.258120e-11
-2.699350e-10
3.849260e-10
-2.795130e-11
3.142250e-11
4.838810e-10
3.849260e-10
-5.258120e-11
3.770700e-10
-7.070060e-11
-2.795130e-11
-3.299360e-10
7.525770e-11
-9.269640e-10
-5.258120e-11
-2.042460e-10
-1.085730e-11
-2.795130e-11
3.142250e-11
7.525770e-11
6.520170e-10
-5.258120e-11
3.770700e-10
-1.085730e-11
-8.955420e-10
-3.299360e-10
7.525770e-11
-1.146920e-09
-6.080320e-10
-2.042460e-10
-1.085730e-11
4.242040e-10
2.922260e-10
7.525770e-11
6.520170e-10
-6.080320e-10
-1.649680e-10
-1.085730e-11
-8.955420e-10
2.922260e-10
-1.571130e-11
-1.146920e-09
-6.080320e-10
3.692140e-10
1.909450e-10
4.242040e-10
2.922260e-10
-4.949050e-10
-3.850700e-11
-6.080320e-10
-1.649680e-10
1.909450e-10
-1.414010e-10
2.922260e-10
-1.571130e-11
-3.850700e-11
2.906580e-10
3.692140e-10
1.909450e-10
-3.849260e-10
-3.106610e-10
-4.949050e-10
-3.850700e-11
-6.048830e-10
-3.023160e-10
1.909450e-10
-1.414010e-10
-3.106610e-10
-4.949050e-10
-3.850700e-11
2.906580e-10
-3.023160e-10
-1.099790e-10
-3.849260e-10
-3.106610e-10
1.084080e-09
4.804050e-10
-6.048830e-10
-3.023160e-10
-5.577500e-10
4.020940e-11
-3.106610e-10
-4.949050e-10
4.804050e-10
3.770700e-10
-3.023160e-10
-1.099790e-10
4.020940e-11
9.426750e-11
1.084080e-09
4.804050e-10
8.562630e-10
5.718700e-10
-5.577500e-10
4.020940e-11
-2.592360e-10
-1.194000e-10
4.804050e-10
3.770700e-10
5.718700e-10
-1.492570e-10
4.020940e-11
9.426750e-11
-1.194000e-10
-1.256900e-10
8.562630e-10
5.718700e-10
9.191080e-10
-9.815130e-11
-2.592360e-10
-1.194000e-10
-2.670910e-10
-6.871930e-11
5.718700e-10
-1.492570e-10
-9.815130e-11
-4.163480e-10
-1.194000e-10
-1.256900e-10
-6.871930e-11
6.834400e-10
9.191080e-10
-9.815130e-11
-4.634820e-10
-2.767840e-10
-2.670910e-10
-6.871930e-11
-1.178340e-10
-2.203990e-10
-9.815130e-11
-4.163480e-10
-2.767840e-10
4.084930e-10
-6.871930e-11
6.834400e-10
-2.203990e-10
1.021230e-10
-4.634820e-10
-2.767840e-10
-2.670910e-10
1.849730e-10
-1.178340e-10
-2.203990e-10
3.692140e-10
-4.613100e-10
-2.767840e-10
4.084930e-10
1.849730e-10
3.063690e-10
-2.203990e-10
1.021230e-10
-4.613100e-10
-8.012740e-10
-2.670910e-10
1.849730e-10
1.484710e-09
4.508360e-10
3.692140e-10
-4.613100e-10
-5.027600e-10
-1.687930e-10
1.849730e-10
3.063690e-10
4.508360e-10
-7.777070e-10
-4.613100e-10
-8.012740e-10
-1.687930e-10
3.456480e-10
1.484710e-09
4.508360e-10
-8.719750e-10
-2.852580e-10
-5.027600e-10
-1.687930e-10
-7.541400e-10
-2.732970e-10
4.508360e-10
-7.777070e-10
-2.852580e-10
-5.498940e-10
-1.687930e-10
3.456480e-10
-2.732970e-10
-1.492570e-10
-8.719750e-10
-2.852580e-10
1.021230e-10
2.362370e-10
-7.541400e-10
-2.732970e-10
-4.713380e-11
-7.664780e-12
-2.852580e-10
-5.498940e-10
2.362370e-10
7.541400e-10
-2.732970e-10
-1.492570e-10
-7.664780e-12
-1.178340e-10
1.021230e-10
2.362370e-10
7.070060e-10
2.158850e-10
-4.713380e-11
-7.664780e-12
2.356690e-11
-8.900560e-11
2.362370e-10
7.541400e-10
2.158850e-10
-4.713380e-11
-7.664780e-12
-1.178340e-10
-8.900560e-11
1.885350e-10
7.070060e-10
2.158850e-10
-9.348200e-10
-3.318640e-10
2.356690e-11
-8.900560e-11
-2.985140e-10
1.715280e-10
2.158850e-10
-4.713380e-11
-3.318640e-10
6.284500e-11
-8.900560e-11
1.885350e-10
1.715280e-10
-1.099790e-10
-9.348200e-10
-3.318640e-10
-3.927810e-11
1.512760e-10
-2.985140e-10
1.715280e-10
-5.577500e-10
-1.508350e-10
-3.318640e-10
6.284500e-11
1.512760e-10
5.498940e-11
1.715280e-10
-1.099790e-10
-1.508350e-10
3.377920e-10
-3.927810e-11
1.512760e-10
8.091300e-10
6.971230e-10
-5.577500e-10
-1.508350e-10
5.891720e-10
2.039270e-10
1.512760e-10
5.498940e-11
6.971230e-10
5.341830e-10
-1.508350e-10
3.377920e-10
2.039270e-10
1.963910e-10
8.091300e-10
6.971230e-10
-2.356690e-11
-6.942670e-11
5.891720e-10
2.039270e-10
2.985140e-10
1.290540e-10
6.971230e-10
5.341830e-10
-6.942670e-11
0.000000e+00
2.039270e-10
1.963910e-10
1.290540e-10
0.000000e+00
-2.356690e-11
-6.942670e-11
0.000000e+00
-3.437980e-11
2.985140e-10
1.290540e-10
-2.042460e-10
-3.989050e-11
-6.942670e-11
0.000000e+00
-3.437980e-11
-4.713380e-11
1.290540e-10
0.000000e+00
-3.989050e-11
7.855630e-12
0.000000e+00
-3.437980e-11
-3.927810e-11
-5.615350e-11
-2.042460e-10
-3.989050e-11
-6.284500e-11
8.455590e-12
-3.437980e-11
-4.713380e-11
-5.615350e-11
-4.713380e-11
-3.989050e-11
7.855630e-12
8.455590e-12
8.641190e-11
-3.927810e-11
-5.615350e-11
0.000000e+00
-9.839710e-11
-6.284500e-11
8.455590e-12
0.000000e+00
-1.439580e-10
-5.615350e-11
-4.713380e-11
-9.839710e-11
-4.713380e-11
8.455590e-12
8.641190e-11
-1.439580e-10
-1.649680e-10
0.000000e+00
-9.839710e-11
0.000000e+00
-1.153750e-11
0.000000e+00
-1.439580e-10
0.000000e+00
-4.958830e-11
-9.839710e-11
-4.713380e-11
-1.153750e-11
0.000000e+00
-1.439580e-10
-1.649680e-10
-4.958830e-11
0.000000e+00
0.000000e+00
-1.153750e-11
0.000000e+00
3.954220e-11
0.000000e+00
-4.958830e-11
0.000000e+00
3.584270e-11
-1.153750e-11
0.000000e+00
3.954220e-11
0.000000e+00
-4.958830e-11
0.000000e+00
3.584270e-11
0.000000e+00
0.000000e+00
3.954220e-11
0.000000e+00
8.871260e-12
0.000000e+00
3.584270e-11
0.000000e+00
3.948300e-13
3.954220e-11
0.000000e+00
8.871260e-12
0.000000e+00
3.584270e-11
0.000000e+00
3.948300e-13
0.000000e+00
0.000000e+00
8.871260e-12
0.000000e+00
-2.908830e-12
0.000000e+00
3.948300e-13
0.000000e+00
-3.800670e-12
8.871260e-12
0.000000e+00
-2.908830e-12
0.000000e+00
3.948300e-13
0.000000e+00
-3.800670e-12
0.000000e+00
0.000000e+00
-2.908830e-12
0.000000e+00
-5.863380e-12
0.000000e+00
-3.800670e-12
0.000000e+00
2.242430e-13
-2.908830e-12
0.000000e+00
-5.863380e-12
0.000000e+00
-3.800670e-12
0.000000e+00
2.242430e-13
0.000000e+00
0.000000e+00
-5.863380e-12
0.000000e+00
-6.091480e-13
0.000000e+00
2.242430e-13
0.000000e+00
-9.513750e-13
-5.863380e-12
0.000000e+00
-6.091480e-13
0.000000e+00
2.242430e-13
0.000000e+00
-9.513750e-13
0.000000e+00
0.000000e+00
-6.091480e-13
0.000000e+00
-4.294830e-12
0.000000e+00
-9.513750e-13
0.000000e+00
-2.770610e-12
-6.091480e-13
0.000000e+00
-4.294830e-12
0.000000e+00
-9.513750e-13
0.000000e+00
-2.770610e-12
0.000000e+00
0.000000e+00
0.000000e+00
8.719750e-10
6.237500e-10
0.000000e+00
0.000000e+00
1.885350e-10
-1.580050e-10
0.000000e+00
0.000000e+00
6.237500e-10
3.142250e-11
0.000000e+00
0.000000e+00
-1.580050e-10
-4.084930e-10
8.719750e-10
6.237500e-10
7.227180e-10
4.838810e-10
1.885350e-10
-1.580050e-10
0.000000e+00
1.716030e-10
6.237500e-10
3.142250e-11
4.838810e-10
3.849260e-10
-1.580050e-10
-4.084930e-10
1.716030e-10
3.299360e-10
7.227180e-10
4.838810e-10
-9.269640e-10
-5.258120e-11
0.000000e+00
1.716030e-10
0.000000e+00
3.150950e-10
4.838810e-10
3.849260e-10
-5.258120e-11
3.770700e-10
1.716030e-10
3.299360e-10
3.150950e-10
-3.063690e-10
-9.269640e-10
-5.258120e-11
-2.042460e-10
-1.085730e-11
0.000000e+00
3.150950e-10
2.513800e-10
3.466340e-10
-5.258120e-11
3.770700e-10
-1.085730e-11
-8.955420e-10
3.150950e-10
-3.063690e-10
3.466340e-10
6.441610e-10
-2.042460e-10
-1.085730e-11
4.242040e-10
2.922260e-10
2.513800e-10
3.466340e-10
-7.541400e-10
-6.224040e-10
-1.085730e-11
-8.955420e-10
2.922260e-10
-1.571130e-11
3.466340e-10
6.441610e-10
-6.224040e-10
-4.006370e-10
4.242040e-10
2.922260e-10
-4.949050e-10
-3.850700e-11
-7.541400e-10
-6.224040e-10
3.849260e-10
-3.422420e-10
2.922260e-10
-1.571130e-11
-3.850700e-11
2.906580e-10
-6.224040e-10
-4.006370e-10
-3.422420e-10
-8.562630e-10
-4.949050e-10
-3.850700e-11
-6.048830e-10
-3.023160e-10
3.849260e-10
-3.422420e-10
-7.305730e-10
-6.193550e-10
-3.850700e-11
2.906580e-10
-3.023160e-10
-1.099790e-10
-3.422420e-10
-8.562630e-10
-6.193550e-10
-1.052650e-09
-6.048830e-10
-3.023160e-10
-5.577500e-10
4.020940e-11
-7.305730e-10
-6.193550e-10
7.227180e-10
2.029590e-10
-3.023160e-10
-1.099790e-10
4.020940e-11
9.426750e-11
-6.193550e-10
-1.052650e-09
2.029590e-10
3.377920e-10
-5.577500e-10
4.020940e-11
-2.592360e-10
-1.194000e-10
7.227180e-10
2.029590e-10
0.000000e+00
6.001940e-10
4.020940e-11
9.426750e-11
-1.194000e-10
-1.256900e-10
2.029590e-10
3.377920e-10
6.001940e-10
6.205950e-10
-2.592360e-10
-1.194000e-10
-2.670910e-10
-6.871930e-11
0.000000e+00
6.001940e-10
7.070060e-11
-2.063710e-11
-1.194000e-10
-1.256900e-10
-6.871930e-11
6.834400e-10
6.001940e-10
6.205950e-10
-2.063710e-11
-3.692140e-10
-2.670910e-10
-6.871930e-11
-1.178340e-10
-2.203990e-10
7.070060e-11
-2.063710e-11
0.000000e+00
3.260470e-10
-6.871930e-11
6.834400e-10
-2.203990e-10
1.021230e-10
-2.063710e-11
-3.692140e-10
3.260470e-10
-2.435240e-10
-1.178340e-10
-2.203990e-10
3.692140e-10
-4.613100e-10
0.000000e+00
3.260470e-10
-3.456480e-10
6.637460e-10
-2.203990e-10
1.021230e-10
-4.613100e-10
-8.012740e-10
3.260470e-10
-2.435240e-10
6.637460e-10
8.562630e-10
3.692140e-10
-4.613100e-10
-5.027600e-10
-1.687930e-10
-3.456480e-10
6.637460e-10
3.927810e-11
-4.774890e-11
-4.613100e-10
-8.012740e-10
-1.687930e-10
3.456480e-10
6.637460e-10
8.562630e-10
-4.774890e-11
-1.256900e-10
-5.027600e-10
-1.687930e-10
-7.541400e-10
-2.732970e-10
3.927810e-11
-4.774890e-11
1.099790e-10
-2.550150e-11
-1.687930e-10
3.456480e-10
-2.732970e-10
-1.492570e-10
-4.774890e-11
-1.256900e-10
-2.550150e-11
-3.299360e-10
-7.541400e-10
-2.732970e-10
-4.713380e-11
-7.664780e-12
1.099790e-10
-2.550150e-11
-4.399150e-10
-1.891910e-10
-2.732970e-10
-1.492570e-10
-7.664780e-12
-1.178340e-10
-2.550150e-11
-3.299360e-10
-1.891910e-10
-5.498940e-10
-4.713380e-11
-7.664780e-12
2.356690e-11
-8.900560e-11
-4.399150e-10
-1.891910e-10
6.284500e-11
5.681080e-11
-7.664780e-12
-1.178340e-10
-8.900560e-11
1.885350e-10
-1.891910e-10
-5.498940e-10
5.681080e-11
2.513800e-10
2.356690e-11
-8.900560e-11
-2.985140e-10
1.715280e-10
6.284500e-11
5.681080e-11
-1.963910e-10
2.672020e-10
-8.900560e-11
1.885350e-10
1.715280e-10
-1.099790e-10
5.681080e-11
2.513800e-10
2.672020e-10
-2.199580e-10
-2.985140e-10
1.715280e-10
-5.577500e-10
-1.508350e-10
-1.963910e-10
2.672020e-10
-2.985140e-10
1.748560e-10
1.715280e-10
-1.099790e-10
-1.508350e-10
3.377920e-10
2.672020e-10
-2.199580e-10
1.748560e-10
-6.284500e-11
-5.577500e-10
-1.508350e-10
5.891720e-10
2.039270e-10
-2.985140e-10
1.748560e-10
6.284500e-10
3.008100e-10
-1.508350e-10
3.377920e-10
2.039270e-10
1.963910e-10
1.748560e-10
-6.284500e-11
3.008100e-10
5.970280e-10
5.891720e-10
2.039270e-10
2.985140e-10
1.290540e-10
6.284500e-10
3.008100e-10
-1.256900e-10
-1.328420e-10
2.039270e-10
1.963910e-10
1.290540e-10
0.000000e+00
3.008100e-10
5.970280e-10
-1.328420e-10
-1.728240e-10
2.985140e-10
1.290540e-10
-2.042460e-10
-3.989050e-11
-1.256900e-10
-1.328420e-10
0.000000e+00
-5.894920e-11
1.290540e-10
0.000000e+00
-3.989050e-11
7.855630e-12
-1.328420e-10
-1.728240e-10
-5.894920e-11
-2.592360e-10
-2.042460e-10
-3.989050e-11
-6.284500e-11
8.455590e-12
0.000000e+00
-5.894920e-11
-2.278130e-10
6.709600e-11
-3.989050e-11
7.855630e-12
8.455590e-12
8.641190e-11
-5.894920e-11
-2.592360e-10
6.709600e-11
3.299360e-10
-6.284500e-11
8.455590e-12
0.000000e+00
-1.439580e-10
-2.278130e-10
6.709600e-11
-7.855630e-11
-1.444240e-10
8.455590e-12
8.641190e-11
-1.439580e-10
-1.649680e-10
6.709600e-11
3.299360e-10
-1.444240e-10
-6.284500e-11
0.000000e+00
-1.439580e-10
0.000000e+00
-4.958830e-11
-7.855630e-11
-1.444240e-10
8.641190e-11
-6.673130e-11
-1.439580e-10
-1.649680e-10
-4.958830e-11
0.000000e+00
-1.444240e-10
-6.284500e-11
-6.673130e-11
0.000000e+00
0.000000e+00
-4.958830e-11
0.000000e+00
3.584270e-11
8.641190e-11
-6.673130e-11
0.000000e+00
2.776870e-11
-4.958830e-11
0.000000e+00
3.584270e-11
0.000000e+00
-6.673130e-11
0.000000e+00
2.776870e-11
0.000000e+00
0.000000e+00
3.584270e-11
0.000000e+00
3.948300e-13
0.000000e+00
2.776870e-11
0.000000e+00
-8.192000e-12
3.584270e-11
0.000000e+00
3.948300e-13
0.000000e+00
2.776870e-11
0.000000e+00
-8.192000e-12
0.000000e+00
0.000000e+00
3.948300e-13
0.000000e+00
-3.800670e-12
0.000000e+00
-8.192000e-12
0.000000e+00
-7.249320e-12
3.948300e-13
0.000000e+00
-3.800670e-12
0.000000e+00
-8.192000e-12
0.000000e+00
-7.249320e-12
0.000000e+00
0.000000e+00
-3.800670e-12
0.000000e+00
2.242430e-13
0.000000e+00
-7.249320e-12
0.000000e+00
5.107190e-12
-3.800670e-12
0.000000e+00
2.242430e-13
0.000000e+00
-7.249320e-12
0.000000e+00
5.107190e-12
0.000000e+00
0.000000e+00
2.242430e-13
0.000000e+00
-9.513750e-13
0.000000e+00
5.107190e-12
0.000000e+00
-8.824220e-13
2.242430e-13
0.000000e+00
-9.513750e-13
0.000000e+00
5.107190e-12
0.000000e+00
-8.824220e-13
0.000000e+00
0.000000e+00
-9.513750e-13
0.000000e+00
-2.770610e-12
0.000000e+00
-8.824220e-13
0.000000e+00
-2.690030e-12
-9.513750e-13
0.000000e+00
-2.770610e-12
0.000000e+00
-8.824220e-13
0.000000e+00
-2.690030e-12
0.000000e+00
</DataArray>
<DataArray type="Float32" Name="V2" format="ascii">
0.000000e+00
0.000000e+00
7.858390e-06
7.858140e-06
0.000000e+00
0.000000e+00
7.860400e-06
7.857510e-06
0.000000e+00
0.000000e+00
7.858140e-06
7.858520e-06
0.000000e+00
0.000000e+00
7.857510e-06
7.859780e-06
7.858390e-06
7.858140e-06
-1.369290e-05
-1.369390e-05
7.860400e-06
7.857510e-06
-1.369470e-05
-1.369410e-05
7.858140e-06
7.858520e-06
-1.369390e-05
-1.369430e-05
7.857510e-06
7.859780e-06
-1.369410e-05
-1.369420e-05
-1.369290e-05
-1.369390e-05
1.719410e-04
1.719420e-04
-1.369470e-05
-1.369410e-05
1.719420e-04
1.719420e-04
-1.369390e-05
-1.369430e-05
1.719420e-04
1.719430e-04
-1.369410e-05
-1.369420e-05
1.719420e-04
1.719420e-04
1.719410e-04
1.719420e-04
4.134510e-04
4.134510e-04
1.719420e-04
1.719420e-04
4.134500e-04
4.134490e-04
1.719420e-04
1.719430e-04
4.134510e-04
4.134500e-04
1.719420e-04
1.719420e-04
4.134490e-04
4.134500e-04
4.134510e-04
4.134510e-04
3.304040e-04
3.304030e-04
4.134500e-04
4.134490e-04
3.304050e-04
3.304060e-04
4.134510e-04
4.134500e-04
3.304030e-04
3.304060e-04
4.134490e-04
4.134500e-04
3.304060e-04
3.304050e-04
3.304040e-04
3.304030e-04
4.100820e-04
4.100810e-04
3.304050e-04
3.304060e-04
4.100830e-04
4.100840e-04
3.304030e-04
3.304060e-04
4.100810e-04
4.100830e-04
3.304060e-04
3.304050e-04
4.100840e-04
4.100810e-04
4.100820e-04
4.100810e-04
5.217670e-04
5.217670e-04
4.100830e-04
4.100840e-04
5.217660e-04
5.217680e-04
4.100810e-04
4.100830e-04
5.217670e-04
5.217670e-04
4.100840e-04
4.100810e-04
5.217680e-04
5.217680e-04
5.217670e-04
5.217670e-04
4.837560e-04
4.837570e-04
5.217660e-04
5.217680e-04
4.837570e-04
4.837570e-04
5.217670e-04
5.217670e-04
4.837570e-04
4.837580e-04
5.217680e-04
5.217680e-04
4.837570e-04
4.837570e-04
4.837560e-04
4.837570e-04
7.359190e-04
7.359170e-04
4.837570e-04
4.837570e-04
7.359180e-04
7.359170e-04
4.837570e-04
4.837580e-04
7.359170e-04
7.359180e-04
4.837570e-04
4.837570e-04
7.359170e-04
7.359180e-04
7.359190e-04
7.359170e-04
1.525990e-03
1.525990e-03
7.359180e-04
7.359170e-04
1.526000e-03
1.525990e-03
7.359170e-04
7.359180e-04
1.525990e-03
1.525990e-03
7.359170e-04
7.359180e-04
1.525990e-03
1.525990e-03
1.525990e-03
1.525990e-03
2.298190e-03
2.298190e-03
1.526000e-03
1.525990e-03
2.298180e-03
2.298190e-03
1.525990e-03
1.525990e-03
2.298190e-03
2.298180e-03
1.525990e-03
1.525990e-03
2.298190e-03
2.298180e-03
2.298190e-03
2.298190e-03
4.978450e-03
4.978450e-03
2.298180e-03
2.298190e-03
4.978450e-03
4.978450e-03
2.298190e-03
2.298180e-03
4.978450e-03
4.978450e-03
2.298190e-03
2.298180e-03
4.978450e-03
4.978450e-03
4.978450e-03
4.978450e-03
1.005900e-02
1.005900e-02
4.978450e-03
4.978450e-03
1.005900e-02
1.005900e-02
4.978450e-03
4.978450e-03
1.005900e-02
1.005900e-02
4.978450e-03
4.978450e-03
1.005900e-02
1.005900e-02
1.005900e-02
1.005900e-02
1.703740e-02
1.703740e-02
1.005900e-02
1.005900e-02
1.703740e-02
1.703740e-02
1.005900e-02
1.005900e-02
1.703740e-02
1.703740e-02
1.005900e-02
1.005900e-02
1.703740e-02
1.703740e-02
1.703740e-02
1.703740e-02
2.667520e-02
2.667520e-02
1.703740e-02
1.703740e-02
2.667520e-02
2.667520e-02
1.703740e-02
1.703740e-02
2.667520e-02
2.667520e-02
1.703740e-02
1.703740e-02
2.667520e-02
2.667520e-02
2.667520e-02
2.667520e-02
3.631670e-02
3.631670e-02
2.667520e-02
2.667520e-02
3.631670e-02
3.631670e-02
2.667520e-02
2.667520e-02
3.631670e-02
3.631670e-02
2.667520e-02
2.667520e-02
3.631670e-02
3.631670e-02
3.631670e-02
3.631670e-02
4.041610e-02
4.041610e-02
3.631670e-02
3.631670e-02
4.041610e-02
4.041610e-02
3.631670e-02
3.631670e-02
4.041610e-02
4.041610e-02
3.631670e-02
3.631670e-02
4.041610e-02
4.041610e-02
4.041610e-02
4.041610e-02
3.354870e-02
3.354870e-02
4.041610e-02
4.041610e-02
3.354870e-02
3.354870e-02
4.041610e-02
4.041610e-02
3.354870e-02
3.354870e-02
4.041610e-02
4.041610e-02
3.354870e-02
3.354870e-02
3.354870e-02
3.354870e-02
1.413010e-02
1.413010e-02
3.354870e-02
3.354870e-02
1.413010e-02
1.413010e-02
3.354870e-02
3.354870e-02
1.413010e-02
1.413010e-02
3.354870e-02
3.354870e-02
1.413010e-02
1.413010e-02
1.413010e-02
1.413010e-02
-8.595130e-03
-8.595130e-03
1.413010e-02
1.413010e-02
-8.595130e-03
-8.595140e-03
1.413010e-02
1.413010e-02
-8.595130e-03
-8.595140e-03
1.413010e-02
1.413010e-02
-8.595140e-03
-8.595140e-03
-8.595130e-03
-8.595130e-03
-1.827540e-02
-1.827540e-02
-8.595130e-03
-8.595140e-03
-1.827540e-02
-1.827540e-02
-8.595130e-03
-8.595140e-03
-1.827540e-02
-1.827540e-02
-8.595140e-03
-8.595140e-03
-1.827540e-02
-1.827540e-02
-1.827540e-02
-1.827540e-02
-7.880470e-03
-7.880470e-03
-1.827540e-02
-1.827540e-02
-7.880470e-03
-7.880470e-03
-1.827540e-02
-1.827540e-02
-7.880470e-03
-7.880470e-03
-1.827540e-02
-1.827540e-02
-7.880470e-03
-7.880470e-03
-7.880470e-03
-7.880470e-03
7.182120e-03
7.182120e-03
-7.880470e-03
-7.880470e-03
7.182120e-03
7.182120e-03
-7.880470e-03
-7.880470e-03
7.182120e-03
7.182120e-03
-7.880470e-03
-7.880470e-03
7.182120e-03
7.182120e-03
7.182120e-03
7.182120e-03
7.417490e-03
7.417490e-03
7.182120e-03
7.182120e-03
7.417500e-03
7.417490e-03
7.182120e-03
7.182120e-03
7.417490e-03
7.417490e-03
7.182120e-03
7.182120e-03
7.417490e-03
7.417490e-03
7.417490e-03
7.417490e-03
-1.602390e-03
-1.602390e-03
7.417500e-03
7.417490e-03
-1.602390e-03
-1.602390e-03
7.417490e-03
7.417490e-03
-1.602390e-03
-1.602390e-03
7.417490e-03
7.417490e-03
-1.602390e-03
-1.602390e-03
-1.602390e-03
-1.602390e-03
-2.787340e-03
-2.787340e-03
-1.602390e-03
-1.602390e-03
-2.787340e-03
-2.787340e-03
-1.602390e-03
-1.602390e-03
-2.787340e-03
-2.787340e-03
-1.602390e-03
-1.602390e-03
-2.787340e-03
-2.787340e-03
-2.787340e-03
-2.787340e-03
5.058920e-04
5.058920e-04
-2.787340e-03
-2.787340e-03
5.058920e-04
5.058920e-04
-2.787340e-03
-2.787340e-03
5.058920e-04
5.058910e-04
-2.787340e-03
-2.787340e-03
5.058920e-04
5.058920e-04
5.058920e-04
5.058920e-04
7.909620e-04
7.909620e-04
5.058920e-04
5.058920e-04
7.909620e-04
7.909620e-04
5.058920e-04
5.058910e-04
7.909620e-04
7.909620e-04
5.058920e-04
5.058920e-04
7.909620e-04
7.909620e-04
7.909620e-04
7.909620e-04
6.406200e-05
6.406180e-05
7.909620e-04
7.909620e-04
6.406210e-05
6.406210e-05
7.909620e-04
7.909620e-04
6.406180e-05
6.406180e-05
7.909620e-04
7.909620e-04
6.406210e-05
6.406200e-05
6.406200e-05
6.406180e-05
-2.420500e-05
-2.420510e-05
6.406210e-05
6.406210e-05
-2.420480e-05
-2.420500e-05
6.406180e-05
6.406180e-05
-2.420510e-05
-2.420510e-05
6.406210e-05
6.406200e-05
-2.420500e-05
-2.420510e-05
0.000000e+00
0.000000e+00
7.860400e-06
7.857510e-06
0.000000e+00
0.000000e+00
7.861030e-06
7.857510e-06
0.000000e+00
0.000000e+00
7.857510e-06
7.859780e-06
0.000000e+00
0.000000e+00
7.857510e-06
7.861160e-06
7.860400e-06
7.857510e-06
-1.369470e-05
-1.369410e-05
7.861030e-06
7.857510e-06
-1.369140e-05
-1.369360e-05
7.857510e-06
7.859780e-06
-1.369410e-05
-1.369420e-05
7.857510e-06
7.861160e-06
-1.369360e-05
-1.369370e-05
-1.369470e-05
-1.369410e-05
1.719420e-04
1.719420e-04
-1.369140e-05
-1.369360e-05
1.719430e-04
1.719410e-04
-1.369410e-05
-1.369420e-05
1.719420e-04