<?xml version="1.0"?>
<!-- time 64.7797-->
<VTKFile type="UnstructuredGrid" version="0.1" byte_order="LittleEndian">
<UnstructuredGrid>
<Piece NumberOfPoints="960" NumberOfCells="0">
<Points>
  <DataArray type="Float32" Name="Position" NumberOfComponents="3" format="ascii">
	-300 2099.63 -300
	-300 2099.63 -100
	-300 2099.63 100
	-300 2099.63 300
	-100 2099.63 -300
	-100 2099.63 -100
	-100 2099.63 100
	-100 2099.63 300
	100 2099.63 -300
	100 2099.63 -100
	100 2099.63 100
	100 2099.63 300
	300 2099.63 -300
	300 2099.63 -100
	300 2099.63 100
	300 2099.63 300
	-300 2299.67 -300
	-300 2299.67 -100
	-300 2299.67 100
	-300 2299.67 300
	-100 2299.67 -300
	-100 2299.67 -100
	-100 2299.67 100
	-100 2299.67 300
	100 2299.67 -300
	100 2299.67 -100
	100 2299.67 100
	100 2299.67 300
	300 2299.67 -300
	300 2299.67 -100
	300 2299.67 100
	300 2299.67 300
	-300 2499.67 -300
	-300 2499.67 -100
	-300 2499.67 100
	-300 2499.67 300
	-100 2499.67 -300
	-100 2499.67 -100
	-100 2499.67 100
	-100 2499.67 300
	100 2499.67 -300
	100 2499.67 -100
	100 2499.67 100
	100 2499.67 300
	300 2499.67 -300
	300 2499.67 -100
	300 2499.67 100
	300 2499.67 300
	-300 2699.67 -300
	-300 2699.67 -100
	-300 2699.67 100
	-300 2699.67 300
	-100 2699.67 -300
	-100 2699.67 -100
	-100 2699.67 100
	-100 2699.67 300
	100 2699.67 -300
	100 2699.67 -100
	100 2699.67 100
	100 2699.67 300
	300 2699.67 -300
	300 2699.67 -100
	300 2699.67 100
	300 2699.67 300
	-300 2899.67 -300
	-300 2899.67 -100
	-300 2899.67 100
	-300 2899.67 300
	-100 2899.67 -300
	-100 2899.67 -100
	-100 2899.67 100
	-100 2899.67 300
	100 2899.67 -300
	100 2899.67 -100
	100 2899.67 100
	100 2899.67 300
	300 2899.67 -300
	300 2899.67 -100
	300 2899.67 100
	300 2899.67 300
	-300 3099.67 -300
	-300 3099.67 -100
	-300 3099.67 100
	-300 3099.67 300
	-100 3099.67 -300
	-100 3099.67 -100
	-100 3099.67 100
	-100 3099.67 300
	100 3099.67 -300
	100 3099.67 -100
	100 3099.67 100
	100 3099.67 300
	300 3099.67 -300
	300 3099.67 -100
	300 3099.67 100
	300 3099.67 300
	-300 3299.67 -300
	-300 3299.67 -100
	-300 3299.67 100
	-300 3299.67 300
	-100 3299.67 -300
	-100 3299.67 -100
	-100 3299.67 100
	-100 3299.67 300
	100 3299.67 -300
	100 3299.67 -100
	100 3299.67 100
	100 3299.67 300
	300 3299.67 -300
	300 3299.67 -100
	300 3299.67 100
	300 3299.67 300
	-300 3499.67 -300
	-300 3499.67 -100
	-300 3499.67 100
	-300 3499.67 300
	-100 3499.67 -300
	-100 3499.67 -100
	-100 3499.67 100
	-100 3499.67 300
	100 3499.67 -300
	100 3499.67 -100
	100 3499.67 100
	100 3499.67 300
	300 3499.67 -300
	300 3499.67 -100
	300 3499.67 100
	300 3499.67 300
	-300 3699.67 -300
	-300 3699.67 -100
	-300 3699.67 100
	-300 3699.67 300
	-100 3699.67 -300
	-100 3699.67 -100
	-100 3699.67 100
	-100 3699.67 300
	100 3699.67 -300
	100 3699.67 -100
	100 3699.67 100
	100 3699.67 300
	300 3699.67 -300
	300 3699.67 -100
	300 3699.67 100
	300 3699.67 300
	-300 3899.67 -300
	-300 3899.67 -100
	-300 3899.67 100
	-300 3899.67 300
	-100 3899.67 -300
	-100 3899.67 -100
	-100 3899.67 100
	-100 3899.67 300
	100 3899.67 -300
	100 3899.67 -100
	100 3899.67 100
	100 3899.67 300
	300 3899.67 -300
	300 3899.67 -100
	300 3899.67 100
	300 3899.67 300
	-300 4099.67 -300
	-300 4099.67 -100
	-300 4099.67 100
	-300 4099.67 300
	-100 4099.67 -300
	-100 4099.67 -100
	-100 4099.67 100
	-100 4099.67 300
	100 4099.67 -300
	100 4099.67 -100
	100 4099.67 100
	100 4099.67 300
	300 4099.67 -300
	300 4099.67 -100
	300 4099.67 100
	300 4099.67 300
	-300 4299.67 -300
	-300 4299.67 -100
	-300 4299.67 100
	-300 4299.67 300
	-100 4299.67 -300
	-100 4299.67 -100
	-100 4299.67 100
	-100 4299.67 300
	100 4299.67 -300
	100 4299.67 -100
	100 4299.67 100
	100 4299.67 300
	300 4299.67 -300
	300 4299.67 -100
	300 4299.67 100
	300 4299.67 300
	-300 4499.67 -300
	-300 4499.67 -100
	-300 4499.67 100
	-300 4499.67 300
	-100 4499.67 -300
	-100 4499.67 -100
	-100 4499.67 100
	-100 4499.67 300
	100 4499.67 -300
	100 4499.67 -100
	100 4499.67 100
	100 4499.67 300
	300 4499.67 -300
	300 4499.67 -100
	300 4499.67 100
	300 4499.67 300
	-300 4699.67 -300
	-300 4699.67 -100
	-300 4699.67 100
	-300 4699.67 300
	-100 4699.67 -300
	-100 4699.67 -100
	-100 4699.67 100
	-100 4699.67 300
	100 4699.67 -300
	100 4699.67 -100
	100 4699.67 100
	100 4699.67 300
	300 4699.67 -300
	300 4699.67 -100
	300 4699.67 100
	300 4699.67 300
	-300 4899.68 -300
	-300 4899.68 -100
	-300 4899.68 100
	-300 4899.68 300
	-100 4899.68 -300
	-100 4899.68 -100
	-100 4899.68 100
	-100 4899.68 300
	100 4899.68 -300
	100 4899.68 -100
	100 4899.68 100
	100 4899.68 300
	300 4899.68 -300
	300 4899.68 -100
	300 4899.68 100
	300 4899.68 300
	-300 5099.68 -300
	-300 5099.68 -100
	-300 5099.68 100
	-300 5099.68 300
	-100 5099.68 -300
	-100 5099.68 -100
	-100 5099.68 100
	-100 5099.68 300
	100 5099.68 -300
	100 5099.68 -100
	100 5099.68 100
	100 5099.68 300
	300 5099.68 -300
	300 5099.68 -100
	300 5099.68 100
	300 5099.68 300
	-300 5299.68 -300
	-300 5299.68 -100
	-300 5299.68 100
	-300 5299.68 300
	-100 5299.68 -300
	-100 5299.68 -100
	-100 5299.68 100
	-100 5299.68 300
	100 5299.68 -300
	100 5299.68 -100
	100 5299.68 100
	100 5299.68 300
	300 5299.68 -300
	300 5299.68 -100
	300 5299.68 100
	300 5299.68 300
	-300 5499.68 -300
	-300 5499.68 -100
	-300 5499.68 100
	-300 5499.68 300
	-100 5499.68 -300
	-100 5499.68 -100
	-100 5499.68 100
	-100 5499.68 300
	100 5499.68 -300
	100 5499.68 -100
	100 5499.68 100
	100 5499.68 300
	300 5499.68 -300
	300 5499.68 -100
	300 5499.68 100
	300 5499.68 300
	-300 5699.68 -300
	-300 5699.68 -100
	-300 5699.68 100
	-300 5699.68 300
	-100 5699.68 -300
	-100 5699.68 -100
	-100 5699.68 100
	-100 5699.68 300
	100 5699.68 -300
	100 5699.68 -100
	100 5699.68 100
	100 5699.68 300
	300 5699.68 -300
	300 5699.68 -100
	300 5699.68 100
	300 5699.68 300
	-300 5899.69 -300
	-300 5899.69 -100
	-300 5899.69 100
	-300 5899.69 300
	-100 5899.69 -300
	-100 5899.69 -100
	-100 5899.69 100
	-100 5899.69 300
	100 5899.69 -300
	100 5899.69 -100
	100 5899.69 100
	100 5899.69 300
	300 5899.69 -300
	300 5899.69 -100
	300 5899.69 100
	300 5899.69 300
	-300 6099.73 -300
	-300 6099.73 -100
	-300 6099.73 100
	-300 6099.73 300
	-100 6099.73 -300
	-100 6099.73 -100
	-100 6099.73 100
	-100 6099.73 300
	100 6099.73 -300
	100 6099.73 -100
	100 6099.73 100
	100 6099.73 300
	300 6099.73 -300
	300 6099.73 -100
	300 6099.73 100
	300 6099.73 300
	-300 6299.74 -300
	-300 6299.74 -100
	-300 6299.74 100
	-300 6299.74 300
	-100 6299.74 -300
	-100 6299.74 -100
	-100 6299.74 100
	-100 6299.74 300
	100 6299.74 -300
	100 6299.74 -100
	100 6299.74 100
	100 6299.74 300
	300 6299.74 -300
	300 6299.74 -100
	300 6299.74 100
	300 6299.74 300
	-300 6499.77 -300
	-300 6499.77 -100
	-300 6499.77 100
	-300 6499.77 300
	-100 6499.77 -300
	-100 6499.77 -100
	-100 6499.77 100
	-100 6499.77 300
	100 6499.77 -300
	100 6499.77 -100
	100 6499.77 100
	100 6499.77 300
	300 6499.77 -300
	300 6499.77 -100
	300 6499.77 100
	300 6499.77 300
	-300 6699.78 -300
	-300 6699.78 -100
	-300 6699.78 100
	-300 6699.78 300
	-100 6699.78 -300
	-100 6699.78 -100
	-100 6699.78 100
	-100 6699.78 300
	100 6699.78 -300
	100 6699.78 -100
	100 6699.78 100
	100 6699.78 300
	300 6699.78 -300
	300 6699.78 -100
	300 6699.78 100
	300 6699.78 300
	-300 6899.8 -300
	-300 6899.8 -100
	-300 6899.8 100
	-300 6899.8 300
	-100 6899.8 -300
	-100 6899.8 -100
	-100 6899.8 100
	-100 6899.8 300
	100 6899.8 -300
	100 6899.8 -100
	100 6899.8 100
	100 6899.8 300
	300 6899.8 -300
	300 6899.8 -100
	300 6899.8 100
	300 6899.8 300
	-300 7099.81 -300
	-300 7099.81 -100
	-300 7099.81 100
	-300 7099.81 300
	-100 7099.81 -300
	-100 7099.81 -100
	-100 7099.81 100
	-100 7099.81 300
	100 7099.81 -300
	100 7099.81 -100
	100 7099.81 100
	100 7099.81 300
	300 7099.81 -300
	300 7099.81 -100
	300 7099.81 100
	300 7099.81 300
	-300 7299.81 -300
	-300 7299.81 -100
	-300 7299.81 100
	-300 7299.81 300
	-100 7299.81 -300
	-100 7299.81 -100
	-100 7299.81 100
	-100 7299.81 300
	100 7299.81 -300
	100 7299.81 -100
	100 7299.81 100
	100 7299.81 300
	300 7299.81 -300
	300 7299.81 -100
	300 7299.81 100
	300 7299.81 300
	-300 7499.81 -300
	-300 7499.81 -100
	-300 7499.81 100
	-300 7499.81 300
	-100 7499.81 -300
	-100 7499.81 -100
	-100 7499.81 100
	-100 7499.81 300
	100 7499.81 -300
	100 7499.81 -100
	100 7499.81 100
	100 7499.81 300
	300 7499.81 -300
	300 7499.81 -100
	300 7499.81 100
	300 7499.81 300
	-300 7699.82 -300
	-300 7699.82 -100
	-300 7699.82 100
	-300 7699.82 300
	-100 7699.82 -300
	-100 7699.82 -100
	-100 7699.82 100
	-100 7699.82 300
	100 7699.82 -300
	100 7699.82 -100
	100 7699.82 100
	100 7699.82 300
	300 7699.82 -300
	300 7699.82 -100
	300 7699.82 100
	300 7699.82 300
	-300 7899.82 -300
	-300 7899.82 -100
	-300 7899.82 100
	-300 7899.82 300
	-100 7899.82 -300
	-100 7899.82 -100
	-100 7899.82 100
	-100 7899.82 300
	100 7899.82 -300
	100 7899.82 -100
	100 7899.82 100
	100 7899.82 300
	300 7899.82 -300
	300 7899.82 -100
	300 7899.82 100
	300 7899.82 300
	-300 8099.83 -300
	-300 8099.83 -100
	-300 8099.83 100
	-300 8099.83 300
	-100 8099.83 -300
	-100 8099.83 -100
	-100 8099.83 100
	-100 8099.83 300
	100 8099.83 -300
	100 8099.83 -100
	100 8099.83 100
	100 8099.83 300
	300 8099.83 -300
	300 8099.83 -100
	300 8099.83 100
	300 8099.83 300
	-300 8299.83 -300
	-300 8299.83 -100
	-300 8299.83 100
	-300 8299.83 300
	-100 8299.83 -300
	-100 8299.83 -100
	-100 8299.83 100
	-100 8299.83 300
	100 8299.83 -300
	100 8299.83 -100
	100 8299.83 100
	100 8299.83 300
	300 8299.83 -300
	300 8299.83 -100
	300 8299.83 100
	300 8299.83 300
	-300 8499.84 -300
	-300 8499.84 -100
	-300 8499.84 100
	-300 8499.84 300
	-100 8499.84 -300
	-100 8499.84 -100
	-100 8499.84 100
	-100 8499.84 300
	100 8499.84 -300
	100 8499.84 -100
	100 8499.84 100
	100 8499.84 300
	300 8499.84 -300
	300 8499.84 -100
	300 8499.84 100
	300 8499.84 300
	-300 8699.84 -300
	-300 8699.84 -100
	-300 8699.84 100
	-300 8699.84 300
	-100 8699.84 -300
	-100 8699.84 -100
	-100 8699.84 100
	-100 8699.84 300
	100 8699.84 -300
	100 8699.84 -100
	100 8699.84 100
	100 8699.84 300
	300 8699.84 -300
	300 8699.84 -100
	300 8699.84 100
	300 8699.84 300
	-300 8899.84 -300
	-300 8899.84 -100
	-300 8899.84 100
	-300 8899.84 300
	-100 8899.84 -300
	-100 8899.84 -100
	-100 8899.84 100
	-100 8899.84 300
	100 8899.84 -300
	100 8899.84 -100
	100 8899.84 100
	100 8899.84 300
	300 8899.84 -300
	300 8899.84 -100
	300 8899.84 100
	300 8899.84 300
	-300 9099.85 -300
	-300 9099.85 -100
	-300 9099.85 100
	-300 9099.85 300
	-100 9099.85 -300
	-100 9099.85 -100
	-100 9099.85 100
	-100 9099.85 300
	100 9099.85 -300
	100 9099.85 -100
	100 9099.85 100
	100 9099.85 300
	300 9099.85 -300
	300 9099.85 -100
	300 9099.85 100
	300 9099.85 300
	-300 9299.85 -300
	-300 9299.85 -100
	-300 9299.85 100
	-300 9299.85 300
	-100 9299.85 -300
	-100 9299.85 -100
	-100 9299.85 100
	-100 9299.85 300
	100 9299.85 -300
	100 9299.85 -100
	100 9299.85 100
	100 9299.85 300
	300 9299.85 -300
	300 9299.85 -100
	300 9299.85 100
	300 9299.85 300
	-300 9499.86 -300
	-300 9499.86 -100
	-300 9499.86 100
	-300 9499.86 300
	-100 9499.86 -300
	-100 9499.86 -100
	-100 9499.86 100
	-100 9499.86 300
	100 9499.86 -300
	100 9499.86 -100
	100 9499.86 100
	100 9499.86 300
	300 9499.86 -300
	300 9499.86 -100
	300 9499.86 100
	300 9499.86 300
	-300 9699.87 -300
	-300 9699.87 -100
	-300 9699.87 100
	-300 9699.87 300
	-100 9699.87 -300
	-100 9699.87 -100
	-100 9699.87 100
	-100 9699.87 300
	100 9699.87 -300
	100 9699.87 -100
	100 9699.87 100
	100 9699.87 300
	300 9699.87 -300
	300 9699.87 -100
	300 9699.87 100
	300 9699.87 300
	-300 9899.87 -300
	-300 9899.87 -100
	-300 9899.87 100
	-300 9899.87 300
	-100 9899.87 -300
	-100 9899.87 -100
	-100 9899.87 100
	-100 9899.87 300
	100 9899.87 -300
	100 9899.87 -100
	100 9899.87 100
	100 9899.87 300
	300 9899.87 -300
	300 9899.87 -100
	300 9899.87 100
	300 9899.87 300
	-300 10099.9 -300
	-300 10099.9 -100
	-300 10099.9 100
	-300 10099.9 300
	-100 10099.9 -300
	-100 10099.9 -100
	-100 10099.9 100
	-100 10099.9 300
	100 10099.9 -300
	100 10099.9 -100
	100 10099.9 100
	100 10099.9 300
	300 10099.9 -300
	300 10099.9 -100
	300 10099.9 100
	300 10099.9 300
	-300 10299.9 -300
	-300 10299.9 -100
	-300 10299.9 100
	-300 10299.9 300
	-100 10299.9 -300
	-100 10299.9 -100
	-100 10299.9 100
	-100 10299.9 300
	100 10299.9 -300
	100 10299.9 -100
	100 10299.9 100
	100 10299.9 300
	300 10299.9 -300
	300 10299.9 -100
	300 10299.9 100
	300 10299.9 300
	-300 10499.9 -300
	-300 10499.9 -100
	-300 10499.9 100
	-300 10499.9 300
	-100 10499.9 -300
	-100 10499.9 -100
	-100 10499.9 100
	-100 10499.9 300
	100 10499.9 -300
	100 10499.9 -100
	100 10499.9 100
	100 10499.9 300
	300 10499.9 -300
	300 10499.9 -100
	300 10499.9 100
	300 10499.9 300
	-300 10699.9 -300
	-300 10699.9 -100
	-300 10699.9 100
	-300 10699.9 300
	-100 10699.9 -300
	-100 10699.9 -100
	-100 10699.9 100
	-100 10699.9 300
	100 10699.9 -300
	100 10699.9 -100
	100 10699.9 100
	100 10699.9 300
	300 10699.9 -300
	300 10699.9 -100
	300 10699.9 100
	300 10699.9 300
	-300 10899.9 -300
	-300 10899.9 -100
	-300 10899.9 100
	-300 10899.9 300
	-100 10899.9 -300
	-100 10899.9 -100
	-100 10899.9 100
	-100 10899.9 300
	100 10899.9 -300
	100 10899.9 -100
	100 10899.9 100
	100 10899.9 300
	300 10899.9 -300
	300 10899.9 -100
	300 10899.9 100
	300 10899.9 300
	-300 11099.9 -300
	-300 11099.9 -100
	-300 11099.9 100
	-300 11099.9 300
	-100 11099.9 -300
	-100 11099.9 -100
	-100 11099.9 100
	-100 11099.9 300
	100 11099.9 -300
	100 11099.9 -100
	100 11099.9 100
	100 11099.9 300
	300 11099.9 -300
	300 11099.9 -100
	300 11099.9 100
	300 11099.9 300
	-300 11299.9 -300
	-300 11299.9 -100
	-300 11299.9 100
	-300 11299.9 300
	-100 11299.9 -300
	-100 11299.9 -100
	-100 11299.9 100
	-100 11299.9 300
	100 11299.9 -300
	100 11299.9 -100
	100 11299.9 100
	100 11299.9 300
	300 11299.9 -300
	300 11299.9 -100
	300 11299.9 100
	300 11299.9 300
	-300 11500 -300
	-300 11500 -100
	-300 11500 100
	-300 11500 300
	-100 11500 -300
	-100 11500 -100
	-100 11500 100
	-100 11500 300
	100 11500 -300
	100 11500 -100
	100 11500 100
	100 11500 300
	300 11500 -300
	300 11500 -100
	300 11500 100
	300 11500 300
	-300 11700 -300
	-300 11700 -100
	-300 11700 100
	-300 11700 300
	-100 11700 -300
	-100 11700 -100
	-100 11700 100
	-100 11700 300
	100 11700 -300
	100 11700 -100
	100 11700 100
	100 11700 300
	300 11700 -300
	300 11700 -100
	300 11700 100
	300 11700 300
	-300 11900 -300
	-300 11900 -100
	-300 11900 100
	-300 11900 300
	-100 11900 -300
	-100 11900 -100
	-100 11900 100
	-100 11900 300
	100 11900 -300
	100 11900 -100
	100 11900 100
	100 11900 300
	300 11900 -300
	300 11900 -100
	300 11900 100
	300 11900 300
	-300 12100 -300
	-300 12100 -100
	-300 12100 100
	-300 12100 300
	-100 12100 -300
	-100 12100 -100
	-100 12100 100
	-100 12100 300
	100 12100 -300
	100 12100 -100
	100 12100 100
	100 12100 300
	300 12100 -300
	300 12100 -100
	300 12100 100
	300 12100 300
	-300 12300 -300
	-300 12300 -100
	-300 12300 100
	-300 12300 300
	-100 12300 -300
	-100 12300 -100
	-100 12300 100
	-100 12300 300
	100 12300 -300
	100 12300 -100
	100 12300 100
	100 12300 300
	300 12300 -300
	300 12300 -100
	300 12300 100
	300 12300 300
	-300 12500.1 -300
	-300 12500.1 -100
	-300 12500.1 100
	-300 12500.1 300
	-100 12500.1 -300
	-100 12500.1 -100
	-100 12500.1 100
	-100 12500.1 300
	100 12500.1 -300
	100 12500.1 -100
	100 12500.1 100
	100 12500.1 300
	300 12500.1 -300
	300 12500.1 -100
	300 12500.1 100
	300 12500.1 300
	-300 12700.1 -300
	-300 12700.1 -100
	-300 12700.1 100
	-300 12700.1 300
	-100 12700.1 -300
	-100 12700.1 -100
	-100 12700.1 100
	-100 12700.1 300
	100 12700.1 -300
	100 12700.1 -100
	100 12700.1 100
	100 12700.1 300
	300 12700.1 -300
	300 12700.1 -100
	300 12700.1 100
	300 12700.1 300
	-300 12900.2 -300
	-300 12900.2 -100
	-300 12900.2 100
	-300 12900.2 300
	-100 12900.2 -300
	-100 12900.2 -100
	-100 12900.2 100
	-100 12900.2 300
	100 12900.2 -300
	100 12900.2 -100
	100 12900.2 100
	100 12900.2 300
	300 12900.2 -300
	300 12900.2 -100
	300 12900.2 100
	300 12900.2 300
	-300 13100.2 -300
	-300 13100.2 -100
	-300 13100.2 100
	-300 13100.2 300
	-100 13100.2 -300
	-100 13100.2 -100
	-100 13100.2 100
	-100 13100.2 300
	100 13100.2 -300
	100 13100.2 -100
	100 13100.2 100
	100 13100.2 300
	300 13100.2 -300
	300 13100.2 -100
	300 13100.2 100
	300 13100.2 300
	-300 13300.3 -300
	-300 13300.3 -100
	-300 13300.3 100
	-300 13300.3 300
	-100 13300.3 -300
	-100 13300.3 -100
	-100 13300.3 100
	-100 13300.3 300
	100 13300.3 -300
	100 13300.3 -100
	100 13300.3 100
	100 13300.3 300
	300 13300.3 -300
	300 13300.3 -100
	300 13300.3 100
	300 13300.3 300
	-300 13500.5 -300
	-300 13500.5 -100
	-300 13500.5 100
	-300 13500.5 300
	-100 13500.5 -300
	-100 13500.5 -100
	-100 13500.5 100
	-100 13500.5 300
	100 13500.5 -300
	100 13500.5 -100
	100 13500.5 100
	100 13500.5 300
	300 13500.5 -300
	300 13500.5 -100
	300 13500.5 100
	300 13500.5 300
	-300 13700.8 -300
	-300 13700.8 -100
	-300 13700.8 100
	-300 13700.8 300
	-100 13700.8 -300
	-100 13700.8 -100
	-100 13700.8 100
	-100 13700.8 300
	100 13700.8 -300
	100 13700.8 -100
	100 13700.8 100
	100 13700.8 300
	300 13700.8 -300
	300 13700.8 -100
	300 13700.8 100
	300 13700.8 300
	-300 13901.5 -300
	-300 13901.5 -100
	-300 13901.5 100
	-300 13901.5 300
	-100 13901.5 -300
	-100 13901.5 -100
	-100 13901.5 100
	-100 13901.5 300
	100 13901.5 -300
	100 13901.5 -100
	100 13901.5 100
	100 13901.5 300
	300 13901.5 -300
	300 13901.5 -100
	300 13901.5 100
	300 13901.5 300
  </DataArray>
</Points>
<PointData  Vectors="vector">
  <DataArray type="Float32" Name="Velocity" NumberOfComponents="3" format="ascii">
 1.70709e-12 -0.000547167 7.8297e-12
 -6.04776e-12 -0.000547167 4.99881e-12
 -1.2352e-11 -0.000547167 9.34548e-12
 -4.50118e-14 -0.000547167 -2.25931e-12
 -7.94881e-12 -0.000547167 4.6892e-12
 -1.88419e-11 -0.000547167 -1.22998e-12
 -1.48105e-11 -0.000547167 -2.87181e-13
 -1.46043e-11 -0.000547167 1.14883e-11
 -6.79486e-12 -0.000547167 1.30811e-12
 -2.01153e-11 -0.000547167 2.21976e-12
 -2.538e-11 -0.000547167 -2.7778e-13
 -1.30121e-11 -0.000547167 8.47329e-13
 9.16696e-13 -0.000547167 -2.41913e-13
 1.84624e-13 -0.000547167 -7.19256e-12
 6.06462e-13 -0.000547167 -4.73543e-12
 -2.95917e-12 -0.000547167 5.98355e-12
 3.93575e-12 -0.000567736 -4.65477e-12
 7.9762e-12 -0.000567735 -2.51312e-12
 6.18334e-12 -0.000567736 -9.70575e-12
 6.83596e-12 -0.000567735 5.94977e-12
 1.41525e-11 -0.000567736 5.36252e-13
 4.37838e-12 -0.000567735 -1.79773e-12
 5.57556e-12 -0.000567736 9.65828e-13
 9.48336e-12 -0.000567735 -7.12729e-12
 1.21764e-11 -0.000567736 -4.60506e-12
 7.01937e-12 -0.000567735 -1.50045e-12
 1.13485e-11 -0.000567736 8.24127e-13
 9.33831e-12 -0.000567735 -3.5773e-12
 4.883e-12 -0.000567736 1.90179e-12
 5.32147e-12 -0.000567735 -4.87198e-12
 3.21548e-13 -0.000567736 -8.49591e-12
 6.40979e-12 -0.000567735 -1.89339e-12
 -5.52627e-12 -0.00046691 6.18724e-13
 6.48491e-12 -0.00046691 -9.4685e-12
 5.38397e-12 -0.00046691 -9.46613e-12
 4.01394e-12 -0.00046691 -5.38651e-12
 2.13327e-11 -0.00046691 1.99019e-12
 1.20106e-11 -0.00046691 -9.44481e-12
 1.02077e-11 -0.00046691 -1.32377e-11
 1.14833e-11 -0.00046691 6.69187e-13
 1.25889e-11 -0.00046691 4.1706e-12
 1.06824e-11 -0.00046691 -6.0186e-12
 1.08435e-11 -0.00046691 -1.04866e-11
 1.17016e-11 -0.000466909 -7.6567e-12
 5.11116e-12 -0.00046691 1.21437e-12
 1.25152e-12 -0.00046691 -1.90729e-11
 3.31604e-12 -0.00046691 -9.96073e-12
 4.51598e-12 -0.00046691 5.63286e-12
 4.28154e-12 -0.00100889 -3.52544e-12
 3.21914e-12 -0.00100889 -2.22775e-11
 1.73487e-13 -0.00100889 -1.07949e-11
 5.22897e-14 -0.00100889 5.66633e-12
 5.13881e-12 -0.00100889 -6.35705e-12
 -3.73229e-12 -0.00100889 -1.47751e-11
 8.99006e-13 -0.00100889 -1.93387e-11
 3.45722e-12 -0.00100889 5.83439e-12
 5.39315e-12 -0.00100889 -5.41249e-12
 3.86132e-12 -0.00100889 -2.76898e-11
 6.58302e-14 -0.00100889 -1.27692e-11
 2.6374e-12 -0.00100889 7.62189e-12
 -5.49049e-13 -0.00100889 -4.29032e-12
 8.27641e-12 -0.00100889 -1.19151e-11
 6.82207e-12 -0.00100889 -1.64924e-11
 -8.28196e-13 -0.00100889 -5.80887e-12
 1.90347e-12 -0.000787273 -2.12965e-12
 1.99897e-12 -0.000787273 -1.97179e-11
 -3.0106e-13 -0.000787273 -1.25102e-11
 3.89568e-13 -0.000787273 3.43558e-12
 -4.75651e-12 -0.000787273 -8.77796e-12
 -4.22653e-13 -0.000787273 -1.14828e-11
 -3.35428e-12 -0.000787273 -1.00794e-11
 -4.66805e-12 -0.000787274 -5.35154e-12
 -2.71059e-13 -0.000787273 -9.19209e-12
 -8.89947e-13 -0.000787273 -1.3824e-11
 -5.05595e-13 -0.000787273 -2.47575e-11
 -4.01874e-12 -0.000787274 6.53982e-12
 5.63164e-12 -0.000787274 -6.71596e-12
 -1.69816e-13 -0.000787273 -1.46033e-11
 -9.62437e-13 -0.000787273 -1.11664e-11
 -6.88072e-13 -0.000787273 -9.37264e-12
 -3.09189e-13 -0.000388066 -2.42514e-12
 -3.51934e-13 -0.000388066 -4.61845e-12
 -1.44287e-12 -0.000388066 -5.76221e-12
 -2.18386e-12 -0.000388066 -2.67005e-12
 -5.90779e-12 -0.000388066 -1.42911e-12
 -7.56622e-12 -0.000388066 -5.89163e-12
 -7.99111e-12 -0.000388066 -7.73949e-12
 -8.34393e-12 -0.000388066 -2.64898e-12
 -6.62802e-12 -0.000388066 -1.58821e-13
 -1.10366e-11 -0.000388066 -7.84209e-12
 -9.08961e-12 -0.000388066 -8.76497e-12
 -1.3511e-11 -0.000388066 -4.94929e-12
 -1.27231e-12 -0.000388066 -3.72142e-12
 2.88308e-12 -0.000388066 -1.54792e-11
 -1.45597e-12 -0.000388066 -7.56169e-12
 2.78145e-12 -0.000388067 3.92533e-12
 -1.79486e-12 -0.000223081 -2.01772e-13
 -3.42389e-12 -0.000223081 -1.49473e-12
 -2.93485e-12 -0.000223081 -8.95464e-13
 -5.24553e-12 -0.000223081 -1.24809e-12
 -6.8447e-12 -0.000223081 -1.816e-12
 -5.92671e-12 -0.000223081 -1.30013e-12
 -7.30367e-12 -0.000223081 -4.02905e-13
 -4.0109e-12 -0.000223081 -8.06288e-14
 -6.73785e-12 -0.000223081 -1.47568e-12
 -5.6147e-12 -0.000223081 -2.48817e-12
 -7.00262e-12 -0.000223081 -1.96318e-12
 -7.73994e-12 -0.000223081 -5.44568e-13
 -2.4456e-12 -0.000223081 -4.28293e-12
 -3.00042e-12 -0.000223081 -1.41188e-12
 -3.55005e-12 -0.000223081 -7.43765e-12
 -3.4722e-12 -0.000223081 6.36763e-12
 7.62047e-13 -0.000889117 -2.65935e-12
 -3.72214e-13 -0.000889117 3.26405e-12
 -6.67011e-13 -0.000889117 4.2794e-12
 -7.24129e-13 -0.000889117 2.3601e-13
 5.30364e-13 -0.000889117 1.3904e-12
 2.21773e-12 -0.000889117 2.78909e-12
 1.32589e-12 -0.000889117 2.46759e-12
 2.14967e-12 -0.000889118 8.43358e-14
 6.71274e-13 -0.000889117 1.46754e-12
 -1.0516e-12 -0.000889117 2.5088e-12
 3.2896e-12 -0.000889117 2.4152e-12
 3.16589e-12 -0.000889118 -2.8559e-13
 3.27688e-13 -0.000889118 -1.77292e-12
 3.04325e-12 -0.000889117 5.40093e-12
 -7.14822e-13 -0.000889118 2.67286e-12
 -4.04255e-13 -0.000889117 5.62639e-13
 -1.3294e-12 -0.00147355 1.43658e-12
 1.29829e-13 -0.00147355 3.4117e-12
 8.16991e-13 -0.00147355 3.71067e-12
 -8.00801e-13 -0.00147355 8.63237e-13
 3.14252e-12 -0.00147355 -8.29926e-13
 5.17043e-12 -0.00147355 6.80624e-12
 5.19567e-12 -0.00147355 4.27257e-12
 6.79968e-12 -0.00147355 1.12619e-12
 6.55884e-12 -0.00147355 2.08568e-12
 6.26229e-12 -0.00147355 5.69186e-12
 5.37034e-12 -0.00147355 4.50921e-12
 6.86851e-12 -0.00147355 8.64594e-13
 7.26862e-13 -0.00147355 1.00717e-12
 -1.89278e-13 -0.00147355 5.43856e-12
 1.79703e-12 -0.00147355 6.35304e-12
 1.48012e-12 -0.00147355 1.75624e-12
 1.33818e-13 -0.000292885 -1.57841e-12
 9.13602e-13 -0.000292885 3.75995e-12
 5.3105e-13 -0.000292885 1.7337e-12
 3.76779e-13 -0.000292885 1.59586e-12
 4.5642e-12 -0.000292885 1.00268e-12
 5.4267e-12 -0.000292885 2.35269e-12
 6.51719e-12 -0.000292885 2.48096e-12
 7.13269e-12 -0.000292885 1.33883e-12
 6.56376e-12 -0.000292885 3.2062e-13
 5.74708e-12 -0.000292885 2.5472e-12
 6.12925e-12 -0.000292885 3.90558e-12
 7.17732e-12 -0.000292885 1.77722e-12
 1.85282e-13 -0.000292885 1.99329e-12
 1.08952e-12 -0.000292885 2.91924e-12
 1.39096e-12 -0.000292885 2.84642e-12
 6.38188e-13 -0.000292885 1.58475e-12
 -8.50813e-13 -0.00054967 8.9942e-13
 -7.13967e-13 -0.00054967 -1.24406e-13
 1.39641e-12 -0.00054967 5.97482e-13
 1.08701e-13 -0.00054967 7.17464e-13
 3.14598e-12 -0.00054967 2.75364e-13
 5.31921e-12 -0.00054967 5.14873e-13
 4.68292e-12 -0.00054967 9.86747e-13
 5.02423e-12 -0.00054967 8.22773e-13
 5.81192e-12 -0.00054967 -1.53795e-12
 4.7692e-12 -0.00054967 3.57372e-12
 4.65048e-12 -0.00054967 1.4883e-12
 6.03868e-12 -0.00054967 8.78735e-13
 1.61372e-12 -0.00054967 7.82738e-13
 9.20112e-13 -0.00054967 9.25948e-13
 1.39524e-12 -0.00054967 1.45859e-12
 8.09816e-13 -0.00054967 1.1351e-12
 -5.16468e-13 1.66794e-05 -5.99647e-13
 -8.69012e-13 1.66793e-05 1.77246e-14
 -3.87873e-13 1.66793e-05 -1.4386e-12
 4.8134e-14 1.66793e-05 2.05363e-12
 1.1316e-12 1.66794e-05 -2.01392e-13
 7.69427e-13 1.66794e-05 1.50852e-13
 6.42831e-13 1.66794e-05 3.15944e-13
 8.21108e-13 1.66794e-05 -1.03855e-12
 1.72712e-12 1.66794e-05 -8.14802e-14
 2.2889e-12 1.66793e-05 2.39684e-13
 2.1428e-12 1.66794e-05 -6.03253e-14
 2.40835e-13 1.66794e-05 -6.12689e-13
 1.00489e-14 1.66794e-05 -3.93192e-13
 -3.89986e-13 1.66794e-05 -8.39779e-13
 -3.10375e-13 1.66794e-05 -2.71159e-12
 6.18929e-14 1.66794e-05 2.74383e-12
 -5.28264e-13 -0.000143697 -1.26159e-12
 -1.43378e-12 -0.000143696 -8.87249e-14
 -1.58089e-12 -0.000143697 1.07499e-12
 5.45958e-13 -0.000143697 3.95353e-13
 8.27706e-13 -0.000143697 1.89132e-14
 -6.70583e-13 -0.000143696 -6.02066e-13
 -7.89731e-13 -0.000143696 4.87607e-14
 -2.03493e-12 -0.000143696 -6.88015e-13
 -6.99889e-13 -0.000143697 -6.21752e-13
 2.93994e-13 -0.000143696 -9.97235e-13
 -3.57225e-13 -0.000143696 9.24067e-14
 -1.83798e-12 -0.000143696 -6.10953e-13
 -7.2376e-13 -0.000143697 -5.022e-13
 -2.28918e-13 -0.000143696 -1.24512e-12
 -2.0704e-13 -0.000143696 -2.88106e-12
 -8.11431e-13 -0.000143696 1.71788e-12
 -1.64167e-12 -0.000970762 2.95425e-13
 -7.91627e-13 -0.000970762 6.15605e-13
 -7.93519e-13 -0.000970762 6.15145e-13
 -1.16607e-12 -0.000970762 -7.44569e-13
 -1.7468e-12 -0.000970762 -2.95494e-13
 -2.44587e-12 -0.000970762 2.02466e-13
 -3.69965e-12 -0.000970762 -1.48919e-12
 -2.32104e-12 -0.000970762 1.44073e-12
 -1.14838e-12 -0.000970762 -1.24967e-12
 -2.50723e-12 -0.000970762 6.81925e-13
 -1.53381e-12 -0.000970762 -9.97121e-13
 -2.98477e-12 -0.000970762 1.00079e-12
 5.6712e-14 -0.000970762 3.39168e-14
 1.07262e-12 -0.000970762 -1.05405e-13
 9.24178e-13 -0.000970762 -3.97591e-13
 5.3219e-13 -0.000970762 -1.60234e-13
 -6.57927e-13 -0.00169498 5.20679e-13
 -9.55577e-13 -0.00169498 2.45497e-13
 -1.40245e-12 -0.00169498 5.92737e-13
 -1.10498e-12 -0.00169498 -8.39998e-14
 -1.50644e-12 -0.00169498 -1.5364e-12
 -1.23305e-12 -0.00169498 2.17056e-12
 -1.42226e-12 -0.00169498 4.38675e-13
 -2.47509e-12 -0.00169498 -1.33426e-13
 -1.78275e-12 -0.00169498 -8.57408e-13
 -3.01257e-12 -0.00169498 1.28481e-12
 -1.01828e-12 -0.00169498 2.07446e-13
 -2.11805e-12 -0.00169498 -4.84007e-13
 -4.91037e-13 -0.00169498 3.2973e-13
 1.11176e-12 -0.00169498 4.25277e-13
 -1.05251e-12 -0.00169498 4.19572e-13
 6.43819e-13 -0.00169498 -4.86297e-13
 -1.29459e-12 0.000197794 -1.72729e-12
 -2.75907e-13 0.000197794 6.93206e-13
 -9.02418e-13 0.000197794 -8.65971e-13
 -7.64979e-13 0.000197794 4.90231e-13
 -8.36204e-13 0.000197794 -1.44372e-12
 -7.34843e-13 0.000197794 5.89703e-13
 -8.09041e-13 0.000197794 -6.23867e-13
 4.64919e-14 0.000197794 4.30888e-13
 -9.06656e-13 0.000197794 -1.46538e-12
 -3.15057e-13 0.000197794 -6.86689e-13
 -1.28481e-12 0.000197794 7.09796e-13
 -3.30133e-13 0.000197794 2.89569e-13
 4.31317e-13 0.000197794 -1.71661e-12
 -4.48774e-13 0.000197794 -3.22699e-13
 1.14636e-12 0.000197794 7.50919e-13
 -4.37214e-13 0.000197793 8.9227e-13
 -7.92307e-13 -0.00107398 -2.03541e-12
 -4.47707e-13 -0.00107398 -8.99052e-13
 -8.24036e-13 -0.00107398 -1.68606e-13
 -4.22173e-13 -0.00107398 3.68063e-13
 -1.71388e-12 -0.00107398 -1.25874e-12
 1.29529e-13 -0.00107398 -3.84607e-13
 4.24809e-13 -0.00107398 -3.7889e-13
 1.60261e-13 -0.00107398 2.91952e-15
 -4.83996e-13 -0.00107398 -1.15656e-12
 4.97592e-14 -0.00107398 -3.04161e-13
 8.48943e-13 -0.00107398 6.04477e-14
 1.25704e-12 -0.00107398 5.74312e-14
 1.71082e-12 -0.00107398 -1.21694e-12
 -1.76793e-13 -0.00107398 6.79888e-13
 -1.79724e-13 -0.00107398 -1.3438e-13
 -4.69751e-14 -0.00107398 2.02058e-14
 -3.88621e-13 -0.00146145 4.80173e-13
 -7.67953e-13 -0.00146145 -9.9935e-13
 -5.92233e-13 -0.00146145 -5.82315e-13
 -6.34616e-13 -0.00146145 -9.51662e-14
 9.1635e-13 -0.00146145 -8.82062e-13
 8.64532e-13 -0.00146145 4.97617e-14
 7.17697e-13 -0.00146145 -6.54258e-13
 1.2807e-12 -0.00146145 5.92565e-13
 4.66638e-13 -0.00146145 -1.36866e-12
 1.06415e-12 -0.00146145 -4.21247e-13
 1.25404e-12 -0.00146145 6.29117e-13
 1.58315e-12 -0.00146145 6.59711e-13
 3.06361e-13 -0.00146145 5.10544e-13
 -2.17573e-14 -0.00146145 -3.33252e-13
 1.7827e-13 -0.00146145 -5.26581e-13
 -6.89254e-14 -0.00146145 -4.43834e-14
 -8.00908e-13 -0.000668523 -1.17063e-12
 -6.88578e-13 -0.000668523 6.48964e-13
 -1.7153e-13 -0.000668523 -1.19054e-12
 -1.00355e-12 -0.000668523 7.4261e-13
 1.5831e-14 -0.000668523 -1.104e-12
 1.33499e-12 -0.000668523 5.44301e-13
 9.13868e-13 -0.000668523 -7.44439e-13
 1.91608e-12 -0.000668523 2.15544e-13
 1.42146e-12 -0.000668523 -9.95275e-13
 4.56737e-13 -0.000668523 -6.22628e-13
 1.00359e-12 -0.000668523 7.81526e-13
 1.06701e-12 -0.000668523 2.22559e-13
 1.72802e-12 -0.000668523 -1.24584e-12
 5.33175e-13 -0.000668523 1.00631e-12
 3.83323e-13 -0.000668523 -8.87857e-13
 2.58419e-13 -0.000668523 8.46219e-14
 -5.07518e-13 -0.0018193 -1.30928e-12
 -5.85972e-13 -0.0018193 -1.57794e-12
 1.05789e-13 -0.0018193 -1.33725e-12
 3.56606e-13 -0.0018193 -7.45439e-13
 1.69869e-12 -0.0018193 -2.36781e-12
 -7.76613e-13 -0.0018193 -4.58623e-13
 -8.47206e-13 -0.0018193 -1.89885e-12
 2.66591e-13 -0.0018193 -1.69723e-13
 1.89161e-12 -0.0018193 -2.07852e-12
 1.51453e-12 -0.0018193 -1.07079e-12
 8.51572e-13 -0.0018193 -1.78625e-12
 -4.39917e-13 -0.0018193 -1.56425e-13
 -5.70689e-13 -0.0018193 -3.0008e-12
 2.00417e-12 -0.0018193 -2.59916e-12
 1.77881e-12 -0.0018193 -6.97096e-13
 1.24731e-12 -0.0018193 5.25598e-13
 0 -0.000537327 0
 0 -0.000537327 0
 0 -0.000537327 0
 0 -0.000537327 0
 0 -0.000537327 0
 0 -0.000537327 0
 0 -0.000537327 0
 0 -0.000537327 0
 0 -0.000537327 0
 0 -0.000537327 0
 0 -0.000537327 0
 0 -0.000537327 0
 0 -0.000537327 0