<?xml version="1.0"?>
<VTKFile type="UnstructuredGrid" version="0.1" byte_order="LittleEndian" compressor="vtkZLibDataCompressor">
<UnstructuredGrid>
<Piece NumberOfPoints="960" NumberOfCells="120">
<Points>
<DataArray type="Float32" NumberOfComponents="3" format="ascii">
-4.000000e+02 -6.000000e+03 -4.000000e+02
0.000000e+00 -6.000000e+03 -4.000000e+02
-4.000000e+02 -5.600000e+03 -4.000000e+02
-4.616360e-11 -5.600000e+03 -4.000000e+02
-4.000000e+02 -6.000000e+03 0.000000e+00
0.000000e+00 -6.000000e+03 0.000000e+00
-4.000000e+02 -5.600000e+03 5.446320e-11
-7.503580e-11 -5.600000e+03 1.793200e-11
0.000000e+00 -6.000000e+03 -4.000000e+02
4.000000e+02 -6.000000e+03 -4.000000e+02
-4.616360e-11 -5.600000e+03 -4.000000e+02
4.000000e+02 -5.600000e+03 -4.000000e+02
0.000000e+00 -6.000000e+03 0.000000e+00
4.000000e+02 -6.000000e+03 0.000000e+00
-7.503580e-11 -5.600000e+03 1.793200e-11
4.000000e+02 -5.600000e+03 1.444880e-10
-4.000000e+02 -5.600000e+03 -4.000000e+02
-4.616360e-11 -5.600000e+03 -4.000000e+02
-4.000000e+02 -5.200000e+03 -4.000000e+02
5.820080e-11 -5.200000e+03 -4.000000e+02
-4.000000e+02 -5.600000e+03 5.446320e-11
-7.503580e-11 -5.600000e+03 1.793200e-11
-4.000000e+02 -5.200000e+03 -6.387240e-11
1.284290e-10 -5.200000e+03 -1.828350e-10
-4.616360e-11 -5.600000e+03 -4.000000e+02
4.000000e+02 -5.600000e+03 -4.000000e+02
5.820080e-11 -5.200000e+03 -4.000000e+02
4.000000e+02 -5.200000e+03 -4.000000e+02
-7.503580e-11 -5.600000e+03 1.793200e-11
4.000000e+02 -5.600000e+03 1.444880e-10
1.284290e-10 -5.200000e+03 -1.828350e-10
4.000000e+02 -5.200000e+03 3.142460e-10
-4.000000e+02 -5.200000e+03 -4.000000e+02
5.820080e-11 -5.200000e+03 -4.000000e+02
-4.000000e+02 -4.800000e+03 -4.000000e+02
5.146220e-10 -4.800000e+03 -4.000000e+02
-4.000000e+02 -5.200000e+03 -6.387240e-11
1.284290e-10 -5.200000e+03 -1.828350e-10
-4.000000e+02 -4.800000e+03 2.005380e-11
2.492080e-10 -4.800000e+03 3.638820e-10
5.820080e-11 -5.200000e+03 -4.000000e+02
4.000000e+02 -5.200000e+03 -4.000000e+02
5.146220e-10 -4.800000e+03 -4.000000e+02
4.000000e+02 -4.800000e+03 -4.000000e+02
1.284290e-10 -5.200000e+03 -1.828350e-10
4.000000e+02 -5.200000e+03 3.142460e-10
2.492080e-10 -4.800000e+03 3.638820e-10
4.000000e+02 -4.800000e+03 6.331510e-10
-4.000000e+02 -4.800000e+03 -4.000000e+02
5.146220e-10 -4.800000e+03 -4.000000e+02
-4.000000e+02 -4.400000e+03 -4.000000e+02
1.118600e-09 -4.400000e+03 -4.000000e+02
-4.000000e+02 -4.800000e+03 2.005380e-11
2.492080e-10 -4.800000e+03 3.638820e-10
-4.000000e+02 -4.400000e+03 -2.238750e-10
3.113720e-10 -4.400000e+03 1.238580e-10
5.146220e-10 -4.800000e+03 -4.000000e+02
4.000000e+02 -4.800000e+03 -4.000000e+02
1.118600e-09 -4.400000e+03 -4.000000e+02
4.000000e+02 -4.400000e+03 -4.000000e+02
2.492080e-10 -4.800000e+03 3.638820e-10
4.000000e+02 -4.800000e+03 6.331510e-10
3.113720e-10 -4.400000e+03 1.238580e-10
4.000000e+02 -4.400000e+03 -1.573660e-10
-4.000000e+02 -4.400000e+03 -4.000000e+02
1.118600e-09 -4.400000e+03 -4.000000e+02
-4.000000e+02 -4.000000e+03 -4.000000e+02
8.001120e-10 -4.000000e+03 -4.000000e+02
-4.000000e+02 -4.400000e+03 -2.238750e-10
3.113720e-10 -4.400000e+03 1.238580e-10
-4.000000e+02 -4.000000e+03 -7.948920e-10
4.766820e-10 -4.000000e+03 -3.888090e-10
1.118600e-09 -4.400000e+03 -4.000000e+02
4.000000e+02 -4.400000e+03 -4.000000e+02
8.001120e-10 -4.000000e+03 -4.000000e+02
4.000000e+02 -4.000000e+03 -4.000000e+02
3.113720e-10 -4.400000e+03 1.238580e-10
4.000000e+02 -4.400000e+03 -1.573660e-10
4.766820e-10 -4.000000e+03 -3.888090e-10
4.000000e+02 -4.000000e+03 7.852050e-11
-4.000000e+02 -4.000000e+03 -4.000000e+02
8.001120e-10 -4.000000e+03 -4.000000e+02
-4.000000e+02 -3.600010e+03 -4.000000e+02
8.975200e-10 -3.600010e+03 -4.000000e+02
-4.000000e+02 -4.000000e+03 -7.948920e-10
4.766820e-10 -4.000000e+03 -3.888090e-10
-4.000000e+02 -3.600010e+03 -9.094970e-10
6.935470e-10 -3.600010e+03 -6.579610e-10
8.001120e-10 -4.000000e+03 -4.000000e+02
4.000000e+02 -4.000000e+03 -4.000000e+02
8.975200e-10 -3.600010e+03 -4.000000e+02
4.000000e+02 -3.600010e+03 -4.000000e+02
4.766820e-10 -4.000000e+03 -3.888090e-10
4.000000e+02 -4.000000e+03 7.852050e-11
6.935470e-10 -3.600010e+03 -6.579610e-10
4.000000e+02 -3.600010e+03 -1.675320e-10
-4.000000e+02 -3.600010e+03 -4.000000e+02
8.975200e-10 -3.600010e+03 -4.000000e+02
-4.000000e+02 -3.200010e+03 -4.000000e+02
9.561210e-10 -3.200010e+03 -4.000000e+02
-4.000000e+02 -3.600010e+03 -9.094970e-10
6.935470e-10 -3.600010e+03 -6.579610e-10
-4.000000e+02 -3.200010e+03 -1.598730e-09
5.941150e-10 -3.200010e+03 -1.033610e-09
8.975200e-10 -3.600010e+03 -4.000000e+02
4.000000e+02 -3.600010e+03 -4.000000e+02
9.561210e-10 -3.200010e+03 -4.000000e+02
4.000000e+02 -3.200010e+03 -4.000000e+02
6.935470e-10 -3.600010e+03 -6.579610e-10
4.000000e+02 -3.600010e+03 -1.675320e-10
5.941150e-10 -3.200010e+03 -1.033610e-09
4.000000e+02 -3.200010e+03 -1.021770e-09
-4.000000e+02 -3.200010e+03 -4.000000e+02
9.561210e-10 -3.200010e+03 -4.000000e+02
-4.000000e+02 -2.800010e+03 -4.000000e+02
1.339490e-09 -2.800010e+03 -4.000000e+02
-4.000000e+02 -3.200010e+03 -1.598730e-09
5.941150e-10 -3.200010e+03 -1.033610e-09
-4.000000e+02 -2.800010e+03 -2.357400e-09
6.438180e-10 -2.800010e+03 -1.747290e-09
9.561210e-10 -3.200010e+03 -4.000000e+02
4.000000e+02 -3.200010e+03 -4.000000e+02
1.339490e-09 -2.800010e+03 -4.000000e+02
4.000000e+02 -2.800010e+03 -4.000000e+02
5.941150e-10 -3.200010e+03 -1.033610e-09
4.000000e+02 -3.200010e+03 -1.021770e-09
6.438180e-10 -2.800010e+03 -1.747290e-09
4.000000e+02 -2.800010e+03 -1.313280e-09
-4.000000e+02 -2.800010e+03 -4.000000e+02
1.339490e-09 -2.800010e+03 -4.000000e+02
-4.000000e+02 -2.400010e+03 -4.000000e+02
1.223770e-09 -2.400010e+03 -4.000000e+02
-4.000000e+02 -2.800010e+03 -2.357400e-09
6.438180e-10 -2.800010e+03 -1.747290e-09
-4.000000e+02 -2.400010e+03 -2.584330e-09
1.131540e-09 -2.400010e+03 -1.851910e-09
1.339490e-09 -2.800010e+03 -4.000000e+02
4.000000e+02 -2.800010e+03 -4.000000e+02
1.223770e-09 -2.400010e+03 -4.000000e+02
4.000000e+02 -2.400010e+03 -4.000000e+02
6.438180e-10 -2.800010e+03 -1.747290e-09
4.000000e+02 -2.800010e+03 -1.313280e-09
1.131540e-09 -2.400010e+03 -1.851910e-09
4.000000e+02 -2.400010e+03 -1.280770e-09
-4.000000e+02 -2.400010e+03 -4.000000e+02
1.223770e-09 -2.400010e+03 -4.000000e+02
-4.000000e+02 -2.000010e+03 -4.000000e+02
1.194200e-09 -2.000010e+03 -4.000000e+02
-4.000000e+02 -2.400010e+03 -2.584330e-09
1.131540e-09 -2.400010e+03 -1.851910e-09
-4.000000e+02 -2.000010e+03 -1.357680e-09
9.020870e-10 -2.000010e+03 -8.439920e-10
1.223770e-09 -2.400010e+03 -4.000000e+02
4.000000e+02 -2.400010e+03 -4.000000e+02
1.194200e-09 -2.000010e+03 -4.000000e+02
4.000000e+02 -2.000010e+03 -4.000000e+02
1.131540e-09 -2.400010e+03 -1.851910e-09
4.000000e+02 -2.400010e+03 -1.280770e-09
9.020870e-10 -2.000010e+03 -8.439920e-10
4.000000e+02 -2.000010e+03 -7.002960e-10
-4.000000e+02 -2.000010e+03 -4.000000e+02
1.194200e-09 -2.000010e+03 -4.000000e+02
-4.000000e+02 -1.600020e+03 -4.000000e+02
9.565180e-10 -1.600020e+03 -4.000000e+02
-4.000000e+02 -2.000010e+03 -1.357680e-09
9.020870e-10 -2.000010e+03 -8.439920e-10
-4.000000e+02 -1.600020e+03 -4.545460e-10
6.864470e-10 -1.600020e+03 -8.181720e-11
1.194200e-09 -2.000010e+03 -4.000000e+02
4.000000e+02 -2.000010e+03 -4.000000e+02
9.565180e-10 -1.600020e+03 -4.000000e+02
4.000000e+02 -1.600020e+03 -4.000000e+02
9.020870e-10 -2.000010e+03 -8.439920e-10
4.000000e+02 -2.000010e+03 -7.002960e-10
6.864470e-10 -1.600020e+03 -8.181720e-11
4.000000e+02 -1.600020e+03 9.130200e-11
-4.000000e+02 -1.600020e+03 -4.000000e+02
9.565180e-10 -1.600020e+03 -4.000000e+02
-4.000000e+02 -1.200020e+03 -4.000000e+02
3.005990e-10 -1.200020e+03 -4.000000e+02
-4.000000e+02 -1.600020e+03 -4.545460e-10
6.864470e-10 -1.600020e+03 -8.181720e-11
-4.000000e+02 -1.200020e+03 -7.211070e-11
3.524670e-10 -1.200020e+03 5.551620e-11
9.565180e-10 -1.600020e+03 -4.000000e+02
4.000000e+02 -1.600020e+03 -4.000000e+02
3.005990e-10 -1.200020e+03 -4.000000e+02
4.000000e+02 -1.200020e+03 -4.000000e+02
6.864470e-10 -1.600020e+03 -8.181720e-11
4.000000e+02 -1.600020e+03 9.130200e-11
3.524670e-10 -1.200020e+03 5.551620e-11
4.000000e+02 -1.200020e+03 5.143950e-10
-4.000000e+02 -1.200020e+03 -4.000000e+02
3.005990e-10 -1.200020e+03 -4.000000e+02
-4.000000e+02 -8.000300e+02 -4.000000e+02
6.906430e-13 -8.000300e+02 -4.000000e+02
-4.000000e+02 -1.200020e+03 -7.211070e-11
3.524670e-10 -1.200020e+03 5.551620e-11
-4.000000e+02 -8.000300e+02 -2.933050e-11
4.959610e-11 -8.000300e+02 -7.657870e-11
3.005990e-10 -1.200020e+03 -4.000000e+02
4.000000e+02 -1.200020e+03 -4.000000e+02
6.906430e-13 -8.000300e+02 -4.000000e+02
4.000000e+02 -8.000300e+02 -4.000000e+02
3.524670e-10 -1.200020e+03 5.551620e-11
4.000000e+02 -1.200020e+03 5.143950e-10
4.959610e-11 -8.000300e+02 -7.657870e-11
4.000000e+02 -8.000300e+02 6.432900e-12
-4.000000e+02 -8.000300e+02 -4.000000e+02
6.906430e-13 -8.000300e+02 -4.000000e+02
-4.000000e+02 -4.000470e+02 -4.000000e+02
1.872370e-10 -4.000470e+02 -4.000000e+02
-4.000000e+02 -8.000300e+02 -2.933050e-11
4.959610e-11 -8.000300e+02 -7.657870e-11
-4.000000e+02 -4.000470e+02 -2.222170e-10
4.472990e-11 -4.000470e+02 -2.280120e-10
6.906430e-13 -8.000300e+02 -4.000000e+02
4.000000e+02 -8.000300e+02 -4.000000e+02
1.872370e-10 -4.000470e+02 -4.000000e+02
4.000000e+02 -4.000470e+02 -4.000000e+02
4.959610e-11 -8.000300e+02 -7.657870e-11
4.000000e+02 -8.000300e+02 6.432900e-12
4.472990e-11 -4.000470e+02 -2.280120e-10
4.000000e+02 -4.000470e+02 2.058910e-11
-4.000000e+02 -4.000470e+02 -4.000000e+02
1.872370e-10 -4.000470e+02 -4.000000e+02
-4.000000e+02 -7.594920e-02 -4.000000e+02
2.039120e-10 -7.594920e-02 -4.000000e+02
-4.000000e+02 -4.000470e+02 -2.222170e-10
4.472990e-11 -4.000470e+02 -2.280120e-10
-4.000000e+02 -7.594920e-02 1.663340e-10
2.321300e-10 -7.594920e-02 4.675000e-11
1.872370e-10 -4.000470e+02 -4.000000e+02
4.000000e+02 -4.000470e+02 -4.000000e+02
2.039120e-10 -7.594920e-02 -4.000000e+02
4.000000e+02 -7.594920e-02 -4.000000e+02
[...]
<PointData>
<DataArray type="Float32" Name="V1" format="ascii">
0.000000e+00
0.000000e+00
6.598730e-10
6.595090e-10
0.000000e+00
0.000000e+00
4.163480e-10
-5.612820e-10
0.000000e+00
0.000000e+00
6.595090e-10
5.498940e-10
0.000000e+00
0.000000e+00
-5.612820e-10
-9.426750e-10
6.598730e-10
6.595090e-10
-4.477710e-10
6.105290e-10
4.163480e-10
-5.612820e-10
-1.649680e-10
-2.278700e-10
6.595090e-10
5.498940e-10
6.105290e-10
4.477710e-10
-5.612820e-10
-9.426750e-10
-2.278700e-10
-8.641190e-11
-4.477710e-10
6.105290e-10
-2.199580e-10
-2.030040e-10
-1.649680e-10
-2.278700e-10
-3.377920e-10
3.202230e-10
6.105290e-10
4.477710e-10
-2.030040e-10
-1.178340e-10
-2.278700e-10
-8.641190e-11
3.202230e-10
6.912950e-10
-2.199580e-10
-2.030040e-10
1.013380e-09
2.744400e-10
-3.377920e-10
3.202230e-10
3.377920e-10
-4.143100e-10
-2.030040e-10
-1.178340e-10
2.744400e-10
-7.855630e-10
3.202230e-10
6.912950e-10
-4.143100e-10
-2.121020e-10
1.013380e-09
2.744400e-10
1.806790e-10
-3.483070e-10
3.377920e-10
-4.143100e-10
4.556260e-10
1.045880e-10
2.744400e-10
-7.855630e-10
-3.483070e-10
0.000000e+00
-4.143100e-10
-2.121020e-10
1.045880e-10
-6.441610e-10
1.806790e-10
-3.483070e-10
-5.498940e-11
1.603210e-10
4.556260e-10
1.045880e-10
1.335460e-10
-3.500670e-10
-3.483070e-10
0.000000e+00
1.603210e-10
-5.420380e-10
1.045880e-10
-6.441610e-10
-3.500670e-10
-1.571130e-11
-5.498940e-11
1.603210e-10
-4.949050e-10
-3.185810e-10
1.335460e-10
-3.500670e-10
4.242040e-10
-3.911560e-11
1.603210e-10
-5.420380e-10
-3.185810e-10
3.299360e-10
-3.500670e-10
-1.571130e-11
-3.911560e-11
-7.855630e-11
-4.949050e-10
-3.185810e-10
2.985140e-10
3.691570e-10
4.242040e-10
-3.911560e-11
-1.571130e-11
-2.983200e-10
-3.185810e-10
3.299360e-10
3.691570e-10
-3.142250e-11
-3.911560e-11
-7.855630e-11
-2.983200e-10
-1.492570e-10
2.985140e-10
3.691570e-10
-1.571130e-11
3.587110e-10
-1.571130e-11
-2.983200e-10
-3.770700e-10
-8.592850e-13
3.691570e-10
-3.142250e-11
3.587110e-10
7.698510e-10
-2.983200e-10
-1.492570e-10
-8.592850e-13
1.649680e-10
-1.571130e-11
3.587110e-10
-3.770700e-10
-4.327770e-10
-3.770700e-10
-8.592850e-13
3.377920e-10
5.766880e-10
3.587110e-10
7.698510e-10
-4.327770e-10
-5.263270e-10
-8.592850e-13
1.649680e-10
5.766880e-10
7.934180e-10
-3.770700e-10
-4.327770e-10
-2.356690e-10
-1.812870e-11
3.377920e-10
5.766880e-10
1.414010e-10
-6.153050e-12
-4.327770e-10
-5.263270e-10
-1.812870e-11
-1.571130e-10
5.766880e-10
7.934180e-10
-6.153050e-12
1.099790e-10
-2.356690e-10
-1.812870e-11
-1.963910e-10
-1.813510e-10
1.414010e-10
-6.153050e-12
-5.106160e-10
-3.905040e-11
-1.812870e-11
-1.571130e-10
-1.813510e-10
2.356690e-11
-6.153050e-12
1.099790e-10
-3.905040e-11
1.414010e-10
-1.963910e-10
-1.813510e-10
-6.284500e-11
-3.941070e-10
-5.106160e-10
-3.905040e-11
4.949050e-10
1.927270e-10
-1.813510e-10
2.356690e-11
-3.941070e-10
-9.898090e-10
-3.905040e-11
1.414010e-10
1.927270e-10
5.498940e-10
-6.284500e-11
-3.941070e-10
-5.106160e-10
-2.264650e-10
4.949050e-10
1.927270e-10
-4.634820e-10
-3.097860e-10
-3.941070e-10
-9.898090e-10
-2.264650e-10
-7.070060e-11
1.927270e-10
5.498940e-10
-3.097860e-10
4.556260e-10
-5.106160e-10
-2.264650e-10
1.492570e-10
-9.128680e-11
-4.634820e-10
-3.097860e-10
3.142250e-10
-3.466560e-10
-2.264650e-10
-7.070060e-11
-9.128680e-11
5.341830e-10
-3.097860e-10
4.556260e-10
-3.466560e-10
-5.656050e-10
1.492570e-10
-9.128680e-11
2.749470e-10
-4.476340e-11
3.142250e-10
-3.466560e-10
3.927810e-10
1.612730e-10
-9.128680e-11
5.341830e-10
-4.476340e-11
-4.477710e-10
-3.466560e-10
-5.656050e-10
1.612730e-10
7.462850e-10
2.749470e-10
-4.476340e-11
-4.242040e-10
3.663640e-10
3.927810e-10
1.612730e-10
-1.414010e-10
-2.535280e-10
-4.476340e-11
-4.477710e-10
3.663640e-10
3.770700e-10
1.612730e-10
7.462850e-10
-2.535280e-10
-3.927810e-11
-4.242040e-10
3.663640e-10
0.000000e+00
1.595440e-10
-1.414010e-10
-2.535280e-10
2.356690e-11
2.430680e-10
3.663640e-10
3.770700e-10
1.595440e-10
0.000000e+00
-2.535280e-10
-3.927810e-11
2.430680e-10
4.713380e-11
0.000000e+00
1.595440e-10
1.649680e-10
-1.498210e-10
2.356690e-11
2.430680e-10
-4.949050e-10
-8.112560e-11
1.595440e-10
0.000000e+00
-1.498210e-10
-1.728240e-10
2.430680e-10
4.713380e-11
-8.112560e-11
6.048830e-10
1.649680e-10
-1.498210e-10
1.571130e-10
8.998140e-11
-4.949050e-10
-8.112560e-11
3.692140e-10
5.962910e-11
-1.498210e-10
-1.728240e-10
8.998140e-11
0.000000e+00
-8.112560e-11
6.048830e-10
5.962910e-11
-2.121020e-10
1.571130e-10
8.998140e-11
1.099790e-10
-2.304650e-11
3.692140e-10
5.962910e-11
0.000000e+00
-1.108220e-11
8.998140e-11
0.000000e+00
-2.304650e-11
-1.571130e-10
5.962910e-11
-2.121020e-10
-1.108220e-11
-1.021230e-10
1.099790e-10
-2.304650e-11
-2.592360e-10
-3.890150e-11
0.000000e+00
-1.108220e-11
-1.649680e-10
-1.616820e-11
-2.304650e-11
-1.571130e-10
-3.890150e-11
1.256900e-10
-1.108220e-11
-1.021230e-10
-1.616820e-11
4.713380e-11
-2.592360e-10
-3.890150e-11
0.000000e+00
-3.093130e-11
-1.649680e-10
-1.616820e-11
0.000000e+00
-2.422790e-11
-3.890150e-11
1.256900e-10
-3.093130e-11
-5.498940e-11
-1.616820e-11
4.713380e-11
-2.422790e-11
0.000000e+00
0.000000e+00
-3.093130e-11
7.855630e-11
-4.960270e-11
0.000000e+00
-2.422790e-11
7.070060e-11
-2.243400e-11
-3.093130e-11
-5.498940e-11
-4.960270e-11
-1.885350e-10
-2.422790e-11
0.000000e+00
-2.243400e-11
-8.641190e-11
7.855630e-11
-4.960270e-11
-7.070060e-11
-2.090580e-11
7.070060e-11
-2.243400e-11
0.000000e+00
-1.135210e-13
-4.960270e-11
-1.885350e-10
-2.090580e-11
3.927810e-11
-2.243400e-11
-8.641190e-11
-1.135210e-13
7.855630e-12
-7.070060e-11
-2.090580e-11
0.000000e+00
6.699040e-12
0.000000e+00
-1.135210e-13
0.000000e+00
-1.208470e-11
-2.090580e-11
3.927810e-11
6.699040e-12
7.855630e-11
-1.135210e-13
7.855630e-12
-1.208470e-11
0.000000e+00
0.000000e+00
6.699040e-12
0.000000e+00
2.238820e-12
0.000000e+00
-1.208470e-11
0.000000e+00
4.390850e-14
6.699040e-12
7.855630e-11
2.238820e-12
0.000000e+00
-1.208470e-11
0.000000e+00
4.390850e-14
0.000000e+00
0.000000e+00
2.238820e-12
3.142250e-11
-8.076570e-12
0.000000e+00
4.390850e-14
7.855630e-12
-2.759890e-13
2.238820e-12
0.000000e+00
-8.076570e-12
-4.713380e-11
4.390850e-14
0.000000e+00
-2.759890e-13
-2.356690e-11
3.142250e-11
-8.076570e-12
0.000000e+00
1.861430e-13
7.855630e-12
-2.759890e-13
0.000000e+00
-4.084860e-12
-8.076570e-12
-4.713380e-11
1.861430e-13
0.000000e+00
-2.759890e-13
-2.356690e-11
-4.084860e-12
-1.571130e-11
0.000000e+00
1.861430e-13
0.000000e+00
-8.267250e-12
0.000000e+00
-4.084860e-12
-5.498940e-11
-8.235080e-12
1.861430e-13
0.000000e+00
-8.267250e-12
0.000000e+00
-4.084860e-12
-1.571130e-11
-8.235080e-12
2.356690e-11
0.000000e+00
0.000000e+00
4.163480e-10
-5.612820e-10
0.000000e+00
0.000000e+00
1.414010e-09
2.602310e-10
0.000000e+00
0.000000e+00
-5.612820e-10
-9.426750e-10
0.000000e+00
0.000000e+00
2.602310e-10
-5.656050e-10
4.163480e-10
-5.612820e-10
-1.649680e-10
-2.278700e-10
1.414010e-09
2.602310e-10
-4.163480e-10
6.548220e-10
-5.612820e-10
-9.426750e-10
-2.278700e-10
-8.641190e-11
2.602310e-10
-5.656050e-10
6.548220e-10
7.855630e-10
-1.649680e-10
-2.278700e-10
-3.377920e-10
3.202230e-10
-4.163480e-10
6.548220e-10
-4.634820e-10
-2.226730e-11
-2.278700e-10
-8.641190e-11
3.202230e-10
6.912950e-10
6.548220e-10
7.855630e-10
-2.226730e-11
-3.377920e-10
-3.377920e-10
3.202230e-10
3.377920e-10
-4.143100e-10
-4.634820e-10
-2.226730e-11
5.734610e-10
-2.085280e-10
3.202230e-10
6.912950e-10
-4.143100e-10
-2.121020e-10
-2.226730e-11
-3.377920e-10
-2.085280e-10
-4.713380e-10
3.377920e-10
-4.143100e-10
4.556260e-10
1.045880e-10
5.734610e-10
-2.085280e-10
-3.456480e-10
-2.948410e-10
-4.143100e-10
-2.121020e-10
1.045880e-10
-6.441610e-10
-2.085280e-10
-4.713380e-10
-2.948410e-10
-2.985140e-10
4.556260e-10
1.045880e-10
1.335460e-10
-3.500670e-10
-3.456480e-10
-2.948410e-10
6.048830e-10
5.768110e-10
1.045880e-10
-6.441610e-10
-3.500670e-10
-1.571130e-11
-2.948410e-10
-2.985140e-10
5.768110e-10
3.220810e-10
1.335460e-10
-3.500670e-10
4.242040e-10
-3.911560e-11
6.048830e-10
5.768110e-10
-5.263270e-10
-2.684130e-10
-3.500670e-10
-1.571130e-11
-3.911560e-11
-7.855630e-11
5.768110e-10
3.220810e-10
-2.684130e-10
-2.749470e-10
4.242040e-10
-3.911560e-11
-1.571130e-11
-2.983200e-10
-5.263270e-10
-2.684130e-10
2.278130e-10
-1.617110e-10
-3.911560e-11
-7.855630e-11
-2.983200e-10
-1.492570e-10
-2.684130e-10
-2.749470e-10
-1.617110e-10
-5.341830e-10
-1.571130e-11
-2.983200e-10
-3.770700e-10
-8.592850e-13
2.278130e-10
-1.617110e-10
-9.505310e-10
-4.042740e-11
-2.983200e-10
-1.492570e-10
-8.592850e-13
1.649680e-10
-1.617110e-10
-5.341830e-10
-4.042740e-11
4.163480e-10
-3.770700e-10
-8.592850e-13
3.377920e-10
5.766880e-10
-9.505310e-10
-4.042740e-11
3.692140e-10
-4.499870e-10
-8.592850e-13
1.649680e-10
5.766880e-10
7.934180e-10
-4.042740e-11
4.163480e-10
-4.499870e-10
-3.927810e-11
3.377920e-10
5.766880e-10
1.414010e-10
-6.153050e-12
3.692140e-10
-4.499870e-10
-9.426750e-11
-8.236610e-11
5.766880e-10
7.934180e-10
-6.153050e-12
1.099790e-10
-4.499870e-10
-3.927810e-11
-8.236610e-11
-2.670910e-10
1.414010e-10
-6.153050e-12
-5.106160e-10
-3.905040e-11
-9.426750e-11
-8.236610e-11
2.435240e-10
9.317910e-11
-6.153050e-12
1.099790e-10
-3.905040e-11
1.414010e-10
-8.236610e-11
-2.670910e-10
9.317910e-11
5.263270e-10
-5.106160e-10
-3.905040e-11
4.949050e-10
1.927270e-10
2.435240e-10
9.317910e-11
-2.199580e-10
2.384230e-10
-3.905040e-11
1.414010e-10
1.927270e-10
5.498940e-10
9.317910e-11
5.263270e-10
2.384230e-10
6.284500e-11
4.949050e-10
1.927270e-10
-4.634820e-10
-3.097860e-10
-2.199580e-10
2.384230e-10
-5.027600e-10
-4.043500e-10
1.927270e-10
5.498940e-10
-3.097860e-10
4.556260e-10
2.384230e-10
6.284500e-11
-4.043500e-10
0.000000e+00
-4.634820e-10
-3.097860e-10
3.142250e-10
-3.466560e-10
-5.027600e-10
-4.043500e-10
8.641190e-11
2.253500e-10
-3.097860e-10
4.556260e-10
-3.466560e-10
-5.656050e-10
-4.043500e-10
0.000000e+00
2.253500e-10
-1.571130e-11
3.142250e-10
-3.466560e-10
3.927810e-10
1.612730e-10
8.641190e-11
2.253500e-10
7.855630e-11
9.771850e-11
-3.466560e-10
-5.656050e-10
1.612730e-10
7.462850e-10
2.253500e-10
-1.571130e-11
9.771850e-11
-1.885350e-10
3.927810e-10
1.612730e-10
-1.414010e-10
-2.535280e-10
7.855630e-11
9.771850e-11
-4.163480e-10
-2.473380e-10
1.612730e-10
7.462850e-10
-2.535280e-10
-3.927810e-11
9.771850e-11
-1.885350e-10
-2.473380e-10
-1.099790e-10
-1.414010e-10
-2.535280e-10
2.356690e-11
2.430680e-10
-4.163480e-10
-2.473380e-10
6.598730e-10
1.547330e-10
-2.535280e-10
-3.927810e-11
2.430680e-10
4.713380e-11
-2.473380e-10
-1.099790e-10
1.547330e-10
-1.241190e-09
2.356690e-11
2.430680e-10
-4.949050e-10
-8.112560e-11
6.598730e-10
1.547330e-10
2.356690e-11
8.547010e-11
2.430680e-10
4.713380e-11
-8.112560e-11
6.048830e-10
1.547330e-10
-1.241190e-09
8.547010e-11
-1.571130e-10
-4.949050e-10
-8.112560e-11
3.692140e-10
5.962910e-11
2.356690e-11
8.547010e-11
4.084930e-10
1.007940e-10
-8.112560e-11
6.048830e-10
5.962910e-11
-2.121020e-10
8.547010e-11
-1.571130e-10
1.007940e-10
-7.855630e-11
3.692140e-10
5.962910e-11
0.000000e+00
-1.108220e-11
4.084930e-10
1.007940e-10
-4.713380e-11
-7.075690e-11
5.962910e-11
-2.121020e-10
-1.108220e-11
-1.021230e-10
1.007940e-10
-7.855630e-11
-7.075690e-11
-1.256900e-10
0.000000e+00
-1.108220e-11
-1.649680e-10
-1.616820e-11
-4.713380e-11
-7.075690e-11
0.000000e+00
-3.446120e-11
-1.108220e-11
-1.021230e-10
-1.616820e-11
4.713380e-11
-7.075690e-11
-1.256900e-10
-3.446120e-11
-1.178340e-10
-1.649680e-10
-1.616820e-11
0.000000e+00
-2.422790e-11
0.000000e+00
-3.446120e-11
0.000000e+00
-8.041130e-12
-1.616820e-11
4.713380e-11
-2.422790e-11
0.000000e+00
-3.446120e-11
-1.178340e-10
-8.041130e-12
0.000000e+00
0.000000e+00
-2.422790e-11
7.070060e-11
-2.243400e-11
0.000000e+00
-8.041130e-12
0.000000e+00
-1.540540e-12
-2.422790e-11
0.000000e+00
-2.243400e-11
-8.641190e-11
-8.041130e-12
0.000000e+00
-1.540540e-12
0.000000e+00
7.070060e-11
-2.243400e-11
0.000000e+00
-1.135210e-13
0.000000e+00
-1.540540e-12
0.000000e+00
4.576000e-14
-2.243400e-11
-8.641190e-11
-1.135210e-13
7.855630e-12
-1.540540e-12
0.000000e+00
4.576000e-14
0.000000e+00
0.000000e+00
-1.135210e-13
0.000000e+00
-1.208470e-11
0.000000e+00
4.576000e-14
0.000000e+00
-1.828450e-11
-1.135210e-13
7.855630e-12
-1.208470e-11
0.000000e+00
4.576000e-14
0.000000e+00
-1.828450e-11
-1.571130e-11
0.000000e+00
-1.208470e-11
0.000000e+00
4.390850e-14
0.000000e+00
-1.828450e-11
0.000000e+00
-4.468560e-12
-1.208470e-11
0.000000e+00
4.390850e-14
0.000000e+00
-1.828450e-11
-1.571130e-11
-4.468560e-12
0.000000e+00
0.000000e+00
4.390850e-14
7.855630e-12
-2.759890e-13
0.000000e+00
-4.468560e-12
2.356690e-11
9.416890e-12
4.390850e-14
0.000000e+00
-2.759890e-13
-2.356690e-11
-4.468560e-12
0.000000e+00
9.416890e-12
1.571130e-11
7.855630e-12
-2.759890e-13
0.000000e+00
-4.084860e-12
2.356690e-11
9.416890e-12
0.000000e+00
-5.650970e-12
-2.759890e-13
-2.356690e-11
-4.084860e-12
-1.571130e-11
9.416890e-12
1.571130e-11
-5.650970e-12
-1.571130e-11
0.000000e+00
-4.084860e-12
-5.498940e-11
-8.235080e-12
0.000000e+00
-5.650970e-12
-5.498940e-11
-9.046100e-12
-4.084860e-12
-1.571130e-11
-8.235080e-12
2.356690e-11
-5.650970e-12
-1.571130e-11
-9.046100e-12
2.356690e-11
</DataArray>
<DataArray type="Float32" Name="V2" format="ascii">
0.000000e+00
0.000000e+00
-3.764780e-05
-3.765020e-05
0.000000e+00
0.000000e+00
-3.764990e-05
-3.764970e-05
0.000000e+00
0.000000e+00
-3.765020e-05
-3.764840e-05
0.000000e+00
0.000000e+00
-3.764970e-05
-3.764910e-05
-3.764780e-05
-3.765020e-05
1.573120e-04
1.573100e-04
-3.764990e-05
-3.764970e-05
1.573090e-04
1.573080e-04
-3.765020e-05
-3.764840e-05
1.573100e-04
1.573110e-04
-3.764970e-05
-3.764910e-05
1.573080e-04
1.573070e-04
1.573120e-04
1.573100e-04
2.201660e-04
2.201670e-04
1.573090e-04
1.573080e-04
2.201680e-04
2.201650e-04
1.573100e-04
1.573110e-04
2.201670e-04
2.201660e-04
1.573080e-04
1.573070e-04
2.201650e-04
2.201660e-04
2.201660e-04
2.201670e-04
5.410740e-05
5.410740e-05
2.201680e-04
2.201650e-04
5.410700e-05
5.410640e-05
2.201670e-04
2.201660e-04
5.410740e-05
5.410620e-05
2.201650e-04
2.201660e-04
5.410640e-05
5.410560e-05
5.410740e-05
5.410740e-05
-1.111210e-04
-1.111240e-04
5.410700e-05
5.410640e-05
-1.111230e-04
-1.111220e-04
5.410740e-05
5.410620e-05
-1.111240e-04
-1.111200e-04
5.410640e-05
5.410560e-05
-1.111220e-04
-1.111240e-04
-1.111210e-04
-1.111240e-04
1.786560e-04
1.786540e-04
-1.111230e-04
-1.111220e-04
1.786560e-04
1.786550e-04
-1.111240e-04
-1.111200e-04
1.786540e-04
1.786560e-04
-1.111220e-04
-1.111240e-04
1.786550e-04
1.786540e-04
1.786560e-04
1.786540e-04
2.090020e-04
2.090000e-04
1.786560e-04
1.786550e-04
2.090020e-04
2.090010e-04
1.786540e-04
1.786560e-04
2.090000e-04
2.090020e-04
1.786550e-04
1.786540e-04
2.090010e-04
2.090030e-04
2.090020e-04
2.090000e-04
3.541070e-04
3.541030e-04
2.090020e-04
2.090010e-04
3.541050e-04
3.541030e-04
2.090000e-04
2.090020e-04
3.541030e-04
3.541050e-04
2.090010e-04
2.090030e-04
3.541030e-04
3.541030e-04
3.541070e-04
3.541030e-04
8.141220e-04
8.141190e-04
3.541050e-04
3.541030e-04
8.141210e-04
8.141200e-04
3.541030e-04
3.541050e-04
8.141190e-04
8.141230e-04
3.541030e-04
3.541030e-04
8.141200e-04
8.141220e-04
8.141220e-04
8.141190e-04
1.378040e-03
1.378040e-03
8.141210e-04
8.141200e-04
1.378040e-03
1.378040e-03
8.141190e-04
8.141230e-04
1.378040e-03
1.378040e-03
8.141200e-04
8.141220e-04
1.378040e-03
1.378040e-03
1.378040e-03
1.378040e-03
2.286920e-03
2.286920e-03
1.378040e-03
1.378040e-03
2.286920e-03
2.286920e-03
1.378040e-03
1.378040e-03
2.286920e-03
2.286920e-03
1.378040e-03
1.378040e-03
2.286920e-03
2.286920e-03
2.286920e-03
2.286920e-03
4.710460e-03
4.710460e-03
2.286920e-03
2.286920e-03
4.710460e-03
4.710460e-03
2.286920e-03
2.286920e-03
4.710460e-03
4.710460e-03
2.286920e-03
2.286920e-03
4.710460e-03
4.710460e-03
4.710460e-03
4.710460e-03
9.118080e-03
9.118080e-03
4.710460e-03
4.710460e-03
9.118080e-03
9.118070e-03
4.710460e-03
4.710460e-03
9.118080e-03
9.118080e-03
4.710460e-03
4.710460e-03
9.118070e-03
9.118080e-03
9.118080e-03
9.118080e-03
1.503380e-02
1.503380e-02
9.118080e-03
9.118070e-03
1.503380e-02
1.503380e-02
9.118080e-03
9.118080e-03
1.503380e-02
1.503380e-02
9.118070e-03
9.118080e-03
1.503380e-02
1.503380e-02
1.503380e-02
1.503380e-02
2.417510e-02
2.417510e-02
1.503380e-02
1.503380e-02
2.417510e-02
2.417510e-02
1.503380e-02
1.503380e-02
2.417510e-02
2.417510e-02
1.503380e-02
1.503380e-02
2.417510e-02
2.417510e-02
2.417510e-02
2.417510e-02
3.444730e-02
3.444730e-02
2.417510e-02
2.417510e-02
3.444730e-02
3.444730e-02
2.417510e-02
2.417510e-02
3.444730e-02
3.444730e-02
2.417510e-02
2.417510e-02
3.444730e-02
3.444730e-02
3.444730e-02
3.444730e-02
4.037050e-02
4.037050e-02
3.444730e-02
3.444730e-02
4.037050e-02
4.037050e-02
3.444730e-02
3.444730e-02
4.037050e-02
4.037050e-02
3.444730e-02
3.444730e-02
4.037050e-02
4.037050e-02
4.037050e-02
4.037050e-02
3.659050e-02
3.659050e-02
4.037050e-02
4.037050e-02
3.659050e-02
3.659050e-02
4.037050e-02
4.037050e-02
3.659050e-02
3.659050e-02
4.037050e-02
4.037050e-02
3.659050e-02
3.659050e-02
3.659050e-02
3.659050e-02
2.294650e-02
2.294660e-02
3.659050e-02
3.659050e-02
2.294660e-02
2.294660e-02
3.659050e-02
3.659050e-02
2.294660e-02
2.294650e-02
3.659050e-02
3.659050e-02
2.294660e-02
2.294660e-02
2.294650e-02
2.294660e-02
2.389040e-03
2.389040e-03
2.294660e-02
2.294660e-02
2.389040e-03
2.389040e-03
2.294660e-02
2.294650e-02
2.389040e-03
2.389040e-03
2.294660e-02
2.294660e-02
2.389040e-03
2.389040e-03
2.389040e-03
2.389040e-03
-1.469320e-02
-1.469320e-02
2.389040e-03
2.389040e-03
-1.469320e-02
-1.469320e-02
2.389040e-03
2.389040e-03
-1.469320e-02
-1.469320e-02
2.389040e-03
2.389040e-03
-1.469320e-02
-1.469320e-02
-1.469320e-02
-1.469320e-02
-1.069450e-02
-1.069450e-02
-1.469320e-02
-1.469320e-02
-1.069450e-02
-1.069450e-02
-1.469320e-02
-1.469320e-02
-1.069450e-02
-1.069450e-02
-1.469320e-02
-1.469320e-02
-1.069450e-02
-1.069450e-02
-1.069450e-02
-1.069450e-02
-2.464210e-04
-2.464210e-04
-1.069450e-02
-1.069450e-02
-2.464220e-04
-2.464210e-04
-1.069450e-02
-1.069450e-02
-2.464210e-04
-2.464210e-04
-1.069450e-02
-1.069450e-02
-2.464210e-04
-2.464210e-04
-2.464210e-04
-2.464210e-04
7.160480e-03
7.160490e-03
-2.464220e-04
-2.464210e-04
7.160490e-03
7.160490e-03
-2.464210e-04
-2.464210e-04
7.160490e-03
7.160480e-03
-2.464210e-04
-2.464210e-04
7.160490e-03
7.160490e-03
7.160480e-03
7.160490e-03
1.230470e-03
1.230470e-03
7.160490e-03
7.160490e-03
1.230470e-03
1.230470e-03
7.160490e-03
7.160480e-03
1.230470e-03
1.230470e-03
7.160490e-03
7.160490e-03
1.230470e-03
1.230470e-03
1.230470e-03
1.230470e-03
-1.562690e-03
-1.562690e-03
1.230470e-03
1.230470e-03
-1.562690e-03
-1.562690e-03
1.230470e-03
1.230470e-03
-1.562690e-03
-1.562690e-03
1.230470e-03
1.230470e-03
-1.562690e-03
-1.562690e-03
-1.562690e-03
-1.562690e-03
-7.065070e-05
-7.065110e-05
-1.562690e-03
-1.562690e-03
-7.065100e-05
-7.065070e-05
-1.562690e-03
-1.562690e-03
-7.065110e-05
-7.065060e-05
-1.562690e-03
-1.562690e-03
-7.065070e-05
-7.065090e-05
-7.065070e-05
-7.065110e-05
2.544400e-04
2.544400e-04
-7.065100e-05
-7.065070e-05
2.544400e-04
2.544400e-04
-7.065110e-05
-7.065060e-05
2.544400e-04
2.544400e-04
-7.065070e-05
-7.065090e-05
2.544400e-04
2.544400e-04
2.544400e-04
2.544400e-04
-3.213250e-05
-3.213270e-05
2.544400e-04
2.544400e-04
-3.213240e-05
-3.213270e-05
2.544400e-04
2.544400e-04
-3.213270e-05
-3.213250e-05
2.544400e-04
2.544400e-04
-3.213270e-05
-3.213250e-05
-3.213250e-05
-3.213270e-05
-9.412840e-05
-9.412830e-05
-3.213240e-05
-3.213270e-05
-9.412840e-05
-9.412840e-05
-3.213270e-05
-3.213250e-05
-9.412830e-05
-9.412850e-05
-3.213270e-05
-3.213250e-05
-9.412840e-05
-9.412830e-05
0.000000e+00
0.000000e+00
-3.764990e-05
-3.764970e-05
0.000000e+00
0.000000e+00
-3.764890e-05
-3.765160e-05
0.000000e+00
0.000000e+00
-3.764970e-05
-3.764910e-05
0.000000e+00
0.000000e+00
-3.765160e-05
-3.764740e-05
-3.764990e-05
-3.764970e-05
1.573090e-04
1.573080e-04
-3.764890e-05
-3.765160e-05
1.573100e-04
1.573100e-04
-3.764970e-05
-3.764910e-05
1.573080e-04
1.573070e-04
-3.765160e-05
-3.764740e-05
1.573100e-04
1.573110e-04
1.573090e-04
1.573080e-04
2.201680e-04
2.201650e-04
1.573100e-04