<?xml version="1.0"?>
<!-- time 85.7086-->
<VTKFile type="UnstructuredGrid" version="0.1" byte_order="LittleEndian">
<UnstructuredGrid>
<Piece NumberOfPoints="960" NumberOfCells="0">
<Points>
  <DataArray type="Float32" Name="Position" NumberOfComponents="3" format="ascii">
	-300 2099.62 -300
	-300 2099.62 -100
	-300 2099.62 100
	-300 2099.62 300
	-100 2099.62 -300
	-100 2099.62 -100
	-100 2099.62 100
	-100 2099.62 300
	100 2099.62 -300
	100 2099.62 -100
	100 2099.62 100
	100 2099.62 300
	300 2099.62 -300
	300 2099.62 -100
	300 2099.62 100
	300 2099.62 300
	-300 2299.66 -300
	-300 2299.66 -100
	-300 2299.66 100
	-300 2299.66 300
	-100 2299.66 -300
	-100 2299.66 -100
	-100 2299.66 100
	-100 2299.66 300
	100 2299.66 -300
	100 2299.66 -100
	100 2299.66 100
	100 2299.66 300
	300 2299.66 -300
	300 2299.66 -100
	300 2299.66 100
	300 2299.66 300
	-300 2499.66 -300
	-300 2499.66 -100
	-300 2499.66 100
	-300 2499.66 300
	-100 2499.66 -300
	-100 2499.66 -100
	-100 2499.66 100
	-100 2499.66 300
	100 2499.66 -300
	100 2499.66 -100
	100 2499.66 100
	100 2499.66 300
	300 2499.66 -300
	300 2499.66 -100
	300 2499.66 100
	300 2499.66 300
	-300 2699.66 -300
	-300 2699.66 -100
	-300 2699.66 100
	-300 2699.66 300
	-100 2699.66 -300
	-100 2699.66 -100
	-100 2699.66 100
	-100 2699.66 300
	100 2699.66 -300
	100 2699.66 -100
	100 2699.66 100
	100 2699.66 300
	300 2699.66 -300
	300 2699.66 -100
	300 2699.66 100
	300 2699.66 300
	-300 2899.66 -300
	-300 2899.66 -100
	-300 2899.66 100
	-300 2899.66 300
	-100 2899.66 -300
	-100 2899.66 -100
	-100 2899.66 100
	-100 2899.66 300
	100 2899.66 -300
	100 2899.66 -100
	100 2899.66 100
	100 2899.66 300
	300 2899.66 -300
	300 2899.66 -100
	300 2899.66 100
	300 2899.66 300
	-300 3099.66 -300
	-300 3099.66 -100
	-300 3099.66 100
	-300 3099.66 300
	-100 3099.66 -300
	-100 3099.66 -100
	-100 3099.66 100
	-100 3099.66 300
	100 3099.66 -300
	100 3099.66 -100
	100 3099.66 100
	100 3099.66 300
	300 3099.66 -300
	300 3099.66 -100
	300 3099.66 100
	300 3099.66 300
	-300 3299.66 -300
	-300 3299.66 -100
	-300 3299.66 100
	-300 3299.66 300
	-100 3299.66 -300
	-100 3299.66 -100
	-100 3299.66 100
	-100 3299.66 300
	100 3299.66 -300
	100 3299.66 -100
	100 3299.66 100
	100 3299.66 300
	300 3299.66 -300
	300 3299.66 -100
	300 3299.66 100
	300 3299.66 300
	-300 3499.66 -300
	-300 3499.66 -100
	-300 3499.66 100
	-300 3499.66 300
	-100 3499.66 -300
	-100 3499.66 -100
	-100 3499.66 100
	-100 3499.66 300
	100 3499.66 -300
	100 3499.66 -100
	100 3499.66 100
	100 3499.66 300
	300 3499.66 -300
	300 3499.66 -100
	300 3499.66 100
	300 3499.66 300
	-300 3699.66 -300
	-300 3699.66 -100
	-300 3699.66 100
	-300 3699.66 300
	-100 3699.66 -300
	-100 3699.66 -100
	-100 3699.66 100
	-100 3699.66 300
	100 3699.66 -300
	100 3699.66 -100
	100 3699.66 100
	100 3699.66 300
	300 3699.66 -300
	300 3699.66 -100
	300 3699.66 100
	300 3699.66 300
	-300 3899.66 -300
	-300 3899.66 -100
	-300 3899.66 100
	-300 3899.66 300
	-100 3899.66 -300
	-100 3899.66 -100
	-100 3899.66 100
	-100 3899.66 300
	100 3899.66 -300
	100 3899.66 -100
	100 3899.66 100
	100 3899.66 300
	300 3899.66 -300
	300 3899.66 -100
	300 3899.66 100
	300 3899.66 300
	-300 4099.66 -300
	-300 4099.66 -100
	-300 4099.66 100
	-300 4099.66 300
	-100 4099.66 -300
	-100 4099.66 -100
	-100 4099.66 100
	-100 4099.66 300
	100 4099.66 -300
	100 4099.66 -100
	100 4099.66 100
	100 4099.66 300
	300 4099.66 -300
	300 4099.66 -100
	300 4099.66 100
	300 4099.66 300
	-300 4299.67 -300
	-300 4299.67 -100
	-300 4299.67 100
	-300 4299.67 300
	-100 4299.67 -300
	-100 4299.67 -100
	-100 4299.67 100
	-100 4299.67 300
	100 4299.67 -300
	100 4299.67 -100
	100 4299.67 100
	100 4299.67 300
	300 4299.67 -300
	300 4299.67 -100
	300 4299.67 100
	300 4299.67 300
	-300 4499.67 -300
	-300 4499.67 -100
	-300 4499.67 100
	-300 4499.67 300
	-100 4499.67 -300
	-100 4499.67 -100
	-100 4499.67 100
	-100 4499.67 300
	100 4499.67 -300
	100 4499.67 -100
	100 4499.67 100
	100 4499.67 300
	300 4499.67 -300
	300 4499.67 -100
	300 4499.67 100
	300 4499.67 300
	-300 4699.67 -300
	-300 4699.67 -100
	-300 4699.67 100
	-300 4699.67 300
	-100 4699.67 -300
	-100 4699.67 -100
	-100 4699.67 100
	-100 4699.67 300
	100 4699.67 -300
	100 4699.67 -100
	100 4699.67 100
	100 4699.67 300
	300 4699.67 -300
	300 4699.67 -100
	300 4699.67 100
	300 4699.67 300
	-300 4899.67 -300
	-300 4899.67 -100
	-300 4899.67 100
	-300 4899.67 300
	-100 4899.67 -300
	-100 4899.67 -100
	-100 4899.67 100
	-100 4899.67 300
	100 4899.67 -300
	100 4899.67 -100
	100 4899.67 100
	100 4899.67 300
	300 4899.67 -300
	300 4899.67 -100
	300 4899.67 100
	300 4899.67 300
	-300 5099.67 -300
	-300 5099.67 -100
	-300 5099.67 100
	-300 5099.67 300
	-100 5099.67 -300
	-100 5099.67 -100
	-100 5099.67 100
	-100 5099.67 300
	100 5099.67 -300
	100 5099.67 -100
	100 5099.67 100
	100 5099.67 300
	300 5099.67 -300
	300 5099.67 -100
	300 5099.67 100
	300 5099.67 300
	-300 5299.67 -300
	-300 5299.67 -100
	-300 5299.67 100
	-300 5299.67 300
	-100 5299.67 -300
	-100 5299.67 -100
	-100 5299.67 100
	-100 5299.67 300
	100 5299.67 -300
	100 5299.67 -100
	100 5299.67 100
	100 5299.67 300
	300 5299.67 -300
	300 5299.67 -100
	300 5299.67 100
	300 5299.67 300
	-300 5499.68 -300
	-300 5499.68 -100
	-300 5499.68 100
	-300 5499.68 300
	-100 5499.68 -300
	-100 5499.68 -100
	-100 5499.68 100
	-100 5499.68 300
	100 5499.68 -300
	100 5499.68 -100
	100 5499.68 100
	100 5499.68 300
	300 5499.68 -300
	300 5499.68 -100
	300 5499.68 100
	300 5499.68 300
	-300 5699.68 -300
	-300 5699.68 -100
	-300 5699.68 100
	-300 5699.68 300
	-100 5699.68 -300
	-100 5699.68 -100
	-100 5699.68 100
	-100 5699.68 300
	100 5699.68 -300
	100 5699.68 -100
	100 5699.68 100
	100 5699.68 300
	300 5699.68 -300
	300 5699.68 -100
	300 5699.68 100
	300 5699.68 300
	-300 5899.69 -300
	-300 5899.69 -100
	-300 5899.69 100
	-300 5899.69 300
	-100 5899.69 -300
	-100 5899.69 -100
	-100 5899.69 100
	-100 5899.69 300
	100 5899.69 -300
	100 5899.69 -100
	100 5899.69 100
	100 5899.69 300
	300 5899.69 -300
	300 5899.69 -100
	300 5899.69 100
	300 5899.69 300
	-300 6099.72 -300
	-300 6099.72 -100
	-300 6099.72 100
	-300 6099.72 300
	-100 6099.72 -300
	-100 6099.72 -100
	-100 6099.72 100
	-100 6099.72 300
	100 6099.72 -300
	100 6099.72 -100
	100 6099.72 100
	100 6099.72 300
	300 6099.72 -300
	300 6099.72 -100
	300 6099.72 100
	300 6099.72 300
	-300 6299.75 -300
	-300 6299.75 -100
	-300 6299.75 100
	-300 6299.75 300
	-100 6299.75 -300
	-100 6299.75 -100
	-100 6299.75 100
	-100 6299.75 300
	100 6299.75 -300
	100 6299.75 -100
	100 6299.75 100
	100 6299.75 300
	300 6299.75 -300
	300 6299.75 -100
	300 6299.75 100
	300 6299.75 300
	-300 6499.79 -300
	-300 6499.79 -100
	-300 6499.79 100
	-300 6499.79 300
	-100 6499.79 -300
	-100 6499.79 -100
	-100 6499.79 100
	-100 6499.79 300
	100 6499.79 -300
	100 6499.79 -100
	100 6499.79 100
	100 6499.79 300
	300 6499.79 -300
	300 6499.79 -100
	300 6499.79 100
	300 6499.79 300
	-300 6699.8 -300
	-300 6699.8 -100
	-300 6699.8 100
	-300 6699.8 300
	-100 6699.8 -300
	-100 6699.8 -100
	-100 6699.8 100
	-100 6699.8 300
	100 6699.8 -300
	100 6699.8 -100
	100 6699.8 100
	100 6699.8 300
	300 6699.8 -300
	300 6699.8 -100
	300 6699.8 100
	300 6699.8 300
	-300 6899.83 -300
	-300 6899.83 -100
	-300 6899.83 100
	-300 6899.83 300
	-100 6899.83 -300
	-100 6899.83 -100
	-100 6899.83 100
	-100 6899.83 300
	100 6899.83 -300
	100 6899.83 -100
	100 6899.83 100
	100 6899.83 300
	300 6899.83 -300
	300 6899.83 -100
	300 6899.83 100
	300 6899.83 300
	-300 7099.84 -300
	-300 7099.84 -100
	-300 7099.84 100
	-300 7099.84 300
	-100 7099.84 -300
	-100 7099.84 -100
	-100 7099.84 100
	-100 7099.84 300
	100 7099.84 -300
	100 7099.84 -100
	100 7099.84 100
	100 7099.84 300
	300 7099.84 -300
	300 7099.84 -100
	300 7099.84 100
	300 7099.84 300
	-300 7299.84 -300
	-300 7299.84 -100
	-300 7299.84 100
	-300 7299.84 300
	-100 7299.84 -300
	-100 7299.84 -100
	-100 7299.84 100
	-100 7299.84 300
	100 7299.84 -300
	100 7299.84 -100
	100 7299.84 100
	100 7299.84 300
	300 7299.84 -300
	300 7299.84 -100
	300 7299.84 100
	300 7299.84 300
	-300 7499.85 -300
	-300 7499.85 -100
	-300 7499.85 100
	-300 7499.85 300
	-100 7499.85 -300
	-100 7499.85 -100
	-100 7499.85 100
	-100 7499.85 300
	100 7499.85 -300
	100 7499.85 -100
	100 7499.85 100
	100 7499.85 300
	300 7499.85 -300
	300 7499.85 -100
	300 7499.85 100
	300 7499.85 300
	-300 7699.85 -300
	-300 7699.85 -100
	-300 7699.85 100
	-300 7699.85 300
	-100 7699.85 -300
	-100 7699.85 -100
	-100 7699.85 100
	-100 7699.85 300
	100 7699.85 -300
	100 7699.85 -100
	100 7699.85 100
	100 7699.85 300
	300 7699.85 -300
	300 7699.85 -100
	300 7699.85 100
	300 7699.85 300
	-300 7899.86 -300
	-300 7899.86 -100
	-300 7899.86 100
	-300 7899.86 300
	-100 7899.86 -300
	-100 7899.86 -100
	-100 7899.86 100
	-100 7899.86 300
	100 7899.86 -300
	100 7899.86 -100
	100 7899.86 100
	100 7899.86 300
	300 7899.86 -300
	300 7899.86 -100
	300 7899.86 100
	300 7899.86 300
	-300 8099.87 -300
	-300 8099.87 -100
	-300 8099.87 100
	-300 8099.87 300
	-100 8099.87 -300
	-100 8099.87 -100
	-100 8099.87 100
	-100 8099.87 300
	100 8099.87 -300
	100 8099.87 -100
	100 8099.87 100
	100 8099.87 300
	300 8099.87 -300
	300 8099.87 -100
	300 8099.87 100
	300 8099.87 300
	-300 8299.87 -300
	-300 8299.87 -100
	-300 8299.87 100
	-300 8299.87 300
	-100 8299.87 -300
	-100 8299.87 -100
	-100 8299.87 100
	-100 8299.87 300
	100 8299.87 -300
	100 8299.87 -100
	100 8299.87 100
	100 8299.87 300
	300 8299.87 -300
	300 8299.87 -100
	300 8299.87 100
	300 8299.87 300
	-300 8499.88 -300
	-300 8499.88 -100
	-300 8499.88 100
	-300 8499.88 300
	-100 8499.88 -300
	-100 8499.88 -100
	-100 8499.88 100
	-100 8499.88 300
	100 8499.88 -300
	100 8499.88 -100
	100 8499.88 100
	100 8499.88 300
	300 8499.88 -300
	300 8499.88 -100
	300 8499.88 100
	300 8499.88 300
	-300 8699.88 -300
	-300 8699.88 -100
	-300 8699.88 100
	-300 8699.88 300
	-100 8699.88 -300
	-100 8699.88 -100
	-100 8699.88 100
	-100 8699.88 300
	100 8699.88 -300
	100 8699.88 -100
	100 8699.88 100
	100 8699.88 300
	300 8699.88 -300
	300 8699.88 -100
	300 8699.88 100
	300 8699.88 300
	-300 8899.89 -300
	-300 8899.89 -100
	-300 8899.89 100
	-300 8899.89 300
	-100 8899.89 -300
	-100 8899.89 -100
	-100 8899.89 100
	-100 8899.89 300
	100 8899.89 -300
	100 8899.89 -100
	100 8899.89 100
	100 8899.89 300
	300 8899.89 -300
	300 8899.89 -100
	300 8899.89 100
	300 8899.89 300
	-300 9099.9 -300
	-300 9099.9 -100
	-300 9099.9 100
	-300 9099.9 300
	-100 9099.9 -300
	-100 9099.9 -100
	-100 9099.9 100
	-100 9099.9 300
	100 9099.9 -300
	100 9099.9 -100
	100 9099.9 100
	100 9099.9 300
	300 9099.9 -300
	300 9099.9 -100
	300 9099.9 100
	300 9099.9 300
	-300 9299.91 -300
	-300 9299.91 -100
	-300 9299.91 100
	-300 9299.91 300
	-100 9299.91 -300
	-100 9299.91 -100
	-100 9299.91 100
	-100 9299.91 300
	100 9299.91 -300
	100 9299.91 -100
	100 9299.91 100
	100 9299.91 300
	300 9299.91 -300
	300 9299.91 -100
	300 9299.91 100
	300 9299.91 300
	-300 9499.91 -300
	-300 9499.91 -100
	-300 9499.91 100
	-300 9499.91 300
	-100 9499.91 -300
	-100 9499.91 -100
	-100 9499.91 100
	-100 9499.91 300
	100 9499.91 -300
	100 9499.91 -100
	100 9499.91 100
	100 9499.91 300
	300 9499.91 -300
	300 9499.91 -100
	300 9499.91 100
	300 9499.91 300
	-300 9699.92 -300
	-300 9699.92 -100
	-300 9699.92 100
	-300 9699.92 300
	-100 9699.92 -300
	-100 9699.92 -100
	-100 9699.92 100
	-100 9699.92 300
	100 9699.92 -300
	100 9699.92 -100
	100 9699.92 100
	100 9699.92 300
	300 9699.92 -300
	300 9699.92 -100
	300 9699.92 100
	300 9699.92 300
	-300 9899.92 -300
	-300 9899.92 -100
	-300 9899.92 100
	-300 9899.92 300
	-100 9899.92 -300
	-100 9899.92 -100
	-100 9899.92 100
	-100 9899.92 300
	100 9899.92 -300
	100 9899.92 -100
	100 9899.92 100
	100 9899.92 300
	300 9899.92 -300
	300 9899.92 -100
	300 9899.92 100
	300 9899.92 300
	-300 10099.9 -300
	-300 10099.9 -100
	-300 10099.9 100
	-300 10099.9 300
	-100 10099.9 -300
	-100 10099.9 -100
	-100 10099.9 100
	-100 10099.9 300
	100 10099.9 -300
	100 10099.9 -100
	100 10099.9 100
	100 10099.9 300
	300 10099.9 -300
	300 10099.9 -100
	300 10099.9 100
	300 10099.9 300
	-300 10299.9 -300
	-300 10299.9 -100
	-300 10299.9 100
	-300 10299.9 300
	-100 10299.9 -300
	-100 10299.9 -100
	-100 10299.9 100
	-100 10299.9 300
	100 10299.9 -300
	100 10299.9 -100
	100 10299.9 100
	100 10299.9 300
	300 10299.9 -300
	300 10299.9 -100
	300 10299.9 100
	300 10299.9 300
	-300 10500 -300
	-300 10500 -100
	-300 10500 100
	-300 10500 300
	-100 10500 -300
	-100 10500 -100
	-100 10500 100
	-100 10500 300
	100 10500 -300
	100 10500 -100
	100 10500 100
	100 10500 300
	300 10500 -300
	300 10500 -100
	300 10500 100
	300 10500 300
	-300 10700 -300
	-300 10700 -100
	-300 10700 100
	-300 10700 300
	-100 10700 -300
	-100 10700 -100
	-100 10700 100
	-100 10700 300
	100 10700 -300
	100 10700 -100
	100 10700 100
	100 10700 300
	300 10700 -300
	300 10700 -100
	300 10700 100
	300 10700 300
	-300 10900 -300
	-300 10900 -100
	-300 10900 100
	-300 10900 300
	-100 10900 -300
	-100 10900 -100
	-100 10900 100
	-100 10900 300
	100 10900 -300
	100 10900 -100
	100 10900 100
	100 10900 300
	300 10900 -300
	300 10900 -100
	300 10900 100
	300 10900 300
	-300 11100 -300
	-300 11100 -100
	-300 11100 100
	-300 11100 300
	-100 11100 -300
	-100 11100 -100
	-100 11100 100
	-100 11100 300
	100 11100 -300
	100 11100 -100
	100 11100 100
	100 11100 300
	300 11100 -300
	300 11100 -100
	300 11100 100
	300 11100 300
	-300 11300 -300
	-300 11300 -100
	-300 11300 100
	-300 11300 300
	-100 11300 -300
	-100 11300 -100
	-100 11300 100
	-100 11300 300
	100 11300 -300
	100 11300 -100
	100 11300 100
	100 11300 300
	300 11300 -300
	300 11300 -100
	300 11300 100
	300 11300 300
	-300 11500 -300
	-300 11500 -100
	-300 11500 100
	-300 11500 300
	-100 11500 -300
	-100 11500 -100
	-100 11500 100
	-100 11500 300
	100 11500 -300
	100 11500 -100
	100 11500 100
	100 11500 300
	300 11500 -300
	300 11500 -100
	300 11500 100
	300 11500 300
	-300 11700.1 -300
	-300 11700.1 -100
	-300 11700.1 100
	-300 11700.1 300
	-100 11700.1 -300
	-100 11700.1 -100
	-100 11700.1 100
	-100 11700.1 300
	100 11700.1 -300
	100 11700.1 -100
	100 11700.1 100
	100 11700.1 300
	300 11700.1 -300
	300 11700.1 -100
	300 11700.1 100
	300 11700.1 300
	-300 11900.1 -300
	-300 11900.1 -100
	-300 11900.1 100
	-300 11900.1 300
	-100 11900.1 -300
	-100 11900.1 -100
	-100 11900.1 100
	-100 11900.1 300
	100 11900.1 -300
	100 11900.1 -100
	100 11900.1 100
	100 11900.1 300
	300 11900.1 -300
	300 11900.1 -100
	300 11900.1 100
	300 11900.1 300
	-300 12100.1 -300
	-300 12100.1 -100
	-300 12100.1 100
	-300 12100.1 300
	-100 12100.1 -300
	-100 12100.1 -100
	-100 12100.1 100
	-100 12100.1 300
	100 12100.1 -300
	100 12100.1 -100
	100 12100.1 100
	100 12100.1 300
	300 12100.1 -300
	300 12100.1 -100
	300 12100.1 100
	300 12100.1 300
	-300 12300.1 -300
	-300 12300.1 -100
	-300 12300.1 100
	-300 12300.1 300
	-100 12300.1 -300
	-100 12300.1 -100
	-100 12300.1 100
	-100 12300.1 300
	100 12300.1 -300
	100 12300.1 -100
	100 12300.1 100
	100 12300.1 300
	300 12300.1 -300
	300 12300.1 -100
	300 12300.1 100
	300 12300.1 300
	-300 12500.2 -300
	-300 12500.2 -100
	-300 12500.2 100
	-300 12500.2 300
	-100 12500.2 -300
	-100 12500.2 -100
	-100 12500.2 100
	-100 12500.2 300
	100 12500.2 -300
	100 12500.2 -100
	100 12500.2 100
	100 12500.2 300
	300 12500.2 -300
	300 12500.2 -100
	300 12500.2 100
	300 12500.2 300
	-300 12700.2 -300
	-300 12700.2 -100
	-300 12700.2 100
	-300 12700.2 300
	-100 12700.2 -300
	-100 12700.2 -100
	-100 12700.2 100
	-100 12700.2 300
	100 12700.2 -300
	100 12700.2 -100
	100 12700.2 100
	100 12700.2 300
	300 12700.2 -300
	300 12700.2 -100
	300 12700.2 100
	300 12700.2 300
	-300 12900.3 -300
	-300 12900.3 -100
	-300 12900.3 100
	-300 12900.3 300
	-100 12900.3 -300
	-100 12900.3 -100
	-100 12900.3 100
	-100 12900.3 300
	100 12900.3 -300
	100 12900.3 -100
	100 12900.3 100
	100 12900.3 300
	300 12900.3 -300
	300 12900.3 -100
	300 12900.3 100
	300 12900.3 300
	-300 13100.4 -300
	-300 13100.4 -100
	-300 13100.4 100
	-300 13100.4 300
	-100 13100.4 -300
	-100 13100.4 -100
	-100 13100.4 100
	-100 13100.4 300
	100 13100.4 -300
	100 13100.4 -100
	100 13100.4 100
	100 13100.4 300
	300 13100.4 -300
	300 13100.4 -100
	300 13100.4 100
	300 13100.4 300
	-300 13300.5 -300
	-300 13300.5 -100
	-300 13300.5 100
	-300 13300.5 300
	-100 13300.5 -300
	-100 13300.5 -100
	-100 13300.5 100
	-100 13300.5 300
	100 13300.5 -300
	100 13300.5 -100
	100 13300.5 100
	100 13300.5 300
	300 13300.5 -300
	300 13300.5 -100
	300 13300.5 100
	300 13300.5 300
	-300 13500.7 -300
	-300 13500.7 -100
	-300 13500.7 100
	-300 13500.7 300
	-100 13500.7 -300
	-100 13500.7 -100
	-100 13500.7 100
	-100 13500.7 300
	100 13500.7 -300
	100 13500.7 -100
	100 13500.7 100
	100 13500.7 300
	300 13500.7 -300
	300 13500.7 -100
	300 13500.7 100
	300 13500.7 300
	-300 13701.1 -300
	-300 13701.1 -100
	-300 13701.1 100
	-300 13701.1 300
	-100 13701.1 -300
	-100 13701.1 -100
	-100 13701.1 100
	-100 13701.1 300
	100 13701.1 -300
	100 13701.1 -100
	100 13701.1 100
	100 13701.1 300
	300 13701.1 -300
	300 13701.1 -100
	300 13701.1 100
	300 13701.1 300
	-300 13902.1 -300
	-300 13902.1 -100
	-300 13902.1 100
	-300 13902.1 300
	-100 13902.1 -300
	-100 13902.1 -100
	-100 13902.1 100
	-100 13902.1 300
	100 13902.1 -300
	100 13902.1 -100
	100 13902.1 100
	100 13902.1 300
	300 13902.1 -300
	300 13902.1 -100
	300 13902.1 100
	300 13902.1 300
  </DataArray>
</Points>
<PointData  Vectors="vector">
  <DataArray type="Float32" Name="Velocity" NumberOfComponents="3" format="ascii">
 -4.67557e-12 0.000936787 -1.16343e-11
 -1.69558e-10 0.000936787 -7.29779e-11
 -1.41034e-10 0.000936787 -7.25474e-11
 -2.06254e-10 0.000936787 -8.43516e-11
 -5.31735e-11 0.000936786 5.10992e-11
 -1.5267e-10 0.000936786 -4.01222e-12
 -1.08389e-10 0.000936786 5.18012e-11
 -1.91463e-10 0.000936786 -7.22348e-11
 -3.12644e-11 0.000936787 6.58662e-11
 -1.98992e-10 0.000936787 3.057e-11
 -1.49699e-10 0.000936787 5.05196e-11
 -2.14018e-10 0.000936786 -7.9429e-12
 -1.16623e-10 0.000936787 -4.00213e-11
 -2.02097e-10 0.000936786 3.35026e-11
 -1.6603e-10 0.000936786 3.94744e-11
 -2.02704e-10 0.000936786 4.15501e-11
 2.52813e-11 -0.000730121 5.68501e-11
 -1.44084e-11 -0.000730118 3.03211e-11
 7.50199e-11 -0.000730121 5.77574e-11
 4.82514e-11 -0.000730114 5.04341e-12
 2.25934e-11 -0.000730106 7.21153e-11
 -2.54434e-11 -0.000730112 3.95746e-11
 -1.57623e-11 -0.000730106 7.87086e-11
 -3.90071e-11 -0.000730116 5.76214e-12
 4.07922e-12 -0.000730116 4.45751e-11
 -1.85965e-11 -0.000730118 3.01979e-11
 1.60617e-11 -0.000730115 6.57506e-11
 -4.02424e-11 -0.000730123 4.88318e-11
 -2.14291e-11 -0.000730113 -5.63046e-12
 -5.81122e-11 -0.000730109 2.84185e-11
 -1.92231e-11 -0.00073011 3.59694e-11
 -5.69734e-11 -0.000730107 -2.77709e-11
 8.87132e-12 -0.000963682 7.99987e-12
 -1.70108e-11 -0.000963684 2.06386e-11
 -7.27013e-12 -0.000963683 2.26198e-11
 -8.86921e-12 -0.000963688 8.20669e-12
 4.64959e-12 -0.000963694 -6.2591e-12
 -2.0858e-11 -0.00096369 2.6452e-11
 -3.97939e-11 -0.000963695 2.03963e-11
 -6.25114e-11 -0.000963686 1.40031e-12
 1.13266e-12 -0.000963685 8.32265e-12
 -2.68733e-11 -0.000963685 2.736e-12
 -4.53851e-11 -0.000963688 4.86644e-12
 -7.36488e-11 -0.00096368 -9.19256e-12
 -7.85811e-12 -0.000963688 -1.00234e-11
 -2.6137e-11 -0.000963692 -2.97498e-11
 -3.56506e-11 -0.000963691 -2.45146e-11
 -7.09537e-11 -0.000963693 -6.97564e-11
 4.15185e-12 -0.000265722 2.19653e-12
 3.96107e-14 -0.000265721 2.27641e-11
 6.65521e-12 -0.000265721 2.27273e-11
 4.60163e-12 -0.000265722 3.59584e-12
 1.12374e-11 -0.000265722 5.9871e-12
 7.82339e-12 -0.000265719 1.47279e-11
 2.70992e-12 -0.000265719 1.2689e-11
 -6.22045e-12 -0.000265723 6.74871e-12
 1.29451e-11 -0.000265723 3.72196e-12
 2.10803e-12 -0.000265721 1.52375e-11
 2.20446e-12 -0.00026572 1.45024e-11
 -7.63457e-12 -0.000265725 6.28036e-12
 5.3865e-12 -0.000265722 6.03937e-12
 -7.26198e-12 -0.000265719 1.22128e-12
 -5.00037e-12 -0.000265721 1.90223e-12
 -9.76438e-12 -0.000265719 -8.84114e-12
 1.91575e-12 -0.00018522 5.21393e-12
 5.62455e-12 -0.000185221 1.21638e-11
 6.95545e-12 -0.000185221 9.72097e-12
 9.01868e-13 -0.000185221 1.60126e-12
 1.09962e-11 -0.000185221 7.05778e-13
 7.19513e-12 -0.000185223 7.94359e-12
 3.72631e-12 -0.000185223 1.20773e-11
 3.63816e-12 -0.00018522 2.82841e-12
 1.695e-11 -0.00018522 1.00109e-12
 1.97039e-12 -0.000185221 7.99938e-12
 3.72753e-12 -0.000185222 8.14576e-12
 5.86477e-12 -0.000185218 -1.18367e-12
 1.80273e-12 -0.000185221 4.68237e-13
 9.47311e-12 -0.000185224 3.8458e-12
 1.03818e-12 -0.000185222 4.57708e-12
 2.39369e-12 -0.000185223 1.6093e-12
 3.50996e-12 -6.29489e-05 -2.98013e-12
 1.14256e-12 -6.29486e-05 -1.19925e-12
 -5.98527e-12 -6.29488e-05 -2.24016e-13
 3.08915e-12 -6.29484e-05 7.9953e-13
 -5.0928e-13 -6.29485e-05 5.30244e-13
 -6.29601e-13 -6.29488e-05 -2.54673e-12
 -1.6799e-12 -6.2949e-05 -1.83854e-12
 -2.41428e-12 -6.29481e-05 -1.20163e-12
 -1.55721e-12 -6.29487e-05 -5.41205e-13
 1.50809e-12 -6.29487e-05 -4.69824e-12
 4.84383e-12 -6.29492e-05 -3.47798e-12
 -1.05183e-12 -6.2948e-05 1.64757e-12
 3.68338e-12 -6.29484e-05 -1.97868e-14
 -8.56828e-13 -6.29488e-05 -3.26568e-12
 9.44607e-13 -6.29487e-05 -3.61108e-12
 -1.71432e-12 -6.29486e-05 -2.86556e-12
 -7.32734e-14 1.57944e-05 -2.1144e-12
 -4.6873e-12 1.57944e-05 -5.49788e-12
 -1.5376e-12 1.57947e-05 -5.78723e-12
 -6.05275e-13 1.57942e-05 -1.05234e-12
 -4.1888e-12 1.57942e-05 3.11055e-13
 -5.65287e-12 1.57948e-05 -4.39031e-12
 -5.23453e-12 1.5795e-05 -5.56536e-12
 -3.95817e-12 1.57942e-05 -4.61132e-12
 -5.50526e-12 1.57943e-05 -4.06282e-13
 -4.62186e-13 1.57946e-05 -4.9471e-12
 -3.58512e-12 1.57949e-05 -6.05082e-12
 -4.58577e-12 1.57937e-05 -2.14836e-12
 -1.3171e-12 1.57941e-05 -2.41244e-12
 -1.50968e-12 1.57951e-05 -5.51219e-12
 -1.34713e-12 1.57947e-05 -4.10092e-12
 -1.7429e-12 1.57949e-05 -2.20648e-12
 -2.33767e-13 -6.73695e-05 2.07024e-13
 -2.04917e-12 -6.73703e-05 -9.58386e-12
 -4.58372e-13 -6.73708e-05 -5.01252e-12
 7.10133e-14 -6.73709e-05 1.45608e-12
 -2.59114e-12 -6.73746e-05 -2.27587e-12
 1.80587e-12 -6.73737e-05 -6.89722e-12
 -9.70861e-13 -6.73739e-05 -4.96464e-12
 -3.04069e-12 -6.73722e-05 9.12194e-13
 -4.68516e-13 -6.73697e-05 -2.76621e-12
 -1.54412e-12 -6.73709e-05 -7.59549e-12
 -2.10064e-12 -6.73712e-05 -5.11742e-12
 -1.88014e-12 -6.73693e-05 2.54019e-12
 -3.71814e-13 -6.73745e-05 -6.64446e-13
 -2.29131e-12 -6.7374e-05 -7.42793e-12
 -2.56968e-13 -6.73753e-05 -5.78146e-12
 5.14347e-14 -6.73728e-05 -2.15816e-13
 -7.71156e-13 -0.000102683 -1.81338e-12
 -1.41763e-12 -0.000102682 -4.03089e-12
 -1.67072e-12 -0.000102682 -5.87155e-12
 5.05337e-13 -0.000102682 1.14369e-12
 2.83264e-13 -0.000102678 -6.21421e-13
 -3.8251e-13 -0.000102679 -4.60085e-12
 2.4108e-13 -0.000102679 -3.71268e-12
 -6.13948e-13 -0.00010268 -1.81487e-12
 -4.74397e-12 -0.000102683 -1.33815e-12
 -6.76369e-13 -0.000102682 -4.14359e-12
 1.20267e-12 -0.000102681 -3.89668e-12
 -1.43562e-13 -0.000102683 -2.83829e-13
 2.68464e-12 -0.000102678 -2.61746e-13
 2.30275e-13 -0.000102679 -4.25952e-12
 -8.76048e-13 -0.000102678 -3.56183e-12
 -1.65869e-12 -0.00010268 -1.95393e-12
 -3.36442e-13 -1.99915e-05 -6.00971e-13
 -2.14417e-13 -1.99914e-05 -3.07622e-12
 1.75295e-12 -1.99914e-05 -2.25219e-12
 -2.77956e-12 -1.99914e-05 -1.88196e-12
 -1.73869e-12 -1.99914e-05 -1.63504e-12
 6.93836e-13 -1.99914e-05 -2.27208e-12
 -1.97959e-12 -1.99914e-05 -3.99858e-12
 3.33047e-12 -1.99914e-05 7.83638e-13
 -6.05115e-13 -1.99914e-05 -4.63626e-13
 2.61774e-13 -1.99914e-05 -1.69073e-12
 1.67991e-14 -1.99914e-05 -1.559e-12
 5.04193e-13 -1.99914e-05 -1.43845e-12
 5.55411e-13 -1.99914e-05 -1.15023e-12
 -1.56853e-12 -1.99914e-05 -1.14121e-12
 1.37972e-12 -1.99914e-05 -1.41864e-12
 8.88391e-13 -1.99914e-05 -1.39669e-13
 7.11492e-13 -5.67812e-05 -1.42968e-12
 -1.71715e-12 -5.67812e-05 -3.08493e-12
 2.79032e-12 -5.67812e-05 -2.21452e-13
 -1.48412e-12 -5.67811e-05 1.74443e-12
 3.06569e-13 -5.67811e-05 4.84102e-13
 2.44021e-12 -5.67811e-05 -4.80737e-13
 4.69887e-13 -5.67811e-05 -2.88204e-12
 1.67507e-12 -5.67811e-05 2.95982e-13
 1.04241e-12 -5.67811e-05 8.12901e-14
 -2.47537e-13 -5.67811e-05 -1.14062e-12
 -1.84266e-13 -5.67812e-05 -5.30313e-13
 3.21496e-12 -5.67811e-05 7.29443e-13
 -1.95254e-12 -5.67811e-05 4.32399e-13
 5.74624e-13 -5.67811e-05 2.73289e-13
 -2.77187e-13 -5.67811e-05 -6.07336e-14
 2.87314e-13 -5.67812e-05 -1.50333e-13
 -1.99833e-12 8.47151e-05 -1.97892e-13
 -1.21093e-12 8.47151e-05 1.24856e-12
 -1.53448e-12 8.47151e-05 1.27229e-12
 -4.12612e-12 8.47151e-05 -2.86172e-13
 -7.96053e-13 8.47153e-05 -1.66308e-12
 4.05947e-13 8.47151e-05 2.53196e-13
 8.619e-13 8.47152e-05 2.29067e-12
 -1.69334e-13 8.47151e-05 1.92554e-13
 2.1194e-12 8.47152e-05 7.87724e-13
 -2.57497e-12 8.47151e-05 9.91385e-13
 1.23838e-12 8.47151e-05 5.24377e-13
 2.57758e-12 8.47151e-05 -5.12228e-13
 7.44904e-13 8.47153e-05 -1.21762e-12
 2.87095e-12 8.47151e-05 1.52893e-12
 -3.21959e-13 8.47152e-05 1.39626e-12
 2.223e-12 8.47151e-05 7.1278e-13
 -1.50586e-12 3.26899e-05 5.90148e-13
 8.71824e-13 3.26899e-05 9.86636e-13
 -1.06204e-12 3.26899e-05 9.85955e-13
 -1.26027e-12 3.26899e-05 1.48645e-12
 2.71621e-13 3.26899e-05 -1.17009e-12
 -2.78241e-13 3.26899e-05 2.3026e-12
 1.23186e-12 3.26899e-05 1.35318e-12
 -9.47138e-13 3.26898e-05 2.55562e-14
 1.89207e-12 3.26899e-05 5.25245e-13
 -8.97457e-13 3.26899e-05 1.02986e-13
 -8.77448e-13 3.26899e-05 1.78747e-13
 -2.11955e-12 3.26899e-05 1.22956e-12
 4.71348e-14 3.26899e-05 -5.97691e-13
 -7.16467e-14 3.26899e-05 6.7785e-13
 -8.79743e-14 3.26899e-05 1.3492e-12
 3.05735e-12 3.26899e-05 6.16907e-13
 7.55782e-13 0.000173472 -1.60682e-12
 -9.92966e-13 0.000173472 2.44384e-12
 -5.23354e-13 0.000173472 2.89634e-13
 -5.84627e-13 0.000173472 3.16543e-13
 7.61655e-13 0.000173472 -8.77966e-13
 1.32949e-13 0.000173472 5.47755e-13
 -5.78207e-13 0.000173472 1.78138e-13
 -5.33906e-13 0.000173472 1.29657e-13
 2.64801e-13 0.000173472 1.11286e-13
 1.27069e-12 0.000173472 -5.0088e-13
 1.17186e-12 0.000173472 -9.53003e-13
 2.77021e-13 0.000173472 4.22868e-13
 -7.53086e-13 0.000173472 8.00194e-13
 -3.16282e-13 0.000173472 -1.2084e-12
 -8.63454e-13 0.000173472 -5.11259e-13
 -1.3215e-12 0.000173472 -7.96743e-13
 -1.59694e-12 0.000126781 8.4328e-13
 1.08523e-14 0.000126781 7.78146e-14
 -1.11441e-12 0.000126781 -3.62686e-13
 1.17842e-13 0.000126781 -1.02155e-12
 2.2452e-12 0.000126782 -2.82758e-13
 5.7509e-13 0.000126781 -1.14986e-12
 -3.61434e-13 0.000126781 -7.82785e-13
 -1.20411e-13 0.000126781 7.19363e-13
 2.54185e-13 0.000126782 3.40243e-13
 1.02612e-12 0.000126781 -1.3658e-12
 1.22914e-12 0.000126781 -1.67852e-12
 -2.14328e-12 0.000126781 2.29605e-13
 9.10425e-13 0.000126781 -1.91405e-12
 -4.90079e-13 0.000126781 -1.51266e-12
 3.671e-13 0.000126782 3.01193e-14
 8.37778e-13 0.000126781 -9.85559e-14
 8.45496e-13 0.000249427 -4.64174e-13
 -1.04809e-12 0.000249428 -1.82047e-12
 -1.1542e-12 0.000249428 -1.45678e-12
 -1.21002e-12 0.000249428 7.2236e-13
 4.0175e-13 0.000249427 -8.24985e-13
 -5.05909e-13 0.000249428 -6.42433e-13
 -2.03361e-13 0.000249427 -1.80676e-12
 -1.14521e-12 0.000249428 2.78958e-14
 6.00789e-13 0.000249427 -2.26098e-12
 1.61564e-12 0.000249428 3.56685e-13
 2.21923e-12 0.000249428 -1.70878e-12
 1.36984e-12 0.000249428 -8.95139e-14
 -6.89198e-13 0.000249427 -2.4401e-13
 9.13196e-13 0.000249427 -2.01419e-12
 -3.55135e-13 0.000249427 -1.99372e-12
 6.63354e-13 0.000249427 -1.62259e-13
 -8.73239e-13 0.00029647 -2.61734e-14
 -1.61925e-12 0.00029647 -1.84585e-12
 -1.78251e-12 0.00029647 -2.03948e-12
 -1.26378e-12 0.00029647 8.0652e-13
 9.27182e-14 0.00029647 -8.92578e-13
 2.18339e-12 0.00029647 -1.61146e-12
 4.55936e-13 0.00029647 -3.12035e-13
 1.53697e-12 0.00029647 -1.8559e-13
 2.09612e-12 0.00029647 -9.29533e-13
 -3.71436e-13 0.00029647 -1.56824e-12
 1.55971e-12 0.00029647 -4.7263e-13
 -9.62959e-15 0.00029647 -3.24045e-13
 -6.54742e-14 0.00029647 -9.81099e-13
 9.96213e-13 0.00029647 -1.4611e-12
 6.47101e-13 0.00029647 -1.05143e-12
 1.50318e-13 0.00029647 -3.81458e-13
 -1.31231e-12 0.000212359 -1.22268e-12
 -1.72959e-12 0.000212359 -2.67103e-14
 -5.15176e-13 0.000212359 9.27152e-13
 -1.25177e-13 0.000212359 -1.22042e-12
 -1.20018e-13 0.000212359 -1.21597e-12
 8.59635e-13 0.000212359 -1.06559e-12
 3.03913e-13 0.000212359 -9.10549e-14
 7.91382e-14 0.000212359 8.3939e-13
 1.22646e-12 0.000212359 -1.3312e-12
 3.15396e-13 0.000212359 4.70081e-13
 -5.44071e-13 0.000212359 -8.00625e-13
 -5.8244e-13 0.000212359 -1.7305e-13
 9.13048e-13 0.000212359 -1.04679e-12
 1.03525e-12 0.000212359 -4.18342e-13
 9.31355e-13 0.000212359 -1.24078e-12
 8.24268e-13 0.000212359 6.45618e-13
 9.74547e-13 0.000260873 -1.17459e-12
 2.85204e-13 0.000260874 -7.11525e-13
 1.22642e-12 0.000260874 2.82217e-13
 9.19118e-13 0.000260874 -3.21619e-13
 9.71504e-13 0.000260873 -1.90052e-12
 8.24175e-13 0.000260874 -4.22709e-13
 3.47759e-13 0.000260873 3.35675e-13
 1.10996e-12 0.000260874 -1.56785e-13
 8.39452e-13 0.000260874 -1.25805e-12
 1.52173e-12 0.000260874 5.13343e-13
 6.30386e-13 0.000260874 -1.21055e-12
 4.41682e-13 0.000260874 -4.33884e-13
 9.19579e-13 0.000260873 -1.18944e-12
 1.1716e-12 0.000260874 -1.29468e-12
 1.44177e-12 0.000260873 1.96517e-13
 1.48011e-12 0.000260873 6.59996e-14
 -2.98157e-13 0.00045612 3.07355e-13
 -1.86789e-12 0.00045612 -9.6175e-13
 -8.55788e-13 0.00045612 -1.28607e-12
 -1.98613e-12 0.00045612 4.03924e-13
 1.10957e-13 0.00045612 2.39472e-13
 2.30904e-12 0.00045612 -1.09353e-12
 5.41537e-13 0.00045612 -9.16789e-13
 2.2386e-12 0.00045612 2.24146e-15
 2.37072e-12 0.00045612 5.19978e-13
 2.12708e-12 0.00045612 -1.71775e-12
 2.67887e-12 0.00045612 -8.54441e-13
 4.47392e-12 0.00045612 2.0697e-13
 5.6437e-12 0.00045612 4.83111e-15
 6.21481e-12 0.00045612 -2.03552e-12
 6.8576e-12 0.00045612 -5.66004e-13
 5.28906e-12 0.00045612 1.3184e-12
 0 -0.000537327 0
 0 -0.000537327 0
 0 -0.000537327 0
 0 -0.000537327 0
 0 -0.000537327 0
 0 -0.000537327 0
 0 -0.000537327 0
 0 -0.000537327 0
 0 -0.000537327 0
 0 -0.000537327 0
 0 -0.000537327 0
 0 -0.000537327 0
 0 -0.000537327 0
 0 -0.000537327 0
 0 -0.000537327 0
 0 -0.000537327 0
 0 0.000307245 0