<?xml version="1.0"?>
<!-- time 45.8441-->
<VTKFile type="UnstructuredGrid" version="0.1" byte_order="LittleEndian">
<UnstructuredGrid>
<Piece NumberOfPoints="960" NumberOfCells="0">
<Points>
  <DataArray type="Float32" Name="Position" NumberOfComponents="3" format="ascii">
	-300 2099.76 -300
	-300 2099.76 -100
	-300 2099.76 100
	-300 2099.76 300
	-100 2099.76 -300
	-100 2099.76 -100
	-100 2099.76 100
	-100 2099.76 300
	100 2099.76 -300
	100 2099.76 -100
	100 2099.76 100
	100 2099.76 300
	300 2099.76 -300
	300 2099.76 -100
	300 2099.76 100
	300 2099.76 300
	-300 2299.76 -300
	-300 2299.76 -100
	-300 2299.76 100
	-300 2299.76 300
	-100 2299.76 -300
	-100 2299.76 -100
	-100 2299.76 100
	-100 2299.76 300
	100 2299.76 -300
	100 2299.76 -100
	100 2299.76 100
	100 2299.76 300
	300 2299.76 -300
	300 2299.76 -100
	300 2299.76 100
	300 2299.76 300
	-300 2499.74 -300
	-300 2499.74 -100
	-300 2499.74 100
	-300 2499.74 300
	-100 2499.74 -300
	-100 2499.74 -100
	-100 2499.74 100
	-100 2499.74 300
	100 2499.74 -300
	100 2499.74 -100
	100 2499.74 100
	100 2499.74 300
	300 2499.74 -300
	300 2499.74 -100
	300 2499.74 100
	300 2499.74 300
	-300 2699.73 -300
	-300 2699.73 -100
	-300 2699.73 100
	-300 2699.73 300
	-100 2699.73 -300
	-100 2699.73 -100
	-100 2699.73 100
	-100 2699.73 300
	100 2699.73 -300
	100 2699.73 -100
	100 2699.73 100
	100 2699.73 300
	300 2699.73 -300
	300 2699.73 -100
	300 2699.73 100
	300 2699.73 300
	-300 2899.72 -300
	-300 2899.72 -100
	-300 2899.72 100
	-300 2899.72 300
	-100 2899.72 -300
	-100 2899.72 -100
	-100 2899.72 100
	-100 2899.72 300
	100 2899.72 -300
	100 2899.72 -100
	100 2899.72 100
	100 2899.72 300
	300 2899.72 -300
	300 2899.72 -100
	300 2899.72 100
	300 2899.72 300
	-300 3099.72 -300
	-300 3099.72 -100
	-300 3099.72 100
	-300 3099.72 300
	-100 3099.72 -300
	-100 3099.72 -100
	-100 3099.72 100
	-100 3099.72 300
	100 3099.72 -300
	100 3099.72 -100
	100 3099.72 100
	100 3099.72 300
	300 3099.72 -300
	300 3099.72 -100
	300 3099.72 100
	300 3099.72 300
	-300 3299.72 -300
	-300 3299.72 -100
	-300 3299.72 100
	-300 3299.72 300
	-100 3299.72 -300
	-100 3299.72 -100
	-100 3299.72 100
	-100 3299.72 300
	100 3299.72 -300
	100 3299.72 -100
	100 3299.72 100
	100 3299.72 300
	300 3299.72 -300
	300 3299.72 -100
	300 3299.72 100
	300 3299.72 300
	-300 3499.72 -300
	-300 3499.72 -100
	-300 3499.72 100
	-300 3499.72 300
	-100 3499.72 -300
	-100 3499.72 -100
	-100 3499.72 100
	-100 3499.72 300
	100 3499.72 -300
	100 3499.72 -100
	100 3499.72 100
	100 3499.72 300
	300 3499.72 -300
	300 3499.72 -100
	300 3499.72 100
	300 3499.72 300
	-300 3699.71 -300
	-300 3699.71 -100
	-300 3699.71 100
	-300 3699.71 300
	-100 3699.71 -300
	-100 3699.71 -100
	-100 3699.71 100
	-100 3699.71 300
	100 3699.71 -300
	100 3699.71 -100
	100 3699.71 100
	100 3699.71 300
	300 3699.71 -300
	300 3699.71 -100
	300 3699.71 100
	300 3699.71 300
	-300 3899.71 -300
	-300 3899.71 -100
	-300 3899.71 100
	-300 3899.71 300
	-100 3899.71 -300
	-100 3899.71 -100
	-100 3899.71 100
	-100 3899.71 300
	100 3899.71 -300
	100 3899.71 -100
	100 3899.71 100
	100 3899.71 300
	300 3899.71 -300
	300 3899.71 -100
	300 3899.71 100
	300 3899.71 300
	-300 4099.71 -300
	-300 4099.71 -100
	-300 4099.71 100
	-300 4099.71 300
	-100 4099.71 -300
	-100 4099.71 -100
	-100 4099.71 100
	-100 4099.71 300
	100 4099.71 -300
	100 4099.71 -100
	100 4099.71 100
	100 4099.71 300
	300 4099.71 -300
	300 4099.71 -100
	300 4099.71 100
	300 4099.71 300
	-300 4299.71 -300
	-300 4299.71 -100
	-300 4299.71 100
	-300 4299.71 300
	-100 4299.71 -300
	-100 4299.71 -100
	-100 4299.71 100
	-100 4299.71 300
	100 4299.71 -300
	100 4299.71 -100
	100 4299.71 100
	100 4299.71 300
	300 4299.71 -300
	300 4299.71 -100
	300 4299.71 100
	300 4299.71 300
	-300 4499.72 -300
	-300 4499.72 -100
	-300 4499.72 100
	-300 4499.72 300
	-100 4499.72 -300
	-100 4499.72 -100
	-100 4499.72 100
	-100 4499.72 300
	100 4499.72 -300
	100 4499.72 -100
	100 4499.72 100
	100 4499.72 300
	300 4499.72 -300
	300 4499.72 -100
	300 4499.72 100
	300 4499.72 300
	-300 4699.71 -300
	-300 4699.71 -100
	-300 4699.71 100
	-300 4699.71 300
	-100 4699.71 -300
	-100 4699.71 -100
	-100 4699.71 100
	-100 4699.71 300
	100 4699.71 -300
	100 4699.71 -100
	100 4699.71 100
	100 4699.71 300
	300 4699.71 -300
	300 4699.71 -100
	300 4699.71 100
	300 4699.71 300
	-300 4899.72 -300
	-300 4899.72 -100
	-300 4899.72 100
	-300 4899.72 300
	-100 4899.72 -300
	-100 4899.72 -100
	-100 4899.72 100
	-100 4899.72 300
	100 4899.72 -300
	100 4899.72 -100
	100 4899.72 100
	100 4899.72 300
	300 4899.72 -300
	300 4899.72 -100
	300 4899.72 100
	300 4899.72 300
	-300 5099.72 -300
	-300 5099.72 -100
	-300 5099.72 100
	-300 5099.72 300
	-100 5099.72 -300
	-100 5099.72 -100
	-100 5099.72 100
	-100 5099.72 300
	100 5099.72 -300
	100 5099.72 -100
	100 5099.72 100
	100 5099.72 300
	300 5099.72 -300
	300 5099.72 -100
	300 5099.72 100
	300 5099.72 300
	-300 5299.72 -300
	-300 5299.72 -100
	-300 5299.72 100
	-300 5299.72 300
	-100 5299.72 -300
	-100 5299.72 -100
	-100 5299.72 100
	-100 5299.72 300
	100 5299.72 -300
	100 5299.72 -100
	100 5299.72 100
	100 5299.72 300
	300 5299.72 -300
	300 5299.72 -100
	300 5299.72 100
	300 5299.72 300
	-300 5499.72 -300
	-300 5499.72 -100
	-300 5499.72 100
	-300 5499.72 300
	-100 5499.72 -300
	-100 5499.72 -100
	-100 5499.72 100
	-100 5499.72 300
	100 5499.72 -300
	100 5499.72 -100
	100 5499.72 100
	100 5499.72 300
	300 5499.72 -300
	300 5499.72 -100
	300 5499.72 100
	300 5499.72 300
	-300 5699.72 -300
	-300 5699.72 -100
	-300 5699.72 100
	-300 5699.72 300
	-100 5699.72 -300
	-100 5699.72 -100
	-100 5699.72 100
	-100 5699.72 300
	100 5699.72 -300
	100 5699.72 -100
	100 5699.72 100
	100 5699.72 300
	300 5699.72 -300
	300 5699.72 -100
	300 5699.72 100
	300 5699.72 300
	-300 5899.73 -300
	-300 5899.73 -100
	-300 5899.73 100
	-300 5899.73 300
	-100 5899.73 -300
	-100 5899.73 -100
	-100 5899.73 100
	-100 5899.73 300
	100 5899.73 -300
	100 5899.73 -100
	100 5899.73 100
	100 5899.73 300
	300 5899.73 -300
	300 5899.73 -100
	300 5899.73 100
	300 5899.73 300
	-300 6099.74 -300
	-300 6099.74 -100
	-300 6099.74 100
	-300 6099.74 300
	-100 6099.74 -300
	-100 6099.74 -100
	-100 6099.74 100
	-100 6099.74 300
	100 6099.74 -300
	100 6099.74 -100
	100 6099.74 100
	100 6099.74 300
	300 6099.74 -300
	300 6099.74 -100
	300 6099.74 100
	300 6099.74 300
	-300 6299.74 -300
	-300 6299.74 -100
	-300 6299.74 100
	-300 6299.74 300
	-100 6299.74 -300
	-100 6299.74 -100
	-100 6299.74 100
	-100 6299.74 300
	100 6299.74 -300
	100 6299.74 -100
	100 6299.74 100
	100 6299.74 300
	300 6299.74 -300
	300 6299.74 -100
	300 6299.74 100
	300 6299.74 300
	-300 6499.76 -300
	-300 6499.76 -100
	-300 6499.76 100
	-300 6499.76 300
	-100 6499.76 -300
	-100 6499.76 -100
	-100 6499.76 100
	-100 6499.76 300
	100 6499.76 -300
	100 6499.76 -100
	100 6499.76 100
	100 6499.76 300
	300 6499.76 -300
	300 6499.76 -100
	300 6499.76 100
	300 6499.76 300
	-300 6699.77 -300
	-300 6699.77 -100
	-300 6699.77 100
	-300 6699.77 300
	-100 6699.77 -300
	-100 6699.77 -100
	-100 6699.77 100
	-100 6699.77 300
	100 6699.77 -300
	100 6699.77 -100
	100 6699.77 100
	100 6699.77 300
	300 6699.77 -300
	300 6699.77 -100
	300 6699.77 100
	300 6699.77 300
	-300 6899.77 -300
	-300 6899.77 -100
	-300 6899.77 100
	-300 6899.77 300
	-100 6899.77 -300
	-100 6899.77 -100
	-100 6899.77 100
	-100 6899.77 300
	100 6899.77 -300
	100 6899.77 -100
	100 6899.77 100
	100 6899.77 300
	300 6899.77 -300
	300 6899.77 -100
	300 6899.77 100
	300 6899.77 300
	-300 7099.78 -300
	-300 7099.78 -100
	-300 7099.78 100
	-300 7099.78 300
	-100 7099.78 -300
	-100 7099.78 -100
	-100 7099.78 100
	-100 7099.78 300
	100 7099.78 -300
	100 7099.78 -100
	100 7099.78 100
	100 7099.78 300
	300 7099.78 -300
	300 7099.78 -100
	300 7099.78 100
	300 7099.78 300
	-300 7299.78 -300
	-300 7299.78 -100
	-300 7299.78 100
	-300 7299.78 300
	-100 7299.78 -300
	-100 7299.78 -100
	-100 7299.78 100
	-100 7299.78 300
	100 7299.78 -300
	100 7299.78 -100
	100 7299.78 100
	100 7299.78 300
	300 7299.78 -300
	300 7299.78 -100
	300 7299.78 100
	300 7299.78 300
	-300 7499.78 -300
	-300 7499.78 -100
	-300 7499.78 100
	-300 7499.78 300
	-100 7499.78 -300
	-100 7499.78 -100
	-100 7499.78 100
	-100 7499.78 300
	100 7499.78 -300
	100 7499.78 -100
	100 7499.78 100
	100 7499.78 300
	300 7499.78 -300
	300 7499.78 -100
	300 7499.78 100
	300 7499.78 300
	-300 7699.78 -300
	-300 7699.78 -100
	-300 7699.78 100
	-300 7699.78 300
	-100 7699.78 -300
	-100 7699.78 -100
	-100 7699.78 100
	-100 7699.78 300
	100 7699.78 -300
	100 7699.78 -100
	100 7699.78 100
	100 7699.78 300
	300 7699.78 -300
	300 7699.78 -100
	300 7699.78 100
	300 7699.78 300
	-300 7899.78 -300
	-300 7899.78 -100
	-300 7899.78 100
	-300 7899.78 300
	-100 7899.78 -300
	-100 7899.78 -100
	-100 7899.78 100
	-100 7899.78 300
	100 7899.78 -300
	100 7899.78 -100
	100 7899.78 100
	100 7899.78 300
	300 7899.78 -300
	300 7899.78 -100
	300 7899.78 100
	300 7899.78 300
	-300 8099.79 -300
	-300 8099.79 -100
	-300 8099.79 100
	-300 8099.79 300
	-100 8099.79 -300
	-100 8099.79 -100
	-100 8099.79 100
	-100 8099.79 300
	100 8099.79 -300
	100 8099.79 -100
	100 8099.79 100
	100 8099.79 300
	300 8099.79 -300
	300 8099.79 -100
	300 8099.79 100
	300 8099.79 300
	-300 8299.79 -300
	-300 8299.79 -100
	-300 8299.79 100
	-300 8299.79 300
	-100 8299.79 -300
	-100 8299.79 -100
	-100 8299.79 100
	-100 8299.79 300
	100 8299.79 -300
	100 8299.79 -100
	100 8299.79 100
	100 8299.79 300
	300 8299.79 -300
	300 8299.79 -100
	300 8299.79 100
	300 8299.79 300
	-300 8499.79 -300
	-300 8499.79 -100
	-300 8499.79 100
	-300 8499.79 300
	-100 8499.79 -300
	-100 8499.79 -100
	-100 8499.79 100
	-100 8499.79 300
	100 8499.79 -300
	100 8499.79 -100
	100 8499.79 100
	100 8499.79 300
	300 8499.79 -300
	300 8499.79 -100
	300 8499.79 100
	300 8499.79 300
	-300 8699.8 -300
	-300 8699.8 -100
	-300 8699.8 100
	-300 8699.8 300
	-100 8699.8 -300
	-100 8699.8 -100
	-100 8699.8 100
	-100 8699.8 300
	100 8699.8 -300
	100 8699.8 -100
	100 8699.8 100
	100 8699.8 300
	300 8699.8 -300
	300 8699.8 -100
	300 8699.8 100
	300 8699.8 300
	-300 8899.8 -300
	-300 8899.8 -100
	-300 8899.8 100
	-300 8899.8 300
	-100 8899.8 -300
	-100 8899.8 -100
	-100 8899.8 100
	-100 8899.8 300
	100 8899.8 -300
	100 8899.8 -100
	100 8899.8 100
	100 8899.8 300
	300 8899.8 -300
	300 8899.8 -100
	300 8899.8 100
	300 8899.8 300
	-300 9099.81 -300
	-300 9099.81 -100
	-300 9099.81 100
	-300 9099.81 300
	-100 9099.81 -300
	-100 9099.81 -100
	-100 9099.81 100
	-100 9099.81 300
	100 9099.81 -300
	100 9099.81 -100
	100 9099.81 100
	100 9099.81 300
	300 9099.81 -300
	300 9099.81 -100
	300 9099.81 100
	300 9099.81 300
	-300 9299.81 -300
	-300 9299.81 -100
	-300 9299.81 100
	-300 9299.81 300
	-100 9299.81 -300
	-100 9299.81 -100
	-100 9299.81 100
	-100 9299.81 300
	100 9299.81 -300
	100 9299.81 -100
	100 9299.81 100
	100 9299.81 300
	300 9299.81 -300
	300 9299.81 -100
	300 9299.81 100
	300 9299.81 300
	-300 9499.82 -300
	-300 9499.82 -100
	-300 9499.82 100
	-300 9499.82 300
	-100 9499.82 -300
	-100 9499.82 -100
	-100 9499.82 100
	-100 9499.82 300
	100 9499.82 -300
	100 9499.82 -100
	100 9499.82 100
	100 9499.82 300
	300 9499.82 -300
	300 9499.82 -100
	300 9499.82 100
	300 9499.82 300
	-300 9699.82 -300
	-300 9699.82 -100
	-300 9699.82 100
	-300 9699.82 300
	-100 9699.82 -300
	-100 9699.82 -100
	-100 9699.82 100
	-100 9699.82 300
	100 9699.82 -300
	100 9699.82 -100
	100 9699.82 100
	100 9699.82 300
	300 9699.82 -300
	300 9699.82 -100
	300 9699.82 100
	300 9699.82 300
	-300 9899.83 -300
	-300 9899.83 -100
	-300 9899.83 100
	-300 9899.83 300
	-100 9899.83 -300
	-100 9899.83 -100
	-100 9899.83 100
	-100 9899.83 300
	100 9899.83 -300
	100 9899.83 -100
	100 9899.83 100
	100 9899.83 300
	300 9899.83 -300
	300 9899.83 -100
	300 9899.83 100
	300 9899.83 300
	-300 10099.8 -300
	-300 10099.8 -100
	-300 10099.8 100
	-300 10099.8 300
	-100 10099.8 -300
	-100 10099.8 -100
	-100 10099.8 100
	-100 10099.8 300
	100 10099.8 -300
	100 10099.8 -100
	100 10099.8 100
	100 10099.8 300
	300 10099.8 -300
	300 10099.8 -100
	300 10099.8 100
	300 10099.8 300
	-300 10299.8 -300
	-300 10299.8 -100
	-300 10299.8 100
	-300 10299.8 300
	-100 10299.8 -300
	-100 10299.8 -100
	-100 10299.8 100
	-100 10299.8 300
	100 10299.8 -300
	100 10299.8 -100
	100 10299.8 100
	100 10299.8 300
	300 10299.8 -300
	300 10299.8 -100
	300 10299.8 100
	300 10299.8 300
	-300 10499.8 -300
	-300 10499.8 -100
	-300 10499.8 100
	-300 10499.8 300
	-100 10499.8 -300
	-100 10499.8 -100
	-100 10499.8 100
	-100 10499.8 300
	100 10499.8 -300
	100 10499.8 -100
	100 10499.8 100
	100 10499.8 300
	300 10499.8 -300
	300 10499.8 -100
	300 10499.8 100
	300 10499.8 300
	-300 10699.9 -300
	-300 10699.9 -100
	-300 10699.9 100
	-300 10699.9 300
	-100 10699.9 -300
	-100 10699.9 -100
	-100 10699.9 100
	-100 10699.9 300
	100 10699.9 -300
	100 10699.9 -100
	100 10699.9 100
	100 10699.9 300
	300 10699.9 -300
	300 10699.9 -100
	300 10699.9 100
	300 10699.9 300
	-300 10899.9 -300
	-300 10899.9 -100
	-300 10899.9 100
	-300 10899.9 300
	-100 10899.9 -300
	-100 10899.9 -100
	-100 10899.9 100
	-100 10899.9 300
	100 10899.9 -300
	100 10899.9 -100
	100 10899.9 100
	100 10899.9 300
	300 10899.9 -300
	300 10899.9 -100
	300 10899.9 100
	300 10899.9 300
	-300 11099.9 -300
	-300 11099.9 -100
	-300 11099.9 100
	-300 11099.9 300
	-100 11099.9 -300
	-100 11099.9 -100
	-100 11099.9 100
	-100 11099.9 300
	100 11099.9 -300
	100 11099.9 -100
	100 11099.9 100
	100 11099.9 300
	300 11099.9 -300
	300 11099.9 -100
	300 11099.9 100
	300 11099.9 300
	-300 11299.9 -300
	-300 11299.9 -100
	-300 11299.9 100
	-300 11299.9 300
	-100 11299.9 -300
	-100 11299.9 -100
	-100 11299.9 100
	-100 11299.9 300
	100 11299.9 -300
	100 11299.9 -100
	100 11299.9 100
	100 11299.9 300
	300 11299.9 -300
	300 11299.9 -100
	300 11299.9 100
	300 11299.9 300
	-300 11499.9 -300
	-300 11499.9 -100
	-300 11499.9 100
	-300 11499.9 300
	-100 11499.9 -300
	-100 11499.9 -100
	-100 11499.9 100
	-100 11499.9 300
	100 11499.9 -300
	100 11499.9 -100
	100 11499.9 100
	100 11499.9 300
	300 11499.9 -300
	300 11499.9 -100
	300 11499.9 100
	300 11499.9 300
	-300 11699.9 -300
	-300 11699.9 -100
	-300 11699.9 100
	-300 11699.9 300
	-100 11699.9 -300
	-100 11699.9 -100
	-100 11699.9 100
	-100 11699.9 300
	100 11699.9 -300
	100 11699.9 -100
	100 11699.9 100
	100 11699.9 300
	300 11699.9 -300
	300 11699.9 -100
	300 11699.9 100
	300 11699.9 300
	-300 11899.9 -300
	-300 11899.9 -100
	-300 11899.9 100
	-300 11899.9 300
	-100 11899.9 -300
	-100 11899.9 -100
	-100 11899.9 100
	-100 11899.9 300
	100 11899.9 -300
	100 11899.9 -100
	100 11899.9 100
	100 11899.9 300
	300 11899.9 -300
	300 11899.9 -100
	300 11899.9 100
	300 11899.9 300
	-300 12099.9 -300
	-300 12099.9 -100
	-300 12099.9 100
	-300 12099.9 300
	-100 12099.9 -300
	-100 12099.9 -100
	-100 12099.9 100
	-100 12099.9 300
	100 12099.9 -300
	100 12099.9 -100
	100 12099.9 100
	100 12099.9 300
	300 12099.9 -300
	300 12099.9 -100
	300 12099.9 100
	300 12099.9 300
	-300 12300 -300
	-300 12300 -100
	-300 12300 100
	-300 12300 300
	-100 12300 -300
	-100 12300 -100
	-100 12300 100
	-100 12300 300
	100 12300 -300
	100 12300 -100
	100 12300 100
	100 12300 300
	300 12300 -300
	300 12300 -100
	300 12300 100
	300 12300 300
	-300 12500 -300
	-300 12500 -100
	-300 12500 100
	-300 12500 300
	-100 12500 -300
	-100 12500 -100
	-100 12500 100
	-100 12500 300
	100 12500 -300
	100 12500 -100
	100 12500 100
	100 12500 300
	300 12500 -300
	300 12500 -100
	300 12500 100
	300 12500 300
	-300 12700 -300
	-300 12700 -100
	-300 12700 100
	-300 12700 300
	-100 12700 -300
	-100 12700 -100
	-100 12700 100
	-100 12700 300
	100 12700 -300
	100 12700 -100
	100 12700 100
	100 12700 300
	300 12700 -300
	300 12700 -100
	300 12700 100
	300 12700 300
	-300 12900.1 -300
	-300 12900.1 -100
	-300 12900.1 100
	-300 12900.1 300
	-100 12900.1 -300
	-100 12900.1 -100
	-100 12900.1 100
	-100 12900.1 300
	100 12900.1 -300
	100 12900.1 -100
	100 12900.1 100
	100 12900.1 300
	300 12900.1 -300
	300 12900.1 -100
	300 12900.1 100
	300 12900.1 300
	-300 13100.1 -300
	-300 13100.1 -100
	-300 13100.1 100
	-300 13100.1 300
	-100 13100.1 -300
	-100 13100.1 -100
	-100 13100.1 100
	-100 13100.1 300
	100 13100.1 -300
	100 13100.1 -100
	100 13100.1 100
	100 13100.1 300
	300 13100.1 -300
	300 13100.1 -100
	300 13100.1 100
	300 13100.1 300
	-300 13300.2 -300
	-300 13300.2 -100
	-300 13300.2 100
	-300 13300.2 300
	-100 13300.2 -300
	-100 13300.2 -100
	-100 13300.2 100
	-100 13300.2 300
	100 13300.2 -300
	100 13300.2 -100
	100 13300.2 100
	100 13300.2 300
	300 13300.2 -300
	300 13300.2 -100
	300 13300.2 100
	300 13300.2 300
	-300 13500.3 -300
	-300 13500.3 -100
	-300 13500.3 100
	-300 13500.3 300
	-100 13500.3 -300
	-100 13500.3 -100
	-100 13500.3 100
	-100 13500.3 300
	100 13500.3 -300
	100 13500.3 -100
	100 13500.3 100
	100 13500.3 300
	300 13500.3 -300
	300 13500.3 -100
	300 13500.3 100
	300 13500.3 300
	-300 13700.5 -300
	-300 13700.5 -100
	-300 13700.5 100
	-300 13700.5 300
	-100 13700.5 -300
	-100 13700.5 -100
	-100 13700.5 100
	-100 13700.5 300
	100 13700.5 -300
	100 13700.5 -100
	100 13700.5 100
	100 13700.5 300
	300 13700.5 -300
	300 13700.5 -100
	300 13700.5 100
	300 13700.5 300
	-300 13901 -300
	-300 13901 -100
	-300 13901 100
	-300 13901 300
	-100 13901 -300
	-100 13901 -100
	-100 13901 100
	-100 13901 300
	100 13901 -300
	100 13901 -100
	100 13901 100
	100 13901 300
	300 13901 -300
	300 13901 -100
	300 13901 100
	300 13901 300
  </DataArray>
</Points>
<PointData  Vectors="vector">
  <DataArray type="Float32" Name="Velocity" NumberOfComponents="3" format="ascii">
 -5.94081e-12 -0.0425578 -9.03987e-12
 5.12953e-13 -0.0425578 1.39989e-11
 -3.86872e-12 -0.0425578 1.26077e-11
 2.63233e-12 -0.0425578 -5.01883e-12
 -7.6677e-12 -0.0425578 1.49677e-12
 4.76138e-12 -0.0425578 6.7991e-12
 6.47028e-12 -0.0425578 1.14343e-11
 1.03626e-11 -0.0425578 -2.14495e-12
 -5.70732e-12 -0.0425578 -1.15014e-11
 -4.85805e-12 -0.0425578 2.25119e-11
 1.61112e-12 -0.0425578 1.84206e-11
 1.38509e-11 -0.0425578 -7.17632e-12
 8.29749e-12 -0.0425578 1.43497e-12
 4.51176e-13 -0.0425578 1.92938e-11
 8.71168e-13 -0.0425578 2.4177e-11
 1.33349e-12 -0.0425578 3.48721e-12
 -4.17722e-12 -0.0320374 3.30059e-13
 -5.03345e-12 -0.0320374 1.58034e-12
 -9.23556e-12 -0.0320374 7.04748e-12
 -5.82745e-12 -0.0320374 -2.81376e-12
 2.16612e-11 -0.0320374 1.56454e-12
 2.15433e-11 -0.0320374 6.17371e-12
 2.67796e-11 -0.0320374 4.27779e-12
 2.95409e-11 -0.0320374 7.46877e-13
 2.45145e-11 -0.0320374 -1.53849e-12
 2.83082e-11 -0.0320374 7.64155e-12
 2.86089e-11 -0.0320374 9.05474e-12
 3.56109e-11 -0.0320374 -3.32562e-12
 -1.12054e-11 -0.0320374 3.75697e-12
 -5.78543e-12 -0.0320374 9.60534e-12
 -8.60669e-12 -0.0320374 1.14837e-11
 -8.95969e-12 -0.0320374 -1.15226e-12
 -4.7598e-12 -0.0176884 5.47687e-12
 -6.02266e-12 -0.0176884 4.43845e-12
 -6.03423e-12 -0.0176884 6.59287e-12
 -1.41485e-12 -0.0176884 2.73929e-12
 1.84835e-11 -0.0176884 6.7036e-12
 2.06702e-11 -0.0176884 4.91514e-12
 2.57817e-11 -0.0176884 5.5021e-12
 2.50838e-11 -0.0176884 3.02449e-12
 2.75521e-11 -0.0176884 9.29718e-12
 2.51363e-11 -0.0176884 9.02474e-12
 2.84705e-11 -0.0176884 8.40397e-12
 2.42612e-11 -0.0176884 4.12117e-12
 -9.42123e-12 -0.0176884 9.47526e-12
 -8.34652e-12 -0.0176884 2.12163e-12
 -6.19541e-12 -0.0176884 1.13563e-11
 -3.05334e-12 -0.0176884 7.4314e-12
 -7.80426e-12 -0.0122619 -3.69212e-12
 -3.08391e-12 -0.0122619 -4.90287e-12
 -5.00442e-12 -0.0122619 -8.37872e-13
 -3.41175e-12 -0.0122619 -2.14161e-12
 1.30927e-11 -0.0122619 -3.82715e-12
 4.72543e-12 -0.0122619 -5.48962e-12
 8.49846e-12 -0.0122619 -2.5877e-12
 8.36417e-12 -0.0122619 -1.36217e-12
 9.15628e-12 -0.0122619 -6.0899e-12
 1.07709e-11 -0.0122619 -2.85697e-12
 1.11707e-11 -0.0122619 1.58809e-12
 9.15399e-12 -0.0122619 -2.80144e-12
 -4.87716e-12 -0.0122619 -4.55915e-12
 -4.535e-12 -0.0122619 2.82129e-12
 -3.88596e-12 -0.0122619 -1.0801e-11
 -1.88447e-12 -0.0122619 3.03006e-12
 -2.74557e-12 -0.00589193 1.24579e-12
 6.25707e-13 -0.00589193 -7.24639e-12
 5.33541e-13 -0.00589193 -6.04363e-12
 -4.38422e-13 -0.00589193 6.25022e-13
 1.41106e-11 -0.00589193 1.26877e-13
 8.60189e-12 -0.00589193 -8.31319e-12
 1.05279e-11 -0.00589193 -7.88742e-12
 1.02842e-11 -0.00589193 9.97883e-13
 1.15681e-11 -0.00589193 -1.42145e-12
 1.12941e-11 -0.00589193 -6.24918e-12
 7.5222e-12 -0.00589193 -9.62615e-12
 7.44317e-12 -0.00589193 9.30037e-13
 2.79192e-12 -0.00589193 -9.08592e-13
 2.09853e-12 -0.00589193 -9.98265e-12
 2.82689e-12 -0.00589193 -1.04019e-11
 2.2505e-12 -0.00589193 3.20366e-12
 -1.73696e-12 -0.00418659 9.72728e-13
 -2.2988e-13 -0.00418659 -7.60541e-12
 -2.83819e-12 -0.00418659 -7.59385e-12
 -7.96171e-13 -0.00418659 1.27564e-12
 -5.55028e-12 -0.00418659 -1.60659e-12
 -6.1691e-12 -0.00418659 -3.3065e-12
 -4.55946e-12 -0.00418659 -3.92978e-12
 -4.37307e-12 -0.00418659 -3.68228e-13
 -5.80415e-12 -0.00418659 -1.36105e-12
 -6.16095e-12 -0.00418659 -4.07115e-12
 -4.69574e-12 -0.00418659 -4.70092e-12
 -3.02104e-12 -0.00418659 6.004e-13
 -2.16355e-12 -0.00418659 1.83356e-12
 -8.10414e-13 -0.00418659 -5.4924e-12
 -1.61062e-12 -0.00418659 -3.76323e-12
 -1.91521e-12 -0.00418659 -4.5971e-13
 -1.46001e-12 -0.00336313 -1.70081e-13
 -2.14759e-12 -0.00336313 -6.15795e-12
 -2.11106e-12 -0.00336313 -7.27952e-12
 -1.57693e-13 -0.00336313 1.099e-12
 -5.59843e-12 -0.00336313 6.05301e-13
 -4.08441e-12 -0.00336313 -4.96468e-12
 -4.90963e-12 -0.00336313 -3.33663e-12
 -4.15695e-12 -0.00336313 -1.28852e-12
 -8.00324e-12 -0.00336313 -1.79597e-13
 -6.43857e-12 -0.00336313 -4.98263e-12
 -6.81383e-12 -0.00336313 -4.67048e-12
 -6.64755e-12 -0.00336313 -1.25675e-12
 8.47443e-13 -0.00336313 -1.25431e-12
 4.7803e-13 -0.00336313 -3.01364e-12
 -3.22578e-13 -0.00336313 -4.02439e-12
 -1.74329e-13 -0.00336313 -1.09274e-12
 -4.90152e-12 -0.00168554 -1.48367e-13
 -1.80924e-12 -0.00168554 -1.73095e-12
 -1.19555e-12 -0.00168554 -2.32152e-12
 -6.00664e-13 -0.00168554 3.75083e-13
 -2.0442e-12 -0.00168554 7.16516e-13
 -8.88382e-12 -0.00168554 -2.55393e-12
 -1.0499e-11 -0.00168554 -2.40559e-12
 -1.05107e-11 -0.00168554 8.93112e-13
 -7.80134e-12 -0.00168554 -1.45438e-12
 -8.46615e-12 -0.00168554 -1.43449e-12
 -7.94147e-12 -0.00168554 -3.71451e-12
 -8.61088e-12 -0.00168554 3.18885e-13
 -1.03581e-12 -0.00168554 -2.58575e-14
 3.34922e-12 -0.00168554 -4.19753e-12
 8.80395e-13 -0.00168554 -2.18944e-12
 1.62023e-12 -0.00168554 5.55343e-13
 -2.17155e-12 -0.000985298 1.13504e-12
 -6.83294e-13 -0.000985298 -1.4355e-12
 -1.9069e-12 -0.000985298 -1.55142e-12
 -5.45785e-15 -0.000985297 -2.58023e-13
 -6.92222e-12 -0.000985297 7.94618e-13
 -8.24534e-12 -0.000985297 -2.87811e-12
 -9.84455e-12 -0.000985297 -1.52329e-12
 -1.01896e-11 -0.000985297 7.13897e-13
 -9.7391e-12 -0.000985298 8.47646e-13
 -9.09254e-12 -0.000985297 -1.69455e-12
 -7.07743e-12 -0.000985297 -2.78472e-12
 -8.31376e-12 -0.000985297 1.35981e-12
 1.20452e-12 -0.000985297 1.30559e-12
 -5.58723e-13 -0.000985297 -2.35951e-12
 7.79036e-13 -0.000985297 -2.18294e-12
 1.17085e-13 -0.000985298 6.58131e-13
 1.02106e-12 -0.00142416 5.86081e-13
 -4.04129e-13 -0.00142416 -6.09723e-13
 7.43251e-13 -0.00142416 2.27626e-13
 -2.48238e-13 -0.00142416 8.35234e-13
 -5.23226e-12 -0.00142416 7.66449e-14
 -4.92131e-12 -0.00142416 -3.3731e-12
 -4.60731e-12 -0.00142416 -1.94842e-12
 -6.25937e-12 -0.00142416 8.36063e-13
 -2.49456e-12 -0.00142416 -2.99969e-13
 -5.16058e-12 -0.00142416 -3.32453e-12
 -7.15403e-12 -0.00142416 -2.44576e-12
 -8.62857e-12 -0.00142416 1.0046e-12
 1.62574e-12 -0.00142416 -4.35933e-13
 1.41952e-12 -0.00142416 -4.68066e-12
 1.36407e-12 -0.00142416 -3.56352e-12
 2.44533e-13 -0.00142416 -3.69379e-13
 -2.17233e-13 -0.0018432 7.57256e-14
 -8.33682e-14 -0.0018432 -1.07567e-12
 6.32099e-13 -0.0018432 3.34032e-13
 -2.59924e-13 -0.0018432 1.27558e-13
 -1.39776e-12 -0.0018432 -4.70748e-13
 -2.47819e-12 -0.0018432 -2.50518e-12
 -2.98475e-12 -0.0018432 -2.58638e-12
 -3.82746e-12 -0.0018432 5.07099e-14
 -2.00867e-12 -0.0018432 2.81051e-14
 -4.19075e-12 -0.0018432 -4.03823e-12
 -4.18919e-12 -0.0018432 -2.09467e-12
 -4.73387e-12 -0.0018432 1.39662e-12
 1.84825e-12 -0.0018432 -4.6035e-13
 1.11777e-12 -0.0018432 -3.11661e-12
 1.68871e-12 -0.0018432 -4.14083e-12
 -4.42102e-13 -0.0018432 -5.1043e-13
 -1.18392e-12 -0.000589961 4.65864e-13
 3.17114e-13 -0.000589961 1.03282e-12
 1.11329e-12 -0.000589961 2.76856e-13
 -3.99751e-12 -0.000589961 1.33277e-12
 8.53732e-13 -0.000589961 2.89394e-13
 -1.87239e-12 -0.000589961 -2.64513e-13
 -1.66406e-12 -0.000589961 7.10061e-13
 2.76118e-13 -0.000589961 1.45934e-13
 -4.26823e-13 -0.000589961 8.48988e-13
 -1.18607e-12 -0.000589961 1.08188e-12
 -1.08476e-12 -0.000589961 7.64475e-13
 -2.92932e-14 -0.000589961 1.2932e-13
 5.95066e-13 -0.000589961 -1.77557e-12
 2.95357e-13 -0.000589961 1.30785e-12
 1.01851e-12 -0.000589961 1.32449e-13
 1.11878e-12 -0.000589961 9.54615e-13
 -1.48457e-12 -0.00104397 -2.31097e-13
 -1.20659e-12 -0.00104397 6.57254e-13
 -2.52292e-12 -0.00104397 -2.29199e-14
 1.39164e-12 -0.00104397 1.44944e-12
 2.68972e-12 -0.00104397 5.49873e-13
 1.58501e-12 -0.00104397 -5.11889e-13
 1.24665e-12 -0.00104397 3.89349e-13
 1.14455e-12 -0.00104397 7.51755e-13
 1.32085e-12 -0.00104397 1.68392e-13
 1.46937e-12 -0.00104397 5.35209e-13
 3.66887e-12 -0.00104397 5.39241e-13
 3.1139e-13 -0.00104397 1.03501e-12
 1.52028e-12 -0.00104397 4.18996e-13
 1.21533e-12 -0.00104397 4.23404e-13
 1.69171e-12 -0.00104397 3.61279e-13
 7.83717e-13 -0.00104397 1.82712e-13
 -2.79074e-12 -0.0010302 -1.32506e-12
 -3.78603e-12 -0.0010302 2.97745e-13
 -3.45985e-12 -0.0010302 4.76872e-13
 -3.45148e-12 -0.0010302 -6.79778e-13
 -7.66181e-13 -0.0010302 -4.31667e-13
 3.70313e-12 -0.0010302 -4.71555e-13
 2.95518e-12 -0.0010302 5.12045e-13
 2.08461e-12 -0.0010302 -6.67496e-13
 2.96936e-12 -0.0010302 -4.54409e-13
 -7.40395e-13 -0.0010302 4.80613e-13
 1.85725e-12 -0.0010302 1.53179e-12
 3.25667e-12 -0.0010302 -1.69517e-13
 1.0254e-12 -0.0010302 8.68979e-13
 1.12861e-12 -0.0010302 8.80547e-13
 1.40794e-12 -0.0010302 1.03676e-12
 2.90994e-12 -0.0010302 2.40386e-13
 -2.39894e-12 -0.000897878 -2.0278e-13
 -3.44434e-12 -0.000897878 -9.5187e-14
 -1.95831e-12 -0.000897878 4.00061e-13
 -3.86151e-12 -0.000897878 -5.77334e-13
 -1.68936e-12 -0.000897878 2.27263e-13
 2.35665e-12 -0.000897878 -2.29551e-13
 1.85298e-12 -0.000897878 -5.39447e-13
 4.28904e-12 -0.000897878 4.212e-13
 2.01926e-12 -0.000897878 1.68227e-13
 -1.532e-12 -0.000897878 9.28927e-14
 -7.09921e-13 -0.000897878 5.31665e-13
 4.2357e-13 -0.000897878 6.24525e-13
 7.45501e-13 -0.000897878 5.48519e-13
 1.68235e-12 -0.000897878 1.80351e-12
 1.47258e-12 -0.000897878 -2.20912e-13
 1.77442e-12 -0.000897878 1.18673e-12
 8.69956e-13 -0.000930806 -9.32949e-13
 1.40581e-12 -0.000930806 -8.85997e-13
 1.39251e-12 -0.000930806 8.2005e-14
 7.58523e-13 -0.000930806 -3.28494e-13
 -1.42869e-12 -0.000930806 -1.551e-12
 -1.11053e-12 -0.000930806 -3.97894e-13
 -4.93713e-13 -0.000930806 5.70313e-13
 -9.96353e-13 -0.000930806 -1.11048e-12
 -1.00235e-12 -0.000930806 -1.55355e-12
 3.00774e-13 -0.000930806 -4.22623e-13
 -1.25297e-13 -0.000930806 1.15207e-12
 2.59968e-13 -0.000930806 -9.21613e-13
 1.42097e-12 -0.000930806 -7.70211e-13
 -8.91488e-13 -0.000930806 3.21687e-13
 -3.3172e-13 -0.000930806 -1.19999e-13
 1.70898e-12 -0.000930806 3.85257e-13
 -2.23462e-13 -0.00143276 -7.22451e-13
 -7.02924e-14 -0.00143276 -7.13971e-13
 8.64855e-15 -0.00143276 -5.82319e-14
 -4.07993e-13 -0.00143276 -2.26932e-13
 -1.25041e-12 -0.00143276 -6.24031e-13
 -2.20087e-12 -0.00143276 -1.2067e-12
 -2.01002e-12 -0.00143276 -9.85693e-13
 -1.55552e-12 -0.00143276 2.101e-13
 -1.25309e-12 -0.00143276 -1.2852e-12
 -1.31738e-12 -0.00143276 -6.56425e-13
 -9.60169e-13 -0.00143276 -5.01944e-13
 -6.43359e-13 -0.00143276 -7.42098e-14
 2.20333e-13 -0.00143276 -1.40857e-12
 6.31282e-13 -0.00143276 2.77371e-13
 9.52727e-14 -0.00143276 -3.65806e-13
 3.72677e-13 -0.00143276 1.45335e-13
 1.33136e-13 -0.000725863 -1.66951e-12
 -3.88852e-14 -0.000725863 -9.68918e-14
 2.18364e-14 -0.000725863 -1.50702e-12
 6.06671e-13 -0.000725863 -9.11602e-14
 8.28666e-13 -0.000725863 -1.74017e-12
 1.14666e-13 -0.000725863 2.92142e-13
 1.86101e-13 -0.000725863 -5.65779e-13
 7.33239e-13 -0.000725863 -8.26206e-13
 -7.35797e-13 -0.000725863 -1.0975e-12
 8.64157e-14 -0.000725863 -9.21162e-13
 -4.17824e-13 -0.000725863 -1.24008e-12
 -5.93675e-13 -0.000725863 4.11557e-13
 7.30822e-13 -0.000725863 4.5752e-13
 1.31995e-12 -0.000725863 -3.82775e-13
 1.65278e-12 -0.000725863 -1.34167e-12
 1.65858e-12 -0.000725863 -4.29461e-13
 -5.36237e-14 -0.00214022 -1.2297e-12
 5.33707e-13 -0.00214022 -9.91001e-13
 2.90545e-13 -0.00214022 -1.69413e-12
 2.55046e-13 -0.00214022 -1.14849e-12
 -6.57357e-13 -0.00214022 -1.59e-12
 1.21801e-12 -0.00214022 -1.99237e-12
 -3.00004e-13 -0.00214022 -3.20493e-13
 1.8564e-13 -0.00214022 -3.63143e-13
 1.03529e-12 -0.00214022 -1.60133e-12
 7.99525e-13 -0.00214022 1.40422e-13
 1.18516e-12 -0.00214022 -1.42515e-12
 2.04097e-12 -0.00214022 -5.8852e-13
 1.74039e-12 -0.00214022 -1.74179e-12
 -3.40584e-13 -0.00214022 -4.24721e-13
 1.80597e-12 -0.00214022 -9.46691e-14
 1.71703e-12 -0.00214022 -4.4499e-13
 -1.43946e-12 -0.000286428 4.57175e-13
 -1.76065e-12 -0.000286428 -1.21133e-12
 -1.29854e-12 -0.000286428 -4.33161e-13
 -1.75485e-12 -0.000286428 1.30209e-12
 -1.00331e-12 -0.000286428 2.05397e-13
 -1.14631e-12 -0.000286428 -6.82939e-14
 -2.08332e-13 -0.000286428 -1.53838e-12
 -9.03647e-13 -0.000286428 1.06175e-12
 -7.45569e-13 -0.000286428 5.54099e-13
 -6.42707e-13 -0.000286428 -7.82639e-13
 -1.46906e-12 -0.000286428 1.02823e-14
 -4.88585e-13 -0.000286428 6.56245e-13
 -9.48709e-15 -0.000286428 -1.94019e-13
 -7.15795e-13 -0.000286428 -4.46102e-13
 -5.1797e-13 -0.000286428 -2.82009e-13
 -7.76881e-13 -0.000286428 5.35924e-13
 8.49101e-20 0.000305439 5.61697e-15
 0 0.000305438 5.48381e-15
 1.27017e-19 0.000305438 5.47951e-15
 0 0.000305438 -7.05672e-21
 -7.47176e-16 0.000305439 3.99283e-15
 -2.93336e-15 0.000305438 4.21862e-15
 -3.15344e-15 0.000305438 3.14561e-15
 -5.49915e-15 0.000305438 -2.49165e-17
 -4.79583e-16 0.000305439 3.24353e-15