<?xml version="1.0"?>
<VTKFile type="UnstructuredGrid" version="0.1" byte_order="LittleEndian" compressor="vtkZLibDataCompressor">
<UnstructuredGrid>
<Piece NumberOfPoints="960" NumberOfCells="120">
<Points>
<DataArray type="Float32" NumberOfComponents="3" format="ascii">
-4.000000e+02 -6.000000e+03 -4.000000e+02
0.000000e+00 -6.000000e+03 -4.000000e+02
-4.000000e+02 -5.600000e+03 -4.000000e+02
-4.018460e-10 -5.600000e+03 -4.000000e+02
-4.000000e+02 -6.000000e+03 0.000000e+00
0.000000e+00 -6.000000e+03 0.000000e+00
-4.000000e+02 -5.600000e+03 -2.098610e-10
1.100660e-10 -5.600000e+03 -2.238460e-10
0.000000e+00 -6.000000e+03 -4.000000e+02
4.000000e+02 -6.000000e+03 -4.000000e+02
-4.018460e-10 -5.600000e+03 -4.000000e+02
4.000000e+02 -5.600000e+03 -4.000000e+02
0.000000e+00 -6.000000e+03 0.000000e+00
4.000000e+02 -6.000000e+03 0.000000e+00
1.100660e-10 -5.600000e+03 -2.238460e-10
4.000000e+02 -5.600000e+03 2.086790e-10
-4.000000e+02 -5.600000e+03 -4.000000e+02
-4.018460e-10 -5.600000e+03 -4.000000e+02
-4.000000e+02 -5.200000e+03 -4.000000e+02
-2.896680e-13 -5.200000e+03 -4.000000e+02
-4.000000e+02 -5.600000e+03 -2.098610e-10
1.100660e-10 -5.600000e+03 -2.238460e-10
-4.000000e+02 -5.200000e+03 1.077440e-11
7.879180e-11 -5.200000e+03 1.520970e-10
-4.018460e-10 -5.600000e+03 -4.000000e+02
4.000000e+02 -5.600000e+03 -4.000000e+02
-2.896680e-13 -5.200000e+03 -4.000000e+02
4.000000e+02 -5.200000e+03 -4.000000e+02
1.100660e-10 -5.600000e+03 -2.238460e-10
4.000000e+02 -5.600000e+03 2.086790e-10
7.879180e-11 -5.200000e+03 1.520970e-10
4.000000e+02 -5.200000e+03 5.652440e-10
-4.000000e+02 -5.200000e+03 -4.000000e+02
-2.896680e-13 -5.200000e+03 -4.000000e+02
-4.000000e+02 -4.800000e+03 -4.000000e+02
6.922120e-10 -4.800000e+03 -4.000000e+02
-4.000000e+02 -5.200000e+03 1.077440e-11
7.879180e-11 -5.200000e+03 1.520970e-10
-4.000000e+02 -4.800000e+03 1.028520e-10
2.160520e-10 -4.800000e+03 4.837700e-10
-2.896680e-13 -5.200000e+03 -4.000000e+02
4.000000e+02 -5.200000e+03 -4.000000e+02
6.922120e-10 -4.800000e+03 -4.000000e+02
4.000000e+02 -4.800000e+03 -4.000000e+02
7.879180e-11 -5.200000e+03 1.520970e-10
4.000000e+02 -5.200000e+03 5.652440e-10
2.160520e-10 -4.800000e+03 4.837700e-10
4.000000e+02 -4.800000e+03 5.236220e-10
-4.000000e+02 -4.800000e+03 -4.000000e+02
6.922120e-10 -4.800000e+03 -4.000000e+02
-4.000000e+02 -4.400000e+03 -4.000000e+02
6.223710e-10 -4.400000e+03 -4.000000e+02
-4.000000e+02 -4.800000e+03 1.028520e-10
2.160520e-10 -4.800000e+03 4.837700e-10
-4.000000e+02 -4.400000e+03 -3.417950e-10
5.162570e-10 -4.400000e+03 -9.885970e-11
6.922120e-10 -4.800000e+03 -4.000000e+02
4.000000e+02 -4.800000e+03 -4.000000e+02
6.223710e-10 -4.400000e+03 -4.000000e+02
4.000000e+02 -4.400000e+03 -4.000000e+02
2.160520e-10 -4.800000e+03 4.837700e-10
4.000000e+02 -4.800000e+03 5.236220e-10
5.162570e-10 -4.400000e+03 -9.885970e-11
4.000000e+02 -4.400000e+03 3.797530e-10
-4.000000e+02 -4.400000e+03 -4.000000e+02
6.223710e-10 -4.400000e+03 -4.000000e+02
-4.000000e+02 -4.000000e+03 -4.000000e+02
9.423140e-10 -4.000000e+03 -4.000000e+02
-4.000000e+02 -4.400000e+03 -3.417950e-10
5.162570e-10 -4.400000e+03 -9.885970e-11
-4.000000e+02 -4.000000e+03 -3.775690e-10
6.647470e-10 -4.000000e+03 -5.162030e-10
6.223710e-10 -4.400000e+03 -4.000000e+02
4.000000e+02 -4.400000e+03 -4.000000e+02
9.423140e-10 -4.000000e+03 -4.000000e+02
4.000000e+02 -4.000000e+03 -4.000000e+02
5.162570e-10 -4.400000e+03 -9.885970e-11
4.000000e+02 -4.400000e+03 3.797530e-10
6.647470e-10 -4.000000e+03 -5.162030e-10
4.000000e+02 -4.000000e+03 1.236800e-10
-4.000000e+02 -4.000000e+03 -4.000000e+02
9.423140e-10 -4.000000e+03 -4.000000e+02
-4.000000e+02 -3.600010e+03 -4.000000e+02
1.114330e-09 -3.600010e+03 -4.000000e+02
-4.000000e+02 -4.000000e+03 -3.775690e-10
6.647470e-10 -4.000000e+03 -5.162030e-10
-4.000000e+02 -3.600010e+03 -1.126220e-09
6.842490e-10 -3.600010e+03 -7.496540e-10
9.423140e-10 -4.000000e+03 -4.000000e+02
4.000000e+02 -4.000000e+03 -4.000000e+02
1.114330e-09 -3.600010e+03 -4.000000e+02
4.000000e+02 -3.600010e+03 -4.000000e+02
6.647470e-10 -4.000000e+03 -5.162030e-10
4.000000e+02 -4.000000e+03 1.236800e-10
6.842490e-10 -3.600010e+03 -7.496540e-10
4.000000e+02 -3.600010e+03 -6.657460e-10
-4.000000e+02 -3.600010e+03 -4.000000e+02
1.114330e-09 -3.600010e+03 -4.000000e+02
-4.000000e+02 -3.200010e+03 -4.000000e+02
1.201520e-09 -3.200010e+03 -4.000000e+02
-4.000000e+02 -3.600010e+03 -1.126220e-09
6.842490e-10 -3.600010e+03 -7.496540e-10
-4.000000e+02 -3.200010e+03 -1.630940e-09
6.387120e-10 -3.200010e+03 -1.302580e-09
1.114330e-09 -3.600010e+03 -4.000000e+02
4.000000e+02 -3.600010e+03 -4.000000e+02
1.201520e-09 -3.200010e+03 -4.000000e+02
4.000000e+02 -3.200010e+03 -4.000000e+02
6.842490e-10 -3.600010e+03 -7.496540e-10
4.000000e+02 -3.600010e+03 -6.657460e-10
6.387120e-10 -3.200010e+03 -1.302580e-09
4.000000e+02 -3.200010e+03 -9.469740e-10
-4.000000e+02 -3.200010e+03 -4.000000e+02
1.201520e-09 -3.200010e+03 -4.000000e+02
-4.000000e+02 -2.800010e+03 -4.000000e+02
1.107200e-09 -2.800010e+03 -4.000000e+02
-4.000000e+02 -3.200010e+03 -1.630940e-09
6.387120e-10 -3.200010e+03 -1.302580e-09
-4.000000e+02 -2.800010e+03 -2.624580e-09
1.016480e-09 -2.800010e+03 -1.838650e-09
1.201520e-09 -3.200010e+03 -4.000000e+02
4.000000e+02 -3.200010e+03 -4.000000e+02
1.107200e-09 -2.800010e+03 -4.000000e+02
4.000000e+02 -2.800010e+03 -4.000000e+02
6.387120e-10 -3.200010e+03 -1.302580e-09
4.000000e+02 -3.200010e+03 -9.469740e-10
1.016480e-09 -2.800010e+03 -1.838650e-09
4.000000e+02 -2.800010e+03 -1.343820e-09
-4.000000e+02 -2.800010e+03 -4.000000e+02
1.107200e-09 -2.800010e+03 -4.000000e+02
-4.000000e+02 -2.400010e+03 -4.000000e+02
1.178920e-09 -2.400010e+03 -4.000000e+02
-4.000000e+02 -2.800010e+03 -2.624580e-09
1.016480e-09 -2.800010e+03 -1.838650e-09
-4.000000e+02 -2.400010e+03 -2.151020e-09
9.499670e-10 -2.400010e+03 -1.469620e-09
1.107200e-09 -2.800010e+03 -4.000000e+02
4.000000e+02 -2.800010e+03 -4.000000e+02
1.178920e-09 -2.400010e+03 -4.000000e+02
4.000000e+02 -2.400010e+03 -4.000000e+02
1.016480e-09 -2.800010e+03 -1.838650e-09
4.000000e+02 -2.800010e+03 -1.343820e-09
9.499670e-10 -2.400010e+03 -1.469620e-09
4.000000e+02 -2.400010e+03 -1.433400e-09
-4.000000e+02 -2.400010e+03 -4.000000e+02
1.178920e-09 -2.400010e+03 -4.000000e+02
-4.000000e+02 -2.000010e+03 -4.000000e+02
1.330650e-09 -2.000010e+03 -4.000000e+02
-4.000000e+02 -2.400010e+03 -2.151020e-09
9.499670e-10 -2.400010e+03 -1.469620e-09
-4.000000e+02 -2.000010e+03 -8.997740e-10
7.765550e-10 -2.000010e+03 -7.358370e-10
1.178920e-09 -2.400010e+03 -4.000000e+02
4.000000e+02 -2.400010e+03 -4.000000e+02
1.330650e-09 -2.000010e+03 -4.000000e+02
4.000000e+02 -2.000010e+03 -4.000000e+02
9.499670e-10 -2.400010e+03 -1.469620e-09
4.000000e+02 -2.400010e+03 -1.433400e-09
7.765550e-10 -2.000010e+03 -7.358370e-10
4.000000e+02 -2.000010e+03 -5.884000e-10
-4.000000e+02 -2.000010e+03 -4.000000e+02
1.330650e-09 -2.000010e+03 -4.000000e+02
-4.000000e+02 -1.600020e+03 -4.000000e+02
9.570340e-10 -1.600020e+03 -4.000000e+02
-4.000000e+02 -2.000010e+03 -8.997740e-10
7.765550e-10 -2.000010e+03 -7.358370e-10
-4.000000e+02 -1.600020e+03 -2.137620e-10
6.936600e-10 -1.600020e+03 -2.054510e-10
1.330650e-09 -2.000010e+03 -4.000000e+02
4.000000e+02 -2.000010e+03 -4.000000e+02
9.570340e-10 -1.600020e+03 -4.000000e+02
4.000000e+02 -1.600020e+03 -4.000000e+02
7.765550e-10 -2.000010e+03 -7.358370e-10
4.000000e+02 -2.000010e+03 -5.884000e-10
6.936600e-10 -1.600020e+03 -2.054510e-10
4.000000e+02 -1.600020e+03 2.283970e-10
-4.000000e+02 -1.600020e+03 -4.000000e+02
9.570340e-10 -1.600020e+03 -4.000000e+02
-4.000000e+02 -1.200030e+03 -4.000000e+02
5.344920e-10 -1.200030e+03 -4.000000e+02
-4.000000e+02 -1.600020e+03 -2.137620e-10
6.936600e-10 -1.600020e+03 -2.054510e-10
-4.000000e+02 -1.200030e+03 7.855200e-11
4.977300e-10 -1.200030e+03 1.759820e-10
9.570340e-10 -1.600020e+03 -4.000000e+02
4.000000e+02 -1.600020e+03 -4.000000e+02
5.344920e-10 -1.200030e+03 -4.000000e+02
4.000000e+02 -1.200030e+03 -4.000000e+02
6.936600e-10 -1.600020e+03 -2.054510e-10
4.000000e+02 -1.600020e+03 2.283970e-10
4.977300e-10 -1.200030e+03 1.759820e-10
4.000000e+02 -1.200030e+03 -9.625250e-12
-4.000000e+02 -1.200030e+03 -4.000000e+02
5.344920e-10 -1.200030e+03 -4.000000e+02
-4.000000e+02 -8.000410e+02 -4.000000e+02
4.061410e-10 -8.000410e+02 -4.000000e+02
-4.000000e+02 -1.200030e+03 7.855200e-11
4.977300e-10 -1.200030e+03 1.759820e-10
-4.000000e+02 -8.000410e+02 -2.043740e-10
-9.812920e-12 -8.000410e+02 -1.794820e-10
5.344920e-10 -1.200030e+03 -4.000000e+02
4.000000e+02 -1.200030e+03 -4.000000e+02
4.061410e-10 -8.000410e+02 -4.000000e+02
4.000000e+02 -8.000410e+02 -4.000000e+02
4.977300e-10 -1.200030e+03 1.759820e-10
4.000000e+02 -1.200030e+03 -9.625250e-12
-9.812920e-12 -8.000410e+02 -1.794820e-10
4.000000e+02 -8.000410e+02 -1.225380e-10
-4.000000e+02 -8.000410e+02 -4.000000e+02
4.061410e-10 -8.000410e+02 -4.000000e+02
-4.000000e+02 -4.000650e+02 -4.000000e+02
3.157670e-10 -4.000650e+02 -4.000000e+02
-4.000000e+02 -8.000410e+02 -2.043740e-10
-9.812920e-12 -8.000410e+02 -1.794820e-10
-4.000000e+02 -4.000650e+02 -7.445870e-11
3.136110e-10 -4.000650e+02 -5.482190e-11
4.061410e-10 -8.000410e+02 -4.000000e+02
4.000000e+02 -8.000410e+02 -4.000000e+02
3.157670e-10 -4.000650e+02 -4.000000e+02
4.000000e+02 -4.000650e+02 -4.000000e+02
-9.812920e-12 -8.000410e+02 -1.794820e-10
4.000000e+02 -8.000410e+02 -1.225380e-10
3.136110e-10 -4.000650e+02 -5.482190e-11
4.000000e+02 -4.000650e+02 -4.627460e-10
-4.000000e+02 -4.000650e+02 -4.000000e+02
3.157670e-10 -4.000650e+02 -4.000000e+02
-4.000000e+02 -1.034840e-01 -4.000000e+02
3.822060e-11 -1.034840e-01 -4.000000e+02
-4.000000e+02 -4.000650e+02 -7.445870e-11
3.136110e-10 -4.000650e+02 -5.482190e-11
-4.000000e+02 -1.034840e-01 -2.346360e-10
1.853100e-10 -1.034840e-01 -4.035250e-11
3.157670e-10 -4.000650e+02 -4.000000e+02
4.000000e+02 -4.000650e+02 -4.000000e+02
3.822060e-11 -1.034840e-01 -4.000000e+02
4.000000e+02 -1.034840e-01 -4.000000e+02
[...]
<PointData>
<DataArray type="Float32" Name="V1" format="ascii">
0.000000e+00
0.000000e+00
3.849260e-10
-2.454530e-10
0.000000e+00
0.000000e+00
-1.649680e-10
3.646550e-10
0.000000e+00
0.000000e+00
-2.454530e-10
-9.348200e-10
0.000000e+00
0.000000e+00
3.646550e-10
2.199580e-10
3.849260e-10
-2.454530e-10
7.070060e-10
-4.660800e-10
-1.649680e-10
3.646550e-10
-5.577500e-10
2.613980e-10
-2.454530e-10
-9.348200e-10
-4.660800e-10
-3.299360e-10
3.646550e-10
2.199580e-10
2.613980e-10
8.955420e-10
7.070060e-10
-4.660800e-10
5.577500e-10
4.317930e-11
-5.577500e-10
2.613980e-10
-2.356690e-11
-1.995490e-10
-4.660800e-10
-3.299360e-10
4.317930e-11
-4.242040e-10
2.613980e-10
8.955420e-10
-1.995490e-10
3.927810e-11
5.577500e-10
4.317930e-11
-3.849260e-10
4.135540e-10
-2.356690e-11
-1.995490e-10
1.885350e-10
1.274490e-10
4.317930e-11
-4.242040e-10
4.135540e-10
1.602550e-09
-1.995490e-10
3.927810e-11
1.274490e-10
-6.363060e-10
-3.849260e-10
4.135540e-10
-1.963910e-10
1.693770e-10
1.885350e-10
1.274490e-10
-2.435240e-10
-4.599970e-10
4.135540e-10
1.602550e-09
1.693770e-10
-2.435240e-10
1.274490e-10
-6.363060e-10
-4.599970e-10
-8.641190e-11
-1.963910e-10
1.693770e-10
-5.734610e-10
-5.219960e-10
-2.435240e-10
-4.599970e-10
1.099790e-10
3.981060e-10
1.693770e-10
-2.435240e-10
-5.219960e-10
4.163480e-10
-4.599970e-10
-8.641190e-11
3.981060e-10
1.099790e-10
-5.734610e-10
-5.219960e-10
-7.855630e-12
-2.444830e-11
1.099790e-10
3.981060e-10
-2.749470e-10
-1.881670e-10
-5.219960e-10
4.163480e-10
-2.444830e-11
-2.592360e-10
3.981060e-10
1.099790e-10
-1.881670e-10
-5.263270e-10
-7.855630e-12
-2.444830e-11
2.435240e-10
1.058390e-10
-2.749470e-10
-1.881670e-10
-5.263270e-10
-2.003750e-10
-2.444830e-11
-2.592360e-10
1.058390e-10
8.405520e-10
-1.881670e-10
-5.263270e-10
-2.003750e-10
-2.042460e-10
2.435240e-10
1.058390e-10
3.142250e-11
-2.746700e-10
-5.263270e-10
-2.003750e-10
8.641190e-11
2.028830e-10
1.058390e-10
8.405520e-10
-2.746700e-10
-6.834400e-10
-2.003750e-10
-2.042460e-10
2.028830e-10
4.399150e-10
3.142250e-11
-2.746700e-10
2.985140e-10
1.383300e-10
8.641190e-11
2.028830e-10
2.670910e-10
-1.997290e-10
-2.746700e-10
-6.834400e-10
1.383300e-10
-1.492570e-10
2.028830e-10
4.399150e-10
-1.997290e-10
-5.577500e-10
2.985140e-10
1.383300e-10
-7.070060e-11
1.142350e-11
2.670910e-10
-1.997290e-10
-5.106160e-10
-5.031230e-11
1.383300e-10
-1.492570e-10
1.142350e-11
2.670910e-10
-1.997290e-10
-5.577500e-10
-5.031230e-11
1.728240e-10
-7.070060e-11
1.142350e-11
1.256900e-10
-3.496020e-10
-5.106160e-10
-5.031230e-11
8.641190e-11
-1.353120e-10
1.142350e-11
2.670910e-10
-3.496020e-10
-9.740980e-10
-5.031230e-11
1.728240e-10
-1.353120e-10
-1.571130e-10
1.256900e-10
-3.496020e-10
-2.042460e-10
-1.736870e-10
8.641190e-11
-1.353120e-10
-5.263270e-10
-1.123150e-10
-3.496020e-10
-9.740980e-10
-1.736870e-10
3.220810e-10
-1.353120e-10
-1.571130e-10
-1.123150e-10
1.571130e-11
-2.042460e-10
-1.736870e-10
5.263270e-10
6.787400e-11
-5.263270e-10
-1.123150e-10
1.492570e-10
-6.040530e-11
-1.736870e-10
3.220810e-10
6.787400e-11
7.855630e-11
-1.123150e-10
1.571130e-11
-6.040530e-11
-6.755840e-10
5.263270e-10
6.787400e-11
7.855630e-10
3.655810e-10
1.492570e-10
-6.040530e-11
2.985140e-10
4.750750e-10
6.787400e-11
7.855630e-11
3.655810e-10
-6.048830e-10
-6.040530e-11
-6.755840e-10
4.750750e-10
4.556260e-10
7.855630e-10
3.655810e-10
-1.571130e-10
1.032800e-10
2.985140e-10
4.750750e-10
-5.184710e-10
-2.933540e-11
3.655810e-10
-6.048830e-10
1.032800e-10
5.734610e-10
4.750750e-10
4.556260e-10
-2.933540e-11
6.284500e-11
-1.571130e-10
1.032800e-10
-1.571130e-11
-4.870020e-10
-5.184710e-10
-2.933540e-11
-3.927810e-11
3.828020e-11
1.032800e-10
5.734610e-10
-4.870020e-10
-4.006370e-10
-2.933540e-11
6.284500e-11
3.828020e-11
-2.749470e-10
-1.571130e-11
-4.870020e-10
0.000000e+00
4.046220e-11
-3.927810e-11
3.828020e-11
-1.099790e-10
-2.711110e-10
-4.870020e-10
-4.006370e-10
4.046220e-11
4.713380e-10
3.828020e-11
-2.749470e-10
-2.711110e-10
-8.641190e-11
0.000000e+00
4.046220e-11
-1.414010e-10
2.320480e-10
-1.099790e-10
-2.711110e-10
5.027600e-10
-3.089930e-11
4.046220e-11
4.713380e-10
2.320480e-10
3.142250e-10
-2.711110e-10
-8.641190e-11
-3.089930e-11
-6.991510e-10
-1.414010e-10
2.320480e-10
4.477710e-10
5.473600e-11
5.027600e-10
-3.089930e-11
4.713380e-11
-3.141770e-11
2.320480e-10
3.142250e-10
5.473600e-11
-3.299360e-10
-3.089930e-11
-6.991510e-10
-3.141770e-11
-1.571130e-10
4.477710e-10
5.473600e-11
0.000000e+00
-7.303960e-11
4.713380e-11
-3.141770e-11
0.000000e+00
-7.671120e-11
5.473600e-11
-3.299360e-10
-7.303960e-11
-1.414010e-10
-3.141770e-11
-1.571130e-10
-7.671120e-11
-1.099790e-10
0.000000e+00
-7.303960e-11
0.000000e+00
-1.455000e-11
0.000000e+00
-7.671120e-11
0.000000e+00
-1.870950e-11
-7.303960e-11
-1.414010e-10
-1.455000e-11
3.142250e-11
-7.671120e-11
-1.099790e-10
-1.870950e-11
1.571130e-11
0.000000e+00
-1.455000e-11
0.000000e+00
-2.615960e-11
0.000000e+00
-1.870950e-11
0.000000e+00
-3.528510e-12
-1.455000e-11
3.142250e-11
-2.615960e-11
0.000000e+00
-1.870950e-11
1.571130e-11
-3.528510e-12
0.000000e+00
0.000000e+00
-2.615960e-11
1.178340e-10
-1.588260e-11
0.000000e+00
-3.528510e-12
6.284500e-11
-1.294060e-11
-2.615960e-11
0.000000e+00
-1.588260e-11
-1.649680e-10
-3.528510e-12
0.000000e+00
-1.294060e-11
-7.070060e-11
1.178340e-10
-1.588260e-11
8.641190e-11
-2.518890e-11
6.284500e-11
-1.294060e-11
0.000000e+00
-2.551470e-11
-1.588260e-11
-1.649680e-10
-2.518890e-11
-1.492570e-10
-1.294060e-11
-7.070060e-11
-2.551470e-11
-6.284500e-11
8.641190e-11
-2.518890e-11
0.000000e+00
9.256820e-12
0.000000e+00
-2.551470e-11
0.000000e+00
1.755270e-12
-2.518890e-11
-1.492570e-10
9.256820e-12
0.000000e+00
-2.551470e-11
-6.284500e-11
1.755270e-12
0.000000e+00
0.000000e+00
9.256820e-12
0.000000e+00
1.240230e-11
0.000000e+00
1.755270e-12
0.000000e+00
1.022900e-11
9.256820e-12
0.000000e+00
1.240230e-11
0.000000e+00
1.755270e-12
0.000000e+00
1.022900e-11
0.000000e+00
0.000000e+00
1.240230e-11
2.356690e-11
-6.732900e-12
0.000000e+00
1.022900e-11
2.356690e-11
-2.724510e-12
1.240230e-11
0.000000e+00
-6.732900e-12
-4.713380e-11
1.022900e-11
0.000000e+00
-2.724510e-12
-2.356690e-11
2.356690e-11
-6.732900e-12
0.000000e+00
-2.763490e-13
2.356690e-11
-2.724510e-12
0.000000e+00
-7.718760e-12
-6.732900e-12
-4.713380e-11
-2.763490e-13
0.000000e+00
-2.724510e-12
-2.356690e-11
-7.718760e-12
-3.142250e-11
0.000000e+00
-2.763490e-13
0.000000e+00
-4.812240e-12
0.000000e+00
-7.718760e-12
-3.927810e-11
-1.449150e-12
-2.763490e-13
0.000000e+00
-4.812240e-12
-7.855630e-12
-7.718760e-12
-3.142250e-11
-1.449150e-12
2.356690e-11
0.000000e+00
0.000000e+00
-1.649680e-10
3.646550e-10
0.000000e+00
0.000000e+00
-4.949050e-10
-1.866320e-10
0.000000e+00
0.000000e+00
3.646550e-10
2.199580e-10
0.000000e+00
0.000000e+00
-1.866320e-10
-2.121020e-10
-1.649680e-10
3.646550e-10
-5.577500e-10
2.613980e-10
-4.949050e-10
-1.866320e-10
6.834400e-10
-3.058810e-10
3.646550e-10
2.199580e-10
2.613980e-10
8.955420e-10
-1.866320e-10
-2.121020e-10
-3.058810e-10
-5.263270e-10
-5.577500e-10
2.613980e-10
-2.356690e-11
-1.995490e-10
6.834400e-10
-3.058810e-10
1.225480e-09
2.469770e-10
2.613980e-10
8.955420e-10
-1.995490e-10
3.927810e-11
-3.058810e-10
-5.263270e-10
2.469770e-10
1.099790e-10
-2.356690e-11
-1.995490e-10
1.885350e-10
1.274490e-10
1.225480e-09
2.469770e-10
-1.233330e-09
-6.265890e-10
-1.995490e-10
3.927810e-11
1.274490e-10
-6.363060e-10
2.469770e-10
1.099790e-10
-6.265890e-10
-8.641190e-11
1.885350e-10
1.274490e-10
-2.435240e-10
-4.599970e-10
-1.233330e-09
-6.265890e-10
3.299360e-10
8.580510e-11
1.274490e-10
-6.363060e-10
-4.599970e-10
-8.641190e-11
-6.265890e-10
-8.641190e-11
8.580510e-11
4.791930e-10
-2.435240e-10
-4.599970e-10
1.099790e-10
3.981060e-10
3.299360e-10
8.580510e-11
-1.571130e-11
-1.745600e-10
-4.599970e-10
-8.641190e-11
3.981060e-10
1.099790e-10
8.580510e-11
4.791930e-10
-1.745600e-10
5.184710e-10
1.099790e-10
3.981060e-10
-2.749470e-10
-1.881670e-10
-1.571130e-11
-1.745600e-10
5.813160e-10
-2.039440e-10
3.981060e-10
1.099790e-10
-1.881670e-10
-5.263270e-10
-1.745600e-10
5.184710e-10
-2.039440e-10
-6.755840e-10
-2.749470e-10
-1.881670e-10
-5.263270e-10
-2.003750e-10
5.813160e-10
-2.039440e-10
-3.535030e-10
7.205310e-11
-1.881670e-10
-5.263270e-10
-2.003750e-10
-2.042460e-10
-2.039440e-10
-6.755840e-10
7.205310e-11
3.456480e-10
-5.263270e-10
-2.003750e-10
8.641190e-11
2.028830e-10
-3.535030e-10
7.205310e-11
4.713380e-10
5.403070e-11
-2.003750e-10
-2.042460e-10
2.028830e-10
4.399150e-10
7.205310e-11
3.456480e-10
5.403070e-11
0.000000e+00
8.641190e-11
2.028830e-10
2.670910e-10
-1.997290e-10
4.713380e-10
5.403070e-11
5.734610e-10
4.991070e-10
2.028830e-10
4.399150e-10
-1.997290e-10
-5.577500e-10
5.403070e-11
0.000000e+00
4.991070e-10
-6.127390e-10
2.670910e-10
-1.997290e-10
-5.106160e-10
-5.031230e-11
5.734610e-10
4.991070e-10
1.335460e-10
3.933680e-10
-1.997290e-10
-5.577500e-10
-5.031230e-11
1.728240e-10
4.991070e-10
-6.127390e-10
3.933680e-10
8.169850e-10
-5.106160e-10
-5.031230e-11
8.641190e-11
-1.353120e-10
1.335460e-10
3.933680e-10
-1.256900e-10
5.802460e-10
-5.031230e-11
1.728240e-10
-1.353120e-10
-1.571130e-10
3.933680e-10
8.169850e-10
5.802460e-10
4.634820e-10
8.641190e-11
-1.353120e-10
-5.263270e-10
-1.123150e-10
-1.256900e-10
5.802460e-10
-3.692140e-10
-2.297770e-10
-1.353120e-10
-1.571130e-10
-1.123150e-10
1.571130e-11
5.802460e-10
4.634820e-10
-2.297770e-10
6.755840e-10
-5.263270e-10
-1.123150e-10
1.492570e-10
-6.040530e-11
-3.692140e-10
-2.297770e-10
-1.099790e-10
8.323550e-11
-1.123150e-10
1.571130e-11
-6.040530e-11
-6.755840e-10
-2.297770e-10
6.755840e-10
8.323550e-11
0.000000e+00
1.492570e-10
-6.040530e-11
2.985140e-10
4.750750e-10
-1.099790e-10
8.323550e-11
3.770700e-10
-2.080180e-10
-6.040530e-11
-6.755840e-10
4.750750e-10
4.556260e-10
8.323550e-11
0.000000e+00
-2.080180e-10
-2.592360e-10
2.985140e-10
4.750750e-10
-5.184710e-10
-2.933540e-11
3.770700e-10
-2.080180e-10
-1.885350e-10
-3.280890e-10
4.750750e-10
4.556260e-10
-2.933540e-11
6.284500e-11
-2.080180e-10
-2.592360e-10
-3.280890e-10
1.728240e-10
-5.184710e-10
-2.933540e-11
-3.927810e-11
3.828020e-11
-1.885350e-10
-3.280890e-10
6.284500e-10
9.811650e-11
-2.933540e-11
6.284500e-11
3.828020e-11
-2.749470e-10
-3.280890e-10
1.728240e-10
9.811650e-11
-3.377920e-10
-3.927810e-11
3.828020e-11
-1.099790e-10
-2.711110e-10
6.284500e-10
9.811650e-11
-3.849260e-10
-7.331620e-11
3.828020e-11
-2.749470e-10
-2.711110e-10
-8.641190e-11
9.811650e-11
-3.377920e-10
-7.331620e-11
1.115500e-09
-1.099790e-10
-2.711110e-10
5.027600e-10
-3.089930e-11
-3.849260e-10
-7.331620e-11
1.728240e-10
6.391630e-11
-2.711110e-10
-8.641190e-11
-3.089930e-11
-6.991510e-10
-7.331620e-11
1.115500e-09
6.391630e-11
5.184710e-10
5.027600e-10
-3.089930e-11
4.713380e-11
-3.141770e-11
1.728240e-10
6.391630e-11
0.000000e+00
-8.016070e-11
-3.089930e-11
-6.991510e-10
-3.141770e-11
-1.571130e-10
6.391630e-11
5.184710e-10
-8.016070e-11
-2.356690e-10
4.713380e-11
-3.141770e-11
0.000000e+00
-7.671120e-11
0.000000e+00
-8.016070e-11
0.000000e+00
-4.371990e-11
-3.141770e-11
-1.571130e-10
-7.671120e-11
-1.099790e-10
-8.016070e-11
-2.356690e-10
-4.371990e-11
-1.571130e-11
0.000000e+00
-7.671120e-11
0.000000e+00
-1.870950e-11
0.000000e+00
-4.371990e-11
0.000000e+00
-1.693540e-11
-7.671120e-11
-1.099790e-10
-1.870950e-11
1.571130e-11
-4.371990e-11
-1.571130e-11
-1.693540e-11
0.000000e+00
0.000000e+00
-1.870950e-11
0.000000e+00
-3.528510e-12
0.000000e+00
-1.693540e-11
0.000000e+00
1.988930e-12
-1.870950e-11
1.571130e-11
-3.528510e-12
0.000000e+00
-1.693540e-11
0.000000e+00
1.988930e-12
0.000000e+00
0.000000e+00
-3.528510e-12
6.284500e-11
-1.294060e-11
0.000000e+00
1.988930e-12
0.000000e+00
6.830480e-13
-3.528510e-12
0.000000e+00
-1.294060e-11
-7.070060e-11
1.988930e-12
0.000000e+00
6.830480e-13
0.000000e+00
6.284500e-11
-1.294060e-11
0.000000e+00
-2.551470e-11
0.000000e+00
6.830480e-13
0.000000e+00
2.157640e-13
-1.294060e-11
-7.070060e-11
-2.551470e-11
-6.284500e-11
6.830480e-13
0.000000e+00
2.157640e-13
0.000000e+00
0.000000e+00
-2.551470e-11
0.000000e+00
1.755270e-12
0.000000e+00
2.157640e-13
0.000000e+00
-4.207030e-12
-2.551470e-11
-6.284500e-11
1.755270e-12
0.000000e+00
2.157640e-13
0.000000e+00
-4.207030e-12
0.000000e+00
0.000000e+00
1.755270e-12
0.000000e+00
1.022900e-11
0.000000e+00
-4.207030e-12
0.000000e+00
1.106870e-12
1.755270e-12
0.000000e+00
1.022900e-11
0.000000e+00
-4.207030e-12
0.000000e+00
1.106870e-12
0.000000e+00
0.000000e+00
1.022900e-11
2.356690e-11
-2.724510e-12
0.000000e+00
1.106870e-12
3.927810e-11
3.991120e-12
1.022900e-11
0.000000e+00
-2.724510e-12
-2.356690e-11
1.106870e-12
0.000000e+00
3.991120e-12
-2.356690e-11
2.356690e-11
-2.724510e-12
0.000000e+00
-7.718760e-12
3.927810e-11
3.991120e-12
1.571130e-11
-5.557590e-12
-2.724510e-12
-2.356690e-11
-7.718760e-12
-3.142250e-11
3.991120e-12
-2.356690e-11
-5.557590e-12
-3.142250e-11
0.000000e+00
-7.718760e-12
-3.927810e-11
-1.449150e-12
1.571130e-11
-5.557590e-12
-5.498940e-11
-6.549090e-12
-7.718760e-12
-3.142250e-11
-1.449150e-12
2.356690e-11
-5.557590e-12
-3.142250e-11
-6.549090e-12
3.927810e-11
</DataArray>
<DataArray type="Float32" Name="V2" format="ascii">
0.000000e+00
0.000000e+00
1.397130e-04
1.397140e-04
0.000000e+00
0.000000e+00
1.397130e-04
1.397120e-04
0.000000e+00
0.000000e+00
1.397140e-04
1.397140e-04
0.000000e+00
0.000000e+00
1.397120e-04
1.397120e-04
1.397130e-04
1.397140e-04
2.301470e-04
2.301460e-04
1.397130e-04
1.397120e-04
2.301470e-04
2.301460e-04
1.397140e-04
1.397140e-04
2.301460e-04
2.301470e-04
1.397120e-04
1.397120e-04
2.301460e-04
2.301480e-04
2.301470e-04
2.301460e-04
1.279540e-04
1.279540e-04
2.301470e-04
2.301460e-04
1.279540e-04
1.279530e-04
2.301460e-04
2.301470e-04
1.279540e-04
1.279530e-04
2.301460e-04
2.301480e-04
1.279530e-04
1.279530e-04
1.279540e-04
1.279540e-04
3.635640e-05
3.635650e-05
1.279540e-04
1.279530e-04
3.635770e-05
3.635720e-05
1.279540e-04
1.279530e-04
3.635650e-05
3.635810e-05
1.279530e-04
1.279530e-04
3.635720e-05
3.635790e-05
3.635640e-05
3.635650e-05
8.986840e-05
8.986780e-05
3.635770e-05
3.635720e-05
8.987160e-05
8.986790e-05
3.635650e-05
3.635810e-05
8.986780e-05
8.986490e-05
3.635720e-05
3.635790e-05
8.986790e-05
8.986870e-05
8.986840e-05
8.986780e-05
1.530780e-04
1.530780e-04
8.987160e-05
8.986790e-05
1.530810e-04
1.530800e-04
8.986780e-05
8.986490e-05
1.530780e-04
1.530780e-04
8.986790e-05
8.986870e-05
1.530800e-04
1.530820e-04
1.530780e-04
1.530780e-04
2.429320e-04
2.429310e-04
1.530810e-04
1.530800e-04
2.429310e-04
2.429310e-04
1.530780e-04
1.530780e-04
2.429310e-04
2.429300e-04
1.530800e-04
1.530820e-04
2.429310e-04
2.429300e-04
2.429320e-04
2.429310e-04
4.129580e-04
4.129580e-04
2.429310e-04
2.429310e-04
4.129580e-04
4.129590e-04
2.429310e-04
2.429300e-04
4.129580e-04
4.129570e-04
2.429310e-04
2.429300e-04
4.129590e-04
4.129600e-04
4.129580e-04
4.129580e-04
1.027700e-03
1.027700e-03
4.129580e-04
4.129590e-04
1.027700e-03
1.027700e-03
4.129580e-04
4.129570e-04
1.027700e-03
1.027700e-03
4.129590e-04
4.129600e-04
1.027700e-03
1.027700e-03
1.027700e-03
1.027700e-03
2.173060e-03
2.173060e-03
1.027700e-03
1.027700e-03
2.173060e-03
2.173060e-03
1.027700e-03
1.027700e-03
2.173060e-03
2.173060e-03
1.027700e-03
1.027700e-03
2.173060e-03
2.173060e-03
2.173060e-03
2.173060e-03
3.531740e-03
3.531750e-03
2.173060e-03
2.173060e-03
3.531740e-03
3.531750e-03
2.173060e-03
2.173060e-03
3.531750e-03
3.531740e-03
2.173060e-03
2.173060e-03
3.531750e-03
3.531750e-03
3.531740e-03
3.531750e-03
7.101460e-03
7.101460e-03
3.531740e-03
3.531750e-03
7.101460e-03
7.101450e-03
3.531750e-03
3.531740e-03
7.101460e-03
7.101460e-03
3.531750e-03
3.531750e-03
7.101450e-03
7.101460e-03
7.101460e-03
7.101460e-03
1.327520e-02
1.327520e-02
7.101460e-03
7.101450e-03
1.327520e-02
1.327520e-02
7.101460e-03
7.101460e-03
1.327520e-02
1.327520e-02
7.101450e-03
7.101460e-03
1.327520e-02
1.327520e-02
1.327520e-02
1.327520e-02
2.129660e-02
2.129660e-02
1.327520e-02
1.327520e-02
2.129660e-02
2.129660e-02
1.327520e-02
1.327520e-02
2.129660e-02
2.129660e-02
1.327520e-02
1.327520e-02
2.129660e-02
2.129660e-02
2.129660e-02
2.129660e-02
3.112810e-02
3.112810e-02
2.129660e-02
2.129660e-02
3.112810e-02
3.112810e-02
2.129660e-02
2.129660e-02
3.112810e-02
3.112810e-02
2.129660e-02
2.129660e-02
3.112810e-02
3.112810e-02
3.112810e-02
3.112810e-02
3.939160e-02
3.939150e-02
3.112810e-02
3.112810e-02
3.939150e-02
3.939150e-02
3.112810e-02
3.112810e-02
3.939150e-02
3.939150e-02
3.112810e-02
3.112810e-02
3.939150e-02
3.939150e-02
3.939160e-02
3.939150e-02
3.969860e-02
3.969860e-02
3.939150e-02
3.939150e-02
3.969860e-02
3.969860e-02
3.939150e-02
3.939150e-02
3.969860e-02
3.969860e-02
3.939150e-02
3.939150e-02
3.969860e-02
3.969860e-02
3.969860e-02
3.969860e-02
2.836420e-02
2.836420e-02
3.969860e-02
3.969860e-02
2.836420e-02
2.836420e-02
3.969860e-02
3.969860e-02
2.836420e-02
2.836420e-02
3.969860e-02
3.969860e-02
2.836420e-02
2.836420e-02
2.836420e-02
2.836420e-02
7.599230e-03
7.599230e-03
2.836420e-02
2.836420e-02
7.599230e-03
7.599230e-03
2.836420e-02
2.836420e-02
7.599230e-03
7.599230e-03
2.836420e-02
2.836420e-02
7.599230e-03
7.599230e-03
7.599230e-03
7.599230e-03
-1.094030e-02
-1.094030e-02
7.599230e-03
7.599230e-03
-1.094030e-02
-1.094030e-02
7.599230e-03
7.599230e-03
-1.094030e-02
-1.094030e-02
7.599230e-03
7.599230e-03
-1.094030e-02
-1.094030e-02
-1.094030e-02
-1.094030e-02
-1.442700e-02
-1.442700e-02
-1.094030e-02
-1.094030e-02
-1.442700e-02
-1.442700e-02
-1.094030e-02
-1.094030e-02
-1.442700e-02
-1.442700e-02
-1.094030e-02
-1.094030e-02
-1.442700e-02
-1.442700e-02
-1.442700e-02
-1.442700e-02
-3.396740e-03
-3.396740e-03
-1.442700e-02
-1.442700e-02
-3.396740e-03
-3.396740e-03
-1.442700e-02
-1.442700e-02
-3.396740e-03
-3.396740e-03
-1.442700e-02
-1.442700e-02
-3.396740e-03
-3.396740e-03
-3.396740e-03
-3.396740e-03
6.753100e-03
6.753100e-03
-3.396740e-03
-3.396740e-03
6.753100e-03
6.753100e-03
-3.396740e-03
-3.396740e-03
6.753100e-03
6.753100e-03
-3.396740e-03
-3.396740e-03
6.753100e-03
6.753100e-03
6.753100e-03
6.753100e-03
3.561920e-03
3.561920e-03
6.753100e-03
6.753100e-03
3.561920e-03
3.561920e-03
6.753100e-03
6.753100e-03
3.561920e-03
3.561920e-03
6.753100e-03
6.753100e-03
3.561920e-03
3.561920e-03
3.561920e-03
3.561920e-03
-1.733960e-03
-1.733960e-03
3.561920e-03
3.561920e-03
-1.733960e-03
-1.733960e-03
3.561920e-03
3.561920e-03
-1.733960e-03
-1.733960e-03
3.561920e-03
3.561920e-03
-1.733960e-03
-1.733960e-03
-1.733960e-03
-1.733960e-03
-8.317150e-04
-8.317140e-04
-1.733960e-03
-1.733960e-03
-8.317140e-04
-8.317140e-04
-1.733960e-03
-1.733960e-03
-8.317140e-04
-8.317150e-04
-1.733960e-03
-1.733960e-03
-8.317140e-04
-8.317140e-04
-8.317150e-04
-8.317140e-04
5.113680e-04
5.113670e-04
-8.317140e-04
-8.317140e-04
5.113670e-04
5.113680e-04
-8.317140e-04
-8.317150e-04
5.113670e-04
5.113690e-04
-8.317140e-04
-8.317140e-04
5.113680e-04
5.113670e-04
5.113680e-04
5.113670e-04
1.157600e-04
1.157600e-04
5.113670e-04
5.113680e-04
1.157600e-04
1.157600e-04
5.113670e-04
5.113690e-04
1.157600e-04
1.157600e-04
5.113680e-04
5.113670e-04
1.157600e-04
1.157600e-04
1.157600e-04
1.157600e-04
-8.647890e-05
-8.647890e-05
1.157600e-04
1.157600e-04
-8.647900e-05
-8.647900e-05
1.157600e-04
1.157600e-04
-8.647890e-05
-8.647880e-05
1.157600e-04
1.157600e-04
-8.647900e-05
-8.647890e-05
-8.647890e-05
-8.647890e-05
-1.020140e-04
-1.020140e-04
-8.647900e-05
-8.647900e-05
-1.020140e-04
-1.020140e-04
-8.647890e-05
-8.647880e-05
-1.020140e-04
-1.020140e-04
-8.647900e-05
-8.647890e-05
-1.020140e-04
-1.020140e-04
0.000000e+00
0.000000e+00
1.397130e-04
1.397120e-04
0.000000e+00
0.000000e+00
1.397120e-04
1.397140e-04
0.000000e+00
0.000000e+00
1.397120e-04
1.397120e-04
0.000000e+00
0.000000e+00
1.397140e-04
1.397120e-04
1.397130e-04
1.397120e-04
2.301470e-04
2.301460e-04
1.397120e-04
1.397140e-04
2.301480e-04
2.301470e-04
1.397120e-04
1.397120e-04
2.301460e-04
2.301480e-04
1.397140e-04
1.397120e-04
2.301470e-04
2.301490e-04
2.301470e-04
2.301460e-04
1.279540e-04
1.279530e-04
2.301480e-04
2.301470e-04
1.279550e-04
1.279540e-04
2.301460e-04
2.301480e-04
1.279530e-04