<?xml version="1.0"?>
<!-- time 97.1696-->
<VTKFile type="UnstructuredGrid" version="0.1" byte_order="LittleEndian">
<UnstructuredGrid>
<Piece NumberOfPoints="960" NumberOfCells="0">
<Points>
  <DataArray type="Float32" Name="Position" NumberOfComponents="3" format="ascii">
	-300 2099.58 -300
	-300 2099.58 -100
	-300 2099.58 100
	-300 2099.58 300
	-100 2099.58 -300
	-100 2099.58 -100
	-100 2099.58 100
	-100 2099.58 300
	100 2099.58 -300
	100 2099.58 -100
	100 2099.58 100
	100 2099.58 300
	300 2099.58 -300
	300 2099.58 -100
	300 2099.58 100
	300 2099.58 300
	-300 2299.64 -300
	-300 2299.64 -100
	-300 2299.64 100
	-300 2299.64 300
	-100 2299.64 -300
	-100 2299.64 -100
	-100 2299.64 100
	-100 2299.64 300
	100 2299.64 -300
	100 2299.64 -100
	100 2299.64 100
	100 2299.64 300
	300 2299.64 -300
	300 2299.64 -100
	300 2299.64 100
	300 2299.64 300
	-300 2499.64 -300
	-300 2499.64 -100
	-300 2499.64 100
	-300 2499.64 300
	-100 2499.64 -300
	-100 2499.64 -100
	-100 2499.64 100
	-100 2499.64 300
	100 2499.64 -300
	100 2499.64 -100
	100 2499.64 100
	100 2499.64 300
	300 2499.64 -300
	300 2499.64 -100
	300 2499.64 100
	300 2499.64 300
	-300 2699.66 -300
	-300 2699.66 -100
	-300 2699.66 100
	-300 2699.66 300
	-100 2699.66 -300
	-100 2699.66 -100
	-100 2699.66 100
	-100 2699.66 300
	100 2699.66 -300
	100 2699.66 -100
	100 2699.66 100
	100 2699.66 300
	300 2699.66 -300
	300 2699.66 -100
	300 2699.66 100
	300 2699.66 300
	-300 2899.67 -300
	-300 2899.67 -100
	-300 2899.67 100
	-300 2899.67 300
	-100 2899.67 -300
	-100 2899.67 -100
	-100 2899.67 100
	-100 2899.67 300
	100 2899.67 -300
	100 2899.67 -100
	100 2899.67 100
	100 2899.67 300
	300 2899.67 -300
	300 2899.67 -100
	300 2899.67 100
	300 2899.67 300
	-300 3099.67 -300
	-300 3099.67 -100
	-300 3099.67 100
	-300 3099.67 300
	-100 3099.67 -300
	-100 3099.67 -100
	-100 3099.67 100
	-100 3099.67 300
	100 3099.67 -300
	100 3099.67 -100
	100 3099.67 100
	100 3099.67 300
	300 3099.67 -300
	300 3099.67 -100
	300 3099.67 100
	300 3099.67 300
	-300 3299.67 -300
	-300 3299.67 -100
	-300 3299.67 100
	-300 3299.67 300
	-100 3299.67 -300
	-100 3299.67 -100
	-100 3299.67 100
	-100 3299.67 300
	100 3299.67 -300
	100 3299.67 -100
	100 3299.67 100
	100 3299.67 300
	300 3299.67 -300
	300 3299.67 -100
	300 3299.67 100
	300 3299.67 300
	-300 3499.67 -300
	-300 3499.67 -100
	-300 3499.67 100
	-300 3499.67 300
	-100 3499.67 -300
	-100 3499.67 -100
	-100 3499.67 100
	-100 3499.67 300
	100 3499.67 -300
	100 3499.67 -100
	100 3499.67 100
	100 3499.67 300
	300 3499.67 -300
	300 3499.67 -100
	300 3499.67 100
	300 3499.67 300
	-300 3699.66 -300
	-300 3699.66 -100
	-300 3699.66 100
	-300 3699.66 300
	-100 3699.66 -300
	-100 3699.66 -100
	-100 3699.66 100
	-100 3699.66 300
	100 3699.66 -300
	100 3699.66 -100
	100 3699.66 100
	100 3699.66 300
	300 3699.66 -300
	300 3699.66 -100
	300 3699.66 100
	300 3699.66 300
	-300 3899.66 -300
	-300 3899.66 -100
	-300 3899.66 100
	-300 3899.66 300
	-100 3899.66 -300
	-100 3899.66 -100
	-100 3899.66 100
	-100 3899.66 300
	100 3899.66 -300
	100 3899.66 -100
	100 3899.66 100
	100 3899.66 300
	300 3899.66 -300
	300 3899.66 -100
	300 3899.66 100
	300 3899.66 300
	-300 4099.66 -300
	-300 4099.66 -100
	-300 4099.66 100
	-300 4099.66 300
	-100 4099.66 -300
	-100 4099.66 -100
	-100 4099.66 100
	-100 4099.66 300
	100 4099.66 -300
	100 4099.66 -100
	100 4099.66 100
	100 4099.66 300
	300 4099.66 -300
	300 4099.66 -100
	300 4099.66 100
	300 4099.66 300
	-300 4299.67 -300
	-300 4299.67 -100
	-300 4299.67 100
	-300 4299.67 300
	-100 4299.67 -300
	-100 4299.67 -100
	-100 4299.67 100
	-100 4299.67 300
	100 4299.67 -300
	100 4299.67 -100
	100 4299.67 100
	100 4299.67 300
	300 4299.67 -300
	300 4299.67 -100
	300 4299.67 100
	300 4299.67 300
	-300 4499.67 -300
	-300 4499.67 -100
	-300 4499.67 100
	-300 4499.67 300
	-100 4499.67 -300
	-100 4499.67 -100
	-100 4499.67 100
	-100 4499.67 300
	100 4499.67 -300
	100 4499.67 -100
	100 4499.67 100
	100 4499.67 300
	300 4499.67 -300
	300 4499.67 -100
	300 4499.67 100
	300 4499.67 300
	-300 4699.67 -300
	-300 4699.67 -100
	-300 4699.67 100
	-300 4699.67 300
	-100 4699.67 -300
	-100 4699.67 -100
	-100 4699.67 100
	-100 4699.67 300
	100 4699.67 -300
	100 4699.67 -100
	100 4699.67 100
	100 4699.67 300
	300 4699.67 -300
	300 4699.67 -100
	300 4699.67 100
	300 4699.67 300
	-300 4899.67 -300
	-300 4899.67 -100
	-300 4899.67 100
	-300 4899.67 300
	-100 4899.67 -300
	-100 4899.67 -100
	-100 4899.67 100
	-100 4899.67 300
	100 4899.67 -300
	100 4899.67 -100
	100 4899.67 100
	100 4899.67 300
	300 4899.67 -300
	300 4899.67 -100
	300 4899.67 100
	300 4899.67 300
	-300 5099.67 -300
	-300 5099.67 -100
	-300 5099.67 100
	-300 5099.67 300
	-100 5099.67 -300
	-100 5099.67 -100
	-100 5099.67 100
	-100 5099.67 300
	100 5099.67 -300
	100 5099.67 -100
	100 5099.67 100
	100 5099.67 300
	300 5099.67 -300
	300 5099.67 -100
	300 5099.67 100
	300 5099.67 300
	-300 5299.67 -300
	-300 5299.67 -100
	-300 5299.67 100
	-300 5299.67 300
	-100 5299.67 -300
	-100 5299.67 -100
	-100 5299.67 100
	-100 5299.67 300
	100 5299.67 -300
	100 5299.67 -100
	100 5299.67 100
	100 5299.67 300
	300 5299.67 -300
	300 5299.67 -100
	300 5299.67 100
	300 5299.67 300
	-300 5499.68 -300
	-300 5499.68 -100
	-300 5499.68 100
	-300 5499.68 300
	-100 5499.68 -300
	-100 5499.68 -100
	-100 5499.68 100
	-100 5499.68 300
	100 5499.68 -300
	100 5499.68 -100
	100 5499.68 100
	100 5499.68 300
	300 5499.68 -300
	300 5499.68 -100
	300 5499.68 100
	300 5499.68 300
	-300 5699.68 -300
	-300 5699.68 -100
	-300 5699.68 100
	-300 5699.68 300
	-100 5699.68 -300
	-100 5699.68 -100
	-100 5699.68 100
	-100 5699.68 300
	100 5699.68 -300
	100 5699.68 -100
	100 5699.68 100
	100 5699.68 300
	300 5699.68 -300
	300 5699.68 -100
	300 5699.68 100
	300 5699.68 300
	-300 5899.69 -300
	-300 5899.69 -100
	-300 5899.69 100
	-300 5899.69 300
	-100 5899.69 -300
	-100 5899.69 -100
	-100 5899.69 100
	-100 5899.69 300
	100 5899.69 -300
	100 5899.69 -100
	100 5899.69 100
	100 5899.69 300
	300 5899.69 -300
	300 5899.69 -100
	300 5899.69 100
	300 5899.69 300
	-300 6099.71 -300
	-300 6099.71 -100
	-300 6099.71 100
	-300 6099.71 300
	-100 6099.71 -300
	-100 6099.71 -100
	-100 6099.71 100
	-100 6099.71 300
	100 6099.71 -300
	100 6099.71 -100
	100 6099.71 100
	100 6099.71 300
	300 6099.71 -300
	300 6099.71 -100
	300 6099.71 100
	300 6099.71 300
	-300 6299.75 -300
	-300 6299.75 -100
	-300 6299.75 100
	-300 6299.75 300
	-100 6299.75 -300
	-100 6299.75 -100
	-100 6299.75 100
	-100 6299.75 300
	100 6299.75 -300
	100 6299.75 -100
	100 6299.75 100
	100 6299.75 300
	300 6299.75 -300
	300 6299.75 -100
	300 6299.75 100
	300 6299.75 300
	-300 6499.8 -300
	-300 6499.8 -100
	-300 6499.8 100
	-300 6499.8 300
	-100 6499.8 -300
	-100 6499.8 -100
	-100 6499.8 100
	-100 6499.8 300
	100 6499.8 -300
	100 6499.8 -100
	100 6499.8 100
	100 6499.8 300
	300 6499.8 -300
	300 6499.8 -100
	300 6499.8 100
	300 6499.8 300
	-300 6699.81 -300
	-300 6699.81 -100
	-300 6699.81 100
	-300 6699.81 300
	-100 6699.81 -300
	-100 6699.81 -100
	-100 6699.81 100
	-100 6699.81 300
	100 6699.81 -300
	100 6699.81 -100
	100 6699.81 100
	100 6699.81 300
	300 6699.81 -300
	300 6699.81 -100
	300 6699.81 100
	300 6699.81 300
	-300 6899.85 -300
	-300 6899.85 -100
	-300 6899.85 100
	-300 6899.85 300
	-100 6899.85 -300
	-100 6899.85 -100
	-100 6899.85 100
	-100 6899.85 300
	100 6899.85 -300
	100 6899.85 -100
	100 6899.85 100
	100 6899.85 300
	300 6899.85 -300
	300 6899.85 -100
	300 6899.85 100
	300 6899.85 300
	-300 7099.86 -300
	-300 7099.86 -100
	-300 7099.86 100
	-300 7099.86 300
	-100 7099.86 -300
	-100 7099.86 -100
	-100 7099.86 100
	-100 7099.86 300
	100 7099.86 -300
	100 7099.86 -100
	100 7099.86 100
	100 7099.86 300
	300 7099.86 -300
	300 7099.86 -100
	300 7099.86 100
	300 7099.86 300
	-300 7299.86 -300
	-300 7299.86 -100
	-300 7299.86 100
	-300 7299.86 300
	-100 7299.86 -300
	-100 7299.86 -100
	-100 7299.86 100
	-100 7299.86 300
	100 7299.86 -300
	100 7299.86 -100
	100 7299.86 100
	100 7299.86 300
	300 7299.86 -300
	300 7299.86 -100
	300 7299.86 100
	300 7299.86 300
	-300 7499.87 -300
	-300 7499.87 -100
	-300 7499.87 100
	-300 7499.87 300
	-100 7499.87 -300
	-100 7499.87 -100
	-100 7499.87 100
	-100 7499.87 300
	100 7499.87 -300
	100 7499.87 -100
	100 7499.87 100
	100 7499.87 300
	300 7499.87 -300
	300 7499.87 -100
	300 7499.87 100
	300 7499.87 300
	-300 7699.87 -300
	-300 7699.87 -100
	-300 7699.87 100
	-300 7699.87 300
	-100 7699.87 -300
	-100 7699.87 -100
	-100 7699.87 100
	-100 7699.87 300
	100 7699.87 -300
	100 7699.87 -100
	100 7699.87 100
	100 7699.87 300
	300 7699.87 -300
	300 7699.87 -100
	300 7699.87 100
	300 7699.87 300
	-300 7899.88 -300
	-300 7899.88 -100
	-300 7899.88 100
	-300 7899.88 300
	-100 7899.88 -300
	-100 7899.88 -100
	-100 7899.88 100
	-100 7899.88 300
	100 7899.88 -300
	100 7899.88 -100
	100 7899.88 100
	100 7899.88 300
	300 7899.88 -300
	300 7899.88 -100
	300 7899.88 100
	300 7899.88 300
	-300 8099.89 -300
	-300 8099.89 -100
	-300 8099.89 100
	-300 8099.89 300
	-100 8099.89 -300
	-100 8099.89 -100
	-100 8099.89 100
	-100 8099.89 300
	100 8099.89 -300
	100 8099.89 -100
	100 8099.89 100
	100 8099.89 300
	300 8099.89 -300
	300 8099.89 -100
	300 8099.89 100
	300 8099.89 300
	-300 8299.89 -300
	-300 8299.89 -100
	-300 8299.89 100
	-300 8299.89 300
	-100 8299.89 -300
	-100 8299.89 -100
	-100 8299.89 100
	-100 8299.89 300
	100 8299.89 -300
	100 8299.89 -100
	100 8299.89 100
	100 8299.89 300
	300 8299.89 -300
	300 8299.89 -100
	300 8299.89 100
	300 8299.89 300
	-300 8499.9 -300
	-300 8499.9 -100
	-300 8499.9 100
	-300 8499.9 300
	-100 8499.9 -300
	-100 8499.9 -100
	-100 8499.9 100
	-100 8499.9 300
	100 8499.9 -300
	100 8499.9 -100
	100 8499.9 100
	100 8499.9 300
	300 8499.9 -300
	300 8499.9 -100
	300 8499.9 100
	300 8499.9 300
	-300 8699.91 -300
	-300 8699.91 -100
	-300 8699.91 100
	-300 8699.91 300
	-100 8699.91 -300
	-100 8699.91 -100
	-100 8699.91 100
	-100 8699.91 300
	100 8699.91 -300
	100 8699.91 -100
	100 8699.91 100
	100 8699.91 300
	300 8699.91 -300
	300 8699.91 -100
	300 8699.91 100
	300 8699.91 300
	-300 8899.91 -300
	-300 8899.91 -100
	-300 8899.91 100
	-300 8899.91 300
	-100 8899.91 -300
	-100 8899.91 -100
	-100 8899.91 100
	-100 8899.91 300
	100 8899.91 -300
	100 8899.91 -100
	100 8899.91 100
	100 8899.91 300
	300 8899.91 -300
	300 8899.91 -100
	300 8899.91 100
	300 8899.91 300
	-300 9099.92 -300
	-300 9099.92 -100
	-300 9099.92 100
	-300 9099.92 300
	-100 9099.92 -300
	-100 9099.92 -100
	-100 9099.92 100
	-100 9099.92 300
	100 9099.92 -300
	100 9099.92 -100
	100 9099.92 100
	100 9099.92 300
	300 9099.92 -300
	300 9099.92 -100
	300 9099.92 100
	300 9099.92 300
	-300 9299.93 -300
	-300 9299.93 -100
	-300 9299.93 100
	-300 9299.93 300
	-100 9299.93 -300
	-100 9299.93 -100
	-100 9299.93 100
	-100 9299.93 300
	100 9299.93 -300
	100 9299.93 -100
	100 9299.93 100
	100 9299.93 300
	300 9299.93 -300
	300 9299.93 -100
	300 9299.93 100
	300 9299.93 300
	-300 9499.94 -300
	-300 9499.94 -100
	-300 9499.94 100
	-300 9499.94 300
	-100 9499.94 -300
	-100 9499.94 -100
	-100 9499.94 100
	-100 9499.94 300
	100 9499.94 -300
	100 9499.94 -100
	100 9499.94 100
	100 9499.94 300
	300 9499.94 -300
	300 9499.94 -100
	300 9499.94 100
	300 9499.94 300
	-300 9699.95 -300
	-300 9699.95 -100
	-300 9699.95 100
	-300 9699.95 300
	-100 9699.95 -300
	-100 9699.95 -100
	-100 9699.95 100
	-100 9699.95 300
	100 9699.95 -300
	100 9699.95 -100
	100 9699.95 100
	100 9699.95 300
	300 9699.95 -300
	300 9699.95 -100
	300 9699.95 100
	300 9699.95 300
	-300 9899.96 -300
	-300 9899.96 -100
	-300 9899.96 100
	-300 9899.96 300
	-100 9899.96 -300
	-100 9899.96 -100
	-100 9899.96 100
	-100 9899.96 300
	100 9899.96 -300
	100 9899.96 -100
	100 9899.96 100
	100 9899.96 300
	300 9899.96 -300
	300 9899.96 -100
	300 9899.96 100
	300 9899.96 300
	-300 10100 -300
	-300 10100 -100
	-300 10100 100
	-300 10100 300
	-100 10100 -300
	-100 10100 -100
	-100 10100 100
	-100 10100 300
	100 10100 -300
	100 10100 -100
	100 10100 100
	100 10100 300
	300 10100 -300
	300 10100 -100
	300 10100 100
	300 10100 300
	-300 10300 -300
	-300 10300 -100
	-300 10300 100
	-300 10300 300
	-100 10300 -300
	-100 10300 -100
	-100 10300 100
	-100 10300 300
	100 10300 -300
	100 10300 -100
	100 10300 100
	100 10300 300
	300 10300 -300
	300 10300 -100
	300 10300 100
	300 10300 300
	-300 10500 -300
	-300 10500 -100
	-300 10500 100
	-300 10500 300
	-100 10500 -300
	-100 10500 -100
	-100 10500 100
	-100 10500 300
	100 10500 -300
	100 10500 -100
	100 10500 100
	100 10500 300
	300 10500 -300
	300 10500 -100
	300 10500 100
	300 10500 300
	-300 10700 -300
	-300 10700 -100
	-300 10700 100
	-300 10700 300
	-100 10700 -300
	-100 10700 -100
	-100 10700 100
	-100 10700 300
	100 10700 -300
	100 10700 -100
	100 10700 100
	100 10700 300
	300 10700 -300
	300 10700 -100
	300 10700 100
	300 10700 300
	-300 10900 -300
	-300 10900 -100
	-300 10900 100
	-300 10900 300
	-100 10900 -300
	-100 10900 -100
	-100 10900 100
	-100 10900 300
	100 10900 -300
	100 10900 -100
	100 10900 100
	100 10900 300
	300 10900 -300
	300 10900 -100
	300 10900 100
	300 10900 300
	-300 11100 -300
	-300 11100 -100
	-300 11100 100
	-300 11100 300
	-100 11100 -300
	-100 11100 -100
	-100 11100 100
	-100 11100 300
	100 11100 -300
	100 11100 -100
	100 11100 100
	100 11100 300
	300 11100 -300
	300 11100 -100
	300 11100 100
	300 11100 300
	-300 11300.1 -300
	-300 11300.1 -100
	-300 11300.1 100
	-300 11300.1 300
	-100 11300.1 -300
	-100 11300.1 -100
	-100 11300.1 100
	-100 11300.1 300
	100 11300.1 -300
	100 11300.1 -100
	100 11300.1 100
	100 11300.1 300
	300 11300.1 -300
	300 11300.1 -100
	300 11300.1 100
	300 11300.1 300
	-300 11500.1 -300
	-300 11500.1 -100
	-300 11500.1 100
	-300 11500.1 300
	-100 11500.1 -300
	-100 11500.1 -100
	-100 11500.1 100
	-100 11500.1 300
	100 11500.1 -300
	100 11500.1 -100
	100 11500.1 100
	100 11500.1 300
	300 11500.1 -300
	300 11500.1 -100
	300 11500.1 100
	300 11500.1 300
	-300 11700.1 -300
	-300 11700.1 -100
	-300 11700.1 100
	-300 11700.1 300
	-100 11700.1 -300
	-100 11700.1 -100
	-100 11700.1 100
	-100 11700.1 300
	100 11700.1 -300
	100 11700.1 -100
	100 11700.1 100
	100 11700.1 300
	300 11700.1 -300
	300 11700.1 -100
	300 11700.1 100
	300 11700.1 300
	-300 11900.1 -300
	-300 11900.1 -100
	-300 11900.1 100
	-300 11900.1 300
	-100 11900.1 -300
	-100 11900.1 -100
	-100 11900.1 100
	-100 11900.1 300
	100 11900.1 -300
	100 11900.1 -100
	100 11900.1 100
	100 11900.1 300
	300 11900.1 -300
	300 11900.1 -100
	300 11900.1 100
	300 11900.1 300
	-300 12100.2 -300
	-300 12100.2 -100
	-300 12100.2 100
	-300 12100.2 300
	-100 12100.2 -300
	-100 12100.2 -100
	-100 12100.2 100
	-100 12100.2 300
	100 12100.2 -300
	100 12100.2 -100
	100 12100.2 100
	100 12100.2 300
	300 12100.2 -300
	300 12100.2 -100
	300 12100.2 100
	300 12100.2 300
	-300 12300.2 -300
	-300 12300.2 -100
	-300 12300.2 100
	-300 12300.2 300
	-100 12300.2 -300
	-100 12300.2 -100
	-100 12300.2 100
	-100 12300.2 300
	100 12300.2 -300
	100 12300.2 -100
	100 12300.2 100
	100 12300.2 300
	300 12300.2 -300
	300 12300.2 -100
	300 12300.2 100
	300 12300.2 300
	-300 12500.2 -300
	-300 12500.2 -100
	-300 12500.2 100
	-300 12500.2 300
	-100 12500.2 -300
	-100 12500.2 -100
	-100 12500.2 100
	-100 12500.2 300
	100 12500.2 -300
	100 12500.2 -100
	100 12500.2 100
	100 12500.2 300
	300 12500.2 -300
	300 12500.2 -100
	300 12500.2 100
	300 12500.2 300
	-300 12700.3 -300
	-300 12700.3 -100
	-300 12700.3 100
	-300 12700.3 300
	-100 12700.3 -300
	-100 12700.3 -100
	-100 12700.3 100
	-100 12700.3 300
	100 12700.3 -300
	100 12700.3 -100
	100 12700.3 100
	100 12700.3 300
	300 12700.3 -300
	300 12700.3 -100
	300 12700.3 100
	300 12700.3 300
	-300 12900.4 -300
	-300 12900.4 -100
	-300 12900.4 100
	-300 12900.4 300
	-100 12900.4 -300
	-100 12900.4 -100
	-100 12900.4 100
	-100 12900.4 300
	100 12900.4 -300
	100 12900.4 -100
	100 12900.4 100
	100 12900.4 300
	300 12900.4 -300
	300 12900.4 -100
	300 12900.4 100
	300 12900.4 300
	-300 13100.5 -300
	-300 13100.5 -100
	-300 13100.5 100
	-300 13100.5 300
	-100 13100.5 -300
	-100 13100.5 -100
	-100 13100.5 100
	-100 13100.5 300
	100 13100.5 -300
	100 13100.5 -100
	100 13100.5 100
	100 13100.5 300
	300 13100.5 -300
	300 13100.5 -100
	300 13100.5 100
	300 13100.5 300
	-300 13300.6 -300
	-300 13300.6 -100
	-300 13300.6 100
	-300 13300.6 300
	-100 13300.6 -300
	-100 13300.6 -100
	-100 13300.6 100
	-100 13300.6 300
	100 13300.6 -300
	100 13300.6 -100
	100 13300.6 100
	100 13300.6 300
	300 13300.6 -300
	300 13300.6 -100
	300 13300.6 100
	300 13300.6 300
	-300 13500.8 -300
	-300 13500.8 -100
	-300 13500.8 100
	-300 13500.8 300
	-100 13500.8 -300
	-100 13500.8 -100
	-100 13500.8 100
	-100 13500.8 300
	100 13500.8 -300
	100 13500.8 -100
	100 13500.8 100
	100 13500.8 300
	300 13500.8 -300
	300 13500.8 -100
	300 13500.8 100
	300 13500.8 300
	-300 13701.3 -300
	-300 13701.3 -100
	-300 13701.3 100
	-300 13701.3 300
	-100 13701.3 -300
	-100 13701.3 -100
	-100 13701.3 100
	-100 13701.3 300
	100 13701.3 -300
	100 13701.3 -100
	100 13701.3 100
	100 13701.3 300
	300 13701.3 -300
	300 13701.3 -100
	300 13701.3 100
	300 13701.3 300
	-300 13902.4 -300
	-300 13902.4 -100
	-300 13902.4 100
	-300 13902.4 300
	-100 13902.4 -300
	-100 13902.4 -100
	-100 13902.4 100
	-100 13902.4 300
	100 13902.4 -300
	100 13902.4 -100
	100 13902.4 100
	100 13902.4 300
	300 13902.4 -300
	300 13902.4 -100
	300 13902.4 100
	300 13902.4 300
  </DataArray>
</Points>
<PointData  Vectors="vector">
  <DataArray type="Float32" Name="Velocity" NumberOfComponents="3" format="ascii">
 2.19782e-10 -0.000781265 -1.12655e-10
 1.79196e-10 -0.000781267 7.99267e-11
 1.35304e-10 -0.000781268 -2.25779e-11
 1.82696e-10 -0.000781266 4.61302e-10
 1.32485e-10 -0.000781266 -3.90557e-10
 9.63932e-11 -0.000781269 3.64542e-11
 1.65594e-10 -0.000781269 4.94499e-11
 5.69432e-11 -0.000781266 4.63015e-10
 8.38863e-11 -0.000781265 -3.10717e-10
 1.58297e-10 -0.000781268 5.93133e-11
 1.12439e-10 -0.000781267 -2.71041e-11
 8.77808e-11 -0.000781264 5.26275e-10
 3.22132e-11 -0.000781266 -2.63776e-10
 1.10829e-10 -0.000781269 8.78244e-11
 1.1476e-10 -0.000781269 1.163e-10
 -2.17998e-11 -0.000781269 3.13998e-10
 -9.89732e-12 -0.0176533 3.90485e-11
 -1.40724e-10 -0.0176533 1.89405e-10
 -1.42136e-10 -0.0176533 -2.98465e-11
 -1.67034e-10 -0.0176533 1.17258e-10
 -4.48191e-11 -0.0176533 -1.11185e-12
 1.71981e-11 -0.0176533 1.48799e-10
 -2.48011e-11 -0.0176533 -5.90949e-11
 -3.66165e-11 -0.0176532 9.89476e-11
 3.05703e-11 -0.0176532 -8.54344e-12
 -5.53797e-11 -0.0176533 1.48384e-10
 -3.04849e-12 -0.0176533 -2.41747e-11
 -7.87203e-11 -0.0176532 1.07017e-10
 5.47103e-11 -0.0176532 1.60467e-11
 -1.0814e-10 -0.0176533 9.78061e-11
 -5.01546e-11 -0.0176532 1.24075e-11
 -2.80006e-10 -0.0176533 5.42434e-11
 2.04913e-11 -0.0151467 5.22856e-11
 -3.52115e-11 -0.0151467 9.46201e-12
 -4.9052e-11 -0.0151467 8.53371e-11
 -8.93148e-11 -0.0151466 6.0813e-11
 1.01588e-10 -0.0151467 -1.59182e-11
 -9.23155e-12 -0.0151466 -2.92214e-11
 3.14524e-11 -0.0151466 9.96603e-11
 6.07042e-11 -0.0151467 7.53521e-11
 3.56283e-11 -0.0151467 -5.31804e-11
 -1.41284e-11 -0.0151467 2.20072e-11
 -6.99795e-11 -0.0151466 5.50283e-11
 -3.7512e-11 -0.0151467 9.35181e-11
 1.89764e-11 -0.0151467 1.12643e-11
 6.50036e-11 -0.0151466 4.20748e-11
 3.39455e-11 -0.0151467 5.56275e-11
 -1.75335e-10 -0.0151466 -3.10431e-11
 -6.7003e-11 -0.0107016 2.13935e-10
 -4.95118e-11 -0.0107016 -7.24048e-11
 -7.51033e-11 -0.0107016 2.7579e-11
 -1.47191e-10 -0.0107016 -2.59156e-10
 -8.71918e-12 -0.0107016 2.16122e-10
 -1.09176e-11 -0.0107016 -8.54879e-11
 2.20066e-11 -0.0107016 4.76905e-11
 -4.23636e-12 -0.0107016 -2.62199e-10
 -2.09439e-11 -0.0107016 2.32576e-10
 -1.50648e-13 -0.0107016 -6.80652e-11
 3.09726e-11 -0.0107016 6.24119e-11
 6.3773e-11 -0.0107016 -2.33936e-10
 -6.88529e-12 -0.0107016 2.59368e-10
 2.20916e-11 -0.0107016 9.22263e-12
 9.17888e-11 -0.0107016 1.00529e-10
 2.46489e-10 -0.0107016 -1.75234e-10
 -7.04154e-11 -0.00816874 1.58791e-10
 -6.39427e-11 -0.00816873 -1.6905e-11
 -8.14382e-11 -0.00816873 1.1233e-11
 -1.58439e-10 -0.00816873 -2.23046e-10
 -4.78397e-11 -0.00816873 1.75125e-10
 -3.21547e-11 -0.00816874 -5.00441e-11
 -3.28403e-11 -0.00816874 1.66718e-11
 -6.94849e-12 -0.00816873 -2.00066e-10
 -5.09764e-11 -0.00816873 1.96735e-10
 -2.58676e-11 -0.00816873 4.10776e-11
 -2.19444e-11 -0.00816874 -4.20576e-11
 3.84447e-11 -0.00816872 -1.85578e-10
 -3.56307e-11 -0.00816873 2.37245e-10
 -1.773e-11 -0.00816874 5.63249e-11
 1.56405e-11 -0.00816873 3.67465e-11
 1.45069e-10 -0.00816874 -1.28755e-10
 -7.40757e-13 -0.000317459 9.22838e-11
 -9.74311e-12 -0.000317458 -1.01347e-11
 -8.86544e-12 -0.000317458 2.3583e-13
 -8.31619e-11 -0.000317459 -7.53336e-11
 -1.21657e-11 -0.000317461 9.29095e-11
 -2.99578e-11 -0.000317458 5.02612e-12
 -3.19748e-11 -0.000317457 -5.49955e-12
 -7.26164e-12 -0.000317462 -6.8204e-11
 -2.77034e-11 -0.000317459 8.02456e-11
 -2.2887e-11 -0.000317458 7.30166e-12
 -5.56033e-11 -0.000317456 1.80558e-11
 -2.36523e-12 -0.000317461 -5.42762e-11
 -4.75688e-11 -0.000317461 8.55505e-11
 -4.26176e-11 -0.000317458 5.25115e-11
 -4.52761e-11 -0.000317459 1.49749e-11
 3.72577e-11 -0.000317459 9.49553e-12
 -3.35993e-11 -0.00032967 4.63912e-11
 -4.93571e-11 -0.000329666 1.89902e-11
 -4.8286e-11 -0.000329669 6.64127e-12
 -1.00335e-10 -0.000329663 -1.53387e-11
 -4.49312e-11 -0.00032966 5.71119e-11
 -5.65651e-11 -0.000329665 2.82522e-11
 -7.9403e-11 -0.000329662 2.21595e-12
 -5.8415e-11 -0.000329665 -7.10847e-12
 -6.78666e-11 -0.000329667 4.52944e-11
 -7.64129e-11 -0.000329667 2.58556e-11
 -6.30226e-11 -0.000329667 7.94509e-12
 -4.53866e-11 -0.000329669 4.82162e-12
 -6.92923e-11 -0.000329665 5.99031e-11
 -7.85244e-11 -0.000329662 3.86901e-11
 -8.20954e-11 -0.000329664 1.92331e-11
 -2.70466e-11 -0.00032966 1.18204e-11
 -3.79332e-12 0.00948417 4.12598e-12
 -9.80902e-12 0.00948417 1.07645e-11
 -6.2969e-12 0.00948417 1.18718e-11
 -2.11841e-12 0.00948417 -1.15303e-12
 -1.7184e-11 0.00948416 1.74714e-11
 -2.74706e-11 0.00948416 2.00915e-11
 -3.13048e-11 0.00948416 2.08196e-11
 -3.96106e-11 0.00948416 1.64218e-11
 -1.73744e-11 0.00948417 5.9171e-12
 -2.36688e-11 0.00948417 1.31407e-11
 -3.34497e-11 0.00948417 2.76183e-11
 -3.22048e-11 0.00948417 1.63251e-11
 -1.645e-11 0.00948416 1.54932e-11
 -2.06297e-11 0.00948416 5.19153e-12
 -3.45106e-11 0.00948416 -2.29775e-12
 -2.46863e-11 0.00948416 2.44405e-11
 -7.88451e-12 0.00768275 -1.17119e-12
 -3.06351e-12 0.00768275 1.17345e-11
 -2.67294e-12 0.00768275 1.66982e-11
 3.20017e-12 0.00768275 8.0443e-12
 -2.38237e-12 0.00768274 7.73973e-12
 -1.00067e-11 0.00768275 1.30205e-11
 -1.31215e-11 0.00768275 2.20107e-11
 -1.25634e-11 0.00768275 3.56304e-11
 -2.72819e-12 0.00768275 4.66224e-12
 -1.06798e-11 0.00768275 1.46085e-11
 -1.30726e-11 0.00768275 2.29052e-11
 -1.98344e-11 0.00768275 2.53605e-11
 -3.54415e-12 0.00768275 -5.00124e-13
 -9.4195e-12 0.00768275 6.83116e-12
 -1.67994e-11 0.00768275 1.1916e-11
 -2.25006e-11 0.00768275 2.21468e-11
 -9.67415e-13 0.000223773 -2.01906e-12
 2.06939e-12 0.000223773 3.27368e-12
 -1.37375e-13 0.000223773 5.49908e-12
 1.05681e-12 0.000223773 -5.86702e-13
 4.85175e-12 0.000223773 -5.12949e-13
 9.07571e-13 0.000223773 5.88823e-12
 1.70396e-12 0.000223773 5.67557e-12
 1.28691e-12 0.000223773 5.76346e-12
 7.56532e-12 0.000223773 -2.45351e-12
 1.4978e-12 0.000223773 1.25763e-12
 -5.4773e-14 0.000223773 5.27273e-12
 2.83912e-13 0.000223774 3.73109e-12
 -5.4524e-13 0.000223773 -2.58152e-12
 4.30656e-13 0.000223772 1.03659e-12
 -1.99057e-12 0.000223773 -4.48502e-13
 -7.07427e-12 0.000223772 2.46116e-12
 5.62384e-12 -0.000603128 3.73745e-13
 6.73194e-13 -0.000603128 1.76049e-12
 -1.14252e-13 -0.000603128 1.44427e-12
 2.44758e-12 -0.000603128 1.63329e-12
 2.90825e-12 -0.000603126 -9.54302e-13
 6.07618e-12 -0.000603127 3.03806e-12
 2.70209e-12 -0.000603127 2.87649e-12
 6.0104e-12 -0.000603127 3.6166e-13
 8.6194e-12 -0.000603127 -1.11967e-13
 7.69614e-12 -0.000603128 4.10289e-12
 5.3729e-12 -0.000603127 1.91464e-12
 5.1775e-12 -0.000603129 1.4881e-12
 4.73642e-12 -0.000603127 2.22103e-12
 3.78124e-13 -0.000603127 2.62317e-12
 8.80037e-12 -0.000603128 1.86114e-12
 -3.18318e-13 -0.000603127 1.63795e-12
 1.18249e-11 -0.000974393 1.02084e-13
 3.64124e-12 -0.000974398 -1.81308e-12
 1.94508e-12 -0.000974397 -1.08142e-12
 -8.76523e-13 -0.000974401 -1.77027e-12
 1.21727e-11 -0.000974412 -1.1382e-12
 4.20362e-12 -0.0009744 -5.01405e-12
 3.87876e-12 -0.000974405 -3.11346e-12
 1.56636e-12 -0.000974401 2.57407e-12
 9.75644e-12 -0.0009744 -6.62624e-12
 4.77066e-12 -0.000974399 1.37195e-12
 4.67661e-12 -0.000974401 -3.22496e-12
 1.91619e-12 -0.0009744 1.67678e-12
 1.05275e-12 -0.000974409 -1.42044e-12
 1.6227e-12 -0.000974396 -3.65198e-12
 -6.2302e-13 -0.000974406 -4.30962e-12
 7.12772e-13 -0.000974396 -1.05354e-12
 1.06461e-11 -0.000622575 -8.95557e-13
 1.37356e-12 -0.00062257 -2.73508e-12
 3.73323e-13 -0.000622571 -3.02905e-12
 -2.46577e-12 -0.000622567 -2.19959e-12
 9.09322e-12 -0.000622557 -8.62557e-13
 2.67697e-12 -0.000622568 -6.47029e-12
 1.25644e-12 -0.000622564 -4.01349e-12
 8.5762e-13 -0.000622567 8.42165e-13
 2.78988e-12 -0.000622569 -1.46598e-12
 5.30007e-12 -0.00062257 -4.32788e-12
 3.16429e-12 -0.000622567 -3.72092e-12
 -1.03764e-12 -0.000622567 -1.22258e-12
 5.30711e-12 -0.00062256 -1.74903e-12
 -3.85988e-13 -0.000622572 -5.38396e-12
 -5.18798e-13 -0.000622562 -5.61901e-12
 1.41972e-12 -0.000622572 -1.9308e-12
 2.48858e-12 -9.01732e-05 -7.98179e-13
 -9.7126e-13 -9.01744e-05 -4.103e-12
 1.4497e-14 -9.01745e-05 -2.44002e-12
 7.49952e-14 -9.01753e-05 2.18261e-12
 4.87463e-14 -9.01697e-05 2.23917e-13
 -1.40321e-12 -9.01774e-05 -3.78842e-12
 -1.37713e-12 -9.01707e-05 -2.18783e-12
 -1.48843e-12 -9.01778e-05 1.61133e-12
 3.54136e-13 -9.01709e-05 2.09533e-13
 -2.07687e-12 -9.01755e-05 -3.45933e-12
 -2.46949e-12 -9.01748e-05 -1.53149e-12
 -2.89954e-12 -9.01772e-05 1.92578e-12
 -1.39001e-12 -9.0172e-05 4.37138e-13
 8.48019e-15 -9.01752e-05 -4.91459e-12
 8.84492e-13 -9.01713e-05 -2.9695e-12
 -4.39734e-13 -9.01731e-05 2.03292e-12
 -9.3179e-13 0.000380982 -1.3541e-13
 4.08387e-13 0.000380984 -3.47783e-12
 -1.44742e-13 0.000380983 -2.82655e-12
 -1.71006e-12 0.000380984 7.01187e-13
 -1.70475e-12 0.000380978 -5.14137e-13
 -1.44581e-12 0.000380986 -8.40857e-13
 -1.6244e-12 0.00038098 -3.51123e-12
 -1.85375e-13 0.000380986 1.19114e-12
 -1.92981e-12 0.00038098 2.92245e-13
 -1.7634e-12 0.000380984 -3.27965e-12
 -2.87429e-12 0.000380983 -1.45226e-12
 -1.5123e-12 0.000380986 9.38907e-13
 8.55167e-13 0.00038098 -1.6338e-12
 -1.29955e-12 0.000380984 -3.81953e-12
 2.48112e-13 0.00038098 -7.50517e-13
 -4.27405e-13 0.000380982 2.08425e-12
 -5.58237e-12 0.000317464 -7.42739e-13
 -2.72622e-12 0.000317464 -2.33397e-12
 -3.88431e-12 0.000317464 -2.86044e-12
 7.28571e-14 0.000317464 -1.02068e-12
 5.34499e-13 0.000317464 -1.77495e-12
 -1.28604e-12 0.000317464 -1.13014e-12
 -5.336e-13 0.000317464 -2.99282e-12
 -1.43804e-12 0.000317464 1.66613e-12
 -4.35202e-12 0.000317464 -1.75269e-12
 -4.1571e-12 0.000317464 -3.12064e-13
 -2.36286e-12 0.000317464 -2.33822e-12
 -2.08862e-12 0.000317464 1.77713e-12
 8.55594e-14 0.000317464 5.37615e-13
 9.71694e-13 0.000317464 1.86195e-14
 1.15206e-12 0.000317464 1.45329e-13
 5.41825e-13 0.000317464 -8.79998e-13
 -1.51839e-12 0.00031367 1.63475e-14
 -2.83374e-12 0.00031367 -2.26371e-12
 -9.20294e-13 0.00031367 -2.88722e-12
 -1.61498e-13 0.00031367 -1.01666e-13
 -2.34008e-12 0.00031367 -4.31741e-13
 -1.1238e-12 0.00031367 -1.14319e-12
 -1.43141e-12 0.00031367 -3.08028e-12
 -1.02862e-12 0.000313671 1.42067e-12
 -3.35251e-12 0.00031367 -6.64916e-14
 -2.05704e-12 0.00031367 -4.03547e-13
 -2.03653e-12 0.00031367 -2.32421e-12
 -5.19536e-13 0.000313671 1.13337e-12
 -1.58458e-12 0.00031367 -9.35085e-13
 -5.49121e-13 0.00031367 1.01582e-12
 -5.69348e-13 0.00031367 -1.33516e-12
 -6.15892e-13 0.00031367 2.46688e-12
 -8.46338e-13 0.000153521 -1.46934e-12
 -2.97494e-13 0.000153521 -2.98796e-12
 -1.26285e-12 0.000153521 -1.30819e-12
 -1.19524e-12 0.000153521 -1.64142e-13
 -8.63616e-13 0.000153521 -1.24345e-12
 -7.75404e-13 0.000153521 -1.94896e-12
 -1.91505e-13 0.000153521 -2.4127e-12
 5.03304e-13 0.000153521 -4.34835e-13
 -1.08888e-12 0.000153521 -1.00684e-12
 -1.40302e-12 0.000153521 -2.18983e-12
 -6.59848e-13 0.000153521 -1.46275e-12
 -3.86214e-13 0.000153521 -1.25954e-12
 5.80595e-15 0.000153521 -5.0349e-13
 2.87325e-13 0.000153521 -1.39335e-12
 4.8796e-15 0.000153521 -1.8005e-12
 1.09965e-13 0.000153521 -2.94504e-13
 1.42515e-13 7.72944e-05 -1.14557e-12
 -2.883e-13 7.72944e-05 -1.60177e-12
 5.61099e-13 7.72944e-05 -1.24795e-12
 3.61938e-13 7.72944e-05 -1.1275e-12
 -2.36634e-12 7.72944e-05 -1.75578e-12
 -2.0131e-12 7.72944e-05 -1.54311e-12
 -1.97689e-12 7.72944e-05 -1.49397e-12
 -2.05042e-12 7.72944e-05 -1.04733e-12
 -1.36465e-12 7.72944e-05 -9.23499e-13
 -1.28098e-12 7.72944e-05 -2.0269e-12
 -1.4367e-12 7.72944e-05 -1.12536e-12
 -1.31053e-12 7.72944e-05 -1.22779e-12
 -1.59986e-12 7.72944e-05 -7.44141e-13
 -1.75651e-12 7.72944e-05 -1.43422e-12
 -1.81986e-12 7.72944e-05 -1.30429e-12
 -1.80549e-12 7.72944e-05 -7.9067e-13
 -4.60086e-13 0.000138012 3.97347e-13
 -1.73735e-12 0.000138012 7.20241e-13
 -1.21061e-12 0.000138012 3.83885e-13
 -1.92554e-12 0.000138012 2.59456e-13
 4.17062e-13 0.000138012 4.25621e-13
 6.96311e-13 0.000138012 4.02628e-13
 -3.44757e-13 0.000138012 -1.29017e-12
 1.21177e-12 0.000138012 1.63118e-12
 -4.44423e-13 0.000138012 -7.87972e-13
 8.32801e-13 0.000138012 1.03993e-12
 9.97529e-13 0.000138012 1.33538e-12
 -2.08194e-13 0.000138012 2.77464e-14
 3.43118e-12 0.000138012 6.76031e-13
 3.52129e-12 0.000138012 -2.98726e-13
 3.99232e-12 0.000138012 1.1358e-13
 1.78431e-12 0.000138012 7.70659e-13
 0 -0.000537327 0
 0 -0.000537327 0
 0 -0.000537327 0
 0 -0.000537327 0
 0 -0.000537327 0
 0 -0.000537327 0
 0 -0.000537327 0
 0 -0.000537327 0
 0 -0.000537327 0
 0 -0.000537327 0
 0 -0.000537327 0
 0 -0.000537327 0
 0 -0.000537327 0
 0 -0.000537327 0
 0 -0.000537327 0
 0 -0.000537327 0
 0 0.000307245 0
 0 0.000307245 0
 0 0.000307245 0
 0 0.000307245 0
 0 0.000307245 0
 0 0.000307245 0
 0 0.000307245 0