<?xml version="1.0"?>
<!-- time 72.7526-->
<VTKFile type="UnstructuredGrid" version="0.1" byte_order="LittleEndian">
<UnstructuredGrid>
<Piece NumberOfPoints="960" NumberOfCells="0">
<Points>
  <DataArray type="Float32" Name="Position" NumberOfComponents="3" format="ascii">
	-300 2099.68 -300
	-300 2099.68 -100
	-300 2099.68 100
	-300 2099.68 300
	-100 2099.68 -300
	-100 2099.68 -100
	-100 2099.68 100
	-100 2099.68 300
	100 2099.68 -300
	100 2099.68 -100
	100 2099.68 100
	100 2099.68 300
	300 2099.68 -300
	300 2099.68 -100
	300 2099.68 100
	300 2099.68 300
	-300 2299.7 -300
	-300 2299.7 -100
	-300 2299.7 100
	-300 2299.7 300
	-100 2299.7 -300
	-100 2299.7 -100
	-100 2299.7 100
	-100 2299.7 300
	100 2299.7 -300
	100 2299.7 -100
	100 2299.7 100
	100 2299.7 300
	300 2299.7 -300
	300 2299.7 -100
	300 2299.7 100
	300 2299.7 300
	-300 2499.7 -300
	-300 2499.7 -100
	-300 2499.7 100
	-300 2499.7 300
	-100 2499.7 -300
	-100 2499.7 -100
	-100 2499.7 100
	-100 2499.7 300
	100 2499.7 -300
	100 2499.7 -100
	100 2499.7 100
	100 2499.7 300
	300 2499.7 -300
	300 2499.7 -100
	300 2499.7 100
	300 2499.7 300
	-300 2699.7 -300
	-300 2699.7 -100
	-300 2699.7 100
	-300 2699.7 300
	-100 2699.7 -300
	-100 2699.7 -100
	-100 2699.7 100
	-100 2699.7 300
	100 2699.7 -300
	100 2699.7 -100
	100 2699.7 100
	100 2699.7 300
	300 2699.7 -300
	300 2699.7 -100
	300 2699.7 100
	300 2699.7 300
	-300 2899.7 -300
	-300 2899.7 -100
	-300 2899.7 100
	-300 2899.7 300
	-100 2899.7 -300
	-100 2899.7 -100
	-100 2899.7 100
	-100 2899.7 300
	100 2899.7 -300
	100 2899.7 -100
	100 2899.7 100
	100 2899.7 300
	300 2899.7 -300
	300 2899.7 -100
	300 2899.7 100
	300 2899.7 300
	-300 3099.7 -300
	-300 3099.7 -100
	-300 3099.7 100
	-300 3099.7 300
	-100 3099.7 -300
	-100 3099.7 -100
	-100 3099.7 100
	-100 3099.7 300
	100 3099.7 -300
	100 3099.7 -100
	100 3099.7 100
	100 3099.7 300
	300 3099.7 -300
	300 3099.7 -100
	300 3099.7 100
	300 3099.7 300
	-300 3299.7 -300
	-300 3299.7 -100
	-300 3299.7 100
	-300 3299.7 300
	-100 3299.7 -300
	-100 3299.7 -100
	-100 3299.7 100
	-100 3299.7 300
	100 3299.7 -300
	100 3299.7 -100
	100 3299.7 100
	100 3299.7 300
	300 3299.7 -300
	300 3299.7 -100
	300 3299.7 100
	300 3299.7 300
	-300 3499.7 -300
	-300 3499.7 -100
	-300 3499.7 100
	-300 3499.7 300
	-100 3499.7 -300
	-100 3499.7 -100
	-100 3499.7 100
	-100 3499.7 300
	100 3499.7 -300
	100 3499.7 -100
	100 3499.7 100
	100 3499.7 300
	300 3499.7 -300
	300 3499.7 -100
	300 3499.7 100
	300 3499.7 300
	-300 3699.7 -300
	-300 3699.7 -100
	-300 3699.7 100
	-300 3699.7 300
	-100 3699.7 -300
	-100 3699.7 -100
	-100 3699.7 100
	-100 3699.7 300
	100 3699.7 -300
	100 3699.7 -100
	100 3699.7 100
	100 3699.7 300
	300 3699.7 -300
	300 3699.7 -100
	300 3699.7 100
	300 3699.7 300
	-300 3899.7 -300
	-300 3899.7 -100
	-300 3899.7 100
	-300 3899.7 300
	-100 3899.7 -300
	-100 3899.7 -100
	-100 3899.7 100
	-100 3899.7 300
	100 3899.7 -300
	100 3899.7 -100
	100 3899.7 100
	100 3899.7 300
	300 3899.7 -300
	300 3899.7 -100
	300 3899.7 100
	300 3899.7 300
	-300 4099.7 -300
	-300 4099.7 -100
	-300 4099.7 100
	-300 4099.7 300
	-100 4099.7 -300
	-100 4099.7 -100
	-100 4099.7 100
	-100 4099.7 300
	100 4099.7 -300
	100 4099.7 -100
	100 4099.7 100
	100 4099.7 300
	300 4099.7 -300
	300 4099.7 -100
	300 4099.7 100
	300 4099.7 300
	-300 4299.7 -300
	-300 4299.7 -100
	-300 4299.7 100
	-300 4299.7 300
	-100 4299.7 -300
	-100 4299.7 -100
	-100 4299.7 100
	-100 4299.7 300
	100 4299.7 -300
	100 4299.7 -100
	100 4299.7 100
	100 4299.7 300
	300 4299.7 -300
	300 4299.7 -100
	300 4299.7 100
	300 4299.7 300
	-300 4499.7 -300
	-300 4499.7 -100
	-300 4499.7 100
	-300 4499.7 300
	-100 4499.7 -300
	-100 4499.7 -100
	-100 4499.7 100
	-100 4499.7 300
	100 4499.7 -300
	100 4499.7 -100
	100 4499.7 100
	100 4499.7 300
	300 4499.7 -300
	300 4499.7 -100
	300 4499.7 100
	300 4499.7 300
	-300 4699.7 -300
	-300 4699.7 -100
	-300 4699.7 100
	-300 4699.7 300
	-100 4699.7 -300
	-100 4699.7 -100
	-100 4699.7 100
	-100 4699.7 300
	100 4699.7 -300
	100 4699.7 -100
	100 4699.7 100
	100 4699.7 300
	300 4699.7 -300
	300 4699.7 -100
	300 4699.7 100
	300 4699.7 300
	-300 4899.7 -300
	-300 4899.7 -100
	-300 4899.7 100
	-300 4899.7 300
	-100 4899.7 -300
	-100 4899.7 -100
	-100 4899.7 100
	-100 4899.7 300
	100 4899.7 -300
	100 4899.7 -100
	100 4899.7 100
	100 4899.7 300
	300 4899.7 -300
	300 4899.7 -100
	300 4899.7 100
	300 4899.7 300
	-300 5099.7 -300
	-300 5099.7 -100
	-300 5099.7 100
	-300 5099.7 300
	-100 5099.7 -300
	-100 5099.7 -100
	-100 5099.7 100
	-100 5099.7 300
	100 5099.7 -300
	100 5099.7 -100
	100 5099.7 100
	100 5099.7 300
	300 5099.7 -300
	300 5099.7 -100
	300 5099.7 100
	300 5099.7 300
	-300 5299.7 -300
	-300 5299.7 -100
	-300 5299.7 100
	-300 5299.7 300
	-100 5299.7 -300
	-100 5299.7 -100
	-100 5299.7 100
	-100 5299.7 300
	100 5299.7 -300
	100 5299.7 -100
	100 5299.7 100
	100 5299.7 300
	300 5299.7 -300
	300 5299.7 -100
	300 5299.7 100
	300 5299.7 300
	-300 5499.7 -300
	-300 5499.7 -100
	-300 5499.7 100
	-300 5499.7 300
	-100 5499.7 -300
	-100 5499.7 -100
	-100 5499.7 100
	-100 5499.7 300
	100 5499.7 -300
	100 5499.7 -100
	100 5499.7 100
	100 5499.7 300
	300 5499.7 -300
	300 5499.7 -100
	300 5499.7 100
	300 5499.7 300
	-300 5699.7 -300
	-300 5699.7 -100
	-300 5699.7 100
	-300 5699.7 300
	-100 5699.7 -300
	-100 5699.7 -100
	-100 5699.7 100
	-100 5699.7 300
	100 5699.7 -300
	100 5699.7 -100
	100 5699.7 100
	100 5699.7 300
	300 5699.7 -300
	300 5699.7 -100
	300 5699.7 100
	300 5699.7 300
	-300 5899.71 -300
	-300 5899.71 -100
	-300 5899.71 100
	-300 5899.71 300
	-100 5899.71 -300
	-100 5899.71 -100
	-100 5899.71 100
	-100 5899.71 300
	100 5899.71 -300
	100 5899.71 -100
	100 5899.71 100
	100 5899.71 300
	300 5899.71 -300
	300 5899.71 -100
	300 5899.71 100
	300 5899.71 300
	-300 6099.74 -300
	-300 6099.74 -100
	-300 6099.74 100
	-300 6099.74 300
	-100 6099.74 -300
	-100 6099.74 -100
	-100 6099.74 100
	-100 6099.74 300
	100 6099.74 -300
	100 6099.74 -100
	100 6099.74 100
	100 6099.74 300
	300 6099.74 -300
	300 6099.74 -100
	300 6099.74 100
	300 6099.74 300
	-300 6299.75 -300
	-300 6299.75 -100
	-300 6299.75 100
	-300 6299.75 300
	-100 6299.75 -300
	-100 6299.75 -100
	-100 6299.75 100
	-100 6299.75 300
	100 6299.75 -300
	100 6299.75 -100
	100 6299.75 100
	100 6299.75 300
	300 6299.75 -300
	300 6299.75 -100
	300 6299.75 100
	300 6299.75 300
	-300 6499.79 -300
	-300 6499.79 -100
	-300 6499.79 100
	-300 6499.79 300
	-100 6499.79 -300
	-100 6499.79 -100
	-100 6499.79 100
	-100 6499.79 300
	100 6499.79 -300
	100 6499.79 -100
	100 6499.79 100
	100 6499.79 300
	300 6499.79 -300
	300 6499.79 -100
	300 6499.79 100
	300 6499.79 300
	-300 6699.81 -300
	-300 6699.81 -100
	-300 6699.81 100
	-300 6699.81 300
	-100 6699.81 -300
	-100 6699.81 -100
	-100 6699.81 100
	-100 6699.81 300
	100 6699.81 -300
	100 6699.81 -100
	100 6699.81 100
	100 6699.81 300
	300 6699.81 -300
	300 6699.81 -100
	300 6699.81 100
	300 6699.81 300
	-300 6899.82 -300
	-300 6899.82 -100
	-300 6899.82 100
	-300 6899.82 300
	-100 6899.82 -300
	-100 6899.82 -100
	-100 6899.82 100
	-100 6899.82 300
	100 6899.82 -300
	100 6899.82 -100
	100 6899.82 100
	100 6899.82 300
	300 6899.82 -300
	300 6899.82 -100
	300 6899.82 100
	300 6899.82 300
	-300 7099.82 -300
	-300 7099.82 -100
	-300 7099.82 100
	-300 7099.82 300
	-100 7099.82 -300
	-100 7099.82 -100
	-100 7099.82 100
	-100 7099.82 300
	100 7099.82 -300
	100 7099.82 -100
	100 7099.82 100
	100 7099.82 300
	300 7099.82 -300
	300 7099.82 -100
	300 7099.82 100
	300 7099.82 300
	-300 7299.83 -300
	-300 7299.83 -100
	-300 7299.83 100
	-300 7299.83 300
	-100 7299.83 -300
	-100 7299.83 -100
	-100 7299.83 100
	-100 7299.83 300
	100 7299.83 -300
	100 7299.83 -100
	100 7299.83 100
	100 7299.83 300
	300 7299.83 -300
	300 7299.83 -100
	300 7299.83 100
	300 7299.83 300
	-300 7499.83 -300
	-300 7499.83 -100
	-300 7499.83 100
	-300 7499.83 300
	-100 7499.83 -300
	-100 7499.83 -100
	-100 7499.83 100
	-100 7499.83 300
	100 7499.83 -300
	100 7499.83 -100
	100 7499.83 100
	100 7499.83 300
	300 7499.83 -300
	300 7499.83 -100
	300 7499.83 100
	300 7499.83 300
	-300 7699.84 -300
	-300 7699.84 -100
	-300 7699.84 100
	-300 7699.84 300
	-100 7699.84 -300
	-100 7699.84 -100
	-100 7699.84 100
	-100 7699.84 300
	100 7699.84 -300
	100 7699.84 -100
	100 7699.84 100
	100 7699.84 300
	300 7699.84 -300
	300 7699.84 -100
	300 7699.84 100
	300 7699.84 300
	-300 7899.84 -300
	-300 7899.84 -100
	-300 7899.84 100
	-300 7899.84 300
	-100 7899.84 -300
	-100 7899.84 -100
	-100 7899.84 100
	-100 7899.84 300
	100 7899.84 -300
	100 7899.84 -100
	100 7899.84 100
	100 7899.84 300
	300 7899.84 -300
	300 7899.84 -100
	300 7899.84 100
	300 7899.84 300
	-300 8099.84 -300
	-300 8099.84 -100
	-300 8099.84 100
	-300 8099.84 300
	-100 8099.84 -300
	-100 8099.84 -100
	-100 8099.84 100
	-100 8099.84 300
	100 8099.84 -300
	100 8099.84 -100
	100 8099.84 100
	100 8099.84 300
	300 8099.84 -300
	300 8099.84 -100
	300 8099.84 100
	300 8099.84 300
	-300 8299.85 -300
	-300 8299.85 -100
	-300 8299.85 100
	-300 8299.85 300
	-100 8299.85 -300
	-100 8299.85 -100
	-100 8299.85 100
	-100 8299.85 300
	100 8299.85 -300
	100 8299.85 -100
	100 8299.85 100
	100 8299.85 300
	300 8299.85 -300
	300 8299.85 -100
	300 8299.85 100
	300 8299.85 300
	-300 8499.85 -300
	-300 8499.85 -100
	-300 8499.85 100
	-300 8499.85 300
	-100 8499.85 -300
	-100 8499.85 -100
	-100 8499.85 100
	-100 8499.85 300
	100 8499.85 -300
	100 8499.85 -100
	100 8499.85 100
	100 8499.85 300
	300 8499.85 -300
	300 8499.85 -100
	300 8499.85 100
	300 8499.85 300
	-300 8699.86 -300
	-300 8699.86 -100
	-300 8699.86 100
	-300 8699.86 300
	-100 8699.86 -300
	-100 8699.86 -100
	-100 8699.86 100
	-100 8699.86 300
	100 8699.86 -300
	100 8699.86 -100
	100 8699.86 100
	100 8699.86 300
	300 8699.86 -300
	300 8699.86 -100
	300 8699.86 100
	300 8699.86 300
	-300 8899.86 -300
	-300 8899.86 -100
	-300 8899.86 100
	-300 8899.86 300
	-100 8899.86 -300
	-100 8899.86 -100
	-100 8899.86 100
	-100 8899.86 300
	100 8899.86 -300
	100 8899.86 -100
	100 8899.86 100
	100 8899.86 300
	300 8899.86 -300
	300 8899.86 -100
	300 8899.86 100
	300 8899.86 300
	-300 9099.87 -300
	-300 9099.87 -100
	-300 9099.87 100
	-300 9099.87 300
	-100 9099.87 -300
	-100 9099.87 -100
	-100 9099.87 100
	-100 9099.87 300
	100 9099.87 -300
	100 9099.87 -100
	100 9099.87 100
	100 9099.87 300
	300 9099.87 -300
	300 9099.87 -100
	300 9099.87 100
	300 9099.87 300
	-300 9299.88 -300
	-300 9299.88 -100
	-300 9299.88 100
	-300 9299.88 300
	-100 9299.88 -300
	-100 9299.88 -100
	-100 9299.88 100
	-100 9299.88 300
	100 9299.88 -300
	100 9299.88 -100
	100 9299.88 100
	100 9299.88 300
	300 9299.88 -300
	300 9299.88 -100
	300 9299.88 100
	300 9299.88 300
	-300 9499.88 -300
	-300 9499.88 -100
	-300 9499.88 100
	-300 9499.88 300
	-100 9499.88 -300
	-100 9499.88 -100
	-100 9499.88 100
	-100 9499.88 300
	100 9499.88 -300
	100 9499.88 -100
	100 9499.88 100
	100 9499.88 300
	300 9499.88 -300
	300 9499.88 -100
	300 9499.88 100
	300 9499.88 300
	-300 9699.88 -300
	-300 9699.88 -100
	-300 9699.88 100
	-300 9699.88 300
	-100 9699.88 -300
	-100 9699.88 -100
	-100 9699.88 100
	-100 9699.88 300
	100 9699.88 -300
	100 9699.88 -100
	100 9699.88 100
	100 9699.88 300
	300 9699.88 -300
	300 9699.88 -100
	300 9699.88 100
	300 9699.88 300
	-300 9899.89 -300
	-300 9899.89 -100
	-300 9899.89 100
	-300 9899.89 300
	-100 9899.89 -300
	-100 9899.89 -100
	-100 9899.89 100
	-100 9899.89 300
	100 9899.89 -300
	100 9899.89 -100
	100 9899.89 100
	100 9899.89 300
	300 9899.89 -300
	300 9899.89 -100
	300 9899.89 100
	300 9899.89 300
	-300 10099.9 -300
	-300 10099.9 -100
	-300 10099.9 100
	-300 10099.9 300
	-100 10099.9 -300
	-100 10099.9 -100
	-100 10099.9 100
	-100 10099.9 300
	100 10099.9 -300
	100 10099.9 -100
	100 10099.9 100
	100 10099.9 300
	300 10099.9 -300
	300 10099.9 -100
	300 10099.9 100
	300 10099.9 300
	-300 10299.9 -300
	-300 10299.9 -100
	-300 10299.9 100
	-300 10299.9 300
	-100 10299.9 -300
	-100 10299.9 -100
	-100 10299.9 100
	-100 10299.9 300
	100 10299.9 -300
	100 10299.9 -100
	100 10299.9 100
	100 10299.9 300
	300 10299.9 -300
	300 10299.9 -100
	300 10299.9 100
	300 10299.9 300
	-300 10499.9 -300
	-300 10499.9 -100
	-300 10499.9 100
	-300 10499.9 300
	-100 10499.9 -300
	-100 10499.9 -100
	-100 10499.9 100
	-100 10499.9 300
	100 10499.9 -300
	100 10499.9 -100
	100 10499.9 100
	100 10499.9 300
	300 10499.9 -300
	300 10499.9 -100
	300 10499.9 100
	300 10499.9 300
	-300 10699.9 -300
	-300 10699.9 -100
	-300 10699.9 100
	-300 10699.9 300
	-100 10699.9 -300
	-100 10699.9 -100
	-100 10699.9 100
	-100 10699.9 300
	100 10699.9 -300
	100 10699.9 -100
	100 10699.9 100
	100 10699.9 300
	300 10699.9 -300
	300 10699.9 -100
	300 10699.9 100
	300 10699.9 300
	-300 10899.9 -300
	-300 10899.9 -100
	-300 10899.9 100
	-300 10899.9 300
	-100 10899.9 -300
	-100 10899.9 -100
	-100 10899.9 100
	-100 10899.9 300
	100 10899.9 -300
	100 10899.9 -100
	100 10899.9 100
	100 10899.9 300
	300 10899.9 -300
	300 10899.9 -100
	300 10899.9 100
	300 10899.9 300
	-300 11100 -300
	-300 11100 -100
	-300 11100 100
	-300 11100 300
	-100 11100 -300
	-100 11100 -100
	-100 11100 100
	-100 11100 300
	100 11100 -300
	100 11100 -100
	100 11100 100
	100 11100 300
	300 11100 -300
	300 11100 -100
	300 11100 100
	300 11100 300
	-300 11300 -300
	-300 11300 -100
	-300 11300 100
	-300 11300 300
	-100 11300 -300
	-100 11300 -100
	-100 11300 100
	-100 11300 300
	100 11300 -300
	100 11300 -100
	100 11300 100
	100 11300 300
	300 11300 -300
	300 11300 -100
	300 11300 100
	300 11300 300
	-300 11500 -300
	-300 11500 -100
	-300 11500 100
	-300 11500 300
	-100 11500 -300
	-100 11500 -100
	-100 11500 100
	-100 11500 300
	100 11500 -300
	100 11500 -100
	100 11500 100
	100 11500 300
	300 11500 -300
	300 11500 -100
	300 11500 100
	300 11500 300
	-300 11700 -300
	-300 11700 -100
	-300 11700 100
	-300 11700 300
	-100 11700 -300
	-100 11700 -100
	-100 11700 100
	-100 11700 300
	100 11700 -300
	100 11700 -100
	100 11700 100
	100 11700 300
	300 11700 -300
	300 11700 -100
	300 11700 100
	300 11700 300
	-300 11900 -300
	-300 11900 -100
	-300 11900 100
	-300 11900 300
	-100 11900 -300
	-100 11900 -100
	-100 11900 100
	-100 11900 300
	100 11900 -300
	100 11900 -100
	100 11900 100
	100 11900 300
	300 11900 -300
	300 11900 -100
	300 11900 100
	300 11900 300
	-300 12100.1 -300
	-300 12100.1 -100
	-300 12100.1 100
	-300 12100.1 300
	-100 12100.1 -300
	-100 12100.1 -100
	-100 12100.1 100
	-100 12100.1 300
	100 12100.1 -300
	100 12100.1 -100
	100 12100.1 100
	100 12100.1 300
	300 12100.1 -300
	300 12100.1 -100
	300 12100.1 100
	300 12100.1 300
	-300 12300.1 -300
	-300 12300.1 -100
	-300 12300.1 100
	-300 12300.1 300
	-100 12300.1 -300
	-100 12300.1 -100
	-100 12300.1 100
	-100 12300.1 300
	100 12300.1 -300
	100 12300.1 -100
	100 12300.1 100
	100 12300.1 300
	300 12300.1 -300
	300 12300.1 -100
	300 12300.1 100
	300 12300.1 300
	-300 12500.1 -300
	-300 12500.1 -100
	-300 12500.1 100
	-300 12500.1 300
	-100 12500.1 -300
	-100 12500.1 -100
	-100 12500.1 100
	-100 12500.1 300
	100 12500.1 -300
	100 12500.1 -100
	100 12500.1 100
	100 12500.1 300
	300 12500.1 -300
	300 12500.1 -100
	300 12500.1 100
	300 12500.1 300
	-300 12700.2 -300
	-300 12700.2 -100
	-300 12700.2 100
	-300 12700.2 300
	-100 12700.2 -300
	-100 12700.2 -100
	-100 12700.2 100
	-100 12700.2 300
	100 12700.2 -300
	100 12700.2 -100
	100 12700.2 100
	100 12700.2 300
	300 12700.2 -300
	300 12700.2 -100
	300 12700.2 100
	300 12700.2 300
	-300 12900.2 -300
	-300 12900.2 -100
	-300 12900.2 100
	-300 12900.2 300
	-100 12900.2 -300
	-100 12900.2 -100
	-100 12900.2 100
	-100 12900.2 300
	100 12900.2 -300
	100 12900.2 -100
	100 12900.2 100
	100 12900.2 300
	300 12900.2 -300
	300 12900.2 -100
	300 12900.2 100
	300 12900.2 300
	-300 13100.3 -300
	-300 13100.3 -100
	-300 13100.3 100
	-300 13100.3 300
	-100 13100.3 -300
	-100 13100.3 -100
	-100 13100.3 100
	-100 13100.3 300
	100 13100.3 -300
	100 13100.3 -100
	100 13100.3 100
	100 13100.3 300
	300 13100.3 -300
	300 13100.3 -100
	300 13100.3 100
	300 13100.3 300
	-300 13300.4 -300
	-300 13300.4 -100
	-300 13300.4 100
	-300 13300.4 300
	-100 13300.4 -300
	-100 13300.4 -100
	-100 13300.4 100
	-100 13300.4 300
	100 13300.4 -300
	100 13300.4 -100
	100 13300.4 100
	100 13300.4 300
	300 13300.4 -300
	300 13300.4 -100
	300 13300.4 100
	300 13300.4 300
	-300 13500.6 -300
	-300 13500.6 -100
	-300 13500.6 100
	-300 13500.6 300
	-100 13500.6 -300
	-100 13500.6 -100
	-100 13500.6 100
	-100 13500.6 300
	100 13500.6 -300
	100 13500.6 -100
	100 13500.6 100
	100 13500.6 300
	300 13500.6 -300
	300 13500.6 -100
	300 13500.6 100
	300 13500.6 300
	-300 13700.9 -300
	-300 13700.9 -100
	-300 13700.9 100
	-300 13700.9 300
	-100 13700.9 -300
	-100 13700.9 -100
	-100 13700.9 100
	-100 13700.9 300
	100 13700.9 -300
	100 13700.9 -100
	100 13700.9 100
	100 13700.9 300
	300 13700.9 -300
	300 13700.9 -100
	300 13700.9 100
	300 13700.9 300
	-300 13901.7 -300
	-300 13901.7 -100
	-300 13901.7 100
	-300 13901.7 300
	-100 13901.7 -300
	-100 13901.7 -100
	-100 13901.7 100
	-100 13901.7 300
	100 13901.7 -300
	100 13901.7 -100
	100 13901.7 100
	100 13901.7 300
	300 13901.7 -300
	300 13901.7 -100
	300 13901.7 100
	300 13901.7 300
  </DataArray>
</Points>
<PointData  Vectors="vector">
  <DataArray type="Float32" Name="Velocity" NumberOfComponents="3" format="ascii">
 -1.96369e-10 -0.000282453 -1.36042e-13
 -9.88222e-11 -0.000282453 1.30307e-10
 -1.79696e-10 -0.000282453 1.2703e-10
 5.15363e-11 -0.000282453 2.10553e-10
 -4.46516e-11 -0.000282453 -1.95156e-11
 -1.60875e-11 -0.000282453 -2.18837e-11
 -2.75735e-11 -0.000282453 -5.30798e-11
 4.5713e-11 -0.000282453 -1.77495e-11
 -7.36533e-11 -0.000282453 3.94578e-12
 -4.0773e-11 -0.000282453 -3.51497e-11
 -3.15376e-11 -0.000282453 -3.32173e-11
 6.72809e-11 -0.000282453 -1.50147e-12
 3.19511e-11 -0.000282454 -6.90448e-12
 3.30444e-11 -0.000282454 -4.24025e-11
 3.87449e-11 -0.000282453 -5.288e-11
 -2.86754e-11 -0.000282454 7.91107e-12
 8.91608e-11 -0.000459566 -7.22212e-12
 7.70943e-11 -0.000459566 3.28936e-11
 3.6022e-11 -0.000459566 5.86231e-12
 3.81894e-12 -0.000459566 -3.18629e-12
 1.02297e-11 -0.000459567 -1.23296e-11
 -6.69396e-12 -0.000459566 -1.42687e-11
 -1.13963e-11 -0.000459566 -2.16393e-11
 4.42198e-11 -0.000459567 -4.23285e-11
 -7.51909e-12 -0.000459567 3.33682e-12
 2.62486e-11 -0.000459566 8.22949e-12
 -1.08204e-11 -0.000459566 2.82505e-12
 4.05743e-12 -0.000459566 1.24664e-11
 9.59363e-12 -0.000459566 6.56825e-12
 5.30603e-12 -0.000459567 -8.9293e-13
 1.14552e-11 -0.000459566 4.19341e-13
 2.32299e-11 -0.000459567 1.60536e-12
 1.13751e-11 -0.000413192 -1.92165e-12
 8.52265e-12 -0.000413192 2.0643e-11
 1.34849e-11 -0.000413192 2.14952e-11
 1.63683e-11 -0.000413192 -1.28372e-12
 -3.79886e-11 -0.000413192 -4.44585e-12
 -3.13645e-11 -0.000413192 1.0157e-11
 -3.66509e-11 -0.000413192 6.018e-12
 -1.94207e-11 -0.000413192 9.64812e-14
 -3.74766e-11 -0.000413192 -1.81784e-12
 -3.29116e-11 -0.000413192 4.31223e-12
 -3.1663e-11 -0.000413192 -3.10367e-12
 -2.27908e-11 -0.000413192 6.60987e-13
 1.30489e-11 -0.000413192 -9.41072e-12
 1.83598e-11 -0.000413192 2.21345e-12
 1.93146e-11 -0.000413192 -6.24408e-12
 8.2937e-12 -0.000413192 3.47101e-12
 8.47934e-12 -0.000513884 -1.76767e-12
 7.67584e-12 -0.000513883 1.0132e-11
 3.69362e-12 -0.000513883 9.46777e-12
 5.24156e-12 -0.000513884 -3.45008e-12
 -1.50266e-11 -0.000513883 -3.9199e-12
 -1.07527e-11 -0.000513883 6.36526e-12
 -9.69367e-12 -0.000513883 6.37153e-12
 -1.78132e-11 -0.000513883 -3.55108e-12
 -1.54174e-11 -0.000513883 -5.08025e-12
 -1.43677e-11 -0.000513884 5.99329e-12
 -1.72825e-11 -0.000513883 1.00453e-11
 -1.27847e-11 -0.000513883 -3.86387e-12
 6.31302e-12 -0.000513884 -6.85256e-13
 6.1183e-12 -0.000513883 5.74242e-12
 5.22528e-12 -0.000513883 3.92314e-12
 1.03724e-11 -0.000513883 -3.47008e-12
 -8.515e-13 -0.000481657 1.64752e-12
 -1.20205e-13 -0.000481657 6.68937e-12
 -1.43555e-12 -0.000481657 1.82109e-12
 8.35441e-15 -0.000481657 3.34034e-13
 -2.01096e-11 -0.000481657 -8.64267e-12
 -2.02144e-11 -0.000481657 9.26712e-12
 -1.95895e-11 -0.000481657 9.44595e-12
 -2.62859e-11 -0.000481657 -1.24983e-12
 -1.95825e-11 -0.000481656 -6.90076e-12
 -1.93909e-11 -0.000481657 7.53656e-12
 -2.19353e-11 -0.000481657 4.33843e-12
 -2.23982e-11 -0.000481657 9.02669e-13
 -1.3335e-12 -0.000481657 2.74352e-12
 -1.16402e-12 -0.000481656 -2.06316e-12
 -1.24198e-12 -0.000481657 -2.28979e-13
 2.5684e-12 -0.000481656 7.80039e-12
 3.352e-12 -0.000473001 -6.17591e-12
 2.6019e-12 -0.000473001 6.27209e-12
 1.78976e-12 -0.000473001 3.39575e-12
 2.33159e-12 -0.000473002 8.06985e-13
 -1.02084e-11 -0.000473001 1.60327e-12
 -3.4232e-12 -0.000473001 2.89652e-12
 -4.23277e-12 -0.000473001 4.70526e-12
 -3.42066e-12 -0.000473001 -5.19803e-12
 -7.6157e-12 -0.000473001 -8.98096e-13
 -3.80662e-12 -0.000473001 1.57928e-12
 -6.6805e-12 -0.000473001 6.6715e-12
 -3.61567e-12 -0.000473001 -6.63198e-12
 5.24405e-12 -0.000473001 -6.53579e-12
 1.53986e-12 -0.000473001 7.62629e-12
 3.41177e-12 -0.000473001 1.04984e-11
 -2.78298e-13 -0.000473001 -3.73863e-12
 -8.08591e-13 -0.00038838 -1.69613e-12
 -1.81669e-12 -0.00038838 3.81359e-12
 -9.53951e-13 -0.000388381 6.1207e-12
 -1.23984e-12 -0.00038838 -1.5048e-14
 -4.59308e-12 -0.00038838 2.98937e-12
 -1.53677e-12 -0.00038838 4.40433e-12
 -2.5826e-12 -0.00038838 4.0804e-12
 -1.48537e-12 -0.000388381 -1.18058e-12
 -5.82777e-12 -0.00038838 -5.24864e-12
 -1.14466e-13 -0.00038838 9.95227e-12
 -2.20548e-12 -0.00038838 4.15592e-12
 -1.74849e-12 -0.00038838 -1.32851e-12
 -4.05177e-13 -0.000388381 -1.41404e-12
 -1.48795e-12 -0.00038838 5.95349e-12
 -1.90967e-12 -0.00038838 1.30518e-11
 -1.04581e-12 -0.00038838 -3.66496e-12
 9.33604e-13 -0.000499949 -2.69294e-12
 1.55139e-12 -0.000499948 -2.08487e-12
 3.96165e-13 -0.000499949 -2.47379e-12
 -4.74877e-13 -0.000499948 2.97023e-12
 -2.3116e-13 -0.000499949 -1.0788e-12
 7.84596e-13 -0.000499949 -5.8013e-13
 9.24661e-13 -0.000499949 -1.70297e-12
 1.82348e-12 -0.000499949 3.20487e-13
 7.90478e-13 -0.000499949 1.16674e-12
 -1.2471e-13 -0.000499949 -1.9659e-12
 6.02781e-13 -0.000499949 -3.90736e-12
 2.62247e-12 -0.000499949 6.84806e-13
 -2.43206e-13 -0.000499949 -2.61449e-12
 1.72153e-12 -0.000499949 6.66226e-14
 7.73966e-13 -0.000499949 2.73872e-12
 9.47076e-14 -0.000499949 -1.98172e-12
 1.05371e-12 -0.000431163 1.04091e-12
 -3.63696e-13 -0.000431163 9.33948e-13
 1.46409e-12 -0.000431162 2.71654e-13
 6.0972e-13 -0.000431164 7.76965e-13
 -1.97008e-13 -0.000431163 1.77945e-12
 2.05224e-12 -0.000431163 3.00135e-14
 1.76865e-12 -0.000431163 5.82225e-13
 3.40321e-12 -0.000431162 1.6423e-12
 8.62943e-13 -0.000431163 2.4088e-12
 2.24994e-12 -0.000431163 1.44967e-12
 2.86616e-12 -0.000431163 1.32856e-12
 3.62737e-12 -0.000431163 2.25499e-12
 9.88622e-13 -0.000431161 1.21207e-12
 -3.72862e-13 -0.000431164 3.12681e-12
 7.68989e-13 -0.000431163 1.91268e-12
 -1.88806e-13 -0.000431163 1.34994e-12
 -3.95424e-13 -3.59593e-05 -1.18448e-12
 -4.87601e-14 -3.59596e-05 -3.47173e-14
 -1.60026e-12 -3.59592e-05 -2.24619e-12
 3.86737e-13 -3.59597e-05 7.91795e-14
 4.66026e-12 -3.59596e-05 1.35683e-12
 2.79116e-12 -3.59596e-05 -4.47119e-12
 4.04302e-12 -3.59597e-05 -3.23761e-12
 1.77408e-12 -3.59593e-05 1.71798e-12
 5.05503e-12 -3.59598e-05 1.46503e-12
 3.54283e-12 -3.59595e-05 -4.07884e-12
 1.44545e-12 -3.59594e-05 -3.70479e-12
 2.31945e-12 -3.59594e-05 1.87969e-12
 8.05164e-14 -3.59589e-05 5.19172e-13
 -2.84416e-13 -3.59599e-05 -5.27979e-12
 2.24992e-12 -3.59595e-05 -5.03115e-12
 -3.02167e-13 -3.59595e-05 9.807e-13
 1.42726e-12 -0.000133381 5.52926e-14
 3.4963e-13 -0.00013338 -2.50813e-12
 -7.30591e-14 -0.000133381 -2.46959e-12
 -1.01702e-12 -0.00013338 -8.01088e-13
 5.40396e-12 -0.000133381 -5.32917e-12
 5.29565e-13 -0.00013338 -1.17454e-12
 4.5765e-12 -0.00013338 -3.38541e-12
 -4.76509e-14 -0.00013338 1.24696e-12
 2.52707e-12 -0.00013338 2.19471e-12
 1.88775e-12 -0.00013338 -6.40797e-12
 2.29814e-12 -0.00013338 -4.68595e-12
 1.18994e-12 -0.00013338 2.44061e-12
 9.8396e-13 -0.000133381 -2.1387e-12
 2.01413e-12 -0.00013338 -3.07186e-12
 2.02101e-13 -0.00013338 -7.39197e-12
 3.5244e-12 -0.00013338 5.40788e-14
 -1.01817e-12 -0.000242924 2.76518e-13
 1.17906e-12 -0.000242921 -1.21984e-12
 -5.24001e-13 -0.000242923 -2.08748e-12
 2.50218e-12 -0.000242921 2.33903e-13
 4.84924e-12 -0.000242924 -9.61246e-14
 2.08407e-12 -0.000242922 -4.0257e-12
 3.4e-12 -0.000242922 -2.20838e-12
 3.73572e-13 -0.000242922 8.76968e-13
 5.84884e-12 -0.000242923 9.28832e-13
 3.1134e-12 -0.00024292 -2.98162e-12
 1.98492e-12 -0.000242922 -2.34064e-12
 3.37247e-13 -0.000242921 -1.39557e-13
 3.50212e-13 -0.000242925 -4.82404e-13
 -7.31874e-13 -0.000242922 -6.22187e-12
 1.57631e-12 -0.000242924 -5.44571e-12
 -1.3607e-12 -0.000242922 1.43384e-12
 1.33335e-12 -0.000164321 -1.92507e-13
 -1.25048e-12 -0.000164323 -3.55665e-12
 9.47214e-13 -0.000164322 -1.91732e-12
 -3.80703e-13 -0.000164323 -4.69206e-14
 3.02266e-12 -0.000164321 -2.48118e-12
 1.5556e-12 -0.000164323 -2.86424e-12
 5.43591e-13 -0.000164322 -3.21229e-12
 -1.9763e-13 -0.000164322 3.34384e-13
 3.01188e-12 -0.000164322 -3.137e-12
 1.30891e-12 -0.000164323 -1.09462e-12
 8.33829e-13 -0.000164323 -4.58171e-12
 -7.4958e-13 -0.000164323 -7.04682e-13
 7.5424e-13 -0.000164321 -8.19426e-13
 2.75813e-12 -0.000164322 -6.58286e-12
 4.7992e-13 -0.000164321 -6.22399e-12
 -6.4993e-14 -0.000164322 -1.19591e-12
 9.97951e-13 -1.47071e-05 -8.92512e-13
 3.73155e-13 -1.47076e-05 -4.58245e-13
 1.53244e-13 -1.47071e-05 -2.24256e-12
 -2.94529e-13 -1.47079e-05 1.57404e-12
 4.24772e-13 -1.4707e-05 -1.31308e-12
 1.06215e-12 -1.47074e-05 1.26699e-13
 8.51094e-13 -1.47072e-05 -1.93822e-12
 -1.30692e-12 -1.47072e-05 -8.90791e-13
 1.54168e-12 -1.47071e-05 -2.04996e-15
 1.3016e-12 -1.47077e-05 -4.20187e-12
 8.40107e-13 -1.47074e-05 -1.64549e-13
 -9.10797e-14 -1.47075e-05 2.11942e-13
 1.50836e-13 -1.47071e-05 -2.97363e-13
 -9.33316e-13 -1.47072e-05 -4.97207e-12
 -3.2512e-13 -1.47069e-05 -1.42607e-12
 6.89021e-13 -1.47072e-05 4.67607e-13
 8.04276e-13 -3.89066e-05 -1.9121e-13
 5.80112e-13 -3.89065e-05 1.07027e-12
 3.55925e-13 -3.89067e-05 -1.79099e-12
 -2.38021e-13 -3.89065e-05 1.74007e-12
 2.07712e-13 -3.89067e-05 2.07215e-13
 -2.10286e-13 -3.89065e-05 -1.99101e-12
 -8.95152e-13 -3.89066e-05 6.21985e-13
 1.38002e-13 -3.89067e-05 8.67614e-13
 2.05653e-13 -3.89067e-05 -6.29048e-13
 8.86449e-13 -3.89063e-05 -2.33357e-12
 3.30421e-13 -3.89066e-05 -4.53216e-13
 -8.15344e-13 -3.89065e-05 1.06168e-12
 9.95117e-14 -3.89066e-05 -1.00158e-12
 1.75935e-13 -3.89066e-05 -1.2661e-12
 -5.69477e-13 -3.89067e-05 -1.80426e-12
 -9.92755e-13 -3.89067e-05 1.43291e-12
 8.99166e-15 -1.14396e-05 -1.33133e-12
 -2.77328e-13 -1.14395e-05 1.47201e-12
 -5.14715e-13 -1.14396e-05 1.01678e-12
 -1.44604e-14 -1.14396e-05 -1.10497e-12
 -5.15289e-13 -1.14396e-05 -1.04093e-12
 2.39482e-13 -1.14397e-05 7.68757e-13
 -1.26524e-13 -1.14397e-05 1.22231e-12
 -3.67322e-13 -1.14396e-05 -2.20382e-13
 1.41324e-13 -1.14396e-05 -6.53297e-13
 -2.22147e-13 -1.14396e-05 -8.7803e-14
 -5.63732e-13 -1.14397e-05 1.2205e-12
 -6.49816e-13 -1.14395e-05 -5.42094e-13
 -3.43586e-13 -1.14396e-05 -1.53885e-13
 2.59101e-13 -1.14395e-05 6.67352e-13
 3.09486e-13 -1.14396e-05 1.49186e-12
 1.52968e-12 -1.14395e-05 -8.61679e-13
 1.36594e-12 0.000166479 -1.22184e-12
 6.12118e-13 0.000166479 9.48949e-13
 8.61103e-13 0.000166479 2.24191e-12
 4.50854e-13 0.000166479 -1.14664e-13
 -1.14729e-12 0.000166479 -1.26152e-13
 1.75296e-13 0.000166479 8.1935e-13
 -3.15294e-13 0.000166479 2.07383e-12
 4.35078e-13 0.000166479 3.56088e-13
 -6.48631e-14 0.000166479 -5.27375e-14
 6.17918e-14 0.000166479 1.01634e-12
 -8.05319e-14 0.000166479 1.57218e-12
 1.04474e-12 0.000166479 5.68976e-14
 3.11015e-13 0.000166479 6.17391e-13
 4.1535e-13 0.000166479 1.81757e-12
 2.85049e-13 0.000166479 1.99082e-12
 1.13031e-12 0.000166479 -1.91943e-13
 -1.50221e-12 -0.000199814 -7.54441e-13
 -1.70773e-12 -0.000199813 -2.05987e-13
 -2.37549e-12 -0.000199814 1.11482e-12
 1.25009e-13 -0.000199814 4.6222e-13
 -9.46754e-13 -0.000199814 -5.1328e-13
 -1.91219e-12 -0.000199814 5.02522e-13
 -1.71724e-13 -0.000199814 1.69715e-12
 -3.29228e-13 -0.000199814 1.66087e-14
 9.80901e-13 -0.000199814 -1.04999e-12
 9.35659e-13 -0.000199813 6.10789e-13
 -6.32335e-13 -0.000199814 1.66617e-12
 7.37889e-13 -0.000199813 -1.28675e-13
 2.20221e-13 -0.000199814 -4.41209e-13
 6.68841e-13 -0.000199814 3.92594e-13
 5.32543e-13 -0.000199814 1.45345e-12
 -1.01534e-12 -0.000199814 -1.314e-13
 -2.4466e-12 0.000152455 -1.61175e-12
 -4.86026e-13 0.000152455 -6.1449e-13
 -2.30255e-12 0.000152455 8.82691e-13
 -2.46591e-13 0.000152455 3.37757e-13
 -2.64193e-13 0.000152455 -1.42418e-12
 -3.29623e-13 0.000152455 -2.30689e-13
 4.65838e-13 0.000152455 1.37528e-12
 2.85963e-13 0.000152455 -1.89679e-13
 3.10478e-13 0.000152455 1.05437e-12
 -1.63314e-12 0.000152455 -1.23462e-13
 -7.01111e-13 0.000152455 -3.17371e-13
 1.61869e-13 0.000152455 -3.37581e-13
 2.76421e-13 0.000152455 -9.25837e-13
 -2.47679e-13 0.000152456 3.70842e-13
 6.37712e-13 0.000152456 8.26896e-13
 -5.92075e-13 0.000152455 5.17075e-13
 1.00632e-12 0.00123578 1.07029e-12
 1.09988e-12 0.00123578 1.75778e-13
 7.13169e-13 0.00123578 -3.29825e-13
 1.07892e-12 0.00123578 8.53849e-13
 3.35114e-12 0.00123578 4.44331e-13
 1.2305e-12 0.00123578 -2.27577e-13
 2.04043e-12 0.00123578 -1.15785e-12
 2.19322e-12 0.00123578 1.37301e-13
 3.02121e-12 0.00123578 8.84099e-13
 3.3614e-12 0.00123578 -3.1905e-13
 3.2217e-12 0.00123578 -8.90036e-13
 -4.24103e-13 0.00123578 1.68586e-13
 1.28979e-12 0.00123578 -1.76214e-12
 1.60395e-12 0.00123578 1.83308e-13
 1.81548e-12 0.00123578 5.23794e-14
 2.10541e-12 0.00123578 4.29466e-14
 8.49101e-20 -0.000243632 5.61697e-15
 0 -0.000243632 5.48381e-15
 1.27017e-19 -0.000243632 5.47951e-15
 0 -0.000243632 -7.05672e-21
 -7.47176e-16 -0.000243632 3.99283e-15
 -2.93336e-15 -0.000243632 4.21862e-15
 -3.15344e-15 -0.000243632 3.14561e-15
 -5.49915e-15 -0.000243632 -2.49165e-17
 -4.79583e-16 -0.000243632 3.24353e-15
 -3.19943e-15 -0.000243632 3.19529e-15
 -4.22422e-15 -0.000243632 2.89557e-15
 -5.50309e-15 -0.000243632 -2.35314e-18