<?xml version="1.0"?>
<!-- time 58.3018-->
<VTKFile type="UnstructuredGrid" version="0.1" byte_order="LittleEndian">
<UnstructuredGrid>
<Piece NumberOfPoints="960" NumberOfCells="0">
<Points>
  <DataArray type="Float32" Name="Position" NumberOfComponents="3" format="ascii">
	-300 2099.64 -300
	-300 2099.64 -100
	-300 2099.64 100
	-300 2099.64 300
	-100 2099.64 -300
	-100 2099.64 -100
	-100 2099.64 100
	-100 2099.64 300
	100 2099.64 -300
	100 2099.64 -100
	100 2099.64 100
	100 2099.64 300
	300 2099.64 -300
	300 2099.64 -100
	300 2099.64 100
	300 2099.64 300
	-300 2299.68 -300
	-300 2299.68 -100
	-300 2299.68 100
	-300 2299.68 300
	-100 2299.68 -300
	-100 2299.68 -100
	-100 2299.68 100
	-100 2299.68 300
	100 2299.68 -300
	100 2299.68 -100
	100 2299.68 100
	100 2299.68 300
	300 2299.68 -300
	300 2299.68 -100
	300 2299.68 100
	300 2299.68 300
	-300 2499.68 -300
	-300 2499.68 -100
	-300 2499.68 100
	-300 2499.68 300
	-100 2499.68 -300
	-100 2499.68 -100
	-100 2499.68 100
	-100 2499.68 300
	100 2499.68 -300
	100 2499.68 -100
	100 2499.68 100
	100 2499.68 300
	300 2499.68 -300
	300 2499.68 -100
	300 2499.68 100
	300 2499.68 300
	-300 2699.68 -300
	-300 2699.68 -100
	-300 2699.68 100
	-300 2699.68 300
	-100 2699.68 -300
	-100 2699.68 -100
	-100 2699.68 100
	-100 2699.68 300
	100 2699.68 -300
	100 2699.68 -100
	100 2699.68 100
	100 2699.68 300
	300 2699.68 -300
	300 2699.68 -100
	300 2699.68 100
	300 2699.68 300
	-300 2899.68 -300
	-300 2899.68 -100
	-300 2899.68 100
	-300 2899.68 300
	-100 2899.68 -300
	-100 2899.68 -100
	-100 2899.68 100
	-100 2899.68 300
	100 2899.68 -300
	100 2899.68 -100
	100 2899.68 100
	100 2899.68 300
	300 2899.68 -300
	300 2899.68 -100
	300 2899.68 100
	300 2899.68 300
	-300 3099.68 -300
	-300 3099.68 -100
	-300 3099.68 100
	-300 3099.68 300
	-100 3099.68 -300
	-100 3099.68 -100
	-100 3099.68 100
	-100 3099.68 300
	100 3099.68 -300
	100 3099.68 -100
	100 3099.68 100
	100 3099.68 300
	300 3099.68 -300
	300 3099.68 -100
	300 3099.68 100
	300 3099.68 300
	-300 3299.68 -300
	-300 3299.68 -100
	-300 3299.68 100
	-300 3299.68 300
	-100 3299.68 -300
	-100 3299.68 -100
	-100 3299.68 100
	-100 3299.68 300
	100 3299.68 -300
	100 3299.68 -100
	100 3299.68 100
	100 3299.68 300
	300 3299.68 -300
	300 3299.68 -100
	300 3299.68 100
	300 3299.68 300
	-300 3499.68 -300
	-300 3499.68 -100
	-300 3499.68 100
	-300 3499.68 300
	-100 3499.68 -300
	-100 3499.68 -100
	-100 3499.68 100
	-100 3499.68 300
	100 3499.68 -300
	100 3499.68 -100
	100 3499.68 100
	100 3499.68 300
	300 3499.68 -300
	300 3499.68 -100
	300 3499.68 100
	300 3499.68 300
	-300 3699.68 -300
	-300 3699.68 -100
	-300 3699.68 100
	-300 3699.68 300
	-100 3699.68 -300
	-100 3699.68 -100
	-100 3699.68 100
	-100 3699.68 300
	100 3699.68 -300
	100 3699.68 -100
	100 3699.68 100
	100 3699.68 300
	300 3699.68 -300
	300 3699.68 -100
	300 3699.68 100
	300 3699.68 300
	-300 3899.68 -300
	-300 3899.68 -100
	-300 3899.68 100
	-300 3899.68 300
	-100 3899.68 -300
	-100 3899.68 -100
	-100 3899.68 100
	-100 3899.68 300
	100 3899.68 -300
	100 3899.68 -100
	100 3899.68 100
	100 3899.68 300
	300 3899.68 -300
	300 3899.68 -100
	300 3899.68 100
	300 3899.68 300
	-300 4099.67 -300
	-300 4099.67 -100
	-300 4099.67 100
	-300 4099.67 300
	-100 4099.67 -300
	-100 4099.67 -100
	-100 4099.67 100
	-100 4099.67 300
	100 4099.67 -300
	100 4099.67 -100
	100 4099.67 100
	100 4099.67 300
	300 4099.67 -300
	300 4099.67 -100
	300 4099.67 100
	300 4099.67 300
	-300 4299.67 -300
	-300 4299.67 -100
	-300 4299.67 100
	-300 4299.67 300
	-100 4299.67 -300
	-100 4299.67 -100
	-100 4299.67 100
	-100 4299.67 300
	100 4299.67 -300
	100 4299.67 -100
	100 4299.67 100
	100 4299.67 300
	300 4299.67 -300
	300 4299.67 -100
	300 4299.67 100
	300 4299.67 300
	-300 4499.68 -300
	-300 4499.68 -100
	-300 4499.68 100
	-300 4499.68 300
	-100 4499.68 -300
	-100 4499.68 -100
	-100 4499.68 100
	-100 4499.68 300
	100 4499.68 -300
	100 4499.68 -100
	100 4499.68 100
	100 4499.68 300
	300 4499.68 -300
	300 4499.68 -100
	300 4499.68 100
	300 4499.68 300
	-300 4699.68 -300
	-300 4699.68 -100
	-300 4699.68 100
	-300 4699.68 300
	-100 4699.68 -300
	-100 4699.68 -100
	-100 4699.68 100
	-100 4699.68 300
	100 4699.68 -300
	100 4699.68 -100
	100 4699.68 100
	100 4699.68 300
	300 4699.68 -300
	300 4699.68 -100
	300 4699.68 100
	300 4699.68 300
	-300 4899.68 -300
	-300 4899.68 -100
	-300 4899.68 100
	-300 4899.68 300
	-100 4899.68 -300
	-100 4899.68 -100
	-100 4899.68 100
	-100 4899.68 300
	100 4899.68 -300
	100 4899.68 -100
	100 4899.68 100
	100 4899.68 300
	300 4899.68 -300
	300 4899.68 -100
	300 4899.68 100
	300 4899.68 300
	-300 5099.69 -300
	-300 5099.69 -100
	-300 5099.69 100
	-300 5099.69 300
	-100 5099.69 -300
	-100 5099.69 -100
	-100 5099.69 100
	-100 5099.69 300
	100 5099.69 -300
	100 5099.69 -100
	100 5099.69 100
	100 5099.69 300
	300 5099.69 -300
	300 5099.69 -100
	300 5099.69 100
	300 5099.69 300
	-300 5299.69 -300
	-300 5299.69 -100
	-300 5299.69 100
	-300 5299.69 300
	-100 5299.69 -300
	-100 5299.69 -100
	-100 5299.69 100
	-100 5299.69 300
	100 5299.69 -300
	100 5299.69 -100
	100 5299.69 100
	100 5299.69 300
	300 5299.69 -300
	300 5299.69 -100
	300 5299.69 100
	300 5299.69 300
	-300 5499.69 -300
	-300 5499.69 -100
	-300 5499.69 100
	-300 5499.69 300
	-100 5499.69 -300
	-100 5499.69 -100
	-100 5499.69 100
	-100 5499.69 300
	100 5499.69 -300
	100 5499.69 -100
	100 5499.69 100
	100 5499.69 300
	300 5499.69 -300
	300 5499.69 -100
	300 5499.69 100
	300 5499.69 300
	-300 5699.69 -300
	-300 5699.69 -100
	-300 5699.69 100
	-300 5699.69 300
	-100 5699.69 -300
	-100 5699.69 -100
	-100 5699.69 100
	-100 5699.69 300
	100 5699.69 -300
	100 5699.69 -100
	100 5699.69 100
	100 5699.69 300
	300 5699.69 -300
	300 5699.69 -100
	300 5699.69 100
	300 5699.69 300
	-300 5899.7 -300
	-300 5899.7 -100
	-300 5899.7 100
	-300 5899.7 300
	-100 5899.7 -300
	-100 5899.7 -100
	-100 5899.7 100
	-100 5899.7 300
	100 5899.7 -300
	100 5899.7 -100
	100 5899.7 100
	100 5899.7 300
	300 5899.7 -300
	300 5899.7 -100
	300 5899.7 100
	300 5899.7 300
	-300 6099.73 -300
	-300 6099.73 -100
	-300 6099.73 100
	-300 6099.73 300
	-100 6099.73 -300
	-100 6099.73 -100
	-100 6099.73 100
	-100 6099.73 300
	100 6099.73 -300
	100 6099.73 -100
	100 6099.73 100
	100 6099.73 300
	300 6099.73 -300
	300 6099.73 -100
	300 6099.73 100
	300 6099.73 300
	-300 6299.74 -300
	-300 6299.74 -100
	-300 6299.74 100
	-300 6299.74 300
	-100 6299.74 -300
	-100 6299.74 -100
	-100 6299.74 100
	-100 6299.74 300
	100 6299.74 -300
	100 6299.74 -100
	100 6299.74 100
	100 6299.74 300
	300 6299.74 -300
	300 6299.74 -100
	300 6299.74 100
	300 6299.74 300
	-300 6499.76 -300
	-300 6499.76 -100
	-300 6499.76 100
	-300 6499.76 300
	-100 6499.76 -300
	-100 6499.76 -100
	-100 6499.76 100
	-100 6499.76 300
	100 6499.76 -300
	100 6499.76 -100
	100 6499.76 100
	100 6499.76 300
	300 6499.76 -300
	300 6499.76 -100
	300 6499.76 100
	300 6499.76 300
	-300 6699.77 -300
	-300 6699.77 -100
	-300 6699.77 100
	-300 6699.77 300
	-100 6699.77 -300
	-100 6699.77 -100
	-100 6699.77 100
	-100 6699.77 300
	100 6699.77 -300
	100 6699.77 -100
	100 6699.77 100
	100 6699.77 300
	300 6699.77 -300
	300 6699.77 -100
	300 6699.77 100
	300 6699.77 300
	-300 6899.79 -300
	-300 6899.79 -100
	-300 6899.79 100
	-300 6899.79 300
	-100 6899.79 -300
	-100 6899.79 -100
	-100 6899.79 100
	-100 6899.79 300
	100 6899.79 -300
	100 6899.79 -100
	100 6899.79 100
	100 6899.79 300
	300 6899.79 -300
	300 6899.79 -100
	300 6899.79 100
	300 6899.79 300
	-300 7099.8 -300
	-300 7099.8 -100
	-300 7099.8 100
	-300 7099.8 300
	-100 7099.8 -300
	-100 7099.8 -100
	-100 7099.8 100
	-100 7099.8 300
	100 7099.8 -300
	100 7099.8 -100
	100 7099.8 100
	100 7099.8 300
	300 7099.8 -300
	300 7099.8 -100
	300 7099.8 100
	300 7099.8 300
	-300 7299.8 -300
	-300 7299.8 -100
	-300 7299.8 100
	-300 7299.8 300
	-100 7299.8 -300
	-100 7299.8 -100
	-100 7299.8 100
	-100 7299.8 300
	100 7299.8 -300
	100 7299.8 -100
	100 7299.8 100
	100 7299.8 300
	300 7299.8 -300
	300 7299.8 -100
	300 7299.8 100
	300 7299.8 300
	-300 7499.8 -300
	-300 7499.8 -100
	-300 7499.8 100
	-300 7499.8 300
	-100 7499.8 -300
	-100 7499.8 -100
	-100 7499.8 100
	-100 7499.8 300
	100 7499.8 -300
	100 7499.8 -100
	100 7499.8 100
	100 7499.8 300
	300 7499.8 -300
	300 7499.8 -100
	300 7499.8 100
	300 7499.8 300
	-300 7699.81 -300
	-300 7699.81 -100
	-300 7699.81 100
	-300 7699.81 300
	-100 7699.81 -300
	-100 7699.81 -100
	-100 7699.81 100
	-100 7699.81 300
	100 7699.81 -300
	100 7699.81 -100
	100 7699.81 100
	100 7699.81 300
	300 7699.81 -300
	300 7699.81 -100
	300 7699.81 100
	300 7699.81 300
	-300 7899.81 -300
	-300 7899.81 -100
	-300 7899.81 100
	-300 7899.81 300
	-100 7899.81 -300
	-100 7899.81 -100
	-100 7899.81 100
	-100 7899.81 300
	100 7899.81 -300
	100 7899.81 -100
	100 7899.81 100
	100 7899.81 300
	300 7899.81 -300
	300 7899.81 -100
	300 7899.81 100
	300 7899.81 300
	-300 8099.82 -300
	-300 8099.82 -100
	-300 8099.82 100
	-300 8099.82 300
	-100 8099.82 -300
	-100 8099.82 -100
	-100 8099.82 100
	-100 8099.82 300
	100 8099.82 -300
	100 8099.82 -100
	100 8099.82 100
	100 8099.82 300
	300 8099.82 -300
	300 8099.82 -100
	300 8099.82 100
	300 8099.82 300
	-300 8299.81 -300
	-300 8299.81 -100
	-300 8299.81 100
	-300 8299.81 300
	-100 8299.81 -300
	-100 8299.81 -100
	-100 8299.81 100
	-100 8299.81 300
	100 8299.81 -300
	100 8299.81 -100
	100 8299.81 100
	100 8299.81 300
	300 8299.81 -300
	300 8299.81 -100
	300 8299.81 100
	300 8299.81 300
	-300 8499.82 -300
	-300 8499.82 -100
	-300 8499.82 100
	-300 8499.82 300
	-100 8499.82 -300
	-100 8499.82 -100
	-100 8499.82 100
	-100 8499.82 300
	100 8499.82 -300
	100 8499.82 -100
	100 8499.82 100
	100 8499.82 300
	300 8499.82 -300
	300 8499.82 -100
	300 8499.82 100
	300 8499.82 300
	-300 8699.82 -300
	-300 8699.82 -100
	-300 8699.82 100
	-300 8699.82 300
	-100 8699.82 -300
	-100 8699.82 -100
	-100 8699.82 100
	-100 8699.82 300
	100 8699.82 -300
	100 8699.82 -100
	100 8699.82 100
	100 8699.82 300
	300 8699.82 -300
	300 8699.82 -100
	300 8699.82 100
	300 8699.82 300
	-300 8899.83 -300
	-300 8899.83 -100
	-300 8899.83 100
	-300 8899.83 300
	-100 8899.83 -300
	-100 8899.83 -100
	-100 8899.83 100
	-100 8899.83 300
	100 8899.83 -300
	100 8899.83 -100
	100 8899.83 100
	100 8899.83 300
	300 8899.83 -300
	300 8899.83 -100
	300 8899.83 100
	300 8899.83 300
	-300 9099.83 -300
	-300 9099.83 -100
	-300 9099.83 100
	-300 9099.83 300
	-100 9099.83 -300
	-100 9099.83 -100
	-100 9099.83 100
	-100 9099.83 300
	100 9099.83 -300
	100 9099.83 -100
	100 9099.83 100
	100 9099.83 300
	300 9099.83 -300
	300 9099.83 -100
	300 9099.83 100
	300 9099.83 300
	-300 9299.84 -300
	-300 9299.84 -100
	-300 9299.84 100
	-300 9299.84 300
	-100 9299.84 -300
	-100 9299.84 -100
	-100 9299.84 100
	-100 9299.84 300
	100 9299.84 -300
	100 9299.84 -100
	100 9299.84 100
	100 9299.84 300
	300 9299.84 -300
	300 9299.84 -100
	300 9299.84 100
	300 9299.84 300
	-300 9499.84 -300
	-300 9499.84 -100
	-300 9499.84 100
	-300 9499.84 300
	-100 9499.84 -300
	-100 9499.84 -100
	-100 9499.84 100
	-100 9499.84 300
	100 9499.84 -300
	100 9499.84 -100
	100 9499.84 100
	100 9499.84 300
	300 9499.84 -300
	300 9499.84 -100
	300 9499.84 100
	300 9499.84 300
	-300 9699.85 -300
	-300 9699.85 -100
	-300 9699.85 100
	-300 9699.85 300
	-100 9699.85 -300
	-100 9699.85 -100
	-100 9699.85 100
	-100 9699.85 300
	100 9699.85 -300
	100 9699.85 -100
	100 9699.85 100
	100 9699.85 300
	300 9699.85 -300
	300 9699.85 -100
	300 9699.85 100
	300 9699.85 300
	-300 9899.86 -300
	-300 9899.86 -100
	-300 9899.86 100
	-300 9899.86 300
	-100 9899.86 -300
	-100 9899.86 -100
	-100 9899.86 100
	-100 9899.86 300
	100 9899.86 -300
	100 9899.86 -100
	100 9899.86 100
	100 9899.86 300
	300 9899.86 -300
	300 9899.86 -100
	300 9899.86 100
	300 9899.86 300
	-300 10099.9 -300
	-300 10099.9 -100
	-300 10099.9 100
	-300 10099.9 300
	-100 10099.9 -300
	-100 10099.9 -100
	-100 10099.9 100
	-100 10099.9 300
	100 10099.9 -300
	100 10099.9 -100
	100 10099.9 100
	100 10099.9 300
	300 10099.9 -300
	300 10099.9 -100
	300 10099.9 100
	300 10099.9 300
	-300 10299.9 -300
	-300 10299.9 -100
	-300 10299.9 100
	-300 10299.9 300
	-100 10299.9 -300
	-100 10299.9 -100
	-100 10299.9 100
	-100 10299.9 300
	100 10299.9 -300
	100 10299.9 -100
	100 10299.9 100
	100 10299.9 300
	300 10299.9 -300
	300 10299.9 -100
	300 10299.9 100
	300 10299.9 300
	-300 10499.9 -300
	-300 10499.9 -100
	-300 10499.9 100
	-300 10499.9 300
	-100 10499.9 -300
	-100 10499.9 -100
	-100 10499.9 100
	-100 10499.9 300
	100 10499.9 -300
	100 10499.9 -100
	100 10499.9 100
	100 10499.9 300
	300 10499.9 -300
	300 10499.9 -100
	300 10499.9 100
	300 10499.9 300
	-300 10699.9 -300
	-300 10699.9 -100
	-300 10699.9 100
	-300 10699.9 300
	-100 10699.9 -300
	-100 10699.9 -100
	-100 10699.9 100
	-100 10699.9 300
	100 10699.9 -300
	100 10699.9 -100
	100 10699.9 100
	100 10699.9 300
	300 10699.9 -300
	300 10699.9 -100
	300 10699.9 100
	300 10699.9 300
	-300 10899.9 -300
	-300 10899.9 -100
	-300 10899.9 100
	-300 10899.9 300
	-100 10899.9 -300
	-100 10899.9 -100
	-100 10899.9 100
	-100 10899.9 300
	100 10899.9 -300
	100 10899.9 -100
	100 10899.9 100
	100 10899.9 300
	300 10899.9 -300
	300 10899.9 -100
	300 10899.9 100
	300 10899.9 300
	-300 11099.9 -300
	-300 11099.9 -100
	-300 11099.9 100
	-300 11099.9 300
	-100 11099.9 -300
	-100 11099.9 -100
	-100 11099.9 100
	-100 11099.9 300
	100 11099.9 -300
	100 11099.9 -100
	100 11099.9 100
	100 11099.9 300
	300 11099.9 -300
	300 11099.9 -100
	300 11099.9 100
	300 11099.9 300
	-300 11299.9 -300
	-300 11299.9 -100
	-300 11299.9 100
	-300 11299.9 300
	-100 11299.9 -300
	-100 11299.9 -100
	-100 11299.9 100
	-100 11299.9 300
	100 11299.9 -300
	100 11299.9 -100
	100 11299.9 100
	100 11299.9 300
	300 11299.9 -300
	300 11299.9 -100
	300 11299.9 100
	300 11299.9 300
	-300 11499.9 -300
	-300 11499.9 -100
	-300 11499.9 100
	-300 11499.9 300
	-100 11499.9 -300
	-100 11499.9 -100
	-100 11499.9 100
	-100 11499.9 300
	100 11499.9 -300
	100 11499.9 -100
	100 11499.9 100
	100 11499.9 300
	300 11499.9 -300
	300 11499.9 -100
	300 11499.9 100
	300 11499.9 300
	-300 11700 -300
	-300 11700 -100
	-300 11700 100
	-300 11700 300
	-100 11700 -300
	-100 11700 -100
	-100 11700 100
	-100 11700 300
	100 11700 -300
	100 11700 -100
	100 11700 100
	100 11700 300
	300 11700 -300
	300 11700 -100
	300 11700 100
	300 11700 300
	-300 11900 -300
	-300 11900 -100
	-300 11900 100
	-300 11900 300
	-100 11900 -300
	-100 11900 -100
	-100 11900 100
	-100 11900 300
	100 11900 -300
	100 11900 -100
	100 11900 100
	100 11900 300
	300 11900 -300
	300 11900 -100
	300 11900 100
	300 11900 300
	-300 12100 -300
	-300 12100 -100
	-300 12100 100
	-300 12100 300
	-100 12100 -300
	-100 12100 -100
	-100 12100 100
	-100 12100 300
	100 12100 -300
	100 12100 -100
	100 12100 100
	100 12100 300
	300 12100 -300
	300 12100 -100
	300 12100 100
	300 12100 300
	-300 12300 -300
	-300 12300 -100
	-300 12300 100
	-300 12300 300
	-100 12300 -300
	-100 12300 -100
	-100 12300 100
	-100 12300 300
	100 12300 -300
	100 12300 -100
	100 12300 100
	100 12300 300
	300 12300 -300
	300 12300 -100
	300 12300 100
	300 12300 300
	-300 12500 -300
	-300 12500 -100
	-300 12500 100
	-300 12500 300
	-100 12500 -300
	-100 12500 -100
	-100 12500 100
	-100 12500 300
	100 12500 -300
	100 12500 -100
	100 12500 100
	100 12500 300
	300 12500 -300
	300 12500 -100
	300 12500 100
	300 12500 300
	-300 12700.1 -300
	-300 12700.1 -100
	-300 12700.1 100
	-300 12700.1 300
	-100 12700.1 -300
	-100 12700.1 -100
	-100 12700.1 100
	-100 12700.1 300
	100 12700.1 -300
	100 12700.1 -100
	100 12700.1 100
	100 12700.1 300
	300 12700.1 -300
	300 12700.1 -100
	300 12700.1 100
	300 12700.1 300
	-300 12900.1 -300
	-300 12900.1 -100
	-300 12900.1 100
	-300 12900.1 300
	-100 12900.1 -300
	-100 12900.1 -100
	-100 12900.1 100
	-100 12900.1 300
	100 12900.1 -300
	100 12900.1 -100
	100 12900.1 100
	100 12900.1 300
	300 12900.1 -300
	300 12900.1 -100
	300 12900.1 100
	300 12900.1 300
	-300 13100.2 -300
	-300 13100.2 -100
	-300 13100.2 100
	-300 13100.2 300
	-100 13100.2 -300
	-100 13100.2 -100
	-100 13100.2 100
	-100 13100.2 300
	100 13100.2 -300
	100 13100.2 -100
	100 13100.2 100
	100 13100.2 300
	300 13100.2 -300
	300 13100.2 -100
	300 13100.2 100
	300 13100.2 300
	-300 13300.3 -300
	-300 13300.3 -100
	-300 13300.3 100
	-300 13300.3 300
	-100 13300.3 -300
	-100 13300.3 -100
	-100 13300.3 100
	-100 13300.3 300
	100 13300.3 -300
	100 13300.3 -100
	100 13300.3 100
	100 13300.3 300
	300 13300.3 -300
	300 13300.3 -100
	300 13300.3 100
	300 13300.3 300
	-300 13500.4 -300
	-300 13500.4 -100
	-300 13500.4 100
	-300 13500.4 300
	-100 13500.4 -300
	-100 13500.4 -100
	-100 13500.4 100
	-100 13500.4 300
	100 13500.4 -300
	100 13500.4 -100
	100 13500.4 100
	100 13500.4 300
	300 13500.4 -300
	300 13500.4 -100
	300 13500.4 100
	300 13500.4 300
	-300 13700.7 -300
	-300 13700.7 -100
	-300 13700.7 100
	-300 13700.7 300
	-100 13700.7 -300
	-100 13700.7 -100
	-100 13700.7 100
	-100 13700.7 300
	100 13700.7 -300
	100 13700.7 -100
	100 13700.7 100
	100 13700.7 300
	300 13700.7 -300
	300 13700.7 -100
	300 13700.7 100
	300 13700.7 300
	-300 13901.3 -300
	-300 13901.3 -100
	-300 13901.3 100
	-300 13901.3 300
	-100 13901.3 -300
	-100 13901.3 -100
	-100 13901.3 100
	-100 13901.3 300
	100 13901.3 -300
	100 13901.3 -100
	100 13901.3 100
	100 13901.3 300
	300 13901.3 -300
	300 13901.3 -100
	300 13901.3 100
	300 13901.3 300
  </DataArray>
</Points>
<PointData  Vectors="vector">
  <DataArray type="Float32" Name="Velocity" NumberOfComponents="3" format="ascii">
 2.21052e-13 -0.000693489 7.33324e-13
 -6.86461e-12 -0.000693489 -9.47676e-12
 -5.44189e-12 -0.000693489 -8.7045e-12
 -1.30522e-12 -0.000693489 -4.98577e-13
 -4.4249e-14 -0.000693489 -6.71957e-12
 -3.60723e-12 -0.000693489 -7.35788e-12
 5.08701e-12 -0.000693489 -1.0541e-11
 -2.14682e-12 -0.000693489 -2.59484e-12
 -3.09662e-12 -0.000693489 1.49671e-12
 -2.01601e-12 -0.000693489 -8.01183e-12
 -2.83334e-12 -0.000693489 -1.02744e-11
 -6.872e-12 -0.000693489 4.56369e-13
 -1.76398e-12 -0.000693489 -5.24328e-12
 7.59987e-13 -0.000693489 -4.46419e-12
 2.40553e-12 -0.000693489 -1.27703e-11
 4.39421e-12 -0.000693489 3.47814e-12
 3.51265e-12 -0.00139561 2.30751e-13
 1.25233e-12 -0.00139561 -7.49542e-12
 3.80797e-12 -0.00139561 -9.2142e-12
 4.00851e-12 -0.00139561 2.07782e-12
 1.12822e-12 -0.00139562 1.4234e-12
 5.40661e-12 -0.00139561 -1.21089e-11
 5.79549e-12 -0.00139561 -1.07271e-11
 6.2473e-12 -0.00139561 2.48673e-12
 5.05805e-12 -0.00139562 -5.689e-12
 1.56938e-12 -0.00139561 1.2774e-12
 6.79844e-12 -0.00139561 -8.84615e-12
 5.86651e-12 -0.00139561 4.98278e-12
 4.50188e-12 -0.00139561 3.52095e-12
 7.87807e-13 -0.00139561 -1.04606e-11
 3.3252e-12 -0.00139561 -5.70766e-12
 3.46543e-12 -0.00139561 4.04941e-12
 1.99153e-12 -0.00180967 -1.62043e-12
 -1.09497e-12 -0.00180967 -1.11311e-11
 1.5723e-12 -0.00180967 -6.69764e-12
 5.05822e-13 -0.00180967 2.3429e-13
 4.79784e-12 -0.00180967 -1.11393e-12
 2.83649e-13 -0.00180967 -1.14509e-11
 1.04134e-12 -0.00180967 -7.86761e-12
 2.7598e-12 -0.00180967 -2.06315e-12
 -2.44154e-12 -0.00180967 -1.51118e-12
 2.56077e-12 -0.00180967 -1.35393e-11
 1.19092e-12 -0.00180967 -7.21369e-12
 2.3478e-12 -0.00180967 1.7755e-12
 4.10921e-12 -0.00180967 -4.55295e-12
 2.22613e-12 -0.00180967 -1.93955e-12
 2.17121e-12 -0.00180967 -9.13165e-12
 -1.64411e-13 -0.00180967 -5.99493e-12
 -6.88479e-13 -0.00126664 1.616e-12
 -1.96398e-12 -0.00126664 -2.36664e-12
 -2.24041e-12 -0.00126664 -5.96047e-12
 2.34199e-12 -0.00126664 4.48068e-14
 6.48851e-12 -0.00126664 9.26677e-13
 4.66239e-12 -0.00126664 -7.12355e-12
 5.18252e-12 -0.00126664 -4.37088e-12
 6.25243e-12 -0.00126664 1.46261e-12
 4.20353e-12 -0.00126664 -1.43052e-12
 1.06365e-11 -0.00126664 -1.34799e-12
 1.18728e-11 -0.00126664 -5.17299e-12
 6.24061e-12 -0.00126664 5.68647e-13
 1.72126e-12 -0.00126664 1.07465e-12
 -2.66711e-12 -0.00126664 -5.74328e-12
 -2.55304e-12 -0.00126664 -2.61364e-12
 -1.24403e-12 -0.00126664 2.79284e-12
 -1.94679e-13 -0.000785591 -4.62773e-13
 1.89052e-12 -0.000785591 -1.17186e-12
 2.64484e-12 -0.000785591 -1.39101e-12
 -1.89469e-12 -0.000785591 -1.07204e-12
 4.53882e-12 -0.000785591 -5.22819e-14
 5.08409e-12 -0.000785591 -5.81737e-12
 3.87987e-12 -0.000785591 -1.25095e-12
 7.99351e-12 -0.000785591 2.05121e-12
 7.00557e-12 -0.000785591 9.36056e-13
 4.30488e-12 -0.000785591 -6.12244e-12
 3.89277e-12 -0.000785591 -2.56047e-12
 4.75085e-12 -0.000785591 5.98144e-13
 -1.65431e-13 -0.000785591 -1.11852e-12
 8.64206e-13 -0.000785591 -4.77754e-12
 -6.2637e-13 -0.000785591 2.03106e-13
 8.37275e-13 -0.000785591 2.41068e-12
 -4.72889e-13 -0.000727529 -1.33107e-12
 1.06538e-12 -0.000727528 -9.03558e-13
 -2.15225e-12 -0.000727528 -1.71602e-12
 -2.98416e-12 -0.000727528 1.19665e-12
 -2.40578e-12 -0.000727528 2.33045e-13
 -1.72162e-12 -0.000727528 -7.0347e-13
 -5.66204e-13 -0.000727528 -1.02894e-12
 3.31967e-12 -0.000727529 -9.98885e-13
 -2.12561e-12 -0.000727528 -1.80055e-12
 -1.34249e-13 -0.000727528 5.40629e-13
 9.20778e-13 -0.000727528 -4.22258e-12
 3.33544e-12 -0.000727528 3.34519e-12
 1.37897e-12 -0.000727529 2.96444e-12
 1.9483e-14 -0.000727529 2.61282e-12
 1.2543e-12 -0.000727528 8.03099e-13
 -5.82635e-14 -0.000727528 -1.89712e-12
 -1.97966e-13 -0.000702057 -2.00937e-13
 -1.37683e-12 -0.000702057 -9.7976e-13
 -2.53349e-12 -0.000702057 -5.68322e-13
 3.6722e-13 -0.000702057 -1.61174e-12
 -4.48824e-12 -0.000702056 -2.05836e-12
 -1.98672e-12 -0.000702057 -2.05559e-13
 1.26193e-13 -0.000702057 3.0791e-13
 -7.75099e-13 -0.000702057 3.67057e-13
 -3.52189e-12 -0.000702056 -2.09844e-12
 -1.44581e-12 -0.000702057 4.84345e-13
 -1.13805e-12 -0.000702056 -7.56432e-13
 1.00361e-12 -0.000702057 2.21971e-12
 -6.08641e-13 -0.000702056 1.80757e-12
 -3.96345e-13 -0.000702057 2.4182e-12
 -2.28724e-13 -0.000702057 2.10592e-12
 5.86592e-14 -0.000702057 -3.4876e-13
 -2.57166e-13 -0.00124561 -9.1845e-14
 -2.01261e-12 -0.00124561 -4.61353e-13
 1.37554e-13 -0.00124561 -1.02161e-12
 -2.94684e-13 -0.00124561 4.62742e-13
 -3.90309e-12 -0.00124561 3.46168e-13
 -1.58295e-12 -0.00124561 -9.057e-14
 -1.60533e-12 -0.00124561 -3.27339e-13
 -6.12686e-13 -0.00124561 3.96491e-13
 -3.21969e-12 -0.00124561 2.49916e-13
 5.55558e-13 -0.00124561 5.75009e-13
 -1.396e-12 -0.00124561 1.6784e-13
 -1.34714e-12 -0.00124561 6.80995e-13
 -5.75753e-13 -0.00124561 -8.57041e-13
 -1.59108e-12 -0.00124561 1.54285e-12
 -5.05784e-13 -0.00124561 3.2837e-12
 -2.78068e-13 -0.00124561 5.6795e-13
 -1.47525e-12 -0.0010997 -5.5023e-14
 -2.98417e-13 -0.0010997 -9.75737e-13
 4.0505e-13 -0.0010997 -1.15403e-12
 -2.39211e-13 -0.0010997 -3.70865e-13
 -2.88913e-12 -0.0010997 6.12955e-14
 -2.46603e-12 -0.0010997 -1.09874e-12
 -1.86933e-12 -0.0010997 -7.44001e-13
 -3.86909e-12 -0.0010997 -3.36452e-13
 -3.78014e-12 -0.0010997 8.08784e-13
 -2.12179e-12 -0.0010997 -1.57378e-13
 -1.72397e-12 -0.0010997 -4.52992e-13
 -1.87298e-12 -0.0010997 -2.46909e-13
 -3.06037e-13 -0.0010997 -1.52755e-12
 -1.78488e-12 -0.0010997 1.56523e-12
 -1.47112e-12 -0.0010997 -3.88733e-13
 4.13482e-13 -0.0010997 9.12167e-13
 -3.05006e-13 2.99596e-05 -6.1473e-13
 -3.72968e-12 2.99596e-05 -3.08698e-12
 -4.47035e-12 2.99596e-05 -4.09947e-12
 -3.10456e-13 2.99596e-05 9.11059e-13
 -2.14914e-12 2.99594e-05 -1.31821e-12
 -2.32499e-12 2.99595e-05 -3.16242e-12
 -2.01573e-12 2.99595e-05 -3.59836e-12
 -3.195e-12 2.99596e-05 2.54946e-13
 -2.22457e-12 2.99595e-05 -6.73416e-15
 6.02261e-13 2.99595e-05 -4.46499e-12
 4.17225e-13 2.99595e-05 -4.5632e-12
 -4.07248e-12 2.99596e-05 8.3775e-13
 -1.01529e-12 2.99594e-05 -1.20098e-12
 -1.63663e-13 2.99595e-05 -5.24006e-12
 4.20347e-14 2.99595e-05 -3.82158e-12
 -1.18124e-12 2.99596e-05 4.42986e-13
 2.85339e-13 -0.000955006 1.26323e-13
 8.02542e-14 -0.000955006 -3.7e-12
 -2.64309e-12 -0.000955006 -3.65337e-12
 -6.8186e-13 -0.000955006 6.92884e-13
 -2.12807e-12 -0.000955006 -1.15799e-12
 -1.6992e-12 -0.000955006 -3.29072e-12
 -2.11387e-12 -0.000955006 -4.12633e-12
 -2.9623e-12 -0.000955006 3.79061e-13
 -1.46072e-12 -0.000955006 -4.9105e-13
 -1.57854e-12 -0.000955006 -5.24604e-12
 -5.02322e-13 -0.000955006 -3.77266e-12
 -3.56088e-12 -0.000955006 -2.30851e-13
 9.6734e-13 -0.000955006 -1.66651e-12
 -2.97881e-13 -0.000955006 -5.92762e-12
 1.5854e-13 -0.000955006 -4.60648e-12
 -9.68864e-13 -0.000955006 -5.15168e-14
 -2.18788e-12 0.000348142 -1.60005e-12
 -4.30144e-13 0.000348142 -2.85449e-12
 -1.44455e-12 0.000348142 -1.95413e-12
 -2.42201e-12 0.000348142 1.49019e-13
 3.52838e-13 0.000348143 -1.11044e-12
 -1.76197e-12 0.000348142 -2.14958e-12
 -1.52249e-12 0.000348142 -2.55739e-12
 -2.84115e-12 0.000348142 -1.19349e-12
 -1.23348e-12 0.000348143 -1.05424e-12
 -1.98176e-12 0.000348142 -2.75599e-12
 -2.65142e-12 0.000348142 -3.21776e-12
 -1.52237e-12 0.000348142 -1.32236e-12
 2.0812e-13 0.000348142 -1.70058e-12
 -6.01662e-13 0.000348142 -3.66585e-12
 -5.44485e-13 0.000348142 -3.19636e-12
 -1.95935e-13 0.000348142 -1.71708e-12
 3.18516e-13 0.00135868 -9.38663e-13
 -2.21758e-12 0.00135868 -1.28848e-12
 -2.56991e-12 0.00135868 -1.52324e-12
 -1.83904e-13 0.00135868 8.12531e-13
 -9.81866e-13 0.00135868 -5.25923e-13
 5.50863e-13 0.00135868 -8.51947e-13
 -1.69139e-13 0.00135868 -1.42786e-12
 -1.75962e-12 0.00135868 -1.16484e-13
 -8.16145e-14 0.00135868 -2.6209e-13
 -1.17961e-12 0.00135868 -1.65607e-12
 -1.73584e-12 0.00135868 -1.82602e-12
 -1.83693e-12 0.00135868 -5.71987e-13
 4.6296e-14 0.00135868 -1.13999e-12
 6.6148e-13 0.00135868 -2.59327e-12
 8.49891e-13 0.00135868 -1.25881e-12
 1.9587e-13 0.00135868 -7.76975e-13
 -1.19131e-14 -0.00137327 1.16062e-13
 -1.26249e-12 -0.00137327 5.54445e-13
 -1.42361e-12 -0.00137327 8.14829e-13
 -1.49499e-12 -0.00137327 -2.50818e-13
 -1.56888e-12 -0.00137327 -2.87942e-13
 6.35584e-13 -0.00137327 7.35275e-13
 6.50854e-13 -0.00137327 1.30453e-12
 4.87414e-13 -0.00137327 2.09709e-13
 -2.06095e-13 -0.00137327 -1.46762e-12
 -5.01083e-13 -0.00137327 1.42478e-12
 -2.68473e-13 -0.00137327 1.34801e-12
 -1.21959e-12 -0.00137327 1.71348e-13
 1.42528e-12 -0.00137327 -1.77223e-13
 -4.06576e-14 -0.00137327 6.49196e-14
 -6.25063e-13 -0.00137327 7.60368e-13
 8.48358e-13 -0.00137327 -4.71077e-13
 -1.70214e-14 -0.0016378 -1.76341e-14
 -1.05749e-12 -0.0016378 8.74236e-13
 -1.07825e-12 -0.0016378 1.35173e-12
 -9.89028e-13 -0.0016378 -2.44579e-14
 -2.28165e-13 -0.0016378 1.26891e-16
 -2.72316e-13 -0.0016378 1.39228e-12
 1.56189e-13 -0.0016378 1.67834e-12
 7.64994e-13 -0.0016378 1.21469e-13
 -8.34833e-13 -0.0016378 -1.30022e-14
 8.79027e-13 -0.0016378 1.37403e-12
 3.54176e-13 -0.0016378 1.88857e-12
 4.67052e-14 -0.0016378 1.4682e-13
 6.69917e-13 -0.0016378 -6.6111e-14
 -2.66199e-13 -0.0016378 9.96779e-13
 5.87418e-14 -0.0016378 1.61118e-12
 2.45518e-13 -0.0016378 6.34873e-14
 -1.92183e-12 -0.00224901 2.50722e-13
 -8.36997e-13 -0.00224901 9.72099e-14
 -1.42571e-12 -0.00224901 9.53507e-13
 -1.24776e-12 -0.00224901 1.15491e-12
 -1.00844e-12 -0.00224901 2.89436e-13
 -2.16867e-13 -0.00224901 2.31128e-13
 3.73785e-13 -0.00224901 1.31603e-12
 -4.31749e-14 -0.00224901 1.14015e-12
 7.10636e-14 -0.00224901 3.21919e-13
 -6.85798e-13 -0.00224901 2.56801e-13
 -2.94034e-13 -0.00224901 1.23531e-12
 4.60306e-14 -0.00224901 1.37386e-12
 1.40215e-12 -0.00224901 -1.06947e-13
 2.54451e-13 -0.00224901 5.6584e-13
 5.10684e-14 -0.00224901 4.31484e-13
 1.41055e-13 -0.00224901 1.95493e-12
 -1.6642e-12 -0.00199283 -5.93431e-13
 -1.48723e-12 -0.00199283 2.45188e-13
 -1.07163e-12 -0.00199283 -1.04984e-13
 -1.51127e-12 -0.00199283 1.34242e-12
 5.01496e-13 -0.00199283 -8.39566e-13
 -3.69814e-13 -0.00199283 3.48697e-13
 -4.82225e-13 -0.00199283 5.10963e-13
 -1.70127e-13 -0.00199283 9.5769e-13
 -2.71357e-13 -0.00199283 -7.64622e-13
 -6.98784e-13 -0.00199283 4.02569e-13
 -4.3198e-13 -0.00199283 1.0781e-12
 -2.757e-13 -0.00199283 7.12988e-13
 -4.49722e-13 -0.00199283 -1.00681e-12
 4.74009e-13 -0.00199283 3.8656e-13
 3.46049e-13 -0.00199283 1.49461e-12
 3.83089e-13 -0.00199283 3.65621e-13
 -1.60564e-12 -0.00239438 7.44023e-14
 -1.85957e-12 -0.00239438 -1.92124e-13
 -1.96304e-12 -0.00239438 -3.70591e-13
 -1.18151e-12 -0.00239438 4.7995e-13
 -9.17669e-13 -0.00239438 -4.28747e-13
 1.08524e-13 -0.00239438 -3.38193e-13
 1.14642e-13 -0.00239438 -7.54156e-13
 -3.2284e-13 -0.00239438 1.21907e-12
 -2.33561e-13 -0.00239438 7.01264e-14
 -1.15802e-12 -0.00239438 -4.47582e-13
 -9.73549e-13 -0.00239438 -1.04643e-12
 -8.4674e-13 -0.00239438 1.29627e-12
 7.99938e-13 -0.00239438 -2.04426e-13
 4.12372e-13 -0.00239438 -1.11435e-13
 4.97206e-13 -0.00239438 -2.23579e-13
 1.38615e-13 -0.00239438 3.27447e-13
 -1.37738e-12 -0.0024516 1.42333e-13
 -1.72876e-12 -0.0024516 -5.52105e-13
 -1.19765e-12 -0.0024516 -4.60268e-13
 -1.48043e-12 -0.0024516 1.01957e-12
 -9.19714e-13 -0.0024516 -2.55968e-14
 -8.87417e-13 -0.0024516 -5.60058e-13
 -7.37018e-13 -0.0024516 5.47043e-14
 -7.87447e-13 -0.0024516 4.87082e-13
 -2.22306e-13 -0.0024516 -1.35218e-13
 7.0095e-14 -0.0024516 -5.20035e-13
 -9.77358e-13 -0.0024516 -2.3937e-13
 -3.65469e-13 -0.0024516 1.79196e-13
 9.93141e-13 -0.0024516 -2.7727e-13
 9.3166e-13 -0.0024516 -1.71756e-13
 5.96259e-13 -0.0024516 -1.46955e-13
 4.67493e-13 -0.0024516 1.50715e-13
 -1.56829e-12 -0.00229252 -1.10901e-12
 -1.51259e-12 -0.00229252 6.73439e-13
 -6.85014e-13 -0.00229252 4.77979e-14
 -3.10503e-13 -0.00229252 -2.43235e-13
 -9.89262e-13 -0.00229252 -3.37343e-13
 5.58503e-13 -0.00229252 -9.40583e-14
 -2.86691e-13 -0.00229252 5.07469e-13
 -1.20202e-12 -0.00229252 5.4639e-13
 -7.08892e-13 -0.00229252 -3.27503e-13
 -6.59603e-14 -0.00229252 1.14891e-13
 -1.48904e-13 -0.00229252 3.07646e-13
 1.66476e-13 -0.00229252 5.62403e-13
 -3.54719e-13 -0.00229252 -2.70589e-13
 -9.2003e-13 -0.00229252 4.77709e-13
 -7.86365e-13 -0.00229252 8.03984e-14
 2.97214e-13 -0.00229252 1.56102e-12
 0 -0.000537327 0
 0 -0.000537327 0
 0 -0.000537327 0
 0 -0.000537327 0
 0 -0.000537327 0
 0 -0.000537327 0
 0 -0.000537327 0
 0 -0.000537327 0
 0 -0.000537327 0
 0 -0.000537327 0
 0 -0.000537327 0
 0 -0.000537327 0
 0 -0.000537327 0
 0 -0.000537327 0
 0 -0.000537327 0
 0 -0.000537327 0
 0 0.000307245 0
 0 0.000307245 0
 0 0.000307245 0
 0 0.000307245 0