<?xml version="1.0"?>
<VTKFile type="UnstructuredGrid" version="0.1" byte_order="LittleEndian" compressor="vtkZLibDataCompressor">
<UnstructuredGrid>
<Piece NumberOfPoints="960" NumberOfCells="120">
<Points>
<DataArray type="Float32" NumberOfComponents="3" format="ascii">
-4.000000e+02 -6.000000e+03 -4.000000e+02
0.000000e+00 -6.000000e+03 -4.000000e+02
-4.000000e+02 -5.600000e+03 -4.000000e+02
1.984440e-10 -5.600000e+03 -4.000000e+02
-4.000000e+02 -6.000000e+03 0.000000e+00
0.000000e+00 -6.000000e+03 0.000000e+00
-4.000000e+02 -5.600000e+03 -3.588470e-10
-3.131900e-10 -5.600000e+03 1.354260e-10
0.000000e+00 -6.000000e+03 -4.000000e+02
4.000000e+02 -6.000000e+03 -4.000000e+02
1.984440e-10 -5.600000e+03 -4.000000e+02
4.000000e+02 -5.600000e+03 -4.000000e+02
0.000000e+00 -6.000000e+03 0.000000e+00
4.000000e+02 -6.000000e+03 0.000000e+00
-3.131900e-10 -5.600000e+03 1.354260e-10
4.000000e+02 -5.600000e+03 -3.397300e-11
-4.000000e+02 -5.600000e+03 -4.000000e+02
1.984440e-10 -5.600000e+03 -4.000000e+02
-4.000000e+02 -5.200000e+03 -4.000000e+02
3.586060e-10 -5.200000e+03 -4.000000e+02
-4.000000e+02 -5.600000e+03 -3.588470e-10
-3.131900e-10 -5.600000e+03 1.354260e-10
-4.000000e+02 -5.200000e+03 -6.173950e-11
-8.209500e-11 -5.200000e+03 6.266510e-10
1.984440e-10 -5.600000e+03 -4.000000e+02
4.000000e+02 -5.600000e+03 -4.000000e+02
3.586060e-10 -5.200000e+03 -4.000000e+02
4.000000e+02 -5.200000e+03 -4.000000e+02
-3.131900e-10 -5.600000e+03 1.354260e-10
4.000000e+02 -5.600000e+03 -3.397300e-11
-8.209500e-11 -5.200000e+03 6.266510e-10
4.000000e+02 -5.200000e+03 4.237370e-10
-4.000000e+02 -5.200000e+03 -4.000000e+02
3.586060e-10 -5.200000e+03 -4.000000e+02
-4.000000e+02 -4.800000e+03 -4.000000e+02
4.028910e-10 -4.800000e+03 -4.000000e+02
-4.000000e+02 -5.200000e+03 -6.173950e-11
-8.209500e-11 -5.200000e+03 6.266510e-10
-4.000000e+02 -4.800000e+03 1.083620e-10
2.774620e-10 -4.800000e+03 1.801770e-10
3.586060e-10 -5.200000e+03 -4.000000e+02
4.000000e+02 -5.200000e+03 -4.000000e+02
4.028910e-10 -4.800000e+03 -4.000000e+02
4.000000e+02 -4.800000e+03 -4.000000e+02
-8.209500e-11 -5.200000e+03 6.266510e-10
4.000000e+02 -5.200000e+03 4.237370e-10
2.774620e-10 -4.800000e+03 1.801770e-10
4.000000e+02 -4.800000e+03 6.689650e-10
-4.000000e+02 -4.800000e+03 -4.000000e+02
4.028910e-10 -4.800000e+03 -4.000000e+02
-4.000000e+02 -4.400000e+03 -4.000000e+02
4.201380e-10 -4.400000e+03 -4.000000e+02
-4.000000e+02 -4.800000e+03 1.083620e-10
2.774620e-10 -4.800000e+03 1.801770e-10
-4.000000e+02 -4.400000e+03 -2.363030e-10
5.674050e-10 -4.400000e+03 -1.701420e-10
4.028910e-10 -4.800000e+03 -4.000000e+02
4.000000e+02 -4.800000e+03 -4.000000e+02
4.201380e-10 -4.400000e+03 -4.000000e+02
4.000000e+02 -4.400000e+03 -4.000000e+02
2.774620e-10 -4.800000e+03 1.801770e-10
4.000000e+02 -4.800000e+03 6.689650e-10
5.674050e-10 -4.400000e+03 -1.701420e-10
4.000000e+02 -4.400000e+03 7.249050e-10
-4.000000e+02 -4.400000e+03 -4.000000e+02
4.201380e-10 -4.400000e+03 -4.000000e+02
-4.000000e+02 -4.000010e+03 -4.000000e+02
9.347980e-10 -4.000010e+03 -4.000000e+02
-4.000000e+02 -4.400000e+03 -2.363030e-10
5.674050e-10 -4.400000e+03 -1.701420e-10
-4.000000e+02 -4.000010e+03 -7.919120e-10
7.760060e-10 -4.000010e+03 -2.940240e-10
4.201380e-10 -4.400000e+03 -4.000000e+02
4.000000e+02 -4.400000e+03 -4.000000e+02
9.347980e-10 -4.000010e+03 -4.000000e+02
4.000000e+02 -4.000010e+03 -4.000000e+02
5.674050e-10 -4.400000e+03 -1.701420e-10
4.000000e+02 -4.400000e+03 7.249050e-10
7.760060e-10 -4.000010e+03 -2.940240e-10
4.000000e+02 -4.000010e+03 -2.412170e-10
-4.000000e+02 -4.000010e+03 -4.000000e+02
9.347980e-10 -4.000010e+03 -4.000000e+02
-4.000000e+02 -3.600010e+03 -4.000000e+02
1.200680e-09 -3.600010e+03 -4.000000e+02
-4.000000e+02 -4.000010e+03 -7.919120e-10
7.760060e-10 -4.000010e+03 -2.940240e-10
-4.000000e+02 -3.600010e+03 -1.032140e-09
5.030770e-10 -3.600010e+03 -9.253820e-10
9.347980e-10 -4.000010e+03 -4.000000e+02
4.000000e+02 -4.000010e+03 -4.000000e+02
1.200680e-09 -3.600010e+03 -4.000000e+02
4.000000e+02 -3.600010e+03 -4.000000e+02
7.760060e-10 -4.000010e+03 -2.940240e-10
4.000000e+02 -4.000010e+03 -2.412170e-10
5.030770e-10 -3.600010e+03 -9.253820e-10
4.000000e+02 -3.600010e+03 -5.000770e-10
-4.000000e+02 -3.600010e+03 -4.000000e+02
1.200680e-09 -3.600010e+03 -4.000000e+02
-4.000000e+02 -3.200010e+03 -4.000000e+02
1.186240e-09 -3.200010e+03 -4.000000e+02
-4.000000e+02 -3.600010e+03 -1.032140e-09
5.030770e-10 -3.600010e+03 -9.253820e-10
-4.000000e+02 -3.200010e+03 -2.055740e-09
9.607610e-10 -3.200010e+03 -1.584570e-09
1.200680e-09 -3.600010e+03 -4.000000e+02
4.000000e+02 -3.600010e+03 -4.000000e+02
1.186240e-09 -3.200010e+03 -4.000000e+02
4.000000e+02 -3.200010e+03 -4.000000e+02
5.030770e-10 -3.600010e+03 -9.253820e-10
4.000000e+02 -3.600010e+03 -5.000770e-10
9.607610e-10 -3.200010e+03 -1.584570e-09
4.000000e+02 -3.200010e+03 -9.432440e-10
-4.000000e+02 -3.200010e+03 -4.000000e+02
1.186240e-09 -3.200010e+03 -4.000000e+02
-4.000000e+02 -2.800010e+03 -4.000000e+02
1.081560e-09 -2.800010e+03 -4.000000e+02
-4.000000e+02 -3.200010e+03 -2.055740e-09
9.607610e-10 -3.200010e+03 -1.584570e-09
-4.000000e+02 -2.800010e+03 -2.174050e-09
9.828900e-10 -2.800010e+03 -1.823070e-09
1.186240e-09 -3.200010e+03 -4.000000e+02
4.000000e+02 -3.200010e+03 -4.000000e+02
1.081560e-09 -2.800010e+03 -4.000000e+02
4.000000e+02 -2.800010e+03 -4.000000e+02
9.607610e-10 -3.200010e+03 -1.584570e-09
4.000000e+02 -3.200010e+03 -9.432440e-10
9.828900e-10 -2.800010e+03 -1.823070e-09
4.000000e+02 -2.800010e+03 -1.391720e-09
-4.000000e+02 -2.800010e+03 -4.000000e+02
1.081560e-09 -2.800010e+03 -4.000000e+02
-4.000000e+02 -2.400010e+03 -4.000000e+02
1.420110e-09 -2.400010e+03 -4.000000e+02
-4.000000e+02 -2.800010e+03 -2.174050e-09
9.828900e-10 -2.800010e+03 -1.823070e-09
-4.000000e+02 -2.400010e+03 -1.149680e-09
9.518750e-10 -2.400010e+03 -1.372270e-09
1.081560e-09 -2.800010e+03 -4.000000e+02
4.000000e+02 -2.800010e+03 -4.000000e+02
1.420110e-09 -2.400010e+03 -4.000000e+02
4.000000e+02 -2.400010e+03 -4.000000e+02
9.828900e-10 -2.800010e+03 -1.823070e-09
4.000000e+02 -2.800010e+03 -1.391720e-09
9.518750e-10 -2.400010e+03 -1.372270e-09
4.000000e+02 -2.400010e+03 -1.005260e-09
-4.000000e+02 -2.400010e+03 -4.000000e+02
1.420110e-09 -2.400010e+03 -4.000000e+02
-4.000000e+02 -2.000020e+03 -4.000000e+02
1.157360e-09 -2.000020e+03 -4.000000e+02
-4.000000e+02 -2.400010e+03 -1.149680e-09
9.518750e-10 -2.400010e+03 -1.372270e-09
-4.000000e+02 -2.000020e+03 -7.297110e-10
8.778350e-10 -2.000020e+03 -5.968600e-10
1.420110e-09 -2.400010e+03 -4.000000e+02
4.000000e+02 -2.400010e+03 -4.000000e+02
1.157360e-09 -2.000020e+03 -4.000000e+02
4.000000e+02 -2.000020e+03 -4.000000e+02
9.518750e-10 -2.400010e+03 -1.372270e-09
4.000000e+02 -2.400010e+03 -1.005260e-09
8.778350e-10 -2.000020e+03 -5.968600e-10
4.000000e+02 -2.000020e+03 -2.428870e-10
-4.000000e+02 -2.000020e+03 -4.000000e+02
1.157360e-09 -2.000020e+03 -4.000000e+02
-4.000000e+02 -1.600020e+03 -4.000000e+02
9.130100e-10 -1.600020e+03 -4.000000e+02
-4.000000e+02 -2.000020e+03 -7.297110e-10
8.778350e-10 -2.000020e+03 -5.968600e-10
-4.000000e+02 -1.600020e+03 -2.380680e-10
8.543130e-10 -1.600020e+03 1.525490e-10
1.157360e-09 -2.000020e+03 -4.000000e+02
4.000000e+02 -2.000020e+03 -4.000000e+02
9.130100e-10 -1.600020e+03 -4.000000e+02
4.000000e+02 -1.600020e+03 -4.000000e+02
8.778350e-10 -2.000020e+03 -5.968600e-10
4.000000e+02 -2.000020e+03 -2.428870e-10
8.543130e-10 -1.600020e+03 1.525490e-10
4.000000e+02 -1.600020e+03 3.712760e-11
-4.000000e+02 -1.600020e+03 -4.000000e+02
9.130100e-10 -1.600020e+03 -4.000000e+02
-4.000000e+02 -1.200040e+03 -4.000000e+02
8.642790e-10 -1.200040e+03 -4.000000e+02
-4.000000e+02 -1.600020e+03 -2.380680e-10
8.543130e-10 -1.600020e+03 1.525490e-10
-4.000000e+02 -1.200040e+03 -7.905780e-11
4.718450e-10 -1.200040e+03 -6.967130e-11
9.130100e-10 -1.600020e+03 -4.000000e+02
4.000000e+02 -1.600020e+03 -4.000000e+02
8.642790e-10 -1.200040e+03 -4.000000e+02
4.000000e+02 -1.200040e+03 -4.000000e+02
8.543130e-10 -1.600020e+03 1.525490e-10
4.000000e+02 -1.600020e+03 3.712760e-11
4.718450e-10 -1.200040e+03 -6.967130e-11
4.000000e+02 -1.200040e+03 3.513890e-11
-4.000000e+02 -1.200040e+03 -4.000000e+02
8.642790e-10 -1.200040e+03 -4.000000e+02
-4.000000e+02 -8.000560e+02 -4.000000e+02
2.165150e-10 -8.000560e+02 -4.000000e+02
-4.000000e+02 -1.200040e+03 -7.905780e-11
4.718450e-10 -1.200040e+03 -6.967130e-11
-4.000000e+02 -8.000560e+02 -2.817440e-10
3.167570e-10 -8.000560e+02 -1.166080e-10
8.642790e-10 -1.200040e+03 -4.000000e+02
4.000000e+02 -1.200040e+03 -4.000000e+02
2.165150e-10 -8.000560e+02 -4.000000e+02
4.000000e+02 -8.000560e+02 -4.000000e+02
4.718450e-10 -1.200040e+03 -6.967130e-11
4.000000e+02 -1.200040e+03 3.513890e-11
3.167570e-10 -8.000560e+02 -1.166080e-10
4.000000e+02 -8.000560e+02 -2.890470e-10
-4.000000e+02 -8.000560e+02 -4.000000e+02
2.165150e-10 -8.000560e+02 -4.000000e+02
-4.000000e+02 -4.000900e+02 -4.000000e+02
-6.626260e-11 -4.000900e+02 -4.000000e+02
-4.000000e+02 -8.000560e+02 -2.817440e-10
3.167570e-10 -8.000560e+02 -1.166080e-10
-4.000000e+02 -4.000900e+02 -3.223830e-10
1.390310e-10 -4.000900e+02 -8.994650e-11
2.165150e-10 -8.000560e+02 -4.000000e+02
4.000000e+02 -8.000560e+02 -4.000000e+02
-6.626260e-11 -4.000900e+02 -4.000000e+02
4.000000e+02 -4.000900e+02 -4.000000e+02
3.167570e-10 -8.000560e+02 -1.166080e-10
4.000000e+02 -8.000560e+02 -2.890470e-10
1.390310e-10 -4.000900e+02 -8.994650e-11
4.000000e+02 -4.000900e+02 2.660210e-11
-4.000000e+02 -4.000900e+02 -4.000000e+02
-6.626260e-11 -4.000900e+02 -4.000000e+02
-4.000000e+02 -1.378380e-01 -4.000000e+02
-2.319320e-10 -1.378380e-01 -4.000000e+02
-4.000000e+02 -4.000900e+02 -3.223830e-10
1.390310e-10 -4.000900e+02 -8.994650e-11
-4.000000e+02 -1.378380e-01 -2.477250e-10
-2.927840e-10 -1.378380e-01 -8.501530e-11
-6.626260e-11 -4.000900e+02 -4.000000e+02
4.000000e+02 -4.000900e+02 -4.000000e+02
-2.319320e-10 -1.378380e-01 -4.000000e+02
4.000000e+02 -1.378380e-01 -4.000000e+02
[...]
<PointData>
<DataArray type="Float32" Name="V1" format="ascii">
0.000000e+00
0.000000e+00
-1.304030e-09
-5.288480e-10
0.000000e+00
0.000000e+00
-2.435240e-10
1.199760e-10
0.000000e+00
0.000000e+00
-5.288480e-10
4.084930e-10
0.000000e+00
0.000000e+00
1.199760e-10
1.060510e-09
-1.304030e-09
-5.288480e-10
-1.013380e-09
-1.343510e-10
-2.435240e-10
1.199760e-10
1.091930e-09
5.680670e-11
-5.288480e-10
4.084930e-10
-1.343510e-10
-4.634820e-10
1.199760e-10
1.060510e-09
5.680670e-11
-6.520170e-10
-1.013380e-09
-1.343510e-10
2.121020e-10
4.494560e-10
1.091930e-09
5.680670e-11
5.263270e-10
1.016460e-10
-1.343510e-10
-4.634820e-10
4.494560e-10
6.284500e-10
5.680670e-11
-6.520170e-10
1.016460e-10
-7.305730e-10
2.121020e-10
4.494560e-10
2.278130e-10
-4.849050e-11
5.263270e-10
1.016460e-10
-1.421870e-09
-3.847210e-10
4.494560e-10
6.284500e-10
-4.849050e-11
-8.012740e-10
1.016460e-10
-7.305730e-10
-3.847210e-10
1.060510e-09
2.278130e-10
-4.849050e-11
-4.949050e-10
-2.409880e-10
-1.421870e-09
-3.847210e-10
-6.441610e-10
3.459160e-10
-4.849050e-11
-8.012740e-10
-2.409880e-10
6.991510e-10
-3.847210e-10
1.060510e-09
3.459160e-10
5.420380e-10
-4.949050e-10
-2.409880e-10
2.278130e-10
4.076200e-10
-6.441610e-10
3.459160e-10
-2.749470e-10
-1.680940e-10
-2.409880e-10
6.991510e-10
4.076200e-10
-2.749470e-10
3.459160e-10
5.420380e-10
-1.680940e-10
2.906580e-10
2.278130e-10
4.076200e-10
3.063690e-10
-8.959620e-11
-2.749470e-10
-1.680940e-10
-2.199580e-10
-2.787190e-10
4.076200e-10
-2.749470e-10
-8.959620e-11
-5.734610e-10
-1.680940e-10
2.906580e-10
-2.787190e-10
-3.927810e-11
3.063690e-10
-8.959620e-11
-4.084930e-10
-2.351750e-10
-2.199580e-10
-2.787190e-10
2.592360e-10
1.170910e-10
-8.959620e-11
-5.734610e-10
-2.351750e-10
-1.264760e-09
-2.787190e-10
-3.927810e-11
1.170910e-10
1.649680e-10
-4.084930e-10
-2.351750e-10
3.456480e-10
1.932900e-11
2.592360e-10
1.170910e-10
5.656050e-10
-1.257720e-10
-2.351750e-10
-1.264760e-09
1.932900e-11
-4.713380e-11
1.170910e-10
1.649680e-10
-1.257720e-10
-9.819530e-10
3.456480e-10
1.932900e-11
5.106160e-10
2.229820e-10
5.656050e-10
-1.257720e-10
-3.692140e-10
-2.499130e-11
1.932900e-11
-4.713380e-11
2.229820e-10
2.906580e-10
-1.257720e-10
-9.819530e-10
-2.499130e-11
7.855630e-11
5.106160e-10
2.229820e-10
2.356690e-11
1.605430e-12
-3.692140e-10
-2.499130e-11
5.498940e-11
-1.247270e-10
2.229820e-10
2.906580e-10
1.605430e-12
-4.713380e-11
-2.499130e-11
7.855630e-11
-1.247270e-10
-1.649680e-10
2.356690e-11
1.605430e-12
-4.870490e-10
-6.838300e-11
5.498940e-11
-1.247270e-10
1.256900e-10
5.968030e-11
1.605430e-12
-4.713380e-11
-6.838300e-11
5.263270e-10
-1.247270e-10
-1.649680e-10
5.968030e-11
-2.121020e-10
-4.870490e-10
-6.838300e-11
6.284500e-11
3.228290e-10
1.256900e-10
5.968030e-11
-7.855630e-12
-4.224010e-10
-6.838300e-11
5.263270e-10
3.228290e-10
0.000000e+00
5.968030e-11
-2.121020e-10
-4.224010e-10
-8.091300e-10
6.284500e-11
3.228290e-10
3.927810e-10
5.494820e-10
-7.855630e-12
-4.224010e-10
5.577500e-10
3.301600e-10
3.228290e-10
0.000000e+00
5.494820e-10
-7.855630e-11
-4.224010e-10
-8.091300e-10
3.301600e-10
2.985140e-10
3.927810e-10
5.494820e-10
-6.755840e-10
7.398420e-11
5.577500e-10
3.301600e-10
5.498940e-11
2.073550e-10
5.494820e-10
-7.855630e-11
7.398420e-11
9.112530e-10
3.301600e-10
2.985140e-10
2.073550e-10
2.435240e-10
-6.755840e-10
7.398420e-11
-5.577500e-10
-2.773880e-10
5.498940e-11
2.073550e-10
-6.284500e-11
-2.915930e-10
7.398420e-11
9.112530e-10
-2.773880e-10
-4.242040e-10
2.073550e-10
2.435240e-10
-2.915930e-10
-4.163480e-10
-5.577500e-10
-2.773880e-10
2.513800e-10
4.827230e-11
-6.284500e-11
-2.915930e-10
2.513800e-10
-1.142940e-10
-2.773880e-10
-4.242040e-10
4.827230e-11
-4.556260e-10
-2.915930e-10
-4.163480e-10
-1.142940e-10
0.000000e+00
2.513800e-10
4.827230e-11
0.000000e+00
-8.727540e-11
2.513800e-10
-1.142940e-10
-7.855630e-11
3.992080e-11
4.827230e-11
-4.556260e-10
-8.727540e-11
-5.734610e-10
-1.142940e-10
0.000000e+00
3.992080e-11
-1.571130e-11
0.000000e+00
-8.727540e-11
4.870490e-10
1.101880e-10
-7.855630e-11
3.992080e-11
-3.063690e-10
-4.159800e-12
-8.727540e-11
-5.734610e-10
1.101880e-10
-1.021230e-10
3.992080e-11
-1.571130e-11
-4.159800e-12
3.377920e-10
4.870490e-10
1.101880e-10
-1.728240e-10
-1.139030e-10
-3.063690e-10
-4.159800e-12
0.000000e+00
-3.870770e-11
1.101880e-10
-1.021230e-10
-1.139030e-10
-8.641190e-11
-4.159800e-12
3.377920e-10
-3.870770e-11
-8.641190e-11
-1.728240e-10
-1.139030e-10
0.000000e+00
1.251500e-11
0.000000e+00
-3.870770e-11
0.000000e+00
-1.631140e-11
-1.139030e-10
-8.641190e-11
1.251500e-11
4.713380e-11
-3.870770e-11
-8.641190e-11
-1.631140e-11
-7.855630e-12
0.000000e+00
1.251500e-11
0.000000e+00
-2.509100e-11
0.000000e+00
-1.631140e-11
0.000000e+00
-1.250540e-11
1.251500e-11
4.713380e-11
-2.509100e-11
7.855630e-12
-1.631140e-11
-7.855630e-12
-1.250540e-11
1.571130e-11
0.000000e+00
-2.509100e-11
0.000000e+00
-1.660780e-12
0.000000e+00
-1.250540e-11
0.000000e+00
6.329470e-12
-2.509100e-11
7.855630e-12
-1.660780e-12
0.000000e+00
-1.250540e-11
1.571130e-11
6.329470e-12
0.000000e+00
0.000000e+00
-1.660780e-12
6.284500e-11
1.300900e-11
0.000000e+00
6.329470e-12
0.000000e+00
7.026620e-12
-1.660780e-12
0.000000e+00
1.300900e-11
-6.284500e-11
6.329470e-12
0.000000e+00
7.026620e-12
0.000000e+00
6.284500e-11
1.300900e-11
2.356690e-11
-6.890560e-12
0.000000e+00
7.026620e-12
0.000000e+00
-4.443200e-13
1.300900e-11
-6.284500e-11
-6.890560e-12
-6.284500e-11
7.026620e-12
0.000000e+00
-4.443200e-13
0.000000e+00
2.356690e-11
-6.890560e-12
0.000000e+00
4.019510e-12
0.000000e+00
-4.443200e-13
0.000000e+00
5.438610e-12
-6.890560e-12
-6.284500e-11
4.019510e-12
0.000000e+00
-4.443200e-13
0.000000e+00
5.438610e-12
0.000000e+00
0.000000e+00
4.019510e-12
0.000000e+00
3.210520e-12
0.000000e+00
5.438610e-12
0.000000e+00
7.922890e-12
4.019510e-12
0.000000e+00
3.210520e-12
0.000000e+00
5.438610e-12
0.000000e+00
7.922890e-12
0.000000e+00
0.000000e+00
3.210520e-12
0.000000e+00
5.608630e-13
0.000000e+00
7.922890e-12
3.142250e-11
-5.092350e-12
3.210520e-12
0.000000e+00
5.608630e-13
0.000000e+00
7.922890e-12
0.000000e+00
-5.092350e-12
-3.927810e-11
0.000000e+00
5.608630e-13
0.000000e+00
-1.478310e-13
3.142250e-11
-5.092350e-12
1.571130e-11
-9.778140e-12
5.608630e-13
0.000000e+00
-1.478310e-13
0.000000e+00
-5.092350e-12
-3.927810e-11
-9.778140e-12
-3.927810e-11
0.000000e+00
-1.478310e-13
0.000000e+00
-5.524510e-12
1.571130e-11
-9.778140e-12
-3.927810e-11
-2.084790e-12
-1.478310e-13
0.000000e+00
-5.524510e-12
0.000000e+00
-9.778140e-12
-3.927810e-11
-2.084790e-12
3.927810e-11
0.000000e+00
0.000000e+00
-2.435240e-10
1.199760e-10
0.000000e+00
0.000000e+00
-1.005520e-09
-1.106380e-10
0.000000e+00
0.000000e+00
1.199760e-10
1.060510e-09
0.000000e+00
0.000000e+00
-1.106380e-10
8.719750e-10
-2.435240e-10
1.199760e-10
1.091930e-09
5.680670e-11
-1.005520e-09
-1.106380e-10
-4.242040e-10
-2.551840e-11
1.199760e-10
1.060510e-09
5.680670e-11
-6.520170e-10
-1.106380e-10
8.719750e-10
-2.551840e-11
-3.927810e-11
1.091930e-09
5.680670e-11
5.263270e-10
1.016460e-10
-4.242040e-10
-2.551840e-11
-3.770700e-10
-9.212840e-11
5.680670e-11
-6.520170e-10
1.016460e-10
-7.305730e-10
-2.551840e-11
-3.927810e-11
-9.212840e-11
-4.870490e-10
5.263270e-10
1.016460e-10
-1.421870e-09
-3.847210e-10
-3.770700e-10
-9.212840e-11
5.106160e-10
2.806970e-10
1.016460e-10
-7.305730e-10
-3.847210e-10
1.060510e-09
-9.212840e-11
-4.870490e-10
2.806970e-10
-1.885350e-10
-1.421870e-09
-3.847210e-10
-6.441610e-10
3.459160e-10
5.106160e-10
2.806970e-10
-7.148620e-10
2.571360e-10
-3.847210e-10
1.060510e-09
3.459160e-10
5.420380e-10
2.806970e-10
-1.885350e-10
2.571360e-10
2.121020e-10
-6.441610e-10
3.459160e-10
-2.749470e-10
-1.680940e-10
-7.148620e-10
2.571360e-10
-1.099790e-10
2.436260e-10
3.459160e-10
5.420380e-10
-1.680940e-10
2.906580e-10
2.571360e-10
2.121020e-10
2.436260e-10
-6.755840e-10
-2.749470e-10
-1.680940e-10
-2.199580e-10
-2.787190e-10
-1.099790e-10
2.436260e-10
-3.849260e-10
1.873710e-10
-1.680940e-10
2.906580e-10
-2.787190e-10
-3.927810e-11
2.436260e-10
-6.755840e-10
1.873710e-10
4.006370e-10
-2.199580e-10
-2.787190e-10
2.592360e-10
1.170910e-10
-3.849260e-10
1.873710e-10
-2.749470e-10
-2.514700e-10
-2.787190e-10
-3.927810e-11
1.170910e-10
1.649680e-10
1.873710e-10
4.006370e-10
-2.514700e-10
3.927810e-11
2.592360e-10
1.170910e-10
5.656050e-10
-1.257720e-10
-2.749470e-10
-2.514700e-10
6.991510e-10
4.451530e-10
1.170910e-10
1.649680e-10
-1.257720e-10
-9.819530e-10
-2.514700e-10
3.927810e-11
4.451530e-10
-1.492570e-10
5.656050e-10
-1.257720e-10
-3.692140e-10
-2.499130e-11
6.991510e-10
4.451530e-10
-1.178340e-10
-1.626250e-12
-1.257720e-10
-9.819530e-10
-2.499130e-11
7.855630e-11
4.451530e-10
-1.492570e-10
-1.626250e-12
9.348200e-10
-3.692140e-10
-2.499130e-11
5.498940e-11
-1.247270e-10
-1.178340e-10
-1.626250e-12
3.377920e-10
4.288260e-10
-2.499130e-11
7.855630e-11
-1.247270e-10
-1.649680e-10
-1.626250e-12
9.348200e-10
4.288260e-10
3.063690e-10
5.498940e-11
-1.247270e-10
1.256900e-10
5.968030e-11
3.377920e-10
4.288260e-10
5.734610e-10
-2.546340e-10
-1.247270e-10
-1.649680e-10
5.968030e-11
-2.121020e-10
4.288260e-10
3.063690e-10
-2.546340e-10
-1.414010e-10
1.256900e-10
5.968030e-11
-7.855630e-12
-4.224010e-10
5.734610e-10
-2.546340e-10
-1.571130e-11
2.078590e-11
5.968030e-11
-2.121020e-10
-4.224010e-10
-8.091300e-10
-2.546340e-10
-1.414010e-10
2.078590e-11
-8.405520e-10
-7.855630e-12
-4.224010e-10
5.577500e-10
3.301600e-10
-1.571130e-11
2.078590e-11
5.027600e-10
1.771120e-10
-4.224010e-10
-8.091300e-10
3.301600e-10
2.985140e-10
2.078590e-11
-8.405520e-10
1.771120e-10
0.000000e+00
5.577500e-10
3.301600e-10
5.498940e-11
2.073550e-10
5.027600e-10
1.771120e-10
-6.205950e-10
1.947450e-10
3.301600e-10
2.985140e-10
2.073550e-10
2.435240e-10
1.771120e-10
0.000000e+00
1.947450e-10
4.870490e-10
5.498940e-11
2.073550e-10
-6.284500e-11
-2.915930e-10
-6.205950e-10
1.947450e-10
-8.091300e-10
-7.632650e-11
2.073550e-10
2.435240e-10
-2.915930e-10
-4.163480e-10
1.947450e-10
4.870490e-10
-7.632650e-11
-2.985140e-10
-6.284500e-11
-2.915930e-10
2.513800e-10
-1.142940e-10
-8.091300e-10
-7.632650e-11
2.356690e-11
2.449680e-10
-2.915930e-10
-4.163480e-10
-1.142940e-10
0.000000e+00
-7.632650e-11
-2.985140e-10
2.449680e-10
2.985140e-10
2.513800e-10
-1.142940e-10
-7.855630e-11
3.992080e-11
2.356690e-11
2.449680e-10
-5.027600e-10
9.262020e-11
-1.142940e-10
0.000000e+00
3.992080e-11
-1.571130e-11
2.449680e-10
2.985140e-10
9.262020e-11
4.713380e-11
-7.855630e-11
3.992080e-11
-3.063690e-10
-4.159800e-12
-5.027600e-10
9.262020e-11
-6.284500e-11
-3.907870e-11
3.992080e-11
-1.571130e-11
-4.159800e-12
3.377920e-10
9.262020e-11
4.713380e-11
-3.907870e-11
-5.734610e-10
-3.063690e-10
-4.159800e-12
0.000000e+00
-3.870770e-11
-6.284500e-11
-3.907870e-11
0.000000e+00
5.949300e-12
-4.159800e-12
3.377920e-10
-3.870770e-11
-8.641190e-11
-3.907870e-11
-5.734610e-10
5.949300e-12
2.356690e-11
0.000000e+00
-3.870770e-11
0.000000e+00
-1.631140e-11
0.000000e+00
5.949300e-12
0.000000e+00
3.833540e-12
-3.870770e-11
-8.641190e-11
-1.631140e-11
-7.855630e-12
5.949300e-12
2.356690e-11
3.833540e-12
8.641190e-11
0.000000e+00
-1.631140e-11
0.000000e+00
-1.250540e-11
0.000000e+00
3.833540e-12
0.000000e+00
-1.492550e-11
-1.631140e-11
-7.855630e-12
-1.250540e-11
1.571130e-11
3.833540e-12
8.641190e-11
-1.492550e-11
0.000000e+00
0.000000e+00
-1.250540e-11
0.000000e+00
6.329470e-12
0.000000e+00
-1.492550e-11
0.000000e+00
3.274960e-12
-1.250540e-11
1.571130e-11
6.329470e-12
0.000000e+00
-1.492550e-11
0.000000e+00
3.274960e-12
0.000000e+00
0.000000e+00
6.329470e-12
0.000000e+00
7.026620e-12
0.000000e+00
3.274960e-12
0.000000e+00
1.068510e-11
6.329470e-12
0.000000e+00
7.026620e-12
0.000000e+00
3.274960e-12
0.000000e+00
1.068510e-11
0.000000e+00
0.000000e+00
7.026620e-12
0.000000e+00
-4.443200e-13
0.000000e+00
1.068510e-11
0.000000e+00
4.576300e-12
7.026620e-12
0.000000e+00
-4.443200e-13
0.000000e+00
1.068510e-11
0.000000e+00
4.576300e-12
0.000000e+00
0.000000e+00
-4.443200e-13
0.000000e+00
5.438610e-12
0.000000e+00
4.576300e-12
0.000000e+00
2.975630e-12
-4.443200e-13
0.000000e+00
5.438610e-12
0.000000e+00
4.576300e-12
0.000000e+00
2.975630e-12
0.000000e+00
0.000000e+00
5.438610e-12
0.000000e+00
7.922890e-12
0.000000e+00
2.975630e-12
0.000000e+00
3.711510e-12
5.438610e-12
0.000000e+00
7.922890e-12
0.000000e+00
2.975630e-12
0.000000e+00
3.711510e-12
0.000000e+00
0.000000e+00
7.922890e-12
3.142250e-11
-5.092350e-12
0.000000e+00
3.711510e-12
3.927810e-11
-2.017230e-12
7.922890e-12
0.000000e+00
-5.092350e-12
-3.927810e-11
3.711510e-12
0.000000e+00
-2.017230e-12
-3.927810e-11
3.142250e-11
-5.092350e-12
1.571130e-11
-9.778140e-12
3.927810e-11
-2.017230e-12
2.356690e-11
-3.616640e-12
-5.092350e-12
-3.927810e-11
-9.778140e-12
-3.927810e-11
-2.017230e-12
-3.927810e-11
-3.616640e-12
-3.927810e-11
1.571130e-11
-9.778140e-12
-3.927810e-11
-2.084790e-12
2.356690e-11
-3.616640e-12
-7.855630e-11
-1.386180e-11
-9.778140e-12
-3.927810e-11
-2.084790e-12
3.927810e-11
-3.616640e-12
-3.927810e-11
-1.386180e-11
4.713380e-11
</DataArray>
<DataArray type="Float32" Name="V2" format="ascii">
0.000000e+00
0.000000e+00
3.048880e-04
3.048890e-04
0.000000e+00
0.000000e+00
3.048900e-04
3.048910e-04
0.000000e+00
0.000000e+00
3.048890e-04
3.048880e-04
0.000000e+00
0.000000e+00
3.048910e-04
3.048900e-04
3.048880e-04
3.048890e-04
1.824470e-04
1.824500e-04
3.048900e-04
3.048910e-04
1.824490e-04
1.824500e-04
3.048890e-04
3.048880e-04
1.824500e-04
1.824460e-04
3.048910e-04
3.048900e-04
1.824500e-04
1.824500e-04
1.824470e-04
1.824500e-04
4.704730e-05
4.704700e-05
1.824490e-04
1.824500e-04
4.704740e-05
4.704940e-05
1.824500e-04
1.824460e-04
4.704700e-05
4.704790e-05
1.824500e-04
1.824500e-04
4.704940e-05
4.704940e-05
4.704730e-05
4.704700e-05
1.094470e-04
1.094450e-04
4.704740e-05
4.704940e-05
1.094460e-04
1.094470e-04
4.704700e-05
4.704790e-05
1.094450e-04
1.094440e-04
4.704940e-05
4.704940e-05
1.094470e-04
1.094450e-04
1.094470e-04
1.094450e-04
2.806940e-04
2.806950e-04
1.094460e-04
1.094470e-04
2.806940e-04
2.806960e-04
1.094450e-04
1.094440e-04
2.806950e-04
2.806960e-04
1.094470e-04
1.094450e-04
2.806960e-04
2.806950e-04
2.806940e-04
2.806950e-04
1.428790e-04
1.428800e-04
2.806940e-04
2.806960e-04
1.428780e-04
1.428780e-04
2.806950e-04
2.806960e-04
1.428800e-04
1.428760e-04
2.806960e-04
2.806950e-04
1.428780e-04
1.428760e-04
1.428790e-04
1.428800e-04
2.866370e-04
2.866400e-04
1.428780e-04
1.428780e-04
2.866390e-04
2.866400e-04
1.428800e-04
1.428760e-04
2.866400e-04
2.866380e-04
1.428780e-04
1.428760e-04
2.866400e-04
2.866410e-04
2.866370e-04
2.866400e-04
7.037370e-04
7.037410e-04
2.866390e-04
2.866400e-04
7.037380e-04
7.037390e-04
2.866400e-04
2.866380e-04
7.037410e-04
7.037370e-04
2.866400e-04
2.866410e-04
7.037390e-04
7.037360e-04
7.037370e-04
7.037410e-04
1.546050e-03
1.546050e-03
7.037380e-04
7.037390e-04
1.546050e-03
1.546050e-03
7.037410e-04
7.037370e-04
1.546050e-03
1.546050e-03
7.037390e-04
7.037360e-04
1.546050e-03
1.546050e-03
1.546050e-03
1.546050e-03
2.865630e-03
2.865640e-03
1.546050e-03
1.546050e-03
2.865630e-03
2.865640e-03
1.546050e-03
1.546050e-03
2.865640e-03
2.865630e-03
1.546050e-03
1.546050e-03
2.865640e-03
2.865640e-03
2.865630e-03
2.865640e-03
5.964530e-03
5.964530e-03
2.865630e-03
2.865640e-03
5.964530e-03
5.964530e-03
2.865640e-03
2.865630e-03
5.964530e-03
5.964530e-03
2.865640e-03
2.865640e-03
5.964530e-03
5.964530e-03
5.964530e-03
5.964530e-03
1.081200e-02
1.081200e-02
5.964530e-03
5.964530e-03
1.081200e-02
1.081200e-02
5.964530e-03
5.964530e-03
1.081200e-02
1.081200e-02
5.964530e-03
5.964530e-03
1.081200e-02
1.081200e-02
1.081200e-02
1.081200e-02
1.820680e-02
1.820680e-02
1.081200e-02
1.081200e-02
1.820680e-02
1.820680e-02
1.081200e-02
1.081200e-02
1.820680e-02
1.820680e-02
1.081200e-02
1.081200e-02
1.820680e-02
1.820680e-02
1.820680e-02
1.820680e-02
2.866130e-02
2.866130e-02
1.820680e-02
1.820680e-02
2.866130e-02
2.866130e-02
1.820680e-02
1.820680e-02
2.866130e-02
2.866130e-02
1.820680e-02
1.820680e-02
2.866130e-02
2.866130e-02
2.866130e-02
2.866130e-02
3.756340e-02
3.756340e-02
2.866130e-02
2.866130e-02
3.756340e-02
3.756340e-02
2.866130e-02
2.866130e-02
3.756340e-02
3.756340e-02
2.866130e-02
2.866130e-02
3.756340e-02
3.756340e-02
3.756340e-02
3.756340e-02
4.037330e-02
4.037330e-02
3.756340e-02
3.756340e-02
4.037330e-02
4.037330e-02
3.756340e-02
3.756340e-02
4.037330e-02
4.037330e-02
3.756340e-02
3.756340e-02
4.037330e-02
4.037330e-02
4.037330e-02
4.037330e-02
3.316900e-02
3.316900e-02
4.037330e-02
4.037330e-02
3.316900e-02
3.316900e-02
4.037330e-02
4.037330e-02
3.316900e-02
3.316900e-02
4.037330e-02
4.037330e-02
3.316900e-02
3.316900e-02
3.316900e-02
3.316900e-02
1.488590e-02
1.488590e-02
3.316900e-02
3.316900e-02
1.488590e-02
1.488590e-02
3.316900e-02
3.316900e-02
1.488590e-02
1.488590e-02
3.316900e-02
3.316900e-02
1.488590e-02
1.488590e-02
1.488590e-02
1.488590e-02
-6.035600e-03
-6.035610e-03
1.488590e-02
1.488590e-02
-6.035600e-03
-6.035600e-03
1.488590e-02
1.488590e-02
-6.035610e-03
-6.035600e-03
1.488590e-02
1.488590e-02
-6.035600e-03
-6.035610e-03
-6.035600e-03
-6.035610e-03
-1.694260e-02
-1.694260e-02
-6.035600e-03
-6.035600e-03
-1.694260e-02
-1.694260e-02
-6.035610e-03
-6.035600e-03
-1.694260e-02
-1.694260e-02
-6.035600e-03
-6.035610e-03
-1.694260e-02
-1.694260e-02
-1.694260e-02
-1.694260e-02
-6.781260e-03
-6.781260e-03
-1.694260e-02
-1.694260e-02
-6.781260e-03
-6.781260e-03
-1.694260e-02
-1.694260e-02
-6.781260e-03
-6.781260e-03
-1.694260e-02
-1.694260e-02
-6.781260e-03
-6.781260e-03
-6.781260e-03
-6.781260e-03
4.414670e-03
4.414670e-03
-6.781260e-03
-6.781260e-03
4.414670e-03
4.414670e-03
-6.781260e-03
-6.781260e-03
4.414670e-03
4.414670e-03
-6.781260e-03
-6.781260e-03
4.414670e-03
4.414670e-03
4.414670e-03
4.414670e-03
6.147700e-03
6.147700e-03
4.414670e-03
4.414670e-03
6.147700e-03
6.147700e-03
4.414670e-03
4.414670e-03
6.147700e-03
6.147700e-03
4.414670e-03
4.414670e-03
6.147700e-03
6.147700e-03
6.147700e-03
6.147700e-03
-1.111250e-03
-1.111250e-03
6.147700e-03
6.147700e-03
-1.111250e-03
-1.111250e-03
6.147700e-03
6.147700e-03
-1.111250e-03
-1.111250e-03
6.147700e-03
6.147700e-03
-1.111250e-03
-1.111250e-03
-1.111250e-03
-1.111250e-03
-1.816220e-03
-1.816220e-03
-1.111250e-03
-1.111250e-03
-1.816220e-03
-1.816220e-03
-1.111250e-03
-1.111250e-03
-1.816220e-03
-1.816220e-03
-1.111250e-03
-1.111250e-03
-1.816220e-03
-1.816220e-03
-1.816220e-03
-1.816220e-03
4.760940e-04
4.760950e-04
-1.816220e-03
-1.816220e-03
4.760950e-04
4.760950e-04
-1.816220e-03
-1.816220e-03
4.760950e-04
4.760940e-04
-1.816220e-03
-1.816220e-03
4.760950e-04
4.760940e-04
4.760940e-04
4.760950e-04
4.662470e-04
4.662470e-04
4.760950e-04
4.760950e-04
4.662470e-04
4.662470e-04
4.760950e-04
4.760940e-04
4.662470e-04
4.662470e-04
4.760950e-04
4.760940e-04
4.662470e-04
4.662470e-04
4.662470e-04
4.662470e-04
-5.528040e-05
-5.528020e-05
4.662470e-04
4.662470e-04
-5.528010e-05
-5.528000e-05
4.662470e-04
4.662470e-04
-5.528020e-05
-5.528010e-05
4.662470e-04
4.662470e-04
-5.528000e-05
-5.528010e-05
-5.528040e-05
-5.528020e-05
-9.570180e-05
-9.570180e-05
-5.528010e-05
-5.528000e-05
-9.570180e-05
-9.570190e-05
-5.528020e-05
-5.528010e-05
-9.570180e-05
-9.570200e-05
-5.528000e-05
-5.528010e-05
-9.570190e-05
-9.570190e-05
-9.570180e-05
-9.570180e-05
-9.986540e-05
-9.986540e-05
-9.570180e-05
-9.570190e-05
-9.986550e-05
-9.986550e-05
-9.570180e-05
-9.570200e-05
-9.986540e-05
-9.986530e-05
-9.570190e-05
-9.570190e-05
-9.986550e-05
-9.986550e-05
0.000000e+00
0.000000e+00
3.048900e-04
3.048910e-04
0.000000e+00
0.000000e+00
3.048900e-04
3.048910e-04
0.000000e+00
0.000000e+00
3.048910e-04
3.048900e-04
0.000000e+00
0.000000e+00
3.048910e-04
3.048900e-04
3.048900e-04
3.048910e-04
1.824490e-04
1.824500e-04
3.048900e-04
3.048910e-04
1.824490e-04
1.824490e-04
3.048910e-04
3.048900e-04
1.824500e-04
1.824500e-04
3.048910e-04
3.048900e-04
1.824490e-04
1.824460e-04
1.824490e-04
1.824500e-04
4.704740e-05
4.704940e-05
1.824490e-04
1.824490e-04
4.704730e-05
4.704680e-05
1.824500e-04
1.824500e-04
4.704940e-05
4.704940e-05
1.824490e-04
1.824460e-04