<?xml version="1.0"?>
<!-- time 95.6747-->
<VTKFile type="UnstructuredGrid" version="0.1" byte_order="LittleEndian">
<UnstructuredGrid>
<Piece NumberOfPoints="960" NumberOfCells="0">
<Points>
  <DataArray type="Float32" Name="Position" NumberOfComponents="3" format="ascii">
	-300 2099.61 -300
	-300 2099.61 -100
	-300 2099.61 100
	-300 2099.61 300
	-100 2099.61 -300
	-100 2099.61 -100
	-100 2099.61 100
	-100 2099.61 300
	100 2099.61 -300
	100 2099.61 -100
	100 2099.61 100
	100 2099.61 300
	300 2099.61 -300
	300 2099.61 -100
	300 2099.61 100
	300 2099.61 300
	-300 2299.66 -300
	-300 2299.66 -100
	-300 2299.66 100
	-300 2299.66 300
	-100 2299.66 -300
	-100 2299.66 -100
	-100 2299.66 100
	-100 2299.66 300
	100 2299.66 -300
	100 2299.66 -100
	100 2299.66 100
	100 2299.66 300
	300 2299.66 -300
	300 2299.66 -100
	300 2299.66 100
	300 2299.66 300
	-300 2499.66 -300
	-300 2499.66 -100
	-300 2499.66 100
	-300 2499.66 300
	-100 2499.66 -300
	-100 2499.66 -100
	-100 2499.66 100
	-100 2499.66 300
	100 2499.66 -300
	100 2499.66 -100
	100 2499.66 100
	100 2499.66 300
	300 2499.66 -300
	300 2499.66 -100
	300 2499.66 100
	300 2499.66 300
	-300 2699.67 -300
	-300 2699.67 -100
	-300 2699.67 100
	-300 2699.67 300
	-100 2699.67 -300
	-100 2699.67 -100
	-100 2699.67 100
	-100 2699.67 300
	100 2699.67 -300
	100 2699.67 -100
	100 2699.67 100
	100 2699.67 300
	300 2699.67 -300
	300 2699.67 -100
	300 2699.67 100
	300 2699.67 300
	-300 2899.67 -300
	-300 2899.67 -100
	-300 2899.67 100
	-300 2899.67 300
	-100 2899.67 -300
	-100 2899.67 -100
	-100 2899.67 100
	-100 2899.67 300
	100 2899.67 -300
	100 2899.67 -100
	100 2899.67 100
	100 2899.67 300
	300 2899.67 -300
	300 2899.67 -100
	300 2899.67 100
	300 2899.67 300
	-300 3099.67 -300
	-300 3099.67 -100
	-300 3099.67 100
	-300 3099.67 300
	-100 3099.67 -300
	-100 3099.67 -100
	-100 3099.67 100
	-100 3099.67 300
	100 3099.67 -300
	100 3099.67 -100
	100 3099.67 100
	100 3099.67 300
	300 3099.67 -300
	300 3099.67 -100
	300 3099.67 100
	300 3099.67 300
	-300 3299.66 -300
	-300 3299.66 -100
	-300 3299.66 100
	-300 3299.66 300
	-100 3299.66 -300
	-100 3299.66 -100
	-100 3299.66 100
	-100 3299.66 300
	100 3299.66 -300
	100 3299.66 -100
	100 3299.66 100
	100 3299.66 300
	300 3299.66 -300
	300 3299.66 -100
	300 3299.66 100
	300 3299.66 300
	-300 3499.66 -300
	-300 3499.66 -100
	-300 3499.66 100
	-300 3499.66 300
	-100 3499.66 -300
	-100 3499.66 -100
	-100 3499.66 100
	-100 3499.66 300
	100 3499.66 -300
	100 3499.66 -100
	100 3499.66 100
	100 3499.66 300
	300 3499.66 -300
	300 3499.66 -100
	300 3499.66 100
	300 3499.66 300
	-300 3699.66 -300
	-300 3699.66 -100
	-300 3699.66 100
	-300 3699.66 300
	-100 3699.66 -300
	-100 3699.66 -100
	-100 3699.66 100
	-100 3699.66 300
	100 3699.66 -300
	100 3699.66 -100
	100 3699.66 100
	100 3699.66 300
	300 3699.66 -300
	300 3699.66 -100
	300 3699.66 100
	300 3699.66 300
	-300 3899.66 -300
	-300 3899.66 -100
	-300 3899.66 100
	-300 3899.66 300
	-100 3899.66 -300
	-100 3899.66 -100
	-100 3899.66 100
	-100 3899.66 300
	100 3899.66 -300
	100 3899.66 -100
	100 3899.66 100
	100 3899.66 300
	300 3899.66 -300
	300 3899.66 -100
	300 3899.66 100
	300 3899.66 300
	-300 4099.67 -300
	-300 4099.67 -100
	-300 4099.67 100
	-300 4099.67 300
	-100 4099.67 -300
	-100 4099.67 -100
	-100 4099.67 100
	-100 4099.67 300
	100 4099.67 -300
	100 4099.67 -100
	100 4099.67 100
	100 4099.67 300
	300 4099.67 -300
	300 4099.67 -100
	300 4099.67 100
	300 4099.67 300
	-300 4299.67 -300
	-300 4299.67 -100
	-300 4299.67 100
	-300 4299.67 300
	-100 4299.67 -300
	-100 4299.67 -100
	-100 4299.67 100
	-100 4299.67 300
	100 4299.67 -300
	100 4299.67 -100
	100 4299.67 100
	100 4299.67 300
	300 4299.67 -300
	300 4299.67 -100
	300 4299.67 100
	300 4299.67 300
	-300 4499.67 -300
	-300 4499.67 -100
	-300 4499.67 100
	-300 4499.67 300
	-100 4499.67 -300
	-100 4499.67 -100
	-100 4499.67 100
	-100 4499.67 300
	100 4499.67 -300
	100 4499.67 -100
	100 4499.67 100
	100 4499.67 300
	300 4499.67 -300
	300 4499.67 -100
	300 4499.67 100
	300 4499.67 300
	-300 4699.67 -300
	-300 4699.67 -100
	-300 4699.67 100
	-300 4699.67 300
	-100 4699.67 -300
	-100 4699.67 -100
	-100 4699.67 100
	-100 4699.67 300
	100 4699.67 -300
	100 4699.67 -100
	100 4699.67 100
	100 4699.67 300
	300 4699.67 -300
	300 4699.67 -100
	300 4699.67 100
	300 4699.67 300
	-300 4899.67 -300
	-300 4899.67 -100
	-300 4899.67 100
	-300 4899.67 300
	-100 4899.67 -300
	-100 4899.67 -100
	-100 4899.67 100
	-100 4899.67 300
	100 4899.67 -300
	100 4899.67 -100
	100 4899.67 100
	100 4899.67 300
	300 4899.67 -300
	300 4899.67 -100
	300 4899.67 100
	300 4899.67 300
	-300 5099.67 -300
	-300 5099.67 -100
	-300 5099.67 100
	-300 5099.67 300
	-100 5099.67 -300
	-100 5099.67 -100
	-100 5099.67 100
	-100 5099.67 300
	100 5099.67 -300
	100 5099.67 -100
	100 5099.67 100
	100 5099.67 300
	300 5099.67 -300
	300 5099.67 -100
	300 5099.67 100
	300 5099.67 300
	-300 5299.67 -300
	-300 5299.67 -100
	-300 5299.67 100
	-300 5299.67 300
	-100 5299.67 -300
	-100 5299.67 -100
	-100 5299.67 100
	-100 5299.67 300
	100 5299.67 -300
	100 5299.67 -100
	100 5299.67 100
	100 5299.67 300
	300 5299.67 -300
	300 5299.67 -100
	300 5299.67 100
	300 5299.67 300
	-300 5499.68 -300
	-300 5499.68 -100
	-300 5499.68 100
	-300 5499.68 300
	-100 5499.68 -300
	-100 5499.68 -100
	-100 5499.68 100
	-100 5499.68 300
	100 5499.68 -300
	100 5499.68 -100
	100 5499.68 100
	100 5499.68 300
	300 5499.68 -300
	300 5499.68 -100
	300 5499.68 100
	300 5499.68 300
	-300 5699.68 -300
	-300 5699.68 -100
	-300 5699.68 100
	-300 5699.68 300
	-100 5699.68 -300
	-100 5699.68 -100
	-100 5699.68 100
	-100 5699.68 300
	100 5699.68 -300
	100 5699.68 -100
	100 5699.68 100
	100 5699.68 300
	300 5699.68 -300
	300 5699.68 -100
	300 5699.68 100
	300 5699.68 300
	-300 5899.69 -300
	-300 5899.69 -100
	-300 5899.69 100
	-300 5899.69 300
	-100 5899.69 -300
	-100 5899.69 -100
	-100 5899.69 100
	-100 5899.69 300
	100 5899.69 -300
	100 5899.69 -100
	100 5899.69 100
	100 5899.69 300
	300 5899.69 -300
	300 5899.69 -100
	300 5899.69 100
	300 5899.69 300
	-300 6099.71 -300
	-300 6099.71 -100
	-300 6099.71 100
	-300 6099.71 300
	-100 6099.71 -300
	-100 6099.71 -100
	-100 6099.71 100
	-100 6099.71 300
	100 6099.71 -300
	100 6099.71 -100
	100 6099.71 100
	100 6099.71 300
	300 6099.71 -300
	300 6099.71 -100
	300 6099.71 100
	300 6099.71 300
	-300 6299.75 -300
	-300 6299.75 -100
	-300 6299.75 100
	-300 6299.75 300
	-100 6299.75 -300
	-100 6299.75 -100
	-100 6299.75 100
	-100 6299.75 300
	100 6299.75 -300
	100 6299.75 -100
	100 6299.75 100
	100 6299.75 300
	300 6299.75 -300
	300 6299.75 -100
	300 6299.75 100
	300 6299.75 300
	-300 6499.8 -300
	-300 6499.8 -100
	-300 6499.8 100
	-300 6499.8 300
	-100 6499.8 -300
	-100 6499.8 -100
	-100 6499.8 100
	-100 6499.8 300
	100 6499.8 -300
	100 6499.8 -100
	100 6499.8 100
	100 6499.8 300
	300 6499.8 -300
	300 6499.8 -100
	300 6499.8 100
	300 6499.8 300
	-300 6699.81 -300
	-300 6699.81 -100
	-300 6699.81 100
	-300 6699.81 300
	-100 6699.81 -300
	-100 6699.81 -100
	-100 6699.81 100
	-100 6699.81 300
	100 6699.81 -300
	100 6699.81 -100
	100 6699.81 100
	100 6699.81 300
	300 6699.81 -300
	300 6699.81 -100
	300 6699.81 100
	300 6699.81 300
	-300 6899.84 -300
	-300 6899.84 -100
	-300 6899.84 100
	-300 6899.84 300
	-100 6899.84 -300
	-100 6899.84 -100
	-100 6899.84 100
	-100 6899.84 300
	100 6899.84 -300
	100 6899.84 -100
	100 6899.84 100
	100 6899.84 300
	300 6899.84 -300
	300 6899.84 -100
	300 6899.84 100
	300 6899.84 300
	-300 7099.85 -300
	-300 7099.85 -100
	-300 7099.85 100
	-300 7099.85 300
	-100 7099.85 -300
	-100 7099.85 -100
	-100 7099.85 100
	-100 7099.85 300
	100 7099.85 -300
	100 7099.85 -100
	100 7099.85 100
	100 7099.85 300
	300 7099.85 -300
	300 7099.85 -100
	300 7099.85 100
	300 7099.85 300
	-300 7299.86 -300
	-300 7299.86 -100
	-300 7299.86 100
	-300 7299.86 300
	-100 7299.86 -300
	-100 7299.86 -100
	-100 7299.86 100
	-100 7299.86 300
	100 7299.86 -300
	100 7299.86 -100
	100 7299.86 100
	100 7299.86 300
	300 7299.86 -300
	300 7299.86 -100
	300 7299.86 100
	300 7299.86 300
	-300 7499.87 -300
	-300 7499.87 -100
	-300 7499.87 100
	-300 7499.87 300
	-100 7499.87 -300
	-100 7499.87 -100
	-100 7499.87 100
	-100 7499.87 300
	100 7499.87 -300
	100 7499.87 -100
	100 7499.87 100
	100 7499.87 300
	300 7499.87 -300
	300 7499.87 -100
	300 7499.87 100
	300 7499.87 300
	-300 7699.87 -300
	-300 7699.87 -100
	-300 7699.87 100
	-300 7699.87 300
	-100 7699.87 -300
	-100 7699.87 -100
	-100 7699.87 100
	-100 7699.87 300
	100 7699.87 -300
	100 7699.87 -100
	100 7699.87 100
	100 7699.87 300
	300 7699.87 -300
	300 7699.87 -100
	300 7699.87 100
	300 7699.87 300
	-300 7899.88 -300
	-300 7899.88 -100
	-300 7899.88 100
	-300 7899.88 300
	-100 7899.88 -300
	-100 7899.88 -100
	-100 7899.88 100
	-100 7899.88 300
	100 7899.88 -300
	100 7899.88 -100
	100 7899.88 100
	100 7899.88 300
	300 7899.88 -300
	300 7899.88 -100
	300 7899.88 100
	300 7899.88 300
	-300 8099.88 -300
	-300 8099.88 -100
	-300 8099.88 100
	-300 8099.88 300
	-100 8099.88 -300
	-100 8099.88 -100
	-100 8099.88 100
	-100 8099.88 300
	100 8099.88 -300
	100 8099.88 -100
	100 8099.88 100
	100 8099.88 300
	300 8099.88 -300
	300 8099.88 -100
	300 8099.88 100
	300 8099.88 300
	-300 8299.89 -300
	-300 8299.89 -100
	-300 8299.89 100
	-300 8299.89 300
	-100 8299.89 -300
	-100 8299.89 -100
	-100 8299.89 100
	-100 8299.89 300
	100 8299.89 -300
	100 8299.89 -100
	100 8299.89 100
	100 8299.89 300
	300 8299.89 -300
	300 8299.89 -100
	300 8299.89 100
	300 8299.89 300
	-300 8499.9 -300
	-300 8499.9 -100
	-300 8499.9 100
	-300 8499.9 300
	-100 8499.9 -300
	-100 8499.9 -100
	-100 8499.9 100
	-100 8499.9 300
	100 8499.9 -300
	100 8499.9 -100
	100 8499.9 100
	100 8499.9 300
	300 8499.9 -300
	300 8499.9 -100
	300 8499.9 100
	300 8499.9 300
	-300 8699.9 -300
	-300 8699.9 -100
	-300 8699.9 100
	-300 8699.9 300
	-100 8699.9 -300
	-100 8699.9 -100
	-100 8699.9 100
	-100 8699.9 300
	100 8699.9 -300
	100 8699.9 -100
	100 8699.9 100
	100 8699.9 300
	300 8699.9 -300
	300 8699.9 -100
	300 8699.9 100
	300 8699.9 300
	-300 8899.91 -300
	-300 8899.91 -100
	-300 8899.91 100
	-300 8899.91 300
	-100 8899.91 -300
	-100 8899.91 -100
	-100 8899.91 100
	-100 8899.91 300
	100 8899.91 -300
	100 8899.91 -100
	100 8899.91 100
	100 8899.91 300
	300 8899.91 -300
	300 8899.91 -100
	300 8899.91 100
	300 8899.91 300
	-300 9099.92 -300
	-300 9099.92 -100
	-300 9099.92 100
	-300 9099.92 300
	-100 9099.92 -300
	-100 9099.92 -100
	-100 9099.92 100
	-100 9099.92 300
	100 9099.92 -300
	100 9099.92 -100
	100 9099.92 100
	100 9099.92 300
	300 9099.92 -300
	300 9099.92 -100
	300 9099.92 100
	300 9099.92 300
	-300 9299.93 -300
	-300 9299.93 -100
	-300 9299.93 100
	-300 9299.93 300
	-100 9299.93 -300
	-100 9299.93 -100
	-100 9299.93 100
	-100 9299.93 300
	100 9299.93 -300
	100 9299.93 -100
	100 9299.93 100
	100 9299.93 300
	300 9299.93 -300
	300 9299.93 -100
	300 9299.93 100
	300 9299.93 300
	-300 9499.94 -300
	-300 9499.94 -100
	-300 9499.94 100
	-300 9499.94 300
	-100 9499.94 -300
	-100 9499.94 -100
	-100 9499.94 100
	-100 9499.94 300
	100 9499.94 -300
	100 9499.94 -100
	100 9499.94 100
	100 9499.94 300
	300 9499.94 -300
	300 9499.94 -100
	300 9499.94 100
	300 9499.94 300
	-300 9699.95 -300
	-300 9699.95 -100
	-300 9699.95 100
	-300 9699.95 300
	-100 9699.95 -300
	-100 9699.95 -100
	-100 9699.95 100
	-100 9699.95 300
	100 9699.95 -300
	100 9699.95 -100
	100 9699.95 100
	100 9699.95 300
	300 9699.95 -300
	300 9699.95 -100
	300 9699.95 100
	300 9699.95 300
	-300 9899.96 -300
	-300 9899.96 -100
	-300 9899.96 100
	-300 9899.96 300
	-100 9899.96 -300
	-100 9899.96 -100
	-100 9899.96 100
	-100 9899.96 300
	100 9899.96 -300
	100 9899.96 -100
	100 9899.96 100
	100 9899.96 300
	300 9899.96 -300
	300 9899.96 -100
	300 9899.96 100
	300 9899.96 300
	-300 10100 -300
	-300 10100 -100
	-300 10100 100
	-300 10100 300
	-100 10100 -300
	-100 10100 -100
	-100 10100 100
	-100 10100 300
	100 10100 -300
	100 10100 -100
	100 10100 100
	100 10100 300
	300 10100 -300
	300 10100 -100
	300 10100 100
	300 10100 300
	-300 10300 -300
	-300 10300 -100
	-300 10300 100
	-300 10300 300
	-100 10300 -300
	-100 10300 -100
	-100 10300 100
	-100 10300 300
	100 10300 -300
	100 10300 -100
	100 10300 100
	100 10300 300
	300 10300 -300
	300 10300 -100
	300 10300 100
	300 10300 300
	-300 10500 -300
	-300 10500 -100
	-300 10500 100
	-300 10500 300
	-100 10500 -300
	-100 10500 -100
	-100 10500 100
	-100 10500 300
	100 10500 -300
	100 10500 -100
	100 10500 100
	100 10500 300
	300 10500 -300
	300 10500 -100
	300 10500 100
	300 10500 300
	-300 10700 -300
	-300 10700 -100
	-300 10700 100
	-300 10700 300
	-100 10700 -300
	-100 10700 -100
	-100 10700 100
	-100 10700 300
	100 10700 -300
	100 10700 -100
	100 10700 100
	100 10700 300
	300 10700 -300
	300 10700 -100
	300 10700 100
	300 10700 300
	-300 10900 -300
	-300 10900 -100
	-300 10900 100
	-300 10900 300
	-100 10900 -300
	-100 10900 -100
	-100 10900 100
	-100 10900 300
	100 10900 -300
	100 10900 -100
	100 10900 100
	100 10900 300
	300 10900 -300
	300 10900 -100
	300 10900 100
	300 10900 300
	-300 11100 -300
	-300 11100 -100
	-300 11100 100
	-300 11100 300
	-100 11100 -300
	-100 11100 -100
	-100 11100 100
	-100 11100 300
	100 11100 -300
	100 11100 -100
	100 11100 100
	100 11100 300
	300 11100 -300
	300 11100 -100
	300 11100 100
	300 11100 300
	-300 11300 -300
	-300 11300 -100
	-300 11300 100
	-300 11300 300
	-100 11300 -300
	-100 11300 -100
	-100 11300 100
	-100 11300 300
	100 11300 -300
	100 11300 -100
	100 11300 100
	100 11300 300
	300 11300 -300
	300 11300 -100
	300 11300 100
	300 11300 300
	-300 11500.1 -300
	-300 11500.1 -100
	-300 11500.1 100
	-300 11500.1 300
	-100 11500.1 -300
	-100 11500.1 -100
	-100 11500.1 100
	-100 11500.1 300
	100 11500.1 -300
	100 11500.1 -100
	100 11500.1 100
	100 11500.1 300
	300 11500.1 -300
	300 11500.1 -100
	300 11500.1 100
	300 11500.1 300
	-300 11700.1 -300
	-300 11700.1 -100
	-300 11700.1 100
	-300 11700.1 300
	-100 11700.1 -300
	-100 11700.1 -100
	-100 11700.1 100
	-100 11700.1 300
	100 11700.1 -300
	100 11700.1 -100
	100 11700.1 100
	100 11700.1 300
	300 11700.1 -300
	300 11700.1 -100
	300 11700.1 100
	300 11700.1 300
	-300 11900.1 -300
	-300 11900.1 -100
	-300 11900.1 100
	-300 11900.1 300
	-100 11900.1 -300
	-100 11900.1 -100
	-100 11900.1 100
	-100 11900.1 300
	100 11900.1 -300
	100 11900.1 -100
	100 11900.1 100
	100 11900.1 300
	300 11900.1 -300
	300 11900.1 -100
	300 11900.1 100
	300 11900.1 300
	-300 12100.2 -300
	-300 12100.2 -100
	-300 12100.2 100
	-300 12100.2 300
	-100 12100.2 -300
	-100 12100.2 -100
	-100 12100.2 100
	-100 12100.2 300
	100 12100.2 -300
	100 12100.2 -100
	100 12100.2 100
	100 12100.2 300
	300 12100.2 -300
	300 12100.2 -100
	300 12100.2 100
	300 12100.2 300
	-300 12300.2 -300
	-300 12300.2 -100
	-300 12300.2 100
	-300 12300.2 300
	-100 12300.2 -300
	-100 12300.2 -100
	-100 12300.2 100
	-100 12300.2 300
	100 12300.2 -300
	100 12300.2 -100
	100 12300.2 100
	100 12300.2 300
	300 12300.2 -300
	300 12300.2 -100
	300 12300.2 100
	300 12300.2 300
	-300 12500.2 -300
	-300 12500.2 -100
	-300 12500.2 100
	-300 12500.2 300
	-100 12500.2 -300
	-100 12500.2 -100
	-100 12500.2 100
	-100 12500.2 300
	100 12500.2 -300
	100 12500.2 -100
	100 12500.2 100
	100 12500.2 300
	300 12500.2 -300
	300 12500.2 -100
	300 12500.2 100
	300 12500.2 300
	-300 12700.3 -300
	-300 12700.3 -100
	-300 12700.3 100
	-300 12700.3 300
	-100 12700.3 -300
	-100 12700.3 -100
	-100 12700.3 100
	-100 12700.3 300
	100 12700.3 -300
	100 12700.3 -100
	100 12700.3 100
	100 12700.3 300
	300 12700.3 -300
	300 12700.3 -100
	300 12700.3 100
	300 12700.3 300
	-300 12900.4 -300
	-300 12900.4 -100
	-300 12900.4 100
	-300 12900.4 300
	-100 12900.4 -300
	-100 12900.4 -100
	-100 12900.4 100
	-100 12900.4 300
	100 12900.4 -300
	100 12900.4 -100
	100 12900.4 100
	100 12900.4 300
	300 12900.4 -300
	300 12900.4 -100
	300 12900.4 100
	300 12900.4 300
	-300 13100.5 -300
	-300 13100.5 -100
	-300 13100.5 100
	-300 13100.5 300
	-100 13100.5 -300
	-100 13100.5 -100
	-100 13100.5 100
	-100 13100.5 300
	100 13100.5 -300
	100 13100.5 -100
	100 13100.5 100
	100 13100.5 300
	300 13100.5 -300
	300 13100.5 -100
	300 13100.5 100
	300 13100.5 300
	-300 13300.6 -300
	-300 13300.6 -100
	-300 13300.6 100
	-300 13300.6 300
	-100 13300.6 -300
	-100 13300.6 -100
	-100 13300.6 100
	-100 13300.6 300
	100 13300.6 -300
	100 13300.6 -100
	100 13300.6 100
	100 13300.6 300
	300 13300.6 -300
	300 13300.6 -100
	300 13300.6 100
	300 13300.6 300
	-300 13500.8 -300
	-300 13500.8 -100
	-300 13500.8 100
	-300 13500.8 300
	-100 13500.8 -300
	-100 13500.8 -100
	-100 13500.8 100
	-100 13500.8 300
	100 13500.8 -300
	100 13500.8 -100
	100 13500.8 100
	100 13500.8 300
	300 13500.8 -300
	300 13500.8 -100
	300 13500.8 100
	300 13500.8 300
	-300 13701.2 -300
	-300 13701.2 -100
	-300 13701.2 100
	-300 13701.2 300
	-100 13701.2 -300
	-100 13701.2 -100
	-100 13701.2 100
	-100 13701.2 300
	100 13701.2 -300
	100 13701.2 -100
	100 13701.2 100
	100 13701.2 300
	300 13701.2 -300
	300 13701.2 -100
	300 13701.2 100
	300 13701.2 300
	-300 13902.3 -300
	-300 13902.3 -100
	-300 13902.3 100
	-300 13902.3 300
	-100 13902.3 -300
	-100 13902.3 -100
	-100 13902.3 100
	-100 13902.3 300
	100 13902.3 -300
	100 13902.3 -100
	100 13902.3 100
	100 13902.3 300
	300 13902.3 -300
	300 13902.3 -100
	300 13902.3 100
	300 13902.3 300
  </DataArray>
</Points>
<PointData  Vectors="vector">
  <DataArray type="Float32" Name="Velocity" NumberOfComponents="3" format="ascii">
 4.44277e-11 -0.0227587 -1.77663e-10
 -5.03135e-11 -0.0227587 -8.29271e-11
 1.48294e-11 -0.0227587 -1.95531e-10
 1.49101e-10 -0.0227587 1.3783e-10
 -8.00686e-12 -0.0227587 -4.38042e-10
 4.51484e-11 -0.0227587 6.83587e-11
 2.20442e-11 -0.0227587 -5.76336e-11
 1.0481e-10 -0.0227587 2.04927e-10
 4.58598e-11 -0.0227587 -2.64976e-10
 2.3229e-11 -0.0227587 -1.23813e-10
 1.06542e-11 -0.0227587 -4.39718e-11
 1.00387e-10 -0.0227587 3.1794e-10
 6.97319e-12 -0.0227587 -4.22681e-10
 4.14199e-11 -0.0227587 8.19495e-11
 5.16254e-11 -0.0227587 -1.20437e-10
 9.44747e-11 -0.0227587 3.30058e-11
 -8.80517e-11 -0.00827082 -1.57853e-10
 -3.72033e-11 -0.0082708 3.23126e-11
 -2.11269e-11 -0.00827081 1.3535e-10
 6.46504e-12 -0.0082708 2.41907e-10
 -1.28069e-11 -0.00827082 -1.22064e-10
 -1.21934e-10 -0.00827076 5.1001e-11
 -1.55541e-10 -0.00827073 7.76546e-11
 -1.63258e-10 -0.00827086 1.9666e-10
 -4.01232e-11 -0.00827083 -1.07256e-10
 -7.11452e-11 -0.0082708 4.52369e-11
 -8.61096e-11 -0.00827074 1.13898e-10
 -1.38924e-10 -0.00827092 1.87796e-10
 6.7528e-11 -0.00827083 -1.91697e-10
 -1.16305e-10 -0.00827074 5.23408e-11
 -1.78875e-10 -0.00827082 4.75027e-11
 -2.65053e-10 -0.00827073 1.94276e-10
 5.96656e-11 -0.011091 4.70933e-12
 -2.42213e-11 -0.011091 1.11545e-10
 5.04267e-11 -0.011091 5.02192e-11
 5.12381e-11 -0.011091 1.30574e-10
 -3.19613e-11 -0.011091 -3.02323e-11
 1.67603e-13 -0.011091 4.60253e-11
 -8.75233e-11 -0.0110911 2.52639e-11
 -1.2122e-10 -0.011091 7.40842e-11
 1.38621e-11 -0.011091 -3.46864e-11
 -2.22434e-11 -0.011091 8.9779e-11
 -8.08295e-11 -0.0110911 1.95611e-11
 -4.89759e-11 -0.0110909 1.10182e-10
 -1.61535e-11 -0.011091 6.11846e-11
 -1.15696e-10 -0.0110911 4.30131e-11
 -8.25994e-11 -0.011091 -9.24912e-12
 -1.59223e-10 -0.0110911 3.9315e-11
 -1.84342e-10 0.000560234 -6.59891e-11
 -1.49815e-10 0.000560235 9.68065e-11
 -1.49373e-10 0.000560232 2.20958e-11
 -1.41744e-10 0.000560239 1.54128e-10
 -1.28247e-10 0.000560246 -6.93484e-11
 -1.59285e-10 0.000560223 6.93415e-11
 -1.33757e-10 0.000560218 -3.38912e-11
 -1.26035e-10 0.00056025 8.02464e-11
 -1.02739e-10 0.000560241 -3.77073e-11
 -1.45245e-10 0.000560234 6.94556e-11
 -9.26736e-11 0.000560215 -1.26831e-11
 -9.95216e-11 0.000560267 8.88093e-11
 -8.45431e-11 0.000560245 -5.09273e-11
 -1.52807e-10 0.000560218 6.92611e-11
 -1.09158e-10 0.000560241 1.38105e-11
 -9.15637e-11 0.000560216 9.65077e-11
 -1.67503e-10 -0.00027076 -7.74509e-11
 -1.45607e-10 -0.000270755 9.96685e-11
 -1.38678e-10 -0.000270755 8.08418e-11
 -1.02086e-10 -0.000270758 1.72569e-10
 -1.40789e-10 -0.00027076 -6.66788e-11
 -1.3731e-10 -0.000270743 7.11232e-11
 -1.43093e-10 -0.000270736 2.66746e-11
 -1.07731e-10 -0.000270769 1.56011e-10
 -1.37607e-10 -0.000270765 -2.50126e-11
 -1.53237e-10 -0.000270755 4.27273e-11
 -1.46126e-10 -0.000270739 3.98755e-11
 -1.12436e-10 -0.000270787 1.09191e-10
 -1.11276e-10 -0.000270762 -1.97757e-11
 -1.63091e-10 -0.000270737 4.87131e-11
 -1.615e-10 -0.000270756 3.09094e-11
 -1.81214e-10 -0.000270736 9.89416e-11
 3.42498e-12 0.00988134 1.74229e-11
 -1.7684e-12 0.00988135 3.57779e-11
 9.26337e-12 0.00988134 1.49663e-11
 -2.79014e-11 0.00988135 3.85157e-11
 -2.55084e-12 0.00988135 3.00324e-11
 -1.15287e-11 0.00988135 3.99552e-11
 -7.18404e-13 0.00988135 2.73367e-11
 3.24032e-11 0.00988135 1.89246e-11
 -2.23188e-11 0.00988135 3.54965e-11
 3.14614e-12 0.00988135 4.81765e-11
 -1.23087e-11 0.00988134 1.82017e-11
 3.87131e-11 0.00988135 1.59445e-11
 -1.03425e-11 0.00988135 3.61463e-11
 -1.72435e-11 0.00988135 3.43861e-11
 -1.55019e-11 0.00988135 3.09062e-11
 3.03385e-11 0.00988135 9.42744e-12
 1.00781e-13 0.00897129 1.24287e-11
 -1.29628e-12 0.00897128 9.79007e-12
 -3.98047e-12 0.00897129 3.41303e-11
 -3.65875e-11 0.00897128 2.51599e-11
 -3.31798e-12 0.00897127 2.62385e-11
 1.4235e-12 0.00897128 2.63182e-11
 6.68268e-12 0.00897128 4.10889e-11
 2.48768e-11 0.00897128 3.51539e-11
 2.90451e-13 0.00897128 2.73454e-11
 1.9779e-12 0.00897128 1.83624e-11
 8.63997e-12 0.00897129 2.60958e-11
 3.83792e-11 0.00897128 3.71702e-11
 -4.68257e-13 0.00897128 3.70064e-11
 6.98332e-14 0.00897128 3.271e-11
 -1.06243e-11 0.00897128 2.95395e-11
 3.08105e-11 0.00897128 1.01722e-11
 2.68668e-12 -0.00114346 5.94314e-12
 3.00074e-12 -0.00114346 1.17159e-11
 5.0325e-12 -0.00114346 2.06617e-11
 7.10705e-12 -0.00114346 1.39632e-11
 1.06688e-11 -0.00114346 2.70671e-11
 1.44302e-11 -0.00114346 2.31781e-11
 1.3379e-11 -0.00114346 2.22865e-11
 2.75682e-11 -0.00114346 1.45542e-11
 1.0582e-11 -0.00114346 2.8636e-11
 1.18244e-11 -0.00114346 2.31448e-11
 5.42255e-12 -0.00114346 2.62253e-11
 1.53965e-11 -0.00114346 1.07423e-11
 8.40749e-13 -0.00114346 4.49564e-11
 1.8576e-12 -0.00114346 3.47043e-11
 -7.6612e-12 -0.00114346 2.99521e-11
 -3.52911e-12 -0.00114346 7.83356e-12
 -2.79445e-12 -0.000916677 2.86086e-12
 4.38678e-12 -0.000916678 7.84718e-12
 4.0623e-12 -0.000916677 1.08983e-11
 3.7079e-12 -0.000916678 3.17784e-12
 1.56339e-11 -0.000916678 1.70105e-11
 1.1029e-11 -0.000916678 1.63157e-11
 1.40546e-11 -0.000916678 8.34666e-12
 1.50367e-11 -0.000916677 6.40404e-12
 9.10877e-12 -0.000916677 2.60328e-11
 1.13362e-11 -0.000916678 2.1145e-11
 1.32625e-11 -0.000916678 1.54572e-11
 1.64235e-11 -0.000916678 3.67765e-12
 4.00639e-12 -0.000916679 3.70371e-11
 3.06213e-12 -0.000916678 3.27954e-11
 2.284e-12 -0.000916679 2.08059e-11
 9.12234e-12 -0.000916677 7.20214e-12
 -2.98039e-12 -0.000913523 -1.45578e-13
 1.07769e-12 -0.000913524 1.7418e-12
 -5.48816e-13 -0.000913524 3.91906e-12
 -6.04813e-13 -0.000913524 -1.05929e-12
 -1.66998e-12 -0.000913524 3.57853e-12
 -3.34197e-12 -0.000913524 4.76777e-12
 6.14445e-15 -0.000913524 2.01974e-12
 1.3684e-12 -0.000913524 1.38215e-12
 1.84852e-12 -0.000913524 6.7293e-12
 -1.81344e-12 -0.000913524 4.08875e-12
 -2.15113e-12 -0.000913524 3.2534e-12
 1.58368e-12 -0.000913523 -1.91582e-13
 -1.21209e-12 -0.000913523 9.72127e-12
 1.27574e-12 -0.000913524 7.09638e-12
 -2.11121e-13 -0.000913523 4.59867e-12
 -1.37129e-12 -0.000913524 8.11864e-13
 3.03896e-12 -0.000605064 -1.87026e-13
 -1.56235e-12 -0.000605065 -2.35288e-12
 -3.9892e-12 -0.000605064 -1.69426e-12
 -9.55907e-13 -0.000605064 4.72177e-13
 -5.08282e-12 -0.000605063 -2.59149e-12
 -4.12213e-12 -0.000605064 5.53936e-13
 -4.72317e-12 -0.000605063 -1.46674e-12
 -3.72413e-12 -0.000605064 -8.51845e-13
 -4.73451e-12 -0.000605064 -1.99563e-12
 -2.43079e-12 -0.000605065 -1.80728e-14
 -8.92584e-12 -0.000605063 -2.25338e-12
 -4.53165e-12 -0.000605065 -4.99086e-14
 2.30265e-12 -0.000605064 9.49909e-14
 -2.20743e-12 -0.000605064 -2.23099e-12
 5.87378e-12 -0.000605064 -3.22206e-12
 -3.34804e-12 -0.000605063 -3.36455e-13
 9.84475e-12 -0.000137301 -4.00219e-13
 3.26117e-12 -0.000137306 -2.03848e-12
 1.41129e-13 -0.000137305 -1.24154e-12
 -2.46363e-12 -0.000137309 -2.07139e-12
 7.6404e-12 -0.000137321 -2.0955e-12
 3.95561e-13 -0.000137308 -3.55073e-12
 -8.69949e-14 -0.000137313 -6.87377e-12
 -2.5262e-12 -0.00013731 2.05739e-12
 5.26197e-12 -0.000137308 -9.2488e-13
 6.44849e-13 -0.000137307 -8.14115e-12
 -1.33318e-12 -0.000137309 -5.25477e-12
 -2.12755e-12 -0.000137309 6.74991e-13
 5.1646e-13 -0.000137318 -3.07497e-12
 1.00126e-12 -0.000137304 -6.01506e-12
 -2.05263e-12 -0.000137315 -6.70683e-12
 -6.31814e-13 -0.000137304 -2.35848e-12
 9.43915e-12 0.000576019 -1.58589e-12
 1.53087e-12 0.000576023 -2.55292e-12
 -5.36036e-13 0.000576023 -2.07051e-12
 -3.24681e-12 0.000576027 -2.1566e-12
 8.06824e-12 0.000576038 -2.01155e-12
 2.11446e-12 0.000576026 -7.50044e-12
 -4.58917e-13 0.000576031 -4.03837e-12
 -5.49691e-14 0.000576027 6.40471e-13
 2.47535e-12 0.000576026 -2.95927e-12
 4.18948e-12 0.000576024 -5.89572e-12
 1.55528e-12 0.000576027 -4.9044e-12
 -2.01726e-12 0.000576027 -2.28284e-12
 4.15801e-12 0.000576035 -3.20493e-12
 -3.31943e-13 0.000576022 -6.77139e-12
 -1.18602e-12 0.000576032 -6.82258e-12
 9.63158e-13 0.000576022 -3.09499e-12
 3.36986e-12 0.000342493 -1.34936e-12
 -8.76182e-15 0.00034249 -3.83226e-12
 -6.90074e-14 0.000342491 -1.24707e-12
 1.03041e-13 0.000342489 2.5686e-12
 1.47913e-12 0.0003425 -6.14517e-13
 -5.31631e-14 0.000342486 -4.35535e-12
 -9.36974e-13 0.000342497 -1.73679e-12
 -5.14802e-13 0.000342485 1.77749e-12
 9.71613e-13 0.000342497 -7.12666e-13
 -1.29969e-12 0.000342489 -4.12323e-12
 -2.10506e-12 0.00034249 -1.83167e-12
 -2.09397e-12 0.000342486 1.5488e-12
 -9.04438e-13 0.000342496 -3.37556e-13
 4.45816e-13 0.000342489 -2.45616e-12
 8.8667e-13 0.000342497 -5.75031e-12
 -3.32657e-13 0.000342493 1.64252e-12
 -1.18851e-12 0.000459543 1.12001e-13
 2.3065e-13 0.000459546 -1.96444e-12
 -2.09693e-13 0.000459545 -1.28709e-12
 -1.6296e-12 0.000459547 1.15607e-12
 -1.16391e-12 0.000459537 -4.33074e-13
 -9.03592e-13 0.000459549 1.79416e-13
 -7.62238e-13 0.000459539 -2.60375e-12
 9.86474e-13 0.00045955 1.53976e-12
 -1.39884e-12 0.000459539 4.42605e-13
 -1.33957e-12 0.000459547 -2.32694e-13
 -2.06094e-12 0.000459545 -2.24794e-12
 -4.23129e-13 0.00045955 1.58657e-12
 8.61818e-13 0.00045954 -1.3909e-12
 -1.38926e-12 0.000459546 8.09891e-13
 4.87051e-13 0.00045954 -2.5285e-12
 -1.10528e-13 0.000459543 2.87912e-12
 2.31354e-13 0.000225733 -3.19584e-13
 -1.29795e-12 0.000225733 -2.52049e-13
 -1.87761e-12 0.000225733 -8.15642e-13
 -3.62848e-13 0.000225733 -3.95037e-13
 -5.42174e-12 0.000225732 -1.55091e-12
 -3.35346e-12 0.000225733 4.09353e-13
 -3.21816e-12 0.000225732 -5.82103e-13
 -1.73489e-12 0.000225733 1.25046e-12
 -4.07434e-12 0.000225733 -1.43809e-12
 -4.36296e-12 0.000225733 1.08121e-12
 -2.46754e-12 0.000225733 1.12742e-12
 -2.38326e-12 0.000225733 5.99944e-13
 -2.20107e-14 0.000225733 8.50401e-13
 6.88271e-13 0.000225733 1.24639e-12
 1.11952e-12 0.000225732 1.5178e-12
 4.26543e-13 0.000225733 -2.24819e-13
 -9.90911e-13 0.000131465 5.89753e-13
 -1.32123e-12 0.000131465 -3.03866e-14
 -1.33653e-12 0.000131465 -5.85165e-13
 -6.21733e-13 0.000131465 6.6054e-13
 -3.24626e-12 0.000131465 4.71853e-14
 -3.66022e-12 0.000131465 7.66115e-13
 -1.92913e-12 0.000131465 -3.34703e-13
 -1.78043e-12 0.000131465 1.25234e-12
 -3.32235e-12 0.000131465 5.49202e-13
 -2.44148e-12 0.000131465 1.51591e-12
 -2.50029e-12 0.000131465 -4.91592e-13
 -1.21832e-12 0.000131465 1.87226e-12
 -1.95683e-12 0.000131465 -4.33792e-13
 -1.00715e-12 0.000131465 2.59042e-12
 -9.23233e-13 0.000131465 3.19948e-12
 -1.02758e-12 0.000131465 1.41974e-13
 -6.02912e-13 9.99731e-05 -1.12704e-12
 -7.85497e-13 9.9973e-05 -1.11376e-12
 -6.28762e-13 9.99731e-05 5.64781e-13
 -2.61084e-14 9.9973e-05 4.76888e-13
 -1.87509e-12 9.99731e-05 -4.77139e-13
 -1.22576e-12 9.9973e-05 -4.13001e-13
 -1.49545e-12 9.99731e-05 -3.96673e-13
 -1.35629e-12 9.9973e-05 2.22076e-13
 -1.39041e-12 9.99731e-05 -3.80911e-13
 -1.81529e-12 9.9973e-05 -6.91592e-14
 -9.20038e-13 9.99731e-05 6.35951e-13
 -6.84436e-13 9.9973e-05 -5.46705e-13
 -3.66303e-13 9.99731e-05 5.85779e-14
 -8.74246e-14 9.9973e-05 4.8839e-13
 -2.23103e-13 9.99731e-05 6.00266e-14
 -1.14111e-13 9.99731e-05 3.8241e-13
 9.62277e-15 8.29737e-05 -7.35886e-13
 -4.54394e-13 8.29737e-05 -5.97634e-14
 4.60354e-13 8.29737e-05 3.00108e-13
 2.56373e-13 8.29737e-05 -6.57964e-13
 -2.3084e-12 8.29737e-05 -1.30458e-12
 -1.19927e-12 8.29737e-05 1.79877e-13
 -1.90436e-12 8.29737e-05 2.26373e-13
 -1.95227e-12 8.29737e-05 -5.02021e-13
 -1.08872e-12 8.29737e-05 -4.18403e-13
 -1.60206e-12 8.29737e-05 -2.66988e-13
 -1.18196e-12 8.29737e-05 6.89852e-13
 -1.08937e-12 8.29737e-05 -6.7212e-13
 -1.4653e-12 8.29737e-05 -2.86467e-13
 -1.78604e-12 8.29737e-05 1.10817e-13
 -1.73387e-12 8.29737e-05 3.03967e-13
 -1.77923e-12 8.29737e-05 -2.82247e-13
 -3.37726e-13 0.000181981 6.97998e-13
 -1.6846e-12 0.000181981 1.5692e-12
 -1.15834e-12 0.000181981 1.16956e-12
 -1.87369e-12 0.000181981 5.80671e-13
 1.20237e-12 0.000181981 7.2031e-13
 1.4028e-12 0.000181981 1.27172e-12
 1.61438e-12 0.000181981 -5.03638e-13
 1.9235e-12 0.000181981 1.98069e-12
 7.32301e-13 0.000181981 -5.10712e-13
 1.98491e-12 0.000181981 2.93139e-12
 7.85202e-13 0.000181981 1.17397e-12
 8.0272e-13 0.000181981 3.52604e-13
 4.18017e-12 0.000181981 9.30329e-13
 4.27315e-12 0.000181981 4.11112e-13
 4.66023e-12 0.000181981 8.61769e-13
 2.34913e-12 0.000181981 1.08169e-12
 0 -0.000537327 0
 0 -0.000537327 0
 0 -0.000537327 0
 0 -0.000537327 0
 0 -0.000537327 0
 0 -0.000537327 0
 0 -0.000537327 0
 0 -0.000537327 0
 0 -0.000537327 0
 0 -0.000537327 0
 0 -0.000537327 0
 0 -0.000537327 0
 0 -0.000537327 0
 0 -0.000537327 0
 0 -0.000537327 0
 0 -0.000537327 0
 0 0.000307245 0
 0 0.000307245 0
 0 0.000307245 0
 0 0.000307245 0
 0 0.000307245 0
 0 0.000307245 0
 0 0.000307245 0
 0 0.000307245 0
 0 0.000307245 0
 0 0.000307245 0
 0 0.000307245 0
 0 0.000307245 0