<?xml version="1.0"?>
<!-- time 53.3187-->
<VTKFile type="UnstructuredGrid" version="0.1" byte_order="LittleEndian">
<UnstructuredGrid>
<Piece NumberOfPoints="960" NumberOfCells="0">
<Points>
  <DataArray type="Float32" Name="Position" NumberOfComponents="3" format="ascii">
	-300 2099.64 -300
	-300 2099.64 -100
	-300 2099.64 100
	-300 2099.64 300
	-100 2099.64 -300
	-100 2099.64 -100
	-100 2099.64 100
	-100 2099.64 300
	100 2099.64 -300
	100 2099.64 -100
	100 2099.64 100
	100 2099.64 300
	300 2099.64 -300
	300 2099.64 -100
	300 2099.64 100
	300 2099.64 300
	-300 2299.69 -300
	-300 2299.69 -100
	-300 2299.69 100
	-300 2299.69 300
	-100 2299.69 -300
	-100 2299.69 -100
	-100 2299.69 100
	-100 2299.69 300
	100 2299.69 -300
	100 2299.69 -100
	100 2299.69 100
	100 2299.69 300
	300 2299.69 -300
	300 2299.69 -100
	300 2299.69 100
	300 2299.69 300
	-300 2499.69 -300
	-300 2499.69 -100
	-300 2499.69 100
	-300 2499.69 300
	-100 2499.69 -300
	-100 2499.69 -100
	-100 2499.69 100
	-100 2499.69 300
	100 2499.69 -300
	100 2499.69 -100
	100 2499.69 100
	100 2499.69 300
	300 2499.69 -300
	300 2499.69 -100
	300 2499.69 100
	300 2499.69 300
	-300 2699.69 -300
	-300 2699.69 -100
	-300 2699.69 100
	-300 2699.69 300
	-100 2699.69 -300
	-100 2699.69 -100
	-100 2699.69 100
	-100 2699.69 300
	100 2699.69 -300
	100 2699.69 -100
	100 2699.69 100
	100 2699.69 300
	300 2699.69 -300
	300 2699.69 -100
	300 2699.69 100
	300 2699.69 300
	-300 2899.68 -300
	-300 2899.68 -100
	-300 2899.68 100
	-300 2899.68 300
	-100 2899.68 -300
	-100 2899.68 -100
	-100 2899.68 100
	-100 2899.68 300
	100 2899.68 -300
	100 2899.68 -100
	100 2899.68 100
	100 2899.68 300
	300 2899.68 -300
	300 2899.68 -100
	300 2899.68 100
	300 2899.68 300
	-300 3099.68 -300
	-300 3099.68 -100
	-300 3099.68 100
	-300 3099.68 300
	-100 3099.68 -300
	-100 3099.68 -100
	-100 3099.68 100
	-100 3099.68 300
	100 3099.68 -300
	100 3099.68 -100
	100 3099.68 100
	100 3099.68 300
	300 3099.68 -300
	300 3099.68 -100
	300 3099.68 100
	300 3099.68 300
	-300 3299.68 -300
	-300 3299.68 -100
	-300 3299.68 100
	-300 3299.68 300
	-100 3299.68 -300
	-100 3299.68 -100
	-100 3299.68 100
	-100 3299.68 300
	100 3299.68 -300
	100 3299.68 -100
	100 3299.68 100
	100 3299.68 300
	300 3299.68 -300
	300 3299.68 -100
	300 3299.68 100
	300 3299.68 300
	-300 3499.68 -300
	-300 3499.68 -100
	-300 3499.68 100
	-300 3499.68 300
	-100 3499.68 -300
	-100 3499.68 -100
	-100 3499.68 100
	-100 3499.68 300
	100 3499.68 -300
	100 3499.68 -100
	100 3499.68 100
	100 3499.68 300
	300 3499.68 -300
	300 3499.68 -100
	300 3499.68 100
	300 3499.68 300
	-300 3699.68 -300
	-300 3699.68 -100
	-300 3699.68 100
	-300 3699.68 300
	-100 3699.68 -300
	-100 3699.68 -100
	-100 3699.68 100
	-100 3699.68 300
	100 3699.68 -300
	100 3699.68 -100
	100 3699.68 100
	100 3699.68 300
	300 3699.68 -300
	300 3699.68 -100
	300 3699.68 100
	300 3699.68 300
	-300 3899.68 -300
	-300 3899.68 -100
	-300 3899.68 100
	-300 3899.68 300
	-100 3899.68 -300
	-100 3899.68 -100
	-100 3899.68 100
	-100 3899.68 300
	100 3899.68 -300
	100 3899.68 -100
	100 3899.68 100
	100 3899.68 300
	300 3899.68 -300
	300 3899.68 -100
	300 3899.68 100
	300 3899.68 300
	-300 4099.68 -300
	-300 4099.68 -100
	-300 4099.68 100
	-300 4099.68 300
	-100 4099.68 -300
	-100 4099.68 -100
	-100 4099.68 100
	-100 4099.68 300
	100 4099.68 -300
	100 4099.68 -100
	100 4099.68 100
	100 4099.68 300
	300 4099.68 -300
	300 4099.68 -100
	300 4099.68 100
	300 4099.68 300
	-300 4299.68 -300
	-300 4299.68 -100
	-300 4299.68 100
	-300 4299.68 300
	-100 4299.68 -300
	-100 4299.68 -100
	-100 4299.68 100
	-100 4299.68 300
	100 4299.68 -300
	100 4299.68 -100
	100 4299.68 100
	100 4299.68 300
	300 4299.68 -300
	300 4299.68 -100
	300 4299.68 100
	300 4299.68 300
	-300 4499.68 -300
	-300 4499.68 -100
	-300 4499.68 100
	-300 4499.68 300
	-100 4499.68 -300
	-100 4499.68 -100
	-100 4499.68 100
	-100 4499.68 300
	100 4499.68 -300
	100 4499.68 -100
	100 4499.68 100
	100 4499.68 300
	300 4499.68 -300
	300 4499.68 -100
	300 4499.68 100
	300 4499.68 300
	-300 4699.69 -300
	-300 4699.69 -100
	-300 4699.69 100
	-300 4699.69 300
	-100 4699.69 -300
	-100 4699.69 -100
	-100 4699.69 100
	-100 4699.69 300
	100 4699.69 -300
	100 4699.69 -100
	100 4699.69 100
	100 4699.69 300
	300 4699.69 -300
	300 4699.69 -100
	300 4699.69 100
	300 4699.69 300
	-300 4899.69 -300
	-300 4899.69 -100
	-300 4899.69 100
	-300 4899.69 300
	-100 4899.69 -300
	-100 4899.69 -100
	-100 4899.69 100
	-100 4899.69 300
	100 4899.69 -300
	100 4899.69 -100
	100 4899.69 100
	100 4899.69 300
	300 4899.69 -300
	300 4899.69 -100
	300 4899.69 100
	300 4899.69 300
	-300 5099.7 -300
	-300 5099.7 -100
	-300 5099.7 100
	-300 5099.7 300
	-100 5099.7 -300
	-100 5099.7 -100
	-100 5099.7 100
	-100 5099.7 300
	100 5099.7 -300
	100 5099.7 -100
	100 5099.7 100
	100 5099.7 300
	300 5099.7 -300
	300 5099.7 -100
	300 5099.7 100
	300 5099.7 300
	-300 5299.7 -300
	-300 5299.7 -100
	-300 5299.7 100
	-300 5299.7 300
	-100 5299.7 -300
	-100 5299.7 -100
	-100 5299.7 100
	-100 5299.7 300
	100 5299.7 -300
	100 5299.7 -100
	100 5299.7 100
	100 5299.7 300
	300 5299.7 -300
	300 5299.7 -100
	300 5299.7 100
	300 5299.7 300
	-300 5499.7 -300
	-300 5499.7 -100
	-300 5499.7 100
	-300 5499.7 300
	-100 5499.7 -300
	-100 5499.7 -100
	-100 5499.7 100
	-100 5499.7 300
	100 5499.7 -300
	100 5499.7 -100
	100 5499.7 100
	100 5499.7 300
	300 5499.7 -300
	300 5499.7 -100
	300 5499.7 100
	300 5499.7 300
	-300 5699.7 -300
	-300 5699.7 -100
	-300 5699.7 100
	-300 5699.7 300
	-100 5699.7 -300
	-100 5699.7 -100
	-100 5699.7 100
	-100 5699.7 300
	100 5699.7 -300
	100 5699.7 -100
	100 5699.7 100
	100 5699.7 300
	300 5699.7 -300
	300 5699.7 -100
	300 5699.7 100
	300 5699.7 300
	-300 5899.71 -300
	-300 5899.71 -100
	-300 5899.71 100
	-300 5899.71 300
	-100 5899.71 -300
	-100 5899.71 -100
	-100 5899.71 100
	-100 5899.71 300
	100 5899.71 -300
	100 5899.71 -100
	100 5899.71 100
	100 5899.71 300
	300 5899.71 -300
	300 5899.71 -100
	300 5899.71 100
	300 5899.71 300
	-300 6099.73 -300
	-300 6099.73 -100
	-300 6099.73 100
	-300 6099.73 300
	-100 6099.73 -300
	-100 6099.73 -100
	-100 6099.73 100
	-100 6099.73 300
	100 6099.73 -300
	100 6099.73 -100
	100 6099.73 100
	100 6099.73 300
	300 6099.73 -300
	300 6099.73 -100
	300 6099.73 100
	300 6099.73 300
	-300 6299.74 -300
	-300 6299.74 -100
	-300 6299.74 100
	-300 6299.74 300
	-100 6299.74 -300
	-100 6299.74 -100
	-100 6299.74 100
	-100 6299.74 300
	100 6299.74 -300
	100 6299.74 -100
	100 6299.74 100
	100 6299.74 300
	300 6299.74 -300
	300 6299.74 -100
	300 6299.74 100
	300 6299.74 300
	-300 6499.75 -300
	-300 6499.75 -100
	-300 6499.75 100
	-300 6499.75 300
	-100 6499.75 -300
	-100 6499.75 -100
	-100 6499.75 100
	-100 6499.75 300
	100 6499.75 -300
	100 6499.75 -100
	100 6499.75 100
	100 6499.75 300
	300 6499.75 -300
	300 6499.75 -100
	300 6499.75 100
	300 6499.75 300
	-300 6699.77 -300
	-300 6699.77 -100
	-300 6699.77 100
	-300 6699.77 300
	-100 6699.77 -300
	-100 6699.77 -100
	-100 6699.77 100
	-100 6699.77 300
	100 6699.77 -300
	100 6699.77 -100
	100 6699.77 100
	100 6699.77 300
	300 6699.77 -300
	300 6699.77 -100
	300 6699.77 100
	300 6699.77 300
	-300 6899.78 -300
	-300 6899.78 -100
	-300 6899.78 100
	-300 6899.78 300
	-100 6899.78 -300
	-100 6899.78 -100
	-100 6899.78 100
	-100 6899.78 300
	100 6899.78 -300
	100 6899.78 -100
	100 6899.78 100
	100 6899.78 300
	300 6899.78 -300
	300 6899.78 -100
	300 6899.78 100
	300 6899.78 300
	-300 7099.79 -300
	-300 7099.79 -100
	-300 7099.79 100
	-300 7099.79 300
	-100 7099.79 -300
	-100 7099.79 -100
	-100 7099.79 100
	-100 7099.79 300
	100 7099.79 -300
	100 7099.79 -100
	100 7099.79 100
	100 7099.79 300
	300 7099.79 -300
	300 7099.79 -100
	300 7099.79 100
	300 7099.79 300
	-300 7299.79 -300
	-300 7299.79 -100
	-300 7299.79 100
	-300 7299.79 300
	-100 7299.79 -300
	-100 7299.79 -100
	-100 7299.79 100
	-100 7299.79 300
	100 7299.79 -300
	100 7299.79 -100
	100 7299.79 100
	100 7299.79 300
	300 7299.79 -300
	300 7299.79 -100
	300 7299.79 100
	300 7299.79 300
	-300 7499.79 -300
	-300 7499.79 -100
	-300 7499.79 100
	-300 7499.79 300
	-100 7499.79 -300
	-100 7499.79 -100
	-100 7499.79 100
	-100 7499.79 300
	100 7499.79 -300
	100 7499.79 -100
	100 7499.79 100
	100 7499.79 300
	300 7499.79 -300
	300 7499.79 -100
	300 7499.79 100
	300 7499.79 300
	-300 7699.8 -300
	-300 7699.8 -100
	-300 7699.8 100
	-300 7699.8 300
	-100 7699.8 -300
	-100 7699.8 -100
	-100 7699.8 100
	-100 7699.8 300
	100 7699.8 -300
	100 7699.8 -100
	100 7699.8 100
	100 7699.8 300
	300 7699.8 -300
	300 7699.8 -100
	300 7699.8 100
	300 7699.8 300
	-300 7899.8 -300
	-300 7899.8 -100
	-300 7899.8 100
	-300 7899.8 300
	-100 7899.8 -300
	-100 7899.8 -100
	-100 7899.8 100
	-100 7899.8 300
	100 7899.8 -300
	100 7899.8 -100
	100 7899.8 100
	100 7899.8 300
	300 7899.8 -300
	300 7899.8 -100
	300 7899.8 100
	300 7899.8 300
	-300 8099.8 -300
	-300 8099.8 -100
	-300 8099.8 100
	-300 8099.8 300
	-100 8099.8 -300
	-100 8099.8 -100
	-100 8099.8 100
	-100 8099.8 300
	100 8099.8 -300
	100 8099.8 -100
	100 8099.8 100
	100 8099.8 300
	300 8099.8 -300
	300 8099.8 -100
	300 8099.8 100
	300 8099.8 300
	-300 8299.8 -300
	-300 8299.8 -100
	-300 8299.8 100
	-300 8299.8 300
	-100 8299.8 -300
	-100 8299.8 -100
	-100 8299.8 100
	-100 8299.8 300
	100 8299.8 -300
	100 8299.8 -100
	100 8299.8 100
	100 8299.8 300
	300 8299.8 -300
	300 8299.8 -100
	300 8299.8 100
	300 8299.8 300
	-300 8499.81 -300
	-300 8499.81 -100
	-300 8499.81 100
	-300 8499.81 300
	-100 8499.81 -300
	-100 8499.81 -100
	-100 8499.81 100
	-100 8499.81 300
	100 8499.81 -300
	100 8499.81 -100
	100 8499.81 100
	100 8499.81 300
	300 8499.81 -300
	300 8499.81 -100
	300 8499.81 100
	300 8499.81 300
	-300 8699.81 -300
	-300 8699.81 -100
	-300 8699.81 100
	-300 8699.81 300
	-100 8699.81 -300
	-100 8699.81 -100
	-100 8699.81 100
	-100 8699.81 300
	100 8699.81 -300
	100 8699.81 -100
	100 8699.81 100
	100 8699.81 300
	300 8699.81 -300
	300 8699.81 -100
	300 8699.81 100
	300 8699.81 300
	-300 8899.82 -300
	-300 8899.82 -100
	-300 8899.82 100
	-300 8899.82 300
	-100 8899.82 -300
	-100 8899.82 -100
	-100 8899.82 100
	-100 8899.82 300
	100 8899.82 -300
	100 8899.82 -100
	100 8899.82 100
	100 8899.82 300
	300 8899.82 -300
	300 8899.82 -100
	300 8899.82 100
	300 8899.82 300
	-300 9099.82 -300
	-300 9099.82 -100
	-300 9099.82 100
	-300 9099.82 300
	-100 9099.82 -300
	-100 9099.82 -100
	-100 9099.82 100
	-100 9099.82 300
	100 9099.82 -300
	100 9099.82 -100
	100 9099.82 100
	100 9099.82 300
	300 9099.82 -300
	300 9099.82 -100
	300 9099.82 100
	300 9099.82 300
	-300 9299.83 -300
	-300 9299.83 -100
	-300 9299.83 100
	-300 9299.83 300
	-100 9299.83 -300
	-100 9299.83 -100
	-100 9299.83 100
	-100 9299.83 300
	100 9299.83 -300
	100 9299.83 -100
	100 9299.83 100
	100 9299.83 300
	300 9299.83 -300
	300 9299.83 -100
	300 9299.83 100
	300 9299.83 300
	-300 9499.83 -300
	-300 9499.83 -100
	-300 9499.83 100
	-300 9499.83 300
	-100 9499.83 -300
	-100 9499.83 -100
	-100 9499.83 100
	-100 9499.83 300
	100 9499.83 -300
	100 9499.83 -100
	100 9499.83 100
	100 9499.83 300
	300 9499.83 -300
	300 9499.83 -100
	300 9499.83 100
	300 9499.83 300
	-300 9699.84 -300
	-300 9699.84 -100
	-300 9699.84 100
	-300 9699.84 300
	-100 9699.84 -300
	-100 9699.84 -100
	-100 9699.84 100
	-100 9699.84 300
	100 9699.84 -300
	100 9699.84 -100
	100 9699.84 100
	100 9699.84 300
	300 9699.84 -300
	300 9699.84 -100
	300 9699.84 100
	300 9699.84 300
	-300 9899.85 -300
	-300 9899.85 -100
	-300 9899.85 100
	-300 9899.85 300
	-100 9899.85 -300
	-100 9899.85 -100
	-100 9899.85 100
	-100 9899.85 300
	100 9899.85 -300
	100 9899.85 -100
	100 9899.85 100
	100 9899.85 300
	300 9899.85 -300
	300 9899.85 -100
	300 9899.85 100
	300 9899.85 300
	-300 10099.9 -300
	-300 10099.9 -100
	-300 10099.9 100
	-300 10099.9 300
	-100 10099.9 -300
	-100 10099.9 -100
	-100 10099.9 100
	-100 10099.9 300
	100 10099.9 -300
	100 10099.9 -100
	100 10099.9 100
	100 10099.9 300
	300 10099.9 -300
	300 10099.9 -100
	300 10099.9 100
	300 10099.9 300
	-300 10299.9 -300
	-300 10299.9 -100
	-300 10299.9 100
	-300 10299.9 300
	-100 10299.9 -300
	-100 10299.9 -100
	-100 10299.9 100
	-100 10299.9 300
	100 10299.9 -300
	100 10299.9 -100
	100 10299.9 100
	100 10299.9 300
	300 10299.9 -300
	300 10299.9 -100
	300 10299.9 100
	300 10299.9 300
	-300 10499.9 -300
	-300 10499.9 -100
	-300 10499.9 100
	-300 10499.9 300
	-100 10499.9 -300
	-100 10499.9 -100
	-100 10499.9 100
	-100 10499.9 300
	100 10499.9 -300
	100 10499.9 -100
	100 10499.9 100
	100 10499.9 300
	300 10499.9 -300
	300 10499.9 -100
	300 10499.9 100
	300 10499.9 300
	-300 10699.9 -300
	-300 10699.9 -100
	-300 10699.9 100
	-300 10699.9 300
	-100 10699.9 -300
	-100 10699.9 -100
	-100 10699.9 100
	-100 10699.9 300
	100 10699.9 -300
	100 10699.9 -100
	100 10699.9 100
	100 10699.9 300
	300 10699.9 -300
	300 10699.9 -100
	300 10699.9 100
	300 10699.9 300
	-300 10899.9 -300
	-300 10899.9 -100
	-300 10899.9 100
	-300 10899.9 300
	-100 10899.9 -300
	-100 10899.9 -100
	-100 10899.9 100
	-100 10899.9 300
	100 10899.9 -300
	100 10899.9 -100
	100 10899.9 100
	100 10899.9 300
	300 10899.9 -300
	300 10899.9 -100
	300 10899.9 100
	300 10899.9 300
	-300 11099.9 -300
	-300 11099.9 -100
	-300 11099.9 100
	-300 11099.9 300
	-100 11099.9 -300
	-100 11099.9 -100
	-100 11099.9 100
	-100 11099.9 300
	100 11099.9 -300
	100 11099.9 -100
	100 11099.9 100
	100 11099.9 300
	300 11099.9 -300
	300 11099.9 -100
	300 11099.9 100
	300 11099.9 300
	-300 11299.9 -300
	-300 11299.9 -100
	-300 11299.9 100
	-300 11299.9 300
	-100 11299.9 -300
	-100 11299.9 -100
	-100 11299.9 100
	-100 11299.9 300
	100 11299.9 -300
	100 11299.9 -100
	100 11299.9 100
	100 11299.9 300
	300 11299.9 -300
	300 11299.9 -100
	300 11299.9 100
	300 11299.9 300
	-300 11499.9 -300
	-300 11499.9 -100
	-300 11499.9 100
	-300 11499.9 300
	-100 11499.9 -300
	-100 11499.9 -100
	-100 11499.9 100
	-100 11499.9 300
	100 11499.9 -300
	100 11499.9 -100
	100 11499.9 100
	100 11499.9 300
	300 11499.9 -300
	300 11499.9 -100
	300 11499.9 100
	300 11499.9 300
	-300 11699.9 -300
	-300 11699.9 -100
	-300 11699.9 100
	-300 11699.9 300
	-100 11699.9 -300
	-100 11699.9 -100
	-100 11699.9 100
	-100 11699.9 300
	100 11699.9 -300
	100 11699.9 -100
	100 11699.9 100
	100 11699.9 300
	300 11699.9 -300
	300 11699.9 -100
	300 11699.9 100
	300 11699.9 300
	-300 11900 -300
	-300 11900 -100
	-300 11900 100
	-300 11900 300
	-100 11900 -300
	-100 11900 -100
	-100 11900 100
	-100 11900 300
	100 11900 -300
	100 11900 -100
	100 11900 100
	100 11900 300
	300 11900 -300
	300 11900 -100
	300 11900 100
	300 11900 300
	-300 12100 -300
	-300 12100 -100
	-300 12100 100
	-300 12100 300
	-100 12100 -300
	-100 12100 -100
	-100 12100 100
	-100 12100 300
	100 12100 -300
	100 12100 -100
	100 12100 100
	100 12100 300
	300 12100 -300
	300 12100 -100
	300 12100 100
	300 12100 300
	-300 12300 -300
	-300 12300 -100
	-300 12300 100
	-300 12300 300
	-100 12300 -300
	-100 12300 -100
	-100 12300 100
	-100 12300 300
	100 12300 -300
	100 12300 -100
	100 12300 100
	100 12300 300
	300 12300 -300
	300 12300 -100
	300 12300 100
	300 12300 300
	-300 12500 -300
	-300 12500 -100
	-300 12500 100
	-300 12500 300
	-100 12500 -300
	-100 12500 -100
	-100 12500 100
	-100 12500 300
	100 12500 -300
	100 12500 -100
	100 12500 100
	100 12500 300
	300 12500 -300
	300 12500 -100
	300 12500 100
	300 12500 300
	-300 12700.1 -300
	-300 12700.1 -100
	-300 12700.1 100
	-300 12700.1 300
	-100 12700.1 -300
	-100 12700.1 -100
	-100 12700.1 100
	-100 12700.1 300
	100 12700.1 -300
	100 12700.1 -100
	100 12700.1 100
	100 12700.1 300
	300 12700.1 -300
	300 12700.1 -100
	300 12700.1 100
	300 12700.1 300
	-300 12900.1 -300
	-300 12900.1 -100
	-300 12900.1 100
	-300 12900.1 300
	-100 12900.1 -300
	-100 12900.1 -100
	-100 12900.1 100
	-100 12900.1 300
	100 12900.1 -300
	100 12900.1 -100
	100 12900.1 100
	100 12900.1 300
	300 12900.1 -300
	300 12900.1 -100
	300 12900.1 100
	300 12900.1 300
	-300 13100.2 -300
	-300 13100.2 -100
	-300 13100.2 100
	-300 13100.2 300
	-100 13100.2 -300
	-100 13100.2 -100
	-100 13100.2 100
	-100 13100.2 300
	100 13100.2 -300
	100 13100.2 -100
	100 13100.2 100
	100 13100.2 300
	300 13100.2 -300
	300 13100.2 -100
	300 13100.2 100
	300 13100.2 300
	-300 13300.2 -300
	-300 13300.2 -100
	-300 13300.2 100
	-300 13300.2 300
	-100 13300.2 -300
	-100 13300.2 -100
	-100 13300.2 100
	-100 13300.2 300
	100 13300.2 -300
	100 13300.2 -100
	100 13300.2 100
	100 13300.2 300
	300 13300.2 -300
	300 13300.2 -100
	300 13300.2 100
	300 13300.2 300
	-300 13500.4 -300
	-300 13500.4 -100
	-300 13500.4 100
	-300 13500.4 300
	-100 13500.4 -300
	-100 13500.4 -100
	-100 13500.4 100
	-100 13500.4 300
	100 13500.4 -300
	100 13500.4 -100
	100 13500.4 100
	100 13500.4 300
	300 13500.4 -300
	300 13500.4 -100
	300 13500.4 100
	300 13500.4 300
	-300 13700.6 -300
	-300 13700.6 -100
	-300 13700.6 100
	-300 13700.6 300
	-100 13700.6 -300
	-100 13700.6 -100
	-100 13700.6 100
	-100 13700.6 300
	100 13700.6 -300
	100 13700.6 -100
	100 13700.6 100
	100 13700.6 300
	300 13700.6 -300
	300 13700.6 -100
	300 13700.6 100
	300 13700.6 300
	-300 13901.2 -300
	-300 13901.2 -100
	-300 13901.2 100
	-300 13901.2 300
	-100 13901.2 -300
	-100 13901.2 -100
	-100 13901.2 100
	-100 13901.2 300
	100 13901.2 -300
	100 13901.2 -100
	100 13901.2 100
	100 13901.2 300
	300 13901.2 -300
	300 13901.2 -100
	300 13901.2 100
	300 13901.2 300
  </DataArray>
</Points>
<PointData  Vectors="vector">
  <DataArray type="Float32" Name="Velocity" NumberOfComponents="3" format="ascii">
 1.54442e-12 -0.000842072 -4.83919e-12
 3.28058e-12 -0.000842072 7.77329e-12
 2.18305e-12 -0.000842072 2.41572e-12
 1.30497e-12 -0.000842072 7.83253e-13
 4.20006e-12 -0.000842072 1.27407e-12
 9.32673e-12 -0.000842072 7.09766e-12
 1.34254e-11 -0.000842072 5.76338e-12
 2.11814e-11 -0.000842072 -1.72255e-12
 3.40964e-12 -0.000842072 -1.50275e-12
 8.08204e-12 -0.000842072 1.27626e-11
 1.06567e-11 -0.000842072 7.72821e-12
 1.80439e-11 -0.000842072 -1.05084e-12
 1.03995e-12 -0.000842072 2.84386e-12
 -3.28045e-13 -0.000842072 1.99206e-11
 -5.26441e-13 -0.000842072 1.60631e-11
 1.94248e-12 -0.000842072 -5.21461e-13
 1.33951e-12 -0.00131509 -2.68423e-12
 -2.51926e-12 -0.00131509 1.83112e-11
 -4.33135e-12 -0.00131509 1.33536e-11
 -5.66308e-12 -0.00131509 7.94212e-13
 1.17526e-11 -0.00131509 -4.45303e-12
 1.1616e-11 -0.00131509 1.35975e-11
 7.62914e-12 -0.00131509 1.41747e-11
 7.99712e-12 -0.00131509 1.52471e-12
 1.36837e-11 -0.00131509 -5.915e-12
 1.50612e-11 -0.00131509 1.09228e-11
 1.14419e-11 -0.00131509 1.51763e-12
 1.11348e-11 -0.00131509 5.16416e-12
 -5.36101e-13 -0.00131509 -1.14944e-11
 8.34681e-13 -0.00131509 8.3912e-12
 -3.13031e-12 -0.00131509 2.11891e-11
 -2.58243e-12 -0.00131509 -3.98079e-12
 -1.13612e-12 -0.00133326 -3.56325e-12
 -5.66689e-12 -0.00133326 1.32023e-11
 -7.03824e-12 -0.00133326 2.24459e-11
 -8.54749e-12 -0.00133326 5.85503e-13
 4.32526e-12 -0.00133326 -3.78194e-12
 4.6648e-12 -0.00133326 9.37358e-12
 2.29219e-12 -0.00133326 1.84831e-11
 9.76396e-14 -0.00133326 1.70802e-13
 8.72095e-12 -0.00133326 -7.04078e-12
 1.14792e-11 -0.00133326 6.00236e-12
 4.77073e-12 -0.00133326 1.82863e-11
 6.83845e-12 -0.00133326 -1.96509e-12
 -3.00567e-12 -0.00133326 4.75841e-13
 -4.20704e-12 -0.00133326 9.267e-12
 -2.84818e-12 -0.00133326 4.50295e-12
 -6.61905e-12 -0.00133326 8.79862e-13
 -6.36874e-12 -0.00115928 -2.68798e-13
 1.47933e-12 -0.00115928 5.65017e-12
 1.22121e-12 -0.00115928 1.01113e-12
 -3.93459e-12 -0.00115928 -1.32707e-12
 -5.9218e-13 -0.00115928 -1.94143e-12
 1.50223e-13 -0.00115928 3.91795e-12
 -4.71574e-13 -0.00115928 3.34797e-12
 -4.13139e-13 -0.00115928 -2.62381e-12
 4.58449e-12 -0.00115928 -1.3029e-12
 -2.40739e-12 -0.00115928 4.08963e-12
 -2.17933e-12 -0.00115928 2.39964e-12
 3.38061e-12 -0.00115928 -2.79928e-12
 -4.48137e-12 -0.00115928 -2.97827e-12
 -4.3017e-12 -0.00115928 5.04062e-12
 -4.03487e-12 -0.00115928 8.62406e-12
 -3.19912e-12 -0.00115928 -2.67533e-12
 -6.84631e-14 -0.00121252 -1.46933e-12
 -1.18886e-12 -0.00121251 1.67194e-12
 1.49046e-13 -0.00121251 5.04526e-13
 1.22623e-12 -0.00121251 1.56466e-12
 -1.63214e-12 -0.00121251 -1.83384e-12
 -3.31051e-13 -0.00121251 3.19844e-12
 2.44724e-12 -0.00121251 2.09223e-12
 3.16752e-12 -0.00121251 1.49073e-12
 -3.64132e-12 -0.00121251 -8.64336e-13
 6.91017e-13 -0.00121251 2.36079e-12
 1.16235e-12 -0.00121251 5.14455e-12
 2.72057e-12 -0.00121251 1.10792e-12
 -1.8612e-12 -0.00121251 -1.37476e-12
 -2.17254e-13 -0.00121251 5.03507e-12
 -1.91508e-12 -0.00121251 9.58863e-12
 3.73908e-14 -0.00121252 3.44154e-12
 -4.43221e-12 -0.00172509 -3.91931e-12
 -1.21885e-12 -0.00172509 -1.57321e-12
 -2.99277e-12 -0.00172509 -6.58707e-12
 8.2962e-13 -0.00172509 -1.28019e-13
 -5.30722e-12 -0.00172509 -9.36098e-14
 -3.37261e-12 -0.00172509 -4.47432e-12
 -3.29789e-12 -0.00172509 -6.18686e-12
 -2.1759e-12 -0.00172509 1.59384e-12
 -8.10717e-12 -0.00172509 -3.92593e-12
 -1.50366e-12 -0.00172509 2.51073e-12
 -1.52073e-12 -0.00172509 -3.75526e-12
 4.8918e-13 -0.00172509 5.4936e-13
 2.67186e-12 -0.0017251 2.50504e-12
 -2.94307e-12 -0.00172509 -1.40472e-12
 3.39979e-12 -0.00172509 4.37601e-13
 1.5293e-12 -0.00172509 1.98753e-12
 -1.42342e-13 -2.60675e-05 -2.67805e-12
 2.10561e-12 -2.60675e-05 -4.65878e-12
 2.04855e-12 -2.60675e-05 -6.98519e-12
 1.07861e-12 -2.60676e-05 -2.10574e-12
 -4.45748e-12 -2.60676e-05 -8.8008e-14
 -4.49703e-12 -2.60676e-05 -6.64481e-12
 -3.20507e-12 -2.60675e-05 -5.93082e-12
 -2.25407e-12 -2.60675e-05 -1.79174e-12
 -3.52745e-12 -2.60677e-05 -6.49834e-13
 -1.60737e-12 -2.60676e-05 -4.55519e-12
 -6.57949e-14 -2.60676e-05 -5.16225e-12
 2.35147e-12 -2.60676e-05 -7.97713e-13
 2.67039e-12 -2.60676e-05 1.73492e-14
 2.76641e-12 -2.60674e-05 -4.22483e-12
 3.31275e-12 -2.60674e-05 -2.10484e-12
 3.6642e-12 -2.60672e-05 9.033e-14
 -7.27818e-13 -0.000598422 -1.92699e-13
 7.72166e-13 -0.000598422 -2.68462e-12
 6.79352e-13 -0.000598422 -1.31869e-12
 5.98591e-13 -0.000598422 1.76972e-12
 -5.47957e-12 -0.000598422 -1.15854e-12
 -4.09483e-12 -0.000598422 -2.94647e-12
 -4.63085e-12 -0.000598422 -8.16635e-13
 -5.23876e-12 -0.000598422 1.57479e-12
 -3.21904e-12 -0.000598422 -1.92799e-12
 -3.39489e-12 -0.000598422 -3.27863e-12
 -3.35673e-12 -0.000598422 -9.8503e-13
 -3.68454e-12 -0.000598422 2.30656e-12
 2.55756e-12 -0.000598422 6.39559e-13
 1.00304e-12 -0.000598422 -3.00194e-12
 1.11587e-12 -0.000598422 -2.04612e-12
 1.22935e-12 -0.000598422 1.49309e-12
 3.24619e-13 -0.000335469 -3.90123e-13
 5.55319e-13 -0.000335469 -8.03255e-13
 -5.70052e-13 -0.000335469 -1.3568e-13
 -6.82106e-13 -0.000335469 5.61563e-13
 -5.23609e-12 -0.000335469 -7.09281e-13
 -4.96286e-12 -0.000335469 -1.57075e-12
 -4.6555e-12 -0.000335469 -1.04117e-13
 -3.41523e-12 -0.000335469 4.23714e-13
 -3.19108e-12 -0.000335469 -1.50663e-12
 -2.17328e-12 -0.000335469 -2.73861e-12
 -3.07336e-12 -0.000335469 -9.98903e-13
 -4.27491e-12 -0.000335469 7.82714e-13
 2.76204e-12 -0.000335469 -1.67115e-12
 8.61131e-13 -0.000335469 -3.596e-12
 1.17442e-13 -0.000335469 -2.53646e-12
 -1.58931e-12 -0.000335469 2.21162e-12
 9.92481e-13 -0.00097472 -8.35317e-14
 2.89887e-13 -0.00097472 -2.67407e-13
 -5.39981e-12 -0.00097472 1.22622e-12
 -4.50392e-13 -0.00097472 1.3356e-12
 -4.08969e-12 -0.000974719 -8.03167e-13
 -3.43089e-12 -0.00097472 2.88372e-13
 7.32837e-13 -0.00097472 2.04319e-12
 -3.15242e-12 -0.00097472 1.3416e-12
 -1.64977e-12 -0.000974719 -4.1256e-13
 -2.08073e-12 -0.000974719 1.37552e-12
 -2.44422e-12 -0.00097472 -8.39876e-13
 -2.49994e-12 -0.00097472 1.01858e-12
 1.60252e-12 -0.000974719 -2.04957e-12
 2.59818e-12 -0.00097472 7.29654e-13
 2.7567e-12 -0.00097472 -2.24873e-12
 9.64708e-13 -0.00097472 3.73784e-12
 -1.6242e-13 -0.00192145 7.61554e-13
 7.85204e-14 -0.00192145 2.18471e-12
 -3.10943e-13 -0.00192145 -2.50594e-13
 -1.37337e-13 -0.00192145 1.82599e-12
 -4.49513e-12 -0.00192145 -2.05719e-13
 -3.04298e-12 -0.00192145 1.08165e-12
 -3.58293e-12 -0.00192145 3.24987e-12
 -1.74426e-12 -0.00192145 1.73812e-12
 -1.81698e-12 -0.00192145 1.80676e-13
 -1.44785e-12 -0.00192145 2.30069e-12
 -1.80274e-12 -0.00192145 2.30169e-12
 -1.91131e-12 -0.00192145 1.28238e-13
 2.44374e-12 -0.00192145 -1.0797e-12
 1.04936e-12 -0.00192145 1.87639e-12
 1.38057e-12 -0.00192145 2.43608e-12
 -6.05008e-13 -0.00192145 9.19459e-13
 -2.22696e-13 -0.00279124 -1.70819e-12
 -2.29848e-13 -0.00279124 1.97165e-13
 -4.31595e-13 -0.00279124 6.40355e-13
 -7.86322e-13 -0.00279124 7.36839e-13
 -2.84863e-12 -0.00279124 -8.64808e-13
 -1.64288e-12 -0.00279124 4.3551e-13
 -2.24505e-12 -0.00279124 1.09126e-12
 -1.57356e-12 -0.00279124 7.19008e-13
 -6.24833e-13 -0.00279124 -9.08292e-13
 -6.93532e-13 -0.00279124 3.88522e-14
 -6.25728e-13 -0.00279124 1.15307e-12
 -5.92478e-13 -0.00279124 6.07367e-13
 1.52379e-12 -0.00279124 -1.60888e-12
 6.96279e-13 -0.00279124 -1.60365e-13
 9.31317e-13 -0.00279124 1.91503e-12
 1.44721e-12 -0.00279124 4.20374e-13
 -8.27429e-13 -0.00258326 -1.19695e-12
 -7.36731e-13 -0.00258326 6.66177e-13
 -7.37325e-13 -0.00258326 5.41165e-13
 -8.67138e-13 -0.00258326 8.33909e-13
 -2.88422e-13 -0.00258326 -5.95463e-13
 -5.13766e-13 -0.00258326 5.57872e-14
 -6.74217e-13 -0.00258326 8.82893e-13
 -4.88576e-13 -0.00258326 1.32004e-12
 -1.27692e-12 -0.00258326 -1.73896e-13
 -2.28107e-12 -0.00258326 -2.64019e-13
 -2.29195e-12 -0.00258326 1.15946e-12
 -9.7191e-13 -0.00258326 1.21855e-12
 4.21663e-13 -0.00258326 -9.32974e-13
 1.20841e-12 -0.00258326 1.70781e-12
 1.64978e-12 -0.00258326 -3.26656e-13
 1.08813e-12 -0.00258326 1.16438e-12
 -9.89121e-13 -0.00243929 -5.32193e-13
 -1.20473e-12 -0.00243929 -2.06506e-13
 -8.38126e-13 -0.00243929 1.43672e-12
 -1.10676e-12 -0.00243929 3.93816e-13
 -2.27528e-14 -0.00243929 -1.11361e-12
 -8.74491e-13 -0.00243929 -5.72105e-13
 -1.19531e-12 -0.00243929 1.82866e-12
 -1.26961e-12 -0.00243929 2.85807e-13
 -7.30627e-13 -0.00243929 -2.59115e-12
 9.90008e-13 -0.00243929 -7.9179e-14
 2.99499e-13 -0.00243929 1.53669e-12
 3.7605e-13 -0.00243929 9.26798e-13
 2.04553e-12 -0.00243929 -1.21619e-12
 -3.90775e-13 -0.00243929 -1.47968e-12
 -3.88669e-13 -0.00243929 9.48947e-13
 -3.61227e-13 -0.00243929 2.26328e-13
 -1.13243e-12 -0.00244699 -8.86662e-13
 -9.11143e-13 -0.00244699 -3.51243e-13
 -9.24064e-13 -0.00244699 1.60472e-12
 -1.36834e-12 -0.00244699 7.43282e-13
 1.14889e-13 -0.00244699 -1.1568e-12
 -7.16052e-13 -0.00244699 -6.96796e-13
 -9.55402e-13 -0.00244699 1.14699e-12
 -1.71793e-12 -0.00244699 6.06189e-13
 1.48742e-12 -0.00244699 -1.18957e-12
 8.26918e-14 -0.00244699 -9.91538e-13
 -5.91134e-13 -0.00244699 9.17176e-13
 -7.59419e-14 -0.00244699 5.42628e-13
 -1.39802e-13 -0.00244699 -1.36158e-12
 -3.04513e-13 -0.00244699 -1.63552e-12
 -4.61976e-15 -0.00244699 3.85219e-13
 5.57499e-14 -0.00244699 3.38773e-13
 -1.07543e-12 -0.00188252 -2.2843e-13
 -1.13182e-12 -0.00188252 1.78087e-12
 -1.39132e-12 -0.00188252 3.7138e-16
 -1.36082e-12 -0.00188252 2.34156e-12
 -2.21975e-13 -0.00188252 -3.99834e-13
 -1.16752e-12 -0.00188252 1.45991e-12
 2.01474e-13 -0.00188252 9.12777e-14
 -2.72256e-13 -0.00188252 1.68534e-12
 -3.67352e-13 -0.00188252 -3.44769e-13
 2.08181e-13 -0.00188252 8.54089e-13
 -1.12636e-12 -0.00188252 1.13089e-12
 -1.5212e-12 -0.00188252 5.39716e-13
 1.78982e-12 -0.00188252 -9.46881e-13
 5.04805e-13 -0.00188252 8.574e-13
 6.33682e-14 -0.00188252 4.98383e-13
 3.903e-14 -0.00188252 2.94706e-13
 -1.33939e-12 -0.00207282 -9.07535e-13
 -5.18715e-13 -0.00207282 8.44257e-13
 -6.58659e-13 -0.00207282 2.12933e-12
 -9.74901e-13 -0.00207282 1.73032e-12
 1.10963e-12 -0.00207282 -2.68444e-13
 -4.00416e-13 -0.00207282 6.34999e-13
 -1.16698e-12 -0.00207282 1.01052e-12
 -7.833e-13 -0.00207282 1.52161e-12
 -1.16498e-13 -0.00207282 -3.4182e-13
 -1.56182e-12 -0.00207282 4.58613e-13
 -1.22866e-12 -0.00207282 4.16735e-13
 -2.08867e-12 -0.00207282 1.56191e-12
 8.98132e-14 -0.00207282 -5.81037e-13
 9.14098e-13 -0.00207282 -1.23303e-13
 6.93451e-13 -0.00207282 4.77158e-13
 5.66829e-13 -0.00207282 1.01583e-12
 -1.37159e-12 -0.00206368 1.19652e-13
 -1.88235e-12 -0.00206368 8.01127e-13
 -1.98014e-12 -0.00206368 1.53728e-12
 -1.89763e-12 -0.00206368 2.02683e-12
 -2.03589e-13 -0.00206368 -4.30933e-13
 -7.30123e-13 -0.00206368 9.09511e-13
 -3.00745e-14 -0.00206368 2.05455e-12
 -8.2475e-13 -0.00206368 1.39804e-12
 -1.07382e-12 -0.00206368 4.95283e-14
 -2.73341e-13 -0.00206368 3.31648e-13
 -1.33149e-12 -0.00206368 1.65038e-12
 -7.52429e-13 -0.00206368 1.38974e-12
 1.31604e-12 -0.00206368 -3.44576e-13
 9.10421e-13 -0.00206368 4.85675e-13
 8.82143e-13 -0.00206368 1.14888e-12
 3.5832e-13 -0.00206368 1.41937e-12
 -1.36183e-12 -0.00190058 2.14546e-14
 -7.52555e-13 -0.00190058 1.62506e-13
 -8.80373e-13 -0.00190058 1.32628e-12
 -1.00887e-12 -0.00190058 1.38495e-12
 -1.36204e-13 -0.00190058 -7.75255e-14
 -4.34307e-13 -0.00190058 3.19398e-14
 -4.42088e-13 -0.00190058 1.48284e-12
 1.20609e-13 -0.00190058 1.58996e-12
 -9.72754e-13 -0.00190058 -2.05186e-13
 -8.5184e-13 -0.00190058 5.89563e-14
 -8.20506e-13 -0.00190058 1.38308e-12
 -1.14056e-12 -0.00190058 1.42817e-12
 1.48351e-12 -0.00190058 -3.44076e-13
 1.42713e-12 -0.00190058 3.74961e-13
 1.21148e-12 -0.00190058 1.48451e-12
 1.16688e-12 -0.00190058 1.45468e-12
 -1.61067e-12 -0.00172764 -1.54567e-12
 -1.28979e-12 -0.00172764 -4.55384e-13
 -1.5292e-12 -0.00172764 -2.05842e-13
 -1.10777e-12 -0.00172764 5.17052e-14
 -8.43541e-13 -0.00172764 -9.73414e-13
 1.01475e-13 -0.00172764 -4.23648e-14
 3.94678e-13 -0.00172764 -3.34134e-13
 7.91804e-13 -0.00172764 7.47411e-13
 -1.42315e-12 -0.00172764 -9.11219e-13
 -5.12821e-13 -0.00172764 3.45029e-13
 8.85866e-14 -0.00172764 -4.41229e-13
 3.31721e-13 -0.00172764 1.43615e-12
 -3.12719e-13 -0.00172764 -8.31783e-13
 -9.70476e-13 -0.00172764 -3.31981e-13
 -5.2706e-13 -0.00172764 1.47439e-12
 -8.91742e-14 -0.00172764 1.50684e-12
 0 -0.000537327 0
 0 -0.000537327 0
 0 -0.000537327 0
 0 -0.000537327 0
 0 -0.000537327 0
 0 -0.000537327 0
 0 -0.000537327 0
 0 -0.000537327 0
 0 -0.000537327 0
 0 -0.000537327 0
 0 -0.000537327 0
 0 -0.000537327 0
 0 -0.000537327 0
 0 -0.000537327 0
 0 -0.000537327 0
 0 -0.000537327 0
 0 0.000307245 0
 0 0.000307245 0
 0 0.000307245 0
 0 0.000307245 0
 0 0.000307245 0