<?xml version="1.0"?>
<!-- time 94.6781-->
<VTKFile type="UnstructuredGrid" version="0.1" byte_order="LittleEndian">
<UnstructuredGrid>
<Piece NumberOfPoints="960" NumberOfCells="0">
<Points>
  <DataArray type="Float32" Name="Position" NumberOfComponents="3" format="ascii">
	-300 2099.63 -300
	-300 2099.63 -100
	-300 2099.63 100
	-300 2099.63 300
	-100 2099.63 -300
	-100 2099.63 -100
	-100 2099.63 100
	-100 2099.63 300
	100 2099.63 -300
	100 2099.63 -100
	100 2099.63 100
	100 2099.63 300
	300 2099.63 -300
	300 2099.63 -100
	300 2099.63 100
	300 2099.63 300
	-300 2299.66 -300
	-300 2299.66 -100
	-300 2299.66 100
	-300 2299.66 300
	-100 2299.66 -300
	-100 2299.66 -100
	-100 2299.66 100
	-100 2299.66 300
	100 2299.66 -300
	100 2299.66 -100
	100 2299.66 100
	100 2299.66 300
	300 2299.66 -300
	300 2299.66 -100
	300 2299.66 100
	300 2299.66 300
	-300 2499.66 -300
	-300 2499.66 -100
	-300 2499.66 100
	-300 2499.66 300
	-100 2499.66 -300
	-100 2499.66 -100
	-100 2499.66 100
	-100 2499.66 300
	100 2499.66 -300
	100 2499.66 -100
	100 2499.66 100
	100 2499.66 300
	300 2499.66 -300
	300 2499.66 -100
	300 2499.66 100
	300 2499.66 300
	-300 2699.67 -300
	-300 2699.67 -100
	-300 2699.67 100
	-300 2699.67 300
	-100 2699.67 -300
	-100 2699.67 -100
	-100 2699.67 100
	-100 2699.67 300
	100 2699.67 -300
	100 2699.67 -100
	100 2699.67 100
	100 2699.67 300
	300 2699.67 -300
	300 2699.67 -100
	300 2699.67 100
	300 2699.67 300
	-300 2899.67 -300
	-300 2899.67 -100
	-300 2899.67 100
	-300 2899.67 300
	-100 2899.67 -300
	-100 2899.67 -100
	-100 2899.67 100
	-100 2899.67 300
	100 2899.67 -300
	100 2899.67 -100
	100 2899.67 100
	100 2899.67 300
	300 2899.67 -300
	300 2899.67 -100
	300 2899.67 100
	300 2899.67 300
	-300 3099.66 -300
	-300 3099.66 -100
	-300 3099.66 100
	-300 3099.66 300
	-100 3099.66 -300
	-100 3099.66 -100
	-100 3099.66 100
	-100 3099.66 300
	100 3099.66 -300
	100 3099.66 -100
	100 3099.66 100
	100 3099.66 300
	300 3099.66 -300
	300 3099.66 -100
	300 3099.66 100
	300 3099.66 300
	-300 3299.66 -300
	-300 3299.66 -100
	-300 3299.66 100
	-300 3299.66 300
	-100 3299.66 -300
	-100 3299.66 -100
	-100 3299.66 100
	-100 3299.66 300
	100 3299.66 -300
	100 3299.66 -100
	100 3299.66 100
	100 3299.66 300
	300 3299.66 -300
	300 3299.66 -100
	300 3299.66 100
	300 3299.66 300
	-300 3499.66 -300
	-300 3499.66 -100
	-300 3499.66 100
	-300 3499.66 300
	-100 3499.66 -300
	-100 3499.66 -100
	-100 3499.66 100
	-100 3499.66 300
	100 3499.66 -300
	100 3499.66 -100
	100 3499.66 100
	100 3499.66 300
	300 3499.66 -300
	300 3499.66 -100
	300 3499.66 100
	300 3499.66 300
	-300 3699.66 -300
	-300 3699.66 -100
	-300 3699.66 100
	-300 3699.66 300
	-100 3699.66 -300
	-100 3699.66 -100
	-100 3699.66 100
	-100 3699.66 300
	100 3699.66 -300
	100 3699.66 -100
	100 3699.66 100
	100 3699.66 300
	300 3699.66 -300
	300 3699.66 -100
	300 3699.66 100
	300 3699.66 300
	-300 3899.67 -300
	-300 3899.67 -100
	-300 3899.67 100
	-300 3899.67 300
	-100 3899.67 -300
	-100 3899.67 -100
	-100 3899.67 100
	-100 3899.67 300
	100 3899.67 -300
	100 3899.67 -100
	100 3899.67 100
	100 3899.67 300
	300 3899.67 -300
	300 3899.67 -100
	300 3899.67 100
	300 3899.67 300
	-300 4099.67 -300
	-300 4099.67 -100
	-300 4099.67 100
	-300 4099.67 300
	-100 4099.67 -300
	-100 4099.67 -100
	-100 4099.67 100
	-100 4099.67 300
	100 4099.67 -300
	100 4099.67 -100
	100 4099.67 100
	100 4099.67 300
	300 4099.67 -300
	300 4099.67 -100
	300 4099.67 100
	300 4099.67 300
	-300 4299.67 -300
	-300 4299.67 -100
	-300 4299.67 100
	-300 4299.67 300
	-100 4299.67 -300
	-100 4299.67 -100
	-100 4299.67 100
	-100 4299.67 300
	100 4299.67 -300
	100 4299.67 -100
	100 4299.67 100
	100 4299.67 300
	300 4299.67 -300
	300 4299.67 -100
	300 4299.67 100
	300 4299.67 300
	-300 4499.67 -300
	-300 4499.67 -100
	-300 4499.67 100
	-300 4499.67 300
	-100 4499.67 -300
	-100 4499.67 -100
	-100 4499.67 100
	-100 4499.67 300
	100 4499.67 -300
	100 4499.67 -100
	100 4499.67 100
	100 4499.67 300
	300 4499.67 -300
	300 4499.67 -100
	300 4499.67 100
	300 4499.67 300
	-300 4699.67 -300
	-300 4699.67 -100
	-300 4699.67 100
	-300 4699.67 300
	-100 4699.67 -300
	-100 4699.67 -100
	-100 4699.67 100
	-100 4699.67 300
	100 4699.67 -300
	100 4699.67 -100
	100 4699.67 100
	100 4699.67 300
	300 4699.67 -300
	300 4699.67 -100
	300 4699.67 100
	300 4699.67 300
	-300 4899.67 -300
	-300 4899.67 -100
	-300 4899.67 100
	-300 4899.67 300
	-100 4899.67 -300
	-100 4899.67 -100
	-100 4899.67 100
	-100 4899.67 300
	100 4899.67 -300
	100 4899.67 -100
	100 4899.67 100
	100 4899.67 300
	300 4899.67 -300
	300 4899.67 -100
	300 4899.67 100
	300 4899.67 300
	-300 5099.67 -300
	-300 5099.67 -100
	-300 5099.67 100
	-300 5099.67 300
	-100 5099.67 -300
	-100 5099.67 -100
	-100 5099.67 100
	-100 5099.67 300
	100 5099.67 -300
	100 5099.67 -100
	100 5099.67 100
	100 5099.67 300
	300 5099.67 -300
	300 5099.67 -100
	300 5099.67 100
	300 5099.67 300
	-300 5299.67 -300
	-300 5299.67 -100
	-300 5299.67 100
	-300 5299.67 300
	-100 5299.67 -300
	-100 5299.67 -100
	-100 5299.67 100
	-100 5299.67 300
	100 5299.67 -300
	100 5299.67 -100
	100 5299.67 100
	100 5299.67 300
	300 5299.67 -300
	300 5299.67 -100
	300 5299.67 100
	300 5299.67 300
	-300 5499.68 -300
	-300 5499.68 -100
	-300 5499.68 100
	-300 5499.68 300
	-100 5499.68 -300
	-100 5499.68 -100
	-100 5499.68 100
	-100 5499.68 300
	100 5499.68 -300
	100 5499.68 -100
	100 5499.68 100
	100 5499.68 300
	300 5499.68 -300
	300 5499.68 -100
	300 5499.68 100
	300 5499.68 300
	-300 5699.68 -300
	-300 5699.68 -100
	-300 5699.68 100
	-300 5699.68 300
	-100 5699.68 -300
	-100 5699.68 -100
	-100 5699.68 100
	-100 5699.68 300
	100 5699.68 -300
	100 5699.68 -100
	100 5699.68 100
	100 5699.68 300
	300 5699.68 -300
	300 5699.68 -100
	300 5699.68 100
	300 5699.68 300
	-300 5899.69 -300
	-300 5899.69 -100
	-300 5899.69 100
	-300 5899.69 300
	-100 5899.69 -300
	-100 5899.69 -100
	-100 5899.69 100
	-100 5899.69 300
	100 5899.69 -300
	100 5899.69 -100
	100 5899.69 100
	100 5899.69 300
	300 5899.69 -300
	300 5899.69 -100
	300 5899.69 100
	300 5899.69 300
	-300 6099.71 -300
	-300 6099.71 -100
	-300 6099.71 100
	-300 6099.71 300
	-100 6099.71 -300
	-100 6099.71 -100
	-100 6099.71 100
	-100 6099.71 300
	100 6099.71 -300
	100 6099.71 -100
	100 6099.71 100
	100 6099.71 300
	300 6099.71 -300
	300 6099.71 -100
	300 6099.71 100
	300 6099.71 300
	-300 6299.75 -300
	-300 6299.75 -100
	-300 6299.75 100
	-300 6299.75 300
	-100 6299.75 -300
	-100 6299.75 -100
	-100 6299.75 100
	-100 6299.75 300
	100 6299.75 -300
	100 6299.75 -100
	100 6299.75 100
	100 6299.75 300
	300 6299.75 -300
	300 6299.75 -100
	300 6299.75 100
	300 6299.75 300
	-300 6499.8 -300
	-300 6499.8 -100
	-300 6499.8 100
	-300 6499.8 300
	-100 6499.8 -300
	-100 6499.8 -100
	-100 6499.8 100
	-100 6499.8 300
	100 6499.8 -300
	100 6499.8 -100
	100 6499.8 100
	100 6499.8 300
	300 6499.8 -300
	300 6499.8 -100
	300 6499.8 100
	300 6499.8 300
	-300 6699.81 -300
	-300 6699.81 -100
	-300 6699.81 100
	-300 6699.81 300
	-100 6699.81 -300
	-100 6699.81 -100
	-100 6699.81 100
	-100 6699.81 300
	100 6699.81 -300
	100 6699.81 -100
	100 6699.81 100
	100 6699.81 300
	300 6699.81 -300
	300 6699.81 -100
	300 6699.81 100
	300 6699.81 300
	-300 6899.84 -300
	-300 6899.84 -100
	-300 6899.84 100
	-300 6899.84 300
	-100 6899.84 -300
	-100 6899.84 -100
	-100 6899.84 100
	-100 6899.84 300
	100 6899.84 -300
	100 6899.84 -100
	100 6899.84 100
	100 6899.84 300
	300 6899.84 -300
	300 6899.84 -100
	300 6899.84 100
	300 6899.84 300
	-300 7099.85 -300
	-300 7099.85 -100
	-300 7099.85 100
	-300 7099.85 300
	-100 7099.85 -300
	-100 7099.85 -100
	-100 7099.85 100
	-100 7099.85 300
	100 7099.85 -300
	100 7099.85 -100
	100 7099.85 100
	100 7099.85 300
	300 7099.85 -300
	300 7099.85 -100
	300 7099.85 100
	300 7099.85 300
	-300 7299.86 -300
	-300 7299.86 -100
	-300 7299.86 100
	-300 7299.86 300
	-100 7299.86 -300
	-100 7299.86 -100
	-100 7299.86 100
	-100 7299.86 300
	100 7299.86 -300
	100 7299.86 -100
	100 7299.86 100
	100 7299.86 300
	300 7299.86 -300
	300 7299.86 -100
	300 7299.86 100
	300 7299.86 300
	-300 7499.86 -300
	-300 7499.86 -100
	-300 7499.86 100
	-300 7499.86 300
	-100 7499.86 -300
	-100 7499.86 -100
	-100 7499.86 100
	-100 7499.86 300
	100 7499.86 -300
	100 7499.86 -100
	100 7499.86 100
	100 7499.86 300
	300 7499.86 -300
	300 7499.86 -100
	300 7499.86 100
	300 7499.86 300
	-300 7699.87 -300
	-300 7699.87 -100
	-300 7699.87 100
	-300 7699.87 300
	-100 7699.87 -300
	-100 7699.87 -100
	-100 7699.87 100
	-100 7699.87 300
	100 7699.87 -300
	100 7699.87 -100
	100 7699.87 100
	100 7699.87 300
	300 7699.87 -300
	300 7699.87 -100
	300 7699.87 100
	300 7699.87 300
	-300 7899.88 -300
	-300 7899.88 -100
	-300 7899.88 100
	-300 7899.88 300
	-100 7899.88 -300
	-100 7899.88 -100
	-100 7899.88 100
	-100 7899.88 300
	100 7899.88 -300
	100 7899.88 -100
	100 7899.88 100
	100 7899.88 300
	300 7899.88 -300
	300 7899.88 -100
	300 7899.88 100
	300 7899.88 300
	-300 8099.88 -300
	-300 8099.88 -100
	-300 8099.88 100
	-300 8099.88 300
	-100 8099.88 -300
	-100 8099.88 -100
	-100 8099.88 100
	-100 8099.88 300
	100 8099.88 -300
	100 8099.88 -100
	100 8099.88 100
	100 8099.88 300
	300 8099.88 -300
	300 8099.88 -100
	300 8099.88 100
	300 8099.88 300
	-300 8299.89 -300
	-300 8299.89 -100
	-300 8299.89 100
	-300 8299.89 300
	-100 8299.89 -300
	-100 8299.89 -100
	-100 8299.89 100
	-100 8299.89 300
	100 8299.89 -300
	100 8299.89 -100
	100 8299.89 100
	100 8299.89 300
	300 8299.89 -300
	300 8299.89 -100
	300 8299.89 100
	300 8299.89 300
	-300 8499.89 -300
	-300 8499.89 -100
	-300 8499.89 100
	-300 8499.89 300
	-100 8499.89 -300
	-100 8499.89 -100
	-100 8499.89 100
	-100 8499.89 300
	100 8499.89 -300
	100 8499.89 -100
	100 8499.89 100
	100 8499.89 300
	300 8499.89 -300
	300 8499.89 -100
	300 8499.89 100
	300 8499.89 300
	-300 8699.9 -300
	-300 8699.9 -100
	-300 8699.9 100
	-300 8699.9 300
	-100 8699.9 -300
	-100 8699.9 -100
	-100 8699.9 100
	-100 8699.9 300
	100 8699.9 -300
	100 8699.9 -100
	100 8699.9 100
	100 8699.9 300
	300 8699.9 -300
	300 8699.9 -100
	300 8699.9 100
	300 8699.9 300
	-300 8899.91 -300
	-300 8899.91 -100
	-300 8899.91 100
	-300 8899.91 300
	-100 8899.91 -300
	-100 8899.91 -100
	-100 8899.91 100
	-100 8899.91 300
	100 8899.91 -300
	100 8899.91 -100
	100 8899.91 100
	100 8899.91 300
	300 8899.91 -300
	300 8899.91 -100
	300 8899.91 100
	300 8899.91 300
	-300 9099.92 -300
	-300 9099.92 -100
	-300 9099.92 100
	-300 9099.92 300
	-100 9099.92 -300
	-100 9099.92 -100
	-100 9099.92 100
	-100 9099.92 300
	100 9099.92 -300
	100 9099.92 -100
	100 9099.92 100
	100 9099.92 300
	300 9099.92 -300
	300 9099.92 -100
	300 9099.92 100
	300 9099.92 300
	-300 9299.93 -300
	-300 9299.93 -100
	-300 9299.93 100
	-300 9299.93 300
	-100 9299.93 -300
	-100 9299.93 -100
	-100 9299.93 100
	-100 9299.93 300
	100 9299.93 -300
	100 9299.93 -100
	100 9299.93 100
	100 9299.93 300
	300 9299.93 -300
	300 9299.93 -100
	300 9299.93 100
	300 9299.93 300
	-300 9499.94 -300
	-300 9499.94 -100
	-300 9499.94 100
	-300 9499.94 300
	-100 9499.94 -300
	-100 9499.94 -100
	-100 9499.94 100
	-100 9499.94 300
	100 9499.94 -300
	100 9499.94 -100
	100 9499.94 100
	100 9499.94 300
	300 9499.94 -300
	300 9499.94 -100
	300 9499.94 100
	300 9499.94 300
	-300 9699.94 -300
	-300 9699.94 -100
	-300 9699.94 100
	-300 9699.94 300
	-100 9699.94 -300
	-100 9699.94 -100
	-100 9699.94 100
	-100 9699.94 300
	100 9699.94 -300
	100 9699.94 -100
	100 9699.94 100
	100 9699.94 300
	300 9699.94 -300
	300 9699.94 -100
	300 9699.94 100
	300 9699.94 300
	-300 9899.95 -300
	-300 9899.95 -100
	-300 9899.95 100
	-300 9899.95 300
	-100 9899.95 -300
	-100 9899.95 -100
	-100 9899.95 100
	-100 9899.95 300
	100 9899.95 -300
	100 9899.95 -100
	100 9899.95 100
	100 9899.95 300
	300 9899.95 -300
	300 9899.95 -100
	300 9899.95 100
	300 9899.95 300
	-300 10100 -300
	-300 10100 -100
	-300 10100 100
	-300 10100 300
	-100 10100 -300
	-100 10100 -100
	-100 10100 100
	-100 10100 300
	100 10100 -300
	100 10100 -100
	100 10100 100
	100 10100 300
	300 10100 -300
	300 10100 -100
	300 10100 100
	300 10100 300
	-300 10300 -300
	-300 10300 -100
	-300 10300 100
	-300 10300 300
	-100 10300 -300
	-100 10300 -100
	-100 10300 100
	-100 10300 300
	100 10300 -300
	100 10300 -100
	100 10300 100
	100 10300 300
	300 10300 -300
	300 10300 -100
	300 10300 100
	300 10300 300
	-300 10500 -300
	-300 10500 -100
	-300 10500 100
	-300 10500 300
	-100 10500 -300
	-100 10500 -100
	-100 10500 100
	-100 10500 300
	100 10500 -300
	100 10500 -100
	100 10500 100
	100 10500 300
	300 10500 -300
	300 10500 -100
	300 10500 100
	300 10500 300
	-300 10700 -300
	-300 10700 -100
	-300 10700 100
	-300 10700 300
	-100 10700 -300
	-100 10700 -100
	-100 10700 100
	-100 10700 300
	100 10700 -300
	100 10700 -100
	100 10700 100
	100 10700 300
	300 10700 -300
	300 10700 -100
	300 10700 100
	300 10700 300
	-300 10900 -300
	-300 10900 -100
	-300 10900 100
	-300 10900 300
	-100 10900 -300
	-100 10900 -100
	-100 10900 100
	-100 10900 300
	100 10900 -300
	100 10900 -100
	100 10900 100
	100 10900 300
	300 10900 -300
	300 10900 -100
	300 10900 100
	300 10900 300
	-300 11100 -300
	-300 11100 -100
	-300 11100 100
	-300 11100 300
	-100 11100 -300
	-100 11100 -100
	-100 11100 100
	-100 11100 300
	100 11100 -300
	100 11100 -100
	100 11100 100
	100 11100 300
	300 11100 -300
	300 11100 -100
	300 11100 100
	300 11100 300
	-300 11300 -300
	-300 11300 -100
	-300 11300 100
	-300 11300 300
	-100 11300 -300
	-100 11300 -100
	-100 11300 100
	-100 11300 300
	100 11300 -300
	100 11300 -100
	100 11300 100
	100 11300 300
	300 11300 -300
	300 11300 -100
	300 11300 100
	300 11300 300
	-300 11500.1 -300
	-300 11500.1 -100
	-300 11500.1 100
	-300 11500.1 300
	-100 11500.1 -300
	-100 11500.1 -100
	-100 11500.1 100
	-100 11500.1 300
	100 11500.1 -300
	100 11500.1 -100
	100 11500.1 100
	100 11500.1 300
	300 11500.1 -300
	300 11500.1 -100
	300 11500.1 100
	300 11500.1 300
	-300 11700.1 -300
	-300 11700.1 -100
	-300 11700.1 100
	-300 11700.1 300
	-100 11700.1 -300
	-100 11700.1 -100
	-100 11700.1 100
	-100 11700.1 300
	100 11700.1 -300
	100 11700.1 -100
	100 11700.1 100
	100 11700.1 300
	300 11700.1 -300
	300 11700.1 -100
	300 11700.1 100
	300 11700.1 300
	-300 11900.1 -300
	-300 11900.1 -100
	-300 11900.1 100
	-300 11900.1 300
	-100 11900.1 -300
	-100 11900.1 -100
	-100 11900.1 100
	-100 11900.1 300
	100 11900.1 -300
	100 11900.1 -100
	100 11900.1 100
	100 11900.1 300
	300 11900.1 -300
	300 11900.1 -100
	300 11900.1 100
	300 11900.1 300
	-300 12100.1 -300
	-300 12100.1 -100
	-300 12100.1 100
	-300 12100.1 300
	-100 12100.1 -300
	-100 12100.1 -100
	-100 12100.1 100
	-100 12100.1 300
	100 12100.1 -300
	100 12100.1 -100
	100 12100.1 100
	100 12100.1 300
	300 12100.1 -300
	300 12100.1 -100
	300 12100.1 100
	300 12100.1 300
	-300 12300.2 -300
	-300 12300.2 -100
	-300 12300.2 100
	-300 12300.2 300
	-100 12300.2 -300
	-100 12300.2 -100
	-100 12300.2 100
	-100 12300.2 300
	100 12300.2 -300
	100 12300.2 -100
	100 12300.2 100
	100 12300.2 300
	300 12300.2 -300
	300 12300.2 -100
	300 12300.2 100
	300 12300.2 300
	-300 12500.2 -300
	-300 12500.2 -100
	-300 12500.2 100
	-300 12500.2 300
	-100 12500.2 -300
	-100 12500.2 -100
	-100 12500.2 100
	-100 12500.2 300
	100 12500.2 -300
	100 12500.2 -100
	100 12500.2 100
	100 12500.2 300
	300 12500.2 -300
	300 12500.2 -100
	300 12500.2 100
	300 12500.2 300
	-300 12700.3 -300
	-300 12700.3 -100
	-300 12700.3 100
	-300 12700.3 300
	-100 12700.3 -300
	-100 12700.3 -100
	-100 12700.3 100
	-100 12700.3 300
	100 12700.3 -300
	100 12700.3 -100
	100 12700.3 100
	100 12700.3 300
	300 12700.3 -300
	300 12700.3 -100
	300 12700.3 100
	300 12700.3 300
	-300 12900.4 -300
	-300 12900.4 -100
	-300 12900.4 100
	-300 12900.4 300
	-100 12900.4 -300
	-100 12900.4 -100
	-100 12900.4 100
	-100 12900.4 300
	100 12900.4 -300
	100 12900.4 -100
	100 12900.4 100
	100 12900.4 300
	300 12900.4 -300
	300 12900.4 -100
	300 12900.4 100
	300 12900.4 300
	-300 13100.5 -300
	-300 13100.5 -100
	-300 13100.5 100
	-300 13100.5 300
	-100 13100.5 -300
	-100 13100.5 -100
	-100 13100.5 100
	-100 13100.5 300
	100 13100.5 -300
	100 13100.5 -100
	100 13100.5 100
	100 13100.5 300
	300 13100.5 -300
	300 13100.5 -100
	300 13100.5 100
	300 13100.5 300
	-300 13300.6 -300
	-300 13300.6 -100
	-300 13300.6 100
	-300 13300.6 300
	-100 13300.6 -300
	-100 13300.6 -100
	-100 13300.6 100
	-100 13300.6 300
	100 13300.6 -300
	100 13300.6 -100
	100 13300.6 100
	100 13300.6 300
	300 13300.6 -300
	300 13300.6 -100
	300 13300.6 100
	300 13300.6 300
	-300 13500.8 -300
	-300 13500.8 -100
	-300 13500.8 100
	-300 13500.8 300
	-100 13500.8 -300
	-100 13500.8 -100
	-100 13500.8 100
	-100 13500.8 300
	100 13500.8 -300
	100 13500.8 -100
	100 13500.8 100
	100 13500.8 300
	300 13500.8 -300
	300 13500.8 -100
	300 13500.8 100
	300 13500.8 300
	-300 13701.2 -300
	-300 13701.2 -100
	-300 13701.2 100
	-300 13701.2 300
	-100 13701.2 -300
	-100 13701.2 -100
	-100 13701.2 100
	-100 13701.2 300
	100 13701.2 -300
	100 13701.2 -100
	100 13701.2 100
	100 13701.2 300
	300 13701.2 -300
	300 13701.2 -100
	300 13701.2 100
	300 13701.2 300
	-300 13902.3 -300
	-300 13902.3 -100
	-300 13902.3 100
	-300 13902.3 300
	-100 13902.3 -300
	-100 13902.3 -100
	-100 13902.3 100
	-100 13902.3 300
	100 13902.3 -300
	100 13902.3 -100
	100 13902.3 100
	100 13902.3 300
	300 13902.3 -300
	300 13902.3 -100
	300 13902.3 100
	300 13902.3 300
  </DataArray>
</Points>
<PointData  Vectors="vector">
  <DataArray type="Float32" Name="Velocity" NumberOfComponents="3" format="ascii">
 1.00973e-10 -0.0191107 4.07556e-10
 1.13383e-10 -0.0191107 5.84154e-11
 1.77881e-10 -0.0191107 -1.06924e-10
 6.02402e-11 -0.0191107 -2.743e-10
 5.75598e-11 -0.0191107 3.80862e-10
 1.76914e-10 -0.0191107 -1.03042e-10
 6.0266e-11 -0.0191107 2.29062e-11
 1.11988e-10 -0.0191107 -3.89833e-10
 1.11675e-10 -0.0191107 3.51412e-10
 1.39832e-10 -0.0191107 -1.07505e-11
 1.62736e-10 -0.0191107 -1.41878e-10
 1.52211e-10 -0.0191107 -2.25141e-10
 1.38665e-11 -0.0191107 2.66871e-10
 4.00901e-11 -0.0191107 -1.47269e-12
 1.58733e-11 -0.0191107 -7.57486e-11
 1.70046e-10 -0.0191107 -3.99107e-10
 -7.10052e-11 0.000310267 -7.35287e-11
 -2.03772e-12 0.000310267 -2.00786e-11
 3.2096e-12 0.000310269 1.08036e-10
 -1.48129e-11 0.000310265 2.13458e-10
 -1.23494e-11 0.000310269 -1.6109e-11
 -1.0894e-10 0.000310265 2.5733e-11
 -1.14173e-10 0.000310261 1.00822e-10
 -1.37462e-10 0.000310274 1.67955e-10
 -3.30925e-11 0.000310268 -5.26978e-11
 -8.74988e-12 0.000310268 1.30138e-11
 -7.1285e-11 0.00031026 1.6947e-10
 -1.23614e-10 0.000310277 1.81126e-10
 -1.49363e-10 0.000310269 -1.65625e-10
 -1.09334e-10 0.000310263 3.83354e-11
 -2.27149e-10 0.000310271 9.74689e-11
 -2.8159e-10 0.000310262 1.1657e-10
 1.71924e-11 -0.00374096 -2.50197e-11
 -3.6194e-11 -0.00374096 7.62115e-11
 1.04197e-11 -0.00374096 1.38621e-10
 2.00647e-11 -0.00374096 2.68346e-10
 -8.30511e-11 -0.00374096 -6.28909e-11
 -1.00497e-12 -0.00374096 1.48401e-10
 -9.03647e-11 -0.00374096 1.09774e-10
 -1.26802e-10 -0.00374096 3.0098e-10
 -5.54012e-11 -0.00374096 -7.44714e-11
 -4.33924e-11 -0.00374096 1.07002e-10
 -5.80824e-11 -0.00374096 1.54892e-10
 -9.99774e-11 -0.00374096 2.89419e-10
 -1.25769e-10 -0.00374096 1.58008e-11
 -1.4348e-10 -0.00374096 5.7665e-11
 -2.03124e-10 -0.00374097 2.30194e-11
 -2.48206e-10 -0.00374096 1.19245e-10
 -1.54831e-10 0.00750556 -9.30685e-11
 -1.62483e-10 0.00750556 5.64584e-11
 -1.70121e-10 0.00750556 8.57981e-11
 -7.98018e-11 0.00750556 2.37351e-10
 -8.55757e-11 0.00750556 -1.24135e-10
 -1.03828e-10 0.00750557 6.77717e-11
 -1.15918e-10 0.00750558 1.17369e-10
 -8.20844e-11 0.00750556 2.90777e-10
 -2.46237e-11 0.00750556 -1.19419e-10
 -7.71428e-11 0.00750556 7.47074e-11
 -5.52903e-11 0.00750557 7.96169e-11
 -1.4153e-10 0.00750555 2.65522e-10
 -1.4347e-11 0.00750556 -1.57125e-10
 -6.33361e-11 0.00750557 3.44293e-12
 -9.97162e-11 0.00750556 2.78541e-11
 -2.37136e-10 0.00750558 1.51913e-10
 -1.27309e-10 0.00888796 -1.02776e-10
 -1.42426e-10 0.00888796 5.46492e-11
 -1.25591e-10 0.00888795 8.66065e-11
 -2.17145e-11 0.00888797 1.59945e-10
 -8.04702e-11 0.00888797 -1.16617e-10
 -9.42649e-11 0.00888795 4.57645e-11
 -9.19196e-11 0.00888795 9.29431e-11
 -7.41817e-11 0.00888797 2.41612e-10
 -5.4437e-11 0.00888797 -8.32461e-11
 -7.71494e-11 0.00888796 4.86933e-12
 -8.32642e-11 0.00888795 9.00271e-11
 -1.09765e-10 0.00888798 1.83545e-10
 -2.45685e-11 0.00888797 -8.93417e-11
 -7.39194e-11 0.00888795 -1.97213e-11
 -8.64022e-11 0.00888796 2.98243e-11
 -1.32927e-10 0.00888795 1.10239e-10
 -4.68569e-12 0.00289012 -2.72014e-13
 -2.08574e-11 0.00289012 1.08357e-11
 4.26138e-12 0.00289012 9.00607e-12
 -2.86756e-11 0.00289011 -3.14633e-12
 6.93957e-12 0.00289011 -1.2466e-12
 1.47824e-11 0.00289012 2.88283e-11
 1.78658e-11 0.00289012 6.84047e-12
 5.4609e-11 0.00289011 3.77377e-12
 -4.70963e-13 0.00289012 1.25291e-11
 -6.54638e-12 0.00289012 2.66917e-11
 1.79724e-11 0.00289012 1.12126e-11
 8.45768e-11 0.00289011 8.32501e-12
 -9.69187e-12 0.00289011 2.43229e-11
 -1.02595e-11 0.00289012 3.70291e-11
 1.96225e-11 0.00289011 1.77609e-11
 1.0153e-10 0.00289011 2.04372e-11
 8.83906e-12 0.000641674 8.77655e-12
 7.71411e-12 0.000641674 -4.56248e-13
 7.61013e-12 0.000641675 -1.01364e-11
 -2.64729e-11 0.000641672 -3.77015e-11
 1.14854e-11 0.000641673 1.21004e-11
 1.66694e-11 0.000641675 3.88536e-12
 4.43919e-11 0.000641675 -6.65924e-12
 4.85981e-11 0.000641673 -3.66524e-11
 1.61695e-11 0.000641673 2.09569e-11
 1.84337e-11 0.000641674 8.02022e-12
 3.55613e-11 0.000641675 -1.73915e-12
 9.87114e-11 0.000641671 -3.07211e-11
 9.38891e-12 0.000641673 4.55265e-11
 1.12344e-11 0.000641676 2.61666e-11
 3.65359e-11 0.000641674 1.30164e-11
 1.18506e-10 0.000641675 -5.39352e-12
 4.28205e-12 -0.00147954 1.79435e-12
 4.83214e-12 -0.00147954 3.66528e-12
 9.30225e-12 -0.00147954 5.74715e-12
 9.94175e-12 -0.00147954 -4.06685e-12
 6.19601e-12 -0.00147954 9.18483e-12
 1.02685e-11 -0.00147954 5.06224e-12
 1.38218e-11 -0.00147954 2.18663e-12
 2.83034e-11 -0.00147954 -6.09492e-12
 6.30229e-12 -0.00147954 5.57604e-12
 7.74649e-12 -0.00147954 8.49661e-12
 1.21797e-11 -0.00147954 5.68812e-13
 2.4668e-11 -0.00147954 -5.05481e-12
 2.54755e-12 -0.00147954 1.1866e-11
 4.08194e-12 -0.00147954 1.26997e-11
 9.69022e-12 -0.00147954 1.20772e-11
 2.71521e-11 -0.00147954 9.00815e-13
 -6.03404e-12 -0.00236683 -2.50313e-12
 1.45928e-12 -0.00236683 4.0529e-12
 1.56417e-12 -0.00236683 5.43016e-12
 8.69385e-13 -0.00236683 3.10896e-12
 5.88507e-12 -0.00236683 6.85671e-13
 1.728e-12 -0.00236683 4.14399e-12
 3.42925e-12 -0.00236683 4.74678e-12
 2.31816e-13 -0.00236683 1.08818e-12
 -5.00093e-13 -0.00236683 1.27222e-12
 7.24249e-13 -0.00236683 4.51138e-12
 2.71524e-12 -0.00236683 4.60891e-12
 3.17627e-12 -0.00236683 1.47172e-12
 1.60542e-12 -0.00236683 3.89299e-12
 5.89809e-13 -0.00236683 4.36708e-12
 8.45952e-14 -0.00236683 5.80417e-12
 6.37392e-12 -0.00236683 3.83443e-12
 -3.31039e-12 -0.000112069 -7.36167e-13
 9.20679e-13 -0.000112069 4.34454e-12
 -1.25657e-13 -0.000112069 1.88706e-12
 -6.51184e-13 -0.000112069 -1.77421e-13
 -1.7923e-12 -0.000112069 -4.93742e-14
 -3.85618e-12 -0.000112069 2.83334e-12
 -2.74392e-13 -0.000112069 1.09475e-12
 -1.33599e-13 -0.000112069 1.8387e-12
 2.31799e-12 -0.000112069 2.01168e-12
 -1.86473e-12 -0.000112069 1.63121e-12
 -2.56173e-12 -0.000112069 1.22295e-12
 2.88838e-13 -0.000112069 -1.61752e-14
 -6.63457e-13 -0.000112069 1.48586e-12
 1.70118e-12 -0.000112069 2.18476e-12
 2.51763e-13 -0.000112069 1.01178e-12
 -1.01896e-12 -0.00011207 6.12281e-13
 4.37955e-14 0.000721685 -1.64075e-13
 -2.19156e-12 0.000721685 -1.33859e-12
 -4.13696e-12 0.000721685 -6.65053e-13
 -9.49645e-13 0.000721685 6.7952e-13
 -1.52957e-12 0.000721685 -2.62405e-12
 -2.62532e-12 0.000721685 1.67744e-12
 -3.03709e-12 0.000721685 -4.38177e-13
 -1.77193e-12 0.000721685 -6.32009e-13
 -6.95118e-12 0.000721685 -2.66241e-13
 -6.8834e-13 0.000721684 -1.15014e-12
 -7.29635e-12 0.000721685 -1.36833e-12
 -2.71009e-12 0.000721684 2.60263e-14
 2.54268e-12 0.000721684 -2.05543e-14
 -1.82882e-12 0.000721685 -1.36539e-12
 6.28206e-12 0.000721684 -2.37476e-12
 -3.11861e-12 0.000721686 -3.62745e-13
 -2.67496e-13 0.000348815 -1.69254e-14
 3.34635e-13 0.00034881 -3.90725e-14
 2.37902e-13 0.000348811 7.21676e-13
 -1.98267e-12 0.000348807 -1.57627e-12
 2.39676e-12 0.000348794 -1.52478e-12
 -3.10918e-13 0.000348807 -7.18548e-13
 1.54013e-12 0.000348802 -4.15307e-12
 3.29887e-13 0.000348806 2.86424e-12
 2.83585e-12 0.000348807 -3.07598e-13
 8.25727e-13 0.000348809 -4.83293e-12
 1.55135e-13 0.000348806 -1.61656e-12
 6.55335e-13 0.000348807 1.67022e-12
 -2.56331e-13 0.000348797 -2.00964e-12
 1.04457e-12 0.000348811 -1.3191e-12
 -1.76118e-12 0.0003488 -1.86957e-12
 -5.85312e-15 0.000348812 -1.0759e-12
 4.10031e-13 0.000724156 -1.48276e-12
 -9.42083e-13 0.00072416 -8.06902e-13
 -1.62689e-13 0.00072416 4.20695e-13
 -2.53185e-12 0.000724164 -1.29371e-12
 3.18013e-12 0.000724175 -1.72846e-12
 1.50352e-12 0.000724163 -2.86965e-12
 1.06254e-12 0.000724168 -3.03013e-12
 2.65939e-12 0.000724164 1.79437e-12
 3.24846e-12 0.000724163 -2.35265e-12
 4.44097e-12 0.000724161 -2.36375e-12
 3.17879e-12 0.000724164 -1.1741e-12
 7.32151e-13 0.000724163 -1.37024e-12
 5.91671e-13 0.000724172 -2.11184e-12
 -3.55344e-14 0.000724159 -1.82636e-12
 -6.05746e-13 0.00072417 -1.8235e-12
 1.93868e-12 0.000724159 -1.80206e-12
 1.00026e-12 0.000299767 -1.24507e-12
 -4.57585e-13 0.000299767 -2.21169e-12
 6.59251e-14 0.000299767 1.07846e-12
 3.00036e-13 0.000299767 3.56461e-12
 4.52682e-13 0.000299766 -5.17398e-13
 2.3994e-13 0.000299767 -1.36177e-12
 -2.78448e-13 0.000299766 -7.49434e-13
 4.02497e-13 0.000299767 2.78518e-12
 5.08121e-13 0.000299767 -4.30329e-13
 -8.85831e-13 0.000299767 -8.64249e-14
 -1.48171e-12 0.000299767 -1.64977e-12
 -8.55404e-13 0.000299767 2.15484e-12
 -9.48614e-13 0.000299766 1.6962e-13
 6.87443e-13 0.000299767 1.80562e-13
 1.10571e-12 0.000299766 -3.12782e-12
 -4.79128e-13 0.000299767 2.35711e-12
 -1.29894e-12 0.000105986 7.65778e-13
 1.40778e-13 0.000105986 1.17263e-14
 -3.59824e-13 0.000105986 1.48399e-12
 -1.86912e-12 0.000105986 1.2355e-12
 -8.64362e-13 0.000105986 1.06647e-13
 -6.06152e-13 0.000105985 1.86907e-12
 -5.70463e-13 0.000105986 -8.29199e-13
 9.28536e-13 0.000105986 2.16096e-12
 -8.84837e-13 0.000105986 1.01198e-12
 -1.05266e-12 0.000105986 1.42048e-12
 -1.80572e-12 0.000105986 1.09366e-12
 -4.67231e-13 0.000105986 5.10005e-13
 7.66118e-13 0.000105986 -8.41885e-13
 -1.44545e-12 0.000105986 2.3924e-12
 5.44597e-13 0.000105986 -1.0246e-12
 -1.70602e-13 0.000105986 3.60567e-12
 5.33925e-13 0.000142915 1.28911e-13
 -1.21149e-12 0.000142915 1.15972e-12
 -7.2062e-13 0.000142915 6.40737e-13
 -5.92297e-13 0.000142915 1.79437e-13
 -4.13779e-12 0.000142915 -1.29515e-12
 -2.42149e-12 0.000142915 1.33069e-12
 -3.97671e-12 0.000142915 2.63053e-12
 -1.75137e-12 0.000142915 -5.6965e-13
 -2.59889e-12 0.000142915 -1.24636e-12
 -3.38768e-12 0.000142915 1.61905e-12
 -1.80614e-12 0.000142915 2.87783e-12
 -2.30507e-12 0.000142915 -2.35707e-13
 3.61334e-13 0.000142915 9.06411e-13
 8.81261e-13 0.000142915 1.28682e-12
 1.3285e-12 0.000142915 1.54537e-12
 4.17418e-13 0.000142915 -5.77563e-14
 -7.68041e-13 0.000119922 9.57217e-13
 -1.29029e-12 0.000119922 9.62583e-13
 -1.37568e-12 0.000119922 4.37312e-13
 -8.06409e-13 0.000119922 1.11764e-12
 -1.82217e-12 0.000119922 2.80436e-13
 -2.76275e-12 0.000119922 1.36143e-12
 -1.39938e-12 0.000119922 1.86086e-12
 -1.75276e-12 0.000119922 6.25593e-15
 -1.85494e-12 0.000119922 7.17855e-13
 -1.45411e-12 0.000119922 1.76403e-12
 -1.9199e-12 0.000119922 4.85346e-13
 -1.12505e-12 0.000119922 1.35811e-12
 -1.7232e-12 0.000119922 -4.7285e-13
 -9.08389e-13 0.000119922 2.25269e-12
 -9.11422e-13 0.000119922 2.92377e-12
 -1.17287e-12 0.000119922 1.56434e-13
 -6.67202e-13 0.000121815 -9.76514e-13
 -9.33736e-13 0.000121815 1.0799e-12
 -7.66507e-13 0.000121815 -5.0884e-13
 -1.9334e-13 0.000121815 7.77081e-13
 -1.41982e-12 0.000121815 -3.3897e-13
 -9.91317e-13 0.000121815 4.893e-14
 -1.36478e-12 0.000121815 1.37233e-13
 -1.37774e-12 0.000121815 4.91473e-13
 -8.83704e-13 0.000121815 -1.94931e-13
 -1.51617e-12 0.000121815 3.38186e-13
 -7.02733e-13 0.000121815 1.05585e-12
 -6.14123e-13 0.000121815 -3.08768e-13
 -3.88856e-13 0.000121815 1.43716e-13
 -1.63672e-13 0.000121815 5.93219e-13
 -2.85364e-13 0.000121815 1.90064e-13
 -2.20391e-13 0.000121815 5.29352e-13
 1.93989e-14 0.000121775 -5.98088e-13
 -4.87447e-13 0.000121775 3.42595e-13
 4.78043e-13 0.000121775 7.10232e-13
 2.62286e-13 0.000121775 -4.7532e-13
 -2.03401e-12 0.000121775 -1.16138e-12
 -9.83827e-13 0.000121775 6.32031e-13
 -1.69083e-12 0.000121775 6.82041e-13
 -1.73196e-12 0.000121775 -2.91367e-13
 -6.07785e-13 0.000121775 -2.47291e-13
 -1.12324e-12 0.000121775 1.75981e-13
 -8.82693e-13 0.000121775 1.1611e-12
 -7.88151e-13 0.000121775 -4.68388e-13
 -1.20203e-12 0.000121775 -1.56666e-13
 -1.64279e-12 0.000121775 3.94049e-13
 -1.58321e-12 0.000121775 6.28513e-13
 -1.65739e-12 0.000121775 -1.14817e-13
 -2.60122e-13 0.000213397 9.34047e-13
 -1.66776e-12 0.000213397 2.04652e-12
 -1.10139e-12 0.000213397 1.60603e-12
 -1.82074e-12 0.000213397 8.31008e-13
 1.63185e-12 0.000213397 9.40146e-13
 1.73893e-12 0.000213397 1.7235e-12
 2.35891e-12 0.000213397 7.65729e-13
 2.34127e-12 0.000213397 1.36748e-12
 1.51018e-12 0.000213397 -2.99403e-13
 2.69686e-12 0.000213397 3.38209e-12
 9.82392e-13 0.000213397 1.60261e-12
 1.39624e-12 0.000213397 5.86717e-13
 4.7771e-12 0.000213397 1.12637e-12
 4.85158e-12 0.000213397 7.70882e-13
 5.11701e-12 0.000213397 1.23812e-12
 2.76717e-12 0.000213397 1.31432e-12
 0 -0.000537327 0
 0 -0.000537327 0
 0 -0.000537327 0
 0 -0.000537327 0
 0 -0.000537327 0
 0 -0.000537327 0
 0 -0.000537327 0
 0 -0.000537327 0
 0 -0.000537327 0
 0 -0.000537327 0
 0 -0.000537327 0
 0 -0.000537327 0
 0 -0.000537327 0
 0 -0.000537327 0
 0 -0.000537327 0
 0 -0.000537327 0
 0 0.000307245 0
 0 0.000307245 0
 0 0.000307245 0
 0 0.000307245 0
 0 0.000307245 0
 0 0.000307245 0
 0 0.000307245 0
 0 0.000307245 0
 0 0.000307245 0
 0 0.000307245 0
 0 0.000307245 0
 0 0.000307245 0
 0 0.000307245 0
 0 0.000307245 0