<?xml version="1.0"?>
<!-- time 82.2204-->
<VTKFile type="UnstructuredGrid" version="0.1" byte_order="LittleEndian">
<UnstructuredGrid>
<Piece NumberOfPoints="960" NumberOfCells="0">
<Points>
  <DataArray type="Float32" Name="Position" NumberOfComponents="3" format="ascii">
	-300 2099.62 -300
	-300 2099.62 -100
	-300 2099.62 100
	-300 2099.62 300
	-100 2099.62 -300
	-100 2099.62 -100
	-100 2099.62 100
	-100 2099.62 300
	100 2099.62 -300
	100 2099.62 -100
	100 2099.62 100
	100 2099.62 300
	300 2099.62 -300
	300 2099.62 -100
	300 2099.62 100
	300 2099.62 300
	-300 2299.66 -300
	-300 2299.66 -100
	-300 2299.66 100
	-300 2299.66 300
	-100 2299.66 -300
	-100 2299.66 -100
	-100 2299.66 100
	-100 2299.66 300
	100 2299.66 -300
	100 2299.66 -100
	100 2299.66 100
	100 2299.66 300
	300 2299.66 -300
	300 2299.66 -100
	300 2299.66 100
	300 2299.66 300
	-300 2499.66 -300
	-300 2499.66 -100
	-300 2499.66 100
	-300 2499.66 300
	-100 2499.66 -300
	-100 2499.66 -100
	-100 2499.66 100
	-100 2499.66 300
	100 2499.66 -300
	100 2499.66 -100
	100 2499.66 100
	100 2499.66 300
	300 2499.66 -300
	300 2499.66 -100
	300 2499.66 100
	300 2499.66 300
	-300 2699.66 -300
	-300 2699.66 -100
	-300 2699.66 100
	-300 2699.66 300
	-100 2699.66 -300
	-100 2699.66 -100
	-100 2699.66 100
	-100 2699.66 300
	100 2699.66 -300
	100 2699.66 -100
	100 2699.66 100
	100 2699.66 300
	300 2699.66 -300
	300 2699.66 -100
	300 2699.66 100
	300 2699.66 300
	-300 2899.66 -300
	-300 2899.66 -100
	-300 2899.66 100
	-300 2899.66 300
	-100 2899.66 -300
	-100 2899.66 -100
	-100 2899.66 100
	-100 2899.66 300
	100 2899.66 -300
	100 2899.66 -100
	100 2899.66 100
	100 2899.66 300
	300 2899.66 -300
	300 2899.66 -100
	300 2899.66 100
	300 2899.66 300
	-300 3099.66 -300
	-300 3099.66 -100
	-300 3099.66 100
	-300 3099.66 300
	-100 3099.66 -300
	-100 3099.66 -100
	-100 3099.66 100
	-100 3099.66 300
	100 3099.66 -300
	100 3099.66 -100
	100 3099.66 100
	100 3099.66 300
	300 3099.66 -300
	300 3099.66 -100
	300 3099.66 100
	300 3099.66 300
	-300 3299.66 -300
	-300 3299.66 -100
	-300 3299.66 100
	-300 3299.66 300
	-100 3299.66 -300
	-100 3299.66 -100
	-100 3299.66 100
	-100 3299.66 300
	100 3299.66 -300
	100 3299.66 -100
	100 3299.66 100
	100 3299.66 300
	300 3299.66 -300
	300 3299.66 -100
	300 3299.66 100
	300 3299.66 300
	-300 3499.66 -300
	-300 3499.66 -100
	-300 3499.66 100
	-300 3499.66 300
	-100 3499.66 -300
	-100 3499.66 -100
	-100 3499.66 100
	-100 3499.66 300
	100 3499.66 -300
	100 3499.66 -100
	100 3499.66 100
	100 3499.66 300
	300 3499.66 -300
	300 3499.66 -100
	300 3499.66 100
	300 3499.66 300
	-300 3699.66 -300
	-300 3699.66 -100
	-300 3699.66 100
	-300 3699.66 300
	-100 3699.66 -300
	-100 3699.66 -100
	-100 3699.66 100
	-100 3699.66 300
	100 3699.66 -300
	100 3699.66 -100
	100 3699.66 100
	100 3699.66 300
	300 3699.66 -300
	300 3699.66 -100
	300 3699.66 100
	300 3699.66 300
	-300 3899.66 -300
	-300 3899.66 -100
	-300 3899.66 100
	-300 3899.66 300
	-100 3899.66 -300
	-100 3899.66 -100
	-100 3899.66 100
	-100 3899.66 300
	100 3899.66 -300
	100 3899.66 -100
	100 3899.66 100
	100 3899.66 300
	300 3899.66 -300
	300 3899.66 -100
	300 3899.66 100
	300 3899.66 300
	-300 4099.66 -300
	-300 4099.66 -100
	-300 4099.66 100
	-300 4099.66 300
	-100 4099.66 -300
	-100 4099.66 -100
	-100 4099.66 100
	-100 4099.66 300
	100 4099.66 -300
	100 4099.66 -100
	100 4099.66 100
	100 4099.66 300
	300 4099.66 -300
	300 4099.66 -100
	300 4099.66 100
	300 4099.66 300
	-300 4299.67 -300
	-300 4299.67 -100
	-300 4299.67 100
	-300 4299.67 300
	-100 4299.67 -300
	-100 4299.67 -100
	-100 4299.67 100
	-100 4299.67 300
	100 4299.67 -300
	100 4299.67 -100
	100 4299.67 100
	100 4299.67 300
	300 4299.67 -300
	300 4299.67 -100
	300 4299.67 100
	300 4299.67 300
	-300 4499.67 -300
	-300 4499.67 -100
	-300 4499.67 100
	-300 4499.67 300
	-100 4499.67 -300
	-100 4499.67 -100
	-100 4499.67 100
	-100 4499.67 300
	100 4499.67 -300
	100 4499.67 -100
	100 4499.67 100
	100 4499.67 300
	300 4499.67 -300
	300 4499.67 -100
	300 4499.67 100
	300 4499.67 300
	-300 4699.67 -300
	-300 4699.67 -100
	-300 4699.67 100
	-300 4699.67 300
	-100 4699.67 -300
	-100 4699.67 -100
	-100 4699.67 100
	-100 4699.67 300
	100 4699.67 -300
	100 4699.67 -100
	100 4699.67 100
	100 4699.67 300
	300 4699.67 -300
	300 4699.67 -100
	300 4699.67 100
	300 4699.67 300
	-300 4899.67 -300
	-300 4899.67 -100
	-300 4899.67 100
	-300 4899.67 300
	-100 4899.67 -300
	-100 4899.67 -100
	-100 4899.67 100
	-100 4899.67 300
	100 4899.67 -300
	100 4899.67 -100
	100 4899.67 100
	100 4899.67 300
	300 4899.67 -300
	300 4899.67 -100
	300 4899.67 100
	300 4899.67 300
	-300 5099.67 -300
	-300 5099.67 -100
	-300 5099.67 100
	-300 5099.67 300
	-100 5099.67 -300
	-100 5099.67 -100
	-100 5099.67 100
	-100 5099.67 300
	100 5099.67 -300
	100 5099.67 -100
	100 5099.67 100
	100 5099.67 300
	300 5099.67 -300
	300 5099.67 -100
	300 5099.67 100
	300 5099.67 300
	-300 5299.67 -300
	-300 5299.67 -100
	-300 5299.67 100
	-300 5299.67 300
	-100 5299.67 -300
	-100 5299.67 -100
	-100 5299.67 100
	-100 5299.67 300
	100 5299.67 -300
	100 5299.67 -100
	100 5299.67 100
	100 5299.67 300
	300 5299.67 -300
	300 5299.67 -100
	300 5299.67 100
	300 5299.67 300
	-300 5499.68 -300
	-300 5499.68 -100
	-300 5499.68 100
	-300 5499.68 300
	-100 5499.68 -300
	-100 5499.68 -100
	-100 5499.68 100
	-100 5499.68 300
	100 5499.68 -300
	100 5499.68 -100
	100 5499.68 100
	100 5499.68 300
	300 5499.68 -300
	300 5499.68 -100
	300 5499.68 100
	300 5499.68 300
	-300 5699.68 -300
	-300 5699.68 -100
	-300 5699.68 100
	-300 5699.68 300
	-100 5699.68 -300
	-100 5699.68 -100
	-100 5699.68 100
	-100 5699.68 300
	100 5699.68 -300
	100 5699.68 -100
	100 5699.68 100
	100 5699.68 300
	300 5699.68 -300
	300 5699.68 -100
	300 5699.68 100
	300 5699.68 300
	-300 5899.69 -300
	-300 5899.69 -100
	-300 5899.69 100
	-300 5899.69 300
	-100 5899.69 -300
	-100 5899.69 -100
	-100 5899.69 100
	-100 5899.69 300
	100 5899.69 -300
	100 5899.69 -100
	100 5899.69 100
	100 5899.69 300
	300 5899.69 -300
	300 5899.69 -100
	300 5899.69 100
	300 5899.69 300
	-300 6099.72 -300
	-300 6099.72 -100
	-300 6099.72 100
	-300 6099.72 300
	-100 6099.72 -300
	-100 6099.72 -100
	-100 6099.72 100
	-100 6099.72 300
	100 6099.72 -300
	100 6099.72 -100
	100 6099.72 100
	100 6099.72 300
	300 6099.72 -300
	300 6099.72 -100
	300 6099.72 100
	300 6099.72 300
	-300 6299.74 -300
	-300 6299.74 -100
	-300 6299.74 100
	-300 6299.74 300
	-100 6299.74 -300
	-100 6299.74 -100
	-100 6299.74 100
	-100 6299.74 300
	100 6299.74 -300
	100 6299.74 -100
	100 6299.74 100
	100 6299.74 300
	300 6299.74 -300
	300 6299.74 -100
	300 6299.74 100
	300 6299.74 300
	-300 6499.78 -300
	-300 6499.78 -100
	-300 6499.78 100
	-300 6499.78 300
	-100 6499.78 -300
	-100 6499.78 -100
	-100 6499.78 100
	-100 6499.78 300
	100 6499.78 -300
	100 6499.78 -100
	100 6499.78 100
	100 6499.78 300
	300 6499.78 -300
	300 6499.78 -100
	300 6499.78 100
	300 6499.78 300
	-300 6699.8 -300
	-300 6699.8 -100
	-300 6699.8 100
	-300 6699.8 300
	-100 6699.8 -300
	-100 6699.8 -100
	-100 6699.8 100
	-100 6699.8 300
	100 6699.8 -300
	100 6699.8 -100
	100 6699.8 100
	100 6699.8 300
	300 6699.8 -300
	300 6699.8 -100
	300 6699.8 100
	300 6699.8 300
	-300 6899.83 -300
	-300 6899.83 -100
	-300 6899.83 100
	-300 6899.83 300
	-100 6899.83 -300
	-100 6899.83 -100
	-100 6899.83 100
	-100 6899.83 300
	100 6899.83 -300
	100 6899.83 -100
	100 6899.83 100
	100 6899.83 300
	300 6899.83 -300
	300 6899.83 -100
	300 6899.83 100
	300 6899.83 300
	-300 7099.83 -300
	-300 7099.83 -100
	-300 7099.83 100
	-300 7099.83 300
	-100 7099.83 -300
	-100 7099.83 -100
	-100 7099.83 100
	-100 7099.83 300
	100 7099.83 -300
	100 7099.83 -100
	100 7099.83 100
	100 7099.83 300
	300 7099.83 -300
	300 7099.83 -100
	300 7099.83 100
	300 7099.83 300
	-300 7299.84 -300
	-300 7299.84 -100
	-300 7299.84 100
	-300 7299.84 300
	-100 7299.84 -300
	-100 7299.84 -100
	-100 7299.84 100
	-100 7299.84 300
	100 7299.84 -300
	100 7299.84 -100
	100 7299.84 100
	100 7299.84 300
	300 7299.84 -300
	300 7299.84 -100
	300 7299.84 100
	300 7299.84 300
	-300 7499.84 -300
	-300 7499.84 -100
	-300 7499.84 100
	-300 7499.84 300
	-100 7499.84 -300
	-100 7499.84 -100
	-100 7499.84 100
	-100 7499.84 300
	100 7499.84 -300
	100 7499.84 -100
	100 7499.84 100
	100 7499.84 300
	300 7499.84 -300
	300 7499.84 -100
	300 7499.84 100
	300 7499.84 300
	-300 7699.85 -300
	-300 7699.85 -100
	-300 7699.85 100
	-300 7699.85 300
	-100 7699.85 -300
	-100 7699.85 -100
	-100 7699.85 100
	-100 7699.85 300
	100 7699.85 -300
	100 7699.85 -100
	100 7699.85 100
	100 7699.85 300
	300 7699.85 -300
	300 7699.85 -100
	300 7699.85 100
	300 7699.85 300
	-300 7899.85 -300
	-300 7899.85 -100
	-300 7899.85 100
	-300 7899.85 300
	-100 7899.85 -300
	-100 7899.85 -100
	-100 7899.85 100
	-100 7899.85 300
	100 7899.85 -300
	100 7899.85 -100
	100 7899.85 100
	100 7899.85 300
	300 7899.85 -300
	300 7899.85 -100
	300 7899.85 100
	300 7899.85 300
	-300 8099.86 -300
	-300 8099.86 -100
	-300 8099.86 100
	-300 8099.86 300
	-100 8099.86 -300
	-100 8099.86 -100
	-100 8099.86 100
	-100 8099.86 300
	100 8099.86 -300
	100 8099.86 -100
	100 8099.86 100
	100 8099.86 300
	300 8099.86 -300
	300 8099.86 -100
	300 8099.86 100
	300 8099.86 300
	-300 8299.86 -300
	-300 8299.86 -100
	-300 8299.86 100
	-300 8299.86 300
	-100 8299.86 -300
	-100 8299.86 -100
	-100 8299.86 100
	-100 8299.86 300
	100 8299.86 -300
	100 8299.86 -100
	100 8299.86 100
	100 8299.86 300
	300 8299.86 -300
	300 8299.86 -100
	300 8299.86 100
	300 8299.86 300
	-300 8499.87 -300
	-300 8499.87 -100
	-300 8499.87 100
	-300 8499.87 300
	-100 8499.87 -300
	-100 8499.87 -100
	-100 8499.87 100
	-100 8499.87 300
	100 8499.87 -300
	100 8499.87 -100
	100 8499.87 100
	100 8499.87 300
	300 8499.87 -300
	300 8499.87 -100
	300 8499.87 100
	300 8499.87 300
	-300 8699.88 -300
	-300 8699.88 -100
	-300 8699.88 100
	-300 8699.88 300
	-100 8699.88 -300
	-100 8699.88 -100
	-100 8699.88 100
	-100 8699.88 300
	100 8699.88 -300
	100 8699.88 -100
	100 8699.88 100
	100 8699.88 300
	300 8699.88 -300
	300 8699.88 -100
	300 8699.88 100
	300 8699.88 300
	-300 8899.88 -300
	-300 8899.88 -100
	-300 8899.88 100
	-300 8899.88 300
	-100 8899.88 -300
	-100 8899.88 -100
	-100 8899.88 100
	-100 8899.88 300
	100 8899.88 -300
	100 8899.88 -100
	100 8899.88 100
	100 8899.88 300
	300 8899.88 -300
	300 8899.88 -100
	300 8899.88 100
	300 8899.88 300
	-300 9099.89 -300
	-300 9099.89 -100
	-300 9099.89 100
	-300 9099.89 300
	-100 9099.89 -300
	-100 9099.89 -100
	-100 9099.89 100
	-100 9099.89 300
	100 9099.89 -300
	100 9099.89 -100
	100 9099.89 100
	100 9099.89 300
	300 9099.89 -300
	300 9099.89 -100
	300 9099.89 100
	300 9099.89 300
	-300 9299.9 -300
	-300 9299.9 -100
	-300 9299.9 100
	-300 9299.9 300
	-100 9299.9 -300
	-100 9299.9 -100
	-100 9299.9 100
	-100 9299.9 300
	100 9299.9 -300
	100 9299.9 -100
	100 9299.9 100
	100 9299.9 300
	300 9299.9 -300
	300 9299.9 -100
	300 9299.9 100
	300 9299.9 300
	-300 9499.9 -300
	-300 9499.9 -100
	-300 9499.9 100
	-300 9499.9 300
	-100 9499.9 -300
	-100 9499.9 -100
	-100 9499.9 100
	-100 9499.9 300
	100 9499.9 -300
	100 9499.9 -100
	100 9499.9 100
	100 9499.9 300
	300 9499.9 -300
	300 9499.9 -100
	300 9499.9 100
	300 9499.9 300
	-300 9699.91 -300
	-300 9699.91 -100
	-300 9699.91 100
	-300 9699.91 300
	-100 9699.91 -300
	-100 9699.91 -100
	-100 9699.91 100
	-100 9699.91 300
	100 9699.91 -300
	100 9699.91 -100
	100 9699.91 100
	100 9699.91 300
	300 9699.91 -300
	300 9699.91 -100
	300 9699.91 100
	300 9699.91 300
	-300 9899.91 -300
	-300 9899.91 -100
	-300 9899.91 100
	-300 9899.91 300
	-100 9899.91 -300
	-100 9899.91 -100
	-100 9899.91 100
	-100 9899.91 300
	100 9899.91 -300
	100 9899.91 -100
	100 9899.91 100
	100 9899.91 300
	300 9899.91 -300
	300 9899.91 -100
	300 9899.91 100
	300 9899.91 300
	-300 10099.9 -300
	-300 10099.9 -100
	-300 10099.9 100
	-300 10099.9 300
	-100 10099.9 -300
	-100 10099.9 -100
	-100 10099.9 100
	-100 10099.9 300
	100 10099.9 -300
	100 10099.9 -100
	100 10099.9 100
	100 10099.9 300
	300 10099.9 -300
	300 10099.9 -100
	300 10099.9 100
	300 10099.9 300
	-300 10299.9 -300
	-300 10299.9 -100
	-300 10299.9 100
	-300 10299.9 300
	-100 10299.9 -300
	-100 10299.9 -100
	-100 10299.9 100
	-100 10299.9 300
	100 10299.9 -300
	100 10299.9 -100
	100 10299.9 100
	100 10299.9 300
	300 10299.9 -300
	300 10299.9 -100
	300 10299.9 100
	300 10299.9 300
	-300 10499.9 -300
	-300 10499.9 -100
	-300 10499.9 100
	-300 10499.9 300
	-100 10499.9 -300
	-100 10499.9 -100
	-100 10499.9 100
	-100 10499.9 300
	100 10499.9 -300
	100 10499.9 -100
	100 10499.9 100
	100 10499.9 300
	300 10499.9 -300
	300 10499.9 -100
	300 10499.9 100
	300 10499.9 300
	-300 10700 -300
	-300 10700 -100
	-300 10700 100
	-300 10700 300
	-100 10700 -300
	-100 10700 -100
	-100 10700 100
	-100 10700 300
	100 10700 -300
	100 10700 -100
	100 10700 100
	100 10700 300
	300 10700 -300
	300 10700 -100
	300 10700 100
	300 10700 300
	-300 10900 -300
	-300 10900 -100
	-300 10900 100
	-300 10900 300
	-100 10900 -300
	-100 10900 -100
	-100 10900 100
	-100 10900 300
	100 10900 -300
	100 10900 -100
	100 10900 100
	100 10900 300
	300 10900 -300
	300 10900 -100
	300 10900 100
	300 10900 300
	-300 11100 -300
	-300 11100 -100
	-300 11100 100
	-300 11100 300
	-100 11100 -300
	-100 11100 -100
	-100 11100 100
	-100 11100 300
	100 11100 -300
	100 11100 -100
	100 11100 100
	100 11100 300
	300 11100 -300
	300 11100 -100
	300 11100 100
	300 11100 300
	-300 11300 -300
	-300 11300 -100
	-300 11300 100
	-300 11300 300
	-100 11300 -300
	-100 11300 -100
	-100 11300 100
	-100 11300 300
	100 11300 -300
	100 11300 -100
	100 11300 100
	100 11300 300
	300 11300 -300
	300 11300 -100
	300 11300 100
	300 11300 300
	-300 11500 -300
	-300 11500 -100
	-300 11500 100
	-300 11500 300
	-100 11500 -300
	-100 11500 -100
	-100 11500 100
	-100 11500 300
	100 11500 -300
	100 11500 -100
	100 11500 100
	100 11500 300
	300 11500 -300
	300 11500 -100
	300 11500 100
	300 11500 300
	-300 11700 -300
	-300 11700 -100
	-300 11700 100
	-300 11700 300
	-100 11700 -300
	-100 11700 -100
	-100 11700 100
	-100 11700 300
	100 11700 -300
	100 11700 -100
	100 11700 100
	100 11700 300
	300 11700 -300
	300 11700 -100
	300 11700 100
	300 11700 300
	-300 11900.1 -300
	-300 11900.1 -100
	-300 11900.1 100
	-300 11900.1 300
	-100 11900.1 -300
	-100 11900.1 -100
	-100 11900.1 100
	-100 11900.1 300
	100 11900.1 -300
	100 11900.1 -100
	100 11900.1 100
	100 11900.1 300
	300 11900.1 -300
	300 11900.1 -100
	300 11900.1 100
	300 11900.1 300
	-300 12100.1 -300
	-300 12100.1 -100
	-300 12100.1 100
	-300 12100.1 300
	-100 12100.1 -300
	-100 12100.1 -100
	-100 12100.1 100
	-100 12100.1 300
	100 12100.1 -300
	100 12100.1 -100
	100 12100.1 100
	100 12100.1 300
	300 12100.1 -300
	300 12100.1 -100
	300 12100.1 100
	300 12100.1 300
	-300 12300.1 -300
	-300 12300.1 -100
	-300 12300.1 100
	-300 12300.1 300
	-100 12300.1 -300
	-100 12300.1 -100
	-100 12300.1 100
	-100 12300.1 300
	100 12300.1 -300
	100 12300.1 -100
	100 12300.1 100
	100 12300.1 300
	300 12300.1 -300
	300 12300.1 -100
	300 12300.1 100
	300 12300.1 300
	-300 12500.2 -300
	-300 12500.2 -100
	-300 12500.2 100
	-300 12500.2 300
	-100 12500.2 -300
	-100 12500.2 -100
	-100 12500.2 100
	-100 12500.2 300
	100 12500.2 -300
	100 12500.2 -100
	100 12500.2 100
	100 12500.2 300
	300 12500.2 -300
	300 12500.2 -100
	300 12500.2 100
	300 12500.2 300
	-300 12700.2 -300
	-300 12700.2 -100
	-300 12700.2 100
	-300 12700.2 300
	-100 12700.2 -300
	-100 12700.2 -100
	-100 12700.2 100
	-100 12700.2 300
	100 12700.2 -300
	100 12700.2 -100
	100 12700.2 100
	100 12700.2 300
	300 12700.2 -300
	300 12700.2 -100
	300 12700.2 100
	300 12700.2 300
	-300 12900.3 -300
	-300 12900.3 -100
	-300 12900.3 100
	-300 12900.3 300
	-100 12900.3 -300
	-100 12900.3 -100
	-100 12900.3 100
	-100 12900.3 300
	100 12900.3 -300
	100 12900.3 -100
	100 12900.3 100
	100 12900.3 300
	300 12900.3 -300
	300 12900.3 -100
	300 12900.3 100
	300 12900.3 300
	-300 13100.4 -300
	-300 13100.4 -100
	-300 13100.4 100
	-300 13100.4 300
	-100 13100.4 -300
	-100 13100.4 -100
	-100 13100.4 100
	-100 13100.4 300
	100 13100.4 -300
	100 13100.4 -100
	100 13100.4 100
	100 13100.4 300
	300 13100.4 -300
	300 13100.4 -100
	300 13100.4 100
	300 13100.4 300
	-300 13300.5 -300
	-300 13300.5 -100
	-300 13300.5 100
	-300 13300.5 300
	-100 13300.5 -300
	-100 13300.5 -100
	-100 13300.5 100
	-100 13300.5 300
	100 13300.5 -300
	100 13300.5 -100
	100 13300.5 100
	100 13300.5 300
	300 13300.5 -300
	300 13300.5 -100
	300 13300.5 100
	300 13300.5 300
	-300 13500.7 -300
	-300 13500.7 -100
	-300 13500.7 100
	-300 13500.7 300
	-100 13500.7 -300
	-100 13500.7 -100
	-100 13500.7 100
	-100 13500.7 300
	100 13500.7 -300
	100 13500.7 -100
	100 13500.7 100
	100 13500.7 300
	300 13500.7 -300
	300 13500.7 -100
	300 13500.7 100
	300 13500.7 300
	-300 13701 -300
	-300 13701 -100
	-300 13701 100
	-300 13701 300
	-100 13701 -300
	-100 13701 -100
	-100 13701 100
	-100 13701 300
	100 13701 -300
	100 13701 -100
	100 13701 100
	100 13701 300
	300 13701 -300
	300 13701 -100
	300 13701 100
	300 13701 300
	-300 13902 -300
	-300 13902 -100
	-300 13902 100
	-300 13902 300
	-100 13902 -300
	-100 13902 -100
	-100 13902 100
	-100 13902 300
	100 13902 -300
	100 13902 -100
	100 13902 100
	100 13902 300
	300 13902 -300
	300 13902 -100
	300 13902 100
	300 13902 300
  </DataArray>
</Points>
<PointData  Vectors="vector">
  <DataArray type="Float32" Name="Velocity" NumberOfComponents="3" format="ascii">
 -1.24768e-11 -0.00021582 7.59843e-11
 1.53607e-11 -0.00021582 -7.79182e-12
 3.4332e-11 -0.00021582 -1.48981e-11
 3.32806e-11 -0.00021582 2.56798e-11
 -1.73678e-11 -0.00021582 4.85461e-11
 1.25371e-11 -0.00021582 7.79702e-12
 -6.04714e-12 -0.00021582 -7.86816e-12
 -2.9474e-11 -0.00021582 3.28061e-11
 7.33753e-12 -0.00021582 8.70175e-11
 -2.8284e-11 -0.00021582 2.64912e-11
 -1.15166e-11 -0.00021582 3.05059e-11
 -1.20059e-11 -0.00021582 -9.24369e-12
 5.55024e-12 -0.00021582 -7.30245e-12
 4.40699e-11 -0.00021582 -1.81334e-11
 1.93145e-11 -0.00021582 4.15395e-13
 -2.32938e-11 -0.00021582 3.10118e-12
 -4.25167e-11 -0.00032911 -4.94649e-11
 -4.50334e-12 -0.000329111 -4.54735e-11
 -1.21125e-11 -0.000329111 -2.81129e-11
 -1.63496e-11 -0.000329111 1.44608e-11
 5.36228e-11 -0.000329111 -1.08519e-11
 2.10328e-11 -0.000329111 -3.25014e-11
 1.72436e-11 -0.000329112 -2.47471e-11
 8.59086e-12 -0.00032911 -5.74723e-12
 3.76739e-11 -0.000329111 -1.02463e-11
 2.19363e-11 -0.000329111 -1.71297e-11
 2.75718e-11 -0.000329111 -1.59302e-11
 -1.03961e-12 -0.00032911 5.6208e-12
 1.10013e-11 -0.000329111 -2.24665e-11
 -1.85787e-11 -0.000329111 -1.19491e-11
 1.33991e-12 -0.000329111 -1.25472e-11
 1.57167e-11 -0.000329111 -6.01697e-12
 1.31369e-11 -0.000367225 -4.13877e-12
 -1.73703e-11 -0.000367225 -1.14712e-12
 -7.40083e-12 -0.000367225 -6.06217e-12
 5.47513e-12 -0.000367224 -8.98651e-13
 4.79509e-11 -0.000367223 -2.04766e-12
 6.21085e-11 -0.000367224 -7.60504e-12
 4.59136e-11 -0.000367224 2.09409e-12
 3.6962e-11 -0.000367224 -4.0214e-12
 4.95426e-11 -0.000367225 -6.80057e-13
 5.06918e-11 -0.000367225 -6.35772e-12
 5.17055e-11 -0.000367225 9.48268e-13
 3.48457e-11 -0.000367225 -6.61119e-13
 7.04761e-12 -0.000367224 -1.134e-11
 6.64999e-12 -0.000367224 1.08272e-11
 2.88649e-12 -0.000367224 -5.59368e-12
 4.28987e-12 -0.000367224 1.01109e-13
 -4.61304e-13 -0.000335352 -1.85059e-12
 2.58761e-12 -0.000335355 4.84864e-13
 -4.01946e-12 -0.000335355 -2.85779e-12
 8.22295e-13 -0.000335353 -3.09456e-12
 1.461e-11 -0.000335354 5.84553e-13
 1.34856e-11 -0.000335358 -1.15471e-12
 1.52805e-11 -0.000335359 -5.54473e-12
 1.44508e-11 -0.000335352 3.67428e-12
 1.58788e-11 -0.000335351 -2.92952e-12
 1.43353e-11 -0.000335355 1.81665e-12
 1.83152e-11 -0.000335356 8.16976e-12
 1.62032e-11 -0.000335349 -5.90357e-12
 1.40646e-12 -0.000335354 3.23538e-12
 -2.93913e-12 -0.000335359 1.39788e-13
 -9.39779e-13 -0.000335357 3.20136e-12
 -1.39101e-12 -0.000335357 1.80975e-12
 -3.13513e-12 -0.000360913 1.60051e-12
 3.92717e-12 -0.000360911 2.15815e-12
 5.64801e-12 -0.000360911 7.51066e-13
 1.31674e-13 -0.000360914 -5.56031e-13
 1.66983e-11 -0.000360914 -2.89515e-12
 6.991e-12 -0.00036091 7.05251e-12
 9.34067e-12 -0.00036091 -3.8112e-13
 7.18279e-12 -0.000360915 2.44602e-12
 5.95183e-12 -0.000360915 7.56611e-13
 7.81945e-12 -0.000360911 3.59761e-12
 5.56293e-12 -0.000360911 5.01503e-12
 1.4732e-11 -0.000360917 -1.85329e-12
 4.10607e-12 -0.000360913 1.96203e-12
 5.25165e-12 -0.000360909 3.29407e-12
 2.98447e-12 -0.000360911 4.77616e-12
 5.53356e-12 -0.000360911 2.3307e-12
 -6.98968e-13 -0.000257835 -2.78461e-12
 1.37503e-12 -0.000257835 -3.22324e-14
 -7.49886e-12 -0.000257835 3.25492e-12
 -4.20458e-13 -0.000257835 4.10722e-12
 -9.27173e-12 -0.000257835 1.38597e-12
 -6.84319e-12 -0.000257835 1.53789e-12
 -1.12152e-12 -0.000257836 7.78795e-13
 -4.31889e-12 -0.000257835 4.79893e-14
 -6.15532e-12 -0.000257835 1.76316e-12
 -7.92894e-12 -0.000257835 -3.30548e-12
 -7.71139e-12 -0.000257836 -3.93602e-13
 -6.45242e-12 -0.000257835 4.50868e-12
 4.08087e-12 -0.000257835 3.5088e-12
 -1.28145e-12 -0.000257835 -2.46433e-14
 2.03004e-13 -0.000257835 -1.68214e-13
 -2.97087e-12 -0.000257835 -5.35795e-13
 -2.1216e-12 -0.000247953 4.7621e-13
 -2.43187e-12 -0.000247953 -5.28583e-13
 -1.96869e-12 -0.000247953 1.42758e-12
 -7.16858e-13 -0.000247954 3.56976e-12
 -8.89487e-12 -0.000247954 3.1079e-12
 -7.44228e-12 -0.000247953 3.12419e-13
 -1.07593e-11 -0.000247953 3.01921e-13
 -9.33024e-12 -0.000247954 -1.06839e-12
 -7.2113e-12 -0.000247953 2.3386e-12
 -1.21189e-11 -0.000247953 2.43489e-13
 -7.93234e-12 -0.000247953 -9.57488e-14
 -9.43664e-12 -0.000247954 3.75971e-14
 3.1647e-13 -0.000247954 -1.99547e-13
 1.50598e-13 -0.000247953 -1.0111e-12
 -1.16579e-12 -0.000247953 6.78967e-13
 -1.97961e-12 -0.000247953 1.07128e-12
 1.65996e-13 -0.000190768 2.85844e-12
 4.71579e-13 -0.000190768 3.98122e-12
 4.63408e-13 -0.000190768 5.03655e-12
 1.14712e-12 -0.000190768 -3.84002e-13
 1.55573e-12 -0.000190768 -1.62426e-13
 -2.01162e-12 -0.000190768 -5.14935e-13
 -2.47746e-12 -0.000190768 2.72862e-12
 -4.63893e-12 -0.000190768 6.42251e-12
 -1.57531e-12 -0.000190768 -6.3703e-14
 -3.98295e-13 -0.000190768 2.52602e-12
 -2.96863e-12 -0.000190768 3.9932e-12
 -2.79021e-12 -0.000190768 5.09542e-13
 2.10856e-12 -0.000190768 2.03335e-12
 -3.92239e-13 -0.000190768 1.0914e-12
 1.07367e-12 -0.000190768 -2.55907e-12
 1.27476e-12 -0.000190768 3.61369e-12
 9.68729e-13 -0.000202144 1.10528e-13
 -2.89381e-13 -0.000202144 2.43694e-12
 -1.20667e-12 -0.000202144 3.56909e-12
 1.54192e-12 -0.000202144 1.11739e-12
 3.8751e-12 -0.000202144 1.10418e-12
 1.82527e-12 -0.000202144 1.11754e-12
 2.26896e-12 -0.000202144 2.13458e-12
 -2.42636e-13 -0.000202144 4.03616e-13
 3.7117e-12 -0.000202144 -3.42986e-14
 1.3345e-12 -0.000202144 4.81772e-13
 1.21546e-12 -0.000202144 1.2032e-12
 5.9688e-13 -0.000202144 1.22077e-12
 -5.78071e-13 -0.000202144 8.02838e-13
 1.59301e-12 -0.000202144 -3.15927e-13
 2.64142e-13 -0.000202144 6.84516e-13
 -1.05868e-12 -0.000202144 -1.03809e-12
 1.67159e-12 -0.000139569 8.41462e-13
 1.57523e-12 -0.000139569 2.87452e-12
 2.67429e-12 -0.000139569 2.07015e-12
 -2.18127e-12 -0.000139569 -1.10821e-13
 2.87463e-12 -0.000139569 -3.66489e-13
 4.74458e-12 -0.000139569 2.9107e-12
 5.10625e-13 -0.000139569 2.88385e-13
 6.17369e-12 -0.000139569 2.50144e-12
 4.16641e-12 -0.000139569 4.28039e-13
 4.12951e-12 -0.000139569 2.15633e-12
 3.25261e-12 -0.000139569 2.51504e-12
 2.49995e-12 -0.000139569 -5.54303e-13
 2.8277e-12 -0.000139569 -7.31365e-13
 1.62533e-13 -0.000139569 1.64413e-12
 3.42354e-12 -0.000139569 2.57362e-12
 2.34833e-12 -0.000139569 -6.88777e-13
 1.43732e-12 -0.000150821 -1.70647e-12
 1.82776e-12 -0.000150821 3.92653e-12
 2.49126e-12 -0.000150821 1.69167e-12
 -2.64491e-12 -0.000150821 -6.36953e-13
 4.62128e-12 -0.000150821 4.37853e-13
 2.93752e-12 -0.000150821 1.93135e-12
 2.53568e-12 -0.000150821 2.639e-12
 4.37639e-12 -0.000150821 -3.2916e-13
 3.66024e-12 -0.000150821 1.07904e-13
 3.35696e-12 -0.000150821 8.91921e-13
 3.93007e-12 -0.000150821 1.45949e-12
 5.38084e-12 -0.000150821 9.32966e-13
 -7.85698e-13 -0.000150821 1.20056e-13
 1.98738e-12 -0.000150821 1.57909e-12
 -9.89533e-14 -0.000150821 2.37862e-12
 1.59465e-12 -0.000150821 -1.17847e-12
 -2.44155e-12 -2.58227e-05 -1.78315e-12
 -1.18277e-12 -2.58227e-05 -4.90398e-13
 -1.96292e-12 -2.58226e-05 1.02022e-12
 2.09723e-12 -2.58226e-05 -4.64465e-14
 4.37378e-12 -2.58224e-05 -2.86929e-12
 3.06504e-12 -2.58226e-05 2.46151e-12
 3.40917e-12 -2.58224e-05 1.06755e-12
 2.6328e-12 -2.58226e-05 9.28225e-13
 8.71764e-13 -2.58226e-05 3.66921e-13
 5.86479e-12 -2.58226e-05 1.55494e-12
 5.36699e-12 -2.58226e-05 1.07048e-12
 1.52012e-12 -2.58226e-05 -9.19544e-13
 1.99748e-12 -2.58225e-05 -1.88525e-12
 -2.89563e-13 -2.58226e-05 2.04544e-12
 1.09719e-12 -2.58225e-05 2.11526e-12
 2.47832e-12 -2.58227e-05 4.16323e-13
 -1.92522e-12 -5.98267e-05 -4.406e-13
 1.16277e-12 -5.98268e-05 -1.18e-12
 1.39547e-12 -5.98267e-05 -8.32871e-13
 -8.25713e-13 -5.98267e-05 8.75692e-13
 3.72531e-13 -5.98267e-05 8.54473e-13
 1.49923e-12 -5.98267e-05 1.15554e-12
 1.74105e-12 -5.98267e-05 -1.67853e-13
 3.38629e-12 -5.98268e-05 -1.04336e-13
 2.7749e-12 -5.98267e-05 1.35171e-13
 1.38745e-12 -5.98267e-05 6.27457e-13
 1.95718e-12 -5.98267e-05 1.00577e-12
 4.77622e-13 -5.98268e-05 1.31396e-12
 2.50102e-13 -5.98267e-05 -8.21735e-13
 5.71361e-13 -5.98267e-05 2.46826e-12
 8.36951e-13 -5.98267e-05 2.01604e-12
 4.35147e-12 -5.98267e-05 7.9228e-13
 1.08707e-13 7.1621e-05 1.00413e-12
 -1.24944e-12 7.16211e-05 -9.41475e-13
 -6.93926e-13 7.16211e-05 2.50266e-13
 -4.89144e-13 7.16211e-05 1.99563e-13
 -2.24915e-13 7.1621e-05 -8.91532e-13
 3.70165e-13 7.16211e-05 1.82474e-12
 4.62351e-13 7.1621e-05 1.70658e-12
 1.55141e-12 7.16212e-05 4.71603e-13
 -3.10028e-13 7.16211e-05 4.30889e-13
 1.99638e-12 7.16211e-05 1.67238e-12
 2.79443e-12 7.16211e-05 1.33068e-12
 2.83221e-12 7.16212e-05 9.0086e-13
 -1.18552e-12 7.16211e-05 1.41015e-12
 -2.62042e-13 7.16212e-05 1.73488e-12
 -5.05021e-13 7.16211e-05 2.52377e-12
 -5.43901e-13 7.1621e-05 -1.67131e-13
 -1.09794e-13 4.87791e-05 8.43052e-13
 -6.99574e-13 4.8779e-05 9.71722e-13
 -1.67382e-12 4.8779e-05 4.21385e-13
 7.71395e-15 4.87789e-05 -1.18364e-12
 -1.62513e-12 4.87796e-05 -5.95279e-14
 -3.49409e-13 4.87789e-05 6.20149e-13
 -3.96275e-13 4.87794e-05 1.08856e-12
 8.23742e-13 4.87788e-05 1.06793e-12
 -8.55142e-13 4.87795e-05 7.73997e-13
 9.02385e-13 4.8779e-05 1.37804e-12
 2.2796e-12 4.87791e-05 1.18494e-12
 1.63351e-12 4.87789e-05 1.03236e-12
 6.52247e-13 4.87793e-05 -1.4108e-12
 -3.67033e-13 4.87791e-05 3.7531e-12
 9.28064e-13 4.87794e-05 1.73878e-12
 -3.90214e-13 4.87791e-05 9.70416e-13
 -3.32096e-14 0.000155102 -2.43378e-13
 -2.13558e-12 0.000155102 -1.13856e-13
 1.28581e-13 0.000155102 3.66523e-13
 -2.0493e-12 0.000155102 1.09555e-12
 -9.32715e-13 0.000155102 4.42399e-13
 -1.8097e-12 0.000155102 2.39496e-13
 -9.95931e-13 0.000155102 2.12453e-13
 1.10189e-12 0.000155102 5.14851e-13
 -1.02996e-12 0.000155102 4.7065e-13
 1.94121e-13 0.000155102 2.55182e-13
 -1.18837e-12 0.000155102 6.72594e-13
 -2.06777e-12 0.000155102 5.49298e-13
 -1.05922e-12 0.000155102 1.34423e-13
 8.23501e-13 0.000155102 7.2277e-13
 -3.27407e-13 0.000155102 5.67679e-13
 8.77059e-13 0.000155102 6.04995e-13
 -7.17788e-13 0.000253393 4.97641e-14
 1.25052e-13 0.000253393 -2.74373e-13
 -1.10485e-13 0.000253393 5.08978e-13
 -2.28894e-12 0.000253393 9.75994e-13
 -4.433e-13 0.000253393 -9.16192e-13
 -2.49215e-12 0.000253393 1.54977e-12
 -2.03236e-12 0.000253393 -8.18663e-14
 2.44529e-13 0.000253393 5.60535e-13
 -1.73551e-12 0.000253393 -9.54413e-13
 -1.98951e-12 0.000253393 -2.33266e-14
 -2.16985e-12 0.000253393 1.52606e-12
 -1.6736e-12 0.000253393 3.55519e-13
 -3.8945e-13 0.000253393 -2.74838e-13
 6.57455e-13 0.000253393 1.0361e-12
 4.20102e-13 0.000253393 -4.15393e-13
 -1.36499e-13 0.000253393 3.46613e-13
 1.02249e-13 0.000129743 -5.34168e-13
 -1.97027e-13 0.000129743 7.53252e-13
 5.46759e-14 0.000129743 -6.79298e-13
 4.62781e-14 0.000129743 -1.11928e-12
 -1.6415e-12 0.000129743 -1.76842e-12
 -2.04661e-12 0.000129742 2.43231e-13
 -2.53853e-12 0.000129743 -8.96231e-13
 -1.90745e-12 0.000129742 1.08439e-12
 -2.17064e-12 0.000129743 -1.76298e-12
 -1.73461e-12 0.000129742 1.08936e-12
 -1.44406e-12 0.000129743 -5.93217e-13
 -1.3918e-12 0.000129742 -1.38362e-14
 6.85748e-13 0.000129743 -1.40386e-12
 8.60132e-13 0.000129742 2.44715e-13
 8.74626e-13 0.000129743 -8.108e-13
 7.53842e-13 0.000129742 9.06551e-13
 7.9378e-13 0.000343351 -1.76201e-12
 6.89272e-13 0.000343351 7.07449e-13
 8.55958e-13 0.000343351 -8.08594e-13
 4.52446e-13 0.000343351 -8.85609e-14
 -8.97024e-13 0.000343351 -1.71365e-12
 -3.70851e-13 0.000343351 -5.48067e-13
 -8.91719e-13 0.000343351 5.31637e-14
 -7.41955e-14 0.000343351 1.21572e-13
 4.67361e-13 0.000343351 -1.70594e-12
 -5.61461e-13 0.000343351 6.95757e-13
 -4.55503e-13 0.000343351 -9.66706e-13
 -4.12171e-13 0.000343351 -2.63431e-13
 5.1348e-13 0.000343351 -1.72759e-12
 6.21759e-13 0.000343351 5.32343e-13
 6.19564e-13 0.000343351 -1.05535e-12
 7.52702e-13 0.000343351 4.40424e-13
 -1.44645e-12 0.000612154 5.1639e-13
 -3.01703e-13 0.000612154 5.41718e-13
 4.92556e-14 0.000612154 7.40592e-13
 -3.37411e-12 0.000612154 1.1737e-12
 -2.38581e-12 0.000612154 3.507e-13
 -3.06711e-12 0.000612154 1.83491e-13
 -1.22648e-12 0.000612154 9.8211e-13
 -8.27304e-13 0.000612154 7.22628e-13
 7.64042e-13 0.000612154 5.39677e-13
 -6.98077e-13 0.000612154 -6.73216e-13
 -3.63912e-12 0.000612154 8.38861e-13
 1.47504e-12 0.000612154 9.68045e-13
 3.48509e-12 0.000612154 -1.4254e-13
 3.01806e-12 0.000612154 -1.27656e-12
 2.90882e-12 0.000612154 1.95398e-12
 1.26059e-12 0.000612154 1.41555e-12
 0 -0.000537327 0
 0 -0.000537327 0
 0 -0.000537327 0
 0 -0.000537327 0
 0 -0.000537327 0
 0 -0.000537327 0
 0 -0.000537327 0
 0 -0.000537327 0
 0 -0.000537327 0
 0 -0.000537327 0
 0 -0.000537327 0
 0 -0.000537327 0
 0 -0.000537327 0
 0 -0.000537327 0
 0 -0.000537327 0
 0 -0.000537327 0
 0 0.000307245 0
 0 0.000307245 0
 0 0.000307245 0
 0 0.000307245 0
 0 0.000307245 0
 0 0.000307245 0