<?xml version="1.0"?>
<!-- time 65.7764-->
<VTKFile type="UnstructuredGrid" version="0.1" byte_order="LittleEndian">
<UnstructuredGrid>
<Piece NumberOfPoints="960" NumberOfCells="0">
<Points>
  <DataArray type="Float32" Name="Position" NumberOfComponents="3" format="ascii">
	-300 2099.68 -300
	-300 2099.68 -100
	-300 2099.68 100
	-300 2099.68 300
	-100 2099.68 -300
	-100 2099.68 -100
	-100 2099.68 100
	-100 2099.68 300
	100 2099.68 -300
	100 2099.68 -100
	100 2099.68 100
	100 2099.68 300
	300 2099.68 -300
	300 2099.68 -100
	300 2099.68 100
	300 2099.68 300
	-300 2299.71 -300
	-300 2299.71 -100
	-300 2299.71 100
	-300 2299.71 300
	-100 2299.71 -300
	-100 2299.71 -100
	-100 2299.71 100
	-100 2299.71 300
	100 2299.71 -300
	100 2299.71 -100
	100 2299.71 100
	100 2299.71 300
	300 2299.71 -300
	300 2299.71 -100
	300 2299.71 100
	300 2299.71 300
	-300 2499.71 -300
	-300 2499.71 -100
	-300 2499.71 100
	-300 2499.71 300
	-100 2499.71 -300
	-100 2499.71 -100
	-100 2499.71 100
	-100 2499.71 300
	100 2499.71 -300
	100 2499.71 -100
	100 2499.71 100
	100 2499.71 300
	300 2499.71 -300
	300 2499.71 -100
	300 2499.71 100
	300 2499.71 300
	-300 2699.71 -300
	-300 2699.71 -100
	-300 2699.71 100
	-300 2699.71 300
	-100 2699.71 -300
	-100 2699.71 -100
	-100 2699.71 100
	-100 2699.71 300
	100 2699.71 -300
	100 2699.71 -100
	100 2699.71 100
	100 2699.71 300
	300 2699.71 -300
	300 2699.71 -100
	300 2699.71 100
	300 2699.71 300
	-300 2899.7 -300
	-300 2899.7 -100
	-300 2899.7 100
	-300 2899.7 300
	-100 2899.7 -300
	-100 2899.7 -100
	-100 2899.7 100
	-100 2899.7 300
	100 2899.7 -300
	100 2899.7 -100
	100 2899.7 100
	100 2899.7 300
	300 2899.7 -300
	300 2899.7 -100
	300 2899.7 100
	300 2899.7 300
	-300 3099.7 -300
	-300 3099.7 -100
	-300 3099.7 100
	-300 3099.7 300
	-100 3099.7 -300
	-100 3099.7 -100
	-100 3099.7 100
	-100 3099.7 300
	100 3099.7 -300
	100 3099.7 -100
	100 3099.7 100
	100 3099.7 300
	300 3099.7 -300
	300 3099.7 -100
	300 3099.7 100
	300 3099.7 300
	-300 3299.7 -300
	-300 3299.7 -100
	-300 3299.7 100
	-300 3299.7 300
	-100 3299.7 -300
	-100 3299.7 -100
	-100 3299.7 100
	-100 3299.7 300
	100 3299.7 -300
	100 3299.7 -100
	100 3299.7 100
	100 3299.7 300
	300 3299.7 -300
	300 3299.7 -100
	300 3299.7 100
	300 3299.7 300
	-300 3499.7 -300
	-300 3499.7 -100
	-300 3499.7 100
	-300 3499.7 300
	-100 3499.7 -300
	-100 3499.7 -100
	-100 3499.7 100
	-100 3499.7 300
	100 3499.7 -300
	100 3499.7 -100
	100 3499.7 100
	100 3499.7 300
	300 3499.7 -300
	300 3499.7 -100
	300 3499.7 100
	300 3499.7 300
	-300 3699.7 -300
	-300 3699.7 -100
	-300 3699.7 100
	-300 3699.7 300
	-100 3699.7 -300
	-100 3699.7 -100
	-100 3699.7 100
	-100 3699.7 300
	100 3699.7 -300
	100 3699.7 -100
	100 3699.7 100
	100 3699.7 300
	300 3699.7 -300
	300 3699.7 -100
	300 3699.7 100
	300 3699.7 300
	-300 3899.7 -300
	-300 3899.7 -100
	-300 3899.7 100
	-300 3899.7 300
	-100 3899.7 -300
	-100 3899.7 -100
	-100 3899.7 100
	-100 3899.7 300
	100 3899.7 -300
	100 3899.7 -100
	100 3899.7 100
	100 3899.7 300
	300 3899.7 -300
	300 3899.7 -100
	300 3899.7 100
	300 3899.7 300
	-300 4099.7 -300
	-300 4099.7 -100
	-300 4099.7 100
	-300 4099.7 300
	-100 4099.7 -300
	-100 4099.7 -100
	-100 4099.7 100
	-100 4099.7 300
	100 4099.7 -300
	100 4099.7 -100
	100 4099.7 100
	100 4099.7 300
	300 4099.7 -300
	300 4099.7 -100
	300 4099.7 100
	300 4099.7 300
	-300 4299.7 -300
	-300 4299.7 -100
	-300 4299.7 100
	-300 4299.7 300
	-100 4299.7 -300
	-100 4299.7 -100
	-100 4299.7 100
	-100 4299.7 300
	100 4299.7 -300
	100 4299.7 -100
	100 4299.7 100
	100 4299.7 300
	300 4299.7 -300
	300 4299.7 -100
	300 4299.7 100
	300 4299.7 300
	-300 4499.7 -300
	-300 4499.7 -100
	-300 4499.7 100
	-300 4499.7 300
	-100 4499.7 -300
	-100 4499.7 -100
	-100 4499.7 100
	-100 4499.7 300
	100 4499.7 -300
	100 4499.7 -100
	100 4499.7 100
	100 4499.7 300
	300 4499.7 -300
	300 4499.7 -100
	300 4499.7 100
	300 4499.7 300
	-300 4699.7 -300
	-300 4699.7 -100
	-300 4699.7 100
	-300 4699.7 300
	-100 4699.7 -300
	-100 4699.7 -100
	-100 4699.7 100
	-100 4699.7 300
	100 4699.7 -300
	100 4699.7 -100
	100 4699.7 100
	100 4699.7 300
	300 4699.7 -300
	300 4699.7 -100
	300 4699.7 100
	300 4699.7 300
	-300 4899.7 -300
	-300 4899.7 -100
	-300 4899.7 100
	-300 4899.7 300
	-100 4899.7 -300
	-100 4899.7 -100
	-100 4899.7 100
	-100 4899.7 300
	100 4899.7 -300
	100 4899.7 -100
	100 4899.7 100
	100 4899.7 300
	300 4899.7 -300
	300 4899.7 -100
	300 4899.7 100
	300 4899.7 300
	-300 5099.7 -300
	-300 5099.7 -100
	-300 5099.7 100
	-300 5099.7 300
	-100 5099.7 -300
	-100 5099.7 -100
	-100 5099.7 100
	-100 5099.7 300
	100 5099.7 -300
	100 5099.7 -100
	100 5099.7 100
	100 5099.7 300
	300 5099.7 -300
	300 5099.7 -100
	300 5099.7 100
	300 5099.7 300
	-300 5299.7 -300
	-300 5299.7 -100
	-300 5299.7 100
	-300 5299.7 300
	-100 5299.7 -300
	-100 5299.7 -100
	-100 5299.7 100
	-100 5299.7 300
	100 5299.7 -300
	100 5299.7 -100
	100 5299.7 100
	100 5299.7 300
	300 5299.7 -300
	300 5299.7 -100
	300 5299.7 100
	300 5299.7 300
	-300 5499.7 -300
	-300 5499.7 -100
	-300 5499.7 100
	-300 5499.7 300
	-100 5499.7 -300
	-100 5499.7 -100
	-100 5499.7 100
	-100 5499.7 300
	100 5499.7 -300
	100 5499.7 -100
	100 5499.7 100
	100 5499.7 300
	300 5499.7 -300
	300 5499.7 -100
	300 5499.7 100
	300 5499.7 300
	-300 5699.71 -300
	-300 5699.71 -100
	-300 5699.71 100
	-300 5699.71 300
	-100 5699.71 -300
	-100 5699.71 -100
	-100 5699.71 100
	-100 5699.71 300
	100 5699.71 -300
	100 5699.71 -100
	100 5699.71 100
	100 5699.71 300
	300 5699.71 -300
	300 5699.71 -100
	300 5699.71 100
	300 5699.71 300
	-300 5899.71 -300
	-300 5899.71 -100
	-300 5899.71 100
	-300 5899.71 300
	-100 5899.71 -300
	-100 5899.71 -100
	-100 5899.71 100
	-100 5899.71 300
	100 5899.71 -300
	100 5899.71 -100
	100 5899.71 100
	100 5899.71 300
	300 5899.71 -300
	300 5899.71 -100
	300 5899.71 100
	300 5899.71 300
	-300 6099.74 -300
	-300 6099.74 -100
	-300 6099.74 100
	-300 6099.74 300
	-100 6099.74 -300
	-100 6099.74 -100
	-100 6099.74 100
	-100 6099.74 300
	100 6099.74 -300
	100 6099.74 -100
	100 6099.74 100
	100 6099.74 300
	300 6099.74 -300
	300 6099.74 -100
	300 6099.74 100
	300 6099.74 300
	-300 6299.74 -300
	-300 6299.74 -100
	-300 6299.74 100
	-300 6299.74 300
	-100 6299.74 -300
	-100 6299.74 -100
	-100 6299.74 100
	-100 6299.74 300
	100 6299.74 -300
	100 6299.74 -100
	100 6299.74 100
	100 6299.74 300
	300 6299.74 -300
	300 6299.74 -100
	300 6299.74 100
	300 6299.74 300
	-300 6499.78 -300
	-300 6499.78 -100
	-300 6499.78 100
	-300 6499.78 300
	-100 6499.78 -300
	-100 6499.78 -100
	-100 6499.78 100
	-100 6499.78 300
	100 6499.78 -300
	100 6499.78 -100
	100 6499.78 100
	100 6499.78 300
	300 6499.78 -300
	300 6499.78 -100
	300 6499.78 100
	300 6499.78 300
	-300 6699.8 -300
	-300 6699.8 -100
	-300 6699.8 100
	-300 6699.8 300
	-100 6699.8 -300
	-100 6699.8 -100
	-100 6699.8 100
	-100 6699.8 300
	100 6699.8 -300
	100 6699.8 -100
	100 6699.8 100
	100 6699.8 300
	300 6699.8 -300
	300 6699.8 -100
	300 6699.8 100
	300 6699.8 300
	-300 6899.81 -300
	-300 6899.81 -100
	-300 6899.81 100
	-300 6899.81 300
	-100 6899.81 -300
	-100 6899.81 -100
	-100 6899.81 100
	-100 6899.81 300
	100 6899.81 -300
	100 6899.81 -100
	100 6899.81 100
	100 6899.81 300
	300 6899.81 -300
	300 6899.81 -100
	300 6899.81 100
	300 6899.81 300
	-300 7099.81 -300
	-300 7099.81 -100
	-300 7099.81 100
	-300 7099.81 300
	-100 7099.81 -300
	-100 7099.81 -100
	-100 7099.81 100
	-100 7099.81 300
	100 7099.81 -300
	100 7099.81 -100
	100 7099.81 100
	100 7099.81 300
	300 7099.81 -300
	300 7099.81 -100
	300 7099.81 100
	300 7099.81 300
	-300 7299.82 -300
	-300 7299.82 -100
	-300 7299.82 100
	-300 7299.82 300
	-100 7299.82 -300
	-100 7299.82 -100
	-100 7299.82 100
	-100 7299.82 300
	100 7299.82 -300
	100 7299.82 -100
	100 7299.82 100
	100 7299.82 300
	300 7299.82 -300
	300 7299.82 -100
	300 7299.82 100
	300 7299.82 300
	-300 7499.82 -300
	-300 7499.82 -100
	-300 7499.82 100
	-300 7499.82 300
	-100 7499.82 -300
	-100 7499.82 -100
	-100 7499.82 100
	-100 7499.82 300
	100 7499.82 -300
	100 7499.82 -100
	100 7499.82 100
	100 7499.82 300
	300 7499.82 -300
	300 7499.82 -100
	300 7499.82 100
	300 7499.82 300
	-300 7699.83 -300
	-300 7699.83 -100
	-300 7699.83 100
	-300 7699.83 300
	-100 7699.83 -300
	-100 7699.83 -100
	-100 7699.83 100
	-100 7699.83 300
	100 7699.83 -300
	100 7699.83 -100
	100 7699.83 100
	100 7699.83 300
	300 7699.83 -300
	300 7699.83 -100
	300 7699.83 100
	300 7699.83 300
	-300 7899.82 -300
	-300 7899.82 -100
	-300 7899.82 100
	-300 7899.82 300
	-100 7899.82 -300
	-100 7899.82 -100
	-100 7899.82 100
	-100 7899.82 300
	100 7899.82 -300
	100 7899.82 -100
	100 7899.82 100
	100 7899.82 300
	300 7899.82 -300
	300 7899.82 -100
	300 7899.82 100
	300 7899.82 300
	-300 8099.83 -300
	-300 8099.83 -100
	-300 8099.83 100
	-300 8099.83 300
	-100 8099.83 -300
	-100 8099.83 -100
	-100 8099.83 100
	-100 8099.83 300
	100 8099.83 -300
	100 8099.83 -100
	100 8099.83 100
	100 8099.83 300
	300 8099.83 -300
	300 8099.83 -100
	300 8099.83 100
	300 8099.83 300
	-300 8299.83 -300
	-300 8299.83 -100
	-300 8299.83 100
	-300 8299.83 300
	-100 8299.83 -300
	-100 8299.83 -100
	-100 8299.83 100
	-100 8299.83 300
	100 8299.83 -300
	100 8299.83 -100
	100 8299.83 100
	100 8299.83 300
	300 8299.83 -300
	300 8299.83 -100
	300 8299.83 100
	300 8299.83 300
	-300 8499.84 -300
	-300 8499.84 -100
	-300 8499.84 100
	-300 8499.84 300
	-100 8499.84 -300
	-100 8499.84 -100
	-100 8499.84 100
	-100 8499.84 300
	100 8499.84 -300
	100 8499.84 -100
	100 8499.84 100
	100 8499.84 300
	300 8499.84 -300
	300 8499.84 -100
	300 8499.84 100
	300 8499.84 300
	-300 8699.84 -300
	-300 8699.84 -100
	-300 8699.84 100
	-300 8699.84 300
	-100 8699.84 -300
	-100 8699.84 -100
	-100 8699.84 100
	-100 8699.84 300
	100 8699.84 -300
	100 8699.84 -100
	100 8699.84 100
	100 8699.84 300
	300 8699.84 -300
	300 8699.84 -100
	300 8699.84 100
	300 8699.84 300
	-300 8899.85 -300
	-300 8899.85 -100
	-300 8899.85 100
	-300 8899.85 300
	-100 8899.85 -300
	-100 8899.85 -100
	-100 8899.85 100
	-100 8899.85 300
	100 8899.85 -300
	100 8899.85 -100
	100 8899.85 100
	100 8899.85 300
	300 8899.85 -300
	300 8899.85 -100
	300 8899.85 100
	300 8899.85 300
	-300 9099.86 -300
	-300 9099.86 -100
	-300 9099.86 100
	-300 9099.86 300
	-100 9099.86 -300
	-100 9099.86 -100
	-100 9099.86 100
	-100 9099.86 300
	100 9099.86 -300
	100 9099.86 -100
	100 9099.86 100
	100 9099.86 300
	300 9099.86 -300
	300 9099.86 -100
	300 9099.86 100
	300 9099.86 300
	-300 9299.85 -300
	-300 9299.85 -100
	-300 9299.85 100
	-300 9299.85 300
	-100 9299.85 -300
	-100 9299.85 -100
	-100 9299.85 100
	-100 9299.85 300
	100 9299.85 -300
	100 9299.85 -100
	100 9299.85 100
	100 9299.85 300
	300 9299.85 -300
	300 9299.85 -100
	300 9299.85 100
	300 9299.85 300
	-300 9499.86 -300
	-300 9499.86 -100
	-300 9499.86 100
	-300 9499.86 300
	-100 9499.86 -300
	-100 9499.86 -100
	-100 9499.86 100
	-100 9499.86 300
	100 9499.86 -300
	100 9499.86 -100
	100 9499.86 100
	100 9499.86 300
	300 9499.86 -300
	300 9499.86 -100
	300 9499.86 100
	300 9499.86 300
	-300 9699.87 -300
	-300 9699.87 -100
	-300 9699.87 100
	-300 9699.87 300
	-100 9699.87 -300
	-100 9699.87 -100
	-100 9699.87 100
	-100 9699.87 300
	100 9699.87 -300
	100 9699.87 -100
	100 9699.87 100
	100 9699.87 300
	300 9699.87 -300
	300 9699.87 -100
	300 9699.87 100
	300 9699.87 300
	-300 9899.88 -300
	-300 9899.88 -100
	-300 9899.88 100
	-300 9899.88 300
	-100 9899.88 -300
	-100 9899.88 -100
	-100 9899.88 100
	-100 9899.88 300
	100 9899.88 -300
	100 9899.88 -100
	100 9899.88 100
	100 9899.88 300
	300 9899.88 -300
	300 9899.88 -100
	300 9899.88 100
	300 9899.88 300
	-300 10099.9 -300
	-300 10099.9 -100
	-300 10099.9 100
	-300 10099.9 300
	-100 10099.9 -300
	-100 10099.9 -100
	-100 10099.9 100
	-100 10099.9 300
	100 10099.9 -300
	100 10099.9 -100
	100 10099.9 100
	100 10099.9 300
	300 10099.9 -300
	300 10099.9 -100
	300 10099.9 100
	300 10099.9 300
	-300 10299.9 -300
	-300 10299.9 -100
	-300 10299.9 100
	-300 10299.9 300
	-100 10299.9 -300
	-100 10299.9 -100
	-100 10299.9 100
	-100 10299.9 300
	100 10299.9 -300
	100 10299.9 -100
	100 10299.9 100
	100 10299.9 300
	300 10299.9 -300
	300 10299.9 -100
	300 10299.9 100
	300 10299.9 300
	-300 10499.9 -300
	-300 10499.9 -100
	-300 10499.9 100
	-300 10499.9 300
	-100 10499.9 -300
	-100 10499.9 -100
	-100 10499.9 100
	-100 10499.9 300
	100 10499.9 -300
	100 10499.9 -100
	100 10499.9 100
	100 10499.9 300
	300 10499.9 -300
	300 10499.9 -100
	300 10499.9 100
	300 10499.9 300
	-300 10699.9 -300
	-300 10699.9 -100
	-300 10699.9 100
	-300 10699.9 300
	-100 10699.9 -300
	-100 10699.9 -100
	-100 10699.9 100
	-100 10699.9 300
	100 10699.9 -300
	100 10699.9 -100
	100 10699.9 100
	100 10699.9 300
	300 10699.9 -300
	300 10699.9 -100
	300 10699.9 100
	300 10699.9 300
	-300 10899.9 -300
	-300 10899.9 -100
	-300 10899.9 100
	-300 10899.9 300
	-100 10899.9 -300
	-100 10899.9 -100
	-100 10899.9 100
	-100 10899.9 300
	100 10899.9 -300
	100 10899.9 -100
	100 10899.9 100
	100 10899.9 300
	300 10899.9 -300
	300 10899.9 -100
	300 10899.9 100
	300 10899.9 300
	-300 11099.9 -300
	-300 11099.9 -100
	-300 11099.9 100
	-300 11099.9 300
	-100 11099.9 -300
	-100 11099.9 -100
	-100 11099.9 100
	-100 11099.9 300
	100 11099.9 -300
	100 11099.9 -100
	100 11099.9 100
	100 11099.9 300
	300 11099.9 -300
	300 11099.9 -100
	300 11099.9 100
	300 11099.9 300
	-300 11299.9 -300
	-300 11299.9 -100
	-300 11299.9 100
	-300 11299.9 300
	-100 11299.9 -300
	-100 11299.9 -100
	-100 11299.9 100
	-100 11299.9 300
	100 11299.9 -300
	100 11299.9 -100
	100 11299.9 100
	100 11299.9 300
	300 11299.9 -300
	300 11299.9 -100
	300 11299.9 100
	300 11299.9 300
	-300 11500 -300
	-300 11500 -100
	-300 11500 100
	-300 11500 300
	-100 11500 -300
	-100 11500 -100
	-100 11500 100
	-100 11500 300
	100 11500 -300
	100 11500 -100
	100 11500 100
	100 11500 300
	300 11500 -300
	300 11500 -100
	300 11500 100
	300 11500 300
	-300 11700 -300
	-300 11700 -100
	-300 11700 100
	-300 11700 300
	-100 11700 -300
	-100 11700 -100
	-100 11700 100
	-100 11700 300
	100 11700 -300
	100 11700 -100
	100 11700 100
	100 11700 300
	300 11700 -300
	300 11700 -100
	300 11700 100
	300 11700 300
	-300 11900 -300
	-300 11900 -100
	-300 11900 100
	-300 11900 300
	-100 11900 -300
	-100 11900 -100
	-100 11900 100
	-100 11900 300
	100 11900 -300
	100 11900 -100
	100 11900 100
	100 11900 300
	300 11900 -300
	300 11900 -100
	300 11900 100
	300 11900 300
	-300 12100 -300
	-300 12100 -100
	-300 12100 100
	-300 12100 300
	-100 12100 -300
	-100 12100 -100
	-100 12100 100
	-100 12100 300
	100 12100 -300
	100 12100 -100
	100 12100 100
	100 12100 300
	300 12100 -300
	300 12100 -100
	300 12100 100
	300 12100 300
	-300 12300.1 -300
	-300 12300.1 -100
	-300 12300.1 100
	-300 12300.1 300
	-100 12300.1 -300
	-100 12300.1 -100
	-100 12300.1 100
	-100 12300.1 300
	100 12300.1 -300
	100 12300.1 -100
	100 12300.1 100
	100 12300.1 300
	300 12300.1 -300
	300 12300.1 -100
	300 12300.1 100
	300 12300.1 300
	-300 12500.1 -300
	-300 12500.1 -100
	-300 12500.1 100
	-300 12500.1 300
	-100 12500.1 -300
	-100 12500.1 -100
	-100 12500.1 100
	-100 12500.1 300
	100 12500.1 -300
	100 12500.1 -100
	100 12500.1 100
	100 12500.1 300
	300 12500.1 -300
	300 12500.1 -100
	300 12500.1 100
	300 12500.1 300
	-300 12700.1 -300
	-300 12700.1 -100
	-300 12700.1 100
	-300 12700.1 300
	-100 12700.1 -300
	-100 12700.1 -100
	-100 12700.1 100
	-100 12700.1 300
	100 12700.1 -300
	100 12700.1 -100
	100 12700.1 100
	100 12700.1 300
	300 12700.1 -300
	300 12700.1 -100
	300 12700.1 100
	300 12700.1 300
	-300 12900.2 -300
	-300 12900.2 -100
	-300 12900.2 100
	-300 12900.2 300
	-100 12900.2 -300
	-100 12900.2 -100
	-100 12900.2 100
	-100 12900.2 300
	100 12900.2 -300
	100 12900.2 -100
	100 12900.2 100
	100 12900.2 300
	300 12900.2 -300
	300 12900.2 -100
	300 12900.2 100
	300 12900.2 300
	-300 13100.2 -300
	-300 13100.2 -100
	-300 13100.2 100
	-300 13100.2 300
	-100 13100.2 -300
	-100 13100.2 -100
	-100 13100.2 100
	-100 13100.2 300
	100 13100.2 -300
	100 13100.2 -100
	100 13100.2 100
	100 13100.2 300
	300 13100.2 -300
	300 13100.2 -100
	300 13100.2 100
	300 13100.2 300
	-300 13300.3 -300
	-300 13300.3 -100
	-300 13300.3 100
	-300 13300.3 300
	-100 13300.3 -300
	-100 13300.3 -100
	-100 13300.3 100
	-100 13300.3 300
	100 13300.3 -300
	100 13300.3 -100
	100 13300.3 100
	100 13300.3 300
	300 13300.3 -300
	300 13300.3 -100
	300 13300.3 100
	300 13300.3 300
	-300 13500.5 -300
	-300 13500.5 -100
	-300 13500.5 100
	-300 13500.5 300
	-100 13500.5 -300
	-100 13500.5 -100
	-100 13500.5 100
	-100 13500.5 300
	100 13500.5 -300
	100 13500.5 -100
	100 13500.5 100
	100 13500.5 300
	300 13500.5 -300
	300 13500.5 -100
	300 13500.5 100
	300 13500.5 300
	-300 13700.8 -300
	-300 13700.8 -100
	-300 13700.8 100
	-300 13700.8 300
	-100 13700.8 -300
	-100 13700.8 -100
	-100 13700.8 100
	-100 13700.8 300
	100 13700.8 -300
	100 13700.8 -100
	100 13700.8 100
	100 13700.8 300
	300 13700.8 -300
	300 13700.8 -100
	300 13700.8 100
	300 13700.8 300
	-300 13901.5 -300
	-300 13901.5 -100
	-300 13901.5 100
	-300 13901.5 300
	-100 13901.5 -300
	-100 13901.5 -100
	-100 13901.5 100
	-100 13901.5 300
	100 13901.5 -300
	100 13901.5 -100
	100 13901.5 100
	100 13901.5 300
	300 13901.5 -300
	300 13901.5 -100
	300 13901.5 100
	300 13901.5 300
  </DataArray>
</Points>
<PointData  Vectors="vector">
  <DataArray type="Float32" Name="Velocity" NumberOfComponents="3" format="ascii">
 1.20061e-11 -0.000159298 -3.71987e-12
 -2.78111e-12 -0.000159299 1.12938e-11
 3.60573e-12 -0.000159298 1.32818e-11
 2.24454e-11 -0.000159298 -3.13197e-12
 7.41641e-12 -0.000159299 2.20902e-12
 3.3011e-11 -0.000159299 1.70021e-11
 2.78662e-11 -0.000159298 1.7013e-11
 2.53278e-11 -0.000159298 -2.79238e-12
 1.05422e-11 -0.000159299 -7.69159e-12
 1.44144e-11 -0.000159299 2.15515e-11
 2.53344e-11 -0.000159299 2.28778e-11
 3.85199e-11 -0.000159299 -6.39247e-12
 1.06163e-11 -0.000159299 2.78329e-12
 1.12926e-11 -0.000159299 4.04871e-11
 -2.74891e-12 -0.000159299 3.9305e-11
 2.43746e-11 -0.000159299 2.00399e-12
 4.09456e-12 -0.000787262 -1.25289e-12
 2.4533e-12 -0.000787262 -7.88636e-12
 -1.95726e-12 -0.000787262 -4.58065e-12
 -2.99189e-12 -0.000787262 1.39629e-12
 -2.61731e-11 -0.000787262 -3.55559e-12
 -2.00157e-11 -0.000787262 -4.15929e-12
 -2.45412e-11 -0.000787262 -4.08514e-12
 -1.08205e-11 -0.000787262 -2.47957e-12
 -1.9494e-11 -0.000787262 -3.81483e-12
 -1.39318e-11 -0.000787262 -8.11989e-12
 -2.36686e-11 -0.000787262 -7.72556e-12
 -1.28887e-11 -0.000787262 -6.43274e-12
 9.1802e-12 -0.000787262 -7.23066e-12
 -4.95064e-12 -0.000787262 -2.33432e-12
 1.07035e-12 -0.000787262 -3.00465e-12
 -8.77639e-12 -0.000787262 -4.82814e-12
 4.5484e-12 -0.000661328 -5.14362e-13
 2.61042e-12 -0.000661328 -2.05146e-13
 3.60462e-12 -0.000661328 -3.73241e-12
 8.03414e-12 -0.000661328 2.16258e-12
 -2.03975e-11 -0.000661328 -3.40143e-13
 -2.43312e-11 -0.000661328 -4.47366e-12
 -1.93685e-11 -0.000661328 -4.86398e-12
 -2.57659e-11 -0.000661328 -2.33144e-13
 -2.03019e-11 -0.000661328 -8.7928e-13
 -2.37654e-11 -0.000661329 3.02671e-13
 -2.13893e-11 -0.000661328 7.45546e-13
 -2.5034e-11 -0.000661328 9.36449e-13
 3.36172e-12 -0.000661328 4.88896e-12
 3.12559e-12 -0.000661328 -5.8239e-12
 4.72215e-12 -0.000661328 -6.77398e-12
 7.66386e-12 -0.000661328 2.2466e-12
 3.75856e-12 -0.000325758 5.95675e-13
 5.55492e-12 -0.000325758 5.23375e-12
 4.75373e-12 -0.000325759 5.38358e-12
 1.75046e-12 -0.000325758 5.68129e-13
 1.18676e-12 -0.000325759 -9.02421e-13
 -3.8326e-12 -0.000325759 4.15879e-12
 -4.62582e-12 -0.000325758 6.07656e-12
 6.19671e-13 -0.000325759 -1.72132e-12
 1.33137e-12 -0.000325759 4.4971e-12
 -5.12244e-12 -0.000325758 2.39958e-12
 -6.02371e-13 -0.000325758 1.88197e-12
 -4.925e-12 -0.000325758 1.73328e-12
 4.77688e-12 -0.000325759 -2.7352e-12
 5.69259e-12 -0.000325758 1.8402e-12
 5.44369e-12 -0.000325758 1.05705e-13
 4.59785e-12 -0.000325758 3.71382e-12
 -2.12539e-12 -0.000149719 -1.50011e-12
 -2.39375e-12 -0.000149719 2.98723e-12
 -1.34732e-12 -0.000149719 5.23116e-12
 -2.62345e-12 -0.000149718 -3.12784e-12
 -1.72867e-12 -0.000149719 -2.44952e-12
 -4.14958e-12 -0.000149719 3.22901e-12
 -5.96498e-12 -0.000149719 -5.46641e-12
 -7.19692e-12 -0.000149719 3.32725e-12
 -1.77944e-12 -0.000149719 1.35886e-12
 -6.09813e-12 -0.000149719 -6.57892e-12
 -8.5697e-12 -0.000149719 -1.46392e-12
 -6.36123e-12 -0.000149718 3.1922e-12
 -9.73495e-13 -0.000149718 -7.96368e-12
 -2.27096e-12 -0.000149719 1.1244e-12
 -1.18447e-12 -0.000149719 2.81097e-12
 -4.89842e-12 -0.000149718 -6.70178e-12
 9.06761e-13 -0.000318435 -4.12023e-12
 -1.09187e-12 -0.000318435 2.87801e-12
 -3.38043e-12 -0.000318435 -3.85848e-12
 -1.11625e-12 -0.000318435 8.56118e-12
 5.70971e-12 -0.000318435 -9.65573e-13
 5.66295e-12 -0.000318435 1.30448e-12
 6.4266e-12 -0.000318435 3.09285e-12
 4.46205e-12 -0.000318435 -1.26445e-12
 6.19027e-12 -0.000318435 3.46785e-14
 5.90471e-12 -0.000318435 2.38312e-12
 9.03176e-12 -0.000318435 2.76183e-12
 8.0259e-12 -0.000318435 -1.59377e-12
 -9.88586e-13 -0.000318435 2.63089e-12
 8.54911e-13 -0.000318435 -5.17495e-12
 8.93366e-14 -0.000318435 1.47309e-12
 4.09417e-13 -0.000318435 3.34893e-12
 -7.14611e-13 -5.82756e-05 -5.47241e-12
 2.08792e-12 -5.82754e-05 2.38851e-12
 5.74454e-13 -5.82753e-05 9.2015e-12
 -3.16104e-13 -5.82758e-05 -3.34437e-12
 6.24833e-12 -5.82754e-05 1.37048e-12
 5.68608e-12 -5.82757e-05 -1.40101e-12
 6.14034e-12 -5.82756e-05 1.17919e-12
 6.10577e-12 -5.82757e-05 1.12226e-12
 6.72655e-12 -5.82753e-05 -9.60083e-14
 6.67959e-12 -5.82757e-05 -1.14184e-12
 6.6073e-12 -5.82754e-05 -7.2956e-13
 7.17434e-12 -5.82758e-05 2.91078e-12
 -2.71927e-14 -5.82757e-05 1.20577e-13
 -6.91539e-14 -5.82756e-05 -7.60568e-14
 -7.3612e-13 -5.82756e-05 2.77723e-12
 -5.52362e-14 -5.82759e-05 -3.46302e-13
 -1.05604e-13 -0.000258801 1.6907e-12
 7.50097e-14 -0.000258801 -2.79475e-12
 -1.04089e-12 -0.000258801 -4.57374e-12
 3.6748e-13 -0.000258801 -3.44377e-12
 2.12317e-12 -0.000258801 -5.62184e-12
 2.12685e-12 -0.000258801 -2.17424e-12
 2.47772e-12 -0.000258801 -7.22687e-12
 3.75783e-12 -0.000258801 5.32495e-12
 3.79466e-12 -0.000258801 -7.16021e-12
 2.1123e-12 -0.000258801 -9.86388e-13
 2.86143e-12 -0.000258801 1.77234e-12
 2.38466e-12 -0.000258801 -3.77383e-12
 -1.55984e-12 -0.000258801 1.32056e-12
 1.19195e-12 -0.000258801 -7.22744e-12
 4.70866e-13 -0.000258801 -4.20243e-12
 -8.90417e-14 -0.000258801 3.07542e-12
 3.78284e-13 -0.000270107 -2.14939e-12
 -2.69284e-12 -0.000270107 -1.62355e-12
 4.61189e-14 -0.000270107 -5.88274e-13
 -1.08035e-12 -0.000270107 -1.69191e-12
 7.62974e-13 -0.000270107 -3.1566e-12
 1.47518e-13 -0.000270107 -1.81119e-13
 4.18868e-13 -0.000270107 -4.01727e-12
 2.35477e-12 -0.000270107 7.51455e-13
 1.85507e-12 -0.000270107 -1.18587e-12
 3.79694e-12 -0.000270107 -2.54006e-12
 9.15358e-13 -0.000270107 -1.7704e-12
 3.87626e-12 -0.000270107 -4.00252e-13
 -2.06358e-12 -0.000270107 -6.24374e-13
 2.92031e-13 -0.000270107 -8.11664e-13
 8.59643e-13 -0.000270107 -5.91809e-13
 -1.7238e-12 -0.000270107 -1.92508e-12
 -3.36634e-12 -0.000543097 -3.19957e-13
 1.7172e-13 -0.000543097 -2.73823e-12
 -3.5815e-13 -0.000543097 -1.78855e-12
 -1.78072e-12 -0.000543098 -1.38602e-12
 5.24933e-12 -0.000543097 -7.68132e-13
 2.20404e-12 -0.000543097 -1.59169e-12
 2.13916e-12 -0.000543097 -1.46588e-12
 4.30373e-12 -0.000543098 -1.20784e-12
 1.6952e-12 -0.000543097 -8.22433e-13
 1.79436e-12 -0.000543097 -1.45777e-12
 -2.87962e-12 -0.000543097 -2.9382e-12
 2.28979e-12 -0.000543098 -2.08778e-13
 -3.95051e-13 -0.000543097 -1.2089e-12
 -8.53654e-13 -0.000543098 -1.51174e-12
 4.02225e-12 -0.000543098 -3.68115e-12
 2.195e-14 -0.000543098 1.44538e-12
 -1.30205e-12 -0.000685963 -1.13198e-12
 -2.42944e-12 -0.000685964 2.73199e-13
 1.24063e-12 -0.000685963 2.518e-13
 -5.30605e-12 -0.000685964 -7.33826e-13
 1.72931e-12 -0.000685963 1.36259e-12
 2.96219e-12 -0.000685963 -2.01694e-12
 1.96397e-12 -0.000685963 -1.18417e-13
 4.10812e-12 -0.000685963 1.30965e-12
 4.28303e-12 -0.000685964 3.98403e-13
 2.59522e-12 -0.000685963 1.27631e-13
 1.92337e-12 -0.000685963 1.01002e-12
 3.98851e-12 -0.000685963 -1.81923e-12
 -1.24428e-12 -0.000685962 -1.59061e-14
 9.78611e-13 -0.000685963 -5.59221e-13
 -1.7836e-12 -0.000685963 8.2804e-13
 2.03546e-12 -0.000685964 -6.55273e-13
 -1.10152e-13 -7.18033e-05 -3.37787e-13
 -6.56416e-13 -7.18034e-05 3.27826e-12
 6.14046e-13 -7.18038e-05 6.75816e-13
 1.44741e-12 -7.18032e-05 1.4921e-13
 6.67657e-13 -7.18035e-05 -6.35826e-13
 1.36313e-12 -7.18032e-05 3.25514e-12
 -4.04531e-13 -7.18033e-05 2.25839e-12
 2.35723e-12 -7.18037e-05 1.95176e-12
 -1.12593e-12 -7.18036e-05 1.06658e-13
 3.06788e-13 -7.18032e-05 3.05749e-12
 7.06594e-13 -7.18036e-05 1.10374e-12
 5.02719e-13 -7.18035e-05 2.76381e-12
 2.68214e-13 -7.18036e-05 -1.05608e-12
 7.30301e-13 -7.18034e-05 3.56313e-12
 1.09482e-12 -7.18035e-05 1.49198e-12
 -1.10697e-12 -7.18037e-05 3.03347e-12
 6.80309e-13 -0.000304532 1.1433e-12
 -1.57001e-12 -0.000304532 3.48177e-12
 9.08659e-13 -0.000304532 1.84327e-12
 7.23896e-15 -0.000304532 7.08422e-13
 -4.04738e-13 -0.000304532 2.0365e-12
 2.56015e-12 -0.000304532 4.05833e-12
 -3.57449e-13 -0.000304532 3.51999e-12
 1.35048e-12 -0.000304532 5.62836e-13
 -1.40576e-12 -0.000304532 2.13998e-12
 9.68739e-13 -0.000304532 3.61126e-12
 5.16986e-13 -0.000304532 3.25932e-12
 1.28707e-12 -0.000304532 3.29151e-13
 9.17769e-13 -0.000304532 -2.34306e-13
 8.06009e-13 -0.000304532 4.9265e-12
 9.93661e-13 -0.000304532 3.83242e-12
 1.01056e-12 -0.000304532 2.13797e-12
 4.67051e-13 -0.000359261 -1.03734e-12
 3.61792e-13 -0.00035926 6.61543e-13
 -3.33693e-14 -0.00035926 4.29601e-12
 -2.5127e-13 -0.00035926 1.18779e-12
 -4.00567e-12 -0.000359261 -8.86086e-13
 -4.03153e-13 -0.00035926 2.70614e-12
 -6.09016e-13 -0.000359261 3.87948e-12
 7.6204e-13 -0.00035926 4.39992e-13
 -1.05232e-12 -0.000359261 -3.43958e-13
 -8.52718e-13 -0.00035926 2.40513e-12
 -4.68293e-13 -0.00035926 3.14284e-12
 1.64717e-15 -0.00035926 6.22426e-13
 2.25941e-13 -0.000359261 -8.68245e-13
 -4.36942e-13 -0.000359261 4.73955e-12
 -3.01242e-13 -0.000359261 4.73471e-12
 -1.07239e-12 -0.00035926 -1.46517e-13
 -2.04114e-13 -0.000883064 -1.11387e-12
 -3.20746e-13 -0.000883064 7.06373e-13
 9.06177e-14 -0.000883064 3.32481e-12
 2.18175e-13 -0.000883064 1.31668e-12
 -4.05887e-12 -0.000883062 -2.45288e-13
 -7.76494e-13 -0.000883063 1.65086e-12
 -3.60861e-12 -0.000883062 3.30009e-12
 -1.35224e-12 -0.000883064 -2.55914e-13
 -2.02457e-12 -0.000883062 -5.56898e-13
 -3.86699e-12 -0.000883063 1.80998e-12
 -1.85803e-13 -0.000883063 3.83449e-12
 -1.14613e-12 -0.000883064 -2.61734e-13
 3.52722e-13 -0.000883064 -2.82582e-13
 1.19438e-12 -0.000883062 3.09106e-12
 4.72344e-13 -0.000883063 3.89045e-12
 -3.23842e-14 -0.000883063 8.47122e-13
 -5.25366e-13 -0.000161505 -1.68003e-12
 -9.25522e-13 -0.000161505 1.9865e-12
 -1.21882e-12 -0.000161505 -1.0037e-12
 -4.57978e-13 -0.000161505 5.236e-14
 -2.45427e-13 -0.000161506 8.92693e-13
 -1.73463e-12 -0.000161506 -9.40775e-13
 -2.34302e-12 -0.000161506 -1.97382e-12
 1.71621e-13 -0.000161505 1.07102e-12
 -1.75151e-12 -0.000161506 8.37862e-13
 1.84829e-13 -0.000161505 -1.04697e-12
 1.69397e-13 -0.000161506 -1.89812e-12
 -2.12947e-12 -0.000161505 6.8628e-13
 6.25301e-13 -0.000161504 -1.11433e-12
 1.78584e-12 -0.000161506 -7.11133e-13
 2.26644e-12 -0.000161506 1.89715e-12
 1.86273e-12 -0.000161505 4.85343e-13
 -3.24438e-13 -0.000148526 2.59003e-13
 -1.34057e-12 -0.000148525 -1.57545e-12
 -3.79205e-13 -0.000148526 -2.20464e-12
 -9.38207e-13 -0.000148525 -3.66431e-13
 5.81996e-13 -0.000148526 -6.75497e-13
 2.46307e-13 -0.000148525 -1.94201e-12
 4.00577e-13 -0.000148525 -1.70071e-12
 4.53492e-13 -0.000148525 -2.43746e-14
 -2.54513e-12 -0.000148525 4.9422e-13
 -1.15052e-12 -0.000148526 -2.51857e-12
 -1.71648e-12 -0.000148526 -2.42014e-12
 -1.5704e-12 -0.000148525 5.14058e-13
 1.58895e-12 -0.000148526 -2.02521e-12
 1.7488e-12 -0.000148525 8.11541e-13
 1.61428e-12 -0.000148525 -1.85142e-12
 2.19074e-12 -0.000148525 8.97469e-15
 -4.6577e-13 -0.000133654 2.09681e-14
 -4.81563e-13 -0.000133654 -1.89857e-12
 -1.28909e-13 -0.000133654 -1.31208e-12
 -7.51094e-13 -0.000133654 6.47545e-13
 4.71013e-13 -0.000133654 5.03843e-13
 1.25483e-13 -0.000133654 -1.84233e-12
 6.55429e-13 -0.000133654 -1.57873e-12
 1.15988e-12 -0.000133654 1.32129e-13
 -9.54415e-13 -0.000133654 4.44217e-14
 -1.7287e-13 -0.000133654 -1.31691e-12
 -1.42128e-12 -0.000133654 -1.94729e-12
 6.45952e-13 -0.000133654 4.90271e-13
 1.78015e-12 -0.000133654 2.64203e-13
 1.3176e-12 -0.000133654 -2.21292e-12
 1.7583e-12 -0.000133654 -1.21579e-12
 -4.10489e-13 -0.000133654 3.48612e-13
 -1.1724e-13 0.00117597 4.59168e-14
 -7.22684e-13 0.00117597 -1.79151e-12
 -4.55894e-13 0.00117597 -3.23703e-12
 -7.33807e-13 0.00117597 8.07618e-13
 9.67327e-13 0.00117597 2.0577e-13
 1.17942e-12 0.00117597 -2.13148e-12
 1.3582e-12 0.00117597 -2.49438e-12
 8.18907e-13 0.00117597 -2.33432e-13
 1.77003e-12 0.00117597 -3.95158e-13
 1.72903e-12 0.00117597 -1.81963e-12
 1.45176e-13 0.00117597 -1.18879e-12
 1.42191e-12 0.00117597 -9.25586e-13
 -3.41029e-13 0.00117597 -7.30828e-14
 7.09101e-14 0.00117597 -2.472e-12
 1.52666e-12 0.00117597 -2.98131e-12
 1.30882e-13 0.00117597 6.37671e-13
 1.32189e-13 -0.000925955 9.19637e-14
 3.96017e-13 -0.000925955 -1.89518e-12
 -3.29382e-13 -0.000925955 4.30706e-13
 5.20548e-13 -0.000925955 3.3184e-13
 1.63567e-12 -0.000925955 -1.89615e-13
 1.29916e-12 -0.000925955 -1.19453e-12
 7.94996e-13 -0.000925955 -1.13316e-12
 1.93949e-14 -0.000925955 6.14603e-13
 3.67461e-13 -0.000925955 -1.69309e-13
 1.30639e-12 -0.000925955 -1.13362e-12
 2.09013e-12 -0.000925955 -8.15476e-13
 7.19329e-13 -0.000925955 1.71311e-13
 1.63015e-12 -0.000925955 -2.65874e-13
 -7.05514e-13 -0.000925955 -2.48946e-12
 -3.13315e-13 -0.000925955 -2.57704e-12
 -7.53784e-13 -0.000925955 5.84009e-13
 8.49101e-20 -0.000243632 5.61697e-15
 0 -0.000243632 5.48381e-15
 1.27017e-19 -0.000243632 5.47951e-15
 0 -0.000243632 -7.05672e-21
 -7.47176e-16 -0.000243632 3.99283e-15
 -2.93336e-15 -0.000243632 4.21862e-15
 -3.15344e-15 -0.000243632 3.14561e-15
 -5.49915e-15 -0.000243632 -2.49165e-17