<?xml version="1.0"?>
<!-- time 43.8509-->
<VTKFile type="UnstructuredGrid" version="0.1" byte_order="LittleEndian">
<UnstructuredGrid>
<Piece NumberOfPoints="960" NumberOfCells="0">
<Points>
  <DataArray type="Float32" Name="Position" NumberOfComponents="3" format="ascii">
	-300 2099.88 -300
	-300 2099.88 -100
	-300 2099.88 100
	-300 2099.88 300
	-100 2099.88 -300
	-100 2099.88 -100
	-100 2099.88 100
	-100 2099.88 300
	100 2099.88 -300
	100 2099.88 -100
	100 2099.88 100
	100 2099.88 300
	300 2099.88 -300
	300 2099.88 -100
	300 2099.88 100
	300 2099.88 300
	-300 2299.85 -300
	-300 2299.85 -100
	-300 2299.85 100
	-300 2299.85 300
	-100 2299.85 -300
	-100 2299.85 -100
	-100 2299.85 100
	-100 2299.85 300
	100 2299.85 -300
	100 2299.85 -100
	100 2299.85 100
	100 2299.85 300
	300 2299.85 -300
	300 2299.85 -100
	300 2299.85 100
	300 2299.85 300
	-300 2499.81 -300
	-300 2499.81 -100
	-300 2499.81 100
	-300 2499.81 300
	-100 2499.81 -300
	-100 2499.81 -100
	-100 2499.81 100
	-100 2499.81 300
	100 2499.81 -300
	100 2499.81 -100
	100 2499.81 100
	100 2499.81 300
	300 2499.81 -300
	300 2499.81 -100
	300 2499.81 100
	300 2499.81 300
	-300 2699.78 -300
	-300 2699.78 -100
	-300 2699.78 100
	-300 2699.78 300
	-100 2699.78 -300
	-100 2699.78 -100
	-100 2699.78 100
	-100 2699.78 300
	100 2699.78 -300
	100 2699.78 -100
	100 2699.78 100
	100 2699.78 300
	300 2699.78 -300
	300 2699.78 -100
	300 2699.78 100
	300 2699.78 300
	-300 2899.75 -300
	-300 2899.75 -100
	-300 2899.75 100
	-300 2899.75 300
	-100 2899.75 -300
	-100 2899.75 -100
	-100 2899.75 100
	-100 2899.75 300
	100 2899.75 -300
	100 2899.75 -100
	100 2899.75 100
	100 2899.75 300
	300 2899.75 -300
	300 2899.75 -100
	300 2899.75 100
	300 2899.75 300
	-300 3099.73 -300
	-300 3099.73 -100
	-300 3099.73 100
	-300 3099.73 300
	-100 3099.73 -300
	-100 3099.73 -100
	-100 3099.73 100
	-100 3099.73 300
	100 3099.73 -300
	100 3099.73 -100
	100 3099.73 100
	100 3099.73 300
	300 3099.73 -300
	300 3099.73 -100
	300 3099.73 100
	300 3099.73 300
	-300 3299.72 -300
	-300 3299.72 -100
	-300 3299.72 100
	-300 3299.72 300
	-100 3299.72 -300
	-100 3299.72 -100
	-100 3299.72 100
	-100 3299.72 300
	100 3299.72 -300
	100 3299.72 -100
	100 3299.72 100
	100 3299.72 300
	300 3299.72 -300
	300 3299.72 -100
	300 3299.72 100
	300 3299.72 300
	-300 3499.72 -300
	-300 3499.72 -100
	-300 3499.72 100
	-300 3499.72 300
	-100 3499.72 -300
	-100 3499.72 -100
	-100 3499.72 100
	-100 3499.72 300
	100 3499.72 -300
	100 3499.72 -100
	100 3499.72 100
	100 3499.72 300
	300 3499.72 -300
	300 3499.72 -100
	300 3499.72 100
	300 3499.72 300
	-300 3699.72 -300
	-300 3699.72 -100
	-300 3699.72 100
	-300 3699.72 300
	-100 3699.72 -300
	-100 3699.72 -100
	-100 3699.72 100
	-100 3699.72 300
	100 3699.72 -300
	100 3699.72 -100
	100 3699.72 100
	100 3699.72 300
	300 3699.72 -300
	300 3699.72 -100
	300 3699.72 100
	300 3699.72 300
	-300 3899.72 -300
	-300 3899.72 -100
	-300 3899.72 100
	-300 3899.72 300
	-100 3899.72 -300
	-100 3899.72 -100
	-100 3899.72 100
	-100 3899.72 300
	100 3899.72 -300
	100 3899.72 -100
	100 3899.72 100
	100 3899.72 300
	300 3899.72 -300
	300 3899.72 -100
	300 3899.72 100
	300 3899.72 300
	-300 4099.72 -300
	-300 4099.72 -100
	-300 4099.72 100
	-300 4099.72 300
	-100 4099.72 -300
	-100 4099.72 -100
	-100 4099.72 100
	-100 4099.72 300
	100 4099.72 -300
	100 4099.72 -100
	100 4099.72 100
	100 4099.72 300
	300 4099.72 -300
	300 4099.72 -100
	300 4099.72 100
	300 4099.72 300
	-300 4299.72 -300
	-300 4299.72 -100
	-300 4299.72 100
	-300 4299.72 300
	-100 4299.72 -300
	-100 4299.72 -100
	-100 4299.72 100
	-100 4299.72 300
	100 4299.72 -300
	100 4299.72 -100
	100 4299.72 100
	100 4299.72 300
	300 4299.72 -300
	300 4299.72 -100
	300 4299.72 100
	300 4299.72 300
	-300 4499.72 -300
	-300 4499.72 -100
	-300 4499.72 100
	-300 4499.72 300
	-100 4499.72 -300
	-100 4499.72 -100
	-100 4499.72 100
	-100 4499.72 300
	100 4499.72 -300
	100 4499.72 -100
	100 4499.72 100
	100 4499.72 300
	300 4499.72 -300
	300 4499.72 -100
	300 4499.72 100
	300 4499.72 300
	-300 4699.72 -300
	-300 4699.72 -100
	-300 4699.72 100
	-300 4699.72 300
	-100 4699.72 -300
	-100 4699.72 -100
	-100 4699.72 100
	-100 4699.72 300
	100 4699.72 -300
	100 4699.72 -100
	100 4699.72 100
	100 4699.72 300
	300 4699.72 -300
	300 4699.72 -100
	300 4699.72 100
	300 4699.72 300
	-300 4899.72 -300
	-300 4899.72 -100
	-300 4899.72 100
	-300 4899.72 300
	-100 4899.72 -300
	-100 4899.72 -100
	-100 4899.72 100
	-100 4899.72 300
	100 4899.72 -300
	100 4899.72 -100
	100 4899.72 100
	100 4899.72 300
	300 4899.72 -300
	300 4899.72 -100
	300 4899.72 100
	300 4899.72 300
	-300 5099.72 -300
	-300 5099.72 -100
	-300 5099.72 100
	-300 5099.72 300
	-100 5099.72 -300
	-100 5099.72 -100
	-100 5099.72 100
	-100 5099.72 300
	100 5099.72 -300
	100 5099.72 -100
	100 5099.72 100
	100 5099.72 300
	300 5099.72 -300
	300 5099.72 -100
	300 5099.72 100
	300 5099.72 300
	-300 5299.73 -300
	-300 5299.73 -100
	-300 5299.73 100
	-300 5299.73 300
	-100 5299.73 -300
	-100 5299.73 -100
	-100 5299.73 100
	-100 5299.73 300
	100 5299.73 -300
	100 5299.73 -100
	100 5299.73 100
	100 5299.73 300
	300 5299.73 -300
	300 5299.73 -100
	300 5299.73 100
	300 5299.73 300
	-300 5499.73 -300
	-300 5499.73 -100
	-300 5499.73 100
	-300 5499.73 300
	-100 5499.73 -300
	-100 5499.73 -100
	-100 5499.73 100
	-100 5499.73 300
	100 5499.73 -300
	100 5499.73 -100
	100 5499.73 100
	100 5499.73 300
	300 5499.73 -300
	300 5499.73 -100
	300 5499.73 100
	300 5499.73 300
	-300 5699.73 -300
	-300 5699.73 -100
	-300 5699.73 100
	-300 5699.73 300
	-100 5699.73 -300
	-100 5699.73 -100
	-100 5699.73 100
	-100 5699.73 300
	100 5699.73 -300
	100 5699.73 -100
	100 5699.73 100
	100 5699.73 300
	300 5699.73 -300
	300 5699.73 -100
	300 5699.73 100
	300 5699.73 300
	-300 5899.73 -300
	-300 5899.73 -100
	-300 5899.73 100
	-300 5899.73 300
	-100 5899.73 -300
	-100 5899.73 -100
	-100 5899.73 100
	-100 5899.73 300
	100 5899.73 -300
	100 5899.73 -100
	100 5899.73 100
	100 5899.73 300
	300 5899.73 -300
	300 5899.73 -100
	300 5899.73 100
	300 5899.73 300
	-300 6099.74 -300
	-300 6099.74 -100
	-300 6099.74 100
	-300 6099.74 300
	-100 6099.74 -300
	-100 6099.74 -100
	-100 6099.74 100
	-100 6099.74 300
	100 6099.74 -300
	100 6099.74 -100
	100 6099.74 100
	100 6099.74 300
	300 6099.74 -300
	300 6099.74 -100
	300 6099.74 100
	300 6099.74 300
	-300 6299.74 -300
	-300 6299.74 -100
	-300 6299.74 100
	-300 6299.74 300
	-100 6299.74 -300
	-100 6299.74 -100
	-100 6299.74 100
	-100 6299.74 300
	100 6299.74 -300
	100 6299.74 -100
	100 6299.74 100
	100 6299.74 300
	300 6299.74 -300
	300 6299.74 -100
	300 6299.74 100
	300 6299.74 300
	-300 6499.76 -300
	-300 6499.76 -100
	-300 6499.76 100
	-300 6499.76 300
	-100 6499.76 -300
	-100 6499.76 -100
	-100 6499.76 100
	-100 6499.76 300
	100 6499.76 -300
	100 6499.76 -100
	100 6499.76 100
	100 6499.76 300
	300 6499.76 -300
	300 6499.76 -100
	300 6499.76 100
	300 6499.76 300
	-300 6699.76 -300
	-300 6699.76 -100
	-300 6699.76 100
	-300 6699.76 300
	-100 6699.76 -300
	-100 6699.76 -100
	-100 6699.76 100
	-100 6699.76 300
	100 6699.76 -300
	100 6699.76 -100
	100 6699.76 100
	100 6699.76 300
	300 6699.76 -300
	300 6699.76 -100
	300 6699.76 100
	300 6699.76 300
	-300 6899.77 -300
	-300 6899.77 -100
	-300 6899.77 100
	-300 6899.77 300
	-100 6899.77 -300
	-100 6899.77 -100
	-100 6899.77 100
	-100 6899.77 300
	100 6899.77 -300
	100 6899.77 -100
	100 6899.77 100
	100 6899.77 300
	300 6899.77 -300
	300 6899.77 -100
	300 6899.77 100
	300 6899.77 300
	-300 7099.77 -300
	-300 7099.77 -100
	-300 7099.77 100
	-300 7099.77 300
	-100 7099.77 -300
	-100 7099.77 -100
	-100 7099.77 100
	-100 7099.77 300
	100 7099.77 -300
	100 7099.77 -100
	100 7099.77 100
	100 7099.77 300
	300 7099.77 -300
	300 7099.77 -100
	300 7099.77 100
	300 7099.77 300
	-300 7299.77 -300
	-300 7299.77 -100
	-300 7299.77 100
	-300 7299.77 300
	-100 7299.77 -300
	-100 7299.77 -100
	-100 7299.77 100
	-100 7299.77 300
	100 7299.77 -300
	100 7299.77 -100
	100 7299.77 100
	100 7299.77 300
	300 7299.77 -300
	300 7299.77 -100
	300 7299.77 100
	300 7299.77 300
	-300 7499.77 -300
	-300 7499.77 -100
	-300 7499.77 100
	-300 7499.77 300
	-100 7499.77 -300
	-100 7499.77 -100
	-100 7499.77 100
	-100 7499.77 300
	100 7499.77 -300
	100 7499.77 -100
	100 7499.77 100
	100 7499.77 300
	300 7499.77 -300
	300 7499.77 -100
	300 7499.77 100
	300 7499.77 300
	-300 7699.78 -300
	-300 7699.78 -100
	-300 7699.78 100
	-300 7699.78 300
	-100 7699.78 -300
	-100 7699.78 -100
	-100 7699.78 100
	-100 7699.78 300
	100 7699.78 -300
	100 7699.78 -100
	100 7699.78 100
	100 7699.78 300
	300 7699.78 -300
	300 7699.78 -100
	300 7699.78 100
	300 7699.78 300
	-300 7899.78 -300
	-300 7899.78 -100
	-300 7899.78 100
	-300 7899.78 300
	-100 7899.78 -300
	-100 7899.78 -100
	-100 7899.78 100
	-100 7899.78 300
	100 7899.78 -300
	100 7899.78 -100
	100 7899.78 100
	100 7899.78 300
	300 7899.78 -300
	300 7899.78 -100
	300 7899.78 100
	300 7899.78 300
	-300 8099.78 -300
	-300 8099.78 -100
	-300 8099.78 100
	-300 8099.78 300
	-100 8099.78 -300
	-100 8099.78 -100
	-100 8099.78 100
	-100 8099.78 300
	100 8099.78 -300
	100 8099.78 -100
	100 8099.78 100
	100 8099.78 300
	300 8099.78 -300
	300 8099.78 -100
	300 8099.78 100
	300 8099.78 300
	-300 8299.79 -300
	-300 8299.79 -100
	-300 8299.79 100
	-300 8299.79 300
	-100 8299.79 -300
	-100 8299.79 -100
	-100 8299.79 100
	-100 8299.79 300
	100 8299.79 -300
	100 8299.79 -100
	100 8299.79 100
	100 8299.79 300
	300 8299.79 -300
	300 8299.79 -100
	300 8299.79 100
	300 8299.79 300
	-300 8499.79 -300
	-300 8499.79 -100
	-300 8499.79 100
	-300 8499.79 300
	-100 8499.79 -300
	-100 8499.79 -100
	-100 8499.79 100
	-100 8499.79 300
	100 8499.79 -300
	100 8499.79 -100
	100 8499.79 100
	100 8499.79 300
	300 8499.79 -300
	300 8499.79 -100
	300 8499.79 100
	300 8499.79 300
	-300 8699.79 -300
	-300 8699.79 -100
	-300 8699.79 100
	-300 8699.79 300
	-100 8699.79 -300
	-100 8699.79 -100
	-100 8699.79 100
	-100 8699.79 300
	100 8699.79 -300
	100 8699.79 -100
	100 8699.79 100
	100 8699.79 300
	300 8699.79 -300
	300 8699.79 -100
	300 8699.79 100
	300 8699.79 300
	-300 8899.8 -300
	-300 8899.8 -100
	-300 8899.8 100
	-300 8899.8 300
	-100 8899.8 -300
	-100 8899.8 -100
	-100 8899.8 100
	-100 8899.8 300
	100 8899.8 -300
	100 8899.8 -100
	100 8899.8 100
	100 8899.8 300
	300 8899.8 -300
	300 8899.8 -100
	300 8899.8 100
	300 8899.8 300
	-300 9099.8 -300
	-300 9099.8 -100
	-300 9099.8 100
	-300 9099.8 300
	-100 9099.8 -300
	-100 9099.8 -100
	-100 9099.8 100
	-100 9099.8 300
	100 9099.8 -300
	100 9099.8 -100
	100 9099.8 100
	100 9099.8 300
	300 9099.8 -300
	300 9099.8 -100
	300 9099.8 100
	300 9099.8 300
	-300 9299.81 -300
	-300 9299.81 -100
	-300 9299.81 100
	-300 9299.81 300
	-100 9299.81 -300
	-100 9299.81 -100
	-100 9299.81 100
	-100 9299.81 300
	100 9299.81 -300
	100 9299.81 -100
	100 9299.81 100
	100 9299.81 300
	300 9299.81 -300
	300 9299.81 -100
	300 9299.81 100
	300 9299.81 300
	-300 9499.81 -300
	-300 9499.81 -100
	-300 9499.81 100
	-300 9499.81 300
	-100 9499.81 -300
	-100 9499.81 -100
	-100 9499.81 100
	-100 9499.81 300
	100 9499.81 -300
	100 9499.81 -100
	100 9499.81 100
	100 9499.81 300
	300 9499.81 -300
	300 9499.81 -100
	300 9499.81 100
	300 9499.81 300
	-300 9699.82 -300
	-300 9699.82 -100
	-300 9699.82 100
	-300 9699.82 300
	-100 9699.82 -300
	-100 9699.82 -100
	-100 9699.82 100
	-100 9699.82 300
	100 9699.82 -300
	100 9699.82 -100
	100 9699.82 100
	100 9699.82 300
	300 9699.82 -300
	300 9699.82 -100
	300 9699.82 100
	300 9699.82 300
	-300 9899.82 -300
	-300 9899.82 -100
	-300 9899.82 100
	-300 9899.82 300
	-100 9899.82 -300
	-100 9899.82 -100
	-100 9899.82 100
	-100 9899.82 300
	100 9899.82 -300
	100 9899.82 -100
	100 9899.82 100
	100 9899.82 300
	300 9899.82 -300
	300 9899.82 -100
	300 9899.82 100
	300 9899.82 300
	-300 10099.8 -300
	-300 10099.8 -100
	-300 10099.8 100
	-300 10099.8 300
	-100 10099.8 -300
	-100 10099.8 -100
	-100 10099.8 100
	-100 10099.8 300
	100 10099.8 -300
	100 10099.8 -100
	100 10099.8 100
	100 10099.8 300
	300 10099.8 -300
	300 10099.8 -100
	300 10099.8 100
	300 10099.8 300
	-300 10299.8 -300
	-300 10299.8 -100
	-300 10299.8 100
	-300 10299.8 300
	-100 10299.8 -300
	-100 10299.8 -100
	-100 10299.8 100
	-100 10299.8 300
	100 10299.8 -300
	100 10299.8 -100
	100 10299.8 100
	100 10299.8 300
	300 10299.8 -300
	300 10299.8 -100
	300 10299.8 100
	300 10299.8 300
	-300 10499.8 -300
	-300 10499.8 -100
	-300 10499.8 100
	-300 10499.8 300
	-100 10499.8 -300
	-100 10499.8 -100
	-100 10499.8 100
	-100 10499.8 300
	100 10499.8 -300
	100 10499.8 -100
	100 10499.8 100
	100 10499.8 300
	300 10499.8 -300
	300 10499.8 -100
	300 10499.8 100
	300 10499.8 300
	-300 10699.9 -300
	-300 10699.9 -100
	-300 10699.9 100
	-300 10699.9 300
	-100 10699.9 -300
	-100 10699.9 -100
	-100 10699.9 100
	-100 10699.9 300
	100 10699.9 -300
	100 10699.9 -100
	100 10699.9 100
	100 10699.9 300
	300 10699.9 -300
	300 10699.9 -100
	300 10699.9 100
	300 10699.9 300
	-300 10899.9 -300
	-300 10899.9 -100
	-300 10899.9 100
	-300 10899.9 300
	-100 10899.9 -300
	-100 10899.9 -100
	-100 10899.9 100
	-100 10899.9 300
	100 10899.9 -300
	100 10899.9 -100
	100 10899.9 100
	100 10899.9 300
	300 10899.9 -300
	300 10899.9 -100
	300 10899.9 100
	300 10899.9 300
	-300 11099.9 -300
	-300 11099.9 -100
	-300 11099.9 100
	-300 11099.9 300
	-100 11099.9 -300
	-100 11099.9 -100
	-100 11099.9 100
	-100 11099.9 300
	100 11099.9 -300
	100 11099.9 -100
	100 11099.9 100
	100 11099.9 300
	300 11099.9 -300
	300 11099.9 -100
	300 11099.9 100
	300 11099.9 300
	-300 11299.9 -300
	-300 11299.9 -100
	-300 11299.9 100
	-300 11299.9 300
	-100 11299.9 -300
	-100 11299.9 -100
	-100 11299.9 100
	-100 11299.9 300
	100 11299.9 -300
	100 11299.9 -100
	100 11299.9 100
	100 11299.9 300
	300 11299.9 -300
	300 11299.9 -100
	300 11299.9 100
	300 11299.9 300
	-300 11499.9 -300
	-300 11499.9 -100
	-300 11499.9 100
	-300 11499.9 300
	-100 11499.9 -300
	-100 11499.9 -100
	-100 11499.9 100
	-100 11499.9 300
	100 11499.9 -300
	100 11499.9 -100
	100 11499.9 100
	100 11499.9 300
	300 11499.9 -300
	300 11499.9 -100
	300 11499.9 100
	300 11499.9 300
	-300 11699.9 -300
	-300 11699.9 -100
	-300 11699.9 100
	-300 11699.9 300
	-100 11699.9 -300
	-100 11699.9 -100
	-100 11699.9 100
	-100 11699.9 300
	100 11699.9 -300
	100 11699.9 -100
	100 11699.9 100
	100 11699.9 300
	300 11699.9 -300
	300 11699.9 -100
	300 11699.9 100
	300 11699.9 300
	-300 11899.9 -300
	-300 11899.9 -100
	-300 11899.9 100
	-300 11899.9 300
	-100 11899.9 -300
	-100 11899.9 -100
	-100 11899.9 100
	-100 11899.9 300
	100 11899.9 -300
	100 11899.9 -100
	100 11899.9 100
	100 11899.9 300
	300 11899.9 -300
	300 11899.9 -100
	300 11899.9 100
	300 11899.9 300
	-300 12099.9 -300
	-300 12099.9 -100
	-300 12099.9 100
	-300 12099.9 300
	-100 12099.9 -300
	-100 12099.9 -100
	-100 12099.9 100
	-100 12099.9 300
	100 12099.9 -300
	100 12099.9 -100
	100 12099.9 100
	100 12099.9 300
	300 12099.9 -300
	300 12099.9 -100
	300 12099.9 100
	300 12099.9 300
	-300 12300 -300
	-300 12300 -100
	-300 12300 100
	-300 12300 300
	-100 12300 -300
	-100 12300 -100
	-100 12300 100
	-100 12300 300
	100 12300 -300
	100 12300 -100
	100 12300 100
	100 12300 300
	300 12300 -300
	300 12300 -100
	300 12300 100
	300 12300 300
	-300 12500 -300
	-300 12500 -100
	-300 12500 100
	-300 12500 300
	-100 12500 -300
	-100 12500 -100
	-100 12500 100
	-100 12500 300
	100 12500 -300
	100 12500 -100
	100 12500 100
	100 12500 300
	300 12500 -300
	300 12500 -100
	300 12500 100
	300 12500 300
	-300 12700 -300
	-300 12700 -100
	-300 12700 100
	-300 12700 300
	-100 12700 -300
	-100 12700 -100
	-100 12700 100
	-100 12700 300
	100 12700 -300
	100 12700 -100
	100 12700 100
	100 12700 300
	300 12700 -300
	300 12700 -100
	300 12700 100
	300 12700 300
	-300 12900 -300
	-300 12900 -100
	-300 12900 100
	-300 12900 300
	-100 12900 -300
	-100 12900 -100
	-100 12900 100
	-100 12900 300
	100 12900 -300
	100 12900 -100
	100 12900 100
	100 12900 300
	300 12900 -300
	300 12900 -100
	300 12900 100
	300 12900 300
	-300 13100.1 -300
	-300 13100.1 -100
	-300 13100.1 100
	-300 13100.1 300
	-100 13100.1 -300
	-100 13100.1 -100
	-100 13100.1 100
	-100 13100.1 300
	100 13100.1 -300
	100 13100.1 -100
	100 13100.1 100
	100 13100.1 300
	300 13100.1 -300
	300 13100.1 -100
	300 13100.1 100
	300 13100.1 300
	-300 13300.2 -300
	-300 13300.2 -100
	-300 13300.2 100
	-300 13300.2 300
	-100 13300.2 -300
	-100 13300.2 -100
	-100 13300.2 100
	-100 13300.2 300
	100 13300.2 -300
	100 13300.2 -100
	100 13300.2 100
	100 13300.2 300
	300 13300.2 -300
	300 13300.2 -100
	300 13300.2 100
	300 13300.2 300
	-300 13500.3 -300
	-300 13500.3 -100
	-300 13500.3 100
	-300 13500.3 300
	-100 13500.3 -300
	-100 13500.3 -100
	-100 13500.3 100
	-100 13500.3 300
	100 13500.3 -300
	100 13500.3 -100
	100 13500.3 100
	100 13500.3 300
	300 13500.3 -300
	300 13500.3 -100
	300 13500.3 100
	300 13500.3 300
	-300 13700.5 -300
	-300 13700.5 -100
	-300 13700.5 100
	-300 13700.5 300
	-100 13700.5 -300
	-100 13700.5 -100
	-100 13700.5 100
	-100 13700.5 300
	100 13700.5 -300
	100 13700.5 -100
	100 13700.5 100
	100 13700.5 300
	300 13700.5 -300
	300 13700.5 -100
	300 13700.5 100
	300 13700.5 300
	-300 13901 -300
	-300 13901 -100
	-300 13901 100
	-300 13901 300
	-100 13901 -300
	-100 13901 -100
	-100 13901 100
	-100 13901 300
	100 13901 -300
	100 13901 -100
	100 13901 100
	100 13901 300
	300 13901 -300
	300 13901 -100
	300 13901 100
	300 13901 300
  </DataArray>
</Points>
<PointData  Vectors="vector">
  <DataArray type="Float32" Name="Velocity" NumberOfComponents="3" format="ascii">
 -1.61791e-12 -0.0629923 3.08684e-12
 2.97129e-13 -0.0629923 8.86655e-12
 7.42461e-12 -0.0629923 9.0003e-12
 -3.79827e-12 -0.0629923 5.38481e-12
 2.92512e-11 -0.0629923 2.18866e-12
 2.63224e-12 -0.0629923 -1.4614e-11
 -2.43247e-12 -0.0629923 -9.00115e-12
 -1.67694e-11 -0.0629923 1.24866e-12
 2.3162e-11 -0.0629923 1.15935e-11
 8.62354e-12 -0.0629923 -2.50795e-11
 -1.64518e-12 -0.0629923 -1.10995e-11
 -2.55455e-11 -0.0629923 4.21369e-12
 2.11045e-12 -0.0629923 1.05404e-12
 -5.74668e-12 -0.0629923 -3.42195e-11
 2.24668e-12 -0.0629923 -4.18081e-11
 9.12836e-12 -0.0629923 1.3007e-11
 -7.11422e-12 -0.0536391 1.64857e-12
 -5.29514e-12 -0.0536391 -1.03635e-12
 -6.77863e-12 -0.0536391 -5.2904e-12
 3.61204e-13 -0.0536391 1.37015e-12
 6.36608e-12 -0.0536391 3.01904e-13
 2.39428e-12 -0.0536391 -1.34404e-11
 3.72202e-12 -0.0536391 -5.75235e-12
 -7.87657e-12 -0.0536391 1.23037e-12
 9.25567e-12 -0.0536391 6.98388e-12
 -2.60954e-12 -0.0536391 -8.79518e-12
 9.07974e-13 -0.0536391 -6.64833e-12
 -6.69012e-12 -0.0536391 3.72854e-13
 4.26918e-12 -0.0536391 3.39116e-12
 -1.15545e-12 -0.0536391 -2.3224e-11
 4.77489e-12 -0.0536391 -1.14224e-11
 2.13168e-13 -0.0536391 3.27292e-12
 -6.98341e-12 -0.0517592 -3.49534e-13
 -4.81386e-12 -0.0517592 -5.37806e-12
 -6.56703e-12 -0.0517592 -1.04835e-11
 -1.30129e-13 -0.0517592 4.65223e-12
 8.09285e-12 -0.0517592 -7.50581e-13
 7.72522e-12 -0.0517592 -9.23388e-12
 1.67033e-12 -0.0517592 -4.71944e-12
 -6.66403e-12 -0.0517592 3.56218e-12
 6.08191e-12 -0.0517592 -1.99703e-12
 4.41925e-12 -0.0517592 -1.76385e-11
 -1.22158e-12 -0.0517592 -7.92797e-12
 -1.95167e-12 -0.0517592 1.44588e-12
 6.23276e-12 -0.0517592 -3.90839e-12
 3.76023e-12 -0.0517592 -1.33133e-11
 1.99098e-12 -0.0517592 -1.87571e-11
 1.98644e-12 -0.0517592 5.74403e-12
 -2.46208e-12 -0.0376983 1.69624e-12
 1.37626e-12 -0.0376983 -4.76173e-12
 1.02443e-12 -0.0376983 -3.37699e-12
 2.74395e-12 -0.0376983 9.50116e-13
 1.68234e-13 -0.0376983 -2.67874e-13
 1.50685e-12 -0.0376983 1.98854e-13
 -4.18898e-13 -0.0376983 -3.7444e-12
 -7.30436e-13 -0.0376983 1.55217e-12
 -2.34603e-12 -0.0376983 -2.38947e-13
 -5.18261e-12 -0.0376983 -1.01694e-12
 -3.93302e-12 -0.0376983 -2.30867e-12
 -1.8064e-12 -0.0376983 -1.39159e-13
 1.6131e-12 -0.0376983 2.28066e-12
 1.79466e-12 -0.0376983 -2.85574e-12
 1.54892e-12 -0.0376983 -4.66971e-12
 2.30102e-13 -0.0376983 4.20021e-12
 -1.47199e-12 -0.0241238 -4.89378e-13
 8.27467e-13 -0.0241238 -2.07602e-12
 6.22715e-13 -0.0241238 -5.4985e-12
 9.11473e-13 -0.0241238 -5.33163e-13
 -8.28454e-12 -0.0241238 -8.91976e-13
 -6.2058e-12 -0.0241238 -5.75307e-13
 -5.64794e-12 -0.0241238 -2.88903e-12
 -3.54718e-12 -0.0241238 1.37754e-12
 -8.59554e-12 -0.0241238 1.73748e-13
 -7.76904e-12 -0.0241238 1.60532e-13
 -6.11015e-12 -0.0241238 -3.12843e-12
 -3.13274e-12 -0.0241238 6.74156e-13
 -4.6123e-14 -0.0241238 -2.11499e-12
 9.52622e-13 -0.0241238 3.0354e-12
 -1.75782e-13 -0.0241238 3.28468e-12
 2.03139e-13 -0.0241238 6.04213e-13
 9.38662e-13 -0.0137403 6.16779e-13
 9.32663e-13 -0.0137403 -2.84278e-12
 2.24139e-13 -0.0137403 -3.79274e-13
 3.50824e-14 -0.0137403 2.1514e-12
 -1.11788e-12 -0.0137403 9.30566e-13
 5.95307e-13 -0.0137403 -1.43369e-12
 -9.6501e-13 -0.0137403 1.09053e-12
 1.50335e-12 -0.0137403 1.76959e-13
 8.57232e-13 -0.0137403 4.40594e-13
 1.23453e-12 -0.0137403 -2.78076e-12
 1.88379e-12 -0.0137403 1.65661e-13
 1.09807e-12 -0.0137403 9.35985e-13
 2.59331e-13 -0.0137403 1.09241e-12
 8.45386e-13 -0.0137403 1.05622e-12
 5.88367e-13 -0.0137403 -1.04297e-12
 -1.05035e-13 -0.0137403 2.32999e-13
 -1.1524e-12 -0.00405027 2.91171e-13
 -1.53471e-14 -0.00405027 -8.9366e-13
 3.11927e-13 -0.00405027 -1.28011e-12
 1.76535e-13 -0.00405027 1.58405e-12
 -2.76409e-13 -0.00405027 1.25941e-12
 1.39536e-13 -0.00405027 -2.17625e-12
 -2.4851e-13 -0.00405027 9.85547e-13
 -1.21687e-12 -0.00405027 -1.51942e-12
 -7.88703e-13 -0.00405027 8.26794e-13
 -1.98163e-12 -0.00405027 -1.13416e-12
 -1.53961e-12 -0.00405027 5.44178e-14
 -1.908e-12 -0.00405027 -6.81779e-13
 -5.22693e-13 -0.00405027 1.39576e-12
 -3.4659e-13 -0.00405027 -2.02279e-12
 -2.56169e-13 -0.00405027 4.63341e-13
 -1.0745e-13 -0.00405027 -8.2672e-14
 9.69001e-13 -0.00338713 5.38622e-13
 -3.25992e-12 -0.00338713 -2.40113e-12
 -2.10681e-12 -0.00338713 -7.30372e-13
 -1.72896e-12 -0.00338713 -4.69351e-13
 1.89615e-13 -0.00338713 -1.27814e-13
 1.96627e-12 -0.00338713 -2.33048e-12
 1.50678e-12 -0.00338713 -1.26395e-12
 -1.37574e-12 -0.00338713 -7.72255e-14
 7.01185e-13 -0.00338713 3.97727e-13
 -1.762e-12 -0.00338713 -3.43078e-12
 -2.22473e-12 -0.00338713 -1.81288e-12
 -1.61807e-12 -0.00338713 2.14211e-13
 -8.98385e-13 -0.00338713 -9.18657e-13
 4.3354e-12 -0.00338713 -3.94008e-12
 3.14994e-12 -0.00338713 -3.77307e-13
 4.278e-12 -0.00338713 1.02362e-12
 -2.65974e-12 -0.00381424 4.90949e-13
 -8.79125e-13 -0.00381424 -1.60304e-12
 -2.95814e-12 -0.00381424 -9.59036e-13
 -9.29467e-13 -0.00381424 -6.1282e-13
 9.64636e-13 -0.00381424 -9.10144e-14
 8.9793e-14 -0.00381424 -3.0162e-12
 1.00117e-12 -0.00381424 -7.88995e-13
 -1.3324e-12 -0.00381424 5.80364e-13
 -1.85742e-14 -0.00381424 9.03594e-13
 2.14025e-12 -0.00381424 -3.96638e-12
 -1.79732e-12 -0.00381424 -2.18119e-12
 -2.22723e-12 -0.00381424 1.54643e-12
 8.40887e-13 -0.00381424 2.20825e-13
 -2.47344e-12 -0.00381424 -3.41593e-12
 2.17008e-12 -0.00381424 -1.70646e-12
 1.82916e-12 -0.00381424 5.201e-13
 2.93264e-13 -0.00188372 -5.07065e-13
 -8.00879e-13 -0.00188372 -2.21295e-12
 1.78394e-13 -0.00188372 -6.21732e-13
 -6.74552e-13 -0.00188372 3.58608e-13
 1.91601e-12 -0.00188372 -7.2103e-13
 1.45987e-12 -0.00188372 -1.44427e-12
 2.86911e-13 -0.00188372 -3.65512e-12
 -3.69908e-13 -0.00188372 7.69452e-13
 -1.95283e-12 -0.00188372 -6.72066e-13
 -1.82505e-12 -0.00188372 -3.19603e-12
 -2.29175e-12 -0.00188372 -3.30806e-12
 -2.74672e-12 -0.00188372 1.21136e-12
 2.58778e-12 -0.00188372 -9.19712e-13
 2.39769e-12 -0.00188372 -2.66868e-12
 2.21199e-12 -0.00188372 -4.80483e-12
 1.02376e-12 -0.00188372 -3.56985e-13
 -3.12251e-14 -0.00138015 -2.31006e-13
 2.78432e-13 -0.00138015 -1.55133e-12
 4.86586e-13 -0.00138015 -1.4581e-13
 -4.61895e-13 -0.00138015 8.84039e-13
 1.81332e-12 -0.00138015 -4.13536e-13
 8.64748e-13 -0.00138015 -1.13548e-12
 1.15266e-13 -0.00138015 -2.46372e-12
 2.45326e-13 -0.00138015 8.71579e-13
 -8.57855e-13 -0.00138015 -2.72937e-13
 -1.68467e-12 -0.00138015 -1.20481e-12
 -1.35106e-12 -0.00138015 -3.81696e-12
 -9.25519e-13 -0.00138015 1.93739e-12
 2.81826e-12 -0.00138015 -7.76778e-13
 2.11208e-12 -0.00138015 -2.44326e-12
 2.19197e-12 -0.00138015 -2.96909e-12
 -2.28193e-13 -0.00138015 -2.3339e-13
 -3.07415e-13 -0.00232504 2.39023e-13
 -1.00523e-12 -0.00232504 -4.9441e-13
 -9.28617e-13 -0.00232504 2.16173e-13
 -6.94251e-13 -0.00232504 1.30603e-12
 -2.39123e-12 -0.00232504 7.38788e-14
 -3.33038e-12 -0.00232504 -2.36183e-13
 -3.38402e-12 -0.00232504 -1.04859e-12
 -4.98095e-12 -0.00232504 6.33631e-13
 -2.60758e-12 -0.00232504 3.16398e-14
 -2.65104e-12 -0.00232504 -5.18495e-13
 -3.32701e-12 -0.00232504 -5.4325e-13
 -4.36931e-12 -0.00232504 -1.2355e-14
 -3.55355e-14 -0.00232504 1.96277e-13
 -4.39158e-13 -0.00232504 -3.05875e-12
 -1.8363e-13 -0.00232504 -1.85653e-12
 -3.45675e-13 -0.00232504 5.73313e-13
 9.87421e-13 -0.00118101 -3.11995e-15
 8.22339e-13 -0.00118101 1.97335e-12
 1.20009e-12 -0.00118101 1.16951e-12
 -7.16087e-14 -0.00118101 -2.38925e-13
 -3.32466e-12 -0.00118101 5.68542e-13
 -2.95103e-12 -0.00118101 -1.28749e-12
 -3.74252e-12 -0.00118101 4.56329e-13
 -4.50179e-12 -0.00118101 1.49658e-12
 -2.5783e-12 -0.00118101 -4.27414e-14
 -4.2687e-12 -0.00118101 -5.44929e-13
 -5.12888e-12 -0.00118101 -5.88002e-13
 -3.66731e-12 -0.00118101 1.42648e-12
 1.01086e-12 -0.00118101 1.28629e-13
 3.76585e-13 -0.00118101 -1.37516e-12
 6.8012e-13 -0.00118101 -1.13467e-12
 -4.90023e-13 -0.00118101 1.7866e-13
 -3.01887e-12 -0.00165648 -9.26718e-13
 -1.9424e-12 -0.00165648 1.31114e-12
 -2.03603e-12 -0.00165648 2.1454e-12
 -2.00994e-12 -0.00165648 3.72211e-13
 -2.71708e-12 -0.00165648 -3.62956e-13
 -5.75191e-12 -0.00165648 5.57023e-13
 -5.50955e-12 -0.00165648 3.63228e-13
 -5.84818e-12 -0.00165648 1.27801e-13
 -4.18626e-12 -0.00165648 -6.05538e-13
 -4.69434e-12 -0.00165648 -4.9506e-13
 -5.14728e-12 -0.00165648 1.21557e-12
 -6.37471e-12 -0.00165648 2.55195e-13
 2.92757e-13 -0.00165648 5.3399e-13
 -1.43635e-13 -0.00165648 -9.10717e-13
 -1.3987e-13 -0.00165648 -5.01138e-13
 1.08271e-12 -0.00165648 1.59551e-13
 -7.92712e-13 -0.000872488 -1.24262e-13
 -1.38751e-12 -0.000872488 7.97146e-13
 -1.16375e-12 -0.000872488 2.21863e-12
 -1.82814e-13 -0.000872488 2.7338e-13
 -4.02137e-12 -0.000872488 -2.67519e-15
 -5.92852e-12 -0.000872488 -1.45433e-13
 -6.02256e-12 -0.000872488 4.08797e-13
 -6.8532e-12 -0.000872488 9.55297e-13
 -4.62969e-12 -0.000872488 -3.57024e-13
 -4.86105e-12 -0.000872488 -6.34769e-13
 -5.02417e-12 -0.000872488 6.09085e-13
 -5.37072e-12 -0.000872488 9.17912e-13
 3.44841e-14 -0.000872488 -6.99008e-14
 5.19575e-13 -0.000872488 4.31665e-13
 -9.53437e-14 -0.000872488 6.28835e-13
 1.21333e-13 -0.000872488 -7.7234e-13
 -1.29933e-13 -0.000797438 -1.14755e-12
 2.29099e-13 -0.000797438 2.01039e-13
 3.17409e-13 -0.000797438 1.49208e-12
 -4.16641e-13 -0.000797438 4.33655e-13
 -2.48088e-12 -0.000797438 -1.63242e-12
 -1.63659e-12 -0.000797438 -4.31164e-13
 -2.36082e-12 -0.000797438 1.9444e-12
 -3.53738e-12 -0.000797438 -5.60393e-13
 -1.3426e-12 -0.000797438 -1.47012e-12
 -1.46669e-12 -0.000797438 -7.36355e-13
 -1.60857e-12 -0.000797438 1.58883e-12
 -1.43663e-12 -0.000797438 -4.51439e-13
 1.43791e-12 -0.000797438 -1.31547e-12
 -1.27138e-12 -0.000797438 -7.76626e-14
 -8.87909e-13 -0.000797438 1.41107e-13
 1.29507e-12 -0.000797438 6.38693e-13
 -2.34524e-13 -0.000429496 -1.18472e-12
 -2.71573e-13 -0.000429496 -2.69974e-13
 -3.99602e-13 -0.000429496 1.12095e-12
 -8.26166e-13 -0.000429496 1.16409e-13
 -9.44033e-13 -0.000429496 -1.13473e-12
 -2.26563e-12 -0.000429496 -9.11068e-13
 -2.3347e-12 -0.000429496 3.6616e-14
 -2.00493e-12 -0.000429496 4.77667e-13
 -4.6032e-13 -0.000429496 -1.89393e-12
 -5.96564e-13 -0.000429496 -3.442e-13
 -4.56673e-13 -0.000429496 1.35894e-13
 -2.11679e-13 -0.000429496 7.57815e-14
 7.52949e-13 -0.000429496 -1.34551e-12
 1.25874e-12 -0.000429496 -5.90514e-14
 8.06476e-13 -0.000429496 -2.9258e-14
 1.05898e-12 -0.000429496 1.53404e-13
 1.43264e-13 -0.00119034 -6.28617e-13
 -1.87008e-13 -0.00119034 -4.7462e-13
 -2.27527e-13 -0.00119034 -4.83567e-14
 4.21135e-13 -0.00119034 2.74214e-13
 9.60933e-13 -0.00119034 -6.48734e-14
 -1.87418e-13 -0.00119034 -6.60973e-13
 -3.44368e-13 -0.00119034 7.67906e-13
 2.37258e-13 -0.00119034 -5.09619e-13
 1.26982e-12 -0.00119034 -1.2682e-12
 8.3907e-13 -0.00119034 3.86876e-13
 5.20435e-13 -0.00119034 -2.5274e-13
 1.07173e-12 -0.00119034 5.39217e-13
 -8.78731e-13 -0.00119034 1.24458e-12
 1.40143e-12 -0.00119034 6.81452e-14
 1.77577e-12 -0.00119034 -6.6651e-13
 9.45638e-13 -0.00119034 -2.98865e-13
 -3.86319e-13 -0.00240148 -1.03529e-13
 2.25518e-13 -0.00240148 -9.08757e-13
 -2.16909e-13 -0.00240148 -9.75845e-13
 -3.25386e-13 -0.00240148 -8.25061e-13
 1.30685e-12 -0.00240148 -1.90925e-12
 1.09281e-12 -0.00240148 8.28575e-14
 1.21252e-12 -0.00240148 -5.95903e-13
 1.94366e-12 -0.00240148 3.88308e-14
 2.8957e-13 -0.00240148 3.88009e-13
 8.31512e-13 -0.00240148 -1.00971e-12
 6.71724e-13 -0.00240148 -5.00228e-13
 1.09088e-12 -0.00240148 -2.94658e-13
 7.69159e-13 -0.00240148 -6.48451e-13
 -2.83795e-13 -0.00240148 -2.98397e-13
 1.17145e-12 -0.00240148 -1.65966e-13
 7.51731e-13 -0.00240148 -1.82774e-13
 -1.25719e-12 -0.000195329 4.58822e-13
 -1.74794e-12 -0.000195329 -6.83169e-13
 -2.11356e-12 -0.000195329 1.20674e-12
 -1.55971e-12 -0.000195329 1.28064e-12
 -5.18359e-13 -0.000195329 -1.85717e-14
 -1.65029e-12 -0.000195329 4.1669e-14
 -5.7027e-13 -0.000195329 -9.68573e-13
 -3.22098e-12 -0.000195329 1.49451e-12
 -9.86892e-13 -0.000195329 2.68239e-13
 -1.43065e-13 -0.000195329 -1.01259e-12
 -1.30626e-12 -0.000195329 2.56507e-13
 -8.75651e-13 -0.000195329 8.70272e-13
 2.04748e-13 -0.000195329 -7.43441e-13
 -6.78275e-13 -0.000195329 -1.07486e-12
 -4.03701e-13 -0.000195329 -3.92558e-13
 -8.71591e-13 -0.000195329 6.22455e-13
 8.49101e-20 0.000305439 5.61697e-15
 0 0.000305438 5.48381e-15
 1.27017e-19 0.000305438 5.47951e-15
 0 0.000305438 -7.05672e-21
 -7.47176e-16 0.000305439 3.99283e-15
 -2.93336e-15 0.000305438 4.21862e-15
 -3.15344e-15 0.000305438 3.14561e-15
 -5.49915e-15 0.000305438 -2.49165e-17
 -4.79583e-16 0.000305439 3.24353e-15
 -3.19943e-15 0.000305438 3.19529e-15