<?xml version="1.0"?>
<!-- time 59.2984-->
<VTKFile type="UnstructuredGrid" version="0.1" byte_order="LittleEndian">
<UnstructuredGrid>
<Piece NumberOfPoints="960" NumberOfCells="0">
<Points>
  <DataArray type="Float32" Name="Position" NumberOfComponents="3" format="ascii">
	-300 2099.64 -300
	-300 2099.64 -100
	-300 2099.64 100
	-300 2099.64 300
	-100 2099.64 -300
	-100 2099.64 -100
	-100 2099.64 100
	-100 2099.64 300
	100 2099.64 -300
	100 2099.64 -100
	100 2099.64 100
	100 2099.64 300
	300 2099.64 -300
	300 2099.64 -100
	300 2099.64 100
	300 2099.64 300
	-300 2299.68 -300
	-300 2299.68 -100
	-300 2299.68 100
	-300 2299.68 300
	-100 2299.68 -300
	-100 2299.68 -100
	-100 2299.68 100
	-100 2299.68 300
	100 2299.68 -300
	100 2299.68 -100
	100 2299.68 100
	100 2299.68 300
	300 2299.68 -300
	300 2299.68 -100
	300 2299.68 100
	300 2299.68 300
	-300 2499.68 -300
	-300 2499.68 -100
	-300 2499.68 100
	-300 2499.68 300
	-100 2499.68 -300
	-100 2499.68 -100
	-100 2499.68 100
	-100 2499.68 300
	100 2499.68 -300
	100 2499.68 -100
	100 2499.68 100
	100 2499.68 300
	300 2499.68 -300
	300 2499.68 -100
	300 2499.68 100
	300 2499.68 300
	-300 2699.68 -300
	-300 2699.68 -100
	-300 2699.68 100
	-300 2699.68 300
	-100 2699.68 -300
	-100 2699.68 -100
	-100 2699.68 100
	-100 2699.68 300
	100 2699.68 -300
	100 2699.68 -100
	100 2699.68 100
	100 2699.68 300
	300 2699.68 -300
	300 2699.68 -100
	300 2699.68 100
	300 2699.68 300
	-300 2899.68 -300
	-300 2899.68 -100
	-300 2899.68 100
	-300 2899.68 300
	-100 2899.68 -300
	-100 2899.68 -100
	-100 2899.68 100
	-100 2899.68 300
	100 2899.68 -300
	100 2899.68 -100
	100 2899.68 100
	100 2899.68 300
	300 2899.68 -300
	300 2899.68 -100
	300 2899.68 100
	300 2899.68 300
	-300 3099.68 -300
	-300 3099.68 -100
	-300 3099.68 100
	-300 3099.68 300
	-100 3099.68 -300
	-100 3099.68 -100
	-100 3099.68 100
	-100 3099.68 300
	100 3099.68 -300
	100 3099.68 -100
	100 3099.68 100
	100 3099.68 300
	300 3099.68 -300
	300 3099.68 -100
	300 3099.68 100
	300 3099.68 300
	-300 3299.68 -300
	-300 3299.68 -100
	-300 3299.68 100
	-300 3299.68 300
	-100 3299.68 -300
	-100 3299.68 -100
	-100 3299.68 100
	-100 3299.68 300
	100 3299.68 -300
	100 3299.68 -100
	100 3299.68 100
	100 3299.68 300
	300 3299.68 -300
	300 3299.68 -100
	300 3299.68 100
	300 3299.68 300
	-300 3499.68 -300
	-300 3499.68 -100
	-300 3499.68 100
	-300 3499.68 300
	-100 3499.68 -300
	-100 3499.68 -100
	-100 3499.68 100
	-100 3499.68 300
	100 3499.68 -300
	100 3499.68 -100
	100 3499.68 100
	100 3499.68 300
	300 3499.68 -300
	300 3499.68 -100
	300 3499.68 100
	300 3499.68 300
	-300 3699.67 -300
	-300 3699.67 -100
	-300 3699.67 100
	-300 3699.67 300
	-100 3699.67 -300
	-100 3699.67 -100
	-100 3699.67 100
	-100 3699.67 300
	100 3699.67 -300
	100 3699.67 -100
	100 3699.67 100
	100 3699.67 300
	300 3699.67 -300
	300 3699.67 -100
	300 3699.67 100
	300 3699.67 300
	-300 3899.67 -300
	-300 3899.67 -100
	-300 3899.67 100
	-300 3899.67 300
	-100 3899.67 -300
	-100 3899.67 -100
	-100 3899.67 100
	-100 3899.67 300
	100 3899.67 -300
	100 3899.67 -100
	100 3899.67 100
	100 3899.67 300
	300 3899.67 -300
	300 3899.67 -100
	300 3899.67 100
	300 3899.67 300
	-300 4099.67 -300
	-300 4099.67 -100
	-300 4099.67 100
	-300 4099.67 300
	-100 4099.67 -300
	-100 4099.67 -100
	-100 4099.67 100
	-100 4099.67 300
	100 4099.67 -300
	100 4099.67 -100
	100 4099.67 100
	100 4099.67 300
	300 4099.67 -300
	300 4099.67 -100
	300 4099.67 100
	300 4099.67 300
	-300 4299.67 -300
	-300 4299.67 -100
	-300 4299.67 100
	-300 4299.67 300
	-100 4299.67 -300
	-100 4299.67 -100
	-100 4299.67 100
	-100 4299.67 300
	100 4299.67 -300
	100 4299.67 -100
	100 4299.67 100
	100 4299.67 300
	300 4299.67 -300
	300 4299.67 -100
	300 4299.67 100
	300 4299.67 300
	-300 4499.68 -300
	-300 4499.68 -100
	-300 4499.68 100
	-300 4499.68 300
	-100 4499.68 -300
	-100 4499.68 -100
	-100 4499.68 100
	-100 4499.68 300
	100 4499.68 -300
	100 4499.68 -100
	100 4499.68 100
	100 4499.68 300
	300 4499.68 -300
	300 4499.68 -100
	300 4499.68 100
	300 4499.68 300
	-300 4699.68 -300
	-300 4699.68 -100
	-300 4699.68 100
	-300 4699.68 300
	-100 4699.68 -300
	-100 4699.68 -100
	-100 4699.68 100
	-100 4699.68 300
	100 4699.68 -300
	100 4699.68 -100
	100 4699.68 100
	100 4699.68 300
	300 4699.68 -300
	300 4699.68 -100
	300 4699.68 100
	300 4699.68 300
	-300 4899.68 -300
	-300 4899.68 -100
	-300 4899.68 100
	-300 4899.68 300
	-100 4899.68 -300
	-100 4899.68 -100
	-100 4899.68 100
	-100 4899.68 300
	100 4899.68 -300
	100 4899.68 -100
	100 4899.68 100
	100 4899.68 300
	300 4899.68 -300
	300 4899.68 -100
	300 4899.68 100
	300 4899.68 300
	-300 5099.68 -300
	-300 5099.68 -100
	-300 5099.68 100
	-300 5099.68 300
	-100 5099.68 -300
	-100 5099.68 -100
	-100 5099.68 100
	-100 5099.68 300
	100 5099.68 -300
	100 5099.68 -100
	100 5099.68 100
	100 5099.68 300
	300 5099.68 -300
	300 5099.68 -100
	300 5099.68 100
	300 5099.68 300
	-300 5299.68 -300
	-300 5299.68 -100
	-300 5299.68 100
	-300 5299.68 300
	-100 5299.68 -300
	-100 5299.68 -100
	-100 5299.68 100
	-100 5299.68 300
	100 5299.68 -300
	100 5299.68 -100
	100 5299.68 100
	100 5299.68 300
	300 5299.68 -300
	300 5299.68 -100
	300 5299.68 100
	300 5299.68 300
	-300 5499.69 -300
	-300 5499.69 -100
	-300 5499.69 100
	-300 5499.69 300
	-100 5499.69 -300
	-100 5499.69 -100
	-100 5499.69 100
	-100 5499.69 300
	100 5499.69 -300
	100 5499.69 -100
	100 5499.69 100
	100 5499.69 300
	300 5499.69 -300
	300 5499.69 -100
	300 5499.69 100
	300 5499.69 300
	-300 5699.69 -300
	-300 5699.69 -100
	-300 5699.69 100
	-300 5699.69 300
	-100 5699.69 -300
	-100 5699.69 -100
	-100 5699.69 100
	-100 5699.69 300
	100 5699.69 -300
	100 5699.69 -100
	100 5699.69 100
	100 5699.69 300
	300 5699.69 -300
	300 5699.69 -100
	300 5699.69 100
	300 5699.69 300
	-300 5899.7 -300
	-300 5899.7 -100
	-300 5899.7 100
	-300 5899.7 300
	-100 5899.7 -300
	-100 5899.7 -100
	-100 5899.7 100
	-100 5899.7 300
	100 5899.7 -300
	100 5899.7 -100
	100 5899.7 100
	100 5899.7 300
	300 5899.7 -300
	300 5899.7 -100
	300 5899.7 100
	300 5899.7 300
	-300 6099.73 -300
	-300 6099.73 -100
	-300 6099.73 100
	-300 6099.73 300
	-100 6099.73 -300
	-100 6099.73 -100
	-100 6099.73 100
	-100 6099.73 300
	100 6099.73 -300
	100 6099.73 -100
	100 6099.73 100
	100 6099.73 300
	300 6099.73 -300
	300 6099.73 -100
	300 6099.73 100
	300 6099.73 300
	-300 6299.74 -300
	-300 6299.74 -100
	-300 6299.74 100
	-300 6299.74 300
	-100 6299.74 -300
	-100 6299.74 -100
	-100 6299.74 100
	-100 6299.74 300
	100 6299.74 -300
	100 6299.74 -100
	100 6299.74 100
	100 6299.74 300
	300 6299.74 -300
	300 6299.74 -100
	300 6299.74 100
	300 6299.74 300
	-300 6499.76 -300
	-300 6499.76 -100
	-300 6499.76 100
	-300 6499.76 300
	-100 6499.76 -300
	-100 6499.76 -100
	-100 6499.76 100
	-100 6499.76 300
	100 6499.76 -300
	100 6499.76 -100
	100 6499.76 100
	100 6499.76 300
	300 6499.76 -300
	300 6499.76 -100
	300 6499.76 100
	300 6499.76 300
	-300 6699.77 -300
	-300 6699.77 -100
	-300 6699.77 100
	-300 6699.77 300
	-100 6699.77 -300
	-100 6699.77 -100
	-100 6699.77 100
	-100 6699.77 300
	100 6699.77 -300
	100 6699.77 -100
	100 6699.77 100
	100 6699.77 300
	300 6699.77 -300
	300 6699.77 -100
	300 6699.77 100
	300 6699.77 300
	-300 6899.79 -300
	-300 6899.79 -100
	-300 6899.79 100
	-300 6899.79 300
	-100 6899.79 -300
	-100 6899.79 -100
	-100 6899.79 100
	-100 6899.79 300
	100 6899.79 -300
	100 6899.79 -100
	100 6899.79 100
	100 6899.79 300
	300 6899.79 -300
	300 6899.79 -100
	300 6899.79 100
	300 6899.79 300
	-300 7099.8 -300
	-300 7099.8 -100
	-300 7099.8 100
	-300 7099.8 300
	-100 7099.8 -300
	-100 7099.8 -100
	-100 7099.8 100
	-100 7099.8 300
	100 7099.8 -300
	100 7099.8 -100
	100 7099.8 100
	100 7099.8 300
	300 7099.8 -300
	300 7099.8 -100
	300 7099.8 100
	300 7099.8 300
	-300 7299.8 -300
	-300 7299.8 -100
	-300 7299.8 100
	-300 7299.8 300
	-100 7299.8 -300
	-100 7299.8 -100
	-100 7299.8 100
	-100 7299.8 300
	100 7299.8 -300
	100 7299.8 -100
	100 7299.8 100
	100 7299.8 300
	300 7299.8 -300
	300 7299.8 -100
	300 7299.8 100
	300 7299.8 300
	-300 7499.8 -300
	-300 7499.8 -100
	-300 7499.8 100
	-300 7499.8 300
	-100 7499.8 -300
	-100 7499.8 -100
	-100 7499.8 100
	-100 7499.8 300
	100 7499.8 -300
	100 7499.8 -100
	100 7499.8 100
	100 7499.8 300
	300 7499.8 -300
	300 7499.8 -100
	300 7499.8 100
	300 7499.8 300
	-300 7699.81 -300
	-300 7699.81 -100
	-300 7699.81 100
	-300 7699.81 300
	-100 7699.81 -300
	-100 7699.81 -100
	-100 7699.81 100
	-100 7699.81 300
	100 7699.81 -300
	100 7699.81 -100
	100 7699.81 100
	100 7699.81 300
	300 7699.81 -300
	300 7699.81 -100
	300 7699.81 100
	300 7699.81 300
	-300 7899.81 -300
	-300 7899.81 -100
	-300 7899.81 100
	-300 7899.81 300
	-100 7899.81 -300
	-100 7899.81 -100
	-100 7899.81 100
	-100 7899.81 300
	100 7899.81 -300
	100 7899.81 -100
	100 7899.81 100
	100 7899.81 300
	300 7899.81 -300
	300 7899.81 -100
	300 7899.81 100
	300 7899.81 300
	-300 8099.82 -300
	-300 8099.82 -100
	-300 8099.82 100
	-300 8099.82 300
	-100 8099.82 -300
	-100 8099.82 -100
	-100 8099.82 100
	-100 8099.82 300
	100 8099.82 -300
	100 8099.82 -100
	100 8099.82 100
	100 8099.82 300
	300 8099.82 -300
	300 8099.82 -100
	300 8099.82 100
	300 8099.82 300
	-300 8299.82 -300
	-300 8299.82 -100
	-300 8299.82 100
	-300 8299.82 300
	-100 8299.82 -300
	-100 8299.82 -100
	-100 8299.82 100
	-100 8299.82 300
	100 8299.82 -300
	100 8299.82 -100
	100 8299.82 100
	100 8299.82 300
	300 8299.82 -300
	300 8299.82 -100
	300 8299.82 100
	300 8299.82 300
	-300 8499.82 -300
	-300 8499.82 -100
	-300 8499.82 100
	-300 8499.82 300
	-100 8499.82 -300
	-100 8499.82 -100
	-100 8499.82 100
	-100 8499.82 300
	100 8499.82 -300
	100 8499.82 -100
	100 8499.82 100
	100 8499.82 300
	300 8499.82 -300
	300 8499.82 -100
	300 8499.82 100
	300 8499.82 300
	-300 8699.82 -300
	-300 8699.82 -100
	-300 8699.82 100
	-300 8699.82 300
	-100 8699.82 -300
	-100 8699.82 -100
	-100 8699.82 100
	-100 8699.82 300
	100 8699.82 -300
	100 8699.82 -100
	100 8699.82 100
	100 8699.82 300
	300 8699.82 -300
	300 8699.82 -100
	300 8699.82 100
	300 8699.82 300
	-300 8899.83 -300
	-300 8899.83 -100
	-300 8899.83 100
	-300 8899.83 300
	-100 8899.83 -300
	-100 8899.83 -100
	-100 8899.83 100
	-100 8899.83 300
	100 8899.83 -300
	100 8899.83 -100
	100 8899.83 100
	100 8899.83 300
	300 8899.83 -300
	300 8899.83 -100
	300 8899.83 100
	300 8899.83 300
	-300 9099.84 -300
	-300 9099.84 -100
	-300 9099.84 100
	-300 9099.84 300
	-100 9099.84 -300
	-100 9099.84 -100
	-100 9099.84 100
	-100 9099.84 300
	100 9099.84 -300
	100 9099.84 -100
	100 9099.84 100
	100 9099.84 300
	300 9099.84 -300
	300 9099.84 -100
	300 9099.84 100
	300 9099.84 300
	-300 9299.84 -300
	-300 9299.84 -100
	-300 9299.84 100
	-300 9299.84 300
	-100 9299.84 -300
	-100 9299.84 -100
	-100 9299.84 100
	-100 9299.84 300
	100 9299.84 -300
	100 9299.84 -100
	100 9299.84 100
	100 9299.84 300
	300 9299.84 -300
	300 9299.84 -100
	300 9299.84 100
	300 9299.84 300
	-300 9499.85 -300
	-300 9499.85 -100
	-300 9499.85 100
	-300 9499.85 300
	-100 9499.85 -300
	-100 9499.85 -100
	-100 9499.85 100
	-100 9499.85 300
	100 9499.85 -300
	100 9499.85 -100
	100 9499.85 100
	100 9499.85 300
	300 9499.85 -300
	300 9499.85 -100
	300 9499.85 100
	300 9499.85 300
	-300 9699.85 -300
	-300 9699.85 -100
	-300 9699.85 100
	-300 9699.85 300
	-100 9699.85 -300
	-100 9699.85 -100
	-100 9699.85 100
	-100 9699.85 300
	100 9699.85 -300
	100 9699.85 -100
	100 9699.85 100
	100 9699.85 300
	300 9699.85 -300
	300 9699.85 -100
	300 9699.85 100
	300 9699.85 300
	-300 9899.86 -300
	-300 9899.86 -100
	-300 9899.86 100
	-300 9899.86 300
	-100 9899.86 -300
	-100 9899.86 -100
	-100 9899.86 100
	-100 9899.86 300
	100 9899.86 -300
	100 9899.86 -100
	100 9899.86 100
	100 9899.86 300
	300 9899.86 -300
	300 9899.86 -100
	300 9899.86 100
	300 9899.86 300
	-300 10099.9 -300
	-300 10099.9 -100
	-300 10099.9 100
	-300 10099.9 300
	-100 10099.9 -300
	-100 10099.9 -100
	-100 10099.9 100
	-100 10099.9 300
	100 10099.9 -300
	100 10099.9 -100
	100 10099.9 100
	100 10099.9 300
	300 10099.9 -300
	300 10099.9 -100
	300 10099.9 100
	300 10099.9 300
	-300 10299.9 -300
	-300 10299.9 -100
	-300 10299.9 100
	-300 10299.9 300
	-100 10299.9 -300
	-100 10299.9 -100
	-100 10299.9 100
	-100 10299.9 300
	100 10299.9 -300
	100 10299.9 -100
	100 10299.9 100
	100 10299.9 300
	300 10299.9 -300
	300 10299.9 -100
	300 10299.9 100
	300 10299.9 300
	-300 10499.9 -300
	-300 10499.9 -100
	-300 10499.9 100
	-300 10499.9 300
	-100 10499.9 -300
	-100 10499.9 -100
	-100 10499.9 100
	-100 10499.9 300
	100 10499.9 -300
	100 10499.9 -100
	100 10499.9 100
	100 10499.9 300
	300 10499.9 -300
	300 10499.9 -100
	300 10499.9 100
	300 10499.9 300
	-300 10699.9 -300
	-300 10699.9 -100
	-300 10699.9 100
	-300 10699.9 300
	-100 10699.9 -300
	-100 10699.9 -100
	-100 10699.9 100
	-100 10699.9 300
	100 10699.9 -300
	100 10699.9 -100
	100 10699.9 100
	100 10699.9 300
	300 10699.9 -300
	300 10699.9 -100
	300 10699.9 100
	300 10699.9 300
	-300 10899.9 -300
	-300 10899.9 -100
	-300 10899.9 100
	-300 10899.9 300
	-100 10899.9 -300
	-100 10899.9 -100
	-100 10899.9 100
	-100 10899.9 300
	100 10899.9 -300
	100 10899.9 -100
	100 10899.9 100
	100 10899.9 300
	300 10899.9 -300
	300 10899.9 -100
	300 10899.9 100
	300 10899.9 300
	-300 11099.9 -300
	-300 11099.9 -100
	-300 11099.9 100
	-300 11099.9 300
	-100 11099.9 -300
	-100 11099.9 -100
	-100 11099.9 100
	-100 11099.9 300
	100 11099.9 -300
	100 11099.9 -100
	100 11099.9 100
	100 11099.9 300
	300 11099.9 -300
	300 11099.9 -100
	300 11099.9 100
	300 11099.9 300
	-300 11299.9 -300
	-300 11299.9 -100
	-300 11299.9 100
	-300 11299.9 300
	-100 11299.9 -300
	-100 11299.9 -100
	-100 11299.9 100
	-100 11299.9 300
	100 11299.9 -300
	100 11299.9 -100
	100 11299.9 100
	100 11299.9 300
	300 11299.9 -300
	300 11299.9 -100
	300 11299.9 100
	300 11299.9 300
	-300 11499.9 -300
	-300 11499.9 -100
	-300 11499.9 100
	-300 11499.9 300
	-100 11499.9 -300
	-100 11499.9 -100
	-100 11499.9 100
	-100 11499.9 300
	100 11499.9 -300
	100 11499.9 -100
	100 11499.9 100
	100 11499.9 300
	300 11499.9 -300
	300 11499.9 -100
	300 11499.9 100
	300 11499.9 300
	-300 11700 -300
	-300 11700 -100
	-300 11700 100
	-300 11700 300
	-100 11700 -300
	-100 11700 -100
	-100 11700 100
	-100 11700 300
	100 11700 -300
	100 11700 -100
	100 11700 100
	100 11700 300
	300 11700 -300
	300 11700 -100
	300 11700 100
	300 11700 300
	-300 11900 -300
	-300 11900 -100
	-300 11900 100
	-300 11900 300
	-100 11900 -300
	-100 11900 -100
	-100 11900 100
	-100 11900 300
	100 11900 -300
	100 11900 -100
	100 11900 100
	100 11900 300
	300 11900 -300
	300 11900 -100
	300 11900 100
	300 11900 300
	-300 12100 -300
	-300 12100 -100
	-300 12100 100
	-300 12100 300
	-100 12100 -300
	-100 12100 -100
	-100 12100 100
	-100 12100 300
	100 12100 -300
	100 12100 -100
	100 12100 100
	100 12100 300
	300 12100 -300
	300 12100 -100
	300 12100 100
	300 12100 300
	-300 12300 -300
	-300 12300 -100
	-300 12300 100
	-300 12300 300
	-100 12300 -300
	-100 12300 -100
	-100 12300 100
	-100 12300 300
	100 12300 -300
	100 12300 -100
	100 12300 100
	100 12300 300
	300 12300 -300
	300 12300 -100
	300 12300 100
	300 12300 300
	-300 12500.1 -300
	-300 12500.1 -100
	-300 12500.1 100
	-300 12500.1 300
	-100 12500.1 -300
	-100 12500.1 -100
	-100 12500.1 100
	-100 12500.1 300
	100 12500.1 -300
	100 12500.1 -100
	100 12500.1 100
	100 12500.1 300
	300 12500.1 -300
	300 12500.1 -100
	300 12500.1 100
	300 12500.1 300
	-300 12700.1 -300
	-300 12700.1 -100
	-300 12700.1 100
	-300 12700.1 300
	-100 12700.1 -300
	-100 12700.1 -100
	-100 12700.1 100
	-100 12700.1 300
	100 12700.1 -300
	100 12700.1 -100
	100 12700.1 100
	100 12700.1 300
	300 12700.1 -300
	300 12700.1 -100
	300 12700.1 100
	300 12700.1 300
	-300 12900.1 -300
	-300 12900.1 -100
	-300 12900.1 100
	-300 12900.1 300
	-100 12900.1 -300
	-100 12900.1 -100
	-100 12900.1 100
	-100 12900.1 300
	100 12900.1 -300
	100 12900.1 -100
	100 12900.1 100
	100 12900.1 300
	300 12900.1 -300
	300 12900.1 -100
	300 12900.1 100
	300 12900.1 300
	-300 13100.2 -300
	-300 13100.2 -100
	-300 13100.2 100
	-300 13100.2 300
	-100 13100.2 -300
	-100 13100.2 -100
	-100 13100.2 100
	-100 13100.2 300
	100 13100.2 -300
	100 13100.2 -100
	100 13100.2 100
	100 13100.2 300
	300 13100.2 -300
	300 13100.2 -100
	300 13100.2 100
	300 13100.2 300
	-300 13300.3 -300
	-300 13300.3 -100
	-300 13300.3 100
	-300 13300.3 300
	-100 13300.3 -300
	-100 13300.3 -100
	-100 13300.3 100
	-100 13300.3 300
	100 13300.3 -300
	100 13300.3 -100
	100 13300.3 100
	100 13300.3 300
	300 13300.3 -300
	300 13300.3 -100
	300 13300.3 100
	300 13300.3 300
	-300 13500.4 -300
	-300 13500.4 -100
	-300 13500.4 100
	-300 13500.4 300
	-100 13500.4 -300
	-100 13500.4 -100
	-100 13500.4 100
	-100 13500.4 300
	100 13500.4 -300
	100 13500.4 -100
	100 13500.4 100
	100 13500.4 300
	300 13500.4 -300
	300 13500.4 -100
	300 13500.4 100
	300 13500.4 300
	-300 13700.7 -300
	-300 13700.7 -100
	-300 13700.7 100
	-300 13700.7 300
	-100 13700.7 -300
	-100 13700.7 -100
	-100 13700.7 100
	-100 13700.7 300
	100 13700.7 -300
	100 13700.7 -100
	100 13700.7 100
	100 13700.7 300
	300 13700.7 -300
	300 13700.7 -100
	300 13700.7 100
	300 13700.7 300
	-300 13901.4 -300
	-300 13901.4 -100
	-300 13901.4 100
	-300 13901.4 300
	-100 13901.4 -300
	-100 13901.4 -100
	-100 13901.4 100
	-100 13901.4 300
	100 13901.4 -300
	100 13901.4 -100
	100 13901.4 100
	100 13901.4 300
	300 13901.4 -300
	300 13901.4 -100
	300 13901.4 100
	300 13901.4 300
  </DataArray>
</Points>
<PointData  Vectors="vector">
  <DataArray type="Float32" Name="Velocity" NumberOfComponents="3" format="ascii">
 1.79741e-12 -0.000767801 8.76812e-12
 1.994e-13 -0.000767801 1.44066e-11
 -2.95408e-12 -0.000767801 1.55265e-11
 2.7874e-13 -0.000767801 5.34619e-12
 1.32015e-11 -0.000767801 -1.67373e-12
 2.20849e-11 -0.000767801 2.39218e-11
 2.77628e-11 -0.000767801 2.719e-11
 3.45816e-11 -0.000767801 5.27839e-12
 1.05432e-11 -0.000767801 2.63219e-12
 2.64124e-11 -0.000767801 2.74148e-11
 3.1932e-11 -0.000767801 2.60457e-11
 3.56717e-11 -0.000767801 3.95432e-12
 -1.12606e-13 -0.000767801 -1.95936e-12
 5.27521e-12 -0.000767801 4.09091e-11
 2.62635e-12 -0.000767801 4.75373e-11
 7.06733e-12 -0.000767801 9.75594e-12
 -1.52266e-13 -0.0015235 -1.02588e-11
 -4.79733e-13 -0.0015235 3.58328e-12
 -1.4155e-12 -0.0015235 -9.27129e-12
 -4.78576e-13 -0.0015235 1.58782e-12
 -5.03301e-12 -0.0015235 2.16014e-12
 5.08929e-12 -0.0015235 -7.76636e-12
 2.6734e-12 -0.0015235 -8.61851e-12
 7.21823e-12 -0.0015235 2.53283e-12
 -1.45622e-12 -0.0015235 -8.26015e-12
 -2.15349e-12 -0.0015235 1.78949e-12
 2.81876e-12 -0.0015235 -8.98493e-12
 6.8322e-12 -0.0015235 5.49517e-13
 -8.99768e-14 -0.0015235 4.84113e-12
 1.10836e-12 -0.0015235 -3.23413e-12
 -3.48235e-12 -0.0015235 6.46654e-13
 -2.86963e-12 -0.0015235 4.33932e-13
 -2.40209e-13 -0.00130032 1.23415e-12
 -1.51909e-12 -0.00130032 -1.45438e-11
 3.12911e-13 -0.00130032 -1.17538e-11
 -7.65528e-13 -0.00130032 2.04031e-12
 -5.38572e-12 -0.00130032 2.21572e-12
 -6.0246e-12 -0.00130032 -1.50586e-11
 -4.51248e-12 -0.00130032 -1.18035e-11
 -1.83953e-12 -0.00130032 2.43197e-14
 -1.36311e-11 -0.00130032 2.48045e-12
 -4.50988e-12 -0.00130032 -1.62301e-11
 -5.30106e-12 -0.00130032 -1.13542e-11
 -2.25814e-12 -0.00130032 3.38036e-12
 3.65885e-12 -0.00130032 -3.14373e-12
 7.13263e-14 -0.00130032 -3.04359e-12
 7.02763e-13 -0.00130032 -4.78765e-12
 -8.03182e-13 -0.00130032 -2.35047e-12
 -3.16465e-12 -0.00067973 1.9356e-12
 -3.38853e-12 -0.00067973 -8.85265e-12
 -4.51776e-12 -0.00067973 -1.23756e-11
 -7.33781e-13 -0.00067973 3.92913e-13
 -4.45727e-12 -0.00067973 -5.35218e-12
 -4.12965e-12 -0.00067973 -6.39774e-12
 -3.93397e-12 -0.00067973 -1.14154e-11
 -3.80024e-12 -0.00067973 1.58679e-12
 -6.37997e-12 -0.00067973 -6.45514e-12
 6.02167e-13 -0.00067973 -6.15513e-12
 1.27242e-12 -0.00067973 -8.84326e-12
 -4.10311e-12 -0.00067973 -9.60297e-14
 -1.52939e-12 -0.00067973 2.28304e-12
 -5.45018e-12 -0.00067973 -1.15843e-11
 -5.17241e-12 -0.00067973 -8.87116e-12
 -3.63987e-12 -0.00067973 2.65653e-12
 -2.4863e-12 -0.000585602 -1.34807e-12
 -6.75121e-13 -0.000585602 -9.08034e-12
 6.92108e-13 -0.000585602 -6.6511e-12
 -4.06196e-12 -0.000585602 -2.76017e-12
 -1.9614e-12 -0.000585603 -1.0237e-12
 -1.43384e-12 -0.000585602 -1.22695e-11
 -2.95675e-12 -0.000585602 -9.08896e-12
 -6.97757e-13 -0.000585603 6.04083e-14
 -1.24223e-12 -0.000585602 -4.12518e-12
 -2.36258e-12 -0.000585602 -8.49279e-12
 -2.96222e-12 -0.000585602 -1.01638e-11
 -4.07609e-12 -0.000585602 -1.29176e-12
 -1.64787e-12 -0.000585603 -2.26303e-12
 -1.59833e-12 -0.000585602 -1.23324e-11
 -2.71557e-12 -0.000585603 -8.51351e-12
 -1.95411e-12 -0.000585602 1.51254e-13
 3.42305e-13 -0.00116888 -4.04846e-13
 1.27632e-12 -0.00116888 2.59372e-14
 -1.49042e-12 -0.00116888 -1.48199e-12
 -3.04841e-12 -0.00116888 1.90439e-12
 2.86745e-13 -0.00116888 8.78321e-13
 -2.73635e-13 -0.00116888 -5.09917e-13
 -5.57252e-13 -0.00116888 -1.30859e-12
 -1.92598e-12 -0.00116888 -7.34404e-13
 5.73777e-14 -0.00116888 -1.5317e-12
 1.02681e-12 -0.00116888 -1.03343e-12
 8.3585e-14 -0.00116888 -5.51767e-12
 1.81218e-12 -0.00116888 3.23684e-12
 1.78172e-12 -0.00116888 5.9574e-13
 1.64338e-13 -0.00116888 -9.23068e-13
 9.14814e-13 -0.00116888 -3.67155e-12
 -1.39007e-12 -0.00116888 -2.84763e-12
 1.87384e-12 -0.00165381 5.03838e-13
 -2.76348e-13 -0.00165381 1.10149e-12
 -1.54743e-12 -0.00165381 7.43773e-13
 4.37755e-13 -0.00165381 -4.06109e-13
 5.77553e-13 -0.00165381 -1.47409e-12
 5.07812e-13 -0.00165381 1.24892e-12
 -5.44397e-13 -0.00165381 -4.03924e-13
 -1.93424e-12 -0.00165381 2.45708e-12
 1.00303e-12 -0.00165381 -2.11525e-12
 2.45929e-12 -0.00165381 -3.9787e-14
 1.41016e-12 -0.00165381 -2.34826e-12
 -5.38514e-13 -0.00165381 2.59604e-12
 1.17071e-12 -0.00165381 4.74998e-13
 7.02539e-13 -0.00165381 -1.54677e-12
 3.0461e-13 -0.00165381 -1.89315e-12
 -1.72995e-13 -0.00165381 -1.89018e-12
 6.91536e-13 -0.000538021 4.33358e-13
 -1.60582e-12 -0.000538021 3.56447e-13
 -1.16608e-13 -0.000538021 1.51033e-12
 -8.55417e-13 -0.000538021 8.29794e-13
 -2.41752e-12 -0.000538021 8.33715e-13
 -2.10273e-12 -0.000538021 1.46526e-12
 -3.63545e-12 -0.000538021 1.13231e-12
 -3.44657e-12 -0.000538021 6.2018e-13
 -2.15789e-12 -0.000538021 3.94143e-13
 -5.94389e-13 -0.000538021 7.88331e-13
 -3.61817e-12 -0.000538021 2.07177e-13
 -4.24069e-12 -0.000538021 3.88673e-13
 1.56667e-13 -0.000538021 -1.60584e-12
 -1.58991e-12 -0.000538021 -9.64298e-13
 -8.4492e-13 -0.000538021 7.68708e-13
 -8.6491e-13 -0.000538021 -5.36624e-13
 -8.1695e-13 1.01045e-05 7.71034e-13
 -8.97255e-13 1.01043e-05 1.26815e-12
 3.45837e-13 1.01044e-05 1.02944e-12
 -6.31545e-13 1.01044e-05 3.49062e-13
 -3.08079e-12 1.01044e-05 9.74684e-13
 -3.29932e-12 1.01044e-05 1.41634e-12
 -4.11278e-12 1.01044e-05 1.67655e-12
 -5.63284e-12 1.01044e-05 4.52934e-13
 -4.04713e-12 1.01045e-05 1.40981e-12
 -4.01582e-12 1.01044e-05 1.58778e-12
 -4.34845e-12 1.01044e-05 1.35324e-12
 -3.77631e-12 1.01044e-05 2.56356e-13
 2.22115e-13 1.01045e-05 -1.26185e-12
 -1.77979e-12 1.01045e-05 1.90191e-12
 -1.79891e-12 1.01045e-05 -8.21177e-14
 1.81602e-13 1.01044e-05 8.89085e-13
 -2.15827e-13 -0.00112827 4.6251e-13
 -3.55763e-12 -0.00112827 -1.35516e-12
 -4.22461e-12 -0.00112827 -5.29925e-13
 1.26488e-13 -0.00112827 1.74826e-12
 -3.311e-12 -0.00112827 -2.78553e-14
 -4.11748e-12 -0.00112827 -3.95281e-13
 -3.57906e-12 -0.00112827 1.37392e-13
 -3.78611e-12 -0.00112827 1.29116e-12
 -3.7261e-12 -0.00112827 -4.77864e-15
 -1.66081e-12 -0.00112827 3.52634e-13
 -1.64794e-12 -0.00112827 -1.13663e-12
 -4.96062e-12 -0.00112827 1.91867e-12
 -1.03123e-12 -0.00112827 1.59412e-13
 -4.6412e-13 -0.00112827 -1.87003e-12
 -2.27435e-13 -0.00112827 -6.53409e-13
 -1.01512e-12 -0.00112827 1.43166e-12
 -2.02393e-13 -0.000447318 1.17364e-12
 -2.04913e-13 -0.000447318 -1.38577e-12
 -2.28944e-12 -0.000447318 -1.46575e-12
 -7.02961e-14 -0.000447318 1.50411e-12
 -3.40076e-12 -0.000447317 6.51735e-14
 -3.19328e-12 -0.000447318 -5.10506e-13
 -3.25548e-12 -0.000447318 -1.39852e-12
 -3.19531e-12 -0.000447318 1.41293e-12
 -3.02664e-12 -0.000447317 1.08063e-12
 -3.08933e-12 -0.000447318 -1.66877e-12
 -1.10554e-12 -0.000447318 -4.58668e-13
 -3.04997e-12 -0.000447318 1.12487e-12
 5.34009e-13 -0.000447318 1.46227e-13
 -6.46421e-13 -0.000447318 -1.81966e-12
 -1.05121e-14 -0.000447318 -8.17308e-13
 -7.31948e-13 -0.000447318 1.47014e-12
 -2.18826e-12 0.000570466 -9.72821e-13
 -1.08664e-13 0.000570466 -1.88361e-12
 -2.10128e-12 0.000570466 -1.1461e-12
 -1.45348e-12 0.000570466 5.29293e-13
 5.07067e-13 0.000570466 -4.93012e-13
 -1.43044e-12 0.000570466 -1.19882e-12
 9.4959e-13 0.000570466 -1.66928e-12
 -1.39411e-12 0.000570466 -7.3209e-13
 -1.31011e-12 0.000570466 -1.90173e-13
 -1.62654e-12 0.000570466 -1.20375e-12
 -1.88464e-12 0.000570466 -1.77415e-12
 -3.33306e-13 0.000570466 -5.39468e-13
 2.61413e-13 0.000570466 -5.09062e-13
 -3.48429e-13 0.000570466 -1.28353e-12
 -1.25752e-13 0.000570466 -9.79313e-13
 3.75885e-13 0.000570466 -6.66903e-13
 5.34779e-13 -0.00188259 -1.4026e-12
 -2.07109e-12 -0.00188259 -1.11109e-12
 -2.24637e-12 -0.00188259 -1.91919e-12
 4.36892e-13 -0.00188259 6.77132e-13
 -6.06728e-13 -0.00188259 -5.67036e-13
 1.60993e-12 -0.00188259 -1.88825e-12
 1.30489e-12 -0.00188259 -1.53777e-12
 -4.77554e-13 -0.00188259 -3.12706e-13
 1.6272e-13 -0.00188259 -1.20867e-13
 -4.40961e-13 -0.00188259 -1.81942e-12
 -6.10969e-13 -0.00188259 -2.08633e-12
 -6.25804e-13 -0.00188259 -5.26764e-13
 1.90659e-14 -0.00188259 -7.16295e-13
 8.15183e-13 -0.00188259 -1.94757e-12
 1.17071e-12 -0.00188259 -7.7006e-13
 5.42072e-13 -0.00188259 -4.73242e-13
 -7.7081e-13 0.00153596 -1.09733e-13
 -8.54738e-13 0.00153596 -3.62286e-13
 -8.85223e-13 0.00153596 -1.52829e-13
 -9.837e-13 0.00153596 -5.95194e-13
 4.52689e-14 0.00153596 -5.99174e-13
 1.47425e-12 0.00153596 -4.50062e-13
 1.66853e-12 0.00153596 -1.94054e-12
 -1.99284e-13 0.00153596 1.76915e-12
 2.0966e-13 0.00153596 -1.63565e-12
 2.76699e-13 0.00153596 4.4203e-13
 7.14429e-13 0.00153596 1.86135e-13
 1.37267e-12 0.00153596 -6.25691e-14
 1.43752e-12 0.00153596 -1.66536e-13
 1.26578e-13 0.00153596 -3.5453e-13
 -3.36469e-13 0.00153596 2.05517e-13
 1.08625e-12 0.00153596 -5.76581e-13
 3.20431e-13 -0.00120252 -3.74401e-13
 -6.70349e-13 -0.00120252 -1.00998e-13
 -1.06884e-12 -0.00120252 2.3548e-13
 -6.69384e-13 -0.00120252 -5.02755e-13
 4.73144e-13 -0.00120252 -4.52101e-13
 3.85847e-13 -0.00120252 1.39798e-13
 1.27055e-12 -0.00120252 2.84795e-13
 1.36743e-12 -0.00120252 -4.54218e-13
 -3.20739e-13 -0.00120252 -4.56839e-13
 1.67778e-12 -0.00120252 1.20164e-13
 9.94609e-13 -0.00120252 4.75057e-13
 5.63029e-13 -0.00120252 -4.61831e-13
 7.34664e-13 -0.00120252 -4.11705e-13
 -1.34883e-13 -0.00120252 1.43789e-14
 2.21604e-13 -0.00120252 4.76047e-13
 3.64527e-13 -0.00120252 -4.54267e-13
 -1.51391e-12 -0.00194836 1.19883e-13
 -4.87883e-13 -0.00194836 -1.89975e-13
 -1.12519e-12 -0.00194836 4.84746e-13
 -1.00207e-12 -0.00194836 8.55128e-13
 -2.20386e-13 -0.00194836 8.37424e-14
 4.41889e-13 -0.00194836 -2.74454e-13
 2.54713e-13 -0.00194836 6.25138e-13
 2.76441e-13 -0.00194836 7.62864e-13
 6.16855e-13 -0.00194836 8.70072e-14
 -2.2203e-13 -0.00194836 -3.71374e-13
 6.41904e-13 -0.00194836 4.20176e-13
 2.66415e-13 -0.00194836 9.23031e-13
 1.46e-12 -0.00194836 -3.41806e-13
 3.22576e-13 -0.00194836 -9.06401e-14
 1.29557e-13 -0.00194836 -3.98405e-13
 1.7153e-13 -0.00194836 1.49347e-12
 -1.20831e-12 -0.00178806 -4.84312e-13
 -1.07854e-12 -0.00178806 3.91082e-13
 -1.51949e-12 -0.00178806 -1.15821e-13
 -1.21563e-12 -0.00178806 1.19621e-12
 1.25533e-12 -0.00178806 -7.61603e-13
 -4.45493e-13 -0.00178806 -1.35834e-13
 6.87199e-13 -0.00178806 7.76511e-13
 7.93503e-14 -0.00178806 7.35966e-13
 3.2524e-13 -0.00178806 -7.54243e-13
 3.61344e-13 -0.00178806 1.4156e-13
 -1.60807e-13 -0.00178806 7.56821e-13
 -1.55221e-13 -0.00178806 4.77552e-13
 -2.83003e-13 -0.00178806 -1.04138e-12
 5.62593e-13 -0.00178806 2.67957e-14
 3.99514e-13 -0.00178806 9.40487e-13
 3.88053e-13 -0.00178806 8.96081e-14
 -1.1679e-12 -0.00235628 1.75564e-13
 -1.47724e-12 -0.00235628 -3.23719e-14
 -1.65663e-12 -0.00235628 -3.37199e-13
 -1.78374e-12 -0.00235628 3.77013e-13
 -2.43736e-13 -0.00235628 -3.50825e-13
 -7.20029e-13 -0.00235628 -1.14568e-12
 4.20377e-13 -0.00235628 -7.93678e-14
 -3.23969e-13 -0.00235628 1.03774e-12
 2.32252e-13 -0.00235628 6.94244e-14
 4.83578e-13 -0.00235628 -6.16604e-13
 -7.75885e-13 -0.00235628 -1.32696e-12
 2.24754e-13 -0.00235628 1.11107e-12
 9.00163e-13 -0.00235628 -2.50155e-13
 4.56573e-13 -0.00235628 -4.39586e-13
 5.33187e-13 -0.00235628 -6.69383e-13
 1.26048e-13 -0.00235628 1.0683e-13
 -1.44499e-12 -0.00247539 2.61015e-13
 -1.51634e-12 -0.00247539 -3.14519e-13
 -8.93779e-13 -0.00247539 -3.18634e-13
 -1.30634e-12 -0.00247539 1.00124e-12
 4.69161e-13 -0.00247539 3.05751e-14
 -2.43674e-14 -0.00247539 -5.11061e-13
 -2.63314e-13 -0.00247539 -2.6369e-14
 -4.40184e-13 -0.00247539 3.92117e-13
 3.62085e-13 -0.00247539 -1.29129e-13
 4.6331e-13 -0.00247539 -6.5489e-13
 -6.78883e-13 -0.00247539 -4.49996e-13
 -2.95182e-13 -0.00247539 7.08612e-14
 1.11475e-12 -0.00247539 -3.33489e-13
 9.9365e-13 -0.00247539 -4.9474e-13
 6.72253e-13 -0.00247539 -5.40207e-13
 4.55561e-13 -0.00247539 -2.82053e-14
 -1.34908e-12 -0.00238945 -9.24491e-13
 -1.35338e-12 -0.00238945 1.0536e-12
 -2.96429e-13 -0.00238945 3.41973e-13
 -2.61139e-14 -0.00238945 -1.92604e-13
 6.57962e-13 -0.00238945 -2.46089e-13
 1.12664e-12 -0.00238945 -2.46813e-13
 -1.89033e-13 -0.00238945 7.54502e-13
 -7.07522e-13 -0.00238945 4.78521e-13
 3.53601e-13 -0.00238945 -3.28268e-13
 1.63736e-12 -0.00238945 -2.95438e-14
 1.19953e-12 -0.00238945 7.52221e-14
 4.49641e-13 -0.00238945 4.16722e-13
 -2.47772e-14 -0.00238945 -3.50744e-13
 -6.53388e-13 -0.00238945 9.85586e-14
 -5.81858e-13 -0.00238945 -3.83e-13
 3.65529e-13 -0.00238945 1.32108e-12
 0 -0.000537327 0
 0 -0.000537327 0
 0 -0.000537327 0
 0 -0.000537327 0
 0 -0.000537327 0
 0 -0.000537327 0
 0 -0.000537327 0
 0 -0.000537327 0
 0 -0.000537327 0
 0 -0.000537327 0
 0 -0.000537327 0
 0 -0.000537327 0
 0 -0.000537327 0
 0 -0.000537327 0
 0 -0.000537327 0
 0 -0.000537327 0
 0 0.000307245 0