<?xml version="1.0"?>
<VTKFile type="UnstructuredGrid" version="0.1" byte_order="LittleEndian" compressor="vtkZLibDataCompressor">
<UnstructuredGrid>
<Piece NumberOfPoints="960" NumberOfCells="120">
<Points>
<DataArray type="Float32" NumberOfComponents="3" format="ascii">
-4.000000e+02 -6.000000e+03 -4.000000e+02
0.000000e+00 -6.000000e+03 -4.000000e+02
-4.000000e+02 -5.600000e+03 -4.000000e+02
3.076280e-11 -5.600000e+03 -4.000000e+02
-4.000000e+02 -6.000000e+03 0.000000e+00
0.000000e+00 -6.000000e+03 0.000000e+00
-4.000000e+02 -5.600000e+03 6.003490e-11
1.614800e-10 -5.600000e+03 8.684510e-11
0.000000e+00 -6.000000e+03 -4.000000e+02
4.000000e+02 -6.000000e+03 -4.000000e+02
3.076280e-11 -5.600000e+03 -4.000000e+02
4.000000e+02 -5.600000e+03 -4.000000e+02
0.000000e+00 -6.000000e+03 0.000000e+00
4.000000e+02 -6.000000e+03 0.000000e+00
1.614800e-10 -5.600000e+03 8.684510e-11
4.000000e+02 -5.600000e+03 2.207100e-10
-4.000000e+02 -5.600000e+03 -4.000000e+02
3.076280e-11 -5.600000e+03 -4.000000e+02
-4.000000e+02 -5.200000e+03 -4.000000e+02
2.635440e-10 -5.200000e+03 -4.000000e+02
-4.000000e+02 -5.600000e+03 6.003490e-11
1.614800e-10 -5.600000e+03 8.684510e-11
-4.000000e+02 -5.200000e+03 -5.414250e-11
8.573420e-11 -5.200000e+03 2.149900e-10
3.076280e-11 -5.600000e+03 -4.000000e+02
4.000000e+02 -5.600000e+03 -4.000000e+02
2.635440e-10 -5.200000e+03 -4.000000e+02
4.000000e+02 -5.200000e+03 -4.000000e+02
1.614800e-10 -5.600000e+03 8.684510e-11
4.000000e+02 -5.600000e+03 2.207100e-10
8.573420e-11 -5.200000e+03 2.149900e-10
4.000000e+02 -5.200000e+03 -7.157110e-11
-4.000000e+02 -5.200000e+03 -4.000000e+02
2.635440e-10 -5.200000e+03 -4.000000e+02
-4.000000e+02 -4.800000e+03 -4.000000e+02
5.037030e-10 -4.800000e+03 -4.000000e+02
-4.000000e+02 -5.200000e+03 -5.414250e-11
8.573420e-11 -5.200000e+03 2.149900e-10
-4.000000e+02 -4.800000e+03 -4.142260e-10
1.142010e-10 -4.800000e+03 -2.016590e-10
2.635440e-10 -5.200000e+03 -4.000000e+02
4.000000e+02 -5.200000e+03 -4.000000e+02
5.037030e-10 -4.800000e+03 -4.000000e+02
4.000000e+02 -4.800000e+03 -4.000000e+02
8.573420e-11 -5.200000e+03 2.149900e-10
4.000000e+02 -5.200000e+03 -7.157110e-11
1.142010e-10 -4.800000e+03 -2.016590e-10
4.000000e+02 -4.800000e+03 -7.424170e-11
-4.000000e+02 -4.800000e+03 -4.000000e+02
5.037030e-10 -4.800000e+03 -4.000000e+02
-4.000000e+02 -4.400000e+03 -4.000000e+02
4.856590e-10 -4.400000e+03 -4.000000e+02
-4.000000e+02 -4.800000e+03 -4.142260e-10
1.142010e-10 -4.800000e+03 -2.016590e-10
-4.000000e+02 -4.400000e+03 -3.287780e-10
4.259880e-10 -4.400000e+03 -5.960910e-11
5.037030e-10 -4.800000e+03 -4.000000e+02
4.000000e+02 -4.800000e+03 -4.000000e+02
4.856590e-10 -4.400000e+03 -4.000000e+02
4.000000e+02 -4.400000e+03 -4.000000e+02
1.142010e-10 -4.800000e+03 -2.016590e-10
4.000000e+02 -4.800000e+03 -7.424170e-11
4.259880e-10 -4.400000e+03 -5.960910e-11
4.000000e+02 -4.400000e+03 5.649850e-10
-4.000000e+02 -4.400000e+03 -4.000000e+02
4.856590e-10 -4.400000e+03 -4.000000e+02
-4.000000e+02 -4.000000e+03 -4.000000e+02
9.573980e-10 -4.000000e+03 -4.000000e+02
-4.000000e+02 -4.400000e+03 -3.287780e-10
4.259880e-10 -4.400000e+03 -5.960910e-11
-4.000000e+02 -4.000000e+03 -4.409800e-10
4.595560e-10 -4.000000e+03 -1.788070e-10
4.856590e-10 -4.400000e+03 -4.000000e+02
4.000000e+02 -4.400000e+03 -4.000000e+02
9.573980e-10 -4.000000e+03 -4.000000e+02
4.000000e+02 -4.000000e+03 -4.000000e+02
4.259880e-10 -4.400000e+03 -5.960910e-11
4.000000e+02 -4.400000e+03 5.649850e-10
4.595560e-10 -4.000000e+03 -1.788070e-10
4.000000e+02 -4.000000e+03 1.680280e-10
-4.000000e+02 -4.000000e+03 -4.000000e+02
9.573980e-10 -4.000000e+03 -4.000000e+02
-4.000000e+02 -3.600010e+03 -4.000000e+02
8.651000e-10 -3.600010e+03 -4.000000e+02
-4.000000e+02 -4.000000e+03 -4.409800e-10
4.595560e-10 -4.000000e+03 -1.788070e-10
-4.000000e+02 -3.600010e+03 -9.771850e-10
6.405070e-10 -3.600010e+03 -5.199040e-10
9.573980e-10 -4.000000e+03 -4.000000e+02
4.000000e+02 -4.000000e+03 -4.000000e+02
8.651000e-10 -3.600010e+03 -4.000000e+02
4.000000e+02 -3.600010e+03 -4.000000e+02
4.595560e-10 -4.000000e+03 -1.788070e-10
4.000000e+02 -4.000000e+03 1.680280e-10
6.405070e-10 -3.600010e+03 -5.199040e-10
4.000000e+02 -3.600010e+03 -4.817430e-10
-4.000000e+02 -3.600010e+03 -4.000000e+02
8.651000e-10 -3.600010e+03 -4.000000e+02
-4.000000e+02 -3.200010e+03 -4.000000e+02
9.300220e-10 -3.200010e+03 -4.000000e+02
-4.000000e+02 -3.600010e+03 -9.771850e-10
6.405070e-10 -3.600010e+03 -5.199040e-10
-4.000000e+02 -3.200010e+03 -1.430090e-09
7.574150e-10 -3.200010e+03 -1.239020e-09
8.651000e-10 -3.600010e+03 -4.000000e+02
4.000000e+02 -3.600010e+03 -4.000000e+02
9.300220e-10 -3.200010e+03 -4.000000e+02
4.000000e+02 -3.200010e+03 -4.000000e+02
6.405070e-10 -3.600010e+03 -5.199040e-10
4.000000e+02 -3.600010e+03 -4.817430e-10
7.574150e-10 -3.200010e+03 -1.239020e-09
4.000000e+02 -3.200010e+03 -5.220780e-10
-4.000000e+02 -3.200010e+03 -4.000000e+02
9.300220e-10 -3.200010e+03 -4.000000e+02
-4.000000e+02 -2.800010e+03 -4.000000e+02
9.682880e-10 -2.800010e+03 -4.000000e+02
-4.000000e+02 -3.200010e+03 -1.430090e-09
7.574150e-10 -3.200010e+03 -1.239020e-09
-4.000000e+02 -2.800010e+03 -1.751290e-09
7.356580e-10 -2.800010e+03 -1.741440e-09
9.300220e-10 -3.200010e+03 -4.000000e+02
4.000000e+02 -3.200010e+03 -4.000000e+02
9.682880e-10 -2.800010e+03 -4.000000e+02
4.000000e+02 -2.800010e+03 -4.000000e+02
7.574150e-10 -3.200010e+03 -1.239020e-09
4.000000e+02 -3.200010e+03 -5.220780e-10
7.356580e-10 -2.800010e+03 -1.741440e-09
4.000000e+02 -2.800010e+03 -1.228760e-09
-4.000000e+02 -2.800010e+03 -4.000000e+02
9.682880e-10 -2.800010e+03 -4.000000e+02
-4.000000e+02 -2.400010e+03 -4.000000e+02
1.650380e-09 -2.400010e+03 -4.000000e+02
-4.000000e+02 -2.800010e+03 -1.751290e-09
7.356580e-10 -2.800010e+03 -1.741440e-09
-4.000000e+02 -2.400010e+03 -2.252660e-09
1.015170e-09 -2.400010e+03 -1.994400e-09
9.682880e-10 -2.800010e+03 -4.000000e+02
4.000000e+02 -2.800010e+03 -4.000000e+02
1.650380e-09 -2.400010e+03 -4.000000e+02
4.000000e+02 -2.400010e+03 -4.000000e+02
7.356580e-10 -2.800010e+03 -1.741440e-09
4.000000e+02 -2.800010e+03 -1.228760e-09
1.015170e-09 -2.400010e+03 -1.994400e-09
4.000000e+02 -2.400010e+03 -1.572730e-09
-4.000000e+02 -2.400010e+03 -4.000000e+02
1.650380e-09 -2.400010e+03 -4.000000e+02
-4.000000e+02 -2.000010e+03 -4.000000e+02
1.830530e-09 -2.000010e+03 -4.000000e+02
-4.000000e+02 -2.400010e+03 -2.252660e-09
1.015170e-09 -2.400010e+03 -1.994400e-09
-4.000000e+02 -2.000010e+03 -1.899650e-09
1.107410e-09 -2.000010e+03 -1.842620e-09
1.650380e-09 -2.400010e+03 -4.000000e+02
4.000000e+02 -2.400010e+03 -4.000000e+02
1.830530e-09 -2.000010e+03 -4.000000e+02
4.000000e+02 -2.000010e+03 -4.000000e+02
1.015170e-09 -2.400010e+03 -1.994400e-09
4.000000e+02 -2.400010e+03 -1.572730e-09
1.107410e-09 -2.000010e+03 -1.842620e-09
4.000000e+02 -2.000010e+03 -1.327130e-09
-4.000000e+02 -2.000010e+03 -4.000000e+02
1.830530e-09 -2.000010e+03 -4.000000e+02
-4.000000e+02 -1.600010e+03 -4.000000e+02
8.234340e-10 -1.600010e+03 -4.000000e+02
-4.000000e+02 -2.000010e+03 -1.899650e-09
1.107410e-09 -2.000010e+03 -1.842620e-09
-4.000000e+02 -1.600010e+03 -5.462670e-10
8.611760e-10 -1.600010e+03 -6.016100e-10
1.830530e-09 -2.000010e+03 -4.000000e+02
4.000000e+02 -2.000010e+03 -4.000000e+02
8.234340e-10 -1.600010e+03 -4.000000e+02
4.000000e+02 -1.600010e+03 -4.000000e+02
1.107410e-09 -2.000010e+03 -1.842620e-09
4.000000e+02 -2.000010e+03 -1.327130e-09
8.611760e-10 -1.600010e+03 -6.016100e-10
4.000000e+02 -1.600010e+03 -5.992030e-10
-4.000000e+02 -1.600010e+03 -4.000000e+02
8.234340e-10 -1.600010e+03 -4.000000e+02
-4.000000e+02 -1.200010e+03 -4.000000e+02
5.309690e-10 -1.200010e+03 -4.000000e+02
-4.000000e+02 -1.600010e+03 -5.462670e-10
8.611760e-10 -1.600010e+03 -6.016100e-10
-4.000000e+02 -1.200010e+03 2.550050e-10
3.011290e-10 -1.200010e+03 2.221360e-10
8.234340e-10 -1.600010e+03 -4.000000e+02
4.000000e+02 -1.600010e+03 -4.000000e+02
5.309690e-10 -1.200010e+03 -4.000000e+02
4.000000e+02 -1.200010e+03 -4.000000e+02
8.611760e-10 -1.600010e+03 -6.016100e-10
4.000000e+02 -1.600010e+03 -5.992030e-10
3.011290e-10 -1.200010e+03 2.221360e-10
4.000000e+02 -1.200010e+03 -6.864070e-11
-4.000000e+02 -1.200010e+03 -4.000000e+02
5.309690e-10 -1.200010e+03 -4.000000e+02
-4.000000e+02 -8.000180e+02 -4.000000e+02
4.055920e-10 -8.000180e+02 -4.000000e+02
-4.000000e+02 -1.200010e+03 2.550050e-10
3.011290e-10 -1.200010e+03 2.221360e-10
-4.000000e+02 -8.000180e+02 2.991350e-10
4.346610e-11 -8.000180e+02 5.059300e-10
5.309690e-10 -1.200010e+03 -4.000000e+02
4.000000e+02 -1.200010e+03 -4.000000e+02
4.055920e-10 -8.000180e+02 -4.000000e+02
4.000000e+02 -8.000180e+02 -4.000000e+02
3.011290e-10 -1.200010e+03 2.221360e-10
4.000000e+02 -1.200010e+03 -6.864070e-11
4.346610e-11 -8.000180e+02 5.059300e-10
4.000000e+02 -8.000180e+02 2.364530e-10
-4.000000e+02 -8.000180e+02 -4.000000e+02
4.055920e-10 -8.000180e+02 -4.000000e+02
-4.000000e+02 -4.000260e+02 -4.000000e+02
-1.685590e-11 -4.000260e+02 -4.000000e+02
-4.000000e+02 -8.000180e+02 2.991350e-10
4.346610e-11 -8.000180e+02 5.059300e-10
-4.000000e+02 -4.000260e+02 -3.574040e-11
-1.329000e-10 -4.000260e+02 2.548570e-10
4.055920e-10 -8.000180e+02 -4.000000e+02
4.000000e+02 -8.000180e+02 -4.000000e+02
-1.685590e-11 -4.000260e+02 -4.000000e+02
4.000000e+02 -4.000260e+02 -4.000000e+02
4.346610e-11 -8.000180e+02 5.059300e-10
4.000000e+02 -8.000180e+02 2.364530e-10
-1.329000e-10 -4.000260e+02 2.548570e-10
4.000000e+02 -4.000260e+02 1.816820e-10
-4.000000e+02 -4.000260e+02 -4.000000e+02
-1.685590e-11 -4.000260e+02 -4.000000e+02
-4.000000e+02 -3.967730e-02 -4.000000e+02
-2.588480e-10 -3.967730e-02 -4.000000e+02
-4.000000e+02 -4.000260e+02 -3.574040e-11
-1.329000e-10 -4.000260e+02 2.548570e-10
-4.000000e+02 -3.967730e-02 4.186150e-11
-1.649890e-10 -3.967730e-02 -4.555580e-11
-1.685590e-11 -4.000260e+02 -4.000000e+02
4.000000e+02 -4.000260e+02 -4.000000e+02
-2.588480e-10 -3.967730e-02 -4.000000e+02
4.000000e+02 -3.967730e-02 -4.000000e+02
[...]
<PointData>
<DataArray type="Float32" Name="V1" format="ascii">
0.000000e+00
0.000000e+00
7.855630e-11
-2.180840e-10
0.000000e+00
0.000000e+00
-2.356690e-10
3.422470e-10
0.000000e+00
0.000000e+00
-2.180840e-10
-9.898090e-10
0.000000e+00
0.000000e+00
3.422470e-10
1.209770e-09
7.855630e-11
-2.180840e-10
-1.806790e-10
-1.004180e-10
-2.356690e-10
3.422470e-10
6.441610e-10
1.873930e-10
-2.180840e-10
-9.898090e-10
-1.004180e-10
-4.791930e-10
3.422470e-10
1.209770e-09
1.873930e-10
1.806790e-10
-1.806790e-10
-1.004180e-10
9.033970e-10
-3.581760e-10
6.441610e-10
1.873930e-10
-4.634820e-10
-3.865240e-10
-1.004180e-10
-4.791930e-10
-3.581760e-10
-1.170490e-09
1.873930e-10
1.806790e-10
-3.865240e-10
-1.099790e-10
9.033970e-10
-3.581760e-10
-7.070060e-10
2.557100e-10
-4.634820e-10
-3.865240e-10
-2.121020e-10
-3.686790e-10
-3.581760e-10
-1.170490e-09
2.557100e-10
5.891720e-10
-3.865240e-10
-1.099790e-10
-3.686790e-10
3.770700e-10
-7.070060e-10
2.557100e-10
-5.341830e-10
-2.835510e-10
-2.121020e-10
-3.686790e-10
4.870490e-10
1.975700e-10
2.557100e-10
5.891720e-10
-2.835510e-10
6.677280e-10
-3.686790e-10
3.770700e-10
1.975700e-10
-3.692140e-10
-5.341830e-10
-2.835510e-10
-5.184710e-10
3.509260e-10
4.870490e-10
1.975700e-10
3.063690e-10
-3.077180e-10
-2.835510e-10
6.677280e-10
3.509260e-10
8.641190e-11
1.975700e-10
-3.692140e-10
-3.077180e-10
4.713380e-11
-5.184710e-10
3.509260e-10
-4.556260e-10
-2.115780e-10
3.063690e-10
-3.077180e-10
4.713380e-10
2.586580e-10
3.509260e-10
8.641190e-11
-2.115780e-10
7.148620e-10
-3.077180e-10
4.713380e-11
2.586580e-10
1.335460e-10
-4.556260e-10
-2.115780e-10
-2.278130e-10
-9.436980e-11
4.713380e-10
2.586580e-10
-4.713380e-10
-4.518500e-10
-2.115780e-10
7.148620e-10
-9.436980e-11
2.199580e-10
2.586580e-10
1.335460e-10
-4.518500e-10
1.649680e-10
-2.278130e-10
-9.436980e-11
-6.520170e-10
-3.559130e-10
-4.713380e-10
-4.518500e-10
3.377920e-10
2.626180e-10
-9.436980e-11
2.199580e-10
-3.559130e-10
5.498940e-11
-4.518500e-10
1.649680e-10
2.626180e-10
1.178340e-10
-6.520170e-10
-3.559130e-10
7.384290e-10
5.141570e-10
3.377920e-10
2.626180e-10
-3.613590e-10
-9.666030e-11
-3.559130e-10
5.498940e-11
5.141570e-10
1.021230e-10
2.626180e-10
1.178340e-10
-9.666030e-11
1.806790e-10
7.384290e-10
5.141570e-10
-4.713380e-11
3.864850e-10
-3.613590e-10
-9.666030e-11
1.885350e-10
-2.396610e-10
5.141570e-10
1.021230e-10
3.864850e-10
3.692140e-10
-9.666030e-11
1.806790e-10
-2.396610e-10
-3.220810e-10
-4.713380e-11
3.864850e-10
7.619960e-10
2.045260e-10
1.885350e-10
-2.396610e-10
3.299360e-10
1.866190e-10
3.864850e-10
3.692140e-10
2.045260e-10
-1.335460e-10
-2.396610e-10
-3.220810e-10
1.866190e-10
-2.906580e-10
7.619960e-10
2.045260e-10
2.121020e-10
2.184420e-10
3.299360e-10
1.866190e-10
-3.063690e-10
-2.971030e-10
2.045260e-10
-1.335460e-10
2.184420e-10
9.426750e-11
1.866190e-10
-2.906580e-10
-2.971030e-10
7.070060e-10
2.121020e-10
2.184420e-10
6.363060e-10
3.019640e-10
-3.063690e-10
-2.971030e-10
-2.592360e-10
-2.816880e-10
2.184420e-10
9.426750e-11
3.019640e-10
-8.641190e-11
-2.971030e-10
7.070060e-10
-2.816880e-10
5.498940e-11
6.363060e-10
3.019640e-10
-6.284500e-11
-3.409690e-10
-2.592360e-10
-2.816880e-10
2.278130e-10
-6.721440e-11
3.019640e-10
-8.641190e-11
-3.409690e-10
-7.070060e-11
-2.816880e-10
5.498940e-11
-6.721440e-11
-1.414010e-10
-6.284500e-11
-3.409690e-10
2.592360e-10
-1.260610e-10
2.278130e-10
-6.721440e-11
-3.063690e-10
-4.562790e-10
-3.409690e-10
-7.070060e-11
-1.260610e-10
-7.305730e-10
-6.721440e-11
-1.414010e-10
-4.562790e-10
3.063690e-10
2.592360e-10
-1.260610e-10
-2.199580e-10
2.554030e-10
-3.063690e-10
-4.562790e-10
3.142250e-11
-2.851190e-10
-1.260610e-10
-7.305730e-10
2.554030e-10
-1.963910e-10
-4.562790e-10
3.063690e-10
-2.851190e-10
-3.377920e-10
-2.199580e-10
2.554030e-10
-2.435240e-10
-5.572630e-11
3.142250e-11
-2.851190e-10
-7.070060e-10
-1.388470e-10
2.554030e-10
-1.963910e-10
-5.572630e-11
2.278130e-10
-2.851190e-10
-3.377920e-10
-1.388470e-10
2.670910e-10
-2.435240e-10
-5.572630e-11
6.127390e-10
1.561260e-10
-7.070060e-10
-1.388470e-10
5.420380e-10
1.521620e-10
-5.572630e-11
2.278130e-10
1.561260e-10
-1.963910e-10
-1.388470e-10
2.670910e-10
1.521620e-10
1.728240e-10
6.127390e-10
1.561260e-10
-3.142250e-11
1.527520e-10
5.420380e-10
1.521620e-10
-1.649680e-10
-8.480690e-12
1.561260e-10
-1.963910e-10
1.527520e-10
3.063690e-10
1.521620e-10
1.728240e-10
-8.480690e-12
1.335460e-10
-3.142250e-11
1.527520e-10
0.000000e+00
1.158340e-10
-1.649680e-10
-8.480690e-12
-2.356690e-11
1.016680e-10
1.527520e-10
3.063690e-10
1.158340e-10
2.278130e-10
-8.480690e-12
1.335460e-10
1.016680e-10
2.278130e-10
0.000000e+00
1.158340e-10
2.356690e-10
4.810170e-11
-2.356690e-11
1.016680e-10
7.855630e-11
2.784890e-11
1.158340e-10
2.278130e-10
4.810170e-11
0.000000e+00
1.016680e-10
2.278130e-10
2.784890e-11
0.000000e+00
2.356690e-10
4.810170e-11
0.000000e+00
-8.947170e-11
7.855630e-11
2.784890e-11
0.000000e+00
-6.446320e-11
4.810170e-11
0.000000e+00
-8.947170e-11
-4.713380e-11
2.784890e-11
0.000000e+00
-6.446320e-11
-7.070060e-11
0.000000e+00
-8.947170e-11
-3.299360e-10
-5.191770e-11
0.000000e+00
-6.446320e-11
-1.492570e-10
-9.729680e-12
-8.947170e-11
-4.713380e-11
-5.191770e-11
2.670910e-10
-6.446320e-11
-7.070060e-11
-9.729680e-12
1.571130e-10
-3.299360e-10
-5.191770e-11
-6.284500e-11
2.205930e-11
-1.492570e-10
-9.729680e-12
0.000000e+00
2.549300e-11
-5.191770e-11
2.670910e-10
2.205930e-11
1.335460e-10
-9.729680e-12
1.571130e-10
2.549300e-11
7.855630e-11
-6.284500e-11
2.205930e-11
0.000000e+00
7.903360e-12
0.000000e+00
2.549300e-11
0.000000e+00
-3.572220e-12
2.205930e-11
1.335460e-10
7.903360e-12
0.000000e+00
2.549300e-11
7.855630e-11
-3.572220e-12
0.000000e+00
0.000000e+00
7.903360e-12
0.000000e+00
-6.919100e-12
0.000000e+00
-3.572220e-12
0.000000e+00
-7.261500e-12
7.903360e-12
0.000000e+00
-6.919100e-12
0.000000e+00
-3.572220e-12
0.000000e+00
-7.261500e-12
0.000000e+00
0.000000e+00
-6.919100e-12
0.000000e+00
-5.905010e-12
0.000000e+00
-7.261500e-12
0.000000e+00
6.052090e-13
-6.919100e-12
0.000000e+00
-5.905010e-12
-7.855630e-12
-7.261500e-12
0.000000e+00
6.052090e-13
0.000000e+00
0.000000e+00
-5.905010e-12
0.000000e+00
6.065560e-13
0.000000e+00
6.052090e-13
0.000000e+00
2.233150e-13
-5.905010e-12
-7.855630e-12
6.065560e-13
0.000000e+00
6.052090e-13
0.000000e+00
2.233150e-13
0.000000e+00
0.000000e+00
6.065560e-13
0.000000e+00
-7.425070e-13
0.000000e+00
2.233150e-13
-3.927810e-11
-6.517540e-13
6.065560e-13
0.000000e+00
-7.425070e-13
-7.855630e-12
2.233150e-13
0.000000e+00
-6.517540e-13
1.571130e-11
0.000000e+00
0.000000e+00
-2.356690e-10
3.422470e-10
0.000000e+00
0.000000e+00
-2.985140e-10
-7.168710e-11
0.000000e+00
0.000000e+00
3.422470e-10
1.209770e-09
0.000000e+00
0.000000e+00
-7.168710e-11
3.299360e-10
-2.356690e-10
3.422470e-10
6.441610e-10
1.873930e-10
-2.985140e-10
-7.168710e-11
-7.384290e-10
-1.288790e-10
3.422470e-10
1.209770e-09
1.873930e-10
1.806790e-10
-7.168710e-11
3.299360e-10
-1.288790e-10
-6.048830e-10
6.441610e-10
1.873930e-10
-4.634820e-10
-3.865240e-10
-7.384290e-10
-1.288790e-10
8.955420e-10
2.271030e-10
1.873930e-10
1.806790e-10
-3.865240e-10
-1.099790e-10
-1.288790e-10
-6.048830e-10
2.271030e-10
-7.619960e-10
-4.634820e-10
-3.865240e-10
-2.121020e-10
-3.686790e-10
8.955420e-10
2.271030e-10
-4.320600e-10
-2.695500e-10
-3.865240e-10
-1.099790e-10
-3.686790e-10
3.770700e-10
2.271030e-10
-7.619960e-10
-2.695500e-10
7.777070e-10
-2.121020e-10
-3.686790e-10
4.870490e-10
1.975700e-10
-4.320600e-10
-2.695500e-10
6.284500e-11
-1.992430e-10
-3.686790e-10
3.770700e-10
1.975700e-10
-3.692140e-10
-2.695500e-10
7.777070e-10
-1.992430e-10
2.906580e-10
4.870490e-10
1.975700e-10
3.063690e-10
-3.077180e-10
6.284500e-11
-1.992430e-10
-4.791930e-10
-6.934820e-10
1.975700e-10
-3.692140e-10
-3.077180e-10
4.713380e-11
-1.992430e-10
2.906580e-10
-6.934820e-10
2.356690e-11
3.063690e-10
-3.077180e-10
4.713380e-10
2.586580e-10
-4.791930e-10
-6.934820e-10
-2.670910e-10
3.619070e-10
-3.077180e-10
4.713380e-11
2.586580e-10
1.335460e-10
-6.934820e-10
2.356690e-11
3.619070e-10
5.341830e-10
4.713380e-10
2.586580e-10
-4.713380e-10
-4.518500e-10
-2.670910e-10
3.619070e-10
-7.070060e-11
3.612720e-10
2.586580e-10
1.335460e-10
-4.518500e-10
1.649680e-10
3.619070e-10
5.341830e-10
3.612720e-10
3.927810e-10
-4.713380e-10
-4.518500e-10
3.377920e-10
2.626180e-10
-7.070060e-11
3.612720e-10
1.256900e-10
-5.752120e-12
-4.518500e-10
1.649680e-10
2.626180e-10
1.178340e-10
3.612720e-10
3.927810e-10
-5.752120e-12
-7.227180e-10
3.377920e-10
2.626180e-10
-3.613590e-10
-9.666030e-11
1.256900e-10
-5.752120e-12
9.033970e-10
-2.495430e-10
2.626180e-10
1.178340e-10
-9.666030e-11
1.806790e-10
-5.752120e-12
-7.227180e-10
-2.495430e-10
-4.320600e-10
-3.613590e-10
-9.666030e-11
1.885350e-10
-2.396610e-10
9.033970e-10
-2.495430e-10
3.142250e-11
4.599140e-10
-9.666030e-11
1.806790e-10
-2.396610e-10
-3.220810e-10
-2.495430e-10
-4.320600e-10
4.599140e-10
2.906580e-10
1.885350e-10
-2.396610e-10
3.299360e-10
1.866190e-10
3.142250e-11
4.599140e-10
1.256900e-10
-1.579200e-10
-2.396610e-10
-3.220810e-10
1.866190e-10
-2.906580e-10
4.599140e-10
2.906580e-10
-1.579200e-10
-3.063690e-10
3.299360e-10
1.866190e-10
-3.063690e-10
-2.971030e-10
1.256900e-10
-1.579200e-10
-8.169850e-10
-2.553240e-10
1.866190e-10
-2.906580e-10
-2.971030e-10
7.070060e-10
-1.579200e-10
-3.063690e-10
-2.553240e-10
-3.377920e-10
-3.063690e-10
-2.971030e-10
-2.592360e-10
-2.816880e-10
-8.169850e-10
-2.553240e-10
1.013380e-09
5.140170e-10
-2.971030e-10
7.070060e-10
-2.816880e-10
5.498940e-11
-2.553240e-10
-3.377920e-10
5.140170e-10
6.284500e-11
-2.592360e-10
-2.816880e-10
2.278130e-10
-6.721440e-11
1.013380e-09
5.140170e-10
-8.641190e-11
-1.893480e-10
-2.816880e-10
5.498940e-11
-6.721440e-11
-1.414010e-10
5.140170e-10
6.284500e-11
-1.893480e-10
-5.891720e-10
2.278130e-10
-6.721440e-11
-3.063690e-10
-4.562790e-10
-8.641190e-11
-1.893480e-10
-7.070060e-11
-1.739990e-10
-6.721440e-11
-1.414010e-10
-4.562790e-10
3.063690e-10
-1.893480e-10
-5.891720e-10
-1.739990e-10
0.000000e+00
-3.063690e-10
-4.562790e-10
3.142250e-11
-2.851190e-10
-7.070060e-11
-1.739990e-10
6.127390e-10
2.396500e-10
-4.562790e-10
3.063690e-10
-2.851190e-10
-3.377920e-10
-1.739990e-10
0.000000e+00
2.396500e-10
-1.256900e-10
3.142250e-11
-2.851190e-10
-7.070060e-10
-1.388470e-10
6.127390e-10
2.396500e-10
-1.005520e-09
-4.803980e-11
-2.851190e-10
-3.377920e-10
-1.388470e-10
2.670910e-10
2.396500e-10
-1.256900e-10
-4.803980e-11
4.949050e-10
-7.070060e-10
-1.388470e-10
5.420380e-10
1.521620e-10
-1.005520e-09
-4.803980e-11
8.876860e-10
4.240060e-12
-1.388470e-10
2.670910e-10
1.521620e-10
1.728240e-10
-4.803980e-11
4.949050e-10
4.240060e-12
-3.849260e-10
5.420380e-10
1.521620e-10
-1.649680e-10
-8.480690e-12
8.876860e-10
4.240060e-12
-3.927810e-10
-1.750730e-10
1.521620e-10
1.728240e-10
-8.480690e-12
1.335460e-10
4.240060e-12
-3.849260e-10
-1.750730e-10
8.641190e-11
-1.649680e-10
-8.480690e-12
-2.356690e-11
1.016680e-10
-3.927810e-10
-1.750730e-10
-7.070060e-11
1.274680e-10
-8.480690e-12
1.335460e-10
1.016680e-10
2.278130e-10
-1.750730e-10
8.641190e-11
1.274680e-10
3.063690e-10
-2.356690e-11
1.016680e-10
7.855630e-11
2.784890e-11
-7.070060e-11
1.274680e-10
0.000000e+00
6.121760e-11
1.016680e-10
2.278130e-10
2.784890e-11
0.000000e+00
1.274680e-10
3.063690e-10
6.121760e-11
1.335460e-10
7.855630e-11
2.784890e-11
0.000000e+00
-6.446320e-11
0.000000e+00
6.121760e-11
0.000000e+00
-5.499860e-11
2.784890e-11
0.000000e+00
-6.446320e-11
-7.070060e-11
6.121760e-11
1.335460e-10
-5.499860e-11
-1.256900e-10
0.000000e+00
-6.446320e-11
-1.492570e-10
-9.729680e-12
0.000000e+00
-5.499860e-11
0.000000e+00
-1.495650e-11
-6.446320e-11
-7.070060e-11
-9.729680e-12
1.571130e-10
-5.499860e-11
-1.256900e-10
-1.495650e-11
0.000000e+00
-1.492570e-10
-9.729680e-12
0.000000e+00
2.549300e-11
0.000000e+00
-1.495650e-11
0.000000e+00
-3.103500e-12
-9.729680e-12
1.571130e-10
2.549300e-11
7.855630e-11
-1.495650e-11
0.000000e+00
-3.103500e-12
0.000000e+00
0.000000e+00
2.549300e-11
0.000000e+00
-3.572220e-12
0.000000e+00
-3.103500e-12
0.000000e+00
-6.287800e-12
2.549300e-11
7.855630e-11
-3.572220e-12
0.000000e+00
-3.103500e-12
0.000000e+00
-6.287800e-12
0.000000e+00
0.000000e+00
-3.572220e-12
0.000000e+00
-7.261500e-12
0.000000e+00
-6.287800e-12
0.000000e+00
-5.725060e-12
-3.572220e-12
0.000000e+00
-7.261500e-12
0.000000e+00
-6.287800e-12
0.000000e+00
-5.725060e-12
0.000000e+00
0.000000e+00
-7.261500e-12
0.000000e+00
6.052090e-13
0.000000e+00
-5.725060e-12
0.000000e+00
9.148550e-12
-7.261500e-12
0.000000e+00
6.052090e-13
0.000000e+00
-5.725060e-12
0.000000e+00
9.148550e-12
1.571130e-11
0.000000e+00
6.052090e-13
0.000000e+00
2.233150e-13
0.000000e+00
9.148550e-12
0.000000e+00
-2.971210e-14
6.052090e-13
0.000000e+00
2.233150e-13
0.000000e+00
9.148550e-12
1.571130e-11
-2.971210e-14
0.000000e+00
0.000000e+00
2.233150e-13
-3.927810e-11
-6.517540e-13
0.000000e+00
-2.971210e-14
-3.927810e-11
-2.205110e-13
2.233150e-13
0.000000e+00
-6.517540e-13
1.571130e-11
-2.971210e-14
0.000000e+00
-2.205110e-13
2.356690e-11
</DataArray>
<DataArray type="Float32" Name="V2" format="ascii">
0.000000e+00
0.000000e+00
-1.926440e-05
-1.926590e-05
0.000000e+00
0.000000e+00
-1.926330e-05
-1.926140e-05
0.000000e+00
0.000000e+00
-1.926590e-05
-1.926440e-05
0.000000e+00
0.000000e+00
-1.926140e-05
-1.926410e-05
-1.926440e-05
-1.926590e-05
-5.356340e-05
-5.356420e-05
-1.926330e-05
-1.926140e-05
-5.356490e-05
-5.356320e-05
-1.926590e-05
-1.926440e-05
-5.356420e-05
-5.356420e-05
-1.926140e-05
-1.926410e-05
-5.356320e-05
-5.356330e-05
-5.356340e-05
-5.356420e-05
-8.509710e-05
-8.509220e-05
-5.356490e-05
-5.356320e-05
-8.509340e-05
-8.509540e-05
-5.356420e-05
-5.356420e-05
-8.509220e-05
-8.509730e-05
-5.356320e-05
-5.356330e-05
-8.509540e-05
-8.509320e-05
-8.509710e-05
-8.509220e-05
1.378690e-04
1.378710e-04
-8.509340e-05
-8.509540e-05
1.378700e-04
1.378700e-04
-8.509220e-05
-8.509730e-05
1.378710e-04
1.378720e-04
-8.509540e-05
-8.509320e-05
1.378700e-04
1.378720e-04
1.378690e-04
1.378710e-04
9.368770e-05
9.368560e-05
1.378700e-04
1.378700e-04
9.368740e-05
9.368800e-05
1.378710e-04
1.378720e-04
9.368560e-05
9.368480e-05
1.378700e-04
1.378720e-04
9.368800e-05
9.368720e-05
9.368770e-05
9.368560e-05
-2.147800e-05
-2.147430e-05
9.368740e-05
9.368800e-05
-2.147530e-05
-2.147460e-05
9.368560e-05
9.368480e-05
-2.147430e-05
-2.147730e-05
9.368800e-05
9.368720e-05
-2.147460e-05
-2.147390e-05
-2.147800e-05
-2.147430e-05
2.459910e-04
2.459920e-04
-2.147530e-05
-2.147460e-05
2.459900e-04
2.459910e-04
-2.147430e-05
-2.147730e-05
2.459920e-04
2.459900e-04
-2.147460e-05
-2.147390e-05
2.459910e-04
2.459910e-04
2.459910e-04
2.459920e-04
5.733670e-04
5.733700e-04
2.459900e-04
2.459910e-04
5.733680e-04
5.733700e-04
2.459920e-04
2.459900e-04
5.733700e-04
5.733670e-04
2.459910e-04
2.459910e-04
5.733700e-04
5.733680e-04
5.733670e-04
5.733700e-04
2.691340e-04
2.691370e-04
5.733680e-04
5.733700e-04
2.691350e-04
2.691370e-04
5.733700e-04
5.733670e-04
2.691370e-04
2.691350e-04
5.733700e-04
5.733680e-04
2.691370e-04
2.691370e-04
2.691340e-04
2.691370e-04
6.530020e-04
6.530040e-04
2.691350e-04
2.691370e-04
6.530030e-04
6.530040e-04
2.691370e-04
2.691350e-04
6.530040e-04
6.530030e-04
2.691370e-04
2.691370e-04
6.530040e-04
6.530030e-04
6.530020e-04
6.530040e-04
1.462990e-03
1.462990e-03
6.530030e-04
6.530040e-04
1.462990e-03
1.462990e-03
6.530040e-04
6.530030e-04
1.462990e-03
1.462990e-03
6.530040e-04
6.530030e-04
1.462990e-03
1.462990e-03
1.462990e-03
1.462990e-03
2.061300e-03
2.061300e-03
1.462990e-03
1.462990e-03
2.061300e-03
2.061300e-03
1.462990e-03
1.462990e-03
2.061300e-03
2.061300e-03
1.462990e-03
1.462990e-03
2.061300e-03
2.061300e-03
2.061300e-03
2.061300e-03
3.516740e-03
3.516740e-03
2.061300e-03
2.061300e-03
3.516740e-03
3.516740e-03
2.061300e-03
2.061300e-03
3.516740e-03
3.516740e-03
2.061300e-03
2.061300e-03
3.516740e-03
3.516740e-03
3.516740e-03
3.516740e-03
7.118010e-03
7.118010e-03
3.516740e-03
3.516740e-03
7.118010e-03
7.118010e-03
3.516740e-03
3.516740e-03
7.118010e-03
7.118010e-03
3.516740e-03
3.516740e-03
7.118010e-03
7.118010e-03
7.118010e-03
7.118010e-03
1.298910e-02
1.298910e-02
7.118010e-03
7.118010e-03
1.298910e-02
1.298910e-02
7.118010e-03
7.118010e-03
1.298910e-02
1.298910e-02
7.118010e-03
7.118010e-03
1.298910e-02
1.298910e-02
1.298910e-02
1.298910e-02
2.009680e-02
2.009680e-02
1.298910e-02
1.298910e-02
2.009680e-02
2.009680e-02
1.298910e-02
1.298910e-02
2.009680e-02
2.009680e-02
1.298910e-02
1.298910e-02
2.009680e-02
2.009680e-02
2.009680e-02
2.009680e-02
2.951560e-02
2.951560e-02
2.009680e-02
2.009680e-02
2.951560e-02
2.951560e-02
2.009680e-02
2.009680e-02
2.951560e-02
2.951560e-02
2.009680e-02
2.009680e-02
2.951560e-02
2.951560e-02
2.951560e-02
2.951560e-02
3.912820e-02
3.912820e-02
2.951560e-02
2.951560e-02
3.912820e-02
3.912820e-02
2.951560e-02
2.951560e-02
3.912820e-02
3.912820e-02
2.951560e-02
2.951560e-02
3.912820e-02
3.912820e-02
3.912820e-02
3.912820e-02
4.076510e-02
4.076510e-02
3.912820e-02
3.912820e-02
4.076510e-02
4.076510e-02
3.912820e-02
3.912820e-02
4.076510e-02
4.076510e-02
3.912820e-02
3.912820e-02
4.076510e-02
4.076510e-02
4.076510e-02
4.076510e-02
3.051400e-02
3.051400e-02
4.076510e-02
4.076510e-02
3.051400e-02
3.051400e-02
4.076510e-02
4.076510e-02
3.051400e-02
3.051400e-02
4.076510e-02
4.076510e-02
3.051400e-02
3.051400e-02
3.051400e-02
3.051400e-02
9.713560e-03
9.713560e-03
3.051400e-02
3.051400e-02
9.713560e-03
9.713560e-03
3.051400e-02
3.051400e-02
9.713560e-03
9.713560e-03
3.051400e-02
3.051400e-02
9.713560e-03
9.713560e-03
9.713560e-03
9.713560e-03
-1.094380e-02
-1.094380e-02
9.713560e-03
9.713560e-03
-1.094380e-02
-1.094380e-02
9.713560e-03
9.713560e-03
-1.094380e-02
-1.094380e-02
9.713560e-03
9.713560e-03
-1.094380e-02
-1.094380e-02
-1.094380e-02
-1.094380e-02
-1.280140e-02
-1.280140e-02
-1.094380e-02
-1.094380e-02
-1.280140e-02
-1.280140e-02
-1.094380e-02
-1.094380e-02
-1.280140e-02
-1.280140e-02
-1.094380e-02
-1.094380e-02
-1.280140e-02
-1.280140e-02
-1.280140e-02
-1.280140e-02
-4.193290e-03
-4.193290e-03
-1.280140e-02
-1.280140e-02
-4.193290e-03
-4.193290e-03
-1.280140e-02
-1.280140e-02
-4.193290e-03
-4.193290e-03
-1.280140e-02
-1.280140e-02
-4.193290e-03
-4.193290e-03
-4.193290e-03
-4.193290e-03
5.523990e-03
5.523990e-03
-4.193290e-03
-4.193290e-03
5.523990e-03
5.523990e-03
-4.193290e-03
-4.193290e-03
5.523990e-03
5.523990e-03
-4.193290e-03
-4.193290e-03
5.523990e-03
5.523990e-03
5.523990e-03
5.523990e-03
3.237120e-03
3.237120e-03
5.523990e-03
5.523990e-03
3.237120e-03
3.237120e-03
5.523990e-03
5.523990e-03
3.237120e-03
3.237120e-03
5.523990e-03
5.523990e-03
3.237120e-03
3.237120e-03
3.237120e-03
3.237120e-03
-6.004480e-04
-6.004490e-04
3.237120e-03
3.237120e-03
-6.004480e-04
-6.004480e-04
3.237120e-03
3.237120e-03
-6.004490e-04
-6.004490e-04
3.237120e-03
3.237120e-03
-6.004480e-04
-6.004480e-04
-6.004480e-04
-6.004490e-04
-2.453580e-04
-2.453590e-04
-6.004480e-04
-6.004480e-04
-2.453580e-04
-2.453580e-04
-6.004490e-04
-6.004490e-04
-2.453590e-04
-2.453580e-04
-6.004480e-04
-6.004480e-04
-2.453580e-04
-2.453590e-04
-2.453580e-04
-2.453590e-04
3.465490e-05
3.465480e-05
-2.453580e-04
-2.453580e-04
3.465500e-05
3.465490e-05
-2.453590e-04
-2.453580e-04
3.465480e-05
3.465500e-05
-2.453580e-04
-2.453590e-04
3.465490e-05
3.465490e-05
3.465490e-05
3.465480e-05
-5.656930e-06
-5.656810e-06
3.465500e-05
3.465490e-05
-5.656810e-06
-5.656930e-06
3.465480e-05
3.465500e-05
-5.656810e-06
-5.656810e-06
3.465490e-05
3.465490e-05
-5.656930e-06
-5.656930e-06
0.000000e+00
0.000000e+00
-1.926330e-05
-1.926140e-05
0.000000e+00
0.000000e+00
-1.926380e-05
-1.926480e-05
0.000000e+00
0.000000e+00
-1.926140e-05
-1.926410e-05
0.000000e+00
0.000000e+00
-1.926480e-05
-1.926660e-05
-1.926330e-05
-1.926140e-05
-5.356490e-05
-5.356320e-05
-1.926380e-05
-1.926480e-05
-5.356260e-05
-5.356410e-05
-1.926140e-05
-1.926410e-05
-5.356320e-05
-5.356330e-05
-1.926480e-05
-1.926660e-05
-5.356410e-05
-5.356210e-05
-5.356490e-05
-5.356320e-05
-8.509340e-05
-8.509540e-05
-5.356260e-05
-5.356410e-05
-8.509630e-05