<?xml version="1.0"?>
<!-- time 76.2408-->
<VTKFile type="UnstructuredGrid" version="0.1" byte_order="LittleEndian">
<UnstructuredGrid>
<Piece NumberOfPoints="960" NumberOfCells="0">
<Points>
  <DataArray type="Float32" Name="Position" NumberOfComponents="3" format="ascii">
	-300 2099.63 -300
	-300 2099.63 -100
	-300 2099.63 100
	-300 2099.63 300
	-100 2099.63 -300
	-100 2099.63 -100
	-100 2099.63 100
	-100 2099.63 300
	100 2099.63 -300
	100 2099.63 -100
	100 2099.63 100
	100 2099.63 300
	300 2099.63 -300
	300 2099.63 -100
	300 2099.63 100
	300 2099.63 300
	-300 2299.67 -300
	-300 2299.67 -100
	-300 2299.67 100
	-300 2299.67 300
	-100 2299.67 -300
	-100 2299.67 -100
	-100 2299.67 100
	-100 2299.67 300
	100 2299.67 -300
	100 2299.67 -100
	100 2299.67 100
	100 2299.67 300
	300 2299.67 -300
	300 2299.67 -100
	300 2299.67 100
	300 2299.67 300
	-300 2499.67 -300
	-300 2499.67 -100
	-300 2499.67 100
	-300 2499.67 300
	-100 2499.67 -300
	-100 2499.67 -100
	-100 2499.67 100
	-100 2499.67 300
	100 2499.67 -300
	100 2499.67 -100
	100 2499.67 100
	100 2499.67 300
	300 2499.67 -300
	300 2499.67 -100
	300 2499.67 100
	300 2499.67 300
	-300 2699.67 -300
	-300 2699.67 -100
	-300 2699.67 100
	-300 2699.67 300
	-100 2699.67 -300
	-100 2699.67 -100
	-100 2699.67 100
	-100 2699.67 300
	100 2699.67 -300
	100 2699.67 -100
	100 2699.67 100
	100 2699.67 300
	300 2699.67 -300
	300 2699.67 -100
	300 2699.67 100
	300 2699.67 300
	-300 2899.67 -300
	-300 2899.67 -100
	-300 2899.67 100
	-300 2899.67 300
	-100 2899.67 -300
	-100 2899.67 -100
	-100 2899.67 100
	-100 2899.67 300
	100 2899.67 -300
	100 2899.67 -100
	100 2899.67 100
	100 2899.67 300
	300 2899.67 -300
	300 2899.67 -100
	300 2899.67 100
	300 2899.67 300
	-300 3099.67 -300
	-300 3099.67 -100
	-300 3099.67 100
	-300 3099.67 300
	-100 3099.67 -300
	-100 3099.67 -100
	-100 3099.67 100
	-100 3099.67 300
	100 3099.67 -300
	100 3099.67 -100
	100 3099.67 100
	100 3099.67 300
	300 3099.67 -300
	300 3099.67 -100
	300 3099.67 100
	300 3099.67 300
	-300 3299.67 -300
	-300 3299.67 -100
	-300 3299.67 100
	-300 3299.67 300
	-100 3299.67 -300
	-100 3299.67 -100
	-100 3299.67 100
	-100 3299.67 300
	100 3299.67 -300
	100 3299.67 -100
	100 3299.67 100
	100 3299.67 300
	300 3299.67 -300
	300 3299.67 -100
	300 3299.67 100
	300 3299.67 300
	-300 3499.67 -300
	-300 3499.67 -100
	-300 3499.67 100
	-300 3499.67 300
	-100 3499.67 -300
	-100 3499.67 -100
	-100 3499.67 100
	-100 3499.67 300
	100 3499.67 -300
	100 3499.67 -100
	100 3499.67 100
	100 3499.67 300
	300 3499.67 -300
	300 3499.67 -100
	300 3499.67 100
	300 3499.67 300
	-300 3699.67 -300
	-300 3699.67 -100
	-300 3699.67 100
	-300 3699.67 300
	-100 3699.67 -300
	-100 3699.67 -100
	-100 3699.67 100
	-100 3699.67 300
	100 3699.67 -300
	100 3699.67 -100
	100 3699.67 100
	100 3699.67 300
	300 3699.67 -300
	300 3699.67 -100
	300 3699.67 100
	300 3699.67 300
	-300 3899.67 -300
	-300 3899.67 -100
	-300 3899.67 100
	-300 3899.67 300
	-100 3899.67 -300
	-100 3899.67 -100
	-100 3899.67 100
	-100 3899.67 300
	100 3899.67 -300
	100 3899.67 -100
	100 3899.67 100
	100 3899.67 300
	300 3899.67 -300
	300 3899.67 -100
	300 3899.67 100
	300 3899.67 300
	-300 4099.67 -300
	-300 4099.67 -100
	-300 4099.67 100
	-300 4099.67 300
	-100 4099.67 -300
	-100 4099.67 -100
	-100 4099.67 100
	-100 4099.67 300
	100 4099.67 -300
	100 4099.67 -100
	100 4099.67 100
	100 4099.67 300
	300 4099.67 -300
	300 4099.67 -100
	300 4099.67 100
	300 4099.67 300
	-300 4299.67 -300
	-300 4299.67 -100
	-300 4299.67 100
	-300 4299.67 300
	-100 4299.67 -300
	-100 4299.67 -100
	-100 4299.67 100
	-100 4299.67 300
	100 4299.67 -300
	100 4299.67 -100
	100 4299.67 100
	100 4299.67 300
	300 4299.67 -300
	300 4299.67 -100
	300 4299.67 100
	300 4299.67 300
	-300 4499.67 -300
	-300 4499.67 -100
	-300 4499.67 100
	-300 4499.67 300
	-100 4499.67 -300
	-100 4499.67 -100
	-100 4499.67 100
	-100 4499.67 300
	100 4499.67 -300
	100 4499.67 -100
	100 4499.67 100
	100 4499.67 300
	300 4499.67 -300
	300 4499.67 -100
	300 4499.67 100
	300 4499.67 300
	-300 4699.67 -300
	-300 4699.67 -100
	-300 4699.67 100
	-300 4699.67 300
	-100 4699.67 -300
	-100 4699.67 -100
	-100 4699.67 100
	-100 4699.67 300
	100 4699.67 -300
	100 4699.67 -100
	100 4699.67 100
	100 4699.67 300
	300 4699.67 -300
	300 4699.67 -100
	300 4699.67 100
	300 4699.67 300
	-300 4899.67 -300
	-300 4899.67 -100
	-300 4899.67 100
	-300 4899.67 300
	-100 4899.67 -300
	-100 4899.67 -100
	-100 4899.67 100
	-100 4899.67 300
	100 4899.67 -300
	100 4899.67 -100
	100 4899.67 100
	100 4899.67 300
	300 4899.67 -300
	300 4899.67 -100
	300 4899.67 100
	300 4899.67 300
	-300 5099.67 -300
	-300 5099.67 -100
	-300 5099.67 100
	-300 5099.67 300
	-100 5099.67 -300
	-100 5099.67 -100
	-100 5099.67 100
	-100 5099.67 300
	100 5099.67 -300
	100 5099.67 -100
	100 5099.67 100
	100 5099.67 300
	300 5099.67 -300
	300 5099.67 -100
	300 5099.67 100
	300 5099.67 300
	-300 5299.67 -300
	-300 5299.67 -100
	-300 5299.67 100
	-300 5299.67 300
	-100 5299.67 -300
	-100 5299.67 -100
	-100 5299.67 100
	-100 5299.67 300
	100 5299.67 -300
	100 5299.67 -100
	100 5299.67 100
	100 5299.67 300
	300 5299.67 -300
	300 5299.67 -100
	300 5299.67 100
	300 5299.67 300
	-300 5499.68 -300
	-300 5499.68 -100
	-300 5499.68 100
	-300 5499.68 300
	-100 5499.68 -300
	-100 5499.68 -100
	-100 5499.68 100
	-100 5499.68 300
	100 5499.68 -300
	100 5499.68 -100
	100 5499.68 100
	100 5499.68 300
	300 5499.68 -300
	300 5499.68 -100
	300 5499.68 100
	300 5499.68 300
	-300 5699.68 -300
	-300 5699.68 -100
	-300 5699.68 100
	-300 5699.68 300
	-100 5699.68 -300
	-100 5699.68 -100
	-100 5699.68 100
	-100 5699.68 300
	100 5699.68 -300
	100 5699.68 -100
	100 5699.68 100
	100 5699.68 300
	300 5699.68 -300
	300 5699.68 -100
	300 5699.68 100
	300 5699.68 300
	-300 5899.68 -300
	-300 5899.68 -100
	-300 5899.68 100
	-300 5899.68 300
	-100 5899.68 -300
	-100 5899.68 -100
	-100 5899.68 100
	-100 5899.68 300
	100 5899.68 -300
	100 5899.68 -100
	100 5899.68 100
	100 5899.68 300
	300 5899.68 -300
	300 5899.68 -100
	300 5899.68 100
	300 5899.68 300
	-300 6099.72 -300
	-300 6099.72 -100
	-300 6099.72 100
	-300 6099.72 300
	-100 6099.72 -300
	-100 6099.72 -100
	-100 6099.72 100
	-100 6099.72 300
	100 6099.72 -300
	100 6099.72 -100
	100 6099.72 100
	100 6099.72 300
	300 6099.72 -300
	300 6099.72 -100
	300 6099.72 100
	300 6099.72 300
	-300 6299.74 -300
	-300 6299.74 -100
	-300 6299.74 100
	-300 6299.74 300
	-100 6299.74 -300
	-100 6299.74 -100
	-100 6299.74 100
	-100 6299.74 300
	100 6299.74 -300
	100 6299.74 -100
	100 6299.74 100
	100 6299.74 300
	300 6299.74 -300
	300 6299.74 -100
	300 6299.74 100
	300 6299.74 300
	-300 6499.78 -300
	-300 6499.78 -100
	-300 6499.78 100
	-300 6499.78 300
	-100 6499.78 -300
	-100 6499.78 -100
	-100 6499.78 100
	-100 6499.78 300
	100 6499.78 -300
	100 6499.78 -100
	100 6499.78 100
	100 6499.78 300
	300 6499.78 -300
	300 6499.78 -100
	300 6499.78 100
	300 6499.78 300
	-300 6699.79 -300
	-300 6699.79 -100
	-300 6699.79 100
	-300 6699.79 300
	-100 6699.79 -300
	-100 6699.79 -100
	-100 6699.79 100
	-100 6699.79 300
	100 6699.79 -300
	100 6699.79 -100
	100 6699.79 100
	100 6699.79 300
	300 6699.79 -300
	300 6699.79 -100
	300 6699.79 100
	300 6699.79 300
	-300 6899.82 -300
	-300 6899.82 -100
	-300 6899.82 100
	-300 6899.82 300
	-100 6899.82 -300
	-100 6899.82 -100
	-100 6899.82 100
	-100 6899.82 300
	100 6899.82 -300
	100 6899.82 -100
	100 6899.82 100
	100 6899.82 300
	300 6899.82 -300
	300 6899.82 -100
	300 6899.82 100
	300 6899.82 300
	-300 7099.82 -300
	-300 7099.82 -100
	-300 7099.82 100
	-300 7099.82 300
	-100 7099.82 -300
	-100 7099.82 -100
	-100 7099.82 100
	-100 7099.82 300
	100 7099.82 -300
	100 7099.82 -100
	100 7099.82 100
	100 7099.82 300
	300 7099.82 -300
	300 7099.82 -100
	300 7099.82 100
	300 7099.82 300
	-300 7299.83 -300
	-300 7299.83 -100
	-300 7299.83 100
	-300 7299.83 300
	-100 7299.83 -300
	-100 7299.83 -100
	-100 7299.83 100
	-100 7299.83 300
	100 7299.83 -300
	100 7299.83 -100
	100 7299.83 100
	100 7299.83 300
	300 7299.83 -300
	300 7299.83 -100
	300 7299.83 100
	300 7299.83 300
	-300 7499.83 -300
	-300 7499.83 -100
	-300 7499.83 100
	-300 7499.83 300
	-100 7499.83 -300
	-100 7499.83 -100
	-100 7499.83 100
	-100 7499.83 300
	100 7499.83 -300
	100 7499.83 -100
	100 7499.83 100
	100 7499.83 300
	300 7499.83 -300
	300 7499.83 -100
	300 7499.83 100
	300 7499.83 300
	-300 7699.84 -300
	-300 7699.84 -100
	-300 7699.84 100
	-300 7699.84 300
	-100 7699.84 -300
	-100 7699.84 -100
	-100 7699.84 100
	-100 7699.84 300
	100 7699.84 -300
	100 7699.84 -100
	100 7699.84 100
	100 7699.84 300
	300 7699.84 -300
	300 7699.84 -100
	300 7699.84 100
	300 7699.84 300
	-300 7899.84 -300
	-300 7899.84 -100
	-300 7899.84 100
	-300 7899.84 300
	-100 7899.84 -300
	-100 7899.84 -100
	-100 7899.84 100
	-100 7899.84 300
	100 7899.84 -300
	100 7899.84 -100
	100 7899.84 100
	100 7899.84 300
	300 7899.84 -300
	300 7899.84 -100
	300 7899.84 100
	300 7899.84 300
	-300 8099.85 -300
	-300 8099.85 -100
	-300 8099.85 100
	-300 8099.85 300
	-100 8099.85 -300
	-100 8099.85 -100
	-100 8099.85 100
	-100 8099.85 300
	100 8099.85 -300
	100 8099.85 -100
	100 8099.85 100
	100 8099.85 300
	300 8099.85 -300
	300 8099.85 -100
	300 8099.85 100
	300 8099.85 300
	-300 8299.85 -300
	-300 8299.85 -100
	-300 8299.85 100
	-300 8299.85 300
	-100 8299.85 -300
	-100 8299.85 -100
	-100 8299.85 100
	-100 8299.85 300
	100 8299.85 -300
	100 8299.85 -100
	100 8299.85 100
	100 8299.85 300
	300 8299.85 -300
	300 8299.85 -100
	300 8299.85 100
	300 8299.85 300
	-300 8499.86 -300
	-300 8499.86 -100
	-300 8499.86 100
	-300 8499.86 300
	-100 8499.86 -300
	-100 8499.86 -100
	-100 8499.86 100
	-100 8499.86 300
	100 8499.86 -300
	100 8499.86 -100
	100 8499.86 100
	100 8499.86 300
	300 8499.86 -300
	300 8499.86 -100
	300 8499.86 100
	300 8499.86 300
	-300 8699.87 -300
	-300 8699.87 -100
	-300 8699.87 100
	-300 8699.87 300
	-100 8699.87 -300
	-100 8699.87 -100
	-100 8699.87 100
	-100 8699.87 300
	100 8699.87 -300
	100 8699.87 -100
	100 8699.87 100
	100 8699.87 300
	300 8699.87 -300
	300 8699.87 -100
	300 8699.87 100
	300 8699.87 300
	-300 8899.87 -300
	-300 8899.87 -100
	-300 8899.87 100
	-300 8899.87 300
	-100 8899.87 -300
	-100 8899.87 -100
	-100 8899.87 100
	-100 8899.87 300
	100 8899.87 -300
	100 8899.87 -100
	100 8899.87 100
	100 8899.87 300
	300 8899.87 -300
	300 8899.87 -100
	300 8899.87 100
	300 8899.87 300
	-300 9099.88 -300
	-300 9099.88 -100
	-300 9099.88 100
	-300 9099.88 300
	-100 9099.88 -300
	-100 9099.88 -100
	-100 9099.88 100
	-100 9099.88 300
	100 9099.88 -300
	100 9099.88 -100
	100 9099.88 100
	100 9099.88 300
	300 9099.88 -300
	300 9099.88 -100
	300 9099.88 100
	300 9099.88 300
	-300 9299.88 -300
	-300 9299.88 -100
	-300 9299.88 100
	-300 9299.88 300
	-100 9299.88 -300
	-100 9299.88 -100
	-100 9299.88 100
	-100 9299.88 300
	100 9299.88 -300
	100 9299.88 -100
	100 9299.88 100
	100 9299.88 300
	300 9299.88 -300
	300 9299.88 -100
	300 9299.88 100
	300 9299.88 300
	-300 9499.88 -300
	-300 9499.88 -100
	-300 9499.88 100
	-300 9499.88 300
	-100 9499.88 -300
	-100 9499.88 -100
	-100 9499.88 100
	-100 9499.88 300
	100 9499.88 -300
	100 9499.88 -100
	100 9499.88 100
	100 9499.88 300
	300 9499.88 -300
	300 9499.88 -100
	300 9499.88 100
	300 9499.88 300
	-300 9699.89 -300
	-300 9699.89 -100
	-300 9699.89 100
	-300 9699.89 300
	-100 9699.89 -300
	-100 9699.89 -100
	-100 9699.89 100
	-100 9699.89 300
	100 9699.89 -300
	100 9699.89 -100
	100 9699.89 100
	100 9699.89 300
	300 9699.89 -300
	300 9699.89 -100
	300 9699.89 100
	300 9699.89 300
	-300 9899.9 -300
	-300 9899.9 -100
	-300 9899.9 100
	-300 9899.9 300
	-100 9899.9 -300
	-100 9899.9 -100
	-100 9899.9 100
	-100 9899.9 300
	100 9899.9 -300
	100 9899.9 -100
	100 9899.9 100
	100 9899.9 300
	300 9899.9 -300
	300 9899.9 -100
	300 9899.9 100
	300 9899.9 300
	-300 10099.9 -300
	-300 10099.9 -100
	-300 10099.9 100
	-300 10099.9 300
	-100 10099.9 -300
	-100 10099.9 -100
	-100 10099.9 100
	-100 10099.9 300
	100 10099.9 -300
	100 10099.9 -100
	100 10099.9 100
	100 10099.9 300
	300 10099.9 -300
	300 10099.9 -100
	300 10099.9 100
	300 10099.9 300
	-300 10299.9 -300
	-300 10299.9 -100
	-300 10299.9 100
	-300 10299.9 300
	-100 10299.9 -300
	-100 10299.9 -100
	-100 10299.9 100
	-100 10299.9 300
	100 10299.9 -300
	100 10299.9 -100
	100 10299.9 100
	100 10299.9 300
	300 10299.9 -300
	300 10299.9 -100
	300 10299.9 100
	300 10299.9 300
	-300 10499.9 -300
	-300 10499.9 -100
	-300 10499.9 100
	-300 10499.9 300
	-100 10499.9 -300
	-100 10499.9 -100
	-100 10499.9 100
	-100 10499.9 300
	100 10499.9 -300
	100 10499.9 -100
	100 10499.9 100
	100 10499.9 300
	300 10499.9 -300
	300 10499.9 -100
	300 10499.9 100
	300 10499.9 300
	-300 10699.9 -300
	-300 10699.9 -100
	-300 10699.9 100
	-300 10699.9 300
	-100 10699.9 -300
	-100 10699.9 -100
	-100 10699.9 100
	-100 10699.9 300
	100 10699.9 -300
	100 10699.9 -100
	100 10699.9 100
	100 10699.9 300
	300 10699.9 -300
	300 10699.9 -100
	300 10699.9 100
	300 10699.9 300
	-300 10900 -300
	-300 10900 -100
	-300 10900 100
	-300 10900 300
	-100 10900 -300
	-100 10900 -100
	-100 10900 100
	-100 10900 300
	100 10900 -300
	100 10900 -100
	100 10900 100
	100 10900 300
	300 10900 -300
	300 10900 -100
	300 10900 100
	300 10900 300
	-300 11100 -300
	-300 11100 -100
	-300 11100 100
	-300 11100 300
	-100 11100 -300
	-100 11100 -100
	-100 11100 100
	-100 11100 300
	100 11100 -300
	100 11100 -100
	100 11100 100
	100 11100 300
	300 11100 -300
	300 11100 -100
	300 11100 100
	300 11100 300
	-300 11300 -300
	-300 11300 -100
	-300 11300 100
	-300 11300 300
	-100 11300 -300
	-100 11300 -100
	-100 11300 100
	-100 11300 300
	100 11300 -300
	100 11300 -100
	100 11300 100
	100 11300 300
	300 11300 -300
	300 11300 -100
	300 11300 100
	300 11300 300
	-300 11500 -300
	-300 11500 -100
	-300 11500 100
	-300 11500 300
	-100 11500 -300
	-100 11500 -100
	-100 11500 100
	-100 11500 300
	100 11500 -300
	100 11500 -100
	100 11500 100
	100 11500 300
	300 11500 -300
	300 11500 -100
	300 11500 100
	300 11500 300
	-300 11700 -300
	-300 11700 -100
	-300 11700 100
	-300 11700 300
	-100 11700 -300
	-100 11700 -100
	-100 11700 100
	-100 11700 300
	100 11700 -300
	100 11700 -100
	100 11700 100
	100 11700 300
	300 11700 -300
	300 11700 -100
	300 11700 100
	300 11700 300
	-300 11900 -300
	-300 11900 -100
	-300 11900 100
	-300 11900 300
	-100 11900 -300
	-100 11900 -100
	-100 11900 100
	-100 11900 300
	100 11900 -300
	100 11900 -100
	100 11900 100
	100 11900 300
	300 11900 -300
	300 11900 -100
	300 11900 100
	300 11900 300
	-300 12100.1 -300
	-300 12100.1 -100
	-300 12100.1 100
	-300 12100.1 300
	-100 12100.1 -300
	-100 12100.1 -100
	-100 12100.1 100
	-100 12100.1 300
	100 12100.1 -300
	100 12100.1 -100
	100 12100.1 100
	100 12100.1 300
	300 12100.1 -300
	300 12100.1 -100
	300 12100.1 100
	300 12100.1 300
	-300 12300.1 -300
	-300 12300.1 -100
	-300 12300.1 100
	-300 12300.1 300
	-100 12300.1 -300
	-100 12300.1 -100
	-100 12300.1 100
	-100 12300.1 300
	100 12300.1 -300
	100 12300.1 -100
	100 12300.1 100
	100 12300.1 300
	300 12300.1 -300
	300 12300.1 -100
	300 12300.1 100
	300 12300.1 300
	-300 12500.1 -300
	-300 12500.1 -100
	-300 12500.1 100
	-300 12500.1 300
	-100 12500.1 -300
	-100 12500.1 -100
	-100 12500.1 100
	-100 12500.1 300
	100 12500.1 -300
	100 12500.1 -100
	100 12500.1 100
	100 12500.1 300
	300 12500.1 -300
	300 12500.1 -100
	300 12500.1 100
	300 12500.1 300
	-300 12700.2 -300
	-300 12700.2 -100
	-300 12700.2 100
	-300 12700.2 300
	-100 12700.2 -300
	-100 12700.2 -100
	-100 12700.2 100
	-100 12700.2 300
	100 12700.2 -300
	100 12700.2 -100
	100 12700.2 100
	100 12700.2 300
	300 12700.2 -300
	300 12700.2 -100
	300 12700.2 100
	300 12700.2 300
	-300 12900.2 -300
	-300 12900.2 -100
	-300 12900.2 100
	-300 12900.2 300
	-100 12900.2 -300
	-100 12900.2 -100
	-100 12900.2 100
	-100 12900.2 300
	100 12900.2 -300
	100 12900.2 -100
	100 12900.2 100
	100 12900.2 300
	300 12900.2 -300
	300 12900.2 -100
	300 12900.2 100
	300 12900.2 300
	-300 13100.3 -300
	-300 13100.3 -100
	-300 13100.3 100
	-300 13100.3 300
	-100 13100.3 -300
	-100 13100.3 -100
	-100 13100.3 100
	-100 13100.3 300
	100 13100.3 -300
	100 13100.3 -100
	100 13100.3 100
	100 13100.3 300
	300 13100.3 -300
	300 13100.3 -100
	300 13100.3 100
	300 13100.3 300
	-300 13300.4 -300
	-300 13300.4 -100
	-300 13300.4 100
	-300 13300.4 300
	-100 13300.4 -300
	-100 13300.4 -100
	-100 13300.4 100
	-100 13300.4 300
	100 13300.4 -300
	100 13300.4 -100
	100 13300.4 100
	100 13300.4 300
	300 13300.4 -300
	300 13300.4 -100
	300 13300.4 100
	300 13300.4 300
	-300 13500.6 -300
	-300 13500.6 -100
	-300 13500.6 100
	-300 13500.6 300
	-100 13500.6 -300
	-100 13500.6 -100
	-100 13500.6 100
	-100 13500.6 300
	100 13500.6 -300
	100 13500.6 -100
	100 13500.6 100
	100 13500.6 300
	300 13500.6 -300
	300 13500.6 -100
	300 13500.6 100
	300 13500.6 300
	-300 13700.9 -300
	-300 13700.9 -100
	-300 13700.9 100
	-300 13700.9 300
	-100 13700.9 -300
	-100 13700.9 -100
	-100 13700.9 100
	-100 13700.9 300
	100 13700.9 -300
	100 13700.9 -100
	100 13700.9 100
	100 13700.9 300
	300 13700.9 -300
	300 13700.9 -100
	300 13700.9 100
	300 13700.9 300
	-300 13901.8 -300
	-300 13901.8 -100
	-300 13901.8 100
	-300 13901.8 300
	-100 13901.8 -300
	-100 13901.8 -100
	-100 13901.8 100
	-100 13901.8 300
	100 13901.8 -300
	100 13901.8 -100
	100 13901.8 100
	100 13901.8 300
	300 13901.8 -300
	300 13901.8 -100
	300 13901.8 100
	300 13901.8 300
  </DataArray>
</Points>
<PointData  Vectors="vector">
  <DataArray type="Float32" Name="Velocity" NumberOfComponents="3" format="ascii">
 1.84293e-12 -0.000485469 -1.56322e-10
 1.41939e-11 -0.000485469 -6.27872e-11
 6.13049e-12 -0.000485469 -1.14709e-11
 -3.0871e-12 -0.000485469 6.60614e-12
 -1.56137e-11 -0.000485469 -1.03788e-10
 1.23065e-11 -0.000485469 -1.75629e-11
 8.64683e-12 -0.000485469 -2.53875e-11
 9.08385e-12 -0.000485469 -4.75625e-12
 -2.02083e-11 -0.000485469 -7.2936e-11
 1.56126e-11 -0.000485469 -2.80809e-11
 5.79899e-12 -0.000485469 -2.96226e-12
 7.37703e-12 -0.000485469 1.19264e-11
 -4.71289e-11 -0.000485469 5.44302e-12
 -1.97425e-12 -0.000485469 2.17304e-11
 7.77263e-13 -0.000485469 1.67595e-11
 9.38049e-12 -0.000485469 4.97884e-12
 2.66984e-13 -0.000621773 -1.19898e-11
 -2.73201e-12 -0.000621774 -2.33961e-11
 -6.63587e-12 -0.000621773 -3.26309e-11
 4.57099e-13 -0.000621774 5.62364e-12
 -2.16314e-11 -0.000621774 -2.40479e-11
 -1.06288e-11 -0.000621773 1.79415e-13
 -1.15574e-11 -0.000621773 -9.20372e-12
 -7.93474e-12 -0.000621774 5.48007e-12
 -1.95712e-11 -0.000621774 -4.19065e-12
 -3.01464e-12 -0.000621774 -1.09191e-11
 -9.68306e-12 -0.000621773 -2.75443e-11
 -7.95661e-12 -0.000621774 6.8981e-12
 -1.01497e-11 -0.000621774 7.97688e-12
 2.88425e-12 -0.000621773 3.22439e-12
 -4.59367e-12 -0.000621774 -4.88396e-12
 -5.57948e-12 -0.000621774 8.3043e-12
 -4.57695e-12 -0.000638304 -2.63155e-11
 -8.06814e-12 -0.000638304 -1.96258e-11
 -5.03959e-12 -0.000638304 -8.44665e-12
 -2.6421e-12 -0.000638303 -1.50783e-11
 -2.58154e-11 -0.000638303 -3.78066e-12
 -2.35513e-11 -0.000638304 -2.68968e-11
 -1.32362e-11 -0.000638304 -2.91129e-11
 -9.21502e-12 -0.000638303 -1.39419e-11
 -2.30175e-11 -0.000638303 -2.52739e-11
 -1.7423e-11 -0.000638304 -1.92953e-11
 -1.20441e-11 -0.000638304 -9.93346e-12
 -1.1698e-11 -0.000638302 -9.32893e-12
 -6.44887e-12 -0.000638302 -3.77599e-12
 1.4217e-12 -0.000638305 -1.47125e-11
 -5.89233e-12 -0.000638304 -3.79435e-11
 2.95523e-13 -0.000638305 3.00419e-12
 -1.65632e-12 -0.000593851 9.80097e-13
 5.41367e-13 -0.000593851 1.391e-11
 3.76069e-14 -0.000593851 2.11186e-11
 -4.08141e-12 -0.000593852 -5.35127e-12
 -1.13504e-12 -0.000593852 -6.26795e-12
 -2.73473e-13 -0.000593851 1.26686e-11
 -1.26086e-12 -0.000593852 2.30447e-11
 6.33492e-14 -0.000593852 -5.32357e-12
 5.14696e-12 -0.000593852 7.05826e-12
 8.48911e-13 -0.000593851 7.47617e-12
 -1.66848e-12 -0.000593851 1.47591e-11
 -1.99211e-12 -0.000593852 -5.5499e-12
 -3.15212e-12 -0.000593852 -6.67476e-12
 -1.93073e-12 -0.000593851 1.3878e-11
 -7.06981e-13 -0.000593852 1.91606e-11
 -7.41522e-13 -0.000593852 -2.5747e-12
 1.12233e-12 -0.000632892 -6.39333e-13
 -4.74218e-12 -0.000632892 2.46983e-11
 -6.20171e-12 -0.000632892 2.40724e-11
 1.93178e-12 -0.000632893 1.3905e-12
 2.86288e-12 -0.000632893 4.91106e-12
 3.39392e-12 -0.000632893 1.93926e-11
 1.95223e-12 -0.000632892 1.95108e-11
 -2.34732e-12 -0.000632893 2.36976e-12
 4.55871e-12 -0.000632892 -7.46884e-12
 8.61691e-12 -0.000632892 2.07651e-11
 5.46513e-12 -0.000632892 2.76415e-11
 -6.19076e-12 -0.000632892 -2.00887e-13
 -8.82056e-13 -0.000632893 -3.21406e-12
 -1.05304e-12 -0.000632893 1.90581e-11
 -2.95318e-13 -0.000632893 2.30202e-11
 3.71573e-12 -0.000632893 4.92817e-13
 -2.93872e-12 -0.000638139 1.4077e-12
 8.73792e-13 -0.000638139 9.08448e-12
 3.30992e-13 -0.000638139 8.85219e-12
 -4.75409e-12 -0.000638139 -1.7643e-12
 4.48651e-12 -0.000638138 -2.99108e-12
 3.7226e-12 -0.000638138 1.07054e-11
 5.70288e-12 -0.000638138 1.2571e-11
 6.1705e-12 -0.000638138 1.00899e-12
 4.32496e-12 -0.000638139 -3.73346e-12
 3.04125e-12 -0.000638139 1.26356e-11
 6.95028e-12 -0.000638139 1.42398e-11
 1.05251e-11 -0.000638139 -4.1931e-13
 -2.78931e-12 -0.000638138 2.16014e-12
 -4.79778e-13 -0.000638137 1.3867e-11
 -4.2364e-12 -0.000638137 1.28263e-11
 1.01208e-12 -0.000638137 -1.30192e-12
 -2.454e-12 -0.0005856 -8.23306e-13
 1.09203e-12 -0.0005856 4.43653e-12
 -1.6258e-12 -0.0005856 4.3966e-12
 1.20411e-12 -0.0005856 2.68195e-12
 9.53374e-13 -0.000585599 3.80538e-12
 1.38394e-12 -0.0005856 4.8627e-12
 4.20227e-12 -0.0005856 5.22805e-12
 6.25086e-12 -0.0005856 2.23263e-12
 2.94042e-12 -0.0005856 3.13375e-12
 2.0979e-12 -0.0005856 7.29182e-12
 6.67719e-12 -0.0005856 8.3822e-12
 4.5104e-12 -0.0005856 1.80306e-12
 -2.1945e-12 -0.0005856 4.98669e-13
 -8.11741e-13 -0.0005856 1.15712e-11
 -1.04236e-12 -0.000585599 9.08077e-12
 2.68029e-12 -0.0005856 5.19103e-12
 -3.00842e-12 -0.000568227 -1.32088e-12
 -1.17379e-12 -0.000568227 -5.80399e-12
 -2.23082e-12 -0.000568228 -6.95293e-12
 1.39526e-13 -0.000568228 -2.48687e-12
 -1.00255e-12 -0.000568229 -3.76019e-12
 -2.271e-12 -0.000568229 -4.56216e-12
 -1.51149e-12 -0.000568229 -2.09061e-12
 3.3523e-12 -0.000568228 -2.26818e-12
 -2.8007e-12 -0.000568228 -1.19809e-12
 1.67896e-14 -0.000568228 -2.94575e-12
 6.46884e-14 -0.000568228 -3.49956e-12
 2.91673e-12 -0.000568227 -1.84928e-12
 1.93357e-13 -0.000568229 -3.5386e-13
 -6.80034e-13 -0.000568229 -2.41224e-12
 2.71967e-12 -0.000568229 -1.21786e-12
 -1.25919e-12 -0.000568228 -6.48735e-13
 8.44951e-14 -0.000488741 -3.3304e-12
 -6.89866e-13 -0.00048874 -7.24683e-12
 -1.89388e-12 -0.00048874 -9.54599e-12
 2.14214e-12 -0.000488741 -2.34493e-13
 -5.78082e-13 -0.000488741 -1.53131e-12
 -9.66995e-13 -0.00048874 -7.60503e-12
 4.03648e-13 -0.00048874 -9.2074e-12
 1.22074e-12 -0.00048874 -7.03228e-13
 -4.67505e-13 -0.000488741 -2.24757e-12
 -1.44125e-12 -0.000488741 -6.45094e-12
 5.50611e-13 -0.000488741 -8.30059e-12
 2.13016e-13 -0.000488741 1.66412e-13
 -1.30199e-12 -0.000488741 -1.21813e-13
 1.61262e-12 -0.00048874 -5.32256e-12
 1.64321e-12 -0.000488741 -6.36179e-12
 5.41218e-13 -0.00048874 -2.06094e-12
 -4.2883e-13 -0.00031345 -9.014e-13
 -3.31212e-13 -0.00031345 -4.35748e-12
 1.01975e-13 -0.00031345 -4.77519e-12
 -1.48648e-13 -0.00031345 -1.22217e-12
 -4.93927e-12 -0.000313449 -2.45893e-12
 -2.95783e-12 -0.000313449 -5.00366e-12
 -2.90198e-12 -0.000313449 -3.83485e-12
 -6.68408e-12 -0.00031345 -2.0629e-12
 -2.73336e-12 -0.00031345 -1.88689e-12
 -3.5919e-12 -0.00031345 -6.07418e-12
 -3.99854e-12 -0.000313449 -4.03123e-12
 -4.72827e-12 -0.00031345 -1.88386e-12
 1.44423e-12 -0.000313449 -2.68031e-12
 -1.73368e-12 -0.000313449 -5.88106e-12
 -2.3199e-12 -0.000313449 -3.55101e-12
 1.87162e-12 -0.000313449 -2.0907e-12
 2.76521e-13 -0.000404468 -1.41044e-12
 3.41793e-13 -0.000404468 -2.23035e-12
 3.65624e-13 -0.000404468 -1.86746e-12
 -1.83088e-12 -0.000404468 -1.93816e-12
 -1.37097e-12 -0.000404468 -2.14019e-12
 -5.46307e-12 -0.000404468 -3.59014e-12
 -4.23107e-12 -0.000404468 -2.31433e-12
 -4.52682e-12 -0.000404468 -1.77595e-12
 -2.24619e-12 -0.000404468 -1.49365e-12
 -3.18676e-12 -0.000404468 -4.02981e-12
 -3.97939e-12 -0.000404468 -5.11911e-12
 -4.83557e-12 -0.000404468 -6.53447e-13
 -1.30032e-12 -0.000404468 -1.95518e-12
 1.8146e-12 -0.000404468 -4.74291e-12
 -9.3669e-14 -0.000404468 -3.25913e-12
 1.34833e-12 -0.000404468 -2.64401e-12
 9.28284e-13 -0.000245138 -4.85913e-13
 -1.56398e-12 -0.000245138 -5.04317e-13
 -7.32186e-13 -0.000245138 2.40708e-13
 3.49659e-13 -0.000245138 4.70112e-13
 -5.21884e-12 -0.000245138 5.54731e-13
 -9.51358e-13 -0.000245138 -2.98776e-12
 -3.90902e-12 -0.000245138 -5.56237e-13
 -3.86341e-12 -0.000245138 1.14837e-12
 -2.96782e-12 -0.000245138 5.54987e-13
 -3.20755e-12 -0.000245138 -9.84902e-13
 -3.01499e-12 -0.000245138 -6.82471e-13
 -4.13523e-12 -0.000245138 -1.49282e-12
 2.53262e-12 -0.000245138 -3.29435e-12
 1.13621e-13 -0.000245138 -1.03973e-12
 1.29731e-12 -0.000245138 -5.41869e-14
 -1.12585e-12 -0.000245138 9.13757e-14
 2.91593e-13 -0.000292654 -7.72429e-13
 -2.55729e-13 -0.000292654 5.53713e-13
 -3.64868e-13 -0.000292654 -2.11133e-13
 -3.24061e-12 -0.000292654 1.66131e-12
 -3.0153e-12 -0.000292654 5.68037e-13
 -3.22175e-12 -0.000292654 4.35303e-13
 -4.52066e-12 -0.000292654 1.18619e-13
 -2.87671e-12 -0.000292654 -7.21486e-13
 -2.47858e-12 -0.000292654 -1.01333e-12
 -2.20511e-12 -0.000292654 6.82977e-13
 -1.91205e-12 -0.000292654 1.23662e-12
 -1.92791e-12 -0.000292654 -8.56482e-13
 5.12914e-13 -0.000292654 -2.30267e-12
 4.22436e-13 -0.000292654 -8.25711e-14
 1.19351e-12 -0.000292654 1.31495e-13
 4.59189e-13 -0.000292654 6.06328e-13
 2.7049e-14 -0.000236792 4.70326e-13
 -1.58787e-12 -0.000236792 1.43417e-13
 -1.55011e-12 -0.000236792 -5.56467e-13
 -4.14695e-13 -0.000236792 8.1284e-13
 -2.70193e-13 -0.000236792 -1.73549e-12
 1.68708e-12 -0.000236792 5.84968e-13
 1.46355e-12 -0.000236792 1.22844e-12
 -2.21621e-13 -0.000236792 5.69182e-13
 3.62329e-13 -0.000236792 -3.41565e-13
 -9.86099e-13 -0.000236792 -4.9671e-14
 -9.33076e-13 -0.000236792 -6.12665e-14
 -1.08429e-12 -0.000236792 8.61717e-13
 -3.07389e-13 -0.000236792 5.40573e-13
 4.01898e-13 -0.000236792 2.74388e-13
 3.32645e-13 -0.000236792 -5.26014e-13
 2.33916e-13 -0.000236792 -7.91352e-13
 -6.33165e-13 -0.000209824 9.39587e-13
 -1.52785e-12 -0.000209824 8.08966e-13
 5.53617e-14 -0.000209824 4.13609e-13
 -1.51352e-12 -0.000209823 -1.02303e-12
 -1.30481e-12 -0.000209824 -5.1138e-13
 1.30363e-12 -0.000209824 -5.8295e-13
 -1.32106e-12 -0.000209824 5.49455e-13
 8.32452e-13 -0.000209823 1.31778e-12
 5.43827e-13 -0.000209824 -5.46907e-14
 -2.85606e-13 -0.000209824 -6.41265e-13
 -8.59663e-13 -0.000209824 -9.2996e-14
 -2.09352e-13 -0.000209823 1.18369e-12
 1.47143e-12 -0.000209824 7.7338e-13
 1.25958e-13 -0.000209824 -1.91129e-12
 1.39756e-12 -0.000209824 8.89204e-14
 -2.27809e-13 -0.000209824 9.30167e-13
 7.42635e-14 -0.000126083 -7.09766e-13
 7.62993e-13 -0.000126083 -5.52547e-13
 3.26091e-13 -0.000126084 -9.60877e-13
 3.84217e-13 -0.000126084 1.347e-12
 9.53275e-13 -0.000126083 -2.13426e-13
 -4.52254e-13 -0.000126084 -1.33427e-12
 5.4726e-13 -0.000126083 -5.4664e-13
 -6.70831e-13 -0.000126085 7.7932e-13
 1.0755e-12 -0.000126083 -3.3546e-13
 -3.05642e-13 -0.000126083 -1.57316e-12
 8.78253e-15 -0.000126084 -3.63787e-13
 5.30764e-13 -0.000126084 7.02952e-13
 -1.51918e-13 -0.000126084 -7.51286e-13
 1.77192e-12 -0.000126084 -1.02745e-12
 6.40301e-13 -0.000126084 -4.2643e-13
 1.07095e-12 -0.000126083 7.21151e-13
 8.88968e-14 -0.000205625 -7.23854e-13
 1.98926e-13 -0.000205625 -1.48753e-12
 1.87586e-14 -0.000205625 -3.5155e-14
 2.71302e-13 -0.000205625 1.07126e-12
 7.0086e-13 -0.000205626 1.3949e-13
 -7.52707e-13 -0.000205625 -1.70156e-12
 2.06163e-13 -0.000205625 -6.84565e-13
 -5.9397e-13 -0.000205625 7.31652e-13
 3.48354e-13 -0.000205625 -3.81949e-13
 4.97559e-13 -0.000205625 -8.88268e-13
 -3.03642e-13 -0.000205625 -9.41393e-13
 7.8086e-13 -0.000205625 3.47518e-13
 3.94804e-13 -0.000205625 1.91475e-13
 1.75278e-12 -0.000205625 -1.10412e-12
 1.39908e-12 -0.000205625 -8.77098e-13
 8.59959e-13 -0.000205625 4.46108e-13
 3.53033e-13 0.000399356 1.08686e-12
 -3.55469e-14 0.000399356 -2.03266e-13
 2.41089e-13 0.000399356 -7.81823e-13
 1.09352e-13 0.000399356 -9.65936e-13
 2.83282e-13 0.000399356 -7.60844e-13
 1.05299e-12 0.000399356 -1.31506e-12
 8.12859e-13 0.000399356 -3.69957e-13
 1.04084e-12 0.000399356 1.49101e-12
 1.53041e-13 0.000399356 -2.80276e-13
 6.21666e-13 0.000399356 -1.08083e-12
 3.8116e-13 0.000399356 2.88268e-14
 3.51873e-13 0.000399356 4.29566e-13
 1.72149e-12 0.000399356 -4.25937e-13
 1.24231e-12 0.000399356 -1.27054e-12
 1.51097e-12 0.000399356 -6.78807e-14
 1.6749e-12 0.000399356 1.49536e-12
 3.50396e-13 -0.000203544 -2.90335e-13
 5.81393e-13 -0.000203544 -1.50609e-12
 8.36906e-13 -0.000203544 -3.12046e-13
 3.03527e-13 -0.000203544 4.94169e-13
 -8.23549e-14 -0.000203544 7.53988e-14
 2.05221e-13 -0.000203544 -1.44226e-12
 1.86952e-13 -0.000203544 -8.87723e-13
 5.29648e-13 -0.000203544 7.12681e-13
 -1.6303e-13 -0.000203544 -2.04338e-13
 -5.31127e-13 -0.000203544 -1.49331e-12
 -5.99403e-13 -0.000203544 2.74293e-14
 -1.41654e-13 -0.000203544 6.18945e-13
 -5.05805e-13 -0.000203544 -4.88214e-14
 -3.07901e-13 -0.000203544 -1.54647e-12
 -5.86511e-14 -0.000203544 -5.43636e-14
 9.20847e-14 -0.000203544 1.35021e-12
 -3.75629e-12 0.000821859 -4.78126e-13
 -2.40261e-12 0.000821859 -1.77412e-12
 -1.93401e-12 0.000821859 -5.20484e-13
 -1.6978e-12 0.000821859 1.45796e-12
 -9.01267e-13 0.000821859 -4.73684e-13
 -1.16382e-12 0.000821859 -1.64569e-12
 -1.44537e-12 0.000821859 2.28625e-13
 -2.82457e-12 0.000821859 1.15513e-12
 -4.4467e-12 0.000821859 -3.25984e-13
 -4.75548e-12 0.000821859 -1.11748e-12
 -4.91706e-12 0.000821859 -5.53784e-13
 -2.86294e-12 0.000821859 1.66375e-12
 -5.27815e-12 0.000821859 -9.07302e-13
 -6.00063e-12 0.000821859 9.37561e-13
 -5.84785e-12 0.000821859 5.80304e-13
 -6.28958e-12 0.000821859 -6.16675e-13
 0 -0.000537327 0
 0 -0.000537327 0
 0 -0.000537327 0
 0 -0.000537327 0
 0 -0.000537327 0
 0 -0.000537327 0
 0 -0.000537327 0