<?xml version="1.0"?>
<VTKFile type="UnstructuredGrid" version="0.1" byte_order="LittleEndian" compressor="vtkZLibDataCompressor">
<UnstructuredGrid>
<Piece NumberOfPoints="960" NumberOfCells="120">
<Points>
<DataArray type="Float32" NumberOfComponents="3" format="ascii">
-4.000000e+02 -6.000000e+03 -4.000000e+02
0.000000e+00 -6.000000e+03 -4.000000e+02
-4.000000e+02 -5.600000e+03 -4.000000e+02
-2.915260e-10 -5.600000e+03 -4.000000e+02
-4.000000e+02 -6.000000e+03 0.000000e+00
0.000000e+00 -6.000000e+03 0.000000e+00
-4.000000e+02 -5.600000e+03 -3.425080e-11
-2.249490e-10 -5.600000e+03 -2.356880e-10
0.000000e+00 -6.000000e+03 -4.000000e+02
4.000000e+02 -6.000000e+03 -4.000000e+02
-2.915260e-10 -5.600000e+03 -4.000000e+02
4.000000e+02 -5.600000e+03 -4.000000e+02
0.000000e+00 -6.000000e+03 0.000000e+00
4.000000e+02 -6.000000e+03 0.000000e+00
-2.249490e-10 -5.600000e+03 -2.356880e-10
4.000000e+02 -5.600000e+03 -2.270920e-10
-4.000000e+02 -5.600000e+03 -4.000000e+02
-2.915260e-10 -5.600000e+03 -4.000000e+02
-4.000000e+02 -5.200000e+03 -4.000000e+02
-5.659360e-10 -5.200000e+03 -4.000000e+02
-4.000000e+02 -5.600000e+03 -3.425080e-11
-2.249490e-10 -5.600000e+03 -2.356880e-10
-4.000000e+02 -5.200000e+03 -5.737660e-11
-6.767420e-10 -5.200000e+03 -2.658840e-10
-2.915260e-10 -5.600000e+03 -4.000000e+02
4.000000e+02 -5.600000e+03 -4.000000e+02
-5.659360e-10 -5.200000e+03 -4.000000e+02
4.000000e+02 -5.200000e+03 -4.000000e+02
-2.249490e-10 -5.600000e+03 -2.356880e-10
4.000000e+02 -5.600000e+03 -2.270920e-10
-6.767420e-10 -5.200000e+03 -2.658840e-10
4.000000e+02 -5.200000e+03 -4.562170e-10
-4.000000e+02 -5.200000e+03 -4.000000e+02
-5.659360e-10 -5.200000e+03 -4.000000e+02
-4.000000e+02 -4.800010e+03 -4.000000e+02
-1.225800e-09 -4.800010e+03 -4.000000e+02
-4.000000e+02 -5.200000e+03 -5.737660e-11
-6.767420e-10 -5.200000e+03 -2.658840e-10
-4.000000e+02 -4.800010e+03 -2.965090e-10
-2.923740e-10 -4.800010e+03 -5.894600e-10
-5.659360e-10 -5.200000e+03 -4.000000e+02
4.000000e+02 -5.200000e+03 -4.000000e+02
-1.225800e-09 -4.800010e+03 -4.000000e+02
4.000000e+02 -4.800010e+03 -4.000000e+02
-6.767420e-10 -5.200000e+03 -2.658840e-10
4.000000e+02 -5.200000e+03 -4.562170e-10
-2.923740e-10 -4.800010e+03 -5.894600e-10
4.000000e+02 -4.800010e+03 -8.554570e-10
-4.000000e+02 -4.800010e+03 -4.000000e+02
-1.225800e-09 -4.800010e+03 -4.000000e+02
-4.000000e+02 -4.400010e+03 -4.000000e+02
-7.647550e-10 -4.400010e+03 -4.000000e+02
-4.000000e+02 -4.800010e+03 -2.965090e-10
-2.923740e-10 -4.800010e+03 -5.894600e-10
-4.000000e+02 -4.400010e+03 -7.369890e-10
-6.187650e-10 -4.400010e+03 -7.739070e-10
-1.225800e-09 -4.800010e+03 -4.000000e+02
4.000000e+02 -4.800010e+03 -4.000000e+02
-7.647550e-10 -4.400010e+03 -4.000000e+02
4.000000e+02 -4.400010e+03 -4.000000e+02
-2.923740e-10 -4.800010e+03 -5.894600e-10
4.000000e+02 -4.800010e+03 -8.554570e-10
-6.187650e-10 -4.400010e+03 -7.739070e-10
4.000000e+02 -4.400010e+03 -9.206240e-10
-4.000000e+02 -4.400010e+03 -4.000000e+02
-7.647550e-10 -4.400010e+03 -4.000000e+02
-4.000000e+02 -4.000010e+03 -4.000000e+02
-5.982860e-10 -4.000010e+03 -4.000000e+02
-4.000000e+02 -4.400010e+03 -7.369890e-10
-6.187650e-10 -4.400010e+03 -7.739070e-10
-4.000000e+02 -4.000010e+03 -7.411690e-10
-6.334140e-10 -4.000010e+03 -6.241760e-10
-7.647550e-10 -4.400010e+03 -4.000000e+02
4.000000e+02 -4.400010e+03 -4.000000e+02
-5.982860e-10 -4.000010e+03 -4.000000e+02
4.000000e+02 -4.000010e+03 -4.000000e+02
-6.187650e-10 -4.400010e+03 -7.739070e-10
4.000000e+02 -4.400010e+03 -9.206240e-10
-6.334140e-10 -4.000010e+03 -6.241760e-10
4.000000e+02 -4.000010e+03 -5.813880e-10
-4.000000e+02 -4.000010e+03 -4.000000e+02
-5.982860e-10 -4.000010e+03 -4.000000e+02
-4.000000e+02 -3.600010e+03 -4.000000e+02
-4.187350e-10 -3.600010e+03 -4.000000e+02
-4.000000e+02 -4.000010e+03 -7.411690e-10
-6.334140e-10 -4.000010e+03 -6.241760e-10
-4.000000e+02 -3.600010e+03 -3.619180e-10
-3.340420e-10 -3.600010e+03 -2.643850e-10
-5.982860e-10 -4.000010e+03 -4.000000e+02
4.000000e+02 -4.000010e+03 -4.000000e+02
-4.187350e-10 -3.600010e+03 -4.000000e+02
4.000000e+02 -3.600010e+03 -4.000000e+02
-6.334140e-10 -4.000010e+03 -6.241760e-10
4.000000e+02 -4.000010e+03 -5.813880e-10
-3.340420e-10 -3.600010e+03 -2.643850e-10
4.000000e+02 -3.600010e+03 -3.344220e-10
-4.000000e+02 -3.600010e+03 -4.000000e+02
-4.187350e-10 -3.600010e+03 -4.000000e+02
-4.000000e+02 -3.200010e+03 -4.000000e+02
-3.726880e-10 -3.200010e+03 -4.000000e+02
-4.000000e+02 -3.600010e+03 -3.619180e-10
-3.340420e-10 -3.600010e+03 -2.643850e-10
-4.000000e+02 -3.200010e+03 -5.864740e-10
1.422580e-10 -3.200010e+03 -2.104720e-10
-4.187350e-10 -3.600010e+03 -4.000000e+02
4.000000e+02 -3.600010e+03 -4.000000e+02
-3.726880e-10 -3.200010e+03 -4.000000e+02
4.000000e+02 -3.200010e+03 -4.000000e+02
-3.340420e-10 -3.600010e+03 -2.643850e-10
4.000000e+02 -3.600010e+03 -3.344220e-10
1.422580e-10 -3.200010e+03 -2.104720e-10
4.000000e+02 -3.200010e+03 -2.697810e-10
-4.000000e+02 -3.200010e+03 -4.000000e+02
-3.726880e-10 -3.200010e+03 -4.000000e+02
-4.000000e+02 -2.800020e+03 -4.000000e+02
-8.468040e-10 -2.800020e+03 -4.000000e+02
-4.000000e+02 -3.200010e+03 -5.864740e-10
1.422580e-10 -3.200010e+03 -2.104720e-10
-4.000000e+02 -2.800020e+03 -1.143390e-10
-3.278420e-10 -2.800020e+03 2.929030e-10
-3.726880e-10 -3.200010e+03 -4.000000e+02
4.000000e+02 -3.200010e+03 -4.000000e+02
-8.468040e-10 -2.800020e+03 -4.000000e+02
4.000000e+02 -2.800020e+03 -4.000000e+02
1.422580e-10 -3.200010e+03 -2.104720e-10
4.000000e+02 -3.200010e+03 -2.697810e-10
-3.278420e-10 -2.800020e+03 2.929030e-10
4.000000e+02 -2.800020e+03 1.119760e-10
-4.000000e+02 -2.800020e+03 -4.000000e+02
-8.468040e-10 -2.800020e+03 -4.000000e+02
-4.000000e+02 -2.400020e+03 -4.000000e+02
-8.211670e-10 -2.400020e+03 -4.000000e+02
-4.000000e+02 -2.800020e+03 -1.143390e-10
-3.278420e-10 -2.800020e+03 2.929030e-10
-4.000000e+02 -2.400020e+03 1.648350e-10
-9.557480e-10 -2.400020e+03 2.670610e-10
-8.468040e-10 -2.800020e+03 -4.000000e+02
4.000000e+02 -2.800020e+03 -4.000000e+02
-8.211670e-10 -2.400020e+03 -4.000000e+02
4.000000e+02 -2.400020e+03 -4.000000e+02
-3.278420e-10 -2.800020e+03 2.929030e-10
4.000000e+02 -2.800020e+03 1.119760e-10
-9.557480e-10 -2.400020e+03 2.670610e-10
4.000000e+02 -2.400020e+03 2.039290e-10
-4.000000e+02 -2.400020e+03 -4.000000e+02
-8.211670e-10 -2.400020e+03 -4.000000e+02
-4.000000e+02 -2.000020e+03 -4.000000e+02
-8.051950e-10 -2.000020e+03 -4.000000e+02
-4.000000e+02 -2.400020e+03 1.648350e-10
-9.557480e-10 -2.400020e+03 2.670610e-10
-4.000000e+02 -2.000020e+03 -9.277450e-11
-1.040830e-09 -2.000020e+03 -2.734700e-10
-8.211670e-10 -2.400020e+03 -4.000000e+02
4.000000e+02 -2.400020e+03 -4.000000e+02
-8.051950e-10 -2.000020e+03 -4.000000e+02
4.000000e+02 -2.000020e+03 -4.000000e+02
-9.557480e-10 -2.400020e+03 2.670610e-10
4.000000e+02 -2.400020e+03 2.039290e-10
-1.040830e-09 -2.000020e+03 -2.734700e-10
4.000000e+02 -2.000020e+03 -2.108010e-10
-4.000000e+02 -2.000020e+03 -4.000000e+02
-8.051950e-10 -2.000020e+03 -4.000000e+02
-4.000000e+02 -1.600030e+03 -4.000000e+02
-2.698270e-10 -1.600030e+03 -4.000000e+02
-4.000000e+02 -2.000020e+03 -9.277450e-11
-1.040830e-09 -2.000020e+03 -2.734700e-10
-4.000000e+02 -1.600030e+03 9.104960e-11
-4.851670e-10 -1.600030e+03 1.618960e-10
-8.051950e-10 -2.000020e+03 -4.000000e+02
4.000000e+02 -2.000020e+03 -4.000000e+02
-2.698270e-10 -1.600030e+03 -4.000000e+02
4.000000e+02 -1.600030e+03 -4.000000e+02
-1.040830e-09 -2.000020e+03 -2.734700e-10
4.000000e+02 -2.000020e+03 -2.108010e-10
-4.851670e-10 -1.600030e+03 1.618960e-10
4.000000e+02 -1.600030e+03 -8.620590e-11
-4.000000e+02 -1.600030e+03 -4.000000e+02
-2.698270e-10 -1.600030e+03 -4.000000e+02
-4.000000e+02 -1.200040e+03 -4.000000e+02
-4.055840e-10 -1.200040e+03 -4.000000e+02
-4.000000e+02 -1.600030e+03 9.104960e-11
-4.851670e-10 -1.600030e+03 1.618960e-10
-4.000000e+02 -1.200040e+03 1.707860e-11
-1.637210e-10 -1.200040e+03 3.310510e-10
-2.698270e-10 -1.600030e+03 -4.000000e+02
4.000000e+02 -1.600030e+03 -4.000000e+02
-4.055840e-10 -1.200040e+03 -4.000000e+02
4.000000e+02 -1.200040e+03 -4.000000e+02
-4.851670e-10 -1.600030e+03 1.618960e-10
4.000000e+02 -1.600030e+03 -8.620590e-11
-1.637210e-10 -1.200040e+03 3.310510e-10
4.000000e+02 -1.200040e+03 4.408160e-10
-4.000000e+02 -1.200040e+03 -4.000000e+02
-4.055840e-10 -1.200040e+03 -4.000000e+02
-4.000000e+02 -8.000630e+02 -4.000000e+02
1.234200e-10 -8.000630e+02 -4.000000e+02
-4.000000e+02 -1.200040e+03 1.707860e-11
-1.637210e-10 -1.200040e+03 3.310510e-10
-4.000000e+02 -8.000630e+02 3.253200e-10
1.946980e-10 -8.000630e+02 3.392640e-11
-4.055840e-10 -1.200040e+03 -4.000000e+02
4.000000e+02 -1.200040e+03 -4.000000e+02
1.234200e-10 -8.000630e+02 -4.000000e+02
4.000000e+02 -8.000630e+02 -4.000000e+02
-1.637210e-10 -1.200040e+03 3.310510e-10
4.000000e+02 -1.200040e+03 4.408160e-10
1.946980e-10 -8.000630e+02 3.392640e-11
4.000000e+02 -8.000630e+02 2.887210e-10
-4.000000e+02 -8.000630e+02 -4.000000e+02
1.234200e-10 -8.000630e+02 -4.000000e+02
-4.000000e+02 -4.000960e+02 -4.000000e+02
5.283880e-10 -4.000960e+02 -4.000000e+02
-4.000000e+02 -8.000630e+02 3.253200e-10
1.946980e-10 -8.000630e+02 3.392640e-11
-4.000000e+02 -4.000960e+02 2.818030e-10
2.290300e-10 -4.000960e+02 1.747060e-11
1.234200e-10 -8.000630e+02 -4.000000e+02
4.000000e+02 -8.000630e+02 -4.000000e+02
5.283880e-10 -4.000960e+02 -4.000000e+02
4.000000e+02 -4.000960e+02 -4.000000e+02
1.946980e-10 -8.000630e+02 3.392640e-11
4.000000e+02 -8.000630e+02 2.887210e-10
2.290300e-10 -4.000960e+02 1.747060e-11
4.000000e+02 -4.000960e+02 1.886770e-10
-4.000000e+02 -4.000960e+02 -4.000000e+02
5.283880e-10 -4.000960e+02 -4.000000e+02
-4.000000e+02 -1.426240e-01 -4.000000e+02
-2.212100e-10 -1.426240e-01 -4.000000e+02
-4.000000e+02 -4.000960e+02 2.818030e-10
2.290300e-10 -4.000960e+02 1.747060e-11
-4.000000e+02 -1.426240e-01 2.079990e-10
2.369730e-11 -1.426240e-01 5.999720e-10
5.283880e-10 -4.000960e+02 -4.000000e+02
4.000000e+02 -4.000960e+02 -4.000000e+02
[...]
<PointData>
<DataArray type="Float32" Name="V1" format="ascii">
0.000000e+00
0.000000e+00
9.505310e-10
5.390260e-10
0.000000e+00
0.000000e+00
-4.791930e-10
-1.171420e-10
0.000000e+00
0.000000e+00
5.390260e-10
1.571130e-11
0.000000e+00
0.000000e+00
-1.171420e-10
2.592360e-10
9.505310e-10
5.390260e-10
1.060510e-09
8.705120e-10
-4.791930e-10
-1.171420e-10
-3.377920e-10
-2.831510e-10
5.390260e-10
1.571130e-11
8.705120e-10
3.142250e-10
-1.171420e-10
2.592360e-10
-2.831510e-10
-5.027600e-10
1.060510e-09
8.705120e-10
6.127390e-10
8.510640e-11
-3.377920e-10
-2.831510e-10
8.719750e-10
-5.171150e-11
8.705120e-10
3.142250e-10
8.510640e-11
-6.284500e-11
-2.831510e-10
-5.027600e-10
-5.171150e-11
-7.855630e-11
6.127390e-10
8.510640e-11
7.541400e-10
-1.756090e-10
8.719750e-10
-5.171150e-11
-3.849260e-10
-8.241230e-11
8.510640e-11
-6.284500e-11
-1.756090e-10
-7.698510e-10
-5.171150e-11
-7.855630e-11
-8.241230e-11
4.242040e-10
7.541400e-10
-1.756090e-10
7.305730e-10
2.151050e-10
-3.849260e-10
-8.241230e-11
-1.492570e-10
-5.216510e-10
-1.756090e-10
-7.698510e-10
2.151050e-10
1.021230e-10
-8.241230e-11
4.242040e-10
-5.216510e-10
-7.934180e-10
7.305730e-10
2.151050e-10
-4.634820e-10
-3.394280e-10
-1.492570e-10
-5.216510e-10
0.000000e+00
-2.422860e-10
2.151050e-10
1.021230e-10
-3.394280e-10
-6.284500e-11
-5.216510e-10
-7.934180e-10
-2.422860e-10
-8.562630e-10
-4.634820e-10
-3.394280e-10
-3.927810e-11
1.852480e-10
0.000000e+00
-2.422860e-10
2.121020e-10
-2.835890e-10
-3.394280e-10
-6.284500e-11
1.852480e-10
8.562630e-10
-2.422860e-10
-8.562630e-10
-2.835890e-10
-2.749470e-10
-3.927810e-11
1.852480e-10
-6.127390e-10
-4.581830e-10
2.121020e-10
-2.835890e-10
-7.855630e-12
4.106540e-10
1.852480e-10
8.562630e-10
-4.581830e-10
4.870490e-10
-2.835890e-10
-2.749470e-10
4.106540e-10
2.592360e-10
-6.127390e-10
-4.581830e-10
-7.777070e-10
-6.080010e-11
-7.855630e-12
4.106540e-10
5.970280e-10
2.464000e-10
-4.581830e-10
4.870490e-10
-6.080010e-11
-2.121020e-10
4.106540e-10
2.592360e-10
2.464000e-10
2.592360e-10
-7.777070e-10
-6.080010e-11
-1.115500e-09
-7.647050e-11
5.970280e-10
2.464000e-10
6.991510e-10
-1.747980e-10
-6.080010e-11
-2.121020e-10
-7.647050e-11
0.000000e+00
2.464000e-10
2.592360e-10
-1.747980e-10
-4.477710e-10
-1.115500e-09
-7.647050e-11
1.885350e-10
2.919810e-10
6.991510e-10
-1.747980e-10
-3.535030e-10
1.374120e-10
-7.647050e-11
0.000000e+00
2.919810e-10
-5.734610e-10
-1.747980e-10
-4.477710e-10
1.374120e-10
-1.256900e-10
1.885350e-10
2.919810e-10
3.299360e-10
2.116250e-10
-3.535030e-10
1.374120e-10
4.713380e-11
6.352520e-12
2.919810e-10
-5.734610e-10
2.116250e-10
-1.178340e-10
1.374120e-10
-1.256900e-10
6.352520e-12
5.184710e-10
3.299360e-10
2.116250e-10
-1.021230e-09
-4.980300e-10
4.713380e-11
6.352520e-12
1.414010e-10
-1.099290e-10
2.116250e-10
-1.178340e-10
-4.980300e-10
2.278130e-10
6.352520e-12
5.184710e-10
-1.099290e-10
-2.670910e-10
-1.021230e-09
-4.980300e-10
9.505310e-10
3.612850e-10
1.414010e-10
-1.099290e-10
5.891720e-10
2.878570e-10
-4.980300e-10
2.278130e-10
3.612850e-10
1.335460e-10
-1.099290e-10
-2.670910e-10
2.878570e-10
-9.426750e-11
9.505310e-10
3.612850e-10
-7.070060e-11
1.336420e-10
5.891720e-10
2.878570e-10
-1.335460e-10
6.466860e-11
3.612850e-10
1.335460e-10
1.336420e-10
7.070060e-11
2.878570e-10
-9.426750e-11
6.466860e-11
5.498940e-11
-7.070060e-11
1.336420e-10
-1.068370e-09
-2.857970e-10
-1.335460e-10
6.466860e-11
2.749470e-10
1.487180e-10
1.336420e-10
7.070060e-11
-2.857970e-10
-1.021230e-10
6.466860e-11
5.498940e-11
1.487180e-10
-1.256900e-10
-1.068370e-09
-2.857970e-10
4.870490e-10
7.809000e-11
2.749470e-10
1.487180e-10
1.649680e-10
-1.571070e-10
-2.857970e-10
-1.021230e-10
7.809000e-11
2.513800e-10
1.487180e-10
-1.256900e-10
-1.571070e-10
-2.356690e-11
4.870490e-10
7.809000e-11
0.000000e+00
2.031990e-10
1.649680e-10
-1.571070e-10
6.598730e-10
1.604500e-10
7.809000e-11
2.513800e-10
2.031990e-10
9.426750e-11
-1.571070e-10
-2.356690e-11
1.604500e-10
-1.021230e-10
0.000000e+00
2.031990e-10
-1.021230e-10
-3.346890e-10
6.598730e-10
1.604500e-10
-5.498940e-11
3.576390e-10
2.031990e-10
9.426750e-11
-3.346890e-10
-2.121020e-10
1.604500e-10
-1.021230e-10
3.576390e-10
4.163480e-10
-1.021230e-10
-3.346890e-10
1.256900e-10
1.327830e-10
-5.498940e-11
3.576390e-10
-2.356690e-10
-3.682040e-11
-3.346890e-10
-2.121020e-10
1.327830e-10
0.000000e+00
3.576390e-10
4.163480e-10
-3.682040e-11
0.000000e+00
1.256900e-10
1.327830e-10
0.000000e+00
4.436140e-11
-2.356690e-10
-3.682040e-11
0.000000e+00
-4.063710e-11
1.327830e-10
0.000000e+00
4.436140e-11
5.498940e-11
-3.682040e-11
0.000000e+00
-4.063710e-11
-1.099790e-10
0.000000e+00
4.436140e-11
-2.042460e-10
-1.666000e-10
0.000000e+00
-4.063710e-11
-1.492570e-10
-1.896650e-10
4.436140e-11
5.498940e-11
-1.666000e-10
-1.256900e-10
-4.063710e-11
-1.099790e-10
-1.896650e-10
-2.513800e-10
-2.042460e-10
-1.666000e-10
0.000000e+00
3.407820e-11
-1.492570e-10
-1.896650e-10
0.000000e+00
4.187520e-11
-1.666000e-10
-1.256900e-10
3.407820e-11
0.000000e+00
-1.896650e-10
-2.513800e-10
4.187520e-11
0.000000e+00
0.000000e+00
3.407820e-11
0.000000e+00
3.897950e-11
0.000000e+00
4.187520e-11
0.000000e+00
4.664500e-11
3.407820e-11
0.000000e+00
3.897950e-11
0.000000e+00
4.187520e-11
0.000000e+00
4.664500e-11
0.000000e+00
0.000000e+00
3.897950e-11
0.000000e+00
-2.815590e-11
0.000000e+00
4.664500e-11
0.000000e+00
-2.063990e-11
3.897950e-11
0.000000e+00
-2.815590e-11
0.000000e+00
4.664500e-11
0.000000e+00
-2.063990e-11
0.000000e+00
0.000000e+00
-2.815590e-11
2.356690e-11
7.306510e-12
0.000000e+00
-2.063990e-11
0.000000e+00
-3.047550e-12
-2.815590e-11
0.000000e+00
7.306510e-12
0.000000e+00
-2.063990e-11
0.000000e+00
-3.047550e-12
0.000000e+00
2.356690e-11
7.306510e-12
0.000000e+00
-2.204580e-12
0.000000e+00
-3.047550e-12
0.000000e+00
-6.042410e-12
7.306510e-12
0.000000e+00
-2.204580e-12
0.000000e+00
-3.047550e-12
0.000000e+00
-6.042410e-12
0.000000e+00
0.000000e+00
-2.204580e-12
0.000000e+00
-1.202060e-11
0.000000e+00
-6.042410e-12
0.000000e+00
-9.097410e-12
-2.204580e-12
0.000000e+00
-1.202060e-11
0.000000e+00
-6.042410e-12
0.000000e+00
-9.097410e-12
0.000000e+00
0.000000e+00
-1.202060e-11
0.000000e+00
-2.178010e-12
0.000000e+00
-9.097410e-12
0.000000e+00
-1.908010e-12
-1.202060e-11
0.000000e+00
-2.178010e-12
0.000000e+00
-9.097410e-12
0.000000e+00
-1.908010e-12
0.000000e+00
0.000000e+00
-2.178010e-12
0.000000e+00
-2.272250e-12
0.000000e+00
-1.908010e-12
0.000000e+00
1.616530e-13
-2.178010e-12
0.000000e+00
-2.272250e-12
0.000000e+00
-1.908010e-12
0.000000e+00
1.616530e-13
0.000000e+00
0.000000e+00
0.000000e+00
-4.791930e-10
-1.171420e-10
0.000000e+00
0.000000e+00
5.734610e-10
2.096500e-10
0.000000e+00
0.000000e+00
-1.171420e-10
2.592360e-10
0.000000e+00
0.000000e+00
2.096500e-10
2.592360e-10
-4.791930e-10
-1.171420e-10
-3.377920e-10
-2.831510e-10
5.734610e-10
2.096500e-10
1.571130e-10
1.207520e-10
-1.171420e-10
2.592360e-10
-2.831510e-10
-5.027600e-10
2.096500e-10
2.592360e-10
1.207520e-10
1.728240e-10
-3.377920e-10
-2.831510e-10
8.719750e-10
-5.171150e-11
1.571130e-10
1.207520e-10
-2.513800e-10
-2.266200e-10
-2.831510e-10
-5.027600e-10
-5.171150e-11
-7.855630e-11
1.207520e-10
1.728240e-10
-2.266200e-10
4.084930e-10
8.719750e-10
-5.171150e-11
-3.849260e-10
-8.241230e-11
-2.513800e-10
-2.266200e-10
1.099790e-10
-2.917950e-10
-5.171150e-11
-7.855630e-11
-8.241230e-11
4.242040e-10
-2.266200e-10
4.084930e-10
-2.917950e-10
-3.849260e-10
-3.849260e-10
-8.241230e-11
-1.492570e-10
-5.216510e-10
1.099790e-10
-2.917950e-10
0.000000e+00
1.708650e-10
-8.241230e-11
4.242040e-10
-5.216510e-10
-7.934180e-10
-2.917950e-10
-3.849260e-10
1.708650e-10
7.777070e-10
-1.492570e-10
-5.216510e-10
0.000000e+00
-2.422860e-10
0.000000e+00
1.708650e-10
-4.949050e-10
-1.501250e-10
-5.216510e-10
-7.934180e-10
-2.422860e-10
-8.562630e-10
1.708650e-10
7.777070e-10
-1.501250e-10
6.363060e-10
0.000000e+00
-2.422860e-10
2.121020e-10
-2.835890e-10
-4.949050e-10
-1.501250e-10
-3.613590e-10
3.822710e-10
-2.422860e-10
-8.562630e-10
-2.835890e-10
-2.749470e-10
-1.501250e-10
6.363060e-10
3.822710e-10
9.269640e-10
2.121020e-10
-2.835890e-10
-7.855630e-12
4.106540e-10
-3.613590e-10
3.822710e-10
-2.749470e-10
-3.795620e-10
-2.835890e-10
-2.749470e-10
4.106540e-10
2.592360e-10
3.822710e-10
9.269640e-10
-3.795620e-10
5.498940e-11
-7.855630e-12
4.106540e-10
5.970280e-10
2.464000e-10
-2.749470e-10
-3.795620e-10
5.263270e-10
-2.371700e-10
4.106540e-10
2.592360e-10
2.464000e-10
2.592360e-10
-3.795620e-10
5.498940e-11
-2.371700e-10
-5.341830e-10
5.970280e-10
2.464000e-10
6.991510e-10
-1.747980e-10
5.263270e-10
-2.371700e-10
-7.619960e-10
-1.225760e-11
2.464000e-10
2.592360e-10
-1.747980e-10
-4.477710e-10
-2.371700e-10
-5.341830e-10
-1.225760e-11
1.021230e-10
6.991510e-10
-1.747980e-10
-3.535030e-10
1.374120e-10
-7.619960e-10
-1.225760e-11
-2.356690e-10
-4.595260e-10
-1.747980e-10
-4.477710e-10
1.374120e-10
-1.256900e-10
-1.225760e-11
1.021230e-10
-4.595260e-10
9.426750e-11
-3.535030e-10
1.374120e-10
4.713380e-11
6.352520e-12
-2.356690e-10
-4.595260e-10
-2.042460e-10
-6.142140e-10
1.374120e-10
-1.256900e-10
6.352520e-12
5.184710e-10
-4.595260e-10
9.426750e-11
-6.142140e-10
-5.813160e-10
4.713380e-11
6.352520e-12
1.414010e-10
-1.099290e-10
-2.042460e-10
-6.142140e-10
-2.278130e-10
-5.357300e-11
6.352520e-12
5.184710e-10
-1.099290e-10
-2.670910e-10
-6.142140e-10
-5.813160e-10
-5.357300e-11
-8.169850e-10
1.414010e-10
-1.099290e-10
5.891720e-10
2.878570e-10
-2.278130e-10
-5.357300e-11
-2.278130e-10
-5.331710e-10
-1.099290e-10
-2.670910e-10
2.878570e-10
-9.426750e-11
-5.357300e-11
-8.169850e-10
-5.331710e-10
7.070060e-11
5.891720e-10
2.878570e-10
-1.335460e-10
6.466860e-11
-2.278130e-10
-5.331710e-10
1.256900e-10
8.338510e-11
2.878570e-10
-9.426750e-11
6.466860e-11
5.498940e-11
-5.331710e-10
7.070060e-11
8.338510e-11
0.000000e+00
-1.335460e-10
6.466860e-11
2.749470e-10
1.487180e-10
1.256900e-10
8.338510e-11
1.099790e-10
-1.615360e-10
6.466860e-11
5.498940e-11
1.487180e-10
-1.256900e-10
8.338510e-11
0.000000e+00
-1.615360e-10
-9.426750e-11
2.749470e-10
1.487180e-10
1.649680e-10
-1.571070e-10
1.099790e-10
-1.615360e-10
4.320600e-10
-5.037250e-10
1.487180e-10
-1.256900e-10
-1.571070e-10
-2.356690e-11
-1.615360e-10
-9.426750e-11
-5.037250e-10
1.806790e-10
1.649680e-10
-1.571070e-10
6.598730e-10
1.604500e-10
4.320600e-10
-5.037250e-10
-1.885350e-10
1.735350e-10
-1.571070e-10
-2.356690e-11
1.604500e-10
-1.021230e-10
-5.037250e-10
1.806790e-10
1.735350e-10
-4.791930e-10
6.598730e-10
1.604500e-10
-5.498940e-11
3.576390e-10
-1.885350e-10
1.735350e-10
6.284500e-11
1.740540e-10
1.604500e-10
-1.021230e-10
3.576390e-10
4.163480e-10
1.735350e-10
-4.791930e-10
1.740540e-10
4.163480e-10
-5.498940e-11
3.576390e-10
-2.356690e-10
-3.682040e-11
6.284500e-11
1.740540e-10
2.592360e-10
2.133210e-10
3.576390e-10
4.163480e-10
-3.682040e-11
0.000000e+00
1.740540e-10
4.163480e-10
2.133210e-10
1.178340e-10
-2.356690e-10
-3.682040e-11
0.000000e+00
-4.063710e-11
2.592360e-10
2.133210e-10
0.000000e+00
-1.528520e-10
-3.682040e-11
0.000000e+00
-4.063710e-11
-1.099790e-10
2.133210e-10
1.178340e-10
-1.528520e-10
-3.142250e-10
0.000000e+00
-4.063710e-11
-1.492570e-10
-1.896650e-10
0.000000e+00
-1.528520e-10
0.000000e+00
-1.692710e-10
-4.063710e-11
-1.099790e-10
-1.896650e-10
-2.513800e-10
-1.528520e-10
-3.142250e-10
-1.692710e-10
-2.985140e-10
-1.492570e-10
-1.896650e-10
0.000000e+00
4.187520e-11
0.000000e+00
-1.692710e-10
0.000000e+00
1.208820e-10
-1.896650e-10
-2.513800e-10
4.187520e-11
0.000000e+00
-1.692710e-10
-2.985140e-10
1.208820e-10
1.256900e-10
0.000000e+00
4.187520e-11
0.000000e+00
4.664500e-11
0.000000e+00
1.208820e-10
0.000000e+00
6.825680e-11
4.187520e-11
0.000000e+00
4.664500e-11
0.000000e+00
1.208820e-10
1.256900e-10
6.825680e-11
0.000000e+00
0.000000e+00
4.664500e-11
0.000000e+00
-2.063990e-11
0.000000e+00
6.825680e-11
0.000000e+00
-1.588420e-11
4.664500e-11
0.000000e+00
-2.063990e-11
0.000000e+00
6.825680e-11
0.000000e+00
-1.588420e-11
0.000000e+00
0.000000e+00
-2.063990e-11
0.000000e+00
-3.047550e-12
0.000000e+00
-1.588420e-11
0.000000e+00
-9.027780e-12
-2.063990e-11
0.000000e+00
-3.047550e-12
0.000000e+00
-1.588420e-11
0.000000e+00
-9.027780e-12
0.000000e+00
0.000000e+00
-3.047550e-12
0.000000e+00
-6.042410e-12
0.000000e+00
-9.027780e-12
0.000000e+00
-4.332480e-12
-3.047550e-12
0.000000e+00
-6.042410e-12
0.000000e+00
-9.027780e-12
0.000000e+00
-4.332480e-12
0.000000e+00
0.000000e+00
-6.042410e-12
0.000000e+00
-9.097410e-12
0.000000e+00
-4.332480e-12
0.000000e+00
-4.117730e-12
-6.042410e-12
0.000000e+00
-9.097410e-12
0.000000e+00
-4.332480e-12
0.000000e+00
-4.117730e-12
0.000000e+00
0.000000e+00
-9.097410e-12
0.000000e+00
-1.908010e-12
0.000000e+00
-4.117730e-12
0.000000e+00
-2.074580e-12
-9.097410e-12
0.000000e+00
-1.908010e-12
0.000000e+00
-4.117730e-12
0.000000e+00
-2.074580e-12
0.000000e+00
0.000000e+00
-1.908010e-12
0.000000e+00
1.616530e-13
0.000000e+00
-2.074580e-12
0.000000e+00
-6.907140e-13
-1.908010e-12
0.000000e+00
1.616530e-13
0.000000e+00
-2.074580e-12
0.000000e+00
-6.907140e-13
0.000000e+00
</DataArray>
<DataArray type="Float32" Name="V2" format="ascii">
0.000000e+00
0.000000e+00
-1.147120e-04
-1.147120e-04
0.000000e+00
0.000000e+00
-1.147130e-04
-1.147110e-04
0.000000e+00
0.000000e+00
-1.147120e-04
-1.147130e-04
0.000000e+00
0.000000e+00
-1.147110e-04
-1.147120e-04
-1.147120e-04
-1.147120e-04
1.208910e-04
1.208910e-04
-1.147130e-04
-1.147110e-04
1.208910e-04
1.208910e-04
-1.147120e-04
-1.147130e-04
1.208910e-04
1.208910e-04
-1.147110e-04
-1.147120e-04
1.208910e-04
1.208910e-04
1.208910e-04
1.208910e-04
3.533580e-04
3.533560e-04
1.208910e-04
1.208910e-04
3.533590e-04
3.533580e-04
1.208910e-04
1.208910e-04
3.533560e-04
3.533580e-04
1.208910e-04
1.208910e-04
3.533580e-04
3.533610e-04
3.533580e-04
3.533560e-04
3.552760e-04
3.552750e-04
3.533590e-04
3.533580e-04
3.552770e-04
3.552770e-04
3.533560e-04
3.533580e-04
3.552750e-04
3.552770e-04
3.533580e-04
3.533610e-04
3.552770e-04
3.552750e-04
3.552760e-04
3.552750e-04
4.678420e-04
4.678430e-04
3.552770e-04
3.552770e-04
4.678420e-04
4.678410e-04
3.552750e-04
3.552770e-04
4.678430e-04
4.678410e-04
3.552770e-04
3.552750e-04
4.678410e-04
4.678450e-04
4.678420e-04
4.678430e-04
5.755360e-04
5.755380e-04
4.678420e-04
4.678410e-04
5.755380e-04
5.755370e-04
4.678430e-04
4.678410e-04
5.755380e-04
5.755380e-04
4.678410e-04
4.678450e-04
5.755370e-04
5.755380e-04
5.755360e-04
5.755380e-04
5.727010e-04
5.726990e-04
5.755380e-04
5.755370e-04
5.727000e-04
5.727000e-04
5.755380e-04
5.755380e-04
5.726990e-04
5.727000e-04
5.755370e-04
5.755380e-04
5.727000e-04
5.727000e-04
5.727010e-04
5.726990e-04
7.659430e-04
7.659420e-04
5.727000e-04
5.727000e-04
7.659440e-04
7.659410e-04
5.726990e-04
5.727000e-04
7.659420e-04
7.659420e-04
5.727000e-04
5.727000e-04
7.659410e-04
7.659430e-04
7.659430e-04
7.659420e-04
1.181030e-03
1.181030e-03
7.659440e-04
7.659410e-04
1.181030e-03
1.181030e-03
7.659420e-04
7.659420e-04
1.181030e-03
1.181020e-03
7.659410e-04
7.659430e-04
1.181030e-03
1.181030e-03
1.181030e-03
1.181030e-03
2.196430e-03
2.196430e-03
1.181030e-03
1.181030e-03
2.196430e-03
2.196430e-03
1.181030e-03
1.181020e-03
2.196430e-03
2.196430e-03
1.181030e-03
1.181030e-03
2.196430e-03
2.196430e-03
2.196430e-03
2.196430e-03
5.298010e-03
5.298010e-03
2.196430e-03
2.196430e-03
5.298010e-03
5.298010e-03
2.196430e-03
2.196430e-03
5.298010e-03
5.298010e-03
2.196430e-03
2.196430e-03
5.298010e-03
5.298010e-03
5.298010e-03
5.298010e-03
9.836390e-03
9.836390e-03
5.298010e-03
5.298010e-03
9.836400e-03
9.836400e-03
5.298010e-03
5.298010e-03
9.836390e-03
9.836390e-03
5.298010e-03
5.298010e-03
9.836400e-03
9.836400e-03
9.836390e-03
9.836390e-03
1.693470e-02
1.693470e-02
9.836400e-03
9.836400e-03
1.693470e-02
1.693470e-02
9.836390e-03
9.836390e-03
1.693470e-02
1.693470e-02
9.836400e-03
9.836400e-03
1.693470e-02
1.693470e-02
1.693470e-02
1.693470e-02
2.732990e-02
2.732990e-02
1.693470e-02
1.693470e-02
2.732990e-02
2.732990e-02
1.693470e-02
1.693470e-02
2.732990e-02
2.732990e-02
1.693470e-02
1.693470e-02
2.732990e-02
2.732990e-02
2.732990e-02
2.732990e-02
3.698110e-02
3.698110e-02
2.732990e-02
2.732990e-02
3.698110e-02
3.698110e-02
2.732990e-02
2.732990e-02
3.698110e-02
3.698110e-02
2.732990e-02
2.732990e-02
3.698110e-02
3.698110e-02
3.698110e-02
3.698110e-02
4.058550e-02
4.058550e-02
3.698110e-02
3.698110e-02
4.058550e-02
4.058550e-02
3.698110e-02
3.698110e-02
4.058550e-02
4.058550e-02
3.698110e-02
3.698110e-02
4.058550e-02
4.058550e-02
4.058550e-02
4.058550e-02
3.293610e-02
3.293610e-02
4.058550e-02
4.058550e-02
3.293610e-02
3.293610e-02
4.058550e-02
4.058550e-02
3.293610e-02
3.293610e-02
4.058550e-02
4.058550e-02
3.293610e-02
3.293610e-02
3.293610e-02
3.293610e-02
1.294140e-02
1.294140e-02
3.293610e-02
3.293610e-02
1.294140e-02
1.294140e-02
3.293610e-02
3.293610e-02
1.294140e-02
1.294140e-02
3.293610e-02
3.293610e-02
1.294140e-02
1.294140e-02
1.294140e-02
1.294140e-02
-9.445380e-03
-9.445380e-03
1.294140e-02
1.294140e-02
-9.445380e-03
-9.445390e-03
1.294140e-02
1.294140e-02
-9.445380e-03
-9.445380e-03
1.294140e-02
1.294140e-02
-9.445390e-03
-9.445390e-03
-9.445380e-03
-9.445380e-03
-1.924190e-02
-1.924190e-02
-9.445380e-03
-9.445390e-03
-1.924190e-02
-1.924190e-02
-9.445380e-03
-9.445380e-03
-1.924190e-02
-1.924190e-02
-9.445390e-03
-9.445390e-03
-1.924190e-02
-1.924190e-02
-1.924190e-02
-1.924190e-02
-7.196230e-03
-7.196230e-03
-1.924190e-02
-1.924190e-02
-7.196230e-03
-7.196230e-03
-1.924190e-02
-1.924190e-02
-7.196230e-03
-7.196230e-03
-1.924190e-02
-1.924190e-02
-7.196230e-03
-7.196230e-03
-7.196230e-03
-7.196230e-03
7.829060e-03
7.829060e-03
-7.196230e-03
-7.196230e-03
7.829060e-03
7.829060e-03
-7.196230e-03
-7.196230e-03
7.829060e-03
7.829060e-03
-7.196230e-03
-7.196230e-03
7.829060e-03
7.829060e-03
7.829060e-03
7.829060e-03
7.137670e-03
7.137670e-03
7.829060e-03
7.829060e-03
7.137670e-03
7.137670e-03
7.829060e-03
7.829060e-03
7.137670e-03
7.137670e-03
7.829060e-03
7.829060e-03
7.137670e-03
7.137670e-03
7.137670e-03
7.137670e-03
-2.412750e-03
-2.412750e-03
7.137670e-03
7.137670e-03
-2.412750e-03
-2.412750e-03
7.137670e-03
7.137670e-03
-2.412750e-03
-2.412750e-03
7.137670e-03
7.137670e-03
-2.412750e-03
-2.412750e-03
-2.412750e-03
-2.412750e-03
-3.131300e-03
-3.131300e-03
-2.412750e-03
-2.412750e-03
-3.131300e-03
-3.131300e-03
-2.412750e-03
-2.412750e-03
-3.131300e-03
-3.131300e-03
-2.412750e-03
-2.412750e-03
-3.131300e-03
-3.131300e-03
-3.131300e-03
-3.131300e-03
1.020600e-03
1.020600e-03
-3.131300e-03
-3.131300e-03
1.020610e-03
1.020600e-03
-3.131300e-03
-3.131300e-03
1.020600e-03
1.020600e-03
-3.131300e-03
-3.131300e-03
1.020600e-03
1.020600e-03
1.020600e-03
1.020600e-03
1.124270e-03
1.124270e-03
1.020610e-03
1.020600e-03
1.124270e-03
1.124270e-03
1.020600e-03
1.020600e-03
1.124270e-03
1.124270e-03
1.020600e-03
1.020600e-03
1.124270e-03
1.124270e-03
1.124270e-03
1.124270e-03
-4.600710e-05
-4.600700e-05
1.124270e-03
1.124270e-03
-4.600700e-05
-4.600680e-05
1.124270e-03
1.124270e-03
-4.600700e-05
-4.600700e-05
1.124270e-03
1.124270e-03
-4.600680e-05
-4.600700e-05
-4.600710e-05
-4.600700e-05
1.736280e-06
1.736030e-06
-4.600700e-05
-4.600680e-05
1.735910e-06
1.736030e-06
-4.600700e-05
-4.600700e-05
1.736030e-06
1.736160e-06
-4.600680e-05
-4.600700e-05
1.736030e-06
1.736030e-06
1.736280e-06
1.736030e-06
1.159980e-04
1.159980e-04
1.735910e-06
1.736030e-06
1.159980e-04
1.159980e-04
1.736030e-06
1.736160e-06
1.159980e-04
1.159980e-04
1.736030e-06
1.736030e-06
1.159980e-04
1.159980e-04
0.000000e+00
0.000000e+00
-1.147130e-04
-1.147110e-04
0.000000e+00
0.000000e+00
-1.147140e-04
-1.147110e-04
0.000000e+00
0.000000e+00
-1.147110e-04
-1.147120e-04
0.000000e+00
0.000000e+00
-1.147110e-04
-1.147140e-04
-1.147130e-04
-1.147110e-04
1.208910e-04
1.208910e-04
-1.147140e-04
-1.147110e-04
1.208900e-04
1.208920e-04
-1.147110e-04
-1.147120e-04
1.208910e-04
1.208910e-04
-1.147110e-04
-1.147140e-04
1.208920e-04
1.208930e-04
1.208910e-04
1.208910e-04
3.533590e-04
3.533580e-04
1.208900e-04
1.208920e-04
3.533560e-04
3.533580e-04
1.208910e-04
1.208910e-04
3.533580e-04
3.533610e-04