<?xml version="1.0"?>
<VTKFile type="UnstructuredGrid" version="0.1" byte_order="LittleEndian" compressor="vtkZLibDataCompressor">
<UnstructuredGrid>
<Piece NumberOfPoints="960" NumberOfCells="120">
<Points>
<DataArray type="Float32" NumberOfComponents="3" format="ascii">
-4.000000e+02 -6.000000e+03 -4.000000e+02
0.000000e+00 -6.000000e+03 -4.000000e+02
-4.000000e+02 -5.600030e+03 -4.000340e+02
-1.064100e-10 -5.600030e+03 -4.000340e+02
-4.000000e+02 -6.000000e+03 0.000000e+00
0.000000e+00 -6.000000e+03 0.000000e+00
-4.000000e+02 -5.600000e+03 -3.434120e-02
6.227720e-11 -5.600000e+03 -3.450840e-02
0.000000e+00 -6.000000e+03 -4.000000e+02
4.000000e+02 -6.000000e+03 -4.000000e+02
-1.064100e-10 -5.600030e+03 -4.000340e+02
4.000000e+02 -5.600030e+03 -4.000340e+02
0.000000e+00 -6.000000e+03 0.000000e+00
4.000000e+02 -6.000000e+03 0.000000e+00
6.227720e-11 -5.600000e+03 -3.450840e-02
4.000000e+02 -5.600000e+03 -3.434120e-02
-4.000000e+02 -5.600030e+03 -4.000340e+02
-1.064100e-10 -5.600030e+03 -4.000340e+02
-4.000000e+02 -5.200050e+03 -4.000820e+02
4.132450e-10 -5.200050e+03 -4.000820e+02
-4.000000e+02 -5.600000e+03 -3.434120e-02
6.227720e-11 -5.600000e+03 -3.450840e-02
-4.000000e+02 -5.200000e+03 -8.279820e-02
2.502100e-10 -5.200000e+03 -8.291270e-02
-1.064100e-10 -5.600030e+03 -4.000340e+02
4.000000e+02 -5.600030e+03 -4.000340e+02
4.132450e-10 -5.200050e+03 -4.000820e+02
4.000000e+02 -5.200050e+03 -4.000820e+02
6.227720e-11 -5.600000e+03 -3.450840e-02
4.000000e+02 -5.600000e+03 -3.434120e-02
2.502100e-10 -5.200000e+03 -8.291270e-02
4.000000e+02 -5.200000e+03 -8.279820e-02
-4.000000e+02 -5.200050e+03 -4.000820e+02
4.132450e-10 -5.200050e+03 -4.000820e+02
-4.000000e+02 -4.800050e+03 -4.001330e+02
4.767300e-10 -4.800050e+03 -4.001330e+02
-4.000000e+02 -5.200000e+03 -8.279820e-02
2.502100e-10 -5.200000e+03 -8.291270e-02
-4.000000e+02 -4.800000e+03 -1.334450e-01
4.460930e-10 -4.800000e+03 -1.335100e-01
4.132450e-10 -5.200050e+03 -4.000820e+02
4.000000e+02 -5.200050e+03 -4.000820e+02
4.767300e-10 -4.800050e+03 -4.001330e+02
4.000000e+02 -4.800050e+03 -4.001330e+02
2.502100e-10 -5.200000e+03 -8.291270e-02
4.000000e+02 -5.200000e+03 -8.279820e-02
4.460930e-10 -4.800000e+03 -1.335100e-01
4.000000e+02 -4.800000e+03 -1.334450e-01
-4.000000e+02 -4.800050e+03 -4.001330e+02
4.767300e-10 -4.800050e+03 -4.001330e+02
-4.000000e+02 -4.400060e+03 -4.001880e+02
4.506820e-10 -4.400060e+03 -4.001880e+02
-4.000000e+02 -4.800000e+03 -1.334450e-01
4.460930e-10 -4.800000e+03 -1.335100e-01
-4.000000e+02 -4.400000e+03 -1.877920e-01
3.972090e-10 -4.400000e+03 -1.878290e-01
4.767300e-10 -4.800050e+03 -4.001330e+02
4.000000e+02 -4.800050e+03 -4.001330e+02
4.506820e-10 -4.400060e+03 -4.001880e+02
4.000000e+02 -4.400060e+03 -4.001880e+02
4.460930e-10 -4.800000e+03 -1.335100e-01
4.000000e+02 -4.800000e+03 -1.334450e-01
3.972090e-10 -4.400000e+03 -1.878290e-01
4.000000e+02 -4.400000e+03 -1.877920e-01
-4.000000e+02 -4.400060e+03 -4.001880e+02
4.506820e-10 -4.400060e+03 -4.001880e+02
-4.000000e+02 -4.000070e+03 -4.002510e+02
5.418120e-10 -4.000070e+03 -4.002510e+02
-4.000000e+02 -4.400000e+03 -1.877920e-01
3.972090e-10 -4.400000e+03 -1.878290e-01
-4.000000e+02 -4.000000e+03 -2.503970e-01
7.601580e-10 -4.000000e+03 -2.504040e-01
4.506820e-10 -4.400060e+03 -4.001880e+02
4.000000e+02 -4.400060e+03 -4.001880e+02
5.418120e-10 -4.000070e+03 -4.002510e+02
4.000000e+02 -4.000070e+03 -4.002510e+02
3.972090e-10 -4.400000e+03 -1.878290e-01
4.000000e+02 -4.400000e+03 -1.877920e-01
7.601580e-10 -4.000000e+03 -2.504040e-01
4.000000e+02 -4.000000e+03 -2.503970e-01
-4.000000e+02 -4.000070e+03 -4.002510e+02
5.418120e-10 -4.000070e+03 -4.002510e+02
-4.000000e+02 -3.600080e+03 -4.003250e+02
1.098980e-09 -3.600080e+03 -4.003250e+02
-4.000000e+02 -4.000000e+03 -2.503970e-01
7.601580e-10 -4.000000e+03 -2.504040e-01
-4.000000e+02 -3.600000e+03 -3.250700e-01
1.119120e-09 -3.600000e+03 -3.250400e-01
5.418120e-10 -4.000070e+03 -4.002510e+02
4.000000e+02 -4.000070e+03 -4.002510e+02
1.098980e-09 -3.600080e+03 -4.003250e+02
4.000000e+02 -3.600080e+03 -4.003250e+02
7.601580e-10 -4.000000e+03 -2.504040e-01
4.000000e+02 -4.000000e+03 -2.503970e-01
1.119120e-09 -3.600000e+03 -3.250400e-01
4.000000e+02 -3.600000e+03 -3.250700e-01
-4.000000e+02 -3.600080e+03 -4.003250e+02
1.098980e-09 -3.600080e+03 -4.003250e+02
-4.000000e+02 -3.200100e+03 -4.004160e+02
1.272680e-09 -3.200100e+03 -4.004160e+02
-4.000000e+02 -3.600000e+03 -3.250700e-01
1.119120e-09 -3.600000e+03 -3.250400e-01
-4.000000e+02 -3.200000e+03 -4.159800e-01
1.372340e-09 -3.200000e+03 -4.159510e-01
1.098980e-09 -3.600080e+03 -4.003250e+02
4.000000e+02 -3.600080e+03 -4.003250e+02
1.272680e-09 -3.200100e+03 -4.004160e+02
4.000000e+02 -3.200100e+03 -4.004160e+02
1.119120e-09 -3.600000e+03 -3.250400e-01
4.000000e+02 -3.600000e+03 -3.250700e-01
1.372340e-09 -3.200000e+03 -4.159510e-01
4.000000e+02 -3.200000e+03 -4.159800e-01
-4.000000e+02 -3.200100e+03 -4.004160e+02
1.272680e-09 -3.200100e+03 -4.004160e+02
-4.000000e+02 -2.800110e+03 -4.005220e+02
1.597790e-09 -2.800110e+03 -4.005220e+02
-4.000000e+02 -3.200000e+03 -4.159800e-01
1.372340e-09 -3.200000e+03 -4.159510e-01
-4.000000e+02 -2.800000e+03 -5.220650e-01
1.513960e-09 -2.800000e+03 -5.220290e-01
1.272680e-09 -3.200100e+03 -4.004160e+02
4.000000e+02 -3.200100e+03 -4.004160e+02
1.597790e-09 -2.800110e+03 -4.005220e+02
4.000000e+02 -2.800110e+03 -4.005220e+02
1.372340e-09 -3.200000e+03 -4.159510e-01
4.000000e+02 -3.200000e+03 -4.159800e-01
1.513960e-09 -2.800000e+03 -5.220290e-01
4.000000e+02 -2.800000e+03 -5.220650e-01
-4.000000e+02 -2.800110e+03 -4.005220e+02
1.597790e-09 -2.800110e+03 -4.005220e+02
-4.000000e+02 -2.400110e+03 -4.006350e+02
2.002420e-09 -2.400110e+03 -4.006350e+02
-4.000000e+02 -2.800000e+03 -5.220650e-01
1.513960e-09 -2.800000e+03 -5.220290e-01
-4.000000e+02 -2.400000e+03 -6.350780e-01
1.821750e-09 -2.400000e+03 -6.350490e-01
1.597790e-09 -2.800110e+03 -4.005220e+02
4.000000e+02 -2.800110e+03 -4.005220e+02
2.002420e-09 -2.400110e+03 -4.006350e+02
4.000000e+02 -2.400110e+03 -4.006350e+02
1.513960e-09 -2.800000e+03 -5.220290e-01
4.000000e+02 -2.800000e+03 -5.220650e-01
1.821750e-09 -2.400000e+03 -6.350490e-01
4.000000e+02 -2.400000e+03 -6.350780e-01
-4.000000e+02 -2.400110e+03 -4.006350e+02
2.002420e-09 -2.400110e+03 -4.006350e+02
-4.000000e+02 -2.000110e+03 -4.007490e+02
1.834060e-09 -2.000110e+03 -4.007490e+02
-4.000000e+02 -2.400000e+03 -6.350780e-01
1.821750e-09 -2.400000e+03 -6.350490e-01
-4.000000e+02 -2.000000e+03 -7.489900e-01
1.994160e-09 -2.000000e+03 -7.489990e-01
2.002420e-09 -2.400110e+03 -4.006350e+02
4.000000e+02 -2.400110e+03 -4.006350e+02
1.834060e-09 -2.000110e+03 -4.007490e+02
4.000000e+02 -2.000110e+03 -4.007490e+02
1.821750e-09 -2.400000e+03 -6.350490e-01
4.000000e+02 -2.400000e+03 -6.350780e-01
1.994160e-09 -2.000000e+03 -7.489990e-01
4.000000e+02 -2.000000e+03 -7.489900e-01
-4.000000e+02 -2.000110e+03 -4.007490e+02
1.834060e-09 -2.000110e+03 -4.007490e+02
-4.000000e+02 -1.600110e+03 -4.008630e+02
2.044960e-09 -1.600110e+03 -4.008630e+02
-4.000000e+02 -2.000000e+03 -7.489900e-01
1.994160e-09 -2.000000e+03 -7.489990e-01
-4.000000e+02 -1.600000e+03 -8.634370e-01
1.990840e-09 -1.600000e+03 -8.634340e-01
1.834060e-09 -2.000110e+03 -4.007490e+02
4.000000e+02 -2.000110e+03 -4.007490e+02
2.044960e-09 -1.600110e+03 -4.008630e+02
4.000000e+02 -1.600110e+03 -4.008630e+02
1.994160e-09 -2.000000e+03 -7.489990e-01
4.000000e+02 -2.000000e+03 -7.489900e-01
1.990840e-09 -1.600000e+03 -8.634340e-01
4.000000e+02 -1.600000e+03 -8.634370e-01
-4.000000e+02 -1.600110e+03 -4.008630e+02
2.044960e-09 -1.600110e+03 -4.008630e+02
-4.000000e+02 -1.200120e+03 -4.009800e+02
2.284000e-09 -1.200120e+03 -4.009800e+02
-4.000000e+02 -1.600000e+03 -8.634370e-01
1.990840e-09 -1.600000e+03 -8.634340e-01
-4.000000e+02 -1.200000e+03 -9.795820e-01
2.328310e-09 -1.200000e+03 -9.795730e-01
2.044960e-09 -1.600110e+03 -4.008630e+02
4.000000e+02 -1.600110e+03 -4.008630e+02
2.284000e-09 -1.200120e+03 -4.009800e+02
4.000000e+02 -1.200120e+03 -4.009800e+02
1.990840e-09 -1.600000e+03 -8.634340e-01
4.000000e+02 -1.600000e+03 -8.634370e-01
2.328310e-09 -1.200000e+03 -9.795730e-01
4.000000e+02 -1.200000e+03 -9.795820e-01
-4.000000e+02 -1.200120e+03 -4.009800e+02
2.284000e-09 -1.200120e+03 -4.009800e+02
-4.000000e+02 -8.001180e+02 -4.010970e+02
2.777010e-09 -8.001180e+02 -4.010970e+02
-4.000000e+02 -1.200000e+03 -9.795820e-01
2.328310e-09 -1.200000e+03 -9.795730e-01
-4.000000e+02 -8.000000e+02 -1.096920e+00
2.521690e-09 -8.000000e+02 -1.096940e+00
2.284000e-09 -1.200120e+03 -4.009800e+02
4.000000e+02 -1.200120e+03 -4.009800e+02
2.777010e-09 -8.001180e+02 -4.010970e+02
4.000000e+02 -8.001180e+02 -4.010970e+02
2.328310e-09 -1.200000e+03 -9.795730e-01
4.000000e+02 -1.200000e+03 -9.795820e-01
2.521690e-09 -8.000000e+02 -1.096940e+00
4.000000e+02 -8.000000e+02 -1.096920e+00
-4.000000e+02 -8.001180e+02 -4.010970e+02
2.777010e-09 -8.001180e+02 -4.010970e+02
-4.000000e+02 -4.001190e+02 -4.012150e+02
2.659600e-09 -4.001190e+02 -4.012150e+02
-4.000000e+02 -8.000000e+02 -1.096920e+00
2.521690e-09 -8.000000e+02 -1.096940e+00
-4.000000e+02 -4.000000e+02 -1.215020e+00
2.412410e-09 -4.000000e+02 -1.215040e+00
2.777010e-09 -8.001180e+02 -4.010970e+02
4.000000e+02 -8.001180e+02 -4.010970e+02
2.659600e-09 -4.001190e+02 -4.012150e+02
4.000000e+02 -4.001190e+02 -4.012150e+02
2.521690e-09 -8.000000e+02 -1.096940e+00
4.000000e+02 -8.000000e+02 -1.096920e+00
2.412410e-09 -4.000000e+02 -1.215040e+00
4.000000e+02 -4.000000e+02 -1.215020e+00
-4.000000e+02 -4.001190e+02 -4.012150e+02
2.659600e-09 -4.001190e+02 -4.012150e+02
-4.000000e+02 -1.205300e-01 -4.013340e+02
2.456880e-09 -1.205230e-01 -4.013340e+02
-4.000000e+02 -4.000000e+02 -1.215020e+00
2.412410e-09 -4.000000e+02 -1.215040e+00
-4.000000e+02 -1.347820e-04 -1.334350e+00
2.530110e-09 -1.360470e-04 -1.334380e+00
2.659600e-09 -4.001190e+02 -4.012150e+02
4.000000e+02 -4.001190e+02 -4.012150e+02
2.456880e-09 -1.205230e-01 -4.013340e+02
[...]
<PointData>
<DataArray type="Float32" Name="V1" format="ascii">
0.000000e+00
0.000000e+00
3.810210e-05
-1.004660e-10
0.000000e+00
0.000000e+00
-5.115190e-06
2.881570e-11
0.000000e+00
0.000000e+00
-1.004660e-10
-3.810220e-05
0.000000e+00
0.000000e+00
2.881570e-11
5.115360e-06
3.810210e-05
-1.004660e-10
4.681750e-05
-4.821820e-11
-5.115190e-06
2.881570e-11
-6.790530e-06
-6.898650e-11
-1.004660e-10
-3.810220e-05
-4.821820e-11
-4.681790e-05
2.881570e-11
5.115360e-06
-6.898650e-11
6.790420e-06
4.681750e-05
-4.821820e-11
-3.388960e-05
-1.140270e-10
-6.790530e-06
-6.898650e-11
4.300950e-06
2.407390e-10
-4.821820e-11
-4.681790e-05
-1.140270e-10
3.388930e-05
-6.898650e-11
6.790420e-06
2.407390e-10
-4.300450e-06
-3.388960e-05
-1.140270e-10
-1.677990e-05
-2.423740e-11
4.300950e-06
2.407390e-10
5.372280e-06
1.012100e-10
-1.140270e-10
3.388930e-05
-2.423740e-11
1.677980e-05
2.407390e-10
-4.300450e-06
1.012100e-10
-5.372110e-06
-1.677990e-05
-2.423740e-11
-3.828740e-05
-6.346130e-12
5.372280e-06
1.012100e-10
2.452750e-06
-2.945420e-10
-2.423740e-11
1.677980e-05
-6.346130e-12
3.828740e-05
1.012100e-10
-5.372110e-06
-2.945420e-10
-2.453200e-06
-3.828740e-05
-6.346130e-12
4.878560e-05
-1.902570e-12
2.452750e-06
-2.945420e-10
2.976290e-06
-5.201810e-11
-6.346130e-12
3.828740e-05
-1.902570e-12
-4.878530e-05
-2.945420e-10
-2.453200e-06
-5.201810e-11
-2.976290e-06
4.878560e-05
-1.902570e-12
2.788940e-05
5.184510e-10
2.976290e-06
-5.201810e-11
-7.827780e-07
-4.164130e-11
-1.902570e-12
-4.878530e-05
5.184510e-10
-2.788860e-05
-5.201810e-11
-2.976290e-06
-4.164130e-11
7.826100e-07
2.788940e-05
5.184510e-10
3.613760e-05
1.351560e-11
-7.827780e-07
-4.164130e-11
2.724150e-06
-1.620920e-11
5.184510e-10
-2.788860e-05
1.351560e-11
-3.613780e-05
-4.164130e-11
7.826100e-07
-1.620920e-11
-2.724050e-06
3.613760e-05
1.351560e-11
-1.715060e-05
4.677560e-11
2.724150e-06
-1.620920e-11
-1.087150e-06
-2.384490e-10
1.351560e-11
-3.613780e-05
4.677560e-11
1.715060e-05
-1.620920e-11
-2.724050e-06
-2.384490e-10
1.086790e-06
-1.715060e-05
4.677560e-11
-3.204200e-05
2.565840e-10
-1.087150e-06
-2.384490e-10
-2.302850e-06
-3.603840e-10
4.677560e-11
1.715060e-05
2.565840e-10
3.204220e-05
-2.384490e-10
1.086790e-06
-3.603840e-10
2.302070e-06
-3.204200e-05
2.565840e-10
4.306410e-06
4.185670e-12
-2.302850e-06
-3.603840e-10
-9.233730e-07
1.018870e-10
2.565840e-10
3.204220e-05
4.185670e-12
-4.306490e-06
-3.603840e-10
2.302070e-06
1.018870e-10
9.236440e-07
4.306410e-06
4.185670e-12
1.810050e-05
-7.906600e-11
-9.233730e-07
1.018870e-10
-6.071640e-06
1.471930e-10
4.185670e-12
-4.306490e-06
-7.906600e-11
-1.810100e-05
1.018870e-10
9.236440e-07
1.471930e-10
6.072050e-06
1.810050e-05
-7.906600e-11
4.559200e-05
-6.179660e-11
-6.071640e-06
1.471930e-10
-8.490950e-07
-2.778100e-10
-7.906600e-11
-1.810100e-05
-6.179660e-11
-4.559210e-05
1.471930e-10
6.072050e-06
-2.778100e-10
8.486000e-07
4.559200e-05
-6.179660e-11
1.090000e-06
2.989680e-10
-8.490950e-07
-2.778100e-10
2.591930e-06
-1.021420e-10
-6.179660e-11
-4.559210e-05
2.989680e-10
-1.089360e-06
-2.778100e-10
8.486000e-07
-1.021420e-10
-2.591980e-06
1.090000e-06
2.989680e-10
2.501790e-05
-1.905900e-10
2.591930e-06
-1.021420e-10
-2.453010e-07
2.174950e-10
2.989680e-10
-1.089360e-06
-1.905900e-10
-2.501810e-05
-1.021420e-10
-2.591980e-06
2.174950e-10
2.456900e-07
2.501790e-05
-1.905900e-10
-3.086260e-05
-8.410160e-11
-2.453010e-07
2.174950e-10
3.030570e-06
-2.431660e-10
-1.905900e-10
-2.501810e-05
-8.410160e-11
3.086250e-05
2.174950e-10
2.456900e-07
-2.431660e-10
-3.031060e-06
-3.086260e-05
-8.410160e-11
-6.606550e-06
2.077070e-10
3.030570e-06
-2.431660e-10
1.629140e-06
1.903940e-10
-8.410160e-11
3.086250e-05
2.077070e-10
6.607180e-06
-2.431660e-10
-3.031060e-06
1.903940e-10
-1.629030e-06
-6.606550e-06
2.077070e-10
-2.044290e-05
-3.238210e-10
1.629140e-06
1.903940e-10
2.214460e-06
1.985090e-10
2.077070e-10
6.607180e-06
-3.238210e-10
2.044210e-05
1.903940e-10
-1.629030e-06
1.985090e-10
-2.213880e-06
-2.044290e-05
-3.238210e-10
1.406260e-05
1.769240e-10
2.214460e-06
1.985090e-10
5.554480e-07
-1.652360e-10
-3.238210e-10
2.044210e-05
1.769240e-10
-1.406220e-05
1.985090e-10
-2.213880e-06
-1.652360e-10
-5.558400e-07
1.406260e-05
1.769240e-10
1.150720e-05
1.039220e-10
5.554480e-07
-1.652360e-10
-6.389550e-06
2.761110e-10
1.769240e-10
-1.406220e-05
1.039220e-10
-1.150690e-05
-1.652360e-10
-5.558400e-07
2.761110e-10
6.390080e-06
1.150720e-05
1.039220e-10
1.984630e-05
-1.327670e-10
-6.389550e-06
2.761110e-10
-2.864060e-06
-4.051600e-11
1.039220e-10
-1.150690e-05
-1.327670e-10
-1.984670e-05
2.761110e-10
6.390080e-06
-4.051600e-11
2.864170e-06
1.984630e-05
-1.327670e-10
2.487640e-05
1.938880e-10
-2.864060e-06
-4.051600e-11
1.190670e-06
-1.017670e-10
-1.327670e-10
-1.984670e-05
1.938880e-10
-2.487620e-05
-4.051600e-11
2.864170e-06
-1.017670e-10
-1.190920e-06
2.487640e-05
1.938880e-10
-6.561110e-06
-9.891950e-11
1.190670e-06
-1.017670e-10
-8.242940e-07
1.536830e-10
1.938880e-10
-2.487620e-05
-9.891950e-11
6.560990e-06
-1.017670e-10
-1.190920e-06
1.536830e-10
8.244480e-07
-6.561110e-06
-9.891950e-11
2.731090e-05
4.157780e-11
-8.242940e-07
1.536830e-10
-1.477530e-06
-2.360720e-10
-9.891950e-11
6.560990e-06
4.157780e-11
-2.731100e-05
1.536830e-10
8.244480e-07
-2.360720e-10
1.477300e-06
2.731090e-05
4.157780e-11
3.819230e-06
1.548900e-10
-1.477530e-06
-2.360720e-10
5.386410e-07
-1.158400e-10
4.157780e-11
-2.731100e-05
1.548900e-10
-3.819080e-06
-2.360720e-10
1.477300e-06
-1.158400e-10
-5.387290e-07
3.819230e-06
1.548900e-10
-1.644390e-05
4.110800e-10
5.386410e-07
-1.158400e-10
6.302960e-06
-7.797190e-11
1.548900e-10
-3.819080e-06
4.110800e-10
1.644490e-05
-1.158400e-10
-5.387290e-07
-7.797190e-11
-6.303210e-06
-1.644390e-05
4.110800e-10
-2.824530e-05
-1.534870e-10
6.302960e-06
-7.797190e-11
2.825350e-06
-5.120220e-11
4.110800e-10
1.644490e-05
-1.534870e-10
2.824490e-05
-7.797190e-11
-6.303210e-06
-5.120220e-11
-2.825490e-06
-2.824530e-05
-1.534870e-10
-1.782540e-05
-8.692010e-11
2.825350e-06
-5.120220e-11
-3.819670e-06
2.923330e-10
-1.534870e-10
2.824490e-05
-8.692010e-11
1.782530e-05
-5.120220e-11
-2.825490e-06
2.923330e-10
3.820070e-06
-1.782540e-05
-8.692010e-11
-4.367110e-05
-2.381910e-10
-3.819670e-06
2.923330e-10
-2.950600e-06
2.909750e-11
-8.692010e-11
1.782530e-05
-2.381910e-10
4.367070e-05
2.923330e-10
3.820070e-06
2.909750e-11
2.950640e-06
-4.367110e-05
-2.381910e-10
-1.052820e-05
1.888790e-10
-2.950600e-06
2.909750e-11
-6.734520e-06
2.680000e-10
-2.381910e-10
4.367070e-05
1.888790e-10
1.052840e-05
2.909750e-11
2.950640e-06
2.680000e-10
6.735020e-06
0.000000e+00
0.000000e+00
-5.115190e-06
2.881570e-11
0.000000e+00
0.000000e+00
-2.774090e-05
-4.979210e-12
0.000000e+00
0.000000e+00
2.881570e-11
5.115360e-06
0.000000e+00
0.000000e+00
-4.979210e-12
2.774080e-05
-5.115190e-06
2.881570e-11
-6.790530e-06
-6.898650e-11
-2.774090e-05
-4.979210e-12
-3.321410e-05
1.212990e-10
2.881570e-11
5.115360e-06
-6.898650e-11
6.790420e-06
-4.979210e-12
2.774080e-05
1.212990e-10
3.321430e-05
-6.790530e-06
-6.898650e-11
4.300950e-06
2.407390e-10
-3.321410e-05
1.212990e-10
2.528720e-05
-4.215010e-11
-6.898650e-11
6.790420e-06
2.407390e-10
-4.300450e-06
1.212990e-10
3.321430e-05
-4.215010e-11
-2.528720e-05
4.300950e-06
2.407390e-10
5.372280e-06
1.012100e-10
2.528720e-05
-4.215010e-11
6.009510e-06
-5.550890e-11
2.407390e-10
-4.300450e-06
1.012100e-10
-5.372110e-06
-4.215010e-11
-2.528720e-05
-5.550890e-11
-6.009730e-06
5.372280e-06
1.012100e-10
2.452750e-06
-2.945420e-10
6.009510e-06
-5.550890e-11
3.326490e-05
2.296670e-10
1.012100e-10
-5.372110e-06
-2.945420e-10
-2.453200e-06
-5.550890e-11
-6.009730e-06
2.296670e-10
-3.326450e-05
2.452750e-06
-2.945420e-10
2.976290e-06
-5.201810e-11
3.326490e-05
2.296670e-10
-5.462320e-05
-1.943560e-10
-2.945420e-10
-2.453200e-06
-5.201810e-11
-2.976290e-06
2.296670e-10
-3.326450e-05
-1.943560e-10
5.462310e-05
2.976290e-06
-5.201810e-11
-7.827780e-07
-4.164130e-11
-5.462320e-05
-1.943560e-10
-2.627550e-05
2.922460e-10
-5.201810e-11
-2.976290e-06
-4.164130e-11
7.826100e-07
-1.943560e-10
5.462310e-05
2.922460e-10
2.627610e-05
-7.827780e-07
-4.164130e-11
2.724150e-06
-1.620920e-11
-2.627550e-05
2.922460e-10
-4.160410e-05
-1.957310e-10
-4.164130e-11
7.826100e-07
-1.620920e-11
-2.724050e-06
2.922460e-10
2.627610e-05
-1.957310e-10
4.160380e-05
2.724150e-06
-1.620920e-11
-1.087150e-06
-2.384490e-10
-4.160410e-05
-1.957310e-10
1.926340e-05
1.318780e-10
-1.620920e-11
-2.724050e-06
-2.384490e-10
1.086790e-06
-1.957310e-10
4.160380e-05
1.318780e-10
-1.926310e-05
-1.087150e-06
-2.384490e-10
-2.302850e-06
-3.603840e-10
1.926340e-05
1.318780e-10
3.668590e-05
7.969160e-11
-2.384490e-10
1.086790e-06
-3.603840e-10
2.302070e-06
1.318780e-10
-1.926310e-05
7.969160e-11
-3.668560e-05
-2.302850e-06
-3.603840e-10
-9.233730e-07
1.018870e-10
3.668590e-05
7.969160e-11
-2.499600e-06
2.461020e-10
-3.603840e-10
2.302070e-06
1.018870e-10
9.236440e-07
7.969160e-11
-3.668560e-05
2.461020e-10
2.500110e-06
-9.233730e-07
1.018870e-10
-6.071640e-06
1.471930e-10
-2.499600e-06
2.461020e-10
-5.948850e-06
-3.748650e-10
1.018870e-10
9.236440e-07
1.471930e-10
6.072050e-06
2.461020e-10
2.500110e-06
-3.748650e-10
5.948040e-06
-6.071640e-06
1.471930e-10
-8.490950e-07
-2.778100e-10
-5.948850e-06
-3.748650e-10
-4.389390e-05
-2.379690e-10
1.471930e-10
6.072050e-06
-2.778100e-10
8.486000e-07
-3.748650e-10
5.948040e-06
-2.379690e-10
4.389340e-05
-8.490950e-07
-2.778100e-10
2.591930e-06
-1.021420e-10
-4.389390e-05
-2.379690e-10
-6.166210e-06
1.596250e-10
-2.778100e-10
8.486000e-07
-1.021420e-10
-2.591980e-06
-2.379690e-10
4.389340e-05
1.596250e-10
6.166790e-06
2.591930e-06
-1.021420e-10
-2.453010e-07
2.174950e-10
-6.166210e-06
1.596250e-10
-2.469170e-05
-8.649250e-11
-1.021420e-10
-2.591980e-06
2.174950e-10
2.456900e-07
1.596250e-10
6.166790e-06
-8.649250e-11
2.469140e-05
-2.453010e-07
2.174950e-10
3.030570e-06
-2.431660e-10
-2.469170e-05
-8.649250e-11
2.493890e-05
9.500920e-11
2.174950e-10
2.456900e-07
-2.431660e-10
-3.031060e-06
-8.649250e-11
2.469140e-05
9.500920e-11
-2.493870e-05
3.030570e-06
-2.431660e-10
1.629140e-06
1.903940e-10
2.493890e-05
9.500920e-11
3.241610e-06
1.435700e-10
-2.431660e-10
-3.031060e-06
1.903940e-10
-1.629030e-06
9.500920e-11
-2.493870e-05
1.435700e-10
-3.241210e-06
1.629140e-06
1.903940e-10
2.214460e-06
1.985090e-10
3.241610e-06
1.435700e-10
1.608750e-05
-1.817970e-12
1.903940e-10
-1.629030e-06
1.985090e-10
-2.213880e-06
1.435700e-10
-3.241210e-06
-1.817970e-12
-1.608740e-05
2.214460e-06
1.985090e-10
5.554480e-07
-1.652360e-10
1.608750e-05
-1.817970e-12
-1.515610e-05
-1.355490e-11
1.985090e-10
-2.213880e-06
-1.652360e-10
-5.558400e-07
-1.817970e-12
-1.608740e-05
-1.355490e-11
1.515610e-05
5.554480e-07
-1.652360e-10
-6.389550e-06
2.761110e-10
-1.515610e-05
-1.355490e-11
1.169190e-06
1.154970e-10
-1.652360e-10
-5.558400e-07
2.761110e-10
6.390080e-06
-1.355490e-11
1.515610e-05
1.154970e-10
-1.169000e-06
-6.389550e-06
2.761110e-10
-2.864060e-06
-4.051600e-11
1.169190e-06
1.154970e-10
-1.403400e-05
-1.775290e-10
2.761110e-10
6.390080e-06
-4.051600e-11
2.864170e-06
1.154970e-10
-1.169000e-06
-1.775290e-10
1.403370e-05
-2.864060e-06
-4.051600e-11
1.190670e-06
-1.017670e-10
-1.403400e-05
-1.775290e-10
-2.730540e-05
-1.011500e-10
-4.051600e-11
2.864170e-06
-1.017670e-10
-1.190920e-06
-1.775290e-10
1.403370e-05
-1.011500e-10
2.730520e-05
1.190670e-06
-1.017670e-10
-8.242940e-07
1.536830e-10
-2.730540e-05
-1.011500e-10
8.266720e-06
-2.099130e-11
-1.017670e-10
-1.190920e-06
1.536830e-10
8.244480e-07
-1.011500e-10
2.730520e-05
-2.099130e-11
-8.266720e-06
-8.242940e-07
1.536830e-10
-1.477530e-06
-2.360720e-10
8.266720e-06
-2.099130e-11
-2.436580e-05
-5.008310e-10
1.536830e-10
8.244480e-07
-2.360720e-10
1.477300e-06
-2.099130e-11
-8.266720e-06
-5.008310e-10
2.436450e-05
-1.477530e-06
-2.360720e-10
5.386410e-07
-1.158400e-10
-2.436580e-05
-5.008310e-10
-4.855580e-06
1.572340e-10
-2.360720e-10
1.477300e-06
-1.158400e-10
-5.387290e-07
-5.008310e-10
2.436450e-05
1.572340e-10
4.855690e-06
5.386410e-07
-1.158400e-10
6.302960e-06
-7.797190e-11
-4.855580e-06
1.572340e-10
3.740220e-06
-1.289320e-10
-1.158400e-10
-5.387290e-07
-7.797190e-11
-6.303210e-06
1.572340e-10
4.855690e-06
-1.289320e-10
-3.740160e-06
6.302960e-06
-7.797190e-11
2.825350e-06
-5.120220e-11
3.740220e-06
-1.289320e-10
2.265600e-05
-1.503550e-10
-7.797190e-11
-6.303210e-06
-5.120220e-11
-2.825490e-06
-1.289320e-10
-3.740160e-06
-1.503550e-10
-2.265660e-05
2.825350e-06
-5.120220e-11
-3.819670e-06
2.923330e-10
2.265600e-05
-1.503550e-10
2.547610e-05
-2.951970e-11
-5.120220e-11
-2.825490e-06
2.923330e-10
3.820070e-06
-1.503550e-10
-2.265660e-05
-2.951970e-11
-2.547620e-05
-3.819670e-06
2.923330e-10
-2.950600e-06
2.909750e-11
2.547610e-05
-2.951970e-11
4.950880e-05
-3.094960e-10
2.923330e-10
3.820070e-06
2.909750e-11
2.950640e-06
-2.951970e-11
-2.547620e-05
-3.094960e-10
-4.950940e-05
-2.950600e-06
2.909750e-11
-6.734520e-06
2.680000e-10
4.950880e-05
-3.094960e-10
2.405850e-05
3.687620e-10
2.909750e-11
2.950640e-06
2.680000e-10
6.735020e-06
-3.094960e-10
-4.950940e-05
3.687620e-10
-2.405730e-05
</DataArray>
<DataArray type="Float32" Name="V2" format="ascii">
0.000000e+00
0.000000e+00
1.147110e-04
8.542710e-05
0.000000e+00
0.000000e+00
1.566050e-05
2.503690e-05
0.000000e+00
0.000000e+00
8.542710e-05
1.147120e-04
0.000000e+00
0.000000e+00
2.503690e-05
1.566150e-05
1.147110e-04
8.542710e-05
3.466500e-05
1.902560e-05
1.566050e-05
2.503690e-05
1.036450e-05
8.041700e-06
8.542710e-05
1.147120e-04
1.902560e-05
3.466610e-05
2.503690e-05
1.566150e-05
8.041700e-06
1.036520e-05
3.466500e-05
1.902560e-05
-2.532330e-04
-2.418580e-04
1.036450e-05
8.041700e-06
-7.063890e-05
-6.895220e-05
1.902560e-05
3.466610e-05
-2.418580e-04
-2.532330e-04
8.041700e-06
1.036520e-05
-6.895220e-05
-7.063920e-05
-2.532330e-04
-2.418580e-04
-3.309520e-04
-3.490740e-04
-7.063890e-05
-6.895220e-05
-7.077270e-05
-6.071670e-05
-2.418580e-04
-2.532330e-04
-3.490740e-04
-3.309510e-04
-6.895220e-05
-7.063920e-05
-6.071670e-05
-7.077100e-05
-3.309520e-04
-3.490740e-04
-3.551200e-04
-3.977340e-04
-7.077270e-05
-6.071670e-05
-3.055380e-05
-3.032770e-05
-3.490740e-04
-3.309510e-04
-3.977340e-04
-3.551200e-04
-6.071670e-05
-7.077100e-05
-3.032770e-05
-3.055370e-05
-3.551200e-04
-3.977340e-04
-3.664170e-04
-3.824390e-04
-3.055380e-05
-3.032770e-05
3.046730e-05
3.259900e-05
-3.977340e-04
-3.551200e-04
-3.824390e-04
-3.664170e-04
-3.032770e-05
-3.055370e-05
3.259900e-05
3.046750e-05
-3.664170e-04
-3.824390e-04
2.538590e-04
2.464620e-04
3.046730e-05
3.259900e-05
2.790570e-05
3.147310e-05
-3.824390e-04
-3.664170e-04
2.464620e-04
2.538600e-04
3.259900e-05
3.046750e-05
3.147310e-05
2.790430e-05
2.538590e-04
2.464620e-04
1.197790e-03
1.184780e-03
2.790570e-05
3.147310e-05
-2.980090e-05
-3.474950e-05
2.464620e-04
2.538600e-04
1.184780e-03
1.197790e-03
3.147310e-05
2.790430e-05
-3.474950e-05
-2.980130e-05
1.197790e-03
1.184780e-03
1.354600e-03
1.337700e-03
-2.980090e-05
-3.474950e-05
1.687450e-05
1.945210e-05
1.184780e-03
1.197790e-03
1.337700e-03
1.354600e-03
-3.474950e-05
-2.980130e-05
1.945210e-05
1.687450e-05
1.354600e-03
1.337700e-03
1.354120e-04
1.214090e-04
1.687450e-05
1.945210e-05
7.488760e-05
7.579000e-05
1.337700e-03
1.354600e-03
1.214090e-04
1.354120e-04
1.945210e-05
1.687450e-05
7.579000e-05
7.488800e-05
1.354120e-04
1.214090e-04
-1.094120e-03
-1.125610e-03
7.488760e-05
7.579000e-05
1.835720e-05
1.779640e-05
1.214090e-04
1.354120e-04
-1.125610e-03
-1.094120e-03
7.579000e-05
7.488800e-05
1.779640e-05
1.835690e-05
-1.094120e-03
-1.125610e-03
-1.361150e-03
-1.403080e-03
1.835720e-05
1.779640e-05
-6.244590e-05
-5.895940e-05
-1.125610e-03
-1.094120e-03
-1.403080e-03
-1.361150e-03
1.779640e-05
1.835690e-05
-5.895940e-05
-6.244660e-05
-1.361150e-03
-1.403080e-03
-1.299460e-03
-1.286150e-03
-6.244590e-05
-5.895940e-05
-2.642830e-05
-2.792270e-05
-1.403080e-03
-1.361150e-03
-1.286150e-03
-1.299460e-03
-5.895940e-05
-6.244660e-05
-2.792270e-05
-2.642800e-05
-1.299460e-03
-1.286150e-03
-1.296450e-03
-1.291800e-03
-2.642830e-05
-2.792270e-05
7.152990e-05
7.348000e-05
-1.286150e-03
-1.299460e-03
-1.291800e-03
-1.296450e-03
-2.792270e-05
-2.642800e-05
7.348000e-05
7.153040e-05
-1.296450e-03
-1.291800e-03
-1.169790e-03
-1.188120e-03
7.152990e-05
7.348000e-05
4.730520e-05
4.777630e-05
-1.291800e-03
-1.296450e-03
-1.188120e-03
-1.169790e-03
7.348000e-05
7.153040e-05
4.777630e-05
4.730540e-05
-1.169790e-03
-1.188120e-03
-7.723240e-04
-7.522010e-04
4.730520e-05
4.777630e-05
-2.534880e-05
-2.594810e-05
-1.188120e-03
-1.169790e-03
-7.522010e-04
-7.723230e-04
4.777630e-05
4.730540e-05
-2.594810e-05
-2.534860e-05
-7.723240e-04
-7.522010e-04
-1.206940e-04
-1.067400e-04
-2.534880e-05
-2.594810e-05
-4.309200e-05
-4.053210e-05
-7.522010e-04
-7.723230e-04
-1.067400e-04
-1.206930e-04
-2.594810e-05
-2.534860e-05
-4.053210e-05
-4.309230e-05
-1.206940e-04
-1.067400e-04
5.193880e-04
5.251180e-04
-4.309200e-05
-4.053210e-05
-2.557560e-05
-2.706110e-05
-1.067400e-04
-1.206930e-04
5.251180e-04
5.193870e-04
-4.053210e-05
-4.309230e-05
-2.706110e-05
-2.557500e-05
5.193880e-04
5.251180e-04
1.022000e-03
1.043630e-03
-2.557560e-05
-2.706110e-05
-4.762310e-06
-8.562240e-07
5.251180e-04
5.193870e-04
1.043630e-03
1.022000e-03
-2.706110e-05
-2.557500e-05
-8.562240e-07
-4.762520e-06
1.022000e-03
1.043630e-03
1.084100e-03
1.077230e-03
-4.762310e-06
-8.562240e-07
8.214690e-06
8.118780e-06
1.043630e-03
1.022000e-03
1.077230e-03
1.084100e-03
-8.562240e-07
-4.762520e-06
8.118780e-06
8.215240e-06
1.084100e-03
1.077230e-03
6.359790e-04
6.150520e-04
8.214690e-06
8.118780e-06
2.979220e-05
2.652110e-05
1.077230e-03
1.084100e-03
6.150520e-04
6.359800e-04
8.118780e-06
8.215240e-06
2.652110e-05
2.979180e-05
6.359790e-04
6.150520e-04
3.527220e-04
3.687860e-04
2.979220e-05
2.652110e-05
-4.158740e-06
-4.484470e-06
6.150520e-04
6.359800e-04
3.687860e-04
3.527220e-04
2.652110e-05
2.979180e-05
-4.484470e-06
-4.159700e-06
3.527220e-04
3.687860e-04
2.234540e-04
2.322170e-04
-4.158740e-06
-4.484470e-06
-4.714120e-05
-5.294190e-05
3.687860e-04
3.527220e-04
2.322170e-04
2.234530e-04
-4.484470e-06
-4.159700e-06
-5.294190e-05
-4.714170e-05
2.234540e-04
2.322170e-04
-3.248070e-05
-4.981870e-05
-4.714120e-05
-5.294190e-05
1.762850e-05
1.463740e-05
2.322170e-04
2.234530e-04
-4.981870e-05
-3.248060e-05
-5.294190e-05
-4.714170e-05
1.463740e-05
1.762790e-05
-3.248070e-05
-4.981870e-05
-4.223480e-04
-4.390280e-04
1.762850e-05
1.463740e-05
6.695300e-05
6.433790e-05
-4.981870e-05
-3.248060e-05
-4.390280e-04
-4.223480e-04
1.463740e-05
1.762790e-05
6.433790e-05
6.695310e-05
-4.223480e-04
-4.390280e-04
9.216790e-05
6.081710e-05
6.695300e-05
6.433790e-05
9.407820e-06
3.173590e-06
-4.390280e-04
-4.223480e-04
6.081710e-05
9.216890e-05
6.433790e-05
6.695310e-05
3.173590e-06
9.407990e-06
9.216790e-05
6.081710e-05
1.031060e-03
9.888410e-04
9.407820e-06
3.173590e-06
-4.476020e-05
-4.351570e-05
6.081710e-05
9.216890e-05
9.888410e-04
1.031060e-03
3.173590e-06
9.407990e-06
-4.351570e-05
-4.476090e-05
1.031060e-03
9.888410e-04
8.465340e-04
8.161480e-04
-4.476020e-05
-4.351570e-05
5.841070e-06
7.863030e-06
9.888410e-04
1.031060e-03
8.161480e-04
8.465350e-04
-4.351570e-05
-4.476090e-05
7.863030e-06
5.842480e-06
8.465340e-04
8.161480e-04
2.224240e-04
1.994400e-04
5.841070e-06
7.863030e-06
6.645330e-06
5.346570e-06
8.161480e-04
8.465350e-04
1.994400e-04
2.224240e-04
7.863030e-06
5.842480e-06
5.346570e-06
6.644210e-06
2.224240e-04
1.994400e-04
4.642750e-06
-2.384370e-05
6.645330e-06
5.346570e-06
-4.644410e-05
-4.542940e-05
1.994400e-04
2.224240e-04
-2.384370e-05
4.643980e-06
5.346570e-06
6.644210e-06
-4.542940e-05
-4.644160e-05
0.000000e+00
0.000000e+00
1.566050e-05
2.503690e-05
0.000000e+00
0.000000e+00
-1.456960e-04
-1.350860e-04
0.000000e+00
0.000000e+00
2.503690e-05
1.566150e-05
0.000000e+00
0.000000e+00
-1.350860e-04
-1.456960e-04
1.566050e-05
2.503690e-05
1.036450e-05
8.041700e-06
-1.456960e-04
-1.350860e-04
-5.521410e-05
-3.486660e-05
2.503690e-05
1.566150e-05
8.041700e-06
1.036520e-05
-1.350860e-04
-1.456960e-04
-3.486660e-05
-5.521280e-05