<?xml version="1.0"?>
<VTKFile type="UnstructuredGrid" version="0.1" byte_order="LittleEndian" compressor="vtkZLibDataCompressor">
<UnstructuredGrid>
<Piece NumberOfPoints="960" NumberOfCells="120">
<Points>
<DataArray type="Float32" NumberOfComponents="3" format="ascii">
-4.000000e+02 -6.000000e+03 -4.000000e+02
0.000000e+00 -6.000000e+03 -4.000000e+02
-3.999960e+02 -5.600340e+03 -4.002000e+02
3.665060e-03 -5.600340e+03 -4.001970e+02
-4.000000e+02 -6.000000e+03 0.000000e+00
0.000000e+00 -6.000000e+03 0.000000e+00
-4.000000e+02 -5.600000e+03 -2.007530e-01
1.278790e-04 -5.600000e+03 -1.972990e-01
0.000000e+00 -6.000000e+03 -4.000000e+02
4.000000e+02 -6.000000e+03 -4.000000e+02
3.665060e-03 -5.600340e+03 -4.001970e+02
4.000040e+02 -5.600340e+03 -4.001930e+02
0.000000e+00 -6.000000e+03 0.000000e+00
4.000000e+02 -6.000000e+03 0.000000e+00
1.278790e-04 -5.600000e+03 -1.972990e-01
4.000000e+02 -5.600000e+03 -1.933870e-01
-3.999960e+02 -5.600340e+03 -4.002000e+02
3.665060e-03 -5.600340e+03 -4.001970e+02
-3.999940e+02 -5.200660e+03 -4.007230e+02
6.529150e-03 -5.200660e+03 -4.007170e+02
-4.000000e+02 -5.600000e+03 -2.007530e-01
1.278790e-04 -5.600000e+03 -1.972990e-01
-4.000000e+02 -5.200000e+03 -7.249160e-01
1.637730e-04 -5.200000e+03 -7.184490e-01
3.665060e-03 -5.600340e+03 -4.001970e+02
4.000040e+02 -5.600340e+03 -4.001930e+02
6.529150e-03 -5.200660e+03 -4.007170e+02
4.000070e+02 -5.200660e+03 -4.007110e+02
1.278790e-04 -5.600000e+03 -1.972990e-01
4.000000e+02 -5.600000e+03 -1.933870e-01
1.637730e-04 -5.200000e+03 -7.184490e-01
4.000000e+02 -5.200000e+03 -7.118810e-01
-3.999940e+02 -5.200660e+03 -4.007230e+02
6.529150e-03 -5.200660e+03 -4.007170e+02
-3.999930e+02 -4.800970e+03 -4.015530e+02
6.964350e-03 -4.800970e+03 -4.015460e+02
-4.000000e+02 -5.200000e+03 -7.249160e-01
1.637730e-04 -5.200000e+03 -7.184490e-01
-4.000000e+02 -4.800000e+03 -1.554780e+00
2.336470e-04 -4.800000e+03 -1.548170e+00
6.529150e-03 -5.200660e+03 -4.007170e+02
4.000070e+02 -5.200660e+03 -4.007110e+02
6.964350e-03 -4.800970e+03 -4.015460e+02
4.000070e+02 -4.800970e+03 -4.015400e+02
1.637730e-04 -5.200000e+03 -7.184490e-01
4.000000e+02 -5.200000e+03 -7.118810e-01
2.336470e-04 -4.800000e+03 -1.548170e+00
4.000000e+02 -4.800000e+03 -1.541530e+00
-3.999930e+02 -4.800970e+03 -4.015530e+02
6.964350e-03 -4.800970e+03 -4.015460e+02
-3.999970e+02 -4.401260e+03 -4.026800e+02
3.005990e-03 -4.401260e+03 -4.026780e+02
-4.000000e+02 -4.800000e+03 -1.554780e+00
2.336470e-04 -4.800000e+03 -1.548170e+00
-4.000000e+02 -4.400000e+03 -2.681990e+00
1.784330e-04 -4.400000e+03 -2.679130e+00
6.964350e-03 -4.800970e+03 -4.015460e+02
4.000070e+02 -4.800970e+03 -4.015400e+02
3.005990e-03 -4.401260e+03 -4.026780e+02
4.000030e+02 -4.401260e+03 -4.026750e+02
2.336470e-04 -4.800000e+03 -1.548170e+00
4.000000e+02 -4.800000e+03 -1.541530e+00
1.784330e-04 -4.400000e+03 -2.679130e+00
4.000000e+02 -4.400000e+03 -2.676130e+00
-3.999970e+02 -4.401260e+03 -4.026800e+02
3.005990e-03 -4.401260e+03 -4.026780e+02
-4.000040e+02 -4.001520e+03 -4.040900e+02
-4.234510e-03 -4.001520e+03 -4.040940e+02
-4.000000e+02 -4.400000e+03 -2.681990e+00
1.784330e-04 -4.400000e+03 -2.679130e+00
-4.000000e+02 -4.000000e+03 -4.091590e+00
1.590220e-04 -4.000000e+03 -4.094990e+00
3.005990e-03 -4.401260e+03 -4.026780e+02
4.000030e+02 -4.401260e+03 -4.026750e+02
-4.234510e-03 -4.001520e+03 -4.040940e+02
3.999950e+02 -4.001520e+03 -4.040980e+02
1.784330e-04 -4.400000e+03 -2.679130e+00
4.000000e+02 -4.400000e+03 -2.676130e+00
1.590220e-04 -4.000000e+03 -4.094990e+00
4.000000e+02 -4.000000e+03 -4.099000e+00
-4.000040e+02 -4.001520e+03 -4.040900e+02
-4.234510e-03 -4.001520e+03 -4.040940e+02
-4.000100e+02 -3.601750e+03 -4.057380e+02
-9.805760e-03 -3.601750e+03 -4.057480e+02
-4.000000e+02 -4.000000e+03 -4.091590e+00
1.590220e-04 -4.000000e+03 -4.094990e+00
-4.000000e+02 -3.600010e+03 -5.740080e+00
8.323190e-05 -3.600010e+03 -5.749630e+00
-4.234510e-03 -4.001520e+03 -4.040940e+02
3.999950e+02 -4.001520e+03 -4.040980e+02
-9.805760e-03 -3.601750e+03 -4.057480e+02
3.999900e+02 -3.601750e+03 -4.057580e+02
1.590220e-04 -4.000000e+03 -4.094990e+00
4.000000e+02 -4.000000e+03 -4.099000e+00
8.323190e-05 -3.600010e+03 -5.749630e+00
4.000000e+02 -3.600010e+03 -5.759260e+00
-4.000100e+02 -3.601750e+03 -4.057380e+02
-9.805760e-03 -3.601750e+03 -4.057480e+02
-4.000100e+02 -3.201950e+03 -4.075870e+02
-9.952310e-03 -3.201950e+03 -4.075970e+02
-4.000000e+02 -3.600010e+03 -5.740080e+00
8.323190e-05 -3.600010e+03 -5.749630e+00
-4.000000e+02 -3.200010e+03 -7.590730e+00
3.381550e-05 -3.200010e+03 -7.600890e+00
-9.805760e-03 -3.601750e+03 -4.057480e+02
3.999900e+02 -3.601750e+03 -4.057580e+02
-9.952310e-03 -3.201950e+03 -4.075970e+02
3.999900e+02 -3.201950e+03 -4.076080e+02
8.323190e-05 -3.600010e+03 -5.749630e+00
4.000000e+02 -3.600010e+03 -5.759260e+00
3.381550e-05 -3.200010e+03 -7.600890e+00
4.000000e+02 -3.200010e+03 -7.611320e+00
-4.000100e+02 -3.201950e+03 -4.075870e+02
-9.952310e-03 -3.201950e+03 -4.075970e+02
-4.000050e+02 -2.802130e+03 -4.096340e+02
-4.596080e-03 -2.802130e+03 -4.096390e+02
-4.000000e+02 -3.200010e+03 -7.590730e+00
3.381550e-05 -3.200010e+03 -7.600890e+00
-4.000000e+02 -2.800020e+03 -9.639910e+00
-2.279380e-05 -2.800020e+03 -9.645480e+00
-9.952310e-03 -3.201950e+03 -4.075970e+02
3.999900e+02 -3.201950e+03 -4.076080e+02
-4.596080e-03 -2.802130e+03 -4.096390e+02
3.999960e+02 -2.802130e+03 -4.096450e+02
3.381550e-05 -3.200010e+03 -7.600890e+00
4.000000e+02 -3.200010e+03 -7.611320e+00
-2.279380e-05 -2.800020e+03 -9.645480e+00
4.000000e+02 -2.800020e+03 -9.650440e+00
-4.000050e+02 -2.802130e+03 -4.096340e+02
-4.596080e-03 -2.802130e+03 -4.096390e+02
-3.999980e+02 -2.402280e+03 -4.118580e+02
2.279110e-03 -2.402280e+03 -4.118570e+02
-4.000000e+02 -2.800020e+03 -9.639910e+00
-2.279380e-05 -2.800020e+03 -9.645480e+00
-4.000000e+02 -2.400020e+03 -1.186530e+01
-2.147440e-05 -2.400020e+03 -1.186400e+01
-4.596080e-03 -2.802130e+03 -4.096390e+02
3.999960e+02 -2.802130e+03 -4.096450e+02
2.279110e-03 -2.402280e+03 -4.118570e+02
4.000020e+02 -2.402280e+03 -4.118550e+02
-2.279380e-05 -2.800020e+03 -9.645480e+00
4.000000e+02 -2.800020e+03 -9.650440e+00
-2.147440e-05 -2.400020e+03 -1.186400e+01
4.000000e+02 -2.400020e+03 -1.186220e+01
-3.999980e+02 -2.402280e+03 -4.118580e+02
2.279110e-03 -2.402280e+03 -4.118570e+02
-3.999940e+02 -2.002390e+03 -4.142030e+02
6.163230e-03 -2.002390e+03 -4.141980e+02
-4.000000e+02 -2.400020e+03 -1.186530e+01
-2.147440e-05 -2.400020e+03 -1.186400e+01
-4.000000e+02 -2.000030e+03 -1.421110e+01
-5.067160e-05 -2.000030e+03 -1.420610e+01
2.279110e-03 -2.402280e+03 -4.118570e+02
4.000020e+02 -2.402280e+03 -4.118550e+02
6.163230e-03 -2.002390e+03 -4.141980e+02
4.000070e+02 -2.002390e+03 -4.141920e+02
-2.147440e-05 -2.400020e+03 -1.186400e+01
4.000000e+02 -2.400020e+03 -1.186220e+01
-5.067160e-05 -2.000030e+03 -1.420610e+01
4.000000e+02 -2.000030e+03 -1.420000e+01
-3.999940e+02 -2.002390e+03 -4.142030e+02
6.163230e-03 -2.002390e+03 -4.141980e+02
-3.999950e+02 -1.602460e+03 -4.166210e+02
5.548730e-03 -1.602460e+03 -4.166160e+02
-4.000000e+02 -2.000030e+03 -1.421110e+01
-5.067160e-05 -2.000030e+03 -1.420610e+01
-4.000000e+02 -1.600040e+03 -1.662870e+01
-4.024240e-05 -1.600040e+03 -1.662410e+01
6.163230e-03 -2.002390e+03 -4.141980e+02
4.000070e+02 -2.002390e+03 -4.141920e+02
5.548730e-03 -1.602460e+03 -4.166160e+02
4.000060e+02 -1.602460e+03 -4.166110e+02
-5.067160e-05 -2.000030e+03 -1.420610e+01
4.000000e+02 -2.000030e+03 -1.420000e+01
-4.024240e-05 -1.600040e+03 -1.662410e+01
4.000000e+02 -1.600040e+03 -1.661880e+01
-3.999950e+02 -1.602460e+03 -4.166210e+02
5.548730e-03 -1.602460e+03 -4.166160e+02
-3.999980e+02 -1.202510e+03 -4.190760e+02
2.120930e-03 -1.202510e+03 -4.190740e+02
-4.000000e+02 -1.600040e+03 -1.662870e+01
-4.024240e-05 -1.600040e+03 -1.662410e+01
-4.000000e+02 -1.200040e+03 -1.908370e+01
-8.965800e-05 -1.200040e+03 -1.908170e+01
5.548730e-03 -1.602460e+03 -4.166160e+02
4.000060e+02 -1.602460e+03 -4.166110e+02
2.120930e-03 -1.202510e+03 -4.190740e+02
4.000020e+02 -1.202510e+03 -4.190720e+02
-4.024240e-05 -1.600040e+03 -1.662410e+01
4.000000e+02 -1.600040e+03 -1.661880e+01
-8.965800e-05 -1.200040e+03 -1.908170e+01
4.000000e+02 -1.200040e+03 -1.907950e+01
-3.999980e+02 -1.202510e+03 -4.190760e+02
2.120930e-03 -1.202510e+03 -4.190740e+02
-4.000010e+02 -8.025580e+02 -4.215650e+02
-1.076550e-03 -8.025580e+02 -4.215650e+02
-4.000000e+02 -1.200040e+03 -1.908370e+01
-8.965800e-05 -1.200040e+03 -1.908170e+01
-4.000000e+02 -8.000530e+02 -2.157350e+01
-1.253650e-04 -8.000530e+02 -2.157370e+01
2.120930e-03 -1.202510e+03 -4.190740e+02
4.000020e+02 -1.202510e+03 -4.190720e+02
-1.076550e-03 -8.025580e+02 -4.215650e+02
3.999990e+02 -8.025570e+02 -4.215650e+02
-8.965800e-05 -1.200040e+03 -1.908170e+01
4.000000e+02 -1.200040e+03 -1.907950e+01
-1.253650e-04 -8.000530e+02 -2.157370e+01
4.000000e+02 -8.000530e+02 -2.157380e+01
-4.000010e+02 -8.025580e+02 -4.215650e+02
-1.076550e-03 -8.025580e+02 -4.215650e+02
-4.000010e+02 -4.025920e+02 -4.241010e+02
-1.704940e-03 -4.025920e+02 -4.241020e+02
-4.000000e+02 -8.000530e+02 -2.157350e+01
-1.253650e-04 -8.000530e+02 -2.157370e+01
-4.000000e+02 -4.000610e+02 -2.411080e+01
-1.772290e-04 -4.000610e+02 -2.411170e+01
-1.076550e-03 -8.025580e+02 -4.215650e+02
3.999990e+02 -8.025570e+02 -4.215650e+02
-1.704940e-03 -4.025920e+02 -4.241020e+02
3.999980e+02 -4.025930e+02 -4.241030e+02
-1.253650e-04 -8.000530e+02 -2.157370e+01
4.000000e+02 -8.000530e+02 -2.157380e+01
-1.772290e-04 -4.000610e+02 -2.411170e+01
4.000000e+02 -4.000610e+02 -2.411320e+01
-4.000010e+02 -4.025920e+02 -4.241010e+02
-1.704940e-03 -4.025920e+02 -4.241020e+02
-4.000000e+02 -2.605970e+00 -4.266540e+02
-4.607380e-04 -2.606040e+00 -4.266550e+02
-4.000000e+02 -4.000610e+02 -2.411080e+01
-1.772290e-04 -4.000610e+02 -2.411170e+01
-4.000000e+02 -6.876420e-02 -2.666390e+01
-2.307730e-04 -6.881610e-02 -2.666500e+01
-1.704940e-03 -4.025920e+02 -4.241020e+02
3.999980e+02 -4.025930e+02 -4.241030e+02
[...]
<PointData>
<DataArray type="Float32" Name="V1" format="ascii">
0.000000e+00
0.000000e+00
-3.788650e-03
-3.893490e-03
0.000000e+00
0.000000e+00
3.638580e-05
-2.357100e-05
0.000000e+00
0.000000e+00
-3.893490e-03
-3.998950e-03
0.000000e+00
0.000000e+00
-2.357100e-05
-8.431120e-05
-3.788650e-03
-3.893490e-03
-4.802830e-03
-5.281110e-03
3.638580e-05
-2.357100e-05
2.845840e-05
-2.178100e-05
-3.893490e-03
-3.998950e-03
-5.281110e-03
-5.760240e-03
-2.357100e-05
-8.431120e-05
-2.178100e-05
-7.240440e-05
-4.802830e-03
-5.281110e-03
-3.004820e-03
-3.499120e-03
2.845840e-05
-2.178100e-05
-4.962750e-05
-1.066660e-04
-5.281110e-03
-5.760240e-03
-3.499120e-03
-3.993610e-03
-2.178100e-05
-7.240440e-05
-1.066660e-04
-1.634910e-04
-3.004820e-03
-3.499120e-03
7.725700e-04
-3.401240e-04
-4.962750e-05
-1.066660e-04
-1.376400e-04
-1.220770e-04
-3.499120e-03
-3.993610e-03
-3.401240e-04
-1.452490e-03
-1.066660e-04
-1.634910e-04
-1.220770e-04
-1.064750e-04
7.725700e-04
-3.401240e-04
2.888820e-03
2.018120e-03
-1.376400e-04
-1.220770e-04
-2.279420e-04
-1.002150e-04
-3.401240e-04
-1.452490e-03
2.018120e-03
1.147170e-03
-1.220770e-04
-1.064750e-04
-1.002150e-04
2.740500e-05
2.888820e-03
2.018120e-03
3.821980e-03
2.384740e-03
-2.279420e-04
-1.002150e-04
-2.774200e-04
-1.445290e-04
2.018120e-03
1.147170e-03
2.384740e-03
9.480270e-04
-1.002150e-04
2.740500e-05
-1.445290e-04
-1.176550e-05
3.821980e-03
2.384740e-03
2.602850e-03
1.276250e-03
-2.774200e-04
-1.445290e-04
-2.124900e-04
-1.148650e-04
2.384740e-03
9.480270e-04
1.276250e-03
-4.923590e-05
-1.445290e-04
-1.176550e-05
-1.148650e-04
-1.630410e-05
2.602850e-03
1.276250e-03
1.439050e-03
-5.640140e-06
-2.124900e-04
-1.148650e-04
-1.494170e-05
2.558700e-05
1.276250e-03
-4.923590e-05
-5.640140e-06
-1.449730e-03
-1.148650e-04
-1.630410e-05
2.558700e-05
6.744240e-05
1.439050e-03
-5.640140e-06
2.007120e-04
-7.314680e-04
-1.494170e-05
2.558700e-05
9.531860e-05
1.502090e-05
-5.640140e-06
-1.449730e-03
-7.314680e-04
-1.663570e-03
2.558700e-05
6.744240e-05
1.502090e-05
-6.505970e-05
2.007120e-04
-7.314680e-04
2.395560e-04
-3.037020e-04
9.531860e-05
1.502090e-05
1.371030e-04
8.324590e-06
-7.314680e-04
-1.663570e-03
-3.037020e-04
-8.473670e-04
1.502090e-05
-6.505970e-05
8.324590e-06
-1.209020e-04
2.395560e-04
-3.037020e-04
1.973030e-03
1.411800e-03
1.371030e-04
8.324590e-06
1.727040e-04
8.564210e-05
-3.037020e-04
-8.473670e-04
1.411800e-03
8.501040e-04
8.324590e-06
-1.209020e-04
8.564210e-05
-1.671930e-06
1.973030e-03
1.411800e-03
2.936070e-03
2.284130e-03
1.727040e-04
8.564210e-05
5.321530e-05
1.579680e-06
1.411800e-03
8.501040e-04
2.284130e-03
1.632440e-03
8.564210e-05
-1.671930e-06
1.579680e-06
-5.069510e-05
2.936070e-03
2.284130e-03
1.654940e-03
4.449330e-04
5.321530e-05
1.579680e-06
-6.834990e-06
-4.793900e-05
2.284130e-03
1.632440e-03
4.449330e-04
-7.654930e-04
1.579680e-06
-5.069510e-05
-4.793900e-05
-8.988440e-05
1.654940e-03
4.449330e-04
-8.470720e-04
-2.192140e-03
-6.834990e-06
-4.793900e-05
5.677890e-06
1.417590e-06
4.449330e-04
-7.654930e-04
-2.192140e-03
-3.538520e-03
-4.793900e-05
-8.988440e-05
1.417590e-06
-3.487680e-06
-8.470720e-04
-2.192140e-03
-1.690020e-03
-2.651640e-03
5.677890e-06
1.417590e-06
-1.010790e-05
-9.727250e-06
-2.192140e-03
-3.538520e-03
-2.651640e-03
-3.613970e-03
1.417590e-06
-3.487680e-06
-9.727250e-06
-1.029060e-05
-1.690020e-03
-2.651640e-03
-2.748020e-04
-1.033840e-03
-1.010790e-05
-9.727250e-06
1.242680e-05
1.369870e-05
-2.651640e-03
-3.613970e-03
-1.033840e-03
-1.793150e-03
-9.727250e-06
-1.029060e-05
1.369870e-05
1.454370e-05
-2.748020e-04
-1.033840e-03
8.606230e-04
7.749920e-04
1.242680e-05
1.369870e-05
5.368240e-05
1.001090e-04
-1.033840e-03
-1.793150e-03
7.749920e-04
6.892930e-04
1.369870e-05
1.454370e-05
1.001090e-04
1.467500e-04
8.606230e-04
7.749920e-04
1.965500e-03
1.670470e-03
5.368240e-05
1.001090e-04
2.912670e-05
6.137260e-05
7.749920e-04
6.892930e-04
1.670470e-03
1.375830e-03
1.001090e-04
1.467500e-04
6.137260e-05
9.356660e-05
1.965500e-03
1.670470e-03
4.702420e-04
9.200680e-04
2.912670e-05
6.137260e-05
-5.586350e-06
-5.115550e-06
1.670470e-03
1.375830e-03
9.200680e-04
1.370520e-03
6.137260e-05
9.356660e-05
-5.115550e-06
-4.463490e-06
4.702420e-04
9.200680e-04
-9.567240e-04
-1.030900e-03
-5.586350e-06
-5.115550e-06
4.532960e-05
1.726600e-05
9.200680e-04
1.370520e-03
-1.030900e-03
-1.104830e-03
-5.115550e-06
-4.463490e-06
1.726600e-05
-1.004360e-05
-9.567240e-04
-1.030900e-03
-2.717190e-03
-1.959150e-03
4.532960e-05
1.726600e-05
2.431830e-04
1.261630e-04
-1.030900e-03
-1.104830e-03
-1.959150e-03
-1.200630e-03
1.726600e-05
-1.004360e-05
1.261630e-04
9.483190e-06
-2.717190e-03
-1.959150e-03
-7.933620e-04
-4.752980e-04
2.431830e-04
1.261630e-04
2.861720e-04
1.861240e-04
-1.959150e-03
-1.200630e-03
-4.752980e-04
-1.574520e-04
1.261630e-04
9.483190e-06
1.861240e-04
8.561560e-05
-7.933620e-04
-4.752980e-04
9.849250e-04
1.684470e-03
2.861720e-04
1.861240e-04
3.084960e-04
2.227100e-04
-4.752980e-04
-1.574520e-04
1.684470e-03
2.382590e-03
1.861240e-04
8.561560e-05
2.227100e-04
1.356280e-04
9.849250e-04
1.684470e-03
2.449310e-03
2.927330e-03
3.084960e-04
2.227100e-04
2.754570e-04
2.060190e-04
1.684470e-03
2.382590e-03
2.927330e-03
3.403390e-03
2.227100e-04
1.356280e-04
2.060190e-04
1.343960e-04
2.449310e-03
2.927330e-03
2.184160e-03
2.716210e-03
2.754570e-04
2.060190e-04
1.761150e-04
1.438370e-04
2.927330e-03
3.403390e-03
2.716210e-03
3.246600e-03
2.060190e-04
1.343960e-04
1.438370e-04
1.096410e-04
2.184160e-03
2.716210e-03
8.451470e-04
9.193650e-04
1.761150e-04
1.438370e-04
8.588390e-05
1.085180e-04
2.716210e-03
3.246600e-03
9.193650e-04
9.921970e-04
1.438370e-04
1.096410e-04
1.085180e-04
1.297900e-04
8.451470e-04
9.193650e-04
-9.631500e-04
-7.666510e-04
8.588390e-05
1.085180e-04
-7.302620e-06
5.272770e-05
9.193650e-04
9.921970e-04
-7.666510e-04
-5.715960e-04
1.085180e-04
1.297900e-04
5.272770e-05
1.112750e-04
-9.631500e-04
-7.666510e-04
-1.403800e-03
-1.168410e-03
-7.302620e-06
5.272770e-05
-2.789340e-05
-2.056260e-05
-7.666510e-04
-5.715960e-04
-1.168410e-03
-9.339610e-04
5.272770e-05
1.112750e-04
-2.056260e-05
-1.437220e-05
-1.403800e-03
-1.168410e-03
-1.701720e-03
-1.220170e-03
-2.789340e-05
-2.056260e-05
-7.370040e-05
-1.656970e-05
-1.168410e-03
-9.339610e-04
-1.220170e-03
-7.388450e-04
-2.056260e-05
-1.437220e-05
-1.656970e-05
4.038640e-05
-1.701720e-03
-1.220170e-03
-2.310850e-03
-1.867500e-03
-7.370040e-05
-1.656970e-05
1.288190e-04
1.448770e-04
-1.220170e-03
-7.388450e-04
-1.867500e-03
-1.423660e-03
-1.656970e-05
4.038640e-05
1.448770e-04
1.612430e-04
0.000000e+00
0.000000e+00
3.638580e-05
-2.357100e-05
0.000000e+00
0.000000e+00
3.636790e-03
3.848710e-03
0.000000e+00
0.000000e+00
-2.357100e-05
-8.431120e-05
0.000000e+00
0.000000e+00
3.848710e-03
4.059970e-03
3.638580e-05
-2.357100e-05
2.845840e-05
-2.178100e-05
3.636790e-03
3.848710e-03
4.744500e-03
5.339170e-03
-2.357100e-05
-8.431120e-05
-2.178100e-05
-7.240440e-05
3.848710e-03
4.059970e-03
5.339170e-03
5.933360e-03
2.845840e-05
-2.178100e-05
-4.962750e-05
-1.066660e-04
4.744500e-03
5.339170e-03
3.108530e-03
3.722460e-03
-2.178100e-05
-7.240440e-05
-1.066660e-04
-1.634910e-04
5.339170e-03
5.933360e-03
3.722460e-03
4.336910e-03
-4.962750e-05
-1.066660e-04
-1.376400e-04
-1.220770e-04
3.108530e-03
3.722460e-03
-4.979200e-04
5.847690e-04
-1.066660e-04
-1.634910e-04
-1.220770e-04
-1.064750e-04
3.722460e-03
4.336910e-03
5.847690e-04
1.667280e-03
-1.376400e-04
-1.220770e-04
-2.279420e-04
-1.002150e-04
-4.979200e-04
5.847690e-04
-2.423400e-03
-1.810290e-03
-1.220770e-04
-1.064750e-04
-1.002150e-04
2.740500e-05
5.847690e-04
1.667280e-03
-1.810290e-03
-1.197500e-03
-2.279420e-04
-1.002150e-04
-2.774200e-04
-1.445290e-04
-2.423400e-03
-1.810290e-03
-3.288010e-03
-2.120340e-03
-1.002150e-04
2.740500e-05
-1.445290e-04
-1.176550e-05
-1.810290e-03
-1.197500e-03
-2.120340e-03
-9.524610e-04
-2.774200e-04
-1.445290e-04
-2.124900e-04
-1.148650e-04
-3.288010e-03
-2.120340e-03
-2.184980e-03
-1.055020e-03
-1.445290e-04
-1.176550e-05
-1.148650e-04
-1.630410e-05
-2.120340e-03
-9.524610e-04
-1.055020e-03
7.600990e-05
-2.124900e-04
-1.148650e-04
-1.494170e-05
2.558700e-05
-2.184980e-03
-1.055020e-03
-1.341940e-03
2.437790e-05
-1.148650e-04
-1.630410e-05
2.558700e-05
6.744240e-05
-1.055020e-03
7.600990e-05
2.437790e-05
1.391630e-03
-1.494170e-05
2.558700e-05
9.531860e-05
1.502090e-05
-1.341940e-03
2.437790e-05
-3.750490e-04
7.125090e-04
2.558700e-05
6.744240e-05
1.502090e-05
-6.505970e-05
2.437790e-05
1.391630e-03
7.125090e-04
1.800430e-03
9.531860e-05
1.502090e-05
1.371030e-04
8.324590e-06
-3.750490e-04
7.125090e-04
-5.677860e-04
2.420800e-04
1.502090e-05
-6.505970e-05
8.324590e-06
-1.209020e-04
7.125090e-04
1.800430e-03
2.420800e-04
1.051810e-03
1.371030e-04
8.324590e-06
1.727040e-04
8.564210e-05
-5.677860e-04
2.420800e-04
-2.322350e-03
-1.590030e-03
8.324590e-06
-1.209020e-04
8.564210e-05
-1.671930e-06
2.420800e-04
1.051810e-03
-1.590030e-03
-8.581550e-04
1.727040e-04
8.564210e-05
5.321530e-05
1.579680e-06
-2.322350e-03
-1.590030e-03
-3.073680e-03
-2.309990e-03
8.564210e-05
-1.671930e-06
1.579680e-06
-5.069510e-05
-1.590030e-03
-8.581550e-04
-2.309990e-03
-1.546340e-03
5.321530e-05
1.579680e-06
-6.834990e-06
-4.793900e-05
-3.073680e-03
-2.309990e-03
-1.601120e-03
-3.053630e-04
1.579680e-06
-5.069510e-05
-4.793900e-05
-8.988440e-05
-2.309990e-03
-1.546340e-03
-3.053630e-04
9.897130e-04
-6.834990e-06
-4.793900e-05
5.677890e-06
1.417590e-06
-1.601120e-03
-3.053630e-04
9.070170e-04
2.257750e-03
-4.793900e-05
-8.988440e-05
1.417590e-06
-3.487680e-06
-3.053630e-04
9.897130e-04
2.257750e-03
3.607080e-03
5.677890e-06
1.417590e-06
-1.010790e-05
-9.727250e-06
9.070170e-04
2.257750e-03
1.661850e-03
2.627080e-03
1.417590e-06
-3.487680e-06
-9.727250e-06
-1.029060e-05
2.257750e-03
3.607080e-03
2.627080e-03
3.591570e-03
-1.010790e-05
-9.727250e-06
1.242680e-05
1.369870e-05
1.661850e-03
2.627080e-03
2.155810e-04
9.656720e-04
-9.727250e-06
-1.029060e-05
1.369870e-05
1.454370e-05
2.627080e-03
3.591570e-03
9.656720e-04
1.715690e-03
1.242680e-05
1.369870e-05
5.368240e-05
1.001090e-04
2.155810e-04
9.656720e-04
-9.771370e-04
-9.844470e-04
1.369870e-05
1.454370e-05
1.001090e-04
1.467500e-04
9.656720e-04
1.715690e-03
-9.844470e-04
-9.915150e-04
5.368240e-05
1.001090e-04
2.912670e-05
6.137260e-05
-9.771370e-04
-9.844470e-04
-2.051660e-03
-1.808100e-03
1.001090e-04
1.467500e-04
6.137260e-05
9.356660e-05
-9.844470e-04
-9.915150e-04
-1.808100e-03
-1.564260e-03
2.912670e-05
6.137260e-05
-5.586350e-06
-5.115550e-06
-2.051660e-03
-1.808100e-03
-3.901540e-04
-8.563760e-04
6.137260e-05
9.356660e-05
-5.115550e-06
-4.463490e-06
-1.808100e-03
-1.564260e-03
-8.563760e-04
-1.322210e-03
-5.586350e-06
-5.115550e-06
4.532960e-05
1.726600e-05
-3.901540e-04
-8.563760e-04
8.399940e-04
1.003930e-03
-5.115550e-06
-4.463490e-06
1.726600e-05
-1.004360e-05
-8.563760e-04
-1.322210e-03
1.003930e-03
1.168030e-03
4.532960e-05
1.726600e-05
2.431830e-04
1.261630e-04
8.399940e-04
1.003930e-03
2.227710e-03
1.662210e-03
1.726600e-05
-1.004360e-05
1.261630e-04
9.483190e-06
1.003930e-03
1.168030e-03
1.662210e-03
1.096990e-03
2.431830e-04
1.261630e-04
2.861720e-04
1.861240e-04
2.227710e-03
1.662210e-03
2.119620e-04
1.210980e-04
1.261630e-04
9.483190e-06
1.861240e-04
8.561560e-05
1.662210e-03
1.096990e-03
1.210980e-04
3.031530e-05
2.861720e-04
1.861240e-04
3.084960e-04
2.227100e-04
2.119620e-04
1.210980e-04
-1.618190e-03
-2.173170e-03
1.861240e-04
8.561560e-05
2.227100e-04
1.356280e-04
1.210980e-04
3.031530e-05
-2.173170e-03
-2.729580e-03
3.084960e-04
2.227100e-04
2.754570e-04
2.060190e-04
-1.618190e-03
-2.173170e-03
-2.982920e-03
-3.315630e-03
2.227100e-04
1.356280e-04
2.060190e-04
1.343960e-04
-2.173170e-03
-2.729580e-03
-3.315630e-03
-3.650050e-03
2.754570e-04
2.060190e-04
1.761150e-04
1.438370e-04
-2.982920e-03
-3.315630e-03
-2.529820e-03
-2.969680e-03
2.060190e-04
1.343960e-04
1.438370e-04
1.096410e-04
-3.315630e-03
-3.650050e-03
-2.969680e-03
-3.411270e-03
1.761150e-04
1.438370e-04
8.588390e-05
1.085180e-04
-2.529820e-03
-2.969680e-03
-1.036880e-03
-1.187270e-03
1.438370e-04
1.096410e-04
1.085180e-04
1.297900e-04
-2.969680e-03
-3.411270e-03
-1.187270e-03
-1.339550e-03
8.588390e-05
1.085180e-04
-7.302620e-06
5.272770e-05
-1.036880e-03
-1.187270e-03
9.568040e-04
6.983640e-04
1.085180e-04
1.297900e-04
5.272770e-05
1.112750e-04
-1.187270e-03
-1.339550e-03
6.983640e-04
4.384580e-04
-7.302620e-06
5.272770e-05
-2.789340e-05
-2.056260e-05
9.568040e-04
6.983640e-04
1.493030e-03
1.189930e-03
5.272770e-05
1.112750e-04
-2.056260e-05
-1.437220e-05
6.983640e-04
4.384580e-04
1.189930e-03
8.856740e-04
-2.789340e-05
-2.056260e-05
-7.370040e-05
-1.656970e-05
1.493030e-03
1.189930e-03
1.791930e-03
1.222980e-03
-2.056260e-05
-1.437220e-05
-1.656970e-05
4.038640e-05
1.189930e-03
8.856740e-04
1.222980e-03
6.540370e-04
-7.370040e-05
-1.656970e-05
1.288190e-04
1.448770e-04
1.791930e-03
1.222980e-03
2.179370e-03
1.678650e-03
-1.656970e-05
4.038640e-05
1.448770e-04
1.612430e-04
1.222980e-03
6.540370e-04
1.678650e-03
1.178660e-03
</DataArray>
<DataArray type="Float32" Name="V2" format="ascii">
0.000000e+00
0.000000e+00
4.004680e-03
4.052290e-03
0.000000e+00
0.000000e+00
-4.473690e-04
-3.910970e-04
0.000000e+00
0.000000e+00
4.052290e-03
4.128340e-03
0.000000e+00
0.000000e+00
-3.910970e-04
-4.432890e-04
4.004680e-03
4.052290e-03
3.298720e-03
2.650420e-03
-4.473690e-04
-3.910970e-04
-3.045260e-04
-2.507690e-04
4.052290e-03
4.128340e-03
2.650420e-03
2.314930e-03
-3.910970e-04
-4.432890e-04
-2.507690e-04
-2.436370e-04
3.298720e-03
2.650420e-03
-3.597000e-03
-4.114040e-03
-3.045260e-04
-2.507690e-04
2.597290e-04
2.818300e-04
2.650420e-03
2.314930e-03
-4.114040e-03
-3.849130e-03
-2.507690e-04
-2.436370e-04
2.818300e-04
2.586990e-04
-3.597000e-03
-4.114040e-03
-7.085560e-03
-6.407660e-03
2.597290e-04
2.818300e-04
5.735250e-04
5.423300e-04
-4.114040e-03
-3.849130e-03
-6.407660e-03
-5.318570e-03
2.818300e-04
2.586990e-04
5.423300e-04
3.982220e-04
-7.085560e-03
-6.407660e-03
-2.749150e-03
-1.881250e-03
5.735250e-04
5.423300e-04
6.248960e-04
6.463180e-04
-6.407660e-03
-5.318570e-03
-1.881250e-03
-3.264660e-04
5.423300e-04
3.982220e-04
6.463180e-04
6.651640e-04
-2.749150e-03
-1.881250e-03
3.777290e-03
3.671270e-03
6.248960e-04
6.463180e-04
3.380310e-04
4.878270e-04
-1.881250e-03
-3.264660e-04
3.671270e-03
5.147790e-03
6.463180e-04
6.651640e-04
4.878270e-04
6.862500e-04
3.777290e-03
3.671270e-03
6.954180e-03
6.843730e-03
3.380310e-04
4.878270e-04
-1.456320e-06
1.232880e-04
3.671270e-03
5.147790e-03
6.843730e-03
7.504920e-03
4.878270e-04
6.862500e-04
1.232880e-04
2.148540e-04
6.954180e-03
6.843730e-03
7.477800e-03
8.685210e-03
-1.456320e-06
1.232880e-04
-2.312520e-04
-1.887720e-04
6.843730e-03
7.504920e-03
8.685210e-03
9.008910e-03
1.232880e-04
2.148540e-04
-1.887720e-04
-1.148680e-04
7.477800e-03
8.685210e-03
6.087050e-03
8.456180e-03
-2.312520e-04
-1.887720e-04
-1.942310e-05
9.541560e-06
8.685210e-03
9.008910e-03
8.456180e-03
8.898510e-03
-1.887720e-04
-1.148680e-04
9.541560e-06
5.793340e-05
6.087050e-03
8.456180e-03
1.051770e-03
2.668550e-03
-1.942310e-05
9.541560e-06
3.154810e-05
3.847850e-05
8.456180e-03
8.898510e-03
2.668550e-03
2.391640e-03
9.541560e-06
5.793340e-05
3.847850e-05
-1.157470e-04
1.051770e-03
2.668550e-03
-3.786500e-03
-3.624910e-03
3.154810e-05
3.847850e-05
-4.535660e-04
-4.801300e-04
2.668550e-03
2.391640e-03
-3.624910e-03
-4.693670e-03
3.847850e-05
-1.157470e-04
-4.801300e-04
-6.599750e-04
-3.786500e-03
-3.624910e-03
-5.199860e-03
-5.083970e-03
-4.535660e-04
-4.801300e-04
-5.911440e-04
-6.059290e-04
-3.624910e-03
-4.693670e-03
-5.083970e-03
-5.079790e-03
-4.801300e-04
-6.599750e-04
-6.059290e-04
-6.351160e-04
-5.199860e-03
-5.083970e-03
-5.654880e-03
-4.596770e-03
-5.911440e-04
-6.059290e-04
-5.307910e-04
-5.142860e-04
-5.083970e-03
-5.079790e-03
-4.596770e-03
-3.485680e-03
-6.059290e-04
-6.351160e-04
-5.142860e-04
-5.669290e-04
-5.654880e-03
-4.596770e-03
-2.887920e-03
-1.474380e-03
-5.307910e-04
-5.142860e-04
-2.877060e-04
-2.634770e-04
-4.596770e-03
-3.485680e-03
-1.474380e-03
-1.128180e-03
-5.142860e-04
-5.669290e-04
-2.634770e-04
-3.875320e-04
-2.887920e-03
-1.474380e-03
1.948740e-03
3.093620e-03
-2.877060e-04
-2.634770e-04
3.428960e-04
2.994480e-04
-1.474380e-03
-1.128180e-03
3.093620e-03
3.003060e-03
-2.634770e-04
-3.875320e-04
2.994480e-04
2.501700e-04
1.948740e-03
3.093620e-03
1.390450e-03
2.560500e-03
3.428960e-04
2.994480e-04
3.968360e-04
3.409860e-04
3.093620e-03
3.003060e-03
2.560500e-03
3.113340e-03
2.994480e-04
2.501700e-04
3.409860e-04
3.139380e-04
1.390450e-03
2.560500e-03
-1.409950e-03
-6.698940e-04
3.968360e-04
3.409860e-04
-4.352160e-06
-3.483030e-05
2.560500e-03
3.113340e-03
-6.698940e-04
-1.844080e-04
3.409860e-04
3.139380e-04
-3.483030e-05
3.281890e-05
-1.409950e-03
-6.698940e-04
6.038160e-05
-5.251980e-05
-4.352160e-06
-3.483030e-05
-5.055380e-04
-4.304130e-04
-6.698940e-04
-1.844080e-04
-5.251980e-05
-5.592680e-04
-3.483030e-05
3.281890e-05
-4.304130e-04
-2.979060e-04
6.038160e-05
-5.251980e-05
1.788360e-03
1.470850e-03
-5.055380e-04
-4.304130e-04
-9.579080e-04
-8.047530e-04
-5.251980e-05
-5.592680e-04
1.470850e-03
1.110120e-03
-4.304130e-04
-2.979060e-04
-8.047530e-04
-8.323400e-04
1.788360e-03
1.470850e-03
7.368960e-04
1.010280e-03
-9.579080e-04
-8.047530e-04
-6.458430e-04
-6.309290e-04
1.470850e-03
1.110120e-03
1.010280e-03
1.088530e-03
-8.047530e-04
-8.323400e-04
-6.309290e-04
-7.521630e-04
7.368960e-04
1.010280e-03
-1.181220e-03
-1.514530e-03
-6.458430e-04
-6.309290e-04
-1.010180e-04
-1.419690e-04
1.010280e-03
1.088530e-03
-1.514530e-03
-1.868220e-03
-6.309290e-04
-7.521630e-04
-1.419690e-04
-2.197620e-04
-1.181220e-03
-1.514530e-03
-5.864600e-03
-7.337430e-03
-1.010180e-04
-1.419690e-04
4.766150e-04
5.717390e-04
-1.514530e-03
-1.868220e-03
-7.337430e-03
-8.114610e-03
-1.419690e-04
-2.197620e-04
5.717390e-04
5.744470e-04
-5.864600e-03
-7.337430e-03
-9.369030e-03
-1.044390e-02
4.766150e-04
5.717390e-04
7.309270e-04
7.946620e-04
-7.337430e-03
-8.114610e-03
-1.044390e-02
-1.126830e-02
5.717390e-04
5.744470e-04
7.946620e-04
8.760260e-04
-9.369030e-03
-1.044390e-02
-6.468560e-03
-6.914990e-03
7.309270e-04
7.946620e-04
4.305330e-04
3.605510e-04
-1.044390e-02
-1.126830e-02
-6.914990e-03
-7.217390e-03
7.946620e-04
8.760260e-04
3.605510e-04
3.984550e-04
-6.468560e-03
-6.914990e-03
-3.326810e-03
-3.596320e-03
4.305330e-04
3.605510e-04
5.142480e-04
4.165570e-04
-6.914990e-03
-7.217390e-03
-3.596320e-03
-2.879190e-03
3.605510e-04
3.984550e-04
4.165570e-04
3.239620e-04
-3.326810e-03
-3.596320e-03
-4.148750e-03
-4.447510e-03
5.142480e-04
4.165570e-04
2.290310e-04
1.673690e-04
-3.596320e-03
-2.879190e-03
-4.447510e-03
-3.718460e-03
4.165570e-04
3.239620e-04
1.673690e-04
4.819940e-05
-4.148750e-03
-4.447510e-03
-4.486500e-03
-5.434100e-03
2.290310e-04
1.673690e-04
-2.681120e-04
-2.226020e-04
-4.447510e-03
-3.718460e-03
-5.434100e-03
-6.295750e-03
1.673690e-04
4.819940e-05
-2.226020e-04
-2.012460e-04
-4.486500e-03
-5.434100e-03
-1.818750e-03
-3.079880e-03
-2.681120e-04
-2.226020e-04
-8.392660e-05
7.974520e-05
-5.434100e-03
-6.295750e-03
-3.079880e-03
-4.403800e-03
-2.226020e-04
-2.012460e-04
7.974520e-05
4.772130e-05
-1.818750e-03
-3.079880e-03
1.976510e-03
1.913590e-03
-8.392660e-05
7.974520e-05
-3.148960e-04
-2.659770e-04
-3.079880e-03
-4.403800e-03
1.913590e-03
1.911460e-03
7.974520e-05
4.772130e-05
-2.659770e-04
-3.240920e-04
1.976510e-03
1.913590e-03
3.987890e-03
4.790260e-03
-3.148960e-04
-2.659770e-04
-7.234650e-04
-8.251290e-04
1.913590e-03
1.911460e-03
4.790260e-03
5.695130e-03
-2.659770e-04
-3.240920e-04
-8.251290e-04
-7.699800e-04
0.000000e+00
0.000000e+00
-4.473690e-04
-3.910970e-04
0.000000e+00
0.000000e+00
-3.032100e-03
-3.165690e-03
0.000000e+00
0.000000e+00
-3.910970e-04
-4.432890e-04
0.000000e+00
0.000000e+00
-3.165690e-03
-3.028550e-03
-4.473690e-04
-3.910970e-04
-3.045260e-04
-2.507690e-04
-3.032100e-03
-3.165690e-03
-2.513830e-03
-1.994660e-03
-3.910970e-04
-4.432890e-04
-2.507690e-04
-2.436370e-04
-3.165690e-03
-3.028550e-03
-1.994660e-03
-1.628230e-03