<?xml version="1.0"?>
<VTKFile type="UnstructuredGrid" version="0.1" byte_order="LittleEndian" compressor="vtkZLibDataCompressor">
<UnstructuredGrid>
<Piece NumberOfPoints="960" NumberOfCells="120">
<Points>
<DataArray type="Float32" NumberOfComponents="3" format="ascii">
-4.000000e+02 -6.000000e+03 -4.000000e+02
0.000000e+00 -6.000000e+03 -4.000000e+02
-3.999980e+02 -5.600140e+03 -4.000990e+02
2.303240e-03 -5.600140e+03 -4.000970e+02
-4.000000e+02 -6.000000e+03 0.000000e+00
0.000000e+00 -6.000000e+03 0.000000e+00
-4.000000e+02 -5.600000e+03 -9.798270e-02
4.103130e-05 -5.600000e+03 -9.569300e-02
0.000000e+00 -6.000000e+03 -4.000000e+02
4.000000e+02 -6.000000e+03 -4.000000e+02
2.303240e-03 -5.600140e+03 -4.000970e+02
4.000020e+02 -5.600140e+03 -4.000950e+02
0.000000e+00 -6.000000e+03 0.000000e+00
4.000000e+02 -6.000000e+03 0.000000e+00
4.103130e-05 -5.600000e+03 -9.569300e-02
4.000000e+02 -5.600000e+03 -9.354660e-02
-3.999980e+02 -5.600140e+03 -4.000990e+02
2.303240e-03 -5.600140e+03 -4.000970e+02
-3.999950e+02 -5.200250e+03 -4.003110e+02
5.028650e-03 -5.200250e+03 -4.003060e+02
-4.000000e+02 -5.600000e+03 -9.798270e-02
4.103130e-05 -5.600000e+03 -9.569300e-02
-4.000000e+02 -5.200000e+03 -3.089800e-01
6.274590e-05 -5.200000e+03 -3.038180e-01
2.303240e-03 -5.600140e+03 -4.000970e+02
4.000020e+02 -5.600140e+03 -4.000950e+02
5.028650e-03 -5.200250e+03 -4.003060e+02
4.000050e+02 -5.200240e+03 -4.003010e+02
4.103130e-05 -5.600000e+03 -9.569300e-02
4.000000e+02 -5.600000e+03 -9.354660e-02
6.274590e-05 -5.200000e+03 -3.038180e-01
4.000000e+02 -5.200000e+03 -2.986360e-01
-3.999950e+02 -5.200250e+03 -4.003110e+02
5.028650e-03 -5.200250e+03 -4.003060e+02
-3.999920e+02 -4.800340e+03 -4.006230e+02
7.898600e-03 -4.800340e+03 -4.006150e+02
-4.000000e+02 -5.200000e+03 -3.089800e-01
6.274590e-05 -5.200000e+03 -3.038180e-01
-4.000000e+02 -4.800000e+03 -6.193790e-01
1.934860e-05 -4.800000e+03 -6.109500e-01
5.028650e-03 -5.200250e+03 -4.003060e+02
4.000050e+02 -5.200240e+03 -4.003010e+02
7.898600e-03 -4.800340e+03 -4.006150e+02
4.000080e+02 -4.800340e+03 -4.006060e+02
6.274590e-05 -5.200000e+03 -3.038180e-01
4.000000e+02 -5.200000e+03 -2.986360e-01
1.934860e-05 -4.800000e+03 -6.109500e-01
4.000000e+02 -4.800000e+03 -6.023340e-01
-3.999920e+02 -4.800340e+03 -4.006230e+02
7.898600e-03 -4.800340e+03 -4.006150e+02
-3.999900e+02 -4.400410e+03 -4.010160e+02
9.606140e-03 -4.400410e+03 -4.010060e+02
-4.000000e+02 -4.800000e+03 -6.193790e-01
1.934860e-05 -4.800000e+03 -6.109500e-01
-4.000000e+02 -4.400000e+03 -1.013020e+00
1.467090e-06 -4.400000e+03 -1.002910e+00
7.898600e-03 -4.800340e+03 -4.006150e+02
4.000080e+02 -4.800340e+03 -4.006060e+02
9.606140e-03 -4.400410e+03 -4.010060e+02
4.000090e+02 -4.400410e+03 -4.009960e+02
1.934860e-05 -4.800000e+03 -6.109500e-01
4.000000e+02 -4.800000e+03 -6.023340e-01
1.467090e-06 -4.400000e+03 -1.002910e+00
4.000000e+02 -4.400000e+03 -9.926890e-01
-3.999900e+02 -4.400410e+03 -4.010160e+02
9.606140e-03 -4.400410e+03 -4.010060e+02
-3.999920e+02 -4.000460e+03 -4.014660e+02
8.313100e-03 -4.000460e+03 -4.014580e+02
-4.000000e+02 -4.400000e+03 -1.013020e+00
1.467090e-06 -4.400000e+03 -1.002910e+00
-4.000000e+02 -4.000000e+03 -1.464150e+00
-7.486620e-06 -4.000000e+03 -1.456120e+00
9.606140e-03 -4.400410e+03 -4.010060e+02
4.000090e+02 -4.400410e+03 -4.009960e+02
8.313100e-03 -4.000460e+03 -4.014580e+02
4.000080e+02 -4.000460e+03 -4.014490e+02
1.467090e-06 -4.400000e+03 -1.002910e+00
4.000000e+02 -4.400000e+03 -9.926890e-01
-7.486620e-06 -4.000000e+03 -1.456120e+00
4.000000e+02 -4.000000e+03 -1.447910e+00
-3.999920e+02 -4.000460e+03 -4.014660e+02
8.313100e-03 -4.000460e+03 -4.014580e+02
-3.999970e+02 -3.600500e+03 -4.019550e+02
3.155510e-03 -3.600500e+03 -4.019530e+02
-4.000000e+02 -4.000000e+03 -1.464150e+00
-7.486620e-06 -4.000000e+03 -1.456120e+00
-4.000000e+02 -3.600000e+03 -1.955100e+00
-3.890160e-06 -3.600000e+03 -1.952640e+00
8.313100e-03 -4.000460e+03 -4.014580e+02
4.000080e+02 -4.000460e+03 -4.014490e+02
3.155510e-03 -3.600500e+03 -4.019530e+02
4.000030e+02 -3.600500e+03 -4.019500e+02
-7.486620e-06 -4.000000e+03 -1.456120e+00
4.000000e+02 -4.000000e+03 -1.447910e+00
-3.890160e-06 -3.600000e+03 -1.952640e+00
4.000000e+02 -3.600000e+03 -1.950210e+00
-3.999970e+02 -3.600500e+03 -4.019550e+02
3.155510e-03 -3.600500e+03 -4.019530e+02
-4.000050e+02 -3.200510e+03 -4.024620e+02
-4.208820e-03 -3.200510e+03 -4.024670e+02
-4.000000e+02 -3.600000e+03 -1.955100e+00
-3.890160e-06 -3.600000e+03 -1.952640e+00
-4.000000e+02 -3.200000e+03 -2.461310e+00
-5.244650e-05 -3.200000e+03 -2.466500e+00
3.155510e-03 -3.600500e+03 -4.019530e+02
4.000030e+02 -3.600500e+03 -4.019500e+02
-4.208820e-03 -3.200510e+03 -4.024670e+02
3.999960e+02 -3.200510e+03 -4.024720e+02
-3.890160e-06 -3.600000e+03 -1.952640e+00
4.000000e+02 -3.600000e+03 -1.950210e+00
-5.244650e-05 -3.200000e+03 -2.466500e+00
4.000000e+02 -3.200000e+03 -2.470910e+00
-4.000050e+02 -3.200510e+03 -4.024620e+02
-4.208820e-03 -3.200510e+03 -4.024670e+02
-4.000110e+02 -2.800500e+03 -4.029600e+02
-1.059910e-02 -2.800500e+03 -4.029710e+02
-4.000000e+02 -3.200000e+03 -2.461310e+00
-5.244650e-05 -3.200000e+03 -2.466500e+00
-4.000000e+02 -2.800000e+03 -2.958060e+00
-4.257590e-05 -2.800000e+03 -2.968830e+00
-4.208820e-03 -3.200510e+03 -4.024670e+02
3.999960e+02 -3.200510e+03 -4.024720e+02
-1.059910e-02 -2.800500e+03 -4.029710e+02
3.999900e+02 -2.800500e+03 -4.029810e+02
-5.244650e-05 -3.200000e+03 -2.466500e+00
4.000000e+02 -3.200000e+03 -2.470910e+00
-4.257590e-05 -2.800000e+03 -2.968830e+00
4.000000e+02 -2.800000e+03 -2.979230e+00
-4.000110e+02 -2.800500e+03 -4.029600e+02
-1.059910e-02 -2.800500e+03 -4.029710e+02
-4.000140e+02 -2.400500e+03 -4.034480e+02
-1.277310e-02 -2.400500e+03 -4.034610e+02
-4.000000e+02 -2.800000e+03 -2.958060e+00
-4.257590e-05 -2.800000e+03 -2.968830e+00
-4.000000e+02 -2.400000e+03 -3.446230e+00
-8.665550e-05 -2.400000e+03 -3.459290e+00
-1.059910e-02 -2.800500e+03 -4.029710e+02
3.999900e+02 -2.800500e+03 -4.029810e+02
-1.277310e-02 -2.400500e+03 -4.034610e+02
3.999880e+02 -2.400500e+03 -4.034730e+02
-4.257590e-05 -2.800000e+03 -2.968830e+00
4.000000e+02 -2.800000e+03 -2.979230e+00
-8.665550e-05 -2.400000e+03 -3.459290e+00
4.000000e+02 -2.400000e+03 -3.471200e+00
-4.000140e+02 -2.400500e+03 -4.034480e+02
-1.277310e-02 -2.400500e+03 -4.034610e+02
-4.000100e+02 -2.000500e+03 -4.039450e+02
-9.448450e-03 -2.000500e+03 -4.039540e+02
-4.000000e+02 -2.400000e+03 -3.446230e+00
-8.665550e-05 -2.400000e+03 -3.459290e+00
-4.000000e+02 -2.000000e+03 -3.942690e+00
-7.018050e-05 -2.000000e+03 -3.952740e+00
-1.277310e-02 -2.400500e+03 -4.034610e+02
3.999880e+02 -2.400500e+03 -4.034730e+02
-9.448450e-03 -2.000500e+03 -4.039540e+02
3.999910e+02 -2.000500e+03 -4.039630e+02
-8.665550e-05 -2.400000e+03 -3.459290e+00
4.000000e+02 -2.400000e+03 -3.471200e+00
-7.018050e-05 -2.000000e+03 -3.952740e+00
4.000000e+02 -2.000000e+03 -3.961910e+00
-4.000100e+02 -2.000500e+03 -4.039450e+02
-9.448450e-03 -2.000500e+03 -4.039540e+02
-4.000030e+02 -1.600510e+03 -4.044560e+02
-2.028260e-03 -1.600510e+03 -4.044590e+02
-4.000000e+02 -2.000000e+03 -3.942690e+00
-7.018050e-05 -2.000000e+03 -3.952740e+00
-4.000000e+02 -1.600000e+03 -4.455750e+00
-5.821140e-05 -1.600000e+03 -4.459060e+00
-9.448450e-03 -2.000500e+03 -4.039540e+02
3.999910e+02 -2.000500e+03 -4.039630e+02
-2.028260e-03 -1.600510e+03 -4.044590e+02
3.999990e+02 -1.600510e+03 -4.044610e+02
-7.018050e-05 -2.000000e+03 -3.952740e+00
4.000000e+02 -2.000000e+03 -3.961910e+00
-5.821140e-05 -1.600000e+03 -4.459060e+00
4.000000e+02 -1.600000e+03 -4.461050e+00
-4.000030e+02 -1.600510e+03 -4.044560e+02
-2.028260e-03 -1.600510e+03 -4.044590e+02
-3.999940e+02 -1.200520e+03 -4.049820e+02
6.022900e-03 -1.200520e+03 -4.049770e+02
-4.000000e+02 -1.600000e+03 -4.455750e+00
-5.821140e-05 -1.600000e+03 -4.459060e+00
-4.000000e+02 -1.200000e+03 -4.983220e+00
-7.240400e-05 -1.200000e+03 -4.978060e+00
-2.028260e-03 -1.600510e+03 -4.044590e+02
3.999990e+02 -1.600510e+03 -4.044610e+02
6.022900e-03 -1.200520e+03 -4.049770e+02
4.000070e+02 -1.200520e+03 -4.049700e+02
-5.821140e-05 -1.600000e+03 -4.459060e+00
4.000000e+02 -1.600000e+03 -4.461050e+00
-7.240400e-05 -1.200000e+03 -4.978060e+00
4.000000e+02 -1.200000e+03 -4.971900e+00
-3.999940e+02 -1.200520e+03 -4.049820e+02
6.022900e-03 -1.200520e+03 -4.049770e+02
-3.999890e+02 -8.005120e+02 -4.055090e+02
1.123040e-02 -8.005120e+02 -4.054980e+02
-4.000000e+02 -1.200000e+03 -4.983220e+00
-7.240400e-05 -1.200000e+03 -4.978060e+00
-4.000000e+02 -8.000030e+02 -5.509090e+00
-8.443980e-05 -8.000030e+02 -5.498460e+00
6.022900e-03 -1.200520e+03 -4.049770e+02
4.000070e+02 -1.200520e+03 -4.049700e+02
1.123040e-02 -8.005120e+02 -4.054980e+02
4.000120e+02 -8.005120e+02 -4.054860e+02
-7.240400e-05 -1.200000e+03 -4.978060e+00
4.000000e+02 -1.200000e+03 -4.971900e+00
-8.443980e-05 -8.000030e+02 -5.498460e+00
4.000000e+02 -8.000030e+02 -5.486860e+00
-3.999890e+02 -8.005120e+02 -4.055090e+02
1.123040e-02 -8.005120e+02 -4.054980e+02
-3.999890e+02 -4.004990e+02 -4.060150e+02
1.125200e-02 -4.004990e+02 -4.060040e+02
-4.000000e+02 -8.000030e+02 -5.509090e+00
-8.443980e-05 -8.000030e+02 -5.498460e+00
-4.000000e+02 -4.000030e+02 -6.015250e+00
-9.551850e-05 -4.000030e+02 -6.004520e+00
1.123040e-02 -8.005120e+02 -4.054980e+02
4.000120e+02 -8.005120e+02 -4.054860e+02
1.125200e-02 -4.004990e+02 -4.060040e+02
4.000120e+02 -4.004990e+02 -4.059930e+02
-8.443980e-05 -8.000030e+02 -5.498460e+00
4.000000e+02 -8.000030e+02 -5.486860e+00
-9.551850e-05 -4.000030e+02 -6.004520e+00
4.000000e+02 -4.000030e+02 -5.993160e+00
-3.999890e+02 -4.004990e+02 -4.060150e+02
1.125200e-02 -4.004990e+02 -4.060040e+02
-3.999940e+02 -4.860650e-01 -4.065010e+02
6.228810e-03 -4.862680e-01 -4.064950e+02
-4.000000e+02 -4.000030e+02 -6.015250e+00
-9.551850e-05 -4.000030e+02 -6.004520e+00
-4.000000e+02 -3.395590e-03 -6.500950e+00
-4.955180e-05 -3.420690e-03 -6.494770e+00
1.125200e-02 -4.004990e+02 -4.060040e+02
4.000120e+02 -4.004990e+02 -4.059930e+02
[...]
<PointData>
<DataArray type="Float32" Name="V1" format="ascii">
0.000000e+00
0.000000e+00
1.233520e-03
8.965460e-04
0.000000e+00
0.000000e+00
-4.113330e-05
-5.121970e-05
0.000000e+00
0.000000e+00
8.965460e-04
5.595370e-04
0.000000e+00
0.000000e+00
-5.121970e-05
-6.137020e-05
1.233520e-03
8.965460e-04
1.704580e-03
1.179570e-03
-4.113330e-05
-5.121970e-05
-1.071870e-04
-9.402620e-05
8.965460e-04
5.595370e-04
1.179570e-03
6.542670e-04
-5.121970e-05
-6.137020e-05
-9.402620e-05
-8.106810e-05
1.704580e-03
1.179570e-03
1.386660e-03
9.101160e-04
-1.071870e-04
-9.402620e-05
-1.256900e-04
-1.330580e-04
1.179570e-03
6.542670e-04
9.101160e-04
4.334030e-04
-9.402620e-05
-8.106810e-05
-1.330580e-04
-1.405790e-04
1.386660e-03
9.101160e-04
1.383470e-03
7.448840e-04
-1.256900e-04
-1.330580e-04
-1.486400e-04
-1.426360e-04
9.101160e-04
4.334030e-04
7.448840e-04
1.064320e-04
-1.330580e-04
-1.405790e-04
-1.426360e-04
-1.365920e-04
1.383470e-03
7.448840e-04
1.704840e-03
1.202170e-03
-1.486400e-04
-1.426360e-04
-8.642690e-05
-6.496560e-05
7.448840e-04
1.064320e-04
1.202170e-03
6.995650e-04
-1.426360e-04
-1.365920e-04
-6.496560e-05
-4.348930e-05
1.704840e-03
1.202170e-03
1.826960e-03
1.746780e-03
-8.642690e-05
-6.496560e-05
3.634130e-05
-8.895460e-06
1.202170e-03
6.995650e-04
1.746780e-03
1.666480e-03
-6.496560e-05
-4.348930e-05
-8.895460e-06
-5.422710e-05
1.826960e-03
1.746780e-03
1.342290e-03
1.432940e-03
3.634130e-05
-8.895460e-06
6.653380e-05
3.493520e-06
1.746780e-03
1.666480e-03
1.432940e-03
1.523520e-03
-8.895460e-06
-5.422710e-05
3.493520e-06
-5.960140e-05
1.342290e-03
1.432940e-03
4.589120e-05
3.426940e-04
6.653380e-05
3.493520e-06
1.299290e-04
6.319520e-05
1.432940e-03
1.523520e-03
3.426940e-04
6.394470e-04
3.493520e-06
-5.960140e-05
6.319520e-05
-3.489950e-06
4.589120e-05
3.426940e-04
-1.085710e-03
-8.066880e-04
1.299290e-04
6.319520e-05
2.195830e-04
1.066880e-04
3.426940e-04
6.394470e-04
-8.066880e-04
-5.276850e-04
6.319520e-05
-3.489950e-06
1.066880e-04
-6.258660e-06
-1.085710e-03
-8.066880e-04
-1.757150e-03
-1.565150e-03
2.195830e-04
1.066880e-04
1.478100e-04
6.767830e-05
-8.066880e-04
-5.276850e-04
-1.565150e-03
-1.373110e-03
1.066880e-04
-6.258660e-06
6.767830e-05
-1.255090e-05
-1.757150e-03
-1.565150e-03
-2.206690e-03
-2.058130e-03
1.478100e-04
6.767830e-05
-9.379260e-06
-2.063920e-05
-1.565150e-03
-1.373110e-03
-2.058130e-03
-1.909520e-03
6.767830e-05
-1.255090e-05
-2.063920e-05
-3.184420e-05
-2.206690e-03
-2.058130e-03
-2.617980e-03
-2.530280e-03
-9.379260e-06
-2.063920e-05
-4.266310e-05
-1.037220e-05
-2.058130e-03
-1.909520e-03
-2.530280e-03
-2.442450e-03
-2.063920e-05
-3.184420e-05
-1.037220e-05
2.206240e-05
-2.617980e-03
-2.530280e-03
-2.919900e-03
-2.715060e-03
-4.266310e-05
-1.037220e-05
-9.617770e-05
-7.214950e-06
-2.530280e-03
-2.442450e-03
-2.715060e-03
-2.509830e-03
-1.037220e-05
2.206240e-05
-7.214950e-06
8.216360e-05
-2.919900e-03
-2.715060e-03
-1.831660e-03
-1.859020e-03
-9.617770e-05
-7.214950e-06
-1.307440e-04
-1.917450e-05
-2.715060e-03
-2.509830e-03
-1.859020e-03
-1.885900e-03
-7.214950e-06
8.216360e-05
-1.917450e-05
9.289890e-05
-1.831660e-03
-1.859020e-03
8.611560e-04
7.988700e-04
-1.307440e-04
-1.917450e-05
-9.564210e-05
1.407820e-05
-1.859020e-03
-1.885900e-03
7.988700e-04
7.369260e-04
-1.917450e-05
9.289890e-05
1.407820e-05
1.241110e-04
8.611560e-04
7.988700e-04
4.071510e-03
3.925200e-03
-9.564210e-05
1.407820e-05
-1.051690e-04
-3.671460e-06
7.988700e-04
7.369260e-04
3.925200e-03
3.779230e-03
1.407820e-05
1.241110e-04
-3.671460e-06
9.809380e-05
4.071510e-03
3.925200e-03
4.843190e-03
4.892070e-03
-1.051690e-04
-3.671460e-06
-7.462620e-05
-2.749870e-05
3.925200e-03
3.779230e-03
4.892070e-03
4.941250e-03
-3.671460e-06
9.809380e-05
-2.749870e-05
1.990490e-05
4.843190e-03
4.892070e-03
3.248540e-03
3.385570e-03
-7.462620e-05
-2.749870e-05
6.708880e-06
2.728960e-07
4.892070e-03
4.941250e-03
3.385570e-03
3.522790e-03
-2.749870e-05
1.990490e-05
2.728960e-07
-6.042760e-06
3.248540e-03
3.385570e-03
9.130250e-04
9.110350e-04
6.708880e-06
2.728960e-07
3.848620e-05
6.428590e-05
3.385570e-03
3.522790e-03
9.110350e-04
9.090430e-04
2.728960e-07
-6.042760e-06
6.428590e-05
9.019420e-05
9.130250e-04
9.110350e-04
-1.674470e-03
-1.152140e-03
3.848620e-05
6.428590e-05
-5.096620e-05
2.806390e-05
9.110350e-04
9.090430e-04
-1.152140e-03
-6.295230e-04
6.428590e-05
9.019420e-05
2.806390e-05
1.073910e-04
-1.674470e-03
-1.152140e-03
-2.665560e-03
-2.299360e-03
-5.096620e-05
2.806390e-05
2.381770e-05
4.355950e-05
-1.152140e-03
-6.295230e-04
-2.299360e-03
-1.932820e-03
2.806390e-05
1.073910e-04
4.355950e-05
6.369730e-05
-2.665560e-03
-2.299360e-03
-3.004900e-03
-2.574740e-03
2.381770e-05
4.355950e-05
6.699890e-05
5.627820e-05
-2.299360e-03
-1.932820e-03
-2.574740e-03
-2.144260e-03
4.355950e-05
6.369730e-05
5.627820e-05
4.598020e-05
-3.004900e-03
-2.574740e-03
-2.465350e-03
-2.430840e-03
6.699890e-05
5.627820e-05
6.671730e-05
7.583950e-05
-2.574740e-03
-2.144260e-03
-2.430840e-03
-2.395940e-03
5.627820e-05
4.598020e-05
7.583950e-05
8.528600e-05
-2.465350e-03
-2.430840e-03
-1.854210e-03
-1.771630e-03
6.671730e-05
7.583950e-05
6.165650e-05
2.103350e-05
-2.430840e-03
-2.395940e-03
-1.771630e-03
-1.688610e-03
7.583950e-05
8.528600e-05
2.103350e-05
-1.923160e-05
-1.854210e-03
-1.771630e-03
-6.041940e-05
-4.263190e-04
6.165650e-05
2.103350e-05
4.912590e-05
1.525890e-05
-1.771630e-03
-1.688610e-03
-4.263190e-04
-7.920550e-04
2.103350e-05
-1.923160e-05
1.525890e-05
-1.832490e-05
-6.041940e-05
-4.263190e-04
1.303010e-03
1.078790e-03
4.912590e-05
1.525890e-05
3.981360e-05
2.174450e-05
-4.263190e-04
-7.920550e-04
1.078790e-03
8.548040e-04
1.525890e-05
-1.832490e-05
2.174450e-05
4.020100e-06
1.303010e-03
1.078790e-03
1.964690e-03
1.645320e-03
3.981360e-05
2.174450e-05
7.327600e-05
1.355060e-05
1.078790e-03
8.548040e-04
1.645320e-03
1.326310e-03
2.174450e-05
4.020100e-06
1.355060e-05
-4.582340e-05
1.964690e-03
1.645320e-03
1.139600e-03
1.200440e-03
7.327600e-05
1.355060e-05
9.708010e-05
4.626530e-05
1.645320e-03
1.326310e-03
1.200440e-03
1.261630e-03
1.355060e-05
-4.582340e-05
4.626530e-05
-4.167960e-06
1.139600e-03
1.200440e-03
4.669150e-04
3.304710e-04
9.708010e-05
4.626530e-05
1.087750e-04
5.080470e-05
1.200440e-03
1.261630e-03
3.304710e-04
1.945520e-04
4.626530e-05
-4.167960e-06
5.080470e-05
-6.602890e-06
4.669150e-04
3.304710e-04
-6.880770e-04
-5.077250e-04
1.087750e-04
5.080470e-05
1.205720e-04
2.346350e-05
3.304710e-04
1.945520e-04
-5.077250e-04
-3.266210e-04
5.080470e-05
-6.602890e-06
2.346350e-05
-7.304040e-05
0.000000e+00
0.000000e+00
-4.113330e-05
-5.121970e-05
0.000000e+00
0.000000e+00
-1.128340e-03
-7.712460e-04
0.000000e+00
0.000000e+00
-5.121970e-05
-6.137020e-05
0.000000e+00
0.000000e+00
-7.712460e-04
-4.142580e-04
-4.113330e-05
-5.121970e-05
-1.071870e-04
-9.402620e-05
-1.128340e-03
-7.712460e-04
-1.472710e-03
-9.729460e-04
-5.121970e-05
-6.137020e-05
-9.402620e-05
-8.106810e-05
-7.712460e-04
-4.142580e-04
-9.729460e-04
-4.732910e-04
-1.071870e-04
-9.402620e-05
-1.256900e-04
-1.330580e-04
-1.472710e-03
-9.729460e-04
-1.139740e-03
-6.480840e-04
-9.402620e-05
-8.106810e-05
-1.330580e-04
-1.405790e-04
-9.729460e-04
-4.732910e-04
-6.480840e-04
-1.565550e-04
-1.256900e-04
-1.330580e-04
-1.486400e-04
-1.426360e-04
-1.139740e-03
-6.480840e-04
-1.097240e-03
-4.731110e-04
-1.330580e-04
-1.405790e-04
-1.426360e-04
-1.365920e-04
-6.480840e-04
-1.565550e-04
-4.731110e-04
1.510070e-04
-1.486400e-04
-1.426360e-04
-8.642690e-05
-6.496560e-05
-1.097240e-03
-4.731110e-04
-1.527920e-03
-1.067720e-03
-1.426360e-04
-1.365920e-04
-6.496560e-05
-4.348930e-05
-4.731110e-04
1.510070e-04
-1.067720e-03
-6.075510e-04
-8.642690e-05
-6.496560e-05
3.634130e-05
-8.895460e-06
-1.527920e-03
-1.067720e-03
-1.891600e-03
-1.718580e-03
-6.496560e-05
-4.348930e-05
-8.895460e-06
-5.422710e-05
-1.067720e-03
-6.075510e-04
-1.718580e-03
-1.545640e-03
3.634130e-05
-8.895460e-06
6.653380e-05
3.493520e-06
-1.891600e-03
-1.718580e-03
-1.468600e-03
-1.435080e-03
-8.895460e-06
-5.422710e-05
3.493520e-06
-5.960140e-05
-1.718580e-03
-1.545640e-03
-1.435080e-03
-1.401570e-03
6.653380e-05
3.493520e-06
1.299290e-04
6.319520e-05
-1.468600e-03
-1.435080e-03
-3.066690e-04
-4.677220e-04
3.493520e-06
-5.960140e-05
6.319520e-05
-3.489950e-06
-1.435080e-03
-1.401570e-03
-4.677220e-04
-6.287140e-04
1.299290e-04
6.319520e-05
2.195830e-04
1.066880e-04
-3.066690e-04
-4.677220e-04
6.178280e-04
5.631370e-04
6.319520e-05
-3.489950e-06
1.066880e-04
-6.258660e-06
-4.677220e-04
-6.287140e-04
5.631370e-04
5.082800e-04
2.195830e-04
1.066880e-04
1.478100e-04
6.767830e-05
6.178280e-04
5.631370e-04
1.468240e-03
1.436880e-03
1.066880e-04
-6.258660e-06
6.767830e-05
-1.255090e-05
5.631370e-04
5.082800e-04
1.436880e-03
1.405420e-03
1.478100e-04
6.767830e-05
-9.379260e-06
-2.063920e-05
1.468240e-03
1.436880e-03
2.239490e-03
2.111190e-03
6.767830e-05
-1.255090e-05
-2.063920e-05
-3.184420e-05
1.436880e-03
1.405420e-03
2.111190e-03
1.982990e-03
-9.379260e-06
-2.063920e-05
-4.266310e-05
-1.037220e-05
2.239490e-03
2.111190e-03
2.681700e-03
2.533130e-03
-2.063920e-05
-3.184420e-05
-1.037220e-05
2.206240e-05
2.111190e-03
1.982990e-03
2.533130e-03
2.384720e-03
-4.266310e-05
-1.037220e-05
-9.617770e-05
-7.214950e-06
2.681700e-03
2.533130e-03
3.134870e-03
2.749040e-03
-1.037220e-05
2.206240e-05
-7.214950e-06
8.216360e-05
2.533130e-03
2.384720e-03
2.749040e-03
2.363670e-03
-9.617770e-05
-7.214950e-06
-1.307440e-04
-1.917450e-05
3.134870e-03
2.749040e-03
2.079460e-03
1.885060e-03
-7.214950e-06
8.216360e-05
-1.917450e-05
9.289890e-05
2.749040e-03
2.363670e-03
1.885060e-03
1.691130e-03
-1.307440e-04
-1.917450e-05
-9.564210e-05
1.407820e-05
2.079460e-03
1.885060e-03
-6.581850e-04
-8.166080e-04
-1.917450e-05
9.289890e-05
1.407820e-05
1.241110e-04
1.885060e-03
1.691130e-03
-8.166080e-04
-9.746150e-04
-9.564210e-05
1.407820e-05
-1.051690e-04
-3.671460e-06
-6.581850e-04
-8.166080e-04
-3.833050e-03
-3.891340e-03
1.407820e-05
1.241110e-04
-3.671460e-06
9.809380e-05
-8.166080e-04
-9.746150e-04
-3.891340e-03
-3.949480e-03
-1.051690e-04
-3.671460e-06
-7.462620e-05
-2.749870e-05
-3.833050e-03
-3.891340e-03
-4.740770e-03
-4.882510e-03
-3.671460e-06
9.809380e-05
-2.749870e-05
1.990490e-05
-3.891340e-03
-3.949480e-03
-4.882510e-03
-5.024030e-03
-7.462620e-05
-2.749870e-05
6.708880e-06
2.728960e-07
-4.740770e-03
-4.882510e-03
-3.250860e-03
-3.376450e-03
-2.749870e-05
1.990490e-05
2.728960e-07
-6.042760e-06
-4.882510e-03
-5.024030e-03
-3.376450e-03
-3.501870e-03
6.708880e-06
2.728960e-07
3.848620e-05
6.428590e-05
-3.250860e-03
-3.376450e-03
-9.774180e-04
-1.026210e-03
2.728960e-07
-6.042760e-06
6.428590e-05
9.019420e-05
-3.376450e-03
-3.501870e-03
-1.026210e-03
-1.074940e-03
3.848620e-05
6.428590e-05
-5.096620e-05
2.806390e-05
-9.774180e-04
-1.026210e-03
1.768060e-03
1.084870e-03
6.428590e-05
9.019420e-05
2.806390e-05
1.073910e-04
-1.026210e-03
-1.074940e-03
1.084870e-03
4.018640e-04
-5.096620e-05
2.806390e-05
2.381770e-05
4.355950e-05
1.768060e-03
1.084870e-03
2.647710e-03
2.245570e-03
2.806390e-05
1.073910e-04
4.355950e-05
6.369730e-05
1.084870e-03
4.018640e-04
2.245570e-03
1.843880e-03
2.381770e-05
4.355950e-05
6.699890e-05
5.627820e-05
2.647710e-03
2.245570e-03
2.842580e-03
2.427440e-03
4.355950e-05
6.369730e-05
5.627820e-05
4.598020e-05
2.245570e-03
1.843880e-03
2.427440e-03
2.012740e-03
6.699890e-05
5.627820e-05
6.671730e-05
7.583950e-05
2.842580e-03
2.427440e-03
2.320940e-03
2.272730e-03
5.627820e-05
4.598020e-05
7.583950e-05
8.528600e-05
2.427440e-03
2.012740e-03
2.272730e-03
2.224850e-03
6.671730e-05
7.583950e-05
6.165650e-05
2.103350e-05
2.320940e-03
2.272730e-03
1.756520e-03
1.753140e-03
7.583950e-05
8.528600e-05
2.103350e-05
-1.923160e-05
2.272730e-03
2.224850e-03
1.753140e-03
1.750030e-03
6.165650e-05
2.103350e-05
4.912590e-05
1.525890e-05
1.756520e-03
1.753140e-03
-6.846420e-05
3.642150e-04
2.103350e-05
-1.923160e-05
1.525890e-05
-1.832490e-05
1.753140e-03
1.750030e-03
3.642150e-04
7.972030e-04
4.912590e-05
1.525890e-05
3.981360e-05
2.174450e-05
-6.846420e-05
3.642150e-04
-1.352210e-03
-1.090850e-03
1.525890e-05
-1.832490e-05
2.174450e-05
4.020100e-06
3.642150e-04
7.972030e-04
-1.090850e-03
-8.291630e-04
3.981360e-05
2.174450e-05
7.327600e-05
1.355060e-05
-1.352210e-03
-1.090850e-03
-2.104640e-03
-1.668620e-03
2.174450e-05
4.020100e-06
1.355060e-05
-4.582340e-05
-1.090850e-03
-8.291630e-04
-1.668620e-03
-1.232250e-03
7.327600e-05
1.355060e-05
9.708010e-05
4.626530e-05
-2.104640e-03
-1.668620e-03
-1.360510e-03
-1.319390e-03
1.355060e-05
-4.582340e-05
4.626530e-05
-4.167960e-06
-1.668620e-03
-1.232250e-03
-1.319390e-03
-1.277870e-03
9.708010e-05
4.626530e-05
1.087750e-04
5.080470e-05
-1.360510e-03
-1.319390e-03
-6.637950e-04
-4.125820e-04
4.626530e-05
-4.167960e-06
5.080470e-05
-6.602890e-06
-1.319390e-03
-1.277870e-03
-4.125820e-04
-1.607720e-04
1.087750e-04
5.080470e-05
1.205720e-04
2.346350e-05
-6.637950e-04
-4.125820e-04
4.234770e-04
4.367920e-04
5.080470e-05
-6.602890e-06
2.346350e-05
-7.304040e-05
-4.125820e-04
-1.607720e-04
4.367920e-04
4.506740e-04
</DataArray>
<DataArray type="Float32" Name="V2" format="ascii">
0.000000e+00
0.000000e+00
-2.684680e-03
-3.000860e-03
0.000000e+00
0.000000e+00
8.215950e-05
1.264210e-04
0.000000e+00
0.000000e+00
-3.000860e-03
-2.991250e-03
0.000000e+00
0.000000e+00
1.264210e-04
2.895750e-05
-2.684680e-03
-3.000860e-03
-4.125210e-03
-4.073750e-03
8.215950e-05
1.264210e-04
6.173150e-05
7.968160e-05
-3.000860e-03
-2.991250e-03
-4.073750e-03
-4.360320e-03
1.264210e-04
2.895750e-05
7.968160e-05
1.629350e-05
-4.125210e-03
-4.073750e-03
-6.550670e-03
-6.389150e-03
6.173150e-05
7.968160e-05
-1.678760e-04
-1.796570e-04
-4.073750e-03
-4.360320e-03
-6.389150e-03
-6.062730e-03
7.968160e-05
1.629350e-05
-1.796570e-04
-2.060870e-04
-6.550670e-03
-6.389150e-03
-6.754500e-03
-6.784770e-03
-1.678760e-04
-1.796570e-04
-1.238940e-04
-4.048990e-05
-6.389150e-03
-6.062730e-03
-6.784770e-03
-6.224470e-03
-1.796570e-04
-2.060870e-04
-4.048990e-05
-1.649800e-04
-6.754500e-03
-6.784770e-03
-7.364550e-04
-7.157260e-04
-1.238940e-04
-4.048990e-05
1.100420e-05
6.871880e-05
-6.784770e-03
-6.224470e-03
-7.157260e-04
-1.137690e-03
-4.048990e-05
-1.649800e-04
6.871880e-05
3.357760e-05
-7.364550e-04
-7.157260e-04
4.346720e-03
4.214770e-03
1.100420e-05
6.871880e-05
-1.107030e-04
-8.717710e-05
-7.157260e-04
-1.137690e-03
4.214770e-03
3.441820e-03
6.871880e-05
3.357760e-05
-8.717710e-05
-1.860280e-05
4.346720e-03
4.214770e-03
1.998160e-03
1.545000e-03
-1.107030e-04
-8.717710e-05
-1.461910e-05
4.315650e-05
4.214770e-03
3.441820e-03
1.545000e-03
1.280830e-03
-8.717710e-05
-1.860280e-05
4.315650e-05
2.495600e-05
1.998160e-03
1.545000e-03
-2.784780e-03
-3.098720e-03
-1.461910e-05
4.315650e-05
5.089020e-05
-3.783940e-06
1.545000e-03
1.280830e-03
-3.098720e-03
-3.083900e-03
4.315650e-05
2.495600e-05
-3.783940e-06
-4.839080e-05
-2.784780e-03
-3.098720e-03
-2.510080e-03
-2.562280e-03
5.089020e-05
-3.783940e-06
-2.328940e-04
-2.744490e-04
-3.098720e-03
-3.083900e-03
-2.562280e-03
-2.413010e-03
-3.783940e-06
-4.839080e-05
-2.744490e-04
-3.004670e-04
-2.510080e-03
-2.562280e-03
3.359490e-03
3.338790e-03
-2.328940e-04
-2.744490e-04
-2.371790e-04
-1.814410e-04
-2.562280e-03
-2.413010e-03
3.338790e-03
3.476470e-03
-2.744490e-04
-3.004670e-04
-1.814410e-04
-2.093240e-04
3.359490e-03
3.338790e-03
8.527100e-03
8.452220e-03
-2.371790e-04
-1.814410e-04
2.066920e-04
1.470430e-04
3.338790e-03
3.476470e-03
8.452220e-03
8.323480e-03
-1.814410e-04
-2.093240e-04
1.470430e-04
1.271470e-04
8.527100e-03
8.452220e-03
7.045940e-03
7.193340e-03
2.066920e-04
1.470430e-04
2.660120e-04
1.912460e-04
8.452220e-03
8.323480e-03
7.193340e-03
7.167020e-03
1.470430e-04
1.271470e-04
1.912460e-04
9.748770e-05
7.045940e-03
7.193340e-03
1.022750e-03
1.595700e-03
2.660120e-04
1.912460e-04
-4.048380e-05
-2.522550e-05
7.193340e-03
7.167020e-03
1.595700e-03
2.362790e-03
1.912460e-04
9.748770e-05
-2.522550e-05
-1.390340e-04
1.022750e-03
1.595700e-03
-6.410680e-04
-1.917780e-04
-4.048380e-05
-2.522550e-05
-2.175520e-05
-4.648110e-05
1.595700e-03
2.362790e-03
-1.917780e-04
6.694740e-04
-2.522550e-05
-1.390340e-04
-4.648110e-05
-1.010550e-04
-6.410680e-04
-1.917780e-04
1.297030e-03
1.354630e-03
-2.175520e-05
-4.648110e-05
-3.230800e-05
-5.187380e-05
-1.917780e-04
6.694740e-04
1.354630e-03
9.894120e-04
-4.648110e-05
-1.010550e-04
-5.187380e-05
-1.177020e-04
1.297030e-03
1.354630e-03
2.728700e-04
5.439430e-04
-3.230800e-05
-5.187380e-05
2.948430e-05
5.335010e-05
1.354630e-03
9.894120e-04
5.439430e-04
-3.675370e-04
-5.187380e-05
-1.177020e-04
5.335010e-05
4.888720e-06
2.728700e-04
5.439430e-04
-5.214270e-04
-5.367850e-05
2.948430e-05
5.335010e-05
4.181430e-04
3.626880e-04
5.439430e-04
-3.675370e-04
-5.367850e-05
5.127910e-05
5.335010e-05
4.888720e-06
3.626880e-04
3.527440e-04
-5.214270e-04
-5.367850e-05
1.395820e-03
1.796640e-03
4.181430e-04
3.626880e-04
5.159780e-04
4.413840e-04
-5.367850e-05
5.127910e-05
1.796640e-03
2.373010e-03
3.626880e-04
3.527440e-04
4.413840e-04
4.263530e-04
1.395820e-03
1.796640e-03
2.889290e-03
3.821280e-03
5.159780e-04
4.413840e-04
1.574760e-04
2.245250e-04
1.796640e-03
2.373010e-03
3.821280e-03
3.562760e-03
4.413840e-04
4.263530e-04
2.245250e-04
1.989580e-04
2.889290e-03
3.821280e-03
1.675800e-03
2.680300e-03
1.574760e-04
2.245250e-04
-3.284380e-04
-2.697420e-04
3.821280e-03
3.562760e-03
2.680300e-03
2.409690e-03
2.245250e-04
1.989580e-04
-2.697420e-04
-2.000380e-04
1.675800e-03
2.680300e-03
-4.587690e-03
-4.197730e-03
-3.284380e-04
-2.697420e-04
-5.366880e-04
-5.596130e-04
2.680300e-03
2.409690e-03
-4.197730e-03
-3.810720e-03
-2.697420e-04
-2.000380e-04
-5.596130e-04
-4.795920e-04
-4.587690e-03
-4.197730e-03
-1.198360e-02
-1.181210e-02
-5.366880e-04
-5.596130e-04
-5.863980e-04
-5.586430e-04
-4.197730e-03
-3.810720e-03
-1.181210e-02
-1.131490e-02
-5.596130e-04
-4.795920e-04
-5.586430e-04
-6.014110e-04
-1.198360e-02
-1.181210e-02
-9.857090e-03
-9.645490e-03
-5.863980e-04
-5.586430e-04
-3.634550e-04
-3.806940e-04
-1.181210e-02
-1.131490e-02
-9.645490e-03
-9.216860e-03
-5.586430e-04
-6.014110e-04
-3.806940e-04
-3.280140e-04
-9.857090e-03
-9.645490e-03
2.391860e-03
2.420610e-03
-3.634550e-04
-3.806940e-04
2.903420e-04
2.584910e-04
-9.645490e-03
-9.216860e-03
2.420610e-03
3.011220e-03
-3.806940e-04
-3.280140e-04
2.584910e-04
3.628390e-04
2.391860e-03
2.420610e-03
1.114160e-02
1.129820e-02
2.903420e-04
2.584910e-04
5.406710e-04
5.888860e-04
2.420610e-03
3.011220e-03
1.129820e-02
1.197510e-02
2.584910e-04
3.628390e-04
5.888860e-04
5.871380e-04
1.114160e-02
1.129820e-02
5.199910e-03
5.934360e-03
5.406710e-04
5.888860e-04
4.236310e-04
4.119830e-04
1.129820e-02
1.197510e-02
5.934360e-03
6.536050e-03
5.888860e-04
5.871380e-04
4.119830e-04
4.394800e-04
5.199910e-03
5.934360e-03
-6.533190e-03
-5.844110e-03
4.236310e-04
4.119830e-04
3.262420e-04
2.917810e-04
5.934360e-03
6.536050e-03
-5.844110e-03
-5.557900e-03
4.119830e-04
4.394800e-04
2.917810e-04
3.061570e-04
-6.533190e-03
-5.844110e-03
-6.829610e-03
-6.813720e-03
3.262420e-04
2.917810e-04
1.623430e-04
1.793470e-04
-5.844110e-03
-5.557900e-03
-6.813720e-03
-6.865730e-03
2.917810e-04
3.061570e-04
1.793470e-04
1.104380e-04
-6.829610e-03
-6.813720e-03
-6.240700e-05
1.519900e-04
1.623430e-04
1.793470e-04
2.103290e-04
2.065380e-04
-6.813720e-03
-6.865730e-03
1.519900e-04
3.249130e-04
1.793470e-04
1.104380e-04
2.065380e-04
1.719390e-04
-6.240700e-05
1.519900e-04
2.459560e-03
3.275150e-03
2.103290e-04
2.065380e-04
3.578480e-04
3.221160e-04
1.519900e-04
3.249130e-04
3.275150e-03
3.661650e-03
2.065380e-04
1.719390e-04
3.221160e-04
3.353740e-04
0.000000e+00
0.000000e+00
8.215950e-05
1.264210e-04
0.000000e+00
0.000000e+00
2.507690e-03
2.710180e-03
0.000000e+00
0.000000e+00
1.264210e-04
2.895750e-05
0.000000e+00
0.000000e+00
2.710180e-03
2.874450e-03
8.215950e-05
1.264210e-04
6.173150e-05
7.968160e-05
2.507690e-03
2.710180e-03
4.028050e-03
3.935090e-03
1.264210e-04
2.895750e-05
7.968160e-05
1.629350e-05
2.710180e-03
2.874450e-03
3.935090e-03
4.332410e-03
6.173150e-05
7.968160e-05
-1.678760e-04
-1.796570e-04