<?xml version="1.0"?>
<VTKFile type="UnstructuredGrid" version="0.1" byte_order="LittleEndian" compressor="vtkZLibDataCompressor">
<UnstructuredGrid>
<Piece NumberOfPoints="960" NumberOfCells="120">
<Points>
<DataArray type="Float32" NumberOfComponents="3" format="ascii">
-4.000000e+02 -6.000000e+03 -4.000000e+02
0.000000e+00 -6.000000e+03 -4.000000e+02
-4.000090e+02 -5.600370e+03 -4.002070e+02
-8.283100e-03 -5.600370e+03 -4.002150e+02
-4.000000e+02 -6.000000e+03 0.000000e+00
0.000000e+00 -6.000000e+03 0.000000e+00
-4.000000e+02 -5.600000e+03 -2.075670e-01
6.293980e-05 -5.600000e+03 -2.153150e-01
0.000000e+00 -6.000000e+03 -4.000000e+02
4.000000e+02 -6.000000e+03 -4.000000e+02
-8.283100e-03 -5.600370e+03 -4.002150e+02
3.999920e+02 -5.600370e+03 -4.002230e+02
0.000000e+00 -6.000000e+03 0.000000e+00
4.000000e+02 -6.000000e+03 0.000000e+00
6.293980e-05 -5.600000e+03 -2.153150e-01
4.000000e+02 -5.600000e+03 -2.227400e-01
-4.000090e+02 -5.600370e+03 -4.002070e+02
-8.283100e-03 -5.600370e+03 -4.002150e+02
-4.000120e+02 -5.200700e+03 -4.007590e+02
-1.145130e-02 -5.200700e+03 -4.007700e+02
-4.000000e+02 -5.600000e+03 -2.075670e-01
6.293980e-05 -5.600000e+03 -2.153150e-01
-4.000000e+02 -5.200000e+03 -7.599630e-01
1.268430e-04 -5.200000e+03 -7.707840e-01
-8.283100e-03 -5.600370e+03 -4.002150e+02
3.999920e+02 -5.600370e+03 -4.002230e+02
-1.145130e-02 -5.200700e+03 -4.007700e+02
3.999900e+02 -5.200700e+03 -4.007800e+02
6.293980e-05 -5.600000e+03 -2.153150e-01
4.000000e+02 -5.600000e+03 -2.227400e-01
1.268430e-04 -5.200000e+03 -7.707840e-01
4.000000e+02 -5.200000e+03 -7.803830e-01
-4.000120e+02 -5.200700e+03 -4.007590e+02
-1.145130e-02 -5.200700e+03 -4.007700e+02
-4.000090e+02 -4.801010e+03 -4.016310e+02
-8.353660e-03 -4.801010e+03 -4.016400e+02
-4.000000e+02 -5.200000e+03 -7.599630e-01
1.268430e-04 -5.200000e+03 -7.707840e-01
-4.000000e+02 -4.800000e+03 -1.632570e+00
2.293420e-04 -4.800000e+03 -1.641270e+00
-1.145130e-02 -5.200700e+03 -4.007700e+02
3.999900e+02 -5.200700e+03 -4.007800e+02
-8.353660e-03 -4.801010e+03 -4.016400e+02
3.999930e+02 -4.801010e+03 -4.016470e+02
1.268430e-04 -5.200000e+03 -7.707840e-01
4.000000e+02 -5.200000e+03 -7.803830e-01
2.293420e-04 -4.800000e+03 -1.641270e+00
4.000000e+02 -4.800000e+03 -1.647910e+00
-4.000090e+02 -4.801010e+03 -4.016310e+02
-8.353660e-03 -4.801010e+03 -4.016400e+02
-4.000040e+02 -4.401310e+03 -4.028180e+02
-3.092700e-03 -4.401310e+03 -4.028220e+02
-4.000000e+02 -4.800000e+03 -1.632570e+00
2.293420e-04 -4.800000e+03 -1.641270e+00
-4.000000e+02 -4.400000e+03 -2.820050e+00
2.393210e-04 -4.400000e+03 -2.823700e+00
-8.353660e-03 -4.801010e+03 -4.016400e+02
3.999930e+02 -4.801010e+03 -4.016470e+02
-3.092700e-03 -4.401310e+03 -4.028220e+02
3.999980e+02 -4.401310e+03 -4.028240e+02
2.293420e-04 -4.800000e+03 -1.641270e+00
4.000000e+02 -4.800000e+03 -1.647910e+00
2.393210e-04 -4.400000e+03 -2.823700e+00
4.000000e+02 -4.400000e+03 -2.825840e+00
-4.000040e+02 -4.401310e+03 -4.028180e+02
-3.092700e-03 -4.401310e+03 -4.028220e+02
-4.000010e+02 -4.001570e+03 -4.042890e+02
7.331680e-05 -4.001580e+03 -4.042900e+02
-4.000000e+02 -4.400000e+03 -2.820050e+00
2.393210e-04 -4.400000e+03 -2.823700e+00
-4.000000e+02 -4.000010e+03 -4.293120e+00
2.512550e-04 -4.000010e+03 -4.293950e+00
-3.092700e-03 -4.401310e+03 -4.028220e+02
3.999980e+02 -4.401310e+03 -4.028240e+02
7.331680e-05 -4.001580e+03 -4.042900e+02
4.000010e+02 -4.001580e+03 -4.042900e+02
2.393210e-04 -4.400000e+03 -2.823700e+00
4.000000e+02 -4.400000e+03 -2.825840e+00
2.512550e-04 -4.000010e+03 -4.293950e+00
4.000000e+02 -4.000010e+03 -4.293370e+00
-4.000010e+02 -4.001570e+03 -4.042890e+02
7.331680e-05 -4.001580e+03 -4.042900e+02
-4.000010e+02 -3.601810e+03 -4.059950e+02
-1.283080e-04 -3.601810e+03 -4.059960e+02
-4.000000e+02 -4.000010e+03 -4.293120e+00
2.512550e-04 -4.000010e+03 -4.293950e+00
-4.000000e+02 -3.600010e+03 -6.000270e+00
2.421560e-04 -3.600010e+03 -6.001820e+00
7.331680e-05 -4.001580e+03 -4.042900e+02
4.000010e+02 -4.001580e+03 -4.042900e+02
-1.283080e-04 -3.601810e+03 -4.059960e+02
4.000010e+02 -3.601800e+03 -4.059970e+02
2.512550e-04 -4.000010e+03 -4.293950e+00
4.000000e+02 -4.000010e+03 -4.293370e+00
2.421560e-04 -3.600010e+03 -6.001820e+00
4.000000e+02 -3.600010e+03 -6.001810e+00
-4.000010e+02 -3.601810e+03 -4.059950e+02
-1.283080e-04 -3.601810e+03 -4.059960e+02
-4.000030e+02 -3.202010e+03 -4.079100e+02
-1.962630e-03 -3.202010e+03 -4.079130e+02
-4.000000e+02 -3.600010e+03 -6.000270e+00
2.421560e-04 -3.600010e+03 -6.001820e+00
-4.000000e+02 -3.200010e+03 -7.916300e+00
1.788470e-04 -3.200010e+03 -7.919480e+00
-1.283080e-04 -3.601810e+03 -4.059960e+02
4.000010e+02 -3.601800e+03 -4.059970e+02
-1.962630e-03 -3.202010e+03 -4.079130e+02
3.999990e+02 -3.202010e+03 -4.079150e+02
2.421560e-04 -3.600010e+03 -6.001820e+00
4.000000e+02 -3.600010e+03 -6.001810e+00
1.788470e-04 -3.200010e+03 -7.919480e+00
4.000000e+02 -3.200010e+03 -7.920940e+00
-4.000030e+02 -3.202010e+03 -4.079100e+02
-1.962630e-03 -3.202010e+03 -4.079130e+02
-4.000030e+02 -2.802200e+03 -4.100240e+02
-2.122720e-03 -2.802200e+03 -4.100260e+02
-4.000000e+02 -3.200010e+03 -7.916300e+00
1.788470e-04 -3.200010e+03 -7.919480e+00
-4.000000e+02 -2.800020e+03 -1.003170e+01
1.493150e-04 -2.800020e+03 -1.003400e+01
-1.962630e-03 -3.202010e+03 -4.079130e+02
3.999990e+02 -3.202010e+03 -4.079150e+02
-2.122720e-03 -2.802200e+03 -4.100260e+02
3.999990e+02 -2.802200e+03 -4.100280e+02
1.788470e-04 -3.200010e+03 -7.919480e+00
4.000000e+02 -3.200010e+03 -7.920940e+00
1.493150e-04 -2.800020e+03 -1.003400e+01
4.000000e+02 -2.800020e+03 -1.003540e+01
-4.000030e+02 -2.802200e+03 -4.100240e+02
-2.122720e-03 -2.802200e+03 -4.100260e+02
-4.000000e+02 -2.402370e+03 -4.123160e+02
8.278740e-04 -2.402370e+03 -4.123150e+02
-4.000000e+02 -2.800020e+03 -1.003170e+01
1.493150e-04 -2.800020e+03 -1.003400e+01
-4.000000e+02 -2.400020e+03 -1.232420e+01
1.632700e-04 -2.400020e+03 -1.232340e+01
-2.122720e-03 -2.802200e+03 -4.100260e+02
3.999990e+02 -2.802200e+03 -4.100280e+02
8.278740e-04 -2.402370e+03 -4.123150e+02
4.000010e+02 -2.402370e+03 -4.123140e+02
1.493150e-04 -2.800020e+03 -1.003400e+01
4.000000e+02 -2.800020e+03 -1.003540e+01
1.632700e-04 -2.400020e+03 -1.232340e+01
4.000000e+02 -2.400020e+03 -1.232180e+01
-4.000000e+02 -2.402370e+03 -4.123160e+02
8.278740e-04 -2.402370e+03 -4.123150e+02
-3.999960e+02 -2.002500e+03 -4.147590e+02
4.706030e-03 -2.002500e+03 -4.147540e+02
-4.000000e+02 -2.400020e+03 -1.232420e+01
1.632700e-04 -2.400020e+03 -1.232340e+01
-4.000000e+02 -2.000030e+03 -1.476720e+01
8.884360e-05 -2.000030e+03 -1.476280e+01
8.278740e-04 -2.402370e+03 -4.123150e+02
4.000010e+02 -2.402370e+03 -4.123140e+02
4.706030e-03 -2.002500e+03 -4.147540e+02
4.000050e+02 -2.002500e+03 -4.147490e+02
1.632700e-04 -2.400020e+03 -1.232340e+01
4.000000e+02 -2.400020e+03 -1.232180e+01
8.884360e-05 -2.000030e+03 -1.476280e+01
4.000000e+02 -2.000030e+03 -1.475740e+01
-3.999960e+02 -2.002500e+03 -4.147590e+02
4.706030e-03 -2.002500e+03 -4.147540e+02
-3.999940e+02 -1.602600e+03 -4.173030e+02
6.181260e-03 -1.602600e+03 -4.172970e+02
-4.000000e+02 -2.000030e+03 -1.476720e+01
8.884360e-05 -2.000030e+03 -1.476280e+01
-4.000000e+02 -1.600040e+03 -1.731230e+01
4.721730e-05 -1.600040e+03 -1.730640e+01
4.706030e-03 -2.002500e+03 -4.147540e+02
4.000050e+02 -2.002500e+03 -4.147490e+02
6.181260e-03 -1.602600e+03 -4.172970e+02
4.000070e+02 -1.602600e+03 -4.172910e+02
8.884360e-05 -2.000030e+03 -1.476280e+01
4.000000e+02 -2.000030e+03 -1.475740e+01
4.721730e-05 -1.600040e+03 -1.730640e+01
4.000000e+02 -1.600040e+03 -1.730040e+01
-3.999940e+02 -1.602600e+03 -4.173030e+02
6.181260e-03 -1.602600e+03 -4.172970e+02
-3.999970e+02 -1.202670e+03 -4.198960e+02
4.029570e-03 -1.202670e+03 -4.198920e+02
-4.000000e+02 -1.600040e+03 -1.731230e+01
4.721730e-05 -1.600040e+03 -1.730640e+01
-4.000000e+02 -1.200050e+03 -1.990550e+01
-2.069240e-05 -1.200050e+03 -1.990210e+01
6.181260e-03 -1.602600e+03 -4.172970e+02
4.000070e+02 -1.602600e+03 -4.172910e+02
4.029570e-03 -1.202670e+03 -4.198920e+02
4.000050e+02 -1.202670e+03 -4.198880e+02
4.721730e-05 -1.600040e+03 -1.730640e+01
4.000000e+02 -1.600040e+03 -1.730040e+01
-2.069240e-05 -1.200050e+03 -1.990210e+01
4.000000e+02 -1.200050e+03 -1.989840e+01
-3.999970e+02 -1.202670e+03 -4.198960e+02
4.029570e-03 -1.202670e+03 -4.198920e+02
-4.000000e+02 -8.027220e+02 -4.225290e+02
-8.906510e-05 -8.027220e+02 -4.225290e+02
-4.000000e+02 -1.200050e+03 -1.990550e+01
-2.069240e-05 -1.200050e+03 -1.990210e+01
-4.000000e+02 -8.000580e+02 -2.253880e+01
-4.670000e-05 -8.000580e+02 -2.253920e+01
4.029570e-03 -1.202670e+03 -4.198920e+02
4.000050e+02 -1.202670e+03 -4.198880e+02
-8.906510e-05 -8.027220e+02 -4.225290e+02
4.000000e+02 -8.027220e+02 -4.225290e+02
-2.069240e-05 -1.200050e+03 -1.990210e+01
4.000000e+02 -1.200050e+03 -1.989840e+01
-4.670000e-05 -8.000580e+02 -2.253920e+01
4.000000e+02 -8.000580e+02 -2.253930e+01
-4.000000e+02 -8.027220e+02 -4.225290e+02
-8.906510e-05 -8.027220e+02 -4.225290e+02
-4.000030e+02 -4.027650e+02 -4.252120e+02
-2.810770e-03 -4.027660e+02 -4.252150e+02
-4.000000e+02 -8.000580e+02 -2.253880e+01
-4.670000e-05 -8.000580e+02 -2.253920e+01
-4.000000e+02 -4.000670e+02 -2.522230e+01
-2.854430e-05 -4.000670e+02 -2.522560e+01
-8.906510e-05 -8.027220e+02 -4.225290e+02
4.000000e+02 -8.027220e+02 -4.225290e+02
-2.810770e-03 -4.027660e+02 -4.252150e+02
3.999980e+02 -4.027660e+02 -4.252180e+02
-4.670000e-05 -8.000580e+02 -2.253920e+01
4.000000e+02 -8.000580e+02 -2.253930e+01
-2.854430e-05 -4.000670e+02 -2.522560e+01
4.000000e+02 -4.000670e+02 -2.522800e+01
-4.000030e+02 -4.027650e+02 -4.252120e+02
-2.810770e-03 -4.027660e+02 -4.252150e+02
-4.000030e+02 -2.788480e+00 -4.279270e+02
-2.380460e-03 -2.788670e+00 -4.279300e+02
-4.000000e+02 -4.000670e+02 -2.522230e+01
-2.854430e-05 -4.000670e+02 -2.522560e+01
-4.000000e+02 -7.619460e-02 -2.793680e+01
-5.659280e-05 -7.616210e-02 -2.793940e+01
-2.810770e-03 -4.027660e+02 -4.252150e+02
3.999980e+02 -4.027660e+02 -4.252180e+02
[...]
<PointData>
<DataArray type="Float32" Name="V1" format="ascii">
0.000000e+00
0.000000e+00
-3.189980e-05
-1.776050e-04
0.000000e+00
0.000000e+00
1.600650e-04
1.238000e-04
0.000000e+00
0.000000e+00
-1.776050e-04
-3.239030e-04
0.000000e+00
0.000000e+00
1.238000e-04
8.749720e-05
-3.189980e-05
-1.776050e-04
1.461590e-04
-2.536320e-04
1.600650e-04
1.238000e-04
2.725150e-04
2.425330e-04
-1.776050e-04
-3.239030e-04
-2.536320e-04
-6.528920e-04
1.238000e-04
8.749720e-05
2.425330e-04
2.129310e-04
1.461590e-04
-2.536320e-04
-4.319920e-05
-7.817220e-05
2.725150e-04
2.425330e-04
2.733010e-04
2.487880e-04
-2.536320e-04
-6.528920e-04
-7.817220e-05
-1.118510e-04
2.425330e-04
2.129310e-04
2.487880e-04
2.253860e-04
-4.319920e-05
-7.817220e-05
-5.260890e-04
-3.700860e-04
2.733010e-04
2.487880e-04
1.496260e-04
1.592350e-04
-7.817220e-05
-1.118510e-04
-3.700860e-04
-2.135130e-04
2.487880e-04
2.253860e-04
1.592350e-04
1.696180e-04
-5.260890e-04
-3.700860e-04
-2.325990e-03
-1.476610e-03
1.496260e-04
1.592350e-04
1.656400e-04
1.703470e-04
-3.700860e-04
-2.135130e-04
-1.476610e-03
-6.274900e-04
1.592350e-04
1.696180e-04
1.703470e-04
1.743460e-04
-2.325990e-03
-1.476610e-03
-2.780580e-03
-2.149470e-03
1.656400e-04
1.703470e-04
1.261990e-04
1.415860e-04
-1.476610e-03
-6.274900e-04
-2.149470e-03
-1.519470e-03
1.703470e-04
1.743460e-04
1.415860e-04
1.556950e-04
-2.780580e-03
-2.149470e-03
-2.102870e-03
-1.412490e-03
1.261990e-04
1.415860e-04
7.786180e-05
1.163920e-04
-2.149470e-03
-1.519470e-03
-1.412490e-03
-7.234210e-04
1.415860e-04
1.556950e-04
1.163920e-04
1.539910e-04
-2.102870e-03
-1.412490e-03
4.067370e-04
6.085070e-04
7.786180e-05
1.163920e-04
1.058320e-04
8.255520e-05
-1.412490e-03
-7.234210e-04
6.085070e-04
8.091780e-04
1.163920e-04
1.539910e-04
8.255520e-05
5.821570e-05
4.067370e-04
6.085070e-04
1.926380e-03
2.395000e-03
1.058320e-04
8.255520e-05
1.427010e-04
9.697750e-05
6.085070e-04
8.091780e-04
2.395000e-03
2.862010e-03
8.255520e-05
5.821570e-05
9.697750e-05
4.974610e-05
1.926380e-03
2.395000e-03
2.646710e-03
2.968020e-03
1.427010e-04
9.697750e-05
3.927120e-05
-2.980130e-05
2.395000e-03
2.862010e-03
2.968020e-03
3.287470e-03
9.697750e-05
4.974610e-05
-2.980130e-05
-1.006200e-04
2.646710e-03
2.968020e-03
1.427100e-03
2.141830e-03
3.927120e-05
-2.980130e-05
6.417770e-05
1.072060e-07
2.968020e-03
3.287470e-03
2.141830e-03
2.856070e-03
-2.980130e-05
-1.006200e-04
1.072060e-07
-6.497320e-05
1.427100e-03
2.141830e-03
-4.016420e-05
5.084610e-04
6.417770e-05
1.072060e-07
-1.036140e-04
-5.402620e-05
2.141830e-03
2.856070e-03
5.084610e-04
1.057380e-03
1.072060e-07
-6.497320e-05
-5.402620e-05
-4.170770e-06
-4.016420e-05
5.084610e-04
-1.691380e-03
-1.081660e-03
-1.036140e-04
-5.402620e-05
-9.618180e-05
-4.693790e-05
5.084610e-04
1.057380e-03
-1.081660e-03
-4.716130e-04
-5.402620e-05
-4.170770e-06
-4.693790e-05
2.763040e-06
-1.691380e-03
-1.081660e-03
-1.649970e-03
-8.391030e-04
-9.618180e-05
-4.693790e-05
-3.445560e-05
-6.804300e-05
-1.081660e-03
-4.716130e-04
-8.391030e-04
-2.820840e-05
-4.693790e-05
2.763040e-06
-6.804300e-05
-1.015300e-04
-1.649970e-03
-8.391030e-04
-2.667460e-04
6.799210e-04
-3.445560e-05
-6.804300e-05
-2.185640e-05
-7.349770e-05
-8.391030e-04
-2.820840e-05
6.799210e-04
1.626450e-03
-6.804300e-05
-1.015300e-04
-7.349770e-05
-1.251670e-04
-2.667460e-04
6.799210e-04
2.708070e-04
1.486840e-03
-2.185640e-05
-7.349770e-05
5.160130e-05
-4.136340e-05
6.799210e-04
1.626450e-03
1.486840e-03
2.702830e-03
-7.349770e-05
-1.251670e-04
-4.136340e-05
-1.346430e-04
2.708070e-04
1.486840e-03
6.029210e-04
1.364380e-03
5.160130e-05
-4.136340e-05
1.813200e-05
-9.089220e-05
1.486840e-03
2.702830e-03
1.364380e-03
2.125560e-03
-4.136340e-05
-1.346430e-04
-9.089220e-05
-2.006790e-04
6.029210e-04
1.364380e-03
4.760060e-06
9.225630e-04
1.813200e-05
-9.089220e-05
-1.791340e-04
-1.929560e-04
1.364380e-03
2.125560e-03
9.225630e-04
1.839740e-03
-9.089220e-05
-2.006790e-04
-1.929560e-04
-2.074210e-04
4.760060e-06
9.225630e-04
-2.154620e-04
-1.015990e-04
-1.791340e-04
-1.929560e-04
-2.188370e-04
-2.131000e-04
9.225630e-04
1.839740e-03
-1.015990e-04
1.175750e-05
-1.929560e-04
-2.074210e-04
-2.131000e-04
-2.079970e-04
-2.154620e-04
-1.015990e-04
-2.133800e-03
-1.631170e-03
-2.188370e-04
-2.131000e-04
-3.228680e-04
-3.089990e-04
-1.015990e-04
1.175750e-05
-1.631170e-03
-1.129140e-03
-2.131000e-04
-2.079970e-04
-3.089990e-04
-2.953300e-04
-2.133800e-03
-1.631170e-03
-2.201330e-03
-2.613100e-03
-3.228680e-04
-3.089990e-04
-3.863620e-04
-2.733740e-04
-1.631170e-03
-1.129140e-03
-2.613100e-03
-3.024380e-03
-3.089990e-04
-2.953300e-04
-2.733740e-04
-1.595110e-04
-2.201330e-03
-2.613100e-03
-1.745670e-03
-1.467040e-03
-3.863620e-04
-2.733740e-04
-2.842860e-04
-2.056120e-04
-2.613100e-03
-3.024380e-03
-1.467040e-03
-1.186600e-03
-2.733740e-04
-1.595110e-04
-2.056120e-04
-1.256510e-04
-1.745670e-03
-1.467040e-03
1.933650e-03
1.575800e-03
-2.842860e-04
-2.056120e-04
-7.661270e-05
-1.097500e-04
-1.467040e-03
-1.186600e-03
1.575800e-03
1.219520e-03
-2.056120e-04
-1.256510e-04
-1.097500e-04
-1.417270e-04
1.933650e-03
1.575800e-03
4.746340e-03
4.496820e-03
-7.661270e-05
-1.097500e-04
-3.197700e-05
-1.005570e-04
1.575800e-03
1.219520e-03
4.496820e-03
4.248390e-03
-1.097500e-04
-1.417270e-04
-1.005570e-04
-1.679010e-04
4.746340e-03
4.496820e-03
5.591710e-03
4.853910e-03
-3.197700e-05
-1.005570e-04
-1.838920e-05
-7.943980e-05
4.496820e-03
4.248390e-03
4.853910e-03
4.118070e-03
-1.005570e-04
-1.679010e-04
-7.943980e-05
-1.386800e-04
5.591710e-03
4.853910e-03
3.726080e-03
2.468610e-03
-1.838920e-05
-7.943980e-05
-8.048500e-05
-1.169810e-04
4.853910e-03
4.118070e-03
2.468610e-03
1.212680e-03
-7.943980e-05
-1.386800e-04
-1.169810e-04
-1.518570e-04
3.726080e-03
2.468610e-03
-4.842940e-04
-8.847070e-04
-8.048500e-05
-1.169810e-04
2.518740e-05
2.059880e-05
2.468610e-03
1.212680e-03
-8.847070e-04
-1.284570e-03
-1.169810e-04
-1.518570e-04
2.059880e-05
1.711090e-05
-4.842940e-04
-8.847070e-04
-2.019780e-03
-3.128010e-03
2.518740e-05
2.059880e-05
9.058270e-05
1.306150e-04
-8.847070e-04
-1.284570e-03
-3.128010e-03
-4.235170e-03
2.059880e-05
1.711090e-05
1.306150e-04
1.713180e-04
-2.019780e-03
-3.128010e-03
-3.952690e-03
-3.222560e-03
9.058270e-05
1.306150e-04
1.934390e-04
2.160700e-04
-3.128010e-03
-4.235170e-03
-3.222560e-03
-2.491290e-03
1.306150e-04
1.713180e-04
2.160700e-04
2.392600e-04
-3.952690e-03
-3.222560e-03
-2.213780e-03
-2.367380e-03
1.934390e-04
2.160700e-04
2.598030e-04
3.136330e-04
-3.222560e-03
-2.491290e-03
-2.367380e-03
-2.520730e-03
2.160700e-04
2.392600e-04
3.136330e-04
3.682030e-04
0.000000e+00
0.000000e+00
1.600650e-04
1.238000e-04
0.000000e+00
0.000000e+00
-2.649320e-04
-5.838590e-05
0.000000e+00
0.000000e+00
1.238000e-04
8.749720e-05
0.000000e+00
0.000000e+00
-5.838590e-05
1.476990e-04
1.600650e-04
1.238000e-04
2.725150e-04
2.425330e-04
-2.649320e-04
-5.838590e-05
-6.531830e-04
-1.814550e-04
1.238000e-04
8.749720e-05
2.425330e-04
2.129310e-04
-5.838590e-05
1.476990e-04
-1.814550e-04
2.910640e-04
2.725150e-04
2.425330e-04
2.733010e-04
2.487880e-04
-6.531830e-04
-1.814550e-04
-4.237580e-04
-3.457900e-04
2.425330e-04
2.129310e-04
2.487880e-04
2.253860e-04
-1.814550e-04
2.910640e-04
-3.457900e-04
-2.667480e-04
2.733010e-04
2.487880e-04
1.496260e-04
1.592350e-04
-4.237580e-04
-3.457900e-04
1.527770e-04
-1.959540e-05
2.487880e-04
2.253860e-04
1.592350e-04
1.696180e-04
-3.457900e-04
-2.667480e-04
-1.959540e-05
-1.917660e-04
1.496260e-04
1.592350e-04
1.656400e-04
1.703470e-04
1.527770e-04
-1.959540e-05
1.936070e-03
1.083080e-03
1.592350e-04
1.696180e-04
1.703470e-04
1.743460e-04
-1.959540e-05
-1.917660e-04
1.083080e-03
2.298730e-04
1.656400e-04
1.703470e-04
1.261990e-04
1.415860e-04
1.936070e-03
1.083080e-03
2.541210e-03
1.878110e-03
1.703470e-04
1.743460e-04
1.415860e-04
1.556950e-04
1.083080e-03
2.298730e-04
1.878110e-03
1.214100e-03
1.261990e-04
1.415860e-04
7.786180e-05
1.163920e-04
2.541210e-03
1.878110e-03
1.936220e-03
1.174640e-03
1.415860e-04
1.556950e-04
1.163920e-04
1.539910e-04
1.878110e-03
1.214100e-03
1.174640e-03
4.113510e-04
7.786180e-05
1.163920e-04
1.058320e-04
8.255520e-05
1.936220e-03
1.174640e-03
-5.464200e-04
-7.049120e-04
1.163920e-04
1.539910e-04
8.255520e-05
5.821570e-05
1.174640e-03
4.113510e-04
-7.049120e-04
-8.642090e-04
1.058320e-04
8.255520e-05
1.427010e-04
9.697750e-05
-5.464200e-04
-7.049120e-04
-2.220560e-03
-2.587870e-03
8.255520e-05
5.821570e-05
9.697750e-05
4.974610e-05
-7.049120e-04
-8.642090e-04
-2.587870e-03
-2.956610e-03
1.427010e-04
9.697750e-05
3.927120e-05
-2.980130e-05
-2.220560e-03
-2.587870e-03
-2.786810e-03
-2.972830e-03
9.697750e-05
4.974610e-05
-2.980130e-05
-1.006200e-04
-2.587870e-03
-2.956610e-03
-2.972830e-03
-3.160900e-03
3.927120e-05
-2.980130e-05
6.417770e-05
1.072060e-07
-2.786810e-03
-2.972830e-03
-1.521260e-03
-2.101590e-03
-2.980130e-05
-1.006200e-04
1.072060e-07
-6.497320e-05
-2.972830e-03
-3.160900e-03
-2.101590e-03
-2.682690e-03
6.417770e-05
1.072060e-07
-1.036140e-04
-5.402620e-05
-1.521260e-03
-2.101590e-03
2.100570e-04
-4.237350e-04
1.072060e-07
-6.497320e-05
-5.402620e-05
-4.170770e-06
-2.101590e-03
-2.682690e-03
-4.237350e-04
-1.056990e-03
-1.036140e-04
-5.402620e-05
-9.618180e-05
-4.693790e-05
2.100570e-04
-4.237350e-04
1.911660e-03
1.193300e-03
-5.402620e-05
-4.170770e-06
-4.693790e-05
2.763040e-06
-4.237350e-04
-1.056990e-03
1.193300e-03
4.750930e-04
-9.618180e-05
-4.693790e-05
-3.445560e-05
-6.804300e-05
1.911660e-03
1.193300e-03
1.774690e-03
1.046570e-03
-4.693790e-05
2.763040e-06
-6.804300e-05
-1.015300e-04
1.193300e-03
4.750930e-04
1.046570e-03
3.184070e-04
-3.445560e-05
-6.804300e-05
-2.185640e-05
-7.349770e-05
1.774690e-03
1.046570e-03
2.609720e-04
-6.007630e-04
-6.804300e-05
-1.015300e-04
-7.349770e-05
-1.251670e-04
1.046570e-03
3.184070e-04
-6.007630e-04
-1.462480e-03
-2.185640e-05
-7.349770e-05
5.160130e-05
-4.136340e-05
2.609720e-04
-6.007630e-04
-3.743730e-04
-1.407980e-03
-7.349770e-05
-1.251670e-04
-4.136340e-05
-1.346430e-04
-6.007630e-04
-1.462480e-03
-1.407980e-03
-2.441650e-03
5.160130e-05
-4.136340e-05
1.813200e-05
-9.089220e-05
-3.743730e-04
-1.407980e-03
-6.409320e-04
-1.168100e-03
-4.136340e-05
-1.346430e-04
-9.089220e-05
-2.006790e-04
-1.407980e-03
-2.441650e-03
-1.168100e-03
-1.695690e-03
1.813200e-05
-9.089220e-05
-1.791340e-04
-1.929560e-04
-6.409320e-04
-1.168100e-03
3.386630e-04
-5.561720e-04
-9.089220e-05
-2.006790e-04
-1.929560e-04
-2.074210e-04
-1.168100e-03
-1.695690e-03
-5.561720e-04
-1.451630e-03
-1.791340e-04
-1.929560e-04
-2.188370e-04
-2.131000e-04
3.386630e-04
-5.561720e-04
7.006680e-04
5.930420e-04
-1.929560e-04
-2.074210e-04
-2.131000e-04
-2.079970e-04
-5.561720e-04
-1.451630e-03
5.930420e-04
4.849780e-04
-2.188370e-04
-2.131000e-04
-3.228680e-04
-3.089990e-04
7.006680e-04
5.930420e-04
2.763790e-03
2.218890e-03
-2.131000e-04
-2.079970e-04
-3.089990e-04
-2.953300e-04
5.930420e-04
4.849780e-04
2.218890e-03
1.673720e-03
-3.228680e-04
-3.089990e-04
-3.863620e-04
-2.733740e-04
2.763790e-03
2.218890e-03
2.940890e-03
3.128190e-03
-3.089990e-04
-2.953300e-04
-2.733740e-04
-1.595110e-04
2.218890e-03
1.673720e-03
3.128190e-03
3.316170e-03
-3.863620e-04
-2.733740e-04
-2.842860e-04
-2.056120e-04
2.940890e-03
3.128190e-03
2.352750e-03
1.906240e-03
-2.733740e-04
-1.595110e-04
-2.056120e-04
-1.256510e-04
3.128190e-03
3.316170e-03
1.906240e-03
1.461270e-03
-2.842860e-04
-2.056120e-04
-7.661270e-05
-1.097500e-04
2.352750e-03
1.906240e-03
-1.812850e-03
-1.393710e-03
-2.056120e-04
-1.256510e-04
-1.097500e-04
-1.417270e-04
1.906240e-03
1.461270e-03
-1.393710e-03
-9.732190e-04
-7.661270e-05
-1.097500e-04
-3.197700e-05
-1.005570e-04
-1.812850e-03
-1.393710e-03
-4.667180e-03
-4.269590e-03
-1.097500e-04
-1.417270e-04
-1.005570e-04
-1.679010e-04
-1.393710e-03
-9.732190e-04
-4.269590e-03
-3.870960e-03
-3.197700e-05
-1.005570e-04
-1.838920e-05
-7.943980e-05
-4.667180e-03
-4.269590e-03
-5.516050e-03
-4.677340e-03
-1.005570e-04
-1.679010e-04
-7.943980e-05
-1.386800e-04
-4.269590e-03
-3.870960e-03
-4.677340e-03
-3.836710e-03
-1.838920e-05
-7.943980e-05
-8.048500e-05
-1.169810e-04
-5.516050e-03
-4.677340e-03
-3.607370e-03
-2.267260e-03
-7.943980e-05
-1.386800e-04
-1.169810e-04
-1.518570e-04
-4.677340e-03
-3.836710e-03
-2.267260e-03
-9.253180e-04
-8.048500e-05
-1.169810e-04
2.518740e-05
2.059880e-05
-3.607370e-03
-2.267260e-03
4.772700e-04
8.796450e-04
-1.169810e-04
-1.518570e-04
2.059880e-05
1.711090e-05
-2.267260e-03
-9.253180e-04
8.796450e-04
1.282870e-03
2.518740e-05
2.059880e-05
9.058270e-05
1.306150e-04
4.772700e-04
8.796450e-04
1.803010e-03
2.824150e-03
2.059880e-05
1.711090e-05
1.306150e-04
1.713180e-04
8.796450e-04
1.282870e-03
2.824150e-03
3.846270e-03
9.058270e-05
1.306150e-04
1.934390e-04
2.160700e-04
1.803010e-03
2.824150e-03
3.536720e-03
2.762660e-03
1.306150e-04
1.713180e-04
2.160700e-04
2.392600e-04
2.824150e-03
3.846270e-03
2.762660e-03
1.989300e-03
1.934390e-04
2.160700e-04
2.598030e-04
3.136330e-04
3.536720e-03
2.762660e-03
1.786910e-03
1.823720e-03
2.160700e-04
2.392600e-04
3.136330e-04
3.682030e-04
2.762660e-03
1.989300e-03
1.823720e-03
1.861330e-03
</DataArray>
<DataArray type="Float32" Name="V2" format="ascii">
0.000000e+00
0.000000e+00
-1.478330e-03
-1.796310e-03
0.000000e+00
0.000000e+00
4.664800e-04
5.017430e-04
0.000000e+00
0.000000e+00
-1.796310e-03
-1.678450e-03
0.000000e+00
0.000000e+00
5.017430e-04
5.003760e-04
-1.478330e-03
-1.796310e-03
-3.752840e-03
-3.952490e-03
4.664800e-04
5.017430e-04
6.565910e-04
6.887780e-04
-1.796310e-03
-1.678450e-03
-3.952490e-03
-3.715540e-03
5.017430e-04
5.003760e-04
6.887780e-04
7.759680e-04
-3.752840e-03
-3.952490e-03
-2.591310e-03
-2.642960e-03
6.565910e-04
6.887780e-04
3.796360e-04
5.063790e-04
-3.952490e-03
-3.715540e-03
-2.642960e-03
-2.773650e-03
6.887780e-04
7.759680e-04
5.063790e-04
6.231390e-04
-2.591310e-03
-2.642960e-03
-1.116590e-04
3.236900e-04
3.796360e-04
5.063790e-04
4.541900e-04
4.649120e-04
-2.642960e-03
-2.773650e-03
3.236900e-04
-2.447600e-04
5.063790e-04
6.231390e-04
4.649120e-04
5.213710e-04
-1.116590e-04
3.236900e-04
3.124420e-03
3.550510e-03
4.541900e-04
4.649120e-04
3.112820e-04
2.166900e-04
3.236900e-04
-2.447600e-04
3.550510e-03
2.893580e-03
4.649120e-04
5.213710e-04
2.166900e-04
2.368710e-04
3.124420e-03
3.550510e-03
2.386250e-03
2.198900e-03
3.112820e-04
2.166900e-04
-2.847240e-04
-2.109210e-04
3.550510e-03
2.893580e-03
2.198900e-03
1.973500e-03
2.166900e-04
2.368710e-04
-2.109210e-04
-1.832400e-04
2.386250e-03
2.198900e-03
-2.253620e-03
-2.392190e-03
-2.847240e-04
-2.109210e-04
-5.822550e-04
-5.793360e-04
2.198900e-03
1.973500e-03
-2.392190e-03
-2.139280e-03
-2.109210e-04
-1.832400e-04
-5.793360e-04
-5.022860e-04
-2.253620e-03
-2.392190e-03
-3.667650e-03
-3.205770e-03
-5.822550e-04
-5.793360e-04
-3.487060e-04
-4.221700e-04
-2.392190e-03
-2.139280e-03
-3.205770e-03
-3.250490e-03
-5.793360e-04
-5.022860e-04
-4.221700e-04
-3.843950e-04
-3.667650e-03
-3.205770e-03
7.463450e-04
1.244890e-03
-3.487060e-04
-4.221700e-04
-1.850660e-04
-2.073620e-04
-3.205770e-03
-3.250490e-03
1.244890e-03
2.950900e-04
-4.221700e-04
-3.843950e-04
-2.073620e-04
-2.252890e-04
7.463450e-04
1.244890e-03
7.041080e-03
6.960810e-03
-1.850660e-04
-2.073620e-04
2.704820e-04
1.062440e-04
1.244890e-03
2.950900e-04
6.960810e-03
5.266370e-03
-2.073620e-04
-2.252890e-04
1.062440e-04
7.423390e-05
7.041080e-03
6.960810e-03
6.974580e-03
6.648650e-03
2.704820e-04
1.062440e-04
8.868010e-04
7.912780e-04
6.960810e-03
5.266370e-03
6.648650e-03
5.527160e-03
1.062440e-04
7.423390e-05
7.912780e-04
6.620040e-04
6.974580e-03
6.648650e-03
1.331000e-03
1.634180e-03
8.868010e-04
7.912780e-04
6.053070e-04
6.339890e-04
6.648650e-03
5.527160e-03
1.634180e-03
2.330850e-03
7.912780e-04
6.620040e-04
6.339890e-04
5.839030e-04
1.331000e-03
1.634180e-03
9.185130e-04
1.745840e-03
6.053070e-04
6.339890e-04
-2.739740e-04
-3.484900e-04
1.634180e-03
2.330850e-03
1.745840e-03
2.782990e-03
6.339890e-04
5.839030e-04
-3.484900e-04
-1.975990e-04
9.185130e-04
1.745840e-03
1.718010e-03
1.934590e-03
-2.739740e-04
-3.484900e-04
-8.675050e-04
-8.844850e-04
1.745840e-03
2.782990e-03
1.934590e-03
1.783450e-03
-3.484900e-04
-1.975990e-04
-8.844850e-04
-8.447960e-04
1.718010e-03
1.934590e-03
-5.128980e-03
-5.090960e-03
-8.675050e-04
-8.844850e-04
-6.623990e-04
-6.482230e-04
1.934590e-03
1.783450e-03
-5.090960e-03
-5.516410e-03
-8.844850e-04
-8.447960e-04
-6.482230e-04
-6.897580e-04
-5.128980e-03
-5.090960e-03
-7.412780e-03
-7.205210e-03
-6.623990e-04
-6.482230e-04
-2.322090e-04
-3.270310e-04
-5.090960e-03
-5.516410e-03
-7.205210e-03
-6.773910e-03
-6.482230e-04
-6.897580e-04
-3.270310e-04
-1.971510e-04
-7.412780e-03
-7.205210e-03
-2.128780e-03
-2.271700e-03
-2.322090e-04
-3.270310e-04
2.771620e-04
3.253960e-04
-7.205210e-03
-6.773910e-03
-2.271700e-03
-2.040030e-03
-3.270310e-04
-1.971510e-04
3.253960e-04
3.911350e-04
-2.128780e-03
-2.271700e-03
-2.380950e-03
-2.942330e-03
2.771620e-04
3.253960e-04
9.847750e-04
1.013530e-03
-2.271700e-03
-2.040030e-03
-2.942330e-03
-3.578560e-03
3.253960e-04
3.911350e-04
1.013530e-03
9.530860e-04
-2.380950e-03
-2.942330e-03
-4.661840e-03
-5.237080e-03
9.847750e-04
1.013530e-03
8.495620e-04
7.858940e-04
-2.942330e-03
-3.578560e-03
-5.237080e-03
-6.145300e-03
1.013530e-03
9.530860e-04
7.858940e-04
8.003520e-04
-4.661840e-03
-5.237080e-03
-3.124570e-03
-3.873020e-03
8.495620e-04
7.858940e-04
5.651420e-05
2.290160e-04
-5.237080e-03
-6.145300e-03
-3.873020e-03
-4.165510e-03
7.858940e-04
8.003520e-04
2.290160e-04
2.118640e-04
-3.124570e-03
-3.873020e-03
-4.068320e-03
-4.297660e-03
5.651420e-05
2.290160e-04
-5.217850e-04
-3.837990e-04
-3.873020e-03
-4.165510e-03
-4.297660e-03
-4.260230e-03
2.290160e-04
2.118640e-04
-3.837990e-04
-4.528990e-04
-4.068320e-03
-4.297660e-03
-3.906810e-03
-3.256760e-03
-5.217850e-04
-3.837990e-04
-4.679660e-04
-5.554670e-04
-4.297660e-03
-4.260230e-03
-3.256760e-03
-3.078740e-03
-3.837990e-04
-4.528990e-04
-5.554670e-04
-4.579890e-04
-3.906810e-03
-3.256760e-03
1.900320e-03
2.814670e-03
-4.679660e-04
-5.554670e-04
-1.157060e-04
-1.026720e-04
-3.256760e-03
-3.078740e-03
2.814670e-03
3.488610e-03
-5.554670e-04
-4.579890e-04
-1.026720e-04
2.332320e-05
1.900320e-03
2.814670e-03
6.488820e-03
7.188490e-03
-1.157060e-04
-1.026720e-04
2.061210e-04
3.657540e-04
2.814670e-03
3.488610e-03
7.188490e-03
7.593400e-03
-1.026720e-04
2.332320e-05
3.657540e-04
4.300100e-04
6.488820e-03
7.188490e-03
8.446380e-03
8.301650e-03
2.061210e-04
3.657540e-04
3.744910e-04
4.704000e-04
7.188490e-03
7.593400e-03
8.301650e-03
7.819150e-03
3.657540e-04
4.300100e-04
4.704000e-04
5.980780e-04
8.446380e-03
8.301650e-03
7.086180e-03
6.703460e-03
3.744910e-04
4.704000e-04
1.268660e-04
5.989130e-05
8.301650e-03
7.819150e-03
6.703460e-03
5.421540e-03
4.704000e-04
5.980780e-04
5.989130e-05
1.106860e-04
7.086180e-03
6.703460e-03
1.586550e-03
1.421190e-03
1.268660e-04
5.989130e-05
-3.575760e-04
-4.196800e-04
6.703460e-03
5.421540e-03
1.421190e-03
1.062400e-03
5.989130e-05
1.106860e-04
-4.196800e-04
-5.010010e-04
1.586550e-03
1.421190e-03
-4.042770e-03
-3.152180e-03
-3.575760e-04
-4.196800e-04
-4.629150e-04
-4.794340e-04
1.421190e-03
1.062400e-03
-3.152180e-03
-3.186450e-03
-4.196800e-04
-5.010010e-04
-4.794340e-04
-4.584210e-04
-4.042770e-03
-3.152180e-03
-8.747280e-03
-8.213250e-03
-4.629150e-04
-4.794340e-04
3.453060e-05
3.704930e-05
-3.152180e-03
-3.186450e-03
-8.213250e-03
-8.909630e-03
-4.794340e-04
-4.584210e-04
3.704930e-05
1.069340e-04
-8.747280e-03
-8.213250e-03
-1.115570e-02
-1.193990e-02
3.453060e-05
3.704930e-05
3.180570e-04
3.845840e-04
-8.213250e-03
-8.909630e-03
-1.193990e-02
-1.251470e-02
3.704930e-05
1.069340e-04
3.845840e-04
3.407650e-04
0.000000e+00
0.000000e+00
4.664800e-04
5.017430e-04
0.000000e+00
0.000000e+00
7.280910e-04
1.088030e-03
0.000000e+00
0.000000e+00
5.017430e-04
5.003760e-04
0.000000e+00
0.000000e+00
1.088030e-03
1.090080e-03
4.664800e-04
5.017430e-04
6.565910e-04
6.887780e-04
7.280910e-04
1.088030e-03
2.556220e-03
2.754570e-03
5.017430e-04
5.003760e-04
6.887780e-04
7.759680e-04
1.088030e-03
1.090080e-03
2.754570e-03
2.446110e-03