<?xml version="1.0"?>
<VTKFile type="UnstructuredGrid" version="0.1" byte_order="LittleEndian" compressor="vtkZLibDataCompressor">
<UnstructuredGrid>
<Piece NumberOfPoints="960" NumberOfCells="120">
<Points>
<DataArray type="Float32" NumberOfComponents="3" format="ascii">
-4.000000e+02 -6.000000e+03 -4.000000e+02
0.000000e+00 -6.000000e+03 -4.000000e+02
-3.999970e+02 -5.600650e+03 -4.003360e+02
3.759080e-03 -5.600650e+03 -4.003340e+02
-4.000000e+02 -6.000000e+03 0.000000e+00
0.000000e+00 -6.000000e+03 0.000000e+00
-4.000000e+02 -5.600000e+03 -3.358070e-01
1.184960e-04 -5.600000e+03 -3.328950e-01
0.000000e+00 -6.000000e+03 -4.000000e+02
4.000000e+02 -6.000000e+03 -4.000000e+02
3.759080e-03 -5.600650e+03 -4.003340e+02
4.000040e+02 -5.600650e+03 -4.003300e+02
0.000000e+00 -6.000000e+03 0.000000e+00
4.000000e+02 -6.000000e+03 0.000000e+00
1.184960e-04 -5.600000e+03 -3.328950e-01
4.000000e+02 -5.600000e+03 -3.294320e-01
-3.999970e+02 -5.600650e+03 -4.003360e+02
3.759080e-03 -5.600650e+03 -4.003340e+02
-3.999960e+02 -5.201270e+03 -4.013110e+02
5.232150e-03 -5.201270e+03 -4.013070e+02
-4.000000e+02 -5.600000e+03 -3.358070e-01
1.184960e-04 -5.600000e+03 -3.328950e-01
-4.000000e+02 -5.200000e+03 -1.311620e+00
1.216400e-04 -5.200000e+03 -1.307440e+00
3.759080e-03 -5.600650e+03 -4.003340e+02
4.000040e+02 -5.600650e+03 -4.003300e+02
5.232150e-03 -5.201270e+03 -4.013070e+02
4.000060e+02 -5.201270e+03 -4.013020e+02
1.184960e-04 -5.600000e+03 -3.328950e-01
4.000000e+02 -5.600000e+03 -3.294320e-01
1.216400e-04 -5.200000e+03 -1.307440e+00
4.000000e+02 -5.200000e+03 -1.302080e+00
-3.999960e+02 -5.201270e+03 -4.013110e+02
5.232150e-03 -5.201270e+03 -4.013070e+02
-3.999960e+02 -4.801870e+03 -4.028940e+02
3.915600e-03 -4.801870e+03 -4.028900e+02
-4.000000e+02 -5.200000e+03 -1.311620e+00
1.216400e-04 -5.200000e+03 -1.307440e+00
-4.000000e+02 -4.800000e+03 -2.897630e+00
6.912960e-05 -4.800000e+03 -2.894300e+00
5.232150e-03 -5.201270e+03 -4.013070e+02
4.000060e+02 -5.201270e+03 -4.013020e+02
3.915600e-03 -4.801870e+03 -4.028900e+02
4.000040e+02 -4.801880e+03 -4.028860e+02
1.216400e-04 -5.200000e+03 -1.307440e+00
4.000000e+02 -5.200000e+03 -1.302080e+00
6.912960e-05 -4.800000e+03 -2.894300e+00
4.000000e+02 -4.800000e+03 -2.890050e+00
-3.999960e+02 -4.801870e+03 -4.028940e+02
3.915600e-03 -4.801870e+03 -4.028900e+02
-3.999990e+02 -4.402450e+03 -4.050660e+02
1.369320e-03 -4.402460e+03 -4.050650e+02
-4.000000e+02 -4.800000e+03 -2.897630e+00
6.912960e-05 -4.800000e+03 -2.894300e+00
-4.000000e+02 -4.400010e+03 -5.076370e+00
1.396520e-05 -4.400010e+03 -5.076100e+00
3.915600e-03 -4.801870e+03 -4.028900e+02
4.000040e+02 -4.801880e+03 -4.028860e+02
1.369320e-03 -4.402460e+03 -4.050650e+02
4.000010e+02 -4.402460e+03 -4.050650e+02
6.912960e-05 -4.800000e+03 -2.894300e+00
4.000000e+02 -4.800000e+03 -2.890050e+00
1.396520e-05 -4.400010e+03 -5.076100e+00
4.000000e+02 -4.400010e+03 -5.075260e+00
-3.999990e+02 -4.402450e+03 -4.050660e+02
1.369320e-03 -4.402460e+03 -4.050650e+02
-4.000010e+02 -4.003010e+03 -4.078030e+02
-9.167200e-04 -4.003010e+03 -4.078040e+02
-4.000000e+02 -4.400010e+03 -5.076370e+00
1.396520e-05 -4.400010e+03 -5.076100e+00
-4.000000e+02 -4.000020e+03 -7.819890e+00
-3.506230e-05 -4.000020e+03 -7.821770e+00
1.369320e-03 -4.402460e+03 -4.050650e+02
4.000010e+02 -4.402460e+03 -4.050650e+02
-9.167200e-04 -4.003010e+03 -4.078040e+02
3.999990e+02 -4.003010e+03 -4.078060e+02
1.396520e-05 -4.400010e+03 -5.076100e+00
4.000000e+02 -4.400010e+03 -5.075260e+00
-3.506230e-05 -4.000020e+03 -7.821770e+00
4.000000e+02 -4.000020e+03 -7.824190e+00
-4.000010e+02 -4.003010e+03 -4.078030e+02
-9.167200e-04 -4.003010e+03 -4.078040e+02
-4.000010e+02 -3.603540e+03 -4.110640e+02
-1.348920e-03 -3.603540e+03 -4.110660e+02
-4.000000e+02 -4.000020e+03 -7.819890e+00
-3.506230e-05 -4.000020e+03 -7.821770e+00
-4.000000e+02 -3.600030e+03 -1.108570e+01
5.872680e-05 -3.600030e+03 -1.108770e+01
-9.167200e-04 -4.003010e+03 -4.078040e+02
3.999990e+02 -4.003010e+03 -4.078060e+02
-1.348920e-03 -3.603540e+03 -4.110660e+02
3.999990e+02 -3.603540e+03 -4.110680e+02
-3.506230e-05 -4.000020e+03 -7.821770e+00
4.000000e+02 -4.000020e+03 -7.824190e+00
5.872680e-05 -3.600030e+03 -1.108770e+01
4.000000e+02 -3.600030e+03 -1.108970e+01
-4.000010e+02 -3.603540e+03 -4.110640e+02
-1.348920e-03 -3.603540e+03 -4.110660e+02
-3.999990e+02 -3.204050e+03 -4.148300e+02
7.331500e-04 -3.204050e+03 -4.148290e+02
-4.000000e+02 -3.600030e+03 -1.108570e+01
5.872680e-05 -3.600030e+03 -1.108770e+01
-4.000000e+02 -3.200050e+03 -1.485340e+01
6.610360e-05 -3.200050e+03 -1.485330e+01
-1.348920e-03 -3.603540e+03 -4.110660e+02
3.999990e+02 -3.603540e+03 -4.110680e+02
7.331500e-04 -3.204050e+03 -4.148290e+02
4.000010e+02 -3.204050e+03 -4.148290e+02
5.872680e-05 -3.600030e+03 -1.108770e+01
4.000000e+02 -3.600030e+03 -1.108970e+01
6.610360e-05 -3.200050e+03 -1.485330e+01
4.000000e+02 -3.200050e+03 -1.485310e+01
-3.999990e+02 -3.204050e+03 -4.148300e+02
7.331500e-04 -3.204050e+03 -4.148290e+02
-3.999980e+02 -2.804540e+03 -4.190840e+02
2.961260e-03 -2.804540e+03 -4.190820e+02
-4.000000e+02 -3.200050e+03 -1.485340e+01
6.610360e-05 -3.200050e+03 -1.485330e+01
-4.000000e+02 -2.800070e+03 -1.910930e+01
5.910210e-05 -2.800070e+03 -1.910780e+01
7.331500e-04 -3.204050e+03 -4.148290e+02
4.000010e+02 -3.204050e+03 -4.148290e+02
2.961260e-03 -2.804540e+03 -4.190820e+02
4.000040e+02 -2.804550e+03 -4.190800e+02
6.610360e-05 -3.200050e+03 -1.485330e+01
4.000000e+02 -3.200050e+03 -1.485310e+01
5.910210e-05 -2.800070e+03 -1.910780e+01
4.000000e+02 -2.800070e+03 -1.910540e+01
-3.999980e+02 -2.804540e+03 -4.190840e+02
2.961260e-03 -2.804540e+03 -4.190820e+02
-3.999980e+02 -2.405020e+03 -4.238010e+02
2.265180e-03 -2.405020e+03 -4.238000e+02
-4.000000e+02 -2.800070e+03 -1.910930e+01
5.910210e-05 -2.800070e+03 -1.910780e+01
-4.000000e+02 -2.400100e+03 -2.383080e+01
7.042000e-05 -2.400100e+03 -2.383000e+01
2.961260e-03 -2.804540e+03 -4.190820e+02
4.000040e+02 -2.804550e+03 -4.190800e+02
2.265180e-03 -2.405020e+03 -4.238000e+02
4.000030e+02 -2.405020e+03 -4.237990e+02
5.910210e-05 -2.800070e+03 -1.910780e+01
4.000000e+02 -2.800070e+03 -1.910540e+01
7.042000e-05 -2.400100e+03 -2.383000e+01
4.000000e+02 -2.400100e+03 -2.382890e+01
-3.999980e+02 -2.405020e+03 -4.238010e+02
2.265180e-03 -2.405020e+03 -4.238000e+02
-4.000020e+02 -2.005470e+03 -4.289540e+02
-1.909170e-03 -2.005470e+03 -4.289570e+02
-4.000000e+02 -2.400100e+03 -2.383080e+01
7.042000e-05 -2.400100e+03 -2.383000e+01
-4.000000e+02 -2.000130e+03 -2.899020e+01
6.581220e-05 -2.000130e+03 -2.899370e+01
2.265180e-03 -2.405020e+03 -4.238000e+02
4.000030e+02 -2.405020e+03 -4.237990e+02
-1.909170e-03 -2.005470e+03 -4.289570e+02
3.999990e+02 -2.005470e+03 -4.289600e+02
7.042000e-05 -2.400100e+03 -2.383000e+01
4.000000e+02 -2.400100e+03 -2.382890e+01
6.581220e-05 -2.000130e+03 -2.899370e+01
4.000000e+02 -2.000130e+03 -2.899680e+01
-4.000020e+02 -2.005470e+03 -4.289540e+02
-1.909170e-03 -2.005470e+03 -4.289570e+02
-4.000070e+02 -1.605890e+03 -4.345050e+02
-6.869920e-03 -1.605890e+03 -4.345120e+02
-4.000000e+02 -2.000130e+03 -2.899020e+01
6.581220e-05 -2.000130e+03 -2.899370e+01
-4.000000e+02 -1.600170e+03 -3.454900e+01
7.856000e-05 -1.600170e+03 -3.455640e+01
-1.909170e-03 -2.005470e+03 -4.289570e+02
3.999990e+02 -2.005470e+03 -4.289600e+02
-6.869920e-03 -1.605890e+03 -4.345120e+02
3.999930e+02 -1.605890e+03 -4.345190e+02
6.581220e-05 -2.000130e+03 -2.899370e+01
4.000000e+02 -2.000130e+03 -2.899680e+01
7.856000e-05 -1.600170e+03 -3.455640e+01
4.000000e+02 -1.600170e+03 -3.456370e+01
-4.000070e+02 -1.605890e+03 -4.345050e+02
-6.869920e-03 -1.605890e+03 -4.345120e+02
-4.000090e+02 -1.206290e+03 -4.404190e+02
-8.092820e-03 -1.206290e+03 -4.404270e+02
-4.000000e+02 -1.600170e+03 -3.454900e+01
7.856000e-05 -1.600170e+03 -3.455640e+01
-4.000000e+02 -1.200210e+03 -4.046920e+01
9.855400e-05 -1.200210e+03 -4.047690e+01
-6.869920e-03 -1.605890e+03 -4.345120e+02
3.999930e+02 -1.605890e+03 -4.345190e+02
-8.092820e-03 -1.206290e+03 -4.404270e+02
3.999920e+02 -1.206290e+03 -4.404330e+02
7.856000e-05 -1.600170e+03 -3.455640e+01
4.000000e+02 -1.600170e+03 -3.456370e+01
9.855400e-05 -1.200210e+03 -4.047690e+01
4.000000e+02 -1.200210e+03 -4.048370e+01
-4.000090e+02 -1.206290e+03 -4.404190e+02
-8.092820e-03 -1.206290e+03 -4.404270e+02
-4.000040e+02 -8.066760e+02 -4.466830e+02
-3.560490e-03 -8.066770e+02 -4.466870e+02
-4.000000e+02 -1.200210e+03 -4.046920e+01
9.855400e-05 -1.200210e+03 -4.047690e+01
-4.000000e+02 -8.002600e+02 -4.673780e+01
1.035250e-04 -8.002600e+02 -4.674140e+01
-8.092820e-03 -1.206290e+03 -4.404270e+02
3.999920e+02 -1.206290e+03 -4.404330e+02
-3.560490e-03 -8.066770e+02 -4.466870e+02
3.999970e+02 -8.066780e+02 -4.466900e+02
9.855400e-05 -1.200210e+03 -4.047690e+01
4.000000e+02 -1.200210e+03 -4.048370e+01
1.035250e-04 -8.002600e+02 -4.674140e+01
4.000000e+02 -8.002600e+02 -4.674370e+01
-4.000040e+02 -8.066760e+02 -4.466830e+02
-3.560490e-03 -8.066770e+02 -4.466870e+02
-3.999980e+02 -4.070440e+02 -4.532850e+02
3.255410e-03 -4.070440e+02 -4.532830e+02
-4.000000e+02 -8.002600e+02 -4.673780e+01
1.035250e-04 -8.002600e+02 -4.674140e+01
-4.000000e+02 -4.003140e+02 -5.334060e+01
8.703220e-05 -4.003140e+02 -5.333860e+01
-3.560490e-03 -8.066770e+02 -4.466870e+02
3.999970e+02 -8.066780e+02 -4.466900e+02
3.255410e-03 -4.070440e+02 -4.532830e+02
4.000050e+02 -4.070460e+02 -4.532800e+02
1.035250e-04 -8.002600e+02 -4.674140e+01
4.000000e+02 -8.002600e+02 -4.674370e+01
8.703220e-05 -4.003140e+02 -5.333860e+01
4.000000e+02 -4.003130e+02 -5.333490e+01
-3.999980e+02 -4.070440e+02 -4.532850e+02
3.255410e-03 -4.070440e+02 -4.532830e+02
-3.999940e+02 -7.383390e+00 -4.601830e+02
6.898690e-03 -7.383820e+00 -4.601780e+02
-4.000000e+02 -4.003140e+02 -5.334060e+01
8.703220e-05 -4.003140e+02 -5.333860e+01
-4.000000e+02 -3.738690e-01 -6.024030e+01
2.665170e-04 -3.738000e-01 -6.023450e+01
3.255410e-03 -4.070440e+02 -4.532830e+02
4.000050e+02 -4.070460e+02 -4.532800e+02
6.898690e-03 -7.383820e+00 -4.601780e+02
[...]
<PointData>
<DataArray type="Float32" Name="V1" format="ascii">
0.000000e+00
0.000000e+00
1.144080e-03
8.333690e-04
0.000000e+00
0.000000e+00
-2.220610e-05
4.976630e-05
0.000000e+00
0.000000e+00
8.333690e-04
5.232060e-04
0.000000e+00
0.000000e+00
4.976630e-05
1.219980e-04
1.144080e-03
8.333690e-04
1.156380e-03
1.236370e-03
-2.220610e-05
4.976630e-05
2.155530e-05
5.297640e-05
8.333690e-04
5.232060e-04
1.236370e-03
1.316460e-03
4.976630e-05
1.219980e-04
5.297640e-05
8.530650e-05
1.156380e-03
1.236370e-03
3.788280e-04
7.003620e-04
2.155530e-05
5.297640e-05
-4.927260e-05
4.042560e-05
1.236370e-03
1.316460e-03
7.003620e-04
1.023080e-03
5.297640e-05
8.530650e-05
4.042560e-05
1.314540e-04
3.788280e-04
7.003620e-04
-1.225770e-03
1.469660e-04
-4.927260e-05
4.042560e-05
5.224630e-05
8.429430e-05
7.003620e-04
1.023080e-03
1.469660e-04
1.521070e-03
4.042560e-05
1.314540e-04
8.429430e-05
1.167860e-04
-1.225770e-03
1.469660e-04
-9.142850e-04
5.453400e-04
5.224630e-05
8.429430e-05
1.444400e-04
8.026710e-05
1.469660e-04
1.521070e-03
5.453400e-04
2.005240e-03
8.429430e-05
1.167860e-04
8.026710e-05
1.648520e-05
-9.142850e-04
5.453400e-04
-3.572190e-04
1.258460e-03
1.444400e-04
8.026710e-05
1.103210e-04
-1.036500e-05
5.453400e-04
2.005240e-03
1.258460e-03
2.873780e-03
8.026710e-05
1.648520e-05
-1.036500e-05
-1.312580e-04
-3.572190e-04
1.258460e-03
-2.035950e-04
1.132590e-03
1.103210e-04
-1.036500e-05
9.408280e-05
-6.806780e-05
1.258460e-03
2.873780e-03
1.132590e-03
2.468450e-03
-1.036500e-05
-1.312580e-04
-6.806780e-05
-2.305260e-04
-2.035950e-04
1.132590e-03
-8.590540e-04
-1.467770e-04
9.408280e-05
-6.806780e-05
-1.518230e-05
-2.038650e-04
1.132590e-03
2.468450e-03
-1.467770e-04
5.654020e-04
-6.806780e-05
-2.305260e-04
-2.038650e-04
-3.922600e-04
-8.590540e-04
-1.467770e-04
-2.034990e-03
-1.408330e-03
-1.518230e-05
-2.038650e-04
-9.239870e-05
-2.165700e-04
-1.467770e-04
5.654020e-04
-1.408330e-03
-7.815340e-04
-2.038650e-04
-3.922600e-04
-2.165700e-04
-3.406400e-04
-2.034990e-03
-1.408330e-03
-1.492530e-03
-1.033520e-03
-9.239870e-05
-2.165700e-04
-9.766080e-05
-1.595480e-04
-1.408330e-03
-7.815340e-04
-1.033520e-03
-5.737390e-04
-2.165700e-04
-3.406400e-04
-1.595480e-04
-2.215040e-04
-1.492530e-03
-1.033520e-03
-1.310460e-03
-4.508600e-04
-9.766080e-05
-1.595480e-04
-1.550040e-06
-9.284520e-05
-1.033520e-03
-5.737390e-04
-4.508600e-04
4.083840e-04
-1.595480e-04
-2.215040e-04
-9.284520e-05
-1.842950e-04
-1.310460e-03
-4.508600e-04
-1.776670e-03
-8.884410e-04
-1.550040e-06
-9.284520e-05
-5.319680e-05
-5.114600e-05
-4.508600e-04
4.083840e-04
-8.884410e-04
6.280760e-07
-9.284520e-05
-1.842950e-04
-5.114600e-05
-4.817880e-05
-1.776670e-03
-8.884410e-04
-1.895490e-03
-9.590240e-04
-5.319680e-05
-5.114600e-05
1.374490e-04
1.127030e-04
-8.884410e-04
6.280760e-07
-9.590240e-04
-2.125340e-05
-5.114600e-05
-4.817880e-05
1.127030e-04
8.932950e-05
-1.895490e-03
-9.590240e-04
-7.850060e-04
3.310250e-04
1.374490e-04
1.127030e-04
1.798150e-04
1.289670e-04
-9.590240e-04
-2.125340e-05
3.310250e-04
1.447520e-03
1.127030e-04
8.932950e-05
1.289670e-04
7.899260e-05
-7.850060e-04
3.310250e-04
3.182210e-04
1.341330e-03
1.798150e-04
1.289670e-04
1.894950e-04
1.826770e-04
3.310250e-04
1.447520e-03
1.341330e-03
2.365080e-03
1.289670e-04
7.899260e-05
1.826770e-04
1.764320e-04
3.182210e-04
1.341330e-03
3.372410e-04
1.501940e-03
1.894950e-04
1.826770e-04
2.352750e-04
2.061260e-04
1.341330e-03
2.365080e-03
1.501940e-03
2.667980e-03
1.826770e-04
1.764320e-04
2.061260e-04
1.778940e-04
3.372410e-04
1.501940e-03
1.301310e-04
9.530620e-04
2.352750e-04
2.061260e-04
2.103330e-04
2.724000e-04
1.501940e-03
2.667980e-03
9.530620e-04
1.777180e-03
2.061260e-04
1.778940e-04
2.724000e-04
3.354590e-04
1.301310e-04
9.530620e-04
-1.026110e-03
-5.340690e-04
2.103330e-04
2.724000e-04
1.371350e-04
2.172830e-04
9.530620e-04
1.777180e-03
-5.340690e-04
-4.186870e-05
2.724000e-04
3.354590e-04
2.172830e-04
2.970970e-04
-1.026110e-03
-5.340690e-04
-1.982880e-03
-1.899990e-03
1.371350e-04
2.172830e-04
-5.520500e-05
1.142780e-04
-5.340690e-04
-4.186870e-05
-1.899990e-03
-1.817550e-03
2.172830e-04
2.970970e-04
1.142780e-04
2.833530e-04
-1.982880e-03
-1.899990e-03
-1.857660e-03
-1.765910e-03
-5.520500e-05
1.142780e-04
1.557310e-05
1.108770e-04
-1.899990e-03
-1.817550e-03
-1.765910e-03
-1.674750e-03
1.142780e-04
2.833530e-04
1.108770e-04
2.061530e-04
-1.857660e-03
-1.765910e-03
-5.090800e-04
-6.726250e-04
1.557310e-05
1.108770e-04
1.787540e-04
2.013660e-04
-1.765910e-03
-1.674750e-03
-6.726250e-04
-8.365180e-04
1.108770e-04
2.061530e-04
2.013660e-04
2.240400e-04
-5.090800e-04
-6.726250e-04
-3.433910e-04
1.386440e-04
1.787540e-04
2.013660e-04
7.979210e-05
8.415050e-05
-6.726250e-04
-8.365180e-04
1.386440e-04
6.210480e-04
2.013660e-04
2.240400e-04
8.415050e-05
8.880910e-05
-3.433910e-04
1.386440e-04
-2.532220e-04
-4.911430e-04
7.979210e-05
8.415050e-05
1.865310e-04
2.769340e-05
1.386440e-04
6.210480e-04
-4.911430e-04
-7.288860e-04
8.415050e-05
8.880910e-05
2.769340e-05
-1.313990e-04
-2.532220e-04
-4.911430e-04
-1.795120e-03
-1.614870e-03
1.865310e-04
2.769340e-05
1.696310e-04
-2.550290e-06
-4.911430e-04
-7.288860e-04
-1.614870e-03
-1.434300e-03
2.769340e-05
-1.313990e-04
-2.550290e-06
-1.754220e-04
-1.795120e-03
-1.614870e-03
-5.534530e-04
-1.408780e-03
1.696310e-04
-2.550290e-06
8.179680e-05
3.628550e-06
-1.614870e-03
-1.434300e-03
-1.408780e-03
-2.264680e-03
-2.550290e-06
-1.754220e-04
3.628550e-06
-7.522770e-05
-5.534530e-04
-1.408780e-03
1.205020e-03
5.131550e-04
8.179680e-05
3.628550e-06
2.791390e-05
-1.660880e-05
-1.408780e-03
-2.264680e-03
5.131550e-04
-1.792010e-04
3.628550e-06
-7.522770e-05
-1.660880e-05
-6.092680e-05
1.205020e-03
5.131550e-04
2.801010e-03
1.808550e-03
2.791390e-05
-1.660880e-05
7.923410e-05
3.275720e-07
5.131550e-04
-1.792010e-04
1.808550e-03
8.156130e-04
-1.660880e-05
-6.092680e-05
3.275720e-07
-7.821930e-05
2.801010e-03
1.808550e-03
1.502910e-03
9.839620e-04
7.923410e-05
3.275720e-07
-2.453020e-05
-1.336400e-04
1.808550e-03
8.156130e-04
9.839620e-04
4.653170e-04
3.275720e-07
-7.821930e-05
-1.336400e-04
-2.423730e-04
1.502910e-03
9.839620e-04
-1.185150e-03
-9.434270e-04
-2.453020e-05
-1.336400e-04
2.661990e-05
-1.533510e-04
9.839620e-04
4.653170e-04
-9.434270e-04
-7.005820e-04
-1.336400e-04
-2.423730e-04
-1.533510e-04
-3.325950e-04
-1.185150e-03
-9.434270e-04
-1.922580e-03
-1.625910e-03
2.661990e-05
-1.533510e-04
1.158210e-04
-9.642620e-05
-9.434270e-04
-7.005820e-04
-1.625910e-03
-1.327690e-03
-1.533510e-04
-3.325950e-04
-9.642620e-05
-3.080330e-04
0.000000e+00
0.000000e+00
-2.220610e-05
4.976630e-05
0.000000e+00
0.000000e+00
-1.208910e-03
-9.698410e-04
0.000000e+00
0.000000e+00
4.976630e-05
1.219980e-04
0.000000e+00
0.000000e+00
-9.698410e-04
-7.313400e-04
-2.220610e-05
4.976630e-05
2.155530e-05
5.297640e-05
-1.208910e-03
-9.698410e-04
-1.018230e-03
-1.244840e-03
4.976630e-05
1.219980e-04
5.297640e-05
8.530650e-05
-9.698410e-04
-7.313400e-04
-1.244840e-03
-1.470790e-03
2.155530e-05
5.297640e-05
-4.927260e-05
4.042560e-05
-1.018230e-03
-1.244840e-03
-3.328530e-04
-8.059070e-04
5.297640e-05
8.530650e-05
4.042560e-05
1.314540e-04
-1.244840e-03
-1.470790e-03
-8.059070e-04
-1.277520e-03
-4.927260e-05
4.042560e-05
5.224630e-05
8.429430e-05
-3.328530e-04
-8.059070e-04
1.150630e-03
-3.568700e-04
4.042560e-05
1.314540e-04
8.429430e-05
1.167860e-04
-8.059070e-04
-1.277520e-03
-3.568700e-04
-1.863580e-03
5.224630e-05
8.429430e-05
1.444400e-04
8.026710e-05
1.150630e-03
-3.568700e-04
6.437540e-04
-6.220430e-04
8.429430e-05
1.167860e-04
8.026710e-05
1.648520e-05
-3.568700e-04
-1.863580e-03
-6.220430e-04
-1.887200e-03
1.444400e-04
8.026710e-05
1.103210e-04
-1.036500e-05
6.437540e-04
-6.220430e-04
9.470110e-05
-1.265550e-03
8.026710e-05
1.648520e-05
-1.036500e-05
-1.312580e-04
-6.220430e-04
-1.887200e-03
-1.265550e-03
-2.625750e-03
1.103210e-04
-1.036500e-05
9.408280e-05
-6.806780e-05
9.470110e-05
-1.265550e-03
1.658260e-05
-9.837270e-04
-1.036500e-05
-1.312580e-04
-6.806780e-05
-2.305260e-04
-1.265550e-03
-2.625750e-03
-9.837270e-04
-1.984560e-03
9.408280e-05
-6.806780e-05
-1.518230e-05
-2.038650e-04
1.658260e-05
-9.837270e-04
8.354570e-04
5.300880e-04
-6.806780e-05
-2.305260e-04
-2.038650e-04
-3.922600e-04
-9.837270e-04
-1.984560e-03
5.300880e-04
2.244440e-04
-1.518230e-05
-2.038650e-04
-9.239870e-05
-2.165700e-04
8.354570e-04
5.300880e-04
2.216860e-03
1.758330e-03
-2.038650e-04
-3.922600e-04
-2.165700e-04
-3.406400e-04
5.300880e-04
2.244440e-04
1.758330e-03
1.300310e-03
-9.239870e-05
-2.165700e-04
-9.766080e-05
-1.595480e-04
2.216860e-03
1.758330e-03
1.680400e-03
1.420330e-03
-2.165700e-04
-3.406400e-04
-1.595480e-04
-2.215040e-04
1.758330e-03
1.300310e-03
1.420330e-03
1.159950e-03
-9.766080e-05
-1.595480e-04
-1.550040e-06
-9.284520e-05
1.680400e-03
1.420330e-03
1.405750e-03
6.682740e-04
-1.595480e-04
-2.215040e-04
-9.284520e-05
-1.842950e-04
1.420330e-03
1.159950e-03
6.682740e-04
-6.944860e-05
-1.550040e-06
-9.284520e-05
-5.319680e-05
-5.114600e-05
1.405750e-03
6.682740e-04
1.802500e-03
9.996610e-04
-9.284520e-05
-1.842950e-04
-5.114600e-05
-4.817880e-05
6.682740e-04
-6.944860e-05
9.996610e-04
1.983420e-04
-5.319680e-05
-5.114600e-05
1.374490e-04
1.127030e-04
1.802500e-03
9.996610e-04
1.577620e-03
6.895200e-04
-5.114600e-05
-4.817880e-05
1.127030e-04
8.932950e-05
9.996610e-04
1.983420e-04
6.895200e-04
-1.969310e-04
1.374490e-04
1.127030e-04
1.798150e-04
1.289670e-04
1.577620e-03
6.895200e-04
3.994360e-04
-6.405570e-04
1.127030e-04
8.932950e-05
1.289670e-04
7.899260e-05
6.895200e-04
-1.969310e-04
-6.405570e-04
-1.680370e-03
1.798150e-04
1.289670e-04
1.894950e-04
1.826770e-04
3.994360e-04
-6.405570e-04
-7.125450e-04
-1.665610e-03
1.289670e-04
7.899260e-05
1.826770e-04
1.764320e-04
-6.405570e-04
-1.680370e-03
-1.665610e-03
-2.617880e-03
1.894950e-04
1.826770e-04
2.352750e-04
2.061260e-04
-7.125450e-04
-1.665610e-03
-6.635680e-04
-1.882700e-03
1.826770e-04
1.764320e-04
2.061260e-04
1.778940e-04
-1.665610e-03
-2.617880e-03
-1.882700e-03
-3.101030e-03
2.352750e-04
2.061260e-04
2.103330e-04
2.724000e-04
-6.635680e-04
-1.882700e-03
-6.460300e-04
-1.485470e-03
2.061260e-04
1.778940e-04
2.724000e-04
3.354590e-04
-1.882700e-03
-3.101030e-03
-1.485470e-03
-2.324290e-03
2.103330e-04
2.724000e-04
1.371350e-04
2.172830e-04
-6.460300e-04
-1.485470e-03
8.315060e-04
9.822620e-05
2.724000e-04
3.354590e-04
2.172830e-04
2.970970e-04
-1.485470e-03
-2.324290e-03
9.822620e-05
-6.349850e-04
1.371350e-04
2.172830e-04
-5.520500e-05
1.142780e-04
8.315060e-04
9.822620e-05
1.946600e-03
1.619580e-03
2.172830e-04
2.970970e-04
1.142780e-04
2.833530e-04
9.822620e-05
-6.349850e-04
1.619580e-03
1.292490e-03
-5.520500e-05
1.142780e-04
1.557310e-05
1.108770e-04
1.946600e-03
1.619580e-03
1.852800e-03
1.561140e-03
1.142780e-04
2.833530e-04
1.108770e-04
2.061530e-04
1.619580e-03
1.292490e-03
1.561140e-03
1.269160e-03
1.557310e-05
1.108770e-04
1.787540e-04
2.013660e-04
1.852800e-03
1.561140e-03
2.571270e-04
3.401990e-04
1.108770e-04
2.061530e-04
2.013660e-04
2.240400e-04
1.561140e-03
1.269160e-03
3.401990e-04
4.234970e-04
1.787540e-04
2.013660e-04
7.979210e-05
8.415050e-05
2.571270e-04
3.401990e-04
5.573160e-05
-3.925910e-04
2.013660e-04
2.240400e-04
8.415050e-05
8.880910e-05
3.401990e-04
4.234970e-04
-3.925910e-04
-8.409800e-04
7.979210e-05
8.415050e-05
1.865310e-04
2.769340e-05
5.573160e-05
-3.925910e-04
-3.460090e-05
4.267450e-04
8.415050e-05
8.880910e-05
2.769340e-05
-1.313990e-04
-3.925910e-04
-8.409800e-04
4.267450e-04
8.875290e-04
1.865310e-04
2.769340e-05
1.696310e-04
-2.550290e-06
-3.460090e-05
4.267450e-04
1.430950e-03
1.648460e-03
2.769340e-05
-1.313990e-04
-2.550290e-06
-1.754220e-04
4.267450e-04
8.875290e-04
1.648460e-03
1.865510e-03
1.696310e-04
-2.550290e-06
8.179680e-05
3.628550e-06
1.430950e-03
1.648460e-03
3.690230e-04
1.362570e-03
-2.550290e-06
-1.754220e-04
3.628550e-06
-7.522770e-05
1.648460e-03
1.865510e-03
1.362570e-03
2.355840e-03
8.179680e-05
3.628550e-06
2.791390e-05
-1.660880e-05
3.690230e-04
1.362570e-03
-1.185920e-03
-3.833020e-04
3.628550e-06
-7.522770e-05
-1.660880e-05
-6.092680e-05
1.362570e-03
2.355840e-03
-3.833020e-04
4.194870e-04
2.791390e-05
-1.660880e-05
7.923410e-05
3.275720e-07
-1.185920e-03
-3.833020e-04
-3.017420e-03
-1.823250e-03
-1.660880e-05
-6.092680e-05
3.275720e-07
-7.821930e-05
-3.833020e-04
4.194870e-04
-1.823250e-03
-6.289860e-04
7.923410e-05
3.275720e-07
-2.453020e-05
-1.336400e-04
-3.017420e-03
-1.823250e-03
-1.467790e-03
-7.939260e-04
3.275720e-07
-7.821930e-05
-1.336400e-04
-2.423730e-04
-1.823250e-03
-6.289860e-04
-7.939260e-04
-1.202710e-04
-2.453020e-05
-1.336400e-04
2.661990e-05
-1.533510e-04
-1.467790e-03
-7.939260e-04
1.126260e-03
1.270260e-03
-1.336400e-04
-2.423730e-04
-1.533510e-04
-3.325950e-04
-7.939260e-04
-1.202710e-04
1.270260e-03
1.415180e-03
2.661990e-05
-1.533510e-04
1.158210e-04
-9.642620e-05
1.126260e-03
1.270260e-03
1.789680e-03
1.829570e-03
-1.533510e-04
-3.325950e-04
-9.642620e-05
-3.080330e-04
1.270260e-03
1.415180e-03
1.829570e-03
1.870750e-03
</DataArray>
<DataArray type="Float32" Name="V2" format="ascii">
0.000000e+00
0.000000e+00
-1.511220e-03
-1.240550e-03
0.000000e+00
0.000000e+00
1.614500e-04
1.892440e-04
0.000000e+00
0.000000e+00
-1.240550e-03
-1.004770e-03
0.000000e+00
0.000000e+00
1.892440e-04
2.861850e-04
-1.511220e-03
-1.240550e-03
-2.881020e-03
-1.883710e-03
1.614500e-04
1.892440e-04
-1.962470e-04
-1.187700e-04
-1.240550e-03
-1.004770e-03
-1.883710e-03
-1.704850e-03
1.892440e-04
2.861850e-04
-1.187700e-04
-6.128790e-05
-2.881020e-03
-1.883710e-03
-1.417330e-03
-2.013700e-04
-1.962470e-04
-1.187700e-04
-6.799170e-04
-6.509670e-04
-1.883710e-03
-1.704850e-03
-2.013700e-04
-6.816270e-05
-1.187700e-04
-6.128790e-05
-6.509670e-04
-6.521200e-04
-1.417330e-03
-2.013700e-04
-1.486210e-03
-1.604280e-03
-6.799170e-04
-6.509670e-04
-4.249250e-04
-5.231010e-04
-2.013700e-04
-6.816270e-05
-1.604280e-03
-1.658570e-03
-6.509670e-04
-6.521200e-04
-5.231010e-04
-4.353540e-04
-1.486210e-03
-1.604280e-03
-4.935040e-03
-6.286980e-03
-4.249250e-04
-5.231010e-04
-5.333570e-05
-1.370140e-04
-1.604280e-03
-1.658570e-03
-6.286980e-03
-6.633060e-03
-5.231010e-04
-4.353540e-04
-1.370140e-04
-8.413670e-05
-4.935040e-03
-6.286980e-03
-6.546710e-03
-7.527750e-03
-5.333570e-05
-1.370140e-04
2.527840e-04
1.485170e-04
-6.286980e-03
-6.633060e-03
-7.527750e-03
-7.953440e-03
-1.370140e-04
-8.413670e-05
1.485170e-04
1.387200e-04
-6.546710e-03
-7.527750e-03
-6.271490e-03
-6.276930e-03
2.527840e-04
1.485170e-04
6.177440e-04
5.018010e-04
-7.527750e-03
-7.953440e-03
-6.276930e-03
-5.960110e-03
1.485170e-04
1.387200e-04
5.018010e-04
5.286880e-04
-6.271490e-03
-6.276930e-03
-6.648050e-03
-6.066710e-03
6.177440e-04
5.018010e-04
4.091710e-04
4.985950e-04
-6.276930e-03
-5.960110e-03
-6.066710e-03
-5.007370e-03
5.018010e-04
5.286880e-04
4.985950e-04
5.260010e-04
-6.648050e-03
-6.066710e-03
-4.905150e-03
-4.398840e-03
4.091710e-04
4.985950e-04
-7.013090e-05
4.810290e-05
-6.066710e-03
-5.007370e-03
-4.398840e-03
-4.108140e-03
4.985950e-04
5.260010e-04
4.810290e-05
6.981020e-05
-4.905150e-03
-4.398840e-03
-2.184170e-03
-1.690820e-03
-7.013090e-05
4.810290e-05
-1.259630e-04
-1.364770e-04
-4.398840e-03
-4.108140e-03
-1.690820e-03
-2.165950e-03
4.810290e-05
6.981020e-05
-1.364770e-04
-9.615560e-06
-2.184170e-03
-1.690820e-03
-2.386120e-03
-1.387750e-03
-1.259630e-04
-1.364770e-04
1.408820e-04
1.905010e-04
-1.690820e-03
-2.165950e-03
-1.387750e-03
-5.073770e-04
-1.364770e-04
-9.615560e-06
1.905010e-04
2.682270e-04
-2.386120e-03
-1.387750e-03
1.813600e-03
2.583400e-03
1.408820e-04
1.905010e-04
3.700270e-04
4.598900e-04
-1.387750e-03
-5.073770e-04
2.583400e-03
4.163630e-03
1.905010e-04
2.682270e-04
4.598900e-04
4.574820e-04
1.813600e-03
2.583400e-03
1.078010e-02
1.015510e-02
3.700270e-04
4.598900e-04
6.721700e-04
7.137550e-04
2.583400e-03
4.163630e-03
1.015510e-02
1.009000e-02
4.598900e-04
4.574820e-04
7.137550e-04
7.977840e-04
1.078010e-02
1.015510e-02
9.837850e-03
8.575300e-03
6.721700e-04
7.137550e-04
7.307100e-04
8.115690e-04
1.015510e-02
1.009000e-02
8.575300e-03
7.242800e-03
7.137550e-04
7.977840e-04
8.115690e-04
8.268070e-04
9.837850e-03
8.575300e-03
1.672740e-03
1.092610e-03
7.307100e-04
8.115690e-04
-1.630480e-05
-4.636670e-06
8.575300e-03
7.242800e-03
1.092610e-03
-2.728940e-04
8.115690e-04
8.268070e-04
-4.636670e-06
-2.622190e-05
1.672740e-03
1.092610e-03
-2.525210e-03
-2.810730e-03
-1.630480e-05
-4.636670e-06
-3.999420e-04
-4.376510e-04
1.092610e-03
-2.728940e-04
-2.810730e-03
-3.913350e-03
-4.636670e-06
-2.622190e-05
-4.376510e-04
-5.070410e-04
-2.525210e-03
-2.810730e-03
-6.437230e-03
-6.394480e-03
-3.999420e-04
-4.376510e-04
-2.512870e-04
-3.086430e-04
-2.810730e-03
-3.913350e-03
-6.394480e-03
-6.791510e-03
-4.376510e-04
-5.070410e-04
-3.086430e-04
-4.389310e-04
-6.437230e-03
-6.394480e-03
-9.901400e-03
-9.099230e-03
-2.512870e-04
-3.086430e-04
-1.406380e-04
-1.147240e-04
-6.394480e-03
-6.791510e-03
-9.099230e-03
-8.803620e-03
-3.086430e-04
-4.389310e-04
-1.147240e-04
-2.273120e-04
-9.901400e-03
-9.099230e-03
-1.053300e-02
-9.615690e-03
-1.406380e-04
-1.147240e-04
7.053280e-04
7.129760e-04
-9.099230e-03
-8.803620e-03
-9.615690e-03
-9.566680e-03
-1.147240e-04
-2.273120e-04
7.129760e-04
6.405670e-04
-1.053300e-02
-9.615690e-03
-1.179320e-02
-1.111960e-02
7.053280e-04
7.129760e-04
1.213670e-03
1.079700e-03
-9.615690e-03
-9.566680e-03
-1.111960e-02
-1.150140e-02
7.129760e-04
6.405670e-04
1.079700e-03
9.477230e-04
-1.179320e-02
-1.111960e-02
-8.004350e-03
-7.693230e-03
1.213670e-03
1.079700e-03
6.844000e-04
7.143330e-04
-1.111960e-02
-1.150140e-02
-7.693230e-03
-8.063370e-03
1.079700e-03
9.477230e-04
7.143330e-04
4.638620e-04
-8.004350e-03
-7.693230e-03
2.304740e-03
2.044550e-03
6.844000e-04
7.143330e-04
4.103880e-05
1.001530e-04
-7.693230e-03
-8.063370e-03
2.044550e-03
2.423950e-03
7.143330e-04
4.638620e-04
1.001530e-04
1.052890e-04
2.304740e-03
2.044550e-03
4.538440e-03
4.751580e-03
4.103880e-05
1.001530e-04
-1.956100e-04
-2.899010e-04
2.044550e-03
2.423950e-03
4.751580e-03
5.571510e-03
1.001530e-04
1.052890e-04
-2.899010e-04
-1.217210e-04
4.538440e-03
4.751580e-03
-2.397420e-03
-1.675840e-03
-1.956100e-04
-2.899010e-04
-6.314690e-04
-7.294870e-04
4.751580e-03
5.571510e-03
-1.675840e-03
-1.141380e-03
-2.899010e-04
-1.217210e-04
-7.294870e-04
-6.887360e-04
-2.397420e-03
-1.675840e-03
-4.535840e-03
-4.008710e-03
-6.314690e-04
-7.294870e-04
-1.315390e-03
-1.382350e-03
-1.675840e-03
-1.141380e-03
-4.008710e-03
-4.252560e-03
-7.294870e-04
-6.887360e-04
-1.382350e-03
-1.368790e-03
-4.535840e-03
-4.008710e-03
-2.251290e-04
1.604170e-04
-1.315390e-03
-1.382350e-03
-1.049600e-03
-1.106970e-03
-4.008710e-03
-4.252560e-03
1.604170e-04
-3.593260e-04
-1.382350e-03
-1.368790e-03
-1.106970e-03
-9.839660e-04
-2.251290e-04
1.604170e-04
2.208480e-03
3.130840e-03
-1.049600e-03
-1.106970e-03
-6.798010e-04
-5.164590e-04
1.604170e-04
-3.593260e-04
3.130840e-03
3.223650e-03
-1.106970e-03
-9.839660e-04
-5.164590e-04
-4.375020e-04
2.208480e-03
3.130840e-03
-1.567160e-03
1.198840e-04
-6.798010e-04
-5.164590e-04
-6.834760e-04
-5.117910e-04
3.130840e-03
3.223650e-03
1.198840e-04
1.126600e-04
-5.164590e-04
-4.375020e-04
-5.117910e-04
-4.459710e-04
-1.567160e-03
1.198840e-04
-8.529760e-03
-7.880380e-03
-6.834760e-04
-5.117910e-04
-3.710070e-04
-3.476800e-04
1.198840e-04
1.126600e-04
-7.880380e-03
-8.324920e-03
-5.117910e-04
-4.459710e-04
-3.476800e-04
-3.237690e-04
-8.529760e-03
-7.880380e-03
-1.216940e-02
-1.259690e-02
-3.710070e-04
-3.476800e-04
-2.348340e-04
-2.400760e-04
-7.880380e-03
-8.324920e-03
-1.259690e-02
-1.315170e-02
-3.476800e-04
-3.237690e-04
-2.400760e-04
-3.391380e-04
0.000000e+00
0.000000e+00
1.614500e-04
1.892440e-04
0.000000e+00
0.000000e+00
1.263170e-03
1.076310e-03
0.000000e+00
0.000000e+00
1.892440e-04
2.861850e-04
0.000000e+00
0.000000e+00
1.076310e-03
5.152410e-04
1.614500e-04
1.892440e-04
-1.962470e-04
-1.187700e-04
1.263170e-03
1.076310e-03
3.241570e-03
2.328460e-03
1.892440e-04
2.861850e-04
-1.187700e-04
-6.128790e-05
1.076310e-03
5.152410e-04
2.328460e-03
1.950150e-03