MercuryDPM 0.14 name SingleSphere revision 5159 repository https://svn.mercurydpm.org/SourceCode/Branches/SCouplingTest
dataFile    fileType ONE_FILE saveCount 549 counter 1003 lastSavedTimeStep 549869
fStatFile   fileType ONE_FILE saveCount 549 counter 1003 lastSavedTimeStep 549869
eneFile     fileType ONE_FILE saveCount 549 counter 1003 lastSavedTimeStep 549869
restartFile fileType ONE_FILE saveCount 549 counter 1003 lastSavedTimeStep 549869
statFile    fileType ONE_FILE saveCount 549 counter 0
interactionFile fileType NO_FILE saveCount 0 counter 0
xMin -500 xMax 500 yMin -5000 yMax 5000 zMin -500 zMax 5000
timeStep 0.090930880724823 time 50000.0724529279 ntimeSteps 549869 timeMax 50000
systemDimensions 3 particleDimensions 3 gravity 0 0 -0.00981 writeVTK 1 MULTIPLE_FILES NO_FILE 1003 1003 0 random  0 1103515245 12345 1073741824 607 273 784607267
Species 1
LinearViscoelasticSpecies id 0 density 20000 stiffness 20000000000 dissipation 185190105.022123
Walls 992
TriangleWall id 0 indSpecies 0 position -200.000733644814 -5933.39797625592 -400.036371932836 orientation 1 0 0 0 velocity 0 0 0 angularVelocity 0 0 0 force 0 0 0 torque 0 0 0 vertexInLabFrame  -0.00146728962877773 133.204047488161 -0.0727438656713275 -199.999266355186 -66.6020237440798 0.0363719328356638 200.000733644814 -66.6020237440798 0.0363719328356638
TriangleWall id 1 indSpecies 0 position -66.668788622144 -5800.19388611424 -400.109767625883 orientation 1 0 0 0 velocity 0 0 0 angularVelocity 0 0 0 force 0 0 0 torque 0 0 0 vertexInLabFrame  -133.333412312299 -4.26535234510084e-05 0.000651827375577341 66.668788622144 -199.806113885764 0.109767625882569 66.6646236901552 199.806156539287 -0.110419453258089
TriangleWall id 2 indSpecies 0 position -200.003668224072 -5666.9898812796 -400.181859664178 orientation 1 0 0 0 velocity 0 0 0 angularVelocity 0 0 0 force 0 0 0 torque 0 0 0 vertexInLabFrame  0.00146728962877773 -133.204047488161 0.0727438656713275 199.999503292083 66.6021517046502 -0.0383274149623389 -200.000970581712 66.6018957835095 -0.0344164507089886
TriangleWall id 3 indSpecies 0 position -333.335613246742 -5800.19397142128 -400.108463971131 orientation 1 0 0 0 velocity 0 0 0 angularVelocity 0 0 0 force 0 0 0 torque 0 0 0 vertexInLabFrame  133.333412312299 4.26535234510084e-05 -0.000651827375577341 -66.6690255590415 199.805985925193 -0.107812143755893 -66.6643867532577 -199.806028578717 0.108463971131414
TriangleWall id 4 indSpecies 0 position 199.999345353535 -5933.39794218539 -400.036981184806 orientation 1 0 0 0 velocity 0 0 0 angularVelocity 0 0 0 force 0 0 0 torque 0 0 0 vertexInLabFrame  -0.00130929293015924 133.204115629215 -0.0739623696112517 -199.999345353535 -66.6020578146081 0.0369811848056543 200.000654646465 -66.6020578146081 0.0369811848056543
TriangleWall id 5 indSpecies 0 position 333.331448411671 -5800.19380106865 -400.111510230981 orientation 1 0 0 0 velocity 0 0 0 angularVelocity 0 0 0 force 0 0 0 torque 0 0 0 vertexInLabFrame  -133.333412351066 -2.54875312748482e-05 0.000566676564403679 66.668551588329 -199.806198931355 0.11151023098131 66.6648607627371 199.806224418885 -0.112076907545656
TriangleWall id 6 indSpecies 0 position 199.996726767675 -5666.98971092696 -400.184905924028 orientation 1 0 0 0 velocity 0 0 0 angularVelocity 0 0 0 force 0 0 0 torque 0 0 0 vertexInLabFrame  0.0013092929301024 -133.204115629214 0.0739623696113085 199.999582406733 66.6021342772019 -0.0386812144987516 -200.000891699664 66.6019813520134 -0.0352811551124432
TriangleWall id 7 indSpecies 0 position 66.6646237095386 -5800.19385204371 -400.110376877853 orientation 1 0 0 0 velocity 0 0 0 angularVelocity 0 0 0 force 0 0 0 torque 0 0 0 vertexInLabFrame  133.333412351066 2.54875312748482e-05 -0.000566676564346835 -66.6687886415275 199.806122468759 -0.109810201288099 -66.6646237095386 -199.806147956292 0.110376877852559
TriangleWall id 8 indSpecies 0 position -200.004836161481 -5533.77862343223 -400.315277370934 orientation 1 0 0 0 velocity 0 0 0 angularVelocity 0 0 0 force 0 0 0 torque 0 0 0 vertexInLabFrame  -0.000868585188896986 133.218468206585 -0.194091547841026 -199.999802644303 -66.609362063863 0.0990012560471314 200.000671229492 -66.6091061427223 0.095090291793781
TriangleWall id 9 indSpecies 0 position -66.6721583423566 -5400.56015877018 -400.51102802516 orientation 1 0 0 0 velocity 0 0 0 angularVelocity 0 0 0 force 0 0 0 torque 0 0 0 vertexInLabFrame  -133.333546404313 3.54454186890507e-06 0.00165910638486366 66.6679934103677 -199.827570804766 0.290840946019671 66.6655529939454 199.827567260224 -0.292500052404591
TriangleWall id 10 indSpecies 0 position -200.006573331859 -5267.34168701906 -400.703460466616 orientation 1 0 0 0 velocity 0 0 0 angularVelocity 0 0 0 force 0 0 0 torque 0 0 0 vertexInLabFrame  0.000868585188896986 -133.218468206585 0.194091547840969 199.999967983447 66.6090955090967 -0.100067610948486 -200.000836568636 66.6093726974887 -0.0940239368925404
TriangleWall id 11 indSpecies 0 position -333.339251150983 -5400.5601516811 -400.507709812391 orientation 1 0 0 0 velocity 0 0 0 angularVelocity 0 0 0 force 0 0 0 torque 0 0 0 vertexInLabFrame  133.333546404313 -3.54454186890507e-06 -0.00165910638486366 -66.6681587495121 199.827837359532 -0.289774591118373 -66.665387654801 -199.82783381499 0.291433697503294
TriangleWall id 12 indSpecies 0 position 199.995692924426 -5533.77847163866 -400.319246938376 orientation 1 0 0 0 velocity 0 0 0 angularVelocity 0 0 0 force 0 0 0 torque 0 0 0 vertexInLabFrame  -0.000758393568219162 133.218362947393 -0.194719659085308 -199.999857856414 -66.6092579362894 0.0990598592357514 200.000616249983 -66.6091050111008 0.0956597998494431
TriangleWall id 13 indSpecies 0 position 333.328480978229 -5400.56007412381 -400.515372610201 orientation 1 0 0 0 velocity 0 0 0 angularVelocity 0 0 0 force 0 0 0 torque 0 0 0 vertexInLabFrame  -133.333546447372 -3.45674579875777e-05 0.00140601273932361 66.6678281961792 -199.827502525952 0.291785471674075 66.6657182511923 199.82753709341 -0.293191484413398
TriangleWall id 14 indSpecies 0 position 199.994176137289 -5267.34174574387 -400.708686256547 orientation 1 0 0 0 velocity 0 0 0 angularVelocity 0 0 0 force 0 0 0 torque 0 0 0 vertexInLabFrame  0.000758393568219162 -133.218362947392 0.194719659085308 200.000023092132 66.6092087134757 -0.0998778380674139 -200.0007814857 66.6091542339154 -0.0948418210178943
TriangleWall id 15 indSpecies 0 position 66.6613880834858 -5400.56014325872 -400.512560584722 orientation 1 0 0 0 velocity 0 0 0 angularVelocity 0 0 0 force 0 0 0 torque 0 0 0 vertexInLabFrame  133.333546447372 3.45674579875777e-05 -0.00140601273926677 -66.667993431897 199.827551748765 -0.290967492842469 -66.6655530154746 -199.827586316224 0.292373505581793
TriangleWall id 16 indSpecies 0 position -200.007016481752 -5134.11698840667 -400.949928678376 orientation 1 0 0 0 velocity 0 0 0 angularVelocity 0 0 0 force 0 0 0 torque 0 0 0 vertexInLabFrame  -1.77145985276184e-05 133.230929018189 -0.298844875679208 -200.000393418743 -66.6153259148987 0.152444274867491 200.000411133341 -66.6156031032906 0.146400600811546
TriangleWall id 17 indSpecies 0 position -66.6734482529418 -5000.88616709179 -401.250855813586 orientation 1 0 0 0 velocity 0 0 0 angularVelocity 0 0 0 force 0 0 0 torque 0 0 0 vertexInLabFrame  -133.333585943409 0.000107703315734398 0.00208225953014107 66.6668429045306 -199.846424418164 0.447327736020895 66.6667430388785 199.84631671485 -0.44940999555115
TriangleWall id 18 indSpecies 0 position -200.007051910949 -4867.65513037029 -401.547618429735 orientation 1 0 0 0 velocity 0 0 0 angularVelocity 0 0 0 force 0 0 0 torque 0 0 0 vertexInLabFrame  1.77145984991967e-05 -133.230929018189 0.298844875679208 200.000346696886 66.6152799933452 -0.152647379402083 -200.000364411485 66.6156490248441 -0.146197496276955
TriangleWall id 19 indSpecies 0 position -333.34062013976 -5000.88595168516 -401.246691294525 orientation 1 0 0 0 velocity 0 0 0 angularVelocity 0 0 0 force 0 0 0 torque 0 0 0 vertexInLabFrame  133.333585943409 -0.000107703314824903 -0.00208225953025476 -66.6667961826741 199.846470339719 -0.447124631486417 -66.666789760735 -199.846362636403 0.449206891016445
TriangleWall id 20 indSpecies 0 position 199.993772544123 -5134.11714347546 -400.955519294456 orientation 1 0 0 0 velocity 0 0 0 angularVelocity 0 0 0 force 0 0 0 torque 0 0 0 vertexInLabFrame  -4.87927632377705e-05 133.230841589449 -0.298946416733315 -200.000377892535 -66.615448034504 0.151991216891361 200.000426685298 -66.6153935549437 0.146955199841841
TriangleWall id 21 indSpecies 0 position 333.327309773092 -5000.88635584771 -401.256178223082 orientation 1 0 0 0 velocity 0 0 0 angularVelocity 0 0 0 force 0 0 0 torque 0 0 0 vertexInLabFrame  -133.333586021732 5.39617039976292e-05 0.00171251189243549 66.6668894563294 -199.846181182688 0.447614128467592 66.6666965654022 199.846127220982 -0.449326640360084
TriangleWall id 22 indSpecies 0 position 199.993674958597 -4867.65546029656 -401.553412127923 orientation 1 0 0 0 velocity 0 0 0 angularVelocity 0 0 0 force 0 0 0 torque 0 0 0 vertexInLabFrame  4.87927631809271e-05 -133.230841589447 0.298946416733315 200.000331379897 66.6152316698317 -0.152092735519204 -200.00038017266 66.6156099196151 -0.146853681214054
TriangleWall id 23 indSpecies 0 position 66.6601377296286 -5000.8862479243 -401.252753199297 orientation 1 0 0 0 velocity 0 0 0 angularVelocity 0 0 0 force 0 0 0 torque 0 0 0 vertexInLabFrame  133.333586021732 -5.39617030881345e-05 -0.00171251189243549 -66.6668429436918 199.846397547359 -0.447512609839805 -66.6667430780398 -199.846343585656 0.44922512173224
TriangleWall id 24 indSpecies 0 position -200.006876340545 -4734.42003487304 -401.894115829302 orientation 1 0 0 0 velocity 0 0 0 angularVelocity 0 0 0 force 0 0 0 torque 0 0 0 vertexInLabFrame  0.000368855407032243 133.239261976311 -0.394149923454677 -200.000539981889 -66.6194464724058 0.200299903289874 200.000171126482 -66.6198155039046 0.193850020164746
TriangleWall id 25 indSpecies 0 position -66.6729560269139 -4601.18084544381 -402.290204705329 orientation 1 0 0 0 velocity 0 0 0 angularVelocity 0 0 0 force 0 0 0 torque 0 0 0 vertexInLabFrame  -133.333551458224 7.25470836187014e-05 0.00193895257285703 66.6662508128507 -199.859004933132 0.58993889619228 66.6673006453735 199.858932386049 -0.591877848765137
TriangleWall id 26 indSpecies 0 position -200.006138629731 -4467.94151092042 -402.682415676211 orientation 1 0 0 0 velocity 0 0 0 angularVelocity 0 0 0 force 0 0 0 torque 0 0 0 vertexInLabFrame  -0.000368855406946977 -133.239261976311 0.394149923454563 200.000483248191 66.6195978626538 -0.199666877883431 -200.000114392784 66.6196641136557 -0.194483045571189
TriangleWall id 27 indSpecies 0 position -333.340058943362 -4601.18070034965 -402.286326800183 orientation 1 0 0 0 velocity 0 0 0 angularVelocity 0 0 0 force 0 0 0 torque 0 0 0 vertexInLabFrame  133.333551458224 -7.25470836187014e-05 -0.00193895257297072 -66.6661940791526 199.858853542883 -0.590571921598723 -66.6673573790717 -199.858780995801 0.59251087417158
TriangleWall id 28 indSpecies 0 position 199.993816103182 -4734.42040066059 -401.899802168827 orientation 1 0 0 0 velocity 0 0 0 angularVelocity 0 0 0 force 0 0 0 torque 0 0 0 vertexInLabFrame  0.000331081934064059 133.239277682487 -0.393833665074112 -200.000521317246 -66.6194497163533 0.199536359689716 200.000190235312 -66.6198279661367 0.194297305384566
TriangleWall id 29 indSpecies 0 position 333.327698840395 -4601.18128381861 -402.295276935424 orientation 1 0 0 0 velocity 0 0 0 angularVelocity 0 0 0 force 0 0 0 torque 0 0 0 vertexInLabFrame  -133.333551655279 0.00016084050093923 0.00164110152343255 66.6663074980986 -199.858944808123 0.589772071982111 66.6672441571802 199.858783967622 -0.5914131735056
TriangleWall id 30 indSpecies 0 position 199.994478267051 -4467.94184529562 -402.687469498975 orientation 1 0 0 0 velocity 0 0 0 angularVelocity 0 0 0 force 0 0 0 torque 0 0 0 vertexInLabFrame  -0.000331081934064059 -133.239277682487 0.393833665074169 200.000464730525 66.6193454446338 -0.199220609954864 -200.000133648591 66.6199322378534 -0.194613055119419
TriangleWall id 31 indSpecies 0 position 66.6605955298376 -4601.1809621376 -402.291994732377 orientation 1 0 0 0 velocity 0 0 0 angularVelocity 0 0 0 force 0 0 0 torque 0 0 0 vertexInLabFrame  133.333551655279 -0.000160840500029735 -0.00164110152343255 -66.666250911378 199.859049079841 -0.59008782171702 -66.6673007439009 -199.858888239341 0.591728923240396
TriangleWall id 32 indSpecies 0 position -200.005748498877 -4334.6981983811 -403.121978014499 orientation 1 0 0 0 velocity 0 0 0 angularVelocity 0 0 0 force 0 0 0 torque 0 0 0 vertexInLabFrame  0.000411406300514727 133.247363102327 -0.484974753121435 -200.000504523637 -66.6236484256624 0.245079292716866 200.000093117337 -66.6237146766643 0.239895460404625
TriangleWall id 33 indSpecies 0 position -66.6718633429304 -4201.45084195448 -403.608511315684 orientation 1 0 0 0 velocity 0 0 0 angularVelocity 0 0 0 force 0 0 0 torque 0 0 0 vertexInLabFrame  -133.333473749646 6.67571202939143e-06 0.00155854806354228 66.66620796139 -199.871071103279 0.726428761589602 66.6672657882565 199.871064427566 -0.727987309653088
TriangleWall id 34 indSpecies 0 position -200.004925686276 -4068.20347217645 -404.091927520742 orientation 1 0 0 0 velocity 0 0 0 angularVelocity 0 0 0 force 0 0 0 torque 0 0 0 vertexInLabFrame  -0.000411406300429462 -133.247363102327 0.484974753121378 200.000328131603 66.6236946495269 -0.244571104595252 -199.999916725302 66.6236684527994 -0.240403648526126
TriangleWall id 35 indSpecies 0 position -333.338810842223 -4201.45082860306 -403.605394219557 orientation 1 0 0 0 velocity 0 0 0 angularVelocity 0 0 0 force 0 0 0 torque 0 0 0 vertexInLabFrame  133.333473749647 -6.67571202939143e-06 -0.00155854806354228 -66.6660315693551 199.871024879415 -0.726936949711046 -66.6674421802914 -199.871018203701 0.728495497774759
TriangleWall id 36 indSpecies 0 position 199.994790701337 -4334.69852592348 -403.126765091923 orientation 1 0 0 0 velocity 0 0 0 angularVelocity 0 0 0 force 0 0 0 torque 0 0 0 vertexInLabFrame  0.0002937866383661 133.247361061788 -0.484757520822427 -200.000446082877 -66.6233871342838 0.244682537828908 200.000152296239 -66.6239739275034 0.240074982993463
TriangleWall id 37 indSpecies 0 position 333.328558458697 -4201.45137790793 -403.613010628099 orientation 1 0 0 0 velocity 0 0 0 angularVelocity 0 0 0 force 0 0 0 torque 0 0 0 vertexInLabFrame  -133.333473970722 0.000213046234421199 0.00148801535334542 66.6663845388789 -199.871121943057 0.726320519169235 66.6670894318426 199.870908896823 -0.72780853452241
TriangleWall id 38 indSpecies 0 position 199.995378274614 -4068.2038037999 -404.096280133568 orientation 1 0 0 0 velocity 0 0 0 angularVelocity 0 0 0 force 0 0 0 torque 0 0 0 vertexInLabFrame  -0.000293786638394522 -133.247361061787 0.48475752082237 200.000269615926 66.6233347888015 -0.244539029053385 -199.999975829287 66.6240262729862 -0.240218491768985
TriangleWall id 39 indSpecies 0 position 66.6616105172536 -4201.45095181546 -403.610034597392 orientation 1 0 0 0 velocity 0 0 0 angularVelocity 0 0 0 force 0 0 0 torque 0 0 0 vertexInLabFrame  133.333473970722 -0.000213046233511704 -0.00148801535334542 -66.6662080719275 199.87117428854 -0.726464027944701 -66.667265898794 -199.870961242305 0.727952043297989
TriangleWall id 40 indSpecies 0 position -200.004493925357 -3934.9513276727 -404.618092073983 orientation 1 0 0 0 velocity 0 0 0 angularVelocity 0 0 0 force 0 0 0 torque 0 0 0 vertexInLabFrame  0.00045211553785407 133.256925905166 -0.567354353360827 -200.000348486221 -66.628476050947 0.285760904715005 199.999896370683 -66.6284498542195 0.281593448645879
TriangleWall id 41 indSpecies 0 position -66.6705868548874 -3801.69428637099 -405.186775230968 orientation 1 0 0 0 velocity 0 0 0 angularVelocity 0 0 0 force 0 0 0 torque 0 0 0 vertexInLabFrame  -133.333454954932 -0.000115396545879776 0.0013288036240624 66.6659893002135 -199.885491155932 0.850276605630768 66.6674656547185 199.885606552476 -0.851605409254887
TriangleWall id 42 indSpecies 0 position -200.003589694282 -3668.43747586237 -405.752800780705 orientation 1 0 0 0 velocity 0 0 0 angularVelocity 0 0 0 force 0 0 0 torque 0 0 0 vertexInLabFrame  -0.00045211553785407 -133.256925905166 0.567354353360827 200.000468494113 66.6287960438567 -0.285579859518123 -200.000016378575 66.6281298613094 -0.281774493842704
TriangleWall id 43 indSpecies 0 position -333.337496764751 -3801.69451716408 -405.18411762372 orientation 1 0 0 0 velocity 0 0 0 angularVelocity 0 0 0 force 0 0 0 torque 0 0 0 vertexInLabFrame  133.333454954932 0.000115396545879776 -0.00132880362411925 -66.6661093081049 199.885171163021 -0.85045765082765 -66.6673456468272 -199.885286559567 0.851786454451712
TriangleWall id 44 indSpecies 0 position 199.995791198674 -3934.95156225114 -404.622243178185 orientation 1 0 0 0 velocity 0 0 0 angularVelocity 0 0 0 force 0 0 0 torque 0 0 0 vertexInLabFrame  0.000532061481777646 133.257122035734 -0.567168568411034 -200.000388753347 -66.6282152757744 0.285744552847746 199.999856691866 -66.6289067599591 0.281424015563346
TriangleWall id 45 indSpecies 0 position 333.329778351873 -3801.69458124387 -405.19072648914 orientation 1 0 0 0 velocity 0 0 0 angularVelocity 0 0 0 force 0 0 0 torque 0 0 0 vertexInLabFrame  -133.333455091718 0.000141028463531256 0.00131474254391151 66.6658695386661 -199.885887767229 0.849907326518291 66.6675855530517 199.885746738765 -0.851222069062203
TriangleWall id 46 indSpecies 0 position 199.996855321637 -3668.43731817968 -405.756580315007 orientation 1 0 0 0 velocity 0 0 0 angularVelocity 0 0 0 force 0 0 0 torque 0 0 0 vertexInLabFrame  -0.000532061481806068 -133.257122035734 0.567168568411034 200.000508583288 66.6284836745672 -0.28536824319508 -199.999976521806 66.6286383611659 -0.281800325215841
TriangleWall id 47 indSpecies 0 position 66.6628681684375 -3801.69429918695 -405.188097004052 orientation 1 0 0 0 velocity 0 0 0 angularVelocity 0 0 0 force 0 0 0 torque 0 0 0 vertexInLabFrame  133.333455091718 -0.000141028464440751 -0.00131474254402519 -66.6659893686064 199.885619368436 -0.8502836361709 -66.6674657231114 -199.885478339972 0.851598378714755
TriangleWall id 48 indSpecies 0 position -200.003091594487 -3535.17555430099 -406.356435406037 orientation 1 0 0 0 velocity 0 0 0 angularVelocity 0 0 0 force 0 0 0 torque 0 0 0 vertexInLabFrame  0.000544084051369964 133.266917217592 -0.639914897303981 -200.000514478369 -66.6337917000697 0.321860131489643 199.999970394318 -66.6331255175223 0.318054765814225
TriangleWall id 49 indSpecies 0 position -66.6690298960134 -3401.9082242561 -406.997304813409 orientation 1 0 0 0 velocity 0 0 0 angularVelocity 0 0 0 force 0 0 0 torque 0 0 0 vertexInLabFrame  -133.333517614422 -0.000412827294439921 0.000954510067913361 66.6659086958445 -199.900455562409 0.958924173186119 66.6676089185776 199.900868389703 -0.959878683254033
TriangleWall id 50 indSpecies 0 position -200.002003426384 -3268.6417198658 -407.636265200645 orientation 1 0 0 0 velocity 0 0 0 angularVelocity 0 0 0 force 0 0 0 torque 0 0 0 vertexInLabFrame  -0.000544084051398386 -133.266917217592 0.639914897303868 200.000582448948 66.6343639994047 -0.320918296018078 -200.000038364897 66.6325532181868 -0.318996601285846
TriangleWall id 51 indSpecies 0 position -333.336065124858 -3401.90904991069 -406.995395793273 orientation 1 0 0 0 velocity 0 0 0 angularVelocity 0 0 0 force 0 0 0 torque 0 0 0 vertexInLabFrame  133.333517614422 0.000412827293985174 -0.000954510067970205 -66.6659766664234 199.899883263073 -0.959866008657684 -66.6675409479987 -199.900296090368 0.960820518725654
TriangleWall id 52 indSpecies 0 position 199.997416038288 -3535.17511214982 -406.359796519484 orientation 1 0 0 0 velocity 0 0 0 angularVelocity 0 0 0 force 0 0 0 torque 0 0 0 vertexInLabFrame  0.000589371819700091 133.267290023979 -0.639263840542299 -200.000537238457 -66.6335676686904 0.321415879260826 199.999947866637 -66.6337223552891 0.317847961281586
TriangleWall id 53 indSpecies 0 position 333.331523076048 -3401.9076916481 -406.999912554415 orientation 1 0 0 0 velocity 0 0 0 angularVelocity 0 0 0 force 0 0 0 torque 0 0 0 vertexInLabFrame  -133.33351766594 -0.000130477742459334 0.00085219438869899 66.6658408288774 -199.901142857011 0.957963996212584 66.6676768370626 199.901273334753 -0.95881619060134
TriangleWall id 54 indSpecies 0 position 199.998594781927 -3268.64053210186 -407.638324200568 orientation 1 0 0 0 velocity 0 0 0 angularVelocity 0 0 0 force 0 0 0 torque 0 0 0 vertexInLabFrame  -0.000589371819728512 -133.26729002398 0.639263840542299 200.000605131183 66.6341137885161 -0.32040454444774 -200.000015759363 66.6331762354625 -0.318859296094729
TriangleWall id 55 indSpecies 0 position 66.6644877441676 -3401.90795260358 -406.998208165637 orientation 1 0 0 0 velocity 0 0 0 angularVelocity 0 0 0 force 0 0 0 torque 0 0 0 vertexInLabFrame  133.33351766594 0.000130477742459334 -0.00085219438869899 -66.6659087216035 199.900596737185 -0.958975331025727 -66.6676089443365 -199.900727214927 0.959827525414426
TriangleWall id 56 indSpecies 0 position -200.001379366278 -3135.3695285612 -408.30659676701 orientation 1 0 0 0 velocity 0 0 0 angularVelocity 0 0 0 force 0 0 0 torque 0 0 0 vertexInLabFrame  0.0007040361604993 133.277465391607 -0.70074823542592 -200.000662425003 -66.6396380864121 0.351334965079047 199.999958388842 -66.6378273051942 0.349413270346815
TriangleWall id 57 indSpecies 0 position -66.667028615223 -3002.09150841421 -409.00740786736 orientation 1 0 0 0 velocity 0 0 0 angularVelocity 0 0 0 force 0 0 0 torque 0 0 0 vertexInLabFrame  -133.333646714895 -0.000554755391931394 6.28649245868473e-05 66.6656076377871 -199.915847452193 1.05022437069732 66.6680390771076 199.916402207584 -1.05028723562202
TriangleWall id 58 indSpecies 0 position -199.999971293957 -2868.81459777799 -409.708093237861 orientation 1 0 0 0 velocity 0 0 0 angularVelocity 0 0 0 force 0 0 0 torque 0 0 0 vertexInLabFrame  -0.000704036160527721 -133.277465391607 0.700748235425806 200.000981755842 66.6394915713695 -0.349601865120803 -200.000277719681 66.6379738202377 -0.351146370305003
TriangleWall id 59 indSpecies 0 position -333.334322045012 -3002.09261792499 -409.007282137511 orientation 1 0 0 0 velocity 0 0 0 angularVelocity 0 0 0 force 0 0 0 torque 0 0 0 vertexInLabFrame  133.333646714895 0.000554755391476647 -6.28649247005342e-05 -66.6659269686261 199.915993967236 -1.05195747065551 -66.6677197462686 -199.916548722628 1.05202033558027
TriangleWall id 60 indSpecies 0 position 199.999347932827 -3135.36817100893 -408.307661670152 orientation 1 0 0 0 velocity 0 0 0 angularVelocity 0 0 0 force 0 0 0 torque 0 0 0 vertexInLabFrame  0.000916929979695169 133.27743216188 -0.699411098625148 -200.000768910263 -66.6391848574672 0.35047817348908 199.999851980283 -66.6382473044137 0.348932925136069
TriangleWall id 61 indSpecies 0 position 333.333911609861 -3002.09041072075 -409.006828414747 orientation 1 0 0 0 velocity 0 0 0 angularVelocity 0 0 0 force 0 0 0 torque 0 0 0 vertexInLabFrame  -133.333646747055 -0.000328126305703336 -0.000244354030257909 66.6652883032486 -199.916007592599 1.04809966973096 66.6683584438062 199.916335718905 -1.04785531570064
TriangleWall id 62 indSpecies 0 position 200.001181792786 -2868.81330668517 -409.706483867402 orientation 1 0 0 0 velocity 0 0 0 angularVelocity 0 0 0 force 0 0 0 torque 0 0 0 vertexInLabFrame  -0.000916929979666747 -133.27743216188 0.699411098625205 200.001088260881 66.6392316833308 -0.348199863045181 -200.000171330902 66.6382004785501 -0.35121123557991
TriangleWall id 63 indSpecies 0 position 66.6666181157518 -3002.09106697336 -409.007317122807 orientation 1 0 0 0 velocity 0 0 0 angularVelocity 0 0 0 force 0 0 0 torque 0 0 0 vertexInLabFrame  133.333646747055 0.000328126305248588 0.000244354030371596 -66.6656076538672 199.915960766736 -1.05037798017474 -66.6680390931877 -199.916288893042 1.0501336261446
TriangleWall id 64 indSpecies 0 position -199.999051923709 -2735.53287117417 -410.432377679319 orientation 1 0 0 0 velocity 0 0 0 angularVelocity 0 0 0 force 0 0 0 torque 0 0 0 vertexInLabFrame  0.00113470433504403 133.285987816043 -0.747820647488936 -200.001197089929 -66.6437527835869 0.373138071152368 200.000062385594 -66.6422350324551 0.374682576336568
TriangleWall id 65 indSpecies 0 position -66.6641643170687 -2602.24666017202 -411.179086895564 orientation 1 0 0 0 velocity 0 0 0 angularVelocity 0 0 0 force 0 0 0 torque 0 0 0 vertexInLabFrame  -133.333752902306 -0.000223186101720785 -0.001111431243487 66.6651747789534 -199.928446034599 1.12139179258202 66.6685781233522 199.928669220701 -1.12028036133859
TriangleWall id 66 indSpecies 0 position -199.996782515039 -2468.96089554208 -411.928018974297 orientation 1 0 0 0 velocity 0 0 0 angularVelocity 0 0 0 force 0 0 0 torque 0 0 0 vertexInLabFrame  -0.00113470433507246 -133.285987816043 0.747820647488993 200.001196321323 66.6429045907603 -0.371348282606107 -200.000061616988 66.6430832252818 -0.376472364882829
TriangleWall id 67 indSpecies 0 position -333.33167012168 -2602.24710654423 -411.181309758051 orientation 1 0 0 0 velocity 0 0 0 angularVelocity 0 0 0 force 0 0 0 torque 0 0 0 vertexInLabFrame  133.333752902306 0.000223186101720785 0.001111431243487 -66.665174010347 199.929294227426 -1.12318158112834 -66.6685788919585 -199.929517413528 1.12207014988479
TriangleWall id 68 indSpecies 0 position 200.002207317448 -2735.53182658366 -410.429483731752 orientation 1 0 0 0 velocity 0 0 0 angularVelocity 0 0 0 force 0 0 0 torque 0 0 0 vertexInLabFrame  0.00113411934449914 133.285528041139 -0.746588630075053 -200.001196855564 -66.6432796229601 0.371788628770105 200.000062736219 -66.6422484181794 0.374800001304834
TriangleWall id 69 indSpecies 0 position 333.337094305265 -2602.24613185156 -411.174433149751 orientation 1 0 0 0 velocity 0 0 0 angularVelocity 0 0 0 force 0 0 0 torque 0 0 0 vertexInLabFrame  -133.333752868472 -0.000166690966125316 -0.00163921207666817 66.6651757484023 -199.927943150285 1.11974941930322 66.6685771200703 199.92810984125 -1.11811020722655
TriangleWall id 70 indSpecies 0 position 200.004475556137 -2468.96077050138 -411.922660991902 orientation 1 0 0 0 velocity 0 0 0 angularVelocity 0 0 0 force 0 0 0 torque 0 0 0 vertexInLabFrame  -0.00113411934447072 -133.285528041139 0.746588630075053 200.001195869198 66.6427484910769 -0.36988236507483 -200.000061749854 66.6427795500622 -0.376706265000394
TriangleWall id 71 indSpecies 0 position 66.6695885683203 -2602.24646523349 -411.177711573904 orientation 1 0 0 0 velocity 0 0 0 angularVelocity 0 0 0 force 0 0 0 torque 0 0 0 vertexInLabFrame  133.333752868473 0.000166690965670568 0.00163921207678186 -66.6651747620368 199.928474282167 -1.12165568299866 -66.6685781064357 -199.928640973133 1.12001647092194
TriangleWall id 72 indSpecies 0 position -199.995910075528 -2335.67209586521 -412.69587869985 orientation 1 0 0 0 velocity 0 0 0 angularVelocity 0 0 0 force 0 0 0 torque 0 0 0 vertexInLabFrame  0.000610174686698883 133.2916115377 -0.787898803618077 -200.000934056499 -66.6457164515891 0.391387360670649 200.000323881812 -66.6458950861106 0.396511442947372
TriangleWall id 73 indSpecies 0 position -66.6615310453461 -2202.38066810461 -413.482065079914 orientation 1 0 0 0 velocity 0 0 0 angularVelocity 0 0 0 force 0 0 0 torque 0 0 0 vertexInLabFrame  -133.333768855496 0.000183777103757166 -0.0017124235545225 66.6659448516296 -199.937322846707 1.18269782301093 66.6678240038659 199.937139069603 -1.18098539945629
TriangleWall id 74 indSpecies 0 position -199.994689726155 -2069.08887278981 -414.271676307086 orientation 1 0 0 0 velocity 0 0 0 angularVelocity 0 0 0 force 0 0 0 torque 0 0 0 vertexInLabFrame  -0.000610174686670462 -133.2916115377 0.787898803618191 200.000982684675 66.6453437547991 -0.391374172283577 -200.000372509988 66.6462677829015 -0.396524631334557
TriangleWall id 75 indSpecies 0 position -333.329068756337 -2202.38030055041 -413.485489927023 orientation 1 0 0 0 velocity 0 0 0 angularVelocity 0 0 0 force 0 0 0 torque 0 0 0 vertexInLabFrame  133.333768855496 -0.000183777103757166 0.00171242355463619 -66.6659934798059 199.937695543498 -1.18271101139811 -66.6677753756898 -199.937511766393 1.18099858784336
TriangleWall id 76 indSpecies 0 position 200.005363964388 -2335.67230639791 -412.689833965026 orientation 1 0 0 0 velocity 0 0 0 angularVelocity 0 0 0 force 0 0 0 torque 0 0 0 vertexInLabFrame  0.000642697156280292 133.291400165804 -0.787757316171621 -200.000950158104 -66.6456845534094 0.390466708123029 200.000307460948 -66.6457156123947 0.397290608048593
TriangleWall id 77 indSpecies 0 position 333.339775514306 -2202.38100372473 -413.475179556572 orientation 1 0 0 0 velocity 0 0 0 angularVelocity 0 0 0 force 0 0 0 torque 0 0 0 vertexInLabFrame  -133.333768852762 9.7492627446627e-05 -0.00241172462580153 66.66589591103 -199.937018285571 1.18263619959441 66.6678729417316 199.936920792944 -1.18022447496844
TriangleWall id 78 indSpecies 0 position 200.0066493587 -2069.0895060663 -414.265348597369 orientation 1 0 0 0 velocity 0 0 0 angularVelocity 0 0 0 force 0 0 0 torque 0 0 0 vertexInLabFrame  -0.000642697156337135 -133.291400165805 0.787757316171735 200.000999097337 66.6454231345122 -0.390055434170904 -200.000356400181 66.645977031292 -0.397701882000831
TriangleWall id 79 indSpecies 0 position 66.6722378087824 -2202.38080873948 -413.480003005823 orientation 1 0 0 0 velocity 0 0 0 angularVelocity 0 0 0 force 0 0 0 torque 0 0 0 vertexInLabFrame  133.333768852762 -9.74926279013744e-05 0.00241172462597206 -66.6659448502626 199.937279704469 -1.18304747354659 -66.6678240024989 -199.937182211841 1.18063574892062