<?xml version="1.0"?>
<VTKFile type="UnstructuredGrid" version="0.1" byte_order="LittleEndian" compressor="vtkZLibDataCompressor">
<UnstructuredGrid>
<Piece NumberOfPoints="960" NumberOfCells="120">
<Points>
<DataArray type="Float32" NumberOfComponents="3" format="ascii">
-4.000000e+02 -6.000000e+03 -4.000000e+02
0.000000e+00 -6.000000e+03 -4.000000e+02
-4.000000e+02 -5.600020e+03 -4.000310e+02
6.443820e-12 -5.600020e+03 -4.000310e+02
-4.000000e+02 -6.000000e+03 0.000000e+00
0.000000e+00 -6.000000e+03 0.000000e+00
-4.000000e+02 -5.600000e+03 -3.153320e-02
1.552330e-10 -5.600000e+03 -3.169300e-02
0.000000e+00 -6.000000e+03 -4.000000e+02
4.000000e+02 -6.000000e+03 -4.000000e+02
6.443820e-12 -5.600020e+03 -4.000310e+02
4.000000e+02 -5.600020e+03 -4.000310e+02
0.000000e+00 -6.000000e+03 0.000000e+00
4.000000e+02 -6.000000e+03 0.000000e+00
1.552330e-10 -5.600000e+03 -3.169300e-02
4.000000e+02 -5.600000e+03 -3.153320e-02
-4.000000e+02 -5.600020e+03 -4.000310e+02
6.443820e-12 -5.600020e+03 -4.000310e+02
-4.000000e+02 -5.200030e+03 -4.000670e+02
2.597440e-11 -5.200030e+03 -4.000670e+02
-4.000000e+02 -5.600000e+03 -3.153320e-02
1.552330e-10 -5.600000e+03 -3.169300e-02
-4.000000e+02 -5.200000e+03 -6.763210e-02
1.497480e-10 -5.200000e+03 -6.772200e-02
6.443820e-12 -5.600020e+03 -4.000310e+02
4.000000e+02 -5.600020e+03 -4.000310e+02
2.597440e-11 -5.200030e+03 -4.000670e+02
4.000000e+02 -5.200030e+03 -4.000670e+02
1.552330e-10 -5.600000e+03 -3.169300e-02
4.000000e+02 -5.600000e+03 -3.153320e-02
1.497480e-10 -5.200000e+03 -6.772200e-02
4.000000e+02 -5.200000e+03 -6.763210e-02
-4.000000e+02 -5.200030e+03 -4.000670e+02
2.597440e-11 -5.200030e+03 -4.000670e+02
-4.000000e+02 -4.800020e+03 -4.000950e+02
3.592100e-10 -4.800020e+03 -4.000950e+02
-4.000000e+02 -5.200000e+03 -6.763210e-02
1.497480e-10 -5.200000e+03 -6.772200e-02
-4.000000e+02 -4.800000e+03 -9.530130e-02
4.806970e-10 -4.800000e+03 -9.533720e-02
2.597440e-11 -5.200030e+03 -4.000670e+02
4.000000e+02 -5.200030e+03 -4.000670e+02
3.592100e-10 -4.800020e+03 -4.000950e+02
4.000000e+02 -4.800020e+03 -4.000950e+02
1.497480e-10 -5.200000e+03 -6.772200e-02
4.000000e+02 -5.200000e+03 -6.763210e-02
4.806970e-10 -4.800000e+03 -9.533720e-02
4.000000e+02 -4.800000e+03 -9.530130e-02
-4.000000e+02 -4.800020e+03 -4.000950e+02
3.592100e-10 -4.800020e+03 -4.000950e+02
-4.000000e+02 -4.400010e+03 -4.001120e+02
4.320480e-10 -4.400010e+03 -4.001120e+02
-4.000000e+02 -4.800000e+03 -9.530130e-02
4.806970e-10 -4.800000e+03 -9.533720e-02
-4.000000e+02 -4.400000e+03 -1.122410e-01
5.737140e-10 -4.400000e+03 -1.122620e-01
3.592100e-10 -4.800020e+03 -4.000950e+02
4.000000e+02 -4.800020e+03 -4.000950e+02
4.320480e-10 -4.400010e+03 -4.001120e+02
4.000000e+02 -4.400010e+03 -4.001120e+02
4.806970e-10 -4.800000e+03 -9.533720e-02
4.000000e+02 -4.800000e+03 -9.530130e-02
5.737140e-10 -4.400000e+03 -1.122620e-01
4.000000e+02 -4.400000e+03 -1.122410e-01
-4.000000e+02 -4.400010e+03 -4.001120e+02
4.320480e-10 -4.400010e+03 -4.001120e+02
-4.000000e+02 -4.000010e+03 -4.001210e+02
2.644450e-10 -4.000010e+03 -4.001210e+02
-4.000000e+02 -4.400000e+03 -1.122410e-01
5.737140e-10 -4.400000e+03 -1.122620e-01
-4.000000e+02 -4.000000e+03 -1.211820e-01
3.548320e-10 -4.000000e+03 -1.211630e-01
4.320480e-10 -4.400010e+03 -4.001120e+02
4.000000e+02 -4.400010e+03 -4.001120e+02
2.644450e-10 -4.000010e+03 -4.001210e+02
4.000000e+02 -4.000010e+03 -4.001210e+02
5.737140e-10 -4.400000e+03 -1.122620e-01
4.000000e+02 -4.400000e+03 -1.122410e-01
3.548320e-10 -4.000000e+03 -1.211630e-01
4.000000e+02 -4.000000e+03 -1.211820e-01
-4.000000e+02 -4.000010e+03 -4.001210e+02
2.644450e-10 -4.000010e+03 -4.001210e+02
-4.000000e+02 -3.600010e+03 -4.001270e+02
2.228120e-10 -3.600010e+03 -4.001270e+02
-4.000000e+02 -4.000000e+03 -1.211820e-01
3.548320e-10 -4.000000e+03 -1.211630e-01
-4.000000e+02 -3.600000e+03 -1.266310e-01
1.865400e-10 -3.600000e+03 -1.266280e-01
2.644450e-10 -4.000010e+03 -4.001210e+02
4.000000e+02 -4.000010e+03 -4.001210e+02
2.228120e-10 -3.600010e+03 -4.001270e+02
4.000000e+02 -3.600010e+03 -4.001270e+02
3.548320e-10 -4.000000e+03 -1.211630e-01
4.000000e+02 -4.000000e+03 -1.211820e-01
1.865400e-10 -3.600000e+03 -1.266280e-01
4.000000e+02 -3.600000e+03 -1.266310e-01
-4.000000e+02 -3.600010e+03 -4.001270e+02
2.228120e-10 -3.600010e+03 -4.001270e+02
-4.000000e+02 -3.200010e+03 -4.001340e+02
1.630590e-10 -3.200010e+03 -4.001340e+02
-4.000000e+02 -3.600000e+03 -1.266310e-01
1.865400e-10 -3.600000e+03 -1.266280e-01
-4.000000e+02 -3.200000e+03 -1.345140e-01
2.287210e-10 -3.200000e+03 -1.345090e-01
2.228120e-10 -3.600010e+03 -4.001270e+02
4.000000e+02 -3.600010e+03 -4.001270e+02
1.630590e-10 -3.200010e+03 -4.001340e+02
4.000000e+02 -3.200010e+03 -4.001340e+02
1.865400e-10 -3.600000e+03 -1.266280e-01
4.000000e+02 -3.600000e+03 -1.266310e-01
2.287210e-10 -3.200000e+03 -1.345090e-01
4.000000e+02 -3.200000e+03 -1.345140e-01
-4.000000e+02 -3.200010e+03 -4.001340e+02
1.630590e-10 -3.200010e+03 -4.001340e+02
-4.000000e+02 -2.800020e+03 -4.001480e+02
-3.556550e-11 -2.800020e+03 -4.001480e+02
-4.000000e+02 -3.200000e+03 -1.345140e-01
2.287210e-10 -3.200000e+03 -1.345090e-01
-4.000000e+02 -2.800000e+03 -1.481080e-01
1.241010e-10 -2.800000e+03 -1.481180e-01
1.630590e-10 -3.200010e+03 -4.001340e+02
4.000000e+02 -3.200010e+03 -4.001340e+02
-3.556550e-11 -2.800020e+03 -4.001480e+02
4.000000e+02 -2.800020e+03 -4.001480e+02
2.287210e-10 -3.200000e+03 -1.345090e-01
4.000000e+02 -3.200000e+03 -1.345140e-01
1.241010e-10 -2.800000e+03 -1.481180e-01
4.000000e+02 -2.800000e+03 -1.481080e-01
-4.000000e+02 -2.800020e+03 -4.001480e+02
-3.556550e-11 -2.800020e+03 -4.001480e+02
-4.000000e+02 -2.400020e+03 -4.001680e+02
-3.004850e-10 -2.400020e+03 -4.001680e+02
-4.000000e+02 -2.800000e+03 -1.481080e-01
1.241010e-10 -2.800000e+03 -1.481180e-01
-4.000000e+02 -2.400000e+03 -1.679560e-01
-1.695500e-10 -2.400000e+03 -1.679530e-01
-3.556550e-11 -2.800020e+03 -4.001480e+02
4.000000e+02 -2.800020e+03 -4.001480e+02
-3.004850e-10 -2.400020e+03 -4.001680e+02
4.000000e+02 -2.400020e+03 -4.001680e+02
1.241010e-10 -2.800000e+03 -1.481180e-01
4.000000e+02 -2.800000e+03 -1.481080e-01
-1.695500e-10 -2.400000e+03 -1.679530e-01
4.000000e+02 -2.400000e+03 -1.679560e-01
-4.000000e+02 -2.400020e+03 -4.001680e+02
-3.004850e-10 -2.400020e+03 -4.001680e+02
-4.000000e+02 -2.000030e+03 -4.001940e+02
-3.350910e-10 -2.000030e+03 -4.001940e+02
-4.000000e+02 -2.400000e+03 -1.679560e-01
-1.695500e-10 -2.400000e+03 -1.679530e-01
-4.000000e+02 -2.000000e+03 -1.942890e-01
-1.895310e-10 -2.000000e+03 -1.942750e-01
-3.004850e-10 -2.400020e+03 -4.001680e+02
4.000000e+02 -2.400020e+03 -4.001680e+02
-3.350910e-10 -2.000030e+03 -4.001940e+02
4.000000e+02 -2.000030e+03 -4.001940e+02
-1.695500e-10 -2.400000e+03 -1.679530e-01
4.000000e+02 -2.400000e+03 -1.679560e-01
-1.895310e-10 -2.000000e+03 -1.942750e-01
4.000000e+02 -2.000000e+03 -1.942890e-01
-4.000000e+02 -2.000030e+03 -4.001940e+02
-3.350910e-10 -2.000030e+03 -4.001940e+02
-4.000000e+02 -1.600030e+03 -4.002260e+02
-2.639950e-10 -1.600030e+03 -4.002260e+02
-4.000000e+02 -2.000000e+03 -1.942890e-01
-1.895310e-10 -2.000000e+03 -1.942750e-01
-4.000000e+02 -1.600000e+03 -2.261690e-01
-2.020530e-10 -1.600000e+03 -2.261670e-01
-3.350910e-10 -2.000030e+03 -4.001940e+02
4.000000e+02 -2.000030e+03 -4.001940e+02
-2.639950e-10 -1.600030e+03 -4.002260e+02
4.000000e+02 -1.600030e+03 -4.002260e+02
-1.895310e-10 -2.000000e+03 -1.942750e-01
4.000000e+02 -2.000000e+03 -1.942890e-01
-2.020530e-10 -1.600000e+03 -2.261670e-01
4.000000e+02 -1.600000e+03 -2.261690e-01
-4.000000e+02 -1.600030e+03 -4.002260e+02
-2.639950e-10 -1.600030e+03 -4.002260e+02
-4.000000e+02 -1.200040e+03 -4.002630e+02
-4.435360e-10 -1.200040e+03 -4.002630e+02
-4.000000e+02 -1.600000e+03 -2.261690e-01
-2.020530e-10 -1.600000e+03 -2.261670e-01
-4.000000e+02 -1.200000e+03 -2.630900e-01
-3.181430e-10 -1.200000e+03 -2.631010e-01
-2.639950e-10 -1.600030e+03 -4.002260e+02
4.000000e+02 -1.600030e+03 -4.002260e+02
-4.435360e-10 -1.200040e+03 -4.002630e+02
4.000000e+02 -1.200040e+03 -4.002630e+02
-2.020530e-10 -1.600000e+03 -2.261670e-01
4.000000e+02 -1.600000e+03 -2.261690e-01
-3.181430e-10 -1.200000e+03 -2.631010e-01
4.000000e+02 -1.200000e+03 -2.630900e-01
-4.000000e+02 -1.200040e+03 -4.002630e+02
-4.435360e-10 -1.200040e+03 -4.002630e+02
-4.000000e+02 -8.000390e+02 -4.003040e+02
-4.061100e-10 -8.000390e+02 -4.003040e+02
-4.000000e+02 -1.200000e+03 -2.630900e-01
-3.181430e-10 -1.200000e+03 -2.631010e-01
-4.000000e+02 -8.000000e+02 -3.035330e-01
-1.794380e-10 -8.000000e+02 -3.035290e-01
-4.435360e-10 -1.200040e+03 -4.002630e+02
4.000000e+02 -1.200040e+03 -4.002630e+02
-4.061100e-10 -8.000390e+02 -4.003040e+02
4.000000e+02 -8.000390e+02 -4.003040e+02
-3.181430e-10 -1.200000e+03 -2.631010e-01
4.000000e+02 -1.200000e+03 -2.630900e-01
-1.794380e-10 -8.000000e+02 -3.035290e-01
4.000000e+02 -8.000000e+02 -3.035330e-01
-4.000000e+02 -8.000390e+02 -4.003040e+02
-4.061100e-10 -8.000390e+02 -4.003040e+02
-4.000000e+02 -4.000380e+02 -4.003430e+02
-9.404320e-11 -4.000380e+02 -4.003430e+02
-4.000000e+02 -8.000000e+02 -3.035330e-01
-1.794380e-10 -8.000000e+02 -3.035290e-01
-4.000000e+02 -4.000000e+02 -3.429300e-01
-4.833980e-12 -4.000000e+02 -3.429270e-01
-4.061100e-10 -8.000390e+02 -4.003040e+02
4.000000e+02 -8.000390e+02 -4.003040e+02
-9.404320e-11 -4.000380e+02 -4.003430e+02
4.000000e+02 -4.000380e+02 -4.003430e+02
-1.794380e-10 -8.000000e+02 -3.035290e-01
4.000000e+02 -8.000000e+02 -3.035330e-01
-4.833980e-12 -4.000000e+02 -3.429270e-01
4.000000e+02 -4.000000e+02 -3.429300e-01
-4.000000e+02 -4.000380e+02 -4.003430e+02
-9.404320e-11 -4.000380e+02 -4.003430e+02
-4.000000e+02 -3.609780e-02 -4.003790e+02
-5.692210e-11 -3.608110e-02 -4.003790e+02
-4.000000e+02 -4.000000e+02 -3.429300e-01
-4.833980e-12 -4.000000e+02 -3.429270e-01
-4.000000e+02 1.916610e-05 -3.791970e-01
-1.271850e-11 1.910880e-05 -3.792000e-01
-9.404320e-11 -4.000380e+02 -4.003430e+02
4.000000e+02 -4.000380e+02 -4.003430e+02
[...]
<PointData>
<DataArray type="Float32" Name="V1" format="ascii">
0.000000e+00
0.000000e+00
2.450330e-05
-4.876990e-11
0.000000e+00
0.000000e+00
8.517440e-06
-6.773950e-11
0.000000e+00
0.000000e+00
-4.876990e-11
-2.450340e-05
0.000000e+00
0.000000e+00
-6.773950e-11
-8.517570e-06
2.450330e-05
-4.876990e-11
3.541730e-05
-1.517500e-10
8.517440e-06
-6.773950e-11
2.490350e-06
5.278940e-12
-4.876990e-11
-2.450340e-05
-1.517500e-10
-3.541770e-05
-6.773950e-11
-8.517570e-06
5.278940e-12
-2.490210e-06
3.541730e-05
-1.517500e-10
4.876960e-05
2.367890e-10
2.490350e-06
5.278940e-12
1.229190e-07
2.742180e-11
-1.517500e-10
-3.541770e-05
2.367890e-10
-4.876920e-05
5.278940e-12
-2.490210e-06
2.742180e-11
-1.228890e-07
4.876960e-05
2.367890e-10
3.151920e-05
-6.158380e-11
1.229190e-07
2.742180e-11
6.252250e-06
-1.497990e-10
2.367890e-10
-4.876920e-05
-6.158380e-11
-3.151940e-05
2.742180e-11
-1.228890e-07
-1.497990e-10
-6.252610e-06
3.151920e-05
-6.158380e-11
1.704500e-05
2.302690e-11
6.252250e-06
-1.497990e-10
5.537730e-06
1.612340e-11
-6.158380e-11
-3.151940e-05
2.302690e-11
-1.704490e-05
-1.497990e-10
-6.252610e-06
1.612340e-11
-5.537690e-06
1.704500e-05
2.302690e-11
-1.463260e-05
-9.495460e-11
5.537730e-06
1.612340e-11
1.750650e-06
-6.669230e-11
2.302690e-11
-1.704490e-05
-9.495460e-11
1.463250e-05
1.612340e-11
-5.537690e-06
-6.669230e-11
-1.750800e-06
-1.463260e-05
-9.495460e-11
-3.288900e-05
1.174480e-11
1.750650e-06
-6.669230e-11
-4.378140e-06
9.054510e-11
-9.495460e-11
1.463250e-05
1.174480e-11
3.288900e-05
-6.669230e-11
-1.750800e-06
9.054510e-11
4.378280e-06
-3.288900e-05
1.174480e-11
-4.494400e-08
-6.329210e-11
-4.378140e-06
9.054510e-11
-8.055240e-06
2.105080e-10
1.174480e-11
3.288900e-05
-6.329210e-11
4.488900e-08
9.054510e-11
4.378280e-06
2.105080e-10
8.055660e-06
-4.494400e-08
-6.329210e-11
2.561890e-05
-6.723780e-11
-8.055240e-06
2.105080e-10
-6.946970e-06
-6.491790e-11
-6.329210e-11
4.488900e-08
-6.723780e-11
-2.561910e-05
2.105080e-10
8.055660e-06
-6.491790e-11
6.946780e-06
2.561890e-05
-6.723780e-11
5.538240e-06
8.595330e-11
-6.946970e-06
-6.491790e-11
-4.013320e-06
1.000330e-10
-6.723780e-11
-2.561910e-05
8.595330e-11
-5.537900e-06
-6.491790e-11
6.946780e-06
1.000330e-10
4.013530e-06
5.538240e-06
8.595330e-11
-4.853870e-05
1.081820e-10
-4.013320e-06
1.000330e-10
2.712510e-06
-1.155150e-10
8.595330e-11
-5.537900e-06
1.081820e-10
4.853880e-05
1.000330e-10
4.013530e-06
-1.155150e-10
-2.712690e-06
-4.853870e-05
1.081820e-10
-6.919690e-05
1.313510e-10
2.712510e-06
-1.155150e-10
2.896410e-06
-7.299810e-11
1.081820e-10
4.853880e-05
1.313510e-10
6.919710e-05
-1.155150e-10
-2.712690e-06
-7.299810e-11
-2.896560e-06
-6.919690e-05
1.313510e-10
-7.017520e-06
1.144080e-10
2.896410e-06
-7.299810e-11
1.008760e-08
-2.706150e-12
1.313510e-10
6.919710e-05
1.144080e-10
7.017810e-06
-7.299810e-11
-2.896560e-06
-2.706150e-12
-1.015830e-08
-7.017520e-06
1.144080e-10
1.601380e-05
-1.425300e-10
1.008760e-08
-2.706150e-12
6.937250e-07
-5.473520e-11
1.144080e-10
7.017810e-06
-1.425300e-10
-1.601410e-05
-2.706150e-12
-1.015830e-08
-5.473520e-11
-6.937180e-07
1.601380e-05
-1.425300e-10
4.924890e-05
-4.264730e-12
6.937250e-07
-5.473520e-11
2.054610e-06
-4.489360e-11
-1.425300e-10
-1.601410e-05
-4.264730e-12
-4.924870e-05
-5.473520e-11
-6.937180e-07
-4.489360e-11
-2.054650e-06
4.924890e-05
-4.264730e-12
2.566080e-05
1.898450e-11
2.054610e-06
-4.489360e-11
4.279190e-06
-1.554940e-11
-4.264730e-12
-4.924870e-05
1.898450e-11
-2.566070e-05
-4.489360e-11
-2.054650e-06
-1.554940e-11
-4.279290e-06
2.566080e-05
1.898450e-11
4.028710e-05
3.039240e-11
4.279190e-06
-1.554940e-11
3.524300e-06
1.320520e-10
1.898450e-11
-2.566070e-05
3.039240e-11
-4.028700e-05
-1.554940e-11
-4.279290e-06
1.320520e-10
-3.523920e-06
4.028710e-05
3.039240e-11
7.284740e-06
-1.248520e-10
3.524300e-06
1.320520e-10
-9.536260e-07
7.588790e-11
3.039240e-11
-4.028700e-05
-1.248520e-10
-7.284940e-06
1.320520e-10
-3.523920e-06
7.588790e-11
9.538200e-07
7.284740e-06
-1.248520e-10
1.731810e-07
-7.451670e-11
-9.536260e-07
7.588790e-11
1.133350e-06
9.855900e-11
-1.248520e-10
-7.284940e-06
-7.451670e-11
-1.731590e-07
7.588790e-11
9.538200e-07
9.855900e-11
-1.133210e-06
1.731810e-07
-7.451670e-11
-1.048470e-05
-7.920820e-11
1.133350e-06
9.855900e-11
9.062320e-07
1.248540e-11
-7.451670e-11
-1.731590e-07
-7.920820e-11
1.048460e-05
9.855900e-11
-1.133210e-06
1.248540e-11
-9.062090e-07
-1.048470e-05
-7.920820e-11
-2.760330e-05
2.944220e-11
9.062320e-07
1.248540e-11
-4.826720e-06
1.144070e-10
-7.920820e-11
1.048460e-05
2.944220e-11
2.760320e-05
1.248540e-11
-9.062090e-07
1.144070e-10
4.826950e-06
-2.760330e-05
2.944220e-11
-6.351410e-06
-5.575590e-11
-4.826720e-06
1.144070e-10
-5.266900e-06
-6.336890e-11
2.944220e-11
2.760320e-05
-5.575590e-11
6.351260e-06
1.144070e-10
4.826950e-06
-6.336890e-11
5.266840e-06
-6.351410e-06
-5.575590e-11
-4.149980e-06
-1.343230e-10
-5.266900e-06
-6.336890e-11
1.581690e-06
4.564680e-11
-5.575590e-11
6.351260e-06
-1.343230e-10
4.149710e-06
-6.336890e-11
5.266840e-06
4.564680e-11
-1.581630e-06
-4.149980e-06
-1.343230e-10
1.807790e-05
2.950000e-11
1.581690e-06
4.564680e-11
2.326310e-06
-3.389850e-11
-1.343230e-10
4.149710e-06
2.950000e-11
-1.807780e-05
4.564680e-11
-1.581630e-06
-3.389850e-11
-2.326420e-06
1.807790e-05
2.950000e-11
1.026000e-05
1.038990e-10
2.326310e-06
-3.389850e-11
-1.920560e-06
1.745350e-10
2.950000e-11
-1.807780e-05
1.038990e-10
-1.025980e-05
-3.389850e-11
-2.326420e-06
1.745350e-10
1.920800e-06
1.026000e-05
1.038990e-10
-2.962540e-05
-3.791860e-11
-1.920560e-06
1.745350e-10
1.820640e-06
5.257190e-11
1.038990e-10
-1.025980e-05
-3.791860e-11
2.962530e-05
1.745350e-10
1.920800e-06
5.257190e-11
-1.820500e-06
-2.962540e-05
-3.791860e-11
2.290560e-05
1.492780e-10
1.820640e-06
5.257190e-11
4.758990e-06
-6.199980e-11
-3.791860e-11
2.962530e-05
1.492780e-10
-2.290540e-05
5.257190e-11
-1.820500e-06
-6.199980e-11
-4.759230e-06
2.290560e-05
1.492780e-10
1.422200e-07
-4.332260e-11
4.758990e-06
-6.199980e-11
3.808950e-07
-2.662960e-11
1.492780e-10
-2.290540e-05
-4.332260e-11
-1.422890e-07
-6.199980e-11
-4.759230e-06
-2.662960e-11
-3.809480e-07
1.422200e-07
-4.332260e-11
-2.098420e-05
-1.620700e-10
3.808950e-07
-2.662960e-11
1.775660e-06
1.479250e-10
-4.332260e-11
-1.422890e-07
-1.620700e-10
2.098380e-05
-2.662960e-11
-3.809480e-07
1.479250e-10
-1.775480e-06
-2.098420e-05
-1.620700e-10
-3.720750e-05
-2.954860e-11
1.775660e-06
1.479250e-10
-7.392680e-07
-9.582650e-11
-1.620700e-10
2.098380e-05
-2.954860e-11
3.720740e-05
1.479250e-10
-1.775480e-06
-9.582650e-11
7.390900e-07
0.000000e+00
0.000000e+00
8.517440e-06
-6.773950e-11
0.000000e+00
0.000000e+00
-4.151990e-05
-1.662230e-10
0.000000e+00
0.000000e+00
-6.773950e-11
-8.517570e-06
0.000000e+00
0.000000e+00
-1.662230e-10
4.151960e-05
8.517440e-06
-6.773950e-11
2.490350e-06
5.278940e-12
-4.151990e-05
-1.662230e-10
-4.041830e-05
4.026320e-11
-6.773950e-11
-8.517570e-06
5.278940e-12
-2.490210e-06
-1.662230e-10
4.151960e-05
4.026320e-11
4.041830e-05
2.490350e-06
5.278940e-12
1.229190e-07
2.742180e-11
-4.041830e-05
4.026320e-11
-4.898060e-05
1.122080e-10
5.278940e-12
-2.490210e-06
2.742180e-11
-1.228890e-07
4.026320e-11
4.041830e-05
1.122080e-10
4.898080e-05
1.229190e-07
2.742180e-11
6.252250e-06
-1.497990e-10
-4.898060e-05
1.122080e-10
-4.405420e-05
-3.844900e-11
2.742180e-11
-1.228890e-07
-1.497990e-10
-6.252610e-06
1.122080e-10
4.898080e-05
-3.844900e-11
4.405420e-05
6.252250e-06
-1.497990e-10
5.537730e-06
1.612340e-11
-4.405420e-05
-3.844900e-11
-2.808410e-05
3.603060e-11
-1.497990e-10
-6.252610e-06
1.612340e-11
-5.537690e-06
-3.844900e-11
4.405420e-05
3.603060e-11
2.808420e-05
5.537730e-06
1.612340e-11
1.750650e-06
-6.669230e-11
-2.808410e-05
3.603060e-11
1.107070e-05
-2.363630e-11
1.612340e-11
-5.537690e-06
-6.669230e-11
-1.750800e-06
3.603060e-11
2.808420e-05
-2.363630e-11
-1.107070e-05
1.750650e-06
-6.669230e-11
-4.378140e-06
9.054510e-11
1.107070e-05
-2.363630e-11
4.167920e-05
-3.714920e-11
-6.669230e-11
-1.750800e-06
9.054510e-11
4.378280e-06
-2.363630e-11
-1.107070e-05
-3.714920e-11
-4.167930e-05
-4.378140e-06
9.054510e-11
-8.055240e-06
2.105080e-10
4.167920e-05
-3.714920e-11
1.612390e-05
1.050850e-11
9.054510e-11
4.378280e-06
2.105080e-10
8.055660e-06
-3.714920e-11
-4.167930e-05
1.050850e-11
-1.612390e-05
-8.055240e-06
2.105080e-10
-6.946970e-06
-6.491790e-11
1.612390e-05
1.050850e-11
-1.166870e-05
5.644630e-11
2.105080e-10
8.055660e-06
-6.491790e-11
6.946780e-06
1.050850e-11
-1.612390e-05
5.644630e-11
1.166890e-05
-6.946970e-06
-6.491790e-11
-4.013320e-06
1.000330e-10
-1.166870e-05
5.644630e-11
2.460150e-06
-1.363380e-10
-6.491790e-11
6.946780e-06
1.000330e-10
4.013530e-06
5.644630e-11
1.166890e-05
-1.363380e-10
-2.460340e-06
-4.013320e-06
1.000330e-10
2.712510e-06
-1.155150e-10
2.460150e-06
-1.363380e-10
4.314000e-05
1.659330e-11
1.000330e-10
4.013530e-06
-1.155150e-10
-2.712690e-06
-1.363380e-10
-2.460340e-06
1.659330e-11
-4.314010e-05
2.712510e-06
-1.155150e-10
2.896410e-06
-7.299810e-11
4.314000e-05
1.659330e-11
6.336250e-05
-4.516400e-11
-1.155150e-10
-2.712690e-06
-7.299810e-11
-2.896560e-06
1.659330e-11
-4.314010e-05
-4.516400e-11
-6.336270e-05
2.896410e-06
-7.299810e-11
1.008760e-08
-2.706150e-12
6.336250e-05
-4.516400e-11
7.019570e-06
-8.035250e-11
-7.299810e-11
-2.896560e-06
-2.706150e-12
-1.015830e-08
-4.516400e-11
-6.336270e-05
-8.035250e-11
-7.019660e-06
1.008760e-08
-2.706150e-12
6.937250e-07
-5.473520e-11
7.019570e-06
-8.035250e-11
-1.742540e-05
1.678890e-10
-2.706150e-12
-1.015830e-08
-5.473520e-11
-6.937180e-07
-8.035250e-11
-7.019660e-06
1.678890e-10
1.742580e-05
6.937250e-07
-5.473520e-11
2.054610e-06
-4.489360e-11
-1.742540e-05
1.678890e-10
-5.335000e-05
-5.632230e-11
-5.473520e-11
-6.937180e-07
-4.489360e-11
-2.054650e-06
1.678890e-10
1.742580e-05
-5.632230e-11
5.335000e-05
2.054610e-06
-4.489360e-11
4.279190e-06
-1.554940e-11
-5.335000e-05
-5.632230e-11
-3.422260e-05
5.698030e-11
-4.489360e-11
-2.054650e-06
-1.554940e-11
-4.279290e-06
-5.632230e-11
5.335000e-05
5.698030e-11
3.422270e-05
4.279190e-06
-1.554940e-11
3.524300e-06
1.320520e-10
-3.422260e-05
5.698030e-11
-4.730600e-05
3.726980e-11
-1.554940e-11
-4.279290e-06
1.320520e-10
-3.523920e-06
5.698030e-11
3.422270e-05
3.726980e-11
4.730610e-05
3.524300e-06
1.320520e-10
-9.536260e-07
7.588790e-11
-4.730600e-05
3.726980e-11
-5.404760e-06
-1.765390e-11
1.320520e-10
-3.523920e-06
7.588790e-11
9.538200e-07
3.726980e-11
4.730610e-05
-1.765390e-11
5.404600e-06
-9.536260e-07
7.588790e-11
1.133350e-06
9.855900e-11
-5.404760e-06
-1.765390e-11
-2.442610e-06
-1.479980e-10
7.588790e-11
9.538200e-07
9.855900e-11
-1.133210e-06
-1.765390e-11
5.404600e-06
-1.479980e-10
2.442290e-06
1.133350e-06
9.855900e-11
9.062320e-07
1.248540e-11
-2.442610e-06
-1.479980e-10
8.692250e-06
-1.188380e-10
9.855900e-11
-1.133210e-06
1.248540e-11
-9.062090e-07
-1.479980e-10
2.442290e-06
-1.188380e-10
-8.692530e-06
9.062320e-07
1.248540e-11
-4.826720e-06
1.144070e-10
8.692250e-06
-1.188380e-10
3.726390e-05
7.083730e-11
1.248540e-11
-9.062090e-07
1.144070e-10
4.826950e-06
-1.188380e-10
-8.692530e-06
7.083730e-11
-3.726380e-05
-4.826720e-06
1.144070e-10
-5.266900e-06
-6.336890e-11
3.726390e-05
7.083730e-11
1.687850e-05
5.471410e-11
1.144070e-10
4.826950e-06
-6.336890e-11
5.266840e-06
7.083730e-11
-3.726380e-05
5.471410e-11
-1.687840e-05
-5.266900e-06
-6.336890e-11
1.581690e-06
4.564680e-11
1.687850e-05
5.471410e-11
9.903560e-07
-1.848260e-11
-6.336890e-11
5.266840e-06
4.564680e-11
-1.581630e-06
5.471410e-11
-1.687840e-05
-1.848260e-11
-9.905640e-07
1.581690e-06
4.564680e-11
2.326310e-06
-3.389850e-11
9.903560e-07
-1.848260e-11
-2.272200e-05
1.021700e-10
4.564680e-11
-1.581630e-06
-3.389850e-11
-2.326420e-06
-1.848260e-11
-9.905640e-07
1.021700e-10
2.272230e-05
2.326310e-06
-3.389850e-11
-1.920560e-06
1.745350e-10
-2.272200e-05
1.021700e-10
-6.474500e-06
-6.319010e-11
-3.389850e-11
-2.326420e-06
1.745350e-10
1.920800e-06
1.021700e-10
2.272230e-05
-6.319010e-11
6.474520e-06
-1.920560e-06
1.745350e-10
1.820640e-06
5.257190e-11
-6.474500e-06
-6.319010e-11
2.601300e-05
-6.455620e-11
1.745350e-10
1.920800e-06
5.257190e-11
-1.820500e-06
-6.319010e-11
6.474520e-06
-6.455620e-11
-2.601310e-05
1.820640e-06
5.257190e-11
4.758990e-06
-6.199980e-11
2.601300e-05
-6.455620e-11
-3.245030e-05
6.445690e-11
5.257190e-11
-1.820500e-06
-6.199980e-11
-4.759230e-06
-6.455620e-11
-2.601310e-05
6.445690e-11
3.245050e-05
4.758990e-06
-6.199980e-11
3.808950e-07
-2.662960e-11
-3.245030e-05
6.445690e-11
-8.486080e-07
-7.450390e-11
-6.199980e-11
-4.759230e-06
-2.662960e-11
-3.809480e-07
6.445690e-11
3.245050e-05
-7.450390e-11
8.484250e-07
3.808950e-07
-2.662960e-11
1.775660e-06
1.479250e-10
-8.486080e-07
-7.450390e-11
1.741920e-05
-1.419170e-10
-2.662960e-11
-3.809480e-07
1.479250e-10
-1.775480e-06
-7.450390e-11
8.484250e-07
-1.419170e-10
-1.741940e-05
1.775660e-06
1.479250e-10
-7.392680e-07
-9.582650e-11
1.741920e-05
-1.419170e-10
3.866880e-05
3.530310e-10
1.479250e-10
-1.775480e-06
-9.582650e-11
7.390900e-07
-1.419170e-10
-1.741940e-05
3.530310e-10
-3.866790e-05
</DataArray>
<DataArray type="Float32" Name="V2" format="ascii">
0.000000e+00
0.000000e+00
6.118630e-04
6.420980e-04
0.000000e+00
0.000000e+00
-8.803200e-06
-1.153640e-05
0.000000e+00
0.000000e+00
6.420980e-04
6.118630e-04
0.000000e+00
0.000000e+00
-1.153640e-05
-8.803640e-06
6.118630e-04
6.420980e-04
1.055380e-03
1.106810e-03
-8.803200e-06
-1.153640e-05
5.804830e-05
6.171320e-05
6.420980e-04
6.118630e-04
1.106810e-03
1.055380e-03
-1.153640e-05
-8.803640e-06
6.171320e-05
5.804840e-05
1.055380e-03
1.106810e-03
5.772770e-04
5.976300e-04
5.804830e-05
6.171320e-05
5.300170e-05
4.616010e-05
1.106810e-03
1.055380e-03
5.976300e-04
5.772780e-04
6.171320e-05
5.804840e-05
4.616010e-05
5.300120e-05
5.772770e-04
5.976300e-04
-1.728510e-04
-1.793840e-04
5.300170e-05
4.616010e-05
-1.902600e-05
-2.462600e-05
5.976300e-04
5.772780e-04
-1.793840e-04
-1.728520e-04
4.616010e-05
5.300120e-05
-2.462600e-05
-1.902600e-05
-1.728510e-04
-1.793840e-04
-4.154100e-04
-4.209960e-04
-1.902600e-05
-2.462600e-05
-1.669600e-05
-1.524310e-05
-1.793840e-04
-1.728520e-04
-4.209960e-04
-4.154090e-04
-2.462600e-05
-1.902600e-05
-1.524310e-05
-1.669640e-05
-4.154100e-04
-4.209960e-04
-7.067500e-04
-7.236830e-04
-1.669600e-05
-1.524310e-05
-1.343660e-05
-1.220770e-05
-4.209960e-04
-4.154090e-04
-7.236830e-04
-7.067500e-04
-1.524310e-05
-1.669640e-05
-1.220770e-05
-1.343680e-05
-7.067500e-04
-7.236830e-04
-1.377260e-03
-1.434550e-03
-1.343660e-05
-1.220770e-05
-5.797140e-07
2.860210e-06
-7.236830e-04
-7.067500e-04
-1.434550e-03
-1.377260e-03
-1.220770e-05
-1.343680e-05
2.860210e-06
-5.792430e-07
-1.377260e-03
-1.434550e-03
-1.486220e-03
-1.529190e-03
-5.797140e-07
2.860210e-06
3.118420e-05
3.293940e-05
-1.434550e-03
-1.377260e-03
-1.529190e-03
-1.486220e-03
2.860210e-06
-5.792430e-07
3.293940e-05
3.118440e-05
-1.486220e-03
-1.529190e-03
-4.455130e-04
-4.462290e-04
3.118420e-05
3.293940e-05
-7.931580e-06
-6.232790e-06
-1.529190e-03
-1.486220e-03
-4.462290e-04
-4.455130e-04
3.293940e-05
3.118440e-05
-6.232790e-06
-7.932820e-06
-4.455130e-04
-4.462290e-04
8.255730e-04
8.256670e-04
-7.931580e-06
-6.232790e-06
-6.977570e-05
-7.044040e-05
-4.462290e-04
-4.455130e-04
8.256670e-04
8.255720e-04
-6.232790e-06
-7.932820e-06
-7.044040e-05
-6.977590e-05
8.255730e-04
8.256670e-04
1.066100e-03
1.070140e-03
-6.977570e-05
-7.044040e-05
-7.724850e-05
-7.648420e-05
8.256670e-04
8.255720e-04
1.070140e-03
1.066100e-03
-7.044040e-05
-6.977590e-05
-7.648420e-05
-7.724850e-05
1.066100e-03
1.070140e-03
3.352420e-04
3.452270e-04
-7.724850e-05
-7.648420e-05
-3.108030e-05
-3.067160e-05
1.070140e-03
1.066100e-03
3.452270e-04
3.352420e-04
-7.648420e-05
-7.724850e-05
-3.067160e-05
-3.108080e-05
3.352420e-04
3.452270e-04
-5.030750e-04
-4.863100e-04
-3.108030e-05
-3.067160e-05
4.208910e-05
4.019710e-05
3.452270e-04
3.352420e-04
-4.863100e-04
-5.030750e-04
-3.067160e-05
-3.108080e-05
4.019710e-05
4.208920e-05
-5.030750e-04
-4.863100e-04
-8.968250e-04
-8.729430e-04
4.208910e-05
4.019710e-05
7.378450e-05
7.153860e-05
-4.863100e-04
-5.030750e-04
-8.729430e-04
-8.968250e-04
4.019710e-05
4.208920e-05
7.153860e-05
7.378400e-05
-8.968250e-04
-8.729430e-04
-3.818580e-04
-3.359710e-04
7.378450e-05
7.153860e-05
-5.320610e-06
-8.613610e-06
-8.729430e-04
-8.968250e-04
-3.359710e-04
-3.818580e-04
7.153860e-05
7.378400e-05
-8.613610e-06
-5.321030e-06
-3.818580e-04
-3.359710e-04
5.625970e-04
5.934830e-04
-5.320610e-06
-8.613610e-06
-4.730050e-05
-4.892090e-05
-3.359710e-04
-3.818580e-04
5.934830e-04
5.625960e-04
-8.613610e-06
-5.321030e-06
-4.892090e-05
-4.730020e-05
5.625970e-04
5.934830e-04
6.633980e-04
6.524160e-04
-4.730050e-05
-4.892090e-05
-1.776450e-05
-1.501330e-05
5.934830e-04
5.625960e-04
6.524160e-04
6.633970e-04
-4.892090e-05
-4.730020e-05
-1.501330e-05
-1.776520e-05
6.633980e-04
6.524160e-04
-2.087020e-05
-3.964440e-05
-1.776450e-05
-1.501330e-05
2.792750e-05
2.923530e-05
6.524160e-04
6.633970e-04
-3.964440e-05
-2.086940e-05
-1.501330e-05
-1.776520e-05
2.923530e-05
2.792730e-05
-2.087020e-05
-3.964440e-05
-4.279420e-04
-4.323320e-04
2.792750e-05
2.923530e-05
3.049070e-05
3.009840e-05
-3.964440e-05
-2.086940e-05
-4.323320e-04
-4.279400e-04
2.923530e-05
2.792730e-05
3.009840e-05
3.049040e-05
-4.279420e-04
-4.323320e-04
-3.794600e-04
-3.613050e-04
3.049070e-05
3.009840e-05
2.051540e-05
2.367530e-05
-4.323320e-04
-4.279400e-04
-3.613050e-04
-3.794610e-04
3.009840e-05
3.049040e-05
2.367530e-05
2.051520e-05
-3.794600e-04
-3.613050e-04
-5.443970e-05
-3.935990e-05
2.051540e-05
2.367530e-05
-3.628510e-06
-4.077970e-06
-3.613050e-04
-3.794610e-04
-3.935990e-05
-5.443950e-05
2.367530e-05
2.051520e-05
-4.077970e-06
-3.628140e-06
-5.443970e-05
-3.935990e-05
2.545260e-04
2.227560e-04
-3.628510e-06
-4.077970e-06
-5.298460e-05
-5.606790e-05
-3.935990e-05
-5.443950e-05
2.227560e-04
2.545260e-04
-4.077970e-06
-3.628140e-06
-5.606790e-05
-5.298390e-05
2.545260e-04
2.227560e-04
4.566180e-04
3.992440e-04
-5.298460e-05
-5.606790e-05
-1.321600e-06
-3.280770e-06
2.227560e-04
2.545260e-04
3.992440e-04
4.566170e-04
-5.606790e-05
-5.298390e-05
-3.280770e-06
-1.321470e-06
4.566180e-04
3.992440e-04
9.335930e-04
9.230120e-04
-1.321600e-06
-3.280770e-06
5.384450e-05
5.368470e-05
3.992440e-04
4.566170e-04
9.230120e-04
9.335940e-04
-3.280770e-06
-1.321470e-06
5.368470e-05
5.384460e-05
9.335930e-04
9.230120e-04
1.167270e-03
1.163980e-03
5.384450e-05
5.368470e-05
2.796710e-05
2.537890e-05
9.230120e-04
9.335940e-04
1.163980e-03
1.167270e-03
5.368470e-05
5.384460e-05
2.537890e-05
2.796720e-05
1.167270e-03
1.163980e-03
4.304620e-04
4.126940e-04
2.796710e-05
2.537890e-05
-2.027990e-05
-2.395150e-05
1.163980e-03
1.167270e-03
4.126940e-04
4.304620e-04
2.537890e-05
2.796720e-05
-2.395150e-05
-2.028020e-05
4.304620e-04
4.126940e-04
-8.510270e-04
-8.512520e-04
-2.027990e-05
-2.395150e-05
-2.561780e-05
-2.115440e-05
4.126940e-04
4.304620e-04
-8.512520e-04
-8.510280e-04
-2.395150e-05
-2.028020e-05
-2.115440e-05
-2.561770e-05
-8.510270e-04
-8.512520e-04
-1.726570e-03
-1.739180e-03
-2.561780e-05
-2.115440e-05
7.759710e-06
7.431860e-06
-8.512520e-04
-8.510280e-04
-1.739180e-03
-1.726570e-03
-2.115440e-05
-2.561770e-05
7.431860e-06
7.759130e-06
-1.726570e-03
-1.739180e-03
-2.102430e-03
-2.103410e-03
7.759710e-06
7.431860e-06
-1.322560e-05
-1.529400e-05
-1.739180e-03
-1.726570e-03
-2.103410e-03
-2.102430e-03
7.431860e-06
7.759130e-06
-1.529400e-05
-1.322560e-05
-2.102430e-03
-2.103410e-03
-2.221660e-03
-2.195300e-03
-1.322560e-05
-1.529400e-05
-5.354230e-05
-4.721750e-05
-2.103410e-03
-2.102430e-03
-2.195300e-03
-2.221660e-03
-1.529400e-05
-1.322560e-05
-4.721750e-05
-5.354320e-05
0.000000e+00
0.000000e+00
-8.803200e-06
-1.153640e-05
0.000000e+00
0.000000e+00
-5.944850e-04
-6.192480e-04
0.000000e+00
0.000000e+00
-1.153640e-05
-8.803640e-06
0.000000e+00
0.000000e+00
-6.192480e-04
-5.944840e-04
-8.803200e-06
-1.153640e-05
5.804830e-05
6.171320e-05
-5.944850e-04
-6.192480e-04
-1.171140e-03
-1.229930e-03
-1.153640e-05
-8.803640e-06
6.171320e-05
5.804840e-05