<?xml version="1.0"?>
<VTKFile type="UnstructuredGrid" version="0.1" byte_order="LittleEndian" compressor="vtkZLibDataCompressor">
<UnstructuredGrid>
<Piece NumberOfPoints="960" NumberOfCells="120">
<Points>
<DataArray type="Float32" NumberOfComponents="3" format="ascii">
-4.000000e+02 -6.000000e+03 -4.000000e+02
0.000000e+00 -6.000000e+03 -4.000000e+02
-4.000000e+02 -5.600080e+03 -4.000860e+02
-1.190250e-05 -5.600080e+03 -4.000860e+02
-4.000000e+02 -6.000000e+03 0.000000e+00
0.000000e+00 -6.000000e+03 0.000000e+00
-4.000000e+02 -5.600000e+03 -8.567340e-02
-2.452620e-09 -5.600000e+03 -8.572930e-02
0.000000e+00 -6.000000e+03 -4.000000e+02
4.000000e+02 -6.000000e+03 -4.000000e+02
-1.190250e-05 -5.600080e+03 -4.000860e+02
4.000000e+02 -5.600080e+03 -4.000860e+02
0.000000e+00 -6.000000e+03 0.000000e+00
4.000000e+02 -6.000000e+03 0.000000e+00
-2.452620e-09 -5.600000e+03 -8.572930e-02
4.000000e+02 -5.600000e+03 -8.568960e-02
-4.000000e+02 -5.600080e+03 -4.000860e+02
-1.190250e-05 -5.600080e+03 -4.000860e+02
-4.000000e+02 -5.200120e+03 -4.002070e+02
-1.636550e-05 -5.200120e+03 -4.002070e+02
-4.000000e+02 -5.600000e+03 -8.567340e-02
-2.452620e-09 -5.600000e+03 -8.572930e-02
-4.000000e+02 -5.200000e+03 -2.062620e-01
5.977830e-08 -5.200000e+03 -2.063170e-01
-1.190250e-05 -5.600080e+03 -4.000860e+02
4.000000e+02 -5.600080e+03 -4.000860e+02
-1.636550e-05 -5.200120e+03 -4.002070e+02
4.000000e+02 -5.200120e+03 -4.002070e+02
-2.452620e-09 -5.600000e+03 -8.572930e-02
4.000000e+02 -5.600000e+03 -8.568960e-02
5.977830e-08 -5.200000e+03 -2.063170e-01
4.000000e+02 -5.200000e+03 -2.062880e-01
-4.000000e+02 -5.200120e+03 -4.002070e+02
-1.636550e-05 -5.200120e+03 -4.002070e+02
-4.000000e+02 -4.800150e+03 -4.003400e+02
-1.297980e-05 -4.800150e+03 -4.003400e+02
-4.000000e+02 -5.200000e+03 -2.062620e-01
5.977830e-08 -5.200000e+03 -2.063170e-01
-4.000000e+02 -4.800000e+03 -3.397200e-01
-2.027660e-07 -4.800000e+03 -3.398040e-01
-1.636550e-05 -5.200120e+03 -4.002070e+02
4.000000e+02 -5.200120e+03 -4.002070e+02
-1.297980e-05 -4.800150e+03 -4.003400e+02
4.000000e+02 -4.800150e+03 -4.003400e+02
5.977830e-08 -5.200000e+03 -2.063170e-01
4.000000e+02 -5.200000e+03 -2.062880e-01
-2.027660e-07 -4.800000e+03 -3.398040e-01
4.000000e+02 -4.800000e+03 -3.397440e-01
-4.000000e+02 -4.800150e+03 -4.003400e+02
-1.297980e-05 -4.800150e+03 -4.003400e+02
-4.000000e+02 -4.400180e+03 -4.005040e+02
-7.564360e-06 -4.400180e+03 -4.005040e+02
-4.000000e+02 -4.800000e+03 -3.397200e-01
-2.027660e-07 -4.800000e+03 -3.398040e-01
-4.000000e+02 -4.400000e+03 -5.041290e-01
-6.871080e-07 -4.400000e+03 -5.043880e-01
-1.297980e-05 -4.800150e+03 -4.003400e+02
4.000000e+02 -4.800150e+03 -4.003400e+02
-7.564360e-06 -4.400180e+03 -4.005040e+02
4.000000e+02 -4.400180e+03 -4.005040e+02
-2.027660e-07 -4.800000e+03 -3.398040e-01
4.000000e+02 -4.800000e+03 -3.397440e-01
-6.871080e-07 -4.400000e+03 -5.043880e-01
4.000000e+02 -4.400000e+03 -5.041500e-01
-4.000000e+02 -4.400180e+03 -4.005040e+02
-7.564360e-06 -4.400180e+03 -4.005040e+02
-4.000000e+02 -4.000200e+03 -4.007010e+02
-4.097430e-06 -4.000200e+03 -4.007010e+02
-4.000000e+02 -4.400000e+03 -5.041290e-01
-6.871080e-07 -4.400000e+03 -5.043880e-01
-4.000000e+02 -4.000000e+03 -7.020520e-01
-3.298150e-07 -4.000000e+03 -7.023940e-01
-7.564360e-06 -4.400180e+03 -4.005040e+02
4.000000e+02 -4.400180e+03 -4.005040e+02
-4.097430e-06 -4.000200e+03 -4.007010e+02
4.000000e+02 -4.000200e+03 -4.007010e+02
-6.871080e-07 -4.400000e+03 -5.043880e-01
4.000000e+02 -4.400000e+03 -5.041500e-01
-3.298150e-07 -4.000000e+03 -7.023940e-01
4.000000e+02 -4.000000e+03 -7.020670e-01
-4.000000e+02 -4.000200e+03 -4.007010e+02
-4.097430e-06 -4.000200e+03 -4.007010e+02
-4.000000e+02 -3.600190e+03 -4.009050e+02
-1.166740e-06 -3.600190e+03 -4.009060e+02
-4.000000e+02 -4.000000e+03 -7.020520e-01
-3.298150e-07 -4.000000e+03 -7.023940e-01
-4.000000e+02 -3.600000e+03 -9.058800e-01
-2.522420e-07 -3.600000e+03 -9.062440e-01
-4.097430e-06 -4.000200e+03 -4.007010e+02
4.000000e+02 -4.000200e+03 -4.007010e+02
-1.166740e-06 -3.600190e+03 -4.009060e+02
4.000000e+02 -3.600190e+03 -4.009050e+02
-3.298150e-07 -4.000000e+03 -7.023940e-01
4.000000e+02 -4.000000e+03 -7.020670e-01
-2.522420e-07 -3.600000e+03 -9.062440e-01
4.000000e+02 -3.600000e+03 -9.058870e-01
-4.000000e+02 -3.600190e+03 -4.009050e+02
-1.166740e-06 -3.600190e+03 -4.009060e+02
-4.000000e+02 -3.200180e+03 -4.010890e+02
3.240590e-06 -3.200180e+03 -4.010890e+02
-4.000000e+02 -3.600000e+03 -9.058800e-01
-2.522420e-07 -3.600000e+03 -9.062440e-01
-4.000000e+02 -3.200000e+03 -1.088310e+00
-3.717620e-07 -3.200000e+03 -1.088560e+00
-1.166740e-06 -3.600190e+03 -4.009060e+02
4.000000e+02 -3.600190e+03 -4.009050e+02
3.240590e-06 -3.200180e+03 -4.010890e+02
4.000000e+02 -3.200180e+03 -4.010890e+02
-2.522420e-07 -3.600000e+03 -9.062440e-01
4.000000e+02 -3.600000e+03 -9.058870e-01
-3.717620e-07 -3.200000e+03 -1.088560e+00
4.000000e+02 -3.200000e+03 -1.088310e+00
-4.000000e+02 -3.200180e+03 -4.010890e+02
3.240590e-06 -3.200180e+03 -4.010890e+02
-4.000000e+02 -2.800180e+03 -4.012570e+02
7.810300e-06 -2.800180e+03 -4.012570e+02
-4.000000e+02 -3.200000e+03 -1.088310e+00
-3.717620e-07 -3.200000e+03 -1.088560e+00
-4.000000e+02 -2.800000e+03 -1.255860e+00
2.437340e-07 -2.800000e+03 -1.256210e+00
3.240590e-06 -3.200180e+03 -4.010890e+02
4.000000e+02 -3.200180e+03 -4.010890e+02
7.810300e-06 -2.800180e+03 -4.012570e+02
4.000000e+02 -2.800180e+03 -4.012570e+02
-3.717620e-07 -3.200000e+03 -1.088560e+00
4.000000e+02 -3.200000e+03 -1.088310e+00
2.437340e-07 -2.800000e+03 -1.256210e+00
4.000000e+02 -2.800000e+03 -1.255850e+00
-4.000000e+02 -2.800180e+03 -4.012570e+02
7.810300e-06 -2.800180e+03 -4.012570e+02
-4.000000e+02 -2.400190e+03 -4.014370e+02
1.306190e-05 -2.400190e+03 -4.014370e+02
-4.000000e+02 -2.800000e+03 -1.255860e+00
2.437340e-07 -2.800000e+03 -1.256210e+00
-4.000000e+02 -2.400000e+03 -1.436060e+00
4.621630e-07 -2.400000e+03 -1.436280e+00
7.810300e-06 -2.800180e+03 -4.012570e+02
4.000000e+02 -2.800180e+03 -4.012570e+02
1.306190e-05 -2.400190e+03 -4.014370e+02
4.000000e+02 -2.400190e+03 -4.014370e+02
2.437340e-07 -2.800000e+03 -1.256210e+00
4.000000e+02 -2.800000e+03 -1.255850e+00
4.621630e-07 -2.400000e+03 -1.436280e+00
4.000000e+02 -2.400000e+03 -1.436040e+00
-4.000000e+02 -2.400190e+03 -4.014370e+02
1.306190e-05 -2.400190e+03 -4.014370e+02
-4.000000e+02 -2.000200e+03 -4.016400e+02
1.710300e-05 -2.000200e+03 -4.016400e+02
-4.000000e+02 -2.400000e+03 -1.436060e+00
4.621630e-07 -2.400000e+03 -1.436280e+00
-4.000000e+02 -2.000000e+03 -1.639440e+00
3.820450e-07 -2.000000e+03 -1.639450e+00
1.306190e-05 -2.400190e+03 -4.014370e+02
4.000000e+02 -2.400190e+03 -4.014370e+02
1.710300e-05 -2.000200e+03 -4.016400e+02
4.000000e+02 -2.000200e+03 -4.016400e+02
4.621630e-07 -2.400000e+03 -1.436280e+00
4.000000e+02 -2.400000e+03 -1.436040e+00
3.820450e-07 -2.000000e+03 -1.639450e+00
4.000000e+02 -2.000000e+03 -1.639410e+00
-4.000000e+02 -2.000200e+03 -4.016400e+02
1.710300e-05 -2.000200e+03 -4.016400e+02
-4.000000e+02 -1.600200e+03 -4.018440e+02
1.497450e-05 -1.600200e+03 -4.018440e+02
-4.000000e+02 -2.000000e+03 -1.639440e+00
3.820450e-07 -2.000000e+03 -1.639450e+00
-4.000000e+02 -1.600000e+03 -1.844590e+00
9.356810e-08 -1.600000e+03 -1.844540e+00
1.710300e-05 -2.000200e+03 -4.016400e+02
4.000000e+02 -2.000200e+03 -4.016400e+02
1.497450e-05 -1.600200e+03 -4.018440e+02
4.000000e+02 -1.600200e+03 -4.018440e+02
3.820450e-07 -2.000000e+03 -1.639450e+00
4.000000e+02 -2.000000e+03 -1.639410e+00
9.356810e-08 -1.600000e+03 -1.844540e+00
4.000000e+02 -1.600000e+03 -1.844570e+00
-4.000000e+02 -1.600200e+03 -4.018440e+02
1.497450e-05 -1.600200e+03 -4.018440e+02
-4.000000e+02 -1.200200e+03 -4.020350e+02
9.147510e-06 -1.200200e+03 -4.020350e+02
-4.000000e+02 -1.600000e+03 -1.844590e+00
9.356810e-08 -1.600000e+03 -1.844540e+00
-4.000000e+02 -1.200000e+03 -2.034740e+00
4.336810e-07 -1.200000e+03 -2.034810e+00
1.497450e-05 -1.600200e+03 -4.018440e+02
4.000000e+02 -1.600200e+03 -4.018440e+02
9.147510e-06 -1.200200e+03 -4.020350e+02
4.000000e+02 -1.200200e+03 -4.020350e+02
9.356810e-08 -1.600000e+03 -1.844540e+00
4.000000e+02 -1.600000e+03 -1.844570e+00
4.336810e-07 -1.200000e+03 -2.034810e+00
4.000000e+02 -1.200000e+03 -2.034720e+00
-4.000000e+02 -1.200200e+03 -4.020350e+02
9.147510e-06 -1.200200e+03 -4.020350e+02
-4.000000e+02 -8.002070e+02 -4.022340e+02
5.918680e-06 -8.002070e+02 -4.022340e+02
-4.000000e+02 -1.200000e+03 -2.034740e+00
4.336810e-07 -1.200000e+03 -2.034810e+00
-4.000000e+02 -8.000000e+02 -2.233240e+00
-1.809720e-07 -8.000000e+02 -2.233210e+00
9.147510e-06 -1.200200e+03 -4.020350e+02
4.000000e+02 -1.200200e+03 -4.020350e+02
5.918680e-06 -8.002070e+02 -4.022340e+02
4.000000e+02 -8.002070e+02 -4.022340e+02
4.336810e-07 -1.200000e+03 -2.034810e+00
4.000000e+02 -1.200000e+03 -2.034720e+00
-1.809720e-07 -8.000000e+02 -2.233210e+00
4.000000e+02 -8.000000e+02 -2.233230e+00
-4.000000e+02 -8.002070e+02 -4.022340e+02
5.918680e-06 -8.002070e+02 -4.022340e+02
-4.000000e+02 -4.002110e+02 -4.024540e+02
2.747860e-06 -4.002110e+02 -4.024540e+02
-4.000000e+02 -8.000000e+02 -2.233240e+00
-1.809720e-07 -8.000000e+02 -2.233210e+00
-4.000000e+02 -4.000010e+02 -2.453790e+00
-3.202320e-07 -4.000010e+02 -2.453700e+00
5.918680e-06 -8.002070e+02 -4.022340e+02
4.000000e+02 -8.002070e+02 -4.022340e+02
2.747860e-06 -4.002110e+02 -4.024540e+02
4.000000e+02 -4.002110e+02 -4.024540e+02
-1.809720e-07 -8.000000e+02 -2.233210e+00
4.000000e+02 -8.000000e+02 -2.233230e+00
-3.202320e-07 -4.000010e+02 -2.453700e+00
4.000000e+02 -4.000010e+02 -2.453780e+00
-4.000000e+02 -4.002110e+02 -4.024540e+02
2.747860e-06 -4.002110e+02 -4.024540e+02
-4.000000e+02 -2.030290e-01 -4.026690e+02
1.593640e-06 -2.030720e-01 -4.026690e+02
-4.000000e+02 -4.000010e+02 -2.453790e+00
-3.202320e-07 -4.000010e+02 -2.453700e+00
-4.000000e+02 -9.221770e-04 -2.668570e+00
-1.589020e-07 -9.298530e-04 -2.668730e+00
2.747860e-06 -4.002110e+02 -4.024540e+02
4.000000e+02 -4.002110e+02 -4.024540e+02
[...]
<PointData>
<DataArray type="Float32" Name="V1" format="ascii">
0.000000e+00
0.000000e+00
1.230670e-04
2.385430e-06
0.000000e+00
0.000000e+00
-3.271510e-05
-1.916470e-07
0.000000e+00
0.000000e+00
2.385430e-06
-1.182950e-04
0.000000e+00
0.000000e+00
-1.916470e-07
3.233180e-05
1.230670e-04
2.385430e-06
-1.045090e-04
4.121250e-07
-3.271510e-05
-1.916470e-07
-6.777550e-05
5.677420e-08
2.385430e-06
-1.182950e-04
4.121250e-07
1.053340e-04
-1.916470e-07
3.233180e-05
5.677420e-08
6.789010e-05
-1.045090e-04
4.121250e-07
1.109740e-04
1.128680e-06
-6.777550e-05
5.677420e-08
-9.210680e-05
-5.007300e-08
4.121250e-07
1.053340e-04
1.128680e-06
-1.087150e-04
5.677420e-08
6.789010e-05
-5.007300e-08
9.200710e-05
1.109740e-04
1.128680e-06
4.974640e-05
2.329450e-06
-9.210680e-05
-5.007300e-08
-9.510510e-05
-2.645520e-07
1.128680e-06
-1.087150e-04
2.329450e-06
-4.508670e-05
-5.007300e-08
9.200710e-05
-2.645520e-07
9.457560e-05
4.974640e-05
2.329450e-06
4.445660e-04
1.748830e-07
-9.510510e-05
-2.645520e-07
-7.720000e-05
-2.088600e-07
2.329450e-06
-4.508670e-05
1.748830e-07
-4.442150e-04
-2.645520e-07
9.457560e-05
-2.088600e-07
7.678230e-05
4.445660e-04
1.748830e-07
4.185220e-04
-1.487520e-06
-7.720000e-05
-2.088600e-07
-5.368980e-05
1.436710e-07
1.748830e-07
-4.442150e-04
-1.487520e-06
-4.214960e-04
-2.088600e-07
7.678230e-05
1.436710e-07
5.397770e-05
4.185220e-04
-1.487520e-06
5.366720e-04
-5.373880e-07
-5.368980e-05
1.436710e-07
-1.324650e-05
-7.990560e-07
-1.487520e-06
-4.214960e-04
-5.373880e-07
-5.377460e-04
1.436710e-07
5.397770e-05
-7.990560e-07
1.164930e-05
5.366720e-04
-5.373880e-07
2.392320e-04
-3.314950e-07
-1.324650e-05
-7.990560e-07
3.153710e-05
-8.633930e-07
-5.373880e-07
-5.377460e-04
-3.314950e-07
-2.398940e-04
-7.990560e-07
1.164930e-05
-8.633930e-07
-3.326320e-05
2.392320e-04
-3.314950e-07
1.401840e-04
-5.522110e-08
3.153710e-05
-8.633930e-07
5.693100e-05
-5.073600e-07
-3.314950e-07
-2.398940e-04
-5.522110e-08
-1.402940e-04
-8.633930e-07
-3.326320e-05
-5.073600e-07
-5.794510e-05
1.401840e-04
-5.522110e-08
3.752050e-05
2.705090e-06
5.693100e-05
-5.073600e-07
6.265110e-05
-1.497680e-07
-5.522110e-08
-1.402940e-04
2.705090e-06
-3.210950e-05
-5.073600e-07
-5.794510e-05
-1.497680e-07
-6.295090e-05
3.752050e-05
2.705090e-06
-3.406170e-05
3.187320e-06
6.265110e-05
-1.497680e-07
3.321570e-05
3.928260e-09
2.705090e-06
-3.210950e-05
3.187320e-06
4.043620e-05
-1.497680e-07
-6.295090e-05
3.928260e-09
-3.320850e-05
-3.406170e-05
3.187320e-06
-1.343510e-04
2.053790e-06
3.321570e-05
3.928260e-09
-1.500500e-05
-1.372060e-07
3.187320e-06
4.043620e-05
2.053790e-06
1.384580e-04
3.928260e-09
-3.320850e-05
-1.372060e-07
1.473010e-05
-1.343510e-04
2.053790e-06
-8.878690e-05
2.336050e-06
-1.500500e-05
-1.372060e-07
-1.845630e-05
-1.412720e-07
2.053790e-06
1.384580e-04
2.336050e-06
9.345720e-05
-1.372060e-07
1.473010e-05
-1.412720e-07
1.817250e-05
-8.878690e-05
2.336050e-06
-1.727020e-04
4.454300e-06
-1.845630e-05
-1.412720e-07
-1.909620e-05
3.717570e-07
2.336050e-06
9.345720e-05
4.454300e-06
1.816100e-04
-1.412720e-07
1.817250e-05
3.717570e-07
1.983930e-05
-1.727020e-04
4.454300e-06
-2.743270e-04
4.985720e-06
-1.909620e-05
3.717570e-07
-1.611560e-05
8.915250e-08
4.454300e-06
1.816100e-04
4.985720e-06
2.842980e-04
3.717570e-07
1.983930e-05
8.915250e-08
1.629510e-05
-2.743270e-04
4.985720e-06
-1.789060e-04
-1.398550e-07
-1.611560e-05
8.915250e-08
1.675420e-05
-3.621980e-07
4.985720e-06
2.842980e-04
-1.398550e-07
1.786280e-04
8.915250e-08
1.629510e-05
-3.621980e-07
-1.747720e-05
-1.789060e-04
-1.398550e-07
-4.219300e-04
-1.340530e-06
1.675420e-05
-3.621980e-07
2.888980e-05
1.754070e-07
-1.398550e-07
1.786280e-04
-1.340530e-06
4.192510e-04
-3.621980e-07
-1.747720e-05
1.754070e-07
-2.853730e-05
-4.219300e-04
-1.340530e-06
-1.453950e-04
3.677860e-07
2.888980e-05
1.754070e-07
1.516560e-05
3.058470e-07
-1.340530e-06
4.192510e-04
3.677860e-07
1.461330e-04
1.754070e-07
-2.853730e-05
3.058470e-07
-1.455260e-05
-1.453950e-04
3.677860e-07
-4.057410e-04
-1.781120e-06
1.516560e-05
3.058470e-07
2.248940e-05
1.873770e-07
3.677860e-07
1.461330e-04
-1.781120e-06
4.021800e-04
3.058470e-07
-1.455260e-05
1.873770e-07
-2.211350e-05
-4.057410e-04
-1.781120e-06
3.086580e-05
-4.242400e-06
2.248940e-05
1.873770e-07
1.472890e-05
3.457890e-07
-1.781120e-06
4.021800e-04
-4.242400e-06
-3.935030e-05
1.873770e-07
-2.211350e-05
3.457890e-07
-1.403690e-05
3.086580e-05
-4.242400e-06
-3.674620e-05
-4.157960e-06
1.472890e-05
3.457890e-07
6.430260e-06
2.518040e-07
-4.242400e-06
-3.935030e-05
-4.157960e-06
2.842920e-05
3.457890e-07
-1.403690e-05
2.518040e-07
-5.927750e-06
-3.674620e-05
-4.157960e-06
1.311400e-04
-4.381620e-06
6.430260e-06
2.518040e-07
2.957180e-05
4.771080e-07
-4.157960e-06
2.842920e-05
-4.381620e-06
-1.399040e-04
2.518040e-07
-5.927750e-06
4.771080e-07
-2.861880e-05
1.311400e-04
-4.381620e-06
1.157220e-04
-3.343970e-06
2.957180e-05
4.771080e-07
2.643950e-05
1.790390e-07
-4.381620e-06
-1.399040e-04
-3.343970e-06
-1.224120e-04
4.771080e-07
-2.861880e-05
1.790390e-07
-2.608200e-05
1.157220e-04
-3.343970e-06
1.206270e-04
-1.057390e-06
2.643950e-05
1.790390e-07
6.796840e-06
5.021700e-07
-3.343970e-06
-1.224120e-04
-1.057390e-06
-1.227430e-04
1.790390e-07
-2.608200e-05
5.021700e-07
-5.793330e-06
1.206270e-04
-1.057390e-06
3.316610e-04
2.769170e-06
6.796840e-06
5.021700e-07
-2.437470e-06
5.347390e-07
-1.057390e-06
-1.227430e-04
2.769170e-06
-3.261240e-04
5.021700e-07
-5.793330e-06
5.347390e-07
3.506970e-06
3.316610e-04
2.769170e-06
7.452060e-05
6.060450e-06
-2.437470e-06
5.347390e-07
-3.100810e-05
2.863820e-07
2.769170e-06
-3.261240e-04
6.060450e-06
-6.240000e-05
5.347390e-07
3.506970e-06
2.863820e-07
3.158080e-05
7.452060e-05
6.060450e-06
1.734860e-04
3.685060e-06
-3.100810e-05
2.863820e-07
-5.745690e-05
-3.889090e-07
6.060450e-06
-6.240000e-05
3.685060e-06
-1.661160e-04
2.863820e-07
3.158080e-05
-3.889090e-07
5.667910e-05
1.734860e-04
3.685060e-06
-3.413840e-05
-7.044890e-07
-5.745690e-05
-3.889090e-07
-4.340990e-05
-7.988370e-07
3.685060e-06
-1.661160e-04
-7.044890e-07
3.272970e-05
-3.889090e-07
5.667910e-05
-7.988370e-07
4.181200e-05
-3.413840e-05
-7.044890e-07
3.759980e-05
-3.991890e-06
-4.340990e-05
-7.988370e-07
-1.351090e-05
-1.585840e-07
-7.044890e-07
3.272970e-05
-3.991890e-06
-4.558300e-05
-7.988370e-07
4.181200e-05
-1.585840e-07
1.319350e-05
3.759980e-05
-3.991890e-06
-8.787150e-05
-3.047300e-06
-1.351090e-05
-1.585840e-07
-1.008260e-05
-8.993240e-07
-3.991890e-06
-4.558300e-05
-3.047300e-06
8.177810e-05
-1.585840e-07
1.319350e-05
-8.993240e-07
8.284030e-06
0.000000e+00
0.000000e+00
-3.271510e-05
-1.916470e-07
0.000000e+00
0.000000e+00
-5.688390e-05
-1.968300e-06
0.000000e+00
0.000000e+00
-1.916470e-07
3.233180e-05
0.000000e+00
0.000000e+00
-1.968300e-06
5.294830e-05
-3.271510e-05
-1.916470e-07
-6.777550e-05
5.677420e-08
-5.688390e-05
-1.968300e-06
2.394710e-04
-5.241520e-07
-1.916470e-07
3.233180e-05
5.677420e-08
6.789010e-05
-1.968300e-06
5.294830e-05
-5.241520e-07
-2.405190e-04
-6.777550e-05
5.677420e-08
-9.210680e-05
-5.007300e-08
2.394710e-04
-5.241520e-07
7.256280e-05
-1.019190e-06
5.677420e-08
6.789010e-05
-5.007300e-08
9.200710e-05
-5.241520e-07
-2.405190e-04
-1.019190e-06
-7.460090e-05
-9.210680e-05
-5.007300e-08
-9.510510e-05
-2.645520e-07
7.256280e-05
-1.019190e-06
1.411100e-04
-1.780980e-06
-5.007300e-08
9.200710e-05
-2.645520e-07
9.457560e-05
-1.019190e-06
-7.460090e-05
-1.780980e-06
-1.446710e-04
-9.510510e-05
-2.645520e-07
-7.720000e-05
-2.088600e-07
1.411100e-04
-1.780980e-06
-2.907390e-04
2.401920e-07
-2.645520e-07
9.457560e-05
-2.088600e-07
7.678230e-05
-1.780980e-06
-1.446710e-04
2.401920e-07
2.912190e-04
-7.720000e-05
-2.088600e-07
-5.368980e-05
1.436710e-07
-2.907390e-04
2.401920e-07
-3.104160e-04
1.210290e-06
-2.088600e-07
7.678230e-05
1.436710e-07
5.397770e-05
2.401920e-07
2.912190e-04
1.210290e-06
3.128370e-04
-5.368980e-05
1.436710e-07
-1.324650e-05
-7.990560e-07
-3.104160e-04
1.210290e-06
-5.097370e-04
2.125120e-06
1.436710e-07
5.397770e-05
-7.990560e-07
1.164930e-05
1.210290e-06
3.128370e-04
2.125120e-06
5.139890e-04
-1.324650e-05
-7.990560e-07
3.153710e-05
-8.633930e-07
-5.097370e-04
2.125120e-06
-3.031660e-04
2.048130e-06
-7.990560e-07
1.164930e-05
-8.633930e-07
-3.326320e-05
2.125120e-06
5.139890e-04
2.048130e-06
3.072640e-04
3.153710e-05
-8.633930e-07
5.693100e-05
-5.073600e-07
-3.031660e-04
2.048130e-06
-2.531410e-04
1.068170e-06
-8.633930e-07
-3.326320e-05
-5.073600e-07
-5.794510e-05
2.048130e-06
3.072640e-04
1.068170e-06
2.552780e-04
5.693100e-05
-5.073600e-07
6.265110e-05
-1.497680e-07
-2.531410e-04
1.068170e-06
-1.646500e-04
-2.390210e-06
-5.073600e-07
-5.794510e-05
-1.497680e-07
-6.295090e-05
1.068170e-06
2.552780e-04
-2.390210e-06
1.598700e-04
6.265110e-05
-1.497680e-07
3.321570e-05
3.928260e-09
-1.646500e-04
-2.390210e-06
-3.049820e-05
-3.196770e-06
-1.497680e-07
-6.295090e-05
3.928260e-09
-3.320850e-05
-2.390210e-06
1.598700e-04
-3.196770e-06
2.410390e-05
3.321570e-05
3.928260e-09
-1.500500e-05
-1.372060e-07
-3.049820e-05
-3.196770e-06
1.626000e-04
-1.785930e-06
3.928260e-09
-3.320850e-05
-1.372060e-07
1.473010e-05
-3.196770e-06
2.410390e-05
-1.785930e-06
-1.661730e-04
-1.500500e-05
-1.372060e-07
-1.845630e-05
-1.412720e-07
1.626000e-04
-1.785930e-06
1.278640e-04
-2.067370e-06
-1.372060e-07
1.473010e-05
-1.412720e-07
1.817250e-05
-1.785930e-06
-1.661730e-04
-2.067370e-06
-1.320000e-04
-1.845630e-05
-1.412720e-07
-1.909620e-05
3.717570e-07
1.278640e-04
-2.067370e-06
2.091730e-04
-5.215770e-06
-1.412720e-07
1.817250e-05
3.717570e-07
1.983930e-05
-2.067370e-06
-1.320000e-04
-5.215770e-06
-2.196050e-04
-1.909620e-05
3.717570e-07
-1.611560e-05
8.915250e-08
2.091730e-04
-5.215770e-06
3.067990e-04
-5.152480e-06
3.717570e-07
1.983930e-05
8.915250e-08
1.629510e-05
-5.215770e-06
-2.196050e-04
-5.152480e-06
-3.171030e-04
-1.611560e-05
8.915250e-08
1.675420e-05
-3.621980e-07
3.067990e-04
-5.152480e-06
1.458750e-04
8.781130e-07
8.915250e-08
1.629510e-05
-3.621980e-07
-1.747720e-05
-5.152480e-06
-3.171030e-04
8.781130e-07
-1.441170e-04
1.675420e-05
-3.621980e-07
2.888980e-05
1.754070e-07
1.458750e-04
8.781130e-07
3.635750e-04
1.006950e-06
-3.621980e-07
-1.747720e-05
1.754070e-07
-2.853730e-05
8.781130e-07
-1.441170e-04
1.006950e-06
-3.615600e-04
2.888980e-05
1.754070e-07
1.516560e-05
3.058470e-07
3.635750e-04
1.006950e-06
1.157970e-04
-9.760840e-07
1.754070e-07
-2.853730e-05
3.058470e-07
-1.455260e-05
1.006950e-06
-3.615600e-04
-9.760840e-07
-1.177480e-04
1.516560e-05
3.058470e-07
2.248940e-05
1.873770e-07
1.157970e-04
-9.760840e-07
3.609850e-04
1.397540e-06
3.058470e-07
-1.455260e-05
1.873770e-07
-2.211350e-05
-9.760840e-07
-1.177480e-04
1.397540e-06
-3.581900e-04
2.248940e-05
1.873770e-07
1.472890e-05
3.457890e-07
3.609850e-04
1.397540e-06
-6.121000e-05
3.534450e-06
1.873770e-07
-2.211350e-05
3.457890e-07
-1.403690e-05
1.397540e-06
-3.581900e-04
3.534450e-06
6.827910e-05
1.472890e-05
3.457890e-07
6.430260e-06
2.518040e-07
-6.121000e-05
3.534450e-06
2.465220e-05
3.627060e-06
3.457890e-07
-1.403690e-05
2.518040e-07
-5.927750e-06
3.534450e-06
6.827910e-05
3.627060e-06
-1.739970e-05
6.430260e-06
2.518040e-07
2.957180e-05
4.771080e-07
2.465220e-05
3.627060e-06
-1.911840e-04
3.427700e-06
2.518040e-07
-5.927750e-06
4.771080e-07
-2.861880e-05
3.627060e-06
-1.739970e-05
3.427700e-06
1.980380e-04
2.957180e-05
4.771080e-07
2.643950e-05
1.790390e-07
-1.911840e-04
3.427700e-06
-1.677660e-04
2.981520e-06
4.771080e-07
-2.861880e-05
1.790390e-07
-2.608200e-05
3.427700e-06
1.980380e-04
2.981520e-06
1.737280e-04
2.643950e-05
1.790390e-07
6.796840e-06
5.021700e-07
-1.677660e-04
2.981520e-06
-1.349110e-04
5.435380e-08
1.790390e-07
-2.608200e-05
5.021700e-07
-5.793330e-06
2.981520e-06
1.737280e-04
5.435380e-08
1.350190e-04
6.796840e-06
5.021700e-07
-2.437470e-06
5.347390e-07
-1.349110e-04
5.435380e-08
-3.258900e-04
-3.815250e-06
5.021700e-07
-5.793330e-06
5.347390e-07
3.506970e-06
5.435380e-08
1.350190e-04
-3.815250e-06
3.182600e-04
-2.437470e-06
5.347390e-07
-3.100810e-05
2.863820e-07
-3.258900e-04
-3.815250e-06
-1.303640e-05
-6.616110e-06
5.347390e-07
3.506970e-06
2.863820e-07
3.158080e-05
-3.815250e-06
3.182600e-04
-6.616110e-06
-1.955800e-07
-3.100810e-05
2.863820e-07
-5.745690e-05
-3.889090e-07
-1.303640e-05
-6.616110e-06
-5.891820e-05
-2.904280e-06
2.863820e-07
3.158080e-05
-3.889090e-07
5.667910e-05
-6.616110e-06
-1.955800e-07
-2.904280e-06
5.311040e-05
-5.745690e-05
-3.889090e-07
-4.340990e-05
-7.988370e-07
-5.891820e-05
-2.904280e-06
1.215240e-04
2.305390e-06
-3.889090e-07
5.667910e-05
-7.988370e-07
4.181200e-05
-2.904280e-06
5.311040e-05
2.305390e-06
-1.169120e-04
-4.340990e-05
-7.988370e-07
-1.351090e-05
-1.585840e-07
1.215240e-04
2.305390e-06
-1.093400e-05
4.301410e-06
-7.988370e-07
4.181200e-05
-1.585840e-07
1.319350e-05
2.305390e-06
-1.169120e-04
4.301410e-06
1.953660e-05
-1.351090e-05
-1.585840e-07
-1.008260e-05
-8.993240e-07
-1.093400e-05
4.301410e-06
1.084050e-04
4.826600e-06
-1.585840e-07
1.319350e-05
-8.993240e-07
8.284030e-06
4.301410e-06
1.953660e-05
4.826600e-06
-9.875120e-05
</DataArray>
<DataArray type="Float32" Name="V2" format="ascii">
0.000000e+00
0.000000e+00
2.927430e-03
3.099370e-03
0.000000e+00
0.000000e+00
-3.712830e-04
-3.519250e-04
0.000000e+00
0.000000e+00
3.099370e-03
2.928670e-03
0.000000e+00
0.000000e+00
-3.519250e-04
-3.706760e-04
2.927430e-03
3.099370e-03
3.978410e-03
4.375620e-03
-3.712830e-04
-3.519250e-04
-1.359680e-04
-1.110100e-04
3.099370e-03
2.928670e-03
4.375620e-03
3.980320e-03
-3.519250e-04
-3.706760e-04
-1.110100e-04
-1.358410e-04
3.978410e-03
4.375620e-03
2.162450e-03
2.370190e-03
-1.359680e-04
-1.110100e-04
5.853700e-04
5.858510e-04
4.375620e-03
3.980320e-03
2.370190e-03
2.157750e-03
-1.110100e-04
-1.358410e-04
5.858510e-04
5.860410e-04
2.162450e-03
2.370190e-03
2.799790e-03
2.738670e-03
5.853700e-04
5.858510e-04
7.095730e-04
6.839640e-04
2.370190e-03
2.157750e-03
2.738670e-03
2.792690e-03
5.858510e-04
5.860410e-04
6.839640e-04
7.097770e-04
2.799790e-03
2.738670e-03
5.877280e-03
5.611000e-03
7.095730e-04
6.839640e-04
1.040680e-04
8.701070e-05
2.738670e-03
2.792690e-03
5.611000e-03
5.868470e-03
6.839640e-04
7.097770e-04
8.701070e-05
1.030980e-04
5.877280e-03
5.611000e-03
6.001990e-03
5.697130e-03
1.040680e-04
8.701070e-05
-1.482420e-04
-1.583400e-04
5.611000e-03
5.868470e-03
5.697130e-03
5.991920e-03
8.701070e-05
1.030980e-04
-1.583400e-04
-1.484860e-04
6.001990e-03
5.697130e-03
1.872100e-03
1.819310e-03
-1.482420e-04
-1.583400e-04
-3.093020e-04
-3.014040e-04
5.697130e-03
5.991920e-03
1.819310e-03
1.871290e-03
-1.583400e-04
-1.484860e-04
-3.014040e-04
-3.086760e-04
1.872100e-03
1.819310e-03
-1.638650e-03
-1.521960e-03
-3.093020e-04
-3.014040e-04
-3.039590e-04
-2.853860e-04
1.819310e-03
1.871290e-03
-1.521960e-03
-1.633090e-03
-3.014040e-04
-3.086760e-04
-2.853860e-04
-3.037920e-04
-1.638650e-03
-1.521960e-03
-9.308140e-04
-1.004420e-03
-3.039590e-04
-2.853860e-04
2.407210e-04
2.449240e-04
-1.521960e-03
-1.633090e-03
-1.004420e-03
-9.313990e-04
-2.853860e-04
-3.037920e-04
2.449240e-04
2.409570e-04
-9.308140e-04
-1.004420e-03
1.013040e-03
9.473550e-04
2.407210e-04
2.449240e-04
3.573110e-04
3.641880e-04
-1.004420e-03
-9.313990e-04
9.473550e-04
1.007680e-03
2.449240e-04
2.409570e-04
3.641880e-04
3.573500e-04
1.013040e-03
9.473550e-04
2.445320e-03
2.489240e-03
3.573110e-04
3.641880e-04
-9.861630e-05
-7.933630e-05
9.473550e-04
1.007680e-03
2.489240e-03
2.442820e-03
3.641880e-04
3.573500e-04
-7.933630e-05
-9.807160e-05
2.445320e-03
2.489240e-03
3.964830e-03
3.959010e-03
-9.861630e-05
-7.933630e-05
-3.353220e-04
-3.456440e-04
2.489240e-03
2.442820e-03
3.959010e-03
3.964260e-03
-7.933630e-05
-9.807160e-05
-3.456440e-04
-3.338680e-04
3.964830e-03
3.959010e-03
2.021180e-03
1.925280e-03
-3.353220e-04
-3.456440e-04
-3.121460e-04
-3.455760e-04
3.959010e-03
3.964260e-03
1.925280e-03
2.018630e-03
-3.456440e-04
-3.338680e-04
-3.455760e-04
-3.115940e-04
2.021180e-03
1.925280e-03
-3.813130e-03
-3.914700e-03
-3.121460e-04
-3.455760e-04
-1.646940e-04
-1.729360e-04
1.925280e-03
2.018630e-03
-3.914700e-03
-3.816140e-03
-3.455760e-04
-3.115940e-04
-1.729360e-04
-1.644710e-04
-3.813130e-03
-3.914700e-03
-6.485530e-03
-6.577630e-03
-1.646940e-04
-1.729360e-04
2.772060e-04
2.594020e-04
-3.914700e-03
-3.816140e-03
-6.577630e-03
-6.484690e-03
-1.729360e-04
-1.644710e-04
2.594020e-04
2.780400e-04
-6.485530e-03
-6.577630e-03
-1.819710e-03
-1.905760e-03
2.772060e-04
2.594020e-04
6.496040e-04
6.400970e-04
-6.577630e-03
-6.484690e-03
-1.905760e-03
-1.820190e-03
2.594020e-04
2.780400e-04
6.400970e-04
6.500990e-04
-1.819710e-03
-1.905760e-03
3.615970e-03
3.389870e-03
6.496040e-04
6.400970e-04
2.200680e-04
2.533530e-04
-1.905760e-03
-1.820190e-03
3.389870e-03
3.608110e-03
6.400970e-04
6.500990e-04
2.533530e-04
2.204390e-04
3.615970e-03
3.389870e-03
2.627750e-03
2.498050e-03
2.200680e-04
2.533530e-04
-4.501240e-04
-4.371040e-04
3.389870e-03
3.608110e-03
2.498050e-03
2.619980e-03
2.533530e-04
2.204390e-04
-4.371040e-04
-4.494590e-04
2.627750e-03
2.498050e-03
-1.436530e-03
-1.499560e-03
-4.501240e-04
-4.371040e-04
-5.629920e-04
-5.670020e-04
2.498050e-03
2.619980e-03
-1.499560e-03
-1.438600e-03
-4.371040e-04
-4.494590e-04
-5.670020e-04
-5.626580e-04
-1.436530e-03
-1.499560e-03
-3.785330e-03
-3.932800e-03
-5.629920e-04
-5.670020e-04
-2.955600e-04
-2.825420e-04
-1.499560e-03
-1.438600e-03
-3.932800e-03
-3.788310e-03
-5.670020e-04
-5.626580e-04
-2.825420e-04
-2.961390e-04
-3.785330e-03
-3.932800e-03
-4.579620e-03
-4.565980e-03
-2.955600e-04
-2.825420e-04
2.178100e-04
2.200340e-04
-3.932800e-03
-3.788310e-03
-4.565980e-03
-4.584420e-03
-2.825420e-04
-2.961390e-04
2.200340e-04
2.173990e-04
-4.579620e-03
-4.565980e-03
-4.044010e-03
-4.004320e-03
2.178100e-04
2.200340e-04
5.625850e-04
5.623930e-04
-4.565980e-03
-4.584420e-03
-4.004320e-03
-4.044650e-03
2.200340e-04
2.173990e-04
5.623930e-04
5.628610e-04
-4.044010e-03
-4.004320e-03
-2.734500e-03
-2.895870e-03
5.625850e-04
5.623930e-04
2.654830e-04
2.662070e-04
-4.004320e-03
-4.044650e-03
-2.895870e-03
-2.733860e-03
5.623930e-04
5.628610e-04
2.662070e-04
2.655280e-04
-2.734500e-03
-2.895870e-03
2.984050e-04
-5.181510e-06
2.654830e-04
2.662070e-04
-2.184290e-04
-2.394020e-04
-2.895870e-03
-2.733860e-03
-5.181510e-06
2.940000e-04
2.662070e-04
2.655280e-04
-2.394020e-04
-2.193820e-04
2.984050e-04
-5.181510e-06
3.096250e-03
3.096590e-03
-2.184290e-04
-2.394020e-04
-3.147610e-04
-3.247390e-04
-5.181510e-06
2.940000e-04
3.096590e-03
3.086050e-03
-2.394020e-04
-2.193820e-04
-3.247390e-04
-3.156960e-04
3.096250e-03
3.096590e-03
-1.326690e-04
9.710880e-05
-3.147610e-04
-3.247390e-04
-2.243110e-04
-2.057880e-04
3.096590e-03
3.086050e-03
9.710880e-05
-1.403030e-04
-3.247390e-04
-3.156960e-04
-2.057880e-04
-2.248060e-04
-1.326690e-04
9.710880e-05
-4.745190e-03
-4.614460e-03
-2.243110e-04
-2.057880e-04
-1.007880e-07
5.840910e-06
9.710880e-05
-1.403030e-04
-4.614460e-03
-4.744870e-03
-2.057880e-04
-2.248060e-04
5.840910e-06
-1.369500e-06
-4.745190e-03
-4.614460e-03
-1.510260e-03
-1.536560e-03
-1.007880e-07
5.840910e-06
1.353530e-04
1.220420e-04
-4.614460e-03
-4.744870e-03
-1.536560e-03
-1.508390e-03
5.840910e-06
-1.369500e-06
1.220420e-04
1.345300e-04
-1.510260e-03
-1.536560e-03
5.519970e-03
5.530380e-03
1.353530e-04
1.220420e-04
-2.214160e-04
-2.244950e-04
-1.536560e-03
-1.508390e-03
5.530380e-03
5.516110e-03
1.220420e-04
1.345300e-04
-2.244950e-04
-2.208270e-04
5.519970e-03
5.530380e-03
8.306430e-03
8.469590e-03
-2.214160e-04
-2.244950e-04
-5.006620e-04
-4.902120e-04
5.530380e-03
5.516110e-03
8.469590e-03
8.298920e-03
-2.244950e-04
-2.208270e-04
-4.902120e-04
-4.994840e-04
0.000000e+00
0.000000e+00
-3.712830e-04
-3.519250e-04
0.000000e+00
0.000000e+00
-2.231880e-03
-2.444910e-03
0.000000e+00
0.000000e+00
-3.519250e-04
-3.706760e-04
0.000000e+00
0.000000e+00
-2.444910e-03
-2.234380e-03
-3.712830e-04
-3.519250e-04
-1.359680e-04
-1.110100e-04
-2.231880e-03
-2.444910e-03
-3.764190e-03
-4.213300e-03
-3.519250e-04
-3.706760e-04
-1.110100e-04
-1.358410e-04
-2.444910e-03
-2.234380e-03
-4.213300e-03
-3.766330e-03