<?xml version="1.0"?>
<VTKFile type="UnstructuredGrid" version="0.1" byte_order="LittleEndian" compressor="vtkZLibDataCompressor">
<UnstructuredGrid>
<Piece NumberOfPoints="960" NumberOfCells="120">
<Points>
<DataArray type="Float32" NumberOfComponents="3" format="ascii">
-4.000000e+02 -6.000000e+03 -4.000000e+02
0.000000e+00 -6.000000e+03 -4.000000e+02
-3.999930e+02 -5.600340e+03 -4.002210e+02
6.237140e-03 -5.600340e+03 -4.002140e+02
-4.000000e+02 -6.000000e+03 0.000000e+00
0.000000e+00 -6.000000e+03 0.000000e+00
-4.000000e+02 -5.600000e+03 -2.212390e-01
-1.180570e-05 -5.600000e+03 -2.144280e-01
0.000000e+00 -6.000000e+03 -4.000000e+02
4.000000e+02 -6.000000e+03 -4.000000e+02
6.237140e-03 -5.600340e+03 -4.002140e+02
4.000060e+02 -5.600340e+03 -4.002080e+02
0.000000e+00 -6.000000e+03 0.000000e+00
4.000000e+02 -6.000000e+03 0.000000e+00
-1.180570e-05 -5.600000e+03 -2.144280e-01
4.000000e+02 -5.600000e+03 -2.080750e-01
-3.999930e+02 -5.600340e+03 -4.002210e+02
6.237140e-03 -5.600340e+03 -4.002140e+02
-3.999890e+02 -5.200630e+03 -4.007460e+02
1.057540e-02 -5.200630e+03 -4.007350e+02
-4.000000e+02 -5.600000e+03 -2.212390e-01
-1.180570e-05 -5.600000e+03 -2.144280e-01
-4.000000e+02 -5.200000e+03 -7.467620e-01
-1.694880e-05 -5.200000e+03 -7.354600e-01
6.237140e-03 -5.600340e+03 -4.002140e+02
4.000060e+02 -5.600340e+03 -4.002080e+02
1.057540e-02 -5.200630e+03 -4.007350e+02
4.000100e+02 -5.200630e+03 -4.007240e+02
-1.180570e-05 -5.600000e+03 -2.144280e-01
4.000000e+02 -5.600000e+03 -2.080750e-01
-1.694880e-05 -5.200000e+03 -7.354600e-01
4.000000e+02 -5.200000e+03 -7.246060e-01
-3.999890e+02 -5.200630e+03 -4.007460e+02
1.057540e-02 -5.200630e+03 -4.007350e+02
-3.999880e+02 -4.800880e+03 -4.015230e+02
1.100760e-02 -4.800880e+03 -4.015100e+02
-4.000000e+02 -5.200000e+03 -7.467620e-01
-1.694880e-05 -5.200000e+03 -7.354600e-01
-4.000000e+02 -4.800000e+03 -1.523160e+00
-1.660490e-04 -4.800000e+03 -1.510880e+00
1.057540e-02 -5.200630e+03 -4.007350e+02
4.000100e+02 -5.200630e+03 -4.007240e+02
1.100760e-02 -4.800880e+03 -4.015100e+02
4.000100e+02 -4.800880e+03 -4.014990e+02
-1.694880e-05 -5.200000e+03 -7.354600e-01
4.000000e+02 -5.200000e+03 -7.246060e-01
-1.660490e-04 -4.800000e+03 -1.510880e+00
4.000000e+02 -4.800000e+03 -1.499960e+00
-3.999880e+02 -4.800880e+03 -4.015230e+02
1.100760e-02 -4.800880e+03 -4.015100e+02
-3.999920e+02 -4.401100e+03 -4.025270e+02
6.827320e-03 -4.401100e+03 -4.025180e+02
-4.000000e+02 -4.800000e+03 -1.523160e+00
-1.660490e-04 -4.800000e+03 -1.510880e+00
-4.000000e+02 -4.400000e+03 -2.526790e+00
-2.962360e-04 -4.400000e+03 -2.518720e+00
1.100760e-02 -4.800880e+03 -4.015100e+02
4.000100e+02 -4.800880e+03 -4.014990e+02
6.827320e-03 -4.401100e+03 -4.025180e+02
4.000060e+02 -4.401100e+03 -4.025120e+02
-1.660490e-04 -4.800000e+03 -1.510880e+00
4.000000e+02 -4.800000e+03 -1.499960e+00
-2.962360e-04 -4.400000e+03 -2.518720e+00
4.000000e+02 -4.400000e+03 -2.512330e+00
-3.999920e+02 -4.401100e+03 -4.025270e+02
6.827320e-03 -4.401100e+03 -4.025180e+02
-3.999990e+02 -4.001310e+03 -4.037470e+02
3.408770e-04 -4.001310e+03 -4.037460e+02
-4.000000e+02 -4.400000e+03 -2.526790e+00
-2.962360e-04 -4.400000e+03 -2.518720e+00
-4.000000e+02 -4.000000e+03 -3.746690e+00
-3.567760e-04 -4.000000e+03 -3.745770e+00
6.827320e-03 -4.401100e+03 -4.025180e+02
4.000060e+02 -4.401100e+03 -4.025120e+02
3.408770e-04 -4.001310e+03 -4.037460e+02
3.999990e+02 -4.001310e+03 -4.037450e+02
-2.962360e-04 -4.400000e+03 -2.518720e+00
4.000000e+02 -4.400000e+03 -2.512330e+00
-3.567760e-04 -4.000000e+03 -3.745770e+00
4.000000e+02 -4.000000e+03 -3.746300e+00
-3.999990e+02 -4.001310e+03 -4.037470e+02
3.408770e-04 -4.001310e+03 -4.037460e+02
-4.000040e+02 -3.601480e+03 -4.051580e+02
-4.217080e-03 -3.601480e+03 -4.051620e+02
-4.000000e+02 -4.000000e+03 -3.746690e+00
-3.567760e-04 -4.000000e+03 -3.745770e+00
-4.000000e+02 -3.600010e+03 -5.158860e+00
-3.824450e-04 -3.600010e+03 -5.162730e+00
3.408770e-04 -4.001310e+03 -4.037460e+02
3.999990e+02 -4.001310e+03 -4.037450e+02
-4.217080e-03 -3.601480e+03 -4.051620e+02
3.999950e+02 -3.601480e+03 -4.051660e+02
-3.567760e-04 -4.000000e+03 -3.745770e+00
4.000000e+02 -4.000000e+03 -3.746300e+00
-3.824450e-04 -3.600010e+03 -5.162730e+00
4.000000e+02 -3.600010e+03 -5.167740e+00
-4.000040e+02 -3.601480e+03 -4.051580e+02
-4.217080e-03 -3.601480e+03 -4.051620e+02
-4.000040e+02 -3.201630e+03 -4.067320e+02
-4.056090e-03 -3.201630e+03 -4.067350e+02
-4.000000e+02 -3.600010e+03 -5.158860e+00
-3.824450e-04 -3.600010e+03 -5.162730e+00
-4.000000e+02 -3.200010e+03 -6.734710e+00
-3.217100e-04 -3.200010e+03 -6.737340e+00
-4.217080e-03 -3.601480e+03 -4.051620e+02
3.999950e+02 -3.601480e+03 -4.051660e+02
-4.056090e-03 -3.201630e+03 -4.067350e+02
3.999960e+02 -3.201630e+03 -4.067380e+02
-3.824450e-04 -3.600010e+03 -5.162730e+00
4.000000e+02 -3.600010e+03 -5.167740e+00
-3.217100e-04 -3.200010e+03 -6.737340e+00
4.000000e+02 -3.200010e+03 -6.741420e+00
-4.000040e+02 -3.201630e+03 -4.067320e+02
-4.056090e-03 -3.201630e+03 -4.067350e+02
-4.000000e+02 -2.801760e+03 -4.084430e+02
2.534880e-05 -2.801760e+03 -4.084410e+02
-4.000000e+02 -3.200010e+03 -6.734710e+00
-3.217100e-04 -3.200010e+03 -6.737340e+00
-4.000000e+02 -2.800010e+03 -8.446380e+00
-2.255460e-04 -2.800010e+03 -8.444790e+00
-4.056090e-03 -3.201630e+03 -4.067350e+02
3.999960e+02 -3.201630e+03 -4.067380e+02
2.534880e-05 -2.801760e+03 -4.084410e+02
4.000000e+02 -2.801760e+03 -4.084390e+02
-3.217100e-04 -3.200010e+03 -6.737340e+00
4.000000e+02 -3.200010e+03 -6.741420e+00
-2.255460e-04 -2.800010e+03 -8.444790e+00
4.000000e+02 -2.800010e+03 -8.444100e+00
-4.000000e+02 -2.801760e+03 -4.084430e+02
2.534880e-05 -2.801760e+03 -4.084410e+02
-3.999960e+02 -2.401860e+03 -4.102630e+02
3.737060e-03 -2.401860e+03 -4.102590e+02
-4.000000e+02 -2.800010e+03 -8.446380e+00
-2.255460e-04 -2.800010e+03 -8.444790e+00
-4.000000e+02 -2.400020e+03 -1.026760e+01
-1.722440e-04 -2.400020e+03 -1.026350e+01
2.534880e-05 -2.801760e+03 -4.084410e+02
4.000000e+02 -2.801760e+03 -4.084390e+02
3.737060e-03 -2.401860e+03 -4.102590e+02
4.000040e+02 -2.401860e+03 -4.102550e+02
-2.255460e-04 -2.800010e+03 -8.444790e+00
4.000000e+02 -2.800010e+03 -8.444100e+00
-1.722440e-04 -2.400020e+03 -1.026350e+01
4.000000e+02 -2.400020e+03 -1.025990e+01
-3.999960e+02 -2.401860e+03 -4.102630e+02
3.737060e-03 -2.401860e+03 -4.102590e+02
-3.999970e+02 -2.001940e+03 -4.121690e+02
2.858370e-03 -2.001940e+03 -4.121660e+02
-4.000000e+02 -2.400020e+03 -1.026760e+01
-1.722440e-04 -2.400020e+03 -1.026350e+01
-4.000000e+02 -2.000020e+03 -1.217370e+01
-1.069080e-04 -2.000020e+03 -1.217140e+01
3.737060e-03 -2.401860e+03 -4.102590e+02
4.000040e+02 -2.401860e+03 -4.102550e+02
2.858370e-03 -2.001940e+03 -4.121660e+02
4.000030e+02 -2.001950e+03 -4.121640e+02
-1.722440e-04 -2.400020e+03 -1.026350e+01
4.000000e+02 -2.400020e+03 -1.025990e+01
-1.069080e-04 -2.000020e+03 -1.217140e+01
4.000000e+02 -2.000020e+03 -1.216960e+01
-3.999970e+02 -2.001940e+03 -4.121690e+02
2.858370e-03 -2.001940e+03 -4.121660e+02
-4.000020e+02 -1.602000e+03 -4.141320e+02
-1.843480e-03 -1.602000e+03 -4.141340e+02
-4.000000e+02 -2.000020e+03 -1.217370e+01
-1.069080e-04 -2.000020e+03 -1.217140e+01
-4.000000e+02 -1.600030e+03 -1.413620e+01
-1.289000e-04 -1.600030e+03 -1.413840e+01
2.858370e-03 -2.001940e+03 -4.121660e+02
4.000030e+02 -2.001950e+03 -4.121640e+02
-1.843480e-03 -1.602000e+03 -4.141340e+02
3.999980e+02 -1.602000e+03 -4.141360e+02
-1.069080e-04 -2.000020e+03 -1.217140e+01
4.000000e+02 -2.000020e+03 -1.216960e+01
-1.289000e-04 -1.600030e+03 -1.413840e+01
4.000000e+02 -1.600030e+03 -1.414110e+01
-4.000020e+02 -1.602000e+03 -4.141320e+02
-1.843480e-03 -1.602000e+03 -4.141340e+02
-4.000050e+02 -1.202040e+03 -4.161250e+02
-5.354300e-03 -1.202040e+03 -4.161300e+02
-4.000000e+02 -1.600030e+03 -1.413620e+01
-1.289000e-04 -1.600030e+03 -1.413840e+01
-4.000000e+02 -1.200030e+03 -1.613020e+01
-5.822050e-05 -1.200030e+03 -1.613510e+01
-1.843480e-03 -1.602000e+03 -4.141340e+02
3.999980e+02 -1.602000e+03 -4.141360e+02
-5.354300e-03 -1.202040e+03 -4.161300e+02
3.999940e+02 -1.202030e+03 -4.161360e+02
-1.289000e-04 -1.600030e+03 -1.413840e+01
4.000000e+02 -1.600030e+03 -1.414110e+01
-5.822050e-05 -1.200030e+03 -1.613510e+01
4.000000e+02 -1.200030e+03 -1.614090e+01
-4.000050e+02 -1.202040e+03 -4.161250e+02
-5.354300e-03 -1.202040e+03 -4.161300e+02
-4.000040e+02 -8.020540e+02 -4.181400e+02
-3.980430e-03 -8.020540e+02 -4.181430e+02
-4.000000e+02 -1.200030e+03 -1.613020e+01
-5.822050e-05 -1.200030e+03 -1.613510e+01
-4.000000e+02 -8.000370e+02 -1.814550e+01
-2.336830e-05 -8.000370e+02 -1.814880e+01
-5.354300e-03 -1.202040e+03 -4.161300e+02
3.999940e+02 -1.202030e+03 -4.161360e+02
-3.980430e-03 -8.020540e+02 -4.181430e+02
3.999960e+02 -8.020540e+02 -4.181470e+02
-5.822050e-05 -1.200030e+03 -1.613510e+01
4.000000e+02 -1.200030e+03 -1.614090e+01
-2.336830e-05 -8.000370e+02 -1.814880e+01
4.000000e+02 -8.000370e+02 -1.815330e+01
-4.000040e+02 -8.020540e+02 -4.181400e+02
-3.980430e-03 -8.020540e+02 -4.181430e+02
-3.999990e+02 -4.020550e+02 -4.201650e+02
6.771430e-04 -4.020550e+02 -4.201640e+02
-4.000000e+02 -8.000370e+02 -1.814550e+01
-2.336830e-05 -8.000370e+02 -1.814880e+01
-4.000000e+02 -4.000410e+02 -2.017090e+01
-3.378570e-06 -4.000410e+02 -2.016940e+01
-3.980430e-03 -8.020540e+02 -4.181430e+02
3.999960e+02 -8.020540e+02 -4.181470e+02
6.771430e-04 -4.020550e+02 -4.201640e+02
4.000000e+02 -4.020550e+02 -4.201640e+02
-2.336830e-05 -8.000370e+02 -1.814880e+01
4.000000e+02 -8.000370e+02 -1.815330e+01
-3.378570e-06 -4.000410e+02 -2.016940e+01
4.000000e+02 -4.000410e+02 -2.016940e+01
-3.999990e+02 -4.020550e+02 -4.201650e+02
6.771430e-04 -4.020550e+02 -4.201640e+02
-3.999950e+02 -2.045500e+00 -4.221750e+02
4.435930e-03 -2.045530e+00 -4.221700e+02
-4.000000e+02 -4.000410e+02 -2.017090e+01
-3.378570e-06 -4.000410e+02 -2.016940e+01
-4.000000e+02 -4.624400e-02 -2.217990e+01
5.242870e-05 -4.627000e-02 -2.217500e+01
6.771430e-04 -4.020550e+02 -4.201640e+02
4.000000e+02 -4.020550e+02 -4.201640e+02
[...]
<PointData>
<DataArray type="Float32" Name="V1" format="ascii">
0.000000e+00
0.000000e+00
2.213860e-04
3.301960e-04
0.000000e+00
0.000000e+00
3.994600e-05
-6.301320e-06
0.000000e+00
0.000000e+00
3.301960e-04
4.387290e-04
0.000000e+00
0.000000e+00
-6.301320e-06
-5.282120e-05
2.213860e-04
3.301960e-04
7.070620e-05
3.208120e-05
3.994600e-05
-6.301320e-06
-5.681580e-05
-7.067970e-05
3.301960e-04
4.387290e-04
3.208120e-05
-6.466550e-06
-6.301320e-06
-5.282120e-05
-7.067970e-05
-8.436080e-05
7.070620e-05
3.208120e-05
-9.621380e-04
-6.049870e-04
-5.681580e-05
-7.067970e-05
-1.275230e-04
-6.018910e-05
3.208120e-05
-6.466550e-06
-6.049870e-04
-2.473000e-04
-7.067970e-05
-8.436080e-05
-6.018910e-05
7.638980e-06
-9.621380e-04
-6.049870e-04
-7.385770e-04
-5.083910e-04
-1.275230e-04
-6.018910e-05
-9.082400e-05
-3.430090e-05
-6.049870e-04
-2.473000e-04
-5.083910e-04
-2.778570e-04
-6.018910e-05
7.638980e-06
-3.430090e-05
2.257590e-05
-7.385770e-04
-5.083910e-04
5.095350e-04
1.247900e-03
-9.082400e-05
-3.430090e-05
-1.854090e-05
1.862320e-05
-5.083910e-04
-2.778570e-04
1.247900e-03
1.986560e-03
-3.430090e-05
2.257590e-05
1.862320e-05
5.632650e-05
5.095350e-04
1.247900e-03
2.790080e-03
3.632720e-03
-1.854090e-05
1.862320e-05
1.599110e-04
1.451960e-04
1.247900e-03
1.986560e-03
3.632720e-03
4.476240e-03
1.862320e-05
5.632650e-05
1.451960e-04
1.313460e-04
2.790080e-03
3.632720e-03
2.568500e-03
3.741980e-03
1.599110e-04
1.451960e-04
3.196620e-04
2.634070e-04
3.632720e-03
4.476240e-03
3.741980e-03
4.916120e-03
1.451960e-04
1.313460e-04
2.634070e-04
2.081120e-04
2.568500e-03
3.741980e-03
5.416200e-04
1.455330e-03
3.196620e-04
2.634070e-04
2.179670e-04
1.645200e-04
3.741980e-03
4.916120e-03
1.455330e-03
2.369860e-03
2.634070e-04
2.081120e-04
1.645200e-04
1.121100e-04
5.416200e-04
1.455330e-03
-2.273790e-03
-1.644900e-03
2.179670e-04
1.645200e-04
3.182620e-04
2.499500e-04
1.455330e-03
2.369860e-03
-1.644900e-03
-1.014460e-03
1.645200e-04
1.121100e-04
2.499500e-04
1.827890e-04
-2.273790e-03
-1.644900e-03
-4.596540e-03
-4.091520e-03
3.182620e-04
2.499500e-04
2.209860e-04
2.304570e-04
-1.644900e-03
-1.014460e-03
-4.091520e-03
-3.585810e-03
2.499500e-04
1.827890e-04
2.304570e-04
2.408940e-04
-4.596540e-03
-4.091520e-03
-4.389820e-03
-4.415380e-03
2.209860e-04
2.304570e-04
-1.236340e-05
7.521750e-05
-4.091520e-03
-3.585810e-03
-4.415380e-03
-4.440870e-03
2.304570e-04
2.408940e-04
7.521750e-05
1.632990e-04
-4.389820e-03
-4.415380e-03
-2.758590e-03
-2.492880e-03
-1.236340e-05
7.521750e-05
-7.135090e-05
-4.236810e-06
-4.415380e-03
-4.440870e-03
-2.492880e-03
-2.226820e-03
7.521750e-05
1.632990e-04
-4.236810e-06
6.298140e-05
-2.758590e-03
-2.492880e-03
-2.279560e-04
2.226790e-04
-7.135090e-05
-4.236810e-06
-1.033660e-04
-4.398820e-05
-2.492880e-03
-2.226820e-03
2.226790e-04
6.732590e-04
-4.236810e-06
6.298140e-05
-4.398820e-05
1.545130e-05
-2.279560e-04
2.226790e-04
2.183120e-03
2.540840e-03
-1.033660e-04
-4.398820e-05
-1.578440e-04
-5.753400e-05
2.226790e-04
6.732590e-04
2.540840e-03
2.898470e-03
-4.398820e-05
1.545130e-05
-5.753400e-05
4.280690e-05
2.183120e-03
2.540840e-03
3.175180e-03
3.265790e-03
-1.578440e-04
-5.753400e-05
-2.857400e-04
-2.151890e-04
2.540840e-03
2.898470e-03
3.265790e-03
3.356830e-03
-5.753400e-05
4.280690e-05
-2.151890e-04
-1.448500e-04
3.175180e-03
3.265790e-03
1.507710e-03
1.603390e-03
-2.857400e-04
-2.151890e-04
-1.262910e-04
-1.425280e-04
3.265790e-03
3.356830e-03
1.603390e-03
1.699020e-03
-2.151890e-04
-1.448500e-04
-1.425280e-04
-1.585230e-04
1.507710e-03
1.603390e-03
1.922200e-04
1.071830e-04
-1.262910e-04
-1.425280e-04
-1.888990e-04
-2.312070e-04
1.603390e-03
1.699020e-03
1.071830e-04
2.200350e-05
-1.425280e-04
-1.585230e-04
-2.312070e-04
-2.728830e-04
1.922200e-04
1.071830e-04
7.291950e-04
2.028080e-04
-1.888990e-04
-2.312070e-04
-1.113990e-04
-1.664080e-04
1.071830e-04
2.200350e-05
2.028080e-04
-3.229020e-04
-2.312070e-04
-2.728830e-04
-1.664080e-04
-2.207730e-04
7.291950e-04
2.028080e-04
1.467880e-03
1.285730e-03
-1.113990e-04
-1.664080e-04
-1.702290e-04
-1.955930e-04
2.028080e-04
-3.229020e-04
1.285730e-03
1.104460e-03
-1.664080e-04
-2.207730e-04
-1.955930e-04
-2.202980e-04
1.467880e-03
1.285730e-03
9.619230e-04
1.204690e-03
-1.702290e-04
-1.955930e-04
-1.008340e-04
-6.354730e-05
1.285730e-03
1.104460e-03
1.204690e-03
1.447550e-03
-1.955930e-04
-2.202980e-04
-6.354730e-05
-2.594600e-05
9.619230e-04
1.204690e-03
-6.497890e-04
-3.248760e-04
-1.008340e-04
-6.354730e-05
-1.475570e-04
-9.474930e-05
1.204690e-03
1.447550e-03
-3.248760e-04
1.796570e-07
-6.354730e-05
-2.594600e-05
-9.474930e-05
-4.214700e-05
-6.497890e-04
-3.248760e-04
-2.746690e-03
-2.303670e-03
-1.475570e-04
-9.474930e-05
-1.323680e-04
-3.409510e-05
-3.248760e-04
1.796570e-07
-2.303670e-03
-1.860930e-03
-9.474930e-05
-4.214700e-05
-3.409510e-05
6.401770e-05
-2.746690e-03
-2.303670e-03
-3.682120e-03
-3.199280e-03
-1.323680e-04
-3.409510e-05
-1.701150e-04
-4.223360e-05
-2.303670e-03
-1.860930e-03
-3.199280e-03
-2.716800e-03
-3.409510e-05
6.401770e-05
-4.223360e-05
8.579080e-05
-3.682120e-03
-3.199280e-03
-2.332160e-03
-2.223480e-03
-1.701150e-04
-4.223360e-05
-6.678610e-05
-4.537910e-05
-3.199280e-03
-2.716800e-03
-2.223480e-03
-2.114680e-03
-4.223360e-05
8.579080e-05
-4.537910e-05
-2.391520e-05
-2.332160e-03
-2.223480e-03
3.977900e-04
2.909400e-04
-6.678610e-05
-4.537910e-05
1.761720e-05
-4.110560e-05
-2.223480e-03
-2.114680e-03
2.909400e-04
1.841010e-04
-4.537910e-05
-2.391520e-05
-4.110560e-05
-9.970270e-05
3.977900e-04
2.909400e-04
2.783720e-03
2.454930e-03
1.761720e-05
-4.110560e-05
5.930470e-06
-5.963060e-05
2.909400e-04
1.841010e-04
2.454930e-03
2.125930e-03
-4.110560e-05
-9.970270e-05
-5.963060e-05
-1.253900e-04
2.783720e-03
2.454930e-03
2.665360e-03
2.723720e-03
5.930470e-06
-5.963060e-05
7.461600e-05
-3.337860e-06
2.454930e-03
2.125930e-03
2.723720e-03
2.781800e-03
-5.963060e-05
-1.253900e-04
-3.337860e-06
-8.187430e-05
2.665360e-03
2.723720e-03
6.944720e-04
1.060560e-03
7.461600e-05
-3.337860e-06
9.207320e-05
4.600890e-05
2.723720e-03
2.781800e-03
1.060560e-03
1.426000e-03
-3.337860e-06
-8.187430e-05
4.600890e-05
-6.927420e-07
6.944720e-04
1.060560e-03
-1.771900e-03
-1.229030e-03
9.207320e-05
4.600890e-05
1.317170e-04
1.444190e-04
1.060560e-03
1.426000e-03
-1.229030e-03
-6.878110e-04
4.600890e-05
-6.927420e-07
1.444190e-04
1.559090e-04
-1.771900e-03
-1.229030e-03
-2.792350e-03
-2.068010e-03
1.317170e-04
1.444190e-04
3.810440e-05
3.891000e-05
-1.229030e-03
-6.878110e-04
-2.068010e-03
-1.345320e-03
1.444190e-04
1.559090e-04
3.891000e-05
3.812140e-05
0.000000e+00
0.000000e+00
3.994600e-05
-6.301320e-06
0.000000e+00
0.000000e+00
-2.643030e-04
-2.759180e-04
0.000000e+00
0.000000e+00
-6.301320e-06
-5.282120e-05
0.000000e+00
0.000000e+00
-2.759180e-04
-2.877770e-04
3.994600e-05
-6.301320e-06
-5.681580e-05
-7.067970e-05
-2.643030e-04
-2.759180e-04
1.958410e-05
8.131530e-05
-6.301320e-06
-5.282120e-05
-7.067970e-05
-8.436080e-05
-2.759180e-04
-2.877770e-04
8.131530e-05
1.430620e-04
-5.681580e-05
-7.067970e-05
-1.275230e-04
-6.018910e-05
1.958410e-05
8.131530e-05
1.198170e-03
7.154510e-04
-7.067970e-05
-8.436080e-05
-6.018910e-05
7.638980e-06
8.131530e-05
1.430620e-04
7.154510e-04
2.332470e-04
-1.275230e-04
-6.018910e-05
-9.082400e-05
-3.430090e-05
1.198170e-03
7.154510e-04
9.447620e-04
5.933670e-04
-6.018910e-05
7.638980e-06
-3.430090e-05
2.257590e-05
7.154510e-04
2.332470e-04
5.933670e-04
2.425180e-04
-9.082400e-05
-3.430090e-05
-1.854090e-05
1.862320e-05
9.447620e-04
5.933670e-04
-5.027120e-04
-1.314660e-03
-3.430090e-05
2.257590e-05
1.862320e-05
5.632650e-05
5.933670e-04
2.425180e-04
-1.314660e-03
-2.126370e-03
-1.854090e-05
1.862320e-05
1.599110e-04
1.451960e-04
-5.027120e-04
-1.314660e-03
-3.028570e-03
-3.848910e-03
1.862320e-05
5.632650e-05
1.451960e-04
1.313460e-04
-1.314660e-03
-2.126370e-03
-3.848910e-03
-4.668570e-03
1.599110e-04
1.451960e-04
3.196620e-04
2.634070e-04
-3.028570e-03
-3.848910e-03
-3.203830e-03
-4.262140e-03
1.451960e-04
1.313460e-04
2.634070e-04
2.081120e-04
-3.848910e-03
-4.668570e-03
-4.262140e-03
-5.319550e-03
3.196620e-04
2.634070e-04
2.179670e-04
1.645200e-04
-3.203830e-03
-4.262140e-03
-1.040090e-03
-1.837700e-03
2.634070e-04
2.081120e-04
1.645200e-04
1.121100e-04
-4.262140e-03
-5.319550e-03
-1.837700e-03
-2.634550e-03
2.179670e-04
1.645200e-04
3.182620e-04
2.499500e-04
-1.040090e-03
-1.837700e-03
1.660260e-03
1.152260e-03
1.645200e-04
1.121100e-04
2.499500e-04
1.827890e-04
-1.837700e-03
-2.634550e-03
1.152260e-03
6.455330e-04
3.182620e-04
2.499500e-04
2.209860e-04
2.304570e-04
1.660260e-03
1.152260e-03
4.101530e-03
3.591010e-03
2.499500e-04
1.827890e-04
2.304570e-04
2.408940e-04
1.152260e-03
6.455330e-04
3.591010e-03
3.081810e-03
2.209860e-04
2.304570e-04
-1.236340e-05
7.521750e-05
4.101530e-03
3.591010e-03
4.451300e-03
4.284280e-03
2.304570e-04
2.408940e-04
7.521750e-05
1.632990e-04
3.591010e-03
3.081810e-03
4.284280e-03
4.117440e-03
-1.236340e-05
7.521750e-05
-7.135090e-05
-4.236810e-06
4.451300e-03
4.284280e-03
2.973350e-03
2.577470e-03
7.521750e-05
1.632990e-04
-4.236810e-06
6.298140e-05
4.284280e-03
4.117440e-03
2.577470e-03
2.181370e-03
-7.135090e-05
-4.236810e-06
-1.033660e-04
-4.398820e-05
2.973350e-03
2.577470e-03
4.044330e-04
-1.561800e-04
-4.236810e-06
6.298140e-05
-4.398820e-05
1.545130e-05
2.577470e-03
2.181370e-03
-1.561800e-04
-7.167560e-04
-1.033660e-04
-4.398820e-05
-1.578440e-04
-5.753400e-05
4.044330e-04
-1.561800e-04
-1.883520e-03
-2.455360e-03
-4.398820e-05
1.545130e-05
-5.753400e-05
4.280690e-05
-1.561800e-04
-7.167560e-04
-2.455360e-03
-3.027300e-03
-1.578440e-04
-5.753400e-05
-2.857400e-04
-2.151890e-04
-1.883520e-03
-2.455360e-03
-2.627920e-03
-2.846910e-03
-5.753400e-05
4.280690e-05
-2.151890e-04
-1.448500e-04
-2.455360e-03
-3.027300e-03
-2.846910e-03
-3.066020e-03
-2.857400e-04
-2.151890e-04
-1.262910e-04
-1.425280e-04
-2.627920e-03
-2.846910e-03
-1.286830e-03
-1.358290e-03
-2.151890e-04
-1.448500e-04
-1.425280e-04
-1.585230e-04
-2.846910e-03
-3.066020e-03
-1.358290e-03
-1.429280e-03
-1.262910e-04
-1.425280e-04
-1.888990e-04
-2.312070e-04
-1.286830e-03
-1.358290e-03
2.496420e-04
4.286910e-04
-1.425280e-04
-1.585230e-04
-2.312070e-04
-2.728830e-04
-1.358290e-03
-1.429280e-03
4.286910e-04
6.081780e-04
-1.888990e-04
-2.312070e-04
-1.113990e-04
-1.664080e-04
2.496420e-04
4.286910e-04
-4.932560e-04
1.434160e-04
-2.312070e-04
-2.728830e-04
-1.664080e-04
-2.207730e-04
4.286910e-04
6.081780e-04
1.434160e-04
7.807360e-04
-1.113990e-04
-1.664080e-04
-1.702290e-04
-1.955930e-04
-4.932560e-04
1.434160e-04
-1.202940e-03
-9.748410e-04
-1.664080e-04
-2.207730e-04
-1.955930e-04
-2.202980e-04
1.434160e-04
7.807360e-04
-9.748410e-04
-7.463600e-04
-1.702290e-04
-1.955930e-04
-1.008340e-04
-6.354730e-05
-1.202940e-03
-9.748410e-04
-7.186500e-04
-1.032770e-03
-1.955930e-04
-2.202980e-04
-6.354730e-05
-2.594600e-05
-9.748410e-04
-7.463600e-04
-1.032770e-03
-1.346790e-03
-1.008340e-04
-6.354730e-05
-1.475570e-04
-9.474930e-05
-7.186500e-04
-1.032770e-03
9.365430e-04
4.940700e-04
-6.354730e-05
-2.594600e-05
-9.474930e-05
-4.214700e-05
-1.032770e-03
-1.346790e-03
4.940700e-04
5.165150e-05
-1.475570e-04
-9.474930e-05
-1.323680e-04
-3.409510e-05
9.365430e-04
4.940700e-04
2.997990e-03
2.370500e-03
-9.474930e-05
-4.214700e-05
-3.409510e-05
6.401770e-05
4.940700e-04
5.165150e-05
2.370500e-03
1.742610e-03
-1.323680e-04
-3.409510e-05
-1.701150e-04
-4.223360e-05
2.997990e-03
2.370500e-03
4.055990e-03
3.316060e-03
-3.409510e-05
6.401770e-05
-4.223360e-05
8.579080e-05
2.370500e-03
1.742610e-03
3.316060e-03
2.576170e-03
-1.701150e-04
-4.223360e-05
-6.678610e-05
-4.537910e-05
4.055990e-03
3.316060e-03
2.409790e-03
2.253970e-03
-4.223360e-05
8.579080e-05
-4.537910e-05
-2.391520e-05
3.316060e-03
2.576170e-03
2.253970e-03
2.098490e-03
-6.678610e-05
-4.537910e-05
1.761720e-05
-4.110560e-05
2.409790e-03
2.253970e-03
-4.007570e-04
-1.662070e-04
-4.537910e-05
-2.391520e-05
-4.110560e-05
-9.970270e-05
2.253970e-03
2.098490e-03
-1.662070e-04
6.849550e-05
1.761720e-05
-4.110560e-05
5.930470e-06
-5.963060e-05
-4.007570e-04
-1.662070e-04
-2.733240e-03
-2.289250e-03
-4.110560e-05
-9.970270e-05
-5.963060e-05
-1.253900e-04
-1.662070e-04
6.849550e-05
-2.289250e-03
-1.845920e-03
5.930470e-06
-5.963060e-05
7.461600e-05
-3.337860e-06
-2.733240e-03
-2.289250e-03
-2.865650e-03
-2.760740e-03
-5.963060e-05
-1.253900e-04
-3.337860e-06
-8.187430e-05
-2.289250e-03
-1.845920e-03
-2.760740e-03
-2.656470e-03
7.461600e-05
-3.337860e-06
9.207320e-05
4.600890e-05
-2.865650e-03
-2.760740e-03
-8.699730e-04
-1.145450e-03
-3.337860e-06
-8.187430e-05
4.600890e-05
-6.927420e-07
-2.760740e-03
-2.656470e-03
-1.145450e-03
-1.421940e-03
9.207320e-05
4.600890e-05
1.317170e-04
1.444190e-04
-8.699730e-04
-1.145450e-03
1.503780e-03
9.362020e-04
4.600890e-05
-6.927420e-07
1.444190e-04
1.559090e-04
-1.145450e-03
-1.421940e-03
9.362020e-04
3.672360e-04
1.317170e-04
1.444190e-04
3.810440e-05
3.891000e-05
1.503780e-03
9.362020e-04
2.692510e-03
1.973480e-03
1.444190e-04
1.559090e-04
3.891000e-05
3.812140e-05
9.362020e-04
3.672360e-04
1.973480e-03
1.253420e-03
</DataArray>
<DataArray type="Float32" Name="V2" format="ascii">
0.000000e+00
0.000000e+00
6.016420e-03
6.623870e-03
0.000000e+00
0.000000e+00
8.285620e-05
4.807750e-05
0.000000e+00
0.000000e+00
6.623870e-03
6.313100e-03
0.000000e+00
0.000000e+00
4.807750e-05
1.722830e-04
6.016420e-03
6.623870e-03
5.539960e-03
6.818630e-03
8.285620e-05
4.807750e-05
1.984680e-04
2.403550e-04
6.623870e-03
6.313100e-03
6.818630e-03
6.789250e-03
4.807750e-05
1.722830e-04
2.403550e-04
2.943860e-04
5.539960e-03
6.818630e-03
1.798570e-03
2.730460e-03
1.984680e-04
2.403550e-04
1.976590e-04
1.870850e-04
6.818630e-03
6.789250e-03
2.730460e-03
3.180490e-03
2.403550e-04
2.943860e-04
1.870850e-04
1.833030e-04
1.798570e-03
2.730460e-03
8.688900e-04
6.213270e-04
1.976590e-04
1.870850e-04
6.205800e-04
6.220540e-04
2.730460e-03
3.180490e-03
6.213270e-04
6.824410e-04
1.870850e-04
1.833030e-04
6.220540e-04
6.397460e-04
8.688900e-04
6.213270e-04
3.423300e-03
2.022390e-03
6.205800e-04
6.220540e-04
6.748570e-04
6.912300e-04
6.213270e-04
6.824410e-04
2.022390e-03
9.273220e-04
6.220540e-04
6.397460e-04
6.912300e-04
6.297790e-04
3.423300e-03
2.022390e-03
2.514510e-03
1.230800e-03
6.748570e-04
6.912300e-04
3.980540e-04
3.721480e-04
2.022390e-03
9.273220e-04
1.230800e-03
-1.962800e-04
6.912300e-04
6.297790e-04
3.721480e-04
2.700100e-04
2.514510e-03
1.230800e-03
-6.608690e-04
-1.315360e-03
3.980540e-04
3.721480e-04
1.987930e-04
2.147820e-04
1.230800e-03
-1.962800e-04
-1.315360e-03
-2.295080e-03
3.721480e-04
2.700100e-04
2.147820e-04
2.020530e-04
-6.608690e-04
-1.315360e-03
4.646690e-04
-2.118980e-04
1.987930e-04
2.147820e-04
-8.188470e-05
-1.702790e-04
-1.315360e-03
-2.295080e-03
-2.118980e-04
-1.402960e-03
2.147820e-04
2.020530e-04
-1.702790e-04
-1.365340e-04
4.646690e-04
-2.118980e-04
7.082830e-04
5.854360e-05
-8.188470e-05
-1.702790e-04
-1.892120e-04
-3.289820e-04
-2.118980e-04
-1.402960e-03
5.854360e-05
-1.187890e-03
-1.702790e-04
-1.365340e-04
-3.289820e-04
-3.992770e-04
7.082830e-04
5.854360e-05
-1.041230e-03
-1.885480e-03
-1.892120e-04
-3.289820e-04
-3.220580e-04
-2.615480e-04
5.854360e-05
-1.187890e-03
-1.885480e-03
-1.999190e-03
-3.289820e-04
-3.992770e-04
-2.615480e-04
-3.383280e-04
-1.041230e-03
-1.885480e-03
8.712050e-04
2.831650e-04
-3.220580e-04
-2.615480e-04
-4.902720e-04
-4.294790e-04
-1.885480e-03
-1.999190e-03
2.831650e-04
3.259970e-04
-2.615480e-04
-3.383280e-04
-4.294790e-04
-3.534560e-04
8.712050e-04
2.831650e-04
1.688090e-03
1.682970e-03
-4.902720e-04
-4.294790e-04
-4.305530e-04
-5.315080e-04
2.831650e-04
3.259970e-04
1.682970e-03
1.036670e-03
-4.294790e-04
-3.534560e-04
-5.315080e-04
-5.036410e-04
1.688090e-03
1.682970e-03
-2.765610e-04
-1.441520e-03
-4.305530e-04
-5.315080e-04
-4.100560e-04
-3.862180e-04
1.682970e-03
1.036670e-03
-1.441520e-03
-2.254890e-03
-5.315080e-04
-5.036410e-04
-3.862180e-04
-4.240130e-04
-2.765610e-04
-1.441520e-03
1.559080e-03
-9.941230e-04
-4.100560e-04
-3.862180e-04
-4.139370e-04
-2.975370e-04
-1.441520e-03
-2.254890e-03
-9.941230e-04
-2.235730e-03
-3.862180e-04
-4.240130e-04
-2.975370e-04
-2.581980e-04
1.559080e-03
-9.941230e-04
4.144670e-03
2.396160e-03
-4.139370e-04
-2.975370e-04
-2.512190e-04
-2.281420e-04
-9.941230e-04
-2.235730e-03
2.396160e-03
7.150630e-04
-2.975370e-04
-2.581980e-04
-2.281420e-04
-1.106330e-04
4.144670e-03
2.396160e-03
1.077300e-03
4.100350e-04
-2.512190e-04
-2.281420e-04
2.809400e-06
-5.455480e-06
2.396160e-03
7.150630e-04
4.100350e-04
-4.934840e-04
-2.281420e-04
-1.106330e-04
-5.455480e-06
4.454360e-05
1.077300e-03
4.100350e-04
-2.851090e-03
-3.704840e-03
2.809400e-06
-5.455480e-06
5.077160e-05
4.666010e-05
4.100350e-04
-4.934840e-04
-3.704840e-03
-3.472620e-03
-5.455480e-06
4.454360e-05
4.666010e-05
1.104040e-04
-2.851090e-03
-3.704840e-03
-3.854940e-03
-3.929390e-03
5.077160e-05
4.666010e-05
-1.791820e-05
-3.877480e-05
-3.704840e-03
-3.472620e-03
-3.929390e-03
-3.730430e-03
4.666010e-05
1.104040e-04
-3.877480e-05
4.349480e-05
-3.854940e-03
-3.929390e-03
-2.898150e-03
-1.559650e-03
-1.791820e-05
-3.877480e-05
-4.307270e-05
1.389490e-05
-3.929390e-03
-3.730430e-03
-1.559650e-03
-1.436740e-03
-3.877480e-05
4.349480e-05
1.389490e-05
-1.663380e-05
-2.898150e-03
-1.559650e-03
1.361350e-03
2.828180e-03
-4.307270e-05
1.389490e-05
-1.002270e-05
5.063910e-05
-1.559650e-03
-1.436740e-03
2.828180e-03
3.707090e-03
1.389490e-05
-1.663380e-05
5.063910e-05
8.257310e-05
1.361350e-03
2.828180e-03
2.453590e-03
3.865080e-03
-1.002270e-05
5.063910e-05
1.572710e-04
1.122140e-04
2.828180e-03
3.707090e-03
3.865080e-03
4.899880e-03
5.063910e-05
8.257310e-05
1.122140e-04
1.757030e-04
2.453590e-03
3.865080e-03
-1.838200e-03
-3.926110e-04
1.572710e-04
1.122140e-04
1.757510e-04
1.684950e-04
3.865080e-03
4.899880e-03
-3.926110e-04
1.968890e-04
1.122140e-04
1.757030e-04
1.684950e-04
7.928300e-05
-1.838200e-03
-3.926110e-04
-1.591550e-03
-1.054630e-03
1.757510e-04
1.684950e-04
2.316140e-04
1.799600e-04
-3.926110e-04
1.968890e-04
-1.054630e-03
-5.254580e-04
1.684950e-04
7.928300e-05
1.799600e-04
1.161890e-04
-1.591550e-03
-1.054630e-03
7.970300e-04
6.129690e-05
2.316140e-04
1.799600e-04
1.083770e-04
7.147080e-05
-1.054630e-03
-5.254580e-04
6.129690e-05
4.888710e-04
1.799600e-04
1.161890e-04
7.147080e-05
1.180070e-04
7.970300e-04
6.129690e-05
-3.351780e-03
-4.164830e-03
1.083770e-04
7.147080e-05
-4.320530e-04
-3.038890e-04
6.129690e-05
4.888710e-04
-4.164830e-03
-4.022100e-03
7.147080e-05
1.180070e-04
-3.038890e-04
-2.959870e-04
-3.351780e-03
-4.164830e-03
-1.093420e-02
-1.046950e-02
-4.320530e-04
-3.038890e-04
-4.588270e-04
-3.194190e-04
-4.164830e-03
-4.022100e-03
-1.046950e-02
-1.081840e-02
-3.038890e-04
-2.959870e-04
-3.194190e-04
-2.727700e-04
-1.093420e-02
-1.046950e-02
-1.382300e-02
-1.245820e-02
-4.588270e-04
-3.194190e-04
-6.152070e-05
1.707990e-05
-1.046950e-02
-1.081840e-02
-1.245820e-02
-1.307770e-02
-3.194190e-04
-2.727700e-04
1.707990e-05
2.068900e-05
-1.382300e-02
-1.245820e-02
-6.348370e-03
-5.408510e-03
-6.152070e-05
1.707990e-05
-9.596180e-06
8.685400e-05
-1.245820e-02
-1.307770e-02
-5.408510e-03
-5.792190e-03
1.707990e-05
2.068900e-05
8.685400e-05
-4.582970e-08
-6.348370e-03
-5.408510e-03
6.622480e-03
6.772990e-03
-9.596180e-06
8.685400e-05
3.206760e-04
3.891970e-04
-5.408510e-03
-5.792190e-03
6.772990e-03
6.629820e-03
8.685400e-05
-4.582970e-08
3.891970e-04
3.890870e-04
6.622480e-03
6.772990e-03
1.277470e-02
1.260720e-02
3.206760e-04
3.891970e-04
7.852070e-04
7.860790e-04
6.772990e-03
6.629820e-03
1.260720e-02
1.255570e-02
3.891970e-04
3.890870e-04
7.860790e-04
8.756590e-04
0.000000e+00
0.000000e+00
8.285620e-05
4.807750e-05
0.000000e+00
0.000000e+00
-6.268940e-03
-6.862200e-03
0.000000e+00
0.000000e+00
4.807750e-05
1.722830e-04
0.000000e+00
0.000000e+00
-6.862200e-03
-6.798860e-03
8.285620e-05
4.807750e-05
1.984680e-04
2.403550e-04
-6.268940e-03
-6.862200e-03
-5.909790e-03
-7.273640e-03
4.807750e-05
1.722830e-04
2.403550e-04
2.943860e-04
-6.862200e-03
-6.798860e-03
-7.273640e-03
-7.346410e-03