<?xml version="1.0"?>
<VTKFile type="UnstructuredGrid" version="0.1" byte_order="LittleEndian" compressor="vtkZLibDataCompressor">
<UnstructuredGrid>
<Piece NumberOfPoints="960" NumberOfCells="120">
<Points>
<DataArray type="Float32" NumberOfComponents="3" format="ascii">
-4.000000e+02 -6.000000e+03 -4.000000e+02
0.000000e+00 -6.000000e+03 -4.000000e+02
-4.000000e+02 -5.600010e+03 -4.000000e+02
1.105800e-09 -5.600010e+03 -4.000000e+02
-4.000000e+02 -6.000000e+03 0.000000e+00
0.000000e+00 -6.000000e+03 0.000000e+00
-4.000000e+02 -5.600010e+03 2.027780e-10
3.783250e-10 -5.600010e+03 5.688440e-10
0.000000e+00 -6.000000e+03 -4.000000e+02
4.000000e+02 -6.000000e+03 -4.000000e+02
1.105800e-09 -5.600010e+03 -4.000000e+02
4.000000e+02 -5.600010e+03 -4.000000e+02
0.000000e+00 -6.000000e+03 0.000000e+00
4.000000e+02 -6.000000e+03 0.000000e+00
3.783250e-10 -5.600010e+03 5.688440e-10
4.000000e+02 -5.600010e+03 1.855230e-10
-4.000000e+02 -5.600010e+03 -4.000000e+02
1.105800e-09 -5.600010e+03 -4.000000e+02
-4.000000e+02 -5.199980e+03 -4.000000e+02
-2.902330e-11 -5.199980e+03 -4.000000e+02
-4.000000e+02 -5.600010e+03 2.027780e-10
3.783250e-10 -5.600010e+03 5.688440e-10
-4.000000e+02 -5.199980e+03 5.263280e-10
-6.587690e-11 -5.199980e+03 6.256370e-10
1.105800e-09 -5.600010e+03 -4.000000e+02
4.000000e+02 -5.600010e+03 -4.000000e+02
-2.902330e-11 -5.199980e+03 -4.000000e+02
4.000000e+02 -5.199980e+03 -4.000000e+02
3.783250e-10 -5.600010e+03 5.688440e-10
4.000000e+02 -5.600010e+03 1.855230e-10
-6.587690e-11 -5.199980e+03 6.256370e-10
4.000000e+02 -5.199980e+03 4.586660e-10
-4.000000e+02 -5.199980e+03 -4.000000e+02
-2.902330e-11 -5.199980e+03 -4.000000e+02
-4.000000e+02 -4.799970e+03 -4.000000e+02
-1.219120e-09 -4.799970e+03 -4.000000e+02
-4.000000e+02 -5.199980e+03 5.263280e-10
-6.587690e-11 -5.199980e+03 6.256370e-10
-4.000000e+02 -4.799970e+03 3.050760e-10
-9.919980e-10 -4.799970e+03 -6.922540e-10
-2.902330e-11 -5.199980e+03 -4.000000e+02
4.000000e+02 -5.199980e+03 -4.000000e+02
-1.219120e-09 -4.799970e+03 -4.000000e+02
4.000000e+02 -4.799970e+03 -4.000000e+02
-6.587690e-11 -5.199980e+03 6.256370e-10
4.000000e+02 -5.199980e+03 4.586660e-10
-9.919980e-10 -4.799970e+03 -6.922540e-10
4.000000e+02 -4.799970e+03 -2.539540e-10
-4.000000e+02 -4.799970e+03 -4.000000e+02
-1.219120e-09 -4.799970e+03 -4.000000e+02
-4.000000e+02 -4.400020e+03 -4.000000e+02
-2.201560e-09 -4.400020e+03 -4.000000e+02
-4.000000e+02 -4.799970e+03 3.050760e-10
-9.919980e-10 -4.799970e+03 -6.922540e-10
-4.000000e+02 -4.400020e+03 -3.361150e-10
-1.540990e-09 -4.400020e+03 -1.194490e-09
-1.219120e-09 -4.799970e+03 -4.000000e+02
4.000000e+02 -4.799970e+03 -4.000000e+02
-2.201560e-09 -4.400020e+03 -4.000000e+02
4.000000e+02 -4.400020e+03 -4.000000e+02
-9.919980e-10 -4.799970e+03 -6.922540e-10
4.000000e+02 -4.799970e+03 -2.539540e-10
-1.540990e-09 -4.400020e+03 -1.194490e-09
4.000000e+02 -4.400020e+03 -6.055100e-10
-4.000000e+02 -4.400020e+03 -4.000000e+02
-2.201560e-09 -4.400020e+03 -4.000000e+02
-4.000000e+02 -4.000110e+03 -4.000000e+02
-1.548840e-09 -4.000110e+03 -4.000000e+02
-4.000000e+02 -4.400020e+03 -3.361150e-10
-1.540990e-09 -4.400020e+03 -1.194490e-09
-4.000000e+02 -4.000110e+03 -1.579550e-10
-2.044850e-09 -4.000110e+03 -1.092740e-09
-2.201560e-09 -4.400020e+03 -4.000000e+02
4.000000e+02 -4.400020e+03 -4.000000e+02
-1.548840e-09 -4.000110e+03 -4.000000e+02
4.000000e+02 -4.000110e+03 -4.000000e+02
-1.540990e-09 -4.400020e+03 -1.194490e-09
4.000000e+02 -4.400020e+03 -6.055100e-10
-2.044850e-09 -4.000110e+03 -1.092740e-09
4.000000e+02 -4.000110e+03 -1.169880e-09
-4.000000e+02 -4.000110e+03 -4.000000e+02
-1.548840e-09 -4.000110e+03 -4.000000e+02
-4.000000e+02 -3.600190e+03 -4.000000e+02
-1.739240e-09 -3.600190e+03 -4.000000e+02
-4.000000e+02 -4.000110e+03 -1.579550e-10
-2.044850e-09 -4.000110e+03 -1.092740e-09
-4.000000e+02 -3.600190e+03 -6.871320e-11
-1.546360e-09 -3.600190e+03 -4.763710e-10
-1.548840e-09 -4.000110e+03 -4.000000e+02
4.000000e+02 -4.000110e+03 -4.000000e+02
-1.739240e-09 -3.600190e+03 -4.000000e+02
4.000000e+02 -3.600190e+03 -4.000000e+02
-2.044850e-09 -4.000110e+03 -1.092740e-09
4.000000e+02 -4.000110e+03 -1.169880e-09
-1.546360e-09 -3.600190e+03 -4.763710e-10
4.000000e+02 -3.600190e+03 -3.672750e-10
-4.000000e+02 -3.600190e+03 -4.000000e+02
-1.739240e-09 -3.600190e+03 -4.000000e+02
-4.000000e+02 -3.200240e+03 -4.000000e+02
-1.732640e-09 -3.200240e+03 -4.000000e+02
-4.000000e+02 -3.600190e+03 -6.871320e-11
-1.546360e-09 -3.600190e+03 -4.763710e-10
-4.000000e+02 -3.200240e+03 -1.435920e-10
-6.120560e-10 -3.200240e+03 5.495950e-10
-1.739240e-09 -3.600190e+03 -4.000000e+02
4.000000e+02 -3.600190e+03 -4.000000e+02
-1.732640e-09 -3.200240e+03 -4.000000e+02
4.000000e+02 -3.200240e+03 -4.000000e+02
-1.546360e-09 -3.600190e+03 -4.763710e-10
4.000000e+02 -3.600190e+03 -3.672750e-10
-6.120560e-10 -3.200240e+03 5.495950e-10
4.000000e+02 -3.200240e+03 -1.564800e-10
-4.000000e+02 -3.200240e+03 -4.000000e+02
-1.732640e-09 -3.200240e+03 -4.000000e+02
-4.000000e+02 -2.800270e+03 -4.000000e+02
-1.291330e-09 -2.800270e+03 -4.000000e+02
-4.000000e+02 -3.200240e+03 -1.435920e-10
-6.120560e-10 -3.200240e+03 5.495950e-10
-4.000000e+02 -2.800270e+03 -1.843570e-10
-2.614400e-10 -2.800270e+03 5.217000e-11
-1.732640e-09 -3.200240e+03 -4.000000e+02
4.000000e+02 -3.200240e+03 -4.000000e+02
-1.291330e-09 -2.800270e+03 -4.000000e+02
4.000000e+02 -2.800270e+03 -4.000000e+02
-6.120560e-10 -3.200240e+03 5.495950e-10
4.000000e+02 -3.200240e+03 -1.564800e-10
-2.614400e-10 -2.800270e+03 5.217000e-11
4.000000e+02 -2.800270e+03 -8.514560e-10
-4.000000e+02 -2.800270e+03 -4.000000e+02
-1.291330e-09 -2.800270e+03 -4.000000e+02
-4.000000e+02 -2.400280e+03 -4.000000e+02
-3.453800e-10 -2.400280e+03 -4.000000e+02
-4.000000e+02 -2.800270e+03 -1.843570e-10
-2.614400e-10 -2.800270e+03 5.217000e-11
-4.000000e+02 -2.400280e+03 -7.503270e-10
3.476580e-10 -2.400280e+03 -3.452130e-10
-1.291330e-09 -2.800270e+03 -4.000000e+02
4.000000e+02 -2.800270e+03 -4.000000e+02
-3.453800e-10 -2.400280e+03 -4.000000e+02
4.000000e+02 -2.400280e+03 -4.000000e+02
-2.614400e-10 -2.800270e+03 5.217000e-11
4.000000e+02 -2.800270e+03 -8.514560e-10
3.476580e-10 -2.400280e+03 -3.452130e-10
4.000000e+02 -2.400280e+03 -1.007380e-09
-4.000000e+02 -2.400280e+03 -4.000000e+02
-3.453800e-10 -2.400280e+03 -4.000000e+02
-4.000000e+02 -2.000290e+03 -4.000000e+02
-1.430860e-10 -2.000290e+03 -4.000000e+02
-4.000000e+02 -2.400280e+03 -7.503270e-10
3.476580e-10 -2.400280e+03 -3.452130e-10
-4.000000e+02 -2.000290e+03 9.054300e-10
1.693440e-10 -2.000290e+03 9.940890e-10
-3.453800e-10 -2.400280e+03 -4.000000e+02
4.000000e+02 -2.400280e+03 -4.000000e+02
-1.430860e-10 -2.000290e+03 -4.000000e+02
4.000000e+02 -2.000290e+03 -4.000000e+02
3.476580e-10 -2.400280e+03 -3.452130e-10
4.000000e+02 -2.400280e+03 -1.007380e-09
1.693440e-10 -2.000290e+03 9.940890e-10
4.000000e+02 -2.000290e+03 -1.066300e-11
-4.000000e+02 -2.000290e+03 -4.000000e+02
-1.430860e-10 -2.000290e+03 -4.000000e+02
-4.000000e+02 -1.600290e+03 -4.000000e+02
-1.006820e-10 -1.600290e+03 -4.000000e+02
-4.000000e+02 -2.000290e+03 9.054300e-10
1.693440e-10 -2.000290e+03 9.940890e-10
-4.000000e+02 -1.600290e+03 2.070780e-09
6.360460e-12 -1.600290e+03 1.588740e-09
-1.430860e-10 -2.000290e+03 -4.000000e+02
4.000000e+02 -2.000290e+03 -4.000000e+02
-1.006820e-10 -1.600290e+03 -4.000000e+02
4.000000e+02 -1.600290e+03 -4.000000e+02
1.693440e-10 -2.000290e+03 9.940890e-10
4.000000e+02 -2.000290e+03 -1.066300e-11
6.360460e-12 -1.600290e+03 1.588740e-09
4.000000e+02 -1.600290e+03 1.400720e-09
-4.000000e+02 -1.600290e+03 -4.000000e+02
-1.006820e-10 -1.600290e+03 -4.000000e+02
-4.000000e+02 -1.200290e+03 -4.000000e+02
4.448120e-10 -1.200290e+03 -4.000000e+02
-4.000000e+02 -1.600290e+03 2.070780e-09
6.360460e-12 -1.600290e+03 1.588740e-09
-4.000000e+02 -1.200290e+03 2.182600e-09
6.315530e-10 -1.200290e+03 1.842900e-09
-1.006820e-10 -1.600290e+03 -4.000000e+02
4.000000e+02 -1.600290e+03 -4.000000e+02
4.448120e-10 -1.200290e+03 -4.000000e+02
4.000000e+02 -1.200290e+03 -4.000000e+02
6.360460e-12 -1.600290e+03 1.588740e-09
4.000000e+02 -1.600290e+03 1.400720e-09
6.315530e-10 -1.200290e+03 1.842900e-09
4.000000e+02 -1.200290e+03 1.321270e-09
-4.000000e+02 -1.200290e+03 -4.000000e+02
4.448120e-10 -1.200290e+03 -4.000000e+02
-4.000000e+02 -8.002940e+02 -4.000000e+02
5.142890e-10 -8.002940e+02 -4.000000e+02
-4.000000e+02 -1.200290e+03 2.182600e-09
6.315530e-10 -1.200290e+03 1.842900e-09
-4.000000e+02 -8.002940e+02 2.175540e-09
1.163060e-09 -8.002940e+02 2.051060e-09
4.448120e-10 -1.200290e+03 -4.000000e+02
4.000000e+02 -1.200290e+03 -4.000000e+02
5.142890e-10 -8.002940e+02 -4.000000e+02
4.000000e+02 -8.002940e+02 -4.000000e+02
6.315530e-10 -1.200290e+03 1.842900e-09
4.000000e+02 -1.200290e+03 1.321270e-09
1.163060e-09 -8.002940e+02 2.051060e-09
4.000000e+02 -8.002940e+02 1.286380e-09
-4.000000e+02 -8.002940e+02 -4.000000e+02
5.142890e-10 -8.002940e+02 -4.000000e+02
-4.000000e+02 -4.002940e+02 -4.000000e+02
4.336900e-10 -4.002940e+02 -4.000000e+02
-4.000000e+02 -8.002940e+02 2.175540e-09
1.163060e-09 -8.002940e+02 2.051060e-09
-4.000000e+02 -4.002940e+02 2.060450e-09
1.041940e-09 -4.002940e+02 1.604700e-09
5.142890e-10 -8.002940e+02 -4.000000e+02
4.000000e+02 -8.002940e+02 -4.000000e+02
4.336900e-10 -4.002940e+02 -4.000000e+02
4.000000e+02 -4.002940e+02 -4.000000e+02
1.163060e-09 -8.002940e+02 2.051060e-09
4.000000e+02 -8.002940e+02 1.286380e-09
1.041940e-09 -4.002940e+02 1.604700e-09
4.000000e+02 -4.002940e+02 1.271530e-09
-4.000000e+02 -4.002940e+02 -4.000000e+02
4.336900e-10 -4.002940e+02 -4.000000e+02
-4.000000e+02 -2.934660e-01 -4.000000e+02
6.846800e-10 -2.934510e-01 -4.000000e+02
-4.000000e+02 -4.002940e+02 2.060450e-09
1.041940e-09 -4.002940e+02 1.604700e-09
-4.000000e+02 -2.934510e-01 2.572430e-09
1.079360e-09 -2.934370e-01 1.580660e-09
4.336900e-10 -4.002940e+02 -4.000000e+02
4.000000e+02 -4.002940e+02 -4.000000e+02
6.846800e-10 -2.934510e-01 -4.000000e+02
[...]
<PointData>
<DataArray type="Float32" Name="V1" format="ascii">
0.000000e+00
0.000000e+00
-1.027190e-06
-3.922260e-10
0.000000e+00
0.000000e+00
-1.033310e-06
6.828270e-10
0.000000e+00
0.000000e+00
-3.922260e-10
1.026790e-06
0.000000e+00
0.000000e+00
6.828270e-10
1.034290e-06
-1.027190e-06
-3.922260e-10
1.156520e-06
3.545170e-10
-1.033310e-06
6.828270e-10
1.167200e-06
-2.112310e-10
-3.922260e-10
1.026790e-06
3.545170e-10
-1.155010e-06
6.828270e-10
1.034290e-06
-2.112310e-10
-1.167830e-06
1.156520e-06
3.545170e-10
-1.685820e-07
2.867150e-10
1.167200e-06
-2.112310e-10
-1.858960e-07
3.781000e-10
3.545170e-10
-1.155010e-06
2.867150e-10
1.683780e-07
-2.112310e-10
-1.167830e-06
3.781000e-10
1.878280e-07
-1.685820e-07
2.867150e-10
-2.081320e-06
-1.497320e-09
-1.858960e-07
3.781000e-10
-2.058880e-06
7.940310e-10
2.867150e-10
1.683780e-07
-1.497320e-09
2.078540e-06
3.781000e-10
1.878280e-07
7.940310e-10
2.059980e-06
-2.081320e-06
-1.497320e-09
4.221440e-06
-2.613270e-10
-2.058880e-06
7.940310e-10
4.199780e-06
-3.045450e-10
-1.497320e-09
2.078540e-06
-2.613270e-10
-4.222100e-06
7.940310e-10
2.059980e-06
-3.045450e-10
-4.200230e-06
4.221440e-06
-2.613270e-10
-3.919060e-06
1.200700e-10
4.199780e-06
-3.045450e-10
-3.905580e-06
-7.609820e-10
-2.613270e-10
-4.222100e-06
1.200700e-10
3.918920e-06
-3.045450e-10
-4.200230e-06
-7.609820e-10
3.903630e-06
-3.919060e-06
1.200700e-10
6.952390e-07
-1.055850e-09
-3.905580e-06
-7.609820e-10
6.964330e-07
2.048060e-10
1.200700e-10
3.918920e-06
-1.055850e-09
-6.968410e-07
-7.609820e-10
3.903630e-06
2.048060e-10
-6.961970e-07
6.952390e-07
-1.055850e-09
2.879120e-06
-5.330020e-10
6.964330e-07
2.048060e-10
2.850380e-06
5.901140e-11
-1.055850e-09
-6.968410e-07
-5.330020e-10
-2.880340e-06
2.048060e-10
-6.961970e-07
5.901140e-11
-2.850350e-06
2.879120e-06
-5.330020e-10
-5.945000e-06
6.748710e-10
2.850380e-06
5.901140e-11
-5.845450e-06
-1.415440e-10
-5.330020e-10
-2.880340e-06
6.748710e-10
5.945520e-06
5.901140e-11
-2.850350e-06
-1.415440e-10
5.844480e-06
-5.945000e-06
6.748710e-10
9.180340e-06
4.228000e-10
-5.845450e-06
-1.415440e-10
8.932850e-06
4.031040e-10
6.748710e-10
5.945520e-06
4.228000e-10
-9.180200e-06
-1.415440e-10
5.844480e-06
4.031040e-10
-8.932620e-06
9.180340e-06
4.228000e-10
-5.438230e-06
9.279680e-11
8.932850e-06
4.031040e-10
-4.997040e-06
-5.604970e-11
4.228000e-10
-9.180200e-06
9.279680e-11
5.437760e-06
4.031040e-10
-8.932620e-06
-5.604970e-11
4.996740e-06
-5.438230e-06
9.279680e-11
-3.766080e-06
9.946090e-11
-4.997040e-06
-5.604970e-11
-4.235850e-06
-5.694610e-10
9.279680e-11
5.437760e-06
9.946090e-11
3.766190e-06
-5.604970e-11
4.996740e-06
-5.694610e-10
4.235090e-06
-3.766080e-06
9.946090e-11
3.276110e-06
2.080800e-12
-4.235850e-06
-5.694610e-10
3.407160e-06
2.439510e-10
9.946090e-11
3.766190e-06
2.080800e-12
-3.276470e-06
-5.694610e-10
4.235090e-06
2.439510e-10
-3.406200e-06
3.276110e-06
2.080800e-12
-3.692580e-06
5.825660e-11
3.407160e-06
2.439510e-10
-3.438860e-06
1.689210e-11
2.080800e-12
-3.276470e-06
5.825660e-11
3.691490e-06
2.439510e-10
-3.406200e-06
1.689210e-11
3.438850e-06
-3.692580e-06
5.825660e-11
-6.693780e-07
-3.365550e-11
-3.438860e-06
1.689210e-11
-7.231730e-07
-3.385470e-10
5.825660e-11
3.691490e-06
-3.365550e-11
6.691420e-07
1.689210e-11
3.438850e-06
-3.385470e-10
7.226080e-07
-6.693780e-07
-3.365550e-11
6.149890e-06
1.976720e-11
-7.231730e-07
-3.385470e-10
5.719670e-06
4.147730e-11
-3.365550e-11
6.691420e-07
1.976720e-11
-6.150270e-06
-3.385470e-10
7.226080e-07
4.147730e-11
-5.719670e-06
6.149890e-06
1.976720e-11
7.407010e-06
2.803660e-10
5.719670e-06
4.147730e-11
7.198870e-06
2.558740e-10
1.976720e-11
-6.150270e-06
2.803660e-10
-7.407230e-06
4.147730e-11
-5.719670e-06
2.558740e-10
-7.198720e-06
7.407010e-06
2.803660e-10
-2.108210e-06
-1.361660e-10
7.198870e-06
2.558740e-10
-1.273160e-06
-6.086850e-10
2.803660e-10
-7.407230e-06
-1.361660e-10
2.107540e-06
2.558740e-10
-7.198720e-06
-6.086850e-10
1.272170e-06
-2.108210e-06
-1.361660e-10
-3.860920e-06
3.330220e-10
-1.273160e-06
-6.086850e-10
-3.595490e-06
1.024210e-10
-1.361660e-10
2.107540e-06
3.330220e-10
3.861450e-06
-6.086850e-10
1.272170e-06
1.024210e-10
3.595600e-06
-3.860920e-06
3.330220e-10
-5.659040e-07
4.155370e-11
-3.595490e-06
1.024210e-10
-5.770270e-07
-9.077910e-13
3.330220e-10
3.861450e-06
4.155370e-11
5.660140e-07
1.024210e-10
3.595600e-06
-9.077910e-13
5.770590e-07
-5.659040e-07
4.155370e-11
1.501180e-05
-7.866160e-11
-5.770270e-07
-9.077910e-13
1.481460e-05
-1.596770e-11
4.155370e-11
5.660140e-07
-7.866160e-11
-1.501190e-05
-9.077910e-13
5.770590e-07
-1.596770e-11
-1.481450e-05
1.501180e-05
-7.866160e-11
7.602380e-06
8.079000e-11
1.481460e-05
-1.596770e-11
7.508200e-06
1.150450e-10
-7.866160e-11
-1.501190e-05
8.079000e-11
-7.602280e-06
-1.596770e-11
-1.481450e-05
1.150450e-10
-7.507950e-06
7.602380e-06
8.079000e-11
-1.405260e-05
1.018230e-10
7.508200e-06
1.150450e-10
-1.380200e-05
8.361370e-11
8.079000e-11
-7.602280e-06
1.018230e-10
1.405270e-05
1.150450e-10
-7.507950e-06
8.361370e-11
1.380210e-05
-1.405260e-05
1.018230e-10
-7.991970e-06
2.504650e-11
-1.380200e-05
8.361370e-11
-7.631680e-06
1.943150e-12
1.018230e-10
1.405270e-05
2.504650e-11
7.991970e-06
8.361370e-11
1.380210e-05
1.943150e-12
7.631660e-06
-7.991970e-06
2.504650e-11
1.126040e-05
5.429800e-12
-7.631680e-06
1.943150e-12
1.112750e-05
4.937030e-12
2.504650e-11
7.991970e-06
5.429800e-12
-1.126030e-05
1.943150e-12
7.631660e-06
4.937030e-12
-1.112760e-05
1.126040e-05
5.429800e-12
-2.593580e-06
1.196480e-11
1.112750e-05
4.937030e-12
-3.060220e-06
4.733150e-11
5.429800e-12
-1.126030e-05
1.196480e-11
2.593650e-06
4.937030e-12
-1.112760e-05
4.733150e-11
3.060330e-06
-2.593580e-06
1.196480e-11
-8.023380e-06
7.151970e-11
-3.060220e-06
4.733150e-11
-7.914040e-06
9.052590e-11
1.196480e-11
2.593650e-06
7.151970e-11
8.023600e-06
4.733150e-11
3.060330e-06
9.052590e-11
7.914260e-06
-8.023380e-06
7.151970e-11
3.137210e-06
3.733070e-11
-7.914040e-06
9.052590e-11
3.312290e-06
3.562210e-11
7.151970e-11
8.023600e-06
3.733070e-11
-3.137130e-06
9.052590e-11
7.914260e-06
3.562210e-11
-3.312230e-06
3.137210e-06
3.733070e-11
-8.651400e-07
1.174320e-11
3.312290e-06
3.562210e-11
-6.810200e-07
1.102290e-11
3.733070e-11
-3.137130e-06
1.174320e-11
8.651560e-07
3.562210e-11
-3.312230e-06
1.102290e-11
6.810510e-07
-8.651400e-07
1.174320e-11
1.195230e-05
3.015670e-11
-6.810200e-07
1.102290e-11
1.148070e-05
1.823760e-11
1.174320e-11
8.651560e-07
3.015670e-11
-1.195220e-05
1.102290e-11
6.810510e-07
1.823760e-11
-1.148070e-05
0.000000e+00
0.000000e+00
-1.033310e-06
6.828270e-10
0.000000e+00
0.000000e+00
-1.025620e-06
-3.271890e-10
0.000000e+00
0.000000e+00
6.828270e-10
1.034290e-06
0.000000e+00
0.000000e+00
-3.271890e-10
1.024780e-06
-1.033310e-06
6.828270e-10
1.167200e-06
-2.112310e-10
-1.025620e-06
-3.271890e-10
1.155120e-06
-2.901640e-10
6.828270e-10
1.034290e-06
-2.112310e-10
-1.167830e-06
-3.271890e-10
1.024780e-06
-2.901640e-10
-1.155550e-06
1.167200e-06
-2.112310e-10
-1.858960e-07
3.781000e-10
1.155120e-06
-2.901640e-10
-1.689750e-07
-1.740410e-10
-2.112310e-10
-1.167830e-06
3.781000e-10
1.878280e-07
-2.901640e-10
-1.155550e-06
-1.740410e-10
1.701210e-07
-1.858960e-07
3.781000e-10
-2.058880e-06
7.940310e-10
-1.689750e-07
-1.740410e-10
-2.082980e-06
-1.502580e-10
3.781000e-10
1.878280e-07
7.940310e-10
2.059980e-06
-1.740410e-10
1.701210e-07
-1.502580e-10
2.082700e-06
-2.058880e-06
7.940310e-10
4.199780e-06
-3.045450e-10
-2.082980e-06
-1.502580e-10
4.220280e-06
-7.145870e-11
7.940310e-10
2.059980e-06
-3.045450e-10
-4.200230e-06
-1.502580e-10
2.082700e-06
-7.145870e-11
-4.220590e-06
4.199780e-06
-3.045450e-10
-3.905580e-06
-7.609820e-10
4.220280e-06
-7.145870e-11
-3.918890e-06
1.253840e-10
-3.045450e-10
-4.200230e-06
-7.609820e-10
3.903630e-06
-7.145870e-11
-4.220590e-06
1.253840e-10
3.919550e-06
-3.905580e-06
-7.609820e-10
6.964330e-07
2.048060e-10
-3.918890e-06
1.253840e-10
6.968880e-07
-5.114560e-10
-7.609820e-10
3.903630e-06
2.048060e-10
-6.961970e-07
1.253840e-10
3.919550e-06
-5.114560e-10
-6.978470e-07
6.964330e-07
2.048060e-10
2.850380e-06
5.901140e-11
6.968880e-07
-5.114560e-10
2.878130e-06
-8.024110e-10
2.048060e-10
-6.961970e-07
5.901140e-11
-2.850350e-06
-5.114560e-10
-6.978470e-07
-8.024110e-10
-2.880490e-06
2.850380e-06
5.901140e-11
-5.845450e-06
-1.415440e-10
2.878130e-06
-8.024110e-10
-5.945990e-06
7.152730e-10
5.901140e-11
-2.850350e-06
-1.415440e-10
5.844480e-06
-8.024110e-10
-2.880490e-06
7.152730e-10
5.946800e-06
-5.845450e-06
-1.415440e-10
8.932850e-06
4.031040e-10
-5.945990e-06
7.152730e-10
9.181860e-06
4.356110e-10
-1.415440e-10
5.844480e-06
4.031040e-10
-8.932620e-06
7.152730e-10
5.946800e-06
4.356110e-10
-9.180420e-06
8.932850e-06
4.031040e-10
-4.997040e-06
-5.604970e-11
9.181860e-06
4.356110e-10
-5.436680e-06
-2.719010e-10
4.031040e-10
-8.932620e-06
-5.604970e-11
4.996740e-06
4.356110e-10
-9.180420e-06
-2.719010e-10
5.437050e-06
-4.997040e-06
-5.604970e-11
-4.235850e-06
-5.694610e-10
-5.436680e-06
-2.719010e-10
-3.766380e-06
5.143730e-10
-5.604970e-11
4.996740e-06
-5.694610e-10
4.235090e-06
-2.719010e-10
5.437050e-06
5.143730e-10
3.766960e-06
-4.235850e-06
-5.694610e-10
3.407160e-06
2.439510e-10
-3.766380e-06
5.143730e-10
3.275310e-06
-5.090220e-10
-5.694610e-10
4.235090e-06
2.439510e-10
-3.406200e-06
5.143730e-10
3.766960e-06
-5.090220e-10
-3.276140e-06
3.407160e-06
2.439510e-10
-3.438860e-06
1.689210e-11
3.275310e-06
-5.090220e-10
-3.691500e-06
1.199700e-11
2.439510e-10
-3.406200e-06
1.689210e-11
3.438850e-06
-5.090220e-10
-3.276140e-06
1.199700e-11
3.691080e-06
-3.438860e-06
1.689210e-11
-7.231730e-07
-3.385470e-10
-3.691500e-06
1.199700e-11
-6.688910e-07
5.449830e-10
1.689210e-11
3.438850e-06
-3.385470e-10
7.226080e-07
1.199700e-11
3.691080e-06
5.449830e-10
6.699750e-07
-7.231730e-07
-3.385470e-10
5.719670e-06
4.147730e-11
-6.688910e-07
5.449830e-10
6.149950e-06
-2.880620e-10
-3.385470e-10
7.226080e-07
4.147730e-11
-5.719670e-06
5.449830e-10
6.699750e-07
-2.880620e-10
-6.150800e-06
5.719670e-06
4.147730e-11
7.198870e-06
2.558740e-10
6.149950e-06
-2.880620e-10
7.405970e-06
4.411610e-10
4.147730e-11
-5.719670e-06
2.558740e-10
-7.198720e-06
-2.880620e-10
-6.150800e-06
4.411610e-10
-7.406300e-06
7.198870e-06
2.558740e-10
-1.273160e-06
-6.086850e-10
7.405970e-06
4.411610e-10
-2.107930e-06
-1.992770e-12
2.558740e-10
-7.198720e-06
-6.086850e-10
1.272170e-06
4.411610e-10
-7.406300e-06
-1.992770e-12
2.108170e-06
-1.273160e-06
-6.086850e-10
-3.595490e-06
1.024210e-10
-2.107930e-06
-1.992770e-12
-3.860740e-06
-6.600270e-10
-6.086850e-10
1.272170e-06
1.024210e-10
3.595600e-06
-1.992770e-12
2.108170e-06
-6.600270e-10
3.860300e-06
-3.595490e-06
1.024210e-10
-5.770270e-07
-9.077910e-13
-3.860740e-06
-6.600270e-10
-5.658090e-07
-2.803500e-11
1.024210e-10
3.595600e-06
-9.077910e-13
5.770590e-07
-6.600270e-10
3.860300e-06
-2.803500e-11
5.658250e-07
-5.770270e-07
-9.077910e-13
1.481460e-05
-1.596770e-11
-5.658090e-07
-2.803500e-11
1.501270e-05
2.027160e-11
-9.077910e-13
5.770590e-07
-1.596770e-11
-1.481450e-05
-2.803500e-11
5.658250e-07
2.027160e-11
-1.501230e-05
1.481460e-05
-1.596770e-11
7.508200e-06
1.150450e-10
1.501270e-05
2.027160e-11
7.603300e-06
1.834340e-10
-1.596770e-11
-1.481450e-05
1.150450e-10
-7.507950e-06
2.027160e-11
-1.501230e-05
1.834340e-10
-7.602830e-06
7.508200e-06
1.150450e-10
-1.380200e-05
8.361370e-11
7.603300e-06
1.834340e-10
-1.405350e-05
7.953190e-11
1.150450e-10
-7.507950e-06
8.361370e-11
1.380210e-05
1.834340e-10
-7.602830e-06
7.953190e-11
1.405370e-05
-1.380200e-05
8.361370e-11
-7.631680e-06
1.943150e-12
-1.405350e-05
7.953190e-11
-7.993370e-06
-2.108510e-11
8.361370e-11
1.380210e-05
1.943150e-12
7.631660e-06
7.953190e-11
1.405370e-05
-2.108510e-11
7.993270e-06
-7.631680e-06
1.943150e-12
1.112750e-05
4.937030e-12
-7.993370e-06
-2.108510e-11
1.126040e-05
5.158650e-11
1.943150e-12
7.631660e-06
4.937030e-12
-1.112760e-05
-2.108510e-11
7.993270e-06
5.158650e-11
-1.126040e-05
1.112750e-05
4.937030e-12
-3.060220e-06
4.733150e-11
1.126040e-05
5.158650e-11
-2.592910e-06
1.103730e-10
4.937030e-12
-1.112760e-05
4.733150e-11
3.060330e-06
5.158650e-11
-1.126040e-05
1.103730e-10
2.593100e-06
-3.060220e-06
4.733150e-11
-7.914040e-06
9.052590e-11
-2.592910e-06
1.103730e-10
-8.023200e-06
9.070390e-11
4.733150e-11
3.060330e-06
9.052590e-11
7.914260e-06
1.103730e-10
2.593100e-06
9.070390e-11
8.023270e-06
-7.914040e-06
9.052590e-11
3.312290e-06
3.562210e-11
-8.023200e-06
9.070390e-11
3.137100e-06
3.657100e-11
9.052590e-11
7.914260e-06
3.562210e-11
-3.312230e-06
9.070390e-11
8.023270e-06
3.657100e-11
-3.137070e-06
3.312290e-06
3.562210e-11
-6.810200e-07
1.102290e-11
3.137100e-06
3.657100e-11
-8.650930e-07
8.520250e-12
3.562210e-11
-3.312230e-06
1.102290e-11
6.810510e-07
3.657100e-11
-3.137070e-06
8.520250e-12
8.651090e-07
-6.810200e-07
1.102290e-11
1.148070e-05
1.823760e-11
-8.650930e-07
8.520250e-12
1.195230e-05
2.096830e-11
1.102290e-11
6.810510e-07
1.823760e-11
-1.148070e-05
8.520250e-12
8.651090e-07
2.096830e-11
-1.195230e-05
</DataArray>
<DataArray type="Float32" Name="V2" format="ascii">
0.000000e+00
0.000000e+00
1.179100e-02
1.179060e-02
0.000000e+00
0.000000e+00
1.179060e-02
1.179010e-02
0.000000e+00
0.000000e+00
1.179060e-02
1.179100e-02
0.000000e+00
0.000000e+00
1.179010e-02
1.179060e-02
1.179100e-02
1.179060e-02
2.041540e-02
2.041510e-02
1.179060e-02
1.179010e-02
2.041510e-02
2.041480e-02
1.179060e-02
1.179100e-02
2.041510e-02
2.041540e-02
1.179010e-02
1.179060e-02
2.041480e-02
2.041510e-02
2.041540e-02
2.041510e-02
-1.315370e-02
-1.315240e-02
2.041510e-02
2.041480e-02
-1.315240e-02
-1.315110e-02
2.041510e-02
2.041540e-02
-1.315240e-02
-1.315370e-02
2.041480e-02
2.041510e-02
-1.315110e-02
-1.315240e-02
-1.315370e-02
-1.315240e-02
-5.431880e-02
-5.432050e-02
-1.315240e-02
-1.315110e-02
-5.432050e-02
-5.432230e-02
-1.315240e-02
-1.315370e-02
-5.432050e-02
-5.431880e-02
-1.315110e-02
-1.315240e-02
-5.432230e-02
-5.432050e-02
-5.431880e-02
-5.432050e-02
-6.425560e-02
-6.425460e-02
-5.432050e-02
-5.432230e-02
-6.425460e-02
-6.425370e-02
-5.432050e-02
-5.431880e-02
-6.425460e-02
-6.425560e-02
-5.432230e-02
-5.432050e-02
-6.425370e-02
-6.425460e-02
-6.425560e-02
-6.425460e-02
-4.727120e-02
-4.726940e-02
-6.425460e-02
-6.425370e-02
-4.726940e-02
-4.726760e-02
-6.425460e-02
-6.425560e-02
-4.726940e-02
-4.727120e-02
-6.425370e-02
-6.425460e-02
-4.726760e-02
-4.726940e-02
-4.727120e-02
-4.726940e-02
-2.499510e-02
-2.500050e-02
-4.726940e-02
-4.726760e-02
-2.500050e-02
-2.500570e-02
-4.726940e-02
-4.727120e-02
-2.500050e-02
-2.499510e-02
-4.726760e-02
-4.726940e-02
-2.500570e-02
-2.500050e-02
-2.499510e-02
-2.500050e-02
-1.232760e-02
-1.232530e-02
-2.500050e-02
-2.500570e-02
-1.232530e-02
-1.232310e-02
-2.500050e-02
-2.499510e-02
-1.232530e-02
-1.232760e-02
-2.500570e-02
-2.500050e-02
-1.232310e-02
-1.232530e-02
-1.232760e-02
-1.232530e-02
-4.986920e-03
-4.976000e-03
-1.232530e-02
-1.232310e-02
-4.976000e-03
-4.964920e-03
-1.232530e-02
-1.232760e-02
-4.976000e-03
-4.986920e-03
-1.232310e-02
-1.232530e-02
-4.964920e-03
-4.976000e-03
-4.986920e-03
-4.976000e-03
-3.507800e-03
-3.515810e-03
-4.976000e-03
-4.964920e-03
-3.515810e-03
-3.523990e-03
-4.976000e-03
-4.986920e-03
-3.515810e-03
-3.507810e-03
-4.964920e-03
-4.976000e-03
-3.523990e-03
-3.515810e-03
-3.507800e-03
-3.515810e-03
-1.635660e-03
-1.657630e-03
-3.515810e-03
-3.523990e-03
-1.657630e-03
-1.679130e-03
-3.515810e-03
-3.507810e-03
-1.657630e-03
-1.635670e-03
-3.523990e-03
-3.515810e-03
-1.679130e-03
-1.657630e-03
-1.635660e-03
-1.657630e-03
-8.944150e-04
-8.848780e-04
-1.657630e-03
-1.679130e-03
-8.848770e-04
-8.762240e-04
-1.657630e-03
-1.635670e-03
-8.848780e-04
-8.944160e-04
-1.679130e-03
-1.657630e-03
-8.762240e-04
-8.848790e-04
-8.944150e-04
-8.848780e-04
3.480090e-04
3.664950e-04
-8.848770e-04
-8.762240e-04
3.664930e-04
3.854820e-04
-8.848780e-04
-8.944160e-04
3.664950e-04
3.480120e-04
-8.762240e-04
-8.848790e-04
3.854820e-04
3.664930e-04
3.480090e-04
3.664950e-04
3.869390e-04
4.053930e-04
3.664930e-04
3.854820e-04
4.053900e-04
4.253240e-04
3.664950e-04
3.480120e-04
4.053930e-04
3.869400e-04
3.854820e-04
3.664930e-04
4.253240e-04
4.053920e-04
3.869390e-04
4.053930e-04
1.496760e-04
1.576260e-04
4.053900e-04
4.253240e-04
1.576250e-04
1.622840e-04
4.053930e-04
3.869400e-04
1.576260e-04
1.496770e-04
4.253240e-04
4.053920e-04
1.622840e-04
1.576240e-04
1.496760e-04
1.576260e-04
-1.202300e-04
-1.361490e-04
1.576250e-04
1.622840e-04
-1.361460e-04
-1.504110e-04
1.576260e-04
1.496770e-04
-1.361490e-04
-1.202290e-04
1.622840e-04
1.576240e-04
-1.504110e-04
-1.361470e-04
-1.202300e-04
-1.361490e-04
-3.323130e-04
-3.450590e-04
-1.361460e-04
-1.504110e-04
-3.450590e-04
-3.559350e-04
-1.361490e-04
-1.202290e-04
-3.450590e-04
-3.323120e-04
-1.504110e-04
-1.361470e-04
-3.559350e-04
-3.450580e-04
-3.323130e-04
-3.450590e-04
-2.033600e-04
-2.057490e-04
-3.450590e-04
-3.559350e-04
-2.057500e-04
-2.092280e-04
-3.450590e-04
-3.323120e-04
-2.057490e-04
-2.033590e-04
-3.559350e-04
-3.450580e-04
-2.092280e-04
-2.057500e-04
-2.033600e-04
-2.057490e-04
-1.371890e-04
-1.472860e-04
-2.057500e-04
-2.092280e-04
-1.472850e-04
-1.564350e-04
-2.057490e-04
-2.033590e-04
-1.472860e-04
-1.371870e-04
-2.092280e-04
-2.057500e-04
-1.564350e-04
-1.472840e-04
-1.371890e-04
-1.472860e-04
-4.835480e-05
-6.685430e-05
-1.472850e-04
-1.564350e-04
-6.684950e-05
-8.363010e-05
-1.472860e-04
-1.371870e-04
-6.685430e-05
-4.835530e-05
-1.564350e-04
-1.472840e-04
-8.363010e-05
-6.685070e-05
-4.835480e-05
-6.685430e-05
-2.529060e-05
-2.684950e-05
-6.684950e-05
-8.363010e-05
-2.685030e-05
-2.919350e-05
-6.685430e-05
-4.835530e-05
-2.684950e-05
-2.529010e-05
-8.363010e-05
-6.685070e-05
-2.919350e-05
-2.684980e-05
-2.529060e-05
-2.684950e-05
-3.318300e-04
-2.902170e-04
-2.685030e-05
-2.919350e-05
-2.902590e-04
-2.532280e-04
-2.684950e-05
-2.529010e-05
-2.902170e-04
-3.318280e-04
-2.919350e-05
-2.684980e-05
-2.532280e-04
-2.902580e-04
-3.318300e-04
-2.902170e-04
-7.621800e-04
-7.157350e-04
-2.902590e-04
-2.532280e-04
-7.157440e-04
-6.730350e-04
-2.902170e-04
-3.318280e-04
-7.157350e-04
-7.621800e-04
-2.532280e-04
-2.902580e-04
-6.730350e-04
-7.157440e-04
-7.621800e-04
-7.157350e-04
-7.073580e-04
-7.155910e-04
-7.157440e-04
-6.730350e-04
-7.155480e-04
-7.197960e-04
-7.157350e-04
-7.621800e-04
-7.155910e-04
-7.073590e-04
-6.730350e-04
-7.157440e-04
-7.197960e-04
-7.155480e-04
-7.073580e-04
-7.155910e-04
-5.874480e-04
-6.444630e-04
-7.155480e-04
-7.197960e-04
-6.444620e-04
-6.941960e-04
-7.155910e-04
-7.073590e-04
-6.444630e-04
-5.874500e-04
-7.197960e-04
-7.155480e-04
-6.941960e-04
-6.444650e-04
-5.874480e-04
-6.444630e-04
-9.887570e-04
-9.708400e-04
-6.444620e-04
-6.941960e-04
-9.708330e-04
-9.506720e-04
-6.444630e-04
-5.874500e-04
-9.708400e-04
-9.887580e-04
-6.941960e-04
-6.444650e-04
-9.506720e-04
-9.708340e-04
-9.887570e-04
-9.708400e-04
-6.856340e-04
-6.344270e-04
-9.708330e-04
-9.506720e-04
-6.344230e-04
-5.949770e-04
-9.708400e-04
-9.887580e-04
-6.344270e-04
-6.856330e-04
-9.506720e-04
-9.708340e-04
-5.949770e-04
-6.344230e-04
-6.856340e-04
-6.344270e-04
-6.914960e-04
-7.078350e-04
-6.344230e-04
-5.949770e-04
-7.078390e-04
-7.265990e-04
-6.344270e-04
-6.856330e-04
-7.078350e-04
-6.914970e-04
-5.949770e-04
-6.344230e-04
-7.265990e-04
-7.078390e-04
-6.914960e-04
-7.078350e-04
2.118520e-04
2.163120e-04
-7.078390e-04
-7.265990e-04
2.163100e-04
2.254700e-04
-7.078350e-04
-6.914970e-04
2.163120e-04
2.118520e-04
-7.265990e-04
-7.078390e-04
2.254700e-04
2.163100e-04
2.118520e-04
2.163120e-04
1.052760e-03
1.021570e-03
2.163100e-04
2.254700e-04
1.021570e-03
1.002150e-03
2.163120e-04
2.118520e-04
1.021570e-03
1.052760e-03
2.254700e-04
2.163100e-04
1.002150e-03
1.021570e-03
0.000000e+00
0.000000e+00
1.179060e-02
1.179010e-02
0.000000e+00
0.000000e+00
1.179100e-02
1.179060e-02
0.000000e+00
0.000000e+00
1.179010e-02
1.179060e-02
0.000000e+00
0.000000e+00
1.179060e-02
1.179100e-02
1.179060e-02
1.179010e-02
2.041510e-02
2.041480e-02
1.179100e-02
1.179060e-02
2.041540e-02
2.041510e-02
1.179010e-02
1.179060e-02
2.041480e-02
2.041510e-02
1.179060e-02