<?xml version="1.0"?>
<!-- time 72.7526-->
<VTKFile type="UnstructuredGrid" version="0.1" byte_order="LittleEndian">
<UnstructuredGrid>
<Piece NumberOfPoints="7680" NumberOfCells="0">
<Points>
  <DataArray type="Float32" Name="Position" NumberOfComponents="3" format="ascii">
	-350 2049.3 -350
	-350 2049.5 -250
	-350 2049.61 -150
	-350 2049.62 -50
	-350 2049.62 50
	-350 2049.61 150
	-350 2049.5 250
	-350 2049.3 350
	-250 2049.5 -350
	-250 2049.67 -250
	-250 2049.58 -150
	-250 2049.53 -50
	-250 2049.53 50
	-250 2049.58 150
	-250 2049.67 250
	-250 2049.5 350
	-150 2049.61 -350
	-150 2049.58 -250
	-150 2049.46 -150
	-150 2049.4 -50
	-150 2049.4 50
	-150 2049.46 150
	-150 2049.58 250
	-150 2049.61 350
	-50 2049.62 -350
	-50 2049.53 -250
	-50 2049.4 -150
	-50 2049.33 -50
	-50 2049.33 50
	-50 2049.4 150
	-50 2049.53 250
	-50 2049.62 350
	50 2049.62 -350
	50 2049.53 -250
	50 2049.4 -150
	50 2049.33 -50
	50 2049.33 50
	50 2049.4 150
	50 2049.53 250
	50 2049.62 350
	150 2049.61 -350
	150 2049.58 -250
	150 2049.46 -150
	150 2049.4 -50
	150 2049.4 50
	150 2049.46 150
	150 2049.58 250
	150 2049.61 350
	250 2049.5 -350
	250 2049.67 -250
	250 2049.58 -150
	250 2049.53 -50
	250 2049.53 50
	250 2049.58 150
	250 2049.67 250
	250 2049.5 350
	350 2049.3 -350
	350 2049.5 -250
	350 2049.61 -150
	350 2049.62 -50
	350 2049.62 50
	350 2049.61 150
	350 2049.5 250
	350 2049.3 350
	-350 2149.62 -350
	-350 2149.59 -250
	-350 2149.65 -150
	-350 2149.63 -50.0001
	-350 2149.63 50.0001
	-350 2149.65 150
	-350 2149.59 250
	-350 2149.62 350
	-250 2149.59 -350
	-250 2149.68 -250
	-250 2149.59 -150
	-250 2149.6 -50.0002
	-250 2149.6 50.0002
	-250 2149.59 150
	-250 2149.68 250
	-250 2149.59 350
	-150 2149.65 -350
	-150 2149.59 -250
	-150 2149.55 -150
	-150 2149.57 -50.0001
	-150 2149.57 50.0001
	-150 2149.55 150
	-150 2149.59 250
	-150 2149.65 350
	-50.0001 2149.63 -350
	-50.0002 2149.6 -250
	-50.0001 2149.57 -150
	-50 2149.55 -50
	-50 2149.55 50
	-50.0001 2149.57 150
	-50.0002 2149.6 250
	-50.0001 2149.63 350
	50.0001 2149.63 -350
	50.0002 2149.6 -250
	50.0001 2149.57 -150
	50 2149.55 -50
	50 2149.55 50
	50.0001 2149.57 150
	50.0002 2149.6 250
	50.0001 2149.63 350
	150 2149.65 -350
	150 2149.59 -250
	150 2149.55 -150
	150 2149.57 -50.0001
	150 2149.57 50.0001
	150 2149.55 150
	150 2149.59 250
	150 2149.65 350
	250 2149.59 -350
	250 2149.68 -250
	250 2149.59 -150
	250 2149.6 -50.0002
	250 2149.6 50.0002
	250 2149.59 150
	250 2149.68 250
	250 2149.59 350
	350 2149.62 -350
	350 2149.59 -250
	350 2149.65 -150
	350 2149.63 -50.0001
	350 2149.63 50.0001
	350 2149.65 150
	350 2149.59 250
	350 2149.62 350
	-350 2249.63 -350
	-350 2249.67 -250
	-350 2249.65 -150
	-350 2249.65 -50
	-350 2249.65 50
	-350 2249.65 150
	-350 2249.67 250
	-350 2249.63 350
	-250 2249.67 -350
	-250 2249.68 -250
	-250 2249.62 -150
	-250 2249.61 -50
	-250 2249.61 50
	-250 2249.62 150
	-250 2249.68 250
	-250 2249.67 350
	-150 2249.65 -350
	-150 2249.62 -250
	-150 2249.62 -150
	-150 2249.61 -50
	-150 2249.61 50
	-150 2249.62 150
	-150 2249.62 250
	-150 2249.65 350
	-50 2249.65 -350
	-50 2249.61 -250
	-50 2249.61 -150
	-50 2249.62 -50
	-50 2249.62 50
	-50 2249.61 150
	-50 2249.61 250
	-50 2249.65 350
	50 2249.65 -350
	50 2249.61 -250
	50 2249.61 -150
	50 2249.62 -50
	50 2249.62 50
	50 2249.61 150
	50 2249.61 250
	50 2249.65 350
	150 2249.65 -350
	150 2249.62 -250
	150 2249.62 -150
	150 2249.61 -50
	150 2249.61 50
	150 2249.62 150
	150 2249.62 250
	150 2249.65 350
	250 2249.67 -350
	250 2249.68 -250
	250 2249.62 -150
	250 2249.61 -50
	250 2249.61 50
	250 2249.62 150
	250 2249.68 250
	250 2249.67 350
	350 2249.63 -350
	350 2249.67 -250
	350 2249.65 -150
	350 2249.65 -50
	350 2249.65 50
	350 2249.65 150
	350 2249.67 250
	350 2249.63 350
	-350.001 2349.67 -350.001
	-350 2349.67 -250
	-350 2349.65 -150
	-350 2349.66 -50
	-350 2349.66 50
	-350 2349.65 150
	-350 2349.67 250
	-350.001 2349.67 350.001
	-250 2349.67 -350
	-250 2349.67 -250
	-250 2349.62 -150
	-250 2349.62 -50
	-250 2349.62 50
	-250 2349.62 150
	-250 2349.67 250
	-250 2349.67 350
	-150 2349.65 -350
	-150 2349.62 -250
	-150 2349.63 -150
	-150 2349.64 -50
	-150 2349.64 50
	-150 2349.63 150
	-150 2349.62 250
	-150 2349.65 350
	-50 2349.66 -350
	-50 2349.62 -250
	-50 2349.64 -150
	-50.0001 2349.63 -50.0001
	-50.0001 2349.63 50.0001
	-50 2349.64 150
	-50 2349.62 250
	-50 2349.66 350
	50 2349.66 -350
	50 2349.62 -250
	50 2349.64 -150
	50.0001 2349.63 -50.0001
	50.0001 2349.63 50.0001
	50 2349.64 150
	50 2349.62 250
	50 2349.66 350
	150 2349.65 -350
	150 2349.62 -250
	150 2349.63 -150
	150 2349.64 -50
	150 2349.64 50
	150 2349.63 150
	150 2349.62 250
	150 2349.65 350
	250 2349.67 -350
	250 2349.67 -250
	250 2349.62 -150
	250 2349.62 -50
	250 2349.62 50
	250 2349.62 150
	250 2349.67 250
	250 2349.67 350
	350.001 2349.67 -350.001
	350 2349.67 -250
	350 2349.65 -150
	350 2349.66 -50
	350 2349.66 50
	350 2349.65 150
	350 2349.67 250
	350.001 2349.67 350.001
	-350 2449.66 -350
	-350 2449.68 -250
	-350 2449.66 -150
	-350 2449.67 -50
	-350 2449.67 50
	-350 2449.66 150
	-350 2449.68 250
	-350 2449.66 350
	-250 2449.68 -350
	-250 2449.67 -250
	-250 2449.64 -150
	-250 2449.64 -50
	-250 2449.64 50
	-250 2449.64 150
	-250 2449.67 250
	-250 2449.68 350
	-150 2449.66 -350
	-150 2449.64 -250
	-150 2449.64 -150
	-150 2449.64 -50
	-150 2449.64 50
	-150 2449.64 150
	-150 2449.64 250
	-150 2449.66 350
	-50 2449.67 -350
	-50 2449.64 -250
	-50 2449.64 -150
	-50 2449.63 -50
	-50 2449.63 50
	-50 2449.64 150
	-50 2449.64 250
	-50 2449.67 350
	50 2449.67 -350
	50 2449.64 -250
	50 2449.64 -150
	50 2449.63 -50
	50 2449.63 50
	50 2449.64 150
	50 2449.64 250
	50 2449.67 350
	150 2449.66 -350
	150 2449.64 -250
	150 2449.64 -150
	150 2449.64 -50
	150 2449.64 50
	150 2449.64 150
	150 2449.64 250
	150 2449.66 350
	250 2449.68 -350
	250 2449.67 -250
	250 2449.64 -150
	250 2449.64 -50
	250 2449.64 50
	250 2449.64 150
	250 2449.67 250
	250 2449.68 350
	350 2449.66 -350
	350 2449.68 -250
	350 2449.66 -150
	350 2449.67 -50
	350 2449.67 50
	350 2449.66 150
	350 2449.68 250
	350 2449.66 350
	-350 2549.66 -350
	-350 2549.67 -250
	-350 2549.67 -150
	-350 2549.67 -50
	-350 2549.67 50
	-350 2549.67 150
	-350 2549.67 250
	-350 2549.66 350
	-250 2549.67 -350
	-250 2549.67 -250
	-250 2549.66 -150
	-250 2549.65 -50
	-250 2549.65 50
	-250 2549.66 150
	-250 2549.67 250
	-250 2549.67 350
	-150 2549.67 -350
	-150 2549.66 -250
	-150 2549.66 -150
	-150 2549.65 -50
	-150 2549.65 50
	-150 2549.66 150
	-150 2549.66 250
	-150 2549.67 350
	-50 2549.67 -350
	-50 2549.65 -250
	-50 2549.65 -150
	-50 2549.64 -50
	-50 2549.64 50
	-50 2549.65 150
	-50 2549.65 250
	-50 2549.67 350
	50 2549.67 -350
	50 2549.65 -250
	50 2549.65 -150
	50 2549.64 -50
	50 2549.64 50
	50 2549.65 150
	50 2549.65 250
	50 2549.67 350
	150 2549.67 -350
	150 2549.66 -250
	150 2549.66 -150
	150 2549.65 -50
	150 2549.65 50
	150 2549.66 150
	150 2549.66 250
	150 2549.67 350
	250 2549.67 -350
	250 2549.67 -250
	250 2549.66 -150
	250 2549.65 -50
	250 2549.65 50
	250 2549.66 150
	250 2549.67 250
	250 2549.67 350
	350 2549.66 -350
	350 2549.67 -250
	350 2549.67 -150
	350 2549.67 -50
	350 2549.67 50
	350 2549.67 150
	350 2549.67 250
	350 2549.66 350
	-350 2649.66 -350
	-350 2649.67 -250
	-350 2649.67 -150
	-350 2649.66 -50
	-350 2649.66 50
	-350 2649.67 150
	-350 2649.67 250
	-350 2649.66 350
	-250 2649.67 -350
	-250 2649.67 -250
	-250 2649.66 -150
	-250 2649.65 -50
	-250 2649.65 50
	-250 2649.66 150
	-250 2649.67 250
	-250 2649.67 350
	-150 2649.67 -350
	-150 2649.66 -250
	-150 2649.67 -150
	-150 2649.65 -50
	-150 2649.65 50
	-150 2649.67 150
	-150 2649.66 250
	-150 2649.67 350
	-50 2649.66 -350
	-50 2649.65 -250
	-50 2649.65 -150
	-50 2649.64 -50
	-50 2649.64 50
	-50 2649.65 150
	-50 2649.65 250
	-50 2649.66 350
	50 2649.66 -350
	50 2649.65 -250
	50 2649.65 -150
	50 2649.64 -50
	50 2649.64 50
	50 2649.65 150
	50 2649.65 250
	50 2649.66 350
	150 2649.67 -350
	150 2649.66 -250
	150 2649.67 -150
	150 2649.65 -50
	150 2649.65 50
	150 2649.67 150
	150 2649.66 250
	150 2649.67 350
	250 2649.67 -350
	250 2649.67 -250
	250 2649.66 -150
	250 2649.65 -50
	250 2649.65 50
	250 2649.66 150
	250 2649.67 250
	250 2649.67 350
	350 2649.66 -350
	350 2649.67 -250
	350 2649.67 -150
	350 2649.66 -50
	350 2649.66 50
	350 2649.67 150
	350 2649.67 250
	350 2649.66 350
	-350 2749.66 -350
	-350 2749.67 -250
	-350 2749.68 -150
	-350 2749.67 -50
	-350 2749.67 50
	-350 2749.68 150
	-350 2749.67 250
	-350 2749.66 350
	-250 2749.67 -350
	-250 2749.66 -250
	-250 2749.66 -150
	-250 2749.66 -50
	-250 2749.66 50
	-250 2749.66 150
	-250 2749.66 250
	-250 2749.67 350
	-150 2749.68 -350
	-150 2749.66 -250
	-150 2749.66 -150
	-150 2749.65 -50
	-150 2749.65 50
	-150 2749.66 150
	-150 2749.66 250
	-150 2749.68 350
	-50 2749.67 -350
	-50 2749.66 -250
	-50 2749.65 -150
	-50 2749.65 -50
	-50 2749.65 50
	-50 2749.65 150
	-50 2749.66 250
	-50 2749.67 350
	50 2749.67 -350
	50 2749.66 -250
	50 2749.65 -150
	50 2749.65 -50
	50 2749.65 50
	50 2749.65 150
	50 2749.66 250
	50 2749.67 350
	150 2749.68 -350
	150 2749.66 -250
	150 2749.66 -150
	150 2749.65 -50
	150 2749.65 50
	150 2749.66 150
	150 2749.66 250
	150 2749.68 350
	250 2749.67 -350
	250 2749.66 -250
	250 2749.66 -150
	250 2749.66 -50
	250 2749.66 50
	250 2749.66 150
	250 2749.66 250
	250 2749.67 350
	350 2749.66 -350
	350 2749.67 -250
	350 2749.68 -150
	350 2749.67 -50
	350 2749.67 50
	350 2749.68 150
	350 2749.67 250
	350 2749.66 350
	-350 2849.66 -350
	-350 2849.67 -250
	-350 2849.68 -150
	-350 2849.66 -50
	-350 2849.66 50
	-350 2849.68 150
	-350 2849.67 250
	-350 2849.66 350
	-250 2849.67 -350
	-250 2849.66 -250
	-250 2849.66 -150
	-250 2849.66 -50
	-250 2849.66 50
	-250 2849.66 150
	-250 2849.66 250
	-250 2849.67 350
	-150 2849.68 -350
	-150 2849.66 -250
	-150 2849.66 -150
	-150 2849.65 -50
	-150 2849.65 50
	-150 2849.66 150
	-150 2849.66 250
	-150 2849.68 350
	-50 2849.66 -350
	-50 2849.66 -250
	-50 2849.65 -150
	-50 2849.65 -50
	-50 2849.65 50
	-50 2849.65 150
	-50 2849.66 250
	-50 2849.66 350
	50 2849.66 -350
[...]
<PointData  Vectors="vector">
  <DataArray type="Float32" Name="Velocity" NumberOfComponents="3" format="ascii">
 5.74214e-05 -0.00992587 5.74233e-05
 -3.43221e-05 -8.38187e-05 3.7974e-05
 -3.10341e-05 -0.00209843 2.23895e-05
 -3.46503e-06 0.00132087 -2.36561e-06
 -3.1411e-06 0.00131985 2.37423e-06
 -3.04728e-05 -0.00209828 -2.23841e-05
 -3.42934e-05 -8.41743e-05 -3.79631e-05
 5.74285e-05 -0.00992634 -5.74155e-05
 3.79699e-05 -8.37606e-05 -3.444e-05
 -2.74312e-05 -0.00845049 -2.69784e-05
 -3.03318e-05 -0.00571089 -2.47599e-05
 -2.11523e-05 0.0160117 8.63455e-07
 -2.05579e-05 0.0160116 -7.29995e-07
 -3.09055e-05 -0.0057108 2.42267e-05
 -2.74101e-05 -0.00845644 2.74251e-05
 3.7976e-05 -8.42536e-05 3.44278e-05
 2.23887e-05 -0.00209828 -2.98309e-05
 -2.43837e-05 -0.00571087 -3.15208e-05
 4.70507e-06 0.0135412 4.97868e-06
 -4.11835e-05 0.011155 -1.73497e-05
 -4.1383e-05 0.0111549 1.71259e-05
 4.73455e-06 0.013541 -4.9519e-06
 -2.42279e-05 -0.00571082 2.9266e-05
 2.23922e-05 -0.00209849 3.23194e-05
 -2.37121e-06 0.00132234 -3.47462e-06
 8.34275e-07 0.0160118 -2.081e-05
 -1.72762e-05 0.011155 -4.10127e-05
 -2.50198e-05 0.00882284 -2.51831e-05
 -2.49142e-05 0.00882277 2.50797e-05
 -1.74714e-05 0.0111548 4.05659e-05
 7.20488e-07 0.0160114 2.17075e-05
 -2.40531e-06 0.00131553 3.16476e-06
 2.36901e-06 0.00132228 -3.47347e-06
 -8.42726e-07 0.0160118 -2.08805e-05
 1.72945e-05 0.011155 -4.09663e-05
 2.51033e-05 0.00882284 -2.51441e-05
 2.50078e-05 0.00882277 2.5065e-05
 1.73245e-05 0.0111548 4.06267e-05
 -7.06288e-07 0.0160114 2.16473e-05
 2.40689e-06 0.0013155 3.16307e-06
 -2.23883e-05 -0.00209829 -2.9806e-05
 2.43992e-05 -0.00571088 -3.15367e-05
 -4.65829e-06 0.0135412 4.97531e-06
 4.1121e-05 0.011155 -1.73628e-05
 3.80297e-05 0.0111549 1.71273e-05
 -4.95212e-06 0.013541 -4.96299e-06
 2.41651e-05 -0.00571081 2.92815e-05
 -2.23917e-05 -0.00209852 3.23218e-05
 -3.79707e-05 -8.37622e-05 -3.43734e-05
 2.7427e-05 -0.00845072 -2.73221e-05
 3.04643e-05 -0.0057109 -2.4441e-05
 2.11114e-05 0.0160117 7.19709e-07
 2.34884e-05 0.0160116 -6.38565e-07
 3.08841e-05 -0.00571081 2.42527e-05
 2.75166e-05 -0.00845618 2.7523e-05
 -3.7975e-05 -8.42537e-05 3.43155e-05
 -5.7422e-05 -0.00992587 5.74193e-05
 3.43162e-05 -8.38209e-05 3.7972e-05
 3.08337e-05 -0.00209846 2.2389e-05
 3.4823e-06 0.00132071 -2.36598e-06
 3.46779e-06 0.00131978 2.37522e-06
 3.0857e-05 -0.00209833 -2.23834e-05
 3.42343e-05 -8.4175e-05 -3.79609e-05
 -5.74321e-05 -0.00992634 -5.74114e-05
 -3.3882e-05 -0.00494239 -3.38993e-05
 -1.54787e-05 -0.00147021 -1.10955e-05
 -3.16277e-05 -0.00316078 -2.69814e-05
 -3.72237e-05 0.00298168 3.91807e-05
 -3.72237e-05 0.00298251 -3.94234e-05
 -3.16267e-05 -0.0031621 2.71342e-05
 -1.54882e-05 -0.00147028 1.12848e-05
 -3.38773e-05 -0.00493812 3.39078e-05
 -1.11009e-05 -0.0014702 -1.55022e-05
 -3.32726e-05 -0.000590805 -3.34018e-05
 -3.28813e-05 0.0183066 -1.42297e-05
 -2.40761e-05 -0.00280252 -2.96124e-05
 -2.40743e-05 -0.00280265 2.965e-05
 -3.28846e-05 0.0183061 1.43058e-05
 -3.33712e-05 -0.000585115 3.33938e-05
 -1.10933e-05 -0.00147031 1.55049e-05
 -2.69485e-05 -0.00316034 -3.12233e-05
 -1.42828e-05 0.0183067 -3.31662e-05
 -1.03964e-05 -0.0083655 -1.078e-05
 -1.30475e-05 -0.00585482 -1.60545e-05
 -1.30485e-05 -0.00585489 1.60822e-05
 -1.04007e-05 -0.00836568 1.08052e-05
 -1.42543e-05 0.018306 3.31919e-05
 -2.69482e-05 -0.00316313 3.12535e-05
 3.91155e-05 0.00298057 -3.72275e-05
 -2.9727e-05 -0.0028024 -2.40549e-05
 -1.65881e-05 -0.00585475 -1.30402e-05
 2.03015e-06 -0.00847548 2.06128e-06
 2.03129e-06 -0.0084754 -2.0381e-06
 -1.65947e-05 -0.00585494 1.30645e-05
 -2.96405e-05 -0.00280297 2.4085e-05
 3.91259e-05 0.00298615 3.72591e-05
 -3.91265e-05 0.00298062 -3.72265e-05
 2.97287e-05 -0.0028024 -2.40555e-05
 1.65874e-05 -0.00585474 -1.30404e-05
 -2.02853e-06 -0.00847547 2.06026e-06
 -2.03087e-06 -0.00847539 -2.03757e-06
 1.65949e-05 -0.00585494 1.30638e-05
 2.96403e-05 -0.00280297 2.40857e-05
 -3.91074e-05 0.00298617 3.72596e-05
 2.69527e-05 -0.00316027 -3.12237e-05
 1.4279e-05 0.0183067 -3.31633e-05
 1.03956e-05 -0.00836547 -1.0776e-05
 1.30488e-05 -0.0058548 -1.60496e-05
 1.30476e-05 -0.00585487 1.60763e-05
 1.04003e-05 -0.00836567 1.08014e-05
 1.42617e-05 0.0183059 3.31903e-05
 2.6939e-05 -0.00316308 3.1254e-05
 1.11041e-05 -0.0014702 -1.54895e-05
 3.32712e-05 -0.000590588 -3.33659e-05
 3.28807e-05 0.0183067 -1.42725e-05
 2.4074e-05 -0.00280251 -2.96165e-05
 2.40741e-05 -0.00280265 2.96546e-05
 3.28839e-05 0.0183061 1.42623e-05
 3.3366e-05 -0.000585276 3.34359e-05
 1.10864e-05 -0.00147031 1.5501e-05
 3.38814e-05 -0.00494227 -3.39008e-05
 1.54781e-05 -0.00147021 -1.10881e-05
 3.1626e-05 -0.00316065 -2.69774e-05
 3.72195e-05 0.0029818 3.9169e-05
 3.72211e-05 0.00298256 -3.94289e-05
 3.16247e-05 -0.003162 2.71406e-05
 1.54834e-05 -0.00147027 1.12828e-05
 3.3873e-05 -0.00493799 3.39121e-05
 -1.31223e-06 -0.0114031 -1.13156e-06
 2.24093e-05 -0.00931334 1.11762e-05
 2.73851e-05 -0.00529876 2.42749e-05
 2.06869e-05 -0.000270984 2.2849e-05
 2.06892e-05 -0.000269192 -2.28011e-05
 2.73869e-05 -0.00529771 -2.38521e-05
 2.23959e-05 -0.00935246 -1.17847e-05
 -1.30984e-06 -0.0114052 1.42486e-06
 1.17017e-05 -0.00931533 2.23483e-05
 2.12696e-05 0.00263612 2.14397e-05
 1.85604e-05 -0.00424033 4.22831e-06
 1.03721e-05 -0.00105958 1.84506e-05
 1.03715e-05 -0.00105975 -1.83479e-05
 1.85617e-05 -0.00424156 -4.23272e-06
 2.14277e-05 0.00260027 -2.14293e-05
 1.17481e-05 -0.0093513 -2.23028e-05
 2.40028e-05 -0.0052965 2.74002e-05
 4.17587e-06 -0.00424014 1.85881e-05
 1.29977e-05 0.000549776 1.30166e-05
 2.60032e-05 -0.00739738 -5.50916e-06
 2.6004e-05 -0.0073975 5.54747e-06
 1.30029e-05 0.00054977 -1.29901e-05
 4.18566e-06 -0.00424216 -1.85426e-05
 2.38779e-05 -0.00530011 -2.73566e-05
 2.2704e-05 -0.000273572 2.07265e-05
 1.85187e-05 -0.00105944 1.03495e-05
 -5.50008e-06 -0.0073972 2.60463e-05
 -2.82491e-06 0.00598058 -2.74539e-06
 -2.83267e-06 0.00598065 2.77603e-06
 -5.5037e-06 -0.00739763 -2.59962e-05
 1.83831e-05 -0.00106017 -1.03205e-05
 2.27878e-05 -0.000264234 -2.06823e-05
 -2.26959e-05 -0.000273459 2.07191e-05
 -1.85129e-05 -0.00105944 1.03591e-05
 5.49938e-06 -0.0073972 2.60426e-05
 2.82601e-06 0.00598059 -2.76841e-06
 2.83393e-06 0.00598066 2.80222e-06
 5.50275e-06 -0.00739763 -2.60162e-05
 -1.85255e-05 -0.00106017 -1.02976e-05
 -2.27868e-05 -0.000264183 -2.06865e-05
 -2.39959e-05 -0.00529652 2.7401e-05
 -4.21605e-06 -0.00424013 1.85858e-05
 -1.29976e-05 0.000549788 1.3015e-05
 -2.60067e-05 -0.00739738 -5.46731e-06
 -2.60074e-05 -0.00739749 5.50541e-06
 -1.29983e-05 0.000549779 -1.2986e-05
 -4.2373e-06 -0.00424219 -1.85412e-05
 -2.39018e-05 -0.00530013 -2.73579e-05
 -1.17056e-05 -0.00931552 2.23452e-05
 -2.12362e-05 0.00263481 2.14382e-05
 -1.85624e-05 -0.00424031 4.22321e-06
 -1.03632e-05 -0.00105957 1.84585e-05
 -1.03629e-05 -0.00105976 -1.83536e-05
 -1.85654e-05 -0.00424157 -4.22562e-06
 -2.1278e-05 0.00259948 -2.14296e-05
 -1.17563e-05 -0.00935185 -2.23009e-05
 1.2967e-06 -0.011403 -1.32543e-06
 -2.24124e-05 -0.00931375 1.1672e-05
 -2.73868e-05 -0.00529884 2.40078e-05
 -2.06975e-05 -0.000270664 2.28129e-05
 -2.06996e-05 -0.000269074 -2.28167e-05
 -2.73905e-05 -0.00529776 -2.39317e-05
 -2.23539e-05 -0.00935317 -1.16114e-05
 1.3381e-06 -0.0114052 1.34946e-06
 -2.10607e-05 0.00515695 -2.10322e-05
 -8.03865e-06 -0.00310954 -6.59274e-06
 -6.01448e-07 0.000813218 2.97482e-06
 -4.32337e-06 0.0071184 4.52862e-06
 -4.324e-06 0.00711766 -6.06064e-06
 -6.01574e-07 0.000813927 -2.16619e-06
 -8.03586e-06 -0.00305609 7.44489e-06
 -2.10551e-05 0.00517509 2.10797e-05
 -7.11836e-06 -0.00310989 -8.02005e-06
 7.08231e-06 -0.00318917 7.1047e-06
 -6.36312e-06 0.00739788 -8.46788e-06
 -4.0646e-06 -0.00485473 9.96596e-07
 -4.08159e-06 -0.00485477 -9.03892e-07
 -6.35096e-06 0.00739943 8.46164e-06
 7.08734e-06 -0.00313339 -7.06125e-06
 -7.34934e-06 -0.00305655 8.06572e-06
 2.17085e-06 0.000810742 -5.68946e-07
 -8.54962e-06 0.00739769 -6.44216e-06
 2.26917e-06 -0.00290801 2.33048e-06
 4.59731e-06 -0.000493341 -4.17123e-06
 4.61922e-06 -0.00049354 4.20616e-06
 2.26634e-06 -0.00290784 -2.26298e-06
 -8.55746e-06 0.00740009 6.46735e-06
 2.21475e-06 0.000817241 6.15921e-07
 5.58827e-06 0.00711949 -4.31564e-06
 7.769e-07 -0.00485469 -4.09095e-06
 -4.16868e-06 -0.000493149 4.70709e-06
 -7.55875e-06 -0.00388356 -7.54814e-06
 -7.55928e-06 -0.00388359 7.59064e-06
 -4.1686e-06 -0.000493706 -4.65359e-06
 7.23453e-07 -0.00485494 4.1223e-06
 5.98172e-06 0.0071157 4.36261e-06
 -5.97219e-06 0.00711945 -4.31636e-06
 -7.09103e-07 -0.00485469 -4.08615e-06
 4.16808e-06 -0.000493142 4.70327e-06
 7.55834e-06 -0.00388356 -7.54852e-06
 7.55907e-06 -0.00388357 7.59051e-06
 4.16972e-06 -0.000493699 -4.65039e-06
 -6.83347e-07 -0.00485493 4.11907e-06
 -5.15867e-06 0.00711568 4.36321e-06
 -2.00761e-06 0.000810707 -5.69803e-07
 8.48032e-06 0.00739768 -6.43488e-06
 -2.24592e-06 -0.002908 2.32061e-06
 -4.59746e-06 -0.000493321 -4.19777e-06
 -4.61169e-06 -0.000493521 4.2354e-06
 -2.25062e-06 -0.00290783 -2.27484e-06
 8.51484e-06 0.00740014 6.47932e-06
 -2.55187e-06 0.000817262 6.17432e-07
 7.33573e-06 -0.00311025 -8.02142e-06
 -7.08361e-06 -0.00318684 7.10323e-06
 6.33723e-06 0.00739787 -8.4674e-06
 4.06291e-06 -0.00485474 9.97363e-07
 4.07219e-06 -0.00485478 -9.47517e-07
 6.33155e-06 0.00739946 8.50423e-06
 -7.08778e-06 -0.00313214 -7.05922e-06
 6.86257e-06 -0.00305695 8.06766e-06
 2.10595e-05 0.00515737 -2.10347e-05
 8.03703e-06 -0.00311001 -6.61519e-06
 6.0047e-07 0.000813201 3.06143e-06
 4.32153e-06 0.00711828 4.53278e-06
 4.32217e-06 0.00711762 -6.05772e-06
 6.0046e-07 0.000813918 -2.27043e-06
 8.03488e-06 -0.00305665 7.47958e-06
 2.10528e-05 0.00517563 2.10822e-05
 -1.55892e-05 0.00313567 -1.55515e-05
 -1.41173e-05 -0.00782452 5.47575e-06
 -1.37407e-05 -0.00433056 3.55455e-06
 -9.55881e-06 -0.00983603 -5.28538e-06
 -9.55911e-06 -0.00983872 5.32624e-06
 -1.37243e-05 -0.00433159 -3.51287e-06
 -1.41141e-05 -0.0077614 -5.43246e-06
 -1.55825e-05 0.00312291 1.55966e-05
 5.51147e-06 -0.00782493 -1.40935e-05
 -1.46172e-06 -0.00719002 -1.41148e-06
 1.9381e-06 0.00312409 4.44767e-06
 3.38294e-06 0.00878541 2.06841e-06
 3.38388e-06 0.00878577 -2.02522e-06
 1.92842e-06 0.00312524 -4.40891e-06
 -1.46068e-06 -0.00722563 1.45687e-06
 5.50934e-06 -0.00776073 1.4136e-05
 3.29392e-06 -0.00433027 -1.37806e-05
 4.45776e-06 0.00312387 1.9753e-06
 -1.22407e-05 -0.00252703 -1.24067e-05
 1.1868e-06 -0.00581096 2.44889e-06
 1.18815e-06 -0.00581069 -2.41391e-06
 -1.22058e-05 -0.00252577 1.24539e-05
 4.45918e-06 0.00312577 -1.93048e-06
 3.29491e-06 -0.00433205 1.38234e-05
 -5.3063e-06 -0.00982273 -9.53918e-06
 2.05099e-06 0.00878473 3.39578e-06
 2.56065e-06 -0.00581173 1.23081e-06
 -8.55911e-07 0.00204374 -8.58559e-07
 -8.56943e-07 0.00204343 9.0383e-07
 2.53846e-06 -0.00581026 -1.18952e-06
 2.04997e-06 0.00878661 -3.35656e-06
 -5.31885e-06 -0.00984277 9.58324e-06
 5.30565e-06 -0.00982286 -9.53924e-06
 -2.05168e-06 0.00878474 3.39559e-06
 -2.55311e-06 -0.00581167 1.23058e-06
 8.55624e-07 0.00204371 -8.58187e-07
 8.56664e-07 0.00204341 9.03602e-07
 -2.57495e-06 -0.00581023 -1.18917e-06
 -2.04997e-06 0.00878662 -3.35662e-06
 5.31864e-06 -0.00984289 9.5836e-06
 -3.29545e-06 -0.00433028 -1.37849e-05
 -4.45844e-06 0.00312386 1.9726e-06
 1.22355e-05 -0.00252695 -1.24474e-05
 -1.18737e-06 -0.00581083 2.47857e-06
 -1.18862e-06 -0.00581062 -2.43267e-06
 1.22436e-05 -0.00252568 1.24879e-05
 -4.4594e-06 0.00312577 -1.93262e-06
 -3.29508e-06 -0.00433205 1.38292e-05
 -5.51099e-06 -0.00782474 -1.40939e-05
 1.46048e-06 -0.00719012 -1.41232e-06
 -1.94308e-06 0.00312406 4.44726e-06
 -3.38468e-06 0.00878546 2.06825e-06
 -3.38522e-06 0.00878584 -2.02503e-06
 -1.93229e-06 0.00312524 -4.40745e-06
 1.45938e-06 -0.00722565 1.45715e-06
 -5.51047e-06 -0.00776015 1.41373e-05
 1.5587e-05 0.00313542 -1.55549e-05
 1.41163e-05 -0.00782425 5.4774e-06
 1.37399e-05 -0.00433055 3.55437e-06
 9.55804e-06 -0.00983652 -5.28398e-06
 9.55799e-06 -0.00983896 5.32643e-06
 1.37238e-05 -0.00433158 -3.51297e-06
 1.41128e-05 -0.00776066 -5.43125e-06
 1.55814e-05 0.0031227 1.55976e-05
 -3.90912e-05 0.00493146 -3.95066e-05
 -2.45638e-05 -0.0014687 -1.45961e-05
 -2.28717e-05 -0.00942378 -5.73213e-06
 -3.50804e-05 -0.000904168 5.35512e-06
 -3.50459e-05 -0.000901047 -6.03403e-06
 -2.2872e-05 -0.00943867 5.35775e-06
 -2.46402e-05 -0.00151162 1.61659e-05
 -3.9466e-05 0.00492294 3.91375e-05
 -1.62068e-05 -0.00146831 -2.46273e-05
 -3.1107e-05 -0.00844602 -3.11974e-05
 -2.70574e-05 -0.00343678 -7.20179e-06
 -1.99953e-05 -0.00245173 6.04049e-06
 -2.00299e-05 -0.00244855 -6.02232e-06
 -2.70532e-05 -0.00343544 7.28696e-06
 -3.11883e-05 -0.00843543 3.12208e-05
 -1.51559e-05 -0.00151116 2.46477e-05
 -5.31937e-06 -0.00942423 -2.28743e-05
 -7.18625e-06 -0.00343512 -2.68557e-05
 -1.38355e-05 0.00226525 -1.38238e-05
 -5.03153e-06 9.79296e-05 -2.18869e-06
 -5.03898e-06 9.78466e-05 2.19366e-06
 -1.38322e-05 0.00226671 1.3874e-05
 -7.23646e-06 -0.00343168 2.69466e-05
 -5.6414e-06 -0.00942154 2.28754e-05
 6.06631e-06 -0.000887227 -3.50549e-05
 6.12015e-06 -0.00245603 -1.99905e-05
 -1.96893e-06 9.96293e-05 -5.0338e-06
 -3.83357e-06 0.000892149 -3.7772e-06
 -3.83387e-06 0.00089385 3.87189e-06
 -1.97222e-06 9.77978e-05 5.02062e-06
 6.009e-06 -0.00244326 2.00428e-05
 5.49626e-06 -0.000893392 3.50688e-05
 -5.34289e-06 -0.000887012 -3.5055e-05
 -6.12276e-06 -0.00245602 -1.99904e-05
 1.97306e-06 9.94815e-05 -5.03303e-06
 3.83111e-06 0.000892383 -3.77762e-06
 3.83023e-06 0.000893981 3.87136e-06
 1.97263e-06 9.77221e-05 5.02059e-06
 -6.01084e-06 -0.00244328 2.00431e-05
 -5.49566e-06 -0.000893228 3.5069e-05
 5.75076e-06 -0.0094242 -2.28752e-05
 7.1842e-06 -0.00343515 -2.6857e-05
 1.38256e-05 0.00226532 -1.38232e-05
 5.03125e-06 9.76949e-05 -2.18795e-06
 5.03949e-06 9.77385e-05 2.19237e-06
 1.38293e-05 0.00226679 1.38747e-05
 7.23504e-06 -0.00343144 2.69485e-05
 5.64011e-06 -0.00942151 2.28758e-05
 1.46203e-05 -0.00146795 -2.46275e-05
 3.11086e-05 -0.00844627 -3.11959e-05
 2.7058e-05 -0.00343704 -7.19996e-06
 1.99955e-05 -0.00245221 6.03874e-06
 2.00303e-05 -0.00244884 -6.02141e-06
 2.70539e-05 -0.00343556 7.28481e-06
 3.11893e-05 -0.00843558 3.12203e-05
 1.51548e-05 -0.00151052 2.46494e-05
 3.95205e-05 0.00493118 -3.95078e-05
 2.45645e-05 -0.00146815 -1.45978e-05
 2.28747e-05 -0.00942373 -5.73164e-06
 3.50808e-05 -0.000903532 5.35531e-06
 3.50466e-05 -0.00090058 -6.0303e-06
 2.2872e-05 -0.00943859 5.35534e-06
 2.46409e-05 -0.00151075 1.6166e-05
 3.94664e-05 0.00492258 3.91401e-05
 -3.68377e-05 0.000333506 -3.67981e-05
 -3.47782e-05 -0.00969146 -1.31687e-05
 -3.41659e-05 0.00978289 -3.08566e-05
 -3.20116e-05 -0.00325796 -2.84615e-06
 -3.19464e-05 -0.00325912 2.82813e-06
 -3.41585e-05 0.00977332 3.09157e-05
 -3.4786e-05 -0.00979101 1.31913e-05
 -3.6814e-05 0.000321491 3.68527e-05
 -1.31897e-05 -0.00969071 -3.48442e-05
 -1.78081e-05 -0.00673067 -1.77358e-05
 -1.72748e-05 -0.0100859 -2.9902e-05
 -1.79932e-05 -0.00663524 -2.83628e-06
 -1.80268e-05 -0.0066384 2.76384e-06
 -1.72732e-05 -0.0100814 3.00811e-05
 -1.77771e-05 -0.00672189 1.78222e-05
 -1.3191e-05 -0.00979162 3.47691e-05
 -3.08743e-05 0.0097829 -3.41305e-05
 -3.00121e-05 -0.0100879 -1.72642e-05
 -2.88539e-05 -0.006934 -2.88467e-05
 -3.0402e-05 0.00495651 5.66225e-06
 -3.04205e-05 0.0049568 -5.62735e-06
 -2.8859e-05 -0.00693426 2.88732e-05
 -3.00867e-05 -0.0100813 1.72823e-05
 -3.09023e-05 0.00978213 3.41692e-05
 -2.83506e-06 -0.00326628 -3.19304e-05
 -2.81338e-06 -0.00663014 -1.79946e-05
 5.62978e-06 0.00495577 -3.03459e-05
 3.70622e-06 -0.00316853 3.63887e-06
 3.62029e-06 -0.00316932 -3.6864e-06
 5.63185e-06 0.0049567 3.04168e-05
 -2.76099e-06 -0.00664362 1.80009e-05
 -2.8141e-06 -0.00326188 3.20192e-05
 2.83864e-06 -0.00326639 -3.19307e-05
 2.82631e-06 -0.00663014 -1.79937e-05
 -5.63373e-06 0.00495582 -3.03462e-05
 -3.61413e-06 -0.00316868 3.64111e-06
 -3.62148e-06 -0.0031694 -3.68889e-06
 -5.63543e-06 0.00495672 3.04176e-05
 2.80766e-06 -0.00664361 1.79999e-05
 2.81558e-06 -0.00326192 3.20196e-05
 3.08725e-05 0.00978292 -3.41278e-05
 2.9982e-05 -0.0100878 -1.72656e-05
 2.88573e-05 -0.00693415 -2.88482e-05
 3.03571e-05 0.00495662 5.66395e-06
 3.04199e-05 0.00495685 -5.62614e-06
 2.88625e-05 -0.00693436 2.88724e-05
 3.00959e-05 -0.0100813 1.72816e-05
 3.09022e-05 0.00978214 3.41688e-05
 1.31903e-05 -0.00969073 -3.4848e-05
 1.7789e-05 -0.00673047 -1.77311e-05
 1.72763e-05 -0.0100857 -2.99041e-05
 1.80065e-05 -0.00663474 -2.83183e-06
 1.80266e-05 -0.00663814 2.762e-06
 1.72738e-05 -0.0100811 3.00788e-05
 1.77442e-05 -0.0067219 1.78151e-05
 1.319e-05 -0.0097911 3.47784e-05
 3.68343e-05 0.000333559 -3.67978e-05
 3.48135e-05 -0.00969136 -1.31692e-05
 3.4164e-05 0.00978293 -3.08563e-05
 3.19503e-05 -0.00325841 -2.84133e-06
 3.19477e-05 -0.00325927 2.82442e-06
 3.41575e-05 0.00977337 3.09161e-05
 3.47629e-05 -0.00979042 1.31918e-05
 3.68136e-05 0.000321562 3.68522e-05
 5.52517e-06 -0.00965889 5.54335e-06
 4.94062e-06 0.00147467 1.30197e-05
 6.43375e-06 -0.00199502 5.53191e-06
 5.538e-06 -0.00132378 -4.8777e-06
 5.53822e-06 -0.00132744 4.89885e-06
 6.43478e-06 -0.00202061 -5.51051e-06
 4.93736e-06 0.00155355 -1.29834e-05
 5.54176e-06 -0.00965492 -5.5358e-06
 1.30097e-05 0.00146856 4.95358e-06
 1.38924e-05 0.0060277 1.39074e-05
 1.25211e-05 0.00226943 5.34502e-06
 1.34087e-05 0.00073756 -4.49817e-06
 1.3409e-05 0.000737291 4.51922e-06
 1.25215e-05 0.00225827 -5.32373e-06
 1.3898e-05 0.00604185 -1.38893e-05
 1.2996e-05 0.00155628 -4.92807e-06
 5.51949e-06 -0.00199453 6.44872e-06
 5.33272e-06 0.00227063 1.25337e-05
 5.2588e-06 -0.00854102 5.27099e-06
 5.22243e-06 0.0076665 -4.34913e-06
 5.22257e-06 0.00766568 4.37013e-06
 5.2593e-06 -0.00854469 -5.24977e-06
 5.33351e-06 0.00225127 -1.25112e-05
 5.52053e-06 -0.00201137 -6.42781e-06
 -4.89023e-06 -0.00132683 5.5522e-06
 -4.50975e-06 0.000738214 1.34217e-05
 -4.35997e-06 0.00766658 5.23442e-06
 -4.33039e-06 0.00332277 -4.30263e-06
 -4.33018e-06 0.00332189 4.32365e-06
 -4.35977e-06 0.00766475 -5.21323e-06
 -4.50936e-06 0.000737096 -1.33996e-05
 -4.88981e-06 -0.00130828 -5.53082e-06
 4.89013e-06 -0.00132678 5.55212e-06
 4.50971e-06 0.00073822 1.34217e-05
 4.36003e-06 0.00766664 5.23442e-06
 4.3305e-06 0.00332269 -4.30263e-06
 4.33037e-06 0.00332184 4.32371e-06
 4.36004e-06 0.00766479 -5.21315e-06
 4.50968e-06 0.000737107 -1.33995e-05
 4.89027e-06 -0.00130826 -5.53067e-06
 -5.51952e-06 -0.00199455 6.44873e-06
 -5.33268e-06 0.00227054 1.25336e-05
 -5.25873e-06 -0.00854095 5.27099e-06
 -5.22229e-06 0.0076666 -4.34896e-06
 -5.22237e-06 0.00766573 4.37016e-06
 -5.25903e-06 -0.00854469 -5.24959e-06
 -5.3331e-06 0.00225109 -1.25109e-05
 -5.5201e-06 -0.00201141 -6.42757e-06
 -1.30093e-05 0.00146801 4.95379e-06
 -1.38926e-05 0.00602724 1.3907e-05
 -1.25211e-05 0.00226977 5.34503e-06
 -1.34086e-05 0.000737655 -4.49807e-06
 -1.34089e-05 0.00073738 4.51943e-06
 -1.25214e-05 0.00225819 -5.32344e-06
 -1.38985e-05 0.00604141 -1.38885e-05
 -1.29956e-05 0.00155414 -4.92803e-06
 -5.52528e-06 -0.00965916 5.54209e-06
 -4.9402e-06 0.00147333 1.30207e-05
 -6.4335e-06 -0.00199511 5.5319e-06
 -5.53792e-06 -0.00132658 -4.87761e-06
 -5.53812e-06 -0.0013273 4.89917e-06
 -6.43466e-06 -0.00202065 -5.51015e-06
 -4.93656e-06 0.00155083 -1.2984e-05
 -5.5418e-06 -0.0096552 -5.53417e-06
 3.03995e-06 -0.000977827 3.04002e-06
 2.57425e-06 -0.00817853 6.53791e-06
 3.52267e-06 0.00117785 3.4219e-06
 2.33058e-06 0.0167663 -3.29636e-06
 2.33084e-06 0.016767 3.30892e-06
 3.52251e-06 0.00119172 -3.4091e-06
 2.58109e-06 -0.00822172 -6.51697e-06
 3.04364e-06 -0.000962704 -3.03462e-06
 6.51989e-06 -0.00817481 2.57233e-06
 7.35546e-06 0.0117968 7.37519e-06
 6.59751e-06 -0.00224374 3.32003e-06
 7.82986e-06 0.00248817 -3.42458e-06
 7.82998e-06 0.00248799 3.43702e-06
 6.59866e-06 -0.00223848 -3.3074e-06
 7.35021e-06 0.0117986 -7.35391e-06
 6.51823e-06 -0.00822327 -2.5676e-06
 3.41409e-06 0.00117641 3.52652e-06
 3.31234e-06 -0.00224359 6.61114e-06
 3.23411e-06 0.00617354 3.24167e-06
 3.22297e-06 -0.00202432 -3.38152e-06
 3.22308e-06 -0.0020245 3.39385e-06