<?xml version="1.0"?>
<VTKFile type="UnstructuredGrid" version="0.1" byte_order="LittleEndian" compressor="vtkZLibDataCompressor">
<UnstructuredGrid>
<Piece NumberOfPoints="960" NumberOfCells="120">
<Points>
<DataArray type="Float32" NumberOfComponents="3" format="ascii">
-4.000000e+02 -6.000000e+03 -4.000000e+02
0.000000e+00 -6.000000e+03 -4.000000e+02
-4.000000e+02 -5.600100e+03 -4.000000e+02
-3.935460e-10 -5.600100e+03 -4.000000e+02
-4.000000e+02 -6.000000e+03 0.000000e+00
0.000000e+00 -6.000000e+03 0.000000e+00
-4.000000e+02 -5.600100e+03 8.502050e-11
-7.225100e-10 -5.600100e+03 -2.542820e-10
0.000000e+00 -6.000000e+03 -4.000000e+02
4.000000e+02 -6.000000e+03 -4.000000e+02
-3.935460e-10 -5.600100e+03 -4.000000e+02
4.000000e+02 -5.600100e+03 -4.000000e+02
0.000000e+00 -6.000000e+03 0.000000e+00
4.000000e+02 -6.000000e+03 0.000000e+00
-7.225100e-10 -5.600100e+03 -2.542820e-10
4.000000e+02 -5.600100e+03 -2.058800e-10
-4.000000e+02 -5.600100e+03 -4.000000e+02
-3.935460e-10 -5.600100e+03 -4.000000e+02
-4.000000e+02 -5.200160e+03 -4.000000e+02
-4.982100e-10 -5.200160e+03 -4.000000e+02
-4.000000e+02 -5.600100e+03 8.502050e-11
-7.225100e-10 -5.600100e+03 -2.542820e-10
-4.000000e+02 -5.200160e+03 2.498360e-10
-7.969330e-10 -5.200160e+03 1.595380e-10
-3.935460e-10 -5.600100e+03 -4.000000e+02
4.000000e+02 -5.600100e+03 -4.000000e+02
-4.982100e-10 -5.200160e+03 -4.000000e+02
4.000000e+02 -5.200160e+03 -4.000000e+02
-7.225100e-10 -5.600100e+03 -2.542820e-10
4.000000e+02 -5.600100e+03 -2.058800e-10
-7.969330e-10 -5.200160e+03 1.595380e-10
4.000000e+02 -5.200160e+03 1.611220e-11
-4.000000e+02 -5.200160e+03 -4.000000e+02
-4.982100e-10 -5.200160e+03 -4.000000e+02
-4.000000e+02 -4.800200e+03 -4.000000e+02
-5.780510e-10 -4.800200e+03 -4.000000e+02
-4.000000e+02 -5.200160e+03 2.498360e-10
-7.969330e-10 -5.200160e+03 1.595380e-10
-4.000000e+02 -4.800200e+03 -5.545010e-10
-8.846590e-10 -4.800200e+03 4.298260e-10
-4.982100e-10 -5.200160e+03 -4.000000e+02
4.000000e+02 -5.200160e+03 -4.000000e+02
-5.780510e-10 -4.800200e+03 -4.000000e+02
4.000000e+02 -4.800200e+03 -4.000000e+02
-7.969330e-10 -5.200160e+03 1.595380e-10
4.000000e+02 -5.200160e+03 1.611220e-11
-8.846590e-10 -4.800200e+03 4.298260e-10
4.000000e+02 -4.800200e+03 -1.601950e-10
-4.000000e+02 -4.800200e+03 -4.000000e+02
-5.780510e-10 -4.800200e+03 -4.000000e+02
-4.000000e+02 -4.400250e+03 -4.000000e+02
-7.322680e-10 -4.400250e+03 -4.000000e+02
-4.000000e+02 -4.800200e+03 -5.545010e-10
-8.846590e-10 -4.800200e+03 4.298260e-10
-4.000000e+02 -4.400250e+03 -8.205000e-10
-1.004310e-09 -4.400250e+03 -2.334140e-11
-5.780510e-10 -4.800200e+03 -4.000000e+02
4.000000e+02 -4.800200e+03 -4.000000e+02
-7.322680e-10 -4.400250e+03 -4.000000e+02
4.000000e+02 -4.400250e+03 -4.000000e+02
-8.846590e-10 -4.800200e+03 4.298260e-10
4.000000e+02 -4.800200e+03 -1.601950e-10
-1.004310e-09 -4.400250e+03 -2.334140e-11
4.000000e+02 -4.400250e+03 -6.660090e-10
-4.000000e+02 -4.400250e+03 -4.000000e+02
-7.322680e-10 -4.400250e+03 -4.000000e+02
-4.000000e+02 -4.000280e+03 -4.000000e+02
-1.568060e-09 -4.000280e+03 -4.000000e+02
-4.000000e+02 -4.400250e+03 -8.205000e-10
-1.004310e-09 -4.400250e+03 -2.334140e-11
-4.000000e+02 -4.000280e+03 -6.851440e-10
-2.110400e-09 -4.000280e+03 -8.550620e-10
-7.322680e-10 -4.400250e+03 -4.000000e+02
4.000000e+02 -4.400250e+03 -4.000000e+02
-1.568060e-09 -4.000280e+03 -4.000000e+02
4.000000e+02 -4.000280e+03 -4.000000e+02
-1.004310e-09 -4.400250e+03 -2.334140e-11
4.000000e+02 -4.400250e+03 -6.660090e-10
-2.110400e-09 -4.000280e+03 -8.550620e-10
4.000000e+02 -4.000280e+03 -1.698700e-09
-4.000000e+02 -4.000280e+03 -4.000000e+02
-1.568060e-09 -4.000280e+03 -4.000000e+02
-4.000000e+02 -3.600280e+03 -4.000000e+02
-2.904690e-09 -3.600280e+03 -4.000000e+02
-4.000000e+02 -4.000280e+03 -6.851440e-10
-2.110400e-09 -4.000280e+03 -8.550620e-10
-4.000000e+02 -3.600280e+03 -1.051090e-09
-2.426180e-09 -3.600280e+03 -1.213710e-09
-1.568060e-09 -4.000280e+03 -4.000000e+02
4.000000e+02 -4.000280e+03 -4.000000e+02
-2.904690e-09 -3.600280e+03 -4.000000e+02
4.000000e+02 -3.600280e+03 -4.000000e+02
-2.110400e-09 -4.000280e+03 -8.550620e-10
4.000000e+02 -4.000280e+03 -1.698700e-09
-2.426180e-09 -3.600280e+03 -1.213710e-09
4.000000e+02 -3.600280e+03 -1.674090e-09
-4.000000e+02 -3.600280e+03 -4.000000e+02
-2.904690e-09 -3.600280e+03 -4.000000e+02
-4.000000e+02 -3.200290e+03 -4.000000e+02
-2.156510e-09 -3.200290e+03 -4.000000e+02
-4.000000e+02 -3.600280e+03 -1.051090e-09
-2.426180e-09 -3.600280e+03 -1.213710e-09
-4.000000e+02 -3.200290e+03 -1.320120e-09
-1.985370e-09 -3.200290e+03 -1.056190e-09
-2.904690e-09 -3.600280e+03 -4.000000e+02
4.000000e+02 -3.600280e+03 -4.000000e+02
-2.156510e-09 -3.200290e+03 -4.000000e+02
4.000000e+02 -3.200290e+03 -4.000000e+02
-2.426180e-09 -3.600280e+03 -1.213710e-09
4.000000e+02 -3.600280e+03 -1.674090e-09
-1.985370e-09 -3.200290e+03 -1.056190e-09
4.000000e+02 -3.200290e+03 -8.882960e-10
-4.000000e+02 -3.200290e+03 -4.000000e+02
-2.156510e-09 -3.200290e+03 -4.000000e+02
-4.000000e+02 -2.800290e+03 -4.000000e+02
-1.214110e-09 -2.800290e+03 -4.000000e+02
-4.000000e+02 -3.200290e+03 -1.320120e-09
-1.985370e-09 -3.200290e+03 -1.056190e-09
-4.000000e+02 -2.800290e+03 8.064200e-11
-1.400670e-09 -2.800290e+03 -4.185290e-10
-2.156510e-09 -3.200290e+03 -4.000000e+02
4.000000e+02 -3.200290e+03 -4.000000e+02
-1.214110e-09 -2.800290e+03 -4.000000e+02
4.000000e+02 -2.800290e+03 -4.000000e+02
-1.985370e-09 -3.200290e+03 -1.056190e-09
4.000000e+02 -3.200290e+03 -8.882960e-10
-1.400670e-09 -2.800290e+03 -4.185290e-10
4.000000e+02 -2.800290e+03 -2.273190e-10
-4.000000e+02 -2.800290e+03 -4.000000e+02
-1.214110e-09 -2.800290e+03 -4.000000e+02
-4.000000e+02 -2.400290e+03 -4.000000e+02
-4.487920e-10 -2.400290e+03 -4.000000e+02
-4.000000e+02 -2.800290e+03 8.064200e-11
-1.400670e-09 -2.800290e+03 -4.185290e-10
-4.000000e+02 -2.400290e+03 1.210550e-09
-3.210930e-10 -2.400290e+03 4.516240e-10
-1.214110e-09 -2.800290e+03 -4.000000e+02
4.000000e+02 -2.800290e+03 -4.000000e+02
-4.487920e-10 -2.400290e+03 -4.000000e+02
4.000000e+02 -2.400290e+03 -4.000000e+02
-1.400670e-09 -2.800290e+03 -4.185290e-10
4.000000e+02 -2.800290e+03 -2.273190e-10
-3.210930e-10 -2.400290e+03 4.516240e-10
4.000000e+02 -2.400290e+03 6.034210e-10
-4.000000e+02 -2.400290e+03 -4.000000e+02
-4.487920e-10 -2.400290e+03 -4.000000e+02
-4.000000e+02 -2.000290e+03 -4.000000e+02
3.824950e-10 -2.000290e+03 -4.000000e+02
-4.000000e+02 -2.400290e+03 1.210550e-09
-3.210930e-10 -2.400290e+03 4.516240e-10
-4.000000e+02 -2.000290e+03 1.327580e-09
1.871630e-10 -2.000290e+03 7.505690e-10
-4.487920e-10 -2.400290e+03 -4.000000e+02
4.000000e+02 -2.400290e+03 -4.000000e+02
3.824950e-10 -2.000290e+03 -4.000000e+02
4.000000e+02 -2.000290e+03 -4.000000e+02
-3.210930e-10 -2.400290e+03 4.516240e-10
4.000000e+02 -2.400290e+03 6.034210e-10
1.871630e-10 -2.000290e+03 7.505690e-10
4.000000e+02 -2.000290e+03 9.959270e-10
-4.000000e+02 -2.000290e+03 -4.000000e+02
3.824950e-10 -2.000290e+03 -4.000000e+02
-4.000000e+02 -1.600290e+03 -4.000000e+02
3.738740e-10 -1.600290e+03 -4.000000e+02
-4.000000e+02 -2.000290e+03 1.327580e-09
1.871630e-10 -2.000290e+03 7.505690e-10
-4.000000e+02 -1.600290e+03 1.810910e-09
9.483230e-10 -1.600290e+03 9.650530e-10
3.824950e-10 -2.000290e+03 -4.000000e+02
4.000000e+02 -2.000290e+03 -4.000000e+02
3.738740e-10 -1.600290e+03 -4.000000e+02
4.000000e+02 -1.600290e+03 -4.000000e+02
1.871630e-10 -2.000290e+03 7.505690e-10
4.000000e+02 -2.000290e+03 9.959270e-10
9.483230e-10 -1.600290e+03 9.650530e-10
4.000000e+02 -1.600290e+03 5.238790e-10
-4.000000e+02 -1.600290e+03 -4.000000e+02
3.738740e-10 -1.600290e+03 -4.000000e+02
-4.000000e+02 -1.200290e+03 -4.000000e+02
3.596470e-10 -1.200290e+03 -4.000000e+02
-4.000000e+02 -1.600290e+03 1.810910e-09
9.483230e-10 -1.600290e+03 9.650530e-10
-4.000000e+02 -1.200290e+03 2.089420e-09
1.343200e-09 -1.200290e+03 1.821270e-09
3.738740e-10 -1.600290e+03 -4.000000e+02
4.000000e+02 -1.600290e+03 -4.000000e+02
3.596470e-10 -1.200290e+03 -4.000000e+02
4.000000e+02 -1.200290e+03 -4.000000e+02
9.483230e-10 -1.600290e+03 9.650530e-10
4.000000e+02 -1.600290e+03 5.238790e-10
1.343200e-09 -1.200290e+03 1.821270e-09
4.000000e+02 -1.200290e+03 1.355230e-09
-4.000000e+02 -1.200290e+03 -4.000000e+02
3.596470e-10 -1.200290e+03 -4.000000e+02
-4.000000e+02 -8.002940e+02 -4.000000e+02
3.265100e-10 -8.002940e+02 -4.000000e+02
-4.000000e+02 -1.200290e+03 2.089420e-09
1.343200e-09 -1.200290e+03 1.821270e-09
-4.000000e+02 -8.002940e+02 3.301930e-09
9.235710e-10 -8.002940e+02 3.046540e-09
3.596470e-10 -1.200290e+03 -4.000000e+02
4.000000e+02 -1.200290e+03 -4.000000e+02
3.265100e-10 -8.002940e+02 -4.000000e+02
4.000000e+02 -8.002940e+02 -4.000000e+02
1.343200e-09 -1.200290e+03 1.821270e-09
4.000000e+02 -1.200290e+03 1.355230e-09
9.235710e-10 -8.002940e+02 3.046540e-09
4.000000e+02 -8.002940e+02 2.720870e-09
-4.000000e+02 -8.002940e+02 -4.000000e+02
3.265100e-10 -8.002940e+02 -4.000000e+02
-4.000000e+02 -4.002940e+02 -4.000000e+02
7.785810e-11 -4.002940e+02 -4.000000e+02
-4.000000e+02 -8.002940e+02 3.301930e-09
9.235710e-10 -8.002940e+02 3.046540e-09
-4.000000e+02 -4.002940e+02 2.486520e-09
9.450390e-10 -4.002940e+02 1.787520e-09
3.265100e-10 -8.002940e+02 -4.000000e+02
4.000000e+02 -8.002940e+02 -4.000000e+02
7.785810e-11 -4.002940e+02 -4.000000e+02
4.000000e+02 -4.002940e+02 -4.000000e+02
9.235710e-10 -8.002940e+02 3.046540e-09
4.000000e+02 -8.002940e+02 2.720870e-09
9.450390e-10 -4.002940e+02 1.787520e-09
4.000000e+02 -4.002940e+02 1.267180e-09
-4.000000e+02 -4.002940e+02 -4.000000e+02
7.785810e-11 -4.002940e+02 -4.000000e+02
-4.000000e+02 -2.943060e-01 -4.000000e+02
-1.646520e-10 -2.943110e-01 -4.000000e+02
-4.000000e+02 -4.002940e+02 2.486520e-09
9.450390e-10 -4.002940e+02 1.787520e-09
-4.000000e+02 -2.943110e-01 1.605620e-09
6.479390e-10 -2.943170e-01 9.153850e-10
7.785810e-11 -4.002940e+02 -4.000000e+02
4.000000e+02 -4.002940e+02 -4.000000e+02
-1.646520e-10 -2.943110e-01 -4.000000e+02
[...]
<PointData>
<DataArray type="Float32" Name="V1" format="ascii">
0.000000e+00
0.000000e+00
1.679670e-06
5.467530e-10
0.000000e+00
0.000000e+00
1.704030e-06
-5.479130e-10
0.000000e+00
0.000000e+00
5.467530e-10
-1.678650e-06
0.000000e+00
0.000000e+00
-5.479130e-10
-1.704250e-06
1.679670e-06
5.467530e-10
-5.065310e-08
1.137080e-09
1.704030e-06
-5.479130e-10
-8.513930e-08
9.633540e-11
5.467530e-10
-1.678650e-06
1.137080e-09
5.211420e-08
-5.479130e-10
-1.704250e-06
9.633540e-11
8.556350e-08
-5.065310e-08
1.137080e-09
-3.319180e-06
7.000390e-10
-8.513930e-08
9.633540e-11
-3.293420e-06
-1.289950e-09
1.137080e-09
5.211420e-08
7.000390e-10
3.320650e-06
9.633540e-11
8.556350e-08
-1.289950e-09
3.291590e-06
-3.319180e-06
7.000390e-10
6.167610e-06
1.089780e-10
-3.293420e-06
-1.289950e-09
6.162330e-06
-5.048230e-10
7.000390e-10
3.320650e-06
1.089780e-10
-6.168550e-06
-1.289950e-09
3.291590e-06
-5.048230e-10
-6.163130e-06
6.167610e-06
1.089780e-10
-6.005830e-06
7.969690e-10
6.162330e-06
-5.048230e-10
-6.042670e-06
9.281020e-10
1.089780e-10
-6.168550e-06
7.969690e-10
6.006760e-06
-5.048230e-10
-6.163130e-06
9.281020e-10
6.043820e-06
-6.005830e-06
7.969690e-10
7.144380e-07
-1.536860e-12
-6.042670e-06
9.281020e-10
8.137170e-07
-4.019780e-10
7.969690e-10
6.006760e-06
-1.536860e-12
-7.147050e-07
9.281020e-10
6.043820e-06
-4.019780e-10
-8.138740e-07
7.144380e-07
-1.536860e-12
6.599170e-06
-1.295980e-09
8.137170e-07
-4.019780e-10
6.438660e-06
-5.872170e-10
-1.536860e-12
-7.147050e-07
-1.295980e-09
-6.602510e-06
-4.019780e-10
-8.138740e-07
-5.872170e-10
-6.439460e-06
6.599170e-06
-1.295980e-09
-6.485870e-06
-1.006730e-10
6.438660e-06
-5.872170e-10
-6.277970e-06
-5.433310e-10
-1.295980e-09
-6.602510e-06
-1.006730e-10
6.486030e-06
-5.872170e-10
-6.439460e-06
-5.433310e-10
6.277260e-06
-6.485870e-06
-1.006730e-10
8.317220e-07
1.405700e-10
-6.277970e-06
-5.433310e-10
5.359420e-07
-3.895510e-10
-1.006730e-10
6.486030e-06
1.405700e-10
-8.324290e-07
-5.433310e-10
6.277260e-06
-3.895510e-10
-5.371210e-07
8.317220e-07
1.405700e-10
-2.782290e-06
1.285610e-10
5.359420e-07
-3.895510e-10
-2.282990e-06
2.971150e-10
1.405700e-10
-8.324290e-07
1.285610e-10
2.781570e-06
-3.895510e-10
-5.371210e-07
2.971150e-10
2.283360e-06
-2.782290e-06
1.285610e-10
1.157310e-06
-1.187880e-11
-2.282990e-06
2.971150e-10
5.674280e-07
1.220820e-10
1.285610e-10
2.781570e-06
-1.187880e-11
-1.157980e-06
2.971150e-10
2.283360e-06
1.220820e-10
-5.665640e-07
1.157310e-06
-1.187880e-11
5.256890e-06
2.504500e-10
5.674280e-07
1.220820e-10
5.313470e-06
4.741630e-10
-1.187880e-11
-1.157980e-06
2.504500e-10
-5.256880e-06
1.220820e-10
-5.665640e-07
4.741630e-10
-5.312870e-06
5.256890e-06
2.504500e-10
4.866840e-06
-1.338060e-10
5.313470e-06
4.741630e-10
5.829390e-06
-3.837690e-10
2.504500e-10
-5.256880e-06
-1.338060e-10
-4.867030e-06
4.741630e-10
-5.312870e-06
-3.837690e-10
-5.829790e-06
4.866840e-06
-1.338060e-10
-6.435140e-06
1.271100e-10
5.829390e-06
-3.837690e-10
-7.625280e-06
-7.202640e-11
-1.338060e-10
-4.867030e-06
1.271100e-10
6.434120e-06
-3.837690e-10
-5.829790e-06
-7.202640e-11
7.624370e-06
-6.435140e-06
1.271100e-10
-5.462000e-06
-1.638940e-10
-7.625280e-06
-7.202640e-11
-5.372930e-06
3.412590e-10
1.271100e-10
6.434120e-06
-1.638940e-10
5.460970e-06
-7.202640e-11
7.624370e-06
3.412590e-10
5.372930e-06
-5.462000e-06
-1.638940e-10
4.164390e-06
8.206950e-10
-5.372930e-06
3.412590e-10
4.420680e-06
-1.263630e-10
-1.638940e-10
5.460970e-06
8.206950e-10
-4.163830e-06
3.412590e-10
5.372930e-06
-1.263630e-10
-4.420470e-06
4.164390e-06
8.206950e-10
6.435410e-06
1.544080e-11
4.420680e-06
-1.263630e-10
6.395740e-06
-1.127760e-11
8.206950e-10
-4.163830e-06
1.544080e-11
-6.436150e-06
-1.263630e-10
-4.420470e-06
-1.127760e-11
-6.396740e-06
6.435410e-06
1.544080e-11
-1.925210e-06
-3.545990e-10
6.395740e-06
-1.127760e-11
-1.309830e-06
-4.140170e-11
1.544080e-11
-6.436150e-06
-3.545990e-10
1.924130e-06
-1.127760e-11
-6.396740e-06
-4.140170e-11
1.309750e-06
-1.925210e-06
-3.545990e-10
-1.356930e-06
5.272670e-10
-1.309830e-06
-4.140170e-11
-1.241520e-06
5.374440e-10
-3.545990e-10
1.924130e-06
5.272670e-10
1.357660e-06
-4.140170e-11
1.309750e-06
5.374440e-10
1.242840e-06
-1.356930e-06
5.272670e-10
2.466480e-06
8.132570e-11
-1.241520e-06
5.374440e-10
2.396340e-06
-4.747200e-11
5.272670e-10
1.357660e-06
8.132570e-11
-2.466340e-06
5.374440e-10
1.242840e-06
-4.747200e-11
-2.396040e-06
2.466480e-06
8.132570e-11
3.826810e-06
-2.076620e-10
2.396340e-06
-4.747200e-11
3.806570e-06
-5.313340e-10
8.132570e-11
-2.466340e-06
-2.076620e-10
-3.827980e-06
-4.747200e-11
-2.396040e-06
-5.313340e-10
-3.807730e-06
3.826810e-06
-2.076620e-10
3.031250e-06
4.461640e-11
3.806570e-06
-5.313340e-10
3.204030e-06
-9.646670e-11
-2.076620e-10
-3.827980e-06
4.461640e-11
-3.031930e-06
-5.313340e-10
-3.807730e-06
-9.646670e-11
-3.204400e-06
3.031250e-06
4.461640e-11
-4.594580e-06
2.142530e-10
3.204030e-06
-9.646670e-11
-4.726450e-06
3.222390e-10
4.461640e-11
-3.031930e-06
2.142530e-10
4.594910e-06
-9.646670e-11
-3.204400e-06
3.222390e-10
4.727050e-06
-4.594580e-06
2.142530e-10
-7.679630e-06
-3.145110e-11
-4.726450e-06
3.222390e-10
-7.786660e-06
1.909430e-12
2.142530e-10
4.594910e-06
-3.145110e-11
7.679580e-06
3.222390e-10
4.727050e-06
1.909430e-12
7.786660e-06
-7.679630e-06
-3.145110e-11
-8.306540e-07
-1.058030e-10
-7.786660e-06
1.909430e-12
-7.840390e-07
-9.621850e-11
-3.145110e-11
7.679580e-06
-1.058030e-10
8.304500e-07
1.909430e-12
7.786660e-06
-9.621850e-11
7.838820e-07
-8.306540e-07
-1.058030e-10
1.100810e-05
1.673020e-10
-7.840390e-07
-9.621850e-11
1.108470e-05
1.886130e-10
-1.058030e-10
8.304500e-07
1.673020e-10
-1.100780e-05
-9.621850e-11
7.838820e-07
1.886130e-10
-1.108430e-05
1.100810e-05
1.673020e-10
1.210260e-05
1.984470e-10
1.108470e-05
1.886130e-10
1.192130e-05
1.870200e-10
1.673020e-10
-1.100780e-05
1.984470e-10
-1.210230e-05
1.886130e-10
-1.108430e-05
1.870200e-10
-1.192100e-05
1.210260e-05
1.984470e-10
-6.977010e-06
1.650240e-12
1.192130e-05
1.870200e-10
-6.858800e-06
-1.403080e-11
1.984470e-10
-1.210230e-05
1.650240e-12
6.977020e-06
1.870200e-10
-1.192100e-05
-1.403080e-11
6.858760e-06
-6.977010e-06
1.650240e-12
-1.378930e-05
-7.301040e-11
-6.858800e-06
-1.403080e-11
-1.305020e-05
-6.701050e-11
1.650240e-12
6.977020e-06
-7.301040e-11
1.378920e-05
-1.403080e-11
6.858760e-06
-6.701050e-11
1.305010e-05
-1.378930e-05
-7.301040e-11
1.946870e-05
1.438730e-11
-1.305020e-05
-6.701050e-11
1.813910e-05
1.962240e-11
-7.301040e-11
1.378920e-05
1.438730e-11
-1.946860e-05
-6.701050e-11
1.305010e-05
1.962240e-11
-1.813910e-05
0.000000e+00
0.000000e+00
1.704030e-06
-5.479130e-10
0.000000e+00
0.000000e+00
1.680130e-06
3.775290e-11
0.000000e+00
0.000000e+00
-5.479130e-10
-1.704250e-06
0.000000e+00
0.000000e+00
3.775290e-11
-1.680660e-06
1.704030e-06
-5.479130e-10
-8.513930e-08
9.633540e-11
1.680130e-06
3.775290e-11
-5.162720e-08
5.128720e-11
-5.479130e-10
-1.704250e-06
9.633540e-11
8.556350e-08
3.775290e-11
-1.680660e-06
5.128720e-11
5.220850e-08
-8.513930e-08
9.633540e-11
-3.293420e-06
-1.289950e-09
-5.162720e-08
5.128720e-11
-3.315910e-06
5.500250e-10
9.633540e-11
8.556350e-08
-1.289950e-09
3.291590e-06
5.128720e-11
5.220850e-08
5.500250e-10
3.317040e-06
-3.293420e-06
-1.289950e-09
6.162330e-06
-5.048230e-10
-3.315910e-06
5.500250e-10
6.170190e-06
1.082410e-09
-1.289950e-09
3.291590e-06
-5.048230e-10
-6.163130e-06
5.500250e-10
3.317040e-06
1.082410e-09
-6.167220e-06
6.162330e-06
-5.048230e-10
-6.042670e-06
9.281020e-10
6.170190e-06
1.082410e-09
-6.007400e-06
8.906210e-10
-5.048230e-10
-6.163130e-06
9.281020e-10
6.043820e-06
1.082410e-09
-6.167220e-06
8.906210e-10
6.008720e-06
-6.042670e-06
9.281020e-10
8.137170e-07
-4.019780e-10
-6.007400e-06
8.906210e-10
7.128040e-07
-6.145110e-10
9.281020e-10
6.043820e-06
-4.019780e-10
-8.138740e-07
8.906210e-10
6.008720e-06
-6.145110e-10
-7.146260e-07
8.137170e-07
-4.019780e-10
6.438660e-06
-5.872170e-10
7.128040e-07
-6.145110e-10
6.600390e-06
-2.041930e-10
-4.019780e-10
-8.138740e-07
-5.872170e-10
-6.439460e-06
-6.145110e-10
-7.146260e-07
-2.041930e-10
-6.601740e-06
6.438660e-06
-5.872170e-10
-6.277970e-06
-5.433310e-10
6.600390e-06
-2.041930e-10
-6.485570e-06
3.163030e-10
-5.872170e-10
-6.439460e-06
-5.433310e-10
6.277260e-06
-2.041930e-10
-6.601740e-06
3.163030e-10
6.485570e-06
-6.277970e-06
-5.433310e-10
5.359420e-07
-3.895510e-10
-6.485570e-06
3.163030e-10
8.298840e-07
-3.332650e-10
-5.433310e-10
6.277260e-06
-3.895510e-10
-5.371210e-07
3.163030e-10
6.485570e-06
-3.332650e-10
-8.313300e-07
5.359420e-07
-3.895510e-10
-2.282990e-06
2.971150e-10
8.298840e-07
-3.332650e-10
-2.781430e-06
1.017650e-09
-3.895510e-10
-5.371210e-07
2.971150e-10
2.283360e-06
-3.332650e-10
-8.313300e-07
1.017650e-09
2.783220e-06
-2.282990e-06
2.971150e-10
5.674280e-07
1.220820e-10
-2.781430e-06
1.017650e-09
1.157460e-06
-7.091480e-10
2.971150e-10
2.283360e-06
1.220820e-10
-5.665640e-07
1.017650e-09
2.783220e-06
-7.091480e-10
-1.158440e-06
5.674280e-07
1.220820e-10
5.313470e-06
4.741630e-10
1.157460e-06
-7.091480e-10
5.255370e-06
-8.907540e-10
1.220820e-10
-5.665640e-07
4.741630e-10
-5.312870e-06
-7.091480e-10
-1.158440e-06
-8.907540e-10
-5.256560e-06
5.313470e-06
4.741630e-10
5.829390e-06
-3.837690e-10
5.255370e-06
-8.907540e-10
4.866880e-06
1.297260e-10
4.741630e-10
-5.312870e-06
-3.837690e-10
-5.829790e-06
-8.907540e-10
-5.256560e-06
1.297260e-10
-4.866440e-06
5.829390e-06
-3.837690e-10
-7.625280e-06
-7.202640e-11
4.866880e-06
1.297260e-10
-6.433820e-06
3.138080e-10
-3.837690e-10
-5.829790e-06
-7.202640e-11
7.624370e-06
1.297260e-10
-4.866440e-06
3.138080e-10
6.434390e-06
-7.625280e-06
-7.202640e-11
-5.372930e-06
3.412590e-10
-6.433820e-06
3.138080e-10
-5.460620e-06
2.903850e-10
-7.202640e-11
7.624370e-06
3.412590e-10
5.372930e-06
3.138080e-10
6.434390e-06
2.903850e-10
5.461530e-06
-5.372930e-06
3.412590e-10
4.420680e-06
-1.263630e-10
-5.460620e-06
2.903850e-10
4.163860e-06
2.990230e-10
3.412590e-10
5.372930e-06
-1.263630e-10
-4.420470e-06
2.903850e-10
5.461530e-06
2.990230e-10
-4.163880e-06
4.420680e-06
-1.263630e-10
6.395740e-06
-1.127760e-11
4.163860e-06
2.990230e-10
6.436150e-06
-1.226410e-10
-1.263630e-10
-4.420470e-06
-1.127760e-11
-6.396740e-06
2.990230e-10
-4.163880e-06
-1.226410e-10
-6.436370e-06
6.395740e-06
-1.127760e-11
-1.309830e-06
-4.140170e-11
6.436150e-06
-1.226410e-10
-1.926580e-06
2.310110e-11
-1.127760e-11
-6.396740e-06
-4.140170e-11
1.309750e-06
-1.226410e-10
-6.436370e-06
2.310110e-11
1.926400e-06
-1.309830e-06
-4.140170e-11
-1.241520e-06
5.374440e-10
-1.926580e-06
2.310110e-11
-1.354040e-06
2.420340e-10
-4.140170e-11
1.309750e-06
5.374440e-10
1.242840e-06
2.310110e-11
1.926400e-06
2.420340e-10
1.355000e-06
-1.241520e-06
5.374440e-10
2.396340e-06
-4.747200e-11
-1.354040e-06
2.420340e-10
2.468630e-06
-1.567360e-10
5.374440e-10
1.242840e-06
-4.747200e-11
-2.396040e-06
2.420340e-10
1.355000e-06
-1.567360e-10
-2.468270e-06
2.396340e-06
-4.747200e-11
3.806570e-06
-5.313340e-10
2.468630e-06
-1.567360e-10
3.822220e-06
-7.885410e-10
-4.747200e-11
-2.396040e-06
-5.313340e-10
-3.807730e-06
-1.567360e-10
-2.468270e-06
-7.885410e-10
-3.823330e-06
3.806570e-06
-5.313340e-10
3.204030e-06
-9.646670e-11
3.822220e-06
-7.885410e-10
3.028960e-06
-1.868600e-10
-5.313340e-10
-3.807730e-06
-9.646670e-11
-3.204400e-06
-7.885410e-10
-3.823330e-06
-1.868600e-10
-3.029210e-06
3.204030e-06
-9.646670e-11
-4.726450e-06
3.222390e-10
3.028960e-06
-1.868600e-10
-4.589620e-06
4.254270e-10
-9.646670e-11
-3.204400e-06
3.222390e-10
4.727050e-06
-1.868600e-10
-3.029210e-06
4.254270e-10
4.590400e-06
-4.726450e-06
3.222390e-10
-7.786660e-06
1.909430e-12
-4.589620e-06
4.254270e-10
-7.677810e-06
3.732400e-11
3.222390e-10
4.727050e-06
1.909430e-12
7.786660e-06
4.254270e-10
4.590400e-06
3.732400e-11
7.678010e-06
-7.786660e-06
1.909430e-12
-7.840390e-07
-9.621850e-11
-7.677810e-06
3.732400e-11
-8.335760e-07
-1.279700e-10
1.909430e-12
7.786660e-06
-9.621850e-11
7.838820e-07
3.732400e-11
7.678010e-06
-1.279700e-10
8.333720e-07
-7.840390e-07
-9.621850e-11
1.108470e-05
1.886130e-10
-8.335760e-07
-1.279700e-10
1.100710e-05
1.869350e-10
-9.621850e-11
7.838820e-07
1.886130e-10
-1.108430e-05
-1.279700e-10
8.333720e-07
1.869350e-10
-1.100670e-05
1.108470e-05
1.886130e-10
1.192130e-05
1.870200e-10
1.100710e-05
1.869350e-10
1.210330e-05
2.027030e-10
1.886130e-10
-1.108430e-05
1.870200e-10
-1.192100e-05
1.869350e-10
-1.100670e-05
2.027030e-10
-1.210290e-05
1.192130e-05
1.870200e-10
-6.858800e-06
-1.403080e-11
1.210330e-05
2.027030e-10
-6.976720e-06
-3.851610e-11
1.870200e-10
-1.192100e-05
-1.403080e-11
6.858760e-06
2.027030e-10
-1.210290e-05
-3.851610e-11
6.976610e-06
-6.858800e-06
-1.403080e-11
-1.305020e-05
-6.701050e-11
-6.976720e-06
-3.851610e-11
-1.378970e-05
-7.229260e-11
-1.403080e-11
6.858760e-06
-6.701050e-11
1.305010e-05
-3.851610e-11
6.976610e-06
-7.229260e-11
1.378950e-05
-1.305020e-05
-6.701050e-11
1.813910e-05
1.962240e-11
-1.378970e-05
-7.229260e-11
1.946910e-05
1.948840e-11
-6.701050e-11
1.305010e-05
1.962240e-11
-1.813910e-05
-7.229260e-11
1.378950e-05
1.948840e-11
-1.946900e-05
</DataArray>
<DataArray type="Float32" Name="V2" format="ascii">
0.000000e+00
0.000000e+00
-6.431000e-02
-6.431100e-02
0.000000e+00
0.000000e+00
-6.431100e-02
-6.431200e-02
0.000000e+00
0.000000e+00
-6.431100e-02
-6.431000e-02
0.000000e+00
0.000000e+00
-6.431200e-02
-6.431100e-02
-6.431000e-02
-6.431100e-02
-8.337080e-02
-8.336920e-02
-6.431100e-02
-6.431200e-02
-8.336920e-02
-8.336770e-02
-6.431100e-02
-6.431000e-02
-8.336920e-02
-8.337080e-02
-6.431200e-02
-6.431100e-02
-8.336770e-02
-8.336920e-02
-8.337080e-02
-8.336920e-02
-3.976980e-02
-3.977180e-02
-8.336920e-02
-8.336770e-02
-3.977180e-02
-3.977390e-02
-8.336920e-02
-8.337080e-02
-3.977180e-02
-3.976980e-02
-8.336770e-02
-8.336920e-02
-3.977390e-02
-3.977180e-02
-3.976980e-02
-3.977180e-02
-3.593670e-03
-3.594520e-03
-3.977180e-02
-3.977390e-02
-3.594530e-03
-3.595290e-03
-3.977180e-02
-3.976980e-02
-3.594520e-03
-3.593670e-03
-3.977390e-02
-3.977180e-02
-3.595290e-03
-3.594530e-03
-3.593670e-03
-3.594520e-03
-8.998270e-03
-8.998400e-03
-3.594530e-03
-3.595290e-03
-8.998410e-03
-8.998720e-03
-3.594520e-03
-3.593670e-03
-8.998400e-03
-8.998270e-03
-3.595290e-03
-3.594530e-03
-8.998720e-03
-8.998410e-03
-8.998270e-03
-8.998400e-03
-1.107500e-02
-1.106810e-02
-8.998410e-03
-8.998720e-03
-1.106810e-02
-1.106090e-02
-8.998400e-03
-8.998270e-03
-1.106810e-02
-1.107510e-02
-8.998720e-03
-8.998410e-03
-1.106090e-02
-1.106810e-02
-1.107500e-02
-1.106810e-02
-2.080220e-05
-2.089680e-05
-1.106810e-02
-1.106090e-02
-2.090390e-05
-2.138000e-05
-1.106810e-02
-1.107510e-02
-2.089680e-05
-2.080690e-05
-1.106090e-02
-1.106810e-02
-2.138000e-05
-2.089760e-05
-2.080220e-05
-2.089680e-05
-4.519410e-04
-4.746530e-04
-2.090390e-05
-2.138000e-05
-4.746510e-04
-4.972010e-04
-2.089680e-05
-2.080690e-05
-4.746530e-04
-4.519380e-04
-2.138000e-05
-2.089760e-05
-4.972010e-04
-4.746550e-04
-4.519410e-04
-4.746530e-04
-1.135000e-03
-1.124310e-03
-4.746510e-04
-4.972010e-04
-1.124310e-03
-1.113210e-03
-4.746530e-04
-4.519380e-04
-1.124310e-03
-1.135000e-03
-4.972010e-04
-4.746550e-04
-1.113210e-03
-1.124310e-03
-1.135000e-03
-1.124310e-03
4.733720e-04
4.927850e-04
-1.124310e-03
-1.113210e-03
4.927810e-04
5.113590e-04
-1.124310e-03
-1.135000e-03
4.927850e-04
4.733740e-04
-1.113210e-03
-1.124310e-03
5.113590e-04
4.927820e-04
4.733720e-04
4.927850e-04
4.854080e-04
4.909280e-04
4.927810e-04
5.113590e-04
4.909240e-04
4.966640e-04
4.927850e-04
4.733740e-04
4.909280e-04
4.854070e-04
5.113590e-04
4.927820e-04
4.966640e-04
4.909260e-04
4.854080e-04
4.909280e-04
-9.912160e-05
-1.006560e-04
4.909240e-04
4.966640e-04
-1.006500e-04
-1.012900e-04
4.909280e-04
4.854070e-04
-1.006560e-04
-9.912350e-05
4.966640e-04
4.909260e-04
-1.012900e-04
-1.006530e-04
-9.912160e-05
-1.006560e-04
-3.264700e-04
-3.438770e-04
-1.006500e-04
-1.012900e-04
-3.438790e-04
-3.616530e-04
-1.006560e-04
-9.912350e-05
-3.438770e-04
-3.264680e-04
-1.012900e-04
-1.006530e-04
-3.616530e-04
-3.438760e-04
-3.264700e-04
-3.438770e-04
-1.205440e-04
-1.348860e-04
-3.438790e-04
-3.616530e-04
-1.348870e-04
-1.510650e-04
-3.438770e-04
-3.264680e-04
-1.348860e-04
-1.205410e-04
-3.616530e-04
-3.438760e-04
-1.510650e-04
-1.348850e-04
-1.205440e-04
-1.348860e-04
-2.821570e-04
-2.965050e-04
-1.348870e-04
-1.510650e-04
-2.965050e-04
-3.092660e-04
-1.348860e-04
-1.205410e-04
-2.965050e-04
-2.821570e-04
-1.510650e-04
-1.348850e-04
-3.092660e-04
-2.965040e-04
-2.821570e-04
-2.965050e-04
3.951630e-06
-2.923050e-06
-2.965050e-04
-3.092660e-04
-2.922610e-06
-8.630110e-06
-2.965050e-04
-2.821570e-04
-2.923050e-06
3.950490e-06
-3.092660e-04
-2.965040e-04
-8.630110e-06
-2.923440e-06
3.951630e-06
-2.923050e-06
-8.135540e-05
-8.278640e-05
-2.922610e-06
-8.630110e-06
-8.279470e-05
-8.469240e-05
-2.923050e-06
3.950490e-06
-8.278640e-05
-8.135760e-05
-8.630110e-06
-2.923440e-06
-8.469240e-05
-8.279460e-05
-8.135540e-05
-8.278640e-05
-8.293820e-05
-7.748350e-05
-8.279470e-05
-8.469240e-05
-7.746140e-05
-7.108880e-05
-8.278640e-05
-8.135760e-05
-7.748350e-05
-8.293440e-05
-8.469240e-05
-8.279460e-05
-7.108880e-05
-7.746260e-05
-8.293820e-05
-7.748350e-05
-5.419380e-04
-5.356360e-04
-7.746140e-05
-7.108880e-05
-5.356360e-04
-5.309630e-04
-7.748350e-05
-8.293440e-05
-5.356360e-04
-5.419380e-04
-7.108880e-05
-7.746260e-05
-5.309630e-04
-5.356340e-04
-5.419380e-04
-5.356360e-04
-6.021040e-04
-5.922630e-04
-5.356360e-04
-5.309630e-04
-5.922970e-04
-5.789020e-04
-5.356360e-04
-5.419380e-04
-5.922630e-04
-6.021040e-04
-5.309630e-04
-5.356340e-04
-5.789020e-04
-5.922980e-04
-6.021040e-04
-5.922630e-04
-6.420380e-04
-6.254930e-04
-5.922970e-04
-5.789020e-04
-6.255080e-04
-6.115790e-04
-5.922630e-04
-6.021040e-04
-6.254930e-04
-6.420380e-04
-5.789020e-04
-5.922980e-04
-6.115790e-04
-6.255090e-04
-6.420380e-04
-6.254930e-04
-5.139430e-04
-5.126570e-04
-6.255080e-04
-6.115790e-04
-5.126650e-04
-5.099590e-04
-6.254930e-04
-6.420380e-04
-5.126570e-04
-5.139420e-04
-6.115790e-04
-6.255090e-04
-5.099590e-04
-5.126640e-04
-5.139430e-04
-5.126570e-04
-3.781680e-04
-3.666980e-04
-5.126650e-04
-5.099590e-04
-3.667030e-04
-3.567750e-04
-5.126570e-04
-5.139420e-04
-3.666980e-04
-3.781690e-04
-5.099590e-04
-5.126640e-04
-3.567750e-04
-3.667040e-04
-3.781680e-04
-3.666980e-04
-2.429450e-04
-2.656200e-04
-3.667030e-04
-3.567750e-04
-2.657210e-04
-2.858800e-04
-3.666980e-04
-3.781690e-04
-2.656200e-04
-2.429440e-04
-3.567750e-04
-3.667040e-04
-2.858800e-04
-2.657210e-04
-2.429450e-04
-2.656200e-04
-2.581140e-04
-2.703310e-04
-2.657210e-04
-2.858800e-04
-2.703410e-04
-2.854640e-04
-2.656200e-04
-2.429440e-04
-2.703310e-04
-2.581140e-04
-2.858800e-04
-2.657210e-04
-2.854640e-04
-2.703420e-04
-2.581140e-04
-2.703310e-04
-4.046390e-04
-4.165810e-04
-2.703410e-04
-2.854640e-04
-4.165240e-04
-4.289290e-04
-2.703310e-04
-2.581140e-04
-4.165810e-04
-4.046400e-04
-2.854640e-04
-2.703420e-04
-4.289290e-04
-4.165240e-04
-4.046390e-04
-4.165810e-04
-7.098430e-04
-7.012760e-04
-4.165240e-04
-4.289290e-04
-7.012660e-04
-6.905970e-04
-4.165810e-04
-4.046400e-04
-7.012760e-04
-7.098430e-04
-4.289290e-04
-4.165240e-04
-6.905970e-04
-7.012660e-04
-7.098430e-04
-7.012760e-04
-9.446900e-04
-8.813440e-04
-7.012660e-04
-6.905970e-04
-8.813200e-04
-8.178400e-04
-7.012760e-04
-7.098430e-04
-8.813440e-04
-9.446880e-04
-6.905970e-04
-7.012660e-04
-8.178400e-04
-8.813180e-04
-9.446900e-04
-8.813440e-04
-1.453040e-04
-1.663390e-04
-8.813200e-04
-8.178400e-04
-1.663470e-04
-1.723190e-04
-8.813440e-04
-9.446880e-04
-1.663390e-04
-1.453040e-04
-8.178400e-04
-8.813180e-04
-1.723190e-04
-1.663480e-04
-1.453040e-04
-1.663390e-04
9.197840e-04
7.292000e-04
-1.663470e-04
-1.723190e-04
7.292020e-04
6.204980e-04
-1.663390e-04
-1.453040e-04
7.292000e-04
9.197840e-04
-1.723190e-04
-1.663480e-04
6.204980e-04
7.292010e-04
0.000000e+00
0.000000e+00
-6.431100e-02
-6.431200e-02
0.000000e+00
0.000000e+00
-6.431000e-02
-6.431100e-02
0.000000e+00
0.000000e+00
-6.431200e-02
-6.431100e-02
0.000000e+00
0.000000e+00
-6.431100e-02
-6.431000e-02
-6.431100e-02
-6.431200e-02