<?xml version="1.0"?>
<!-- time 52.8204-->
<VTKFile type="UnstructuredGrid" version="0.1" byte_order="LittleEndian">
<UnstructuredGrid>
<Piece NumberOfPoints="7680" NumberOfCells="0">
<Points>
  <DataArray type="Float32" Name="Position" NumberOfComponents="3" format="ascii">
	-350 2049.57 -350
	-350 2049.5 -250
	-350 2049.45 -150
	-350 2049.43 -50
	-350 2049.43 50
	-350 2049.45 150
	-350 2049.5 250
	-350 2049.57 350
	-250 2049.5 -350
	-250 2049.43 -250
	-250 2049.39 -150
	-250 2049.37 -50
	-250 2049.37 50
	-250 2049.39 150
	-250 2049.43 250
	-250 2049.5 350
	-150 2049.45 -350
	-150 2049.39 -250
	-150 2049.35 -150
	-150 2049.33 -50
	-150 2049.33 50
	-150 2049.35 150
	-150 2049.39 250
	-150 2049.45 350
	-50 2049.43 -350
	-50 2049.37 -250
	-50 2049.33 -150
	-50 2049.31 -50
	-50 2049.31 50
	-50 2049.33 150
	-50 2049.37 250
	-50 2049.43 350
	50 2049.43 -350
	50 2049.37 -250
	50 2049.33 -150
	50 2049.31 -50
	50 2049.31 50
	50 2049.33 150
	50 2049.37 250
	50 2049.43 350
	150 2049.45 -350
	150 2049.39 -250
	150 2049.35 -150
	150 2049.33 -50
	150 2049.33 50
	150 2049.35 150
	150 2049.39 250
	150 2049.45 350
	250 2049.5 -350
	250 2049.43 -250
	250 2049.39 -150
	250 2049.37 -50
	250 2049.37 50
	250 2049.39 150
	250 2049.43 250
	250 2049.5 350
	350 2049.57 -350
	350 2049.5 -250
	350 2049.45 -150
	350 2049.43 -50
	350 2049.43 50
	350 2049.45 150
	350 2049.5 250
	350 2049.57 350
	-350 2149.65 -350
	-350 2149.66 -250
	-350 2149.67 -150
	-350 2149.68 -50
	-350 2149.68 50
	-350 2149.67 150
	-350 2149.66 250
	-350 2149.65 350
	-250 2149.66 -350
	-250 2149.68 -250
	-250 2149.68 -150
	-250 2149.68 -50
	-250 2149.68 50
	-250 2149.68 150
	-250 2149.68 250
	-250 2149.66 350
	-150 2149.67 -350
	-150 2149.68 -250
	-150 2149.66 -150
	-150 2149.64 -50
	-150 2149.64 50
	-150 2149.66 150
	-150 2149.68 250
	-150 2149.67 350
	-50 2149.68 -350
	-50 2149.68 -250
	-50 2149.64 -150
	-50 2149.62 -50
	-50 2149.62 50
	-50 2149.64 150
	-50 2149.68 250
	-50 2149.68 350
	50 2149.68 -350
	50 2149.68 -250
	50 2149.64 -150
	50 2149.62 -50
	50 2149.62 50
	50 2149.64 150
	50 2149.68 250
	50 2149.68 350
	150 2149.67 -350
	150 2149.68 -250
	150 2149.66 -150
	150 2149.64 -50
	150 2149.64 50
	150 2149.66 150
	150 2149.68 250
	150 2149.67 350
	250 2149.66 -350
	250 2149.68 -250
	250 2149.68 -150
	250 2149.68 -50
	250 2149.68 50
	250 2149.68 150
	250 2149.68 250
	250 2149.66 350
	350 2149.65 -350
	350 2149.66 -250
	350 2149.67 -150
	350 2149.68 -50
	350 2149.68 50
	350 2149.67 150
	350 2149.66 250
	350 2149.65 350
	-350 2249.7 -350
	-350 2249.7 -250
	-350 2249.69 -150
	-350 2249.69 -50
	-350 2249.69 50
	-350 2249.69 150
	-350 2249.7 250
	-350 2249.7 350
	-250 2249.7 -350
	-250 2249.69 -250
	-250 2249.68 -150
	-250 2249.66 -50
	-250 2249.66 50
	-250 2249.68 150
	-250 2249.69 250
	-250 2249.7 350
	-150 2249.69 -350
	-150 2249.68 -250
	-150 2249.66 -150
	-150 2249.66 -50
	-150 2249.66 50
	-150 2249.66 150
	-150 2249.68 250
	-150 2249.69 350
	-50 2249.69 -350
	-50 2249.66 -250
	-50 2249.66 -150
	-50 2249.65 -50
	-50 2249.65 50
	-50 2249.66 150
	-50 2249.66 250
	-50 2249.69 350
	50 2249.69 -350
	50 2249.66 -250
	50 2249.66 -150
	50 2249.65 -50
	50 2249.65 50
	50 2249.66 150
	50 2249.66 250
	50 2249.69 350
	150 2249.69 -350
	150 2249.68 -250
	150 2249.66 -150
	150 2249.66 -50
	150 2249.66 50
	150 2249.66 150
	150 2249.68 250
	150 2249.69 350
	250 2249.7 -350
	250 2249.69 -250
	250 2249.68 -150
	250 2249.66 -50
	250 2249.66 50
	250 2249.68 150
	250 2249.69 250
	250 2249.7 350
	350 2249.7 -350
	350 2249.7 -250
	350 2249.69 -150
	350 2249.69 -50
	350 2249.69 50
	350 2249.69 150
	350 2249.7 250
	350 2249.7 350
	-350 2349.71 -350
	-350 2349.7 -250
	-350 2349.7 -150
	-350 2349.69 -50
	-350 2349.69 50
	-350 2349.7 150
	-350 2349.7 250
	-350 2349.71 350
	-250 2349.7 -350
	-250 2349.69 -250
	-250 2349.67 -150
	-250 2349.67 -50
	-250 2349.67 50
	-250 2349.67 150
	-250 2349.69 250
	-250 2349.7 350
	-150 2349.7 -350
	-150 2349.67 -250
	-150 2349.67 -150
	-150 2349.67 -50
	-150 2349.67 50
	-150 2349.67 150
	-150 2349.67 250
	-150 2349.7 350
	-50 2349.69 -350
	-50 2349.67 -250
	-50 2349.67 -150
	-50 2349.67 -50
	-50 2349.67 50
	-50 2349.67 150
	-50 2349.67 250
	-50 2349.69 350
	50 2349.69 -350
	50 2349.67 -250
	50 2349.67 -150
	50 2349.67 -50
	50 2349.67 50
	50 2349.67 150
	50 2349.67 250
	50 2349.69 350
	150 2349.7 -350
	150 2349.67 -250
	150 2349.67 -150
	150 2349.67 -50
	150 2349.67 50
	150 2349.67 150
	150 2349.67 250
	150 2349.7 350
	250 2349.7 -350
	250 2349.69 -250
	250 2349.67 -150
	250 2349.67 -50
	250 2349.67 50
	250 2349.67 150
	250 2349.69 250
	250 2349.7 350
	350 2349.71 -350
	350 2349.7 -250
	350 2349.7 -150
	350 2349.69 -50
	350 2349.69 50
	350 2349.7 150
	350 2349.7 250
	350 2349.71 350
	-350 2449.72 -350
	-350 2449.71 -250
	-350 2449.69 -150
	-350 2449.68 -50
	-350 2449.68 50
	-350 2449.69 150
	-350 2449.71 250
	-350 2449.72 350
	-250 2449.71 -350
	-250 2449.68 -250
	-250 2449.67 -150
	-250 2449.67 -50
	-250 2449.67 50
	-250 2449.67 150
	-250 2449.68 250
	-250 2449.71 350
	-150 2449.69 -350
	-150 2449.67 -250
	-150 2449.67 -150
	-150 2449.67 -50
	-150 2449.67 50
	-150 2449.67 150
	-150 2449.67 250
	-150 2449.69 350
	-50 2449.68 -350
	-50 2449.67 -250
	-50 2449.67 -150
	-50 2449.67 -50
	-50 2449.67 50
	-50 2449.67 150
	-50 2449.67 250
	-50 2449.68 350
	50 2449.68 -350
	50 2449.67 -250
	50 2449.67 -150
	50 2449.67 -50
	50 2449.67 50
	50 2449.67 150
	50 2449.67 250
	50 2449.68 350
	150 2449.69 -350
	150 2449.67 -250
	150 2449.67 -150
	150 2449.67 -50
	150 2449.67 50
	150 2449.67 150
	150 2449.67 250
	150 2449.69 350
	250 2449.71 -350
	250 2449.68 -250
	250 2449.67 -150
	250 2449.67 -50
	250 2449.67 50
	250 2449.67 150
	250 2449.68 250
	250 2449.71 350
	350 2449.72 -350
	350 2449.71 -250
	350 2449.69 -150
	350 2449.68 -50
	350 2449.68 50
	350 2449.69 150
	350 2449.71 250
	350 2449.72 350
	-350 2549.73 -350
	-350 2549.71 -250
	-350 2549.69 -150
	-350 2549.68 -50
	-350 2549.68 50
	-350 2549.69 150
	-350 2549.71 250
	-350 2549.73 350
	-250 2549.71 -350
	-250 2549.69 -250
	-250 2549.68 -150
	-250 2549.67 -50
	-250 2549.67 50
	-250 2549.68 150
	-250 2549.69 250
	-250 2549.71 350
	-150 2549.69 -350
	-150 2549.68 -250
	-150 2549.68 -150
	-150 2549.67 -50
	-150 2549.67 50
	-150 2549.68 150
	-150 2549.68 250
	-150 2549.69 350
	-50 2549.68 -350
	-50 2549.67 -250
	-50 2549.67 -150
	-50 2549.67 -50
	-50 2549.67 50
	-50 2549.67 150
	-50 2549.67 250
	-50 2549.68 350
	50 2549.68 -350
	50 2549.67 -250
	50 2549.67 -150
	50 2549.67 -50
	50 2549.67 50
	50 2549.67 150
	50 2549.67 250
	50 2549.68 350
	150 2549.69 -350
	150 2549.68 -250
	150 2549.68 -150
	150 2549.67 -50
	150 2549.67 50
	150 2549.68 150
	150 2549.68 250
	150 2549.69 350
	250 2549.71 -350
	250 2549.69 -250
	250 2549.68 -150
	250 2549.67 -50
	250 2549.67 50
	250 2549.68 150
	250 2549.69 250
	250 2549.71 350
	350 2549.73 -350
	350 2549.71 -250
	350 2549.69 -150
	350 2549.68 -50
	350 2549.68 50
	350 2549.69 150
	350 2549.71 250
	350 2549.73 350
	-350 2649.72 -350
	-350 2649.7 -250
	-350 2649.68 -150
	-350 2649.68 -50
	-350 2649.68 50
	-350 2649.68 150
	-350 2649.7 250
	-350 2649.72 350
	-250 2649.7 -350
	-250 2649.68 -250
	-250 2649.68 -150
	-250 2649.68 -50
	-250 2649.68 50
	-250 2649.68 150
	-250 2649.68 250
	-250 2649.7 350
	-150 2649.68 -350
	-150 2649.68 -250
	-150 2649.67 -150
	-150 2649.67 -50
	-150 2649.67 50
	-150 2649.67 150
	-150 2649.68 250
	-150 2649.68 350
	-50 2649.68 -350
	-50 2649.68 -250
	-50 2649.67 -150
	-50 2649.67 -50
	-50 2649.67 50
	-50 2649.67 150
	-50 2649.68 250
	-50 2649.68 350
	50 2649.68 -350
	50 2649.68 -250
	50 2649.67 -150
	50 2649.67 -50
	50 2649.67 50
	50 2649.67 150
	50 2649.68 250
	50 2649.68 350
	150 2649.68 -350
	150 2649.68 -250
	150 2649.67 -150
	150 2649.67 -50
	150 2649.67 50
	150 2649.67 150
	150 2649.68 250
	150 2649.68 350
	250 2649.7 -350
	250 2649.68 -250
	250 2649.68 -150
	250 2649.68 -50
	250 2649.68 50
	250 2649.68 150
	250 2649.68 250
	250 2649.7 350
	350 2649.72 -350
	350 2649.7 -250
	350 2649.68 -150
	350 2649.68 -50
	350 2649.68 50
	350 2649.68 150
	350 2649.7 250
	350 2649.72 350
	-350 2749.71 -350
	-350 2749.69 -250
	-350 2749.69 -150
	-350 2749.68 -50
	-350 2749.68 50
	-350 2749.69 150
	-350 2749.69 250
	-350 2749.71 350
	-250 2749.69 -350
	-250 2749.69 -250
	-250 2749.68 -150
	-250 2749.68 -50
	-250 2749.68 50
	-250 2749.68 150
	-250 2749.69 250
	-250 2749.69 350
	-150 2749.69 -350
	-150 2749.68 -250
	-150 2749.67 -150
	-150 2749.67 -50
	-150 2749.67 50
	-150 2749.67 150
	-150 2749.68 250
	-150 2749.69 350
	-50 2749.68 -350
	-50 2749.68 -250
	-50 2749.67 -150
	-50 2749.67 -50
	-50 2749.67 50
	-50 2749.67 150
	-50 2749.68 250
	-50 2749.68 350
	50 2749.68 -350
	50 2749.68 -250
	50 2749.67 -150
	50 2749.67 -50
	50 2749.67 50
	50 2749.67 150
	50 2749.68 250
	50 2749.68 350
	150 2749.69 -350
	150 2749.68 -250
	150 2749.67 -150
	150 2749.67 -50
	150 2749.67 50
	150 2749.67 150
	150 2749.68 250
	150 2749.69 350
	250 2749.69 -350
	250 2749.69 -250
	250 2749.68 -150
	250 2749.68 -50
	250 2749.68 50
	250 2749.68 150
	250 2749.69 250
	250 2749.69 350
	350 2749.71 -350
	350 2749.69 -250
	350 2749.69 -150
	350 2749.68 -50
	350 2749.68 50
	350 2749.69 150
	350 2749.69 250
	350 2749.71 350
	-350 2849.7 -350
	-350 2849.69 -250
	-350 2849.69 -150
	-350 2849.68 -50
	-350 2849.68 50
	-350 2849.69 150
	-350 2849.69 250
	-350 2849.7 350
	-250 2849.69 -350
	-250 2849.68 -250
	-250 2849.68 -150
	-250 2849.67 -50
	-250 2849.67 50
	-250 2849.68 150
	-250 2849.68 250
	-250 2849.69 350
	-150 2849.69 -350
	-150 2849.68 -250
	-150 2849.67 -150
	-150 2849.67 -50
	-150 2849.67 50
	-150 2849.67 150
	-150 2849.68 250
	-150 2849.69 350
	-50 2849.68 -350
	-50 2849.67 -250
	-50 2849.67 -150
	-50 2849.67 -50
	-50 2849.67 50
	-50 2849.67 150
	-50 2849.67 250
	-50 2849.68 350
	50 2849.68 -350
	50 2849.67 -250
	50 2849.67 -150
	50 2849.67 -50
	50 2849.67 50
	50 2849.67 150
	50 2849.67 250
	50 2849.68 350
	150 2849.69 -350
	150 2849.68 -250
	150 2849.67 -150
	150 2849.67 -50
	150 2849.67 50
	150 2849.67 150
[...]
<PointData  Vectors="vector">
  <DataArray type="Float32" Name="Velocity" NumberOfComponents="3" format="ascii">
 -3.03525e-05 0.0149135 -3.0352e-05
 -3.10391e-05 0.00744336 -3.4757e-06
 -3.1384e-05 0.00263662 -7.2539e-06
 -3.15142e-05 0.000382307 -1.20579e-05
 -3.1514e-05 0.000382308 1.2057e-05
 -3.13839e-05 0.00263662 7.25514e-06
 -3.10392e-05 0.00744336 3.47364e-06
 -3.03525e-05 0.0149135 3.03528e-05
 -3.47425e-06 0.00744336 -3.10387e-05
 -8.55457e-06 0.000291736 -8.55534e-06
 -1.16473e-05 -0.00441949 -4.09912e-06
 -1.24848e-05 -0.00668133 -1.0953e-05
 -1.24849e-05 -0.00668133 1.09522e-05
 -1.1647e-05 -0.00441949 4.10023e-06
 -8.55351e-06 0.000291737 8.55306e-06
 -3.47315e-06 0.00744336 3.10398e-05
 -7.25464e-06 0.00263662 -3.13836e-05
 -4.0996e-06 -0.00441949 -1.1648e-05
 -2.6511e-06 -0.00901786 -2.65076e-06
 -2.17442e-06 -0.0111739 -1.04247e-05
 -2.17438e-06 -0.0111739 1.04244e-05
 -2.65124e-06 -0.00901785 2.65156e-06
 -4.09994e-06 -0.00441949 1.16458e-05
 -7.25506e-06 0.00263662 3.13845e-05
 -1.20572e-05 0.000382307 -3.15139e-05
 -1.09521e-05 -0.00668133 -1.24853e-05
 -1.0424e-05 -0.0111739 -2.17402e-06
 -1.04213e-05 -0.0132848 -1.04223e-05
 -1.04213e-05 -0.0132848 1.04218e-05
 -1.04241e-05 -0.0111739 2.17482e-06
 -1.09524e-05 -0.00668133 1.24834e-05
 -1.20573e-05 0.000382308 3.15149e-05
 1.20574e-05 0.000382307 -3.15139e-05
 1.09524e-05 -0.00668133 -1.24855e-05
 1.04242e-05 -0.0111739 -2.17399e-06
 1.04215e-05 -0.0132848 -1.04222e-05
 1.04216e-05 -0.0132848 1.04218e-05
 1.04242e-05 -0.0111739 2.17482e-06
 1.09524e-05 -0.00668133 1.24834e-05
 1.20573e-05 0.000382308 3.15149e-05
 7.25486e-06 0.00263662 -3.13836e-05
 4.10006e-06 -0.00441949 -1.16482e-05
 2.65164e-06 -0.00901786 -2.65071e-06
 2.17503e-06 -0.0111739 -1.04246e-05
 2.17508e-06 -0.0111739 1.04243e-05
 2.65212e-06 -0.00901785 2.65156e-06
 4.10104e-06 -0.00441949 1.16462e-05
 7.25658e-06 0.00263662 3.13846e-05
 3.47484e-06 0.00744336 -3.10387e-05
 8.55454e-06 0.000291736 -8.55574e-06
 1.16472e-05 -0.00441949 -4.09899e-06
 1.24845e-05 -0.00668133 -1.09527e-05
 1.24844e-05 -0.00668133 1.09522e-05
 1.16463e-05 -0.00441949 4.10011e-06
 8.55273e-06 0.000291737 8.55375e-06
 3.47206e-06 0.00744336 3.10398e-05
 3.03526e-05 0.0149135 -3.0352e-05
 3.10395e-05 0.00744336 -3.47607e-06
 3.13845e-05 0.00263662 -7.25362e-06
 3.15148e-05 0.000382307 -1.20578e-05
 3.15147e-05 0.000382308 1.2057e-05
 3.13847e-05 0.00263662 7.25486e-06
 3.104e-05 0.00744336 3.47456e-06
 3.03533e-05 0.0149135 3.0353e-05
 -4.99602e-05 -0.0322665 -4.99608e-05
 -4.76864e-05 -0.0247769 -5.34432e-05
 -5.21375e-05 -0.0188335 -3.0845e-05
 -5.41062e-05 -0.0163883 -3.80982e-05
 -5.41064e-05 -0.0163883 3.80993e-05
 -5.21376e-05 -0.0188335 3.08442e-05
 -4.76869e-05 -0.0247769 5.34427e-05
 -4.99606e-05 -0.0322665 4.99602e-05
 -5.34431e-05 -0.0247769 -4.76866e-05
 -3.77228e-05 -0.0163243 -3.7723e-05
 -4.69116e-05 -0.0129654 -4.31092e-05
 -3.82568e-05 0.00469014 -1.4535e-05
 -3.82568e-05 0.00469012 1.45355e-05
 -4.69118e-05 -0.0129654 4.31084e-05
 -3.77228e-05 -0.0163243 3.77229e-05
 -5.34433e-05 -0.0247769 4.76861e-05
 -3.08447e-05 -0.0188335 -5.21374e-05
 -4.31087e-05 -0.0129654 -4.6912e-05
 -1.44711e-05 0.031397 -1.44717e-05
 -1.07698e-05 0.0301973 3.1741e-06
 -1.07698e-05 0.0301973 -3.17374e-06
 -1.44712e-05 0.031397 1.44707e-05
 -4.31087e-05 -0.0129654 4.6912e-05
 -3.08447e-05 -0.0188335 5.21373e-05
 -3.80989e-05 -0.0163883 -5.41065e-05
 -1.4534e-05 0.00469016 -3.82569e-05
 3.17465e-06 0.0301973 -1.077e-05
 -3.19512e-06 0.0281598 -3.19549e-06
 -3.19514e-06 0.0281598 3.19565e-06
 3.17435e-06 0.0301973 1.07694e-05
 -1.45347e-05 0.00469009 3.8257e-05
 -3.80988e-05 -0.0163883 5.41061e-05
 3.80989e-05 -0.0163883 -5.41065e-05
 1.45341e-05 0.00469015 -3.82569e-05
 -3.17462e-06 0.0301973 -1.077e-05
 3.19512e-06 0.0281598 -3.19548e-06
 3.19523e-06 0.0281598 3.19558e-06
 -3.17417e-06 0.0301973 1.07695e-05
 1.45349e-05 0.00469009 3.8257e-05
 3.8099e-05 -0.0163883 5.41061e-05
 3.0845e-05 -0.0188335 -5.21375e-05
 4.31089e-05 -0.0129654 -4.69119e-05
 1.44713e-05 0.031397 -1.44716e-05
 1.077e-05 0.0301973 3.17414e-06
 1.07699e-05 0.0301973 -3.17395e-06
 1.44713e-05 0.031397 1.4471e-05
 4.31088e-05 -0.0129654 4.69119e-05
 3.08448e-05 -0.0188335 5.21373e-05
 5.34431e-05 -0.0247769 -4.76868e-05
 3.77229e-05 -0.0163243 -3.77228e-05
 4.69118e-05 -0.0129654 -4.31089e-05
 3.82568e-05 0.00469014 -1.45347e-05
 3.82569e-05 0.00469012 1.4535e-05
 4.69119e-05 -0.0129654 4.31086e-05
 3.7723e-05 -0.0163243 3.77228e-05
 5.34433e-05 -0.0247769 4.76864e-05
 4.99604e-05 -0.0322665 -4.99609e-05
 4.76865e-05 -0.0247769 -5.34432e-05
 5.21376e-05 -0.0188335 -3.08446e-05
 5.41065e-05 -0.0163883 -3.80982e-05
 5.41066e-05 -0.0163883 3.80988e-05
 5.21377e-05 -0.0188335 3.08446e-05
 4.7687e-05 -0.0247769 5.34428e-05
 4.99608e-05 -0.0322665 4.99604e-05
 -1.45816e-05 -0.00798409 -1.45821e-05
 -1.24711e-05 -0.0098506 -6.10496e-06
 -1.31606e-05 -0.00904081 -8.48363e-06
 -1.33909e-05 -0.00809119 -3.40194e-06
 -1.33909e-05 -0.00809119 3.40277e-06
 -1.31606e-05 -0.00904076 8.48255e-06
 -1.24713e-05 -0.0098506 6.10436e-06
 -1.45822e-05 -0.00798412 1.45822e-05
 -6.10462e-06 -0.00985061 -1.24714e-05
 -8.10888e-06 -0.00873115 -8.10958e-06
 -7.09828e-06 0.0293758 -1.0283e-05
 -7.00552e-06 0.0169416 -4.12499e-06
 -7.0056e-06 0.0169416 4.12534e-06
 -7.09838e-06 0.0293758 1.02825e-05
 -8.10901e-06 -0.00873114 8.10953e-06
 -6.10457e-06 -0.0098506 1.24709e-05
 -8.48299e-06 -0.00904081 -1.31608e-05
 -1.02827e-05 0.0293758 -7.09898e-06
 -9.94695e-06 -0.010974 -9.94756e-06
 -9.72404e-06 -0.0120718 -3.53022e-06
 -9.7241e-06 -0.0120719 3.53056e-06
 -9.9469e-06 -0.0109739 9.94695e-06
 -1.02825e-05 0.0293758 7.09904e-06
 -8.48275e-06 -0.00904076 1.31603e-05
 -3.40348e-06 -0.0080912 -1.33912e-05
 -4.12517e-06 0.0169415 -7.00608e-06
 -3.53036e-06 -0.0120718 -9.72476e-06
 -3.25051e-06 -0.0135844 -3.25035e-06
 -3.25057e-06 -0.0135844 3.25068e-06
 -3.53053e-06 -0.0120719 9.72414e-06
 -4.12532e-06 0.0169416 7.00615e-06
 -3.40307e-06 -0.00809119 1.33908e-05
 3.40337e-06 -0.0080912 -1.33912e-05
 4.12509e-06 0.0169415 -7.0059e-06
 3.53036e-06 -0.0120718 -9.72445e-06
 3.25031e-06 -0.0135844 -3.25025e-06
 3.25038e-06 -0.0135844 3.2504e-06
 3.53028e-06 -0.0120719 9.72405e-06
 4.12507e-06 0.0169416 7.00586e-06
 3.40263e-06 -0.00809119 1.33909e-05
 8.48308e-06 -0.00904082 -1.31608e-05
 1.02827e-05 0.0293758 -7.09878e-06
 9.94697e-06 -0.010974 -9.94749e-06
 9.72421e-06 -0.0120718 -3.53019e-06
 9.72426e-06 -0.0120719 3.53045e-06
 9.94713e-06 -0.0109739 9.947e-06
 1.02827e-05 0.0293758 7.09885e-06
 8.48315e-06 -0.00904076 1.31604e-05
 6.1047e-06 -0.00985061 -1.24713e-05
 8.10877e-06 -0.00873115 -8.10943e-06
 7.09822e-06 0.0293758 -1.0283e-05
 7.00547e-06 0.0169416 -4.12504e-06
 7.00555e-06 0.0169416 4.12526e-06
 7.09832e-06 0.0293758 1.02826e-05
 8.10897e-06 -0.00873114 8.10938e-06
 6.10455e-06 -0.00985061 1.2471e-05
 1.45816e-05 -0.00798409 -1.45818e-05
 1.24712e-05 -0.00985061 -6.10499e-06
 1.31606e-05 -0.00904081 -8.4835e-06
 1.3391e-05 -0.0080912 -3.40221e-06
 1.33911e-05 -0.00809119 3.4026e-06
 1.31608e-05 -0.00904076 8.48292e-06
 1.24715e-05 -0.0098506 6.10448e-06
 1.45823e-05 -0.00798412 1.4582e-05
 2.96028e-06 -0.00817814 2.96023e-06
 2.75038e-06 -0.012948 1.83146e-06
 2.58803e-06 -0.0101451 -5.24593e-06
 2.46087e-06 0.00566616 -5.90854e-07
 2.46086e-06 0.00566614 5.91648e-07
 2.58799e-06 -0.0101452 5.24503e-06
 2.75008e-06 -0.012948 -1.83181e-06
 2.96027e-06 -0.00817815 -2.96037e-06
 1.8314e-06 -0.012948 2.74997e-06
 2.05905e-06 0.00461589 2.05939e-06
 2.42111e-06 0.00230365 -1.04298e-05
 2.72142e-06 -0.00705615 -3.67158e-06
 2.72142e-06 -0.00705614 3.67276e-06
 2.4211e-06 0.00230366 1.04285e-05
 2.05927e-06 0.00461581 -2.05959e-06
 1.83126e-06 -0.012948 -2.75025e-06
 -5.2448e-06 -0.0101451 2.58759e-06
 -1.04326e-05 0.00230364 2.42152e-06
 -7.51068e-06 -0.00612387 -7.52139e-06
 -5.07559e-06 -0.00356273 -5.98025e-06
 -5.0758e-06 -0.00356268 5.9806e-06
 -7.51066e-06 -0.00612377 7.52081e-06
 -1.04326e-05 0.00230366 -2.42144e-06
 -5.24495e-06 -0.0101452 -2.58804e-06
 -5.95818e-07 0.00566621 2.46045e-06
 -3.67067e-06 -0.00705617 2.7218e-06
 -6.00715e-06 -0.00356278 -5.07819e-06
 -6.17141e-06 -0.00219834 -6.17398e-06
 -6.17171e-06 -0.0021983 6.17425e-06
 -6.00791e-06 -0.00356264 5.0778e-06
 -3.67255e-06 -0.00705613 -2.72196e-06
 -5.96769e-07 0.0056661 -2.46076e-06
 5.95976e-07 0.00566621 2.46046e-06
 3.67066e-06 -0.00705617 2.7218e-06
 6.00703e-06 -0.00356279 -5.07808e-06
 6.17128e-06 -0.00219834 -6.17417e-06
 6.17156e-06 -0.0021983 6.17448e-06
 6.00768e-06 -0.00356264 5.07766e-06
 3.67187e-06 -0.00705613 -2.72196e-06
 5.96214e-07 0.0056661 -2.46075e-06
 5.2445e-06 -0.0101451 2.58758e-06
 1.04324e-05 0.00230364 2.42149e-06
 7.51062e-06 -0.00612387 -7.52086e-06
 5.07553e-06 -0.00356273 -5.98067e-06
 5.07578e-06 -0.00356269 5.9809e-06
 7.5107e-06 -0.00612377 7.5205e-06
 1.04331e-05 0.00230366 -2.42153e-06
 5.24532e-06 -0.0101452 -2.58794e-06
 -1.8316e-06 -0.012948 2.74994e-06
 -2.05914e-06 0.00461588 2.05938e-06
 -2.42115e-06 0.00230366 -1.04297e-05
 -2.72148e-06 -0.00705615 -3.67133e-06
 -2.72153e-06 -0.00705615 3.6724e-06
 -2.42118e-06 0.00230366 1.04286e-05
 -2.05932e-06 0.00461581 -2.05955e-06
 -1.83131e-06 -0.012948 -2.75021e-06
 -2.96033e-06 -0.00817814 2.96016e-06
 -2.75048e-06 -0.012948 1.83148e-06
 -2.58815e-06 -0.0101451 -5.24581e-06
 -2.46095e-06 0.00566615 -5.90617e-07
 -2.46091e-06 0.00566613 5.91318e-07
 -2.58806e-06 -0.0101452 5.24502e-06
 -2.75017e-06 -0.012948 -1.83168e-06
 -2.96034e-06 -0.00817815 -2.96033e-06
 3.42375e-06 -0.000326315 3.4241e-06
 4.40293e-06 0.00396245 2.82075e-06
 2.77027e-06 0.0370896 -2.36289e-07
 1.99127e-07 0.0229474 -1.45506e-07
 1.99016e-07 0.0229474 1.45407e-07
 2.76966e-06 0.0370895 2.36203e-07
 4.40296e-06 0.00396241 -2.82091e-06
 3.42385e-06 -0.000326281 -3.42417e-06
 2.82128e-06 0.00396245 4.40325e-06
 1.61417e-06 0.0244904 1.61374e-06
 2.96342e-06 -0.0085173 -1.42839e-07
 5.41871e-06 -0.00300065 3.19552e-08
 5.41878e-06 -0.00300067 -3.19272e-08
 2.96392e-06 -0.00851728 1.42502e-07
 1.61399e-06 0.0244904 -1.61393e-06
 2.82101e-06 0.0039624 -4.40319e-06
 -2.36705e-07 0.0370896 2.76487e-06
 -1.43121e-07 -0.0085173 2.96864e-06
 1.21325e-07 -0.00205343 1.21691e-07
 2.65031e-07 -0.00598062 2.21607e-07
 2.65054e-07 -0.00598067 -2.21656e-07
 1.21401e-07 -0.00205352 -1.21929e-07
 -1.43e-07 -0.00851728 -2.9687e-06
 -2.36618e-07 0.0370895 -2.76497e-06
 -1.46104e-07 0.0229473 1.97125e-07
 3.13656e-08 -0.00300062 5.42056e-06
 2.21109e-07 -0.00598058 2.6537e-07
 2.70687e-07 -0.0104058 2.71177e-07
 2.70745e-07 -0.0104058 -2.71233e-07
 2.21207e-07 -0.00598071 -2.6558e-07
 3.1548e-08 -0.00300071 -5.42096e-06
 -1.45818e-07 0.0229474 -1.96903e-07
 1.45924e-07 0.0229473 1.97162e-07
 -3.15156e-08 -0.00300062 5.42051e-06
 -2.21248e-07 -0.00598058 2.65374e-07
 -2.70852e-07 -0.0104058 2.71165e-07
 -2.70897e-07 -0.0104058 -2.71234e-07
 -2.21376e-07 -0.00598071 -2.65567e-07
 -3.17167e-08 -0.00300071 -5.42094e-06
 1.45684e-07 0.0229474 -1.96902e-07
 2.36624e-07 0.0370896 2.76441e-06
 1.42998e-07 -0.0085173 2.96903e-06
 -1.21461e-07 -0.00205343 1.21719e-07
 -2.65124e-07 -0.00598062 2.21574e-07
 -2.65171e-07 -0.00598067 -2.2166e-07
 -1.21506e-07 -0.00205352 -1.21892e-07
 1.42894e-07 -0.00851728 -2.96926e-06
 2.36462e-07 0.0370895 -2.76435e-06
 -2.82143e-06 0.00396245 4.40321e-06
 -1.6143e-06 0.0244904 1.61369e-06
 -2.9637e-06 -0.0085173 -1.42813e-07
 -5.41896e-06 -0.00300065 3.19242e-08
 -5.41897e-06 -0.00300067 -3.19431e-08
 -2.96415e-06 -0.00851728 1.42547e-07
 -1.61414e-06 0.0244904 -1.61385e-06
 -2.82116e-06 0.0039624 -4.40318e-06
 -3.42391e-06 -0.000326312 3.42405e-06
 -4.40307e-06 0.00396245 2.82067e-06
 -2.77025e-06 0.0370896 -2.36255e-07
 -1.99164e-07 0.0229474 -1.45585e-07
 -1.99106e-07 0.0229474 1.45407e-07
 -2.76971e-06 0.0370895 2.36281e-07
 -4.40309e-06 0.00396241 -2.82079e-06
 -3.42397e-06 -0.00032628 -3.42418e-06
 2.52909e-06 -0.00984555 2.52927e-06
 2.52988e-06 0.018819 -4.03721e-07
 2.48974e-06 0.00303018 -4.40725e-07
 2.46084e-06 0.00218919 2.16214e-07
 2.46081e-06 0.00218919 -2.15677e-07
 2.48972e-06 0.00303009 4.39655e-07
 2.52991e-06 0.0188189 4.03942e-07
 2.52907e-06 -0.00984548 -2.52924e-06
 -4.03773e-07 0.018819 2.53011e-06
 -3.22342e-07 0.0037198 -3.22421e-07
 -2.93785e-07 0.00349658 -3.31198e-07
 -2.90961e-07 0.00232782 3.73878e-07
 -2.90911e-07 0.00232783 -3.73439e-07
 -2.9379e-07 0.00349657 3.30294e-07
 -3.22451e-07 0.00371981 3.2254e-07
 -4.03825e-07 0.0188189 -2.53006e-06
 -4.40424e-07 0.00303016 2.48996e-06
 -3.3106e-07 0.00349658 -2.93827e-07
 -2.56001e-07 0.00244337 -2.56196e-07
 -1.90167e-07 0.00319589 4.61863e-07
 -1.9019e-07 0.0031959 -4.61387e-07
 -2.56006e-07 0.00244333 2.55233e-07
 -3.31008e-07 0.00349657 2.9393e-07
 -4.40399e-07 0.0030301 -2.48988e-06
 2.15495e-07 0.00218917 2.46107e-06
 3.73245e-07 0.00232781 -2.90964e-07
 4.61233e-07 0.00319589 -1.90435e-07
 4.77071e-07 0.0029213 4.77694e-07
 4.77071e-07 0.00292131 -4.77196e-07
 4.61269e-07 0.00319591 1.89387e-07
 3.73307e-07 0.00232786 2.91139e-07
 2.15594e-07 0.00218917 -2.46102e-06
 -2.15692e-07 0.00218917 2.46106e-06
 -3.73402e-07 0.00232781 -2.90961e-07
 -4.61419e-07 0.00319589 -1.90434e-07
 -4.77218e-07 0.0029213 4.7768e-07
 -4.77233e-07 0.00292131 -4.77193e-07
 -4.61429e-07 0.00319591 1.89394e-07
 -3.7348e-07 0.00232786 2.91143e-07
 -2.15766e-07 0.00218918 -2.46102e-06
 4.4038e-07 0.00303016 2.48995e-06
 3.30955e-07 0.00349658 -2.93842e-07
 2.5593e-07 0.00244337 -2.56223e-07
 1.90025e-07 0.00319589 4.61843e-07
 1.90053e-07 0.0031959 -4.61364e-07
 2.55858e-07 0.00244333 2.55228e-07
 3.30874e-07 0.00349657 2.93956e-07
 4.40256e-07 0.0030301 -2.48989e-06
 4.0364e-07 0.018819 2.5301e-06
 3.22209e-07 0.0037198 -3.22448e-07
 2.9365e-07 0.00349658 -3.31224e-07
 2.90823e-07 0.00232782 3.73829e-07
 2.90776e-07 0.00232783 -3.73422e-07
 2.93643e-07 0.00349657 3.30337e-07
 3.22287e-07 0.00371981 3.22557e-07
 4.03653e-07 0.0188189 -2.53007e-06
 -2.52927e-06 -0.00984555 2.52924e-06
 -2.53004e-06 0.018819 -4.03729e-07
 -2.48991e-06 0.00303018 -4.40754e-07
 -2.46099e-06 0.00218919 2.16133e-07
 -2.46097e-06 0.00218919 -2.15655e-07
 -2.48987e-06 0.0030301 4.39725e-07
 -2.53006e-06 0.0188189 4.0395e-07
 -2.52922e-06 -0.00984547 -2.52924e-06
 2.54056e-06 0.00944206 2.54074e-06
 2.67148e-06 0.0218082 2.21371e-07
 2.70074e-06 -0.000111145 3.06448e-07
 2.66396e-06 -0.00354909 6.83857e-07
 2.66395e-06 -0.00354908 -6.83641e-07
 2.70073e-06 -0.00011097 -3.06859e-07
 2.6715e-06 0.0218082 -2.21484e-07
 2.54057e-06 0.00944193 -2.54067e-06
 2.21456e-07 0.0218082 2.67159e-06
 2.67046e-07 -0.00513723 2.67112e-07
 2.46313e-07 -0.00947539 3.03007e-07
 2.46526e-07 -0.00856625 6.61499e-07
 2.46539e-07 -0.00856628 -6.61429e-07
 2.46345e-07 -0.00947541 -3.03223e-07
 2.67037e-07 -0.00513722 -2.67204e-07
 2.21435e-07 0.0218082 -2.6716e-06
 3.06487e-07 -0.000111153 2.70083e-06
 3.03186e-07 -0.00947539 2.46413e-07
 2.8376e-07 -0.00330552 2.83558e-07
 3.0028e-07 -0.00495877 6.75903e-07
 3.00276e-07 -0.00495878 -6.75878e-07
 2.83719e-07 -0.00330559 -2.83718e-07
 3.03133e-07 -0.00947542 -2.46502e-07
 3.06486e-07 -0.000110939 -2.70086e-06
 6.83544e-07 -0.00354908 2.66408e-06
 6.61038e-07 -0.00856623 2.46546e-07
 6.75413e-07 -0.00495876 3.00164e-07
 6.60674e-07 -0.00028092 6.61081e-07
 6.60671e-07 -0.000280959 -6.60981e-07
 6.75424e-07 -0.00495879 -3.00428e-07
 6.61098e-07 -0.00856633 -2.46664e-07
 6.83542e-07 -0.00354906 -2.66406e-06
 -6.83673e-07 -0.00354908 2.66407e-06
 -6.61175e-07 -0.00856623 2.46551e-07
 -6.75554e-07 -0.00495876 3.00156e-07
 -6.60812e-07 -0.000280921 6.61073e-07
 -6.6083e-07 -0.000280959 -6.60971e-07
 -6.75586e-07 -0.00495879 -3.00432e-07
 -6.61265e-07 -0.00856633 -2.46667e-07
 -6.83713e-07 -0.00354906 -2.66406e-06
 -3.06547e-07 -0.000111153 2.70083e-06
 -3.03248e-07 -0.00947539 2.46418e-07
 -2.83834e-07 -0.00330552 2.83516e-07
 -3.0038e-07 -0.00495877 6.75905e-07
 -3.00366e-07 -0.00495878 -6.75863e-07
 -2.83826e-07 -0.00330559 -2.83719e-07
 -3.03252e-07 -0.00947542 -2.46517e-07
 -3.06613e-07 -0.000110941 -2.70085e-06
 -2.21558e-07 0.0218082 2.67158e-06
 -2.67151e-07 -0.00513724 2.67111e-07
 -2.46425e-07 -0.00947539 3.02995e-07
 -2.46647e-07 -0.00856625 6.61465e-07
 -2.4667e-07 -0.00856628 -6.61416e-07
 -2.46479e-07 -0.00947541 -3.03208e-07
 -2.67179e-07 -0.00513723 -2.6721e-07
 -2.21586e-07 0.0218082 -2.6716e-06
 -2.54069e-06 0.00944205 2.54072e-06
 -2.67161e-06 0.0218082 2.21383e-07
 -2.70088e-06 -0.000111147 3.0641e-07
 -2.66409e-06 -0.00354909 6.83832e-07
 -2.66409e-06 -0.00354909 -6.83636e-07
 -2.70088e-06 -0.000110973 -3.06827e-07
 -2.67165e-06 0.0218082 -2.21505e-07
 -2.54073e-06 0.00944192 -2.54066e-06
 4.68366e-06 0.0247275 4.68372e-06
 4.79795e-06 0.00908242 2.36273e-06
 4.89155e-06 0.00733347 1.94673e-06
 4.9009e-06 0.00561335 1.19629e-06
 4.90089e-06 0.00561334 -1.19636e-06
 4.89157e-06 0.00733339 -1.94678e-06
 4.79793e-06 0.00908254 -2.36279e-06
 4.68366e-06 0.0247276 -4.6838e-06
 2.3628e-06 0.0090824 4.798e-06
 2.38492e-06 0.0066609 2.38484e-06
 2.31083e-06 0.00182895 1.72674e-06
 2.28204e-06 -0.00236885 1.10993e-06
 2.28206e-06 -0.00236884 -1.11002e-06
 2.31081e-06 0.00182894 -1.72677e-06
 2.38496e-06 0.00666086 -2.38491e-06
 2.36281e-06 0.00908257 -4.79809e-06
 1.94674e-06 0.00733347 4.8916e-06
 1.72673e-06 0.00182894 2.31075e-06
 1.63631e-06 -0.00347028 1.63636e-06
 1.59394e-06 -0.00565275 1.07461e-06
 1.59392e-06 -0.00565275 -1.07468e-06
 1.63632e-06 -0.00347027 -1.63641e-06
 1.72672e-06 0.00182894 -2.31081e-06
 1.94673e-06 0.00733338 -4.89168e-06
 1.19617e-06 0.00561335 4.90094e-06
 1.10984e-06 -0.00236886 2.28197e-06
 1.07458e-06 -0.00565274 1.59396e-06
 1.06205e-06 -0.0107387 1.06211e-06
 1.06206e-06 -0.0107387 -1.06217e-06
 1.07456e-06 -0.00565275 -1.59404e-06
 1.1098e-06 -0.00236881 -2.28204e-06
 1.19614e-06 0.0056133 -4.90101e-06
 -1.19624e-06 0.00561335 4.90093e-06
 -1.10993e-06 -0.00236886 2.28199e-06
 -1.07466e-06 -0.00565274 1.59396e-06
 -1.06215e-06 -0.0107387 1.0621e-06
 -1.06218e-06 -0.0107387 -1.06217e-06
 -1.07469e-06 -0.00565275 -1.59403e-06
 -1.10999e-06 -0.00236881 -2.28206e-06
 -1.19628e-06 0.0056133 -4.901e-06
 -1.94679e-06 0.00733347 4.8916e-06
 -1.72677e-06 0.00182894 2.31075e-06
 -1.63638e-06 -0.00347029 1.63636e-06
 -1.59401e-06 -0.00565275 1.07462e-06
 -1.594e-06 -0.00565275 -1.07469e-06
 -1.63641e-06 -0.00347027 -1.63642e-06
 -1.72676e-06 0.00182894 -2.31081e-06
 -1.94683e-06 0.00733338 -4.89168e-06
 -2.36285e-06 0.0090824 4.798e-06
 -2.38497e-06 0.0066609 2.38486e-06
 -2.31091e-06 0.00182895 1.72674e-06
 -2.28212e-06 -0.00236885 1.10992e-06
 -2.28215e-06 -0.00236884 -1.11001e-06
 -2.31092e-06 0.00182894 -1.72678e-06
 -2.38506e-06 0.00666086 -2.38492e-06
 -2.36294e-06 0.00908257 -4.79808e-06
 -4.68371e-06 0.0247275 4.68371e-06
 -4.79802e-06 0.00908243 2.36275e-06
 -4.89161e-06 0.00733347 1.94672e-06
 -4.90098e-06 0.00561335 1.19628e-06
 -4.90098e-06 0.00561334 -1.19635e-06
 -4.89166e-06 0.00733339 -1.94679e-06
 -4.79807e-06 0.00908255 -2.3628e-06
 -4.68378e-06 0.0247276 -4.68378e-06
 7.72841e-06 0.0138746 7.72839e-06
 7.68841e-06 -0.00702454 5.01825e-06
 7.75355e-06 -0.00420649 3.83097e-06
 7.76264e-06 -0.00203814 1.87641e-06
 7.76262e-06 -0.00203812 -1.87654e-06
 7.75354e-06 -0.00420634 -3.83102e-06
 7.6884e-06 -0.00702457 -5.01828e-06
 7.7284e-06 0.0138747 -7.72853e-06
 5.01842e-06 -0.00702453 7.68843e-06
 5.01089e-06 -0.0031889 5.01066e-06
 4.9315e-06 0.00252693 3.61868e-06
 4.88728e-06 0.00541029 1.75635e-06
 4.88732e-06 0.00541029 -1.75647e-06
 4.93148e-06 0.00252695 -3.61873e-06
 5.01089e-06 -0.0031888 -5.0107e-06
 5.01842e-06 -0.00702457 -7.68856e-06
 3.83094e-06 -0.0042065 7.75357e-06
 3.61861e-06 0.00252693 4.93127e-06
 3.49199e-06 0.000634588 3.49208e-06
 3.45551e-06 -0.000465268 1.71224e-06
 3.45549e-06 -0.000465273 -1.71234e-06
 3.49203e-06 0.000634845 -3.49214e-06
 3.61858e-06 0.00252696 -4.93132e-06
 3.83089e-06 -0.00420631 -7.75369e-06
 1.87649e-06 -0.00203816 7.76264e-06
 1.75643e-06 0.00541029 4.88713e-06