<?xml version="1.0"?>
<VTKFile type="UnstructuredGrid" version="0.1" byte_order="LittleEndian" compressor="vtkZLibDataCompressor">
<UnstructuredGrid>
<Piece NumberOfPoints="960" NumberOfCells="120">
<Points>
<DataArray type="Float32" NumberOfComponents="3" format="ascii">
-4.000000e+02 -6.000000e+03 -4.000000e+02
0.000000e+00 -6.000000e+03 -4.000000e+02
-4.000000e+02 -5.599990e+03 -4.000000e+02
1.058380e-09 -5.599990e+03 -4.000000e+02
-4.000000e+02 -6.000000e+03 0.000000e+00
0.000000e+00 -6.000000e+03 0.000000e+00
-4.000000e+02 -5.599990e+03 -4.281640e-10
5.841380e-10 -5.599990e+03 7.420970e-11
0.000000e+00 -6.000000e+03 -4.000000e+02
4.000000e+02 -6.000000e+03 -4.000000e+02
1.058380e-09 -5.599990e+03 -4.000000e+02
4.000000e+02 -5.599990e+03 -4.000000e+02
0.000000e+00 -6.000000e+03 0.000000e+00
4.000000e+02 -6.000000e+03 0.000000e+00
5.841380e-10 -5.599990e+03 7.420970e-11
4.000000e+02 -5.599990e+03 -5.906790e-10
-4.000000e+02 -5.599990e+03 -4.000000e+02
1.058380e-09 -5.599990e+03 -4.000000e+02
-4.000000e+02 -5.200040e+03 -4.000000e+02
1.432330e-09 -5.200040e+03 -4.000000e+02
-4.000000e+02 -5.599990e+03 -4.281640e-10
5.841380e-10 -5.599990e+03 7.420970e-11
-4.000000e+02 -5.200040e+03 -9.353140e-13
7.511340e-10 -5.200040e+03 5.936440e-10
1.058380e-09 -5.599990e+03 -4.000000e+02
4.000000e+02 -5.599990e+03 -4.000000e+02
1.432330e-09 -5.200040e+03 -4.000000e+02
4.000000e+02 -5.200040e+03 -4.000000e+02
5.841380e-10 -5.599990e+03 7.420970e-11
4.000000e+02 -5.599990e+03 -5.906790e-10
7.511340e-10 -5.200040e+03 5.936440e-10
4.000000e+02 -5.200040e+03 1.502190e-10
-4.000000e+02 -5.200040e+03 -4.000000e+02
1.432330e-09 -5.200040e+03 -4.000000e+02
-4.000000e+02 -4.800130e+03 -4.000000e+02
9.090520e-10 -4.800130e+03 -4.000000e+02
-4.000000e+02 -5.200040e+03 -9.353140e-13
7.511340e-10 -5.200040e+03 5.936440e-10
-4.000000e+02 -4.800130e+03 4.542700e-10
1.369730e-09 -4.800130e+03 7.589860e-10
1.432330e-09 -5.200040e+03 -4.000000e+02
4.000000e+02 -5.200040e+03 -4.000000e+02
9.090520e-10 -4.800130e+03 -4.000000e+02
4.000000e+02 -4.800130e+03 -4.000000e+02
7.511340e-10 -5.200040e+03 5.936440e-10
4.000000e+02 -5.200040e+03 1.502190e-10
1.369730e-09 -4.800130e+03 7.589860e-10
4.000000e+02 -4.800130e+03 9.166050e-10
-4.000000e+02 -4.800130e+03 -4.000000e+02
9.090520e-10 -4.800130e+03 -4.000000e+02
-4.000000e+02 -4.400190e+03 -4.000000e+02
7.643680e-10 -4.400190e+03 -4.000000e+02
-4.000000e+02 -4.800130e+03 4.542700e-10
1.369730e-09 -4.800130e+03 7.589860e-10
-4.000000e+02 -4.400190e+03 1.009970e-10
2.036030e-09 -4.400190e+03 7.600940e-11
9.090520e-10 -4.800130e+03 -4.000000e+02
4.000000e+02 -4.800130e+03 -4.000000e+02
7.643680e-10 -4.400190e+03 -4.000000e+02
4.000000e+02 -4.400190e+03 -4.000000e+02
1.369730e-09 -4.800130e+03 7.589860e-10
4.000000e+02 -4.800130e+03 9.166050e-10
2.036030e-09 -4.400190e+03 7.600940e-11
4.000000e+02 -4.400190e+03 1.472480e-09
-4.000000e+02 -4.400190e+03 -4.000000e+02
7.643680e-10 -4.400190e+03 -4.000000e+02
-4.000000e+02 -4.000240e+03 -4.000000e+02
1.972660e-09 -4.000240e+03 -4.000000e+02
-4.000000e+02 -4.400190e+03 1.009970e-10
2.036030e-09 -4.400190e+03 7.600940e-11
-4.000000e+02 -4.000240e+03 -4.228620e-10
1.957270e-09 -4.000240e+03 -2.531440e-10
7.643680e-10 -4.400190e+03 -4.000000e+02
4.000000e+02 -4.400190e+03 -4.000000e+02
1.972660e-09 -4.000240e+03 -4.000000e+02
4.000000e+02 -4.000240e+03 -4.000000e+02
2.036030e-09 -4.400190e+03 7.600940e-11
4.000000e+02 -4.400190e+03 1.472480e-09
1.957270e-09 -4.000240e+03 -2.531440e-10
4.000000e+02 -4.000240e+03 5.025690e-11
-4.000000e+02 -4.000240e+03 -4.000000e+02
1.972660e-09 -4.000240e+03 -4.000000e+02
-4.000000e+02 -3.600270e+03 -4.000000e+02
2.626150e-09 -3.600270e+03 -4.000000e+02
-4.000000e+02 -4.000240e+03 -4.228620e-10
1.957270e-09 -4.000240e+03 -2.531440e-10
-4.000000e+02 -3.600270e+03 -3.156490e-10
2.802700e-09 -3.600270e+03 3.477550e-10
1.972660e-09 -4.000240e+03 -4.000000e+02
4.000000e+02 -4.000240e+03 -4.000000e+02
2.626150e-09 -3.600270e+03 -4.000000e+02
4.000000e+02 -3.600270e+03 -4.000000e+02
1.957270e-09 -4.000240e+03 -2.531440e-10
4.000000e+02 -4.000240e+03 5.025690e-11
2.802700e-09 -3.600270e+03 3.477550e-10
4.000000e+02 -3.600270e+03 4.065930e-10
-4.000000e+02 -3.600270e+03 -4.000000e+02
2.626150e-09 -3.600270e+03 -4.000000e+02
-4.000000e+02 -3.200290e+03 -4.000000e+02
2.596790e-09 -3.200290e+03 -4.000000e+02
-4.000000e+02 -3.600270e+03 -3.156490e-10
2.802700e-09 -3.600270e+03 3.477550e-10
-4.000000e+02 -3.200290e+03 6.427060e-10
3.050070e-09 -3.200290e+03 1.253350e-09
2.626150e-09 -3.600270e+03 -4.000000e+02
4.000000e+02 -3.600270e+03 -4.000000e+02
2.596790e-09 -3.200290e+03 -4.000000e+02
4.000000e+02 -3.200290e+03 -4.000000e+02
2.802700e-09 -3.600270e+03 3.477550e-10
4.000000e+02 -3.600270e+03 4.065930e-10
3.050070e-09 -3.200290e+03 1.253350e-09
4.000000e+02 -3.200290e+03 1.003080e-09
-4.000000e+02 -3.200290e+03 -4.000000e+02
2.596790e-09 -3.200290e+03 -4.000000e+02
-4.000000e+02 -2.800300e+03 -4.000000e+02
2.911330e-09 -2.800300e+03 -4.000000e+02
-4.000000e+02 -3.200290e+03 6.427060e-10
3.050070e-09 -3.200290e+03 1.253350e-09
-4.000000e+02 -2.800300e+03 1.890280e-09
2.350540e-09 -2.800300e+03 1.526330e-09
2.596790e-09 -3.200290e+03 -4.000000e+02
4.000000e+02 -3.200290e+03 -4.000000e+02
2.911330e-09 -2.800300e+03 -4.000000e+02
4.000000e+02 -2.800300e+03 -4.000000e+02
3.050070e-09 -3.200290e+03 1.253350e-09
4.000000e+02 -3.200290e+03 1.003080e-09
2.350540e-09 -2.800300e+03 1.526330e-09
4.000000e+02 -2.800300e+03 6.507220e-10
-4.000000e+02 -2.800300e+03 -4.000000e+02
2.911330e-09 -2.800300e+03 -4.000000e+02
-4.000000e+02 -2.400300e+03 -4.000000e+02
1.737220e-09 -2.400300e+03 -4.000000e+02
-4.000000e+02 -2.800300e+03 1.890280e-09
2.350540e-09 -2.800300e+03 1.526330e-09
-4.000000e+02 -2.400300e+03 2.088370e-09
1.650770e-09 -2.400300e+03 1.263570e-09
2.911330e-09 -2.800300e+03 -4.000000e+02
4.000000e+02 -2.800300e+03 -4.000000e+02
1.737220e-09 -2.400300e+03 -4.000000e+02
4.000000e+02 -2.400300e+03 -4.000000e+02
2.350540e-09 -2.800300e+03 1.526330e-09
4.000000e+02 -2.800300e+03 6.507220e-10
1.650770e-09 -2.400300e+03 1.263570e-09
4.000000e+02 -2.400300e+03 1.043480e-09
-4.000000e+02 -2.400300e+03 -4.000000e+02
1.737220e-09 -2.400300e+03 -4.000000e+02
-4.000000e+02 -2.000300e+03 -4.000000e+02
1.471230e-09 -2.000300e+03 -4.000000e+02
-4.000000e+02 -2.400300e+03 2.088370e-09
1.650770e-09 -2.400300e+03 1.263570e-09
-4.000000e+02 -2.000300e+03 1.200410e-09
1.865750e-09 -2.000300e+03 5.982360e-10
1.737220e-09 -2.400300e+03 -4.000000e+02
4.000000e+02 -2.400300e+03 -4.000000e+02
1.471230e-09 -2.000300e+03 -4.000000e+02
4.000000e+02 -2.000300e+03 -4.000000e+02
1.650770e-09 -2.400300e+03 1.263570e-09
4.000000e+02 -2.400300e+03 1.043480e-09
1.865750e-09 -2.000300e+03 5.982360e-10
4.000000e+02 -2.000300e+03 4.365600e-10
-4.000000e+02 -2.000300e+03 -4.000000e+02
1.471230e-09 -2.000300e+03 -4.000000e+02
-4.000000e+02 -1.600300e+03 -4.000000e+02
2.220750e-09 -1.600300e+03 -4.000000e+02
-4.000000e+02 -2.000300e+03 1.200410e-09
1.865750e-09 -2.000300e+03 5.982360e-10
-4.000000e+02 -1.600300e+03 1.020630e-09
1.947700e-09 -1.600300e+03 4.355460e-10
1.471230e-09 -2.000300e+03 -4.000000e+02
4.000000e+02 -2.000300e+03 -4.000000e+02
2.220750e-09 -1.600300e+03 -4.000000e+02
4.000000e+02 -1.600300e+03 -4.000000e+02
1.865750e-09 -2.000300e+03 5.982360e-10
4.000000e+02 -2.000300e+03 4.365600e-10
1.947700e-09 -1.600300e+03 4.355460e-10
4.000000e+02 -1.600300e+03 -2.481110e-10
-4.000000e+02 -1.600300e+03 -4.000000e+02
2.220750e-09 -1.600300e+03 -4.000000e+02
-4.000000e+02 -1.200300e+03 -4.000000e+02
2.385320e-09 -1.200300e+03 -4.000000e+02
-4.000000e+02 -1.600300e+03 1.020630e-09
1.947700e-09 -1.600300e+03 4.355460e-10
-4.000000e+02 -1.200300e+03 4.648770e-10
2.062620e-09 -1.200300e+03 -1.849050e-10
2.220750e-09 -1.600300e+03 -4.000000e+02
4.000000e+02 -1.600300e+03 -4.000000e+02
2.385320e-09 -1.200300e+03 -4.000000e+02
4.000000e+02 -1.200300e+03 -4.000000e+02
1.947700e-09 -1.600300e+03 4.355460e-10
4.000000e+02 -1.600300e+03 -2.481110e-10
2.062620e-09 -1.200300e+03 -1.849050e-10
4.000000e+02 -1.200300e+03 -2.896160e-10
-4.000000e+02 -1.200300e+03 -4.000000e+02
2.385320e-09 -1.200300e+03 -4.000000e+02
-4.000000e+02 -8.003030e+02 -4.000000e+02
1.482210e-09 -8.003030e+02 -4.000000e+02
-4.000000e+02 -1.200300e+03 4.648770e-10
2.062620e-09 -1.200300e+03 -1.849050e-10
-4.000000e+02 -8.003030e+02 -6.047030e-10
1.834250e-09 -8.003040e+02 -5.709730e-10
2.385320e-09 -1.200300e+03 -4.000000e+02
4.000000e+02 -1.200300e+03 -4.000000e+02
1.482210e-09 -8.003030e+02 -4.000000e+02
4.000000e+02 -8.003030e+02 -4.000000e+02
2.062620e-09 -1.200300e+03 -1.849050e-10
4.000000e+02 -1.200300e+03 -2.896160e-10
1.834250e-09 -8.003040e+02 -5.709730e-10
4.000000e+02 -8.003030e+02 -7.226910e-10
-4.000000e+02 -8.003030e+02 -4.000000e+02
1.482210e-09 -8.003030e+02 -4.000000e+02
-4.000000e+02 -4.003040e+02 -4.000000e+02
1.508250e-09 -4.003040e+02 -4.000000e+02
-4.000000e+02 -8.003030e+02 -6.047030e-10
1.834250e-09 -8.003040e+02 -5.709730e-10
-4.000000e+02 -4.003040e+02 -4.217900e-10
1.911650e-09 -4.003040e+02 -6.163670e-10
1.482210e-09 -8.003030e+02 -4.000000e+02
4.000000e+02 -8.003030e+02 -4.000000e+02
1.508250e-09 -4.003040e+02 -4.000000e+02
4.000000e+02 -4.003040e+02 -4.000000e+02
1.834250e-09 -8.003040e+02 -5.709730e-10
4.000000e+02 -8.003030e+02 -7.226910e-10
1.911650e-09 -4.003040e+02 -6.163670e-10
4.000000e+02 -4.003040e+02 -5.389280e-10
-4.000000e+02 -4.003040e+02 -4.000000e+02
1.508250e-09 -4.003040e+02 -4.000000e+02
-4.000000e+02 -3.046700e-01 -4.000000e+02
8.712380e-10 -3.046440e-01 -4.000000e+02
-4.000000e+02 -4.003040e+02 -4.217900e-10
1.911650e-09 -4.003040e+02 -6.163670e-10
-4.000000e+02 -3.046440e-01 -6.485240e-10
9.095840e-10 -3.046180e-01 -4.357500e-10
1.508250e-09 -4.003040e+02 -4.000000e+02
4.000000e+02 -4.003040e+02 -4.000000e+02
8.712380e-10 -3.046440e-01 -4.000000e+02
4.000000e+02 -3.046700e-01 -4.000000e+02
1.911650e-09 -4.003040e+02 -6.163670e-10
[...]
<PointData>
<DataArray type="Float32" Name="V1" format="ascii">
0.000000e+00
0.000000e+00
3.815480e-07
5.323610e-10
0.000000e+00
0.000000e+00
3.483970e-07
5.532250e-11
0.000000e+00
0.000000e+00
5.323610e-10
-3.806370e-07
0.000000e+00
0.000000e+00
5.532250e-11
-3.481300e-07
3.815480e-07
5.323610e-10
-1.796960e-06
5.871810e-10
3.483970e-07
5.532250e-11
-1.770220e-06
-1.370090e-10
5.323610e-10
-3.806370e-07
5.871810e-10
1.797760e-06
5.532250e-11
-3.481300e-07
-1.370090e-10
1.769750e-06
-1.796960e-06
5.871810e-10
3.391970e-06
3.389180e-10
-1.770220e-06
-1.370090e-10
3.410160e-06
-7.501130e-10
5.871810e-10
1.797760e-06
3.389180e-10
-3.391160e-06
-1.370090e-10
1.769750e-06
-7.501130e-10
-3.411160e-06
3.391970e-06
3.389180e-10
-3.361710e-06
-3.670140e-11
3.410160e-06
-7.501130e-10
-3.479680e-06
1.497560e-10
3.389180e-10
-3.391160e-06
-3.670140e-11
3.360720e-06
-7.501130e-10
-3.411160e-06
1.497560e-10
3.480140e-06
-3.361710e-06
-3.670140e-11
1.081280e-06
-3.325350e-10
-3.479680e-06
1.497560e-10
1.335680e-06
-7.849180e-11
-3.670140e-11
3.360720e-06
-3.325350e-10
-1.081920e-06
1.497560e-10
3.480140e-06
-7.849180e-11
-1.335600e-06
1.081280e-06
-3.325350e-10
2.299360e-06
3.217180e-10
1.335680e-06
-7.849180e-11
1.918770e-06
-8.806880e-10
-3.325350e-10
-1.081920e-06
3.217180e-10
-2.299890e-06
-7.849180e-11
-1.335600e-06
-8.806880e-10
-1.920370e-06
2.299360e-06
3.217180e-10
-3.037960e-06
-2.957580e-10
1.918770e-06
-8.806880e-10
-2.636990e-06
4.762450e-10
3.217180e-10
-2.299890e-06
-2.957580e-10
3.038430e-06
-8.806880e-10
-1.920370e-06
4.762450e-10
2.637180e-06
-3.037960e-06
-2.957580e-10
6.723320e-07
-5.295660e-10
-2.636990e-06
4.762450e-10
4.233710e-07
7.576250e-10
-2.957580e-10
3.038430e-06
-5.295660e-10
-6.730230e-07
4.762450e-10
2.637180e-06
7.576250e-10
-4.215170e-07
6.723320e-07
-5.295660e-10
-4.962010e-06
6.444450e-10
4.233710e-07
7.576250e-10
-4.959410e-06
-2.050220e-11
-5.295660e-10
-6.730230e-07
6.444450e-10
4.962950e-06
7.576250e-10
-4.215170e-07
-2.050220e-11
4.959650e-06
-4.962010e-06
6.444450e-10
1.418560e-05
-3.987950e-10
-4.959410e-06
-2.050220e-11
1.441110e-05
5.777870e-10
6.444450e-10
4.962950e-06
-3.987950e-10
-1.418640e-05
-2.050220e-11
4.959650e-06
5.777870e-10
-1.441080e-05
1.418560e-05
-3.987950e-10
-2.458420e-06
-2.937690e-10
1.441110e-05
5.777870e-10
-3.064570e-06
3.648550e-10
-3.987950e-10
-1.418640e-05
-2.937690e-10
2.456470e-06
5.777870e-10
-1.441080e-05
3.648550e-10
3.065450e-06
-2.458420e-06
-2.937690e-10
-1.966490e-05
5.904520e-10
-3.064570e-06
3.648550e-10
-1.836800e-05
-3.120020e-10
-2.937690e-10
2.456470e-06
5.904520e-10
1.966520e-05
3.648550e-10
3.065450e-06
-3.120020e-10
1.836790e-05
-1.966490e-05
5.904520e-10
8.780300e-06
4.832800e-10
-1.836800e-05
-3.120020e-10
7.653640e-06
-1.663880e-10
5.904520e-10
1.966520e-05
4.832800e-10
-8.780280e-06
-3.120020e-10
1.836790e-05
-1.663880e-10
-7.653350e-06
8.780300e-06
4.832800e-10
1.723650e-05
6.064270e-10
7.653640e-06
-1.663880e-10
1.645160e-05
9.545260e-10
4.832800e-10
-8.780280e-06
6.064270e-10
-1.723650e-05
-1.663880e-10
-7.653350e-06
9.545260e-10
-1.645040e-05
1.723650e-05
6.064270e-10
-1.047900e-05
-8.981160e-10
1.645160e-05
9.545260e-10
-9.656620e-06
-5.725000e-10
6.064270e-10
-1.723650e-05
-8.981160e-10
1.047760e-05
9.545260e-10
-1.645040e-05
-5.725000e-10
9.655710e-06
-1.047900e-05
-8.981160e-10
-1.911830e-05
-2.950830e-11
-9.656620e-06
-5.725000e-10
-1.855630e-05
4.705480e-10
-8.981160e-10
1.047760e-05
-2.950830e-11
1.911770e-05
-5.725000e-10
9.655710e-06
4.705480e-10
1.855760e-05
-1.911830e-05
-2.950830e-11
2.580010e-05
-1.801440e-10
-1.855630e-05
4.705480e-10
2.532840e-05
-1.823930e-11
-2.950830e-11
1.911770e-05
-1.801440e-10
-2.580030e-05
4.705480e-10
1.855760e-05
-1.823930e-11
-2.532840e-05
2.580010e-05
-1.801440e-10
3.404930e-05
-4.821860e-10
2.532840e-05
-1.823930e-11
3.492590e-05
-8.031860e-10
-1.801440e-10
-2.580030e-05
-4.821860e-10
-3.405040e-05
-1.823930e-11
-2.532840e-05
-8.031860e-10
-3.492700e-05
3.404930e-05
-4.821860e-10
1.644920e-05
5.442360e-09
3.492590e-05
-8.031860e-10
1.692830e-05
4.428920e-09
-4.821860e-10
-3.405040e-05
5.442360e-09
-1.643920e-05
-8.031860e-10
-3.492700e-05
4.428920e-09
-1.691930e-05
1.644920e-05
5.442360e-09
-3.982830e-06
5.754540e-10
1.692830e-05
4.428920e-09
-4.047720e-06
1.149940e-09
5.442360e-09
-1.643920e-05
5.754540e-10
3.984040e-06
4.428920e-09
-1.691930e-05
1.149940e-09
4.049690e-06
-3.982830e-06
5.754540e-10
-4.528830e-06
1.706900e-09
-4.047720e-06
1.149940e-09
-4.972740e-06
2.268560e-09
5.754540e-10
3.984040e-06
1.706900e-09
4.531900e-06
1.149940e-09
4.049690e-06
2.268560e-09
4.976480e-06
-4.528830e-06
1.706900e-09
-8.114860e-08
2.081890e-11
-4.972740e-06
2.268560e-09
-4.738360e-07
-3.714530e-10
1.706900e-09
4.531900e-06
2.081890e-11
8.140000e-08
2.268560e-09
4.976480e-06
-3.714530e-10
4.730660e-07
-8.114860e-08
2.081890e-11
7.384510e-06
-1.063060e-08
-4.738360e-07
-3.714530e-10
7.667910e-06
-1.119210e-08
2.081890e-11
8.140000e-08
-1.063060e-08
-7.405740e-06
-3.714530e-10
4.730660e-07
-1.119210e-08
-7.690310e-06
7.384510e-06
-1.063060e-08
1.496820e-05
-7.668100e-09
7.667910e-06
-1.119210e-08
1.557110e-05
-7.744320e-09
-1.063060e-08
-7.405740e-06
-7.668100e-09
-1.498360e-05
-1.119210e-08
-7.690310e-06
-7.744320e-09
-1.558660e-05
1.496820e-05
-7.668100e-09
4.111650e-06
4.597710e-09
1.557110e-05
-7.744320e-09
3.808930e-06
4.603890e-09
-7.668100e-09
-1.498360e-05
4.597710e-09
-4.102520e-06
-7.744320e-09
-1.558660e-05
4.603890e-09
-3.799770e-06
4.111650e-06
4.597710e-09
-1.315690e-05
6.061710e-09
3.808930e-06
4.603890e-09
-1.345790e-05
6.230270e-09
4.597710e-09
-4.102520e-06
6.061710e-09
1.316900e-05
4.603890e-09
-3.799770e-06
6.230270e-09
1.347040e-05
-1.315690e-05
6.061710e-09
-4.022690e-06
1.342250e-09
-1.345790e-05
6.230270e-09
-3.759940e-06
1.613420e-09
6.061710e-09
1.316900e-05
1.342250e-09
4.025380e-06
6.230270e-09
1.347040e-05
1.613420e-09
3.763190e-06
-4.022690e-06
1.342250e-09
1.512350e-06
8.724700e-10
-3.759940e-06
1.613420e-09
1.662350e-06
7.643220e-10
1.342250e-09
4.025380e-06
8.724700e-10
-1.510620e-06
1.613420e-09
3.763190e-06
7.643220e-10
-1.660790e-06
1.512350e-06
8.724700e-10
2.914690e-06
5.094770e-10
1.662350e-06
7.643220e-10
2.707270e-06
3.695590e-10
8.724700e-10
-1.510620e-06
5.094770e-10
-2.913650e-06
7.643220e-10
-1.660790e-06
3.695590e-10
-2.706530e-06
2.914690e-06
5.094770e-10
6.278370e-06
-1.045390e-09
2.707270e-06
3.695590e-10
6.410410e-06
-8.472840e-10
5.094770e-10
-2.913650e-06
-1.045390e-09
-6.280460e-06
3.695590e-10
-2.706530e-06
-8.472840e-10
-6.412110e-06
0.000000e+00
0.000000e+00
3.483970e-07
5.532250e-11
0.000000e+00
0.000000e+00
3.817210e-07
3.751980e-10
0.000000e+00
0.000000e+00
5.532250e-11
-3.481300e-07
0.000000e+00
0.000000e+00
3.751980e-10
-3.806050e-07
3.483970e-07
5.532250e-11
-1.770220e-06
-1.370090e-10
3.817210e-07
3.751980e-10
-1.797380e-06
7.046680e-10
5.532250e-11
-3.481300e-07
-1.370090e-10
1.769750e-06
3.751980e-10
-3.806050e-07
7.046680e-10
1.798550e-06
-1.770220e-06
-1.370090e-10
3.410160e-06
-7.501130e-10
-1.797380e-06
7.046680e-10
3.392200e-06
-6.128100e-11
-1.370090e-10
1.769750e-06
-7.501130e-10
-3.411160e-06
7.046680e-10
1.798550e-06
-6.128100e-11
-3.392000e-06
3.410160e-06
-7.501130e-10
-3.479680e-06
1.497560e-10
3.392200e-06
-6.128100e-11
-3.362520e-06
7.103600e-11
-7.501130e-10
-3.411160e-06
1.497560e-10
3.480140e-06
-6.128100e-11
-3.392000e-06
7.103600e-11
3.361380e-06
-3.479680e-06
1.497560e-10
1.335680e-06
-7.849180e-11
-3.362520e-06
7.103600e-11
1.080090e-06
2.141070e-10
1.497560e-10
3.480140e-06
-7.849180e-11
-1.335600e-06
7.103600e-11
3.361380e-06
2.141070e-10
-1.079760e-06
1.335680e-06
-7.849180e-11
1.918770e-06
-8.806880e-10
1.080090e-06
2.141070e-10
2.301120e-06
5.795520e-10
-7.849180e-11
-1.335600e-06
-8.806880e-10
-1.920370e-06
2.141070e-10
-1.079760e-06
5.795520e-10
-2.300220e-06
1.918770e-06
-8.806880e-10
-2.636990e-06
4.762450e-10
2.301120e-06
5.795520e-10
-3.036400e-06
1.220650e-09
-8.806880e-10
-1.920370e-06
4.762450e-10
2.637180e-06
5.795520e-10
-2.300220e-06
1.220650e-09
3.039390e-06
-2.636990e-06
4.762450e-10
4.233710e-07
7.576250e-10
-3.036400e-06
1.220650e-09
6.724890e-07
1.071420e-10
4.762450e-10
2.637180e-06
7.576250e-10
-4.215170e-07
1.220650e-09
3.039390e-06
1.071420e-10
-6.718130e-07
4.233710e-07
7.576250e-10
-4.959410e-06
-2.050220e-11
6.724890e-07
1.071420e-10
-4.963530e-06
3.388980e-10
7.576250e-10
-4.215170e-07
-2.050220e-11
4.959650e-06
1.071420e-10
-6.718130e-07
3.388980e-10
4.962310e-06
-4.959410e-06
-2.050220e-11
1.441110e-05
5.777870e-10
-4.963530e-06
3.388980e-10
1.418470e-05
-4.659940e-10
-2.050220e-11
4.959650e-06
5.777870e-10
-1.441080e-05
3.388980e-10
4.962310e-06
-4.659940e-10
-1.418500e-05
1.441110e-05
5.777870e-10
-3.064570e-06
3.648550e-10
1.418470e-05
-4.659940e-10
-2.457180e-06
-2.420380e-10
5.777870e-10
-1.441080e-05
3.648550e-10
3.065450e-06
-4.659940e-10
-1.418500e-05
-2.420380e-10
2.456250e-06
-3.064570e-06
3.648550e-10
-1.836800e-05
-3.120020e-10
-2.457180e-06
-2.420380e-10
-1.966530e-05
-2.684520e-10
3.648550e-10
3.065450e-06
-3.120020e-10
1.836790e-05
-2.420380e-10
2.456250e-06
-2.684520e-10
1.966460e-05
-1.836800e-05
-3.120020e-10
7.653640e-06
-1.663880e-10
-1.966530e-05
-2.684520e-10
8.780530e-06
-3.947460e-11
-3.120020e-10
1.836790e-05
-1.663880e-10
-7.653350e-06
-2.684520e-10
1.966460e-05
-3.947460e-11
-8.781040e-06
7.653640e-06
-1.663880e-10
1.645160e-05
9.545260e-10
8.780530e-06
-3.947460e-11
1.723590e-05
2.783340e-10
-1.663880e-10
-7.653350e-06
9.545260e-10
-1.645040e-05
-3.947460e-11
-8.781040e-06
2.783340e-10
-1.723590e-05
1.645160e-05
9.545260e-10
-9.656620e-06
-5.725000e-10
1.723590e-05
2.783340e-10
-1.047920e-05
-8.399230e-10
9.545260e-10
-1.645040e-05
-5.725000e-10
9.655710e-06
2.783340e-10
-1.723590e-05
-8.399230e-10
1.047790e-05
-9.656620e-06
-5.725000e-10
-1.855630e-05
4.705480e-10
-1.047920e-05
-8.399230e-10
-1.911590e-05
8.078570e-10
-5.725000e-10
9.655710e-06
4.705480e-10
1.855760e-05
-8.399230e-10
1.047790e-05
8.078570e-10
1.911760e-05
-1.855630e-05
4.705480e-10
2.532840e-05
-1.823930e-11
-1.911590e-05
8.078570e-10
2.580060e-05
6.269500e-10
4.705480e-10
1.855760e-05
-1.823930e-11
-2.532840e-05
8.078570e-10
1.911760e-05
6.269500e-10
-2.579920e-05
2.532840e-05
-1.823930e-11
3.492590e-05
-8.031860e-10
2.580060e-05
6.269500e-10
3.404770e-05
-1.466890e-09
-1.823930e-11
-2.532840e-05
-8.031860e-10
-3.492700e-05
6.269500e-10
-2.579920e-05
-1.466890e-09
-3.405090e-05
3.492590e-05
-8.031860e-10
1.692830e-05
4.428920e-09
3.404770e-05
-1.466890e-09
1.644950e-05
5.156500e-09
-8.031860e-10
-3.492700e-05
4.428920e-09
-1.691930e-05
-1.466890e-09
-3.405090e-05
5.156500e-09
-1.643910e-05
1.692830e-05
4.428920e-09
-4.047720e-06
1.149940e-09
1.644950e-05
5.156500e-09
-3.983400e-06
1.718300e-09
4.428920e-09
-1.691930e-05
1.149940e-09
4.049690e-06
5.156500e-09
-1.643910e-05
1.718300e-09
3.985820e-06
-4.047720e-06
1.149940e-09
-4.972740e-06
2.268560e-09
-3.983400e-06
1.718300e-09
-4.527210e-06
3.067750e-09
1.149940e-09
4.049690e-06
2.268560e-09
4.976480e-06
1.718300e-09
3.985820e-06
3.067750e-09
4.532190e-06
-4.972740e-06
2.268560e-09
-4.738360e-07
-3.714530e-10
-4.527210e-06
3.067750e-09
-8.162000e-08
-5.593540e-10
2.268560e-09
4.976480e-06
-3.714530e-10
4.730660e-07
3.067750e-09
4.532190e-06
-5.593540e-10
8.039450e-08
-4.738360e-07
-3.714530e-10
7.667910e-06
-1.119210e-08
-8.162000e-08
-5.593540e-10
7.382140e-06
-1.164900e-08
-3.714530e-10
4.730660e-07
-1.119210e-08
-7.690310e-06
-5.593540e-10
8.039450e-08
-1.164900e-08
-7.405480e-06
7.667910e-06
-1.119210e-08
1.557110e-05
-7.744320e-09
7.382140e-06
-1.164900e-08
1.496750e-05
-7.950960e-09
-1.119210e-08
-7.690310e-06
-7.744320e-09
-1.558660e-05
-1.164900e-08
-7.405480e-06
-7.950960e-09
-1.498340e-05
1.557110e-05
-7.744320e-09
3.808930e-06
4.603890e-09
1.496750e-05
-7.950960e-09
4.111860e-06
4.391880e-09
-7.744320e-09
-1.558660e-05
4.603890e-09
-3.799770e-06
-7.950960e-09
-1.498340e-05
4.391880e-09
-4.103150e-06
3.808930e-06
4.603890e-09
-1.345790e-05
6.230270e-09
4.111860e-06
4.391880e-09
-1.315640e-05
6.299590e-09
4.603890e-09
-3.799770e-06
6.230270e-09
1.347040e-05
4.391880e-09
-4.103150e-06
6.299590e-09
1.316900e-05
-1.345790e-05
6.230270e-09
-3.759940e-06
1.613420e-09
-1.315640e-05
6.299590e-09
-4.021960e-06
1.942440e-09
6.230270e-09
1.347040e-05
1.613420e-09
3.763190e-06
6.299590e-09
1.316900e-05
1.942440e-09
4.025900e-06
-3.759940e-06
1.613420e-09
1.662350e-06
7.643220e-10
-4.021960e-06
1.942440e-09
1.512220e-06
7.371430e-10
1.613420e-09
3.763190e-06
7.643220e-10
-1.660790e-06
1.942440e-09
4.025900e-06
7.371430e-10
-1.510750e-06
1.662350e-06
7.643220e-10
2.707270e-06
3.695590e-10
1.512220e-06
7.371430e-10
2.914330e-06
2.346860e-10
7.643220e-10
-1.660790e-06
3.695590e-10
-2.706530e-06
7.371430e-10
-1.510750e-06
2.346860e-10
-2.913870e-06
2.707270e-06
3.695590e-10
6.410410e-06
-8.472840e-10
2.914330e-06
2.346860e-10
6.278660e-06
-6.635150e-10
3.695590e-10
-2.706530e-06
-8.472840e-10
-6.412110e-06
2.346860e-10
-2.913870e-06
-6.635150e-10
-6.280010e-06
</DataArray>
<DataArray type="Float32" Name="V2" format="ascii">
0.000000e+00
0.000000e+00
-4.088770e-02
-4.088570e-02
0.000000e+00
0.000000e+00
-4.088570e-02
-4.088370e-02
0.000000e+00
0.000000e+00
-4.088570e-02
-4.088770e-02
0.000000e+00
0.000000e+00
-4.088370e-02
-4.088570e-02
-4.088770e-02
-4.088570e-02
-4.250360e-02
-4.250370e-02
-4.088570e-02
-4.088370e-02
-4.250370e-02
-4.250400e-02
-4.088570e-02
-4.088770e-02
-4.250370e-02
-4.250360e-02
-4.088370e-02
-4.088570e-02
-4.250400e-02
-4.250370e-02
-4.250360e-02
-4.250370e-02
-5.035140e-02
-5.035430e-02
-4.250370e-02
-4.250400e-02
-5.035430e-02
-5.035690e-02
-4.250370e-02
-4.250360e-02
-5.035430e-02
-5.035140e-02
-4.250400e-02
-4.250370e-02
-5.035690e-02
-5.035430e-02
-5.035140e-02
-5.035430e-02
-4.560820e-02
-4.560340e-02
-5.035430e-02
-5.035690e-02
-4.560340e-02
-4.559900e-02
-5.035430e-02
-5.035140e-02
-4.560340e-02
-4.560820e-02
-5.035690e-02
-5.035430e-02
-4.559900e-02
-4.560340e-02
-4.560820e-02
-4.560340e-02
-2.507930e-02
-2.507700e-02
-4.560340e-02
-4.559900e-02
-2.507700e-02
-2.507430e-02
-4.560340e-02
-4.560820e-02
-2.507700e-02
-2.507930e-02
-4.559900e-02
-4.560340e-02
-2.507430e-02
-2.507700e-02
-2.507930e-02
-2.507700e-02
-1.395670e-02
-1.397130e-02
-2.507700e-02
-2.507430e-02
-1.397130e-02
-1.398610e-02
-2.507700e-02
-2.507930e-02
-1.397130e-02
-1.395670e-02
-2.507430e-02
-2.507700e-02
-1.398610e-02
-1.397130e-02
-1.395670e-02
-1.397130e-02
-8.266330e-03
-8.256000e-03
-1.397130e-02
-1.398610e-02
-8.256000e-03
-8.245940e-03
-1.397130e-02
-1.395670e-02
-8.256000e-03
-8.266330e-03
-1.398610e-02
-1.397130e-02
-8.245940e-03
-8.256000e-03
-8.266330e-03
-8.256000e-03
-4.770650e-03
-4.759610e-03
-8.256000e-03
-8.245940e-03
-4.759610e-03
-4.747450e-03
-8.256000e-03
-8.266330e-03
-4.759610e-03
-4.770650e-03
-8.245940e-03
-8.256000e-03
-4.747450e-03
-4.759610e-03
-4.770650e-03
-4.759610e-03
-1.987870e-03
-2.006190e-03
-4.759610e-03
-4.747450e-03
-2.006190e-03
-2.026230e-03
-4.759610e-03
-4.770650e-03
-2.006190e-03
-1.987870e-03
-4.747450e-03
-4.759610e-03
-2.026230e-03
-2.006190e-03
-1.987870e-03
-2.006190e-03
-1.406520e-03
-1.388070e-03
-2.006190e-03
-2.026230e-03
-1.388070e-03
-1.368780e-03
-2.006190e-03
-1.987870e-03
-1.388070e-03
-1.406520e-03
-2.026230e-03
-2.006190e-03
-1.368780e-03
-1.388080e-03
-1.406520e-03
-1.388070e-03
1.922240e-04
1.764530e-04
-1.388070e-03
-1.368780e-03
1.764530e-04
1.623610e-04
-1.388070e-03
-1.406520e-03
1.764530e-04
1.922260e-04
-1.368780e-03
-1.388080e-03
1.623610e-04
1.764510e-04
1.922240e-04
1.764530e-04
2.108310e-04
1.894800e-04
1.764530e-04
1.623610e-04
1.894780e-04
1.654170e-04
1.764530e-04
1.922260e-04
1.894800e-04
2.108360e-04
1.623610e-04
1.764510e-04
1.654170e-04
1.894760e-04
2.108310e-04
1.894800e-04
1.274160e-04
1.311790e-04
1.894780e-04
1.654170e-04
1.311790e-04
1.340560e-04
1.894800e-04
2.108360e-04
1.311790e-04
1.274120e-04
1.654170e-04
1.894760e-04
1.340560e-04
1.311780e-04
1.274160e-04
1.311790e-04
-5.730200e-04
-5.385120e-04
1.311790e-04
1.340560e-04
-5.385110e-04
-5.005600e-04
1.311790e-04
1.274120e-04
-5.385120e-04
-5.730230e-04
1.340560e-04
1.311780e-04
-5.005600e-04
-5.385110e-04
-5.730200e-04
-5.385120e-04
-6.480950e-04
-6.050730e-04
-5.385110e-04
-5.005600e-04
-6.050700e-04
-5.630700e-04
-5.385120e-04
-5.730230e-04
-6.050730e-04
-6.480940e-04
-5.005600e-04
-5.385110e-04
-5.630700e-04
-6.050710e-04
-6.480950e-04
-6.050730e-04
-5.160990e-04
-5.547760e-04
-6.050700e-04
-5.630700e-04
-5.547730e-04
-5.927130e-04
-6.050730e-04
-6.480940e-04
-5.547760e-04
-5.161010e-04
-5.630700e-04
-6.050710e-04
-5.927130e-04
-5.547750e-04
-5.160990e-04
-5.547760e-04
-2.630350e-04
-3.028240e-04
-5.547730e-04
-5.927130e-04
-3.028200e-04
-3.399350e-04
-5.547760e-04
-5.161010e-04
-3.028240e-04
-2.630390e-04
-5.927130e-04
-5.547750e-04
-3.399350e-04
-3.028240e-04
-2.630350e-04
-3.028240e-04
-3.596800e-04
-3.585070e-04
-3.028200e-04
-3.399350e-04
-3.585130e-04
-3.584020e-04
-3.028240e-04
-2.630390e-04
-3.585070e-04
-3.596840e-04
-3.399350e-04
-3.028240e-04
-3.584020e-04
-3.585160e-04
-3.596800e-04
-3.585070e-04
-4.952980e-04
-4.685430e-04
-3.585130e-04
-3.584020e-04
-4.685540e-04
-4.415360e-04
-3.585070e-04
-3.596840e-04
-4.685430e-04
-4.952680e-04
-3.584020e-04
-3.585160e-04
-4.415360e-04
-4.685220e-04
-4.952980e-04
-4.685430e-04
-4.388720e-04
-4.576680e-04
-4.685540e-04
-4.415360e-04
-4.576800e-04
-4.740850e-04
-4.685430e-04
-4.952680e-04
-4.576680e-04
-4.388510e-04
-4.415360e-04
-4.685220e-04
-4.740850e-04
-4.576790e-04
-4.388720e-04
-4.576680e-04
-5.440120e-06
-6.640190e-05
-4.576800e-04
-4.740850e-04
-6.634340e-05
-1.304960e-04
-4.576680e-04
-4.388510e-04
-6.640190e-05
-5.453820e-06
-4.740850e-04
-4.576790e-04
-1.304960e-04
-6.640520e-05
-5.440120e-06
-6.640190e-05
2.606110e-05
4.448300e-06
-6.634340e-05
-1.304960e-04
4.447160e-06
-3.185880e-05
-6.640190e-05
-5.453820e-06
4.448300e-06
2.608940e-05
-1.304960e-04
-6.640520e-05
-3.185880e-05
4.482740e-06
2.606110e-05
4.448300e-06
-2.639690e-04
-2.075230e-04
4.447160e-06
-3.185880e-05
-2.076130e-04
-1.557170e-04
4.448300e-06
2.608940e-05
-2.075230e-04
-2.640710e-04
-3.185880e-05
4.482740e-06
-1.557170e-04
-2.076720e-04
-2.639690e-04
-2.075230e-04
-1.765300e-04
-2.055350e-04
-2.076130e-04
-1.557170e-04
-2.056080e-04
-2.248210e-04
-2.075230e-04
-2.640710e-04
-2.055350e-04
-1.767150e-04
-1.557170e-04
-2.076720e-04
-2.248210e-04
-2.057340e-04
-1.765300e-04
-2.055350e-04
-3.325720e-04
-3.976270e-04
-2.056080e-04
-2.248210e-04
-3.975870e-04
-4.544130e-04
-2.055350e-04
-1.767150e-04
-3.976270e-04
-3.325090e-04
-2.248210e-04
-2.057340e-04
-4.544130e-04
-3.975430e-04
-3.325720e-04
-3.976270e-04
-3.398400e-04
-2.663920e-04
-3.975870e-04
-4.544130e-04
-2.663490e-04
-1.946010e-04
-3.976270e-04
-3.325090e-04
-2.663920e-04
-3.397630e-04
-4.544130e-04
-3.975430e-04
-1.946010e-04
-2.663000e-04
-3.398400e-04
-2.663920e-04
-1.803290e-04
-1.704550e-04
-2.663490e-04
-1.946010e-04
-1.704280e-04
-1.716870e-04
-2.663920e-04
-3.397630e-04
-1.704550e-04
-1.803280e-04
-1.946010e-04
-2.663000e-04
-1.716870e-04
-1.704260e-04
-1.803290e-04
-1.704550e-04
-3.465180e-04
-3.609060e-04
-1.704280e-04
-1.716870e-04
-3.609210e-04
-3.750810e-04
-1.704550e-04
-1.803280e-04
-3.609060e-04
-3.465060e-04
-1.716870e-04
-1.704260e-04
-3.750810e-04
-3.609030e-04
-3.465180e-04
-3.609060e-04
8.017080e-04
8.120530e-04
-3.609210e-04
-3.750810e-04
8.120500e-04
8.263620e-04
-3.609060e-04
-3.465060e-04
8.120530e-04
8.017180e-04
-3.750810e-04
-3.609030e-04
8.263620e-04
8.120580e-04
8.017080e-04
8.120530e-04
1.704000e-03
1.708970e-03
8.120500e-04
8.263620e-04
1.708970e-03
1.724620e-03
8.120530e-04
8.017180e-04
1.708970e-03
1.704010e-03
8.263620e-04
8.120580e-04
1.724620e-03
1.708970e-03
0.000000e+00
0.000000e+00
-4.088570e-02
-4.088370e-02
0.000000e+00
0.000000e+00
-4.088770e-02
-4.088570e-02
0.000000e+00
0.000000e+00
-4.088370e-02
-4.088570e-02
0.000000e+00
0.000000e+00
-4.088570e-02
-4.088770e-02
-4.088570e-02
-4.088370e-02
-4.250370e-02
-4.250400e-02
-4.088770e-02
-4.088570e-02
-4.250360e-02