MercuryDPM 0.14 name oneDimChain revision 6406 repository https://svn.mercurydpm.org/SourceCode/Branches/OomphlibCouplingExplicit
dataFile    fileType ONE_FILE saveCount 124 counter 97 lastSavedTimeStep 11904
fStatFile   fileType ONE_FILE saveCount 124 counter 97 lastSavedTimeStep 11904
eneFile     fileType ONE_FILE saveCount 124 counter 97 lastSavedTimeStep 11904
restartFile fileType ONE_FILE saveCount 124 counter 97 lastSavedTimeStep 11904
statFile    fileType ONE_FILE saveCount 124 counter 0
interactionFile fileType NO_FILE saveCount 0 counter 0
xMin -500 xMax 500 yMin -5000 yMax 5000 zMin -500 zMax 500
timeStep 0.00803718916976729 time 95.674699876925 ntimeSteps 11904 timeMax 100
systemDimensions 3 particleDimensions 3 gravity 0 0 -0 writeVTK 1 MULTIPLE_FILES NO_FILE 97 97 0 0 random  0 1103515245 12345 1073741824 607 273 784607267
Species 1
LinearViscoelasticReversibleAdhesiveSpecies id 0 density 2500 stiffness 10000000000 dissipation -0 adhesionForceMax 0 adhesionStiffness 10000000000
Walls 0
Boundaries 0
Particles 7680
BaseParticle id 0 indSpecies 0 position -350.000055930793 2049.55530744414 -350.000073653911 orientation 1 0 0 0 velocity -3.72739783892427e-05 -0.0237004423222488 -3.98741108743991e-05 angularVelocity 0 0 0 force 28778.0842943318 40286817.4596017 -32349.7754924975 torque 0 0 0 radius 50 invMass 7.63943726841098e-10
BaseParticle id 1 indSpecies 0 position -350.000437728675 2049.56817158556 -250.000082005013 orientation 1 0 0 0 velocity 3.39196522575531e-07 -0.034010786702689 -4.26338101571963e-06 angularVelocity 0 0 0 force 43776.1910195835 39441405.4500314 108413.313188303 torque 0 0 0 radius 50 invMass 7.63943726841098e-10
BaseParticle id 2 indSpecies 0 position -350.000059584857 2049.52766583835 -150.000052848886 orientation 1 0 0 0 velocity 3.55350819605381e-06 -0.0193904822268488 -7.76476072104551e-05 angularVelocity 0 0 0 force 42757.678577565 38914156.4984915 21762.9301646696 torque 0 0 0 radius 50 invMass 7.63943726841098e-10
BaseParticle id 3 indSpecies 0 position -349.9999516407 2049.50350641662 -50.0000121802755 orientation 1 0 0 0 velocity -4.77050951591261e-05 -0.00918334467400144 -1.85578114894704e-05 angularVelocity 0 0 0 force 41922.7325027482 38654392.9925499 -380486.456080954 torque 0 0 0 radius 50 invMass 7.63943726841098e-10
BaseParticle id 4 indSpecies 0 position -349.999945990906 2049.50360115608 49.9999488377967 orientation 1 0 0 0 velocity -4.7199620623016e-05 -0.00919459881419009 -4.05424123011154e-06 angularVelocity 0 0 0 force 41215.4842502518 38594915.690188 386380.778832757 torque 0 0 0 radius 50 invMass 7.63943726841098e-10
BaseParticle id 5 indSpecies 0 position -350.000055591494 2049.53297824666 149.999991537021 orientation 1 0 0 0 velocity 4.91744201533595e-06 -0.019156202898373 5.29691787087018e-05 angularVelocity 0 0 0 force 40665.5175456105 38738797.4134324 -15802.9380035627 torque 0 0 0 radius 50 invMass 7.63943726841098e-10
BaseParticle id 6 indSpecies 0 position -350.000443550126 2049.5770861214 250.00002621048 orientation 1 0 0 0 velocity -1.18938802649811e-07 -0.0305104601500591 1.57283312490237e-06 angularVelocity 0 0 0 force 40368.822208524 39158057.5558736 -131449.535554594 torque 0 0 0 radius 50 invMass 7.63943726841098e-10
BaseParticle id 7 indSpecies 0 position -350.000034990995 2049.54557748017 350.000010807671 orientation 1 0 0 0 velocity -1.92845991379771e-05 -0.0301424528001819 -9.06360085105047e-06 angularVelocity 0 0 0 force -70152.7803961331 39911233.8179943 67901.753546057 torque 0 0 0 radius 50 invMass 7.63943726841098e-10
BaseParticle id 8 indSpecies 0 position -250.000058240288 2049.5670588883 -350.000471657611 orientation 1 0 0 0 velocity 7.95304596389228e-06 -0.0344355324827074 -7.77983129592669e-06 angularVelocity 0 0 0 force 51529.1255039765 39468874.1576149 41645.6406900226 torque 0 0 0 radius 50 invMass 7.63943726841098e-10
BaseParticle id 9 indSpecies 0 position -250.000353818522 2049.55147506438 -250.000367623451 orientation 1 0 0 0 velocity 1.9133526791481e-05 -0.0359331105800263 1.58077658289836e-05 angularVelocity 0 0 0 force 34264.1188853951 38686866.9180707 32063.5721896456 torque 0 0 0 radius 50 invMass 7.63943726841098e-10
BaseParticle id 10 indSpecies 0 position -249.999924056638 2049.56895201703 -150.000113855767 orientation 1 0 0 0 velocity 8.5987146408993e-06 -0.00956808428637216 9.11478082269645e-05 angularVelocity 0 0 0 force -150917.084560445 38163980.1995969 20825.7774168386 torque 0 0 0 radius 50 invMass 7.63943726841098e-10
BaseParticle id 11 indSpecies 0 position -249.99992780891 2049.55200461732 -50.0000270400581 orientation 1 0 0 0 velocity -3.69512857527886e-05 -0.02782573303677 5.57613550942047e-08 angularVelocity 0 0 0 force -286793.392660531 37900430.9039352 -13933.9947531609 torque 0 0 0 radius 50 invMass 7.63943726841098e-10
BaseParticle id 12 indSpecies 0 position -249.999926810097 2049.55250246869 49.9999707055315 orientation 1 0 0 0 velocity -3.26185516278662e-05 -0.0277423934550955 -2.37961009633236e-05 angularVelocity 0 0 0 force -284177.41812646 37847103.0917338 18585.7299899701 torque 0 0 0 radius 50 invMass 7.63943726841098e-10
BaseParticle id 13 indSpecies 0 position -249.999919194763 2049.56994702728 150.000068581579 orientation 1 0 0 0 velocity 1.89869010274629e-05 -0.00935257298742219 -0.000111091837345672 angularVelocity 0 0 0 force -132349.371151763 38007199.9224365 -16102.0929104777 torque 0 0 0 radius 50 invMass 7.63943726841098e-10
BaseParticle id 14 indSpecies 0 position -250.000313938025 2049.55816648895 250.000290094414 orientation 1 0 0 0 velocity 2.90678532278085e-05 -0.0340444637560545 -4.53907322264317e-05 angularVelocity 0 0 0 force 30879.2955255819 38432133.5490294 -27205.0025715147 torque 0 0 0 radius 50 invMass 7.63943726841098e-10
BaseParticle id 15 indSpecies 0 position -250.000050907329 2049.57676084048 350.000422043834 orientation 1 0 0 0 velocity -4.90826586614372e-06 -0.0307580962203473 -1.43357986861966e-05 angularVelocity 0 0 0 force 141322.037543231 39126899.8774393 -36528.4266299932 torque 0 0 0 radius 50 invMass 7.63943726841098e-10
BaseParticle id 16 indSpecies 0 position -150.000037987256 2049.52886162059 -350.000077739551 orientation 1 0 0 0 velocity -6.97843665685343e-05 -0.019176740566907 -1.41327973817129e-06 angularVelocity 0 0 0 force 23911.0010724879 38974976.0274527 40606.4262928374 torque 0 0 0 radius 50 invMass 7.63943726841098e-10
BaseParticle id 17 indSpecies 0 position -150.00008866666 2049.57724172489 -249.999941122842 orientation 1 0 0 0 velocity 9.94011920271116e-05 -0.00700638226955052 3.60551791325118e-06 angularVelocity 0 0 0 force 23009.6075259363 38195650.8073607 -149796.634875321 torque 0 0 0 radius 50 invMass 7.63943726841098e-10
BaseParticle id 18 indSpecies 0 position -149.999947511429 2049.53723994096 -149.999967216265 orientation 1 0 0 0 velocity -2.92433960705885e-05 -0.0371299841219331 -3.31014815291515e-05 angularVelocity 0 0 0 force -146154.357381045 37699425.5789279 -142560.493257823 torque 0 0 0 radius 50 invMass 7.63943726841098e-10
BaseParticle id 19 indSpecies 0 position -149.999961962029 2049.5730712824 -50.0000079834048 orientation 1 0 0 0 velocity -9.75432160230218e-06 -0.0124310357138864 -1.1994363129961e-05 angularVelocity 0 0 0 force 183276.576358553 37448010.7169883 -28611.1225378071 torque 0 0 0 radius 50 invMass 7.63943726841098e-10
BaseParticle id 20 indSpecies 0 position -149.999960473637 2049.57280614526 49.9999540200375 orientation 1 0 0 0 velocity -1.29545095297195e-05 -0.0124803495859924 -8.10828956087351e-06 angularVelocity 0 0 0 force 182735.055195526 37400924.0978127 48871.8981619677 torque 0 0 0 radius 50 invMass 7.63943726841098e-10
BaseParticle id 21 indSpecies 0 position -149.999941903088 2049.53432049475 149.999913959562 orientation 1 0 0 0 velocity -3.20411140971649e-05 -0.0385328806538388 9.98710749001361e-06 angularVelocity 0 0 0 force -143412.389381151 37560931.1080246 133233.763276243 torque 0 0 0 radius 50 invMass 7.63943726841098e-10
BaseParticle id 22 indSpecies 0 position -150.000104985144 2049.57845305812 249.999886549576 orientation 1 0 0 0 velocity 9.22418712578069e-05 -0.00664039855921279 -3.01317116781809e-05 angularVelocity 0 0 0 force 19606.0698390882 37969992.0931444 149094.701694797 torque 0 0 0 radius 50 invMass 7.63943726841098e-10
BaseParticle id 23 indSpecies 0 position -150.000024834097 2049.53321242895 350.000026289085 orientation 1 0 0 0 velocity -6.7652639996965e-05 -0.0191923632013429 -2.07669372037461e-05 angularVelocity 0 0 0 force 19318.703030367 38670820.6839782 -36878.2833173111 torque 0 0 0 radius 50 invMass 7.63943726841098e-10
BaseParticle id 24 indSpecies 0 position -49.9999937480741 2049.50397210595 -349.999965578653 orientation 1 0 0 0 velocity -3.233105317185e-05 -0.00896345781172796 -5.51543851935738e-05 angularVelocity 0 0 0 force -357232.329502972 38753823.9063006 39758.7845368518 torque 0 0 0 radius 50 invMass 7.63943726841098e-10
BaseParticle id 25 indSpecies 0 position -50.0000182552457 2049.55271490054 -249.999960355258 orientation 1 0 0 0 velocity 5.95588222767243e-06 -0.0272062459614102 -6.53184549644132e-05 angularVelocity 0 0 0 force 10688.9673290254 37970650.6127509 -218516.090201759 torque 0 0 0 radius 50 invMass 7.63943726841098e-10
BaseParticle id 26 indSpecies 0 position -49.9999892045763 2049.57310833981 -149.999987318186 orientation 1 0 0 0 velocity -1.0249015229799e-05 -0.0123583136256524 1.05175460073397e-05 angularVelocity 0 0 0 force -29995.631433487 37484704.1315219 209583.097045167 torque 0 0 0 radius 50 invMass 7.63943726841098e-10
BaseParticle id 27 indSpecies 0 position -50.0000071481485 2049.49634198304 -50.0000226310066 orientation 1 0 0 0 velocity 2.60918582324982e-05 -0.0380393604223089 3.2797067014551e-05 angularVelocity 0 0 0 force -7128.87952460329 37257427.5679195 -681.866725500746 torque 0 0 0 radius 50 invMass 7.63943726841098e-10
BaseParticle id 28 indSpecies 0 position -50.0000050600834 2049.49640567583 49.9999707375601 orientation 1 0 0 0 velocity 2.79608786489105e-05 -0.0380405804599542 -6.27990200331676e-05 angularVelocity 0 0 0 force -2224.33810666511 37216135.2872935 26029.7673643805 torque 0 0 0 radius 50 invMass 7.63943726841098e-10
BaseParticle id 29 indSpecies 0 position -49.9999828305814 2049.57485258396 149.999936461816 orientation 1 0 0 0 velocity -1.5392405585806e-05 -0.0123050874717618 -2.73681354507807e-05 angularVelocity 0 0 0 force -34816.2521334188 37362681.7362207 -181585.290907234 torque 0 0 0 radius 50 invMass 7.63943726841098e-10
BaseParticle id 30 indSpecies 0 position -50.0000033536946 2049.55473337136 249.999914497449 orientation 1 0 0 0 velocity 8.07876636464625e-06 -0.0273294659339815 4.03653089315274e-05 angularVelocity 0 0 0 force 7234.80593707226 37772304.0579797 171154.574136403 torque 0 0 0 radius 50 invMass 7.63943726841098e-10
BaseParticle id 31 indSpecies 0 position -49.9999772309463 2049.50370740854 349.999917442455 orientation 1 0 0 0 velocity -4.10097451607929e-05 -0.00919710545328769 3.80353420593027e-05 angularVelocity 0 0 0 force -314280.086354172 38487162.3041782 -37498.9937728222 torque 0 0 0 radius 50 invMass 7.63943726841098e-10
BaseParticle id 32 indSpecies 0 position 49.999969389729 2049.50427087659 -349.999963815091 orientation 1 0 0 0 velocity 1.99166278385644e-05 -0.00887461167459786 -6.50932364566847e-05 angularVelocity 0 0 0 force 367073.504058534 38736460.8693911 39035.5829441659 torque 0 0 0 radius 50 invMass 7.63943726841098e-10
BaseParticle id 33 indSpecies 0 position 49.9999972693842 2049.56803731108 -249.999955491387 orientation 1 0 0 0 velocity -1.79581601670964e-05 -0.0248059655416355 -6.6583649694025e-05 angularVelocity 0 0 0 force -2013.02868042628 37955936.8265075 -199395.475197732 torque 0 0 0 radius 50 invMass 7.63943726841098e-10
BaseParticle id 34 indSpecies 0 position 49.9999715372272 2049.57270676429 -149.999978500703 orientation 1 0 0 0 velocity -2.45685099360072e-07 -0.0123303475570879 2.85198118406365e-05 angularVelocity 0 0 0 force 59593.5883110588 37477515.0920165 198554.444236485 torque 0 0 0 radius 50 invMass 7.63943726841098e-10
BaseParticle id 35 indSpecies 0 position 49.9999754589478 2049.49730867222 -50.0000118214061 orientation 1 0 0 0 velocity -4.41137660396433e-05 -0.0377364706304089 2.21817697994261e-05 angularVelocity 0 0 0 force 139038.900736413 37255730.29424 -131702.582583698 torque 0 0 0 radius 50 invMass 7.63943726841098e-10
BaseParticle id 36 indSpecies 0 position 49.9999784516907 2049.49778107366 49.9999694665175 orientation 1 0 0 0 velocity -4.13601994830877e-05 -0.0376824094055636 -5.78161600306026e-05 angularVelocity 0 0 0 force 137323.786079135 37220018.3321569 115480.404341152 torque 0 0 0 radius 50 invMass 7.63943726841098e-10
BaseParticle id 37 indSpecies 0 position 49.9999801882121 2049.57491268586 149.999933151895 orientation 1 0 0 0 velocity 9.79112322549745e-07 -0.0122652601275729 -1.06376381857545e-06 angularVelocity 0 0 0 force 35192.1796353831 37371987.676052 -215079.317654363 torque 0 0 0 radius 50 invMass 7.63943726841098e-10
BaseParticle id 38 indSpecies 0 position 50.0000021225629 2049.55505868323 249.999904903196 orientation 1 0 0 0 velocity -1.65316273850395e-05 -0.0271917900403309 2.16478367327869e-05 angularVelocity 0 0 0 force -5533.76273369567 37786528.9606122 233762.574304022 torque 0 0 0 radius 50 invMass 7.63943726841098e-10
BaseParticle id 39 indSpecies 0 position 49.9999906690522 2049.50377607032 349.999922090855 orientation 1 0 0 0 velocity 3.65828146493186e-05 -0.00917022014001574 3.19417806576692e-05 angularVelocity 0 0 0 force 314696.680707079 38505979.9684829 -38295.4294187712 torque 0 0 0 radius 50 invMass 7.63943726841098e-10
BaseParticle id 40 indSpecies 0 position 150.000014673326 2049.5298735966 -350.000054810819 orientation 1 0 0 0 velocity 5.54884481756302e-05 -0.0188900899496722 6.17016020757375e-06 angularVelocity 0 0 0 force -14112.2547780446 38924598.4482264 38468.0050851962 torque 0 0 0 radius 50 invMass 7.63943726841098e-10
BaseParticle id 41 indSpecies 0 position 150.000075141967 2049.57940491111 -249.999937863431 orientation 1 0 0 0 velocity -0.000108525197215226 -0.00626750461175701 2.47016845093756e-05 angularVelocity 0 0 0 force -14375.467566715 38159136.2799924 -76881.9207192776 torque 0 0 0 radius 50 invMass 7.63943726841098e-10
BaseParticle id 42 indSpecies 0 position 149.999932878828 2049.53917911889 -149.999956544558 orientation 1 0 0 0 velocity 1.79662826087311e-05 -0.0363539101524735 -5.15410129746255e-05 angularVelocity 0 0 0 force 127083.730497878 37678745.9234714 -298973.570405346 torque 0 0 0 radius 50 invMass 7.63943726841098e-10
BaseParticle id 43 indSpecies 0 position 149.999971620487 2049.50898894883 -50.0000033789506 orientation 1 0 0 0 velocity -4.42225360137061e-05 -0.0267302870160401 -3.15294114872872e-05 angularVelocity 0 0 0 force -276009.276676664 37452448.656909 81870.0018454349 torque 0 0 0 radius 50 invMass 7.63943726841098e-10
BaseParticle id 44 indSpecies 0 position 149.999975730177 2049.5064470249 49.9999619224476 orientation 1 0 0 0 velocity -4.79608420667118e-05 -0.0270394273116709 1.20732270331944e-05 angularVelocity 0 0 0 force -293877.960631962 37422139.7903654 -62286.3047977317 torque 0 0 0 radius 50 invMass 7.63943726841098e-10
BaseParticle id 45 indSpecies 0 position 149.999941436606 2049.54095774058 149.999915742561 orientation 1 0 0 0 velocity 2.14876895264122e-05 -0.0359265960766928 3.00439279752256e-05 angularVelocity 0 0 0 force 100066.689390409 37587943.7274727 279002.872538029 torque 0 0 0 radius 50 invMass 7.63943726841098e-10
BaseParticle id 46 indSpecies 0 position 150.000101851946 2049.57882330981 249.999898129401 orientation 1 0 0 0 velocity -0.000103314168783236 -0.00653704440263446 -4.68846571420668e-05 angularVelocity 0 0 0 force -17980.7239992487 38012173.1747793 74549.4241438005 torque 0 0 0 radius 50 invMass 7.63943726841098e-10
BaseParticle id 47 indSpecies 0 position 150.000040743414 2049.53447349425 350.000013396336 orientation 1 0 0 0 velocity 5.14237876929804e-05 -0.0190224575791412 -2.67893496167185e-05 angularVelocity 0 0 0 force -47527.9405980411 38726024.5736367 -39241.43488743 torque 0 0 0 radius 50 invMass 7.63943726841098e-10
BaseParticle id 48 indSpecies 0 position 250.000037115763 2049.56817544259 -350.0004578247 orientation 1 0 0 0 velocity -1.77840586123811e-05 -0.0339957314612263 -4.8285521342255e-06 angularVelocity 0 0 0 force -86690.2561577194 39389468.2713203 38160.134425593 torque 0 0 0 radius 50 invMass 7.63943726841098e-10
BaseParticle id 49 indSpecies 0 position 250.0003122141 2049.55628827464 -250.000360997117 orientation 1 0 0 0 velocity -3.8329980513268e-05 -0.0339562552563094 1.65041449280787e-05 angularVelocity 0 0 0 force -25716.0907424788 38629249.456751 28627.9188345285 torque 0 0 0 radius 50 invMass 7.63943726841098e-10
BaseParticle id 50 indSpecies 0 position 249.999908924985 2049.57114933077 -150.000095510453 orientation 1 0 0 0 velocity -2.04359939500612e-05 -0.00893756749404611 9.39381000309845e-05 angularVelocity 0 0 0 force 162314.072593835 38131600.9138699 17392.8286193445 torque 0 0 0 radius 50 invMass 7.63943726841098e-10
BaseParticle id 51 indSpecies 0 position 249.999926836413 2049.56480583818 -50.0000222078218 orientation 1 0 0 0 velocity 5.27442198883402e-05 -0.0253420567332111 2.19708153105899e-06 angularVelocity 0 0 0 force 265314.356757923 37893095.4845158 5129.65868322738 torque 0 0 0 radius 50 invMass 7.63943726841098e-10
BaseParticle id 52 indSpecies 0 position 249.999927775098 2049.56619027533 49.9999837401472 orientation 1 0 0 0 velocity 5.28886531877826e-05 -0.0250724019537668 -2.25835424648342e-05 angularVelocity 0 0 0 force 273569.982105004 37866437.7705914 -7468.19278992262 torque 0 0 0 radius 50 invMass 7.63943726841098e-10
BaseParticle id 53 indSpecies 0 position 249.999912926798 2049.57900004655 150.000070795789 orientation 1 0 0 0 velocity -2.04459802420766e-05 -0.00644270513662391 -0.000112611370205501 angularVelocity 0 0 0 force 184339.331073533 38052320.2050156 -19701.1926383888 torque 0 0 0 radius 50 invMass 7.63943726841098e-10
BaseParticle id 54 indSpecies 0 position 250.000316066438 2049.54909978086 250.000322963977 orientation 1 0 0 0 velocity -3.81883179888087e-05 -0.0372160464242517 -4.01285162072803e-05 angularVelocity 0 0 0 force -29442.2353769837 38503270.4568505 -30918.323768818 torque 0 0 0 radius 50 invMass 7.63943726841098e-10
BaseParticle id 55 indSpecies 0 position 250.000028400539 2049.5780350386 350.000412425639 orientation 1 0 0 0 velocity 2.75774151719907e-05 -0.0303609596111682 -1.39397958932257e-05 angularVelocity 0 0 0 force -2110.87004954888 39217084.9257409 -40389.8670447284 torque 0 0 0 radius 50 invMass 7.63943726841098e-10
BaseParticle id 56 indSpecies 0 position 350.000030293936 2049.55622768928 -350.000056449145 orientation 1 0 0 0 velocity 2.15520230450398e-05 -0.0233435436614873 -3.12751013982232e-05 angularVelocity 0 0 0 force 25773.7197373243 40183908.6859959 -64811.8666069576 torque 0 0 0 radius 50 invMass 7.63943726841098e-10
BaseParticle id 57 indSpecies 0 position 350.000435371798 2049.56839552788 -250.000067490449 orientation 1 0 0 0 velocity -8.62189604042885e-06 -0.0339815080646657 -1.03233702761109e-05 angularVelocity 0 0 0 force -35304.2385287213 39367906.2224898 131552.559773607 torque 0 0 0 radius 50 invMass 7.63943726841098e-10
BaseParticle id 58 indSpecies 0 position 350.00004520213 2049.53468079082 -150.000046012054 orientation 1 0 0 0 velocity -1.50926506486303e-05 -0.0186511685549089 -7.38668036793234e-05 angularVelocity 0 0 0 force -35644.4798886166 38872866.5168362 17126.8278971251 torque 0 0 0 radius 50 invMass 7.63943726841098e-10
BaseParticle id 59 indSpecies 0 position 349.999929768743 2049.5045052088 -49.9999968985492 orientation 1 0 0 0 velocity 6.17752207249652e-05 -0.0088101722013345 -2.6016364484154e-05 angularVelocity 0 0 0 force -36267.4571819552 38649552.2424121 -367918.384433918 torque 0 0 0 radius 50 invMass 7.63943726841098e-10
BaseParticle id 60 indSpecies 0 position 349.999928067296 2049.50436069559 49.9999658447886 orientation 1 0 0 0 velocity 6.1742455660307e-05 -0.00888400112092829 7.87057784402358e-06 angularVelocity 0 0 0 force -37067.6419885065 38626334.8312788 364368.628080315 torque 0 0 0 radius 50 invMass 7.63943726841098e-10
BaseParticle id 61 indSpecies 0 position 350.000052875742 2049.53484864274 150.000014509298 orientation 1 0 0 0 velocity -1.54401394885222e-05 -0.0188142338609519 5.55641829570837e-05 angularVelocity 0 0 0 force -38017.9617886129 38804079.1014686 -20664.5037676612 torque 0 0 0 radius 50 invMass 7.63943726841098e-10
BaseParticle id 62 indSpecies 0 position 350.000449317794 2049.57765346959 250.000034011126 orientation 1 0 0 0 velocity -5.891854959207e-06 -0.0303682946452181 -3.31420913238775e-06 angularVelocity 0 0 0 force -39184.7237415514 39254236.6634597 -144158.226233425 torque 0 0 0 radius 50 invMass 7.63943726841098e-10
BaseParticle id 63 indSpecies 0 position 350.000044957839 2049.55673161777 350.000020613819 orientation 1 0 0 0 velocity -1.54210621461141e-05 -0.0233206210460739 1.99180092147284e-06 angularVelocity 0 0 0 force -40534.5256105889 40032472.2438976 70399.0234449873 torque 0 0 0 radius 50 invMass 7.63943726841098e-10
BaseParticle id 64 indSpecies 0 position -350.00114393998 2149.57127200105 -350.001162536102 orientation 1 0 0 0 velocity 8.8678512868102e-07 -0.0253030003320672 -5.43641568212695e-06 angularVelocity 0 0 0 force 42366.9854089821 24865799.1195415 38281.0372564522 torque 0 0 0 radius 50 invMass 7.63943726841098e-10
BaseParticle id 65 indSpecies 0 position -350.000918646233 2149.60904443665 -250.000552868588 orientation 1 0 0 0 velocity 2.01203755427977e-05 -0.0223410584194934 9.84616628748829e-06 angularVelocity 0 0 0 force 41438.6513524711 24328402.6834464 29393.7820816984 torque 0 0 0 radius 50 invMass 7.63943726841098e-10
BaseParticle id 66 indSpecies 0 position -350.00041529753 2149.59314045557 -150.000274458068 orientation 1 0 0 0 velocity 6.20555483704451e-05 -0.0287149577777856 1.14622619450344e-05 angularVelocity 0 0 0 force 40703.0255778602 23983687.2474752 18900.5834437374 torque 0 0 0 radius 50 invMass 7.63943726841098e-10
BaseParticle id 67 indSpecies 0 position -350.000479543924 2149.60425223431 -50.000032564039 orientation 1 0 0 0 velocity 2.56195050719488e-05 -0.0180852218346659 -1.17995909866533e-05 angularVelocity 0 0 0 force 40140.1993170586 23802346.8861253 7468.32595419954 torque 0 0 0 radius 50 invMass 7.63943726841098e-10
BaseParticle id 68 indSpecies 0 position -350.000525625808 2149.60362687665 49.9999711963808 orientation 1 0 0 0 velocity 2.2010405389267e-05 -0.0182107462925429 -9.475367604669e-06 angularVelocity 0 0 0 force 39716.7820750979 23765806.682735 -4260.20430076974 torque 0 0 0 radius 50 invMass 7.63943726841098e-10
BaseParticle id 69 indSpecies 0 position -350.000405164381 2149.59308749122 150.000211895953 orientation 1 0 0 0 velocity 6.28063650850545e-05 -0.0285522242673831 -3.2790334814562e-05 angularVelocity 0 0 0 force 39447.4320812763 23875934.4913636 -15615.5153673556 torque 0 0 0 radius 50 invMass 7.63943726841098e-10
BaseParticle id 70 indSpecies 0 position -350.000929775808 2149.60062995958 250.000485228817 orientation 1 0 0 0 velocity 1.98001424049691e-05 -0.0258372191100895 -3.15451272692688e-05 angularVelocity 0 0 0 force 39383.9760564267 24154631.37746 -25962.6047256349 torque 0 0 0 radius 50 invMass 7.63943726841098e-10
BaseParticle id 71 indSpecies 0 position -350.001146714462 2149.57746781775 350.001101323794 orientation 1 0 0 0 velocity 1.19859383604448e-06 -0.0190418093688608 -1.59040169187056e-05 angularVelocity 0 0 0 force 39591.5005353834 24629347.5302638 -34640.7927295062 torque 0 0 0 radius 50 invMass 7.63943726841098e-10
BaseParticle id 72 indSpecies 0 position -250.00053306282 2149.60978754131 -350.000938385367 orientation 1 0 0 0 velocity 1.62427056313891e-05 -0.0220078219154349 1.39519710137632e-05 angularVelocity 0 0 0 force 33475.9582433838 24338961.1189743 37384.2538767096 torque 0 0 0 radius 50 invMass 7.63943726841098e-10
BaseParticle id 73 indSpecies 0 position -250.000368452034 2149.60988862752 -250.000381898177 orientation 1 0 0 0 velocity -5.4088325965708e-06 -0.0221909986414877 -1.23897988070814e-05 angularVelocity 0 0 0 force 32632.1950815353 23846589.756784 28587.0167031283 torque 0 0 0 radius 50 invMass 7.63943726841098e-10
BaseParticle id 74 indSpecies 0 position -250.000322370317 2149.60165741638 -150.000311555118 orientation 1 0 0 0 velocity 2.87099663315104e-05 -0.00276382101692616 -4.64789055205201e-06 angularVelocity 0 0 0 force 31966.5220474281 23503362.5526635 9396.64939852769 torque 0 0 0 radius 50 invMass 7.63943726841098e-10
BaseParticle id 75 indSpecies 0 position -250.000387996525 2149.61288637135 -50.0003130700708 orientation 1 0 0 0 velocity 1.16392133512081e-05 -0.0174113307506321 3.01583028562949e-05 angularVelocity 0 0 0 force 31449.2193796836 23331237.4389354 15836.0785478687 torque 0 0 0 radius 50 invMass 7.63943726841098e-10
BaseParticle id 76 indSpecies 0 position -250.000384111033 2149.61574332768 50.0002652337441 orientation 1 0 0 0 velocity 7.9434174047673e-06 -0.0167071001973646 -4.78652387423447e-05 angularVelocity 0 0 0 force 31028.2307052573 23299039.0825822 -4546.73420598467 torque 0 0 0 radius 50 invMass 7.63943726841098e-10
BaseParticle id 77 indSpecies 0 position -250.000312083957 2149.60117243092 150.000273701151 orientation 1 0 0 0 velocity 2.84480846443989e-05 -0.00296567415613579 -9.95197695688036e-06 angularVelocity 0 0 0 force 30717.0939949055 23409685.9864721 -15722.0423697531 torque 0 0 0 radius 50 invMass 7.63943726841098e-10
BaseParticle id 78 indSpecies 0 position -250.000307793056 2149.62275822863 250.000279598246 orientation 1 0 0 0 velocity -2.08093296690523e-07 -0.0198143577150118 -1.74477795011718e-05 angularVelocity 0 0 0 force 10693.4160153322 23692150.851439 -25927.7738501062 torque 0 0 0 radius 50 invMass 7.63943726841098e-10
BaseParticle id 79 indSpecies 0 position -250.000527433417 2149.6027427093 350.000884989117 orientation 1 0 0 0 velocity 1.74166020110828e-05 -0.0250316547002799 -3.42125656761163e-05 angularVelocity 0 0 0 force 30704.2597282917 24133407.1616354 -34546.9513136757 torque 0 0 0 radius 50 invMass 7.63943726841098e-10
BaseParticle id 80 indSpecies 0 position -150.000259699076 2149.58703795328 -350.000373702925 orientation 1 0 0 0 velocity 1.74751750988367e-05 -0.0309185157795544 5.95139617633651e-05 angularVelocity 0 0 0 force 22939.8974492629 24008318.786726 36666.897103358 torque 0 0 0 radius 50 invMass 7.63943726841098e-10
BaseParticle id 81 indSpecies 0 position -150.000296751214 2149.59634247033 -250.000359346199 orientation 1 0 0 0 velocity 5.41903389570718e-07 -0.00494505072441139 2.56043216825009e-05 angularVelocity 0 0 0 force 22250.0268206522 23516660.9222135 27934.6381159442 torque 0 0 0 radius 50 invMass 7.63943726841098e-10
BaseParticle id 82 indSpecies 0 position -150.000290458932 2149.60825124697 -150.000350584742 orientation 1 0 0 0 velocity 3.75191821368163e-05 -0.0130989816601892 2.52633843229844e-05 angularVelocity 0 0 0 force 21673.3061374571 23190668.1320352 17674.3888260703 torque 0 0 0 radius 50 invMass 7.63943726841098e-10
BaseParticle id 83 indSpecies 0 position -150.000381379286 2149.58764532929 -50.0000609236669 orientation 1 0 0 0 velocity -2.42303817552111e-06 -0.0169122532190697 -2.05877252837288e-05 angularVelocity 0 0 0 force 21178.2197792275 23030782.031779 6517.40613083643 torque 0 0 0 radius 50 invMass 7.63943726841098e-10
BaseParticle id 84 indSpecies 0 position -150.000384347144 2149.58780718269 50.0000158381975 orientation 1 0 0 0 velocity 1.32528287052822e-06 -0.0169526314553053 1.44522974606937e-06 angularVelocity 0 0 0 force 20755.4722286946 23003807.0696988 -4916.32163096407 torque 0 0 0 radius 50 invMass 7.63943726841098e-10
BaseParticle id 85 indSpecies 0 position -150.000272429441 2149.61695114412 150.0002689609 orientation 1 0 0 0 velocity 4.02058582560005e-05 -0.0115003661946432 -5.41397469458331e-05 angularVelocity 0 0 0 force 20371.3346902643 4290546.07180823 -39048.3528362649 torque 0 0 0 radius 50 invMass 7.63943726841098e-10
BaseParticle id 86 indSpecies 0 position -150.000313419849 2149.59578648299 250.000264411758 orientation 1 0 0 0 velocity 1.13636224650154e-06 -0.00535921010061337 -3.9865558695576e-05 angularVelocity 0 0 0 force 40079.7003197298 23386403.7597164 -3046.2521508602 torque 0 0 0 radius 50 invMass 7.63943726841098e-10
BaseParticle id 87 indSpecies 0 position -150.000250169229 2149.60522757047 350.000365712141 orientation 1 0 0 0 velocity 1.9155590230223e-05 -0.0243042158397967 -7.67998674256208e-05 angularVelocity 0 0 0 force 20137.7374432962 23828702.0636587 -34714.8851075105 torque 0 0 0 radius 50 invMass 7.63943726841098e-10
BaseParticle id 88 indSpecies 0 position -50.0000174327003 2149.60303482392 -350.00052733128 orientation 1 0 0 0 velocity -2.227658933653e-06 -0.0183608688942661 -3.88768269404657e-06 angularVelocity 0 0 0 force 11411.6129031444 23841438.2349394 36117.5716809415 torque 0 0 0 radius 50 invMass 7.63943726841098e-10
BaseParticle id 89 indSpecies 0 position -50.0002970013192 2149.61441539484 -250.000498186718 orientation 1 0 0 0 velocity 3.57143691329856e-05 -0.0181681658208712 6.63047652021112e-07 angularVelocity 0 0 0 force 10910.2341405007 23357843.4614618 27427.3470395189 torque 0 0 0 radius 50 invMass 7.63943726841098e-10
BaseParticle id 90 indSpecies 0 position -50.0000524138987 2149.5868895236 -150.000475993868 orientation 1 0 0 0 velocity -1.50365212856529e-05 -0.0173595772825729 3.24244903549647e-06 angularVelocity 0 0 0 force 10432.0680040568 23044772.8497398 17185.7092939164 torque 0 0 0 radius 50 invMass 7.63943726841098e-10