<?xml version="1.0"?>
<VTKFile type="UnstructuredGrid" version="0.1" byte_order="LittleEndian" compressor="vtkZLibDataCompressor">
<UnstructuredGrid>
<Piece NumberOfPoints="960" NumberOfCells="120">
<Points>
<DataArray type="Float32" NumberOfComponents="3" format="ascii">
-4.000000e+02 -6.000000e+03 -4.000000e+02
0.000000e+00 -6.000000e+03 -4.000000e+02
-4.000000e+02 -5.600080e+03 -4.000000e+02
1.068170e-10 -5.600080e+03 -4.000000e+02
-4.000000e+02 -6.000000e+03 0.000000e+00
0.000000e+00 -6.000000e+03 0.000000e+00
-4.000000e+02 -5.600080e+03 7.824670e-11
4.759880e-11 -5.600080e+03 6.316590e-11
0.000000e+00 -6.000000e+03 -4.000000e+02
4.000000e+02 -6.000000e+03 -4.000000e+02
1.068170e-10 -5.600080e+03 -4.000000e+02
4.000000e+02 -5.600080e+03 -4.000000e+02
0.000000e+00 -6.000000e+03 0.000000e+00
4.000000e+02 -6.000000e+03 0.000000e+00
4.759880e-11 -5.600080e+03 6.316590e-11
4.000000e+02 -5.600080e+03 1.559010e-10
-4.000000e+02 -5.600080e+03 -4.000000e+02
1.068170e-10 -5.600080e+03 -4.000000e+02
-4.000000e+02 -5.200130e+03 -4.000000e+02
6.392190e-11 -5.200130e+03 -4.000000e+02
-4.000000e+02 -5.600080e+03 7.824670e-11
4.759880e-11 -5.600080e+03 6.316590e-11
-4.000000e+02 -5.200130e+03 1.240740e-10
6.560530e-11 -5.200130e+03 3.912500e-11
1.068170e-10 -5.600080e+03 -4.000000e+02
4.000000e+02 -5.600080e+03 -4.000000e+02
6.392190e-11 -5.200130e+03 -4.000000e+02
4.000000e+02 -5.200130e+03 -4.000000e+02
4.759880e-11 -5.600080e+03 6.316590e-11
4.000000e+02 -5.600080e+03 1.559010e-10
6.560530e-11 -5.200130e+03 3.912500e-11
4.000000e+02 -5.200130e+03 1.432870e-10
-4.000000e+02 -5.200130e+03 -4.000000e+02
6.392190e-11 -5.200130e+03 -4.000000e+02
-4.000000e+02 -4.800170e+03 -4.000000e+02
3.685680e-11 -4.800170e+03 -4.000000e+02
-4.000000e+02 -5.200130e+03 1.240740e-10
6.560530e-11 -5.200130e+03 3.912500e-11
-4.000000e+02 -4.800170e+03 9.875930e-11
-7.142330e-12 -4.800170e+03 3.100170e-11
6.392190e-11 -5.200130e+03 -4.000000e+02
4.000000e+02 -5.200130e+03 -4.000000e+02
3.685680e-11 -4.800170e+03 -4.000000e+02
4.000000e+02 -4.800170e+03 -4.000000e+02
6.560530e-11 -5.200130e+03 3.912500e-11
4.000000e+02 -5.200130e+03 1.432870e-10
-7.142330e-12 -4.800170e+03 3.100170e-11
4.000000e+02 -4.800170e+03 8.043220e-11
-4.000000e+02 -4.800170e+03 -4.000000e+02
3.685680e-11 -4.800170e+03 -4.000000e+02
-4.000000e+02 -4.400180e+03 -4.000000e+02
1.417290e-10 -4.400180e+03 -4.000000e+02
-4.000000e+02 -4.800170e+03 9.875930e-11
-7.142330e-12 -4.800170e+03 3.100170e-11
-4.000000e+02 -4.400180e+03 5.316250e-11
9.364530e-11 -4.400180e+03 6.759900e-11
3.685680e-11 -4.800170e+03 -4.000000e+02
4.000000e+02 -4.800170e+03 -4.000000e+02
1.417290e-10 -4.400180e+03 -4.000000e+02
4.000000e+02 -4.400180e+03 -4.000000e+02
-7.142330e-12 -4.800170e+03 3.100170e-11
4.000000e+02 -4.800170e+03 8.043220e-11
9.364530e-11 -4.400180e+03 6.759900e-11
4.000000e+02 -4.400180e+03 1.586170e-10
-4.000000e+02 -4.400180e+03 -4.000000e+02
1.417290e-10 -4.400180e+03 -4.000000e+02
-4.000000e+02 -4.000190e+03 -4.000000e+02
1.468560e-10 -4.000190e+03 -4.000000e+02
-4.000000e+02 -4.400180e+03 5.316250e-11
9.364530e-11 -4.400180e+03 6.759900e-11
-4.000000e+02 -4.000190e+03 -6.992770e-11
1.224970e-10 -4.000190e+03 1.739250e-10
1.417290e-10 -4.400180e+03 -4.000000e+02
4.000000e+02 -4.400180e+03 -4.000000e+02
1.468560e-10 -4.000190e+03 -4.000000e+02
4.000000e+02 -4.000190e+03 -4.000000e+02
9.364530e-11 -4.400180e+03 6.759900e-11
4.000000e+02 -4.400180e+03 1.586170e-10
1.224970e-10 -4.000190e+03 1.739250e-10
4.000000e+02 -4.000190e+03 9.720890e-11
-4.000000e+02 -4.000190e+03 -4.000000e+02
1.468560e-10 -4.000190e+03 -4.000000e+02
-4.000000e+02 -3.600190e+03 -4.000000e+02
1.124760e-10 -3.600190e+03 -4.000000e+02
-4.000000e+02 -4.000190e+03 -6.992770e-11
1.224970e-10 -4.000190e+03 1.739250e-10
-4.000000e+02 -3.600190e+03 -2.619640e-11
2.331190e-12 -3.600190e+03 1.939380e-10
1.468560e-10 -4.000190e+03 -4.000000e+02
4.000000e+02 -4.000190e+03 -4.000000e+02
1.124760e-10 -3.600190e+03 -4.000000e+02
4.000000e+02 -3.600190e+03 -4.000000e+02
1.224970e-10 -4.000190e+03 1.739250e-10
4.000000e+02 -4.000190e+03 9.720890e-11
2.331190e-12 -3.600190e+03 1.939380e-10
4.000000e+02 -3.600190e+03 1.743520e-10
-4.000000e+02 -3.600190e+03 -4.000000e+02
1.124760e-10 -3.600190e+03 -4.000000e+02
-4.000000e+02 -3.200200e+03 -4.000000e+02
4.103290e-11 -3.200200e+03 -4.000000e+02
-4.000000e+02 -3.600190e+03 -2.619640e-11
2.331190e-12 -3.600190e+03 1.939380e-10
-4.000000e+02 -3.200200e+03 4.988730e-11
6.236280e-11 -3.200200e+03 1.932740e-10
1.124760e-10 -3.600190e+03 -4.000000e+02
4.000000e+02 -3.600190e+03 -4.000000e+02
4.103290e-11 -3.200200e+03 -4.000000e+02
4.000000e+02 -3.200200e+03 -4.000000e+02
2.331190e-12 -3.600190e+03 1.939380e-10
4.000000e+02 -3.600190e+03 1.743520e-10
6.236280e-11 -3.200200e+03 1.932740e-10
4.000000e+02 -3.200200e+03 2.266430e-10
-4.000000e+02 -3.200200e+03 -4.000000e+02
4.103290e-11 -3.200200e+03 -4.000000e+02
-4.000000e+02 -2.800200e+03 -4.000000e+02
1.338030e-10 -2.800200e+03 -4.000000e+02
-4.000000e+02 -3.200200e+03 4.988730e-11
6.236280e-11 -3.200200e+03 1.932740e-10
-4.000000e+02 -2.800200e+03 8.004500e-11
2.291410e-11 -2.800200e+03 1.584910e-10
4.103290e-11 -3.200200e+03 -4.000000e+02
4.000000e+02 -3.200200e+03 -4.000000e+02
1.338030e-10 -2.800200e+03 -4.000000e+02
4.000000e+02 -2.800200e+03 -4.000000e+02
6.236280e-11 -3.200200e+03 1.932740e-10
4.000000e+02 -3.200200e+03 2.266430e-10
2.291410e-11 -2.800200e+03 1.584910e-10
4.000000e+02 -2.800200e+03 2.017800e-10
-4.000000e+02 -2.800200e+03 -4.000000e+02
1.338030e-10 -2.800200e+03 -4.000000e+02
-4.000000e+02 -2.400200e+03 -4.000000e+02
2.068410e-10 -2.400200e+03 -4.000000e+02
-4.000000e+02 -2.800200e+03 8.004500e-11
2.291410e-11 -2.800200e+03 1.584910e-10
-4.000000e+02 -2.400200e+03 3.182140e-11
-1.941260e-12 -2.400200e+03 2.381040e-11
1.338030e-10 -2.800200e+03 -4.000000e+02
4.000000e+02 -2.800200e+03 -4.000000e+02
2.068410e-10 -2.400200e+03 -4.000000e+02
4.000000e+02 -2.400200e+03 -4.000000e+02
2.291410e-11 -2.800200e+03 1.584910e-10
4.000000e+02 -2.800200e+03 2.017800e-10
-1.941260e-12 -2.400200e+03 2.381040e-11
4.000000e+02 -2.400200e+03 1.252550e-10
-4.000000e+02 -2.400200e+03 -4.000000e+02
2.068410e-10 -2.400200e+03 -4.000000e+02
-4.000000e+02 -2.000200e+03 -4.000000e+02
9.920950e-11 -2.000200e+03 -4.000000e+02
-4.000000e+02 -2.400200e+03 3.182140e-11
-1.941260e-12 -2.400200e+03 2.381040e-11
-4.000000e+02 -2.000200e+03 -5.150400e-11
2.835420e-11 -2.000200e+03 -4.147840e-11
2.068410e-10 -2.400200e+03 -4.000000e+02
4.000000e+02 -2.400200e+03 -4.000000e+02
9.920950e-11 -2.000200e+03 -4.000000e+02
4.000000e+02 -2.000200e+03 -4.000000e+02
-1.941260e-12 -2.400200e+03 2.381040e-11
4.000000e+02 -2.400200e+03 1.252550e-10
2.835420e-11 -2.000200e+03 -4.147840e-11
4.000000e+02 -2.000200e+03 1.151060e-10
-4.000000e+02 -2.000200e+03 -4.000000e+02
9.920950e-11 -2.000200e+03 -4.000000e+02
-4.000000e+02 -1.600200e+03 -4.000000e+02
-2.007610e-11 -1.600200e+03 -4.000000e+02
-4.000000e+02 -2.000200e+03 -5.150400e-11
2.835420e-11 -2.000200e+03 -4.147840e-11
-4.000000e+02 -1.600200e+03 -9.821330e-11
-7.535000e-11 -1.600200e+03 -4.198820e-11
9.920950e-11 -2.000200e+03 -4.000000e+02
4.000000e+02 -2.000200e+03 -4.000000e+02
-2.007610e-11 -1.600200e+03 -4.000000e+02
4.000000e+02 -1.600200e+03 -4.000000e+02
2.835420e-11 -2.000200e+03 -4.147840e-11
4.000000e+02 -2.000200e+03 1.151060e-10
-7.535000e-11 -1.600200e+03 -4.198820e-11
4.000000e+02 -1.600200e+03 8.511860e-11
-4.000000e+02 -1.600200e+03 -4.000000e+02
-2.007610e-11 -1.600200e+03 -4.000000e+02
-4.000000e+02 -1.200210e+03 -4.000000e+02
-2.564040e-10 -1.200210e+03 -4.000000e+02
-4.000000e+02 -1.600200e+03 -9.821330e-11
-7.535000e-11 -1.600200e+03 -4.198820e-11
-4.000000e+02 -1.200210e+03 -6.014910e-11
-2.525260e-10 -1.200210e+03 -5.925070e-11
-2.007610e-11 -1.600200e+03 -4.000000e+02
4.000000e+02 -1.600200e+03 -4.000000e+02
-2.564040e-10 -1.200210e+03 -4.000000e+02
4.000000e+02 -1.200210e+03 -4.000000e+02
-7.535000e-11 -1.600200e+03 -4.198820e-11
4.000000e+02 -1.600200e+03 8.511860e-11
-2.525260e-10 -1.200210e+03 -5.925070e-11
4.000000e+02 -1.200210e+03 3.090110e-11
-4.000000e+02 -1.200210e+03 -4.000000e+02
-2.564040e-10 -1.200210e+03 -4.000000e+02
-4.000000e+02 -8.002070e+02 -4.000000e+02
-2.867570e-10 -8.002070e+02 -4.000000e+02
-4.000000e+02 -1.200210e+03 -6.014910e-11
-2.525260e-10 -1.200210e+03 -5.925070e-11
-4.000000e+02 -8.002070e+02 -5.154080e-11
-3.398390e-10 -8.002070e+02 -1.006220e-12
-2.564040e-10 -1.200210e+03 -4.000000e+02
4.000000e+02 -1.200210e+03 -4.000000e+02
-2.867570e-10 -8.002070e+02 -4.000000e+02
4.000000e+02 -8.002070e+02 -4.000000e+02
-2.525260e-10 -1.200210e+03 -5.925070e-11
4.000000e+02 -1.200210e+03 3.090110e-11
-3.398390e-10 -8.002070e+02 -1.006220e-12
4.000000e+02 -8.002070e+02 -5.888110e-11
-4.000000e+02 -8.002070e+02 -4.000000e+02
-2.867570e-10 -8.002070e+02 -4.000000e+02
-4.000000e+02 -4.002090e+02 -4.000000e+02
-1.916820e-10 -4.002090e+02 -4.000000e+02
-4.000000e+02 -8.002070e+02 -5.154080e-11
-3.398390e-10 -8.002070e+02 -1.006220e-12
-4.000000e+02 -4.002090e+02 -4.837460e-11
-2.983830e-10 -4.002090e+02 -6.298700e-11
-2.867570e-10 -8.002070e+02 -4.000000e+02
4.000000e+02 -8.002070e+02 -4.000000e+02
-1.916820e-10 -4.002090e+02 -4.000000e+02
4.000000e+02 -4.002090e+02 -4.000000e+02
-3.398390e-10 -8.002070e+02 -1.006220e-12
4.000000e+02 -8.002070e+02 -5.888110e-11
-2.983830e-10 -4.002090e+02 -6.298700e-11
4.000000e+02 -4.002090e+02 -1.058170e-10
-4.000000e+02 -4.002090e+02 -4.000000e+02
-1.916820e-10 -4.002090e+02 -4.000000e+02
-4.000000e+02 -2.100460e-01 -4.000000e+02
-2.082530e-10 -2.100460e-01 -4.000000e+02
-4.000000e+02 -4.002090e+02 -4.837460e-11
-2.983830e-10 -4.002090e+02 -6.298700e-11
-4.000000e+02 -2.100460e-01 -8.219880e-11
-2.538410e-10 -2.100460e-01 -7.382720e-11
-1.916820e-10 -4.002090e+02 -4.000000e+02
4.000000e+02 -4.002090e+02 -4.000000e+02
-2.082530e-10 -2.100460e-01 -4.000000e+02
4.000000e+02 -2.100460e-01 -4.000000e+02
[...]
<PointData>
<DataArray type="Float32" Name="V1" format="ascii">
0.000000e+00
0.000000e+00
5.636410e-09
9.523660e-11
0.000000e+00
0.000000e+00
5.883860e-09
8.090220e-11
0.000000e+00
0.000000e+00
9.523660e-11
-5.518580e-09
0.000000e+00
0.000000e+00
8.090220e-11
-5.876010e-09
5.636410e-09
9.523660e-11
1.512210e-09
-8.153950e-11
5.883860e-09
8.090220e-11
1.696820e-09
2.286840e-10
9.523660e-11
-5.518580e-09
-8.153950e-11
-1.571130e-09
8.090220e-11
-5.876010e-09
2.286840e-10
-1.355100e-09
1.512210e-09
-8.153950e-11
-1.723920e-08
1.557210e-11
1.696820e-09
2.286840e-10
-1.700350e-08
4.290850e-11
-8.153950e-11
-1.571130e-09
1.557210e-11
1.705850e-08
2.286840e-10
-1.355100e-09
4.290850e-11
1.712920e-08
-1.723920e-08
1.557210e-11
2.707050e-08
1.315820e-10
-1.700350e-08
4.290850e-11
2.694480e-08
-1.244670e-10
1.557210e-11
1.705850e-08
1.315820e-10
-2.681520e-08
4.290850e-11
1.712920e-08
-1.244670e-10
-2.740440e-08
2.707050e-08
1.315820e-10
-1.192090e-08
-3.398880e-11
2.694480e-08
-1.244670e-10
-1.260440e-08
2.249180e-11
1.315820e-10
-2.681520e-08
-3.398880e-11
1.192480e-08
-1.244670e-10
-2.740440e-08
2.249180e-11
1.263970e-08
-1.192090e-08
-3.398880e-11
-2.816640e-08
-1.313830e-11
-1.260440e-08
2.249180e-11
-2.773430e-08
-1.047010e-10
-3.398880e-11
1.192480e-08
-1.313830e-11
2.829200e-08
2.249180e-11
1.263970e-08
-1.047010e-10
2.750650e-08
-2.816640e-08
-1.313830e-11
5.220850e-08
-4.255850e-11
-2.773430e-08
-1.047010e-10
5.174890e-08
-1.364930e-11
-1.313830e-11
2.829200e-08
-4.255850e-11
-5.227530e-08
-1.047010e-10
2.750650e-08
-1.364930e-11
-5.186290e-08
5.220850e-08
-4.255850e-11
-1.346850e-08
-2.265880e-10
5.174890e-08
-1.364930e-11
-1.324850e-08
1.161420e-10
-4.255850e-11
-5.227530e-08
-2.265880e-10
1.290290e-08
-1.364930e-11
-5.186290e-08
1.161420e-10
1.349200e-08
-1.346850e-08
-2.265880e-10
-4.994220e-08
3.630420e-11
-1.324850e-08
1.161420e-10
-4.941580e-08
-5.576560e-11
-2.265880e-10
1.290290e-08
3.630420e-11
4.989110e-08
1.161420e-10
1.349200e-08
-5.576560e-11
4.919190e-08
-4.994220e-08
3.630420e-11
3.509890e-08
1.397140e-10
-4.941580e-08
-5.576560e-11
3.427800e-08
-7.517140e-11
3.630420e-11
4.989110e-08
1.397140e-10
-3.491830e-08
-5.576560e-11
4.919190e-08
-7.517140e-11
-3.446260e-08
3.509890e-08
1.397140e-10
3.997730e-08
1.406950e-10
3.427800e-08
-7.517140e-11
3.962770e-08
1.304090e-10
1.397140e-10
-3.491830e-08
1.406950e-10
-3.980840e-08
-7.517140e-11
-3.446260e-08
1.304090e-10
-3.954920e-08
3.997730e-08
1.406950e-10
-4.320200e-08
1.142150e-10
3.962770e-08
1.304090e-10
-4.276600e-08
1.069550e-10
1.406950e-10
-3.980840e-08
1.142150e-10
4.333160e-08
1.304090e-10
-3.954920e-08
1.069550e-10
4.294670e-08
-4.320200e-08
1.142150e-10
-2.795820e-08
-1.182160e-10
-4.276600e-08
1.069550e-10
-2.757720e-08
-1.074760e-11
1.142150e-10
4.333160e-08
-1.182160e-10
2.752610e-08
1.069550e-10
4.294670e-08
-1.074760e-11
2.744760e-08
-2.795820e-08
-1.182160e-10
4.266000e-08
-5.406520e-11
-2.757720e-08
-1.074760e-11
4.265210e-08
-1.749210e-11
-1.182160e-10
2.752610e-08
-5.406520e-11
-4.266780e-08
-1.074760e-11
2.744760e-08
-1.749210e-11
-4.260890e-08
4.266000e-08
-5.406520e-11
3.030700e-08
-1.075860e-11
4.265210e-08
-1.749210e-11
3.072730e-08
-2.050890e-11
-5.406520e-11
-4.266780e-08
-1.075860e-11
-3.018520e-08
-1.749210e-11
-4.260890e-08
-2.050890e-11
-3.073910e-08
3.030700e-08
-1.075860e-11
-2.263210e-08
-8.663510e-11
3.072730e-08
-2.050890e-11
-2.272240e-08
-3.354620e-11
-1.075860e-11
-3.018520e-08
-8.663510e-11
2.249460e-08
-2.050890e-11
-3.073910e-08
-3.354620e-11
2.254570e-08
-2.263210e-08
-8.663510e-11
-4.463170e-08
6.741620e-11
-2.272240e-08
-3.354620e-11
-4.493810e-08
-5.378520e-11
-8.663510e-11
2.249460e-08
6.741620e-11
4.478890e-08
-3.354620e-11
2.254570e-08
-5.378520e-11
4.492630e-08
-4.463170e-08
6.741620e-11
-1.812690e-08
4.307850e-11
-4.493810e-08
-5.378520e-11
-1.800510e-08
5.587670e-11
6.741620e-11
4.478890e-08
4.307850e-11
1.811510e-08
-5.378520e-11
4.492630e-08
5.587670e-11
1.813080e-08
-1.812690e-08
4.307850e-11
6.009560e-09
-5.435610e-11
-1.800510e-08
5.587670e-11
5.974200e-09
4.291600e-13
4.307850e-11
1.811510e-08
-5.435610e-11
-5.974200e-09
5.587670e-11
1.813080e-08
4.291600e-13
-6.009560e-09
6.009560e-09
-5.435610e-11
8.354460e-09
-1.164660e-11
5.974200e-09
4.291600e-13
8.323040e-09
-8.687570e-12
-5.435610e-11
-5.974200e-09
-1.164660e-11
-8.295540e-09
4.291600e-13
-6.009560e-09
-8.687570e-12
-8.342680e-09
8.354460e-09
-1.164660e-11
7.451060e-09
-2.944530e-11
8.323040e-09
-8.687570e-12
7.502120e-09
-1.188540e-11
-1.164660e-11
-8.295540e-09
-2.944530e-11
-7.498200e-09
-8.687570e-12
-8.342680e-09
-1.188540e-11
-7.549260e-09
7.451060e-09
-2.944530e-11
7.054350e-09
-9.997230e-12
7.502120e-09
-1.188540e-11
7.050430e-09
-8.789420e-12
-2.944530e-11
-7.498200e-09
-9.997230e-12
-7.046500e-09
-1.188540e-11
-7.549260e-09
-8.789420e-12
-7.050430e-09
7.054350e-09
-9.997230e-12
1.983550e-09
-2.374930e-11
7.050430e-09
-8.789420e-12
1.987470e-09
-1.686480e-11
-9.997230e-12
-7.046500e-09
-2.374930e-11
-2.046390e-09
-8.789420e-12
-7.050430e-09
-1.686480e-11
-2.042460e-09
1.983550e-09
-2.374930e-11
-1.590760e-09
-1.796800e-11
1.987470e-09
-1.686480e-11
-1.586840e-09
-8.976540e-13
-2.374930e-11
-2.046390e-09
-1.796800e-11
1.551490e-09
-1.686480e-11
-2.042460e-09
-8.976540e-13
1.586840e-09
-1.590760e-09
-1.796800e-11
-3.267940e-09
1.293790e-11
-1.586840e-09
-8.976540e-13
-3.275800e-09
1.294860e-11
-1.796800e-11
1.551490e-09
1.293790e-11
3.311150e-09
-8.976540e-13
1.586840e-09
1.294860e-11
3.303290e-09
-3.267940e-09
1.293790e-11
-7.541400e-10
-4.710330e-12
-3.275800e-09
1.294860e-11
-7.345010e-10
-6.781240e-12
1.293790e-11
3.311150e-09
-4.710330e-12
7.462850e-10
1.294860e-11
3.303290e-09
-6.781240e-12
7.187900e-10
-7.541400e-10
-4.710330e-12
1.724310e-09
-1.537630e-11
-7.345010e-10
-6.781240e-12
1.736090e-09
-1.572110e-11
-4.710330e-12
7.462850e-10
-1.537630e-11
-1.763590e-09
-6.781240e-12
7.187900e-10
-1.572110e-11
-1.771440e-09
1.724310e-09
-1.537630e-11
1.497280e-08
-8.309990e-12
1.736090e-09
-1.572110e-11
1.474110e-08
-1.015710e-11
-1.537630e-11
-1.763590e-09
-8.309990e-12
-1.497280e-08
-1.572110e-11
-1.771440e-09
-1.015710e-11
-1.474890e-08
1.497280e-08
-8.309990e-12
3.543670e-08
-9.146370e-12
1.474110e-08
-1.015710e-11
3.491040e-08
-7.787900e-12
-8.309990e-12
-1.497280e-08
-9.146370e-12
-3.544850e-08
-1.015710e-11
-1.474890e-08
-7.787900e-12
-3.491040e-08
3.543670e-08
-9.146370e-12
-1.232000e-07
-2.024970e-11
3.491040e-08
-7.787900e-12
-1.212560e-07
-2.160990e-11
-9.146370e-12
-3.544850e-08
-2.024970e-11
1.231570e-07
-7.787900e-12
-3.491040e-08
-2.160990e-11
1.212160e-07
0.000000e+00
0.000000e+00
5.883860e-09
8.090220e-11
0.000000e+00
0.000000e+00
5.561780e-09
-7.584980e-11
0.000000e+00
0.000000e+00
8.090220e-11
-5.876010e-09
0.000000e+00
0.000000e+00
-7.584980e-11
-5.789600e-09
5.883860e-09
8.090220e-11
1.696820e-09
2.286840e-10
5.561780e-09
-7.584980e-11
1.339380e-09
4.275760e-11
8.090220e-11
-5.876010e-09
2.286840e-10
-1.355100e-09
-7.584980e-11
-5.789600e-09
4.275760e-11
-1.311890e-09
1.696820e-09
2.286840e-10
-1.700350e-08
4.290850e-11
1.339380e-09
4.275760e-11
-1.678750e-08
1.015370e-11
2.286840e-10
-1.355100e-09
4.290850e-11
1.712920e-08
4.275760e-11
-1.311890e-09
1.015370e-11
1.674030e-08
-1.700350e-08
4.290850e-11
2.694480e-08
-1.244670e-10
-1.678750e-08
1.015370e-11
2.688200e-08
-6.022730e-12
4.290850e-11
1.712920e-08
-1.244670e-10
-2.740440e-08
1.015370e-11
1.674030e-08
-6.022730e-12
-2.668160e-08
2.694480e-08
-1.244670e-10
-1.260440e-08
2.249180e-11
2.688200e-08
-6.022730e-12
-1.183060e-08
6.587970e-11
-1.244670e-10
-2.740440e-08
2.249180e-11
1.263970e-08
-6.022730e-12
-2.668160e-08
6.587970e-11
1.177170e-08
-1.260440e-08
2.249180e-11
-2.773430e-08
-1.047010e-10
-1.183060e-08
6.587970e-11
-2.804460e-08
4.273970e-12
2.249180e-11
1.263970e-08
-1.047010e-10
2.750650e-08
6.587970e-11
1.177170e-08
4.273970e-12
2.809960e-08
-2.773430e-08
-1.047010e-10
5.174890e-08
-1.364930e-11
-2.804460e-08
4.273970e-12
5.206320e-08
1.037770e-11
-1.047010e-10
2.750650e-08
-1.364930e-11
-5.186290e-08
4.273970e-12
2.809960e-08
1.037770e-11
-5.204750e-08
5.174890e-08
-1.364930e-11
-1.324850e-08
1.161420e-10
5.206320e-08
1.037770e-11
-1.338210e-08
-1.593060e-10
-1.364930e-11
-5.186290e-08
1.161420e-10
1.349200e-08
1.037770e-11
-5.204750e-08
-1.593060e-10
1.302860e-08
-1.324850e-08
1.161420e-10
-4.941580e-08
-5.576560e-11
-1.338210e-08
-1.593060e-10
-4.980860e-08
-1.383390e-11
1.161420e-10
1.349200e-08
-5.576560e-11
4.919190e-08
-1.593060e-10
1.302860e-08
-1.383390e-11
4.968680e-08
-4.941580e-08
-5.576560e-11
3.427800e-08
-7.517140e-11
-4.980860e-08
-1.383390e-11
3.490260e-08
-7.530330e-11
-5.576560e-11
4.919190e-08
-7.517140e-11
-3.446260e-08
-1.383390e-11
4.968680e-08
-7.530330e-11
-3.500070e-08
3.427800e-08
-7.517140e-11
3.962770e-08
1.304090e-10
3.490260e-08
-7.530330e-11
3.991050e-08
4.039000e-11
-7.517140e-11
-3.446260e-08
1.304090e-10
-3.954920e-08
-7.530330e-11
-3.500070e-08
4.039000e-11
-3.974950e-08
3.962770e-08
1.304090e-10
-4.276600e-08
1.069550e-10
3.991050e-08
4.039000e-11
-4.317450e-08
9.187580e-11
1.304090e-10
-3.954920e-08
1.069550e-10
4.294670e-08
4.039000e-11
-3.974950e-08
9.187580e-11
4.326880e-08
-4.276600e-08
1.069550e-10
-2.757720e-08
-1.074760e-11
-4.317450e-08
9.187580e-11
-2.775790e-08
-5.656170e-11
1.069550e-10
4.294670e-08
-1.074760e-11
2.744760e-08
9.187580e-11
4.326880e-08
-5.656170e-11
2.767540e-08
-2.757720e-08
-1.074760e-11
4.265210e-08
-1.749210e-11
-2.775790e-08
-5.656170e-11
4.264820e-08
-2.756030e-11
-1.074760e-11
2.744760e-08
-1.749210e-11
-4.260890e-08
-5.656170e-11
2.767540e-08
-2.756030e-11
-4.258540e-08
4.265210e-08
-1.749210e-11
3.072730e-08
-2.050890e-11
4.264820e-08
-2.756030e-11
3.031090e-08
1.356930e-11
-1.749210e-11
-4.260890e-08
-2.050890e-11
-3.073910e-08
-2.756030e-11
-4.258540e-08
1.356930e-11
-3.035410e-08
3.072730e-08
-2.050890e-11
-2.272240e-08
-3.354620e-11
3.031090e-08
1.356930e-11
-2.249070e-08
-3.916290e-11
-2.050890e-11
-3.073910e-08
-3.354620e-11
2.254570e-08
1.356930e-11
-3.035410e-08
-3.916290e-11
2.258100e-08
-2.272240e-08
-3.354620e-11
-4.493810e-08
-5.378520e-11
-2.249070e-08
-3.916290e-11
-4.472600e-08
6.350690e-11
-3.354620e-11
2.254570e-08
-5.378520e-11
4.492630e-08
-3.916290e-11
2.258100e-08
6.350690e-11
4.481640e-08
-4.493810e-08
-5.378520e-11
-1.800510e-08
5.587670e-11
-4.472600e-08
6.350690e-11
-1.820930e-08
-7.497150e-11
-5.378520e-11
4.492630e-08
5.587670e-11
1.813080e-08
6.350690e-11
4.481640e-08
-7.497150e-11
1.807190e-08
-1.800510e-08
5.587670e-11
5.974200e-09
4.291600e-13
-1.820930e-08
-7.497150e-11
6.060620e-09
-4.311750e-12
5.587670e-11
1.813080e-08
4.291600e-13
-6.009560e-09
-7.497150e-11
1.807190e-08
-4.311750e-12
-6.025270e-09
5.974200e-09
4.291600e-13
8.323040e-09
-8.687570e-12
6.060620e-09
-4.311750e-12
8.429090e-09
2.309300e-11
4.291600e-13
-6.009560e-09
-8.687570e-12
-8.342680e-09
-4.311750e-12
-6.025270e-09
2.309300e-11
-8.326970e-09
8.323040e-09
-8.687570e-12
7.502120e-09
-1.188540e-11
8.429090e-09
2.309300e-11
7.478560e-09
-1.391450e-11
-8.687570e-12
-8.342680e-09
-1.188540e-11
-7.549260e-09
2.309300e-11
-8.326970e-09
-1.391450e-11
-7.506050e-09
7.502120e-09
-1.188540e-11
7.050430e-09
-8.789420e-12
7.478560e-09
-1.391450e-11
7.038640e-09
-1.757120e-11
-1.188540e-11
-7.549260e-09
-8.789420e-12
-7.050430e-09
-1.391450e-11
-7.506050e-09
-1.757120e-11
-7.034710e-09
7.050430e-09
-8.789420e-12
1.987470e-09
-1.686480e-11
7.038640e-09
-1.757120e-11
1.983550e-09
-2.066820e-11
-8.789420e-12
-7.050430e-09
-1.686480e-11
-2.042460e-09
-1.757120e-11
-7.034710e-09
-2.066820e-11
-2.034610e-09
1.987470e-09
-1.686480e-11
-1.586840e-09
-8.976540e-13
1.983550e-09
-2.066820e-11
-1.575050e-09
1.866680e-11
-1.686480e-11
-2.042460e-09
-8.976540e-13
1.586840e-09
-2.066820e-11
-2.034610e-09
1.866680e-11
1.598620e-09
-1.586840e-09
-8.976540e-13
-3.275800e-09
1.294860e-11
-1.575050e-09
1.866680e-11
-3.287580e-09
1.114920e-11
-8.976540e-13
1.586840e-09
1.294860e-11
3.303290e-09
1.866680e-11
1.598620e-09
1.114920e-11
3.303290e-09
-3.275800e-09
1.294860e-11
-7.345010e-10
-6.781240e-12
-3.287580e-09
1.114920e-11
-7.737790e-10
-2.231470e-11
1.294860e-11
3.303290e-09
-6.781240e-12
7.187900e-10
1.114920e-11
3.303290e-09
-2.231470e-11
7.266460e-10
-7.345010e-10
-6.781240e-12
1.736090e-09
-1.572110e-11
-7.737790e-10
-2.231470e-11
1.755730e-09
-1.533290e-11
-6.781240e-12
7.187900e-10
-1.572110e-11
-1.771440e-09
-2.231470e-11
7.266460e-10
-1.533290e-11
-1.779300e-09
1.736090e-09
-1.572110e-11
1.474110e-08
-1.015710e-11
1.755730e-09
-1.533290e-11
1.496100e-08
-9.785070e-12
-1.572110e-11
-1.771440e-09
-1.015710e-11
-1.474890e-08
-1.533290e-11
-1.779300e-09
-9.785070e-12
-1.497680e-08
1.474110e-08
-1.015710e-11
3.491040e-08
-7.787900e-12
1.496100e-08
-9.785070e-12
3.541320e-08
-1.061420e-11
-1.015710e-11
-1.474890e-08
-7.787900e-12
-3.491040e-08
-9.785070e-12
-1.497680e-08
-1.061420e-11
-3.544070e-08
3.491040e-08
-7.787900e-12
-1.212560e-07
-2.160990e-11
3.541320e-08
-1.061420e-11
-1.232040e-07
-2.294660e-11
-7.787900e-12
-3.491040e-08
-2.160990e-11
1.212160e-07
-1.061420e-11
-3.544070e-08
-2.294660e-11
1.231610e-07
</DataArray>
<DataArray type="Float32" Name="V2" format="ascii">
0.000000e+00
0.000000e+00
-2.012970e-03
-2.012980e-03
0.000000e+00
0.000000e+00
-2.012980e-03
-2.012980e-03
0.000000e+00
0.000000e+00
-2.012980e-03
-2.012970e-03
0.000000e+00
0.000000e+00
-2.012980e-03
-2.012980e-03
-2.012970e-03
-2.012980e-03
-5.648190e-03
-5.648180e-03
-2.012980e-03
-2.012980e-03
-5.648180e-03
-5.648180e-03
-2.012980e-03
-2.012970e-03
-5.648180e-03
-5.648190e-03
-2.012980e-03
-2.012980e-03
-5.648180e-03
-5.648190e-03
-5.648190e-03
-5.648180e-03
-8.288260e-03
-8.288260e-03
-5.648180e-03
-5.648180e-03
-8.288260e-03
-8.288260e-03
-5.648180e-03
-5.648190e-03
-8.288260e-03
-8.288260e-03
-5.648180e-03
-5.648190e-03
-8.288260e-03
-8.288260e-03
-8.288260e-03
-8.288260e-03
-7.507060e-03
-7.507070e-03
-8.288260e-03
-8.288260e-03
-7.507070e-03
-7.507090e-03
-8.288260e-03
-8.288260e-03
-7.507070e-03
-7.507060e-03
-8.288260e-03
-8.288260e-03
-7.507090e-03
-7.507070e-03
-7.507060e-03
-7.507070e-03
-4.836820e-03
-4.836810e-03
-7.507070e-03
-7.507090e-03
-4.836810e-03
-4.836800e-03
-7.507070e-03
-7.507060e-03
-4.836810e-03
-4.836820e-03
-7.507090e-03
-7.507070e-03
-4.836800e-03
-4.836810e-03
-4.836820e-03
-4.836810e-03
-2.803890e-03
-2.803880e-03
-4.836810e-03
-4.836800e-03
-2.803880e-03
-2.803860e-03
-4.836810e-03
-4.836820e-03
-2.803880e-03
-2.803890e-03
-4.836800e-03
-4.836810e-03
-2.803860e-03
-2.803880e-03
-2.803890e-03
-2.803880e-03
-1.908420e-03
-1.908450e-03
-2.803880e-03
-2.803860e-03
-1.908450e-03
-1.908480e-03
-2.803880e-03
-2.803890e-03
-1.908450e-03
-1.908420e-03
-2.803860e-03
-2.803880e-03
-1.908480e-03
-1.908450e-03
-1.908420e-03
-1.908450e-03
-1.621160e-03
-1.621160e-03
-1.908450e-03
-1.908480e-03
-1.621150e-03
-1.621150e-03
-1.908450e-03
-1.908420e-03
-1.621160e-03
-1.621160e-03
-1.908480e-03
-1.908450e-03
-1.621150e-03
-1.621150e-03
-1.621160e-03
-1.621160e-03
-1.493240e-03
-1.493230e-03
-1.621150e-03
-1.621150e-03
-1.493230e-03
-1.493220e-03
-1.621160e-03
-1.621160e-03
-1.493230e-03
-1.493240e-03
-1.621150e-03
-1.621150e-03
-1.493220e-03
-1.493230e-03
-1.493240e-03
-1.493230e-03
-1.325890e-03
-1.325900e-03
-1.493230e-03
-1.493220e-03
-1.325900e-03
-1.325920e-03
-1.493230e-03
-1.493240e-03
-1.325900e-03
-1.325890e-03
-1.493220e-03
-1.493230e-03
-1.325920e-03
-1.325900e-03
-1.325890e-03
-1.325900e-03
-1.196650e-03
-1.196600e-03
-1.325900e-03
-1.325920e-03
-1.196600e-03
-1.196550e-03
-1.325900e-03
-1.325890e-03
-1.196600e-03
-1.196650e-03
-1.325920e-03
-1.325900e-03
-1.196550e-03
-1.196600e-03
-1.196650e-03
-1.196600e-03
-1.140960e-03
-1.140960e-03
-1.196600e-03
-1.196550e-03
-1.140960e-03
-1.140960e-03
-1.196600e-03
-1.196650e-03
-1.140960e-03
-1.140960e-03
-1.196550e-03
-1.196600e-03
-1.140960e-03
-1.140960e-03
-1.140960e-03
-1.140960e-03
-1.058950e-03
-1.059010e-03
-1.140960e-03
-1.140960e-03
-1.059010e-03
-1.059060e-03
-1.140960e-03
-1.140960e-03
-1.059010e-03
-1.058950e-03
-1.140960e-03
-1.140960e-03
-1.059060e-03
-1.059010e-03
-1.058950e-03
-1.059010e-03
-9.220650e-04
-9.221060e-04
-1.059010e-03
-1.059060e-03
-9.221060e-04
-9.221480e-04
-1.059010e-03
-1.058950e-03
-9.221060e-04
-9.220640e-04
-1.059060e-03
-1.059010e-03
-9.221480e-04
-9.221060e-04
-9.220650e-04
-9.221060e-04
-8.402660e-04
-8.402430e-04
-9.221060e-04
-9.221480e-04
-8.402420e-04
-8.402200e-04
-9.221060e-04
-9.220640e-04
-8.402430e-04
-8.402660e-04
-9.221480e-04
-9.221060e-04
-8.402200e-04
-8.402430e-04
-8.402660e-04
-8.402430e-04
-8.436530e-04
-8.436200e-04
-8.402420e-04
-8.402200e-04
-8.436190e-04
-8.435870e-04
-8.402430e-04
-8.402660e-04
-8.436200e-04
-8.436520e-04
-8.402200e-04
-8.402430e-04
-8.435870e-04
-8.436190e-04
-8.436530e-04
-8.436200e-04
-8.770490e-04
-8.770480e-04
-8.436190e-04
-8.435870e-04
-8.770480e-04
-8.770460e-04
-8.436200e-04
-8.436520e-04
-8.770480e-04
-8.770490e-04
-8.435870e-04
-8.436190e-04
-8.770460e-04
-8.770480e-04
-8.770490e-04
-8.770480e-04
-8.525520e-04
-8.525710e-04
-8.770480e-04
-8.770460e-04
-8.525700e-04
-8.525890e-04
-8.770480e-04
-8.770490e-04
-8.525710e-04
-8.525520e-04
-8.770460e-04
-8.770480e-04
-8.525890e-04
-8.525700e-04
-8.525520e-04
-8.525710e-04
-7.874050e-04
-7.874160e-04
-8.525700e-04
-8.525890e-04
-7.874160e-04
-7.874260e-04
-8.525710e-04
-8.525520e-04
-7.874160e-04
-7.874050e-04
-8.525890e-04
-8.525700e-04
-7.874260e-04
-7.874160e-04
-7.874050e-04
-7.874160e-04
-7.303950e-04
-7.303980e-04
-7.874160e-04
-7.874260e-04
-7.303980e-04
-7.304010e-04
-7.874160e-04
-7.874050e-04
-7.303980e-04
-7.303960e-04
-7.874260e-04
-7.874160e-04
-7.304010e-04
-7.303980e-04
-7.303950e-04
-7.303980e-04
-6.964040e-04
-6.964060e-04
-7.303980e-04
-7.304010e-04
-6.964060e-04
-6.964080e-04
-7.303980e-04
-7.303960e-04
-6.964060e-04
-6.964040e-04
-7.304010e-04
-7.303980e-04
-6.964080e-04
-6.964060e-04
-6.964040e-04
-6.964060e-04
-6.717830e-04
-6.717830e-04
-6.964060e-04
-6.964080e-04
-6.717830e-04
-6.717830e-04
-6.964060e-04
-6.964040e-04
-6.717830e-04
-6.717830e-04
-6.964080e-04
-6.964060e-04
-6.717830e-04
-6.717830e-04
-6.717830e-04
-6.717830e-04
-6.461280e-04
-6.461250e-04
-6.717830e-04
-6.717830e-04
-6.461250e-04
-6.461210e-04
-6.717830e-04
-6.717830e-04
-6.461250e-04
-6.461280e-04
-6.717830e-04
-6.717830e-04
-6.461210e-04
-6.461240e-04
-6.461280e-04
-6.461250e-04
-6.109860e-04
-6.109850e-04
-6.461250e-04
-6.461210e-04
-6.109850e-04
-6.109830e-04
-6.461250e-04
-6.461280e-04
-6.109850e-04
-6.109860e-04
-6.461210e-04
-6.461240e-04
-6.109830e-04
-6.109850e-04
-6.109860e-04
-6.109850e-04
-5.601220e-04
-5.601230e-04
-6.109850e-04
-6.109830e-04
-5.601230e-04
-5.601240e-04
-6.109850e-04
-6.109860e-04
-5.601230e-04
-5.601220e-04
-6.109830e-04
-6.109850e-04
-5.601240e-04
-5.601230e-04
-5.601220e-04
-5.601230e-04
-4.874890e-04
-4.874950e-04
-5.601230e-04
-5.601240e-04
-4.874950e-04
-4.875010e-04
-5.601230e-04
-5.601220e-04
-4.874950e-04
-4.874890e-04
-5.601240e-04
-5.601230e-04
-4.875010e-04
-4.874950e-04
-4.874890e-04
-4.874950e-04
-3.716100e-04
-3.716160e-04
-4.874950e-04
-4.875010e-04
-3.716160e-04
-3.716220e-04
-4.874950e-04
-4.874890e-04
-3.716160e-04
-3.716100e-04
-4.875010e-04
-4.874950e-04
-3.716220e-04
-3.716160e-04
-3.716100e-04
-3.716160e-04
-2.248470e-04
-2.248450e-04
-3.716160e-04
-3.716220e-04
-2.248450e-04
-2.248430e-04
-3.716160e-04
-3.716100e-04
-2.248450e-04
-2.248460e-04
-3.716220e-04
-3.716160e-04
-2.248430e-04
-2.248450e-04
-2.248470e-04
-2.248450e-04
-1.119250e-04
-1.117840e-04
-2.248450e-04
-2.248430e-04
-1.117840e-04
-1.116520e-04
-2.248450e-04
-2.248460e-04
-1.117840e-04
-1.119250e-04
-2.248430e-04
-2.248450e-04
-1.116520e-04
-1.117840e-04
-1.119250e-04
-1.117840e-04
-7.865440e-05
-7.830670e-05
-1.117840e-04
-1.116520e-04
-7.830670e-05
-7.797110e-05
-1.117840e-04
-1.119250e-04
-7.830670e-05
-7.865420e-05
-1.116520e-04
-1.117840e-04
-7.797110e-05
-7.830670e-05
0.000000e+00
0.000000e+00
-2.012980e-03
-2.012980e-03
0.000000e+00
0.000000e+00
-2.012970e-03
-2.012980e-03
0.000000e+00
0.000000e+00