<?xml version="1.0"?>
<VTKFile type="UnstructuredGrid" version="0.1" byte_order="LittleEndian" compressor="vtkZLibDataCompressor">
<UnstructuredGrid>
<Piece NumberOfPoints="960" NumberOfCells="120">
<Points>
<DataArray type="Float32" NumberOfComponents="3" format="ascii">
-4.000000e+02 -6.000000e+03 -4.000000e+02
0.000000e+00 -6.000000e+03 -4.000000e+02
-4.000000e+02 -5.600000e+03 -4.000000e+02
2.084860e-11 -5.600000e+03 -4.000000e+02
-4.000000e+02 -6.000000e+03 0.000000e+00
0.000000e+00 -6.000000e+03 0.000000e+00
-4.000000e+02 -5.600000e+03 -7.608240e-11
6.768310e-11 -5.600000e+03 -1.802160e-12
0.000000e+00 -6.000000e+03 -4.000000e+02
4.000000e+02 -6.000000e+03 -4.000000e+02
2.084860e-11 -5.600000e+03 -4.000000e+02
4.000000e+02 -5.600000e+03 -4.000000e+02
0.000000e+00 -6.000000e+03 0.000000e+00
4.000000e+02 -6.000000e+03 0.000000e+00
6.768310e-11 -5.600000e+03 -1.802160e-12
4.000000e+02 -5.600000e+03 1.653580e-11
-4.000000e+02 -5.600000e+03 -4.000000e+02
2.084860e-11 -5.600000e+03 -4.000000e+02
-4.000000e+02 -5.200000e+03 -4.000000e+02
1.394660e-10 -5.200000e+03 -4.000000e+02
-4.000000e+02 -5.600000e+03 -7.608240e-11
6.768310e-11 -5.600000e+03 -1.802160e-12
-4.000000e+02 -5.200000e+03 1.532390e-11
1.552090e-10 -5.200000e+03 1.827080e-11
2.084860e-11 -5.600000e+03 -4.000000e+02
4.000000e+02 -5.600000e+03 -4.000000e+02
1.394660e-10 -5.200000e+03 -4.000000e+02
4.000000e+02 -5.200000e+03 -4.000000e+02
6.768310e-11 -5.600000e+03 -1.802160e-12
4.000000e+02 -5.600000e+03 1.653580e-11
1.552090e-10 -5.200000e+03 1.827080e-11
4.000000e+02 -5.200000e+03 2.801610e-11
-4.000000e+02 -5.200000e+03 -4.000000e+02
1.394660e-10 -5.200000e+03 -4.000000e+02
-4.000000e+02 -4.800000e+03 -4.000000e+02
1.995720e-10 -4.800000e+03 -4.000000e+02
-4.000000e+02 -5.200000e+03 1.532390e-11
1.552090e-10 -5.200000e+03 1.827080e-11
-4.000000e+02 -4.800000e+03 -1.030300e-10
1.303940e-10 -4.800000e+03 -6.202050e-11
1.394660e-10 -5.200000e+03 -4.000000e+02
4.000000e+02 -5.200000e+03 -4.000000e+02
1.995720e-10 -4.800000e+03 -4.000000e+02
4.000000e+02 -4.800000e+03 -4.000000e+02
1.552090e-10 -5.200000e+03 1.827080e-11
4.000000e+02 -5.200000e+03 2.801610e-11
1.303940e-10 -4.800000e+03 -6.202050e-11
4.000000e+02 -4.800000e+03 -1.719770e-11
-4.000000e+02 -4.800000e+03 -4.000000e+02
1.995720e-10 -4.800000e+03 -4.000000e+02
-4.000000e+02 -4.400000e+03 -4.000000e+02
1.227010e-10 -4.400000e+03 -4.000000e+02
-4.000000e+02 -4.800000e+03 -1.030300e-10
1.303940e-10 -4.800000e+03 -6.202050e-11
-4.000000e+02 -4.400000e+03 -1.685880e-10
7.280460e-11 -4.400000e+03 -1.250720e-10
1.995720e-10 -4.800000e+03 -4.000000e+02
4.000000e+02 -4.800000e+03 -4.000000e+02
1.227010e-10 -4.400000e+03 -4.000000e+02
4.000000e+02 -4.400000e+03 -4.000000e+02
1.303940e-10 -4.800000e+03 -6.202050e-11
4.000000e+02 -4.800000e+03 -1.719770e-11
7.280460e-11 -4.400000e+03 -1.250720e-10
4.000000e+02 -4.400000e+03 -1.148080e-10
-4.000000e+02 -4.400000e+03 -4.000000e+02
1.227010e-10 -4.400000e+03 -4.000000e+02
-4.000000e+02 -4.000000e+03 -4.000000e+02
1.315390e-10 -4.000000e+03 -4.000000e+02
-4.000000e+02 -4.400000e+03 -1.685880e-10
7.280460e-11 -4.400000e+03 -1.250720e-10
-4.000000e+02 -4.000000e+03 -3.750240e-11
9.323390e-11 -4.000000e+03 -7.472230e-11
1.227010e-10 -4.400000e+03 -4.000000e+02
4.000000e+02 -4.400000e+03 -4.000000e+02
1.315390e-10 -4.000000e+03 -4.000000e+02
4.000000e+02 -4.000000e+03 -4.000000e+02
7.280460e-11 -4.400000e+03 -1.250720e-10
4.000000e+02 -4.400000e+03 -1.148080e-10
9.323390e-11 -4.000000e+03 -7.472230e-11
4.000000e+02 -4.000000e+03 -5.332760e-11
-4.000000e+02 -4.000000e+03 -4.000000e+02
1.315390e-10 -4.000000e+03 -4.000000e+02
-4.000000e+02 -3.600020e+03 -4.000000e+02
1.149630e-10 -3.600020e+03 -4.000000e+02
-4.000000e+02 -4.000000e+03 -3.750240e-11
9.323390e-11 -4.000000e+03 -7.472230e-11
-4.000000e+02 -3.600020e+03 -2.857470e-11
1.347590e-10 -3.600020e+03 -5.440850e-12
1.315390e-10 -4.000000e+03 -4.000000e+02
4.000000e+02 -4.000000e+03 -4.000000e+02
1.149630e-10 -3.600020e+03 -4.000000e+02
4.000000e+02 -3.600020e+03 -4.000000e+02
9.323390e-11 -4.000000e+03 -7.472230e-11
4.000000e+02 -4.000000e+03 -5.332760e-11
1.347590e-10 -3.600020e+03 -5.440850e-12
4.000000e+02 -3.600020e+03 4.350940e-11
-4.000000e+02 -3.600020e+03 -4.000000e+02
1.149630e-10 -3.600020e+03 -4.000000e+02
-4.000000e+02 -3.200040e+03 -4.000000e+02
1.624300e-10 -3.200040e+03 -4.000000e+02
-4.000000e+02 -3.600020e+03 -2.857470e-11
1.347590e-10 -3.600020e+03 -5.440850e-12
-4.000000e+02 -3.200040e+03 -6.069070e-11
2.050010e-10 -3.200040e+03 3.303910e-11
1.149630e-10 -3.600020e+03 -4.000000e+02
4.000000e+02 -3.600020e+03 -4.000000e+02
1.624300e-10 -3.200040e+03 -4.000000e+02
4.000000e+02 -3.200040e+03 -4.000000e+02
1.347590e-10 -3.600020e+03 -5.440850e-12
4.000000e+02 -3.600020e+03 4.350940e-11
2.050010e-10 -3.200040e+03 3.303910e-11
4.000000e+02 -3.200040e+03 5.717580e-12
-4.000000e+02 -3.200040e+03 -4.000000e+02
1.624300e-10 -3.200040e+03 -4.000000e+02
-4.000000e+02 -2.800080e+03 -4.000000e+02
2.082610e-10 -2.800080e+03 -4.000000e+02
-4.000000e+02 -3.200040e+03 -6.069070e-11
2.050010e-10 -3.200040e+03 3.303910e-11
-4.000000e+02 -2.800080e+03 -2.155910e-11
1.902950e-10 -2.800080e+03 4.222490e-11
1.624300e-10 -3.200040e+03 -4.000000e+02
4.000000e+02 -3.200040e+03 -4.000000e+02
2.082610e-10 -2.800080e+03 -4.000000e+02
4.000000e+02 -2.800080e+03 -4.000000e+02
2.050010e-10 -3.200040e+03 3.303910e-11
4.000000e+02 -3.200040e+03 5.717580e-12
1.902950e-10 -2.800080e+03 4.222490e-11
4.000000e+02 -2.800080e+03 4.202210e-11
-4.000000e+02 -2.800080e+03 -4.000000e+02
2.082610e-10 -2.800080e+03 -4.000000e+02
-4.000000e+02 -2.400130e+03 -4.000000e+02
1.060180e-10 -2.400130e+03 -4.000000e+02
-4.000000e+02 -2.800080e+03 -2.155910e-11
1.902950e-10 -2.800080e+03 4.222490e-11
-4.000000e+02 -2.400130e+03 1.226870e-10
7.265290e-11 -2.400130e+03 7.462960e-11
2.082610e-10 -2.800080e+03 -4.000000e+02
4.000000e+02 -2.800080e+03 -4.000000e+02
1.060180e-10 -2.400130e+03 -4.000000e+02
4.000000e+02 -2.400130e+03 -4.000000e+02
1.902950e-10 -2.800080e+03 4.222490e-11
4.000000e+02 -2.800080e+03 4.202210e-11
7.265290e-11 -2.400130e+03 7.462960e-11
4.000000e+02 -2.400130e+03 9.191120e-11
-4.000000e+02 -2.400130e+03 -4.000000e+02
1.060180e-10 -2.400130e+03 -4.000000e+02
-4.000000e+02 -2.000160e+03 -4.000000e+02
6.920320e-11 -2.000160e+03 -4.000000e+02
-4.000000e+02 -2.400130e+03 1.226870e-10
7.265290e-11 -2.400130e+03 7.462960e-11
-4.000000e+02 -2.000160e+03 2.300290e-10
-8.664430e-12 -2.000160e+03 1.139220e-10
1.060180e-10 -2.400130e+03 -4.000000e+02
4.000000e+02 -2.400130e+03 -4.000000e+02
6.920320e-11 -2.000160e+03 -4.000000e+02
4.000000e+02 -2.000160e+03 -4.000000e+02
7.265290e-11 -2.400130e+03 7.462960e-11
4.000000e+02 -2.400130e+03 9.191120e-11
-8.664430e-12 -2.000160e+03 1.139220e-10
4.000000e+02 -2.000160e+03 1.552750e-10
-4.000000e+02 -2.000160e+03 -4.000000e+02
6.920320e-11 -2.000160e+03 -4.000000e+02
-4.000000e+02 -1.600190e+03 -4.000000e+02
3.187930e-11 -1.600190e+03 -4.000000e+02
-4.000000e+02 -2.000160e+03 2.300290e-10
-8.664430e-12 -2.000160e+03 1.139220e-10
-4.000000e+02 -1.600190e+03 1.620160e-10
9.479580e-12 -1.600190e+03 1.156670e-10
6.920320e-11 -2.000160e+03 -4.000000e+02
4.000000e+02 -2.000160e+03 -4.000000e+02
3.187930e-11 -1.600190e+03 -4.000000e+02
4.000000e+02 -1.600190e+03 -4.000000e+02
-8.664430e-12 -2.000160e+03 1.139220e-10
4.000000e+02 -2.000160e+03 1.552750e-10
9.479580e-12 -1.600190e+03 1.156670e-10
4.000000e+02 -1.600190e+03 1.126250e-10
-4.000000e+02 -1.600190e+03 -4.000000e+02
3.187930e-11 -1.600190e+03 -4.000000e+02
-4.000000e+02 -1.200200e+03 -4.000000e+02
2.851340e-12 -1.200200e+03 -4.000000e+02
-4.000000e+02 -1.600190e+03 1.620160e-10
9.479580e-12 -1.600190e+03 1.156670e-10
-4.000000e+02 -1.200200e+03 3.697560e-11
-1.820040e-11 -1.200200e+03 -1.574960e-11
3.187930e-11 -1.600190e+03 -4.000000e+02
4.000000e+02 -1.600190e+03 -4.000000e+02
2.851340e-12 -1.200200e+03 -4.000000e+02
4.000000e+02 -1.200200e+03 -4.000000e+02
9.479580e-12 -1.600190e+03 1.156670e-10
4.000000e+02 -1.600190e+03 1.126250e-10
-1.820040e-11 -1.200200e+03 -1.574960e-11
4.000000e+02 -1.200200e+03 -4.576910e-12
-4.000000e+02 -1.200200e+03 -4.000000e+02
2.851340e-12 -1.200200e+03 -4.000000e+02
-4.000000e+02 -8.002080e+02 -4.000000e+02
-3.071600e-11 -8.002080e+02 -4.000000e+02
-4.000000e+02 -1.200200e+03 3.697560e-11
-1.820040e-11 -1.200200e+03 -1.574960e-11
-4.000000e+02 -8.002080e+02 -7.907520e-11
-5.086720e-11 -8.002080e+02 -8.207770e-11
2.851340e-12 -1.200200e+03 -4.000000e+02
4.000000e+02 -1.200200e+03 -4.000000e+02
-3.071600e-11 -8.002080e+02 -4.000000e+02
4.000000e+02 -8.002080e+02 -4.000000e+02
-1.820040e-11 -1.200200e+03 -1.574960e-11
4.000000e+02 -1.200200e+03 -4.576910e-12
-5.086720e-11 -8.002080e+02 -8.207770e-11
4.000000e+02 -8.002080e+02 -8.140840e-11
-4.000000e+02 -8.002080e+02 -4.000000e+02
-3.071600e-11 -8.002080e+02 -4.000000e+02
-4.000000e+02 -4.002110e+02 -4.000000e+02
-1.493680e-10 -4.002110e+02 -4.000000e+02
-4.000000e+02 -8.002080e+02 -7.907520e-11
-5.086720e-11 -8.002080e+02 -8.207770e-11
-4.000000e+02 -4.002110e+02 -1.003500e-10
-6.183110e-11 -4.002110e+02 -1.269800e-10
-3.071600e-11 -8.002080e+02 -4.000000e+02
4.000000e+02 -8.002080e+02 -4.000000e+02
-1.493680e-10 -4.002110e+02 -4.000000e+02
4.000000e+02 -4.002110e+02 -4.000000e+02
-5.086720e-11 -8.002080e+02 -8.207770e-11
4.000000e+02 -8.002080e+02 -8.140840e-11
-6.183110e-11 -4.002110e+02 -1.269800e-10
4.000000e+02 -4.002110e+02 -1.421460e-10
-4.000000e+02 -4.002110e+02 -4.000000e+02
-1.493680e-10 -4.002110e+02 -4.000000e+02
-4.000000e+02 -2.130540e-01 -4.000000e+02
-2.312710e-10 -2.130540e-01 -4.000000e+02
-4.000000e+02 -4.002110e+02 -1.003500e-10
-6.183110e-11 -4.002110e+02 -1.269800e-10
-4.000000e+02 -2.130540e-01 -2.668750e-11
-1.931990e-10 -2.130540e-01 -5.601900e-11
-1.493680e-10 -4.002110e+02 -4.000000e+02
4.000000e+02 -4.002110e+02 -4.000000e+02
-2.312710e-10 -2.130540e-01 -4.000000e+02
4.000000e+02 -2.130540e-01 -4.000000e+02
[...]
<PointData>
<DataArray type="Float32" Name="V1" format="ascii">
0.000000e+00
0.000000e+00
1.885350e-10
9.938900e-11
0.000000e+00
0.000000e+00
1.963910e-11
2.704790e-11
0.000000e+00
0.000000e+00
9.938900e-11
1.178340e-10
0.000000e+00
0.000000e+00
2.704790e-11
-1.531850e-10
1.885350e-10
9.938900e-11
7.855630e-12
-8.861700e-11
1.963910e-11
2.704790e-11
1.256900e-10
7.372490e-11
9.938900e-11
1.178340e-10
-8.861700e-11
-1.414010e-10
2.704790e-11
-1.531850e-10
7.372490e-11
1.335460e-10
7.855630e-12
-8.861700e-11
1.099790e-10
4.709520e-11
1.256900e-10
7.372490e-11
-5.106160e-11
7.066260e-11
-8.861700e-11
-1.414010e-10
4.709520e-11
-1.728240e-10
7.372490e-11
1.335460e-10
7.066260e-11
1.099790e-10
1.099790e-10
4.709520e-11
5.891720e-11
1.824350e-11
-5.106160e-11
7.066260e-11
7.855630e-12
-5.074990e-11
4.709520e-11
-1.728240e-10
1.824350e-11
1.728240e-10
7.066260e-11
1.099790e-10
-5.074990e-11
2.749470e-11
5.891720e-11
1.824350e-11
6.284500e-11
3.453050e-11
7.855630e-12
-5.074990e-11
-1.531850e-10
-3.450580e-11
1.824350e-11
1.728240e-10
3.453050e-11
-1.492570e-10
-5.074990e-11
2.749470e-11
-3.450580e-11
6.284500e-11
6.284500e-11
3.453050e-11
-7.619960e-10
-2.528790e-11
-1.531850e-10
-3.450580e-11
-7.109340e-10
-1.538260e-11
3.453050e-11
-1.492570e-10
-2.528790e-11
8.444800e-10
-3.450580e-11
6.284500e-11
-1.538260e-11
6.520170e-10
-7.619960e-10
-2.528790e-11
1.657540e-09
2.728560e-13
-7.109340e-10
-1.538260e-11
1.708600e-09
-3.956990e-12
-2.528790e-11
8.444800e-10
2.728560e-13
-1.602550e-09
-1.538260e-11
6.520170e-10
-3.956990e-12
-1.688960e-09
1.657540e-09
2.728560e-13
-2.003190e-09
2.459150e-11
1.708600e-09
-3.956990e-12
-1.928560e-09
8.918570e-11
2.728560e-13
-1.602550e-09
2.459150e-11
1.995330e-09
-3.956990e-12
-1.688960e-09
8.918570e-11
1.979620e-09
-2.003190e-09
2.459150e-11
-6.912950e-10
1.762230e-11
-1.928560e-09
8.918570e-11
-3.731420e-10
-1.052890e-11
2.459150e-11
1.995330e-09
1.762230e-11
6.520170e-10
8.918570e-11
1.979620e-09
-1.052890e-11
4.909770e-10
-6.912950e-10
1.762230e-11
7.156480e-09
-6.120270e-11
-3.731420e-10
-1.052890e-11
7.227180e-09
8.693480e-12
1.762230e-11
6.520170e-10
-6.120270e-11
-7.132910e-09
-1.052890e-11
4.909770e-10
8.693480e-12
-7.180040e-09
7.156480e-09
-6.120270e-11
-1.388480e-08
1.145840e-10
7.227180e-09
8.693480e-12
-1.393980e-08
-1.624390e-11
-6.120270e-11
-7.132910e-09
1.145840e-10
1.390050e-08
8.693480e-12
-7.180040e-09
-1.624390e-11
1.393980e-08
-1.388480e-08
1.145840e-10
7.729940e-09
-4.125090e-11
-1.393980e-08
-1.624390e-11
7.883120e-09
-5.401060e-11
1.145840e-10
1.390050e-08
-4.125090e-11
-7.753500e-09
-1.624390e-11
1.393980e-08
-5.401060e-11
-7.863480e-09
7.729940e-09
-4.125090e-11
1.822510e-08
-2.387130e-11
7.883120e-09
-5.401060e-11
1.794230e-08
-4.984140e-11
-4.125090e-11
-7.753500e-09
-2.387130e-11
-1.826830e-08
-5.401060e-11
-7.863480e-09
-4.984140e-11
-1.806010e-08
1.822510e-08
-2.387130e-11
-3.531500e-08
2.250600e-11
1.794230e-08
-4.984140e-11
-3.513820e-08
1.327190e-11
-2.387130e-11
-1.826830e-08
2.250600e-11
3.524430e-08
-4.984140e-11
-1.806010e-08
1.327190e-11
3.518930e-08
-3.531500e-08
2.250600e-11
-1.453290e-09
1.230710e-11
-3.513820e-08
1.327190e-11
-1.174420e-09
9.628940e-12
2.250600e-11
3.524430e-08
1.230710e-11
1.307960e-09
1.327190e-11
3.518930e-08
9.628940e-12
1.135140e-09
-1.453290e-09
1.230710e-11
3.700390e-08
7.589870e-12
-1.174420e-09
9.628940e-12
3.687040e-08
-3.911400e-12
1.230710e-11
1.307960e-09
7.589870e-12
-3.699610e-08
9.628940e-12
1.135140e-09
-3.911400e-12
-3.698040e-08
3.700390e-08
7.589870e-12
5.322190e-09
-4.400490e-11
3.687040e-08
-3.911400e-12
5.420380e-09
-4.217070e-11
7.589870e-12
-3.699610e-08
-4.400490e-11
-5.373250e-09
-3.911400e-12
-3.698040e-08
-4.217070e-11
-5.514650e-09
5.322190e-09
-4.400490e-11
-3.969840e-08
-2.078560e-11
5.420380e-09
-4.217070e-11
-3.965520e-08
-1.273620e-11
-4.400490e-11
-5.373250e-09
-2.078560e-11
3.965130e-08
-4.217070e-11
-5.514650e-09
-1.273620e-11
3.967880e-08
-3.969840e-08
-2.078560e-11
-3.932530e-08
1.044990e-11
-3.965520e-08
-1.273620e-11
-3.938810e-08
3.794660e-12
-2.078560e-11
3.965130e-08
1.044990e-11
3.928210e-08
-1.273620e-11
3.967880e-08
3.794660e-12
3.939200e-08
-3.932530e-08
1.044990e-11
-1.534600e-08
5.276740e-12
-3.938810e-08
3.794660e-12
-1.536170e-08
6.503300e-12
1.044990e-11
3.928210e-08
5.276740e-12
1.533420e-08
3.794660e-12
3.939200e-08
6.503300e-12
1.536950e-08
-1.534600e-08
5.276740e-12
5.687470e-09
1.798590e-12
-1.536170e-08
6.503300e-12
5.534290e-09
3.525430e-12
5.276740e-12
1.533420e-08
1.798590e-12
-5.714970e-09
6.503300e-12
1.536950e-08
3.525430e-12
-5.561780e-09
5.687470e-09
1.798590e-12
7.148620e-09
-8.542300e-12
5.534290e-09
3.525430e-12
7.093630e-09
-9.140110e-12
1.798590e-12
-5.714970e-09
-8.542300e-12
-7.152550e-09
3.525430e-12
-5.561780e-09
-9.140110e-12
-7.113270e-09
7.148620e-09
-8.542300e-12
-2.046780e-08
-4.422670e-12
7.093630e-09
-9.140110e-12
-2.011830e-08
-6.393420e-12
-8.542300e-12
-7.152550e-09
-4.422670e-12
2.046390e-08
-9.140110e-12
-7.113270e-09
-6.393420e-12
2.010650e-08
-2.046780e-08
-4.422670e-12
-7.348940e-09
-1.201050e-11
-2.011830e-08
-6.393420e-12
-7.238960e-09
-3.192030e-12
-4.422670e-12
2.046390e-08
-1.201050e-11
7.317520e-09
-6.393420e-12
2.010650e-08
-3.192030e-12
7.231110e-09
-7.348940e-09
-1.201050e-11
2.352760e-08
-1.226110e-11
-7.238960e-09
-3.192030e-12
2.310340e-08
-6.117600e-12
-1.201050e-11
7.317520e-09
-1.226110e-11
-2.355510e-08
-3.192030e-12
7.231110e-09
-6.117600e-12
-2.312700e-08
2.352760e-08
-1.226110e-11
2.298160e-08
-9.763790e-12
2.310340e-08
-6.117600e-12
2.247500e-08
-1.064200e-11
-1.226110e-11
-2.355510e-08
-9.763790e-12
-2.300520e-08
-6.117600e-12
-2.312700e-08
-1.064200e-11
-2.249850e-08
2.298160e-08
-9.763790e-12
-1.180310e-08
3.300440e-12
2.247500e-08
-1.064200e-11
-1.115890e-08
-1.137120e-12
-9.763790e-12
-2.300520e-08
3.300440e-12
1.180310e-08
-1.064200e-11
-2.249850e-08
-1.137120e-12
1.115890e-08
-1.180310e-08
3.300440e-12
-1.425800e-08
1.134710e-11
-1.115890e-08
-1.137120e-12
-1.414010e-08
8.327000e-12
3.300440e-12
1.180310e-08
1.134710e-11
1.428550e-08
-1.137120e-12
1.115890e-08
8.327000e-12
1.415980e-08
-1.425800e-08
1.134710e-11
5.951030e-08
2.037490e-13
-1.414010e-08
8.327000e-12
5.810410e-08
6.295840e-13
1.134710e-11
1.428550e-08
2.037490e-13
-5.950640e-08
8.327000e-12
1.415980e-08
6.295840e-13
-5.811200e-08
5.951030e-08
2.037490e-13
-1.033720e-07
-1.891220e-12
5.810410e-08
6.295840e-13
-9.992750e-08
-1.999760e-12
2.037490e-13
-5.950640e-08
-1.891220e-12
1.033680e-07
6.295840e-13
-5.811200e-08
-1.999760e-12
9.992360e-08
0.000000e+00
0.000000e+00
1.963910e-11
2.704790e-11
0.000000e+00
0.000000e+00
7.855630e-12
1.334430e-10
0.000000e+00
0.000000e+00
2.704790e-11
-1.531850e-10
0.000000e+00
0.000000e+00
1.334430e-10
2.003190e-10
1.963910e-11
2.704790e-11
1.256900e-10
7.372490e-11
7.855630e-12
1.334430e-10
5.891720e-11
-2.507860e-11
2.704790e-11
-1.531850e-10
7.372490e-11
1.335460e-10
1.334430e-10
2.003190e-10
-2.507860e-11
-7.855630e-11
1.256900e-10
7.372490e-11
-5.106160e-11
7.066260e-11
5.891720e-11
-2.507860e-11
-1.492570e-10
-1.037200e-10
7.372490e-11
1.335460e-10
7.066260e-11
1.099790e-10
-2.507860e-11
-7.855630e-11
-1.037200e-10
-1.924630e-10
-5.106160e-11
7.066260e-11
7.855630e-12
-5.074990e-11
-1.492570e-10
-1.037200e-10
3.417200e-10
7.321940e-11
7.066260e-11
1.099790e-10
-5.074990e-11
2.749470e-11
-1.037200e-10
-1.924630e-10
7.321940e-11
-1.178340e-10
7.855630e-12
-5.074990e-11
-1.531850e-10
-3.450580e-11
3.417200e-10
7.321940e-11
2.042460e-10
4.569820e-11
-5.074990e-11
2.749470e-11
-3.450580e-11
6.284500e-11
7.321940e-11
-1.178340e-10
4.569820e-11
-1.963910e-10
-1.531850e-10
-3.450580e-11
-7.109340e-10
-1.538260e-11
2.042460e-10
4.569820e-11
-6.284500e-10
3.701290e-11
-3.450580e-11
6.284500e-11
-1.538260e-11
6.520170e-10
4.569820e-11
-1.963910e-10
3.701290e-11
7.855630e-10
-7.109340e-10
-1.538260e-11
1.708600e-09
-3.956990e-12
-6.284500e-10
3.701290e-11
1.500420e-09
1.744600e-11
-1.538260e-11
6.520170e-10
-3.956990e-12
-1.688960e-09
3.701290e-11
7.855630e-10
1.744600e-11
-1.378660e-09
1.708600e-09
-3.956990e-12
-1.928560e-09
8.918570e-11
1.500420e-09
1.744600e-11
-2.223140e-09
-2.427210e-11
-3.956990e-12
-1.688960e-09
8.918570e-11
1.979620e-09
1.744600e-11
-1.378660e-09
-2.427210e-11
2.187790e-09
-1.928560e-09
8.918570e-11
-3.731420e-10
-1.052890e-11
-2.223140e-09
-2.427210e-11
-4.634820e-10
2.689600e-11
8.918570e-11
1.979620e-09
-1.052890e-11
4.909770e-10
-2.427210e-11
2.187790e-09
2.689600e-11
5.813160e-10
-3.731420e-10
-1.052890e-11
7.227180e-09
8.693480e-12
-4.634820e-10
2.689600e-11
7.022930e-09
-4.413800e-11
-1.052890e-11
4.909770e-10
8.693480e-12
-7.180040e-09
2.689600e-11
5.813160e-10
-4.413800e-11
-7.172190e-09
7.227180e-09
8.693480e-12
-1.393980e-08
-1.624390e-11
7.022930e-09
-4.413800e-11
-1.379060e-08
1.134900e-11
8.693480e-12
-7.180040e-09
-1.624390e-11
1.393980e-08
-4.413800e-11
-7.172190e-09
1.134900e-11
1.384550e-08
-1.393980e-08
-1.624390e-11
7.883120e-09
-5.401060e-11
-1.379060e-08
1.134900e-11
7.702440e-09
5.944160e-11
-1.624390e-11
1.393980e-08
-5.401060e-11
-7.863480e-09
1.134900e-11
1.384550e-08
5.944160e-11
-7.686730e-09
7.883120e-09
-5.401060e-11
1.794230e-08
-4.984140e-11
7.702440e-09
5.944160e-11
1.822510e-08
-6.102820e-11
-5.401060e-11
-7.863480e-09
-4.984140e-11
-1.806010e-08
5.944160e-11
-7.686730e-09
-6.102820e-11
-1.817400e-08
1.794230e-08
-4.984140e-11
-3.513820e-08
1.327190e-11
1.822510e-08
-6.102820e-11
-3.513040e-08
3.596970e-11
-4.984140e-11
-1.806010e-08
1.327190e-11
3.518930e-08
-6.102820e-11
-1.817400e-08
3.596970e-11
3.518140e-08
-3.513820e-08
1.327190e-11
-1.174420e-09
9.628940e-12
-3.513040e-08
3.596970e-11
-1.386520e-09
2.457930e-11
1.327190e-11
3.518930e-08
9.628940e-12
1.135140e-09
3.596970e-11
3.518140e-08
2.457930e-11
1.366880e-09
-1.174420e-09
9.628940e-12
3.687040e-08
-3.911400e-12
-1.386520e-09
2.457930e-11
3.690970e-08
-6.001940e-11
9.628940e-12
1.135140e-09
-3.911400e-12
-3.698040e-08
2.457930e-11
1.366880e-09
-6.001940e-11
-3.692540e-08
3.687040e-08
-3.911400e-12
5.420380e-09
-4.217070e-11
3.690970e-08
-6.001940e-11
5.235780e-09
-1.443690e-11
-3.911400e-12
-3.698040e-08
-4.217070e-11
-5.514650e-09
-6.001940e-11
-3.692540e-08
-1.443690e-11
-5.318260e-09
5.420380e-09
-4.217070e-11
-3.965520e-08
-1.273620e-11
5.235780e-09
-1.443690e-11
-3.968660e-08
-1.309870e-11
-4.217070e-11
-5.514650e-09
-1.273620e-11
3.967880e-08
-1.443690e-11
-5.318260e-09
-1.309870e-11
3.968660e-08
-3.965520e-08
-1.273620e-11
-3.938810e-08
3.794660e-12
-3.968660e-08
-1.309870e-11
-3.929780e-08
-1.194340e-11
-1.273620e-11
3.967880e-08
3.794660e-12
3.939200e-08
-1.309870e-11
3.968660e-08
-1.194340e-11
3.924280e-08
-3.938810e-08
3.794660e-12
-1.536170e-08
6.503300e-12
-3.929780e-08
-1.194340e-11
-1.528310e-08
1.488310e-11
3.794660e-12
3.939200e-08
6.503300e-12
1.536950e-08
-1.194340e-11
3.924280e-08
1.488310e-11
1.533030e-08
-1.536170e-08
6.503300e-12
5.534290e-09
3.525430e-12
-1.528310e-08
1.488310e-11
5.687470e-09
1.333630e-11
6.503300e-12
1.536950e-08
3.525430e-12
-5.561780e-09
1.488310e-11
1.533030e-08
1.333630e-11
-5.663910e-09
5.534290e-09
3.525430e-12
7.093630e-09
-9.140110e-12
5.687470e-09
1.333630e-11
7.148620e-09
3.345240e-12
3.525430e-12
-5.561780e-09
-9.140110e-12
-7.113270e-09
1.333630e-11
-5.663910e-09
3.345240e-12
-7.152550e-09
7.093630e-09
-9.140110e-12
-2.011830e-08
-6.393420e-12
7.148620e-09
3.345240e-12
-2.046000e-08
7.614290e-12
-9.140110e-12
-7.113270e-09
-6.393420e-12
2.010650e-08
3.345240e-12
-7.152550e-09
7.614290e-12
2.046390e-08
-2.011830e-08
-6.393420e-12
-7.238960e-09
-3.192030e-12
-2.046000e-08
7.614290e-12
-7.341080e-09
3.153070e-12
-6.393420e-12
2.010650e-08
-3.192030e-12
7.231110e-09
7.614290e-12
2.046390e-08
3.153070e-12
7.321440e-09
-7.238960e-09
-3.192030e-12
2.310340e-08
-6.117600e-12
-7.341080e-09
3.153070e-12
2.353150e-08
-8.902540e-12
-3.192030e-12
7.231110e-09
-6.117600e-12
-2.312700e-08
3.153070e-12
7.321440e-09
-8.902540e-12
-2.356300e-08
2.310340e-08
-6.117600e-12
2.247500e-08
-1.064200e-11
2.353150e-08
-8.902540e-12
2.296590e-08
-1.557290e-11
-6.117600e-12
-2.312700e-08
-1.064200e-11
-2.249850e-08
-8.902540e-12
-2.356300e-08
-1.557290e-11
-2.300520e-08
2.247500e-08
-1.064200e-11
-1.115890e-08
-1.137120e-12
2.296590e-08
-1.557290e-11
-1.180310e-08
9.414740e-14
-1.064200e-11
-2.249850e-08
-1.137120e-12
1.115890e-08
-1.557290e-11
-2.300520e-08
9.414740e-14
1.179920e-08
-1.115890e-08
-1.137120e-12
-1.414010e-08
8.327000e-12
-1.180310e-08
9.414740e-14
-1.426190e-08
6.858410e-12
-1.137120e-12
1.115890e-08
8.327000e-12
1.415980e-08
9.414740e-14
1.179920e-08
6.858410e-12
1.428150e-08
-1.414010e-08
8.327000e-12
5.810410e-08
6.295840e-13
-1.426190e-08
6.858410e-12
5.949850e-08
-1.913640e-12
8.327000e-12
1.415980e-08
6.295840e-13
-5.811200e-08
6.858410e-12
1.428150e-08
-1.913640e-12
-5.949850e-08
5.810410e-08
6.295840e-13
-9.992750e-08
-1.999760e-12
5.949850e-08
-1.913640e-12
-1.033840e-07
4.051060e-13
6.295840e-13
-5.811200e-08
-1.999760e-12
9.992360e-08
-1.913640e-12
-5.949850e-08
4.051060e-13
1.033760e-07
</DataArray>
<DataArray type="Float32" Name="V2" format="ascii">
0.000000e+00
0.000000e+00
3.353380e-05
3.353370e-05
0.000000e+00
0.000000e+00
3.353400e-05
3.353420e-05
0.000000e+00
0.000000e+00
3.353370e-05
3.353390e-05
0.000000e+00
0.000000e+00
3.353420e-05
3.353390e-05
3.353380e-05
3.353370e-05
2.071120e-04
2.071130e-04
3.353400e-05
3.353420e-05
2.071130e-04
2.071130e-04
3.353370e-05
3.353390e-05
2.071130e-04
2.071130e-04
3.353420e-05
3.353390e-05
2.071130e-04
2.071130e-04
2.071120e-04
2.071130e-04
2.833860e-04
2.833860e-04
2.071130e-04
2.071130e-04
2.833850e-04
2.833860e-04
2.071130e-04
2.071130e-04
2.833860e-04
2.833860e-04
2.071130e-04
2.071130e-04
2.833860e-04
2.833850e-04
2.833860e-04
2.833860e-04
-7.639100e-04
-7.639110e-04
2.833850e-04
2.833860e-04
-7.639100e-04
-7.639110e-04
2.833860e-04
2.833860e-04
-7.639110e-04
-7.639100e-04
2.833860e-04
2.833850e-04
-7.639110e-04
-7.639110e-04
-7.639100e-04
-7.639110e-04
-4.769470e-03
-4.769470e-03
-7.639100e-04
-7.639110e-04
-4.769470e-03
-4.769470e-03
-7.639110e-04
-7.639100e-04
-4.769470e-03
-4.769470e-03
-7.639110e-04
-7.639110e-04
-4.769470e-03
-4.769470e-03
-4.769470e-03
-4.769470e-03
-1.302280e-02
-1.302280e-02
-4.769470e-03
-4.769470e-03
-1.302280e-02
-1.302280e-02
-4.769470e-03
-4.769470e-03
-1.302280e-02
-1.302280e-02
-4.769470e-03
-4.769470e-03
-1.302280e-02
-1.302280e-02
-1.302280e-02
-1.302280e-02
-2.349070e-02
-2.349070e-02
-1.302280e-02
-1.302280e-02
-2.349070e-02
-2.349070e-02
-1.302280e-02
-1.302280e-02
-2.349070e-02
-2.349070e-02
-1.302280e-02
-1.302280e-02
-2.349070e-02
-2.349070e-02
-2.349070e-02
-2.349070e-02
-3.046570e-02
-3.046570e-02
-2.349070e-02
-2.349070e-02
-3.046570e-02
-3.046570e-02
-2.349070e-02
-2.349070e-02
-3.046570e-02
-3.046570e-02
-2.349070e-02
-2.349070e-02
-3.046570e-02
-3.046570e-02
-3.046570e-02
-3.046570e-02
-2.943760e-02
-2.943760e-02
-3.046570e-02
-3.046570e-02
-2.943760e-02
-2.943770e-02
-3.046570e-02
-3.046570e-02
-2.943760e-02
-2.943760e-02
-3.046570e-02
-3.046570e-02
-2.943770e-02
-2.943760e-02
-2.943760e-02
-2.943760e-02
-2.176880e-02
-2.176880e-02
-2.943760e-02
-2.943770e-02
-2.176880e-02
-2.176880e-02
-2.943760e-02
-2.943760e-02
-2.176880e-02
-2.176880e-02
-2.943770e-02
-2.943760e-02
-2.176880e-02
-2.176880e-02
-2.176880e-02
-2.176880e-02
-1.276380e-02
-1.276380e-02
-2.176880e-02
-2.176880e-02
-1.276380e-02
-1.276370e-02
-2.176880e-02
-2.176880e-02
-1.276380e-02
-1.276380e-02
-2.176880e-02
-2.176880e-02
-1.276370e-02
-1.276380e-02
-1.276380e-02
-1.276380e-02
-6.264320e-03
-6.264340e-03
-1.276380e-02
-1.276370e-02
-6.264340e-03
-6.264350e-03
-1.276380e-02
-1.276380e-02
-6.264340e-03
-6.264320e-03
-1.276370e-02
-1.276380e-02
-6.264350e-03
-6.264340e-03
-6.264320e-03
-6.264340e-03
-2.892430e-03
-2.892430e-03
-6.264340e-03
-6.264350e-03
-2.892430e-03
-2.892430e-03
-6.264340e-03
-6.264320e-03
-2.892430e-03
-2.892430e-03
-6.264350e-03
-6.264340e-03
-2.892430e-03
-2.892430e-03
-2.892430e-03
-2.892430e-03
-1.547840e-03
-1.547810e-03
-2.892430e-03
-2.892430e-03
-1.547810e-03
-1.547780e-03
-2.892430e-03
-2.892430e-03
-1.547810e-03
-1.547840e-03
-2.892430e-03
-2.892430e-03
-1.547780e-03
-1.547810e-03
-1.547840e-03
-1.547810e-03
-1.052900e-03
-1.052920e-03
-1.547810e-03
-1.547780e-03
-1.052920e-03
-1.052930e-03
-1.547810e-03
-1.547840e-03
-1.052920e-03
-1.052900e-03
-1.547780e-03
-1.547810e-03
-1.052930e-03
-1.052920e-03
-1.052900e-03
-1.052920e-03
-8.552730e-04
-8.552850e-04
-1.052920e-03
-1.052930e-03
-8.552850e-04
-8.552970e-04
-1.052920e-03
-1.052900e-03
-8.552850e-04
-8.552730e-04
-1.052930e-03
-1.052920e-03
-8.552970e-04
-8.552850e-04
-8.552730e-04
-8.552850e-04
-7.556420e-04
-7.556210e-04
-8.552850e-04
-8.552970e-04
-7.556210e-04
-7.556010e-04
-8.552850e-04
-8.552730e-04
-7.556210e-04
-7.556420e-04
-8.552970e-04
-8.552850e-04
-7.556010e-04
-7.556210e-04
-7.556420e-04
-7.556210e-04
-7.304080e-04
-7.304030e-04
-7.556210e-04
-7.556010e-04
-7.304030e-04
-7.303980e-04
-7.556210e-04
-7.556420e-04
-7.304030e-04
-7.304080e-04
-7.556010e-04
-7.556210e-04
-7.303980e-04
-7.304030e-04
-7.304080e-04
-7.304030e-04
-7.273840e-04
-7.274010e-04
-7.304030e-04
-7.303980e-04
-7.274010e-04
-7.274180e-04
-7.304030e-04
-7.304080e-04
-7.274010e-04
-7.273840e-04
-7.303980e-04
-7.304030e-04
-7.274180e-04
-7.274010e-04
-7.273840e-04
-7.274010e-04
-6.844420e-04
-6.844720e-04
-7.274010e-04
-7.274180e-04
-6.844720e-04
-6.845010e-04
-7.274010e-04
-7.273840e-04
-6.844720e-04
-6.844420e-04
-7.274180e-04
-7.274010e-04
-6.845010e-04
-6.844720e-04
-6.844420e-04
-6.844720e-04
-5.358230e-04
-5.358260e-04
-6.844720e-04
-6.845010e-04
-5.358260e-04
-5.358290e-04
-6.844720e-04
-6.844420e-04
-5.358260e-04
-5.358230e-04
-6.845010e-04
-6.844720e-04
-5.358290e-04
-5.358260e-04
-5.358230e-04
-5.358260e-04
-4.017610e-04
-4.017270e-04
-5.358260e-04
-5.358290e-04
-4.017270e-04
-4.016960e-04
-5.358260e-04
-5.358230e-04
-4.017270e-04
-4.017610e-04
-5.358290e-04
-5.358260e-04
-4.016960e-04
-4.017270e-04
-4.017610e-04
-4.017270e-04
-4.916520e-04
-4.916690e-04
-4.017270e-04
-4.016960e-04
-4.916690e-04
-4.916850e-04
-4.017270e-04
-4.017610e-04
-4.916690e-04
-4.916520e-04
-4.016960e-04
-4.017270e-04
-4.916850e-04
-4.916690e-04
-4.916520e-04
-4.916690e-04
-5.929430e-04
-5.930240e-04
-4.916690e-04
-4.916850e-04
-5.930240e-04
-5.930980e-04
-4.916690e-04
-4.916520e-04
-5.930240e-04
-5.929430e-04
-4.916850e-04
-4.916690e-04
-5.930980e-04
-5.930240e-04
-5.929430e-04
-5.930240e-04
-3.935190e-04
-3.934660e-04
-5.930240e-04
-5.930980e-04
-3.934660e-04
-3.934160e-04
-5.930240e-04
-5.929430e-04
-3.934660e-04
-3.935190e-04
-5.930980e-04
-5.930240e-04
-3.934160e-04
-3.934660e-04
-3.935190e-04
-3.934660e-04
-2.033190e-04
-2.032830e-04
-3.934660e-04
-3.934160e-04
-2.032830e-04
-2.032510e-04
-3.934660e-04
-3.935190e-04
-2.032830e-04
-2.033190e-04
-3.934160e-04
-3.934660e-04
-2.032510e-04
-2.032830e-04
-2.033190e-04
-2.032830e-04
-1.693420e-04
-1.693590e-04
-2.032830e-04
-2.032510e-04
-1.693590e-04
-1.693780e-04
-2.032830e-04
-2.033190e-04
-1.693590e-04
-1.693420e-04
-2.032510e-04
-2.032830e-04
-1.693780e-04
-1.693590e-04
-1.693420e-04
-1.693590e-04
-4.449830e-04
-4.449290e-04
-1.693590e-04
-1.693780e-04
-4.449290e-04
-4.448750e-04
-1.693590e-04
-1.693420e-04
-4.449290e-04
-4.449830e-04
-1.693780e-04
-1.693590e-04
-4.448750e-04
-4.449290e-04
-4.449830e-04
-4.449290e-04
-1.392520e-03
-1.392250e-03
-4.449290e-04
-4.448750e-04
-1.392250e-03
-1.392010e-03
-4.449290e-04
-4.449830e-04
-1.392250e-03
-1.392520e-03
-4.448750e-04
-4.449290e-04
-1.392010e-03
-1.392250e-03
-1.392520e-03
-1.392250e-03
-1.967520e-03
-1.967040e-03
-1.392250e-03
-1.392010e-03
-1.967040e-03
-1.966580e-03
-1.392250e-03
-1.392520e-03
-1.967040e-03
-1.967520e-03
-1.392010e-03
-1.392250e-03
-1.966580e-03
-1.967040e-03
0.000000e+00
0.000000e+00
3.353400e-05
3.353420e-05
0.000000e+00
0.000000e+00
3.353320e-05
3.353390e-05
0.000000e+00
0.000000e+00
3.353420e-05
3.353390e-05
0.000000e+00
0.000000e+00
3.353390e-05
3.353370e-05
3.353400e-05
3.353420e-05
2.071130e-04
2.071130e-04