MercuryDPM 0.14 name oneDimChain revision 6406 repository https://svn.mercurydpm.org/SourceCode/Branches/OomphlibCouplingExplicit
dataFile    fileType ONE_FILE saveCount 30 counter 105 lastSavedTimeStep 3111
fStatFile   fileType ONE_FILE saveCount 30 counter 105 lastSavedTimeStep 3111
eneFile     fileType ONE_FILE saveCount 30 counter 105 lastSavedTimeStep 3111
restartFile fileType ONE_FILE saveCount 30 counter 105 lastSavedTimeStep 3111
statFile    fileType ONE_FILE saveCount 30 counter 0
interactionFile fileType NO_FILE saveCount 0 counter 0
xMin -500 xMax 500 yMin -5000 yMax 5000 zMin -500 zMax 500
timeStep 0.0321487566790692 time 100.01478202858 ntimeSteps 3111 timeMax 100
systemDimensions 3 particleDimensions 3 gravity 0 0 -0 writeVTK 1 MULTIPLE_FILES NO_FILE 105 105 0 0 random  0 1103515245 12345 1073741824 607 273 784607267
Species 1
LinearViscoelasticReversibleAdhesiveSpecies id 0 density 2500 stiffness 40000000000 dissipation -0 adhesionForceMax 0 adhesionStiffness 40000000000
Walls 0
Boundaries 0
Particles 120
BaseParticle id 0 indSpecies 0 position -200.000000109485 2199.70161279449 -200.000000108792 orientation 1 0 0 0 velocity -2.97674600151271e-08 0.0150840597711704 -2.97753168810069e-08 angularVelocity 0 0 0 force 1648.37869501159 456240643.054964 1645.93379092583 torque 0 0 0 radius 200 invMass 1.19366207318922e-11
BaseParticle id 1 indSpecies 0 position -200.000000109358 2199.70161279445 200.00000010922 orientation 1 0 0 0 velocity -2.97357271928244e-08 0.0150840598101093 2.9688865614867e-08 angularVelocity 0 0 0 force 1649.58437181973 456240633.065683 -1655.03226087867 torque 0 0 0 radius 200 invMass 1.19366207318922e-11
BaseParticle id 2 indSpecies 0 position 200.000000108505 2199.70161279451 -200.00000010893 orientation 1 0 0 0 velocity 2.96812752995087e-08 0.0150840597672407 -2.97731973066596e-08 angularVelocity 0 0 0 force -1650.27819076548 456240630.411117 1647.39573381493 torque 0 0 0 radius 200 invMass 1.19366207318922e-11
BaseParticle id 3 indSpecies 0 position 200.000000108648 2199.70161279446 200.000000109083 orientation 1 0 0 0 velocity 2.97153329261387e-08 0.0150840597919896 2.9704279289242e-08 angularVelocity 0 0 0 force -1650.32145079858 456240629.789786 -1653.07567667039 torque 0 0 0 radius 200 invMass 1.19366207318922e-11
BaseParticle id 4 indSpecies 0 position -200.000000199533 2599.6936559819 -200.000000198775 orientation 1 0 0 0 velocity -5.06708919529041e-08 0.00468069609502127 -5.06406483156132e-08 angularVelocity 0 0 0 force -1013.89283106836 675418859.061069 -1015.01993196017 torque 0 0 0 radius 200 invMass 1.19366207318922e-11
BaseParticle id 5 indSpecies 0 position -200.000000199435 2599.69365598189 200.000000199305 orientation 1 0 0 0 velocity -5.06640413340836e-08 0.00468069605813936 5.0695005149571e-08 angularVelocity 0 0 0 force -1012.9972266521 675418864.765488 1012.12328489951 torque 0 0 0 radius 200 invMass 1.19366207318922e-11
BaseParticle id 6 indSpecies 0 position 200.000000198569 2599.69365598194 -200.000000198883 orientation 1 0 0 0 velocity 5.06518414828052e-08 0.00468069609124594 -5.06602684355788e-08 angularVelocity 0 0 0 force 1011.08669874265 675418860.929372 -1014.3817727079 torque 0 0 0 radius 200 invMass 1.19366207318922e-11
BaseParticle id 7 indSpecies 0 position 200.000000198663 2599.69365598194 200.000000199196 orientation 1 0 0 0 velocity 5.06592970230905e-08 0.00468069606137776 5.06802410806275e-08 angularVelocity 0 0 0 force 1012.37385961052 675418863.067572 1013.01337959566 torque 0 0 0 radius 200 invMass 1.19366207318922e-11
BaseParticle id 8 indSpecies 0 position -200.000000140999 2999.69432474576 -200.000000140285 orientation 1 0 0 0 velocity 1.13935132303029e-08 -0.00219690481025413 1.1418240763968e-08 angularVelocity 0 0 0 force -1531.34160019037 122853603.659695 -1532.31503721353 torque 0 0 0 radius 200 invMass 1.19366207318922e-11
BaseParticle id 9 indSpecies 0 position -200.000000140927 2999.69432474577 200.000000140717 orientation 1 0 0 0 velocity 1.13982098842828e-08 -0.00219690481455698 -1.13947141537428e-08 angularVelocity 0 0 0 force -1531.55796950946 122853602.558788 1534.52026683975 torque 0 0 0 radius 200 invMass 1.19366207318922e-11
BaseParticle id 10 indSpecies 0 position 200.000000140024 2999.69432474574 -200.000000140365 orientation 1 0 0 0 velocity -1.14144196109865e-08 -0.00219690480367593 1.1408746291009e-08 angularVelocity 0 0 0 force 1533.87870552545 122853604.555567 -1532.59983560466 torque 0 0 0 radius 200 invMass 1.19366207318922e-11
BaseParticle id 11 indSpecies 0 position 200.0000001401 2999.69432474575 200.000000140639 orientation 1 0 0 0 velocity -1.14152771126804e-08 -0.00219690479402588 -1.14070195422041e-08 angularVelocity 0 0 0 force 1533.55667893435 122853604.883166 1534.28354434976 torque 0 0 0 radius 200 invMass 1.19366207318922e-11
BaseParticle id 12 indSpecies 0 position -200.000000248371 3399.69902816568 -200.000000247778 orientation 1 0 0 0 velocity 2.69592407548144e-08 -0.00183292415849651 2.69920028459899e-08 angularVelocity 0 0 0 force 925.07717530983 -78468701.5611888 924.355949517381 torque 0 0 0 radius 200 invMass 1.19366207318922e-11
BaseParticle id 13 indSpecies 0 position -200.000000248326 3399.69902816574 200.000000248127 orientation 1 0 0 0 velocity 2.69691650140512e-08 -0.00183292412398474 -2.69896521000654e-08 angularVelocity 0 0 0 force 925.012057392508 -78468702.7288547 -923.986466161689 torque 0 0 0 radius 200 invMass 1.19366207318922e-11
BaseParticle id 14 indSpecies 0 position 200.000000247536 3399.69902816566 -200.000000247831 orientation 1 0 0 0 velocity -2.70215047823559e-08 -0.00183292415945285 2.69889695242206e-08 angularVelocity 0 0 0 force -923.899125053158 -78468704.2581479 924.465457264679 torque 0 0 0 radius 200 invMass 1.19366207318922e-11
BaseParticle id 15 indSpecies 0 position 200.000000247588 3399.6990281657 200.000000248076 orientation 1 0 0 0 velocity -2.70138628183044e-08 -0.00183292411082119 -2.69953269590262e-08 angularVelocity 0 0 0 force -924.083858845324 -78468704.4464132 -923.921739989373 torque 0 0 0 radius 200 invMass 1.19366207318922e-11
BaseParticle id 16 indSpecies 0 position -200.000000311607 3799.70132110691 -200.000000311086 orientation 1 0 0 0 velocity 1.36138628983906e-09 -0.00022073086501411 1.37481576352432e-09 angularVelocity 0 0 0 force 868.913109453944 -57693565.2241043 869.466514938092 torque 0 0 0 radius 200 invMass 1.19366207318922e-11
BaseParticle id 17 indSpecies 0 position -200.000000311571 3799.70132110691 200.000000311404 orientation 1 0 0 0 velocity 1.36751290283709e-09 -0.000220730829215411 -1.37695655326269e-09 angularVelocity 0 0 0 force 868.822942406879 -57693565.0904984 -869.524291784403 torque 0 0 0 radius 200 invMass 1.19366207318922e-11
BaseParticle id 18 indSpecies 0 position 200.000000310873 3799.70132110697 -200.000000311106 orientation 1 0 0 0 velocity -1.39008508903929e-09 -0.000220730856106225 1.37205522244166e-09 angularVelocity 0 0 0 force -870.363317880517 -57693565.9472367 869.305038461798 torque 0 0 0 radius 200 invMass 1.19366207318922e-11
BaseParticle id 19 indSpecies 0 position 200.000000310905 3799.70132110692 200.000000311371 orientation 1 0 0 0 velocity -1.38414239539677e-09 -0.000220730815732358 -1.380875966124e-09 angularVelocity 0 0 0 force -870.357973377321 -57693566.5019115 -869.488549955689 torque 0 0 0 radius 200 invMass 1.19366207318922e-11
BaseParticle id 20 indSpecies 0 position -200.00000048205 4199.70215290103 -200.000000481517 orientation 1 0 0 0 velocity -4.97336211766389e-09 0.000276922361656311 -4.97897030726104e-09 angularVelocity 0 0 0 force -86.6026636382302 -3780957.92174699 -86.3839441749414 torque 0 0 0 radius 200 invMass 1.19366207318922e-11
BaseParticle id 21 indSpecies 0 position -200.000000482015 4199.70215290109 200.000000481836 orientation 1 0 0 0 velocity -4.97160498644505e-09 0.000276922379481455 4.97481523967184e-09 angularVelocity 0 0 0 force -86.6510844542302 -3780957.52194732 86.1874478727644 torque 0 0 0 radius 200 invMass 1.19366207318922e-11
BaseParticle id 22 indSpecies 0 position 200.000000481308 4199.70215290095 -200.000000481541 orientation 1 0 0 0 velocity 4.98054832770189e-09 0.000276922373238787 -4.97906791199214e-09 angularVelocity 0 0 0 force 86.2237055077728 -3780956.19545728 -86.5959506291699 torque 0 0 0 radius 200 invMass 1.19366207318922e-11
BaseParticle id 23 indSpecies 0 position 200.000000481336 4199.702152901 200.000000481815 orientation 1 0 0 0 velocity 4.98273778013146e-09 0.000276922388534694 4.97387084053777e-09 angularVelocity 0 0 0 force 86.21536420968 -3780956.29503603 86.0852144899128 torque 0 0 0 radius 200 invMass 1.19366207318922e-11
BaseParticle id 24 indSpecies 0 position -200.000000982184 4599.70334547885 -200.000000981679 orientation 1 0 0 0 velocity -6.66488421397282e-10 0.000171554355266297 -6.64534456952082e-10 angularVelocity 0 0 0 force -161.717964121012 8369803.62947101 -161.948112100371 torque 0 0 0 radius 200 invMass 1.19366207318922e-11
BaseParticle id 25 indSpecies 0 position -200.00000098215 4599.70334547891 200.00000098198 orientation 1 0 0 0 velocity -6.67247126590189e-10 0.000171554353728967 6.66496014778381e-10 angularVelocity 0 0 0 force -161.646059099155 8369803.65268878 161.852396042715 torque 0 0 0 radius 200 invMass 1.19366207318922e-11
BaseParticle id 26 indSpecies 0 position 200.000000981475 4599.70334547878 -200.000000981712 orientation 1 0 0 0 velocity 6.6337804515712e-10 0.000171554355251709 -6.64412312798973e-10 angularVelocity 0 0 0 force 162.315564255307 8369804.55725643 -161.912091093126 torque 0 0 0 radius 200 invMass 1.19366207318922e-11
BaseParticle id 27 indSpecies 0 position 200.000000981511 4599.70334547885 200.000000981948 orientation 1 0 0 0 velocity 6.63583597025941e-10 0.000171554359585472 6.65753552212653e-10 angularVelocity 0 0 0 force 162.42158181785 8369804.33330398 161.826406485842 torque 0 0 0 radius 200 invMass 1.19366207318922e-11
BaseParticle id 28 indSpecies 0 position -200.000002401069 4999.70552322729 -200.000002400671 orientation 1 0 0 0 velocity -1.85350383700009e-09 9.82849125598861e-05 -1.83679382014655e-09 angularVelocity 0 0 0 force -2.33240581180153 2318578.80388759 -2.41113942284236 torque 0 0 0 radius 200 invMass 1.19366207318922e-11
BaseParticle id 29 indSpecies 0 position -200.000002401035 4999.70552322719 200.000002400908 orientation 1 0 0 0 velocity -1.85499174556588e-09 9.82849050038337e-05 1.85197549377014e-09 angularVelocity 0 0 0 force -2.30478906194623 2318578.96017932 2.38210899132106 torque 0 0 0 radius 200 invMass 1.19366207318922e-11
BaseParticle id 30 indSpecies 0 position 200.000002400507 4999.7055232272 -200.000002400709 orientation 1 0 0 0 velocity 1.8342383219136e-09 9.82849049372062e-05 -1.83769247827553e-09 angularVelocity 0 0 0 force 2.57352014206784 2318579.5731973 -2.42527502791162 torque 0 0 0 radius 200 invMass 1.19366207318922e-11
BaseParticle id 31 indSpecies 0 position 200.000002400542 4999.70552322719 200.000002400872 orientation 1 0 0 0 velocity 1.83352789342607e-09 9.82849053480811e-05 1.85073844087394e-09 angularVelocity 0 0 0 force 2.59793251756934 2318579.57425298 2.38649335503192 torque 0 0 0 radius 200 invMass 1.19366207318922e-11
BaseParticle id 32 indSpecies 0 position -200.000007983547 5399.70838422089 -200.000007983287 orientation 1 0 0 0 velocity -1.15540041718574e-08 0.000119843782629921 -1.15356461697748e-08 angularVelocity 0 0 0 force -59.7923395260694 -849252.553628427 -59.6989883373437 torque 0 0 0 radius 200 invMass 1.19366207318922e-11
BaseParticle id 33 indSpecies 0 position -200.000007983514 5399.70838422091 200.000007983438 orientation 1 0 0 0 velocity -1.15544291533995e-08 0.000119843781784899 1.15570522481095e-08 angularVelocity 0 0 0 force -59.8151147592474 -849252.165286562 59.8009537020989 torque 0 0 0 radius 200 invMass 1.19366207318922e-11
BaseParticle id 34 indSpecies 0 position 200.000007983173 5399.70838422085 -200.000007983324 orientation 1 0 0 0 velocity 1.1538180856647e-08 0.000119843774666673 -1.15363714570172e-08 angularVelocity 0 0 0 force 59.7872689721994 -849252.203561728 -59.7452861491772 torque 0 0 0 radius 200 invMass 1.19366207318922e-11
BaseParticle id 35 indSpecies 0 position 200.000007983208 5399.70838422091 200.000007983404 orientation 1 0 0 0 velocity 1.15379193869403e-08 0.000119843774316438 1.15564894536448e-08 angularVelocity 0 0 0 force 59.7496532346333 -849251.828222205 59.7744118349992 torque 0 0 0 radius 200 invMass 1.19366207318922e-11
BaseParticle id 36 indSpecies 0 position -200.00000759004 5799.71714559817 -200.000007589827 orientation 1 0 0 0 velocity 1.85120916694081e-07 0.000452590294271178 1.85130644223137e-07 angularVelocity 0 0 0 force -32.3315692384566 -895196.403421915 -32.1858204906528 torque 0 0 0 radius 200 invMass 1.19366207318922e-11
BaseParticle id 37 indSpecies 0 position -200.000007590015 5799.71714559789 200.000007589965 orientation 1 0 0 0 velocity 1.85121435946176e-07 0.000452590291298835 -1.8511803266953e-07 angularVelocity 0 0 0 force -32.3407837343505 -895196.354396532 32.373743234539 torque 0 0 0 radius 200 invMass 1.19366207318922e-11
BaseParticle id 38 indSpecies 0 position 200.000007589767 5799.71714559814 -200.000007589865 orientation 1 0 0 0 velocity -1.85127012921675e-07 0.000452590293325887 1.85130332079013e-07 angularVelocity 0 0 0 force 32.2857586769625 -895196.564346692 -32.1761418322871 torque 0 0 0 radius 200 invMass 1.19366207318922e-11
BaseParticle id 39 indSpecies 0 position 200.000007589806 5799.71714559783 200.000007589929 orientation 1 0 0 0 velocity -1.85126221722968e-07 0.00045259028625126 -1.85118061177346e-07 angularVelocity 0 0 0 force 32.2791909319908 -895196.423765625 32.3782251536725 torque 0 0 0 radius 200 invMass 1.19366207318922e-11
BaseParticle id 40 indSpecies 0 position -200.000019647861 6199.72124610595 -200.000019647816 orientation 1 0 0 0 velocity -2.12364719973517e-07 -0.000157989661958974 -2.12360168035076e-07 angularVelocity 0 0 0 force 488.75078215318 1602.51517252958 488.854296152532 torque 0 0 0 radius 200 invMass 1.19366207318922e-11
BaseParticle id 41 indSpecies 0 position -200.000019647819 6199.72124610598 200.000019647805 orientation 1 0 0 0 velocity -2.1236387616014e-07 -0.000157989653979865 2.12368762702692e-07 angularVelocity 0 0 0 force 488.75352606173 1602.43648714639 -488.738889628258 torque 0 0 0 radius 200 invMass 1.19366207318922e-11
BaseParticle id 42 indSpecies 0 position 200.000019647716 6199.72124610582 -200.000019647831 orientation 1 0 0 0 velocity 2.12364306306585e-07 -0.000157989664744723 -2.1236012620926e-07 angularVelocity 0 0 0 force -488.770572785918 1602.38510830327 488.875110515397 torque 0 0 0 radius 200 invMass 1.19366207318922e-11
BaseParticle id 43 indSpecies 0 position 200.000019647731 6199.72124610578 200.000019647775 orientation 1 0 0 0 velocity 2.1236496942297e-07 -0.000157989658078475 2.12368863526881e-07 angularVelocity 0 0 0 force -488.771290953469 1602.42999594283 -488.716213780534 torque 0 0 0 radius 200 invMass 1.19366207318922e-11
BaseParticle id 44 indSpecies 0 position -200.000000024946 6599.77147865729 -200.000000024946 orientation 1 0 0 0 velocity -3.78935856474731e-10 8.78033736343666e-05 -3.78960918581029e-10 angularVelocity 0 0 0 force 0 0 0 torque 0 0 0 radius 200 invMass 1.19366207318922e-11
BaseParticle id 45 indSpecies 0 position -200.000000024946 6599.77147865729 200.000000024946 orientation 1 0 0 0 velocity -3.78960534905859e-10 8.78033761454807e-05 3.78967635711108e-10 angularVelocity 0 0 0 force 0 0 0 torque 0 0 0 radius 200 invMass 1.19366207318922e-11
BaseParticle id 46 indSpecies 0 position 200.000000024946 6599.77147865732 -200.000000024946 orientation 1 0 0 0 velocity 3.78945356993761e-10 8.78033776794163e-05 -3.78961906659724e-10 angularVelocity 0 0 0 force 0 0 0 torque 0 0 0 radius 200 invMass 1.19366207318922e-11
BaseParticle id 47 indSpecies 0 position 200.000000024946 6599.77147865734 200.000000024946 orientation 1 0 0 0 velocity 3.78967610823118e-10 8.78033870479428e-05 3.78966549684282e-10 angularVelocity 0 0 0 force 0 0 0 torque 0 0 0 radius 200 invMass 1.19366207318922e-11
BaseParticle id 48 indSpecies 0 position -200 6999.83365446306 -200 orientation 1 0 0 0 velocity -2.31605798261117e-14 0.000947889144131461 -2.31576233481077e-14 angularVelocity 0 0 0 force 0 0 0 torque 0 0 0 radius 200 invMass 1.19366207318922e-11
BaseParticle id 49 indSpecies 0 position -200 6999.83365446307 200 orientation 1 0 0 0 velocity -2.31576233486785e-14 0.000947889144047641 2.31576233486785e-14 angularVelocity 0 0 0 force 0 0 0 torque 0 0 0 radius 200 invMass 1.19366207318922e-11
BaseParticle id 50 indSpecies 0 position 200 6999.83365446309 -200 orientation 1 0 0 0 velocity 2.31575716545855e-14 0.000947889150511407 -2.31576233519609e-14 angularVelocity 0 0 0 force 0 0 0 torque 0 0 0 radius 200 invMass 1.19366207318922e-11
BaseParticle id 51 indSpecies 0 position 200 6999.83365446308 200 orientation 1 0 0 0 velocity 2.31576233484679e-14 0.000947889147440096 2.31576233484679e-14 angularVelocity 0 0 0 force 0 0 0 torque 0 0 0 radius 200 invMass 1.19366207318922e-11
BaseParticle id 52 indSpecies 0 position -200 7399.86567379094 -200 orientation 1 0 0 0 velocity 0 0.00135321017330903 0 angularVelocity 0 0 0 force 0 0 0 torque 0 0 0 radius 200 invMass 1.19366207318922e-11
BaseParticle id 53 indSpecies 0 position -200 7399.86567379095 200 orientation 1 0 0 0 velocity 0 0.00135321017268076 0 angularVelocity 0 0 0 force 0 0 0 torque 0 0 0 radius 200 invMass 1.19366207318922e-11
BaseParticle id 54 indSpecies 0 position 200 7399.86567379095 -200 orientation 1 0 0 0 velocity 0 0.00135321017414663 0 angularVelocity 0 0 0 force 0 0 0 torque 0 0 0 radius 200 invMass 1.19366207318922e-11
BaseParticle id 55 indSpecies 0 position 200 7399.86567379095 200 orientation 1 0 0 0 velocity 0 0.00135321017406294 0 angularVelocity 0 0 0 force 0 0 0 torque 0 0 0 radius 200 invMass 1.19366207318922e-11
BaseParticle id 56 indSpecies 0 position -200 7799.87747486505 -200 orientation 1 0 0 0 velocity 0 0.00145968255889373 0 angularVelocity 0 0 0 force 0 0 0 torque 0 0 0 radius 200 invMass 1.19366207318922e-11
BaseParticle id 57 indSpecies 0 position -200 7799.87747486505 200 orientation 1 0 0 0 velocity 0 0.00145968255981514 0 angularVelocity 0 0 0 force 0 0 0 torque 0 0 0 radius 200 invMass 1.19366207318922e-11
BaseParticle id 58 indSpecies 0 position 200 7799.87747486505 -200 orientation 1 0 0 0 velocity 0 0.00145968255981514 0 angularVelocity 0 0 0 force 0 0 0 torque 0 0 0 radius 200 invMass 1.19366207318922e-11
BaseParticle id 59 indSpecies 0 position 200 7799.87747486505 200 orientation 1 0 0 0 velocity 0 0.00145968256197894 0 angularVelocity 0 0 0 force 0 0 0 torque 0 0 0 radius 200 invMass 1.19366207318922e-11
BaseParticle id 60 indSpecies 0 position -200 8199.88748860195 -200 orientation 1 0 0 0 velocity 0 0.00153565184386868 0 angularVelocity 0 0 0 force 0 0 0 torque 0 0 0 radius 200 invMass 1.19366207318922e-11
BaseParticle id 61 indSpecies 0 position -200 8199.88748860195 200 orientation 1 0 0 0 velocity 0 0.00153565184707965 0 angularVelocity 0 0 0 force 0 0 0 torque 0 0 0 radius 200 invMass 1.19366207318922e-11
BaseParticle id 62 indSpecies 0 position 200 8199.88748860195 -200 orientation 1 0 0 0 velocity 0 0.00153565184707965 0 angularVelocity 0 0 0 force 0 0 0 torque 0 0 0 radius 200 invMass 1.19366207318922e-11
BaseParticle id 63 indSpecies 0 position 200 8199.88748860195 200 orientation 1 0 0 0 velocity 0 0.0015356518468842 0 angularVelocity 0 0 0 force 0 0 0 torque 0 0 0 radius 200 invMass 1.19366207318922e-11
BaseParticle id 64 indSpecies 0 position -200 8599.8987001513 -200 orientation 1 0 0 0 velocity 0 0.00162274039442044 0 angularVelocity 0 0 0 force 0 0 0 torque 0 0 0 radius 200 invMass 1.19366207318922e-11
BaseParticle id 65 indSpecies 0 position -200 8599.8987001513 200 orientation 1 0 0 0 velocity 0 0.00162274039442044 0 angularVelocity 0 0 0 force 0 0 0 torque 0 0 0 radius 200 invMass 1.19366207318922e-11
BaseParticle id 66 indSpecies 0 position 200 8599.8987001513 -200 orientation 1 0 0 0 velocity 0 0.00162274039442044 0 angularVelocity 0 0 0 force 0 0 0 torque 0 0 0 radius 200 invMass 1.19366207318922e-11
BaseParticle id 67 indSpecies 0 position 200 8599.8987001513 200 orientation 1 0 0 0 velocity 0 0.00162274039442044 0 angularVelocity 0 0 0 force 0 0 0 torque 0 0 0 radius 200 invMass 1.19366207318922e-11
BaseParticle id 68 indSpecies 0 position -200 8999.91115290023 -200 orientation 1 0 0 0 velocity 0 0.00172059925215358 0 angularVelocity 0 0 0 force 0 0 0 torque 0 0 0 radius 200 invMass 1.19366207318922e-11
BaseParticle id 69 indSpecies 0 position -200 8999.91115290023 200 orientation 1 0 0 0 velocity 0 0.00172059925215358 0 angularVelocity 0 0 0 force 0 0 0 torque 0 0 0 radius 200 invMass 1.19366207318922e-11
BaseParticle id 70 indSpecies 0 position 200 8999.91115290023 -200 orientation 1 0 0 0 velocity 0 0.00172059925215358 0 angularVelocity 0 0 0 force 0 0 0 torque 0 0 0 radius 200 invMass 1.19366207318922e-11
BaseParticle id 71 indSpecies 0 position 200 8999.91115290023 200 orientation 1 0 0 0 velocity 0 0.00172059925215358 0 angularVelocity 0 0 0 force 0 0 0 torque 0 0 0 radius 200 invMass 1.19366207318922e-11
BaseParticle id 72 indSpecies 0 position -200 9399.92521058026 -200 orientation 1 0 0 0 velocity 0 0.00183296491733134 0 angularVelocity 0 0 0 force 0 0 0 torque 0 0 0 radius 200 invMass 1.19366207318922e-11
BaseParticle id 73 indSpecies 0 position -200 9399.92521058026 200 orientation 1 0 0 0 velocity 0 0.00183296491733134 0 angularVelocity 0 0 0 force 0 0 0 torque 0 0 0 radius 200 invMass 1.19366207318922e-11
BaseParticle id 74 indSpecies 0 position 200 9399.92521058026 -200 orientation 1 0 0 0 velocity 0 0.00183296491733134 0 angularVelocity 0 0 0 force 0 0 0 torque 0 0 0 radius 200 invMass 1.19366207318922e-11
BaseParticle id 75 indSpecies 0 position 200 9399.92521058026 200 orientation 1 0 0 0 velocity 0 0.00183296491733134 0 angularVelocity 0 0 0 force 0 0 0 torque 0 0 0 radius 200 invMass 1.19366207318922e-11
BaseParticle id 76 indSpecies 0 position -200 9799.94127195103 -200 orientation 1 0 0 0 velocity 0 0.00196362914814414 0 angularVelocity 0 0 0 force 0 0 0 torque 0 0 0 radius 200 invMass 1.19366207318922e-11
BaseParticle id 77 indSpecies 0 position -200 9799.94127195103 200 orientation 1 0 0 0 velocity 0 0.00196362914814414 0 angularVelocity 0 0 0 force 0 0 0 torque 0 0 0 radius 200 invMass 1.19366207318922e-11
BaseParticle id 78 indSpecies 0 position 200 9799.94127195103 -200 orientation 1 0 0 0 velocity 0 0.00196362914814414 0 angularVelocity 0 0 0 force 0 0 0 torque 0 0 0 radius 200 invMass 1.19366207318922e-11
BaseParticle id 79 indSpecies 0 position 200 9799.94127195103 200 orientation 1 0 0 0 velocity 0 0.00196362914814414 0 angularVelocity 0 0 0 force 0 0 0 torque 0 0 0 radius 200 invMass 1.19366207318922e-11
BaseParticle id 80 indSpecies 0 position -200 10199.9598836017 -200 orientation 1 0 0 0 velocity 0 0.00211780591761501 0 angularVelocity 0 0 0 force 0 0 0 torque 0 0 0 radius 200 invMass 1.19366207318922e-11
BaseParticle id 81 indSpecies 0 position -200 10199.9598836017 200 orientation 1 0 0 0 velocity 0 0.00211780591761501 0 angularVelocity 0 0 0 force 0 0 0 torque 0 0 0 radius 200 invMass 1.19366207318922e-11
BaseParticle id 82 indSpecies 0 position 200 10199.9598836017 -200 orientation 1 0 0 0 velocity 0 0.00211780591761501 0 angularVelocity 0 0 0 force 0 0 0 torque 0 0 0 radius 200 invMass 1.19366207318922e-11
BaseParticle id 83 indSpecies 0 position 200 10199.9598836017 200 orientation 1 0 0 0 velocity 0 0.00211780591761501 0 angularVelocity 0 0 0 force 0 0 0 torque 0 0 0 radius 200 invMass 1.19366207318922e-11
BaseParticle id 84 indSpecies 0 position -200 10599.9816990082 -200 orientation 1 0 0 0 velocity 0 0.00230146420857093 0 angularVelocity 0 0 0 force 0 0 0 torque 0 0 0 radius 200 invMass 1.19366207318922e-11
BaseParticle id 85 indSpecies 0 position -200 10599.9816990082 200 orientation 1 0 0 0 velocity 0 0.00230146420857093 0 angularVelocity 0 0 0 force 0 0 0 torque 0 0 0 radius 200 invMass 1.19366207318922e-11
BaseParticle id 86 indSpecies 0 position 200 10599.9816990082 -200 orientation 1 0 0 0 velocity 0 0.00230146420857093 0 angularVelocity 0 0 0 force 0 0 0 torque 0 0 0 radius 200 invMass 1.19366207318922e-11
BaseParticle id 87 indSpecies 0 position 200 10599.9816990082 200 orientation 1 0 0 0 velocity 0 0.00230146420857093 0 angularVelocity 0 0 0 force 0 0 0 torque 0 0 0 radius 200 invMass 1.19366207318922e-11
BaseParticle id 88 indSpecies 0 position -200 11000.0078499326 -200 orientation 1 0 0 0 velocity 0 0.00252559061736983 0 angularVelocity 0 0 0 force 0 0 0 torque 0 0 0 radius 200 invMass 1.19366207318922e-11
BaseParticle id 89 indSpecies 0 position -200 11000.0078499326 200 orientation 1 0 0 0 velocity 0 0.00252559061736983 0 angularVelocity 0 0 0 force 0 0 0 torque 0 0 0 radius 200 invMass 1.19366207318922e-11
BaseParticle id 90 indSpecies 0 position 200 11000.0078499326 -200 orientation 1 0 0 0 velocity 0 0.00252559061736983 0 angularVelocity 0 0 0 force 0 0 0 torque 0 0 0 radius 200 invMass 1.19366207318922e-11
BaseParticle id 91 indSpecies 0 position 200 11000.0078499326 200 orientation 1 0 0 0 velocity 0 0.00252559061736983 0 angularVelocity 0 0 0 force 0 0 0 torque 0 0 0 radius 200 invMass 1.19366207318922e-11
BaseParticle id 92 indSpecies 0 position -200 11400.03995223 -200 orientation 1 0 0 0 velocity 0 0.00280566830038197 0 angularVelocity 0 0 0 force 0 0 0 torque 0 0 0 radius 200 invMass 1.19366207318922e-11
BaseParticle id 93 indSpecies 0 position -200 11400.03995223 200 orientation 1 0 0 0 velocity 0 0.00280566830038197 0 angularVelocity 0 0 0 force 0 0 0 torque 0 0 0 radius 200 invMass 1.19366207318922e-11
BaseParticle id 94 indSpecies 0 position 200 11400.03995223 -200 orientation 1 0 0 0 velocity 0 0.00280566830038197 0 angularVelocity 0 0 0 force 0 0 0 torque 0 0 0 radius 200 invMass 1.19366207318922e-11
BaseParticle id 95 indSpecies 0 position 200 11400.03995223 200 orientation 1 0 0 0 velocity 0 0.00280566830038197 0 angularVelocity 0 0 0 force 0 0 0 torque 0 0 0 radius 200 invMass 1.19366207318922e-11
BaseParticle id 96 indSpecies 0 position -200 11800.0806845827 -200 orientation 1 0 0 0 velocity 0 0.00316767304793931 0 angularVelocity 0 0 0 force 0 0 0 torque 0 0 0 radius 200 invMass 1.19366207318922e-11
BaseParticle id 97 indSpecies 0 position -200 11800.0806845827 200 orientation 1 0 0 0 velocity 0 0.00316767304793931 0 angularVelocity 0 0 0 force 0 0 0 torque 0 0 0 radius 200 invMass 1.19366207318922e-11
BaseParticle id 98 indSpecies 0 position 200 11800.0806845827 -200 orientation 1 0 0 0 velocity 0 0.00316767304793931 0 angularVelocity 0 0 0 force 0 0 0 torque 0 0 0 radius 200 invMass 1.19366207318922e-11
BaseParticle id 99 indSpecies 0 position 200 11800.0806845827 200 orientation 1 0 0 0 velocity 0 0.00316767304793931 0 angularVelocity 0 0 0 force 0 0 0 torque 0 0 0 radius 200 invMass 1.19366207318922e-11
BaseParticle id 100 indSpecies 0 position -200 12200.1345511605 -200 orientation 1 0 0 0 velocity 0 0.00365528361274133 0 angularVelocity 0 0 0 force 0 0 0 torque 0 0 0 radius 200 invMass 1.19366207318922e-11
BaseParticle id 101 indSpecies 0 position -200 12200.1345511605 200 orientation 1 0 0 0 velocity 0 0.00365528361274133 0 angularVelocity 0 0 0 force 0 0 0 torque 0 0 0 radius 200 invMass 1.19366207318922e-11
BaseParticle id 102 indSpecies 0 position 200 12200.1345511605 -200 orientation 1 0 0 0 velocity 0 0.00365528361274133 0 angularVelocity 0 0 0 force 0 0 0 torque 0 0 0 radius 200 invMass 1.19366207318922e-11
BaseParticle id 103 indSpecies 0 position 200 12200.1345511605 200 orientation 1 0 0 0 velocity 0 0.00365528361274133 0 angularVelocity 0 0 0 force 0 0 0 torque 0 0 0 radius 200 invMass 1.19366207318922e-11
BaseParticle id 104 indSpecies 0 position -200 12600.2105715845 -200 orientation 1 0 0 0 velocity 0 0.0043570222649936 0 angularVelocity 0 0 0 force 0 0 0 torque 0 0 0 radius 200 invMass 1.19366207318922e-11
BaseParticle id 105 indSpecies 0 position -200 12600.2105715845 200 orientation 1 0 0 0 velocity 0 0.0043570222649936 0 angularVelocity 0 0 0 force 0 0 0 torque 0 0 0 radius 200 invMass 1.19366207318922e-11
BaseParticle id 106 indSpecies 0 position 200 12600.2105715845 -200 orientation 1 0 0 0 velocity 0 0.0043570222649936 0 angularVelocity 0 0 0 force 0 0 0 torque 0 0 0 radius 200 invMass 1.19366207318922e-11
BaseParticle id 107 indSpecies 0 position 200 12600.2105715845 200 orientation 1 0 0 0 velocity 0 0.0043570222649936 0 angularVelocity 0 0 0 force 0 0 0 torque 0 0 0 radius 200 invMass 1.19366207318922e-11
BaseParticle id 108 indSpecies 0 position -200 13000.3282775058 -200 orientation 1 0 0 0 velocity 0 0.00546489405658367 0 angularVelocity 0 0 0 force 0 0 0 torque 0 0 0 radius 200 invMass 1.19366207318922e-11
BaseParticle id 109 indSpecies 0 position -200 13000.3282775058 200 orientation 1 0 0 0 velocity 0 0.00546489405658367 0 angularVelocity 0 0 0 force 0 0 0 torque 0 0 0 radius 200 invMass 1.19366207318922e-11
BaseParticle id 110 indSpecies 0 position 200 13000.3282775058 -200 orientation 1 0 0 0 velocity 0 0.00546489405658367 0 angularVelocity 0 0 0 force 0 0 0 torque 0 0 0 radius 200 invMass 1.19366207318922e-11
BaseParticle id 111 indSpecies 0 position 200 13000.3282775058 200 orientation 1 0 0 0 velocity 0 0.00546489405658367 0 angularVelocity 0 0 0 force 0 0 0 torque 0 0 0 radius 200 invMass 1.19366207318922e-11
BaseParticle id 112 indSpecies 0 position -200 13400.5444000637 -200 orientation 1 0 0 0 velocity 0 0.00754097293065658 0 angularVelocity 0 0 0 force 0 0 0 torque 0 0 0 radius 200 invMass 1.19366207318922e-11
BaseParticle id 113 indSpecies 0 position -200 13400.5444000637 200 orientation 1 0 0 0 velocity 0 0.00754097293065658 0 angularVelocity 0 0 0 force 0 0 0 torque 0 0 0 radius 200 invMass 1.19366207318922e-11