MercuryDPM 0.14 name oneDimChain revision 6406 repository https://svn.mercurydpm.org/SourceCode/Branches/OomphlibCouplingExplicit
dataFile    fileType ONE_FILE saveCount 30 counter 105 lastSavedTimeStep 3111
fStatFile   fileType ONE_FILE saveCount 30 counter 105 lastSavedTimeStep 3111
eneFile     fileType ONE_FILE saveCount 30 counter 105 lastSavedTimeStep 3111
restartFile fileType ONE_FILE saveCount 30 counter 105 lastSavedTimeStep 3111
statFile    fileType ONE_FILE saveCount 30 counter 0
interactionFile fileType NO_FILE saveCount 0 counter 0
xMin -500 xMax 500 yMin -5000 yMax 5000 zMin -500 zMax 500
timeStep 0.0321487566790692 time 100.01478202858 ntimeSteps 3111 timeMax 100
systemDimensions 3 particleDimensions 3 gravity 0 0 -0 writeVTK 1 MULTIPLE_FILES NO_FILE 105 105 0 0 random  0 1103515245 12345 1073741824 607 273 784607267
Species 1
LinearViscoelasticReversibleAdhesiveSpecies id 0 density 2500 stiffness 40000000000 dissipation -0 adhesionForceMax 0 adhesionStiffness 40000000000
Walls 0
Boundaries 0
Particles 120
BaseParticle id 0 indSpecies 0 position -199.999999999907 2199.6994498987 -200.000000000068 orientation 1 0 0 0 velocity -3.24173651033624e-12 0.014040630209445 1.40295896254951e-11 angularVelocity 0 0 0 force -4.50794093916825 463336016.115612 1.02446905955316 torque 0 0 0 radius 200 invMass 1.19366207318922e-11
BaseParticle id 1 indSpecies 0 position -199.999999999921 2199.69944989867 199.999999999946 orientation 1 0 0 0 velocity -2.96237123667199e-11 0.0140406303470458 3.60779824477466e-11 angularVelocity 0 0 0 force -6.68463146793264 463336027.722936 0.246269708564717 torque 0 0 0 radius 200 invMass 1.19366207318922e-11
BaseParticle id 2 indSpecies 0 position 200.0000000001 2199.69944989866 -200.000000000032 orientation 1 0 0 0 velocity 2.07075852204468e-11 0.0140406303116792 -5.93919454058814e-12 angularVelocity 0 0 0 force -0.71045735650422 463336017.519337 -0.684699675281785 torque 0 0 0 radius 200 invMass 1.19366207318922e-11
BaseParticle id 3 indSpecies 0 position 200.000000000077 2199.69944989869 199.999999999974 orientation 1 0 0 0 velocity -1.39820703692482e-11 0.0140406304565012 1.27728174170228e-11 angularVelocity 0 0 0 force -2.41986079599388 463336019.772484 -0.687799437322626 torque 0 0 0 radius 200 invMass 1.19366207318922e-11
BaseParticle id 4 indSpecies 0 position -199.999999999949 2599.69146862158 -200.00000000007 orientation 1 0 0 0 velocity 3.67528704807623e-11 0.00478520727556169 -5.52171665017106e-12 angularVelocity 0 0 0 force 0.0260228876384028 632687596.325342 1.10229242697861 torque 0 0 0 radius 200 invMass 1.19366207318922e-11
BaseParticle id 5 indSpecies 0 position -199.999999999966 2599.69146862151 199.999999999943 orientation 1 0 0 0 velocity 3.200903547218e-11 0.00478520731929582 -9.27155065588828e-12 angularVelocity 0 0 0 force -0.983541925621293 632687607.654388 0.785158562968965 torque 0 0 0 radius 200 invMass 1.19366207318922e-11
BaseParticle id 6 indSpecies 0 position 200.000000000076 2599.69146862151 -200.000000000036 orientation 1 0 0 0 velocity 3.65325343143144e-11 0.00478520727587608 -6.41503691158436e-13 angularVelocity 0 0 0 force 0.419841935678116 632687609.110837 -1.75972880933052 torque 0 0 0 radius 200 invMass 1.19366207318922e-11
BaseParticle id 7 indSpecies 0 position 200.000000000052 2599.69146862147 199.999999999964 orientation 1 0 0 0 velocity 3.184498604427e-11 0.00478520732874834 -9.53076714301383e-13 angularVelocity 0 0 0 force -0.521899262436909 632687615.672914 0.389498930951631 torque 0 0 0 radius 200 invMass 1.19366207318922e-11
BaseParticle id 8 indSpecies 0 position -199.999999999989 2999.69198691626 -200.000000000049 orientation 1 0 0 0 velocity -2.94726446818518e-12 -0.00196566730226381 1.4964597425357e-12 angularVelocity 0 0 0 force 1.96737910166006 126381351.405258 -0.354326934969101 torque 0 0 0 radius 200 invMass 1.19366207318922e-11
BaseParticle id 9 indSpecies 0 position -200.000000000008 2999.69198691616 199.999999999962 orientation 1 0 0 0 velocity -1.40296735611246e-11 -0.00196566730738888 3.12924865657993e-12 angularVelocity 0 0 0 force 3.0375914286712 126381356.084595 -0.987779254642705 torque 0 0 0 radius 200 invMass 1.19366207318922e-11
BaseParticle id 10 indSpecies 0 position 200.000000000032 2999.69198691624 -200.000000000033 orientation 1 0 0 0 velocity 3.72611954238636e-12 -0.00196566733707882 1.801336790724e-12 angularVelocity 0 0 0 force 1.70248190893499 126381352.508256 -0.167026332812855 torque 0 0 0 radius 200 invMass 1.19366207318922e-11
BaseParticle id 11 indSpecies 0 position 200.000000000017 2999.69198691617 199.999999999971 orientation 1 0 0 0 velocity -9.14004969272543e-12 -0.0019656673373349 6.36444703886958e-12 angularVelocity 0 0 0 force 1.37848175575363 126381356.716062 -0.467085882939756 torque 0 0 0 radius 200 invMass 1.19366207318922e-11
BaseParticle id 12 indSpecies 0 position -199.99999999999 3399.69673695452 -200.000000000029 orientation 1 0 0 0 velocity -9.95727483849563e-12 -0.00171845499458803 2.9820607275531e-12 angularVelocity 0 0 0 force 0.038870913009085 -76075751.14034 0.449719292745788 torque 0 0 0 radius 200 invMass 1.19366207318922e-11
BaseParticle id 13 indSpecies 0 position -199.999999999995 3399.69673695447 199.999999999971 orientation 1 0 0 0 velocity -1.66014632700368e-11 -0.00171845504096703 1.21837527509409e-11 angularVelocity 0 0 0 force 0.189553436554896 -76075746.2740483 1.09576932548527 torque 0 0 0 radius 200 invMass 1.19366207318922e-11
BaseParticle id 14 indSpecies 0 position 200.000000000016 3399.69673695455 -200.000000000024 orientation 1 0 0 0 velocity -8.32455832829185e-12 -0.00171845501131489 1.70232174418905e-12 angularVelocity 0 0 0 force 0.0283419199311425 -76075752.8834855 0.410362102568547 torque 0 0 0 radius 200 invMass 1.19366207318922e-11
BaseParticle id 15 indSpecies 0 position 200.000000000014 3399.69673695451 199.999999999975 orientation 1 0 0 0 velocity -1.41511705299428e-11 -0.00171845505461249 1.47338676643954e-11 angularVelocity 0 0 0 force -0.585849420973854 -76075748.7371346 0.879322269165105 torque 0 0 0 radius 200 invMass 1.19366207318922e-11
BaseParticle id 16 indSpecies 0 position -199.999999999998 3799.69925610139 -200.000000000008 orientation 1 0 0 0 velocity -4.25028899447017e-13 -0.000138623690619823 -9.23777028627734e-14 angularVelocity 0 0 0 force -0.0319970896634033 -58031318.5935824 0.36446043874388 torque 0 0 0 radius 200 invMass 1.19366207318922e-11
BaseParticle id 17 indSpecies 0 position -200.000000000001 3799.69925610136 199.99999999999 orientation 1 0 0 0 velocity -5.19576596545319e-13 -0.000138623729338462 6.43933632942161e-12 angularVelocity 0 0 0 force -0.0611717426098523 -58031316.5519379 0.923502566983589 torque 0 0 0 radius 200 invMass 1.19366207318922e-11
BaseParticle id 18 indSpecies 0 position 200.000000000002 3799.69925610143 -200.000000000007 orientation 1 0 0 0 velocity -4.25028899446989e-13 -0.000138623685486269 3.01884713538385e-13 angularVelocity 0 0 0 force -0.0319970896634026 -58031320.9058444 0.357925558764251 torque 0 0 0 radius 200 invMass 1.19366207318922e-11
BaseParticle id 19 indSpecies 0 position 199.999999999999 3799.6992561014 199.999999999992 orientation 1 0 0 0 velocity -5.19576596545296e-13 -0.000138623724765674 6.70316415648954e-12 angularVelocity 0 0 0 force -0.0611717426098501 -58031319.9629869 0.778205190532726 torque 0 0 0 radius 200 invMass 1.19366207318922e-11
BaseParticle id 20 indSpecies 0 position -200 4199.70035500229 -200.000000000001 orientation 1 0 0 0 velocity -5.11482321971771e-13 0.000349173391420796 7.18681987212109e-13 angularVelocity 0 0 0 force 0.021531263299278 -4211843.57462418 0.127477775260013 torque 0 0 0 radius 200 invMass 1.19366207318922e-11
BaseParticle id 21 indSpecies 0 position -200 4199.7003550023 199.999999999999 orientation 1 0 0 0 velocity -4.45396254160585e-13 0.000349173379722429 7.186819872121e-13 angularVelocity 0 0 0 force 0.0149830430843807 -4211843.42769711 0.127477775260014 torque 0 0 0 radius 200 invMass 1.19366207318922e-11
BaseParticle id 22 indSpecies 0 position 200 4199.70035500226 -199.999999999999 orientation 1 0 0 0 velocity -5.11482321971787e-13 0.000349173402302164 7.58310130647631e-13 angularVelocity 0 0 0 force 0.0215312632992785 -4211843.83089345 0.120789661604049 torque 0 0 0 radius 200 invMass 1.19366207318922e-11
BaseParticle id 23 indSpecies 0 position 200 4199.70035500227 200.000000000001 orientation 1 0 0 0 velocity -4.45396254160592e-13 0.00034917338939547 7.58310130647619e-13 angularVelocity 0 0 0 force 0.014983043084381 -4211844.6617133 0.12078966160405 torque 0 0 0 radius 200 invMass 1.19366207318922e-11
BaseParticle id 24 indSpecies 0 position -200.000000000002 4599.70201358371 -200 orientation 1 0 0 0 velocity -4.00575107226841e-13 0.000220853746575798 9.32064723578775e-14 angularVelocity 0 0 0 force 0.000839573720740445 7968843.0760939 0.0570668296592842 torque 0 0 0 radius 200 invMass 1.19366207318922e-11
BaseParticle id 25 indSpecies 0 position -200 4599.70201358373 200 orientation 1 0 0 0 velocity -3.8526326431821e-13 0.000220853745120915 9.32064723578748e-14 angularVelocity 0 0 0 force -0.010237922663592 7968842.99957818 0.0570668296592841 torque 0 0 0 radius 200 invMass 1.19366207318922e-11
BaseParticle id 26 indSpecies 0 position 199.999999999998 4599.70201358374 -200.000000000002 orientation 1 0 0 0 velocity -4.00575107226837e-13 0.000220853747343024 1.08642601691448e-13 angularVelocity 0 0 0 force 0.000839573720740338 7968843.17226511 0.0455539625896458 torque 0 0 0 radius 200 invMass 1.19366207318922e-11
BaseParticle id 27 indSpecies 0 position 200 4599.70201358371 199.999999999998 orientation 1 0 0 0 velocity -3.8526326431821e-13 0.000220853748692393 1.08642601691447e-13 angularVelocity 0 0 0 force -0.010237922663592 7968842.28894253 0.0455539625896463 torque 0 0 0 radius 200 invMass 1.19366207318922e-11
BaseParticle id 28 indSpecies 0 position -200.000000000001 4999.7058077188 -200.000000000001 orientation 1 0 0 0 velocity -1.17158437570081e-14 0.000120268206782044 -1.2171077129482e-13 angularVelocity 0 0 0 force 0.0017322776042465 1528158.13708381 0.012232955773666 torque 0 0 0 radius 200 invMass 1.19366207318922e-11
BaseParticle id 29 indSpecies 0 position -200.000000000001 4999.7058077188 199.999999999999 orientation 1 0 0 0 velocity -9.29310281838028e-14 0.000120268208687658 -1.21710771294821e-13 angularVelocity 0 0 0 force -0.00204414565973835 1528157.24592738 0.0122329557736661 torque 0 0 0 radius 200 invMass 1.19366207318922e-11
BaseParticle id 30 indSpecies 0 position 199.999999999999 4999.70580771886 -200 orientation 1 0 0 0 velocity -1.17158437570073e-14 0.000120268206199737 -2.02699719835817e-13 angularVelocity 0 0 0 force 0.00173227760424645 1528157.9420081 0.00832976567351076 torque 0 0 0 radius 200 invMass 1.19366207318922e-11
BaseParticle id 31 indSpecies 0 position 199.999999999999 4999.7058077189 200 orientation 1 0 0 0 velocity -9.29310281837992e-14 0.000120268210842684 -2.02699719835817e-13 angularVelocity 0 0 0 force -0.00204414565973837 1528157.18953296 0.00832976567351064 torque 0 0 0 radius 200 invMass 1.19366207318922e-11
BaseParticle id 32 indSpecies 0 position -200 5399.7125332579 -200.000000000001 orientation 1 0 0 0 velocity -2.88875365111593e-14 0.000118548787949228 -2.70868645556557e-13 angularVelocity 0 0 0 force 0.00187289866339447 -1792291.29984165 0.00245359464433289 torque 0 0 0 radius 200 invMass 1.19366207318922e-11
BaseParticle id 33 indSpecies 0 position -200 5399.71253325783 199.999999999999 orientation 1 0 0 0 velocity -9.59677933001547e-14 0.000118548787825183 -2.7086864555656e-13 angularVelocity 0 0 0 force 0.002038850790626 -1792292.25520228 0.00245359464433299 torque 0 0 0 radius 200 invMass 1.19366207318922e-11
BaseParticle id 34 indSpecies 0 position 200 5399.71253325788 -200 orientation 1 0 0 0 velocity -2.88875365111599e-14 0.000118548789726889 -3.33372958423439e-13 angularVelocity 0 0 0 force 0.00187289866339448 -1792290.96108597 0.00278554503855925 torque 0 0 0 radius 200 invMass 1.19366207318922e-11
BaseParticle id 35 indSpecies 0 position 200 5399.71253325785 200 orientation 1 0 0 0 velocity -9.59677933001541e-14 0.000118548790289602 -3.3337295842344e-13 angularVelocity 0 0 0 force 0.00203885079062597 -1792291.35779711 0.0027855450385593 torque 0 0 0 radius 200 invMass 1.19366207318922e-11
BaseParticle id 36 indSpecies 0 position -200.000000000004 5799.71739190349 -200.00000000001 orientation 1 0 0 0 velocity 8.85567649103295e-14 0.000129352427389516 5.14448679088309e-14 angularVelocity 0 0 0 force -0.00685892426840441 -1890294.09182597 -0.00019520620798738 torque 0 0 0 radius 200 invMass 1.19366207318922e-11
BaseParticle id 37 indSpecies 0 position -200.000000000003 5799.71739190347 200.000000000002 orientation 1 0 0 0 velocity 2.44581942411015e-14 0.000129352424837595 2.38350850421451e-13 angularVelocity 0 0 0 force -0.00279798420909988 -1890294.21715244 -0.00455401418122389 torque 0 0 0 radius 200 invMass 1.19366207318922e-11
BaseParticle id 38 indSpecies 0 position 200.000000000004 5799.71739190349 -200.00000000001 orientation 1 0 0 0 velocity 1.04752253489416e-13 0.000129352428050389 9.60035689670931e-14 angularVelocity 0 0 0 force -0.00723661696609115 -1890293.19289238 0.0020045997377964 torque 0 0 0 radius 200 invMass 1.19366207318922e-11
BaseParticle id 39 indSpecies 0 position 200 5799.71739190348 200.000000000004 orientation 1 0 0 0 velocity 5.11321271127953e-14 0.000129352424069293 2.63419896549786e-13 angularVelocity 0 0 0 force -0.00342004322356114 -1890293.64882631 -0.00189969275037017 torque 0 0 0 radius 200 invMass 1.19366207318922e-11
BaseParticle id 40 indSpecies 0 position -200 6199.76269384676 -200 orientation 1 0 0 0 velocity 0 -0.000128545657443244 0 angularVelocity 0 0 0 force 0 0 0 torque 0 0 0 radius 200 invMass 1.19366207318922e-11
BaseParticle id 41 indSpecies 0 position -200 6199.76269384676 200 orientation 1 0 0 0 velocity 0 -0.000128545657443244 0 angularVelocity 0 0 0 force 0 0 0 torque 0 0 0 radius 200 invMass 1.19366207318922e-11
BaseParticle id 42 indSpecies 0 position 200 6199.76269384676 -200 orientation 1 0 0 0 velocity 0 -0.000128545657443244 0 angularVelocity 0 0 0 force 0 0 0 torque 0 0 0 radius 200 invMass 1.19366207318922e-11
BaseParticle id 43 indSpecies 0 position 200 6199.76269384676 200 orientation 1 0 0 0 velocity 0 -0.000128545657443244 0 angularVelocity 0 0 0 force 0 0 0 torque 0 0 0 radius 200 invMass 1.19366207318922e-11
BaseParticle id 44 indSpecies 0 position -200 6599.77235836777 -200 orientation 1 0 0 0 velocity 0 0.000108396357381498 0 angularVelocity 0 0 0 force 0 0 0 torque 0 0 0 radius 200 invMass 1.19366207318922e-11
BaseParticle id 45 indSpecies 0 position -200 6599.77235836777 200 orientation 1 0 0 0 velocity 0 0.000108396357381498 0 angularVelocity 0 0 0 force 0 0 0 torque 0 0 0 radius 200 invMass 1.19366207318922e-11
BaseParticle id 46 indSpecies 0 position 200 6599.77235836777 -200 orientation 1 0 0 0 velocity 0 0.000108396357381498 0 angularVelocity 0 0 0 force 0 0 0 torque 0 0 0 radius 200 invMass 1.19366207318922e-11
BaseParticle id 47 indSpecies 0 position 200 6599.77235836777 200 orientation 1 0 0 0 velocity 0 0.000108396357381498 0 angularVelocity 0 0 0 force 0 0 0 torque 0 0 0 radius 200 invMass 1.19366207318922e-11
BaseParticle id 48 indSpecies 0 position -200 6999.8450882195 -200 orientation 1 0 0 0 velocity 0 0.00103590549564638 0 angularVelocity 0 0 0 force 0 0 0 torque 0 0 0 radius 200 invMass 1.19366207318922e-11
BaseParticle id 49 indSpecies 0 position -200 6999.8450882195 200 orientation 1 0 0 0 velocity 0 0.00103590549564638 0 angularVelocity 0 0 0 force 0 0 0 torque 0 0 0 radius 200 invMass 1.19366207318922e-11
BaseParticle id 50 indSpecies 0 position 200 6999.8450882195 -200 orientation 1 0 0 0 velocity 0 0.00103590549564638 0 angularVelocity 0 0 0 force 0 0 0 torque 0 0 0 radius 200 invMass 1.19366207318922e-11
BaseParticle id 51 indSpecies 0 position 200 6999.8450882195 200 orientation 1 0 0 0 velocity 0 0.00103590549564638 0 angularVelocity 0 0 0 force 0 0 0 torque 0 0 0 radius 200 invMass 1.19366207318922e-11
BaseParticle id 52 indSpecies 0 position -200 7399.87613192289 -200 orientation 1 0 0 0 velocity 0 0.00142455519607147 0 angularVelocity 0 0 0 force 0 0 0 torque 0 0 0 radius 200 invMass 1.19366207318922e-11
BaseParticle id 53 indSpecies 0 position -200 7399.87613192289 200 orientation 1 0 0 0 velocity 0 0.00142455519607147 0 angularVelocity 0 0 0 force 0 0 0 torque 0 0 0 radius 200 invMass 1.19366207318922e-11
BaseParticle id 54 indSpecies 0 position 200 7399.87613192289 -200 orientation 1 0 0 0 velocity 0 0.00142455519607147 0 angularVelocity 0 0 0 force 0 0 0 torque 0 0 0 radius 200 invMass 1.19366207318922e-11
BaseParticle id 55 indSpecies 0 position 200 7399.87613192289 200 orientation 1 0 0 0 velocity 0 0.00142455519607147 0 angularVelocity 0 0 0 force 0 0 0 torque 0 0 0 radius 200 invMass 1.19366207318922e-11
BaseParticle id 56 indSpecies 0 position -200 7799.88837070406 -200 orientation 1 0 0 0 velocity 0 0.00153398649507281 0 angularVelocity 0 0 0 force 0 0 0 torque 0 0 0 radius 200 invMass 1.19366207318922e-11
BaseParticle id 57 indSpecies 0 position -200 7799.88837070406 200 orientation 1 0 0 0 velocity 0 0.00153398649507281 0 angularVelocity 0 0 0 force 0 0 0 torque 0 0 0 radius 200 invMass 1.19366207318922e-11
BaseParticle id 58 indSpecies 0 position 200 7799.88837070406 -200 orientation 1 0 0 0 velocity 0 0.00153398649507281 0 angularVelocity 0 0 0 force 0 0 0 torque 0 0 0 radius 200 invMass 1.19366207318922e-11
BaseParticle id 59 indSpecies 0 position 200 7799.88837070406 200 orientation 1 0 0 0 velocity 0 0.00153398649507281 0 angularVelocity 0 0 0 force 0 0 0 torque 0 0 0 radius 200 invMass 1.19366207318922e-11
BaseParticle id 60 indSpecies 0 position -200 8199.8911562013 -200 orientation 1 0 0 0 velocity 0 0.0021586774095761 0 angularVelocity 0 0 0 force 0 0 0 torque 0 0 0 radius 200 invMass 1.19366207318922e-11
BaseParticle id 61 indSpecies 0 position -200 8199.8911562013 200 orientation 1 0 0 0 velocity 0 0.0021586774095761 0 angularVelocity 0 0 0 force 0 0 0 torque 0 0 0 radius 200 invMass 1.19366207318922e-11
BaseParticle id 62 indSpecies 0 position 200 8199.8911562013 -200 orientation 1 0 0 0 velocity 0 0.0021586774095761 0 angularVelocity 0 0 0 force 0 0 0 torque 0 0 0 radius 200 invMass 1.19366207318922e-11
BaseParticle id 63 indSpecies 0 position 200 8199.8911562013 200 orientation 1 0 0 0 velocity 0 0.0021586774095761 0 angularVelocity 0 0 0 force 0 0 0 torque 0 0 0 radius 200 invMass 1.19366207318922e-11
BaseParticle id 64 indSpecies 0 position -200 8599.89869716267 -200 orientation 1 0 0 0 velocity 0 0.00162270035141368 0 angularVelocity 0 0 0 force 0 0 0 torque 0 0 0 radius 200 invMass 1.19366207318922e-11
BaseParticle id 65 indSpecies 0 position -200 8599.89869716267 200 orientation 1 0 0 0 velocity 0 0.00162270035141368 0 angularVelocity 0 0 0 force 0 0 0 torque 0 0 0 radius 200 invMass 1.19366207318922e-11
BaseParticle id 66 indSpecies 0 position 200 8599.89869716267 -200 orientation 1 0 0 0 velocity 0 0.00162270035141368 0 angularVelocity 0 0 0 force 0 0 0 torque 0 0 0 radius 200 invMass 1.19366207318922e-11
BaseParticle id 67 indSpecies 0 position 200 8599.89869716267 200 orientation 1 0 0 0 velocity 0 0.00162270035141368 0 angularVelocity 0 0 0 force 0 0 0 torque 0 0 0 radius 200 invMass 1.19366207318922e-11
BaseParticle id 68 indSpecies 0 position -200 8999.91115286571 -200 orientation 1 0 0 0 velocity 0 0.00172059877930625 0 angularVelocity 0 0 0 force 0 0 0 torque 0 0 0 radius 200 invMass 1.19366207318922e-11
BaseParticle id 69 indSpecies 0 position -200 8999.91115286571 200 orientation 1 0 0 0 velocity 0 0.00172059877930625 0 angularVelocity 0 0 0 force 0 0 0 torque 0 0 0 radius 200 invMass 1.19366207318922e-11
BaseParticle id 70 indSpecies 0 position 200 8999.91115286571 -200 orientation 1 0 0 0 velocity 0 0.00172059877930625 0 angularVelocity 0 0 0 force 0 0 0 torque 0 0 0 radius 200 invMass 1.19366207318922e-11
BaseParticle id 71 indSpecies 0 position 200 8999.91115286571 200 orientation 1 0 0 0 velocity 0 0.00172059877930625 0 angularVelocity 0 0 0 force 0 0 0 torque 0 0 0 radius 200 invMass 1.19366207318922e-11
BaseParticle id 72 indSpecies 0 position -200 9399.92521058026 -200 orientation 1 0 0 0 velocity 0 0.00183296491548853 0 angularVelocity 0 0 0 force 0 0 0 torque 0 0 0 radius 200 invMass 1.19366207318922e-11
BaseParticle id 73 indSpecies 0 position -200 9399.92521058026 200 orientation 1 0 0 0 velocity 0 0.00183296491548853 0 angularVelocity 0 0 0 force 0 0 0 torque 0 0 0 radius 200 invMass 1.19366207318922e-11
BaseParticle id 74 indSpecies 0 position 200 9399.92521058026 -200 orientation 1 0 0 0 velocity 0 0.00183296491548853 0 angularVelocity 0 0 0 force 0 0 0 torque 0 0 0 radius 200 invMass 1.19366207318922e-11
BaseParticle id 75 indSpecies 0 position 200 9399.92521058026 200 orientation 1 0 0 0 velocity 0 0.00183296491548853 0 angularVelocity 0 0 0 force 0 0 0 torque 0 0 0 radius 200 invMass 1.19366207318922e-11
BaseParticle id 76 indSpecies 0 position -200 9799.94127195103 -200 orientation 1 0 0 0 velocity 0 0.00196362914814414 0 angularVelocity 0 0 0 force 0 0 0 torque 0 0 0 radius 200 invMass 1.19366207318922e-11
BaseParticle id 77 indSpecies 0 position -200 9799.94127195103 200 orientation 1 0 0 0 velocity 0 0.00196362914814414 0 angularVelocity 0 0 0 force 0 0 0 torque 0 0 0 radius 200 invMass 1.19366207318922e-11
BaseParticle id 78 indSpecies 0 position 200 9799.94127195103 -200 orientation 1 0 0 0 velocity 0 0.00196362914814414 0 angularVelocity 0 0 0 force 0 0 0 torque 0 0 0 radius 200 invMass 1.19366207318922e-11
BaseParticle id 79 indSpecies 0 position 200 9799.94127195103 200 orientation 1 0 0 0 velocity 0 0.00196362914814414 0 angularVelocity 0 0 0 force 0 0 0 torque 0 0 0 radius 200 invMass 1.19366207318922e-11
BaseParticle id 80 indSpecies 0 position -200 10199.9598836017 -200 orientation 1 0 0 0 velocity 0 0.00211780591761501 0 angularVelocity 0 0 0 force 0 0 0 torque 0 0 0 radius 200 invMass 1.19366207318922e-11
BaseParticle id 81 indSpecies 0 position -200 10199.9598836017 200 orientation 1 0 0 0 velocity 0 0.00211780591761501 0 angularVelocity 0 0 0 force 0 0 0 torque 0 0 0 radius 200 invMass 1.19366207318922e-11
BaseParticle id 82 indSpecies 0 position 200 10199.9598836017 -200 orientation 1 0 0 0 velocity 0 0.00211780591761501 0 angularVelocity 0 0 0 force 0 0 0 torque 0 0 0 radius 200 invMass 1.19366207318922e-11
BaseParticle id 83 indSpecies 0 position 200 10199.9598836017 200 orientation 1 0 0 0 velocity 0 0.00211780591761501 0 angularVelocity 0 0 0 force 0 0 0 torque 0 0 0 radius 200 invMass 1.19366207318922e-11
BaseParticle id 84 indSpecies 0 position -200 10599.9816990082 -200 orientation 1 0 0 0 velocity 0 0.00230146420857093 0 angularVelocity 0 0 0 force 0 0 0 torque 0 0 0 radius 200 invMass 1.19366207318922e-11
BaseParticle id 85 indSpecies 0 position -200 10599.9816990082 200 orientation 1 0 0 0 velocity 0 0.00230146420857093 0 angularVelocity 0 0 0 force 0 0 0 torque 0 0 0 radius 200 invMass 1.19366207318922e-11
BaseParticle id 86 indSpecies 0 position 200 10599.9816990082 -200 orientation 1 0 0 0 velocity 0 0.00230146420857093 0 angularVelocity 0 0 0 force 0 0 0 torque 0 0 0 radius 200 invMass 1.19366207318922e-11
BaseParticle id 87 indSpecies 0 position 200 10599.9816990082 200 orientation 1 0 0 0 velocity 0 0.00230146420857093 0 angularVelocity 0 0 0 force 0 0 0 torque 0 0 0 radius 200 invMass 1.19366207318922e-11
BaseParticle id 88 indSpecies 0 position -200 11000.0078499326 -200 orientation 1 0 0 0 velocity 0 0.00252559061736983 0 angularVelocity 0 0 0 force 0 0 0 torque 0 0 0 radius 200 invMass 1.19366207318922e-11
BaseParticle id 89 indSpecies 0 position -200 11000.0078499326 200 orientation 1 0 0 0 velocity 0 0.00252559061736983 0 angularVelocity 0 0 0 force 0 0 0 torque 0 0 0 radius 200 invMass 1.19366207318922e-11
BaseParticle id 90 indSpecies 0 position 200 11000.0078499326 -200 orientation 1 0 0 0 velocity 0 0.00252559061736983 0 angularVelocity 0 0 0 force 0 0 0 torque 0 0 0 radius 200 invMass 1.19366207318922e-11
BaseParticle id 91 indSpecies 0 position 200 11000.0078499326 200 orientation 1 0 0 0 velocity 0 0.00252559061736983 0 angularVelocity 0 0 0 force 0 0 0 torque 0 0 0 radius 200 invMass 1.19366207318922e-11
BaseParticle id 92 indSpecies 0 position -200 11400.03995223 -200 orientation 1 0 0 0 velocity 0 0.00280566830038197 0 angularVelocity 0 0 0 force 0 0 0 torque 0 0 0 radius 200 invMass 1.19366207318922e-11
BaseParticle id 93 indSpecies 0 position -200 11400.03995223 200 orientation 1 0 0 0 velocity 0 0.00280566830038197 0 angularVelocity 0 0 0 force 0 0 0 torque 0 0 0 radius 200 invMass 1.19366207318922e-11
BaseParticle id 94 indSpecies 0 position 200 11400.03995223 -200 orientation 1 0 0 0 velocity 0 0.00280566830038197 0 angularVelocity 0 0 0 force 0 0 0 torque 0 0 0 radius 200 invMass 1.19366207318922e-11
BaseParticle id 95 indSpecies 0 position 200 11400.03995223 200 orientation 1 0 0 0 velocity 0 0.00280566830038197 0 angularVelocity 0 0 0 force 0 0 0 torque 0 0 0 radius 200 invMass 1.19366207318922e-11
BaseParticle id 96 indSpecies 0 position -200 11800.0806845827 -200 orientation 1 0 0 0 velocity 0 0.00316767304793931 0 angularVelocity 0 0 0 force 0 0 0 torque 0 0 0 radius 200 invMass 1.19366207318922e-11
BaseParticle id 97 indSpecies 0 position -200 11800.0806845827 200 orientation 1 0 0 0 velocity 0 0.00316767304793931 0 angularVelocity 0 0 0 force 0 0 0 torque 0 0 0 radius 200 invMass 1.19366207318922e-11
BaseParticle id 98 indSpecies 0 position 200 11800.0806845827 -200 orientation 1 0 0 0 velocity 0 0.00316767304793931 0 angularVelocity 0 0 0 force 0 0 0 torque 0 0 0 radius 200 invMass 1.19366207318922e-11
BaseParticle id 99 indSpecies 0 position 200 11800.0806845827 200 orientation 1 0 0 0 velocity 0 0.00316767304793931 0 angularVelocity 0 0 0 force 0 0 0 torque 0 0 0 radius 200 invMass 1.19366207318922e-11
BaseParticle id 100 indSpecies 0 position -200 12200.1345511605 -200 orientation 1 0 0 0 velocity 0 0.00365528361274133 0 angularVelocity 0 0 0 force 0 0 0 torque 0 0 0 radius 200 invMass 1.19366207318922e-11
BaseParticle id 101 indSpecies 0 position -200 12200.1345511605 200 orientation 1 0 0 0 velocity 0 0.00365528361274133 0 angularVelocity 0 0 0 force 0 0 0 torque 0 0 0 radius 200 invMass 1.19366207318922e-11
BaseParticle id 102 indSpecies 0 position 200 12200.1345511605 -200 orientation 1 0 0 0 velocity 0 0.00365528361274133 0 angularVelocity 0 0 0 force 0 0 0 torque 0 0 0 radius 200 invMass 1.19366207318922e-11
BaseParticle id 103 indSpecies 0 position 200 12200.1345511605 200 orientation 1 0 0 0 velocity 0 0.00365528361274133 0 angularVelocity 0 0 0 force 0 0 0 torque 0 0 0 radius 200 invMass 1.19366207318922e-11
BaseParticle id 104 indSpecies 0 position -200 12600.2105715845 -200 orientation 1 0 0 0 velocity 0 0.0043570222649936 0 angularVelocity 0 0 0 force 0 0 0 torque 0 0 0 radius 200 invMass 1.19366207318922e-11
BaseParticle id 105 indSpecies 0 position -200 12600.2105715845 200 orientation 1 0 0 0 velocity 0 0.0043570222649936 0 angularVelocity 0 0 0 force 0 0 0 torque 0 0 0 radius 200 invMass 1.19366207318922e-11
BaseParticle id 106 indSpecies 0 position 200 12600.2105715845 -200 orientation 1 0 0 0 velocity 0 0.0043570222649936 0 angularVelocity 0 0 0 force 0 0 0 torque 0 0 0 radius 200 invMass 1.19366207318922e-11
BaseParticle id 107 indSpecies 0 position 200 12600.2105715845 200 orientation 1 0 0 0 velocity 0 0.0043570222649936 0 angularVelocity 0 0 0 force 0 0 0 torque 0 0 0 radius 200 invMass 1.19366207318922e-11
BaseParticle id 108 indSpecies 0 position -200 13000.3282775058 -200 orientation 1 0 0 0 velocity 0 0.00546489405658367 0 angularVelocity 0 0 0 force 0 0 0 torque 0 0 0 radius 200 invMass 1.19366207318922e-11
BaseParticle id 109 indSpecies 0 position -200 13000.3282775058 200 orientation 1 0 0 0 velocity 0 0.00546489405658367 0 angularVelocity 0 0 0 force 0 0 0 torque 0 0 0 radius 200 invMass 1.19366207318922e-11
BaseParticle id 110 indSpecies 0 position 200 13000.3282775058 -200 orientation 1 0 0 0 velocity 0 0.00546489405658367 0 angularVelocity 0 0 0 force 0 0 0 torque 0 0 0 radius 200 invMass 1.19366207318922e-11
BaseParticle id 111 indSpecies 0 position 200 13000.3282775058 200 orientation 1 0 0 0 velocity 0 0.00546489405658367 0 angularVelocity 0 0 0 force 0 0 0 torque 0 0 0 radius 200 invMass 1.19366207318922e-11
BaseParticle id 112 indSpecies 0 position -200 13400.5444000637 -200 orientation 1 0 0 0 velocity 0 0.00754097293065658 0 angularVelocity 0 0 0 force 0 0 0 torque 0 0 0 radius 200 invMass 1.19366207318922e-11
BaseParticle id 113 indSpecies 0 position -200 13400.5444000637 200 orientation 1 0 0 0 velocity 0 0.00754097293065658 0 angularVelocity 0 0 0 force 0 0 0 torque 0 0 0 radius 200 invMass 1.19366207318922e-11
BaseParticle id 114 indSpecies 0 position 200 13400.5444000637 -200 orientation 1 0 0 0 velocity 0 0.00754097293065658 0 angularVelocity 0 0 0 force 0 0 0 torque 0 0 0 radius 200 invMass 1.19366207318922e-11
BaseParticle id 115 indSpecies 0 position 200 13400.5444000637 200 orientation 1 0 0 0 velocity 0 0.00754097293065658 0 angularVelocity 0 0 0 force 0 0 0 torque 0 0 0 radius 200 invMass 1.19366207318922e-11
BaseParticle id 116 indSpecies 0 position -200 13801.124195325 -200 orientation 1 0 0 0 velocity 0 0.013227857120191 0 angularVelocity 0 0 0 force 0 0 0 torque 0 0 0 radius 200 invMass 1.19366207318922e-11
BaseParticle id 117 indSpecies 0 position -200 13801.124195325 200 orientation 1 0 0 0 velocity 0 0.013227857120191 0 angularVelocity 0 0 0 force 0 0 0 torque 0 0 0 radius 200 invMass 1.19366207318922e-11